/*--------------------------------*- C++ -*----------------------------------*\
| =========                 |                                                 |
| \\      /  F ield         | OpenFOAM: The Open Source CFD Toolbox           |
|  \\    /   O peration     | Version:  4.x                                   |
|   \\  /    A nd           | Web:      www.OpenFOAM.org                      |
|    \\/     M anipulation  |                                                 |
\*---------------------------------------------------------------------------*/
FoamFile
{
    version     2.0;
    format      ascii;
    class       volScalarField;
    location    "49.5";
    object      KslPrev;
}
// * * * * * * * * * * * * * * * * * * * * * * * * * * * * * * * * * * * * * //

dimensions      [1 -3 -1 0 0 0 0];

internalField   nonuniform List<scalar> 
87
(
3792.16
12344.2
3484.32
3220.72
6593.31
3127.04
3574.21
12657
3861.16
28431.6
3998.98
186474
4042.1
1e+10
4029.99
3483.7
10793.6
3683.51
15826.2
3786.84
26813
3824.9
72177.2
3820.14
3369.37
8165.33
3394.19
8028.9
3432.67
8468.34
3434.01
9263.21
3459.84
3516.59
10613.9
3704.41
14931.5
3754.69
22795.7
3788.06
42900.2
3760
3440.66
9097.04
3562.91
10040.4
3590.91
11134.9
3611.93
12958.4
3560.17
3359.86
7532.64
3299.19
6922.56
3263.45
6618.87
3220.82
6467.69
3158.12
3427.52
8078.28
3457.04
8045.25
3415.51
8039.45
3408.24
8365.54
3331.67
3369.1
7562.69
3342.43
7049.57
3289.62
6754.17
3256.71
6667.35
3178.96
3315.68
6971.33
3197.91
6017.07
3067.18
5487.7
3017.61
5244.59
2968.01
)
;

boundaryField
{
    inlet
    {
        type            zeroGradient;
    }
    outlet
    {
        type            zeroGradient;
    }
    wall
    {
        type            zeroGradient;
    }
    procBoundary6to0
    {
        type            processor;
        value           uniform 0;
    }
    procBoundary6to2
    {
        type            processor;
        value           uniform 0;
    }
    procBoundary6to4
    {
        type            processor;
        value           uniform 0;
    }
    procBoundary6to7
    {
        type            processor;
        value           uniform 0;
    }
}


// ************************************************************************* //
