/*--------------------------------*- C++ -*----------------------------------*\
| =========                 |                                                 |
| \\      /  F ield         | OpenFOAM: The Open Source CFD Toolbox           |
|  \\    /   O peration     | Version:  4.x                                   |
|   \\  /    A nd           | Web:      www.OpenFOAM.org                      |
|    \\/     M anipulation  |                                                 |
\*---------------------------------------------------------------------------*/
FoamFile
{
    version     2.0;
    format      ascii;
    class       volScalarField;
    location    "49.5";
    object      QPartFluidCoeff;
}
// * * * * * * * * * * * * * * * * * * * * * * * * * * * * * * * * * * * * * //

dimensions      [1 -1 -3 -1 0 0 0];

internalField   nonuniform List<scalar> 
87
(
-2.70531e+07
-2.27523e+07
-2.99155e+07
-1.90158e+07
-2.07922e+07
-1.87616e+07
-3.31788e+07
-2.98478e+07
-2.02781e+07
-2.66206e+07
-3.69096e+07
-2.026e+07
-2.90207e+07
-2.22368e+07
-3.32222e+07
-2.10118e+07
-3.07167e+07
-2.72557e+07
-3.4042e+07
-2.95049e+07
-2.90864e+07
-2.91683e+07
-3.06918e+07
-3.12964e+07
-1.5598e+07
-2.52713e+07
-1.98688e+07
-2.04679e+07
-2.90134e+07
-3.14919e+07
-2.4468e+07
-2.09472e+07
-2.91481e+07
-2.44982e+07
-3.00092e+07
-3.21984e+07
-2.87947e+07
-2.22381e+07
-2.63169e+07
-2.64507e+07
-2.04008e+07
-3.19173e+07
-1.79124e+07
-2.95751e+07
-2.94854e+07
-2.67866e+07
-2.64929e+07
-2.18662e+07
-3.34131e+07
-2.19899e+07
-3.32989e+07
-1.60344e+07
-2.22645e+07
-2.05997e+07
-2.6145e+07
-2.73902e+07
-2.0607e+07
-2.54327e+07
-2.14565e+07
-2.29263e+07
-1.63764e+07
-1.80361e+07
-2.47879e+07
-2.34538e+07
-2.39215e+07
-2.17485e+07
-3.43797e+07
-2.9104e+07
-1.51507e+07
-1.73276e+07
-1.94422e+07
-2.54302e+07
-2.06271e+07
-3.22539e+07
-2.23967e+07
-2.4044e+07
-2.03548e+07
-2.82958e+07
-1.41599e+07
-2.04512e+07
-2.25522e+07
-2.11199e+07
-1.7474e+07
-2.82913e+07
-1.87109e+07
-1.88065e+07
-2.39682e+07
)
;

boundaryField
{
    inlet
    {
        type            calculated;
        value           uniform 0;
    }
    outlet
    {
        type            calculated;
        value           nonuniform 0();
    }
    wall
    {
        type            calculated;
        value           uniform 0;
    }
    procBoundary6to0
    {
        type            processor;
        value           uniform 198.224;
    }
    procBoundary6to2
    {
        type            processor;
        value           nonuniform List<scalar> 
32
(
433.2
639.397
772.811
732.588
403.249
584.566
370.245
717.017
778.617
540.933
622.819
474.519
573.529
567.651
567.651
567.651
443.808
598.267
795.83
500.638
689.82
584.251
779.653
779.653
779.653
321.915
476.597
567.954
548.398
510.732
491.868
491.868
)
;
    }
    procBoundary6to4
    {
        type            processor;
        value           nonuniform List<scalar> 
27
(
261.402
509.002
710.647
431.808
665.958
505.447
834.526
453.807
534.757
469.008
648.9
570.25
729.326
795.539
575.119
895.026
640.368
615.378
548.263
530.019
506.535
603
638.171
720.98
375.868
391.541
536.129
)
;
    }
    procBoundary6to7
    {
        type            processor;
        value           nonuniform List<scalar> 
12
(
566.436
404.36
535.403
291.408
454.782
499.879
648.593
620.197
456.832
554.033
479.79
460.461
)
;
    }
}


// ************************************************************************* //
