/*--------------------------------*- C++ -*----------------------------------*\
| =========                 |                                                 |
| \\      /  F ield         | OpenFOAM: The Open Source CFD Toolbox           |
|  \\    /   O peration     | Version:  4.x                                   |
|   \\  /    A nd           | Web:      www.OpenFOAM.org                      |
|    \\/     M anipulation  |                                                 |
\*---------------------------------------------------------------------------*/
FoamFile
{
    version     2.0;
    format      ascii;
    class       volScalarField;
    location    "49.5";
    object      QWallFluid;
}
// * * * * * * * * * * * * * * * * * * * * * * * * * * * * * * * * * * * * * //

dimensions      [1 -1 -3 0 0 0 0];

internalField   nonuniform List<scalar> 
87
(
0
0
0
8.7509e+08
4.91014e+08
8.9392e+08
0
0
0
0
0
0
0
0
0
0
0
0
0
0
0
0
0
0
8.27091e+08
4.07789e+08
8.30037e+08
4.15288e+08
8.25265e+08
3.98036e+08
8.23003e+08
3.68032e+08
8.14175e+08
0
0
0
0
0
0
0
0
0
0
0
0
0
0
0
0
0
0
8.24885e+08
4.31213e+08
8.41682e+08
4.62885e+08
8.50309e+08
4.81148e+08
8.62234e+08
4.9064e+08
8.73896e+08
8.16075e+08
4.10868e+08
8.18268e+08
4.11958e+08
8.19541e+08
4.10773e+08
8.2095e+08
3.94943e+08
8.31546e+08
8.20707e+08
4.31024e+08
8.33597e+08
4.57301e+08
8.42608e+08
4.72475e+08
8.53548e+08
4.77319e+08
8.62848e+08
1.65631e+09
9.1015e+08
1.71051e+09
1.02617e+09
1.76674e+09
1.10678e+09
1.80723e+09
1.15583e+09
1.82527e+09
)
;

boundaryField
{
    inlet
    {
        type            calculated;
        value           uniform 0;
    }
    outlet
    {
        type            calculated;
        value           nonuniform 0();
    }
    wall
    {
        type            calculated;
        value           uniform 0;
    }
    procBoundary6to0
    {
        type            processor;
        value           uniform 0;
    }
    procBoundary6to2
    {
        type            processor;
        value           nonuniform List<scalar> 
32
(
0
0
0
8.66644e+08
4.61698e+08
8.76831e+08
0
0
0
0
0
0
0
0
0
0
0
0
0
0
0
0
0
0
0
8.28781e+08
4.18283e+08
8.42141e+08
4.45456e+08
8.57239e+08
4.69841e+08
4.69841e+08
)
;
    }
    procBoundary6to4
    {
        type            processor;
        value           nonuniform List<scalar> 
27
(
0
0
0
0
0
0
0
0
0
0
0
0
0
0
0
0
0
0
8.07656e+08
3.94571e+08
8.11348e+08
3.91193e+08
8.17139e+08
4.02899e+08
8.34931e+08
4.29475e+08
8.53716e+08
)
;
    }
    procBoundary6to7
    {
        type            processor;
        value           nonuniform List<scalar> 
12
(
0
0
4.96742e+08
0
0
2.99352e+08
0
0
4.93717e+08
3.79497e+08
4.73432e+08
1.15558e+09
)
;
    }
}


// ************************************************************************* //
