/*--------------------------------*- C++ -*----------------------------------*\
| =========                 |                                                 |
| \\      /  F ield         | OpenFOAM: The Open Source CFD Toolbox           |
|  \\    /   O peration     | Version:  4.x                                   |
|   \\  /    A nd           | Web:      www.OpenFOAM.org                      |
|    \\/     M anipulation  |                                                 |
\*---------------------------------------------------------------------------*/
FoamFile
{
    version     2.0;
    format      ascii;
    class       volVectorField;
    location    "49.5";
    object      U;
}
// * * * * * * * * * * * * * * * * * * * * * * * * * * * * * * * * * * * * * //

dimensions      [0 1 -1 0 0 0 0];

internalField   nonuniform List<vector> 
87
(
(0.0282705 0.000589852 -0.000163708)
(0.00863216 0.000632069 -0.000542984)
(0.0309897 0.000945041 -0.000315438)
(0.0329715 0.000268767 -0.000857088)
(0.0159866 -0.000178109 -0.000965145)
(0.0339076 -0.000101434 -0.000897686)
(0.0294738 0.000294427 -0.000570791)
(0.00840747 0.000185882 -0.000179548)
(0.0278393 0.000308991 -0.000384709)
(0.00377247 6.20781e-05 -0.000121901)
(0.0271383 8.94184e-05 -0.000209727)
(0.000572006 9.44405e-06 -2.1883e-05)
(0.0266236 -0.000216743 -9.77144e-05)
(1.12824e-08 1.32941e-10 -1.26884e-10)
(0.0264627 -0.000445802 -0.000125051)
(0.0297532 0.00166173 -0.00054644)
(0.00974142 0.000607741 -0.000311731)
(0.0290426 0.00157104 -0.000540559)
(0.00675457 0.000447153 -0.000331994)
(0.028571 0.000928041 -0.000497852)
(0.00397761 0.000275878 -0.000257434)
(0.0281949 0.000161258 -0.000519313)
(0.00146078 0.000124968 -0.000137607)
(0.0280682 -0.000438031 -0.000402998)
(0.030066 0.000905845 -0.000565671)
(0.0125787 0.000419542 -0.000384238)
(0.0306674 0.000955577 -0.000601968)
(0.0130233 0.000300512 -0.00058981)
(0.0310047 0.000662792 -0.000614894)
(0.0125168 0.000183329 -0.000615063)
(0.0308932 0.000507753 -0.000559166)
(0.0112795 4.17992e-05 -0.000692741)
(0.0305958 -0.000147756 -0.000455248)
(0.0296326 0.000719127 0.000970585)
(0.00993583 0.000296695 0.00031919)
(0.0289408 0.000810654 0.00102139)
(0.00713639 0.000202508 0.000317406)
(0.0285646 0.00056651 0.000780298)
(0.0046686 3.39692e-05 0.000216751)
(0.0283654 0.000264081 0.00017667)
(0.00244491 -3.33648e-05 0.000204586)
(0.0282808 0.000115654 1.60692e-05)
(0.0297825 0.00160292 0.000779602)
(0.0114648 0.000708321 0.000315663)
(0.0297995 0.00161262 0.000955992)
(0.010544 0.000514106 0.000228841)
(0.0298304 0.00131444 0.000897723)
(0.00952434 0.000472275 0.000188723)
(0.0297711 0.00106559 0.000793488)
(0.00814783 0.000364756 0.000124513)
(0.0300477 0.000779573 0.000472618)
(0.029981 0.000783775 0.000511526)
(0.0134876 0.000399138 0.000192134)
(0.0312753 0.000740628 0.000610366)
(0.0149975 0.000291301 0.000232956)
(0.0322053 0.000536723 0.000649765)
(0.0158076 0.00026844 0.000149116)
(0.0327534 0.000433722 0.000552223)
(0.0161525 0.00014898 0.000111188)
(0.033315 0.000211005 0.000590171)
(0.0298506 0.000681293 0.000714725)
(0.0127306 0.000221968 0.000300531)
(0.0303991 0.000513329 0.000715433)
(0.0130213 0.000122417 0.000207572)
(0.0308922 0.000189771 0.000665962)
(0.0130736 -9.43743e-05 0.000197721)
(0.0312143 -0.000193053 0.000626895)
(0.0124837 -0.00026937 0.000266293)
(0.031364 -0.000268773 0.000554478)
(0.0299247 0.00120629 0.000460728)
(0.0134588 0.000587571 0.000205066)
(0.0310286 0.00120762 0.000403313)
(0.0147401 0.00054183 0.000101427)
(0.0319959 0.000882389 0.000286541)
(0.0154968 0.000454318 0.000138721)
(0.0324241 0.000653236 0.000294824)
(0.0156553 0.000150319 1.40514e-05)
(0.033029 0.000212253 0.000128678)
(0.0300066 0.000616938 0.00029648)
(0.0143779 0.000280923 7.60573e-05)
(0.0319069 0.000575892 0.000234887)
(0.0169871 0.000270606 5.92607e-05)
(0.0335976 0.000404617 0.000140144)
(0.0188955 8.3322e-05 -6.9003e-05)
(0.0345252 0.000234529 8.28878e-05)
(0.0197324 -8.05225e-05 -0.000238503)
(0.0351448 -7.41159e-05 -0.000169244)
)
;

boundaryField
{
    inlet
    {
        type            fixedValue;
        value           uniform (0.01 0 0);
    }
    outlet
    {
        type            zeroGradient;
    }
    wall
    {
        type            fixedValue;
        value           uniform (0 0 0);
    }
    procBoundary6to0
    {
        type            processor;
        value           uniform (0.0284126 -5.55432e-05 -0.000276501);
    }
    procBoundary6to2
    {
        type            processor;
        value           nonuniform List<vector> 
32
(
(0.0274343 -0.000506005 4.49409e-05)
(0.0032876 0.000183596 -0.00017249)
(0.0291304 -4.76672e-05 -0.000137404)
(0.0324121 0.000580258 -0.000803122)
(0.0146454 8.70995e-05 -0.000730558)
(0.0328756 0.000220924 -0.000489969)
(0.0297347 0.000586893 -0.00175672)
(0.00919887 0.000317499 -0.000719201)
(0.0289387 0.00083219 -0.00142806)
(0.00605524 0.000220267 -0.000495412)
(0.0284061 0.000676171 -0.000774357)
(0.00357455 0.000154291 -0.000256524)
(0.0282555 0.00051703 -3.11099e-05)
(0.00139344 8.01742e-05 -0.00013941)
(0.00139344 8.01742e-05 -0.00013941)
(0.00139344 8.01742e-05 -0.00013941)
(0.0297278 0.00156838 -0.00149934)
(0.0108293 0.000771563 -0.000735713)
(0.0297296 0.00173411 -0.0013492)
(0.00964347 0.000620387 -0.000658873)
(0.0297927 0.0015481 -0.00105697)
(0.00888714 0.000579898 -0.000507086)
(0.0302946 0.00132462 -0.000613127)
(0.0302946 0.00132462 -0.000613127)
(0.0302946 0.00132462 -0.000613127)
(0.03 0.000793491 -0.001354)
(0.0128854 0.0003719 -0.000840884)
(0.0311226 0.000741244 -0.00139303)
(0.0141109 0.000261903 -0.000993251)
(0.0320133 0.000526349 -0.00128552)
(0.0151601 0.000129732 -0.000788275)
(0.0151601 0.000129732 -0.000788275)
)
;
    }
    procBoundary6to4
    {
        type            processor;
        value           nonuniform List<vector> 
27
(
(0.0297304 -0.000612073 -0.000684733)
(0.00951736 -0.000165492 -0.000264645)
(0.0286683 -0.000577622 -0.000497135)
(0.00589925 -0.000234028 -0.000245018)
(0.0280936 -0.000487241 -0.000360307)
(0.00266537 -0.000144947 -7.6876e-05)
(0.0278261 8.71379e-05 -0.000246498)
(0.000333964 -2.89334e-05 -7.64588e-06)
(0.027508 1.57448e-05 7.64686e-05)
(0.0297098 -0.000302795 0.000393214)
(0.0100297 2.60197e-05 0.000321771)
(0.0289626 -4.1574e-05 0.000774463)
(0.00711369 -7.80239e-06 0.000204952)
(0.02869 -2.79471e-05 0.000820491)
(0.00470409 -7.87315e-05 0.000210235)
(0.0287159 -4.71048e-05 0.000765121)
(0.00293992 -6.4822e-05 0.000134718)
(0.0288856 -5.31953e-05 0.000209262)
(0.0297087 -0.000166048 0.00049538)
(0.0121886 -7.42211e-05 0.000332968)
(0.0301356 -0.00026081 0.00073004)
(0.0122527 -0.000181739 0.000312128)
(0.030877 -0.000286458 0.000717512)
(0.0128395 -0.000273112 0.000329602)
(0.0316058 -0.000345099 0.000777946)
(0.0137554 -0.000303887 0.000183088)
(0.0325579 -0.000413557 0.000481135)
)
;
    }
    procBoundary6to7
    {
        type            processor;
        value           nonuniform List<vector> 
12
(
(5.6587e-05 7.56025e-06 -6.76985e-06)
(0.00900893 0.00086795 -0.000730516)
(0.0163439 -0.000504884 -0.00125366)
(1.14123e-08 5.47481e-10 -2.93876e-12)
(1.19068e-08 1.4214e-09 -1.08925e-09)
(0.00874692 -9.7915e-05 -0.000712897)
(0.000426099 2.05037e-07 5.16007e-05)
(0.00704169 0.000351542 0.000158279)
(0.0163731 -0.000101785 0.000189842)
(0.0118648 -0.000333969 0.000164635)
(0.0155906 0.00013576 -0.000182061)
(0.0199253 -0.000347841 -0.000448811)
)
;
    }
}


// ************************************************************************* //
