/*--------------------------------*- C++ -*----------------------------------*\
| =========                 |                                                 |
| \\      /  F ield         | OpenFOAM: The Open Source CFD Toolbox           |
|  \\    /   O peration     | Version:  4.x                                   |
|   \\  /    A nd           | Web:      www.OpenFOAM.org                      |
|    \\/     M anipulation  |                                                 |
\*---------------------------------------------------------------------------*/
FoamFile
{
    version     2.0;
    format      ascii;
    class       volVectorField;
    location    "22";
    object      ddtUrel;
}
// * * * * * * * * * * * * * * * * * * * * * * * * * * * * * * * * * * * * * //

dimensions      [0 1 -2 0 0 0 0];

internalField   nonuniform List<vector> 
108
(
(5.72403e-08 -9.9086e-09 -1.41713e-08)
(5.204e-08 -8.74179e-09 -1.729e-08)
(4.60414e-08 -9.41957e-09 -1.7474e-08)
(3.15144e-08 -3.37271e-09 -1.62527e-08)
(1.89306e-08 5.74723e-09 -1.61198e-08)
(7.46617e-09 1.18911e-08 -1.4834e-08)
(-3.38228e-09 1.7148e-08 -1.39207e-08)
(4.02224e-10 2.14058e-08 -9.85154e-09)
(4.73964e-09 2.65023e-08 -1.32871e-08)
(6.66875e-08 -1.31952e-08 -2.33092e-08)
(6.19838e-08 -1.35837e-08 -2.61126e-08)
(5.38376e-08 -1.13299e-08 -2.48342e-08)
(4.01933e-08 -2.48488e-09 -2.13515e-08)
(2.70912e-08 9.93255e-09 -1.89589e-08)
(1.38038e-08 1.87567e-08 -1.77131e-08)
(2.02416e-09 2.80907e-08 -1.96903e-08)
(4.98526e-09 3.89236e-08 -2.12753e-08)
(1.57722e-08 4.99323e-08 -2.81144e-08)
(7.08293e-08 -1.38612e-08 -3.38065e-08)
(6.73192e-08 -1.63147e-08 -3.63237e-08)
(6.0571e-08 -1.15662e-08 -3.30189e-08)
(4.94184e-08 -7.77079e-10 -2.64028e-08)
(4.00606e-08 1.08933e-08 -2.37156e-08)
(2.28091e-08 2.47514e-08 -2.12165e-08)
(1.23442e-08 4.17067e-08 -2.57323e-08)
(2.29343e-08 7.01624e-08 -3.56885e-08)
(6.48107e-08 1.1269e-07 -5.78656e-08)
(7.13346e-08 -1.35963e-08 -4.29862e-08)
(7.18576e-08 -1.50656e-08 -4.59833e-08)
(6.32628e-08 -7.41493e-09 -3.95647e-08)
(5.58008e-08 6.39935e-10 -2.96028e-08)
(5.4301e-08 8.34069e-09 -2.91949e-08)
(3.2744e-08 2.71629e-08 -2.46692e-08)
(2.8805e-08 5.40081e-08 -3.0546e-08)
(7.45893e-08 1.16985e-07 -6.01844e-08)
(2.34805e-07 2.94389e-07 -1.67317e-07)
(5.4494e-08 -9.10548e-09 -1.51871e-08)
(5.31662e-08 -8.20679e-09 -1.85561e-08)
(4.72702e-08 -8.49496e-09 -1.69192e-08)
(3.40912e-08 -2.70076e-09 -1.52338e-08)
(2.15737e-08 6.25548e-09 -1.41972e-08)
(1.16568e-08 1.35338e-08 -1.11992e-08)
(-6.391e-09 1.99069e-08 -9.41871e-09)
(-1.29374e-08 2.55208e-08 -7.06054e-09)
(-8.06476e-09 2.95764e-08 -7.29407e-09)
(6.66509e-08 -1.18209e-08 -2.60499e-08)
(6.46655e-08 -1.27365e-08 -2.89771e-08)
(5.60598e-08 -1.05292e-08 -2.52842e-08)
(4.21043e-08 -2.13102e-09 -1.96774e-08)
(2.71543e-08 1.05129e-08 -1.62048e-08)
(1.37763e-08 2.0192e-08 -1.32703e-08)
(-3.84829e-09 3.02257e-08 -1.24324e-08)
(-1.07616e-08 4.01714e-08 -1.25535e-08)
(-5.05539e-09 4.90935e-08 -1.41013e-08)
(7.67486e-08 -1.36707e-08 -4.08026e-08)
(7.64961e-08 -1.56266e-08 -4.21301e-08)
(6.62182e-08 -1.13187e-08 -3.43437e-08)
(5.18944e-08 -2.36393e-10 -2.49699e-08)
(3.50063e-08 1.28132e-08 -1.86033e-08)
(1.87833e-08 2.58686e-08 -1.47752e-08)
(2.16183e-10 4.13732e-08 -1.44548e-08)
(-1.60629e-09 6.12919e-08 -1.79024e-08)
(1.4105e-08 8.25183e-08 -2.46e-08)
(8.50176e-08 -1.2519e-08 -5.98611e-08)
(8.93966e-08 -1.36101e-08 -5.79805e-08)
(7.34223e-08 -9.30577e-09 -4.19505e-08)
(5.70977e-08 1.38357e-09 -2.8352e-08)
(4.07801e-08 1.34136e-08 -2.07174e-08)
(2.215e-08 2.91268e-08 -1.5874e-08)
(1.00839e-08 5.07931e-08 -1.5887e-08)
(1.86355e-08 8.40541e-08 -2.54905e-08)
(5.22447e-08 1.30865e-07 -4.71818e-08)
(5.25751e-08 -7.78942e-09 -1.78204e-08)
(5.40075e-08 -6.93322e-09 -1.91562e-08)
(4.7694e-08 -5.58145e-09 -1.76975e-08)
(3.23231e-08 3.52519e-10 -1.41733e-08)
(2.00513e-08 7.71631e-09 -9.7269e-09)
(9.41657e-09 1.63671e-08 -6.19535e-09)
(-1.40763e-08 2.47093e-08 -2.33318e-09)
(-2.6967e-08 3.2061e-08 8.31178e-10)
(-2.44142e-08 3.73533e-08 2.49922e-09)
(6.91874e-08 -1.10132e-08 -3.28772e-08)
(6.77284e-08 -1.13582e-08 -3.27362e-08)
(5.86379e-08 -9.3798e-09 -2.63703e-08)
(4.09586e-08 -3.67886e-10 -1.82102e-08)
(2.37778e-08 1.25887e-08 -1.16819e-08)
(7.92865e-09 2.40326e-08 -6.44488e-09)
(-1.75074e-08 3.66614e-08 -1.67676e-09)
(-3.19505e-08 4.94668e-08 1.843e-09)
(-3.09152e-08 5.88822e-08 3.92006e-09)
(8.92187e-08 -1.71008e-08 -5.98546e-08)
(8.81174e-08 -1.7034e-08 -5.42648e-08)
(7.21442e-08 -1.16317e-08 -3.78447e-08)
(5.17341e-08 8.33302e-10 -2.42014e-08)
(2.98376e-08 1.59419e-08 -1.3789e-08)
(9.26595e-09 3.17826e-08 -6.13176e-09)
(-1.73477e-08 5.01237e-08 -2.31935e-10)
(-3.32321e-08 7.08238e-08 4.05569e-09)
(-3.27462e-08 8.74096e-08 5.68656e-09)
(1.15253e-07 -1.86436e-08 -1.04146e-07)
(1.14178e-07 -1.97503e-08 -8.35657e-08)
(8.36114e-08 -1.14256e-08 -5.07631e-08)
(5.55311e-08 2.49701e-09 -2.91078e-08)
(3.22903e-08 1.84636e-08 -1.54239e-08)
(8.03778e-09 3.65467e-08 -5.55808e-09)
(-1.65697e-08 5.99875e-08 1.3227e-09)
(-3.14753e-08 8.85399e-08 5.17725e-09)
(-3.01811e-08 1.12898e-07 5.92477e-09)
)
;

boundaryField
{
    inlet
    {
        type            calculated;
        value           nonuniform 0();
    }
    outlet
    {
        type            calculated;
        value           nonuniform List<vector> 
12
(
(2.52692e-08 9.42799e-10 -3.32884e-08)
(1.43399e-08 -2.56914e-08 -4.53308e-08)
(-3.294e-09 -2.1002e-08 1.23262e-08)
(1.84281e-06 1.92437e-06 -1.21721e-06)
(5.31308e-09 -9.38067e-10 -9.3868e-09)
(8.13016e-09 2.46611e-09 -1.71733e-08)
(4.99431e-09 -3.44586e-09 -1.16771e-09)
(-1.28647e-08 -1.90084e-08 2.2992e-08)
(8.64144e-09 1.78178e-10 -4.49272e-09)
(9.30564e-09 -4.55307e-10 5.46475e-11)
(7.71589e-09 9.24082e-10 -4.2047e-09)
(2.16119e-09 -8.41026e-09 1.42615e-08)
)
;
    }
    wall
    {
        type            calculated;
        value           nonuniform List<vector> 
63
(
(1.05239e-07 -1.55494e-08 2.79869e-09)
(1.24204e-07 -3.35258e-08 -1.25098e-08)
(6.91015e-08 -1.76005e-08 -2.43486e-08)
(-4.58631e-09 -9.3261e-09 -3.13708e-08)
(7.76596e-08 1.32215e-09 -8.18522e-09)
(6.18801e-08 -3.09279e-08 -2.52027e-08)
(3.3537e-09 -4.89052e-08 -4.25463e-08)
(-6.66022e-08 -4.55631e-08 -7.01681e-08)
(8.91198e-08 -4.04992e-08 -1.19059e-08)
(6.41215e-08 -3.60483e-08 -3.03088e-08)
(2.68588e-08 -4.24301e-08 -4.68815e-08)
(-4.25009e-08 8.30598e-09 -6.56504e-08)
(1.51262e-08 -1.91096e-08 -1.14726e-08)
(6.97425e-09 -1.08603e-08 -2.16014e-08)
(2.89622e-08 -1.55389e-09 -2.59359e-08)
(3.82479e-08 2.71865e-09 -1.37869e-08)
(-1.92431e-08 1.41671e-08 -2.34571e-08)
(-4.11281e-09 3.29084e-08 -2.06128e-08)
(5.47291e-08 1.02271e-08 -4.08283e-08)
(1.44145e-07 -5.72426e-08 -9.86458e-08)
(-6.95901e-08 2.96307e-09 -2.53345e-08)
(-4.03112e-08 1.68468e-08 -2.24334e-08)
(-1.16209e-08 2.21645e-08 -2.13041e-08)
(1.47559e-08 1.04564e-09 -3.09057e-08)
(-7.84667e-08 -2.13953e-09 -2.73952e-08)
(-6.10378e-08 1.14833e-08 -4.42023e-08)
(-6.95191e-08 7.87709e-09 -5.11102e-08)
(-2.0782e-08 -1.73767e-08 -1.75986e-08)
(5.22809e-08 -1.6867e-08 3.00399e-08)
(-3.62012e-08 -7.97326e-09 -1.88247e-08)
(-1.13442e-07 1.50516e-09 -1.86207e-08)
(5.27956e-08 -9.10169e-09 1.22148e-08)
(4.68803e-08 7.75944e-09 -3.15148e-08)
(1.87903e-08 -5.50669e-08 -4.07023e-08)
(-1.17369e-08 -1.61752e-08 1.26196e-08)
(1.96328e-06 2.00787e-06 -1.29247e-06)
(3.49424e-08 -1.12017e-08 -2.97548e-08)
(7.54928e-08 7.99269e-09 -7.67627e-08)
(1.33975e-07 2.45146e-08 -2.61789e-07)
(1.31798e-07 -4.72536e-08 -7.08353e-08)
(1.75727e-07 -4.78048e-09 -1.11546e-07)
(2.49193e-07 -3.02288e-08 -1.4706e-07)
(2.71878e-08 8.38738e-09 -6.18521e-08)
(1.13932e-07 -2.27821e-08 -3.79794e-08)
(1.34731e-07 -3.36647e-08 -3.8647e-08)
(5.61564e-08 2.94425e-09 -1.29547e-08)
(7.49841e-08 3.50986e-10 -1.7628e-08)
(5.75963e-08 -7.22349e-09 -1.73837e-08)
(2.59156e-07 -4.77109e-08 -8.12671e-08)
(3.22576e-08 2.07477e-09 -9.0736e-09)
(3.84187e-08 7.48079e-09 -1.19568e-08)
(2.52122e-08 2.76577e-09 -2.97199e-08)
(4.32275e-09 4.99241e-09 -4.76683e-09)
(1.23848e-08 2.98254e-10 -9.52558e-11)
(1.03332e-08 -5.42837e-09 -1.49577e-09)
(-1.60337e-08 3.84775e-09 8.40507e-10)
(-1.47326e-08 -1.04881e-09 -1.27806e-09)
(6.91593e-08 -8.22391e-09 1.23502e-08)
(-1.07778e-08 -4.98556e-09 2.13259e-09)
(-6.52212e-08 6.11614e-09 -2.84295e-09)
(5.0866e-06 4.94487e-06 -4.85844e-06)
(-2.14026e-08 -7.90546e-09 8.44527e-09)
(-1.01376e-08 -8.11313e-09 1.44701e-08)
)
;
    }
    procBoundary3to1
    {
        type            processor;
        value           nonuniform List<vector> 
27
(
(4.03107e-08 -8.32673e-09 -9.03814e-09)
(3.41451e-08 -5.86038e-09 -1.21335e-08)
(3.34718e-08 -5.65694e-09 -1.30412e-08)
(2.15131e-08 -1.32375e-09 -1.23857e-08)
(1.2095e-08 1.80515e-09 -1.35884e-08)
(4.21708e-09 5.53239e-09 -1.29996e-08)
(-3.12517e-09 9.7174e-09 -9.85538e-09)
(-3.22367e-09 1.1836e-08 -5.89492e-09)
(6.99342e-09 1.34986e-08 -4.797e-09)
(4.15751e-08 -8.16791e-09 -8.87124e-09)
(3.74514e-08 -5.68465e-09 -1.25473e-08)
(3.64473e-08 -5.02773e-09 -1.3457e-08)
(2.49035e-08 -1.13502e-09 -1.21683e-08)
(1.56368e-08 2.84004e-09 -1.13918e-08)
(8.70134e-09 7.13628e-09 -9.73183e-09)
(-5.20234e-09 1.17109e-08 -7.26833e-09)
(-1.10217e-08 1.4878e-08 -3.48177e-09)
(-3.92371e-09 1.70379e-08 -2.90757e-09)
(4.13623e-08 -7.18516e-09 -1.07432e-08)
(4.0478e-08 -4.49329e-09 -1.24355e-08)
(3.73249e-08 -2.5872e-09 -1.32928e-08)
(2.65611e-08 7.43165e-10 -1.1457e-08)
(1.71999e-08 3.53951e-09 -7.92755e-09)
(9.09505e-09 9.88349e-09 -5.54432e-09)
(-9.37261e-09 1.57381e-08 -2.0659e-09)
(-2.15489e-08 1.95635e-08 1.53659e-09)
(-1.80598e-08 2.211e-08 2.565e-09)
)
;
    }
    procBoundary3to2
    {
        type            processor;
        value           nonuniform List<vector> 
12
(
(6.10134e-08 -9.18561e-09 -1.20569e-08)
(6.576e-08 -1.00779e-08 -1.98826e-08)
(6.8284e-08 -1.12775e-08 -2.8809e-08)
(7.0416e-08 -1.32372e-08 -3.60796e-08)
(5.59663e-08 -7.27852e-09 -1.24907e-08)
(6.31818e-08 -8.19467e-09 -2.17229e-08)
(6.95689e-08 -9.21468e-09 -3.40947e-08)
(6.92115e-08 -1.01039e-08 -4.84759e-08)
(5.38116e-08 -5.86156e-09 -1.45994e-08)
(6.36498e-08 -7.11654e-09 -2.61637e-08)
(7.61407e-08 -8.81342e-09 -4.39785e-08)
(8.33724e-08 -7.93195e-09 -6.67869e-08)
)
;
    }
    procBoundary3to7
    {
        type            processor;
        value           nonuniform List<vector> 
36
(
(5.33819e-08 -7.21435e-09 -1.96582e-08)
(5.21116e-08 -6.2419e-09 -1.92483e-08)
(4.47021e-08 -3.34361e-09 -1.69327e-08)
(3.09534e-08 3.2351e-09 -1.1923e-08)
(1.63508e-08 1.17684e-08 -4.78898e-09)
(1.8728e-09 2.27361e-08 -2.71989e-10)
(-2.45703e-08 3.47742e-08 5.40789e-09)
(-4.36315e-08 4.67267e-08 1.13024e-08)
(-4.4995e-08 5.52906e-08 1.50375e-08)
(7.17114e-08 -1.25436e-08 -3.99864e-08)
(6.92708e-08 -1.12111e-08 -3.52374e-08)
(5.70221e-08 -6.48557e-09 -2.62499e-08)
(3.88944e-08 3.83908e-09 -1.5777e-08)
(1.79156e-08 1.78943e-08 -6.23946e-09)
(-3.25995e-09 3.39873e-08 1.90936e-09)
(-3.51068e-08 5.36261e-08 1.09386e-08)
(-5.92596e-08 7.55821e-08 1.96027e-08)
(-6.68984e-08 9.18765e-08 2.60977e-08)
(1.05891e-07 -2.63828e-08 -9.52855e-08)
(1.0161e-07 -2.08132e-08 -7.02333e-08)
(7.46011e-08 -9.86196e-09 -4.27817e-08)
(4.75776e-08 4.51223e-09 -2.23933e-08)
(2.03057e-08 2.3645e-08 -7.83461e-09)
(-7.74502e-09 4.67426e-08 4.45865e-09)
(-4.58503e-08 7.6095e-08 1.78471e-08)
(-7.76938e-08 1.12096e-07 3.13912e-08)
(-9.33944e-08 1.41065e-07 4.18387e-08)
(2.10199e-07 -5.08244e-08 -2.03996e-07)
(1.66279e-07 -3.49974e-08 -1.30292e-07)
(9.41955e-08 -1.19373e-08 -6.37548e-08)
(5.34231e-08 5.95706e-09 -2.90913e-08)
(2.125e-08 2.75348e-08 -9.17903e-09)
(-1.17643e-08 5.55463e-08 6.86845e-09)
(-5.37373e-08 9.34935e-08 2.35376e-08)
(-9.27856e-08 1.42435e-07 4.17237e-08)
(-1.18084e-07 1.85495e-07 5.70093e-08)
)
;
    }
}


// ************************************************************************* //
