/*--------------------------------*- C++ -*----------------------------------*\
| =========                 |                                                 |
| \\      /  F ield         | OpenFOAM: The Open Source CFD Toolbox           |
|  \\    /   O peration     | Version:  4.x                                   |
|   \\  /    A nd           | Web:      www.OpenFOAM.org                      |
|    \\/     M anipulation  |                                                 |
\*---------------------------------------------------------------------------*/
FoamFile
{
    version     2.0;
    format      ascii;
    class       volScalarField;
    location    "22";
    object      QPartFluid;
}
// * * * * * * * * * * * * * * * * * * * * * * * * * * * * * * * * * * * * * //

dimensions      [1 -1 -3 0 0 0 0];

internalField   nonuniform List<scalar> 
108
(
8.61984e+09
3.8768e+09
6.84021e+09
3.27719e+09
5.08959e+09
3.83408e+09
5.65966e+09
5.04442e+09
3.3238e+09
6.43788e+09
8.97671e+09
5.12442e+09
5.65116e+09
6.38869e+09
5.15388e+09
6.21446e+09
5.7519e+09
3.95679e+09
6.67858e+09
6.80004e+09
7.14446e+09
4.92635e+09
5.88506e+09
5.1921e+09
6.60643e+09
6.53142e+09
3.74082e+09
4.35979e+09
3.957e+09
5.03986e+09
6.65051e+09
5.50406e+09
5.47922e+09
3.64897e+09
5.18409e+09
5.04142e+09
8.58374e+09
7.96589e+09
1.02284e+10
1.04985e+10
8.4192e+09
7.8816e+09
6.8231e+09
8.50255e+09
8.03978e+09
7.83696e+09
8.12173e+09
8.52798e+09
9.11057e+09
7.85167e+09
8.19369e+09
9.78246e+09
9.35853e+09
6.25458e+09
1.2771e+10
9.82742e+09
8.97938e+09
1.12084e+10
8.31535e+09
9.8343e+09
7.82443e+09
9.37878e+09
7.50455e+09
8.45753e+09
7.14479e+09
7.04716e+09
8.35089e+09
9.20491e+09
7.66632e+09
7.32872e+09
8.71457e+09
6.03456e+09
8.05956e+09
1.07056e+10
8.92179e+09
1.00307e+10
6.3924e+09
7.61707e+09
8.85885e+09
8.30211e+09
6.75541e+09
9.60547e+09
6.13668e+09
8.11087e+09
4.98418e+09
4.33955e+09
9.41129e+09
7.7296e+09
1.09788e+10
5.45926e+09
6.03581e+09
1.02204e+10
9.12509e+09
7.17059e+09
7.24198e+09
9.81564e+09
7.95472e+09
9.21153e+09
4.58473e+09
8.80693e+09
4.84681e+09
5.81786e+09
6.9659e+09
6.4539e+09
8.53187e+09
6.41244e+09
9.488e+09
7.40754e+09
)
;

boundaryField
{
    inlet
    {
        type            calculated;
        value           nonuniform 0();
    }
    outlet
    {
        type            calculated;
        value           uniform 0;
    }
    wall
    {
        type            calculated;
        value           uniform 0;
    }
    procBoundary3to1
    {
        type            processor;
        value           nonuniform List<scalar> 
27
(
3.98343e+09
7.02848e+09
6.34304e+09
8.87113e+09
6.20793e+09
5.55951e+09
5.27272e+09
5.41348e+09
3.71856e+09
9.15485e+09
8.49535e+09
7.21655e+09
6.79835e+09
5.71635e+09
9.13783e+09
9.09687e+09
1.28424e+10
4.13194e+09
8.05362e+09
7.66524e+09
5.33645e+09
1.07837e+10
8.52543e+09
1.02611e+10
7.13228e+09
9.20423e+09
3.22036e+09
)
;
    }
    procBoundary3to2
    {
        type            processor;
        value           nonuniform List<scalar> 
12
(
3.03888e+09
4.51383e+09
6.51078e+09
3.96212e+09
1.11928e+10
6.45153e+09
7.69363e+09
4.79715e+09
9.14615e+09
5.74713e+09
1.0208e+10
7.69802e+09
)
;
    }
    procBoundary3to7
    {
        type            processor;
        value           nonuniform List<scalar> 
36
(
9.99126e+09
8.99444e+09
6.3333e+09
7.80223e+09
1.0895e+10
1.22268e+10
7.92025e+09
6.55887e+09
6.0277e+09
7.7989e+09
1.1434e+10
7.54165e+09
8.14155e+09
8.44393e+09
6.996e+09
7.71507e+09
7.73921e+09
6.63442e+09
5.27924e+09
9.33049e+09
6.8896e+09
8.8754e+09
8.26853e+09
1.03256e+10
8.64491e+09
8.91267e+09
7.40026e+09
7.09055e+09
7.50416e+09
9.03087e+09
5.99342e+09
8.07739e+09
8.19594e+09
8.28656e+09
7.43761e+09
3.93977e+09
)
;
    }
}


// ************************************************************************* //
