/*--------------------------------*- C++ -*----------------------------------*\
| =========                 |                                                 |
| \\      /  F ield         | OpenFOAM: The Open Source CFD Toolbox           |
|  \\    /   O peration     | Version:  4.x                                   |
|   \\  /    A nd           | Web:      www.OpenFOAM.org                      |
|    \\/     M anipulation  |                                                 |
\*---------------------------------------------------------------------------*/
FoamFile
{
    version     2.0;
    format      ascii;
    class       surfaceScalarField;
    location    "17.5";
    object      phi;
}
// * * * * * * * * * * * * * * * * * * * * * * * * * * * * * * * * * * * * * //

dimensions      [0 3 -1 0 0 0 0];

internalField   nonuniform List<scalar> 
192
(
1.47068e-05
6.42699e-09
-1.99862e-07
1.49935e-05
-2.61725e-08
-2.60472e-07
1.52683e-05
-1.21721e-07
-1.53132e-07
1.53072e-05
-1.08025e-07
6.91279e-08
1.55936e-05
-4.68104e-07
1.8174e-07
1.49027e-05
-1.50495e-07
8.41373e-07
1.53161e-05
-1.15159e-06
7.38142e-07
1.29343e-05
4.99783e-07
1.88208e-06
-3.28703e-06
-4.56334e-06
1.35924e-05
-1.7035e-07
-8.4043e-08
1.37457e-05
-1.5936e-07
-2.01024e-08
1.38245e-05
-2.83843e-07
8.33615e-08
1.35145e-05
-2.33147e-07
4.35089e-07
1.35357e-05
-6.96653e-07
2.07347e-07
1.24886e-05
-2.38749e-07
1.13537e-06
1.27111e-05
-1.35435e-06
-1.97376e-08
1.07984e-05
6.55636e-07
1.75685e-06
-2.91963e-06
-2.12903e-06
1.15749e-05
-1.26595e-07
1.13369e-05
5.14239e-08
1.10173e-05
4.01465e-08
1.00576e-05
5.32611e-07
9.24574e-06
1.48523e-07
7.93535e-06
7.31138e-07
6.32363e-06
1.71843e-07
5.95923e-06
4.65747e-07
7.60296e-08
1.11655e-05
-8.27818e-08
-3.18541e-07
1.13677e-05
-1.57202e-07
-3.05454e-07
1.16412e-05
-1.34566e-07
-2.92088e-07
1.16066e-05
-2.63967e-08
1.30135e-07
1.21613e-05
-3.52717e-07
-2.02843e-08
1.17557e-05
1.80268e-07
1.06674e-06
1.32026e-05
-9.81165e-07
2.72372e-07
1.20046e-05
8.40563e-07
2.23952e-06
-5.10731e-06
-2.25279e-06
8.71983e-06
-1.61683e-07
-9.15463e-08
8.67265e-06
-3.10431e-07
1.80309e-07
8.78892e-06
-1.8574e-07
1.82624e-08
8.63144e-06
-8.04585e-08
6.4663e-07
8.85617e-06
-3.05728e-07
-6.43702e-08
8.81886e-06
2.05848e-07
1.1471e-06
9.0311e-06
-6.98558e-07
-5.14584e-07
8.67572e-06
1.05505e-06
1.89775e-06
-3.75221e-06
-3.48008e-06
6.70774e-06
-7.77151e-08
6.11781e-06
3.06871e-07
5.98569e-06
-2.59473e-08
5.75282e-06
5.18655e-07
5.49456e-06
2.32677e-12
5.58342e-06
5.0508e-07
4.70347e-06
-3.08982e-08
5.15501e-06
4.77886e-07
-7.25495e-07
9.13922e-06
-1.13223e-07
-2.74848e-07
9.15966e-06
-9.02942e-08
-2.35603e-07
9.26065e-06
-1.47734e-07
-2.45343e-07
9.34446e-06
-6.17488e-08
9.83844e-06
-3.77598e-07
9.9346e-06
1.79267e-07
1.16253e-05
-1.17166e-06
1.11146e-05
1.00196e-06
-5.14179e-06
6.73745e-06
-8.72294e-08
-7.22334e-08
6.60315e-06
-1.80364e-08
2.42355e-07
6.59792e-06
-1.09162e-07
6.71208e-06
-9.70056e-08
6.64808e-06
-2.23629e-07
7.33892e-06
2.7095e-08
7.06662e-06
-7.42773e-07
8.04884e-06
8.83632e-07
-3.38407e-06
5.15727e-06
-4.19229e-08
5.21752e-06
5.11418e-06
5.18523e-06
4.99667e-06
5.21779e-06
4.52826e-06
5.39807e-06
9.71617e-06
-1.60383e-07
9.80705e-06
-1.78574e-07
6.60125e-06
-1.60453e-07
)
;

boundaryField
{
    inlet
    {
        type            calculated;
        value           nonuniform 0();
    }
    outlet
    {
        type            calculated;
        value           nonuniform List<scalar> 9(2.07847e-05 1.256e-05 1.9712e-06 1.48013e-05 8.67167e-06 6.11806e-07 1.5293e-05 5.84587e-06 2.00261e-06);
    }
    wall
    {
        type            calculated;
        value           uniform 0;
    }
    procBoundary1to0
    {
        type            processor;
        value           nonuniform List<scalar> 
12
(
-1.45134e-05
-1.33316e-05
-1.14953e-05
-1.0964e-05
-8.63343e-06
-6.87683e-06
-9.06969e-06
-6.78276e-06
-5.28031e-06
-9.57618e-06
-6.60681e-06
-6.3687e-06
)
;
    }
    procBoundary1to3
    {
        type            processor;
        value           nonuniform List<scalar> 
27
(
-1.23354e-07
2.71734e-08
-4.42152e-09
1.93952e-07
-3.32858e-08
3.40503e-07
8.55216e-08
5.54293e-07
9.9237e-07
-4.14747e-08
2.40557e-08
1.24678e-08
1.66371e-07
1.01052e-07
3.43049e-07
3.84131e-07
5.91364e-07
1.59252e-06
1.29356e-11
-2.2826e-08
2.0898e-11
2.65534e-08
9.60605e-12
1.72461e-07
-6.82558e-09
3.87231e-07
1.00935e-07
)
;
    }
    procBoundary1to5
    {
        type            processor;
        value           nonuniform List<scalar> 
32
(
1.08075e-07
-1.36662e-07
7.91314e-07
-2.46629e-07
1.74819e-06
-1.28941e-06
-1.50841e-08
5.67732e-07
-1.54348e-07
6.08439e-07
-6.71175e-07
1.03386e-06
-3.03483e-06
2.5141e-07
-3.17854e-08
3.24044e-07
-3.50751e-08
1.38592e-07
-7.73104e-08
1.04474e-07
-8.15047e-07
-2.54454e-07
-1.47912e-07
9.96629e-06
-1.77063e-07
-2.27519e-07
-6.66086e-08
6.70956e-06
-1.89296e-07
1.44771e-07
6.30039e-06
-4.39176e-08
)
;
    }
    procBoundary1to7
    {
        type            processor;
        value           uniform -9.01396e-08;
    }
}


// ************************************************************************* //
