/*--------------------------------*- C++ -*----------------------------------*\
| =========                 |                                                 |
| \\      /  F ield         | OpenFOAM: The Open Source CFD Toolbox           |
|  \\    /   O peration     | Version:  4.x                                   |
|   \\  /    A nd           | Web:      www.OpenFOAM.org                      |
|    \\/     M anipulation  |                                                 |
\*---------------------------------------------------------------------------*/
FoamFile
{
    version     2.0;
    format      ascii;
    class       volScalarField;
    location    "17.5";
    object      rho;
}
// * * * * * * * * * * * * * * * * * * * * * * * * * * * * * * * * * * * * * //

dimensions      [1 -3 0 0 0 0 0];

internalField   nonuniform List<scalar> 
87
(
6699.62
6699.46
6699.26
6698.98
6698.56
6698.02
6697.28
6696.58
6845.54
6699.46
6699.25
6698.92
6698.43
6697.71
6696.94
6696.27
6695.83
6693.29
6699.24
6698.83
6698.25
6697.48
6696.62
6696.04
6696.26
6697.47
6700.06
6699.37
6699.16
6698.8
6698.29
6697.61
6696.99
6696.46
6696.01
6688.21
6698.68
6698.32
6697.76
6697.1
6696.55
6696.28
6696.86
6697.09
6699.34
6698.1
6697.45
6696.85
6696.71
6697.33
6698.32
6699.94
6700.8
6700.76
6699.29
6699.22
6698.9
6698.29
6697.52
6696.79
6696.42
6695.96
6690.05
6696.68
6695.71
6695.32
6695.6
6696.33
6696.97
6698.14
6698.27
6701.81
6698.72
6698.47
6698.32
6698.33
6698.97
6699.8
6700.79
6701.28
6703.44
6699.65
6699.56
6699.36
6699.54
6699.36
6699.11
)
;

boundaryField
{
    inlet
    {
        type            calculated;
        value           nonuniform 0();
    }
    outlet
    {
        type            calculated;
        value           uniform 6700;
    }
    wall
    {
        type            calculated;
        value           nonuniform List<scalar> 
57
(
6699.62
6699.46
6699.24
6699.46
6699.25
6698.83
6699.26
6698.92
6698.25
6698.98
6698.43
6697.48
6698.56
6697.71
6696.62
6698.02
6696.94
6696.04
6697.28
6696.27
6696.26
6696.58
6695.83
6697.47
6845.54
6693.29
6700.06
6699.62
6699.37
6699.29
6699.65
6699.46
6699.16
6699.22
6699.56
6699.26
6698.8
6698.9
6699.36
6698.98
6698.29
6698.29
6698.56
6697.61
6697.52
6698.02
6696.99
6696.79
6697.28
6696.46
6696.42
6696.58
6696.01
6695.96
6845.54
6688.21
6690.05
)
;
    }
    procBoundary1to0
    {
        type            processor;
        value           nonuniform List<scalar> 
12
(
6699.74
6699.56
6699.54
6699.54
6699.01
6698.71
6699.39
6698.02
6698.7
6699.72
6699.44
6699.28
)
;
    }
    procBoundary1to3
    {
        type            processor;
        value           nonuniform List<scalar> 
27
(
6699.24
6698.8
6698.23
6697.52
6696.75
6696.15
6696.04
6696.39
6744.8
6697.86
6697.1
6696.49
6696.25
6696.42
6696.91
6698
6698.92
6701.34
6697.96
6697.61
6697.55
6697.69
6698.22
6698.86
6699.72
6700.55
6702.63
)
;
    }
    procBoundary1to5
    {
        type            processor;
        value           nonuniform List<scalar> 
32
(
6698.96
6698.46
6697.79
6697.52
6696.95
6691.08
6699.11
6698.65
6698.71
6698.74
6699.32
6699.24
6702.45
6698.94
6698.82
6698.85
6699.15
6699.65
6700.34
6700.88
6704.89
6699.68
6699.57
6698.96
6699.11
6699.39
6699.37
6699.11
6698.94
6699.32
6698.94
6699.24
)
;
    }
    procBoundary1to7
    {
        type            processor;
        value           uniform 6698.88;
    }
}


// ************************************************************************* //
