/*--------------------------------*- C++ -*----------------------------------*\
| =========                 |                                                 |
| \\      /  F ield         | OpenFOAM: The Open Source CFD Toolbox           |
|  \\    /   O peration     | Version:  4.x                                   |
|   \\  /    A nd           | Web:      www.OpenFOAM.org                      |
|    \\/     M anipulation  |                                                 |
\*---------------------------------------------------------------------------*/
FoamFile
{
    version     2.0;
    format      ascii;
    class       volVectorField;
    location    "17.5";
    object      Urel;
}
// * * * * * * * * * * * * * * * * * * * * * * * * * * * * * * * * * * * * * //

dimensions      [0 1 -1 0 0 0 0];

internalField   nonuniform List<vector> 
87
(
(-0.0260342 0.000215208 0.000250283)
(-0.0272667 0.000213694 3.7421e-05)
(-0.0263994 0.000275343 -0.000223473)
(-0.0274983 0.000360148 -0.000463124)
(-0.0261294 0.000582264 -0.000654458)
(-0.0271028 0.000779174 -0.000730134)
(-0.0247716 0.00132855 -0.000473419)
(-0.025509 0.00179089 0.000328837)
(-0.0209474 0.00321965 0.002441)
(-0.0249666 0.00030233 0.000209624)
(-0.0261459 0.000318447 -2.67676e-05)
(-0.02503 0.000372805 -0.000277375)
(-0.0260511 0.000470789 -0.000504203)
(-0.0243597 0.000681705 -0.000593179)
(-0.02526 0.000838288 -0.000623174)
(-0.0226834 0.00137702 -0.000176236)
(-0.0233909 0.00161208 0.000421734)
(-0.0192464 0.00323717 0.00172247)
(-0.0236917 0.000242431 0.00020508)
(-0.0248354 0.00020254 -4.33544e-05)
(-0.0233885 0.000203055 -0.000269969)
(-0.0243744 0.000192117 -0.000488099)
(-0.0222857 0.000287075 -0.000460262)
(-0.0231493 0.000271086 -0.000415276)
(-0.0203659 0.00047116 0.000103999)
(-0.020929 0.000463727 0.000854937)
(-0.0176118 0.0010227 0.00175059)
(-0.0238937 0.000260964 0.000300926)
(-0.0252829 0.000246368 7.82386e-05)
(-0.0241661 0.000289596 -0.000157086)
(-0.0255654 0.000344344 -0.000458884)
(-0.0240628 0.000563173 -0.000594729)
(-0.0255415 0.000714006 -0.000829347)
(-0.0232441 0.00140087 -0.000478467)
(-0.0247786 0.00192556 -6.22856e-05)
(-0.0201939 0.00408548 0.00220577)
(-0.0224636 0.000327247 0.000195751)
(-0.0239344 0.000335704 -5.44905e-05)
(-0.022444 0.000348628 -0.000248912)
(-0.0239455 0.00040319 -0.000514104)
(-0.0220706 0.000584297 -0.000505152)
(-0.0235362 0.000703948 -0.00065996)
(-0.0210807 0.00133849 -0.000132495)
(-0.0220799 0.00172263 0.00015545)
(-0.018386 0.00397535 0.00194207)
(-0.0210156 0.000226733 0.000161757)
(-0.0225816 0.000198509 -0.00012156)
(-0.0206729 0.000169955 -0.00025049)
(-0.022306 0.000143799 -0.000495802)
(-0.0200774 0.000200445 -0.000401785)
(-0.0215375 0.000183466 -0.000427738)
(-0.0189083 0.000394657 6.31266e-05)
(-0.0195399 0.000482136 0.000541184)
(-0.0162614 0.00125761 0.00177612)
(-0.0219686 0.000315068 0.000241933)
(-0.0234465 0.000301409 2.79516e-05)
(-0.0221558 0.000312858 -0.000180847)
(-0.0237384 0.000346746 -0.000458954)
(-0.0222203 0.000542693 -0.000564968)
(-0.0239431 0.000658976 -0.000790014)
(-0.0218848 0.00133563 -0.000508791)
(-0.0236317 0.00174375 -0.000382847)
(-0.0194628 0.00379172 0.000846234)
(-0.0204577 0.000320795 0.000128015)
(-0.0220865 0.000295391 -0.000126914)
(-0.0204225 0.000307086 -0.000250374)
(-0.0221752 0.000338075 -0.000487399)
(-0.0203242 0.000486 -0.000432048)
(-0.0220384 0.000589983 -0.000532905)
(-0.0199042 0.00116807 -0.000149479)
(-0.0210373 0.00142828 1.04397e-05)
(-0.0181558 0.00356009 0.00128078)
(-0.019048 0.000203379 6.71503e-05)
(-0.0208624 0.000166629 -0.00016454)
(-0.018899 0.000161734 -0.000233194)
(-0.0207777 0.000147294 -0.000392645)
(-0.0186907 0.000201647 -0.000310881)
(-0.0203989 0.000228289 -0.000260328)
(-0.0180246 0.000417518 2.26176e-05)
(-0.0190927 0.000505243 0.000311507)
(-0.0163904 0.00120318 0.00109853)
(-0.0211513 0.000378321 0.000189121)
(-0.0226325 0.000336955 7.80015e-06)
(-0.0213169 0.000333666 -0.000131748)
(-0.0194864 0.00031548 8.83963e-05)
(-0.0212307 0.000299764 -0.000120942)
(-0.0184352 0.000222937 2.89117e-05)
)
;

boundaryField
{
    inlet
    {
        type            calculated;
        value           nonuniform 0();
    }
    outlet
    {
        type            calculated;
        value           nonuniform List<vector> 9((-0.0137018 0.00514072 0.0122057) (-0.00823424 0.0130801 0.00297929) (-0.00392869 0.00115749 0.00129541) (-0.0107916 0.0149737 0.0138055) (-0.00544702 0.0227935 0.0101287) (0.00874345 0.00424519 0.00354447) (-0.00991625 0.0112381 -0.00103524) (-0.011309 0.0170929 0.00587105) (-0.00319674 0.000999003 6.26782e-05));
    }
    wall
    {
        type            calculated;
        value           nonuniform List<vector> 
57
(
(-2.45439e-06 2.42922e-07 4.26631e-07)
(-2.264e-06 5.41427e-07 7.36629e-07)
(-3.02011e-06 9.06485e-07 7.66775e-07)
(-2.40638e-06 -2.96498e-06 3.20389e-06)
(-2.29818e-06 -1.91888e-06 1.74777e-06)
(-3.45137e-06 1.13561e-06 1.21647e-06)
(-9.82646e-07 -3.00739e-06 2.23337e-06)
(-3.09566e-06 -6.71306e-07 1.46124e-06)
(-4.55751e-06 2.10028e-06 6.00452e-07)
(-1.59449e-06 5.43449e-07 1.16529e-06)
(-3.00491e-06 8.09973e-07 4.17609e-07)
(-3.13838e-06 5.67149e-07 4.51854e-07)
(-1.9217e-06 5.31545e-07 2.82827e-06)
(-2.34378e-06 1.13764e-06 8.03478e-07)
(-3.00397e-06 3.75559e-07 7.68981e-07)
(-2.2997e-06 1.43861e-07 1.27549e-06)
(-1.95008e-06 3.12212e-07 1.23232e-06)
(-2.54518e-06 1.53178e-07 1.03282e-06)
(-1.44766e-06 9.7253e-08 2.20841e-07)
(-1.25639e-06 5.2441e-07 6.60781e-07)
(-2.12409e-06 1.45268e-07 1.03084e-06)
(6.87257e-07 3.97929e-07 5.38944e-07)
(-7.99453e-07 5.55745e-07 5.32334e-07)
(-3.07357e-07 1.34929e-06 9.15422e-07)
(5.67339e-07 2.90072e-07 1.81407e-07)
(-6.1071e-07 2.98103e-07 3.83809e-07)
(-1.27117e-07 8.37517e-07 7.80839e-07)
(-2.45439e-06 2.42922e-07 4.26631e-07)
(-2.28137e-06 2.37621e-07 2.86279e-07)
(-2.07894e-06 1.03634e-07 1.85461e-07)
(-1.53485e-06 8.5366e-08 2.75795e-08)
(-2.40638e-06 -2.96498e-06 3.20389e-06)
(-2.52173e-06 -1.87176e-07 8.73809e-07)
(-2.14879e-06 2.43675e-07 4.94477e-07)
(-1.57575e-06 -1.10948e-08 4.28181e-07)
(-9.82646e-07 -3.00739e-06 2.23337e-06)
(-2.13067e-06 -1.7019e-07 6.91339e-07)
(-2.08547e-06 3.24251e-07 2.05161e-07)
(-1.75632e-06 2.27193e-07 3.37185e-07)
(-1.59449e-06 5.43449e-07 1.16529e-06)
(-2.04297e-06 1.77114e-07 4.75513e-07)
(-2.50092e-06 1.2039e-07 4.42532e-07)
(-1.9217e-06 5.31545e-07 2.82827e-06)
(-1.26001e-06 8.95611e-08 1.62547e-06)
(-2.19494e-06 3.09771e-07 7.76299e-07)
(-2.2997e-06 1.43861e-07 1.27549e-06)
(-1.56594e-06 6.39999e-08 1.07862e-06)
(-1.58893e-06 1.65934e-07 2.98108e-07)
(-1.44766e-06 9.7253e-08 2.20841e-07)
(-1.28334e-06 1.4708e-07 1.71254e-07)
(-9.37267e-07 2.33535e-08 1.45935e-07)
(6.87257e-07 3.97929e-07 5.38944e-07)
(-6.92115e-07 1.14979e-08 2.07632e-07)
(-6.60047e-07 1.56607e-07 1.03246e-08)
(5.67339e-07 2.90072e-07 1.81407e-07)
(-2.45575e-07 3.4623e-08 1.13152e-07)
(-2.50043e-07 1.71226e-08 8.02399e-08)
)
;
    }
    procBoundary1to0
    {
        type            processor;
        value           nonuniform List<vector> 
12
(
(-0.0266218 0.000260538 0.000496151)
(-0.0257445 0.000344985 0.000473124)
(-0.0247054 0.000285386 0.000475251)
(-0.0247988 0.000313409 0.000531364)
(-0.0237107 0.000394206 0.000457851)
(-0.0226581 0.000295191 0.000411264)
(-0.0231122 0.000386285 0.000434)
(-0.0219705 0.000393426 0.000327168)
(-0.0209544 0.000273063 0.000228272)
(-0.0223566 0.000432754 0.000347012)
(-0.0211629 0.000381308 0.000248485)
(-0.0202911 0.000249766 0.000165349)
)
;
    }
    procBoundary1to3
    {
        type            processor;
        value           nonuniform List<vector> 
27
(
(-0.023418 9.29101e-05 0.000194401)
(-0.0245362 2.36447e-05 -5.58333e-05)
(-0.0231605 -4.0211e-05 -0.00027702)
(-0.0241532 -0.000115135 -0.000498741)
(-0.022291 -0.00015634 -0.00048652)
(-0.0232266 -0.000260816 -0.00045467)
(-0.0208069 -0.000348641 0.000150146)
(-0.0217915 -0.00049875 0.000915693)
(-0.0182887 -0.000879625 0.00284988)
(-0.0207038 6.83575e-05 0.000164012)
(-0.0222367 1.66442e-05 -0.000100464)
(-0.0204199 -2.45544e-05 -0.000232301)
(-0.0220417 -8.11431e-05 -0.000451495)
(-0.0200194 -0.000142287 -0.000353192)
(-0.0215491 -0.000225328 -0.000359807)
(-0.0192615 -0.000443798 0.000254784)
(-0.0203164 -0.000613672 0.000805477)
(-0.017349 -0.00132489 0.00304157)
(-0.0186439 6.74019e-05 6.20917e-05)
(-0.0204616 5.57849e-05 -0.000150015)
(-0.0184679 1.47241e-05 -0.00021084)
(-0.0203579 -1.51695e-05 -0.000340025)
(-0.0182888 -5.33831e-05 -0.00025552)
(-0.0200549 -0.00013734 -0.000198226)
(-0.0177504 -0.000169404 0.000177752)
(-0.0190332 -0.000287348 0.000574564)
(-0.016392 -0.000419864 0.00171103)
)
;
    }
    procBoundary1to5
    {
        type            processor;
        value           nonuniform List<vector> 
32
(
(-0.0229228 0.000317022 -0.000356013)
(-0.0213721 0.000521633 -0.000390566)
(-0.0231151 0.000578007 -0.000592123)
(-0.0209808 0.00125085 -0.0002834)
(-0.0226897 0.00151633 -0.00033846)
(-0.0187464 0.00346528 0.00096681)
(-0.0195173 0.000290941 -0.000187853)
(-0.0213666 0.000305809 -0.000365409)
(-0.0195633 0.000445371 -0.000286212)
(-0.0212911 0.000511259 -0.000353671)
(-0.0191603 0.00104665 -3.28845e-05)
(-0.0203008 0.00124458 2.68546e-05)
(-0.0175677 0.00310685 0.00108039)
(-0.0201991 0.000202693 -0.000164346)
(-0.0182901 0.000202926 -0.000187162)
(-0.0201677 0.000193465 -0.000292434)
(-0.0181262 0.000247941 -0.000214589)
(-0.019883 0.000228348 -0.00018554)
(-0.0175305 0.000442367 3.27903e-05)
(-0.0188232 0.000468613 0.000227478)
(-0.0161846 0.00121982 0.000797249)
(-0.0206799 0.000408138 7.68386e-05)
(-0.0221238 0.000359359 -8.05629e-05)
(-0.0229228 0.000317022 -0.000356013)
(-0.0195173 0.000290941 -0.000187853)
(-0.0207322 0.000372487 -0.000176589)
(-0.0189413 0.000310563 -1.75893e-05)
(-0.0195173 0.000290941 -0.000187853)
(-0.0201991 0.000202693 -0.000164346)
(-0.0207204 0.000257415 -0.000161043)
(-0.0201991 0.000202693 -0.000164346)
(-0.017919 0.000203346 -7.58245e-05)
)
;
    }
    procBoundary1to7
    {
        type            processor;
        value           uniform (-0.0179837 5.68832e-05 1.52818e-05);
    }
}


// ************************************************************************* //
