/*--------------------------------*- C++ -*----------------------------------*\
| =========                 |                                                 |
| \\      /  F ield         | OpenFOAM: The Open Source CFD Toolbox           |
|  \\    /   O peration     | Version:  4.x                                   |
|   \\  /    A nd           | Web:      www.OpenFOAM.org                      |
|    \\/     M anipulation  |                                                 |
\*---------------------------------------------------------------------------*/
FoamFile
{
    version     2.0;
    format      ascii;
    class       volVectorField;
    location    "17.5";
    object      UsNext;
}
// * * * * * * * * * * * * * * * * * * * * * * * * * * * * * * * * * * * * * //

dimensions      [0 1 -1 0 0 0 0];

internalField   nonuniform List<vector> 
87
(
(-2.16848e-07 8.80836e-10 5.32469e-09)
(-1.15061e-06 1.28517e-06 1.2334e-07)
(-3.71064e-07 -5.22512e-09 -2.72414e-08)
(-3.57907e-07 3.21597e-08 -3.33823e-08)
(-1.88245e-07 7.17132e-08 8.36604e-08)
(-7.27835e-08 2.0298e-08 3.03931e-08)
(1.14346e-08 1.29449e-08 1.05801e-08)
(1.56057e-06 6.01168e-08 -6.47397e-08)
(7.94104e-07 -7.89496e-09 -1.14048e-07)
(-3.73222e-07 2.03022e-08 -6.85776e-08)
(-4.31399e-07 5.89824e-08 -3.22383e-08)
(-4.72405e-07 2.11671e-08 9.23026e-09)
(-5.1404e-07 3.08363e-08 8.7895e-09)
(-3.77624e-07 5.24833e-08 6.43142e-08)
(-1.30238e-07 4.03345e-08 1.01108e-07)
(-1.36929e-08 5.92049e-08 5.18935e-08)
(3.6176e-08 1.24136e-08 2.71756e-08)
(-3.58646e-08 -2.75696e-08 -3.05981e-08)
(-4.71947e-07 3.42141e-08 -4.11826e-08)
(-5.36804e-07 6.12393e-08 -2.94419e-08)
(-6.3341e-07 1.27194e-07 -1.28619e-08)
(-5.72599e-07 3.64597e-08 2.28984e-09)
(-4.41842e-07 -8.82457e-09 5.81818e-08)
(-2.51984e-07 1.07667e-08 1.25888e-07)
(-1.17211e-07 5.80489e-09 1.15394e-07)
(-4.15026e-08 1.25253e-08 2.56125e-08)
(-2.96027e-08 2.45641e-09 -1.12741e-08)
(-2.57702e-07 3.71832e-08 -1.22024e-08)
(-2.54094e-07 1.65932e-08 3.57098e-08)
(-2.55145e-07 -3.63489e-09 -7.82265e-09)
(-2.61517e-07 4.5982e-08 -8.22268e-09)
(-1.53167e-07 3.4569e-08 3.32442e-08)
(-5.32141e-08 5.54583e-09 1.08899e-08)
(-1.46159e-08 1.63464e-08 9.34693e-09)
(1.80582e-08 8.82516e-09 -3.21774e-09)
(-6.60672e-09 -1.24679e-09 -2.47989e-08)
(-3.55837e-07 2.42696e-08 -3.83263e-08)
(-3.88255e-07 4.65892e-08 -1.0246e-08)
(-4.46081e-07 4.56335e-08 6.61094e-09)
(-4.91832e-07 6.28124e-08 -1.09051e-08)
(-2.934e-07 2.77429e-08 2.94716e-08)
(-1.48364e-07 2.91232e-08 4.88896e-08)
(-7.29425e-08 2.28408e-08 5.70555e-08)
(2.00087e-09 1.82796e-08 1.87374e-08)
(3.61476e-09 -5.25037e-09 -2.33184e-08)
(-4.49238e-07 3.88136e-08 -5.09883e-08)
(-4.95297e-07 5.36194e-08 -3.00533e-08)
(-5.27127e-07 5.3914e-08 -1.49e-08)
(-5.37666e-07 4.23481e-08 -1.08568e-08)
(-4.09123e-07 7.39569e-09 3.6664e-08)
(-2.63745e-07 1.39789e-08 4.82068e-08)
(-1.13748e-07 -7.58067e-10 6.25882e-08)
(-6.0013e-08 5.82335e-09 2.62278e-08)
(-2.67288e-08 8.71617e-09 3.54798e-11)
(-2.11765e-07 3.48661e-09 -6.53349e-09)
(-2.27767e-07 4.26298e-09 8.18158e-09)
(-2.08109e-07 -1.067e-08 1.04519e-08)
(-2.26009e-07 4.41189e-08 1.13036e-08)
(-1.68106e-07 4.85968e-08 1.32766e-08)
(-1.02483e-07 2.40715e-08 1.58521e-08)
(-5.42792e-08 1.00986e-08 7.77533e-09)
(-3.17738e-08 1.2588e-08 8.12211e-10)
(-2.21553e-08 1.17723e-08 -5.27486e-09)
(-3.53594e-07 -5.31102e-09 -2.27023e-08)
(-3.74021e-07 1.47656e-08 -6.90917e-09)
(-3.79555e-07 2.38755e-08 -4.48355e-09)
(-3.95105e-07 4.25944e-08 7.39435e-09)
(-2.83581e-07 7.22423e-08 -2.42479e-09)
(-1.52524e-07 3.58171e-08 9.76782e-09)
(-7.48568e-08 9.483e-09 1.39089e-08)
(-4.03797e-08 1.433e-08 7.94616e-09)
(-3.52239e-08 2.23631e-08 4.95718e-09)
(-4.166e-07 3.12404e-08 -4.97367e-08)
(-4.65945e-07 3.02832e-08 -2.19121e-08)
(-4.62516e-07 5.79305e-08 -2.25411e-08)
(-4.71333e-07 3.75947e-08 -7.17677e-09)
(-3.93091e-07 5.0266e-08 -1.55997e-08)
(-2.41547e-07 3.53148e-08 2.09585e-08)
(-1.12284e-07 -1.00882e-08 8.87577e-09)
(-8.22586e-08 2.52084e-09 1.03146e-08)
(-5.17109e-08 1.96747e-08 9.90982e-09)
(-1.85618e-07 -4.77449e-09 -8.35508e-09)
(-1.53212e-07 -3.68388e-08 2.7434e-08)
(-1.6094e-07 -4.40883e-09 1.78451e-08)
(-3.16815e-07 9.60136e-10 -1.20868e-08)
(-3.45337e-07 2.78658e-09 1.22041e-10)
(-3.66399e-07 7.74661e-09 -4.05921e-08)
)
;

boundaryField
{
    inlet
    {
        type            calculated;
        value           nonuniform 0();
    }
    outlet
    {
        type            calculated;
        value           nonuniform List<vector> 9((7.94104e-07 -7.89496e-09 -1.14048e-07) (-3.58646e-08 -2.75696e-08 -3.05981e-08) (-2.96027e-08 2.45641e-09 -1.12741e-08) (-6.60672e-09 -1.24679e-09 -2.47989e-08) (3.61476e-09 -5.25037e-09 -2.33184e-08) (-2.67288e-08 8.71617e-09 3.54798e-11) (-2.21553e-08 1.17723e-08 -5.27486e-09) (-3.52239e-08 2.23631e-08 4.95718e-09) (-5.17109e-08 1.96747e-08 9.90982e-09));
    }
    wall
    {
        type            calculated;
        value           nonuniform List<vector> 
57
(
(-2.16848e-07 8.80836e-10 5.32469e-09)
(-3.73222e-07 2.03022e-08 -6.85776e-08)
(-4.71947e-07 3.42141e-08 -4.11826e-08)
(-1.15061e-06 1.28517e-06 1.2334e-07)
(-4.31399e-07 5.89824e-08 -3.22383e-08)
(-5.36804e-07 6.12393e-08 -2.94419e-08)
(-3.71064e-07 -5.22512e-09 -2.72414e-08)
(-4.72405e-07 2.11671e-08 9.23026e-09)
(-6.3341e-07 1.27194e-07 -1.28619e-08)
(-3.57907e-07 3.21597e-08 -3.33823e-08)
(-5.1404e-07 3.08363e-08 8.7895e-09)
(-5.72599e-07 3.64597e-08 2.28984e-09)
(-1.88245e-07 7.17132e-08 8.36604e-08)
(-3.77624e-07 5.24833e-08 6.43142e-08)
(-4.41842e-07 -8.82457e-09 5.81818e-08)
(-7.27835e-08 2.0298e-08 3.03931e-08)
(-1.30238e-07 4.03345e-08 1.01108e-07)
(-2.51984e-07 1.07667e-08 1.25888e-07)
(1.14346e-08 1.29449e-08 1.05801e-08)
(-1.36929e-08 5.92049e-08 5.18935e-08)
(-1.17211e-07 5.80489e-09 1.15394e-07)
(1.56057e-06 6.01168e-08 -6.47397e-08)
(3.6176e-08 1.24136e-08 2.71756e-08)
(-4.15026e-08 1.25253e-08 2.56125e-08)
(7.94104e-07 -7.89496e-09 -1.14048e-07)
(-3.58646e-08 -2.75696e-08 -3.05981e-08)
(-2.96027e-08 2.45641e-09 -1.12741e-08)
(-2.16848e-07 8.80836e-10 5.32469e-09)
(-2.57702e-07 3.71832e-08 -1.22024e-08)
(-2.11765e-07 3.48661e-09 -6.53349e-09)
(-1.85618e-07 -4.77449e-09 -8.35508e-09)
(-1.15061e-06 1.28517e-06 1.2334e-07)
(-2.54094e-07 1.65932e-08 3.57098e-08)
(-2.27767e-07 4.26298e-09 8.18158e-09)
(-1.53212e-07 -3.68388e-08 2.7434e-08)
(-3.71064e-07 -5.22512e-09 -2.72414e-08)
(-2.55145e-07 -3.63489e-09 -7.82265e-09)
(-2.08109e-07 -1.067e-08 1.04519e-08)
(-1.6094e-07 -4.40883e-09 1.78451e-08)
(-3.57907e-07 3.21597e-08 -3.33823e-08)
(-2.61517e-07 4.5982e-08 -8.22268e-09)
(-2.26009e-07 4.41189e-08 1.13036e-08)
(-1.88245e-07 7.17132e-08 8.36604e-08)
(-1.53167e-07 3.4569e-08 3.32442e-08)
(-1.68106e-07 4.85968e-08 1.32766e-08)
(-7.27835e-08 2.0298e-08 3.03931e-08)
(-5.32141e-08 5.54583e-09 1.08899e-08)
(-1.02483e-07 2.40715e-08 1.58521e-08)
(1.14346e-08 1.29449e-08 1.05801e-08)
(-1.46159e-08 1.63464e-08 9.34693e-09)
(-5.42792e-08 1.00986e-08 7.77533e-09)
(1.56057e-06 6.01168e-08 -6.47397e-08)
(1.80582e-08 8.82516e-09 -3.21774e-09)
(-3.17738e-08 1.2588e-08 8.12211e-10)
(7.94104e-07 -7.89496e-09 -1.14048e-07)
(-6.60672e-09 -1.24679e-09 -2.47989e-08)
(-2.21553e-08 1.17723e-08 -5.27486e-09)
)
;
    }
    procBoundary1to0
    {
        type            processor;
        value           nonuniform List<vector> 
12
(
(-2.49978e-07 2.38784e-08 -6.80837e-08)
(-3.60587e-07 -1.44275e-08 -6.79519e-08)
(-4.00962e-07 -1.73379e-08 -9.72559e-08)
(-2.03871e-07 -4.64639e-08 -3.08815e-08)
(-3.37697e-07 -2.87339e-09 -5.90117e-08)
(-3.69278e-07 3.69439e-09 -8.39148e-08)
(-2.04552e-07 -2.44339e-08 -3.6196e-08)
(-3.23469e-07 -1.44945e-08 -5.24853e-08)
(-3.57548e-07 -1.86452e-08 -5.81148e-08)
(-2.14152e-07 -2.60524e-09 -2.7189e-08)
(-2.99292e-07 -1.48006e-08 -4.13789e-08)
(-3.37266e-07 -2.06162e-08 -4.79971e-08)
)
;
    }
    procBoundary1to3
    {
        type            processor;
        value           nonuniform List<vector> 
27
(
(-4.46197e-07 3.98341e-08 -9.72769e-08)
(-5.0241e-07 4.31431e-08 -5.21627e-08)
(-5.70419e-07 1.5068e-07 -6.74435e-09)
(-5.76927e-07 5.03083e-08 2.74677e-08)
(-4.73904e-07 -7.11554e-09 9.44718e-08)
(-2.75405e-07 -2.45837e-08 1.22694e-07)
(-1.75255e-07 -3.03253e-08 1.34277e-07)
(6.11347e-08 6.92017e-09 2.9262e-08)
(-3.2901e-08 1.3186e-09 -1.34276e-08)
(-4.63658e-07 4.38744e-08 -7.52275e-08)
(-5.05324e-07 4.77199e-08 -4.42477e-08)
(-5.40945e-07 5.52395e-08 -1.48971e-08)
(-5.81047e-07 2.31882e-08 3.34579e-08)
(-4.43244e-07 -4.94407e-09 6.26672e-08)
(-3.028e-07 -2.22568e-08 8.64598e-08)
(-1.84967e-07 -3.17926e-08 6.43573e-08)
(-8.16772e-08 -2.33304e-08 2.22513e-08)
(-5.36099e-08 9.27986e-09 -1.17661e-08)
(-4.40314e-07 3.88466e-08 -5.61295e-08)
(-4.79565e-07 4.92591e-08 -3.31377e-08)
(-5.14686e-07 5.44034e-08 -1.89341e-08)
(-5.31633e-07 2.66854e-08 9.40903e-09)
(-4.1978e-07 4.41873e-10 1.52481e-08)
(-3.55144e-07 -1.89636e-08 3.01901e-08)
(-1.73965e-07 -1.58477e-08 3.57382e-08)
(-9.46421e-08 -4.3819e-09 1.50303e-08)
(-5.43773e-08 1.31954e-08 1.08592e-08)
)
;
    }
    procBoundary1to5
    {
        type            processor;
        value           nonuniform List<vector> 
32
(
(-2.12493e-07 3.53822e-08 4.37954e-09)
(-1.58138e-07 3.26617e-08 4.65201e-09)
(-1.32554e-07 2.4185e-08 1.03104e-08)
(-5.38629e-08 8.90443e-09 4.28408e-09)
(-4.35952e-08 9.36222e-09 -1.72193e-09)
(-3.55101e-07 8.25603e-08 -1.83973e-09)
(-3.60964e-07 3.65338e-08 -6.51352e-09)
(-3.39403e-07 5.66452e-08 7.44705e-09)
(-2.91235e-07 6.4389e-08 -6.82027e-09)
(-1.9076e-07 3.30261e-08 -6.31122e-09)
(-1.26547e-07 1.10945e-08 5.89839e-09)
(-6.98117e-08 1.72523e-08 3.19361e-09)
(-5.67513e-08 5.69353e-08 8.01932e-10)
(-4.17457e-07 1.51048e-08 -2.49862e-08)
(-4.2083e-07 3.39532e-08 -1.11628e-08)
(-4.12751e-07 2.34622e-08 -8.00983e-09)
(-3.47331e-07 3.72957e-08 -1.9225e-08)
(-2.57332e-07 3.3919e-08 -2.25325e-08)
(-1.641e-07 4.21323e-09 -7.5637e-09)
(-9.24893e-08 1.25187e-08 1.81541e-09)
(-4.77334e-08 -1.16838e-08 -2.28606e-09)
(-1.14113e-07 2.21898e-09 1.94832e-08)
(-1.33357e-07 -1.61011e-08 1.69538e-08)
(-2.12493e-07 3.53822e-08 4.37954e-09)
(-3.60964e-07 3.65338e-08 -6.51352e-09)
(-1.58538e-07 2.04883e-09 6.42971e-09)
(-2.61459e-07 -2.78704e-08 -8.16329e-09)
(-3.60964e-07 3.65338e-08 -6.51352e-09)
(-4.17457e-07 1.51048e-08 -2.49862e-08)
(-3.18949e-07 -6.78835e-08 2.41125e-08)
(-4.17457e-07 1.51048e-08 -2.49862e-08)
(-3.19154e-07 -9.2091e-09 -3.99683e-08)
)
;
    }
    procBoundary1to7
    {
        type            processor;
        value           uniform (-3.86107e-07 1.82402e-08 -5.01808e-08);
    }
}


// ************************************************************************* //
