/*--------------------------------*- C++ -*----------------------------------*\
| =========                 |                                                 |
| \\      /  F ield         | OpenFOAM: The Open Source CFD Toolbox           |
|  \\    /   O peration     | Version:  4.x                                   |
|   \\  /    A nd           | Web:      www.OpenFOAM.org                      |
|    \\/     M anipulation  |                                                 |
\*---------------------------------------------------------------------------*/
FoamFile
{
    version     2.0;
    format      ascii;
    class       volVectorField;
    location    "17.5";
    object      UsPrev;
}
// * * * * * * * * * * * * * * * * * * * * * * * * * * * * * * * * * * * * * //

dimensions      [0 1 -1 0 0 0 0];

internalField   nonuniform List<vector> 
87
(
(-2.17122e-07 1.17194e-09 5.43005e-09)
(-1.15116e-06 1.28536e-06 1.23427e-07)
(-3.71187e-07 -5.18535e-09 -2.72192e-08)
(-3.57887e-07 3.22424e-08 -3.33571e-08)
(-1.88036e-07 7.17813e-08 8.364e-08)
(-7.23306e-08 2.03882e-08 3.03826e-08)
(1.19694e-08 1.31443e-08 1.05828e-08)
(1.56045e-06 6.08646e-08 -6.45748e-08)
(7.93593e-07 -7.19766e-09 -1.13924e-07)
(-3.73579e-07 2.05748e-08 -6.87005e-08)
(-4.31871e-07 5.9078e-08 -3.22067e-08)
(-4.72679e-07 2.12084e-08 9.31586e-09)
(-5.14053e-07 3.09106e-08 8.90749e-09)
(-3.77323e-07 5.2546e-08 6.43893e-08)
(-1.29744e-07 4.0387e-08 1.01149e-07)
(-1.26973e-08 5.93224e-08 5.21286e-08)
(3.58408e-08 1.32152e-08 2.92712e-08)
(-3.62404e-08 -2.87315e-08 -2.92154e-08)
(-4.72283e-07 3.40656e-08 -4.11041e-08)
(-5.37197e-07 6.09785e-08 -2.92495e-08)
(-6.33651e-07 1.27203e-07 -1.27246e-08)
(-5.72651e-07 3.64512e-08 2.53473e-09)
(-4.41698e-07 -8.89813e-09 5.83635e-08)
(-2.51491e-07 1.0628e-08 1.26042e-07)
(-1.16729e-07 5.65769e-09 1.15548e-07)
(-4.36894e-08 1.22645e-08 3.04267e-08)
(-2.94999e-08 2.50188e-09 -6.93535e-09)
(-2.57949e-07 3.73035e-08 -1.20593e-08)
(-2.54223e-07 1.66555e-08 3.57763e-08)
(-2.55287e-07 -3.59666e-09 -7.76626e-09)
(-2.61602e-07 4.60662e-08 -8.08073e-09)
(-1.52998e-07 3.46576e-08 3.33622e-08)
(-5.27101e-08 5.62246e-09 1.08115e-08)
(-1.40266e-08 1.65892e-08 9.19218e-09)
(1.78202e-08 1.10221e-08 -3.4138e-09)
(-7.17279e-09 -6.76785e-11 -2.45444e-08)
(-3.56171e-07 2.44329e-08 -3.83952e-08)
(-3.88542e-07 4.67681e-08 -1.02075e-08)
(-4.46295e-07 4.57326e-08 6.69872e-09)
(-4.91861e-07 6.29707e-08 -1.07751e-08)
(-2.93117e-07 2.78875e-08 2.95333e-08)
(-1.47581e-07 2.92916e-08 4.87403e-08)
(-7.08757e-08 2.31775e-08 5.68496e-08)
(3.00565e-09 2.30454e-08 1.85571e-08)
(-9.73683e-10 3.45216e-09 -2.15496e-08)
(-4.49455e-07 3.88343e-08 -5.09754e-08)
(-4.95609e-07 5.38199e-08 -2.98933e-08)
(-5.27349e-07 5.40102e-08 -1.4745e-08)
(-5.37656e-07 4.25212e-08 -1.06436e-08)
(-4.09067e-07 7.42663e-09 3.67861e-08)
(-2.63009e-07 1.40499e-08 4.82422e-08)
(-1.10775e-07 -8.45842e-10 6.25648e-08)
(-5.18847e-08 5.5783e-09 2.60647e-08)
(-3.54871e-08 9.04197e-09 1.16743e-09)
(-2.11914e-07 3.50406e-09 -6.52663e-09)
(-2.27884e-07 4.30258e-09 8.2018e-09)
(-2.08108e-07 -1.06576e-08 1.04676e-08)
(-2.25801e-07 4.41018e-08 1.13809e-08)
(-1.68169e-07 4.85747e-08 1.3254e-08)
(-1.02568e-07 2.40577e-08 1.553e-08)
(-5.40405e-08 1.01086e-08 7.23264e-09)
(-3.14289e-08 1.31623e-08 -5.22591e-10)
(-2.24756e-08 1.24681e-08 -5.97476e-09)
(-3.53799e-07 -5.26823e-09 -2.27567e-08)
(-3.74209e-07 1.48477e-08 -6.92165e-09)
(-3.79674e-07 2.39466e-08 -4.45988e-09)
(-3.95056e-07 4.26146e-08 7.43237e-09)
(-2.83622e-07 7.22305e-08 -2.49274e-09)
(-1.52464e-07 3.58889e-08 9.28305e-09)
(-7.40748e-08 9.59376e-09 1.2609e-08)
(-4.0053e-08 1.54121e-08 3.60768e-09)
(-3.56289e-08 2.20095e-08 2.71327e-09)
(-4.16769e-07 3.12798e-08 -4.97849e-08)
(-4.6615e-07 3.04154e-08 -2.19584e-08)
(-4.62699e-07 5.80295e-08 -2.25394e-08)
(-4.71435e-07 3.77144e-08 -7.21307e-09)
(-3.93207e-07 5.0339e-08 -1.5615e-08)
(-2.41512e-07 3.54622e-08 2.04951e-08)
(-1.11622e-07 -1.00126e-08 7.73678e-09)
(-8.33093e-08 2.74806e-09 4.65185e-09)
(-5.24074e-08 2.00624e-08 5.32668e-09)
(-1.85729e-07 -4.77576e-09 -8.40133e-09)
(-1.53286e-07 -3.68437e-08 2.74097e-08)
(-1.60983e-07 -4.40244e-09 1.78038e-08)
(-3.16974e-07 9.67177e-10 -1.21573e-08)
(-3.45487e-07 2.8111e-09 7.10347e-11)
(-3.66536e-07 7.74538e-09 -4.06813e-08)
)
;

boundaryField
{
    inlet
    {
        type            calculated;
        value           nonuniform 0();
    }
    outlet
    {
        type            calculated;
        value           uniform (0 0 0);
    }
    wall
    {
        type            calculated;
        value           uniform (0 0 0);
    }
    procBoundary1to0
    {
        type            processor;
        value           uniform (0 0 0);
    }
    procBoundary1to3
    {
        type            processor;
        value           uniform (0 0 0);
    }
    procBoundary1to5
    {
        type            processor;
        value           uniform (0 0 0);
    }
    procBoundary1to7
    {
        type            processor;
        value           uniform (0 0 0);
    }
}


// ************************************************************************* //
