/*--------------------------------*- C++ -*----------------------------------*\
| =========                 |                                                 |
| \\      /  F ield         | OpenFOAM: The Open Source CFD Toolbox           |
|  \\    /   O peration     | Version:  4.x                                   |
|   \\  /    A nd           | Web:      www.OpenFOAM.org                      |
|    \\/     M anipulation  |                                                 |
\*---------------------------------------------------------------------------*/
FoamFile
{
    version     2.0;
    format      ascii;
    class       volScalarField;
    location    "9.5";
    object      Cs;
}
// * * * * * * * * * * * * * * * * * * * * * * * * * * * * * * * * * * * * * //

dimensions      [1 -3 0 0 0 0 0];

internalField   nonuniform List<scalar> 
114
(
334.785
334.805
334.823
334.882
334.907
335.303
335.02
335.058
335.104
335.115
335.147
335.127
335.229
335
335.049
335.097
335.139
335.168
335.181
335.177
335.209
334.895
334.879
334.877
334.877
334.897
334.914
334.955
334.981
335.056
334.994
335.041
335.093
335.116
335.149
335.133
335.147
335.112
335.161
334.986
335.028
335.071
335.107
335.14
335.155
335.156
335.135
335.164
334.979
335.018
334.926
334.918
334.918
334.918
334.928
334.934
334.956
334.963
335.409
334.979
335.014
335.049
335.062
335.075
335.059
335.073
335.05
335.185
334.97
334.998
335.028
335.049
335.076
335.088
335.117
335.109
335.209
334.964
334.998
335.041
335.069
334.926
334.918
334.914
334.913
334.914
334.916
334.925
334.928
337.999
334.93
334.927
334.927
334.93
334.935
334.941
334.951
334.958
335.197
334.927
334.923
334.922
334.924
334.93
334.939
334.957
334.972
335.287
334.927
334.925
334.927
334.933
334.944
334.957
)
;

boundaryField
{
    inlet
    {
        type            calculated;
        value           nonuniform 0();
    }
    outlet
    {
        type            calculated;
        value           uniform 335;
    }
    wall
    {
        type            calculated;
        value           nonuniform List<scalar> 
66
(
334.926
334.93
334.927
334.927
334.918
334.927
334.923
334.925
334.914
334.927
334.922
334.927
334.913
334.93
334.924
334.933
334.914
334.935
334.93
334.944
334.916
334.941
334.939
334.957
334.925
334.951
334.957
334.928
334.958
334.972
337.999
335.197
335.287
334.895
334.926
334.926
334.879
334.918
334.918
334.877
334.918
334.914
334.785
334.877
334.918
334.913
334.805
334.897
334.928
334.914
334.823
334.914
334.934
334.916
334.882
334.955
334.956
334.925
334.907
334.981
334.963
334.928
335.303
335.056
335.409
337.999
)
;
    }
    procBoundary5to1
    {
        type            processor;
        value           nonuniform List<scalar> 
32
(
334.694
334.731
334.765
334.845
334.885
335.893
334.996
335.057
335.114
335.137
335.173
335.157
335.352
334.984
335.052
335.114
335.166
335.197
335.211
335.204
335.279
334.832
334.803
334.79
334.79
334.79
334.93
334.971
334.971
334.971
334.955
334.955
)
;
    }
    procBoundary5to4
    {
        type            processor;
        value           nonuniform List<scalar> 
12
(
334.911
334.952
334.951
334.945
334.936
334.954
334.949
334.941
334.936
334.936
334.934
334.932
)
;
    }
    procBoundary5to7
    {
        type            processor;
        value           nonuniform List<scalar> 
44
(
334.965
335.007
335.051
335.092
335.122
335.126
335.108
335.071
334.926
334.965
335.06
335.102
335.136
335.124
335.078
335.047
335.039
335.001
335.06
335.038
335.06
335.102
335.105
335.123
335.145
335.134
335.221
334.973
334.996
335.025
335.105
335.048
335.105
335.123
334.981
335
335.678
334.922
334.921
334.932
334.956
334.989
334.981
335.019
)
;
    }
}


// ************************************************************************* //
