/*--------------------------------*- C++ -*----------------------------------*\
| =========                 |                                                 |
| \\      /  F ield         | OpenFOAM: The Open Source CFD Toolbox           |
|  \\    /   O peration     | Version:  4.x                                   |
|   \\  /    A nd           | Web:      www.OpenFOAM.org                      |
|    \\/     M anipulation  |                                                 |
\*---------------------------------------------------------------------------*/
FoamFile
{
    version     2.0;
    format      ascii;
    class       volVectorField;
    location    "9.5";
    object      DDtUrel;
}
// * * * * * * * * * * * * * * * * * * * * * * * * * * * * * * * * * * * * * //

dimensions      [0 1 -2 0 0 0 0];

internalField   nonuniform List<vector> 
114
(
(2.41663e-05 -0.00010042 -0.000191713)
(3.11369e-05 -0.000174971 -0.000290557)
(-0.000287274 -0.000446744 -0.000489727)
(-0.000341213 -0.000715318 -0.000737249)
(-0.00157929 -0.001582 -0.00140481)
(-0.00296298 -0.00229477 -0.00191304)
(5.58098e-05 -2.5307e-05 -0.000108515)
(-3.5045e-05 -9.07489e-05 -0.000166858)
(-0.000111495 -0.000166853 -0.000237651)
(-0.000334446 -0.000367399 -0.000379002)
(-0.000601635 -0.00060843 -0.000557175)
(-0.00125069 -0.00126846 -0.000937984)
(-0.00193265 -0.00185098 -0.00131205)
(3.04273e-05 -1.15877e-05 -7.33639e-05)
(-5.56995e-06 -2.60833e-05 -0.000116844)
(-8.07669e-05 -6.34703e-05 -0.000155654)
(-0.000186175 -0.000114415 -0.00021494)
(-0.000362933 -0.000215123 -0.000311326)
(-0.000653705 -0.000349573 -0.000440671)
(-0.00102837 -0.00063969 -0.000667524)
(-0.0015304 -0.000972747 -0.000883571)
(0.000200934 2.0463e-05 2.49614e-05)
(0.000147457 -1.06283e-06 -2.84972e-05)
(0.000139577 -2.32825e-05 -7.61377e-05)
(1.15677e-05 -0.000109815 -0.000144031)
(-5.69842e-05 -0.000193644 -0.000205335)
(-0.000352776 -0.000438349 -0.00030831)
(-0.000662567 -0.000733596 -0.000440724)
(-0.00148487 -0.00134321 -0.000657379)
(-0.00240893 -0.0019967 -0.000845608)
(0.000123503 6.66369e-06 -2.1991e-05)
(8.36344e-05 -1.12344e-05 -5.19724e-05)
(4.78003e-05 -3.3801e-05 -8.96469e-05)
(-4.02585e-05 -9.49998e-05 -0.000130658)
(-0.000153295 -0.000178606 -0.000178889)
(-0.000374365 -0.000362929 -0.00026191)
(-0.000692531 -0.000614302 -0.000359471)
(-0.00121486 -0.0011092 -0.000512328)
(-0.00178689 -0.00158053 -0.000636306)
(7.05398e-05 -5.56594e-06 -4.34181e-05)
(3.53901e-05 -1.63547e-05 -6.60576e-05)
(-1.46676e-05 -3.08159e-05 -0.000100668)
(-9.12031e-05 -7.06068e-05 -0.000128204)
(-0.00021464 -0.000126744 -0.000169077)
(-0.000381479 -0.000228046 -0.000232918)
(-0.000670161 -0.000372436 -0.00031424)
(-0.00100259 -0.000646715 -0.000430998)
(-0.00144051 -0.000897386 -0.000517657)
(4.49747e-05 -1.02968e-05 -5.26247e-05)
(1.38566e-05 -1.25491e-05 -7.161e-05)
(0.000241444 1.43279e-05 -2.92503e-06)
(0.000199318 -1.3039e-05 -3.58034e-05)
(0.000218971 -3.22765e-05 -7.13527e-05)
(9.32064e-05 -0.000137147 -9.92855e-05)
(9.66129e-05 -0.000225035 -0.000139935)
(-0.000231179 -0.000518661 -0.000146104)
(-0.000367306 -0.000819518 -0.000242003)
(-0.00163556 -0.00170904 -0.000100568)
(-0.00304776 -0.00247724 0.000100391)
(0.00015223 -1.92525e-06 -3.87293e-05)
(0.000112402 -2.09573e-05 -6.02142e-05)
(9.03056e-05 -4.45336e-05 -9.19132e-05)
(-1.69599e-05 -0.00011526 -0.000110139)
(-8.994e-05 -0.000202335 -0.000138566)
(-0.000338672 -0.000425256 -0.00015825)
(-0.000625342 -0.000701469 -0.000195074)
(-0.00132929 -0.00141285 -0.000143875)
(-0.00205793 -0.00202339 -1.6004e-05)
(0.00010026 -1.5988e-05 -5.61957e-05)
(5.20229e-05 -2.56157e-05 -7.1076e-05)
(6.55575e-06 -3.69726e-05 -9.98929e-05)
(-9.37403e-05 -8.28155e-05 -0.000113241)
(-0.000195095 -0.000144704 -0.000142687)
(-0.000396142 -0.000270432 -0.000165853)
(-0.000678869 -0.000432141 -0.0002145)
(-0.00109075 -0.000800051 -0.00021074)
(-0.00160448 -0.00118996 -0.000160206)
(5.96212e-05 -1.59554e-05 -5.91188e-05)
(2.42179e-05 -1.85963e-05 -7.54446e-05)
(-4.89288e-05 -2.3743e-05 -0.000103566)
(-0.000137319 -3.78233e-05 -0.000117597)
(0.000279473 8.57384e-06 -2.96346e-05)
(0.000241131 -2.38062e-05 -6.48499e-05)
(0.000268301 -5.33549e-05 -9.20808e-05)
(0.000156341 -0.000165341 -0.00011224)
(0.000212925 -0.000263508 -0.000127315)
(-9.84987e-05 -0.000599219 -0.000120739)
(-1.62638e-05 -0.000939917 -0.000154208)
(-0.00177543 -0.00215361 -7.48753e-05)
(-0.00374521 -0.00300529 -2.35527e-05)
(0.000202298 -9.45829e-06 -5.38627e-05)
(0.000149104 -3.60282e-05 -8.27695e-05)
(0.000124899 -6.17529e-05 -0.000112473)
(1.12127e-05 -0.000149903 -0.000117278)
(-4.90353e-05 -0.000236896 -0.00012991)
(-0.000306689 -0.000501579 -0.000125112)
(-0.000553202 -0.000795692 -0.000134019)
(-0.00144384 -0.00174088 -8.45502e-05)
(-0.00235763 -0.00255919 -2.11473e-05)
(0.000151706 -2.58666e-05 -6.30465e-05)
(8.26801e-05 -4.29774e-05 -8.52515e-05)
(2.9358e-05 -5.46823e-05 -0.000110204)
(-9.7389e-05 -0.000110137 -0.000115938)
(-0.000199664 -0.000162822 -0.000135285)
(-0.000426716 -0.000310552 -0.000141817)
(-0.000697141 -0.000490345 -0.000161325)
(-0.00118815 -0.000924855 -0.000162664)
(-0.00177616 -0.00150543 -0.000133279)
(0.000101109 -2.4059e-05 -6.02455e-05)
(3.2638e-05 -2.74075e-05 -8.4472e-05)
(-4.86242e-05 -2.84588e-05 -0.00012057)
(-0.000163135 -4.99374e-05 -0.000119352)
(-0.000280592 -6.50272e-05 -0.000135256)
(-0.000448475 -0.000133548 -0.000163673)
)
;

boundaryField
{
    inlet
    {
        type            calculated;
        value           nonuniform 0();
    }
    outlet
    {
        type            calculated;
        value           nonuniform List<vector> 
12
(
(-0.012186 -0.00727015 -0.00777641)
(-0.00261655 -0.00610176 -0.00346668)
(-0.00274365 -0.0025977 -0.000972509)
(-0.00365419 -0.00300388 -0.00172443)
(-0.00151866 -0.00174106 -0.000591388)
(-0.00167317 -0.000655292 -0.000199842)
(-0.0104756 -0.00621082 0.00438457)
(-0.00268757 -0.00487955 0.0023992)
(-0.00272692 -0.00239802 0.00115421)
(-0.0165136 -0.00874871 -0.000244093)
(-0.00376826 -0.00871117 0.00051933)
(-0.00342361 -0.00400884 0.000151674)
)
;
    }
    wall
    {
        type            calculated;
        value           nonuniform List<vector> 
66
(
(0.000833256 0.000161004 -3.17164e-05)
(0.000417368 4.32645e-05 -0.000174651)
(0.000461616 -6.55875e-05 -0.000165317)
(0.000296334 -5.76424e-05 -7.66818e-05)
(0.000438709 -2.85033e-05 -0.000124656)
(8.93406e-05 -0.000101041 -0.000196261)
(7.58671e-05 -0.000182475 -0.000129495)
(4.55595e-05 -5.66352e-05 -7.56348e-05)
(0.00130961 0.000175066 -0.000115819)
(0.000374847 4.05752e-05 -0.000325257)
(0.000283642 -2.578e-05 -0.000165216)
(-0.000122146 5.85041e-05 -0.000358536)
(0.000247853 -0.000343838 -0.000152764)
(-0.000188612 -0.000334683 -0.000133158)
(-0.000319234 -0.000265464 -6.56122e-05)
(-0.000446382 -6.18307e-05 -5.74483e-05)
(0.0025632 0.000306743 -0.000151037)
(0.000376378 8.82305e-05 -0.000151848)
(-2.14402e-05 1.73242e-05 -0.000170871)
(-0.000455039 0.000172893 4.52956e-06)
(-0.00032952 -0.00112854 9.98953e-05)
(-0.000516211 -0.000926301 5.84489e-05)
(-0.000680764 -0.000287177 -1.04178e-05)
(-0.000435506 -0.000200106 8.37523e-05)
(0.00866908 0.00107855 -0.000313258)
(0.000550641 0.000531986 9.79657e-06)
(-0.000482609 0.000182025 2.30115e-05)
(-0.00253682 -0.00595217 0.000123636)
(-0.00148592 -0.00439167 0.00026197)
(-0.000909713 -5.65573e-05 -3.10899e-05)
(-0.0165136 -0.00874871 -0.000244093)
(-0.00376826 -0.00871117 0.00051933)
(-0.00342361 -0.00400884 0.000151674)
(0.000477447 0.000165464 0.000218253)
(0.000726086 0.000170416 0.000102446)
(0.000833256 0.000161004 -3.17164e-05)
(1.29957e-05 3.55368e-05 1.85279e-05)
(0.000296289 -1.88277e-05 0.000114262)
(0.000438709 -2.85033e-05 -0.000124656)
(0.000521524 0.00020237 5.72948e-05)
(0.00117677 0.000319835 4.53571e-05)
(0.00130961 0.000175066 -0.000115819)
(-0.000154663 -0.000192713 -0.000450813)
(-0.000310381 -0.000108981 -0.000197144)
(6.88723e-05 -0.000256562 0.00015198)
(0.000247853 -0.000343838 -0.000152764)
(0.00181576 0.000460884 -0.000328433)
(0.000234102 0.00032037 -9.06876e-05)
(0.00185506 0.00039364 -9.40937e-05)
(0.0025632 0.000306743 -0.000151037)
(-0.000946394 -0.000818523 -0.00113956)
(-0.000814887 -0.000234202 -0.000296407)
(-0.000556963 -0.000780434 0.000600543)
(-0.00032952 -0.00112854 9.98953e-05)
(0.00509562 0.000895288 -0.00032063)
(-0.000797635 0.000127311 -0.000117676)
(0.00392042 0.000832038 -0.000815208)
(0.00866908 0.00107855 -0.000313258)
(-0.00254682 -0.00378122 -0.00477675)
(-0.00123182 -6.65387e-05 -0.000609843)
(-0.00214163 -0.0027689 0.00146591)
(-0.00253682 -0.00595217 0.000123636)
(-0.012186 -0.00727015 -0.00777641)
(-0.00365419 -0.00300388 -0.00172443)
(-0.0104756 -0.00621082 0.00438457)
(-0.0165136 -0.00874871 -0.000244093)
)
;
    }
    procBoundary5to1
    {
        type            processor;
        value           nonuniform List<vector> 
32
(
(9.50967e-06 -8.79067e-05 -0.000183154)
(2.36111e-05 -0.000163367 -0.000310246)
(-0.000239577 -0.000416649 -0.000518772)
(-0.00028224 -0.000697118 -0.000905641)
(-0.00153235 -0.00157922 -0.00168675)
(-0.0030003 -0.00216611 -0.00220488)
(3.92809e-05 -2.39577e-05 -0.000109636)
(-4.10027e-05 -8.28644e-05 -0.000172518)
(-0.000110834 -0.000155915 -0.000260223)
(-0.000311869 -0.000344339 -0.00042215)
(-0.000573697 -0.000583831 -0.000674013)
(-0.00123037 -0.00126201 -0.0011229)
(-0.00194802 -0.00178402 -0.00150712)
(1.56766e-05 -7.2454e-06 -7.2776e-05)
(-1.35603e-05 -1.90771e-05 -0.0001204)
(-7.85875e-05 -5.24831e-05 -0.000164726)
(-0.000182974 -0.000103223 -0.00023761)
(-0.000350577 -0.000188517 -0.000358228)
(-0.000641065 -0.000323613 -0.000543637)
(-0.00104193 -0.000579108 -0.000813302)
(-0.00155232 -0.000880808 -0.00104089)
(0.000216003 2.35275e-05 5.5814e-05)
(0.00015501 9.8426e-06 -1.91992e-05)
(0.000154305 -9.3814e-06 -8.93161e-05)
(0.000154305 -9.3814e-06 -8.93161e-05)
(0.000154305 -9.3814e-06 -8.93161e-05)
(0.000126474 9.0641e-06 -1.35066e-05)
(7.87776e-05 -6.11215e-06 -5.61436e-05)
(7.87776e-05 -6.11215e-06 -5.61436e-05)
(7.87776e-05 -6.11215e-06 -5.61436e-05)
(7.11896e-05 -8.31718e-07 -4.1298e-05)
(7.11896e-05 -8.31718e-07 -4.1298e-05)
)
;
    }
    procBoundary5to4
    {
        type            processor;
        value           nonuniform List<vector> 
12
(
(0.000189599 1.30494e-05 6.01815e-05)
(0.000132107 5.24243e-06 1.73208e-05)
(8.90562e-05 -2.89884e-06 -6.64675e-06)
(6.97499e-05 -7.34781e-06 -1.57841e-05)
(0.000220704 8.47229e-06 3.00863e-05)
(0.000159647 -9.00832e-07 -1.33495e-06)
(0.000117848 -1.15654e-05 -1.89182e-05)
(9.03678e-05 -1.30865e-05 -2.48077e-05)
(0.000255922 5.49011e-06 3.79249e-06)
(0.000211462 -7.82872e-06 -1.62332e-05)
(0.000173805 -2.30752e-05 -2.70653e-05)
(0.000136568 -2.33987e-05 -2.72299e-05)
)
;
    }
    procBoundary5to7
    {
        type            processor;
        value           nonuniform List<vector> 
44
(
(1.54468e-05 -7.4928e-06 -8.53399e-05)
(-3.80008e-05 -1.35958e-05 -0.000124044)
(-9.98676e-05 -2.09529e-05 -0.000160914)
(-0.000228522 -3.24058e-05 -0.000214209)
(-0.000366186 -5.02527e-05 -0.000307828)
(-0.00066115 -7.22259e-05 -0.000438532)
(-0.000951109 -8.56559e-05 -0.000657951)
(-0.00133103 -8.35353e-05 -0.000863175)
(4.90914e-05 -5.71266e-06 -5.43297e-05)
(1.54468e-05 -7.4928e-06 -8.53399e-05)
(-5.0853e-05 -1.76232e-05 -0.000100067)
(-0.000115036 -2.83401e-05 -0.000131865)
(-0.000246736 -4.36787e-05 -0.000176687)
(-0.000370739 -7.23556e-05 -0.000243593)
(-0.000632976 -0.000109278 -0.000332815)
(-0.000897944 -0.000156554 -0.000474107)
(-0.00122753 -0.000190721 -0.000586138)
(6.15444e-05 -1.39539e-05 -5.05909e-05)
(-5.0853e-05 -1.76232e-05 -0.000100067)
(2.21753e-05 -9.361e-06 -7.46521e-05)
(-5.0853e-05 -1.76232e-05 -0.000100067)
(-0.000115036 -2.83401e-05 -0.000131865)
(-0.000251023 -5.94981e-05 -0.000147754)
(-0.000407156 -0.000102132 -0.000191349)
(-0.000666189 -0.000156099 -0.000252316)
(-0.00095631 -0.000257551 -0.000317581)
(-0.00132027 -0.000351665 -0.000349631)
(6.57713e-05 -1.19295e-05 -5.94046e-05)
(1.64769e-05 -1.21708e-05 -7.63191e-05)
(-3.27383e-05 -1.64591e-05 -0.000107133)
(-0.000251023 -5.94981e-05 -0.000147754)
(-0.000124467 1.71841e-06 -0.000130985)
(-0.000251023 -5.94981e-05 -0.000147754)
(-0.000407156 -0.000102132 -0.000191349)
(-0.00069565 -0.000193321 -0.000214828)
(-0.0010183 -0.000362866 -0.000268019)
(-0.00145071 -0.000563752 -0.000280369)
(6.31541e-05 -1.66826e-05 -6.24412e-05)
(3.8056e-07 -1.35065e-05 -8.29435e-05)
(-6.72155e-05 -1.37523e-05 -0.000109618)
(-0.000158807 -4.6836e-06 -0.000126578)
(-0.000280674 6.03783e-06 -0.000155027)
(-0.00069565 -0.000193321 -0.000214828)
(-0.000431875 2.45019e-05 -0.000214332)
)
;
    }
}


// ************************************************************************* //
