/*--------------------------------*- C++ -*----------------------------------*\
| =========                 |                                                 |
| \\      /  F ield         | OpenFOAM: The Open Source CFD Toolbox           |
|  \\    /   O peration     | Version:  4.x                                   |
|   \\  /    A nd           | Web:      www.OpenFOAM.org                      |
|    \\/     M anipulation  |                                                 |
\*---------------------------------------------------------------------------*/
FoamFile
{
    version     2.0;
    format      ascii;
    class       volScalarField;
    location    "9.5";
    object      nu;
}
// * * * * * * * * * * * * * * * * * * * * * * * * * * * * * * * * * * * * * //

dimensions      [0 2 -1 0 0 0 0];

internalField   nonuniform List<scalar> 
114
(
1.00064e-06
1.00058e-06
1.00053e-06
1.00035e-06
1.00028e-06
9.99096e-07
9.9994e-07
9.99828e-07
9.99689e-07
9.99657e-07
9.99562e-07
9.9962e-07
9.99318e-07
1e-06
9.99854e-07
9.9971e-07
9.99586e-07
9.99497e-07
9.9946e-07
9.99471e-07
9.99375e-07
1.00031e-06
1.00036e-06
1.00037e-06
1.00037e-06
1.00031e-06
1.00026e-06
1.00014e-06
1.00006e-06
9.99833e-07
1.00002e-06
9.99879e-07
9.99723e-07
9.99655e-07
9.99555e-07
9.99602e-07
9.99562e-07
9.99666e-07
9.99519e-07
1.00004e-06
9.99915e-07
9.99788e-07
9.99682e-07
9.99583e-07
9.99538e-07
9.99534e-07
9.99598e-07
9.9951e-07
1.00006e-06
9.99945e-07
1.00022e-06
1.00024e-06
1.00025e-06
1.00025e-06
1.00022e-06
1.0002e-06
1.00013e-06
1.00011e-06
9.9878e-07
1.00006e-06
9.99958e-07
9.99854e-07
9.99814e-07
9.99776e-07
9.99825e-07
9.99782e-07
9.99852e-07
9.99449e-07
1.00009e-06
1.00001e-06
9.99917e-07
9.99854e-07
9.99772e-07
9.99737e-07
9.99651e-07
9.99674e-07
9.99378e-07
1.00011e-06
1.00001e-06
9.99877e-07
9.99795e-07
1.00022e-06
1.00024e-06
1.00026e-06
1.00026e-06
1.00026e-06
1.00025e-06
1.00022e-06
1.00021e-06
9.91126e-07
1.00021e-06
1.00022e-06
1.00022e-06
1.00021e-06
1.00019e-06
1.00018e-06
1.00015e-06
1.00012e-06
9.99411e-07
1.00022e-06
1.00023e-06
1.00023e-06
1.00023e-06
1.00021e-06
1.00018e-06
1.00013e-06
1.00008e-06
9.99143e-07
1.00022e-06
1.00022e-06
1.00022e-06
1.0002e-06
1.00017e-06
1.00013e-06
)
;

boundaryField
{
    inlet
    {
        type            calculated;
        value           nonuniform 0();
    }
    outlet
    {
        type            calculated;
        value           uniform 1e-06;
    }
    wall
    {
        type            calculated;
        value           nonuniform List<scalar> 
66
(
1.00022e-06
1.00021e-06
1.00022e-06
1.00022e-06
1.00024e-06
1.00022e-06
1.00023e-06
1.00022e-06
1.00026e-06
1.00022e-06
1.00023e-06
1.00022e-06
1.00026e-06
1.00021e-06
1.00023e-06
1.0002e-06
1.00026e-06
1.00019e-06
1.00021e-06
1.00017e-06
1.00025e-06
1.00018e-06
1.00018e-06
1.00013e-06
1.00022e-06
1.00015e-06
1.00013e-06
1.00021e-06
1.00012e-06
1.00008e-06
9.91126e-07
9.99411e-07
9.99143e-07
1.00031e-06
1.00022e-06
1.00022e-06
1.00036e-06
1.00024e-06
1.00024e-06
1.00037e-06
1.00025e-06
1.00026e-06
1.00064e-06
1.00037e-06
1.00025e-06
1.00026e-06
1.00058e-06
1.00031e-06
1.00022e-06
1.00026e-06
1.00053e-06
1.00026e-06
1.0002e-06
1.00025e-06
1.00035e-06
1.00014e-06
1.00013e-06
1.00022e-06
1.00028e-06
1.00006e-06
1.00011e-06
1.00021e-06
9.99096e-07
9.99833e-07
9.9878e-07
9.91126e-07
)
;
    }
    procBoundary5to1
    {
        type            processor;
        value           nonuniform List<scalar> 
32
(
1.00092e-06
1.0008e-06
1.0007e-06
1.00046e-06
1.00034e-06
9.97343e-07
1.00001e-06
9.99831e-07
9.99659e-07
9.99591e-07
9.99483e-07
9.99532e-07
9.98951e-07
1.00005e-06
9.99844e-07
9.99658e-07
9.99505e-07
9.99412e-07
9.99371e-07
9.99392e-07
9.99169e-07
1.0005e-06
1.00059e-06
1.00063e-06
1.00063e-06
1.00063e-06
1.00021e-06
1.00009e-06
1.00009e-06
1.00009e-06
1.00013e-06
1.00013e-06
)
;
    }
    procBoundary5to4
    {
        type            processor;
        value           nonuniform List<scalar> 
12
(
1.00027e-06
1.00014e-06
1.00015e-06
1.00016e-06
1.00019e-06
1.00014e-06
1.00015e-06
1.00017e-06
1.00019e-06
1.00019e-06
1.0002e-06
1.0002e-06
)
;
    }
    procBoundary5to7
    {
        type            processor;
        value           nonuniform List<scalar> 
44
(
1.00011e-06
9.99981e-07
9.99847e-07
9.99726e-07
9.99634e-07
9.99623e-07
9.99677e-07
9.99789e-07
1.00022e-06
1.00011e-06
9.99822e-07
9.99694e-07
9.99594e-07
9.99629e-07
9.99768e-07
9.99859e-07
9.99884e-07
9.99998e-07
9.99822e-07
9.99887e-07
9.99822e-07
9.99694e-07
9.99687e-07
9.99632e-07
9.99566e-07
9.99599e-07
9.99341e-07
1.00008e-06
1.00001e-06
9.99926e-07
9.99687e-07
9.99855e-07
9.99687e-07
9.99632e-07
1.00006e-06
1e-06
9.9798e-07
1.00023e-06
1.00023e-06
1.0002e-06
1.00013e-06
1.00003e-06
1.00006e-06
9.99942e-07
)
;
    }
}


// ************************************************************************* //
