/*--------------------------------*- C++ -*----------------------------------*\
| =========                 |                                                 |
| \\      /  F ield         | OpenFOAM: The Open Source CFD Toolbox           |
|  \\    /   O peration     | Version:  4.x                                   |
|   \\  /    A nd           | Web:      www.OpenFOAM.org                      |
|    \\/     M anipulation  |                                                 |
\*---------------------------------------------------------------------------*/
FoamFile
{
    version     2.0;
    format      ascii;
    class       volScalarField;
    location    "9.5";
    object      Qsource;
}
// * * * * * * * * * * * * * * * * * * * * * * * * * * * * * * * * * * * * * //

dimensions      [1 -1 -3 0 0 0 0];

internalField   nonuniform List<scalar> 
114
(
9.59982e+09
9.12799e+09
9.4071e+09
7.71101e+09
1.12738e+10
8.44938e+09
7.82678e+09
7.41283e+09
6.57286e+09
8.81142e+09
9.47896e+09
1.10525e+10
7.51262e+09
1.02167e+10
6.45069e+09
8.91047e+09
6.28704e+09
5.46365e+09
7.3548e+09
6.61965e+09
6.68303e+09
7.09527e+09
6.65091e+09
8.38848e+09
7.35354e+09
7.40983e+09
9.29405e+09
8.04299e+09
7.48156e+09
5.04768e+09
8.12505e+09
8.21473e+09
9.31475e+09
8.99793e+09
9.10203e+09
1.01699e+10
5.39638e+09
1.05152e+10
6.13969e+09
8.51468e+09
5.43729e+09
7.3436e+09
8.98949e+09
6.16188e+09
8.17587e+09
7.17263e+09
7.76197e+09
4.42113e+09
1.02775e+10
5.06025e+09
8.03494e+09
1.05464e+10
8.34331e+09
9.79804e+09
8.74996e+09
9.66438e+09
8.00711e+09
1.09282e+10
6.90213e+09
5.99393e+09
1.0799e+10
7.16039e+09
9.13934e+09
8.38883e+09
9.20207e+09
1.1039e+10
8.75252e+09
5.46192e+09
9.00921e+09
7.71262e+09
8.05294e+09
7.25221e+09
1.14329e+10
9.21255e+09
8.83182e+09
1.06185e+10
7.80615e+09
3.81284e+09
1.14106e+10
9.34557e+09
9.51446e+09
3.71002e+09
8.69817e+09
5.86288e+09
9.78365e+09
7.5356e+09
8.25191e+09
8.82431e+09
1.14456e+10
7.41475e+09
7.24183e+09
9.45594e+09
5.57774e+09
7.87195e+09
8.98631e+09
8.65537e+09
6.27652e+09
9.8872e+09
7.16949e+09
7.02335e+09
8.10182e+09
9.42437e+09
8.692e+09
6.9762e+09
1.02465e+10
7.39834e+09
8.55856e+09
6.68369e+09
7.68778e+09
7.11172e+09
8.12401e+09
7.48823e+09
1.07813e+10
8.86204e+09
)
;

boundaryField
{
    inlet
    {
        type            calculated;
        value           nonuniform 0();
    }
    outlet
    {
        type            calculated;
        value           uniform 0;
    }
    wall
    {
        type            calculated;
        value           uniform 0;
    }
    procBoundary5to1
    {
        type            processor;
        value           nonuniform List<scalar> 
32
(
1.08462e+10
7.29569e+09
1.13664e+10
9.04148e+09
9.72109e+09
4.46287e+09
6.43507e+09
8.0157e+09
8.31559e+09
9.12947e+09
7.85848e+09
9.27849e+09
4.28448e+09
7.79785e+09
5.45284e+09
1.10906e+10
8.75966e+09
1.05193e+10
7.1924e+09
9.25887e+09
2.99433e+09
7.39399e+09
6.7517e+09
9.19844e+09
9.19844e+09
9.19844e+09
8.12853e+09
1.25125e+10
1.25125e+10
1.25125e+10
6.12021e+09
6.12021e+09
)
;
    }
    procBoundary5to4
    {
        type            processor;
        value           nonuniform List<scalar> 
12
(
1.03333e+10
1.09654e+10
6.6265e+09
7.0015e+09
1.03734e+10
1.03366e+10
8.54863e+09
8.0448e+09
9.83316e+09
9.36228e+09
7.892e+09
7.86296e+09
)
;
    }
    procBoundary5to7
    {
        type            processor;
        value           nonuniform List<scalar> 
44
(
9.3056e+09
6.8014e+09
8.03016e+09
1.13552e+10
1.2304e+10
8.15284e+09
6.2123e+09
6.07968e+09
1.05578e+10
9.3056e+09
6.53945e+09
8.42883e+09
6.87052e+09
7.82518e+09
8.51883e+09
9.22173e+09
5.82896e+09
3.89815e+09
6.53945e+09
1.00552e+10
6.53945e+09
8.42883e+09
4.70942e+09
6.76355e+09
7.50725e+09
6.82036e+09
4.08251e+09
8.72118e+09
9.0638e+09
7.14099e+09
4.70942e+09
6.44894e+09
4.70942e+09
6.76355e+09
6.04183e+09
7.8252e+09
5.12047e+09
7.66825e+09
7.67311e+09
7.68054e+09
9.14989e+09
4.98952e+09
6.04183e+09
5.32976e+09
)
;
    }
}


// ************************************************************************* //
