/*--------------------------------*- C++ -*----------------------------------*\
| =========                 |                                                 |
| \\      /  F ield         | OpenFOAM: The Open Source CFD Toolbox           |
|  \\    /   O peration     | Version:  4.x                                   |
|   \\  /    A nd           | Web:      www.OpenFOAM.org                      |
|    \\/     M anipulation  |                                                 |
\*---------------------------------------------------------------------------*/
FoamFile
{
    version     2.0;
    format      ascii;
    class       volVectorField;
    location    "9.5";
    object      UsPrev;
}
// * * * * * * * * * * * * * * * * * * * * * * * * * * * * * * * * * * * * * //

dimensions      [0 1 -1 0 0 0 0];

internalField   nonuniform List<vector> 
114
(
(-5.17879e-08 6.92438e-09 1.25343e-08)
(-3.55843e-08 5.7184e-09 5.60402e-09)
(-2.81538e-08 1.66828e-09 1.00234e-08)
(-1.1292e-08 -6.30575e-10 1.04045e-08)
(-9.43063e-09 4.31376e-10 9.41483e-09)
(-2.62661e-08 1.49093e-08 5.5539e-10)
(-7.93582e-08 4.78273e-09 3.47187e-08)
(-6.9845e-08 7.40802e-09 2.46555e-08)
(-5.5898e-08 3.90386e-09 1.27481e-08)
(-3.47803e-08 2.43353e-09 7.04191e-09)
(-2.3985e-08 -1.46067e-09 1.33639e-08)
(-1.18804e-08 2.80222e-09 1.61541e-08)
(-8.12534e-09 1.08233e-08 9.66555e-09)
(-9.51915e-08 -7.40512e-09 4.05792e-08)
(-8.66318e-08 -9.17908e-10 3.38051e-08)
(-7.22544e-08 2.44364e-09 2.27432e-08)
(-6.10899e-08 1.97061e-09 9.37489e-09)
(-4.52127e-08 3.83667e-09 2.91193e-09)
(-3.05652e-08 1.06389e-09 4.36754e-09)
(-1.84184e-08 6.93468e-09 1.87334e-08)
(-7.48431e-09 9.48401e-09 1.3417e-08)
(-7.40873e-08 4.82578e-09 6.55597e-09)
(-7.20166e-08 -7.66722e-09 5.16347e-09)
(-6.55552e-08 -5.71747e-09 1.11223e-08)
(-5.90315e-08 1.49846e-09 8.63022e-09)
(-4.17956e-08 1.26728e-09 -2.04956e-09)
(-2.02248e-08 1.58044e-09 7.07274e-09)
(-1.22735e-08 1.48577e-09 5.93559e-09)
(-7.9619e-09 1.25634e-09 7.33365e-09)
(-3.76625e-09 2.97819e-09 8.20219e-09)
(-1.09037e-07 -2.04617e-08 1.07242e-08)
(-1.12821e-07 -3.47463e-08 1.52794e-08)
(-8.18485e-08 -1.01763e-08 2.07469e-08)
(-7.40184e-08 -4.09231e-10 1.59527e-08)
(-5.44928e-08 -7.04827e-09 8.03227e-09)
(-3.40012e-08 -1.30345e-09 4.34235e-09)
(-2.73731e-08 3.26996e-09 6.56557e-09)
(-1.5572e-08 8.02764e-09 7.0122e-09)
(-9.27744e-09 4.44733e-09 6.2281e-09)
(-1.14247e-07 -1.45102e-08 1.49659e-08)
(-9.88458e-08 -1.07823e-08 2.52503e-08)
(-8.68782e-08 -1.13855e-08 2.73048e-08)
(-7.19932e-08 -2.16299e-09 1.82605e-08)
(-5.3679e-08 -9.83533e-10 7.25715e-09)
(-3.86139e-08 -6.20655e-10 1.94604e-09)
(-2.60241e-08 2.6108e-09 2.33248e-09)
(-1.2516e-08 4.63082e-09 2.12889e-09)
(-2.88836e-09 2.42102e-09 1.34031e-09)
(-1.12341e-07 -8.88873e-09 2.36272e-08)
(-1.04607e-07 -6.90068e-09 2.92123e-08)
(-6.96481e-08 3.21026e-09 9.85002e-09)
(-7.05758e-08 -5.14341e-09 4.63726e-09)
(-6.86971e-08 -8.29421e-09 9.33424e-09)
(-7.2013e-08 -1.42851e-08 2.42698e-08)
(-5.04258e-08 -2.98468e-09 -2.60193e-10)
(-2.35947e-08 2.62039e-09 4.94773e-09)
(-8.90917e-09 7.72661e-10 3.14892e-09)
(-3.02169e-09 -7.85909e-10 4.688e-09)
(-7.55393e-09 1.59901e-09 1.60582e-08)
(-9.37609e-08 -4.48012e-10 1.58283e-09)
(-8.93117e-08 -9.95676e-09 3.68572e-09)
(-8.11686e-08 -1.48962e-08 1.57303e-08)
(-2.38283e-07 -7.15141e-08 1.41378e-08)
(-4.96125e-08 -4.89249e-09 2.33544e-09)
(-2.94959e-08 -3.25488e-09 4.84227e-09)
(-1.34511e-08 7.53825e-11 3.20889e-09)
(-8.13726e-09 -1.45832e-09 2.99182e-09)
(-2.26558e-09 -4.44067e-09 2.11539e-09)
(-1.07074e-07 -9.51568e-09 5.83929e-09)
(-1.06768e-07 -1.58973e-08 9.55644e-09)
(-8.0546e-08 -1.86215e-08 1.96808e-08)
(-6.86975e-08 -1.05491e-08 1.49145e-08)
(-4.46025e-08 -4.58209e-09 4.54079e-09)
(-3.08361e-08 -4.93166e-09 -3.73922e-10)
(-1.51161e-08 -2.2431e-09 -1.92491e-09)
(-6.44709e-09 -2.37717e-10 -3.39449e-09)
(-3.64071e-09 -1.91861e-09 -4.39043e-09)
(-1.04852e-07 -5.00675e-09 1.63683e-09)
(-9.73066e-08 -8.58131e-09 1.02333e-08)
(-8.40312e-08 -1.06229e-08 1.09796e-08)
(-6.4331e-08 -8.8446e-09 9.38157e-09)
(-3.42279e-08 8.16916e-09 4.9919e-09)
(-4.95122e-08 -4.67143e-10 1.81959e-09)
(-3.3435e-08 6.70402e-09 3.03884e-09)
(-4.63324e-08 -9.75887e-09 1.39793e-08)
(-3.6549e-08 -4.21869e-10 -7.44987e-10)
(-1.25978e-08 7.12618e-10 3.17433e-09)
(-3.91547e-09 -2.91053e-10 8.20181e-10)
(-2.07013e-10 -5.04687e-09 5.44755e-09)
(-4.23176e-09 -1.4904e-08 1.42524e-08)
(-7.38812e-08 1.03447e-08 3.24261e-09)
(-7.59609e-08 -3.01645e-09 -2.61442e-09)
(-1.58135e-07 2.65382e-08 3.2543e-08)
(-4.13704e-07 -1.15849e-07 1.50472e-08)
(-4.61908e-08 -1.47184e-09 5.36293e-09)
(-1.56404e-08 -8.91216e-10 1.06703e-09)
(-8.80361e-09 -2.33568e-09 2.3617e-09)
(-1.63818e-09 -9.28711e-09 6.14614e-10)
(-1.87167e-09 -2.37644e-08 -2.47155e-09)
(-7.81492e-08 6.51239e-10 6.25614e-10)
(-7.37516e-08 -8.89836e-09 5.78147e-09)
(-5.56149e-08 1.36094e-09 8.29427e-09)
(-1.13084e-07 -9.94105e-09 1.32689e-08)
(-3.20437e-08 -8.70753e-09 2.5341e-10)
(-2.07924e-08 -4.37483e-09 -1.907e-09)
(-1.12746e-08 -3.63616e-09 -2.67209e-09)
(-4.97845e-09 -3.47636e-09 -3.15451e-09)
(-2.32527e-10 -6.92696e-09 -5.46871e-09)
(-6.80017e-08 -1.09922e-08 4.40812e-09)
(-6.0489e-08 -1.46349e-08 3.0974e-09)
(-7.51399e-08 -1.661e-08 1.97867e-09)
(-4.30117e-08 -3.92669e-10 4.90812e-09)
(-3.0474e-08 -6.88417e-09 2.63343e-10)
(-2.02592e-08 -6.39457e-09 -5.14338e-09)
)
;

boundaryField
{
    inlet
    {
        type            calculated;
        value           nonuniform 0();
    }
    outlet
    {
        type            calculated;
        value           uniform (0 0 0);
    }
    wall
    {
        type            calculated;
        value           uniform (0 0 0);
    }
    procBoundary5to1
    {
        type            processor;
        value           uniform (0 0 0);
    }
    procBoundary5to4
    {
        type            processor;
        value           uniform (0 0 0);
    }
    procBoundary5to7
    {
        type            processor;
        value           uniform (0 0 0);
    }
}


// ************************************************************************* //
