/*--------------------------------*- C++ -*----------------------------------*\
| =========                 |                                                 |
| \\      /  F ield         | OpenFOAM: The Open Source CFD Toolbox           |
|  \\    /   O peration     | Version:  4.x                                   |
|   \\  /    A nd           | Web:      www.OpenFOAM.org                      |
|    \\/     M anipulation  |                                                 |
\*---------------------------------------------------------------------------*/
FoamFile
{
    version     2.0;
    format      ascii;
    class       volScalarField;
    location    "22";
    object      Cs;
}
// * * * * * * * * * * * * * * * * * * * * * * * * * * * * * * * * * * * * * //

dimensions      [1 -3 0 0 0 0 0];

internalField   nonuniform List<scalar> 
87
(
334.989
334.989
334.988
334.987
334.984
334.98
334.972
334.964
339.929
334.995
334.992
334.988
334.983
334.976
334.968
334.949
334.935
334.369
334.994
334.99
334.984
334.974
334.959
334.935
334.902
334.874
334.826
334.994
334.99
334.984
334.978
334.968
334.958
334.939
334.929
334.21
334.982
334.97
334.955
334.941
334.92
334.909
334.888
334.885
334.747
334.971
334.951
334.924
334.9
334.878
334.873
334.881
334.891
334.934
334.991
334.985
334.978
334.97
334.956
334.942
334.921
334.905
334.361
334.963
334.928
334.886
334.852
334.83
334.829
334.846
334.859
334.904
334.961
334.947
334.935
334.923
334.921
334.924
334.951
334.957
335.054
334.995
334.993
334.989
334.986
334.98
334.981
)
;

boundaryField
{
    inlet
    {
        type            calculated;
        value           nonuniform 0();
    }
    outlet
    {
        type            calculated;
        value           uniform 335;
    }
    wall
    {
        type            calculated;
        value           nonuniform List<scalar> 
57
(
334.989
334.995
334.994
334.989
334.992
334.99
334.988
334.988
334.984
334.987
334.983
334.974
334.984
334.976
334.959
334.98
334.968
334.935
334.972
334.949
334.902
334.964
334.935
334.874
339.929
334.369
334.826
334.989
334.994
334.991
334.995
334.989
334.99
334.985
334.993
334.988
334.984
334.978
334.989
334.987
334.978
334.97
334.984
334.968
334.956
334.98
334.958
334.942
334.972
334.939
334.921
334.964
334.929
334.905
339.929
334.21
334.361
)
;
    }
    procBoundary1to0
    {
        type            processor;
        value           nonuniform List<scalar> 
12
(
334.989
334.997
334.997
334.996
334.991
334.985
334.995
334.984
334.976
334.997
334.992
334.989
)
;
    }
    procBoundary1to3
    {
        type            processor;
        value           nonuniform List<scalar> 
27
(
334.995
334.991
334.985
334.977
334.965
334.948
334.924
334.9
336.375
334.971
334.948
334.919
334.89
334.863
334.854
334.85
334.86
334.885
334.954
334.931
334.909
334.893
334.888
334.89
334.91
334.923
335.005
)
;
    }
    procBoundary1to5
    {
        type            processor;
        value           nonuniform List<scalar> 
32
(
334.985
334.979
334.969
334.957
334.938
334.453
334.974
334.96
334.952
334.937
334.941
334.929
334.994
334.97
334.961
334.951
334.948
334.949
334.961
334.972
335.093
334.996
334.993
334.985
334.974
334.989
334.985
334.974
334.97
334.978
334.97
334.981
)
;
    }
    procBoundary1to7
    {
        type            processor;
        value           uniform 334.976;
    }
}


// ************************************************************************* //
