/*--------------------------------*- C++ -*----------------------------------*\
| =========                 |                                                 |
| \\      /  F ield         | OpenFOAM: The Open Source CFD Toolbox           |
|  \\    /   O peration     | Version:  4.x                                   |
|   \\  /    A nd           | Web:      www.OpenFOAM.org                      |
|    \\/     M anipulation  |                                                 |
\*---------------------------------------------------------------------------*/
FoamFile
{
    version     2.0;
    format      ascii;
    class       volScalarField;
    location    "22";
    object      Ksl;
}
// * * * * * * * * * * * * * * * * * * * * * * * * * * * * * * * * * * * * * //

dimensions      [1 -3 -1 0 0 0 0];

internalField   nonuniform List<scalar> 
87
(
3657.13
2563.17
3577.02
2448.03
3601.64
2230.6
4028.21
1927.53
6481.55
4136.78
2708.42
3999.8
2572.57
4062.4
2336.04
4629.46
1995.41
5706.06
5011.78
3014.84
5295.83
3032.68
6390.7
3205.22
9966.6
3936.37
18728.8
5350.4
2968.54
5317.31
2836.5
5558.72
2560.59
6572.36
2121.81
6027.31
8271.49
3335
8324.98
3159.89
8841.09
2836.79
8762.37
2423.78
4934.59
18263.6
3723.85
38379.4
3663.25
215556
3603.04
117342
3759.27
12624
6878.4
3269.36
7687.72
3239.15
8858.49
3066.32
10331.6
2710.59
16033.4
16854.5
3734.3
21527.5
3657.24
22292.3
3548.25
12490.4
3524.47
5035.81
1e+10
4099.19
1e+10
4135.39
1e+10
4177.96
4.39742e+07
4573.86
14342.4
6223.45
3073.78
6426.62
15522.8
3620.45
38993.7
)
;

boundaryField
{
    inlet
    {
        type            zeroGradient;
    }
    outlet
    {
        type            zeroGradient;
    }
    wall
    {
        type            zeroGradient;
    }
    procBoundary1to0
    {
        type            processor;
        value           nonuniform List<scalar> 
12
(
2642.72
2852.02
3075.31
3094.01
3480.13
3722.6
3312.33
3779.06
4021.25
3207.62
3697.86
3889.4
)
;
    }
    procBoundary1to3
    {
        type            processor;
        value           nonuniform List<scalar> 
27
(
4593.5
2822.31
4422.25
2685.88
4535.43
2534.72
5253.11
2202.85
5918.34
16134.2
3709.03
23102.2
3617.14
29980.6
3472.23
18857.9
3334.45
4578.2
327838
3967.56
1e+10
3953.69
1e+10
3929.7
1e+10
4029.24
19506.4
)
;
    }
    procBoundary1to5
    {
        type            processor;
        value           nonuniform List<scalar> 
32
(
3001.34
7116.31
2837.87
8928.93
2566.12
15202.9
16843.6
3519.8
15796.1
3476.87
12514.4
3649.67
6874.22
3865.17
92618.2
3843.82
2.44477e+06
3896.81
281617
4130.9
13414.1
7629.63
3309.63
3001.34
16843.6
8663.21
59437.4
16843.6
3865.17
3895.77
3865.17
1e+10
)
;
    }
    procBoundary1to7
    {
        type            processor;
        value           uniform 147210;
    }
}


// ************************************************************************* //
