/*--------------------------------*- C++ -*----------------------------------*\
| =========                 |                                                 |
| \\      /  F ield         | OpenFOAM: The Open Source CFD Toolbox           |
|  \\    /   O peration     | Version:  4.x                                   |
|   \\  /    A nd           | Web:      www.OpenFOAM.org                      |
|    \\/     M anipulation  |                                                 |
\*---------------------------------------------------------------------------*/
FoamFile
{
    version     2.0;
    format      ascii;
    class       volScalarField;
    location    "22";
    object      Qsource;
}
// * * * * * * * * * * * * * * * * * * * * * * * * * * * * * * * * * * * * * //

dimensions      [1 -1 -3 0 0 0 0];

internalField   nonuniform List<scalar> 
87
(
6.03233e+09
9.33221e+09
5.97804e+09
8.92206e+09
6.12939e+09
7.41067e+09
6.82702e+09
9.19217e+09
5.01088e+09
5.39251e+09
5.55179e+09
6.79093e+09
6.9274e+09
5.27697e+09
7.83777e+09
8.35011e+09
7.95464e+09
4.55189e+09
4.63249e+09
8.00873e+09
6.96111e+09
9.84037e+09
6.73434e+09
6.47036e+09
5.63191e+09
6.16069e+09
3.92666e+09
8.12436e+09
7.60456e+09
6.8861e+09
8.67755e+09
7.08047e+09
9.08476e+09
9.78316e+09
1.06266e+10
6.32912e+09
9.16658e+09
6.75986e+09
7.80215e+09
9.50855e+09
9.34296e+09
7.82026e+09
9.60714e+09
1.0754e+10
5.11316e+09
9.15485e+09
8.49535e+09
7.21655e+09
6.79835e+09
5.71635e+09
9.13783e+09
9.09687e+09
1.28424e+10
4.13194e+09
7.54155e+09
7.78268e+09
8.58907e+09
1.03846e+10
6.50562e+09
1.06179e+10
7.97046e+09
8.49501e+09
3.61269e+09
6.4082e+09
8.75097e+09
6.31053e+09
7.88338e+09
8.03331e+09
8.92858e+09
7.62321e+09
9.15487e+09
3.98162e+09
8.05362e+09
7.66524e+09
5.33645e+09
1.07837e+10
8.52543e+09
1.02611e+10
7.13228e+09
9.20423e+09
3.22036e+09
7.19556e+09
6.56946e+09
8.63582e+09
8.03643e+09
1.22849e+10
5.92615e+09
)
;

boundaryField
{
    inlet
    {
        type            calculated;
        value           nonuniform 0();
    }
    outlet
    {
        type            calculated;
        value           uniform 0;
    }
    wall
    {
        type            calculated;
        value           uniform 0;
    }
    procBoundary1to0
    {
        type            processor;
        value           nonuniform List<scalar> 
12
(
4.19876e+09
6.31352e+09
9.4896e+09
8.22007e+09
9.013e+09
6.33701e+09
6.24071e+09
1.00866e+10
5.33238e+09
6.95103e+09
6.9485e+09
9.36927e+09
)
;
    }
    procBoundary1to3
    {
        type            processor;
        value           nonuniform List<scalar> 
27
(
9.31301e+09
4.89889e+09
7.55004e+09
4.33519e+09
5.77971e+09
4.92626e+09
6.25704e+09
6.22075e+09
3.84457e+09
8.58374e+09
7.96589e+09
1.02284e+10
1.04985e+10
8.4192e+09
7.8816e+09
6.8231e+09
8.50255e+09
8.03978e+09
8.05956e+09
1.07056e+10
8.92179e+09
1.00307e+10
6.3924e+09
7.61707e+09
8.85885e+09
8.30211e+09
6.75541e+09
)
;
    }
    procBoundary1to5
    {
        type            processor;
        value           nonuniform List<scalar> 
32
(
9.11471e+09
8.37459e+09
8.64985e+09
6.81254e+09
9.88942e+09
6.51363e+09
7.56228e+09
7.16627e+09
6.28037e+09
8.45049e+09
8.96797e+09
1.03489e+10
6.79347e+09
9.96251e+09
6.14476e+09
8.72208e+09
5.85357e+09
5.29372e+09
7.37772e+09
6.178e+09
6.57469e+09
7.03526e+09
6.45358e+09
9.11471e+09
7.56228e+09
7.87278e+09
8.04582e+09
7.56228e+09
9.96251e+09
8.175e+09
9.96251e+09
8.45896e+09
)
;
    }
    procBoundary1to7
    {
        type            processor;
        value           uniform 9.99126e+09;
    }
}


// ************************************************************************* //
