/*--------------------------------*- C++ -*----------------------------------*\
| =========                 |                                                 |
| \\      /  F ield         | OpenFOAM: The Open Source CFD Toolbox           |
|  \\    /   O peration     | Version:  4.x                                   |
|   \\  /    A nd           | Web:      www.OpenFOAM.org                      |
|    \\/     M anipulation  |                                                 |
\*---------------------------------------------------------------------------*/
FoamFile
{
    version     2.0;
    format      ascii;
    class       volVectorField;
    location    "9.5";
    object      GField;
}
// * * * * * * * * * * * * * * * * * * * * * * * * * * * * * * * * * * * * * //

dimensions      [1 -2 -1 0 0 0 0];

internalField   nonuniform List<vector> 
87
(
(87.1183 0.711513 2.45791)
(17.1435 0.266066 0.1407)
(86.7995 1.40372 3.08105)
(98.8876 3.4355 -0.838287)
(53.6001 1.29496 -0.2749)
(103.407 2.024 4.22173)
(88.6922 1.78854 -3.60755)
(30.5584 1.25777 -1.82545)
(83.6148 2.27438 -3.22227)
(17.1743 0.76163 -1.09694)
(80.2799 1.54407 -0.971891)
(8.39031 0.47016 -0.297271)
(79.5226 0.886449 0.985241)
(4.003 0.259325 -0.119152)
(79.4563 0.32629 0.253451)
(90.7937 4.74468 -3.16214)
(33.1174 1.76255 -2.02131)
(86.2455 4.48852 -3.07637)
(22.4563 1.19674 -1.50566)
(82.7793 2.92298 -1.14332)
(13.7888 0.608996 -0.538517)
(81.1155 2.13388 0.85357)
(8.18209 0.330564 -0.215656)
(80.6854 0.747572 0.906317)
(92.6751 3.82519 -3.42792)
(43.0705 2.24645 -2.65077)
(93.065 4.56245 -3.89884)
(44.6215 2.09556 -3.17148)
(92.6991 3.77678 -2.89349)
(44.5368 1.75903 -2.20684)
(93.4273 3.26303 -0.613898)
(46.2748 1.41689 -0.692541)
(95.305 1.71946 2.62779)
(89.0119 2.16945 1.83639)
(34.3316 1.10192 0.230186)
(85.3917 2.16741 1.7863)
(25.238 0.905661 0.461728)
(83.7413 1.34825 2.36806)
(19.3085 0.487486 0.641474)
(83.12 0.789225 2.78087)
(15.7131 0.419709 0.981831)
(83.2341 0.708567 1.23736)
(91.165 4.36928 1.49937)
(37.1271 1.88973 0.348748)
(88.1649 3.95517 1.93344)
(30.5019 1.18697 0.284784)
(86.12 2.87802 2.7714)
(24.8202 0.907219 0.691291)
(84.4818 2.04588 3.6495)
(19.8227 0.473058 0.812267)
(83.746 1.292 2.66768)
(92.4623 3.45764 0.321002)
(45.2668 2.16324 -0.446307)
(94.4986 4.0391 0.046918)
(48.7631 2.05181 -0.422478)
(95.7047 3.6727 0.6126)
(51.7368 2.0844 -0.132902)
(98.1581 3.34258 1.51981)
(55.0661 1.75635 0.923546)
(101.703 2.07592 3.00485)
(91.1431 2.51814 1.53668)
(42.3687 1.12466 0.417782)
(90.5361 2.08806 0.994034)
(40.6667 0.906316 0.0872886)
(89.9453 1.11952 0.843391)
(39.663 0.349818 0.237709)
(90.0019 -0.0301663 0.992327)
(38.7401 0.134941 0.479687)
(91.7019 -0.333859 0.786463)
(91.8517 3.28404 1.22542)
(44.5099 1.61999 0.457108)
(92.6636 3.16078 1.24195)
(46.3653 1.44662 0.215246)
(93.2125 2.32903 1.44014)
(48.5205 1.15289 0.625023)
(94.8135 2.00064 2.18606)
(51.3818 0.226892 0.615049)
(97.0703 1.00089 1.77114)
(92.9659 2.62062 0.382779)
(47.2813 1.54776 -0.230501)
(95.8284 2.73776 -0.103179)
(52.3722 1.59607 -0.407193)
(98.7182 2.19257 -0.310954)
(56.1692 1.0861 -0.65775)
(101.162 1.62447 0.111164)
(60.0726 0.624446 -0.694232)
(103.567 0.366178 0.323094)
)
;

boundaryField
{
    inlet
    {
        type            calculated;
        value           uniform (67 0 0);
    }
    outlet
    {
        type            calculated;
        value           nonuniform 0();
    }
    wall
    {
        type            calculated;
        value           uniform (0 0 0);
    }
    procBoundary6to0
    {
        type            processor;
        value           uniform (85.4688 0.130674 2.79604);
    }
    procBoundary6to2
    {
        type            processor;
        value           nonuniform List<vector> 
32
(
(86.4372 0.431736 4.17584)
(12.8446 0.521495 0.849933)
(85.9852 2.60693 5.64971)
(98.4847 3.8278 -0.687755)
(52.8095 1.96264 0.950224)
(102.758 3.26078 6.41561)
(91.078 1.70168 -7.28237)
(33.1147 1.09593 -3.71518)
(86.5146 2.06976 -6.37733)
(23.4088 0.785564 -2.35644)
(84.6577 1.0825 -2.49825)
(17.7722 0.549749 -0.544874)
(85.114 0.30888 1.43789)
(16.1754 0.431251 -0.124844)
(16.1754 0.431251 -0.124844)
(16.1754 0.431251 -0.124844)
(91.4785 3.95402 -6.63442)
(35.1274 1.86049 -3.79086)
(87.9319 3.93961 -6.0991)
(26.8278 1.1488 -2.70441)
(85.6799 3.00105 -2.95686)
(20.0732 0.668903 -0.798275)
(85.1862 2.16663 1.52184)
(85.1862 2.16663 1.52184)
(85.1862 2.16663 1.52184)
(92.8897 3.64746 -6.26225)
(43.8338 2.16877 -4.51147)
(94.4623 4.36454 -6.78916)
(46.5784 2.10656 -4.85044)
(96.2242 4.1191 -5.2422)
(49.4578 1.96487 -2.81666)
(49.4578 1.96487 -2.81666)
)
;
    }
    procBoundary6to4
    {
        type            processor;
        value           nonuniform List<vector> 
27
(
(90.895 -1.10651 -3.70649)
(31.7406 0.0082895 -1.92514)
(83.9042 -0.48293 -3.00427)
(18.4143 -0.175594 -1.22642)
(79.9447 -0.319086 -0.810772)
(8.86602 -0.0506482 -0.191833)
(77.6426 0.196696 0.981954)
(2.62057 -0.00942637 -0.0428226)
(76.8618 0.131923 1.14536)
(89.9037 -1.26205 0.827632)
(34.1877 -0.0617264 0.819035)
(85.2168 -0.574543 2.32917)
(24.3021 -0.105572 0.786369)
(82.0006 -0.493547 3.63684)
(17.7002 -0.280245 1.42517)
(80.3951 -0.419791 5.08053)
(12.6039 -0.22959 1.36227)
(78.9248 -0.477037 3.78069)
(89.8005 -0.409402 0.902268)
(40.3652 -0.116576 0.635062)
(89.145 -0.7604 1.47076)
(38.7158 -0.473926 0.688201)
(89.0707 -0.998445 1.9842)
(40.6537 -0.730362 1.25797)
(91.6414 -1.48799 3.45163)
(47.1457 -0.878808 1.74554)
(94.8632 -2.10062 3.41856)
)
;
    }
    procBoundary6to7
    {
        type            processor;
        value           nonuniform List<vector> 
12
(
(17.202 1.22276 -0.862271)
(18.9153 0.071611 -0.535769)
(59.0413 0.522227 2.65884)
(3.09629 0.349644 -0.293346)
(5.70501 0.244544 -0.435261)
(48.3202 0.912697 1.11182)
(11.9635 0.796516 0.36979)
(16.1271 0.364256 0.28102)
(59.0484 1.42204 2.44145)
(36.1663 0.370776 -0.478474)
(53.5073 0.406538 -0.269818)
(63.1101 0.187037 -0.877175)
)
;
    }
}


// ************************************************************************* //
