/*--------------------------------*- C++ -*----------------------------------*\
| =========                 |                                                 |
| \\      /  F ield         | OpenFOAM: The Open Source CFD Toolbox           |
|  \\    /   O peration     | Version:  4.x                                   |
|   \\  /    A nd           | Web:      www.OpenFOAM.org                      |
|    \\/     M anipulation  |                                                 |
\*---------------------------------------------------------------------------*/
FoamFile
{
    version     2.0;
    format      ascii;
    class       surfaceScalarField;
    location    "9.5";
    object      phi;
}
// * * * * * * * * * * * * * * * * * * * * * * * * * * * * * * * * * * * * * //

dimensions      [0 3 -1 0 0 0 0];

internalField   nonuniform List<scalar> 
192
(
1.25112e-07
1.60378e-07
6.28892e-06
9.24587e-08
-5.12251e-09
2.03189e-07
2.35936e-07
9.33201e-06
-8.64214e-08
9.52275e-06
-5.79534e-08
4.05451e-07
7.27653e-06
3.87141e-07
-1.04415e-07
6.93961e-06
1.78822e-07
-9.41841e-08
6.16152e-06
4.00443e-07
-8.46835e-08
5.91292e-06
1.15886e-07
-3.73159e-08
5.43249e-06
2.6426e-07
8.28578e-08
5.32273e-06
6.36889e-08
2.05811e-08
5.12831e-06
1.78554e-07
2.23177e-07
5.04169e-06
3.47748e-08
5.14899e-08
6.33935e-08
8.82689e-08
7.56024e-06
5.08035e-07
-9.81213e-08
7.2558e-06
2.37802e-07
-9.88017e-08
6.64345e-06
5.36495e-07
-6.74009e-08
6.38659e-06
1.95149e-07
-7.20936e-08
5.91382e-06
3.97148e-07
9.65893e-08
5.74835e-06
1.40335e-07
9.16478e-09
5.48044e-06
3.19954e-07
2.66791e-07
5.37098e-06
1.03503e-07
3.56142e-08
1.46266e-07
2.11703e-07
8.281e-06
-1.83703e-07
8.27774e-06
-1.83185e-07
8.40888e-06
-2.27869e-07
8.34124e-06
-2.12636e-07
8.39097e-06
-1.34861e-07
8.37169e-06
-1.38409e-07
8.55147e-06
5.37493e-08
8.58304e-06
1.39815e-08
3.33724e-07
7.52563e-06
3.87351e-07
2.00043e-07
7.27787e-06
1.77126e-07
3.85026e-08
6.76067e-06
3.62504e-07
1.64753e-07
6.61487e-06
1.23776e-07
3.24385e-08
6.30837e-06
2.50063e-07
1.90163e-07
6.20703e-06
8.24156e-08
5.19499e-08
6.06121e-06
1.67623e-07
2.23437e-07
5.98507e-06
5.26778e-08
8.64343e-08
1.18352e-07
1.1992e-07
7.82698e-06
4.63948e-07
1.61566e-07
7.61713e-06
2.40347e-07
4.78273e-08
7.25023e-06
4.73839e-07
1.88162e-07
7.08032e-06
1.92006e-07
2.9585e-08
6.78921e-06
3.88301e-07
2.49468e-07
6.62553e-06
1.77337e-07
7.79225e-08
6.39478e-06
3.19446e-07
3.45718e-07
6.26652e-06
1.32145e-07
8.44055e-08
1.99637e-07
2.63029e-07
8.40173e-06
4.17793e-08
8.49896e-06
-4.00713e-08
8.74825e-06
-3.31818e-09
8.77681e-06
-4.91885e-08
9.01248e-06
1.777e-08
9.09839e-06
-4.69782e-08
9.37506e-06
9.6522e-08
9.50787e-06
1.33177e-08
1.97036e-07
8.14498e-06
3.43653e-07
8.08092e-06
1.62556e-07
8.01377e-06
3.10838e-07
7.93277e-06
1.39272e-07
7.92601e-06
2.04193e-07
7.86641e-06
8.89868e-08
7.8831e-06
1.16705e-07
7.90437e-06
2.12684e-08
3.96361e-08
8.31847e-06
3.50009e-07
8.34104e-06
1.87816e-07
8.49045e-06
3.49593e-07
8.47894e-06
1.80363e-07
8.66465e-06
2.67955e-07
8.69891e-06
1.32651e-07
8.94652e-06
2.14809e-07
9.00174e-06
5.04566e-08
8.0927e-08
8.55505e-06
8.7028e-06
9.04907e-06
9.18025e-06
9.46597e-06
9.55165e-06
9.86298e-06
9.92675e-06
)
;

boundaryField
{
    inlet
    {
        type            calculated;
        value           uniform -8.16327e-06;
    }
    outlet
    {
        type            calculated;
        value           nonuniform 0();
    }
    wall
    {
        type            calculated;
        value           nonuniform List<scalar> 
57
(
0
0
0
0
0
0
0
0
0
0
0
0
0
0
0
0
0
0
0
0
0
0
0
0
0
1.97215e-31
0
0
0
3.9443e-31
0
0
0
0
0
-1.54074e-33
0
0
0
0
0
0
0
0
0
0
0
0
-1.2326e-32
1.97215e-31
0
0
0
0
0
0
0
)
;
    }
    procBoundary6to0
    {
        type            processor;
        value           uniform -4.98637e-08;
    }
    procBoundary6to2
    {
        type            processor;
        value           nonuniform List<scalar> 
32
(
-3.93188e-07
-5.91318e-08
-5.17451e-07
9.03308e-08
-4.03295e-08
-6.30311e-07
6.44917e-07
3.27983e-07
5.68837e-07
2.05023e-07
2.0608e-07
5.0571e-08
-1.43061e-07
-6.24912e-06
-4.1074e-08
1.53703e-08
5.80255e-07
3.44264e-07
5.43691e-07
2.49692e-07
2.43293e-07
7.96595e-08
-6.27605e-06
-3.32096e-07
-1.40284e-07
5.74002e-07
4.24245e-07
6.33225e-07
4.75431e-07
4.82274e-07
-9.00383e-06
2.98028e-07
)
;
    }
    procBoundary6to4
    {
        type            processor;
        value           nonuniform List<scalar> 
27
(
-4.09058e-08
-7.56984e-08
-1.06514e-07
-3.4987e-08
-7.27713e-08
-2.50802e-08
-6.42456e-08
-1.50193e-08
-2.71438e-08
-5.41755e-08
-6.20468e-08
-9.47401e-08
-4.7738e-08
-5.08604e-08
-1.24527e-08
-2.20538e-08
-1.14829e-08
-1.37729e-08
-1.25324e-07
-5.99942e-08
-7.89357e-08
-2.58334e-08
-7.26732e-09
2.25588e-08
9.00408e-08
4.38949e-08
1.44416e-07
)
;
    }
    procBoundary6to7
    {
        type            processor;
        value           nonuniform List<scalar> 
12
(
6.40668e-06
6.49236e-06
9.9508e-06
5.07755e-06
5.31234e-06
8.80103e-06
5.84884e-06
6.13391e-06
9.8442e-06
7.84024e-06
9.22348e-06
1.02047e-05
)
;
    }
}


// ************************************************************************* //
