/*--------------------------------*- C++ -*----------------------------------*\
| =========                 |                                                 |
| \\      /  F ield         | OpenFOAM: The Open Source CFD Toolbox           |
|  \\    /   O peration     | Version:  4.x                                   |
|   \\  /    A nd           | Web:      www.OpenFOAM.org                      |
|    \\/     M anipulation  |                                                 |
\*---------------------------------------------------------------------------*/
FoamFile
{
    version     2.0;
    format      ascii;
    class       volScalarField;
    location    "9.5";
    object      QPartFluidCoeff;
}
// * * * * * * * * * * * * * * * * * * * * * * * * * * * * * * * * * * * * * //

dimensions      [1 -1 -3 -1 0 0 0];

internalField   nonuniform List<scalar> 
87
(
-2.71112e+07
-2.20362e+07
-2.9482e+07
-1.86858e+07
-2.06983e+07
-1.85882e+07
-3.29561e+07
-2.97656e+07
-2.00608e+07
-2.6732e+07
-3.65232e+07
-2.06642e+07
-2.88072e+07
-2.23037e+07
-3.30761e+07
-2.08292e+07
-3.06858e+07
-2.68871e+07
-3.25705e+07
-3.02052e+07
-2.88542e+07
-2.86985e+07
-3.07249e+07
-3.09961e+07
-1.54227e+07
-2.53734e+07
-1.96336e+07
-2.05207e+07
-2.86344e+07
-3.1614e+07
-2.38193e+07
-2.18387e+07
-2.90841e+07
-2.51672e+07
-2.99497e+07
-3.2454e+07
-2.71991e+07
-2.21884e+07
-2.6237e+07
-2.60965e+07
-2.07517e+07
-3.1588e+07
-1.77698e+07
-2.93917e+07
-2.90439e+07
-2.76201e+07
-2.59285e+07
-2.14492e+07
-3.27565e+07
-2.15367e+07
-3.26452e+07
-1.5889e+07
-2.22871e+07
-2.03643e+07
-2.60165e+07
-2.70035e+07
-2.05277e+07
-2.466e+07
-2.19217e+07
-2.27867e+07
-1.53277e+07
-1.80831e+07
-2.378e+07
-2.32688e+07
-2.35517e+07
-2.15173e+07
-3.38406e+07
-2.89853e+07
-1.49112e+07
-1.72271e+07
-1.94453e+07
-2.50688e+07
-2.04525e+07
-3.16918e+07
-2.01441e+07
-2.56707e+07
-2.06095e+07
-2.79775e+07
-1.40039e+07
-2.04623e+07
-2.22278e+07
-2.0923e+07
-1.71797e+07
-2.78867e+07
-1.8325e+07
-1.82871e+07
-2.36093e+07
)
;

boundaryField
{
    inlet
    {
        type            calculated;
        value           uniform 0;
    }
    outlet
    {
        type            calculated;
        value           nonuniform 0();
    }
    wall
    {
        type            calculated;
        value           uniform 0;
    }
    procBoundary6to0
    {
        type            processor;
        value           uniform 200.152;
    }
    procBoundary6to2
    {
        type            processor;
        value           nonuniform List<scalar> 
32
(
432.826
636.645
771.088
721.991
408.428
740.515
367.044
716.037
769.859
540.662
582.621
506.266
567.803
596.892
596.892
596.892
440.96
596.526
785.675
492.557
674.772
565.194
765.112
765.112
765.112
319.226
477.871
560.775
546.877
501.753
489.161
489.161
)
;
    }
    procBoundary6to4
    {
        type            processor;
        value           nonuniform List<scalar> 
27
(
260.057
506.868
700.84
428.501
656.43
475.555
850.899
454.501
529.214
465.686
646.266
562.264
726.213
810.786
543.928
881.207
642.408
608.073
559.434
530.579
499.209
611.284
638.092
717.759
371.728
394.106
532.491
)
;
    }
    procBoundary6to7
    {
        type            processor;
        value           nonuniform List<scalar> 
12
(
604.123
465.285
421.235
294.645
486.576
441.868
659.198
616.049
449.167
551.038
484.217
476.566
)
;
    }
}


// ************************************************************************* //
