/*--------------------------------*- C++ -*----------------------------------*\
| =========                 |                                                 |
| \\      /  F ield         | OpenFOAM: The Open Source CFD Toolbox           |
|  \\    /   O peration     | Version:  4.x                                   |
|   \\  /    A nd           | Web:      www.OpenFOAM.org                      |
|    \\/     M anipulation  |                                                 |
\*---------------------------------------------------------------------------*/
FoamFile
{
    version     2.0;
    format      ascii;
    class       volScalarField;
    location    "33";
    object      Cs;
}
// * * * * * * * * * * * * * * * * * * * * * * * * * * * * * * * * * * * * * //

dimensions      [1 -3 0 0 0 0 0];

internalField   nonuniform List<scalar> 
114
(
335
334.999
334.998
334.997
334.994
334.952
334.998
334.997
334.994
334.989
334.983
334.975
334.899
334.997
334.995
334.991
334.985
334.977
334.97
334.96
334.864
335
335
335
334.999
334.999
334.998
334.996
334.995
334.824
334.999
334.999
334.997
334.995
334.992
334.989
334.984
334.983
334.962
334.999
334.998
334.996
334.992
334.988
334.983
334.978
334.975
334.987
334.999
334.997
335
335
335
335
335
334.999
334.999
334.998
334.737
335
335
334.999
334.998
334.997
334.996
334.993
334.992
334.966
335
334.999
334.998
334.997
334.994
334.991
334.988
334.987
334.993
334.999
334.998
334.997
334.995
335
335
335
335
335
334.999
334.999
334.999
336.139
335
335
335
335
334.999
334.999
334.998
334.998
334.912
335
335
335
334.999
334.999
334.998
334.997
334.996
334.882
335
335
335
334.999
334.998
334.998
)
;

boundaryField
{
    inlet
    {
        type            calculated;
        value           nonuniform 0();
    }
    outlet
    {
        type            calculated;
        value           uniform 335;
    }
    wall
    {
        type            calculated;
        value           nonuniform List<scalar> 
66
(
335
335
335
335
335
335
335
335
335
335
335
335
335
335
334.999
334.999
335
334.999
334.999
334.998
334.999
334.999
334.998
334.998
334.999
334.998
334.997
334.999
334.998
334.996
336.139
334.912
334.882
335
335
335
335
335
335
335
335
335
335
334.999
335
335
334.999
334.999
335
335
334.998
334.998
334.999
334.999
334.997
334.996
334.999
334.999
334.994
334.995
334.998
334.999
334.952
334.824
334.737
336.139
)
;
    }
    procBoundary5to1
    {
        type            processor;
        value           nonuniform List<scalar> 
32
(
334.999
334.999
334.998
334.996
334.994
334.758
334.996
334.993
334.989
334.984
334.975
334.973
334.719
334.993
334.987
334.981
334.973
334.966
334.956
334.954
334.852
335
335
335
335
335
335
334.999
334.999
334.999
334.999
334.999
)
;
    }
    procBoundary5to4
    {
        type            processor;
        value           nonuniform List<scalar> 
12
(
335
335
335
334.999
335
335
335
335
335
335
335
335
)
;
    }
    procBoundary5to7
    {
        type            processor;
        value           nonuniform List<scalar> 
44
(
334.997
334.994
334.989
334.982
334.972
334.963
334.951
334.904
334.999
334.997
334.994
334.99
334.985
334.979
334.973
334.968
335.008
334.997
334.994
334.995
334.994
334.99
334.991
334.987
334.982
334.981
335.003
334.999
334.999
334.997
334.991
334.995
334.991
334.987
334.995
334.994
334.884
335
335
335
334.999
334.998
334.995
334.997
)
;
    }
}


// ************************************************************************* //
