/*--------------------------------*- C++ -*----------------------------------*\
| =========                 |                                                 |
| \\      /  F ield         | OpenFOAM: The Open Source CFD Toolbox           |
|  \\    /   O peration     | Version:  4.x                                   |
|   \\  /    A nd           | Web:      www.OpenFOAM.org                      |
|    \\/     M anipulation  |                                                 |
\*---------------------------------------------------------------------------*/
FoamFile
{
    version     2.0;
    format      ascii;
    class       volVectorField;
    location    "33";
    object      DDtUrel;
}
// * * * * * * * * * * * * * * * * * * * * * * * * * * * * * * * * * * * * * //

dimensions      [0 1 -2 0 0 0 0];

internalField   nonuniform List<vector> 
114
(
(-0.000167669 -1.63541e-05 6.86295e-06)
(-0.000301374 -4.37253e-05 5.60645e-06)
(-0.000498948 -9.69456e-05 -1.20583e-05)
(-0.000862631 -0.00017501 -3.73434e-05)
(-0.00137735 -0.00030258 -9.83632e-05)
(-0.0020315 -0.000431901 -0.000186742)
(-6.60306e-05 6.7858e-06 1.64644e-05)
(-0.00015199 -1.33385e-05 7.97147e-06)
(-0.00027951 -3.28995e-05 7.95888e-06)
(-0.000486578 -8.56559e-05 -1.83162e-05)
(-0.000828648 -0.000147862 -3.77844e-05)
(-0.00129273 -0.000294616 -0.000117855)
(-0.00189927 -0.000444655 -0.000196916)
(-2.4227e-05 4.99421e-06 1.15948e-05)
(-7.22153e-05 -6.54648e-07 1.17146e-05)
(-0.000151736 -1.23183e-05 4.17718e-06)
(-0.000280478 -2.91954e-05 3.12403e-09)
(-0.000476574 -5.93758e-05 -3.16451e-05)
(-0.000795619 -9.7302e-05 -6.09772e-05)
(-0.00116603 -0.000192926 -0.000148235)
(-0.00169915 -0.000276578 -0.000223495)
(4.00281e-05 1.68775e-05 2.14009e-05)
(-1.01028e-05 9.20878e-06 2.18956e-05)
(-2.76266e-05 7.13841e-06 2.48811e-05)
(-0.000129586 -2.11645e-05 3.12813e-05)
(-0.000207313 -3.58087e-05 3.38746e-05)
(-0.000444042 -0.000108587 5.98626e-05)
(-0.000693854 -0.00016759 6.31181e-05)
(-0.00137397 -0.000389891 0.00021761)
(-0.00234518 -0.000562387 0.000329829)
(1.77925e-05 1.44241e-05 1.41644e-05)
(-1.97596e-05 7.92e-06 1.40772e-05)
(-5.21661e-05 2.7129e-06 1.69987e-05)
(-0.000135922 -1.59817e-05 2.13347e-05)
(-0.000244777 -3.29156e-05 2.90909e-05)
(-0.000448181 -9.9084e-05 4.91466e-05)
(-0.000760135 -0.000156751 6.77112e-05)
(-0.00125379 -0.000388734 0.000198682)
(-0.00194649 -0.000557335 0.0002931)
(3.73559e-06 6.43365e-06 9.76144e-06)
(-2.69273e-05 1.88583e-06 1.0294e-05)
(-6.34114e-05 -4.4609e-06 1.5616e-05)
(-0.000141029 -1.45606e-05 1.60098e-05)
(-0.000252612 -3.1812e-05 2.3894e-05)
(-0.000445029 -6.45238e-05 3.10083e-05)
(-0.000757207 -9.63288e-05 4.23672e-05)
(-0.00113842 -0.000228956 0.000120211)
(-0.00170934 -0.000351687 0.000197262)
(1.18027e-06 -5.79983e-07 6.6728e-06)
(-3.16957e-05 -2.03605e-06 6.56123e-06)
(5.03321e-05 1.35671e-05 9.11879e-06)
(1.2948e-05 9.6147e-06 1.50871e-05)
(-4.94714e-07 4.3762e-06 2.05701e-05)
(-8.99302e-05 -1.5656e-05 3.96692e-05)
(-0.000167131 -3.74196e-05 5.37164e-05)
(-0.000406163 -9.65678e-05 0.000108484)
(-0.000704404 -0.000175786 0.000150487)
(-0.00146643 -0.00034335 0.000361359)
(-0.00245987 -0.000493968 0.000571057)
(3.48015e-05 8.69294e-06 5.2808e-06)
(-1.48158e-06 2.99696e-06 1.11851e-05)
(-1.83127e-05 3.02919e-06 1.29006e-05)
(-0.000103689 -1.65789e-05 3.08845e-05)
(-0.000185565 -2.54536e-05 4.13754e-05)
(-0.000410495 -8.66407e-05 9.3636e-05)
(-0.000695518 -0.000137131 0.000136497)
(-0.00136373 -0.000332075 0.00035146)
(-0.002261 -0.000497428 0.00051555)
(1.16204e-05 2.94474e-06 8.69498e-07)
(-2.03875e-05 -8.35446e-07 7.27113e-06)
(-5.24361e-05 -3.29831e-06 1.40264e-05)
(-0.000122773 -1.6218e-05 2.51994e-05)
(-0.000226546 -3.01653e-05 4.02889e-05)
(-0.000414207 -6.82196e-05 8.28648e-05)
(-0.000715036 -0.000111464 0.000131285)
(-0.00122003 -0.000247725 0.000341975)
(-0.00189956 -0.000350497 0.000483247)
(5.4828e-06 -4.83774e-07 -2.68011e-06)
(-3.20543e-05 -5.71725e-06 2.66754e-06)
(-6.18032e-05 -1.12001e-05 8.0655e-06)
(-0.000135729 -1.66623e-05 2.08593e-05)
(0.000102603 9.15971e-06 8.64729e-06)
(6.53963e-05 4.62286e-06 1.86481e-05)
(8.07392e-05 -1.18712e-06 2.40013e-05)
(-1.92392e-05 -2.64483e-05 6.08221e-05)
(-1.86734e-05 -4.40506e-05 7.02616e-05)
(-0.000315271 -0.000121632 0.000168542)
(-0.000426362 -0.000185783 0.000191366)
(-0.00168633 -0.000471522 0.000546808)
(-0.00320663 -0.000731339 0.000948992)
(7.09011e-05 2.0549e-06 2.5825e-06)
(3.19e-05 -3.24394e-06 9.93392e-06)
(3.69309e-05 -1.19175e-06 1.31606e-05)
(-5.92057e-05 -2.381e-05 4.01281e-05)
(-9.83888e-05 -2.77585e-05 5.05243e-05)
(-0.000369309 -9.38464e-05 0.000121827)
(-0.00060675 -0.000128021 0.000165028)
(-0.00152469 -0.000360096 0.000413868)
(-0.00270626 -0.0006087 0.000678179)
(3.79179e-05 -3.99142e-06 -2.15566e-06)
(-2.4671e-06 -7.15301e-06 7.56888e-06)
(-7.85988e-06 -6.98542e-06 1.00865e-05)
(-9.0479e-05 -2.04026e-05 3.58573e-05)
(-0.000138307 -2.63735e-05 3.98197e-05)
(-0.000365165 -6.85104e-05 0.00011154)
(-0.000575264 -9.63286e-05 0.000141372)
(-0.00136871 -0.000241601 0.000411679)
(-0.00243081 -0.000386008 0.000651261)
(1.90655e-05 -8.0959e-06 -9.18025e-06)
(-2.7545e-05 -1.26717e-05 -1.61829e-06)
(-4.14912e-05 -1.55966e-05 2.23037e-07)
(-0.000122824 -2.52124e-05 2.20964e-05)
(-0.000174609 -2.81786e-05 3.45862e-05)
(-0.000375284 -6.22002e-05 8.70261e-05)
)
;

boundaryField
{
    inlet
    {
        type            calculated;
        value           nonuniform 0();
    }
    outlet
    {
        type            calculated;
        value           nonuniform List<vector> 
12
(
(-0.00163655 -0.000229413 -0.000315602)
(-0.00238674 -0.000853114 -0.000538284)
(-0.00192839 -0.000378126 -0.00050297)
(-0.00732127 -0.00174606 0.00164887)
(-0.00287861 -0.00224565 0.00159952)
(-0.00258911 -0.0011423 0.000833169)
(-0.00435347 -3.50799e-05 0.00100183)
(-0.00526458 -0.000969725 0.00115901)
(-0.00226249 -0.00063489 0.00141134)
(-0.011952 -0.00267575 0.00423913)
(-0.00720913 -0.0020614 0.00128598)
(-0.00728017 -0.000400014 0.00234027)
)
;
    }
    wall
    {
        type            calculated;
        value           nonuniform List<vector> 
66
(
(0.000508318 4.36205e-05 -1.45659e-05)
(0.000317803 1.0799e-05 -3.84284e-05)
(0.000194414 -1.35106e-05 -4.2177e-05)
(0.000209059 -1.80148e-05 -5.50202e-05)
(0.000158449 1.75025e-05 7.13716e-05)
(-5.95446e-06 -5.83608e-05 1.81031e-07)
(-8.95129e-05 -3.24318e-05 5.28929e-05)
(-0.000116225 -5.50746e-05 2.79005e-06)
(0.000837432 4.47398e-05 -3.41089e-05)
(0.000537044 8.34223e-05 -8.66835e-05)
(0.000344536 3.42806e-05 -5.63644e-05)
(0.000276539 -3.06632e-05 -9.78841e-05)
(-6.24187e-06 -9.24757e-05 0.000277742)
(-0.00013489 -0.000108738 7.19119e-05)
(-0.000101411 -3.21357e-05 0.000168115)
(-0.00015647 -0.0001048 6.50274e-05)
(0.00164259 8.00784e-05 -0.00010652)
(0.000797997 0.000211951 -0.000146971)
(0.000701635 0.000112026 -0.000198103)
(0.000615881 4.61998e-05 -4.01036e-05)
(-0.000471712 -0.000327278 0.000739733)
(-0.000530794 -0.000211205 0.000187941)
(-0.000225591 -5.72665e-05 0.000378417)
(-0.00014072 -0.000318397 0.000256047)
(0.00469956 0.000324928 -0.000680321)
(0.00122084 0.000621063 -0.000422427)
(0.00183849 0.000316991 -0.000631142)
(-0.0020123 -0.00128847 0.00137079)
(-0.00114564 -0.000414415 0.000154153)
(-0.000783149 -5.45607e-07 0.000957081)
(-0.011952 -0.00267575 0.00423913)
(-0.00720913 -0.0020614 0.00128598)
(-0.00728017 -0.000400014 0.00234027)
(0.000239821 4.78699e-05 8.32307e-05)
(7.25159e-05 5.09494e-05 -3.68753e-05)
(0.000508318 4.36205e-05 -1.45659e-05)
(-0.000108294 -3.00311e-05 8.46293e-05)
(-0.000110351 5.05615e-05 -3.03261e-06)
(0.000158449 1.75025e-05 7.13716e-05)
(0.00039023 0.000103817 8.40077e-05)
(0.000134921 6.48394e-05 -2.37257e-05)
(0.000837432 4.47398e-05 -3.41089e-05)
(-0.000352008 3.09605e-06 -1.48972e-06)
(-0.000193452 -0.000113072 0.000123199)
(-0.000182904 4.27449e-05 4.39346e-05)
(-6.24187e-06 -9.24757e-05 0.000277742)
(-0.000793505 -2.78427e-05 3.8526e-05)
(0.000587055 0.000172932 -1.55132e-06)
(8.2065e-05 6.22457e-05 -3.0502e-05)
(0.00164259 8.00784e-05 -0.00010652)
(-0.000214595 1.7356e-05 6.61051e-05)
(-0.000336917 -0.000254886 0.000237449)
(-0.00036438 5.17756e-05 0.000160354)
(-0.000471712 -0.000327278 0.000739733)
(-0.00119584 -0.000147419 2.6286e-06)
(0.00145236 0.000376051 -0.000400873)
(-0.000111506 -2.89291e-06 -0.00021204)
(0.00469956 0.000324928 -0.000680321)
(-0.000401493 5.12659e-05 1.82578e-05)
(-0.000505587 -0.000964539 0.00093997)
(-0.000640933 0.000102128 0.000267729)
(-0.0020123 -0.00128847 0.00137079)
(-0.00163655 -0.000229413 -0.000315602)
(-0.00732127 -0.00174606 0.00164887)
(-0.00435347 -3.50799e-05 0.00100183)
(-0.011952 -0.00267575 0.00423913)
)
;
    }
    procBoundary5to1
    {
        type            processor;
        value           nonuniform List<vector> 
32
(
(-0.000115345 -2.04836e-05 -2.23657e-05)
(-0.000188902 -4.04076e-05 -1.84069e-05)
(-0.000483685 -0.000107564 -9.53688e-05)
(-0.000796481 -0.000166312 -0.000112495)
(-0.00163598 -0.000336933 -0.000403866)
(-0.00267081 -0.000491613 -0.000744663)
(-9.0427e-06 7.16627e-06 1.27679e-05)
(-0.000121359 -2.00879e-05 -1.15907e-05)
(-0.000220324 -3.43379e-05 -1.58372e-05)
(-0.000487984 -0.000102004 -8.90772e-05)
(-0.0008158 -0.000144031 -0.000127424)
(-0.00152313 -0.000354152 -0.000372969)
(-0.00240254 -0.000537994 -0.000642757)
(-1.49176e-06 6.68448e-06 1.25605e-05)
(-4.57026e-05 1.54197e-06 1.05003e-05)
(-0.000142318 -1.58944e-05 -9.58388e-06)
(-0.000271076 -3.06931e-05 -2.15884e-05)
(-0.000500626 -7.39518e-05 -9.40106e-05)
(-0.000847966 -9.78817e-05 -0.000155718)
(-0.00135068 -0.000269975 -0.00038089)
(-0.00202607 -0.00040181 -0.000607588)
(3.19161e-05 2.3785e-05 2.08976e-05)
(-2.59261e-05 1.69648e-05 1.34374e-05)
(-7.71458e-05 1.04351e-05 1.41951e-05)
(-7.71458e-05 1.04351e-05 1.41951e-05)
(-7.71458e-05 1.04351e-05 1.41951e-05)
(2.18297e-05 1.90019e-05 1.80076e-05)
(-2.1107e-05 1.24561e-05 1.4195e-05)
(-2.1107e-05 1.24561e-05 1.4195e-05)
(-2.1107e-05 1.24561e-05 1.4195e-05)
(8.75906e-06 1.0075e-05 1.46961e-05)
(8.75906e-06 1.0075e-05 1.46961e-05)
)
;
    }
    procBoundary5to4
    {
        type            processor;
        value           nonuniform List<vector> 
12
(
(4.72593e-05 1.39929e-05 2.07888e-05)
(3.13156e-05 1.22518e-05 1.40135e-05)
(2.14985e-05 7.67813e-06 8.18691e-06)
(1.70763e-05 2.21674e-07 5.50845e-06)
(5.58679e-05 1.16346e-05 9.81575e-06)
(4.03079e-05 5.69448e-06 6.53793e-06)
(2.46648e-05 1.60075e-06 2.03986e-06)
(1.67389e-05 -3.07365e-06 -2.13052e-06)
(9.40031e-05 5.60074e-06 1.11007e-05)
(6.90984e-05 -2.62697e-06 4.09361e-06)
(4.15868e-05 -6.30951e-06 -2.00454e-07)
(2.65048e-05 -9.74619e-06 -6.06285e-06)
)
;
    }
    procBoundary5to7
    {
        type            processor;
        value           nonuniform List<vector> 
44
(
(-2.47105e-05 1.63999e-06 9.75198e-06)
(-7.03965e-05 1.29501e-06 9.80398e-06)
(-0.000151689 -3.27293e-06 2.80316e-07)
(-0.000275355 -8.2641e-06 -6.12965e-06)
(-0.000468444 -1.04404e-05 -4.28644e-05)
(-0.000782931 -1.95047e-05 -8.04927e-05)
(-0.00112708 1.09463e-05 -0.000184158)
(-0.00165087 3.66944e-05 -0.000275291)
(1.19795e-05 4.71051e-06 1.29967e-05)
(-2.47105e-05 1.63999e-06 9.75198e-06)
(-7.09511e-05 -4.69013e-06 1.11732e-05)
(-0.000146435 -9.03129e-06 9.70476e-06)
(-0.000262107 -1.52811e-05 1.48049e-05)
(-0.000441269 -2.40167e-05 1.07405e-05)
(-0.00074516 -3.19856e-05 1.28631e-05)
(-0.00108646 -6.42467e-05 6.37378e-05)
(-0.00160901 -9.40909e-05 0.000110004)
(8.70354e-07 -4.32244e-06 3.25545e-06)
(-7.09511e-05 -4.69013e-06 1.11732e-05)
(-3.45061e-05 -5.04904e-06 9.36245e-07)
(-7.09511e-05 -4.69013e-06 1.11732e-05)
(-0.000146435 -9.03129e-06 9.70476e-06)
(-0.000230747 -2.55569e-05 3.41587e-05)
(-0.000409129 -4.20018e-05 6.93841e-05)
(-0.000698058 -5.85349e-05 9.19215e-05)
(-0.0011431 -0.000114915 0.000287624)
(-0.00179753 -0.000182973 0.0004154)
(-6.45897e-06 -7.824e-06 -7.46208e-06)
(-4.18965e-05 -8.96698e-06 -4.16656e-06)
(-8.2078e-05 -1.2478e-05 2.00032e-08)
(-0.000230747 -2.55569e-05 3.41587e-05)
(-0.000152421 -1.1513e-05 5.72685e-06)
(-0.000230747 -2.55569e-05 3.41587e-05)
(-0.000409129 -4.20018e-05 6.93841e-05)
(-0.000574976 -6.0023e-05 0.000125632)
(-0.00126822 -0.000196681 0.000333538)
(-0.00222685 -0.000347109 0.000494182)
(-6.80885e-06 -9.91838e-06 -1.89905e-05)
(-5.37191e-05 -1.30104e-05 -1.04056e-05)
(-8.75132e-05 -1.65055e-05 -6.61883e-06)
(-0.000162338 -1.96285e-05 5.39471e-06)
(-0.000255075 -2.38423e-05 1.15994e-05)
(-0.000574976 -6.0023e-05 0.000125632)
(-0.000429064 -3.06064e-05 3.94046e-05)
)
;
    }
}


// ************************************************************************* //
