/*--------------------------------*- C++ -*----------------------------------*\
| =========                 |                                                 |
| \\      /  F ield         | OpenFOAM: The Open Source CFD Toolbox           |
|  \\    /   O peration     | Version:  4.x                                   |
|   \\  /    A nd           | Web:      www.OpenFOAM.org                      |
|    \\/     M anipulation  |                                                 |
\*---------------------------------------------------------------------------*/
FoamFile
{
    version     2.0;
    format      ascii;
    class       volScalarField;
    location    "33";
    object      KslNext;
}
// * * * * * * * * * * * * * * * * * * * * * * * * * * * * * * * * * * * * * //

dimensions      [1 -3 -1 0 0 0 0];

internalField   nonuniform List<scalar> 
114
(
3439.58
16339.2
3811.42
49954.5
4941.68
31989.2
170785
3723.97
1.77555e+08
3831.74
552997
4323.06
22220.7
4053.07
1e+10
4075.4
1e+10
4139.93
84394.5
4414.92
11238.1
7305.62
3070.95
7550.09
2930.98
8076.96
2752.11
9315.8
2391.36
7617.43
39814.7
3555.91
112905
3502.67
106674
3483.79
22008.3
3579.28
5741.45
1.39349e+09
3689.58
1e+10
3622.27
9.41805e+09
3541.16
68280.8
3684.94
15051.7
1e+10
3800.43
7459
3182.34
7842.1
3103.22
8587.65
3055.54
10865.4
3076.81
17885.1
14749.5
3457.45
16939.8
3328.39
19296
3206.38
18363.5
2950.34
10983.5
64958.1
3652.39
1e+10
3681.99
1e+10
3840.6
32425
4133.96
7408.12
46388.6
3592.53
54373.9
3489.82
4881.91
2735.96
4654.54
2545.99
4602.82
2274.17
4841.48
1800.38
5540.47
6159.93
2981.45
6073.03
2807.52
6281.39
2607.25
7324.93
2344.4
10179.2
7736.07
3147.63
8048.72
3006.91
8136.14
2796.47
8270.96
2361.32
8329.76
7671.93
3119.17
8057.47
3002.53
8612.56
2782.98
)
;

boundaryField
{
    inlet
    {
        type            zeroGradient;
    }
    outlet
    {
        type            zeroGradient;
    }
    wall
    {
        type            zeroGradient;
    }
    procBoundary5to1
    {
        type            processor;
        value           uniform 0;
    }
    procBoundary5to4
    {
        type            processor;
        value           uniform 0;
    }
    procBoundary5to7
    {
        type            processor;
        value           uniform 0;
    }
}


// ************************************************************************* //
