/*--------------------------------*- C++ -*----------------------------------*\
| =========                 |                                                 |
| \\      /  F ield         | OpenFOAM: The Open Source CFD Toolbox           |
|  \\    /   O peration     | Version:  4.x                                   |
|   \\  /    A nd           | Web:      www.OpenFOAM.org                      |
|    \\/     M anipulation  |                                                 |
\*---------------------------------------------------------------------------*/
FoamFile
{
    version     2.0;
    format      ascii;
    class       volScalarField;
    location    "33";
    object      pSmooth;
}
// * * * * * * * * * * * * * * * * * * * * * * * * * * * * * * * * * * * * * //

dimensions      [1 -1 -2 0 0 0 0];

internalField   nonuniform List<scalar> 
114
(
69.1583
0.1
63.05
0.1
56.2867
0.1
1.76244
68.7374
0.1
62.7086
0.1
56.603
0.1
75.0789
4.60657
68.4961
0.1
61.7814
0.1
54.0878
0.1
19.537
74.8985
0.36414
68.6992
0.1
63.4796
0.1
60.2403
0.1
19.7633
75.0074
0.863335
68.3593
0.1
62.3077
0.1
57.5409
0.1
21.0109
74.8103
2.73512
68.4066
0.1
62.4965
0.1
57.5771
0.1
22.1078
74.8172
20.4203
75.1024
1.54301
68.7343
0.1
62.8795
0.1
57.8764
0.1
20.2765
75.077
1.14125
68.5332
0.1
62.4899
0.1
57.5103
0.1
21.0637
75.1768
2.61401
68.3239
0.1
61.3445
0.1
54.5128
0.1
20.864
74.8849
1.98467
68.0043
20.1105
74.8005
0.917518
68.676
0.1
63.665
0.1
61.8732
0.1
20.1368
74.8518
0.942862
68.6299
0.1
63.247
0.1
60.0676
0.1
20.8053
75.0072
1.91045
68.4927
0.1
62.6074
0.1
58.4632
0.1
20.7109
74.9185
1.75141
68.4863
0.1
62.6135
)
;

boundaryField
{
    inlet
    {
        type            zeroGradient;
    }
    outlet
    {
        type            fixedValue;
        value           uniform 0;
    }
    wall
    {
        type            zeroGradient;
    }
    procBoundary5to1
    {
        type            processor;
        value           nonuniform List<scalar> 
32
(
68.8742
0.1
64.0688
0.1
61.7859
0.1
0.1
68.6632
0.1
63.4409
0.1
60.2842
0.1
74.7713
0.684201
68.4842
0.1
63.1
0.1
59.1517
0.1
20.4787
75.3791
2.02861
2.02861
2.02861
20.4662
75.3089
75.3089
75.3089
22.3195
22.3195
)
;
    }
    procBoundary5to4
    {
        type            processor;
        value           nonuniform List<scalar> 
12
(
81.5775
81.8967
81.8279
81.7601
81.8067
81.9347
82.1362
81.9086
81.3796
81.5719
81.7643
81.6959
)
;
    }
    procBoundary5to7
    {
        type            processor;
        value           nonuniform List<scalar> 
44
(
74.9755
4.4361
68.4477
0.1
62.5812
0.1
56.4228
0.1
22.5974
74.9755
4.15325
68.3039
0.1
62.438
0.1
55.8378
0.1
21.9641
4.15325
74.9135
4.15325
68.3039
0.1
61.7629
0.1
56.523
0.1
21.4619
74.9302
3.17485
0.1
68.2421
0.1
61.7629
0.1
58.4362
0.1
21.3525
75.2136
2.86513
68.6882
0.1
0.1
62.3849
)
;
    }
}


// ************************************************************************* //
