/*--------------------------------*- C++ -*----------------------------------*\
| =========                 |                                                 |
| \\      /  F ield         | OpenFOAM: The Open Source CFD Toolbox           |
|  \\    /   O peration     | Version:  4.x                                   |
|   \\  /    A nd           | Web:      www.OpenFOAM.org                      |
|    \\/     M anipulation  |                                                 |
\*---------------------------------------------------------------------------*/
FoamFile
{
    version     2.0;
    format      ascii;
    class       volScalarField;
    location    "33";
    object      QWallFluid;
}
// * * * * * * * * * * * * * * * * * * * * * * * * * * * * * * * * * * * * * //

dimensions      [1 -1 -3 0 0 0 0];

internalField   nonuniform List<scalar> 
114
(
8.20056e+08
2.3135e+08
7.41202e+08
9.26089e+07
5.84575e+08
1.27409e+08
0
0
0
0
0
0
0
0
0
0
0
0
0
0
0
4.45641e+08
8.94101e+08
4.30916e+08
9.2057e+08
4.03152e+08
9.56637e+08
3.52943e+08
1.04334e+09
3.9992e+08
0
0
0
0
0
0
0
0
0
0
0
0
0
0
0
0
0
0
0
0
4.36116e+08
8.62949e+08
4.1586e+08
8.72245e+08
3.82686e+08
8.74695e+08
3.11862e+08
8.54516e+08
2.01735e+08
0
0
0
0
0
0
0
0
0
0
0
0
0
0
0
0
0
0
0
0
0
0
1.21644e+09
1.92696e+09
1.25333e+09
2.0254e+09
1.25316e+09
2.21536e+09
1.19216e+09
2.64669e+09
1.03467e+09
5.0547e+08
9.08299e+08
5.09506e+08
9.43091e+08
4.895e+08
9.90793e+08
4.30351e+08
1.06767e+09
3.17859e+08
4.17237e+08
8.61461e+08
4.01232e+08
8.84329e+08
3.95257e+08
9.29947e+08
3.86228e+08
1.0495e+09
3.71318e+08
4.17811e+08
8.64228e+08
3.99137e+08
8.8379e+08
3.74838e+08
9.25534e+08
)
;

boundaryField
{
    inlet
    {
        type            calculated;
        value           nonuniform 0();
    }
    outlet
    {
        type            calculated;
        value           uniform 0;
    }
    wall
    {
        type            calculated;
        value           uniform 0;
    }
    procBoundary5to1
    {
        type            processor;
        value           nonuniform List<scalar> 
32
(
9.5979e+08
4.46822e+08
9.98908e+08
4.03139e+08
1.05996e+09
3.86763e+08
0
0
0
0
0
0
0
0
0
0
0
0
0
0
0
4.21151e+08
8.58903e+08
3.51792e+08
3.51792e+08
3.51792e+08
0
0
0
0
0
0
)
;
    }
    procBoundary5to4
    {
        type            processor;
        value           nonuniform List<scalar> 
12
(
8.7018e+08
0
0
0
8.55929e+08
0
0
0
1.85282e+09
8.83724e+08
8.46733e+08
8.49261e+08
)
;
    }
    procBoundary5to7
    {
        type            processor;
        value           nonuniform List<scalar> 
44
(
0
0
0
0
0
0
0
0
0
0
0
0
0
0
0
0
0
0
0
0
0
0
0
0
0
0
0
0
0
0
0
0
0
0
3.77556e+08
1.04155e+09
3.7831e+08
3.34639e+08
8.20002e+08
2.73289e+08
8.13774e+08
2.12977e+08
3.77556e+08
8.10427e+08
)
;
    }
}


// ************************************************************************* //
