/*--------------------------------*- C++ -*----------------------------------*\
| =========                 |                                                 |
| \\      /  F ield         | OpenFOAM: The Open Source CFD Toolbox           |
|  \\    /   O peration     | Version:  4.x                                   |
|   \\  /    A nd           | Web:      www.OpenFOAM.org                      |
|    \\/     M anipulation  |                                                 |
\*---------------------------------------------------------------------------*/
FoamFile
{
    version     2.0;
    format      ascii;
    class       volScalarField;
    location    "21.5";
    object      p_rgh;
}
// * * * * * * * * * * * * * * * * * * * * * * * * * * * * * * * * * * * * * //

dimensions      [1 -1 -2 0 0 0 0];

internalField   nonuniform List<scalar> 
132
(
106.468
89.5553
97.7835
77.2876
94.993
58.0706
86.4415
39.6239
78.9598
107.062
90.5727
100.086
75.2172
94.2821
57.6577
86.3352
39.3725
78.8442
107.644
91.3213
100.885
74.8657
94.0464
57.5148
86.5341
39.6592
79.223
108.043
91.6093
101.179
107.424
90.8238
100.324
75.3762
94.4768
57.7552
86.5548
39.489
79.1277
108.056
91.3483
101.107
75.1461
94.5118
57.6235
86.7487
39.3666
79.2625
108.594
91.7849
101.579
75.0784
94.552
57.6182
87.0469
39.5401
79.8877
109.049
92.0232
101.924
75.1586
94.6303
108.663
91.8828
101.649
75.3433
94.6407
58.0504
87.0217
40.0846
79.5367
109.268
92.2243
102.175
75.4914
95.0016
58.0475
87.3579
40.068
79.7684
109.825
92.597
102.7
75.7319
95.2859
58.2242
87.5479
40.5173
80.0038
110.237
92.8918
102.991
75.8086
95.3778
58.2114
87.5504
109.185
92.385
101.947
75.4691
94.5487
58.0471
86.892
40.2111
79.4901
109.891
92.7668
102.534
75.6658
94.9898
58.2172
87.2914
40.22
79.7106
110.218
93.0258
102.817
75.902
95.1604
58.4223
87.3678
40.7587
79.9216
110.689
93.3721
103.264
76.0986
95.419
58.6983
87.5394
41.0495
80.028
)
;

boundaryField
{
    inlet
    {
        type            fixedFluxPressure;
        gradient        nonuniform List<scalar> 
16
(
-0.271247
-0.0227515
-0.00667491
-0.0103401
-0.011964
-0.00939268
-0.00548116
-0.00563437
-0.00129468
-0.00216732
-0.00203232
-0.00221677
-9.63416e-07
-9.87623e-07
4.68592e-07
-7.29911e-07
)
;
        value           nonuniform List<scalar> 
16
(
106.465
107.062
107.644
108.043
107.424
108.055
108.594
109.048
108.662
109.268
109.825
110.237
109.185
109.891
110.218
110.689
)
;
    }
    outlet
    {
        type            fixedValue;
        value           nonuniform 0();
    }
    wall
    {
        type            fixedFluxPressure;
        gradient        nonuniform List<scalar> 
66
(
-3.46848e-08
-8.07137e-07
5.85383e-07
-1.43655e-06
6.28324e-07
-4.21625e-06
-9.42513e-06
-1.15548e-05
4.58883e-06
-7.93201e-06
-7.65962e-06
-7.62338e-06
-2.73962e-05
-2.67395e-05
-2.9807e-05
-1.89861e-05
-2.32676e-05
-2.0638e-05
-2.79566e-05
-4.48148e-05
-5.68147e-05
-2.60495e-05
-3.7192e-05
-4.00265e-05
-2.30427e-05
-5.20266e-05
-6.05403e-05
-7.67085e-06
-3.68405e-05
-3.55905e-05
3.38763e-06
2.05373e-06
1.65863e-06
-2.93716e-10
1.11104e-05
9.53979e-06
7.39066e-06
5.55783e-06
2.60392e-05
4.69042e-06
4.69529e-06
4.78745e-06
-1.60405e-05
-6.14148e-06
1.19126e-05
6.70258e-06
-1.0383e-05
-2.45865e-06
2.71208e-06
3.74268e-06
-1.02037e-05
4.07316e-06
3.24341e-06
6.88072e-06
-1.12855e-05
-5.34045e-06
-2.29351e-06
-1.16739e-06
-2.09914e-05
-2.59122e-05
-1.73382e-05
-1.08277e-05
-3.32668e-05
3.20693e-06
-8.42328e-06
-6.87455e-06
)
;
        value           nonuniform List<scalar> 
66
(
106.468
107.062
107.644
108.043
89.5553
90.5727
91.3213
91.6093
97.7835
100.086
100.885
101.179
77.2876
75.2172
74.8657
94.993
94.2821
94.0464
58.0706
57.6577
57.5148
86.4415
86.3352
86.5341
39.6239
39.3725
39.6592
78.9598
78.8442
79.223
106.468
107.424
108.663
109.185
89.5553
90.8238
91.8828
92.385
97.7835
100.324
101.649
101.947
77.2876
75.3762
75.3433
75.4691
94.993
94.4768
94.6407
94.5487
58.0706
57.7552
58.0504
58.0471
86.4415
86.5548
87.0217
86.892
39.6239
39.489
40.0846
40.2111
78.9598
79.1277
79.5367
79.4901
)
;
    }
    procBoundary0to1
    {
        type            processor;
        value           nonuniform List<scalar> 
12
(
21.4895
21.237
21.6692
21.2509
21.1103
21.7506
22.2545
22.2191
23.2871
22.1047
22.1985
23.2289
)
;
    }
    procBoundary0to2
    {
        type            processor;
        value           nonuniform List<scalar> 
44
(
74.8673
93.8984
57.3388
86.3962
39.3049
79.0279
108.398
91.7291
74.8673
101.199
74.8673
93.8984
57.5002
86.9794
39.3787
79.6735
109.087
92.1739
101.857
75.0709
57.5002
94.3938
57.5002
86.9794
40.4411
79.9615
110.11
92.8006
102.819
75.7901
95.2007
58.4015
40.4411
87.4915
40.4411
79.9615
110.53
93.1234
102.896
75.7695
95.0639
58.1778
87.2998
40.3646
)
;
    }
    procBoundary0to4
    {
        type            processor;
        value           nonuniform List<scalar> 
36
(
109.923
92.9187
102.559
75.871
94.9746
58.5071
87.3469
40.8065
79.8017
110.625
93.2721
103.205
76.1454
95.4844
58.6297
87.7412
40.9841
80.1197
111.053
93.5428
103.515
76.3844
95.6535
58.9384
87.8493
41.4532
79.9856
111.317
93.8906
103.809
76.7401
95.9484
59.3327
87.9827
41.7567
80.0805
)
;
    }
    procBoundary0to6
    {
        type            processor;
        value           uniform 79.7661;
    }
    procBoundary0to7
    {
        type            processor;
        value           uniform 24.0005;
    }
}


// ************************************************************************* //
