/*--------------------------------*- C++ -*----------------------------------*\
| =========                 |                                                 |
| \\      /  F ield         | OpenFOAM: The Open Source CFD Toolbox           |
|  \\    /   O peration     | Version:  4.x                                   |
|   \\  /    A nd           | Web:      www.OpenFOAM.org                      |
|    \\/     M anipulation  |                                                 |
\*---------------------------------------------------------------------------*/
FoamFile
{
    version     2.0;
    format      ascii;
    class       volScalarField;
    location    "21.5";
    object      QWallFluidCoeff;
}
// * * * * * * * * * * * * * * * * * * * * * * * * * * * * * * * * * * * * * //

dimensions      [1 -1 -3 -1 0 0 0];

internalField   nonuniform List<scalar> 
132
(
-5.56993e+06
-3.34861e+06
-6.05799e+06
-4.18294e+06
-6.49233e+06
-4.78385e+06
-6.85063e+06
-5.24932e+06
-7.2339e+06
-2.79394e+06
-1.60464e+06
-2.96705e+06
-1.92742e+06
-3.14339e+06
-2.18044e+06
-3.29059e+06
-2.38997e+06
-3.43495e+06
0
-1.55678e+06
-2.92647e+06
-1.81274e+06
-3.04707e+06
-2.00599e+06
-3.15894e+06
-2.13539e+06
-3.20975e+06
-2.79867e+06
-1.56014e+06
-2.9327e+06
-2.76077e+06
-1.51875e+06
-2.85735e+06
-1.70226e+06
-2.95664e+06
-1.8514e+06
-3.05682e+06
-1.96173e+06
-3.15226e+06
0
0
0
0
0
0
0
0
0
0
0
0
0
0
0
0
0
0
0
0
0
0
0
-2.72258e+06
-1.44088e+06
-2.76624e+06
-1.52817e+06
-2.81807e+06
-1.59765e+06
-2.86469e+06
-1.62337e+06
-2.91133e+06
0
0
0
0
0
0
0
0
0
0
0
0
0
0
0
0
0
0
0
0
0
0
0
0
0
-2.71004e+06
-1.47375e+06
-2.76725e+06
-1.57924e+06
-2.82289e+06
-1.64406e+06
-2.87994e+06
-1.70129e+06
-2.94077e+06
0
0
0
0
0
0
0
0
0
0
0
0
0
0
0
0
0
0
0
0
0
0
0
0
0
0
0
)
;

boundaryField
{
    inlet
    {
        type            calculated;
        value           uniform 0;
    }
    outlet
    {
        type            calculated;
        value           nonuniform 0();
    }
    wall
    {
        type            calculated;
        value           uniform 0;
    }
    procBoundary0to1
    {
        type            processor;
        value           uniform 0;
    }
    procBoundary0to2
    {
        type            processor;
        value           uniform 0;
    }
    procBoundary0to4
    {
        type            processor;
        value           uniform 0;
    }
    procBoundary0to6
    {
        type            processor;
        value           uniform 0;
    }
    procBoundary0to7
    {
        type            processor;
        value           uniform 0;
    }
}


// ************************************************************************* //
