/*--------------------------------*- C++ -*----------------------------------*\
| =========                 |                                                 |
| \\      /  F ield         | OpenFOAM: The Open Source CFD Toolbox           |
|  \\    /   O peration     | Version:  4.x                                   |
|   \\  /    A nd           | Web:      www.OpenFOAM.org                      |
|    \\/     M anipulation  |                                                 |
\*---------------------------------------------------------------------------*/
FoamFile
{
    version     2.0;
    format      ascii;
    class       volVectorField;
    location    "14";
    object      ddtUrel;
}
// * * * * * * * * * * * * * * * * * * * * * * * * * * * * * * * * * * * * * //

dimensions      [0 1 -2 0 0 0 0];

internalField   nonuniform List<vector> 
132
(
(-4.88686e-06 -4.00316e-06 -3.35426e-06)
(-5.76204e-06 -5.04166e-06 -4.3307e-06)
(-6.30967e-06 -5.61192e-06 -4.96985e-06)
(-7.51878e-06 -5.39826e-06 -2.89542e-06)
(-7.5481e-06 -4.06257e-06 5.18821e-07)
(-1.20482e-05 -2.13569e-06 3.29745e-06)
(-2.60376e-05 -1.12443e-06 3.11681e-06)
(-4.75842e-05 -6.61497e-06 8.80017e-07)
(-6.9978e-05 -4.3828e-06 1.03906e-06)
(-4.85277e-06 -4.23504e-06 -3.35403e-06)
(-5.83297e-06 -5.80731e-06 -4.78855e-06)
(-7.66853e-06 -8.36049e-06 -6.74499e-06)
(-8.51337e-06 -6.60277e-06 -3.19929e-06)
(-9.09192e-06 -5.5006e-06 2.37003e-07)
(-1.33295e-05 -4.88819e-06 2.76463e-06)
(-2.54341e-05 -5.71321e-06 3.01515e-06)
(-4.82514e-05 -7.92504e-06 1.76674e-07)
(-7.2845e-05 -3.58309e-06 -8.83153e-07)
(-4.26049e-06 -4.05967e-06 -2.5906e-06)
(-5.33611e-06 -5.11502e-06 -3.32362e-06)
(-7.08703e-06 -6.52592e-06 -3.81252e-06)
(-8.88031e-06 -6.69357e-06 -2.07507e-06)
(-1.02169e-05 -7.08747e-06 2.45659e-07)
(-1.4403e-05 -8.50069e-06 2.78815e-06)
(-2.44934e-05 -9.87849e-06 3.45196e-06)
(-4.55469e-05 -1.00724e-05 1.39325e-06)
(-6.36124e-05 -6.22152e-06 -7.41941e-08)
(-4.45222e-06 -3.56239e-06 -2.42865e-06)
(-5.249e-06 -4.557e-06 -2.72961e-06)
(-6.76925e-06 -5.87219e-06 -2.71356e-06)
(-4.88399e-06 -3.81422e-06 -3.49699e-06)
(-5.51744e-06 -5.09443e-06 -4.65865e-06)
(-6.9468e-06 -7.67609e-06 -6.52056e-06)
(-8.2765e-06 -6.01145e-06 -3.49149e-06)
(-9.22834e-06 -4.43515e-06 -5.27483e-07)
(-1.35468e-05 -2.88158e-06 1.01361e-06)
(-2.76557e-05 -3.83297e-06 2.15547e-07)
(-4.87278e-05 -7.59e-06 -6.47018e-07)
(-6.90453e-05 -7.18757e-06 -1.47995e-06)
(-5.07646e-06 -4.11455e-06 -3.51354e-06)
(-6.54398e-06 -6.77667e-06 -6.27245e-06)
(-1.01248e-05 -1.83839e-05 -1.76607e-05)
(-9.342e-06 -8.42636e-06 -5.08605e-06)
(-1.02775e-05 -6.14551e-06 -1.06001e-06)
(-1.47264e-05 -5.40874e-06 1.46977e-07)
(-3.00037e-05 -6.79291e-06 -8.03302e-07)
(-5.23186e-05 -7.92216e-06 -2.50809e-06)
(-7.27481e-05 -4.5505e-06 -2.13953e-06)
(-5.01895e-06 -3.63486e-06 -2.80729e-06)
(-6.23959e-06 -5.01272e-06 -3.74953e-06)
(-8.34003e-06 -7.89105e-06 -5.5539e-06)
(-9.74596e-06 -7.07301e-06 -2.86315e-06)
(-1.14203e-05 -7.59266e-06 -9.15976e-07)
(-1.55868e-05 -9.17064e-06 3.7959e-07)
(-2.91869e-05 -1.07505e-05 6.31869e-07)
(-5.04302e-05 -9.77215e-06 -1.56305e-06)
(-6.78047e-05 -6.36638e-06 -1.2917e-06)
(-4.99131e-06 -3.1286e-06 -2.63338e-06)
(-6.05632e-06 -4.1778e-06 -2.84909e-06)
(-8.17903e-06 -5.68308e-06 -2.85396e-06)
(-1.07898e-05 -6.48204e-06 -1.86095e-06)
(-1.40027e-05 -7.84034e-06 -9.71447e-07)
(-4.95742e-06 -2.94617e-06 -3.18969e-06)
(-5.69317e-06 -3.77358e-06 -3.62003e-06)
(-7.25071e-06 -4.97332e-06 -4.04046e-06)
(-9.12298e-06 -4.82382e-06 -3.01209e-06)
(-1.05259e-05 -3.84482e-06 -2.05116e-06)
(-1.33319e-05 -2.43362e-06 -2.4615e-06)
(-2.62406e-05 -5.90461e-06 -5.08484e-06)
(-4.68891e-05 -8.7718e-06 -5.05526e-06)
(-6.76985e-05 -8.83569e-06 -5.03125e-06)
(-5.45217e-06 -3.11487e-06 -3.17235e-06)
(-6.57545e-06 -4.30051e-06 -3.75992e-06)
(-8.87075e-06 -6.89325e-06 -5.61409e-06)
(-1.03964e-05 -6.16227e-06 -3.48588e-06)
(-1.14493e-05 -5.88545e-06 -2.74643e-06)
(-1.48732e-05 -5.5483e-06 -3.047e-06)
(-2.86701e-05 -6.80262e-06 -4.21989e-06)
(-5.00461e-05 -7.52517e-06 -4.61574e-06)
(-7.02602e-05 -6.05262e-06 -3.20265e-06)
(-5.55209e-06 -2.51431e-06 -2.78095e-06)
(-6.83206e-06 -3.80127e-06 -3.12967e-06)
(-8.83191e-06 -5.62562e-06 -3.92719e-06)
(-1.08193e-05 -6.31521e-06 -3.00318e-06)
(-1.23383e-05 -7.71803e-06 -2.63281e-06)
(-1.60614e-05 -9.21442e-06 -2.54175e-06)
(-2.85982e-05 -9.72278e-06 -3.73455e-06)
(-4.98645e-05 -7.77665e-06 -4.88862e-06)
(-6.75337e-05 -5.83206e-06 -2.82769e-06)
(-5.4426e-06 -2.11214e-06 -2.95702e-06)
(-6.5445e-06 -3.30171e-06 -2.85385e-06)
(-8.84253e-06 -4.63554e-06 -2.76627e-06)
(-1.17053e-05 -5.5629e-06 -2.52425e-06)
(-1.4433e-05 -7.49513e-06 -2.46392e-06)
(-1.89471e-05 -9.47354e-06 -2.3856e-06)
(-3.05398e-05 -1.14751e-05 -2.75091e-06)
(-5.04007e-06 -1.92859e-06 -2.7896e-06)
(-5.95004e-06 -2.49672e-06 -2.96817e-06)
(-8.63611e-06 -2.94055e-06 -2.77142e-06)
(-1.11939e-05 -2.77659e-06 -2.5035e-06)
(-1.25413e-05 -2.84307e-06 -2.91115e-06)
(-1.54834e-05 -3.29759e-06 -6.11576e-06)
(-2.62123e-05 -6.45096e-06 -1.0046e-05)
(-4.41339e-05 -8.98866e-06 -7.84657e-06)
(-6.29945e-05 -8.438e-06 -3.64089e-06)
(-5.82805e-06 -2.43151e-06 -3.10738e-06)
(-7.01047e-06 -2.58115e-06 -3.04286e-06)
(-9.57562e-06 -3.36743e-06 -2.89182e-06)
(-1.20499e-05 -4.30837e-06 -2.65564e-06)
(-1.42002e-05 -4.55494e-06 -3.36124e-06)
(-1.76873e-05 -5.40236e-06 -6.43675e-06)
(-2.80954e-05 -7.05758e-06 -9.27731e-06)
(-4.70091e-05 -8.06519e-06 -6.23142e-06)
(-6.43121e-05 -6.72988e-06 -2.36148e-06)
(-6.03945e-06 -1.36351e-06 -3.31965e-06)
(-7.44225e-06 -2.08903e-06 -3.06695e-06)
(-9.13239e-06 -3.6138e-06 -3.12725e-06)
(-1.15178e-05 -4.93403e-06 -2.89482e-06)
(-1.40334e-05 -6.65867e-06 -3.99147e-06)
(-1.78133e-05 -7.85664e-06 -5.32272e-06)
(-2.81251e-05 -8.58269e-06 -6.30172e-06)
(-4.57318e-05 -7.06701e-06 -6.09448e-06)
(-6.06507e-05 -5.54258e-06 -2.3932e-06)
(-6.0852e-06 -7.83908e-07 -3.69235e-06)
(-7.1617e-06 -1.78499e-06 -3.04436e-06)
(-8.99741e-06 -3.01013e-06 -3.0387e-06)
(-1.20059e-05 -4.58672e-06 -2.90268e-06)
(-1.49334e-05 -6.71639e-06 -3.31308e-06)
(-1.91859e-05 -8.50001e-06 -3.79801e-06)
(-2.9547e-05 -9.97921e-06 -3.79675e-06)
(-4.32541e-05 -7.99628e-06 -4.99297e-06)
(-5.34915e-05 -4.20002e-06 -2.94861e-06)
)
;

boundaryField
{
    inlet
    {
        type            calculated;
        value           nonuniform List<vector> 
16
(
(-3.56443e-06 -5.00876e-07 9.03789e-08)
(-4.32163e-06 -1.13659e-06 2.90804e-07)
(3.83403e-06 -3.45293e-06 2.46035e-06)
(-1.36121e-06 -2.20144e-06 8.26683e-07)
(-2.91016e-06 -1.16182e-06 -3.04883e-07)
(-3.71104e-06 -9.59927e-07 2.05914e-06)
(-3.22268e-06 -1.41291e-06 1.50858e-06)
(-1.62224e-06 -1.67553e-06 -8.61296e-08)
(-1.77227e-06 -3.51678e-07 -2.2335e-06)
(-4.40076e-06 -6.84638e-07 -1.23969e-06)
(-3.15934e-06 2.29921e-06 2.32372e-06)
(-8.31823e-07 2.07971e-06 -3.58357e-06)
(1.86391e-06 1.63654e-06 -3.24176e-07)
(-6.21603e-06 -8.84392e-06 -3.31716e-06)
(-7.55984e-06 3.65198e-06 -3.90191e-06)
(-6.00302e-06 5.37463e-06 -8.19242e-06)
)
;
    }
    outlet
    {
        type            calculated;
        value           nonuniform 0();
    }
    wall
    {
        type            calculated;
        value           nonuniform List<vector> 
66
(
(-1.60413e-06 -5.25586e-07 1.26187e-09)
(-1.57543e-06 -1.23775e-06 1.2492e-07)
(5.61624e-06 -3.3971e-06 2.29242e-06)
(-1.07188e-06 -2.14254e-06 7.95308e-07)
(-8.62876e-06 -4.33788e-06 -2.51502e-06)
(-6.03037e-06 -4.79182e-06 -4.43131e-06)
(1.97216e-06 -3.25944e-06 -1.00481e-07)
(1.9368e-06 -4.89508e-06 -1.59346e-06)
(-6.61137e-07 6.28834e-06 -3.32454e-06)
(-1.16622e-05 -5.23116e-06 -4.86993e-06)
(1.89232e-06 -2.85932e-06 -5.77382e-07)
(3.76795e-06 -6.30407e-06 -1.36768e-06)
(-5.84315e-06 -2.59692e-06 -4.61897e-06)
(-5.03709e-06 -2.67991e-06 -1.9008e-06)
(-4.05957e-06 -5.45615e-06 2.8042e-07)
(1.95817e-05 -8.42371e-07 6.81183e-06)
(1.06864e-05 -1.46428e-06 6.01035e-06)
(1.44854e-05 -5.94935e-06 5.16661e-06)
(3.264e-05 1.08918e-05 2.08838e-05)
(2.27263e-05 4.5736e-06 1.66288e-05)
(2.02287e-05 -1.69148e-05 1.74564e-05)
(3.09435e-06 4.24614e-05 1.98331e-05)
(2.70834e-05 9.3103e-07 2.45411e-05)
(4.05396e-05 -1.99127e-05 2.06106e-05)
(-4.22852e-05 -2.51322e-05 -6.32006e-07)
(-3.99096e-05 -2.69903e-05 -3.15754e-06)
(-3.91319e-05 -3.14754e-05 1.10504e-05)
(-0.000118534 2.40954e-06 2.97303e-05)
(-0.000183212 1.01114e-05 -4.86673e-06)
(-0.000120333 -3.37354e-05 7.47342e-06)
(-1.84072e-06 -5.24444e-07 1.41028e-08)
(-2.82272e-06 -1.1587e-06 -3.69721e-07)
(-1.48074e-06 -3.47846e-07 -2.25317e-06)
(3.59435e-06 1.60495e-06 -4.50341e-07)
(-9.92464e-06 -4.34284e-06 -2.41763e-06)
(1.97975e-06 -4.05176e-07 -1.71912e-06)
(1.17016e-06 -2.86527e-07 -2.0104e-06)
(2.6104e-06 -2.11486e-06 -2.28711e-06)
(9.65285e-06 6.22977e-06 -3.25372e-06)
(1.15428e-06 -2.60947e-06 -4.44152e-08)
(3.08018e-06 -2.01829e-06 -7.02065e-07)
(-1.19869e-05 -1.76467e-06 1.83628e-06)
(-5.35185e-06 -2.70982e-06 -4.35417e-06)
(-5.69016e-06 -4.20453e-06 -1.40558e-06)
(-4.66894e-06 -5.22594e-06 -1.02677e-06)
(-1.87494e-05 4.66472e-06 1.17171e-06)
(1.79365e-05 -7.2405e-07 6.90717e-06)
(1.87825e-06 -2.26021e-06 7.01758e-06)
(-4.12361e-06 -5.82313e-07 2.08335e-06)
(1.58134e-06 5.52567e-06 9.26434e-06)
(2.76442e-05 1.10938e-05 2.09376e-05)
(1.91592e-05 9.07036e-06 1.52941e-05)
(3.92152e-05 2.67154e-05 8.57763e-06)
(2.63627e-05 9.6033e-06 -9.18246e-06)
(2.9904e-06 4.26718e-05 1.98502e-05)
(-1.16641e-05 1.19532e-05 1.15941e-05)
(1.41956e-05 -9.76943e-06 -1.65303e-05)
(8.31105e-06 -1.04534e-05 -4.37527e-05)
(-3.76381e-05 -2.51477e-05 -7.99915e-07)
(-4.5884e-05 -2.01948e-05 1.31612e-05)
(-3.75923e-05 -2.45586e-05 -1.14977e-05)
(-2.90772e-05 -2.80666e-05 -2.70816e-05)
(-0.000124039 2.42196e-06 2.99205e-05)
(-0.000104761 -4.72236e-05 1.14802e-06)
(-0.000125362 -5.9684e-05 -3.63069e-05)
(-0.000118202 -5.1783e-05 -1.05373e-05)
)
;
    }
    procBoundary0to1
    {
        type            processor;
        value           nonuniform List<vector> 
12
(
(-7.63734e-05 -1.49997e-06 -2.75916e-06)
(-7.74716e-05 -1.16988e-07 -2.66077e-06)
(-6.2576e-05 2.30327e-06 -2.39636e-06)
(-7.30187e-05 1.50524e-06 -1.4996e-06)
(-7.71754e-05 5.88348e-07 -1.35048e-06)
(-6.85845e-05 4.28183e-07 -1.27603e-06)
(-6.89937e-05 2.01701e-06 -1.14717e-06)
(-7.61762e-05 4.30547e-07 -5.06208e-07)
(-6.99384e-05 -1.37535e-06 -3.40231e-07)
(-6.54481e-05 1.17353e-06 3.62238e-07)
(-6.83531e-05 1.52417e-06 4.06721e-07)
(-6.39439e-05 -8.02503e-07 3.31617e-07)
)
;
    }
    procBoundary0to2
    {
        type            processor;
        value           nonuniform List<vector> 
44
(
(-9.55747e-06 -6.52407e-06 -1.47717e-06)
(-1.26103e-05 -7.26413e-06 1.51349e-08)
(-1.75313e-05 -8.94423e-06 2.13417e-06)
(-2.63807e-05 -1.11112e-05 3.50566e-06)
(-4.22044e-05 -9.89363e-06 1.5263e-06)
(-5.18086e-05 -5.12746e-06 2.56141e-07)
(-4.85262e-06 -3.25126e-06 -2.77502e-06)
(-5.81015e-06 -4.21531e-06 -3.09809e-06)
(-9.55747e-06 -6.52407e-06 -1.47717e-06)
(-7.74193e-06 -5.91424e-06 -3.29448e-06)
(-9.55747e-06 -6.52407e-06 -1.47717e-06)
(-1.26103e-05 -7.26413e-06 1.51349e-08)
(-1.78034e-05 -9.65781e-06 3.59746e-07)
(-2.89791e-05 -1.1715e-05 8.02132e-07)
(-4.53769e-05 -9.66453e-06 -1.04122e-06)
(-5.655e-05 -4.84995e-06 -1.62428e-06)
(-4.98828e-06 -2.72907e-06 -2.725e-06)
(-6.09652e-06 -3.66708e-06 -2.83492e-06)
(-8.4231e-06 -4.96576e-06 -2.64325e-06)
(-1.18778e-05 -6.07924e-06 -1.95611e-06)
(-1.78034e-05 -9.65781e-06 3.59746e-07)
(-1.62171e-05 -7.14125e-06 -1.40916e-06)
(-1.78034e-05 -9.65781e-06 3.59746e-07)
(-2.89791e-05 -1.1715e-05 8.02132e-07)
(-4.63241e-05 -9.12056e-06 -4.68106e-06)
(-5.71961e-05 -4.02274e-06 -3.68468e-06)
(-5.21305e-06 -2.04506e-06 -2.85325e-06)
(-6.3668e-06 -2.95014e-06 -2.69992e-06)
(-8.8222e-06 -3.99272e-06 -2.53579e-06)
(-1.24241e-05 -5.04362e-06 -2.45364e-06)
(-1.66693e-05 -6.44207e-06 -2.56896e-06)
(-2.19891e-05 -7.91964e-06 -1.91059e-06)
(-4.63241e-05 -9.12056e-06 -4.68106e-06)
(-2.99002e-05 -9.25674e-06 -1.42732e-06)
(-4.63241e-05 -9.12056e-06 -4.68106e-06)
(-5.71961e-05 -4.02274e-06 -3.68468e-06)
(-5.47963e-06 -1.22727e-06 -3.2334e-06)
(-6.54749e-06 -1.90635e-06 -3.02707e-06)
(-9.01641e-06 -2.5946e-06 -2.86073e-06)
(-1.25613e-05 -3.53897e-06 -3.1211e-06)
(-1.63135e-05 -4.84943e-06 -3.46152e-06)
(-2.13638e-05 -6.60127e-06 -3.12579e-06)
(-2.9052e-05 -7.60277e-06 -2.71758e-06)
(-3.96901e-05 -6.27276e-06 -2.02213e-06)
)
;
    }
    procBoundary0to4
    {
        type            processor;
        value           nonuniform List<vector> 
36
(
(-5.70464e-06 -1.20441e-06 -2.23679e-06)
(-6.34706e-06 -1.2486e-06 -2.79407e-06)
(-8.28359e-06 -1.30864e-06 -2.68885e-06)
(-1.11876e-05 -1.50356e-06 -2.87836e-06)
(-1.46517e-05 -1.86343e-06 -4.32295e-06)
(-2.01123e-05 -3.2979e-06 -7.03788e-06)
(-2.94291e-05 -5.5294e-06 -1.06973e-05)
(-4.2941e-05 -7.58866e-06 -8.29035e-06)
(-5.68973e-05 -5.36784e-06 -1.52239e-06)
(-5.89639e-06 -1.28825e-06 -2.93003e-06)
(-7.00032e-06 -1.11182e-06 -3.10754e-06)
(-9.05312e-06 -1.10659e-06 -2.42696e-06)
(-1.17108e-05 -1.51375e-06 -2.60368e-06)
(-1.55002e-05 -2.1875e-06 -4.35747e-06)
(-2.1129e-05 -3.58898e-06 -7.74493e-06)
(-3.07541e-05 -5.5034e-06 -1.13109e-05)
(-4.51519e-05 -5.84828e-06 -8.01347e-06)
(-5.8946e-05 -4.93457e-06 -2.75913e-06)
(-5.90411e-06 -1.90672e-07 -3.5147e-06)
(-7.17499e-06 -5.11409e-08 -3.1774e-06)
(-9.08561e-06 -8.22675e-07 -2.85651e-06)
(-1.19212e-05 -1.99672e-06 -2.80483e-06)
(-1.51885e-05 -3.16921e-06 -4.21596e-06)
(-2.07194e-05 -4.92328e-06 -6.25054e-06)
(-2.98718e-05 -6.09111e-06 -7.49001e-06)
(-4.28781e-05 -4.85272e-06 -6.83138e-06)
(-5.45022e-05 -2.86615e-06 -2.96364e-06)
(-6.10619e-06 2.91502e-07 -3.83786e-06)
(-7.13924e-06 1.89941e-07 -3.36584e-06)
(-8.91895e-06 -4.38325e-07 -3.2801e-06)
(-1.24118e-05 -1.88613e-06 -3.20377e-06)
(-1.59202e-05 -4.07487e-06 -3.74775e-06)
(-2.05035e-05 -5.56963e-06 -4.72357e-06)
(-2.93162e-05 -6.16239e-06 -3.68803e-06)
(-4.21639e-05 -3.91859e-06 -2.70526e-06)
(-4.94183e-05 -2.01693e-06 -1.02499e-06)
)
;
    }
    procBoundary0to6
    {
        type            processor;
        value           uniform (-4.75331e-05 -3.77078e-06 -1.62268e-06);
    }
    procBoundary0to7
    {
        type            processor;
        value           uniform (-5.56935e-05 1.29131e-06 4.68843e-07);
    }
}


// ************************************************************************* //
