/*--------------------------------*- C++ -*----------------------------------*\
| =========                 |                                                 |
| \\      /  F ield         | OpenFOAM: The Open Source CFD Toolbox           |
|  \\    /   O peration     | Version:  4.x                                   |
|   \\  /    A nd           | Web:      www.OpenFOAM.org                      |
|    \\/     M anipulation  |                                                 |
\*---------------------------------------------------------------------------*/
FoamFile
{
    version     2.0;
    format      ascii;
    class       volVectorField;
    location    "14";
    object      DDtUrel;
}
// * * * * * * * * * * * * * * * * * * * * * * * * * * * * * * * * * * * * * //

dimensions      [0 1 -2 0 0 0 0];

internalField   nonuniform List<vector> 
132
(
(0.0019895 -5.43152e-05 -0.000171542)
(0.00140855 -1.87113e-05 -8.66347e-05)
(0.00108595 4.79683e-06 -2.84203e-05)
(0.000969889 1.6135e-05 2.44834e-06)
(0.000953057 3.23231e-05 4.18769e-05)
(0.000992404 3.27675e-05 7.00173e-05)
(0.00109398 1.37767e-05 8.66323e-05)
(0.00114998 2.87975e-06 0.000139069)
(0.000823532 -1.59129e-05 0.000211398)
(0.00195879 -5.97234e-05 -0.000174812)
(0.00136786 -1.69438e-05 -8.87596e-05)
(0.00104997 9.19392e-06 -2.77108e-05)
(0.000924285 1.81989e-05 5.31507e-06)
(0.000890471 3.87628e-05 4.44012e-05)
(0.000921826 3.85121e-05 7.39348e-05)
(0.000996564 1.50348e-05 9.24932e-05)
(0.00102686 -1.43984e-05 0.000138728)
(0.000716182 -6.21973e-05 0.000205716)
(0.00193173 -4.38123e-05 -0.00017661)
(0.00133232 -1.22899e-05 -9.07901e-05)
(0.00101321 7.59824e-06 -2.75303e-05)
(0.000864978 2.24184e-05 9.60539e-06)
(0.000811502 4.32569e-05 4.1438e-05)
(0.000826735 4.67284e-05 7.58826e-05)
(0.000836847 3.16113e-05 0.000104642)
(0.000785217 -5.29526e-06 0.00014266)
(0.000473888 -7.51418e-05 0.000160689)
(0.00192752 -1.68146e-05 -0.000176193)
(0.00132755 2.63094e-07 -8.98749e-05)
(0.00100788 1.05913e-05 -2.43939e-05)
(0.00191223 -6.04433e-05 -0.000209561)
(0.00130591 -2.33409e-05 -9.59839e-05)
(0.000975133 3.92913e-06 -2.72192e-05)
(0.000835429 1.64709e-05 1.09513e-05)
(0.000803539 3.01784e-05 5.1384e-05)
(0.000861706 3.20016e-05 7.89548e-05)
(0.000992707 2.34829e-05 8.94304e-05)
(0.00112194 1.35947e-05 0.000130492)
(0.000860137 1.11418e-05 0.000199682)
(0.0018774 -6.44572e-05 -0.000213295)
(0.00126127 -1.88054e-05 -9.50039e-05)
(0.000931643 1.9112e-05 -1.287e-05)
(0.000778798 2.18963e-05 1.65287e-05)
(0.000739667 3.46637e-05 4.94889e-05)
(0.000791379 3.95653e-05 7.84989e-05)
(0.00090678 3.65544e-05 8.95055e-05)
(0.00105194 1.67415e-05 0.000119853)
(0.000912487 -3.48435e-05 0.000177826)
(0.00184694 -4.61835e-05 -0.000217586)
(0.00122426 -1.29451e-05 -9.96206e-05)
(0.000889404 1.17279e-05 -2.25881e-05)
(0.000732305 2.5672e-05 2.22283e-05)
(0.000677886 3.75472e-05 4.88951e-05)
(0.00070209 4.85631e-05 8.17645e-05)
(0.000761041 5.00704e-05 9.89959e-05)
(0.000783252 2.11702e-05 0.000129823)
(0.000553993 -6.95708e-05 0.000135687)
(0.00184252 -1.33245e-05 -0.000218597)
(0.00121802 1.02278e-07 -0.000100003)
(0.000882178 1.29818e-05 -2.23506e-05)
(0.000724075 2.38507e-05 2.27435e-05)
(0.000655069 3.0712e-05 4.39694e-05)
(0.00184152 -6.99322e-05 -0.000192379)
(0.00120831 -2.99694e-05 -9.08537e-05)
(0.000866616 9.48283e-07 -2.64152e-05)
(0.000707013 1.48615e-05 1.95547e-05)
(0.000673778 2.07355e-05 5.46173e-05)
(0.000749895 2.47567e-05 8.9788e-05)
(0.000894211 2.76651e-05 0.000108255)
(0.00108793 2.37312e-05 0.000129129)
(0.000943236 4.3319e-05 0.000114395)
(0.00180204 -7.53896e-05 -0.000195757)
(0.00116166 -2.74665e-05 -8.91751e-05)
(0.000819883 6.91183e-06 -1.92778e-05)
(0.000663865 2.30573e-05 2.57783e-05)
(0.000621037 3.04442e-05 5.24176e-05)
(0.000676657 3.91718e-05 8.80418e-05)
(0.0008222 5.1286e-05 0.000104848)
(0.00108841 5.11513e-05 0.000123953)
(0.0013862 7.73929e-06 9.80175e-05)
(0.0017679 -5.36511e-05 -0.000196059)
(0.00112257 -1.68045e-05 -8.9016e-05)
(0.000780468 9.32606e-06 -1.89956e-05)
(0.000629718 2.72054e-05 2.95657e-05)
(0.00058036 3.57071e-05 5.13929e-05)
(0.000613036 4.25098e-05 8.55891e-05)
(0.000698995 5.84151e-05 9.51213e-05)
(0.000777519 5.08491e-05 0.000102973)
(0.000649403 -5.6708e-05 6.43205e-05)
(0.00175929 -1.19516e-05 -0.000197626)
(0.00111148 3.83014e-07 -8.91636e-05)
(0.000771812 1.10166e-05 -1.95325e-05)
(0.000621475 2.1117e-05 2.8647e-05)
(0.000566907 3.03357e-05 4.61003e-05)
(0.000577408 3.69498e-05 7.79638e-05)
(0.000616067 3.39416e-05 9.02082e-05)
(0.001806 -7.90505e-05 -0.000153642)
(0.0011589 -3.39988e-05 -7.36864e-05)
(0.000806065 -1.02747e-06 -1.91182e-05)
(0.000639608 1.41331e-05 2.23447e-05)
(0.000599564 1.52216e-05 4.90475e-05)
(0.000663864 2.18419e-05 8.58123e-05)
(0.000764794 3.14258e-05 0.000110057)
(0.000863381 2.86571e-05 0.000105307)
(0.000656358 2.77179e-05 2.04512e-05)
(0.00176248 -8.03022e-05 -0.000154372)
(0.00110921 -3.11236e-05 -7.13524e-05)
(0.000759113 2.65438e-06 -1.57157e-05)
(0.000604261 2.14816e-05 2.69822e-05)
(0.000558555 2.47949e-05 5.20611e-05)
(0.00060545 3.4769e-05 8.6484e-05)
(0.000700418 4.44245e-05 0.000107094)
(0.000816584 3.31358e-05 9.99277e-05)
(0.000688834 -6.89059e-06 -8.40217e-06)
(0.00172853 -5.69145e-05 -0.000154433)
(0.00107176 -2.01157e-05 -6.86144e-05)
(0.000723732 5.90923e-06 -1.37955e-05)
(0.000575775 2.44718e-05 2.76859e-05)
(0.000528817 3.04761e-05 5.02647e-05)
(0.000561582 4.05436e-05 7.92371e-05)
(0.000612699 4.88149e-05 8.75122e-05)
(0.000623911 2.4048e-05 7.28825e-05)
(0.000440267 -5.03656e-05 -1.04757e-05)
(0.00171929 -1.36528e-05 -0.000152769)
(0.00105823 1.03618e-06 -6.8438e-05)
(0.000714589 9.19627e-06 -1.57096e-05)
(0.000568039 1.8406e-05 2.40363e-05)
(0.000522329 2.28827e-05 4.18538e-05)
(0.000542266 2.77539e-05 7.24459e-05)
(0.000565497 2.88671e-05 7.66406e-05)
(0.000464069 8.10161e-06 5.46721e-05)
(0.000261092 -5.83007e-05 -1.34038e-06)
)
;

boundaryField
{
    inlet
    {
        type            calculated;
        value           nonuniform List<vector> 
16
(
(0.0042025 -0.000134319 -0.000319969)
(0.0041119 -0.000248744 -0.000341053)
(0.00406462 -0.000172254 -0.000335973)
(0.00407174 -9.99536e-05 -0.000355203)
(0.00396386 -0.000157727 -0.000735899)
(0.00384347 -0.000261205 -0.000766624)
(0.00376824 -0.000182841 -0.000801376)
(0.0037826 -6.22731e-05 -0.000829541)
(0.00390673 -0.00018368 -0.000576874)
(0.00375093 -0.000332224 -0.000623668)
(0.00365968 -0.000246944 -0.000600829)
(0.00362496 -5.70473e-05 -0.000641458)
(0.0039564 -0.000233398 -0.000467539)
(0.00376884 -0.000303936 -0.000490132)
(0.00370875 -0.000235635 -0.00050963)
(0.00370426 -6.88814e-05 -0.000461992)
)
;
    }
    outlet
    {
        type            calculated;
        value           nonuniform 0();
    }
    wall
    {
        type            calculated;
        value           nonuniform List<vector> 
66
(
(0.0042025 -0.000134319 -0.000319969)
(0.0041119 -0.000248744 -0.000341053)
(0.00406462 -0.000172254 -0.000335973)
(0.00407174 -9.99536e-05 -0.000355203)
(0.00101104 2.96186e-05 3.45411e-05)
(0.000795342 3.45346e-05 1.1086e-05)
(0.000661224 2.48063e-06 2.60606e-07)
(0.00067777 3.55378e-05 1.70431e-06)
(0.000867069 3.37689e-05 5.38863e-05)
(0.000791508 5.24367e-05 1.85271e-05)
(0.000742827 -2.63229e-06 3.34745e-05)
(0.000788752 1.97368e-05 5.75038e-05)
(0.00119965 -7.51876e-06 -6.02577e-05)
(0.00111318 -3.67662e-05 -5.29355e-05)
(0.000842662 1.02376e-05 -7.90379e-06)
(0.00142058 7.06915e-05 4.13698e-05)
(0.00119138 0.000124489 7.68803e-05)
(0.000858213 0.000172597 9.92566e-06)
(0.00140743 8.10825e-05 6.84665e-05)
(0.00125539 0.000102339 0.000101187)
(0.00108647 0.000158503 7.80328e-05)
(0.00185192 -4.63302e-05 -5.68044e-05)
(0.00160419 -7.85518e-05 -8.76999e-06)
(0.00105612 9.69657e-05 0.000102763)
(0.00285252 4.8989e-05 0.00010256)
(0.00241624 -0.000130416 0.000116135)
(0.00132519 3.64402e-05 0.000232431)
(0.00226988 6.99153e-05 0.000448541)
(0.00192118 -0.000342802 0.000629275)
(0.000516974 -0.000406975 0.000244302)
(0.0042025 -0.000134319 -0.000319969)
(0.00396386 -0.000157727 -0.000735899)
(0.00390673 -0.00018368 -0.000576874)
(0.0039564 -0.000233398 -0.000467539)
(0.00101104 2.96186e-05 3.45411e-05)
(0.000534666 1.22469e-06 1.90385e-06)
(0.000258358 -1.67233e-05 -1.28245e-05)
(0.000275811 -1.7915e-06 -2.4355e-05)
(0.000867069 3.37689e-05 5.38863e-05)
(0.000482766 1.10344e-05 2.86566e-05)
(0.000272586 3.52695e-05 -8.09506e-06)
(0.0002525 5.43528e-05 1.47707e-05)
(0.00119965 -7.51876e-06 -6.02577e-05)
(0.000639684 2.57965e-06 -1.40013e-05)
(0.000242197 1.28288e-05 5.31725e-05)
(0.000226671 4.62426e-05 7.50312e-05)
(0.00142058 7.06915e-05 4.13698e-05)
(0.000646376 7.75626e-05 0.000118437)
(0.000312224 -1.46401e-05 8.83698e-05)
(0.000292071 -4.67279e-05 1.83379e-05)
(0.00140743 8.10825e-05 6.84665e-05)
(0.000783754 6.23159e-05 0.000129797)
(0.000675357 -2.93636e-05 0.0001937)
(0.000691044 -2.57141e-05 0.000175742)
(0.00185192 -4.63302e-05 -5.68044e-05)
(0.00125366 5.28523e-06 -5.94605e-05)
(0.00104674 -2.10319e-05 0.000162293)
(0.000957625 6.52022e-05 0.00032052)
(0.00285252 4.8989e-05 0.00010256)
(0.00262058 -1.79069e-05 5.00584e-05)
(0.00276585 -0.00012102 0.000329396)
(0.0019642 5.15969e-05 0.000474969)
(0.00226988 6.99153e-05 0.000448541)
(0.00263051 0.000208668 0.000671281)
(0.00402983 0.000457287 0.000119507)
(0.00176915 0.000176296 -0.000323611)
)
;
    }
    procBoundary0to1
    {
        type            processor;
        value           nonuniform List<vector> 
12
(
(0.000117716 -4.39154e-05 0.00022627)
(-2.32414e-05 -7.99473e-05 0.000206092)
(-4.42844e-05 -7.63188e-05 0.000144288)
(-4.02941e-05 -1.33066e-05 0.000213428)
(-0.000262888 -4.91103e-05 0.000166513)
(-9.28089e-05 -7.64833e-05 0.000104045)
(-0.000223052 1.373e-05 0.000121097)
(-0.000770221 -1.89065e-05 8.80217e-05)
(-0.000187801 -6.33431e-05 3.64235e-05)
(-8.96897e-06 1.56943e-05 2.27997e-05)
(-0.000153231 -2.21135e-05 -1.47682e-05)
(-4.14523e-05 -6.34163e-05 -2.39545e-05)
)
;
    }
    procBoundary0to2
    {
        type            processor;
        value           nonuniform List<vector> 
44
(
(0.00084566 2.0678e-05 1.24635e-05)
(0.000778307 2.95957e-05 3.80734e-05)
(0.000777498 3.64174e-05 7.74022e-05)
(0.000747194 3.13717e-05 0.000113566)
(0.000644401 -1.47403e-06 0.000151553)
(0.000357247 -5.76957e-05 0.000149991)
(0.00194356 1.61487e-05 -0.000166288)
(0.00134821 8.86521e-06 -8.63417e-05)
(0.00084566 2.0678e-05 1.24635e-05)
(0.00103431 8.31023e-06 -1.9746e-05)
(0.00084566 2.0678e-05 1.24635e-05)
(0.000778307 2.95957e-05 3.80734e-05)
(0.000648765 3.66618e-05 7.4007e-05)
(0.000655851 3.41675e-05 0.000104994)
(0.000600601 -1.25659e-06 0.000140916)
(0.000373627 -6.90529e-05 0.000119172)
(0.00186361 2.36015e-05 -0.000209201)
(0.00124018 1.29152e-05 -9.71422e-05)
(0.000907099 1.27337e-05 -2.26877e-05)
(0.000750595 1.63517e-05 1.98655e-05)
(0.000648765 3.66618e-05 7.4007e-05)
(0.000668037 1.72321e-05 4.20169e-05)
(0.000648765 3.66618e-05 7.4007e-05)
(0.000655851 3.41675e-05 0.000104994)
(0.000553762 1.52283e-06 9.44857e-05)
(0.000358229 -7.56356e-05 5.96554e-05)
(0.00178351 3.44088e-05 -0.000192705)
(0.00113491 1.76151e-05 -8.56563e-05)
(0.000794979 1.39257e-05 -2.1862e-05)
(0.000642859 1.47787e-05 2.2482e-05)
(0.000576768 1.81653e-05 3.93918e-05)
(0.000581565 1.99532e-05 6.89195e-05)
(0.000553762 1.52283e-06 9.44857e-05)
(0.000563786 4.92705e-06 0.000112278)
(0.000553762 1.52283e-06 9.44857e-05)
(0.000358229 -7.56356e-05 5.96554e-05)
(0.0017378 3.74283e-05 -0.000158977)
(0.00107689 2.07098e-05 -6.85495e-05)
(0.000735809 1.29709e-05 -2.35188e-05)
(0.000582953 1.05939e-05 9.06774e-06)
(0.000535219 1.255e-05 1.98991e-05)
(0.000551784 6.39647e-06 3.08017e-05)
(0.000612384 -1.001e-06 0.000107679)
(0.000417728 -2.75963e-05 0.000145982)
)
;
    }
    procBoundary0to4
    {
        type            processor;
        value           nonuniform List<vector> 
36
(
(0.00179668 -8.39001e-05 -9.67474e-05)
(0.00113641 -3.87308e-05 -4.82274e-05)
(0.000775977 -6.14814e-06 -1.27301e-05)
(0.000609197 1.05441e-05 1.94436e-05)
(0.000556142 1.39363e-05 3.9731e-05)
(0.000588187 1.83277e-05 6.45003e-05)
(0.000639545 2.4015e-05 7.64565e-05)
(0.000649275 2.00599e-05 5.11241e-05)
(0.000458796 1.00527e-05 -2.42223e-05)
(0.00174928 -8.85826e-05 -9.2071e-05)
(0.00108328 -3.49499e-05 -4.43578e-05)
(0.000726847 -2.57171e-06 -1.05687e-05)
(0.000569723 1.57324e-05 2.0417e-05)
(0.000518677 2.00017e-05 4.2672e-05)
(0.00054622 2.65056e-05 6.61283e-05)
(0.000588508 3.61418e-05 7.13033e-05)
(0.000585372 2.47322e-05 3.90711e-05)
(0.000411081 -9.21569e-06 -4.73971e-05)
(0.00171329 -6.10431e-05 -8.95237e-05)
(0.00104268 -2.2996e-05 -4.0691e-05)
(0.000694883 -2.19601e-07 -7.33873e-06)
(0.000546734 1.59437e-05 2.15168e-05)
(0.000501462 1.95432e-05 4.11e-05)
(0.000533786 2.41345e-05 5.94436e-05)
(0.000552599 5.57095e-05 5.54124e-05)
(0.000456746 2.95918e-05 2.4124e-05)
(0.000281263 -2.18223e-05 -4.19366e-05)
(0.00170218 -2.03942e-05 -8.89055e-05)
(0.00102762 -3.34492e-06 -3.94276e-05)
(0.0006852 -5.40707e-07 -8.79992e-06)
(0.000536491 2.26351e-06 1.77069e-05)
(0.000500801 2.73237e-06 3.50117e-05)
(0.000529669 -1.11497e-05 4.98535e-05)
(0.000586771 4.31432e-05 4.08467e-05)
(0.000331489 7.14209e-05 1.00857e-05)
(0.000122202 -3.74198e-05 -3.52554e-05)
)
;
    }
    procBoundary0to6
    {
        type            processor;
        value           uniform (0.000146862 -5.23022e-05 2.26566e-05);
    }
    procBoundary0to7
    {
        type            processor;
        value           uniform (-3.21678e-06 -7.85216e-05 -4.18938e-05);
    }
}


// ************************************************************************* //
