/*--------------------------------*- C++ -*----------------------------------*\
| =========                 |                                                 |
| \\      /  F ield         | OpenFOAM: The Open Source CFD Toolbox           |
|  \\    /   O peration     | Version:  4.x                                   |
|   \\  /    A nd           | Web:      www.OpenFOAM.org                      |
|    \\/     M anipulation  |                                                 |
\*---------------------------------------------------------------------------*/
FoamFile
{
    version     2.0;
    format      ascii;
    class       volVectorField;
    location    "14";
    object      GField;
}
// * * * * * * * * * * * * * * * * * * * * * * * * * * * * * * * * * * * * * //

dimensions      [1 -2 -1 0 0 0 0];

internalField   nonuniform List<vector> 
132
(
(96.0923 -1.58554 -3.72416)
(54.1867 -0.932467 -2.61093)
(106.462 -1.11348 -3.2827)
(67.9638 -0.53073 -2.17872)
(115.675 -0.896234 -3.75696)
(82.5834 -0.364269 -2.71947)
(123.621 -0.208752 -2.48291)
(94.3503 -1.08084 -3.72869)
(137.391 0.254156 -2.37404)
(95.0248 -2.8397 -4.1714)
(51.8969 -1.83423 -2.6482)
(102.911 -2.48276 -3.92321)
(64.0943 -1.31451 -2.75731)
(112.332 -2.93927 -4.33746)
(76.5714 -1.1214 -2.56916)
(119.499 -3.30744 -2.64191)
(86.8188 -3.42385 -3.24989)
(130.197 -4.70944 -1.90742)
(95.1201 -1.91356 -4.31561)
(50.4955 -1.16293 -2.42812)
(100.995 -1.87064 -4.12934)
(61.0676 -1.40243 -2.67841)
(107.766 -2.11946 -4.12803)
(68.9188 -0.862846 -3.03104)
(113.532 -1.98422 -3.64621)
(76.0783 -0.963571 -2.95093)
(116.555 -2.43883 -6.80424)
(94.305 -1.19568 -4.67508)
(50.6014 -0.240623 -2.49168)
(100.652 -0.311525 -4.45218)
(93.0107 -2.0009 -8.18838)
(48.1214 -0.97775 -5.29204)
(97.0897 -1.73078 -7.93072)
(54.548 -1.033 -5.05626)
(101.939 -1.46035 -7.96829)
(60.0906 -0.342677 -4.48474)
(103.135 -0.813442 -6.08734)
(66.7887 -1.28765 -6.09792)
(110.539 -0.696247 -5.42089)
(92.2394 -3.30414 -8.71015)
(44.1905 -1.55824 -5.15085)
(93.7593 -2.95212 -8.51629)
(46.3195 -1.35844 -4.91357)
(94.7172 -3.11823 -7.87078)
(46.5993 -1.20599 -4.77865)
(93.8539 -4.93702 -5.80129)
(49.9098 -2.79223 -9.03269)
(92.7596 -11.142 1.23612)
(91.1398 -2.30844 -9.23075)
(41.613 -0.888026 -5.06329)
(91.3765 -2.1925 -9.62506)
(40.0339 -0.956255 -4.62158)
(90.5031 -1.78285 -7.89789)
(35.2852 -1.15724 -3.29681)
(87.0266 -2.88964 -8.05843)
(26.5134 -0.353658 -2.39861)
(85.7228 -2.36854 -1.23997)
(90.1692 -0.495568 -9.2409)
(41.9998 -0.197389 -5.32667)
(90.8307 -0.293982 -9.77673)
(40.1488 0.0178032 -4.62617)
(89.7733 0.562012 -7.73943)
(91.1777 -2.16919 -5.95079)
(45.1264 -1.11291 -3.82245)
(92.5975 -2.17858 -5.93853)
(47.7039 -1.19598 -3.78369)
(94.4209 -1.6358 -4.8537)
(48.3629 -1.96646 -2.66808)
(94.6329 -1.69044 -3.12514)
(55.404 -6.52485 -2.81118)
(100.3 1.38026 -1.11122)
(90.3817 -3.97226 -6.5446)
(40.2176 -1.89661 -3.84169)
(88.9733 -4.35404 -6.40149)
(36.853 -1.55346 -2.90888)
(87.1945 -3.60074 -4.43847)
(33.0099 -0.975848 -1.91391)
(79.7225 -7.48948 -2.97547)
(36.4619 -2.28143 -0.855887)
(62.6985 -6.42319 -1.52829)
(89.29 -2.62385 -6.08093)
(37.3102 -1.27933 -3.58628)
(86.5919 -2.82101 -5.92973)
(28.0598 -0.879533 -2.37154)
(84.1346 -2.01325 -2.98885)
(18.081 -0.103093 -0.996707)
(80.4384 -6.37459 0.897781)
(-3.54462 -4.29004 -0.972917)
(80.6933 -5.63442 7.80829)
(88.72 -0.585798 -6.44391)
(35.999 -0.346824 -3.96525)
(85.0011 -0.453 -6.59915)
(25.5024 -0.404228 -2.32518)
(82.3007 0.386217 -3.51938)
(16.0941 0.0239398 -1.00048)
(80.7003 3.73755 -0.651178)
(90.4565 -2.65447 -4.58206)
(46.1374 -1.43303 -3.25207)
(92.2289 -2.46668 -4.91791)
(48.3207 -0.940657 -3.15618)
(93.6058 -1.58604 -3.56308)
(49.169 -1.18967 -3.14421)
(95.0809 -2.61588 -3.58281)
(55.1928 -1.06474 -1.79162)
(100.345 -2.29834 -2.66525)
(89.4056 -3.4907 -4.96139)
(40.0883 -1.81321 -3.07129)
(87.6682 -3.45971 -5.23545)
(35.9787 -1.29635 -2.57756)
(87.4404 -2.28766 -3.63299)
(33.6316 -1.26605 -1.57863)
(85.2663 -3.27496 -3.64655)
(33.036 -1.2283 3.48263)
(85.4847 -4.78084 -8.04541)
(88.6378 -2.32936 -5.1589)
(39.0838 -1.39471 -3.36948)
(85.6303 -2.6213 -4.75873)
(31.4088 -1.1503 -2.49817)
(84.1481 -1.40833 -2.00544)
(25.8992 -1.07378 -1.3169)
(82.5194 -1.87247 3.83045)
(24.3436 -0.234122 0.740106)
(84.1898 -2.87862 -2.71474)
(88.7115 -0.701932 -4.37782)
(37.9612 -0.216808 -3.04218)
(84.6352 0.198106 -4.1494)
(29.1911 -0.118022 -2.28152)
(83.3123 1.12698 -1.92521)
(24.9083 -0.0388522 -1.55733)
(82.8153 -0.63868 1.72858)
(22.74 1.4031 -0.450988)
(83.7103 1.32458 -3.45292)
)
;

boundaryField
{
    inlet
    {
        type            calculated;
        value           uniform (67 0 0);
    }
    outlet
    {
        type            calculated;
        value           nonuniform 0();
    }
    wall
    {
        type            calculated;
        value           uniform (0 0 0);
    }
    procBoundary0to1
    {
        type            processor;
        value           nonuniform List<vector> 
12
(
(104.285 1.80826 -1.41852)
(90.2745 -5.04685 -0.399298)
(75.2282 -4.49391 -0.337208)
(71.6209 1.11184 -0.216474)
(44.5871 -4.04084 6.7284)
(-7.76825 2.60082 -0.940945)
(54.6754 4.73159 -1.34301)
(46.9847 -3.85303 -2.27686)
(-7.46694 2.25211 0.63911)
(55.3407 0.0554668 -2.48795)
(24.1975 -1.37409 -4.98795)
(16.7616 -1.44345 -1.35933)
)
;
    }
    procBoundary0to2
    {
        type            processor;
        value           nonuniform List<vector> 
44
(
(60.92 -0.144856 -2.56903)
(106.02 0.102984 -3.88669)
(68.5874 -0.404558 -3.11675)
(112.766 0.117034 -3.32052)
(77.7853 0.762886 -2.90773)
(119.616 0.236415 -0.916207)
(92.7126 0.643772 -3.42789)
(48.9551 0.579954 -2.27323)
(60.92 -0.144856 -2.56903)
(98.7802 1.27564 -4.02501)
(60.92 -0.144856 -2.56903)
(106.02 0.102984 -3.88669)
(36.0715 -0.0921397 -3.61179)
(87.0984 -0.236848 -8.59414)
(30.0284 1.6381 -1.91802)
(86.3167 5.16357 -1.12362)
(90.7287 1.16512 -8.6025)
(42.4264 0.391361 -5.32322)
(90.8128 1.25687 -9.72083)
(39.8793 0.777534 -5.00831)
(36.0715 -0.0921397 -3.61179)
(90.566 1.5702 -7.8079)
(36.0715 -0.0921397 -3.61179)
(87.0984 -0.236848 -8.59414)
(-2.84425 -2.3758 -0.416895)
(76.0542 -4.07949 1.50437)
(88.9636 1.84371 -6.24807)
(38.4944 0.732789 -3.69869)
(86.0823 1.63504 -5.43494)
(29.5489 0.47629 -2.54948)
(84.9358 1.25848 -2.64427)
(23.6021 0.0313435 -1.29314)
(-2.84425 -2.3758 -0.416895)
(87.3828 2.01587 -1.78666)
(-2.84425 -2.3758 -0.416895)
(76.0542 -4.07949 1.50437)
(87.8869 1.36512 -6.35959)
(38.6288 0.847297 -4.15749)
(84.3065 1.70805 -5.6257)
(32.6142 0.411926 -4.93654)
(82.8836 0.991498 -5.93097)
(29.5238 0.117699 -5.47674)
(83.2548 0.258288 -1.65078)
(24.1891 0.825311 2.37919)
)
;
    }
    procBoundary0to4
    {
        type            processor;
        value           nonuniform List<vector> 
36
(
(90.3389 -2.64991 -2.66271)
(45.4269 -1.40532 -1.90995)
(90.9933 -2.84825 -3.06761)
(46.53 -1.47795 -2.16272)
(92.4362 -2.33251 -1.97362)
(47.4385 -1.60156 -2.29019)
(93.1925 -3.26813 -3.44175)
(47.2013 -2.68302 -0.774789)
(96.5759 -5.96941 -1.88304)
(88.5776 -4.59252 -2.45079)
(38.7231 -2.42208 -1.58114)
(85.4846 -4.51853 -2.81397)
(30.3121 -1.72058 -1.7419)
(83.2824 -2.87625 -2.11307)
(23.3157 -0.759204 -1.27772)
(81.4778 -1.96748 -2.41987)
(16.4822 -0.776891 0.794728)
(82.8794 -6.32105 -0.786912)
(88.1167 -2.08862 -2.55668)
(36.2403 -1.37143 -1.64072)
(83.2259 -1.89227 -2.40821)
(25.6334 -1.02355 -1.2615)
(81.6873 -0.852351 -1.06627)
(21.1924 -0.80631 -0.69376)
(82.9319 -3.52917 -0.475214)
(20.0524 -0.511045 0.971093)
(81.0975 -1.39731 2.01166)
(88.4404 -1.89177 -2.86893)
(37.2433 -1.24423 -1.57264)
(83.0881 -1.48332 -2.5985)
(27.7571 -2.48844 -1.68651)
(80.2032 -3.38623 -2.11683)
(21.9316 -2.859 -1.05009)
(79.571 -1.0516 -1.65402)
(14.5161 2.4228 -0.0944648)
(76.3278 5.91384 1.34431)
)
;
    }
    procBoundary0to6
    {
        type            processor;
        value           uniform (86.2762 1.71842 8.00703);
    }
    procBoundary0to7
    {
        type            processor;
        value           uniform (15.5908 0.708464 -0.354446);
    }
}


// ************************************************************************* //
