/*--------------------------------*- C++ -*----------------------------------*\
| =========                 |                                                 |
| \\      /  F ield         | OpenFOAM: The Open Source CFD Toolbox           |
|  \\    /   O peration     | Version:  4.x                                   |
|   \\  /    A nd           | Web:      www.OpenFOAM.org                      |
|    \\/     M anipulation  |                                                 |
\*---------------------------------------------------------------------------*/
FoamFile
{
    version     2.0;
    format      ascii;
    class       volScalarField;
    location    "14";
    object      p_rgh;
}
// * * * * * * * * * * * * * * * * * * * * * * * * * * * * * * * * * * * * * //

dimensions      [1 -1 -2 0 0 0 0];

internalField   nonuniform List<scalar> 
132
(
153.054
94.9342
98.7733
39.0402
74.9675
78.7137
57.8949
57.3516
96.6548
133.788
97.0336
97.3098
56.8898
81.8208
79.9629
57.5783
63.6155
77.1975
122.935
94.0918
98.6496
66.0731
85.3033
67.5695
61.5888
25.5819
102.342
112.251
92.5713
96.3929
131.237
99.1228
99.6556
56.6349
72.8284
74.2133
38.572
-0.173711
129.889
122.147
97.4702
100.616
63.1003
79.7463
88.8108
42.9242
33.8854
141.097
116.882
95.3201
101.026
67.2478
79.3081
73.7117
41.4811
-15.4421
106.09
111.684
92.7019
98.6792
67.8601
81.9517
117.756
96.5368
103.17
64.0322
81.4374
94.8737
48.3513
39.2804
123.226
115.751
95.9283
103.486
68.3757
85.3143
108.691
54.8633
95.3764
154.289
112.903
94.5278
102.637
70.2024
85.0568
82.4873
41.2263
14.6685
110.299
111.334
93.0877
101.01
69.2105
85.889
64.8919
65.4707
112.557
94.1816
103.144
68.7756
81.4459
82.9484
46.9462
-12.3852
162.8
112.341
93.8346
103.36
70.5352
82.6756
92.4592
49.8671
25.2045
173.012
110.948
93.7051
102.45
71.0551
84.4818
74.0247
51.0309
-17.5195
138.673
111.234
93.2711
101.369
70.7965
86.7943
62.8368
69.245
21.795
98.1895
)
;

boundaryField
{
    inlet
    {
        type            fixedFluxPressure;
        gradient        nonuniform List<scalar> 
16
(
-0.326249
-0.287945
-0.28737
-0.386308
-0.186732
-0.182293
-0.159696
-0.215869
-0.0854829
-0.0646329
-0.066384
-0.0937814
0.00479197
0.0082121
0.0137029
0.00621581
)
;
        value           nonuniform List<scalar> 
16
(
153.05
133.784
122.931
112.246
131.234
122.145
116.88
111.681
117.754
115.75
112.902
111.332
112.557
112.341
110.948
111.234
)
;
    }
    outlet
    {
        type            fixedValue;
        value           nonuniform 0();
    }
    wall
    {
        type            fixedFluxPressure;
        gradient        nonuniform List<scalar> 
66
(
0.00443641
0.00766274
0.00169375
-0.0049835
0.0203346
0.00730673
0.025441
0.0345038
0.00810402
0.0128501
0.0214321
0.0133756
0.0208014
0.025069
0.0194146
-0.0372568
-0.030942
-0.0217283
-0.1526
-0.12945
-0.152978
-0.115934
-0.148969
-0.108508
-0.00365634
0.0180998
-0.0785457
-0.148031
0.0310438
-0.0535094
0.00551641
0.00423803
0.00218864
0.00330161
0.00854552
0.0217462
0.0252615
0.0362788
0.00626481
0.0165893
0.0187892
0.00841576
0.0294809
0.0306857
0.0289007
-0.0187066
-0.000372538
0.00136568
-0.00324112
-0.0127519
-0.0999524
-0.113246
-0.264974
-0.150566
-0.250969
-0.105276
0.062076
0.0366873
0.185961
0.221363
0.332098
0.339799
-0.0296013
0.304747
0.417198
0.351267
)
;
        value           nonuniform List<scalar> 
66
(
153.054
133.788
122.935
112.251
94.9345
97.0337
94.0922
92.5718
98.7734
97.3099
98.6499
96.3931
39.0405
56.8902
66.0733
74.967
81.8204
85.303
78.7115
79.9611
67.5674
57.8933
57.5762
61.5873
57.3516
63.6157
25.5808
96.6527
77.198
102.341
153.054
131.237
117.756
112.557
94.9343
99.1231
96.5372
94.1822
98.7734
99.6558
103.17
103.144
39.0407
56.6354
64.0327
68.7753
74.9675
72.8285
81.4374
81.4457
78.7122
74.2116
94.8699
82.9463
57.8913
38.5705
48.3522
46.9468
57.3543
-0.170548
39.2852
-12.3803
96.6544
129.893
123.232
162.805
)
;
    }
    procBoundary0to1
    {
        type            processor;
        value           nonuniform List<scalar> 
12
(
14.3881
24.6749
-15.2002
-24.5762
-40.5998
-36.9198
-3.24422
-38.2648
-32.349
-46.9935
-72.6858
-58.9068
)
;
    }
    procBoundary0to2
    {
        type            processor;
        value           nonuniform List<scalar> 
44
(
68.0205
81.7414
56.3835
65.2874
24.3363
74.9183
109.1
92.4337
68.0205
99.1045
68.0205
81.7414
59.4233
59.0178
13.8013
93.3517
109.255
92.3399
99.6253
72.5059
59.4233
91.283
59.4233
59.0178
34.4797
103.941
108.774
92.4006
99.7134
72.7913
93.1468
65.9927
34.4797
77.1393
34.4797
103.941
108.683
92.2897
99.7854
73.0916
92.8815
62.396
76.0655
48.7564
)
;
    }
    procBoundary0to4
    {
        type            processor;
        value           nonuniform List<scalar> 
36
(
109.493
92.4382
100.262
70.1679
84.8642
67.5052
67.4047
10.1309
95.0354
109.92
92.5661
100.879
70.3187
87.3946
69.06
69.9883
25.8706
104.57
109.908
92.5034
101.031
71.8082
88.2752
62.7879
71.8264
16.9231
85.7594
109.86
92.8618
100.362
72.1246
89.0083
57.1992
73.7885
32.643
68.7836
)
;
    }
    procBoundary0to6
    {
        type            processor;
        value           uniform 87.1577;
    }
    procBoundary0to7
    {
        type            processor;
        value           uniform -1.15255;
    }
}


// ************************************************************************* //
