/*--------------------------------*- C++ -*----------------------------------*\
| =========                 |                                                 |
| \\      /  F ield         | OpenFOAM: The Open Source CFD Toolbox           |
|  \\    /   O peration     | Version:  4.x                                   |
|   \\  /    A nd           | Web:      www.OpenFOAM.org                      |
|    \\/     M anipulation  |                                                 |
\*---------------------------------------------------------------------------*/
FoamFile
{
    version     2.0;
    format      ascii;
    class       volScalarField;
    location    "47.5";
    object      magGField;
}
// * * * * * * * * * * * * * * * * * * * * * * * * * * * * * * * * * * * * * //

dimensions      [1 -2 -1 0 0 0 0];

internalField   nonuniform List<scalar> 
87
(
87.5229
26.4869
95.937
103.206
50.0056
105.94
92.092
26.4006
87.0886
11.8836
83.4134
1.9781
81.8788
3.54371e-05
81.1636
94.4076
30.675
90.9331
21.0739
88.2547
12.4786
86.7467
4.6806
86.0812
96.2226
39.8298
96.6793
40.8243
96.031
38.8917
95.7809
35.6521
94.6273
93.0445
31.0574
89.9913
22.0346
88.2206
14.3506
87.0398
7.51846
86.4731
94.6338
36.0522
93.1983
32.6534
92.3646
29.3324
91.563
24.8983
91.9814
95.9364
42.6356
98.3776
46.5727
99.629
48.858
101.362
50.0267
103.05
94.649
40.1618
94.9815
40.306
95.1867
40.1941
95.4277
38.38
97.0471
95.3144
42.6263
97.1858
45.8899
98.4925
47.7843
100.08
48.3756
101.426
96.3975
45.6353
100.367
53.0333
104.523
58.314
107.546
61.588
108.91
)
;

boundaryField
{
    inlet
    {
        type            calculated;
        value           uniform 67;
    }
    outlet
    {
        type            calculated;
        value           nonuniform 0();
    }
    wall
    {
        type            calculated;
        value           uniform 0;
    }
    procBoundary6to0
    {
        type            processor;
        value           uniform 88.5414;
    }
    procBoundary6to2
    {
        type            processor;
        value           nonuniform List<scalar> 
32
(
86.2128
10.9298
90.9333
102.084
46.6461
103.631
94.9573
29.0846
90.6124
18.9902
88.5172
11.1702
87.5844
4.35142
4.35142
4.35142
94.9893
34.302
93.3184
30.1098
92.9654
27.406
93.7626
93.7626
93.7626
96.5077
41.0288
98.4374
44.357
100.62
47.3717
47.3717
)
;
    }
    procBoundary6to4
    {
        type            processor;
        value           nonuniform List<scalar> 
27
(
94.4795
29.8871
89.2448
18.0691
86.4667
7.78952
84.8631
0.622833
84.4895
93.6527
31.3978
90.1581
21.8895
87.8456
14.4599
87.3694
9.03178
88.3631
93.4219
38.1543
93.9367
37.7201
94.7508
39.104
97.3044
42.3016
100.005
)
;
    }
    procBoundary6to7
    {
        type            processor;
        value           nonuniform List<scalar> 
12
(
0.132473
27.6229
50.6806
3.64755e-05
3.78293e-05
28.2164
1.2975
21.1086
50.3468
36.6816
47.8626
61.5624
)
;
    }
}


// ************************************************************************* //
