/*--------------------------------*- C++ -*----------------------------------*\
| =========                 |                                                 |
| \\      /  F ield         | OpenFOAM: The Open Source CFD Toolbox           |
|  \\    /   O peration     | Version:  4.x                                   |
|   \\  /    A nd           | Web:      www.OpenFOAM.org                      |
|    \\/     M anipulation  |                                                 |
\*---------------------------------------------------------------------------*/
FoamFile
{
    version     2.0;
    format      ascii;
    class       volScalarField;
    location    "47.5";
    object      QWallFluidCoeff;
}
// * * * * * * * * * * * * * * * * * * * * * * * * * * * * * * * * * * * * * //

dimensions      [1 -1 -3 -1 0 0 0];

internalField   nonuniform List<scalar> 
87
(
0
0
0
-2.91516e+06
-1.63272e+06
-2.97676e+06
0
0
0
0
0
0
0
0
0
0
0
0
0
0
0
0
0
0
-2.75625e+06
-1.36102e+06
-2.76671e+06
-1.38814e+06
-2.75186e+06
-1.33531e+06
-2.74613e+06
-1.24556e+06
-2.71963e+06
0
0
0
0
0
0
0
0
0
0
0
0
0
0
0
0
0
0
-2.74969e+06
-1.43719e+06
-2.80553e+06
-1.54242e+06
-2.83404e+06
-1.60268e+06
-2.87341e+06
-1.63327e+06
-2.91162e+06
-2.72013e+06
-1.37009e+06
-2.72777e+06
-1.37402e+06
-2.73249e+06
-1.37097e+06
-2.73802e+06
-1.32124e+06
-2.77513e+06
-2.73542e+06
-1.43694e+06
-2.7783e+06
-1.5243e+06
-2.80815e+06
-1.57444e+06
-2.84429e+06
-1.59001e+06
-2.87486e+06
-5.52052e+06
-3.03506e+06
-5.70163e+06
-3.42268e+06
-5.88973e+06
-3.69271e+06
-6.02564e+06
-3.85766e+06
-6.08669e+06
)
;

boundaryField
{
    inlet
    {
        type            calculated;
        value           uniform 0;
    }
    outlet
    {
        type            calculated;
        value           nonuniform 0();
    }
    wall
    {
        type            calculated;
        value           uniform 0;
    }
    procBoundary6to0
    {
        type            processor;
        value           uniform 0;
    }
    procBoundary6to2
    {
        type            processor;
        value           uniform 0;
    }
    procBoundary6to4
    {
        type            processor;
        value           uniform 0;
    }
    procBoundary6to7
    {
        type            processor;
        value           uniform 0;
    }
}


// ************************************************************************* //
