/*--------------------------------*- C++ -*----------------------------------*\
| =========                 |                                                 |
| \\      /  F ield         | OpenFOAM: The Open Source CFD Toolbox           |
|  \\    /   O peration     | Version:  4.x                                   |
|   \\  /    A nd           | Web:      www.OpenFOAM.org                      |
|    \\/     M anipulation  |                                                 |
\*---------------------------------------------------------------------------*/
FoamFile
{
    version     2.0;
    format      ascii;
    class       volScalarField;
    location    "8.5";
    object      Ksl;
}
// * * * * * * * * * * * * * * * * * * * * * * * * * * * * * * * * * * * * * //

dimensions      [1 -3 -1 0 0 0 0];

internalField   nonuniform List<scalar> 
132
(
3343.51
5811.47
2988.17
4218.46
2701.89
3565.45
2551.11
3336.91
2444.46
3371.04
6277.5
3129.4
4772.87
2890.7
4236.63
2811.3
4448.72
2925.21
3398.17
6532.14
3197.51
5174.68
3049.23
4982.36
3049.38
6367.37
3297.37
3403.72
6640.73
3186.47
3415.17
6916.14
3288.47
5947.71
3219.7
5399.47
3139.93
4958.44
2927.74
3437.17
8013.99
3491.36
8060.94
3613.79
9154.43
3658.75
10526.4
3569.52
3490.65
8626.9
3593.39
9576.78
3757.46
12171.4
3785.82
15156.5
3642.38
3523.64
8890.2
3651.68
10629.9
3881.42
3448.37
7516.91
3447.36
7075.77
3437.48
6709.82
3373.95
6083.06
3164.38
3497.76
9100.47
3677.97
11217.5
3858.99
15182.1
3924.99
19050.2
3825.21
3560.08
9971.6
3824.56
15743.8
4038.44
26353.2
4024.28
29114
3887.35
3583.21
10637
3896.83
18778.7
4088.61
33944
4066.09
3437.77
7308.07
3424.46
6806.72
3379.25
6420.89
3304.3
5799.72
3120.01
3503.53
9131.4
3694.55
11200.6
3786.72
13129.2
3809.21
14561.6
3730.51
3567.53
9612.54
3807.54
13681.5
3887.33
18034.4
3869.78
19628.3
3764.68
3552.62
10080.3
3855.94
15495.2
3920.59
19018.9
3893.43
18018.5
3821.6
)
;

boundaryField
{
    inlet
    {
        type            zeroGradient;
    }
    outlet
    {
        type            zeroGradient;
    }
    wall
    {
        type            zeroGradient;
    }
    procBoundary0to1
    {
        type            processor;
        value           nonuniform List<scalar> 
12
(
3469.25
5656.25
11274.4
4585.8
11642.3
18126.6
5325.95
19568.3
32579.6
5117.24
15129.3
20762.8
)
;
    }
    procBoundary0to2
    {
        type            processor;
        value           nonuniform List<scalar> 
44
(
5371.55
3090.82
5379.78
3177.03
7390.2
3353.73
3462.45
6716.83
5371.55
3252.95
5371.55
3090.82
14983.5
3903.89
17365
3726.82
3501.62
8484.75
3635.68
9615.47
14983.5
3784.08
14983.5
3903.89
35579.2
3953.25
3551.06
9422.76
3794.54
13307.4
3946.78
18651
35579.2
3932.53
35579.2
3953.25
3561.46
9988.29
3836.65
14423.1
3909.62
18377.9
3856.81
19169.9
)
;
    }
    procBoundary0to4
    {
        type            processor;
        value           nonuniform List<scalar> 
36
(
3417.36
7332.82
3447.17
7154.67
3464.35
6947.77
3438.7
6679.68
3326.68
3505.53
9671.67
3780.71
15495.8
3945.24
27230.6
4007.7
47633.6
4007.42
3557.55
10128.6
3875.22
16388.1
3988.61
26379.9
4010.93
50381
4033.26
3539.15
10330.6
3920.48
17744.7
4072.78
33707.1
4163.72
80311.8
4201.38
)
;
    }
    procBoundary0to6
    {
        type            processor;
        value           uniform 3759.31;
    }
    procBoundary0to7
    {
        type            processor;
        value           uniform 18246.4;
    }
}


// ************************************************************************* //
