/*--------------------------------*- C++ -*----------------------------------*\
| =========                 |                                                 |
| \\      /  F ield         | OpenFOAM: The Open Source CFD Toolbox           |
|  \\    /   O peration     | Version:  4.x                                   |
|   \\  /    A nd           | Web:      www.OpenFOAM.org                      |
|    \\/     M anipulation  |                                                 |
\*---------------------------------------------------------------------------*/
FoamFile
{
    version     2.0;
    format      ascii;
    class       volScalarField;
    location    "8.5";
    object      p;
}
// * * * * * * * * * * * * * * * * * * * * * * * * * * * * * * * * * * * * * //

dimensions      [1 -1 -2 0 0 0 0];

internalField   nonuniform List<scalar> 
132
(
5790.79
5735.99
5728.56
5681.13
5711.58
5683.19
5714.25
5670.01
5709.49
5761.67
5741.32
5733.69
5697.38
5717.88
5685.1
5715.37
5670.61
5710.11
5756.93
5728.87
5734.68
5705.3
5722.81
5687.38
5716.72
5671.37
5710.96
5747.87
5729.94
5736.26
3890.57
3859.21
3856.27
3821.71
3841.16
3808.11
3838.14
3793.49
3832.65
3880.41
3857.65
3858.45
3826.3
3844.52
3809.52
3839.3
3794.09
3833.36
3874.44
3853.63
3859
3829.6
3847.35
3811.22
3840.21
3794.63
3833.82
3870.43
3852.04
3859.66
3831.41
3849.41
1999.47
1978.23
1981.91
1951.83
1969.09
1933.59
1962.41
1917.39
1956
1997.26
1977.22
1982.71
1953.01
1970.74
1934.44
1963.42
1917.83
1956.59
1994.44
1975.65
1982.84
1954.14
1971.88
1935.42
1963.84
1918.36
1956.88
1992.7
1974.65
1983.1
1955.04
1973.13
1936.47
1964.63
116.009
97.8688
104.735
76.6056
93.8773
57.6632
85.7204
40.3607
78.627
115.928
97.7103
105.286
76.9904
94.7554
58.175
86.4992
40.5172
79.0884
114.896
97.0678
105.232
77.3334
95.1964
58.5587
86.6625
40.6884
79.1122
114.295
96.6838
105.471
77.7509
95.8762
59.2949
87.1828
41.3612
79.3968
)
;

boundaryField
{
    inlet
    {
        type            calculated;
        value           nonuniform List<scalar> 
16
(
5790.79
5761.67
5756.93
5747.87
3890.57
3880.41
3874.44
3870.43
1999.47
1997.26
1994.44
1992.7
116.009
115.928
114.896
114.295
)
;
    }
    outlet
    {
        type            calculated;
        value           nonuniform 0();
    }
    wall
    {
        type            calculated;
        value           nonuniform List<scalar> 
66
(
6729.74
6700.62
6695.89
6686.82
6674.92
6680.25
6667.8
6668.87
6667.44
6672.57
6673.55
6675.12
6619.93
6636.17
6644.05
6650.26
6656.5
6661.37
6621.69
6623.51
6625.67
6652.53
6653.52
6654.74
6608.05
6608.5
6609.19
6647.3
6647.84
6648.77
5790.79
3890.57
1999.47
116.009
5735.99
3859.21
1978.23
97.8688
5728.56
3856.27
1981.91
104.735
5681.13
3821.71
1951.83
76.6056
5711.58
3841.16
1969.09
93.8773
5683.19
3808.11
1933.59
57.6632
5714.25
3838.14
1962.41
85.7204
5670.01
3793.49
1917.39
40.3607
5709.49
3832.65
1956
78.627
)
;
    }
    procBoundary0to1
    {
        type            processor;
        value           nonuniform List<scalar> 
12
(
5653.15
5653.95
5654.33
3776.69
3777.24
3777.55
1900.62
1900.87
1901.46
22.7875
22.8702
22.9771
)
;
    }
    procBoundary0to2
    {
        type            processor;
        value           nonuniform List<scalar> 
44
(
5708.14
5725.54
5689.15
5717.83
5671.97
5711.21
5744.92
5728.17
5708.14
5736
5708.14
5725.54
3812.65
3841.09
3795.3
3833.99
3867.98
3850.74
3859.19
3831.73
3812.65
3849.84
3812.65
3841.09
1919.08
1957.08
1990.88
1973.37
1982.38
1954.99
1973.2
1936.79
1919.08
1964.76
1919.08
1957.08
113.23
95.7629
104.82
77.4741
95.7805
59.2129
87.2489
41.1948
)
;
    }
    procBoundary0to4
    {
        type            processor;
        value           nonuniform List<scalar> 
36
(
-1763.63
-1781.01
-1772.71
-1800.03
-1782.37
-1818.54
-1790.88
-1836.2
-1798.66
-1763.1
-1780.78
-1771.93
-1799.65
-1781.55
-1818.24
-1790.26
-1835.92
-1798.3
-1763.39
-1781.05
-1772.11
-1799.51
-1781.56
-1817.87
-1790.19
-1835.46
-1798.33
-1763.52
-1780.99
-1771.83
-1799.04
-1780.96
-1817.12
-1789.74
-1834.79
-1798.04
)
;
    }
    procBoundary0to6
    {
        type            processor;
        value           uniform 79.3791;
    }
    procBoundary0to7
    {
        type            processor;
        value           uniform 24.0206;
    }
}


// ************************************************************************* //
