/*--------------------------------*- C++ -*----------------------------------*\
| =========                 |                                                 |
| \\      /  F ield         | OpenFOAM: The Open Source CFD Toolbox           |
|  \\    /   O peration     | Version:  4.x                                   |
|   \\  /    A nd           | Web:      www.OpenFOAM.org                      |
|    \\/     M anipulation  |                                                 |
\*---------------------------------------------------------------------------*/
FoamFile
{
    version     2.0;
    format      ascii;
    class       volScalarField;
    location    "8.5";
    object      rho;
}
// * * * * * * * * * * * * * * * * * * * * * * * * * * * * * * * * * * * * * //

dimensions      [1 -3 0 0 0 0 0];

internalField   nonuniform List<scalar> 
132
(
6699.96
6699.82
6699.48
6698.89
6697.96
6696.72
6695.15
6693.44
6691.79
6699.97
6699.83
6699.46
6698.76
6697.62
6696.09
6694.23
6692.41
6691.22
6699.97
6699.82
6699.39
6698.53
6697.13
6695.26
6693.3
6691.9
6691.81
6699.97
6699.82
6699.36
6699.98
6699.89
6699.63
6699.1
6698.2
6696.99
6695.54
6694.12
6692.9
6699.98
6699.88
6699.55
6698.83
6697.65
6696.21
6694.87
6694.14
6694.24
6699.98
6699.86
6699.47
6698.56
6697.19
6695.76
6694.73
6694.78
6695.68
6699.99
6699.85
6699.42
6698.4
6696.89
6699.99
6699.93
6699.75
6699.36
6698.68
6697.79
6696.7
6695.65
6694.69
6699.99
6699.92
6699.68
6699.12
6698.26
6697.31
6696.52
6696.37
6696.79
6699.99
6699.91
6699.62
6698.94
6697.97
6697.1
6696.58
6696.9
6697.74
6699.99
6699.9
6699.59
6698.87
6697.85
6696.95
6696.41
6699.99
6699.96
6699.85
6699.63
6699.26
6698.76
6698.1
6697.44
6696.74
6699.99
6699.95
6699.8
6699.47
6698.96
6698.42
6697.97
6697.93
6698.25
6699.99
6699.94
6699.76
6699.35
6698.76
6698.23
6697.93
6698.14
6698.71
6699.99
6699.93
6699.73
6699.27
6698.61
6698.03
6697.66
6697.76
6698.19
)
;

boundaryField
{
    inlet
    {
        type            calculated;
        value           uniform 6700;
    }
    outlet
    {
        type            calculated;
        value           nonuniform 0();
    }
    wall
    {
        type            calculated;
        value           nonuniform List<scalar> 
66
(
6699.96
6699.97
6699.97
6699.97
6699.82
6699.83
6699.82
6699.82
6699.48
6699.46
6699.39
6699.36
6698.89
6698.76
6698.53
6697.96
6697.62
6697.13
6696.72
6696.09
6695.26
6695.15
6694.23
6693.3
6693.44
6692.41
6691.9
6691.79
6691.22
6691.81
6699.96
6699.98
6699.99
6699.99
6699.82
6699.89
6699.93
6699.96
6699.48
6699.63
6699.75
6699.85
6698.89
6699.1
6699.36
6699.63
6697.96
6698.2
6698.68
6699.26
6696.72
6696.99
6697.79
6698.76
6695.15
6695.54
6696.7
6698.1
6693.44
6694.12
6695.65
6697.44
6691.79
6692.9
6694.69
6696.74
)
;
    }
    procBoundary0to1
    {
        type            processor;
        value           nonuniform List<scalar> 
12
(
6690.53
6691.12
6693.31
6692.08
6695.49
6697.5
6694.1
6697.93
6699.02
6696.26
6699.02
6699.57
)
;
    }
    procBoundary0to2
    {
        type            processor;
        value           nonuniform List<scalar> 
44
(
6698.44
6696.92
6694.92
6693
6691.93
6692.33
6699.97
6699.82
6698.44
6699.38
6698.44
6696.92
6695.38
6694.38
6694.53
6695.46
6699.99
6699.87
6699.51
6698.65
6695.38
6697.27
6695.38
6694.38
6696.68
6697.38
6699.99
6699.92
6699.67
6699.08
6698.17
6697.28
6696.68
6696.65
6696.68
6697.38
6699.99
6699.95
6699.79
6699.44
6698.93
6698.44
6698.12
6698.24
)
;
    }
    procBoundary0to4
    {
        type            processor;
        value           nonuniform List<scalar> 
36
(
6700
6699.97
6699.89
6699.72
6699.45
6699.11
6698.7
6698.31
6697.93
6700
6699.96
6699.83
6699.54
6699.11
6698.71
6698.52
6698.71
6699.32
6699.99
6699.95
6699.81
6699.48
6699.03
6698.62
6698.46
6698.7
6699.28
6699.99
6699.95
6699.8
6699.46
6698.98
6698.55
6698.36
6698.58
6699.14
)
;
    }
    procBoundary0to6
    {
        type            processor;
        value           uniform 6698.68;
    }
    procBoundary0to7
    {
        type            processor;
        value           uniform 6698.89;
    }
}


// ************************************************************************* //
