/*--------------------------------*- C++ -*----------------------------------*\
| =========                 |                                                 |
| \\      /  F ield         | OpenFOAM: The Open Source CFD Toolbox           |
|  \\    /   O peration     | Version:  4.x                                   |
|   \\  /    A nd           | Web:      www.OpenFOAM.org                      |
|    \\/     M anipulation  |                                                 |
\*---------------------------------------------------------------------------*/
FoamFile
{
    version     2.0;
    format      ascii;
    class       volScalarField;
    location    "8.5";
    object      SPartFluid;
}
// * * * * * * * * * * * * * * * * * * * * * * * * * * * * * * * * * * * * * //

dimensions      [1 -3 -1 0 0 0 0];

internalField   nonuniform List<scalar> 
132
(
4.03e-65
3.64239e-65
3.09983e-65
2.86729e-65
3.79729e-65
4.02972e-65
4.8822e-65
3.48722e-65
1.70481e-65
4.88248e-65
4.64986e-65
4.64976e-65
5.11463e-65
3.17721e-65
5.81195e-65
4.26208e-65
4.64949e-65
4.26195e-65
2.71248e-65
5.34733e-65
4.72727e-65
4.72714e-65
4.26211e-65
4.33952e-65
3.25457e-65
4.18443e-65
7.2065e-65
2.86751e-65
4.4174e-65
3.2549e-65
4.185e-65
6.66481e-65
8.05959e-65
7.05197e-65
6.81943e-65
7.12932e-65
6.27689e-65
6.43178e-65
6.1993e-65
5.42496e-65
7.98225e-65
6.27713e-65
7.20686e-65
7.28421e-65
7.12914e-65
6.5091e-65
7.74884e-65
6.74145e-65
5.88998e-65
8.13723e-65
6.81955e-65
6.27689e-65
6.66419e-65
6.58662e-65
8.29122e-65
6.04399e-65
4.95915e-65
8.05996e-65
6.12233e-65
6.1221e-65
4.57203e-65
9.14391e-65
5.96748e-65
6.81985e-65
7.28462e-65
6.81944e-65
6.58689e-65
5.19189e-65
7.05161e-65
6.89659e-65
4.72688e-65
6.43246e-65
7.05231e-65
6.74208e-65
5.57946e-65
7.36161e-65
5.73416e-65
7.3613e-65
8.83354e-65
6.27644e-65
7.67245e-65
6.2773e-65
6.58704e-65
8.21411e-65
7.82644e-65
7.36127e-65
7.4386e-65
6.19872e-65
4.5716e-65
7.28495e-65
7.5947e-65
7.67192e-65
7.98167e-65
8.36884e-65
7.12882e-65
7.12859e-65
4.57252e-65
4.88237e-65
5.73475e-65
5.34708e-65
6.1219e-65
7.74908e-65
4.8044e-65
4.10693e-65
4.95934e-65
5.50248e-65
8.13727e-65
7.28458e-65
6.74187e-65
5.81176e-65
5.6566e-65
8.36859e-65
6.58632e-65
5.50148e-65
4.57245e-65
4.95978e-65
7.2845e-65
5.73435e-65
7.28397e-65
8.05856e-65
6.74116e-65
5.1139e-65
8.05832e-65
5.26997e-65
5.88979e-65
7.82694e-65
9.2215e-65
4.41688e-65
9.22087e-65
7.12855e-65
5.42382e-65
2.32445e-65
)
;

boundaryField
{
    inlet
    {
        type            calculated;
        value           uniform 0;
    }
    outlet
    {
        type            calculated;
        value           nonuniform 0();
    }
    wall
    {
        type            calculated;
        value           uniform 0;
    }
    procBoundary0to1
    {
        type            processor;
        value           nonuniform List<scalar> 
12
(
3.71967e-65
3.64205e-65
3.48697e-65
6.43177e-65
7.51645e-65
8.13601e-65
7.05159e-65
7.67117e-65
7.90341e-65
6.58657e-65
7.05126e-65
5.7338e-65
)
;
    }
    procBoundary0to2
    {
        type            processor;
        value           nonuniform List<scalar> 
44
(
6.50958e-65
4.88212e-65
2.55717e-65
4.88189e-65
2.24715e-65
2.63459e-65
5.735e-65
6.50988e-65
6.50958e-65
5.11482e-65
6.50958e-65
4.88212e-65
8.44629e-65
9.7634e-65
5.73399e-65
9.37578e-65
5.42498e-65
6.81984e-65
7.67208e-65
7.74937e-65
8.44629e-65
7.05175e-65
8.44629e-65
9.7634e-65
7.59342e-65
7.98085e-65
7.28496e-65
4.95986e-65
5.50213e-65
6.12191e-65
5.57929e-65
7.12888e-65
7.59342e-65
8.36857e-65
7.59342e-65
7.98085e-65
4.80495e-65
8.1372e-65
8.36943e-65
6.50936e-65
6.43166e-65
6.27647e-65
6.27634e-65
7.74843e-65
)
;
    }
    procBoundary0to4
    {
        type            processor;
        value           nonuniform List<scalar> 
36
(
5.1925e-65
7.36237e-65
7.5172e-65
5.57963e-65
5.96694e-65
5.65688e-65
7.59406e-65
6.74159e-65
8.91133e-65
7.74996e-65
6.35484e-65
7.28456e-65
8.52426e-65
8.21402e-65
7.51645e-65
6.354e-65
5.42405e-65
9.06592e-65
6.97494e-65
8.75722e-65
6.43208e-65
8.52417e-65
6.97404e-65
5.96652e-65
6.12136e-65
9.68561e-65
5.65638e-65
4.33996e-65
5.73481e-65
7.59447e-65
5.19195e-65
7.36144e-65
6.04398e-65
9.53067e-65
5.9663e-65
5.96625e-65
)
;
    }
    procBoundary0to6
    {
        type            processor;
        value           uniform 6.7411e-65;
    }
    procBoundary0to7
    {
        type            processor;
        value           uniform 9.91783e-65;
    }
}


// ************************************************************************* //
