/*--------------------------------*- C++ -*----------------------------------*\
| =========                 |                                                 |
| \\      /  F ield         | OpenFOAM: The Open Source CFD Toolbox           |
|  \\    /   O peration     | Version:  4.x                                   |
|   \\  /    A nd           | Web:      www.OpenFOAM.org                      |
|    \\/     M anipulation  |                                                 |
\*---------------------------------------------------------------------------*/
FoamFile
{
    version     2.0;
    format      ascii;
    class       volScalarField;
    location    "1";
    object      QPartFluidCoeff;
}
// * * * * * * * * * * * * * * * * * * * * * * * * * * * * * * * * * * * * * //

dimensions      [1 -1 -3 -1 0 0 0];

internalField   nonuniform List<scalar> 
108
(
-1.65828e+07
-2.51072e+07
-3.04065e+07
-2.2794e+07
-2.85919e+07
-2.48882e+07
-3.56177e+07
-2.99597e+07
-4.12234e+07
-2.3352e+07
-2.47388e+07
-3.06922e+07
-3.25822e+07
-3.26628e+07
-2.77932e+07
-2.50651e+07
-1.88096e+07
-3.72957e+07
-2.19382e+07
-3.39991e+07
-2.48353e+07
-2.84881e+07
-2.3113e+07
-1.7784e+07
-1.92727e+07
-2.82362e+07
-1.71323e+07
-1.14091e+07
-2.2361e+07
-2.99058e+07
-1.79267e+07
-2.36949e+07
-2.00473e+07
-3.17616e+07
-1.69744e+07
-1.95239e+07
-1.7071e+07
-1.92912e+07
-2.91127e+07
-3.18277e+07
-3.36816e+07
-2.62829e+07
-2.31101e+07
-3.45093e+07
-3.31697e+07
-2.09154e+07
-2.63091e+07
-2.66723e+07
-2.60558e+07
-2.6575e+07
-2.32992e+07
-2.88508e+07
-3.21662e+07
-3.45971e+07
-1.39702e+07
-2.52302e+07
-3.42689e+07
-2.88694e+07
-2.96271e+07
-2.48952e+07
-2.59618e+07
-2.32528e+07
-2.64868e+07
-2.10147e+07
-2.97259e+07
-2.60771e+07
-3.42835e+07
-3.56195e+07
-2.5482e+07
-3.65388e+07
-2.92767e+07
-2.63832e+07
-1.52113e+07
-2.02453e+07
-1.66265e+07
-2.23862e+07
-2.4611e+07
-3.06058e+07
-3.20762e+07
-3.17236e+07
-3.77686e+07
-1.64336e+07
-3.15296e+07
-2.44642e+07
-2.41112e+07
-2.85762e+07
-2.97922e+07
-2.94658e+07
-2.63537e+07
-3.61078e+07
-1.64752e+07
-2.72877e+07
-2.96223e+07
-2.85348e+07
-2.54988e+07
-2.74505e+07
-2.94033e+07
-3.38438e+07
-2.81744e+07
-2.54629e+07
-2.49933e+07
-2.45008e+07
-3.29011e+07
-3.35873e+07
-3.91436e+07
-1.98914e+07
-2.03559e+07
-3.05635e+07
)
;

boundaryField
{
    inlet
    {
        type            calculated;
        value           uniform 0;
    }
    outlet
    {
        type            calculated;
        value           nonuniform 0();
    }
    wall
    {
        type            calculated;
        value           uniform 0;
    }
    procBoundary4to0
    {
        type            processor;
        value           nonuniform List<scalar> 
36
(
327.788
406.054
555.313
455.984
621.898
749.418
545.263
410.764
553.56
386.181
745.794
693.54
620.502
548.221
456.847
742.128
536.103
519.129
380.981
413.936
626.703
396.129
542.534
512.641
497.399
333.847
573.427
353.699
490.476
672.913
678.852
350.2
484.057
538.356
345.718
165.593
)
;
    }
    procBoundary4to5
    {
        type            processor;
        value           nonuniform List<scalar> 
12
(
706.259
661.709
534.414
614.131
1075.98
558.897
672.143
306.953
296.844
676.965
632.713
739.168
)
;
    }
    procBoundary4to6
    {
        type            processor;
        value           nonuniform List<scalar> 
27
(
733.794
656.997
410.693
519.491
675.093
335.883
558.92
400.213
556.297
578.135
708.383
746.425
630.997
484.76
518.155
549.266
418.919
670.672
353.919
444.909
600.137
614.349
610.446
581.928
905.16
790.645
413.319
)
;
    }
}


// ************************************************************************* //
