/*--------------------------------*- C++ -*----------------------------------*\
| =========                 |                                                 |
| \\      /  F ield         | OpenFOAM: The Open Source CFD Toolbox           |
|  \\    /   O peration     | Version:  4.x                                   |
|   \\  /    A nd           | Web:      www.OpenFOAM.org                      |
|    \\/     M anipulation  |                                                 |
\*---------------------------------------------------------------------------*/
FoamFile
{
    version     2.0;
    format      ascii;
    class       volScalarField;
    location    "1";
    object      rho;
}
// * * * * * * * * * * * * * * * * * * * * * * * * * * * * * * * * * * * * * //

dimensions      [1 -3 0 0 0 0 0];

internalField   nonuniform List<scalar> 
108
(
6698.93
6698
6697.6
6697.62
6697.8
6698.09
6698.5
6698.91
6699.43
6698.73
6698.03
6697.84
6698.08
6698.57
6699.43
6700.4
6701.03
6702.13
6698.72
6697.8
6697.61
6697.96
6698.62
6699.43
6700.57
6701.53
6702.53
6698.73
6697.75
6697.63
6697.94
6698.51
6699.31
6700.29
6701.3
6701.91
6699.02
6698.3
6698.01
6697.97
6698.07
6698.3
6698.61
6698.93
6699.29
6698.97
6698.26
6698.08
6698.23
6698.78
6699.68
6700.36
6700.84
6702.02
6698.91
6698.12
6697.88
6698.14
6698.74
6699.73
6700.66
6701.31
6702.06
6698.85
6698.14
6697.98
6698.02
6698.46
6699.3
6699.96
6700.87
6701.64
6698.67
6697.95
6697.83
6697.88
6697.99
6698.13
6698.31
6698.46
6698.63
6698.6
6697.88
6697.78
6697.92
6698.15
6698.43
6698.73
6699.01
6699.35
6698.7
6697.96
6697.76
6697.85
6698
6698.25
6698.63
6699.05
6699.55
6698.71
6698.03
6697.87
6697.85
6697.98
6698.25
6698.6
6698.95
6699.36
)
;

boundaryField
{
    inlet
    {
        type            calculated;
        value           uniform 6700;
    }
    outlet
    {
        type            calculated;
        value           nonuniform 0();
    }
    wall
    {
        type            calculated;
        value           nonuniform List<scalar> 
63
(
6698.67
6698.6
6698.7
6698.71
6697.95
6697.88
6697.96
6698.03
6697.83
6697.78
6697.76
6697.87
6697.88
6697.92
6697.85
6697.85
6697.99
6698.15
6698
6697.98
6698.13
6698.43
6698.25
6698.25
6698.31
6698.73
6698.63
6698.6
6698.46
6699.01
6699.05
6698.95
6698.63
6699.35
6699.55
6699.36
6698.93
6699.02
6698.67
6698
6698.3
6697.95
6697.6
6698.01
6697.83
6697.62
6697.97
6697.88
6697.8
6698.07
6697.99
6698.09
6698.3
6698.13
6698.5
6698.61
6698.31
6698.91
6698.93
6698.46
6699.43
6699.29
6698.63
)
;
    }
    procBoundary4to0
    {
        type            processor;
        value           nonuniform List<scalar> 
36
(
6698.49
6697.06
6696.48
6696.7
6697
6697.41
6697.93
6698.48
6699.19
6698.38
6697.17
6696.91
6697.66
6698.3
6699.15
6700.31
6701.44
6702.44
6698.28
6696.89
6696.77
6697.87
6698.2
6699.29
6700.66
6702
6702.9
6698.13
6696.48
6696.61
6697.48
6698.33
6698.79
6700.01
6701.04
6702.09
)
;
    }
    procBoundary4to5
    {
        type            processor;
        value           nonuniform List<scalar> 
12
(
6699.91
6703.45
6703.7
6702.31
6699.64
6703.07
6702.91
6701.76
6698.77
6699.66
6700
6699.7
)
;
    }
    procBoundary4to6
    {
        type            processor;
        value           nonuniform List<scalar> 
27
(
6698.72
6698
6697.84
6697.99
6698.51
6699.84
6700.76
6701.69
6702.35
6698.83
6698.13
6697.95
6698.07
6698.7
6699.74
6700.68
6701.61
6702.04
6698.71
6698.12
6697.94
6697.88
6697.94
6698.18
6698.54
6699.02
6699.52
)
;
    }
}


// ************************************************************************* //
