/*--------------------------------*- C++ -*----------------------------------*\
| =========                 |                                                 |
| \\      /  F ield         | OpenFOAM: The Open Source CFD Toolbox           |
|  \\    /   O peration     | Version:  4.x                                   |
|   \\  /    A nd           | Web:      www.OpenFOAM.org                      |
|    \\/     M anipulation  |                                                 |
\*---------------------------------------------------------------------------*/
FoamFile
{
    version     2.0;
    format      ascii;
    class       volScalarField;
    location    "1";
    object      thCond;
}
// * * * * * * * * * * * * * * * * * * * * * * * * * * * * * * * * * * * * * //

dimensions      [1 1 -3 -1 0 0 0];

internalField   nonuniform List<scalar> 
108
(
191.966
191.523
191.204
191.183
191.028
190.966
190.768
190.637
190.298
191.546
191.347
191.035
190.757
190.668
190.67
190.653
190.564
190.172
191.473
191.088
190.917
190.591
190.575
190.57
190.447
190.191
190.322
191.518
191.192
190.833
190.713
190.506
190.391
190.083
190.331
190.329
191.908
191.607
191.167
190.868
190.809
190.823
190.824
190.428
190.257
191.667
191.309
191.073
190.812
190.716
190.623
190.502
190.256
190.101
191.587
191.132
190.747
190.52
190.425
190.381
190.264
190.185
190.141
191.203
190.957
190.774
190.347
190.212
190.2
189.975
190.083
190.155
191.915
191.508
191.405
190.976
190.859
190.559
190.547
190.377
190.318
191.66
191.088
191.14
190.907
190.736
190.497
190.472
190.386
190.171
191.497
190.99
190.779
190.537
190.561
190.352
190.345
190.216
190.216
191.095
190.95
190.816
190.373
190.261
190.026
190.369
190.414
190.247
)
;

boundaryField
{
    inlet
    {
        type            zeroGradient;
    }
    outlet
    {
        type            zeroGradient;
    }
    wall
    {
        type            zeroGradient;
    }
    procBoundary4to0
    {
        type            processor;
        value           nonuniform List<scalar> 
36
(
192.353
192.009
191.67
191.564
191.355
191.154
191.285
191.345
191.167
192.022
191.576
191.353
191.244
191.169
191.058
190.827
190.944
190.86
191.965
191.652
191.207
191.076
190.883
190.726
190.719
190.846
190.625
191.803
191.476
191.008
190.758
190.946
190.634
190.569
190.787
190.893
)
;
    }
    procBoundary4to5
    {
        type            processor;
        value           nonuniform List<scalar> 
12
(
190.405
190.199
190.048
189.9
190.142
190.177
189.997
190.211
190.73
190.321
190.161
190.079
)
;
    }
    procBoundary4to6
    {
        type            processor;
        value           nonuniform List<scalar> 
27
(
190.909
190.943
190.959
190.587
190.307
190.441
190.188
190.285
190.13
191.01
190.878
190.696
190.471
190.461
190.342
190.178
190.25
190.06
191.425
191.209
190.893
190.535
190.381
190.271
190.073
190.144
190.443
)
;
    }
}


// ************************************************************************* //
