LIGGGHTS (Version LIGGGHTS-PFM 24.01, compiled 2025-01-17-18:01:04 by ht45454, git commit d075b97762ce4302707903718dda170920e630bd, based on LAMMPS 23 Nov 2013)
echo            both
log             ../log/log.liggghts_run
