/*--------------------------------*- C++ -*----------------------------------*\
| =========                 |                                                 |
| \\      /  F ield         | OpenFOAM: The Open Source CFD Toolbox           |
|  \\    /   O peration     | Version:  4.x                                   |
|   \\  /    A nd           | Web:      www.OpenFOAM.org                      |
|    \\/     M anipulation  |                                                 |
\*---------------------------------------------------------------------------*/
FoamFile
{
    version     2.0;
    format      ascii;
    class       volVectorField;
    location    "56.5";
    object      DDtUrel;
}
// * * * * * * * * * * * * * * * * * * * * * * * * * * * * * * * * * * * * * //

dimensions      [0 1 -2 0 0 0 0];

internalField   nonuniform List<vector> 
108
(
(0.000170834 -1.63085e-06 2.57765e-05)
(9.40361e-05 -5.2857e-06 1.19082e-05)
(8.46844e-05 -1.93477e-05 1.01722e-05)
(-7.23252e-05 -4.37363e-05 -3.12623e-05)
(-0.000131394 -5.02773e-05 -5.8863e-05)
(-0.000489085 -9.26667e-05 -0.000208429)
(-0.000750695 -7.13337e-05 -0.000344611)
(-0.00178189 -0.000272033 -0.000754366)
(-0.00304899 -0.000471723 -0.00115847)
(0.000132896 -8.68391e-06 3.48792e-05)
(5.41752e-05 -6.75283e-06 2.15026e-05)
(1.18945e-05 -5.80841e-06 2.35896e-05)
(-0.000121589 6.72815e-07 -1.48284e-05)
(-0.000250174 1.02537e-05 -5.40595e-05)
(-0.000517673 3.02656e-05 -0.000184609)
(-0.000923969 5.65516e-05 -0.000366274)
(-0.00162681 0.000133046 -0.000666164)
(-0.00245303 0.000214533 -0.000951379)
(0.000194085 -1.79303e-05 3.80958e-05)
(0.000109211 -1.19454e-05 3.34238e-05)
(9.61947e-05 -3.57276e-06 3.00152e-05)
(-5.27456e-05 3.58142e-05 1.15059e-06)
(-8.8779e-05 4.5187e-05 -4.33187e-05)
(-0.000439804 0.000128984 -0.000184599)
(-0.000664431 0.000123075 -0.000391334)
(-0.00185023 0.00048983 -0.000813058)
(-0.00328613 0.000766422 -0.0010999)
(0.000233559 -4.24974e-05 3.87845e-05)
(0.000140016 -4.43991e-05 3.48532e-05)
(0.000119645 -2.89594e-05 2.88291e-05)
(-2.50277e-05 -2.23148e-06 -4.24862e-07)
(-5.9836e-05 3.67061e-05 -4.79535e-05)
(-0.000422709 8.83962e-05 -0.000188258)
(-0.000659774 0.00016967 -0.000456773)
(-0.00200121 0.000348082 -0.00112637)
(-0.00364265 0.000325318 -0.00144943)
(0.000107443 1.29908e-06 2.01889e-05)
(4.51185e-05 -2.36641e-06 7.89189e-06)
(2.14045e-05 -9.57952e-06 5.66511e-06)
(-9.95373e-05 -1.77472e-05 -3.17029e-05)
(-0.000196252 -2.75406e-05 -5.85334e-05)
(-0.000482043 -3.6684e-05 -0.000186637)
(-0.000804318 -5.22812e-05 -0.000313026)
(-0.00154105 -9.19751e-05 -0.000740855)
(-0.00246151 -0.000137684 -0.0010878)
(9.10175e-05 -6.6886e-06 2.38745e-05)
(3.67928e-05 -5.93413e-06 1.27934e-05)
(-5.8362e-06 -6.13998e-06 7.31537e-06)
(-0.000109861 2.25279e-06 -2.65786e-05)
(-0.000234822 9.52157e-06 -6.61492e-05)
(-0.000484394 4.19342e-05 -0.000185863)
(-0.000862292 7.61815e-05 -0.000350025)
(-0.00149368 0.000228445 -0.000679859)
(-0.00222629 0.00041142 -0.00102543)
(0.000141938 -2.08035e-05 2.56404e-05)
(7.54411e-05 -1.25193e-05 1.02796e-05)
(7.22204e-05 -1.26954e-05 1.15853e-05)
(-5.37951e-05 2.35965e-05 -3.42782e-05)
(-8.39431e-05 3.05148e-05 -5.73789e-05)
(-0.000407367 0.000128415 -0.000218291)
(-0.000634857 0.00015218 -0.000368139)
(-0.00171576 0.000564752 -0.00093201)
(-0.00295103 0.000887551 -0.00146271)
(0.000170711 -3.92356e-05 2.3892e-05)
(9.23008e-05 -3.89826e-05 7.41608e-06)
(8.28875e-05 -2.86577e-05 6.50777e-06)
(-4.62296e-05 -3.53478e-06 -3.63059e-05)
(-6.54766e-05 3.09979e-05 -5.98995e-05)
(-0.000390326 9.80882e-05 -0.000211282)
(-0.000569387 0.000189436 -0.000405677)
(-0.00179766 0.000399736 -0.00114953)
(-0.0032976 0.000375147 -0.0016924)
(4.86306e-05 -3.09045e-07 1.31736e-05)
(3.10047e-06 -3.06366e-06 2.74337e-06)
(-3.68044e-05 -7.6922e-06 -3.42097e-06)
(-0.000130101 -1.3424e-05 -3.02159e-05)
(-0.000257164 -1.54822e-05 -5.41662e-05)
(-0.000481977 -2.42004e-05 -0.000146493)
(-0.000830464 -1.95317e-05 -0.000249338)
(-0.00130226 -6.8369e-05 -0.000550128)
(-0.00191872 -0.000107107 -0.000808307)
(4.28542e-05 -6.16936e-06 1.28719e-05)
(5.17559e-06 -6.14015e-06 3.81465e-06)
(-4.25066e-05 -3.29231e-06 -3.5677e-06)
(-0.000126011 2.61798e-06 -2.80261e-05)
(-0.000253616 1.6573e-05 -5.84787e-05)
(-0.000467794 4.09154e-05 -0.000148996)
(-0.000823413 8.18263e-05 -0.000274613)
(-0.00128407 0.000189323 -0.000516856)
(-0.001868 0.000301169 -0.000762018)
(7.18804e-05 -1.89176e-05 1.06826e-05)
(2.38196e-05 -1.37559e-05 1.8609e-06)
(-7.22289e-06 -8.47615e-06 -4.84004e-06)
(-9.99359e-05 1.30036e-05 -3.45517e-05)
(-0.000189813 3.2543e-05 -6.68723e-05)
(-0.000429873 0.000100323 -0.000178791)
(-0.000753088 0.000154177 -0.000310904)
(-0.00142577 0.000431575 -0.000682237)
(-0.00226185 0.000664015 -0.00104482)
(8.88147e-05 -3.35088e-05 1.06771e-05)
(2.80574e-05 -2.79782e-05 -1.20909e-08)
(2.53607e-06 -2.23729e-05 -4.71094e-06)
(-9.68937e-05 5.49726e-06 -3.90478e-05)
(-0.000162572 3.15102e-05 -6.77369e-05)
(-0.000411576 9.41386e-05 -0.000180613)
(-0.000663024 0.000168487 -0.000323157)
(-0.00153826 0.000344232 -0.000750886)
(-0.0026502 0.000423596 -0.00116723)
)
;

boundaryField
{
    inlet
    {
        type            calculated;
        value           nonuniform 0();
    }
    outlet
    {
        type            calculated;
        value           nonuniform List<vector> 
12
(
(-0.0098994 -0.00386558 -0.00255373)
(-0.00144789 0.000287143 -0.000559361)
(-0.0104242 0.00433326 -0.000302734)
(-0.0111101 -0.00125191 -0.00282227)
(-0.0060052 -0.000360198 -0.00290122)
(-0.0020616 0.00216935 -0.00164896)
(-0.00919561 0.00601547 -0.00620913)
(-0.0101439 -0.00127021 -0.0065066)
(-0.00291124 -0.00096952 -0.00239477)
(-0.00176506 0.000307418 -0.000802584)
(-0.00326742 0.00305836 -0.00269508)
(-0.00643425 0.000520398 -0.00257314)
)
;
    }
    wall
    {
        type            calculated;
        value           nonuniform List<vector> 
63
(
(0.000741943 -3.19284e-05 6.44455e-05)
(0.000165634 -7.19424e-06 0.000136477)
(0.00067757 1.59955e-05 0.000105957)
(0.000806972 -0.000131277 0.000108112)
(0.000128353 -2.78734e-05 -1.15542e-05)
(-0.000300788 5.21325e-06 -9.03124e-06)
(5.43925e-05 6.54808e-05 0.000132232)
(0.000143501 -0.000216703 0.000130042)
(0.00096226 -0.000111276 0.000149978)
(-0.000118947 1.17363e-05 0.000226115)
(0.00079676 8.64146e-06 0.000192227)
(0.000706988 -0.000144112 0.000168765)
(-0.000239146 -0.000356788 -4.994e-05)
(-0.000534925 1.43207e-05 2.50635e-05)
(-0.000289293 0.00039496 0.000213781)
(-0.000231397 -0.000154066 0.000163769)
(0.0012743 -0.000191854 0.000375458)
(-0.000704865 5.7275e-05 0.000260683)
(0.00132217 -1.78748e-05 0.000360519)
(0.00110885 -1.26608e-05 0.000274925)
(-0.00089686 -0.000791884 -0.000306609)
(-0.0004965 4.80615e-05 5.7597e-05)
(-0.000762431 0.000848283 0.000141833)
(-0.00087745 -0.000161328 0.000286395)
(0.0022192 0.000432439 0.00052603)
(-0.00147624 2.18443e-05 -2.26318e-05)
(0.00314002 -0.00111256 0.000358005)
(0.00265652 -6.32202e-05 0.000485873)
(-0.00182699 -0.00172148 -0.000669402)
(-0.000475409 -2.80936e-05 4.79542e-05)
(-0.0016743 0.00207884 -0.000376161)
(-0.00211522 0.000408267 -0.00313819)
(-0.0098994 -0.00386558 -0.00255373)
(-0.00144789 0.000287143 -0.000559361)
(-0.0104242 0.00433326 -0.000302734)
(-0.0111101 -0.00125191 -0.00282227)
(0.000806972 -0.000131277 0.000108112)
(0.000547038 -0.000112453 7.03126e-05)
(0.000127636 -0.000101596 3.93457e-05)
(0.000143501 -0.000216703 0.000130042)
(-2.8882e-05 -0.000169836 -0.000113037)
(-0.000195893 -5.55833e-05 -1.01123e-05)
(0.000706988 -0.000144112 0.000168765)
(0.000637245 -0.000143667 9.28673e-05)
(8.88016e-05 -0.000138548 8.07979e-05)
(-0.000231397 -0.000154066 0.000163769)
(-0.000289499 -0.0001486 -0.000206376)
(-0.000276175 2.67505e-05 -7.37974e-05)
(0.00110885 -1.26608e-05 0.000274925)
(0.00126225 -9.14951e-05 0.000333926)
(0.000318389 -6.23742e-05 0.000118998)
(-0.00087745 -0.000161328 0.000286395)
(-0.000646006 -3.18608e-05 -0.000214803)
(-0.000326331 0.000115958 -0.000131975)
(0.00265652 -6.32202e-05 0.000485873)
(0.00359196 4.26766e-05 0.00116325)
(0.00146385 -3.7396e-05 0.000443687)
(-0.00211522 0.000408267 -0.00313819)
(-0.00133964 0.000983217 -0.00375913)
(-0.000762395 0.000594452 -0.000657387)
(-0.0111101 -0.00125191 -0.00282227)
(-0.0101439 -0.00127021 -0.0065066)
(-0.00643425 0.000520398 -0.00257314)
)
;
    }
    procBoundary3to1
    {
        type            processor;
        value           nonuniform List<vector> 
27
(
(0.000167075 1.87706e-05 2.07203e-05)
(9.99963e-05 1.15009e-05 9.54682e-07)
(9.04167e-05 -1.64615e-06 -2.40081e-06)
(-4.47492e-05 -3.07457e-05 -5.57911e-05)
(-9.07296e-05 -4.91059e-05 -7.66267e-05)
(-0.000436368 -0.000110695 -0.000236409)
(-0.000679888 -0.000147852 -0.000349317)
(-0.00191344 -0.000384868 -0.000889662)
(-0.00333701 -0.000594748 -0.00140809)
(0.000100483 1.27811e-05 1.94066e-05)
(5.02124e-05 5.72749e-06 4.73868e-06)
(1.55764e-05 -1.52244e-06 -4.14263e-06)
(-8.77564e-05 -1.96907e-05 -3.79179e-05)
(-0.000203706 -3.79745e-05 -7.22199e-05)
(-0.000474658 -7.48295e-05 -0.000191656)
(-0.000845266 -0.000124984 -0.000336754)
(-0.00160961 -0.000251406 -0.000782312)
(-0.00246788 -0.000359135 -0.00113367)
(5.07848e-05 1.1179e-05 1.00064e-05)
(8.36587e-06 4.217e-06 1.56768e-06)
(-2.95983e-05 -1.59825e-07 -6.98539e-06)
(-0.000122452 -1.70209e-05 -3.111e-05)
(-0.000244454 -2.94364e-05 -5.66192e-05)
(-0.00047803 -7.00282e-05 -0.000144463)
(-0.000828286 -0.000100993 -0.000238789)
(-0.00135246 -0.000254841 -0.00052068)
(-0.0020332 -0.000361179 -0.000777054)
)
;
    }
    procBoundary3to2
    {
        type            processor;
        value           nonuniform List<vector> 
12
(
(0.000170372 -3.90738e-06 2.91031e-05)
(0.000147236 -1.09016e-05 3.27956e-05)
(0.000199483 -1.72722e-05 3.60366e-05)
(0.00024692 -3.96066e-05 3.60769e-05)
(0.000109439 1.9765e-07 2.16126e-05)
(0.00010408 -8.3753e-06 2.55247e-05)
(0.000140594 -1.86961e-05 2.42864e-05)
(0.000178095 -3.67792e-05 2.27866e-05)
(6.13615e-05 6.56864e-07 1.31892e-05)
(6.25377e-05 -7.8219e-06 1.57018e-05)
(8.1317e-05 -1.94034e-05 1.47513e-05)
(9.92093e-05 -3.09642e-05 1.36364e-05)
)
;
    }
    procBoundary3to7
    {
        type            processor;
        value           nonuniform List<vector> 
36
(
(1.43381e-05 1.28331e-06 7.30115e-06)
(-2.18826e-05 -1.85693e-06 6.87149e-07)
(-6.8624e-05 -4.49344e-06 -2.94429e-06)
(-0.000147147 -9.93192e-06 -1.35804e-05)
(-0.000274844 -1.26851e-05 -2.84005e-05)
(-0.0004693 -1.68157e-05 -7.15253e-05)
(-0.000798009 -2.80046e-05 -0.000122353)
(-0.00114804 -6.92749e-06 -0.00024806)
(-0.00164052 9.55418e-06 -0.000361459)
(2.17294e-05 -9.82739e-06 4.42201e-06)
(-1.61239e-05 -6.88599e-06 -1.4936e-06)
(-6.39765e-05 -5.77262e-06 -5.87903e-06)
(-0.000140059 1.32948e-06 -2.16564e-05)
(-0.00026262 6.71223e-06 -4.01184e-05)
(-0.000455007 4.23714e-05 -9.19921e-05)
(-0.000766832 6.39919e-05 -0.000157944)
(-0.00117396 0.00022622 -0.000274251)
(-0.00171696 0.000351924 -0.000415656)
(5.29664e-05 -1.9758e-05 7.68199e-07)
(1.83467e-07 -1.03838e-05 -9.38987e-06)
(-2.33225e-05 -1.16142e-05 -1.49082e-05)
(-0.000119313 1.06045e-05 -3.61716e-05)
(-0.00019927 8.05448e-06 -5.4128e-05)
(-0.000434671 6.98996e-05 -0.000121876)
(-0.000702785 8.7769e-05 -0.00018541)
(-0.00131577 0.000304155 -0.00038909)
(-0.00213486 0.000507885 -0.000632163)
(6.44367e-05 -2.87691e-05 -3.68663e-06)
(3.80451e-06 -2.19876e-05 -1.24817e-05)
(-1.81186e-05 -1.55172e-05 -1.24331e-05)
(-0.000121513 2.005e-06 -4.08789e-05)
(-0.000195458 2.26391e-05 -4.82712e-05)
(-0.000440027 6.43546e-05 -0.000136262)
(-0.000701112 0.000121654 -0.000201676)
(-0.00139403 0.000221497 -0.000463448)
(-0.00233153 0.000284086 -0.000745663)
)
;
    }
}


// ************************************************************************* //
