/*--------------------------------*- C++ -*----------------------------------*\
| =========                 |                                                 |
| \\      /  F ield         | OpenFOAM: The Open Source CFD Toolbox           |
|  \\    /   O peration     | Version:  4.x                                   |
|   \\  /    A nd           | Web:      www.OpenFOAM.org                      |
|    \\/     M anipulation  |                                                 |
\*---------------------------------------------------------------------------*/
FoamFile
{
    version     2.0;
    format      ascii;
    class       volScalarField;
    location    "56.5";
    object      QPartFluid;
}
// * * * * * * * * * * * * * * * * * * * * * * * * * * * * * * * * * * * * * //

dimensions      [1 -1 -3 0 0 0 0];

internalField   nonuniform List<scalar> 
108
(
8.48955e+09
3.85225e+09
6.83368e+09
3.23899e+09
5.02377e+09
3.81012e+09
5.65448e+09
4.87266e+09
3.39141e+09
6.18029e+09
8.80791e+09
4.93855e+09
5.49155e+09
5.91651e+09
4.88697e+09
5.85519e+09
5.32657e+09
3.78338e+09
6.64138e+09
6.80281e+09
7.09993e+09
4.93742e+09
5.88423e+09
5.40771e+09
6.76304e+09
7.12734e+09
4.10148e+09
4.33788e+09
4.30438e+09
4.66254e+09
6.67718e+09
5.52793e+09
5.51526e+09
3.62075e+09
5.55436e+09
4.29237e+09
8.57989e+09
8.10405e+09
1.021e+10
1.06879e+10
8.57649e+09
8.03951e+09
6.90746e+09
8.67357e+09
8.13187e+09
7.60225e+09
8.02188e+09
8.04284e+09
8.99196e+09
7.50561e+09
7.87397e+09
9.29249e+09
8.47471e+09
5.58266e+09
1.27467e+10
9.91203e+09
9.08633e+09
1.14256e+10
8.55969e+09
1.02458e+10
8.30367e+09
9.91294e+09
7.81011e+09
8.42911e+09
7.16757e+09
7.31501e+09
8.04385e+09
9.16943e+09
7.63452e+09
7.29503e+09
8.67379e+09
5.55587e+09
8.28264e+09
1.10442e+10
9.30518e+09
1.04133e+10
6.66313e+09
7.89767e+09
9.2228e+09
8.5094e+09
7.0547e+09
9.55964e+09
6.1368e+09
8.16966e+09
5.02552e+09
4.38548e+09
9.43157e+09
7.6332e+09
1.05747e+10
5.13604e+09
6.02658e+09
1.03082e+10
9.18181e+09
7.26884e+09
7.38341e+09
9.97738e+09
8.09416e+09
9.30176e+09
5.11146e+09
8.7376e+09
4.85904e+09
5.75713e+09
6.95326e+09
6.40566e+09
8.53851e+09
6.25836e+09
9.50799e+09
7.50559e+09
)
;

boundaryField
{
    inlet
    {
        type            calculated;
        value           nonuniform 0();
    }
    outlet
    {
        type            calculated;
        value           uniform 0;
    }
    wall
    {
        type            calculated;
        value           uniform 0;
    }
    procBoundary3to1
    {
        type            processor;
        value           nonuniform List<scalar> 
27
(
3.94654e+09
7.0951e+09
6.22256e+09
8.96211e+09
6.30692e+09
5.83092e+09
5.78723e+09
6.32713e+09
4.32799e+09
8.98149e+09
8.38776e+09
7.19461e+09
6.8058e+09
5.81244e+09
9.15578e+09
9.30843e+09
1.32404e+10
4.51224e+09
8.18847e+09
7.77309e+09
5.46562e+09
1.11319e+10
8.86157e+09
1.08954e+10
7.6873e+09
9.7059e+09
3.38963e+09
)
;
    }
    procBoundary3to2
    {
        type            processor;
        value           nonuniform List<scalar> 
12
(
4.59554e+09
4.47015e+09
6.51322e+09
3.98204e+09
1.12337e+10
6.40394e+09
7.69137e+09
4.82047e+09
9.3091e+09
5.73069e+09
1.02216e+10
7.73206e+09
)
;
    }
    procBoundary3to7
    {
        type            processor;
        value           nonuniform List<scalar> 
36
(
1.02021e+10
9.19536e+09
6.50126e+09
7.99975e+09
1.14389e+10
1.25693e+10
8.02625e+09
6.55478e+09
6.16801e+09
7.51958e+09
1.1472e+10
7.46565e+09
8.19293e+09
8.39702e+09
6.96667e+09
7.88339e+09
7.77428e+09
6.75998e+09
5.35833e+09
9.47919e+09
7.00418e+09
9.03878e+09
8.44651e+09
1.05829e+10
8.67642e+09
9.20193e+09
6.94055e+09
7.08177e+09
7.54502e+09
9.00448e+09
5.9886e+09
7.95619e+09
8.0695e+09
8.02939e+09
7.05634e+09
3.64046e+09
)
;
    }
}


// ************************************************************************* //
