/*--------------------------------*- C++ -*----------------------------------*\
| =========                 |                                                 |
| \\      /  F ield         | OpenFOAM: The Open Source CFD Toolbox           |
|  \\    /   O peration     | Version:  4.x                                   |
|   \\  /    A nd           | Web:      www.OpenFOAM.org                      |
|    \\/     M anipulation  |                                                 |
\*---------------------------------------------------------------------------*/
FoamFile
{
    version     2.0;
    format      ascii;
    class       volScalarField;
    location    "56.5";
    object      QWallFluidCoeff;
}
// * * * * * * * * * * * * * * * * * * * * * * * * * * * * * * * * * * * * * //

dimensions      [1 -1 -3 -1 0 0 0];

internalField   nonuniform List<scalar> 
108
(
-2.19703e+06
-3.48613e+06
-2.24756e+06
-3.66798e+06
-2.20066e+06
-3.8829e+06
-1.92254e+06
-4.17653e+06
-1.64225e+06
-1.74513e+06
-3.12428e+06
-1.58091e+06
-3.11036e+06
-1.21993e+06
-2.91524e+06
-506957
-2.29487e+06
-37.6708
-2.17861e+06
-3.43563e+06
-2.2004e+06
-3.60464e+06
-2.13523e+06
-3.83985e+06
-1.89689e+06
-4.27563e+06
-1.78151e+06
-5.26733e+06
-7.40043e+06
-5.34917e+06
-7.61225e+06
-5.22055e+06
-8.00847e+06
-4.76578e+06
-8.78194e+06
-3.41263e+06
0
0
0
0
0
0
0
0
0
0
0
0
0
0
0
0
0
0
0
0
0
0
0
0
0
0
0
-1.99621e+06
-3.30001e+06
-1.98598e+06
-3.40858e+06
-1.87636e+06
-3.63193e+06
-1.66015e+06
-4.19985e+06
-2.04991e+06
0
0
0
0
0
0
0
0
0
0
0
0
0
0
0
0
0
0
0
0
0
0
0
0
0
0
0
-1.4557e+06
-2.95346e+06
-1.3532e+06
-2.97299e+06
-1.18307e+06
-3.04116e+06
-996202
-3.3567e+06
-994379
)
;

boundaryField
{
    inlet
    {
        type            calculated;
        value           nonuniform 0();
    }
    outlet
    {
        type            calculated;
        value           uniform 0;
    }
    wall
    {
        type            calculated;
        value           uniform 0;
    }
    procBoundary3to1
    {
        type            processor;
        value           uniform 0;
    }
    procBoundary3to2
    {
        type            processor;
        value           uniform 0;
    }
    procBoundary3to7
    {
        type            processor;
        value           uniform 0;
    }
}


// ************************************************************************* //
