/*--------------------------------*- C++ -*----------------------------------*\
| =========                 |                                                 |
| \\      /  F ield         | OpenFOAM: The Open Source CFD Toolbox           |
|  \\    /   O peration     | Version:  4.x                                   |
|   \\  /    A nd           | Web:      www.OpenFOAM.org                      |
|    \\/     M anipulation  |                                                 |
\*---------------------------------------------------------------------------*/
FoamFile
{
    version     2.0;
    format      ascii;
    class       volScalarField;
    location    "25";
    object      Deff;
}
// * * * * * * * * * * * * * * * * * * * * * * * * * * * * * * * * * * * * * //

dimensions      [0 2 -1 0 0 0 0];

internalField   nonuniform List<scalar> 
87
(
9.80694e-08
9.81376e-08
9.80936e-08
9.82768e-08
9.82781e-08
9.82521e-08
9.8236e-08
9.8247e-08
9.82484e-08
9.80556e-08
9.79262e-08
9.79982e-08
9.79265e-08
9.79498e-08
9.7868e-08
9.84937e-08
9.8304e-08
9.82487e-08
9.80506e-08
9.80219e-08
9.79703e-08
9.7964e-08
9.79213e-08
9.79162e-08
9.86752e-08
9.84329e-08
9.83878e-08
9.82095e-08
9.80639e-08
9.79706e-08
9.80694e-08
9.8069e-08
9.80051e-08
9.83099e-08
9.82273e-08
9.81292e-08
9.80018e-08
9.80149e-08
9.79398e-08
9.79085e-08
9.79336e-08
9.78463e-08
9.85117e-08
9.8326e-08
9.82209e-08
9.80881e-08
9.80559e-08
9.80365e-08
9.79523e-08
9.80098e-08
9.78931e-08
9.86683e-08
9.84427e-08
9.83509e-08
9.81281e-08
9.80543e-08
9.80547e-08
9.8066e-08
9.81077e-08
9.80634e-08
9.84973e-08
9.83959e-08
9.82271e-08
9.8052e-08
9.79773e-08
9.79183e-08
9.78339e-08
9.78612e-08
9.80323e-08
9.85759e-08
9.84625e-08
9.82685e-08
9.81595e-08
9.79671e-08
9.79986e-08
9.80205e-08
9.80519e-08
9.79372e-08
9.87504e-08
9.85122e-08
9.83561e-08
9.82056e-08
9.81548e-08
9.79943e-08
9.81756e-08
9.81873e-08
9.80796e-08
)
;

boundaryField
{
    inlet
    {
        type            calculated;
        value           uniform 0;
    }
    outlet
    {
        type            calculated;
        value           nonuniform 0();
    }
    wall
    {
        type            calculated;
        value           uniform 0;
    }
    procBoundary6to0
    {
        type            processor;
        value           uniform 0;
    }
    procBoundary6to2
    {
        type            processor;
        value           uniform 0;
    }
    procBoundary6to4
    {
        type            processor;
        value           uniform 0;
    }
    procBoundary6to7
    {
        type            processor;
        value           uniform 0;
    }
}


// ************************************************************************* //
