/*--------------------------------*- C++ -*----------------------------------*\
| =========                 |                                                 |
| \\      /  F ield         | OpenFOAM: The Open Source CFD Toolbox           |
|  \\    /   O peration     | Version:  4.x                                   |
|   \\  /    A nd           | Web:      www.OpenFOAM.org                      |
|    \\/     M anipulation  |                                                 |
\*---------------------------------------------------------------------------*/
FoamFile
{
    version     2.0;
    format      ascii;
    class       volScalarField;
    location    "25";
    object      magGField;
}
// * * * * * * * * * * * * * * * * * * * * * * * * * * * * * * * * * * * * * //

dimensions      [1 -2 -1 0 0 0 0];

internalField   nonuniform List<scalar> 
87
(
101.216
25.5053
95.9533
105.871
55.8425
111.106
96.3288
22.7207
91.2314
6.16426
87.4419
18.1649
84.3763
134.376
89.1038
97.9359
27.1497
94.3381
17.4115
91.8767
8.04568
97.199
0.621587
88.9947
100.096
35.4672
100.522
35.2484
100.224
32.1101
101.104
47.3352
102.227
95.9709
29.4524
94.043
22.4239
94.8734
17.9243
107.983
18.1215
93.6675
97.581
33.3277
96.5203
30.6103
96.1883
28.5993
96.64
28.3168
99.1032
99.0209
39.958
102.175
44.7233
104.454
49.7036
108.045
56.5677
110.309
98.3929
36.0069
98.9593
34.8811
99.9796
33.3608
102.078
49.3201
101.598
98.7514
38.9175
100.844
41.9645
102.483
44.1023
104.481
47.4934
105.136
100.064
41.8395
104.492
49.1374
109.498
56.7167
113.875
68.9479
115.65
)
;

boundaryField
{
    inlet
    {
        type            calculated;
        value           uniform 67;
    }
    outlet
    {
        type            calculated;
        value           nonuniform 0();
    }
    wall
    {
        type            calculated;
        value           uniform 0;
    }
    procBoundary6to0
    {
        type            processor;
        value           uniform 83.0128;
    }
    procBoundary6to2
    {
        type            processor;
        value           nonuniform List<scalar> 
32
(
98.0414
0.653128
92.283
105.842
48.0614
110.031
97.4739
28.8961
93.6403
22.5397
91.1528
19.8307
88.6692
18.0412
18.0412
18.0412
97.5085
31.3303
95.6169
27.4888
93.8457
24.4805
93.8726
93.8726
93.8726
99.0921
38.8431
101.379
43.2806
103.393
48.5191
48.5191
)
;
    }
    procBoundary6to4
    {
        type            processor;
        value           nonuniform List<scalar> 
27
(
98.1291
26.062
91.9214
13.9163
88.0033
2.57087
87.7948
19.1444
94.4004
96.6619
28.2864
93.2421
18.8602
90.4857
10.3989
92.097
5.14503
104.576
96.8284
34.1052
97.1021
32.381
97.488
31.0571
100.128
32.1742
102.837
)
;
    }
    procBoundary6to7
    {
        type            processor;
        value           nonuniform List<scalar> 
12
(
22.7793
31.1839
64.7336
77.5192
12.3995
47.6005
17.8777
32.051
65.7733
49.2585
56.7547
78.2697
)
;
    }
}


// ************************************************************************* //
