/*--------------------------------*- C++ -*----------------------------------*\
| =========                 |                                                 |
| \\      /  F ield         | OpenFOAM: The Open Source CFD Toolbox           |
|  \\    /   O peration     | Version:  4.x                                   |
|   \\  /    A nd           | Web:      www.OpenFOAM.org                      |
|    \\/     M anipulation  |                                                 |
\*---------------------------------------------------------------------------*/
FoamFile
{
    version     2.0;
    format      ascii;
    class       volScalarField;
    location    "25";
    object      pSmooth;
}
// * * * * * * * * * * * * * * * * * * * * * * * * * * * * * * * * * * * * * //

dimensions      [1 -1 -2 0 0 0 0];

internalField   nonuniform List<scalar> 
87
(
90.6671
51.0382
91.0101
98.158
50.6756
90.1641
122.363
103.486
115.477
85.5393
108.798
67.0201
105.311
50.2625
91.6565
121.894
103.461
115.02
85.3501
107.906
66.7395
101.043
49.9486
94.7184
121.219
103.086
114.441
85.12
107.586
66.5088
100.793
49.4563
92.5218
121.829
103.262
114.574
85.0826
107.013
66.3414
99.1818
50.0003
90.9985
121.469
103.249
114.322
85.1705
106.823
66.6307
99.2134
49.5008
91.4058
120.827
102.874
113.776
84.9283
106.315
66.3113
98.6105
49.3384
90.5074
121.566
103.224
114.585
85.1464
107.41
66.5479
100.307
49.4409
91.4078
121.263
103.183
114.283
85.2096
107
66.6157
99.6598
49.1553
92.1658
120.77
102.939
113.887
84.9684
106.693
66.4568
99.273
48.9659
91.1943
)
;

boundaryField
{
    inlet
    {
        type            zeroGradient;
    }
    outlet
    {
        type            fixedValue;
        value           nonuniform 0();
    }
    wall
    {
        type            zeroGradient;
    }
    procBoundary6to0
    {
        type            processor;
        value           uniform 92.8009;
    }
    procBoundary6to2
    {
        type            processor;
        value           nonuniform List<scalar> 
32
(
94.9716
51.4152
95.0132
100.051
50.7715
92.8709
121.29
102.996
114.111
84.7425
106.56
66.3791
98.8017
52.3889
52.3889
52.3889
121.089
102.939
114.011
84.6788
106.482
66.1901
98.7867
98.7867
98.7867
120.396
102.551
113.358
84.4431
105.88
65.9805
65.9805
)
;
    }
    procBoundary6to4
    {
        type            processor;
        value           nonuniform List<scalar> 
27
(
122.231
103.83
115.373
85.6992
108.194
67.3562
101.628
52.0642
97.4094
122.052
103.581
114.959
85.4754
107.362
66.778
99.7781
50.6983
92.6945
121.838
103.364
114.724
85.3433
107.321
66.6365
99.9931
50.1
93.0729
)
;
    }
    procBoundary6to7
    {
        type            processor;
        value           nonuniform List<scalar> 
12
(
33.3543
33.5844
33.8654
32.9955
33.1274
33.3693
33.1019
33.2663
33.5001
33.0767
33.1816
33.4057
)
;
    }
}


// ************************************************************************* //
