/*--------------------------------*- C++ -*----------------------------------*\
| =========                 |                                                 |
| \\      /  F ield         | OpenFOAM: The Open Source CFD Toolbox           |
|  \\    /   O peration     | Version:  4.x                                   |
|   \\  /    A nd           | Web:      www.OpenFOAM.org                      |
|    \\/     M anipulation  |                                                 |
\*---------------------------------------------------------------------------*/
FoamFile
{
    version     2.0;
    format      ascii;
    class       volScalarField;
    location    "25";
    object      Sm;
}
// * * * * * * * * * * * * * * * * * * * * * * * * * * * * * * * * * * * * * //

dimensions      [1 -3 -1 0 0 0 0];

internalField   nonuniform List<scalar> 
87
(
6.74272e-65
6.04494e-65
7.13011e-65
5.11486e-65
5.81234e-65
4.95966e-65
1.03845e-64
7.59485e-65
4.95995e-65
7.4402e-65
9.37787e-65
6.12262e-65
7.3627e-65
6.51025e-65
8.52538e-65
5.81229e-65
7.90489e-65
6.43248e-65
8.83512e-65
7.0526e-65
7.82763e-65
7.05264e-65
8.6027e-65
7.59517e-65
4.95979e-65
7.2074e-65
5.4249e-65
6.12246e-65
7.59494e-65
8.75755e-65
6.50997e-65
6.66497e-65
7.51748e-65
7.6722e-65
7.67244e-65
7.75e-65
7.67261e-65
5.34754e-65
7.05261e-65
6.27762e-65
5.89009e-65
7.90532e-65
5.65732e-65
7.28495e-65
6.81999e-65
6.89755e-65
5.96751e-65
5.58005e-65
7.75013e-65
5.73507e-65
7.75024e-65
5.19231e-65
6.74242e-65
5.57994e-65
7.59496e-65
7.28493e-65
5.96746e-65
6.66495e-65
5.96749e-65
5.65744e-65
5.03731e-65
5.26993e-65
6.12245e-65
6.89749e-65
6.50998e-65
6.43252e-65
8.68014e-65
8.75771e-65
3.79752e-65
6.04479e-65
5.50242e-65
6.81993e-65
5.65746e-65
8.60251e-65
6.35499e-65
6.19999e-65
5.58004e-65
7.82761e-65
4.41732e-65
6.27739e-65
6.12237e-65
6.43239e-65
4.95988e-65
8.21493e-65
4.80488e-65
5.19242e-65
6.04491e-65
)
;

boundaryField
{
    inlet
    {
        type            calculated;
        value           uniform 0;
    }
    outlet
    {
        type            calculated;
        value           nonuniform 0();
    }
    wall
    {
        type            calculated;
        value           uniform 0;
    }
    procBoundary6to0
    {
        type            processor;
        value           uniform 2.32512e-65;
    }
    procBoundary6to2
    {
        type            processor;
        value           nonuniform List<scalar> 
32
(
4.8824e-65
7.43991e-65
8.37006e-65
8.29227e-65
4.95984e-65
6.66471e-65
4.80474e-65
8.13719e-65
8.36968e-65
6.51036e-65
6.82014e-65
5.89018e-65
6.27764e-65
7.75013e-65
7.75013e-65
7.75013e-65
6.8971e-65
6.89736e-65
8.36985e-65
5.81258e-65
7.20761e-65
6.89764e-65
8.37015e-65
8.37015e-65
8.37015e-65
5.26972e-65
6.50985e-65
6.27735e-65
7.12988e-65
5.50241e-65
6.35492e-65
6.35492e-65
)
;
    }
    procBoundary6to4
    {
        type            processor;
        value           nonuniform List<scalar> 
27
(
4.33982e-65
5.73484e-65
7.5946e-65
5.19268e-65
7.36274e-65
6.35496e-65
9.22333e-65
5.96765e-65
5.96777e-65
6.66474e-65
7.20738e-65
5.96744e-65
8.52515e-65
8.44771e-65
6.74266e-65
9.61047e-65
7.90529e-65
6.82025e-65
7.43971e-65
7.05238e-65
5.81244e-65
7.6725e-65
6.97506e-65
9.22267e-65
4.495e-65
4.88252e-65
6.35511e-65
)
;
    }
    procBoundary6to7
    {
        type            processor;
        value           nonuniform List<scalar> 
12
(
7.67301e-65
4.805e-65
6.50969e-65
3.95263e-65
5.50267e-65
6.74261e-65
8.06027e-65
7.05266e-65
5.58001e-65
6.89767e-65
5.96757e-65
6.045e-65
)
;
    }
}


// ************************************************************************* //
