/*--------------------------------*- C++ -*----------------------------------*\
| =========                 |                                                 |
| \\      /  F ield         | OpenFOAM: The Open Source CFD Toolbox           |
|  \\    /   O peration     | Version:  4.x                                   |
|   \\  /    A nd           | Web:      www.OpenFOAM.org                      |
|    \\/     M anipulation  |                                                 |
\*---------------------------------------------------------------------------*/
FoamFile
{
    version     2.0;
    format      ascii;
    class       volScalarField;
    location    "5.5";
    object      KslPrev;
}
// * * * * * * * * * * * * * * * * * * * * * * * * * * * * * * * * * * * * * //

dimensions      [1 -3 -1 0 0 0 0];

internalField   nonuniform List<scalar> 
132
(
20653.5
4025.15
9761.1
4267.54
15655.5
5047.41
28032.8
9714.92
13025
18449.5
3780.48
12830.3
3711.12
12015.8
3542.98
9304.81
3602.12
6254.92
20251.2
3934.97
12605.6
3625.87
50696
3695.43
12636.8
3396.64
3403.68
4428.37
2839.49
4375.15
2655.4
4395.37
2408.9
4886.29
1874.62
2767.17
26760.4
4543.98
24109.4
9965.05
338526
28420.4
16762.6
98516.9
4087.48
36681.1
4234
10919.7
4481.04
21484.9
5341.81
16556.5
19605.5
4476.14
18393.3
5062
762256
4416.23
48766.3
4577.01
17113.2
5126.54
3111.01
5280.55
3021.09
5768
2994.66
6393.68
2975.08
5603.72
329437
4461.26
24728.3
4967.38
16833.5
19960.7
3623.44
198776
3213.35
20869.5
3588.35
114977
3902.68
15810
90422
3862.7
9263.61
3740.52
17349.6
3579.51
18074.2
3611.57
5405.45
4535.33
2918.21
4209.27
2758.16
4475.4
2552.66
5137.2
2082.08
5845.58
8629.52
3439.33
7407.81
11684.6
3629.66
44819.4
3564.43
6079.37
3717.9
2.12614e+07
4004
14067.6
5883.53
3297.49
6699.35
3466.87
9832.55
3447.02
18199.6
4004.36
10789.3
4343.36
2854.49
3962.21
2726.67
3566.55
2518.24
3683.82
2424.06
3590.02
)
;

boundaryField
{
    inlet
    {
        type            zeroGradient;
    }
    outlet
    {
        type            zeroGradient;
    }
    wall
    {
        type            zeroGradient;
    }
    procBoundary7to0
    {
        type            processor;
        value           uniform 0;
    }
    procBoundary7to1
    {
        type            processor;
        value           uniform 0;
    }
    procBoundary7to3
    {
        type            processor;
        value           uniform 0;
    }
    procBoundary7to5
    {
        type            processor;
        value           uniform 0;
    }
    procBoundary7to6
    {
        type            processor;
        value           uniform 0;
    }
}


// ************************************************************************* //
