/*--------------------------------*- C++ -*----------------------------------*\
| =========                 |                                                 |
| \\      /  F ield         | OpenFOAM: The Open Source CFD Toolbox           |
|  \\    /   O peration     | Version:  4.x                                   |
|   \\  /    A nd           | Web:      www.OpenFOAM.org                      |
|    \\/     M anipulation  |                                                 |
\*---------------------------------------------------------------------------*/
FoamFile
{
    version     2.0;
    format      ascii;
    class       volScalarField;
    location    "5.5";
    object      particleRelTemp;
}
// * * * * * * * * * * * * * * * * * * * * * * * * * * * * * * * * * * * * * //

dimensions      [0 0 0 0 0 0 0];

internalField   nonuniform List<scalar> 
132
(
-2.74192e-08
-1.09885e-07
-1.33083e-07
-7.02832e-08
8.42149e-08
3.91629e-07
7.62314e-07
1.13687e-06
1.36263e-06
-6.31561e-08
-1.30613e-07
-1.46306e-07
-1.07119e-07
2.91578e-08
2.24317e-07
5.49039e-07
9.28213e-07
1.17325e-06
-1.33283e-07
-1.992e-07
-2.23535e-07
-2.01643e-07
-9.95362e-08
6.82724e-08
3.51378e-07
6.3213e-07
8.3576e-07
-1.96029e-07
-2.64023e-07
-2.86755e-07
-2.80228e-07
-2.22987e-07
-7.33554e-08
1.50783e-07
3.53045e-07
4.76395e-07
-1.73896e-07
-1.05943e-07
6.54196e-08
3.22162e-07
6.61705e-07
1.03685e-06
1.22454e-06
-9.84095e-08
-1.68427e-07
-1.94919e-07
-1.44509e-07
3.76115e-09
2.52159e-07
6.01288e-07
8.96506e-07
1.10428e-06
-1.43633e-07
-2.23416e-07
-2.66115e-07
-2.28226e-07
-1.38478e-07
8.18208e-08
3.25147e-07
6.40082e-07
7.46504e-07
-2.2362e-07
-2.81663e-07
-3.27435e-07
-3.12698e-07
-2.42753e-07
-9.82051e-08
9.24468e-08
3.20846e-07
4.17877e-07
-8.99989e-09
1.82741e-07
5.23164e-07
7.67443e-07
1.05793e-06
-1.4615e-07
-2.15677e-07
-2.47284e-07
-1.95768e-07
-7.15729e-08
1.82922e-07
5.00578e-07
7.06438e-07
9.08174e-07
-2.01053e-07
-2.70585e-07
-3.06387e-07
-2.79434e-07
-1.82814e-07
2.73312e-08
2.58294e-07
4.42775e-07
5.96589e-07
-2.80632e-07
-3.11768e-07
-3.67687e-07
-3.52002e-07
-3.03262e-07
-1.50838e-07
2.6783e-08
1.70682e-07
2.94807e-07
3.71542e-07
6.17449e-07
7.58881e-07
-1.76968e-07
-2.6974e-07
-2.83916e-07
-2.47567e-07
-1.26753e-07
9.01372e-08
2.8832e-07
5.14433e-07
7.07963e-07
-2.64511e-07
-3.06282e-07
-3.37539e-07
-3.25292e-07
-2.22351e-07
-4.58512e-08
1.13848e-07
2.79147e-07
4.22076e-07
-3.22189e-07
-3.59645e-07
-3.98247e-07
-3.97662e-07
-3.38107e-07
-2.22016e-07
-7.63419e-08
3.489e-08
6.93588e-08
)
;

boundaryField
{
    inlet
    {
        type            calculated;
        value           nonuniform 0();
    }
    outlet
    {
        type            calculated;
        value           nonuniform List<scalar> 
16
(
1.36263e-06
1.17325e-06
8.3576e-07
4.76395e-07
1.22454e-06
1.10428e-06
7.46504e-07
4.17877e-07
1.05793e-06
9.08174e-07
5.96589e-07
2.94807e-07
7.58881e-07
7.07963e-07
4.22076e-07
6.93588e-08
)
;
    }
    wall
    {
        type            calculated;
        value           nonuniform List<scalar> 
66
(
-1.76968e-07
-2.64511e-07
-3.22189e-07
-2.6974e-07
-3.06282e-07
-3.59645e-07
-2.83916e-07
-3.37539e-07
-3.98247e-07
-2.47567e-07
-3.25292e-07
-3.97662e-07
-1.26753e-07
-2.22351e-07
-3.38107e-07
9.01372e-08
-4.58512e-08
-2.22016e-07
3.71542e-07
2.8832e-07
1.13848e-07
-7.63419e-08
6.17449e-07
5.14433e-07
2.79147e-07
3.489e-08
7.58881e-07
7.07963e-07
4.22076e-07
6.93588e-08
-1.96029e-07
-2.2362e-07
-2.80632e-07
-3.22189e-07
-2.64023e-07
-2.81663e-07
-3.11768e-07
-3.59645e-07
-2.86755e-07
-3.27435e-07
-3.67687e-07
-3.98247e-07
-2.80228e-07
-3.12698e-07
-3.52002e-07
-3.97662e-07
-2.22987e-07
-2.42753e-07
-3.03262e-07
-3.38107e-07
-7.33554e-08
-9.82051e-08
-1.50838e-07
-2.22016e-07
1.50783e-07
9.24468e-08
2.6783e-08
-7.63419e-08
3.53045e-07
3.20846e-07
1.70682e-07
3.489e-08
4.76395e-07
4.17877e-07
2.94807e-07
6.93588e-08
)
;
    }
    procBoundary7to0
    {
        type            processor;
        value           uniform 1.08992e-07;
    }
    procBoundary7to1
    {
        type            processor;
        value           uniform -2.75098e-08;
    }
    procBoundary7to3
    {
        type            processor;
        value           nonuniform List<scalar> 
36
(
-4.79976e-08
-1.04081e-07
-9.33298e-08
-8.24938e-08
4.82875e-08
3.2401e-07
6.50126e-07
1.09573e-06
1.29934e-06
-4.21931e-08
-1.20338e-07
-1.24056e-07
-9.30702e-08
5.3119e-09
2.59504e-07
5.98282e-07
8.98243e-07
1.08334e-06
-1.3306e-07
-1.75371e-07
-1.85102e-07
-1.65079e-07
-7.26919e-08
1.2053e-07
3.32608e-07
6.23043e-07
7.66455e-07
-1.96597e-07
-2.47475e-07
-2.50385e-07
-2.66831e-07
-1.80616e-07
-8.13091e-08
1.51019e-07
3.4677e-07
5.10524e-07
)
;
    }
    procBoundary7to5
    {
        type            processor;
        value           nonuniform List<scalar> 
44
(
-1.40767e-07
-1.81694e-07
-1.17483e-07
4.10099e-09
2.52658e-07
6.15383e-07
9.96375e-07
1.28522e-06
-5.25969e-08
-1.81681e-07
-2.20281e-07
-1.44581e-07
1.93612e-08
2.3359e-07
5.68353e-07
9.28838e-07
1.10637e-06
-5.25969e-08
-1.81681e-07
-1.81681e-07
-2.38916e-07
-1.8479e-07
-6.73328e-08
1.45251e-07
4.03946e-07
6.76204e-07
8.46113e-07
-1.40816e-07
-2.1916e-07
-2.38916e-07
-1.8479e-07
-1.8479e-07
-1.03644e-07
1.33835e-07
2.45187e-07
4.63867e-07
6.15726e-07
-1.89468e-07
-2.70288e-07
-2.88877e-07
-2.37883e-07
-1.03644e-07
1.33835e-07
1.33835e-07
)
;
    }
    procBoundary7to6
    {
        type            processor;
        value           nonuniform List<scalar> 
12
(
1.04634e-07
-1.69897e-08
-9.63191e-08
3.26528e-08
-5.07385e-08
-1.32591e-07
-1.72178e-08
-9.38691e-08
-1.98789e-07
-1.03473e-07
-1.82589e-07
-2.65575e-07
)
;
    }
}


// ************************************************************************* //
