/*--------------------------------*- C++ -*----------------------------------*\
| =========                 |                                                 |
| \\      /  F ield         | OpenFOAM: The Open Source CFD Toolbox           |
|  \\    /   O peration     | Version:  4.x                                   |
|   \\  /    A nd           | Web:      www.OpenFOAM.org                      |
|    \\/     M anipulation  |                                                 |
\*---------------------------------------------------------------------------*/
FoamFile
{
    version     2.0;
    format      ascii;
    class       volScalarField;
    location    "5.5";
    object      QWallFluid;
}
// * * * * * * * * * * * * * * * * * * * * * * * * * * * * * * * * * * * * * //

dimensions      [1 -1 -3 0 0 0 0];

internalField   nonuniform List<scalar> 
132
(
0
0
0
0
0
0
0
0
0
0
0
0
0
0
0
0
0
0
0
0
0
0
0
0
0
0
0
6.92278e+08
9.91714e+08
7.00273e+08
1.04813e+09
7.00478e+08
1.13565e+09
6.34661e+08
1.3758e+09
9.75001e+08
0
0
0
0
0
0
0
0
0
0
0
0
0
0
0
0
0
0
0
0
0
0
0
0
0
6.12144e+08
9.16612e+08
6.0029e+08
9.38438e+08
5.55159e+08
9.35599e+08
5.01071e+08
9.16603e+08
5.38986e+08
0
0
0
0
0
0
0
0
0
0
0
0
0
0
0
0
0
0
0
0
0
0
0
6.7372e+08
9.61796e+08
7.14307e+08
1.00856e+09
6.78763e+08
1.06296e+09
5.91266e+08
1.20461e+09
5.14673e+08
3.74707e+08
7.74218e+08
4.09909e+08
3.09772e+08
7.89979e+08
1.0396e+08
7.90216e+08
5.06682e+08
7.50867e+08
678223
6.83293e+08
2.45069e+08
5.40134e+08
8.5905e+08
4.8432e+08
8.24886e+08
3.51776e+08
8.05985e+08
2.08323e+08
6.93472e+08
3.06761e+08
1.37918e+09
1.93523e+09
1.49004e+09
2.02992e+09
1.61897e+09
2.10139e+09
1.51838e+09
2.10668e+09
1.51492e+09
)
;

boundaryField
{
    inlet
    {
        type            calculated;
        value           nonuniform 0();
    }
    outlet
    {
        type            calculated;
        value           uniform 0;
    }
    wall
    {
        type            calculated;
        value           uniform 0;
    }
    procBoundary7to0
    {
        type            processor;
        value           uniform 0;
    }
    procBoundary7to1
    {
        type            processor;
        value           uniform 0;
    }
    procBoundary7to3
    {
        type            processor;
        value           nonuniform List<scalar> 
36
(
0
0
0
0
0
0
0
0
0
0
0
0
0
0
0
0
0
0
0
0
0
0
0
0
0
0
0
6.78341e+08
9.98264e+08
7.12285e+08
1.0435e+09
6.61928e+08
1.1027e+09
5.60344e+08
1.28881e+09
6.86186e+08
)
;
    }
    procBoundary7to5
    {
        type            processor;
        value           nonuniform List<scalar> 
44
(
0
0
0
0
0
0
0
0
0
0
0
0
0
0
0
0
0
0
0
0
0
0
0
0
0
0
0
0
0
0
0
0
3.94958e+08
7.99332e+08
3.48987e+08
8.19565e+08
2.94702e+08
5.79684e+08
9.61635e+08
6.66483e+08
9.11083e+08
3.94958e+08
7.99332e+08
7.99332e+08
)
;
    }
    procBoundary7to6
    {
        type            processor;
        value           nonuniform List<scalar> 
12
(
0
0
9.4681e+08
0
0
8.88507e+08
0
0
9.18576e+08
8.11805e+08
8.61327e+08
1.8437e+09
)
;
    }
}


// ************************************************************************* //
