/*--------------------------------*- C++ -*----------------------------------*\
| =========                 |                                                 |
| \\      /  F ield         | OpenFOAM: The Open Source CFD Toolbox           |
|  \\    /   O peration     | Version:  4.x                                   |
|   \\  /    A nd           | Web:      www.OpenFOAM.org                      |
|    \\/     M anipulation  |                                                 |
\*---------------------------------------------------------------------------*/
FoamFile
{
    version     2.0;
    format      ascii;
    class       volScalarField;
    location    "5.5";
    object      QWallFluidCoeff;
}
// * * * * * * * * * * * * * * * * * * * * * * * * * * * * * * * * * * * * * //

dimensions      [1 -1 -3 -1 0 0 0];

internalField   nonuniform List<scalar> 
132
(
0
0
0
0
0
0
0
0
0
0
0
0
0
0
0
0
0
0
0
0
0
0
0
0
0
0
0
-2.30759e+06
-3.30571e+06
-2.33424e+06
-3.49376e+06
-2.33493e+06
-3.7855e+06
-2.11554e+06
-4.58602e+06
-3.25e+06
0
0
0
0
0
0
0
0
0
0
0
0
0
0
0
0
0
0
0
0
0
0
0
0
0
-2.04048e+06
-3.05537e+06
-2.00097e+06
-3.12813e+06
-1.85053e+06
-3.11866e+06
-1.67024e+06
-3.05534e+06
-1.79662e+06
0
0
0
0
0
0
0
0
0
0
0
0
0
0
0
0
0
0
0
0
0
0
0
-2.24573e+06
-3.20599e+06
-2.38102e+06
-3.36186e+06
-2.26254e+06
-3.5432e+06
-1.97089e+06
-4.01535e+06
-1.71558e+06
-1.24902e+06
-2.58073e+06
-1.36636e+06
-1.03257e+06
-2.63326e+06
-346532
-2.63405e+06
-1.68894e+06
-2.50289e+06
-2260.74
-2.27764e+06
-816895
-1.80045e+06
-2.8635e+06
-1.6144e+06
-2.74962e+06
-1.17259e+06
-2.68662e+06
-694410
-2.31157e+06
-1.02254e+06
-4.59728e+06
-6.45075e+06
-4.96682e+06
-6.76641e+06
-5.39656e+06
-7.00465e+06
-5.06126e+06
-7.02228e+06
-5.04974e+06
)
;

boundaryField
{
    inlet
    {
        type            calculated;
        value           nonuniform 0();
    }
    outlet
    {
        type            calculated;
        value           uniform 0;
    }
    wall
    {
        type            calculated;
        value           uniform 0;
    }
    procBoundary7to0
    {
        type            processor;
        value           uniform 0;
    }
    procBoundary7to1
    {
        type            processor;
        value           uniform 0;
    }
    procBoundary7to3
    {
        type            processor;
        value           uniform 0;
    }
    procBoundary7to5
    {
        type            processor;
        value           uniform 0;
    }
    procBoundary7to6
    {
        type            processor;
        value           uniform 0;
    }
}


// ************************************************************************* //
