/*--------------------------------*- C++ -*----------------------------------*\
| =========                 |                                                 |
| \\      /  F ield         | OpenFOAM: The Open Source CFD Toolbox           |
|  \\    /   O peration     | Version:  4.x                                   |
|   \\  /    A nd           | Web:      www.OpenFOAM.org                      |
|    \\/     M anipulation  |                                                 |
\*---------------------------------------------------------------------------*/
FoamFile
{
    version     2.0;
    format      ascii;
    class       volScalarField;
    location    "5.5";
    object      Sm;
}
// * * * * * * * * * * * * * * * * * * * * * * * * * * * * * * * * * * * * * //

dimensions      [1 -3 -1 0 0 0 0];

internalField   nonuniform List<scalar> 
132
(
9.91523e-65
7.82424e-65
6.42997e-65
6.73957e-65
1.03017e-64
1.03764e-64
7.97336e-65
5.64909e-65
8.35594e-65
7.66904e-65
9.45129e-65
7.28226e-65
6.73975e-65
8.4431e-65
5.6535e-65
7.51024e-65
6.3469e-65
8.04793e-65
5.50033e-65
7.36008e-65
6.19814e-65
7.12767e-65
7.43709e-65
8.0556e-65
7.51165e-65
7.20012e-65
8.59195e-65
5.11336e-65
7.28304e-65
8.75533e-65
5.50114e-65
7.20552e-65
6.73977e-65
7.97778e-65
5.88596e-65
4.33662e-65
6.43019e-65
7.35935e-65
6.73849e-65
6.89211e-65
8.59324e-65
8.43575e-65
7.35089e-65
3.95078e-65
8.52192e-65
7.43752e-65
7.51459e-65
8.13328e-65
7.04763e-65
5.65172e-65
7.74031e-65
5.72662e-65
5.81042e-65
8.52233e-65
6.9731e-65
5.73325e-65
7.35952e-65
8.59775e-65
8.90557e-65
7.04563e-65
7.97325e-65
5.57836e-65
8.52275e-65
5.88875e-65
7.28342e-65
7.36039e-65
6.1976e-65
6.58382e-65
7.97688e-65
5.34319e-65
5.03484e-65
5.80844e-65
7.35547e-65
6.03792e-65
5.80401e-65
8.05687e-65
7.36015e-65
6.81798e-65
5.1907e-65
8.52129e-65
7.04799e-65
7.1233e-65
8.74797e-65
7.50759e-65
7.05015e-65
7.36042e-65
7.51558e-65
6.97308e-65
8.28959e-65
7.59116e-65
7.66719e-65
7.04636e-65
7.74217e-65
5.34613e-65
6.27601e-65
7.05117e-65
6.89613e-65
6.121e-65
5.26821e-65
7.59115e-65
7.0486e-65
5.80826e-65
5.49805e-65
6.4264e-65
6.1158e-65
6.89509e-65
5.81097e-65
7.67042e-65
7.43793e-65
5.19063e-65
3.87301e-65
6.89215e-65
6.65893e-65
5.41909e-65
5.96587e-65
6.04363e-65
6.04373e-65
6.1987e-65
6.89544e-65
6.35235e-65
7.20299e-65
6.42822e-65
7.27907e-65
6.27615e-65
7.36117e-65
5.65661e-65
5.81165e-65
6.58624e-65
6.50823e-65
6.50726e-65
6.35216e-65
4.10566e-65
)
;

boundaryField
{
    inlet
    {
        type            calculated;
        value           nonuniform 0();
    }
    outlet
    {
        type            calculated;
        value           uniform 0;
    }
    wall
    {
        type            calculated;
        value           uniform 0;
    }
    procBoundary7to0
    {
        type            processor;
        value           uniform 2.32354e-65;
    }
    procBoundary7to1
    {
        type            processor;
        value           uniform 5.73232e-65;
    }
    procBoundary7to3
    {
        type            processor;
        value           nonuniform List<scalar> 
36
(
7.66897e-65
8.98623e-65
8.8309e-65
8.52136e-65
6.11917e-65
6.19512e-65
8.59349e-65
6.81011e-65
7.73745e-65
8.98584e-65
5.11293e-65
7.74677e-65
4.33819e-65
4.64766e-65
7.89954e-65
7.27813e-65
8.824e-65
6.11367e-65
5.65539e-65
8.28955e-65
8.2121e-65
5.81038e-65
6.81706e-65
7.97793e-65
6.6601e-65
7.19988e-65
5.41888e-65
5.73317e-65
3.87389e-65
5.42356e-65
6.12093e-65
5.57826e-65
7.12727e-65
6.19647e-65
7.89956e-65
8.5176e-65
)
;
    }
    procBoundary7to5
    {
        type            processor;
        value           nonuniform List<scalar> 
44
(
8.44426e-65
6.04293e-65
7.43695e-65
5.80955e-65
4.56925e-65
6.96791e-65
5.72739e-65
8.6661e-65
9.9929e-65
4.41591e-65
7.2827e-65
7.59219e-65
6.19681e-65
7.04752e-65
7.12313e-65
6.88889e-65
5.57223e-65
9.9929e-65
4.41591e-65
4.41591e-65
8.98728e-65
7.97979e-65
1.01481e-64
7.35816e-65
8.20819e-65
8.90299e-65
8.66932e-65
3.56357e-65
9.37448e-65
8.98728e-65
7.97979e-65
7.97979e-65
9.68368e-65
7.74581e-65
6.50572e-65
6.7369e-65
6.81327e-65
7.20505e-65
5.50105e-65
7.28315e-65
5.65588e-65
9.68368e-65
7.74581e-65
7.74581e-65
)
;
    }
    procBoundary7to6
    {
        type            processor;
        value           nonuniform List<scalar> 
12
(
6.7385e-65
7.12637e-65
4.9579e-65
8.52043e-65
7.5915e-65
7.5147e-65
7.90106e-65
7.74664e-65
5.65573e-65
3.79599e-65
7.82482e-65
6.0435e-65
)
;
    }
}


// ************************************************************************* //
