/*--------------------------------*- C++ -*----------------------------------*\
| =========                 |                                                 |
| \\      /  F ield         | OpenFOAM: The Open Source CFD Toolbox           |
|  \\    /   O peration     | Version:  4.x                                   |
|   \\  /    A nd           | Web:      www.OpenFOAM.org                      |
|    \\/     M anipulation  |                                                 |
\*---------------------------------------------------------------------------*/
FoamFile
{
    version     2.0;
    format      ascii;
    class       volScalarField;
    location    "5.5";
    object      thCond;
}
// * * * * * * * * * * * * * * * * * * * * * * * * * * * * * * * * * * * * * //

dimensions      [1 1 -3 -1 0 0 0];

internalField   nonuniform List<scalar> 
132
(
189.98
189.921
189.973
189.83
189.47
189.403
189.51
189.737
189.545
190.149
189.826
189.908
189.913
189.65
189.719
189.594
189.671
189.576
190.513
190.115
190.086
190.014
189.789
189.623
189.601
189.681
189.643
190.77
190.321
190.068
190.21
189.953
189.843
189.711
189.926
190.185
189.772
189.587
189.503
189.424
189.275
189.324
189.46
190.194
189.72
189.68
189.61
189.406
189.443
189.477
189.376
189.56
190.245
189.79
189.815
189.817
189.524
189.344
189.286
189.443
189.486
190.42
189.922
189.97
189.828
189.676
189.678
189.56
189.57
189.937
189.533
189.495
189.361
189.451
189.565
189.913
189.729
189.644
189.688
189.393
189.464
189.381
189.279
189.445
190.064
189.835
189.722
189.683
189.442
189.428
189.35
189.437
189.487
190.362
190.034
189.872
189.791
189.741
189.749
189.501
189.609
189.904
189.603
189.589
189.682
190.059
189.959
189.651
189.617
189.699
189.828
189.561
189.563
189.742
190.178
190.033
189.91
189.808
189.657
189.662
189.525
189.628
189.686
190.28
190.01
190.053
189.956
189.78
189.731
189.664
189.813
190.203
)
;

boundaryField
{
    inlet
    {
        type            zeroGradient;
    }
    outlet
    {
        type            zeroGradient;
    }
    wall
    {
        type            zeroGradient;
    }
    procBoundary7to0
    {
        type            processor;
        value           uniform 190.79;
    }
    procBoundary7to1
    {
        type            processor;
        value           uniform 190.35;
    }
    procBoundary7to3
    {
        type            processor;
        value           nonuniform List<scalar> 
36
(
190.463
190.27
190.17
190.148
190.258
190.155
189.946
190.075
190.087
190.479
190.526
190.309
190.559
190.469
190.116
189.993
189.918
190.141
190.801
190.517
190.396
190.539
190.373
190.12
190.132
190.083
190.251
191.085
191.103
190.815
190.683
190.537
190.304
190.27
190.117
190.13
)
;
    }
    procBoundary7to5
    {
        type            processor;
        value           nonuniform List<scalar> 
44
(
190.067
190.156
189.944
189.947
189.942
189.744
189.827
189.704
189.817
190.011
189.823
189.662
189.622
189.527
189.46
189.488
189.648
189.817
190.011
190.011
189.455
189.484
189.257
189.346
189.267
189.262
189.365
190.15
189.643
189.455
189.484
189.484
189.274
189.414
189.525
189.515
189.57
190.036
189.948
189.607
189.622
189.274
189.414
189.414
)
;
    }
    procBoundary7to6
    {
        type            processor;
        value           nonuniform List<scalar> 
12
(
190.462
190.512
190.85
190.051
190.153
190.365
190.003
190.093
190.438
190.362
190.165
190.446
)
;
    }
}


// ************************************************************************* //
