/*--------------------------------*- C++ -*----------------------------------*\
| =========                 |                                                 |
| \\      /  F ield         | OpenFOAM: The Open Source CFD Toolbox           |
|  \\    /   O peration     | Version:  4.x                                   |
|   \\  /    A nd           | Web:      www.OpenFOAM.org                      |
|    \\/     M anipulation  |                                                 |
\*---------------------------------------------------------------------------*/
FoamFile
{
    version     2.0;
    format      ascii;
    class       volVectorField;
    location    "5.5";
    object      Urel;
}
// * * * * * * * * * * * * * * * * * * * * * * * * * * * * * * * * * * * * * //

dimensions      [0 1 -1 0 0 0 0];

internalField   nonuniform List<vector> 
132
(
(-0.0179843 -2.5819e-06 0.00022102)
(-0.0197335 1.35887e-05 0.000451732)
(-0.0178949 -2.98627e-05 0.000771946)
(-0.0194147 -5.59164e-05 0.00120359)
(-0.0172589 -8.13388e-05 0.00164106)
(-0.017857 -6.27057e-05 0.00244783)
(-0.0146192 -3.83324e-05 0.00308706)
(-0.0144211 1.83654e-05 0.00379453)
(-0.0113714 0.00011172 0.00524775)
(-0.018359 -0.000268676 0.000138152)
(-0.0203196 -0.000273212 0.000418285)
(-0.0184289 -0.00041447 0.000821913)
(-0.0202733 -0.000413777 0.00124463)
(-0.0182139 -0.000877691 0.0016559)
(-0.019614 -0.00122065 0.00225808)
(-0.0169235 -0.00188223 0.00304712)
(-0.0176493 -0.00219605 0.00368126)
(-0.0143428 -0.00393816 0.00548115)
(-0.0197064 -0.000474614 -0.000180858)
(-0.0215162 -0.000417766 8.27136e-05)
(-0.0196531 -0.000485775 0.000914572)
(-0.0217091 -0.000473685 0.00148873)
(-0.0197236 -0.000800631 0.00145861)
(-0.0218945 -0.00106333 0.00191052)
(-0.0196875 -0.00196198 0.00273287)
(-0.0214096 -0.00271721 0.00366023)
(-0.0177675 -0.00617635 0.00589596)
(-0.0231967 -0.00080804 -0.000744157)
(-0.0247917 -0.000784369 -0.000499839)
(-0.0237155 -0.000739103 0.000112371)
(-0.0253895 -0.000695081 0.000507811)
(-0.0240006 -0.000863785 0.00103688)
(-0.0258327 -0.000892703 0.00147876)
(-0.0237326 -0.00203184 0.00262628)
(-0.0258992 -0.00283599 0.00378162)
(-0.0210072 -0.00624712 0.00712541)
(-0.0177579 8.51905e-05 0.000572314)
(-0.0190782 5.38866e-05 0.000716925)
(-0.0168617 7.33944e-05 0.00108593)
(-0.0163139 7.6382e-05 0.00149168)
(-0.0125273 0.000187202 0.00202079)
(-0.0115342 0.000271318 0.00260068)
(-0.00864991 0.000566661 0.00319414)
(-0.0183356 -0.000213561 0.000168209)
(-0.0203302 -0.000149678 0.000555262)
(-0.0183533 -0.000202892 0.000653033)
(-0.0199192 -0.000183402 0.00100118)
(-0.0177818 -0.000959766 0.00126362)
(-0.0185634 -0.00136538 0.00162542)
(-0.0156037 -0.00156829 0.00197203)
(-0.0157561 -0.00171301 0.00230144)
(-0.01275 -0.00287891 0.00311144)
(-0.0200458 -0.000369428 -0.000177669)
(-0.021816 -0.000260701 0.000122009)
(-0.0200434 -0.000371903 0.000473695)
(-0.0210809 -0.000360074 0.000858691)
(-0.0187647 -0.000807244 0.0012485)
(-0.020948 -0.00108072 0.00166136)
(-0.018775 -0.00160439 0.0019799)
(-0.019893 -0.00229639 0.00250111)
(-0.0168745 -0.00429159 0.00370153)
(-0.0234383 -0.000667129 -0.00070745)
(-0.0249999 -0.000629485 -0.000484202)
(-0.0238463 -0.000778355 -6.68276e-05)
(-0.0252033 -0.000771279 0.000266501)
(-0.0236194 -0.000801889 0.00079316)
(-0.0251436 -0.000796836 0.00121991)
(-0.0230224 -0.0016845 0.00203714)
(-0.0240802 -0.00233105 0.00283236)
(-0.0204685 -0.00460897 0.0050311)
(-0.0182088 0.000196432 0.000680577)
(-0.0192913 0.000212724 0.000581776)
(-0.016474 0.000387474 0.000474694)
(-0.0165498 0.000426229 0.000642389)
(-0.0137046 0.00103096 -0.000585823)
(-0.0196966 -0.000158546 8.8917e-05)
(-0.021325 -0.000290733 0.000559464)
(-0.0190328 -4.35504e-05 0.00053198)
(-0.0209331 0.000230367 0.000934923)
(-0.0185264 -0.00019956 0.000861545)
(-0.0199791 -0.000341666 0.000888577)
(-0.0169838 -0.000683115 0.000974149)
(-0.018065 -0.000948276 0.00102734)
(-0.0151234 -0.00197651 0.000790548)
(-0.0209992 -0.000276324 -0.000154203)
(-0.0229792 -0.000265418 0.000141945)
(-0.0212935 -0.000210368 0.000276779)
(-0.0228294 -9.39103e-05 0.000517614)
(-0.0205661 -0.000381009 0.000862596)
(-0.0221703 -0.0005333 0.00127777)
(-0.0195279 -0.00107025 0.00130766)
(-0.0207973 -0.00151346 0.00155631)
(-0.0177351 -0.00385568 0.0016929)
(-0.0243086 -0.000398169 -0.000605317)
(-0.0259539 -0.000351334 -0.000409446)
(-0.0249836 -0.000373629 -0.000203987)
(-0.0263316 -0.000317128 5.26018e-05)
(-0.0247489 -0.000526029 0.00045905)
(-0.0260966 -0.000613069 0.000819169)
(-0.0237846 -0.00140272 0.00129886)
(-0.0250319 -0.00176824 0.00179505)
(-0.0208053 -0.00415962 0.0025639)
(-0.0194378 0.00049556 0.00049774)
(-0.0204585 0.000524724 0.000393751)
(-0.016973 0.00129535 -0.000671856)
(-0.0212372 -8.69759e-06 5.98244e-05)
(-0.0224956 -8.14756e-06 0.000300278)
(-0.0201022 7.07885e-05 0.000419644)
(-0.0219805 0.000158345 0.000859063)
(-0.0190819 -9.44141e-05 0.00081556)
(-0.0212064 -0.000175531 0.000697232)
(-0.0184492 -0.000344196 0.000776822)
(-0.0199021 -0.000645243 0.000774409)
(-0.0168227 -0.000675896 0.000636787)
(-0.0229637 -0.000266817 -5.89171e-05)
(-0.0244098 -0.00030443 0.000238917)
(-0.0227813 -0.000124781 0.000412982)
(-0.0241796 -6.06036e-05 0.000719356)
(-0.0220516 -0.000211536 0.000891168)
(-0.0233407 -0.000277585 0.00104392)
(-0.020626 -0.0008007 0.00114352)
(-0.0218132 -0.00116615 0.00130828)
(-0.0187873 -0.00240423 0.00159638)
(-0.025263 -0.000282429 -0.000308853)
(-0.0268856 -0.000304455 -0.000113382)
(-0.0261245 -0.000300275 9.58837e-05)
(-0.0274467 -0.00030927 0.000320268)
(-0.0262014 -0.000525343 0.000648876)
(-0.0272873 -0.000695881 0.000827574)
(-0.0253739 -0.00131478 0.0013884)
(-0.0261483 -0.00161527 0.00164419)
(-0.0229877 -0.00323781 0.00287064)
)
;

boundaryField
{
    inlet
    {
        type            calculated;
        value           nonuniform 0();
    }
    outlet
    {
        type            calculated;
        value           nonuniform List<vector> 
16
(
(0.0190906 0.000486222 0.0182026)
(-0.000592448 -0.0194998 0.0191797)
(-0.00692473 -0.0330044 0.0199027)
(-0.0171216 -0.0248346 0.0316788)
(0.0507078 0.00146182 0.0134748)
(0.00921494 -0.0124024 0.00352504)
(-0.00335074 -0.00966731 0.00475689)
(-0.0170928 -0.00934044 0.0173694)
(0.00148498 0.00343346 -0.0212063)
(-0.00399929 -0.00997849 -0.00516284)
(-0.00581824 -0.0193753 -0.00362555)
(-0.0108608 -0.0142789 -0.000771858)
(-0.0122254 0.00354864 -0.0100395)
(-0.00556703 0.00246053 0.000789499)
(-0.00535983 -0.00471103 0.00127163)
(-0.032293 -0.00822486 0.011683)
)
;
    }
    wall
    {
        type            calculated;
        value           nonuniform List<vector> 
66
(
(1.2544e-05 3.55577e-06 2.33117e-05)
(1.14129e-05 -4.65824e-07 2.65142e-05)
(2.05733e-05 5.19998e-06 3.56377e-05)
(8.49155e-06 -2.77926e-06 1.37865e-05)
(1.25111e-05 1.09519e-06 1.45723e-05)
(1.54899e-05 3.31166e-06 2.35356e-05)
(1.19487e-05 -1.48061e-06 7.52867e-06)
(7.86287e-06 -6.91673e-06 1.61047e-05)
(1.9802e-05 -7.97835e-07 1.7107e-05)
(1.08087e-05 -2.16242e-06 8.36503e-06)
(8.16549e-06 -1.34516e-06 9.77044e-06)
(1.95449e-05 9.03079e-07 1.77035e-05)
(1.2786e-05 -2.6263e-06 1.31082e-05)
(8.37364e-06 -2.24236e-06 1.09378e-05)
(9.96096e-06 -7.39009e-07 1.57093e-05)
(4.31136e-06 1.85555e-07 8.37919e-06)
(5.77833e-06 -1.55492e-06 2.15848e-05)
(8.29714e-06 4.66939e-07 1.28509e-05)
(6.72195e-06 1.50103e-06 1.22072e-05)
(3.82461e-06 -6.99012e-07 8.26999e-06)
(3.95995e-06 1.70473e-06 1.24111e-05)
(4.59394e-06 6.64333e-07 6.4311e-06)
(2.97475e-06 1.20155e-06 1.32832e-05)
(9.71534e-08 2.68639e-06 1.74723e-05)
(1.88266e-06 3.92913e-06 1.14779e-05)
(4.25385e-06 1.3595e-06 1.08163e-05)
(4.87757e-06 4.08876e-06 2.87629e-05)
(2.63791e-06 1.60067e-06 1.56552e-05)
(2.73087e-06 -7.03755e-08 9.59546e-06)
(1.46003e-05 8.8162e-07 1.70876e-05)
(1.45463e-05 2.38359e-06 3.52374e-05)
(-1.52401e-06 -7.87718e-07 3.02062e-05)
(1.56805e-05 3.9668e-06 2.59547e-05)
(2.05733e-05 5.19998e-06 3.56377e-05)
(9.90034e-06 -2.42106e-07 3.62785e-05)
(5.75376e-06 1.66758e-07 3.73155e-05)
(1.22888e-05 -1.13494e-06 3.17623e-05)
(1.54899e-05 3.31166e-06 2.35356e-05)
(9.77436e-06 7.61806e-07 3.01718e-05)
(6.54938e-06 -2.96332e-07 3.06464e-05)
(1.58118e-05 1.32687e-06 2.43315e-05)
(1.9802e-05 -7.97835e-07 1.7107e-05)
(1.48447e-05 -2.68238e-06 2.83737e-05)
(1.30472e-05 -7.83267e-07 2.26874e-05)
(1.15568e-05 9.75964e-07 1.84384e-05)
(1.95449e-05 9.03079e-07 1.77035e-05)
(6.48117e-06 -1.63637e-06 2.25407e-05)
(1.25264e-05 1.26951e-06 1.81978e-05)
(9.76063e-06 -2.24132e-06 1.56869e-05)
(9.96096e-06 -7.39009e-07 1.57093e-05)
(6.18934e-06 -6.46408e-07 2.5389e-05)
(1.27102e-05 1.08173e-06 1.96354e-05)
(1.84486e-05 -1.91826e-06 2.00861e-05)
(8.29714e-06 4.66939e-07 1.28509e-05)
(3.7849e-06 -3.93197e-07 1.54837e-05)
(1.26017e-05 1.30876e-07 1.04574e-05)
(3.2664e-06 1.11713e-06 9.54615e-06)
(4.59394e-06 6.64333e-07 6.4311e-06)
(5.0481e-06 -2.85019e-06 6.84605e-06)
(6.68108e-06 6.82599e-08 8.62302e-06)
(4.61785e-06 3.07584e-06 7.53319e-06)
(4.25385e-06 1.3595e-06 1.08163e-05)
(1.98074e-06 -1.44176e-06 1.0396e-05)
(7.80109e-07 1.29584e-06 9.06787e-06)
(5.55078e-07 9.50419e-07 7.66994e-06)
(1.46003e-05 8.8162e-07 1.70876e-05)
)
;
    }
    procBoundary7to0
    {
        type            processor;
        value           uniform (-0.0197948 -5.12815e-05 -6.8649e-05);
    }
    procBoundary7to1
    {
        type            processor;
        value           uniform (-0.0182813 0.000252224 0.000105651);
    }
    procBoundary7to3
    {
        type            processor;
        value           nonuniform List<vector> 
36
(
(-0.0177063 -3.66707e-05 0.000194771)
(-0.0195535 -8.54457e-06 0.000461862)
(-0.0175584 -8.47434e-05 0.000612263)
(-0.0196124 -0.000195174 0.000932452)
(-0.0175548 -0.000210157 0.00155458)
(-0.0189695 -0.000194846 0.00233266)
(-0.0165704 -0.000231617 0.00290461)
(-0.0175484 -0.000180058 0.00388117)
(-0.014793 -0.000398571 0.00513659)
(-0.0182999 -0.000296428 0.000125759)
(-0.0201764 -0.000165211 0.000433009)
(-0.018192 -0.000431743 0.000687913)
(-0.0204373 -0.000648675 0.00107215)
(-0.0184721 -0.000909102 0.00163107)
(-0.0203921 -0.00105375 0.00227351)
(-0.0180711 -0.00161756 0.00290526)
(-0.0197465 -0.00190171 0.00387159)
(-0.0164595 -0.00356972 0.00510092)
(-0.0195355 -0.000596168 -0.000177351)
(-0.0211695 -0.00053102 0.000192257)
(-0.0189158 -0.000521167 0.000518758)
(-0.0217601 -0.000555608 0.000856628)
(-0.0198265 -0.000835514 0.00149626)
(-0.0221876 -0.00101081 0.00213824)
(-0.0199978 -0.00173118 0.00265823)
(-0.0221479 -0.00240622 0.00377581)
(-0.0185255 -0.00512832 0.00506716)
(-0.0228225 -0.00105955 -0.00079421)
(-0.024409 -0.001144 -0.000560477)
(-0.0232742 -0.000949729 -0.000158431)
(-0.0250699 -0.000751193 0.000202725)
(-0.0236555 -0.000829264 0.000876033)
(-0.0255673 -0.000855494 0.00144553)
(-0.023419 -0.00184501 0.00226799)
(-0.025569 -0.00255091 0.00375199)
(-0.0208768 -0.00549194 0.00596887)
)
;
    }
    procBoundary7to5
    {
        type            processor;
        value           nonuniform List<vector> 
44
(
(-0.0201941 0.000299665 0.000253525)
(-0.0181328 0.000277429 0.000499115)
(-0.0201107 0.00024468 0.000918899)
(-0.017966 0.000646895 0.0012744)
(-0.0195344 0.0010417 0.0019314)
(-0.0168398 0.00181989 0.00252402)
(-0.017681 0.00228142 0.00323345)
(-0.0144004 0.00419332 0.00448663)
(-0.0180809 5.96021e-05 0.000160626)
(-0.0196464 0.000148096 0.000610302)
(-0.0184848 0.000446643 0.000426418)
(-0.0201895 0.000405302 0.000852426)
(-0.018086 0.00116982 0.00106194)
(-0.0190129 0.0015694 0.00142101)
(-0.0160644 0.00197218 0.00161272)
(-0.0162922 0.00234813 0.00194021)
(-0.0130916 0.00402265 0.00227467)
(-0.0180809 5.96021e-05 0.000160626)
(-0.0196464 0.000148096 0.000610302)
(-0.0196464 0.000148096 0.000610302)
(-0.0181373 0.000120917 0.000558757)
(-0.0203782 0.000160964 0.000785054)
(-0.0194808 0.000678024 0.000825614)
(-0.021071 0.000886828 0.000929679)
(-0.018231 0.00154315 0.000737449)
(-0.0192381 0.00202964 0.000707295)
(-0.0160183 0.00409251 -0.000223492)
(-0.0192971 0.000173807 -1.49326e-05)
(-0.0208173 0.000325202 0.000424792)
(-0.0181373 0.000120917 0.000558757)
(-0.0203782 0.000160964 0.000785054)
(-0.0203782 0.000160964 0.000785054)
(-0.020622 0.000205262 0.000839889)
(-0.0218448 8.65316e-05 0.000836102)
(-0.0206459 0.00159733 0.000723389)
(-0.021582 0.00215012 0.000532694)
(-0.0182527 0.00361046 -0.000134689)
(-0.0221751 0.000416309 -0.000157025)
(-0.0233761 0.000527093 4.44837e-05)
(-0.0216185 0.000339987 0.000490794)
(-0.0228143 0.000263857 0.00111652)
(-0.020622 0.000205262 0.000839889)
(-0.0218448 8.65316e-05 0.000836102)
(-0.0218448 8.65316e-05 0.000836102)
)
;
    }
    procBoundary7to6
    {
        type            processor;
        value           nonuniform List<vector> 
12
(
(-0.0202212 -0.000285445 -5.23129e-05)
(-0.0214011 -0.000481464 -0.000422197)
(-0.0240803 -0.000768318 -0.00103401)
(-0.0203478 -0.00020769 -9.42744e-05)
(-0.0216608 -0.000418461 -0.000365273)
(-0.0242523 -0.000618209 -0.000914657)
(-0.0214867 -0.000179071 -0.000166103)
(-0.0226206 -0.000293789 -0.000358435)
(-0.0250143 -0.000455098 -0.000768251)
(-0.0229476 -4.12269e-05 -0.00012443)
(-0.0241629 -0.000292437 -0.000301818)
(-0.0258143 -0.000329634 -0.000499834)
)
;
    }
}


// ************************************************************************* //
