/*--------------------------------*- C++ -*----------------------------------*\
| =========                 |                                                 |
| \\      /  F ield         | OpenFOAM: The Open Source CFD Toolbox           |
|  \\    /   O peration     | Version:  4.x                                   |
|   \\  /    A nd           | Web:      www.OpenFOAM.org                      |
|    \\/     M anipulation  |                                                 |
\*---------------------------------------------------------------------------*/
FoamFile
{
    version     2.0;
    format      ascii;
    class       volVectorField;
    location    "5.5";
    object      Us;
}
// * * * * * * * * * * * * * * * * * * * * * * * * * * * * * * * * * * * * * //

dimensions      [0 1 -1 0 0 0 0];

internalField   nonuniform List<vector> 
132
(
(-4.1686e-06 -7.97203e-08 -4.51878e-07)
(-4.21759e-06 -7.78775e-08 -3.72578e-07)
(-4.03422e-06 -3.89711e-08 -4.32046e-07)
(-3.72141e-06 -1.51636e-07 -3.51992e-07)
(-3.17706e-06 7.36339e-08 -2.20062e-07)
(-2.4822e-06 1.94125e-07 1.67597e-07)
(-2.10528e-06 6.88565e-08 -1.99012e-08)
(-1.68542e-06 7.32201e-08 8.64184e-08)
(-7.03567e-07 1.01091e-07 -4.61048e-08)
(-4.00288e-06 -1.56599e-09 -2.7976e-07)
(-4.1271e-06 -1.4555e-07 -3.0838e-07)
(-3.85838e-06 -7.40544e-08 -3.12119e-07)
(-3.62867e-06 -1.0898e-07 -2.42641e-07)
(-2.90396e-06 3.04312e-08 -1.57467e-07)
(-2.48524e-06 -5.76444e-08 -8.5643e-08)
(-2.14719e-06 -7.17129e-08 -1.28568e-07)
(-1.91998e-06 -7.55877e-08 -3.87361e-08)
(-1.05811e-06 -2.14264e-08 -6.90789e-08)
(-3.52778e-06 -2.47191e-07 -1.38599e-07)
(-3.59939e-06 -1.2078e-07 -1.5786e-07)
(-3.35726e-06 -7.18024e-08 -2.07584e-07)
(-2.90747e-06 -7.5684e-08 -1.12389e-07)
(-2.50369e-06 4.92084e-08 -8.03191e-08)
(-2.04748e-06 -1.59188e-07 -1.49909e-07)
(-1.87075e-06 -1.04762e-07 -1.7401e-07)
(-1.66961e-06 -3.05105e-07 1.68152e-08)
(-3.26212e-06 -1.34561e-06 -2.58878e-08)
(-2.92502e-06 1.42018e-07 -1.47175e-07)
(-2.56917e-06 -3.02953e-08 -2.62806e-07)
(-2.11056e-06 -2.26531e-07 -1.59199e-07)
(-1.84838e-06 -6.82677e-08 -6.07758e-08)
(-1.54348e-06 -9.31859e-10 -1.0588e-07)
(-1.31734e-06 3.9713e-08 -1.8135e-07)
(-1.20571e-06 -6.97949e-08 -6.9405e-08)
(-1.05211e-06 -1.54522e-07 5.00265e-08)
(-1.72599e-06 -6.69721e-07 -4.82073e-08)
(-3.52336e-06 -1.26798e-07 -2.64888e-07)
(-2.91384e-06 7.53402e-09 -2.59171e-07)
(-1.62537e-06 6.2501e-07 -1.17126e-07)
(-2.22164e-06 -6.10331e-08 -1.61904e-07)
(-1.7931e-06 -3.77294e-08 -1.07734e-07)
(-1.41573e-06 7.92314e-09 -1.11835e-08)
(-6.35846e-07 6.05602e-08 -3.7803e-08)
(-3.63277e-06 -2.56019e-07 -1.5711e-07)
(-3.55027e-06 -1.52743e-07 -1.41968e-07)
(-3.41407e-06 -2.32212e-08 -1.99133e-07)
(-3.09594e-06 -6.1665e-08 -1.88369e-07)
(-2.60022e-06 -2.97475e-09 -3.17558e-07)
(-1.94711e-06 -1.15593e-07 -1.62249e-07)
(-1.65607e-06 -3.72833e-08 -1.37476e-07)
(-1.46709e-06 -8.16395e-08 -5.20986e-08)
(-6.68321e-07 -5.21884e-08 -1.82416e-08)
(-3.38321e-06 -2.82278e-07 2.73971e-08)
(-3.30409e-06 -1.16662e-08 4.27575e-09)
(-3.1004e-06 -6.9848e-08 -8.13663e-08)
(-2.72087e-06 6.11903e-08 -1.34826e-07)
(-2.23784e-06 -1.12951e-07 -2.06673e-07)
(-1.84817e-06 -2.88732e-07 -2.00778e-07)
(-1.66318e-06 -5.06079e-08 -1.482e-07)
(-1.29342e-06 -1.51725e-07 -3.38368e-08)
(-5.61172e-06 -2.42155e-06 -1.18123e-07)
(-2.8202e-06 -1.9761e-07 2.05447e-07)
(-2.69245e-06 1.41638e-08 -1.72158e-07)
(-2.41852e-06 -2.96634e-07 -1.47252e-07)
(-1.89926e-06 4.75136e-08 4.64333e-08)
(-1.39282e-06 -6.45899e-08 -1.299e-07)
(-1.18978e-06 -1.42935e-07 -2.28512e-07)
(-1.12138e-06 5.9687e-08 -6.88132e-08)
(-9.58372e-07 -7.94539e-08 8.05174e-09)
(-2.35693e-06 -1.06572e-06 -3.63952e-08)
(-1.6382e-06 1.59264e-07 -2.58265e-07)
(-1.74949e-06 -1.42524e-07 -2.76325e-07)
(-1.43468e-06 -8.03107e-08 -1.71755e-07)
(-1.19882e-06 -7.15258e-08 -1.51062e-07)
(-4.84012e-07 2.18128e-08 -1.95634e-08)
(-3.01236e-06 -4.31912e-07 -1.09976e-07)
(-3.19156e-06 -2.56943e-07 2.05455e-08)
(-2.71637e-06 1.9812e-08 7.4894e-08)
(-2.19225e-06 1.0756e-09 -1.20565e-07)
(-1.9316e-06 -1.17224e-07 -2.57749e-07)
(-1.61995e-06 -1.93335e-07 -2.27871e-07)
(-1.39804e-06 -2.82998e-08 -1.34071e-07)
(-1.12562e-06 -2.54288e-08 -3.25054e-08)
(-5.48603e-07 -8.67262e-08 -5.87774e-09)
(-2.75831e-06 -3.0397e-07 1.66231e-07)
(-2.43392e-06 4.3566e-08 2.34699e-08)
(-2.38588e-06 -1.205e-07 3.07742e-07)
(-2.04514e-06 -6.17705e-08 -1.17647e-07)
(-1.64839e-06 -1.40796e-07 -2.61087e-07)
(-1.50409e-06 -1.74969e-07 -1.95671e-07)
(-1.17166e-06 8.80062e-08 -1.77788e-07)
(-1.01002e-06 -4.84844e-08 -1.28969e-07)
(-5.60363e-07 -7.84603e-08 -6.17204e-08)
(-1.86165e-06 -1.44268e-07 2.11256e-07)
(-1.98476e-06 -3.20829e-07 -1.45065e-07)
(-1.97639e-06 -5.75397e-08 8.66728e-09)
(-1.60985e-06 -2.23137e-08 -5.51426e-08)
(-9.87469e-07 -5.20302e-08 -1.7195e-07)
(-9.87826e-07 1.07156e-07 -2.20835e-07)
(-7.81745e-07 4.37417e-08 -1.46994e-07)
(-5.6332e-07 -5.43755e-08 -5.62047e-08)
(-3.13214e-07 -1.05587e-07 -3.96073e-08)
(-1.14261e-06 -2.22466e-07 -2.18235e-07)
(-1.1567e-06 4.10876e-08 -1.29831e-07)
(-4.50636e-07 5.44059e-08 8.61164e-09)
(-1.96637e-06 -5.68498e-07 -3.96715e-08)
(-1.94376e-06 -4.40057e-07 -6.86198e-08)
(-1.63568e-06 -1.67551e-07 -6.08221e-08)
(-1.29904e-06 -1.10343e-07 -9.75626e-08)
(-1.1518e-06 -1.67278e-07 -1.52665e-07)
(-1.3119e-06 -1.59441e-07 -1.10048e-07)
(-1.01672e-06 -3.92021e-08 -2.59217e-07)
(-1.02897e-06 -1.25974e-08 2.3713e-08)
(-3.32352e-07 -4.81176e-08 1.35757e-09)
(-1.22849e-06 -5.32294e-07 5.05042e-08)
(-1.20975e-06 -2.67808e-07 -4.7222e-08)
(-1.40517e-06 -2.03844e-07 1.2974e-07)
(-1.18626e-06 -5.6475e-08 -1.015e-07)
(-9.89428e-07 -1.22693e-07 -1.4574e-07)
(-8.35943e-07 -6.94457e-08 -8.28311e-08)
(-7.35844e-07 6.07106e-08 -1.49998e-07)
(-7.55271e-07 -2.34805e-08 -5.06074e-08)
(-4.18478e-07 -6.71852e-08 -6.0401e-08)
(-9.5981e-07 -7.00255e-08 8.39056e-08)
(-9.65837e-07 -6.60535e-08 -7.17989e-08)
(-1.13951e-06 -2.91806e-08 -1.26548e-08)
(-8.84331e-07 5.54281e-08 -7.25702e-08)
(-7.01181e-07 4.21656e-08 -9.16543e-08)
(-5.41117e-07 -3.31536e-08 -1.84503e-07)
(-4.89632e-07 4.03301e-08 -2.97711e-08)
(-5.62233e-07 -5.86066e-08 -4.81283e-08)
(-2.31834e-07 -8.46966e-08 -2.94405e-08)
)
;

boundaryField
{
    inlet
    {
        type            zeroGradient;
    }
    outlet
    {
        type            zeroGradient;
    }
    wall
    {
        type            zeroGradient;
    }
    procBoundary7to0
    {
        type            processor;
        value           uniform (-4.04326e-06 -3.75948e-09 -5.43923e-07);
    }
    procBoundary7to1
    {
        type            processor;
        value           uniform (-4.01212e-06 -8.83811e-08 -5.3298e-07);
    }
    procBoundary7to3
    {
        type            processor;
        value           nonuniform List<vector> 
36
(
(-4.59484e-06 1.13257e-07 -5.4301e-07)
(-4.63874e-06 1.67904e-07 -4.91879e-07)
(-4.59108e-06 2.6995e-07 -4.60941e-07)
(-4.1681e-06 4.20109e-08 -3.51418e-07)
(-3.65762e-06 9.73002e-08 -2.39453e-07)
(-2.89405e-06 9.00815e-08 3.13204e-08)
(-2.55629e-06 9.9379e-08 7.10757e-08)
(-2.06164e-06 1.64173e-07 2.70485e-07)
(-1.13841e-06 3.39537e-08 1.45872e-07)
(-4.43585e-06 4.88493e-08 -4.9141e-07)
(-4.4759e-06 -1.15295e-08 -4.23711e-07)
(-4.35662e-06 8.0597e-09 -3.65273e-07)
(-3.76805e-06 8.73655e-08 -5.80416e-08)
(-3.25705e-06 3.20123e-08 -7.78789e-09)
(-2.91934e-06 -1.68963e-07 8.09854e-09)
(-2.43208e-06 -1.35112e-08 -2.82223e-08)
(-2.02062e-06 -1.04057e-08 9.42916e-10)
(-1.14797e-06 -8.94637e-08 5.50414e-09)
(-3.80286e-06 6.11547e-08 -2.12689e-07)
(-3.79572e-06 -6.07384e-08 -1.89564e-07)
(-3.8417e-06 -1.75047e-07 -3.30637e-07)
(-3.10543e-06 1.11658e-07 -4.48938e-08)
(-2.67976e-06 2.73195e-08 -6.54088e-08)
(-2.42947e-06 -2.34665e-07 -5.9016e-08)
(-2.3363e-06 -8.47845e-08 3.98657e-08)
(-1.83651e-06 -2.55049e-08 6.81263e-08)
(-8.32455e-07 -1.57632e-07 8.52389e-08)
(-2.51365e-06 2.63783e-07 -1.79685e-07)
(-2.17797e-06 -3.15807e-08 -1.96518e-07)
(-2.27112e-06 -1.90045e-07 -1.58426e-07)
(-1.8031e-06 -2.50734e-07 -9.64772e-08)
(-1.76421e-06 -9.76409e-09 -7.05895e-08)
(-1.29269e-06 -1.43107e-07 -1.58188e-07)
(-1.05316e-06 1.95382e-08 -8.4662e-09)
(-1.29492e-06 -2.25606e-07 2.10629e-07)
(-6.66316e-07 -1.24548e-07 1.26559e-07)
)
;
    }
    procBoundary7to5
    {
        type            processor;
        value           nonuniform List<vector> 
44
(
(-4.0174e-06 -5.31454e-08 -5.13881e-07)
(-3.6837e-06 6.34281e-08 -4.58307e-07)
(-3.28938e-06 1.84162e-08 -3.34307e-07)
(-2.94445e-06 1.13897e-07 -2.33683e-07)
(-2.50244e-06 1.9657e-07 -1.5788e-07)
(-2.0982e-06 1.00747e-07 -9.9133e-08)
(-1.75283e-06 2.16756e-07 6.08728e-09)
(-8.62916e-07 3.46408e-07 1.26949e-08)
(-3.77482e-06 -2.52213e-07 -3.31852e-07)
(-3.58104e-06 -1.89651e-07 -1.56231e-07)
(-3.18608e-06 -1.02095e-08 -3.66283e-07)
(-2.91024e-06 -5.31576e-08 -3.59099e-07)
(-2.46369e-06 5.09742e-08 -1.71464e-07)
(-2.11356e-06 6.98847e-08 -2.1596e-07)
(-1.85097e-06 5.94801e-08 -1.46572e-07)
(-1.48025e-06 1.49592e-07 -7.17872e-08)
(-5.68925e-07 1.87435e-07 -9.7424e-09)
(-3.77482e-06 -2.52213e-07 -3.31852e-07)
(-3.58104e-06 -1.89651e-07 -1.56231e-07)
(-3.58104e-06 -1.89651e-07 -1.56231e-07)
(-2.79831e-06 -1.6756e-07 -1.93058e-07)
(-2.3286e-06 -1.54042e-07 -1.771e-07)
(-1.93616e-06 -1.87804e-08 -1.51824e-07)
(-1.65883e-06 -1.04144e-07 -2.28633e-07)
(-1.36341e-06 -1.05518e-07 -1.74902e-07)
(-1.06509e-06 4.10837e-08 -1.3163e-07)
(-6.35879e-07 9.70633e-08 -9.3331e-08)
(-3.35447e-06 -3.97891e-07 -4.31373e-07)
(-3.08034e-06 -3.46455e-07 -2.62675e-07)
(-2.79831e-06 -1.6756e-07 -1.93058e-07)
(-2.3286e-06 -1.54042e-07 -1.771e-07)
(-2.3286e-06 -1.54042e-07 -1.771e-07)
(-1.30737e-06 -1.43587e-07 -1.28077e-07)
(-1.14132e-06 -2.35301e-07 -2.68524e-07)
(-9.54897e-07 -1.25209e-07 -1.21099e-07)
(-7.47558e-07 -6.2761e-09 -7.03817e-08)
(-4.13193e-07 7.87244e-08 -1.00176e-07)
(-2.10213e-06 -4.8372e-07 -2.42893e-08)
(-1.89728e-06 -4.38178e-07 -1.10044e-07)
(-1.61242e-06 -1.87563e-07 -2.4511e-08)
(-1.37197e-06 4.30885e-08 -6.51098e-08)
(-1.30737e-06 -1.43587e-07 -1.28077e-07)
(-1.14132e-06 -2.35301e-07 -2.68524e-07)
(-1.14132e-06 -2.35301e-07 -2.68524e-07)
)
;
    }
    procBoundary7to6
    {
        type            processor;
        value           nonuniform List<vector> 
12
(
(-3.72185e-06 -1.20308e-07 -2.80725e-07)
(-3.36553e-06 -1.05251e-07 -2.29077e-07)
(-1.21271e-06 -5.61619e-08 -2.55839e-07)
(-3.51358e-06 -1.64587e-07 -1.13893e-07)
(-3.07178e-06 -1.28012e-07 8.02991e-10)
(-1.90387e-06 -7.86573e-09 -1.01336e-07)
(-2.90944e-06 -3.22574e-07 -1.13909e-07)
(-2.85998e-06 -3.42086e-07 2.29384e-07)
(-1.47933e-06 -2.57022e-07 2.8069e-07)
(-2.18284e-06 -5.52203e-07 -3.10001e-07)
(-1.70287e-06 -6.29464e-07 2.09452e-07)
(-9.39902e-07 -2.73097e-07 3.05109e-07)
)
;
    }
}


// ************************************************************************* //
