/*--------------------------------*- C++ -*----------------------------------*\
| =========                 |                                                 |
| \\      /  F ield         | OpenFOAM: The Open Source CFD Toolbox           |
|  \\    /   O peration     | Version:  4.x                                   |
|   \\  /    A nd           | Web:      www.OpenFOAM.org                      |
|    \\/     M anipulation  |                                                 |
\*---------------------------------------------------------------------------*/
FoamFile
{
    version     2.0;
    format      ascii;
    class       volScalarField;
    location    "44.5";
    object      KslPrev;
}
// * * * * * * * * * * * * * * * * * * * * * * * * * * * * * * * * * * * * * //

dimensions      [1 -3 -1 0 0 0 0];

internalField   nonuniform List<scalar> 
132
(
3316.98
6833.99
3086.71
5255.39
2904.58
4530.1
2789.15
4086.16
2614.97
3335.37
7303.93
3194.59
5890.48
3047.95
5165.13
2929
4697.66
2817.98
3347.41
7665.43
3259.01
6395.81
3186.74
5737.77
3075.99
5394.7
3036.31
3363.76
7559.83
3226.38
3367.6
7937.8
3296.91
7036.61
3260.3
6504.15
3216.61
6159.75
3115.51
3398.15
9088.73
3467.16
9108.12
3533.8
9608.78
3533.8
10363.6
3485.78
3436.5
10110.8
3559.52
11483.5
3675.46
14338.4
3745.61
21118.7
3714.12
3482.86
9744.14
3570.71
10760.8
3663.35
3400.69
8099.19
3377.64
7395.66
3322.92
6871.7
3246.96
6494.97
3113.24
3456
9454.29
3551.85
10123.6
3609.16
11049.6
3598.34
12122.2
3483.41
3500.84
10671.8
3686.37
14592.8
3812.38
20545.1
3821.02
26582.1
3736.12
3527.9
11080.6
3725.41
15592.8
3793.42
20965
3758.76
3384
8178.3
3390.12
7683.38
3367.31
7544.21
3353.93
7688.13
3319.57
3454.81
10208.2
3624.23
12704.6
3699.19
16588.1
3756.67
26260.6
3732.31
3510.08
11670.2
3775.57
21635.4
3923.22
75058.6
4024.26
1e+10
4089.7
3499.52
11263.3
3752.7
18246
3801.56
30321.2
3794.88
50612.4
3749.19
)
;

boundaryField
{
    inlet
    {
        type            zeroGradient;
    }
    outlet
    {
        type            zeroGradient;
    }
    wall
    {
        type            zeroGradient;
    }
    procBoundary0to1
    {
        type            processor;
        value           uniform 0;
    }
    procBoundary0to2
    {
        type            processor;
        value           uniform 0;
    }
    procBoundary0to4
    {
        type            processor;
        value           uniform 0;
    }
    procBoundary0to6
    {
        type            processor;
        value           uniform 0;
    }
    procBoundary0to7
    {
        type            processor;
        value           uniform 0;
    }
}


// ************************************************************************* //
