/*--------------------------------*- C++ -*----------------------------------*\
| =========                 |                                                 |
| \\      /  F ield         | OpenFOAM: The Open Source CFD Toolbox           |
|  \\    /   O peration     | Version:  4.x                                   |
|   \\  /    A nd           | Web:      www.OpenFOAM.org                      |
|    \\/     M anipulation  |                                                 |
\*---------------------------------------------------------------------------*/
FoamFile
{
    version     2.0;
    format      ascii;
    class       volScalarField;
    location    "44.5";
    object      pSmooth;
}
// * * * * * * * * * * * * * * * * * * * * * * * * * * * * * * * * * * * * * //

dimensions      [1 -1 -2 0 0 0 0];

internalField   nonuniform List<scalar> 
132
(
107.978
91.3835
101.393
74.0621
94.6337
56.0771
87.6947
37.5138
81.0724
108.209
91.5272
101.61
74.0317
94.7617
55.962
87.7754
37.344
81.0623
108.619
91.9019
102.026
74.3186
95.1535
56.2034
88.2127
37.8929
81.4779
108.596
91.7723
101.968
108.815
91.9893
102.15
74.3763
95.2779
56.2763
88.2859
37.8102
81.5515
109.161
92.0994
102.454
74.4428
95.5342
56.2046
88.4824
37.5904
81.6316
109.68
92.4404
102.973
74.729
96.049
56.5025
88.9975
37.9593
82.0996
109.653
92.2296
102.844
74.5608
95.8079
109.363
92.2145
102.451
74.5177
95.3089
56.3364
88.1644
37.6924
81.265
109.806
92.3878
102.849
74.6264
95.6607
56.2957
88.4394
37.51
81.3503
110.371
92.7667
103.446
75.0138
96.1349
56.655
88.7523
38.135
81.6696
110.523
92.8139
103.52
74.9298
96.1217
56.4773
88.6773
110.066
92.8481
103.189
75.1
96.0835
56.9767
88.8872
38.7232
82.0601
110.604
93.079
103.635
75.1841
96.4163
57.0541
89.2036
38.586
82.1587
111.19
93.5852
104.299
75.7485
96.9548
57.7199
89.2872
39.8221
81.9647
111.175
93.4728
104.148
75.421
96.6248
57.2241
89.0706
38.758
81.9158
)
;

boundaryField
{
    inlet
    {
        type            zeroGradient;
    }
    outlet
    {
        type            fixedValue;
        value           nonuniform 0();
    }
    wall
    {
        type            zeroGradient;
    }
    procBoundary0to1
    {
        type            processor;
        value           nonuniform List<scalar> 
12
(
19.0015
18.4585
19.1915
19.2622
18.8071
19.5221
18.9757
18.4629
19.8761
20.427
20.2492
22.384
)
;
    }
    procBoundary0to2
    {
        type            processor;
        value           nonuniform List<scalar> 
44
(
74.2128
94.947
55.937
87.9502
37.2424
81.1978
108.943
91.9522
74.2128
102.226
74.2128
94.947
56.1263
88.5536
37.2281
81.6008
109.813
92.5115
103.084
74.6888
56.1263
96.0684
56.1263
88.5536
37.7546
81.5575
110.604
92.9469
103.711
75.2978
96.4389
57.3094
37.7546
89.0697
37.7546
81.5575
111.298
93.4953
104.193
75.473
96.7894
57.2922
89.3589
39.0101
)
;
    }
    procBoundary0to4
    {
        type            processor;
        value           nonuniform List<scalar> 
36
(
110.276
92.9123
103.194
75.1215
95.8545
56.9608
88.5557
38.4403
81.446
110.888
93.1789
103.764
75.3167
96.2672
57.0114
88.8684
38.5572
81.752
111.466
93.6032
104.233
75.7459
96.6182
57.5537
89.1246
39.2934
81.7451
111.567
93.7816
104.414
75.9357
96.8545
57.8044
89.1869
39.5421
81.62
)
;
    }
    procBoundary0to6
    {
        type            processor;
        value           uniform 82.0565;
    }
    procBoundary0to7
    {
        type            processor;
        value           uniform 20.853;
    }
}


// ************************************************************************* //
