/*--------------------------------*- C++ -*----------------------------------*\
| =========                 |                                                 |
| \\      /  F ield         | OpenFOAM: The Open Source CFD Toolbox           |
|  \\    /   O peration     | Version:  4.x                                   |
|   \\  /    A nd           | Web:      www.OpenFOAM.org                      |
|    \\/     M anipulation  |                                                 |
\*---------------------------------------------------------------------------*/
FoamFile
{
    version     2.0;
    format      ascii;
    class       volScalarField;
    location    "44.5";
    object      QPartFluid;
}
// * * * * * * * * * * * * * * * * * * * * * * * * * * * * * * * * * * * * * //

dimensions      [1 -1 -3 0 0 0 0];

internalField   nonuniform List<scalar> 
132
(
5.18421e+09
4.25713e+09
3.70012e+09
2.9643e+09
4.31963e+09
4.48771e+09
5.88013e+09
3.93861e+09
2.01748e+09
4.64976e+09
5.10153e+09
5.5255e+09
5.5958e+09
3.8402e+09
6.71575e+09
5.31286e+09
5.78964e+09
5.24279e+09
3.11673e+09
5.87375e+09
5.74666e+09
5.06319e+09
5.56437e+09
4.88836e+09
3.98e+09
5.1699e+09
8.50499e+09
2.97903e+09
4.53275e+09
3.50892e+09
4.26793e+09
6.97403e+09
8.63751e+09
7.57026e+09
7.74619e+09
7.59918e+09
7.12025e+09
6.77071e+09
7.25953e+09
4.98261e+09
9.45783e+09
8.01737e+09
8.49959e+09
9.60491e+09
8.61477e+09
9.20254e+09
9.19479e+09
8.97179e+09
5.30179e+09
9.44823e+09
8.40914e+09
7.53254e+09
9.07489e+09
6.73907e+09
1.05163e+10
6.8937e+09
6.34617e+09
7.96475e+09
7.0366e+09
7.79767e+09
5.51172e+09
1.13205e+10
5.58581e+09
6.97099e+09
8.13896e+09
6.97004e+09
7.49245e+09
5.67373e+09
8.05946e+09
7.06831e+09
5.41851e+09
6.24787e+09
8.28168e+09
7.99031e+09
6.92349e+09
9.28237e+09
6.72302e+09
9.45579e+09
1.01861e+10
1.01477e+10
6.70873e+09
7.2081e+09
8.09411e+09
9.30897e+09
9.83899e+09
8.08726e+09
9.21269e+09
6.45578e+09
5.39686e+09
6.90633e+09
8.67082e+09
9.57699e+09
9.00083e+09
9.97713e+09
8.03781e+09
8.77845e+09
4.35462e+09
4.98772e+09
6.76951e+09
5.18532e+09
7.08519e+09
7.77217e+09
5.90289e+09
4.32999e+09
6.03951e+09
5.13715e+09
9.59578e+09
9.09384e+09
8.08783e+09
7.20125e+09
6.62977e+09
1.04325e+10
7.18578e+09
6.93027e+09
5.18866e+09
5.58436e+09
9.05145e+09
6.10445e+09
8.69467e+09
8.40168e+09
8.24032e+09
4.94268e+09
9.3327e+09
4.82789e+09
6.72862e+09
9.82905e+09
1.02166e+10
5.50729e+09
9.79141e+09
8.5548e+09
5.52662e+09
2.61625e+09
)
;

boundaryField
{
    inlet
    {
        type            calculated;
        value           uniform 0;
    }
    outlet
    {
        type            calculated;
        value           nonuniform 0();
    }
    wall
    {
        type            calculated;
        value           uniform 0;
    }
    procBoundary0to1
    {
        type            processor;
        value           nonuniform List<scalar> 
12
(
4.29723e+09
4.53263e+09
3.94661e+09
7.4275e+09
9.02029e+09
7.91841e+09
7.12438e+09
6.48492e+09
9.49175e+09
6.47173e+09
7.85746e+09
5.89519e+09
)
;
    }
    procBoundary0to2
    {
        type            processor;
        value           nonuniform List<scalar> 
44
(
7.13515e+09
5.59338e+09
3.05256e+09
5.97089e+09
3.63667e+09
4.59927e+09
5.81588e+09
6.93088e+09
7.13515e+09
6.13253e+09
7.13515e+09
5.59338e+09
9.84914e+09
1.2306e+10
6.61244e+09
1.12297e+10
4.73243e+09
7.9359e+09
9.59284e+09
9.17331e+09
9.84914e+09
8.88243e+09
9.84914e+09
1.2306e+10
8.0641e+09
9.29479e+09
6.86107e+09
5.7375e+09
6.74771e+09
6.86384e+09
6.75928e+09
7.68352e+09
8.0641e+09
9.82206e+09
8.0641e+09
9.29479e+09
4.89896e+09
9.48463e+09
1.03014e+10
7.1558e+09
8.24139e+09
6.27398e+09
7.58823e+09
7.49003e+09
)
;
    }
    procBoundary0to4
    {
        type            processor;
        value           nonuniform List<scalar> 
36
(
4.92432e+09
7.10868e+09
8.42647e+09
5.98006e+09
7.15755e+09
5.99288e+09
8.94362e+09
6.87346e+09
9.64972e+09
7.01808e+09
7.29782e+09
9.38917e+09
1.00428e+10
1.01175e+10
8.59443e+09
8.14362e+09
5.77715e+09
1.11088e+10
6.68817e+09
1.02789e+10
8.31675e+09
9.37196e+09
8.12516e+09
6.31003e+09
7.30845e+09
1.02995e+10
6.74008e+09
3.4576e+09
6.73087e+09
9.39572e+09
5.70202e+09
8.79604e+09
6.65985e+09
1.10178e+10
5.97997e+09
7.05601e+09
)
;
    }
    procBoundary0to6
    {
        type            processor;
        value           uniform 8.11153e+09;
    }
    procBoundary0to7
    {
        type            processor;
        value           uniform 1.00662e+10;
    }
}


// ************************************************************************* //
