/*--------------------------------*- C++ -*----------------------------------*\
| =========                 |                                                 |
| \\      /  F ield         | OpenFOAM: The Open Source CFD Toolbox           |
|  \\    /   O peration     | Version:  4.x                                   |
|   \\  /    A nd           | Web:      www.OpenFOAM.org                      |
|    \\/     M anipulation  |                                                 |
\*---------------------------------------------------------------------------*/
FoamFile
{
    version     2.0;
    format      ascii;
    class       volVectorField;
    location    "11";
    object      ddtUrel;
}
// * * * * * * * * * * * * * * * * * * * * * * * * * * * * * * * * * * * * * //

dimensions      [0 1 -2 0 0 0 0];

internalField   nonuniform List<vector> 
108
(
(2.94988e-07 3.23869e-08 -8.21679e-08)
(1.84957e-07 1.45234e-08 -8.02242e-08)
(8.37718e-08 4.92207e-09 -7.1344e-08)
(-7.28824e-08 -1.91015e-09 -5.65797e-08)
(-3.42446e-07 -2.62884e-09 -5.73848e-08)
(-8.29308e-07 6.08199e-09 -6.20235e-08)
(-1.70822e-06 1.59649e-08 -5.96162e-08)
(-2.14834e-06 3.38568e-08 -4.72369e-08)
(-1.77517e-06 1.95873e-08 -3.29635e-08)
(2.70418e-07 2.49089e-08 -9.02657e-08)
(1.76241e-07 2.72127e-08 -8.53772e-08)
(8.2859e-08 2.03014e-08 -7.30584e-08)
(-1.01911e-07 3.08091e-09 -5.96901e-08)
(-3.60985e-07 6.13246e-10 -5.74625e-08)
(-7.99089e-07 3.17709e-09 -5.32108e-08)
(-1.69331e-06 4.93638e-10 -4.63458e-08)
(-2.18775e-06 1.89658e-08 -1.17298e-08)
(-1.89637e-06 4.73149e-08 3.73641e-08)
(1.84822e-07 3.4105e-08 -1.03398e-07)
(9.6341e-08 3.88172e-08 -1.02812e-07)
(2.7851e-08 3.66281e-08 -9.59478e-08)
(-1.61257e-07 1.86945e-08 -6.63886e-08)
(-3.62062e-07 1.26879e-08 -5.83958e-08)
(-7.44381e-07 8.28207e-09 -4.80115e-08)
(-1.59792e-06 -9.87108e-09 -2.90418e-08)
(-2.21201e-06 -7.06941e-09 -2.19742e-09)
(-1.89207e-06 4.20718e-08 5.3666e-08)
(4.43273e-08 3.52125e-08 -1.26275e-07)
(-3.70465e-08 4.08881e-08 -1.24397e-07)
(-3.85026e-08 3.52783e-08 -8.93741e-08)
(-2.29828e-07 2.45462e-08 -7.6346e-08)
(-3.51941e-07 1.8333e-08 -7.7169e-08)
(-7.22308e-07 2.51851e-08 -5.45116e-08)
(-1.38057e-06 -1.10636e-09 1.49161e-09)
(-1.97225e-06 -2.34902e-08 7.15887e-08)
(-1.99471e-06 7.30998e-08 3.21893e-07)
(2.33285e-07 1.59978e-08 -8.76675e-08)
(1.55558e-07 7.5018e-09 -8.31592e-08)
(4.52649e-08 4.16972e-09 -7.45627e-08)
(-1.36547e-07 2.04579e-09 -6.87215e-08)
(-4.30683e-07 1.69799e-09 -7.13334e-08)
(-9.09724e-07 5.41146e-09 -7.71099e-08)
(-1.82094e-06 1.27309e-08 -6.92374e-08)
(-2.2174e-06 2.55003e-08 -5.81505e-08)
(-1.81811e-06 2.92408e-08 -7.74951e-08)
(2.19155e-07 2.09376e-08 -9.40371e-08)
(1.41232e-07 1.87629e-08 -8.90093e-08)
(3.67341e-08 1.37053e-08 -7.67146e-08)
(-1.41358e-07 8.46343e-09 -6.92636e-08)
(-4.26678e-07 5.71651e-09 -6.80751e-08)
(-8.8891e-07 5.43404e-09 -6.91114e-08)
(-1.80087e-06 1.27395e-09 -5.88816e-08)
(-2.22254e-06 1.59649e-09 -3.32425e-08)
(-1.83615e-06 8.22518e-09 -4.52982e-08)
(1.81885e-07 2.85011e-08 -1.06661e-07)
(1.10582e-07 3.16796e-08 -9.73091e-08)
(1.53387e-08 2.57557e-08 -8.0116e-08)
(-1.49002e-07 1.73367e-08 -7.02094e-08)
(-4.13126e-07 1.08912e-08 -6.49113e-08)
(-8.63268e-07 1.10147e-08 -6.44651e-08)
(-1.74114e-06 -7.94168e-09 -4.65637e-08)
(-2.18126e-06 -2.34132e-08 -2.22154e-08)
(-1.82611e-06 2.54877e-10 -1.5871e-08)
(1.35368e-07 3.00366e-08 -1.18093e-07)
(6.36662e-08 3.75756e-08 -1.03622e-07)
(9.95654e-09 3.45781e-08 -8.1039e-08)
(-1.34999e-07 2.20402e-08 -7.18018e-08)
(-3.97906e-07 1.53502e-08 -6.9389e-08)
(-8.26445e-07 1.5412e-08 -5.9539e-08)
(-1.57498e-06 -1.19424e-09 -3.3525e-08)
(-1.99286e-06 -1.15178e-08 -7.00576e-10)
(-1.80376e-06 1.17418e-08 4.13378e-08)
(2.00702e-07 7.18409e-09 -1.03333e-07)
(1.36494e-07 5.88266e-09 -9.75603e-08)
(2.08814e-08 9.99555e-09 -9.22835e-08)
(-1.78226e-07 5.77896e-09 -9.2914e-08)
(-4.76685e-07 1.64853e-09 -9.27241e-08)
(-9.54695e-07 3.27865e-09 -9.27444e-08)
(-1.88426e-06 3.43133e-09 -9.48186e-08)
(-2.27138e-06 8.99192e-09 -8.08778e-08)
(-1.86299e-06 1.2236e-08 -8.16797e-08)
(1.97401e-07 1.65836e-08 -1.05925e-07)
(1.23602e-07 1.57499e-08 -1.00942e-07)
(1.19304e-08 1.56176e-08 -9.63092e-08)
(-1.71331e-07 1.14171e-08 -9.43346e-08)
(-4.65622e-07 5.2986e-09 -8.90949e-08)
(-9.47698e-07 4.92027e-09 -8.59447e-08)
(-1.88481e-06 -1.99924e-09 -8.52558e-08)
(-2.30399e-06 -5.32069e-09 -6.30846e-08)
(-1.87195e-06 -8.87262e-10 -6.01343e-08)
(1.73087e-07 2.58979e-08 -1.10502e-07)
(1.0901e-07 3.13378e-08 -1.03738e-07)
(1.04279e-08 2.46316e-08 -9.71599e-08)
(-1.5948e-07 2.09353e-08 -9.2004e-08)
(-4.43177e-07 1.15876e-08 -8.31713e-08)
(-9.1027e-07 9.1456e-09 -8.05494e-08)
(-1.80526e-06 -5.63977e-09 -7.75728e-08)
(-2.21828e-06 -1.60564e-08 -5.50653e-08)
(-1.80219e-06 -3.34116e-09 -4.5493e-08)
(1.30356e-07 2.9326e-08 -1.06994e-07)
(9.35891e-08 3.79005e-08 -1.05251e-07)
(1.53737e-08 3.12662e-08 -9.6932e-08)
(-1.50518e-07 2.32269e-08 -8.63368e-08)
(-4.05978e-07 1.81248e-08 -7.8351e-08)
(-8.6453e-07 1.00996e-08 -7.57029e-08)
(-1.62617e-06 -3.00375e-09 -6.65317e-08)
(-2.04321e-06 -6.8451e-09 -4.05116e-08)
(-1.73749e-06 6.86907e-10 -2.75602e-08)
)
;

boundaryField
{
    inlet
    {
        type            calculated;
        value           nonuniform 0();
    }
    outlet
    {
        type            calculated;
        value           nonuniform List<vector> 
12
(
(-5.00876e-07 -1.26794e-07 -6.13711e-08)
(-1.71134e-06 1.58424e-07 1.86663e-07)
(-2.33827e-08 1.70296e-07 -3.44017e-07)
(-2.45445e-06 6.30411e-07 2.83878e-06)
(-2.3472e-07 1.37228e-07 -4.03392e-07)
(-3.21711e-08 -1.08118e-07 -3.60751e-07)
(-1.12092e-07 -1.34623e-07 -2.50422e-07)
(-3.03207e-07 -4.19241e-08 -2.4056e-07)
(-9.68629e-08 -1.83612e-08 -2.04192e-07)
(-7.78504e-08 -3.55411e-08 -1.48435e-07)
(-2.47624e-08 -2.22893e-08 -1.07228e-07)
(-1.56198e-07 1.63667e-08 -9.00533e-08)
)
;
    }
    wall
    {
        type            calculated;
        value           nonuniform List<vector> 
63
(
(8.92334e-07 3.01081e-07 -2.38646e-07)
(1.22481e-06 -6.14676e-08 -9.63389e-08)
(9.32097e-07 4.78587e-08 -2.33493e-08)
(-1.77213e-06 8.25278e-09 -1.79754e-07)
(4.20271e-07 -2.66836e-09 -8.99851e-08)
(7.51486e-07 8.56999e-08 -8.32407e-08)
(5.71278e-08 1.76604e-07 -1.41658e-07)
(-3.32627e-06 1.87985e-07 -4.53169e-07)
(6.41464e-07 -4.3776e-08 -8.23364e-08)
(9.94461e-07 1.64336e-07 -7.56856e-09)
(5.68616e-07 2.48118e-07 -3.91363e-07)
(-2.66291e-07 5.97195e-08 -5.82296e-08)
(1.17376e-06 -5.35441e-08 6.94638e-08)
(5.12243e-07 -1.14858e-07 3.7556e-08)
(-1.9012e-07 1.194e-09 5.41228e-08)
(-2.94917e-06 1.3059e-08 -5.7214e-08)
(1.83324e-06 -5.80946e-08 4.67616e-08)
(7.54691e-07 -7.00273e-08 -1.63129e-08)
(9.06703e-07 1.4024e-08 2.96143e-08)
(7.98993e-07 4.76902e-09 -2.5532e-07)
(9.51979e-07 -1.16556e-08 -3.21777e-08)
(1.35208e-06 -5.14658e-08 1.55869e-08)
(1.8537e-06 -6.88263e-08 3.88245e-08)
(2.09187e-07 2.65215e-07 -2.05978e-07)
(-2.51063e-06 6.23632e-08 -5.90121e-08)
(-2.74858e-06 -7.93452e-08 -1.18677e-07)
(-1.72129e-06 -1.89065e-07 -1.50553e-08)
(1.16269e-06 -1.90392e-07 4.84846e-07)
(-5.3127e-06 5.62407e-08 2.63518e-07)
(-5.37173e-06 3.09689e-07 1.83068e-07)
(-6.49251e-06 1.79944e-08 -2.41928e-07)
(-3.18962e-06 -8.70727e-07 -9.54075e-08)
(-1.67672e-07 -4.54864e-07 4.97371e-07)
(-2.13282e-06 1.05559e-06 1.24963e-06)
(-6.92335e-07 2.58139e-07 -2.92095e-07)
(-2.58865e-06 5.01435e-07 3.06614e-06)
(-2.41304e-07 8.88247e-08 -2.62209e-07)
(3.58939e-07 7.05438e-09 -1.49851e-07)
(-2.8084e-07 2.20264e-08 2.62587e-08)
(-8.46869e-07 9.47462e-08 -3.51178e-07)
(5.14398e-08 8.38266e-08 -6.79684e-08)
(-1.3829e-07 1.3437e-07 -8.78354e-08)
(-1.49381e-07 2.79502e-08 -5.60613e-08)
(5.34776e-07 1.04371e-07 4.29817e-08)
(1.83334e-07 9.18462e-08 -1.03616e-07)
(6.21602e-07 9.70245e-09 -9.01835e-08)
(1.05802e-06 -1.22363e-08 2.27493e-08)
(2.60547e-07 3.47364e-08 -3.30542e-08)
(1.43853e-06 -2.61409e-08 -2.03316e-07)
(2.54744e-07 -1.59039e-08 -5.03628e-08)
(6.85684e-07 8.15739e-08 9.42485e-09)
(3.54115e-07 2.63061e-07 -2.27253e-07)
(-1.43514e-08 8.59054e-08 -8.2352e-08)
(1.25263e-07 4.95544e-08 -5.85513e-08)
(-3.24634e-07 1.03341e-07 3.97181e-08)
(-2.57057e-06 8.97164e-09 -2.83082e-08)
(-2.08763e-06 -2.41871e-08 -1.11726e-07)
(-3.35123e-06 -7.63188e-07 -2.1709e-08)
(-3.25043e-06 -8.97674e-08 -7.11602e-08)
(-4.68438e-06 -9.7734e-09 -1.55204e-08)
(-8.24937e-06 -3.76583e-06 1.23534e-05)
(-9.27714e-07 -6.82145e-08 -3.20039e-07)
(-6.83629e-07 1.2342e-08 -7.27328e-08)
)
;
    }
    procBoundary3to1
    {
        type            processor;
        value           nonuniform List<vector> 
27
(
(2.60555e-07 9.82727e-09 -8.31604e-08)
(1.61772e-07 5.96447e-09 -7.78061e-08)
(6.94426e-08 -3.42624e-09 -6.76456e-08)
(-1.06613e-07 -5.52857e-09 -5.56033e-08)
(-4.31841e-07 -1.00775e-09 -6.25216e-08)
(-8.40468e-07 3.76811e-09 -6.21582e-08)
(-1.65973e-06 1.27678e-08 -7.18958e-08)
(-2.1112e-06 4.07958e-08 -7.06699e-08)
(-1.70351e-06 6.08625e-08 -9.71604e-08)
(2.25337e-07 6.20361e-09 -8.46035e-08)
(1.4731e-07 2.44815e-09 -8.20101e-08)
(4.71249e-08 -1.63261e-09 -7.48797e-08)
(-1.49261e-07 -3.66113e-09 -6.65367e-08)
(-4.58001e-07 5.72255e-10 -6.99169e-08)
(-9.15368e-07 5.7867e-09 -7.45753e-08)
(-1.80241e-06 1.63771e-08 -7.77864e-08)
(-2.2438e-06 3.34304e-08 -7.36266e-08)
(-1.8586e-06 4.04832e-08 -1.0267e-07)
(2.0308e-07 1.22377e-09 -9.81349e-08)
(1.48432e-07 1.28668e-09 -9.49695e-08)
(2.37587e-08 3.74789e-10 -9.14022e-08)
(-1.88478e-07 -1.45102e-09 -8.82182e-08)
(-4.84541e-07 -5.58801e-10 -8.83375e-08)
(-9.5692e-07 1.23734e-09 -9.24154e-08)
(-1.86837e-06 1.18525e-08 -9.73872e-08)
(-2.2751e-06 2.18249e-08 -8.58777e-08)
(-1.87276e-06 1.81591e-08 -8.93087e-08)
)
;
    }
    procBoundary3to2
    {
        type            processor;
        value           nonuniform List<vector> 
12
(
(3.33651e-07 1.03233e-08 -8.54181e-08)
(3.16565e-07 1.23199e-08 -8.96912e-08)
(2.26832e-07 1.63036e-08 -1.01111e-07)
(4.77535e-08 2.04083e-08 -1.20961e-07)
(2.73413e-07 1.04736e-08 -9.27114e-08)
(2.65341e-07 1.59074e-08 -9.74078e-08)
(2.23145e-07 1.9575e-08 -1.1069e-07)
(1.61113e-07 2.64774e-08 -1.39066e-07)
(2.51787e-07 7.0267e-09 -1.09409e-07)
(2.44092e-07 1.37927e-08 -1.12321e-07)
(2.18003e-07 1.57494e-08 -1.19083e-07)
(1.6984e-07 1.7646e-08 -1.2558e-07)
)
;
    }
    procBoundary3to7
    {
        type            processor;
        value           nonuniform List<vector> 
36
(
(1.96497e-07 8.06232e-09 -1.19799e-07)
(1.28495e-07 7.66831e-09 -1.15384e-07)
(6.51409e-09 8.70246e-09 -1.10737e-07)
(-1.95375e-07 6.29522e-09 -1.09942e-07)
(-4.96847e-07 3.98834e-09 -1.08179e-07)
(-9.82397e-07 2.93153e-09 -1.09727e-07)
(-1.9031e-06 1.96106e-09 -1.12505e-07)
(-2.30802e-06 6.57999e-09 -9.26084e-08)
(-1.87375e-06 5.96584e-09 -7.9012e-08)
(1.94308e-07 1.83358e-08 -1.2157e-07)
(1.24081e-07 1.53124e-08 -1.16147e-07)
(7.2853e-09 1.30468e-08 -1.13744e-07)
(-1.83367e-07 1.13372e-08 -1.11377e-07)
(-4.83482e-07 8.09055e-09 -1.04459e-07)
(-9.67494e-07 2.25097e-09 -1.02404e-07)
(-1.88399e-06 -4.54379e-09 -1.01076e-07)
(-2.32148e-06 -5.59703e-09 -8.20022e-08)
(-1.89806e-06 -2.2754e-09 -6.99255e-08)
(1.87124e-07 2.87389e-08 -1.24346e-07)
(1.26573e-07 2.40638e-08 -1.20502e-07)
(1.66491e-08 1.95176e-08 -1.1385e-07)
(-1.63191e-07 1.53785e-08 -1.06251e-07)
(-4.57624e-07 1.03955e-08 -9.93282e-08)
(-9.28283e-07 2.90345e-09 -9.80244e-08)
(-1.79792e-06 -9.02927e-09 -9.81687e-08)
(-2.17822e-06 -1.49715e-08 -7.93361e-08)
(-1.77853e-06 -3.46606e-09 -6.23439e-08)
(1.95989e-07 3.33996e-08 -1.18207e-07)
(1.48813e-07 2.98354e-08 -1.17751e-07)
(1.74211e-08 2.39213e-08 -1.09743e-07)
(-1.47247e-07 1.79404e-08 -1.01704e-07)
(-4.28704e-07 1.17838e-08 -9.67058e-08)
(-8.7776e-07 2.80971e-09 -9.26067e-08)
(-1.64835e-06 -5.29458e-09 -8.64535e-08)
(-1.98798e-06 -4.66885e-09 -6.53315e-08)
(-1.67658e-06 3.66468e-09 -5.16968e-08)
)
;
    }
}


// ************************************************************************* //
