/*--------------------------------*- C++ -*----------------------------------*\
| =========                 |                                                 |
| \\      /  F ield         | OpenFOAM: The Open Source CFD Toolbox           |
|  \\    /   O peration     | Version:  4.x                                   |
|   \\  /    A nd           | Web:      www.OpenFOAM.org                      |
|    \\/     M anipulation  |                                                 |
\*---------------------------------------------------------------------------*/
FoamFile
{
    version     2.0;
    format      ascii;
    class       volScalarField;
    location    "11";
    object      Ksl;
}
// * * * * * * * * * * * * * * * * * * * * * * * * * * * * * * * * * * * * * //

dimensions      [1 -3 -1 0 0 0 0];

internalField   nonuniform List<scalar> 
108
(
6740.48
3253.4
9686
3252.83
10707.3
3000.42
8927.09
2424.88
5639.89
6085.71
3173.3
8633.2
3201.22
11117.9
3073.27
11079.2
2611.38
5822.25
4666.92
2955.75
6328.24
3196.43
9968.65
3537.41
18893.7
4493.27
24909.3
3133.36
2354.43
3381.22
2438.64
3940.52
2531.74
4713.72
2653.88
3418.72
18314.7
3672.06
16687.2
3549.95
14181.9
3484.54
12290.5
3530.2
5238.27
16727.8
3580.8
17695
3432.53
16968.2
3325.66
14622.6
3203.38
4645.04
13962.4
3574.2
16139.7
3426.71
17276.3
3207.38
15237.1
2830.84
6402.97
4691.62
2810.99
4576.01
2666.62
4830.8
2440.84
5451.95
1899.51
3455.58
111001
3986.89
60023
3879.22
35594.3
3848.67
26929
4014.41
14833.3
36409.5
3825.22
31678
3692.1
27704.2
3598.27
21623
3425
9042.15
34489.8
3846.9
29169
3628.62
19974.8
3306.73
13593.1
2660.33
5326.64
6119.45
3119.13
5565.31
2895.32
5529.98
2649.96
6259.6
2093.88
8611.06
)
;

boundaryField
{
    inlet
    {
        type            zeroGradient;
    }
    outlet
    {
        type            zeroGradient;
    }
    wall
    {
        type            zeroGradient;
    }
    procBoundary3to1
    {
        type            processor;
        value           nonuniform List<scalar> 
27
(
6597.72
3270.88
12228.6
3432.5
27796.9
3490.45
34507.1
3891.24
12330.2
18221.7
3598.97
20910.9
3525.86
26559
3564.16
114326
4026.41
1e+10
234198
3966.34
1e+10
3993.63
1e+10
4098.4
1e+10
4505.53
99724.4
)
;
    }
    procBoundary3to2
    {
        type            processor;
        value           nonuniform List<scalar> 
12
(
3079.8
3013.31
2798.15
2409.29
3834.89
3725.81
3678.32
2938.7
4055.88
3916.99
3937.04
3291.52
)
;
    }
    procBoundary3to7
    {
        type            processor;
        value           nonuniform List<scalar> 
36
(
20641.4
3855.86
20256.2
3968.74
24269.3
4311.49
27452
5381.66
16426.8
20474.9
3681.59
18291.6
3575.47
16108.6
3532.65
12323.2
3614.5
7587.12
17453.5
3659.68
15060.1
3501.97
12505
3401.11
9300.94
3322.01
3781.33
5902.74
3029.32
5586.33
2790.39
5494.31
2491.91
5846.42
1972.32
3898.32
)
;
    }
}


// ************************************************************************* //
