/*--------------------------------*- C++ -*----------------------------------*\
| =========                 |                                                 |
| \\      /  F ield         | OpenFOAM: The Open Source CFD Toolbox           |
|  \\    /   O peration     | Version:  4.x                                   |
|   \\  /    A nd           | Web:      www.OpenFOAM.org                      |
|    \\/     M anipulation  |                                                 |
\*---------------------------------------------------------------------------*/
FoamFile
{
    version     2.0;
    format      ascii;
    class       volScalarField;
    location    "11";
    object      nu;
}
// * * * * * * * * * * * * * * * * * * * * * * * * * * * * * * * * * * * * * //

dimensions      [0 2 -1 0 0 0 0];

internalField   nonuniform List<scalar> 
108
(
1.00099e-06
1.00094e-06
1.00071e-06
1.00041e-06
1.00009e-06
9.99843e-07
9.99656e-07
9.99548e-07
9.93975e-07
1.00103e-06
1.00107e-06
1.00092e-06
1.00066e-06
1.00034e-06
1.00006e-06
9.99813e-07
9.99641e-07
9.90105e-07
1.00098e-06
1.00111e-06
1.00109e-06
1.00091e-06
1.00061e-06
1.00028e-06
9.99967e-07
9.99684e-07
9.98284e-07
1.00072e-06
1.00091e-06
1.00107e-06
1.00116e-06
1.00117e-06
1.00109e-06
1.00089e-06
1.00074e-06
9.62659e-07
1.00071e-06
1.00055e-06
1.00032e-06
1.00007e-06
9.99856e-07
9.99667e-07
9.99533e-07
9.99438e-07
9.99014e-07
1.00075e-06
1.00064e-06
1.00042e-06
1.00019e-06
9.99952e-07
9.99749e-07
9.99585e-07
9.99477e-07
9.98891e-07
1.00082e-06
1.00077e-06
1.00058e-06
1.00034e-06
1.00006e-06
9.99838e-07
9.9965e-07
9.99633e-07
9.97585e-07
1.00072e-06
1.00086e-06
1.00097e-06
1.00103e-06
1.00102e-06
1.00097e-06
1.00078e-06
1.00066e-06
9.97838e-07
1.0004e-06
1.00028e-06
1.00013e-06
9.9997e-07
9.99824e-07
9.99685e-07
9.99582e-07
9.99502e-07
9.99387e-07
1.00041e-06
1.0003e-06
1.00014e-06
9.99983e-07
9.99832e-07
9.99697e-07
9.99587e-07
9.99519e-07
9.99205e-07
1.00047e-06
1.00038e-06
1.0002e-06
1.00003e-06
9.99865e-07
9.99793e-07
9.99671e-07
9.99698e-07
9.98355e-07
1.00056e-06
1.00068e-06
1.00076e-06
1.00082e-06
1.00081e-06
1.00078e-06
1.00064e-06
1.00055e-06
9.98588e-07
)
;

boundaryField
{
    inlet
    {
        type            calculated;
        value           nonuniform 0();
    }
    outlet
    {
        type            calculated;
        value           uniform 1e-06;
    }
    wall
    {
        type            calculated;
        value           nonuniform List<scalar> 
63
(
1.00099e-06
1.00103e-06
1.00098e-06
1.00072e-06
1.00094e-06
1.00107e-06
1.00111e-06
1.00091e-06
1.00071e-06
1.00092e-06
1.00109e-06
1.00107e-06
1.00041e-06
1.00066e-06
1.00091e-06
1.00116e-06
1.00009e-06
1.00034e-06
1.00061e-06
1.00117e-06
9.99843e-07
1.00006e-06
1.00028e-06
1.00109e-06
9.99656e-07
9.99813e-07
9.99967e-07
1.00089e-06
9.99548e-07
9.99641e-07
9.99684e-07
1.00074e-06
9.93975e-07
9.90105e-07
9.98284e-07
9.62659e-07
1.00072e-06
1.00072e-06
1.00056e-06
1.00091e-06
1.00086e-06
1.00068e-06
1.00107e-06
1.00097e-06
1.00076e-06
1.00116e-06
1.00103e-06
1.00082e-06
1.00117e-06
1.00102e-06
1.00081e-06
1.00109e-06
1.00097e-06
1.00078e-06
1.00089e-06
1.00078e-06
1.00064e-06
1.00074e-06
1.00066e-06
1.00055e-06
9.62659e-07
9.97838e-07
9.98588e-07
)
;
    }
    procBoundary3to1
    {
        type            processor;
        value           nonuniform List<scalar> 
27
(
1.001e-06
1.001e-06
1.00079e-06
1.00046e-06
1.00009e-06
9.99783e-07
9.996e-07
9.995e-07
9.99051e-07
1.00067e-06
1.00052e-06
1.00025e-06
9.99984e-07
9.99747e-07
9.99556e-07
9.9943e-07
9.99388e-07
9.993e-07
1.00035e-06
1.00019e-06
9.99997e-07
9.99805e-07
9.99631e-07
9.99504e-07
9.99421e-07
9.99412e-07
9.9925e-07
)
;
    }
    procBoundary3to2
    {
        type            processor;
        value           nonuniform List<scalar> 
12
(
1.00087e-06
1.00086e-06
1.00077e-06
1.00054e-06
1.00077e-06
1.00077e-06
1.00077e-06
1.00056e-06
1.00049e-06
1.00047e-06
1.00051e-06
1.00044e-06
)
;
    }
    procBoundary3to7
    {
        type            processor;
        value           nonuniform List<scalar> 
36
(
1.00028e-06
1.00019e-06
1.00008e-06
9.99953e-07
9.99826e-07
9.9971e-07
9.99655e-07
9.99648e-07
9.99682e-07
1.00021e-06
1.00013e-06
1.00003e-06
9.99911e-07
9.998e-07
9.99699e-07
9.99624e-07
9.9958e-07
9.99367e-07
1.00026e-06
1.00019e-06
1.00008e-06
9.99979e-07
9.99855e-07
9.99802e-07
9.99695e-07
9.99716e-07
9.99391e-07
1.00034e-06
1.00043e-06
1.0005e-06
1.00056e-06
1.00055e-06
1.00054e-06
1.0004e-06
1.00036e-06
9.99277e-07
)
;
    }
}


// ************************************************************************* //
