/*--------------------------------*- C++ -*----------------------------------*\
| =========                 |                                                 |
| \\      /  F ield         | OpenFOAM: The Open Source CFD Toolbox           |
|  \\    /   O peration     | Version:  4.x                                   |
|   \\  /    A nd           | Web:      www.OpenFOAM.org                      |
|    \\/     M anipulation  |                                                 |
\*---------------------------------------------------------------------------*/
FoamFile
{
    version     2.0;
    format      ascii;
    class       volScalarField;
    location    "11";
    object      Qsource;
}
// * * * * * * * * * * * * * * * * * * * * * * * * * * * * * * * * * * * * * //

dimensions      [1 -1 -3 0 0 0 0];

internalField   nonuniform List<scalar> 
108
(
8.44543e+09
4.51955e+09
6.47984e+09
3.90518e+09
4.68915e+09
4.51947e+09
5.5706e+09
5.54197e+09
4.38054e+09
6.4865e+09
1.00511e+10
5.12355e+09
6.19063e+09
5.96442e+09
5.79127e+09
6.18423e+09
6.49184e+09
4.96945e+09
7.29973e+09
7.31919e+09
7.27397e+09
5.59802e+09
6.13862e+09
5.74515e+09
6.05947e+09
6.75635e+09
3.55349e+09
6.29614e+09
6.26544e+09
6.78057e+09
8.80176e+09
6.21249e+09
7.70915e+09
4.72232e+09
6.85845e+09
6.75781e+09
8.29004e+09
7.84391e+09
9.89813e+09
1.02924e+10
8.43484e+09
7.73189e+09
6.83501e+09
8.18796e+09
8.23682e+09
7.41845e+09
8.15195e+09
8.25356e+09
8.90038e+09
7.64973e+09
8.10203e+09
9.76364e+09
9.20872e+09
6.70814e+09
1.26464e+10
9.81437e+09
8.88661e+09
1.11494e+10
8.33281e+09
9.69433e+09
8.25848e+09
9.64809e+09
7.7563e+09
9.16871e+09
8.20056e+09
7.79383e+09
9.13124e+09
1.00419e+10
8.742e+09
8.17539e+09
1.00161e+10
6.79671e+09
8.17692e+09
1.07198e+10
9.37221e+09
1.02967e+10
6.69354e+09
7.83076e+09
9.26072e+09
8.04317e+09
7.0552e+09
9.61854e+09
6.27089e+09
8.45655e+09
5.16277e+09
4.75712e+09
9.83031e+09
8.20898e+09
1.14646e+10
5.70271e+09
6.72816e+09
1.05094e+10
9.49001e+09
7.43284e+09
7.82788e+09
1.04403e+10
8.58957e+09
1.00697e+10
5.39031e+09
6.59422e+09
5.62747e+09
6.59227e+09
8.18953e+09
7.43312e+09
1.00582e+10
7.4865e+09
1.14786e+10
8.64421e+09
)
;

boundaryField
{
    inlet
    {
        type            calculated;
        value           nonuniform 0();
    }
    outlet
    {
        type            calculated;
        value           uniform 0;
    }
    wall
    {
        type            calculated;
        value           uniform 0;
    }
    procBoundary3to1
    {
        type            processor;
        value           nonuniform List<scalar> 
27
(
4.29863e+09
7.53904e+09
5.69077e+09
9.40081e+09
5.6365e+09
5.98215e+09
4.72226e+09
5.94283e+09
3.96485e+09
8.96873e+09
8.30535e+09
6.9664e+09
6.59161e+09
5.6512e+09
8.83117e+09
8.64872e+09
1.23514e+10
3.72257e+09
8.05434e+09
7.74599e+09
5.38555e+09
1.10363e+10
8.74649e+09
1.05108e+10
7.2043e+09
9.23721e+09
2.97186e+09
)
;
    }
    procBoundary3to2
    {
        type            processor;
        value           nonuniform List<scalar> 
12
(
3.88366e+09
5.38962e+09
4.86887e+09
6.32484e+09
1.11425e+10
6.34806e+09
8.06783e+09
5.75362e+09
8.93007e+09
5.6758e+09
1.01146e+10
1.05858e+10
)
;
    }
    procBoundary3to7
    {
        type            processor;
        value           nonuniform List<scalar> 
36
(
1.0448e+10
9.24365e+09
6.74226e+09
8.00889e+09
1.13187e+10
1.23411e+10
8.19085e+09
6.27658e+09
6.20159e+09
7.90105e+09
1.16147e+10
7.83407e+09
8.22858e+09
9.14122e+09
7.24621e+09
8.25518e+09
8.03657e+09
7.13422e+09
6.10657e+09
9.31431e+09
7.1567e+09
9.13269e+09
8.684e+09
1.08249e+10
9.26403e+09
9.47488e+09
8.20393e+09
6.03683e+09
9.03733e+09
9.89618e+09
7.1406e+09
8.88771e+09
9.72789e+09
9.29675e+09
9.18668e+09
5.07632e+09
)
;
    }
}


// ************************************************************************* //
