/*--------------------------------*- C++ -*----------------------------------*\
| =========                 |                                                 |
| \\      /  F ield         | OpenFOAM: The Open Source CFD Toolbox           |
|  \\    /   O peration     | Version:  4.x                                   |
|   \\  /    A nd           | Web:      www.OpenFOAM.org                      |
|    \\/     M anipulation  |                                                 |
\*---------------------------------------------------------------------------*/
FoamFile
{
    version     2.0;
    format      ascii;
    class       volScalarField;
    location    "11";
    object      QWallFluid;
}
// * * * * * * * * * * * * * * * * * * * * * * * * * * * * * * * * * * * * * //

dimensions      [1 -1 -3 0 0 0 0];

internalField   nonuniform List<scalar> 
108
(
4.96583e+08
8.88552e+08
3.67951e+08
8.83834e+08
3.38028e+08
9.35724e+08
3.85046e+08
1.08209e+09
5.42126e+08
5.4065e+08
9.088e+08
4.06058e+08
8.98262e+08
3.29774e+08
9.27758e+08
3.26021e+08
1.02534e+09
5.3204e+08
6.71875e+08
9.68761e+08
5.23716e+08
9.09884e+08
3.64214e+08
8.36518e+08
2.14294e+08
6.69719e+08
1.67118e+08
1.8299e+09
2.31425e+09
1.73889e+09
2.25464e+09
1.53078e+09
2.18014e+09
1.30695e+09
2.0353e+09
1.69855e+09
0
0
0
0
0
0
0
0
0
0
0
0
0
0
0
0
0
0
0
0
0
0
0
0
0
0
0
6.59648e+08
1.00541e+09
6.78576e+08
1.05823e+09
6.53653e+08
1.14158e+09
5.86538e+08
1.36009e+09
8.20075e+08
0
0
0
0
0
0
0
0
0
0
0
0
0
0
0
0
0
0
0
0
0
0
0
0
0
0
0
5.24582e+08
9.08867e+08
5.7046e+08
9.71283e+08
5.81118e+08
1.05448e+09
5.22771e+08
1.25733e+09
3.92035e+08
)
;

boundaryField
{
    inlet
    {
        type            calculated;
        value           nonuniform 0();
    }
    outlet
    {
        type            calculated;
        value           uniform 0;
    }
    wall
    {
        type            calculated;
        value           uniform 0;
    }
    procBoundary3to1
    {
        type            processor;
        value           nonuniform List<scalar> 
27
(
5.09017e+08
8.93543e+08
3.07099e+08
8.50618e+08
1.57688e+08
8.28772e+08
1.29976e+08
7.41128e+08
2.88556e+08
0
0
0
0
0
0
0
0
0
0
0
0
0
0
0
0
0
0
)
;
    }
    procBoundary3to2
    {
        type            processor;
        value           nonuniform List<scalar> 
12
(
9.34476e+08
9.51179e+08
1.01603e+09
2.28632e+09
0
0
0
9.60348e+08
0
0
0
8.58577e+08
)
;
    }
    procBoundary3to7
    {
        type            processor;
        value           nonuniform List<scalar> 
36
(
0
0
0
0
0
0
0
0
0
0
0
0
0
0
0
0
0
0
0
0
0
0
0
0
0
0
0
5.31036e+08
9.09066e+08
5.56537e+08
9.79291e+08
5.72073e+08
1.08595e+09
5.41818e+08
1.30218e+09
7.29535e+08
)
;
    }
}


// ************************************************************************* //
