/*--------------------------------*- C++ -*----------------------------------*\
| =========                 |                                                 |
| \\      /  F ield         | OpenFOAM: The Open Source CFD Toolbox           |
|  \\    /   O peration     | Version:  4.x                                   |
|   \\  /    A nd           | Web:      www.OpenFOAM.org                      |
|    \\/     M anipulation  |                                                 |
\*---------------------------------------------------------------------------*/
FoamFile
{
    version     2.0;
    format      ascii;
    class       volVectorField;
    location    "11";
    object      U;
}
// * * * * * * * * * * * * * * * * * * * * * * * * * * * * * * * * * * * * * //

dimensions      [0 1 -1 0 0 0 0];

internalField   nonuniform List<vector> 
108
(
(0.0157102 0.000151593 0.00121121)
(0.0324825 0.000731929 0.00169655)
(0.0108601 0.000456208 0.000500977)
(0.0323093 0.000898985 0.000359943)
(0.00971168 0.000646875 -0.000242057)
(0.0346797 0.000690212 -0.000598885)
(0.0112527 0.00187151 -0.00159217)
(0.0418884 -0.000301193 -0.000608241)
(0.0110533 0.0071288 -0.0116832)
(0.0174473 0.000550136 0.00132802)
(0.033801 0.000469611 0.00191313)
(0.0122656 0.0005097 0.00078371)
(0.0331199 -0.00014479 0.000762604)
(0.00947872 0.000210042 0.000159664)
(0.034436 -0.000742831 -0.000635766)
(0.00933471 -0.00100126 -0.000389766)
(0.0393262 -0.00073544 -0.00154096)
(0.0105884 -0.00588712 -0.0121891)
(0.0228425 0.00105502 0.00153465)
(0.0362915 0.00179437 0.00220668)
(0.0168177 0.00109663 0.00169407)
(0.0335518 0.00176132 0.00176091)
(0.0105589 0.00124292 0.00148548)
(0.0302429 0.00130197 0.000962308)
(0.00516811 0.000912294 0.00182424)
(0.0230944 -0.000513175 -0.000692093)
(0.00331666 -0.000153396 0.00232948)
(0.0333811 0.00120036 0.00117051)
(0.0448448 0.00162974 0.00206397)
(0.0314524 0.00188425 0.00275288)
(0.0439156 0.0020124 0.00325781)
(0.0266418 0.00307555 0.00406481)
(0.0420096 0.00209656 0.00341831)
(0.0205523 0.0051599 0.00670314)
(0.0388837 0.000733684 0.00171367)
(0.0139547 0.0114873 -0.0236703)
(0.00584393 2.46752e-05 0.000158365)
(0.0294246 0.000230863 0.00148667)
(0.00642011 0.000121866 -0.00053284)
(0.0304857 0.000467561 3.1426e-05)
(0.00731173 0.000398455 -0.00174917)
(0.030688 0.000900536 -0.000923242)
(0.00777333 0.0011492 -0.00340958)
(0.0296884 0.00070658 -0.000104556)
(0.00905699 0.00463488 -0.0164935)
(0.00641471 0.000169328 0.000385613)
(0.0303841 -0.000111711 0.00184346)
(0.00608839 0.000341393 -0.000249163)
(0.0316681 -0.000377565 0.000470072)
(0.00616531 0.000790154 -0.00130255)
(0.0327219 -0.000396532 -0.00072109)
(0.00662772 0.00203198 -0.00240018)
(0.0333045 -0.00152793 -0.000657514)
(0.00994906 0.00810674 -0.0180477)
(0.00778347 0.000399379 0.000749496)
(0.0307161 0.00100866 0.00240247)
(0.00675188 0.000424935 0.000442391)
(0.0323884 0.000559006 0.00175362)
(0.00631574 0.00083394 -0.00010824)
(0.0346865 -0.000150766 0.000877593)
(0.00665885 0.00258795 0.00051737)
(0.0382193 -0.00352448 0.000107593)
(0.00645562 0.0149605 -0.000543774)
(0.0227103 0.000980939 0.00103376)
(0.0383435 0.00113296 0.00301419)
(0.0235145 0.00110382 0.00254843)
(0.0411474 0.000610932 0.00496006)
(0.0225791 0.00145898 0.00307694)
(0.0453619 -0.000459985 0.00538649)
(0.0192612 0.00334995 0.00392403)
(0.0569627 -0.00262704 0.00437963)
(0.009426 0.014052 -0.0250146)
(0.000955451 1.20728e-05 2.44767e-05)
(0.0271142 0.000246986 0.000571728)
(0.00178065 6.66024e-05 -0.000143338)
(0.0279699 0.00015376 -0.000581529)
(0.00290016 0.000205665 -0.000772795)
(0.0280112 0.000306567 -0.00110741)
(0.00351027 0.000721734 -0.00161905)
(0.0260831 0.000141285 -0.000497018)
(0.00428007 0.00272926 -0.0045739)
(0.00290716 0.000254137 0.000238939)
(0.0282389 -0.000109847 0.000928243)
(0.00337463 0.000379481 3.33596e-05)
(0.0292134 -0.00032059 -0.000187429)
(0.00379945 0.000606034 -0.000475915)
(0.0304153 -0.000549482 -0.000978504)
(0.00457812 0.00159194 -0.00117766)
(0.0313908 -0.00207346 -0.00194838)
(0.00694943 0.00746584 -0.00511856)
(0.00308609 0.00022316 0.00030803)
(0.0283944 0.000650318 0.00145406)
(0.00372044 0.000243836 0.000106783)
(0.0302476 -1.01879e-05 0.000499002)
(0.00542273 0.000611734 -0.000631878)
(0.0338834 -0.00106825 -0.000203779)
(0.00761147 0.00214796 -0.00191975)
(0.0413399 -0.0038657 -0.000506099)
(0.00790482 0.0136041 -0.0118971)
(0.0172118 0.000621768 0.00107454)
(0.0341585 0.000620808 0.00290204)
(0.0191288 0.000344507 0.00262575)
(0.0373721 -0.00043867 0.00496089)
(0.0196683 0.000236452 0.00315619)
(0.0418512 -0.00180315 0.00541098)
(0.017398 0.00087412 0.00239825)
(0.0525684 -0.00382349 0.00450874)
(0.00852525 0.00571823 -0.00676785)
)
;

boundaryField
{
    inlet
    {
        type            fixedValue;
        value           nonuniform 0();
    }
    outlet
    {
        type            zeroGradient;
    }
    wall
    {
        type            fixedValue;
        value           uniform (0 0 0);
    }
    procBoundary3to1
    {
        type            processor;
        value           nonuniform List<vector> 
27
(
(0.015996 -0.000831709 0.00119265)
(0.0325912 -0.000783834 0.00201086)
(0.00861456 -0.00040211 0.000576346)
(0.0310453 -0.000128355 0.000386174)
(0.00376093 -0.000116379 -3.20203e-05)
(0.0298804 0.000175958 -0.00167446)
(0.00295743 0.000247255 -9.02297e-05)
(0.0259446 -0.000576989 -0.00298086)
(0.00679418 0.00421025 -3.30249e-05)
(0.00587847 -0.000272412 0.000199876)
(0.0300846 -0.000136819 0.00158751)
(0.00510762 -0.00017865 -0.000463098)
(0.0306713 0.000368735 -0.00012711)
(0.00382377 -0.000217243 -0.0011954)
(0.0300174 0.000473934 -0.00152741)
(0.000819168 -0.00010722 -0.00040806)
(0.0260406 0.00091094 -0.00135645)
(3.02889e-09 -1.36406e-08 3.93476e-08)
(0.000448745 -4.59061e-05 3.60235e-05)
(0.0271873 6.81353e-05 0.000482496)
(3.67191e-09 6.36432e-10 5.76773e-08)
(0.027303 0.000508815 -0.000763162)
(9.1638e-09 1.43882e-09 1.80662e-08)
(0.0263621 0.000401025 -0.00129633)
(2.11436e-09 -6.38684e-09 1.00452e-08)
(0.0231737 0.000867992 -0.00177608)
(0.00093614 -0.000191669 -0.000319409)
)
;
    }
    procBoundary3to2
    {
        type            processor;
        value           nonuniform List<vector> 
12
(
(0.0341541 0.000437598 0.00170719)
(0.0349999 0.000724251 0.00147125)
(0.037819 0.00122055 0.00103929)
(0.0435904 0.000977787 0.000330111)
(0.0279668 0.000151574 0.00184737)
(0.0286704 5.15096e-05 0.00166472)
(0.0292752 0.000910145 0.00149286)
(0.0358751 0.00108904 0.000280326)
(0.026059 0.000135494 0.00119406)
(0.0270047 0.000127043 0.00136659)
(0.0271701 0.000838837 0.00158986)
(0.0320444 0.000887747 0.000816738)
)
;
    }
    procBoundary3to7
    {
        type            processor;
        value           nonuniform List<vector> 
36
(
(0.00508446 -2.94689e-05 -0.000276252)
(0.0277063 6.67393e-05 0.00025618)
(0.00511822 6.26041e-05 -0.00105939)
(0.0269953 0.000150916 -0.00102337)
(0.00406462 9.64141e-05 -0.00170184)
(0.0248853 0.000395697 -0.00146198)
(0.00312466 0.000284002 -0.00216033)
(0.0190911 0.000227876 0.00107084)
(0.00438449 0.00093124 -0.00412028)
(0.00511882 0.000399742 -0.000182712)
(0.0293018 0.000156921 0.000380813)
(0.00572536 0.00071391 -0.000808062)
(0.0301247 0.000216391 -0.000579761)
(0.00624678 0.00145818 -0.00182088)
(0.0306793 4.9487e-05 -0.00100863)
(0.00700573 0.00328469 -0.00382315)
(0.0291712 -0.00158029 -0.000157554)
(0.00740971 0.00712634 -0.00863851)
(0.00604075 4.67112e-05 -8.49294e-05)
(0.0295076 0.000136621 0.000456616)
(0.00708882 4.76101e-05 -0.000780221)
(0.0311185 -0.00036292 -0.000607873)
(0.00839326 0.000663546 -0.00230803)
(0.0327169 -0.00120777 -0.000957777)
(0.00974614 0.00359405 -0.00551038)
(0.0324894 -0.0032662 0.000462136)
(0.00915058 0.0181406 -0.0185502)
(0.0176729 0.000176882 0.000135182)
(0.0350057 -2.63523e-05 0.00189316)
(0.0190997 8.00928e-05 0.000995788)
(0.0384369 -0.000964058 0.00345751)
(0.0198479 0.000540785 0.000625213)
(0.0441502 -0.00230179 0.00424919)
(0.0182164 0.00309549 -0.00278732)
(0.0552091 -0.00404621 0.0048346)
(0.0109629 0.015168 -0.0190435)
)
;
    }
}


// ************************************************************************* //
