/*--------------------------------*- C++ -*----------------------------------*\
| =========                 |                                                 |
| \\      /  F ield         | OpenFOAM: The Open Source CFD Toolbox           |
|  \\    /   O peration     | Version:  4.x                                   |
|   \\  /    A nd           | Web:      www.OpenFOAM.org                      |
|    \\/     M anipulation  |                                                 |
\*---------------------------------------------------------------------------*/
FoamFile
{
    version     2.0;
    format      ascii;
    class       volVectorField;
    location    "11";
    object      UsNext;
}
// * * * * * * * * * * * * * * * * * * * * * * * * * * * * * * * * * * * * * //

dimensions      [0 1 -1 0 0 0 0];

internalField   nonuniform List<vector> 
108
(
(8.34142e-08 6.53707e-10 4.94576e-08)
(8.19539e-08 -1.23466e-08 6.831e-08)
(1.18542e-07 -8.74975e-08 6.48792e-08)
(7.98098e-08 -1.20861e-08 3.67327e-08)
(6.40829e-08 6.18348e-09 -9.78009e-09)
(2.24579e-08 -1.9889e-09 -7.45735e-09)
(-1.79948e-08 -3.74232e-09 -3.64462e-10)
(-3.93023e-07 -1.37671e-07 1.12455e-07)
(-7.0278e-09 -2.2023e-08 1.05872e-07)
(6.57616e-08 -6.98522e-09 5.15651e-08)
(7.75563e-08 -1.16036e-08 7.56929e-08)
(7.24449e-08 -1.47108e-08 7.88652e-08)
(6.61285e-08 -1.67668e-09 4.12716e-08)
(4.50662e-08 -5.31981e-09 -3.69263e-09)
(2.78666e-09 -5.20789e-09 -9.98761e-09)
(-6.40804e-08 -3.08002e-08 3.62681e-08)
(-1.55043e-07 -5.69763e-08 1.0777e-07)
(1.62695e-07 1.78867e-07 2.6916e-07)
(5.19979e-08 6.31152e-08 2.7782e-08)
(5.52299e-08 -2.4938e-08 5.16017e-08)
(7.23682e-08 -3.43724e-08 7.058e-08)
(6.91858e-08 -1.78008e-08 5.33712e-08)
(1.80777e-07 -5.35953e-08 -3.72147e-08)
(5.2658e-08 -1.7047e-08 2.02195e-08)
(6.43124e-08 -5.0775e-08 -3.58893e-08)
(5.15431e-08 -2.25632e-08 1.05479e-08)
(2.17914e-09 -2.542e-09 3.58301e-08)
(8.26979e-09 -1.37492e-09 1.04097e-08)
(2.88162e-08 -1.9752e-08 1.80904e-08)
(4.88019e-08 -8.97737e-08 3.33457e-08)
(3.38405e-08 -1.91821e-08 3.34752e-08)
(2.94365e-07 -9.72832e-08 -5.7231e-08)
(1.32976e-07 -2.42642e-08 1.10863e-09)
(-1.49313e-08 -5.11476e-08 -6.82278e-10)
(-5.87655e-08 -2.75816e-08 1.36813e-08)
(-1.80867e-08 -5.03716e-06 2.40874e-07)
(3.69067e-08 -6.33724e-09 4.80889e-08)
(3.0745e-08 -8.50335e-09 6.92058e-08)
(4.64978e-08 -1.45303e-09 6.92067e-08)
(4.7885e-08 -2.34695e-09 2.50082e-08)
(3.82268e-08 3.13275e-09 3.35747e-09)
(1.18273e-08 4.66517e-09 1.49357e-09)
(-2.56374e-09 -4.40602e-09 5.44661e-09)
(-1.86173e-08 -1.96371e-08 7.55676e-08)
(1.80555e-08 -1.05304e-08 9.41938e-08)
(2.03849e-08 -6.57801e-09 4.01957e-08)
(4.17975e-08 -5.77916e-09 6.83829e-08)
(4.61248e-08 1.69877e-10 7.88406e-08)
(4.50304e-08 3.52856e-10 4.60188e-08)
(2.86318e-08 2.55924e-09 6.9587e-09)
(-3.8013e-10 4.91194e-09 7.89468e-09)
(6.90448e-09 4.11005e-08 1.9452e-08)
(-2.55492e-08 2.91635e-09 6.65287e-08)
(-3.08687e-09 3.3472e-08 1.16493e-07)
(1.86832e-08 -2.02215e-09 2.78375e-08)
(2.08817e-08 -3.1063e-09 4.56164e-08)
(3.74281e-08 -1.26196e-09 6.54921e-08)
(4.7972e-08 -7.12619e-10 4.78782e-08)
(3.60054e-08 -5.64625e-09 1.16938e-08)
(1.86357e-08 -3.97692e-09 1.70869e-08)
(1.21168e-08 1.29908e-08 8.36295e-09)
(9.86807e-09 -9.4705e-09 3.52671e-08)
(5.93083e-09 1.95831e-08 5.45872e-08)
(9.23852e-10 -8.66709e-10 7.28465e-09)
(1.10722e-08 -3.27594e-09 1.53063e-08)
(1.34288e-08 -4.48026e-09 2.46409e-08)
(2.60045e-08 -7.24983e-09 3.24364e-08)
(2.2958e-08 -7.18537e-09 1.68692e-08)
(3.4136e-08 -5.33007e-09 1.96995e-08)
(-1.44219e-09 -1.02961e-08 1.93608e-08)
(-8.8287e-10 -1.07594e-08 3.64704e-08)
(-1.56471e-08 -9.42202e-09 1.23469e-07)
(-2.12457e-08 -6.24525e-09 3.24767e-08)
(-9.80268e-09 -7.75348e-09 4.9903e-08)
(-2.8142e-09 -4.55117e-09 5.93641e-08)
(5.86961e-09 -6.02255e-09 3.66529e-08)
(3.63603e-09 -1.88286e-09 1.99524e-08)
(-1.34179e-09 -3.3395e-10 7.5664e-09)
(-1.93236e-09 -9.38523e-10 7.08602e-09)
(-5.85789e-09 -4.5522e-10 1.99709e-08)
(-4.651e-10 -9.28956e-09 3.08038e-08)
(-2.47238e-08 -3.6231e-09 2.84402e-08)
(-1.44622e-08 -4.82825e-09 5.02416e-08)
(-3.58678e-08 -9.95539e-09 5.01521e-08)
(1.28531e-09 -5.70083e-09 3.1193e-08)
(3.92499e-09 -3.38216e-09 1.57682e-08)
(-2.94312e-09 1.49569e-10 8.62455e-09)
(-3.36494e-09 -7.85617e-10 1.2392e-08)
(-2.39715e-09 1.21722e-09 2.13858e-08)
(5.14655e-09 7.36176e-10 4.48409e-08)
(-2.5987e-08 -1.44742e-09 1.81207e-08)
(-1.70787e-08 -8.06087e-10 3.26193e-08)
(-1.99828e-08 3.60644e-09 4.15016e-08)
(-1.58742e-08 -3.77005e-09 2.56814e-08)
(-1.98327e-09 -3.24348e-09 1.0822e-08)
(-7.07328e-09 1.29039e-09 1.14941e-08)
(-4.84233e-09 1.12536e-09 1.12288e-08)
(-1.01524e-08 -6.22634e-09 3.09023e-08)
(-5.60613e-09 1.1599e-08 3.96304e-08)
(-1.94072e-08 4.05729e-09 6.06021e-09)
(-1.97042e-08 -1.19954e-09 7.59109e-09)
(-1.31991e-08 -7.62617e-11 2.15133e-08)
(-1.6977e-08 -1.62991e-09 1.35379e-08)
(-1.02347e-08 -4.16473e-09 1.25595e-08)
(-7.87691e-09 2.2989e-09 1.65053e-08)
(-4.83755e-09 -2.00959e-09 4.30734e-09)
(-2.37853e-09 1.0994e-10 2.95548e-08)
(-4.7033e-09 1.64652e-08 4.73263e-08)
)
;

boundaryField
{
    inlet
    {
        type            calculated;
        value           nonuniform 0();
    }
    outlet
    {
        type            calculated;
        value           nonuniform List<vector> 
12
(
(-7.0278e-09 -2.2023e-08 1.05872e-07)
(1.62695e-07 1.78867e-07 2.6916e-07)
(2.17914e-09 -2.542e-09 3.58301e-08)
(-1.80867e-08 -5.03716e-06 2.40874e-07)
(1.80555e-08 -1.05304e-08 9.41938e-08)
(-3.08687e-09 3.3472e-08 1.16493e-07)
(5.93083e-09 1.95831e-08 5.45872e-08)
(-1.56471e-08 -9.42202e-09 1.23469e-07)
(-4.651e-10 -9.28956e-09 3.08038e-08)
(5.14655e-09 7.36176e-10 4.48409e-08)
(-5.60613e-09 1.1599e-08 3.96304e-08)
(-4.7033e-09 1.64652e-08 4.73263e-08)
)
;
    }
    wall
    {
        type            calculated;
        value           nonuniform List<vector> 
63
(
(8.34142e-08 6.53707e-10 4.94576e-08)
(6.57616e-08 -6.98522e-09 5.15651e-08)
(5.19979e-08 6.31152e-08 2.7782e-08)
(8.26979e-09 -1.37492e-09 1.04097e-08)
(8.19539e-08 -1.23466e-08 6.831e-08)
(7.75563e-08 -1.16036e-08 7.56929e-08)
(5.52299e-08 -2.4938e-08 5.16017e-08)
(2.88162e-08 -1.9752e-08 1.80904e-08)
(1.18542e-07 -8.74975e-08 6.48792e-08)
(7.24449e-08 -1.47108e-08 7.88652e-08)
(7.23682e-08 -3.43724e-08 7.058e-08)
(4.88019e-08 -8.97737e-08 3.33457e-08)
(7.98098e-08 -1.20861e-08 3.67327e-08)
(6.61285e-08 -1.67668e-09 4.12716e-08)
(6.91858e-08 -1.78008e-08 5.33712e-08)
(3.38405e-08 -1.91821e-08 3.34752e-08)
(6.40829e-08 6.18348e-09 -9.78009e-09)
(4.50662e-08 -5.31981e-09 -3.69263e-09)
(1.80777e-07 -5.35953e-08 -3.72147e-08)
(2.94365e-07 -9.72832e-08 -5.7231e-08)
(2.24579e-08 -1.9889e-09 -7.45735e-09)
(2.78666e-09 -5.20789e-09 -9.98761e-09)
(5.2658e-08 -1.7047e-08 2.02195e-08)
(1.32976e-07 -2.42642e-08 1.10863e-09)
(-1.79948e-08 -3.74232e-09 -3.64462e-10)
(-6.40804e-08 -3.08002e-08 3.62681e-08)
(6.43124e-08 -5.0775e-08 -3.58893e-08)
(-1.49313e-08 -5.11476e-08 -6.82278e-10)
(-3.93023e-07 -1.37671e-07 1.12455e-07)
(-1.55043e-07 -5.69763e-08 1.0777e-07)
(5.15431e-08 -2.25632e-08 1.05479e-08)
(-5.87655e-08 -2.75816e-08 1.36813e-08)
(-7.0278e-09 -2.2023e-08 1.05872e-07)
(1.62695e-07 1.78867e-07 2.6916e-07)
(2.17914e-09 -2.542e-09 3.58301e-08)
(-1.80867e-08 -5.03716e-06 2.40874e-07)
(8.26979e-09 -1.37492e-09 1.04097e-08)
(9.23852e-10 -8.66709e-10 7.28465e-09)
(-1.94072e-08 4.05729e-09 6.06021e-09)
(2.88162e-08 -1.9752e-08 1.80904e-08)
(1.10722e-08 -3.27594e-09 1.53063e-08)
(-1.97042e-08 -1.19954e-09 7.59109e-09)
(4.88019e-08 -8.97737e-08 3.33457e-08)
(1.34288e-08 -4.48026e-09 2.46409e-08)
(-1.31991e-08 -7.62617e-11 2.15133e-08)
(3.38405e-08 -1.91821e-08 3.34752e-08)
(2.60045e-08 -7.24983e-09 3.24364e-08)
(-1.6977e-08 -1.62991e-09 1.35379e-08)
(2.94365e-07 -9.72832e-08 -5.7231e-08)
(2.2958e-08 -7.18537e-09 1.68692e-08)
(-1.02347e-08 -4.16473e-09 1.25595e-08)
(1.32976e-07 -2.42642e-08 1.10863e-09)
(3.4136e-08 -5.33007e-09 1.96995e-08)
(-7.87691e-09 2.2989e-09 1.65053e-08)
(-1.49313e-08 -5.11476e-08 -6.82278e-10)
(-1.44219e-09 -1.02961e-08 1.93608e-08)
(-4.83755e-09 -2.00959e-09 4.30734e-09)
(-5.87655e-08 -2.75816e-08 1.36813e-08)
(-8.8287e-10 -1.07594e-08 3.64704e-08)
(-2.37853e-09 1.0994e-10 2.95548e-08)
(-1.80867e-08 -5.03716e-06 2.40874e-07)
(-1.56471e-08 -9.42202e-09 1.23469e-07)
(-4.7033e-09 1.64652e-08 4.73263e-08)
)
;
    }
    procBoundary3to1
    {
        type            processor;
        value           nonuniform List<vector> 
27
(
(7.24422e-08 -1.15699e-08 5.41473e-08)
(1.00879e-07 -2.42657e-08 6.90748e-08)
(1.7269e-07 -4.22718e-08 7.55815e-08)
(1.08275e-07 1.03644e-08 4.24364e-08)
(7.00909e-08 1.73417e-08 2.36292e-09)
(2.98765e-08 -3.05357e-09 -2.05309e-08)
(1.35414e-08 -7.35466e-09 -1.82634e-08)
(-2.31444e-08 -2.5797e-08 4.94737e-08)
(-4.46047e-08 -4.6753e-08 5.37624e-08)
(2.37281e-08 -7.92992e-09 3.88066e-08)
(5.48321e-08 -9.73719e-09 6.42227e-08)
(7.0591e-08 1.01018e-08 6.26538e-08)
(6.18105e-08 8.37001e-09 4.08021e-08)
(4.59682e-08 1.179e-08 9.44114e-09)
(2.60881e-08 1.35264e-08 2.7542e-09)
(4.83587e-09 -2.36763e-09 8.89205e-11)
(-9.80137e-09 -5.93669e-09 3.20375e-08)
(-4.22863e-09 -1.2638e-08 4.47385e-08)
(-1.94961e-08 -2.96245e-09 2.94323e-08)
(-1.07232e-08 1.90986e-09 4.65444e-08)
(-6.51311e-09 1.85221e-09 5.78959e-08)
(-6.85905e-09 2.92205e-09 3.63504e-08)
(-6.16194e-10 2.82875e-09 1.97401e-08)
(-4.94786e-09 1.96459e-09 9.48692e-09)
(-6.74336e-09 -4.45499e-09 1.25163e-08)
(-4.41816e-09 5.26461e-10 1.64834e-08)
(-2.76428e-09 -6.92288e-09 1.74459e-08)
)
;
    }
    procBoundary3to2
    {
        type            processor;
        value           nonuniform List<vector> 
12
(
(5.66226e-08 -1.39696e-08 2.09382e-08)
(3.94309e-08 -6.73291e-09 1.23132e-08)
(2.993e-08 -4.00458e-09 8.02801e-09)
(9.45823e-09 -8.58717e-09 1.09003e-08)
(1.24138e-08 -7.74724e-09 1.12426e-08)
(1.27361e-08 -5.93977e-09 8.1588e-09)
(8.35996e-09 -3.51028e-09 5.90293e-10)
(-8.12524e-09 -6.09862e-10 -4.05309e-09)
(-2.28515e-08 -4.34941e-09 8.95191e-09)
(-2.13111e-08 -4.04465e-09 3.62602e-09)
(-2.11157e-08 -9.59281e-10 3.98084e-09)
(-1.72877e-08 1.77307e-09 -5.16898e-09)
)
;
    }
    procBoundary3to7
    {
        type            processor;
        value           nonuniform List<vector> 
36
(
(-3.89032e-08 -5.99427e-09 2.23736e-08)
(-3.5077e-08 -4.36392e-09 3.50232e-08)
(-2.40637e-08 -6.16456e-10 4.21923e-08)
(-1.65541e-08 2.11998e-09 2.64437e-08)
(-1.15084e-08 1.32362e-09 1.91032e-08)
(-7.92854e-09 1.06969e-09 1.13631e-08)
(-3.92343e-09 -8.16411e-10 7.33249e-09)
(7.06661e-10 -6.45727e-11 6.5825e-09)
(2.8488e-09 1.8707e-09 7.96739e-09)
(-4.0215e-08 -2.16251e-09 2.30901e-08)
(-3.84884e-08 -8.56915e-10 3.53466e-08)
(-3.20936e-08 -3.16796e-09 3.47976e-08)
(-2.28284e-08 -1.40195e-10 2.5756e-08)
(-1.27098e-08 2.83789e-10 1.02815e-08)
(-8.55178e-09 -1.13113e-09 9.5256e-09)
(-7.97417e-09 -1.11711e-09 8.44716e-09)
(-5.23936e-09 -3.58101e-09 1.63712e-08)
(-2.83951e-09 3.25849e-09 1.63537e-08)
(-4.39558e-08 -2.35625e-09 1.11462e-08)
(-4.18942e-08 6.17752e-10 2.68431e-08)
(-3.65876e-08 4.65023e-10 2.629e-08)
(-3.18218e-08 -4.33613e-10 1.62306e-08)
(-2.02368e-08 -1.24193e-09 8.68747e-09)
(-1.60527e-08 1.21886e-10 1.0793e-08)
(-1.48502e-08 -1.9129e-09 1.11797e-08)
(-1.17607e-08 -6.73118e-09 1.95021e-08)
(-1.76766e-08 -8.69245e-09 1.35223e-08)
(-3.72279e-08 1.30007e-09 3.59235e-10)
(-3.26796e-08 1.31859e-09 5.53659e-09)
(-2.47311e-08 -1.14777e-09 1.44845e-08)
(-2.48801e-08 -8.09492e-10 1.01574e-08)
(-2.08819e-08 -1.2003e-09 8.41294e-09)
(-1.74473e-08 2.74592e-09 8.00866e-09)
(-1.30179e-08 -2.74674e-09 8.89574e-09)
(-1.32461e-08 -1.39399e-09 1.40653e-08)
(-1.25116e-08 -7.03186e-09 4.91701e-09)
)
;
    }
}


// ************************************************************************* //
