/*--------------------------------*- C++ -*----------------------------------*\
| =========                 |                                                 |
| \\      /  F ield         | OpenFOAM: The Open Source CFD Toolbox           |
|  \\    /   O peration     | Version:  4.x                                   |
|   \\  /    A nd           | Web:      www.OpenFOAM.org                      |
|    \\/     M anipulation  |                                                 |
\*---------------------------------------------------------------------------*/
FoamFile
{
    version     2.0;
    format      ascii;
    class       volScalarField;
    location    "15";
    object      Cs;
}
// * * * * * * * * * * * * * * * * * * * * * * * * * * * * * * * * * * * * * //

dimensions      [1 -3 0 0 0 0 0];

internalField   nonuniform List<scalar> 
108
(
334.91
334.862
334.81
334.771
334.764
334.794
334.861
334.927
337.37
334.915
334.862
334.805
334.758
334.736
334.75
334.798
334.87
339.779
334.937
334.889
334.834
334.779
334.735
334.723
334.76
334.858
335.118
334.973
334.941
334.906
334.865
334.82
334.777
334.743
334.718
348.139
334.837
334.806
334.798
334.817
334.868
334.924
334.994
335.049
335.187
334.848
334.809
334.792
334.799
334.837
334.883
334.954
335.008
335.242
334.869
334.821
334.787
334.774
334.788
334.817
334.877
334.919
335.294
334.951
334.912
334.869
334.829
334.793
334.76
334.75
334.731
334.868
334.885
334.875
334.892
334.919
334.959
335.003
335.047
335.089
335.193
334.892
334.873
334.883
334.903
334.945
334.987
335.035
335.067
335.221
334.893
334.865
334.866
334.876
334.915
334.94
334.986
334.992
335.531
334.943
334.909
334.873
334.836
334.804
334.772
334.758
334.744
334.77
)
;

boundaryField
{
    inlet
    {
        type            calculated;
        value           nonuniform 0();
    }
    outlet
    {
        type            calculated;
        value           uniform 335;
    }
    wall
    {
        type            calculated;
        value           nonuniform List<scalar> 
63
(
334.91
334.915
334.937
334.973
334.862
334.862
334.889
334.941
334.81
334.805
334.834
334.906
334.771
334.758
334.779
334.865
334.764
334.736
334.735
334.82
334.794
334.75
334.723
334.777
334.861
334.798
334.76
334.743
334.927
334.87
334.858
334.718
337.37
339.779
335.118
348.139
334.973
334.951
334.943
334.941
334.912
334.909
334.906
334.869
334.873
334.865
334.829
334.836
334.82
334.793
334.804
334.777
334.76
334.772
334.743
334.75
334.758
334.718
334.731
334.744
348.139
334.868
334.77
)
;
    }
    procBoundary3to1
    {
        type            processor;
        value           nonuniform List<scalar> 
27
(
334.915
334.867
334.81
334.767
334.763
334.809
334.901
335.002
335.165
334.867
334.822
334.817
334.864
334.956
335.026
335.094
335.1
335.071
334.963
334.904
334.919
334.954
335.012
335.06
335.107
335.127
335.252
)
;
    }
    procBoundary3to2
    {
        type            processor;
        value           nonuniform List<scalar> 
12
(
334.95
334.961
334.98
335.005
334.88
334.9
334.926
334.985
334.897
334.923
334.928
334.972
)
;
    }
    procBoundary3to7
    {
        type            processor;
        value           nonuniform List<scalar> 
36
(
334.931
334.923
334.929
334.95
334.98
335.017
335.054
335.087
335.243
334.939
334.931
334.937
334.954
334.982
335.012
335.047
335.072
335.225
334.942
334.93
334.931
334.939
334.961
334.977
335.01
335.008
335.17
334.975
334.954
334.93
334.901
334.878
334.847
334.853
334.831
334.861
)
;
    }
}


// ************************************************************************* //
