/*--------------------------------*- C++ -*----------------------------------*\
| =========                 |                                                 |
| \\      /  F ield         | OpenFOAM: The Open Source CFD Toolbox           |
|  \\    /   O peration     | Version:  4.x                                   |
|   \\  /    A nd           | Web:      www.OpenFOAM.org                      |
|    \\/     M anipulation  |                                                 |
\*---------------------------------------------------------------------------*/
FoamFile
{
    version     2.0;
    format      ascii;
    class       volVectorField;
    location    "15";
    object      GField;
}
// * * * * * * * * * * * * * * * * * * * * * * * * * * * * * * * * * * * * * //

dimensions      [1 -2 -1 0 0 0 0];

internalField   nonuniform List<vector> 
108
(
(77.1453 1.39839 0.237392)
(119.912 1.16018 2.3129)
(68.8588 2.31001 3.00592)
(118.108 3.08103 4.93735)
(55.4569 2.98992 2.30495)
(118.99 5.06283 4.79449)
(45.1215 6.73171 -2.47761)
(137.418 2.96815 3.25051)
(37.0057 22.8986 -43.2211)
(74.2858 1.32477 0.797743)
(117.25 -0.309042 2.09084)
(65.5536 0.742921 4.70132)
(117.177 -0.0194634 5.36552)
(52.1867 -0.985389 7.68145)
(115.394 -1.13185 4.30885)
(38.8673 -6.60999 10.6265)
(116.66 -0.466039 -1.51255)
(31.3397 -24.8341 -19.414)
(80.7334 1.44234 -0.411939)
(119.525 1.67146 1.52938)
(73.5076 0.990205 3.88425)
(116.803 3.28733 6.19123)
(55.4493 2.58145 8.09462)
(102.686 3.80204 9.55155)
(26.2775 3.19267 8.52748)
(71.7833 -1.64447 4.4611)
(5.42148 1.71574 2.35574)
(91.8878 0.380811 -1.23005)
(133.192 1.27098 -1.1671)
(96.2003 2.2694 2.96315)
(139.417 2.99527 2.96168)
(94.5707 7.79622 10.4263)
(143.82 5.73187 8.40577)
(82.0112 18.2977 26.7708)
(140.47 2.74742 9.6952)
(50.6485 49.0112 -60.8939)
(22.6915 0.779185 -1.52879)
(89.8744 0.196155 3.13509)
(20.2457 0.991075 -0.92638)
(93.484 0.893477 5.35775)
(21.6553 2.30028 -2.72959)
(97.0479 1.59821 4.3394)
(26.1393 7.25155 -9.45487)
(96.4156 0.822022 5.93788)
(33.0985 36.2613 -60.5309)
(25.4038 0.746518 -1.93833)
(94.8241 -0.741485 4.12404)
(21.2553 0.732093 -0.800973)
(101.98 -0.19457 5.54416)
(20.2345 1.40662 -2.67254)
(113.658 -0.36013 7.6125)
(19.6008 2.45029 -5.09949)
(133.672 -1.57582 10.7195)
(21.0148 6.71847 -63.3713)
(34.4913 0.85543 -2.78758)
(93.7117 1.14208 2.39852)
(28.1543 0.53958 -0.0132211)
(97.1261 1.99297 6.73733)
(25.2119 1.60803 0.287883)
(101.456 2.00567 10.6479)
(26.5402 5.98541 1.37227)
(96.6298 -7.23045 10.4551)
(28.329 39.1481 -5.77338)
(68.2511 1.38412 -5.40396)
(115.363 1.19077 -2.63033)
(66.1323 3.16225 -3.70967)
(123.807 1.65431 2.30445)
(65.0114 7.65244 -1.8411)
(143.671 0.574354 10.9704)
(62.2981 19.9186 1.45349)
(197.347 -5.94535 21.9337)
(36.5804 71.4604 -95.4932)
(-0.640469 -0.883403 0.819866)
(80.5117 -1.32318 2.66632)
(-0.549529 -0.606852 0.575504)
(82.3181 -1.0371 2.35541)
(3.09392 0.0593661 -0.477719)
(83.6094 2.5494 0.614162)
(5.25167 0.485044 -1.48735)
(78.4431 2.5533 -0.347094)
(10.0875 3.45049 -6.38017)
(10.1131 0.440788 0.179769)
(82.7451 -0.584899 3.32248)
(6.50034 0.367695 0.127413)
(84.6653 -1.30769 2.68094)
(6.02919 0.249974 -0.637602)
(87.1976 -0.322617 1.41095)
(13.2595 1.39462 -4.92856)
(90.0073 -2.52421 1.07933)
(26.6816 9.40038 -37.1692)
(11.0476 0.709287 -0.375954)
(81.1996 -0.450051 4.12345)
(7.59567 0.270313 0.27701)
(84.8107 1.14449 4.78645)
(8.29058 0.782569 0.122398)
(89.7314 -0.888728 4.37034)
(15.423 2.16235 -0.809339)
(100.728 -6.24618 3.61581)
(17.8029 5.88827 -10.0452)
(53.5325 2.36273 -2.41711)
(101.092 1.56079 0.903292)
(49.6217 1.0143 0.305129)
(103.487 0.369173 5.09748)
(47.2816 2.19637 2.13624)
(108.696 -1.02912 10.5726)
(43.7548 3.61516 1.32678)
(122.059 -4.42094 18.4655)
(34.0818 6.19894 -20.0462)
)
;

boundaryField
{
    inlet
    {
        type            calculated;
        value           nonuniform 0();
    }
    outlet
    {
        type            calculated;
        value           nonuniform List<vector> 
12
(
(76.6437 47.4259 -89.5165)
(64.746 -51.3058 -40.1081)
(11.312 3.57992 4.91528)
(101.526 98.2435 -122.063)
(71.0714 77.8629 -129.976)
(45.0529 14.4035 -135.86)
(60.6783 83.852 -12.3661)
(77.9133 152.205 -203.393)
(21.9753 7.5168 -13.899)
(58.078 20.4619 -80.9065)
(38.5993 12.7667 -21.7796)
(74.3237 13.5183 -43.7157)
)
;
    }
    wall
    {
        type            calculated;
        value           uniform (0 0 0);
    }
    procBoundary3to1
    {
        type            processor;
        value           nonuniform List<vector> 
27
(
(74.6472 -1.14032 -0.459775)
(119.118 -1.63724 1.76725)
(61.3182 -1.76326 3.81548)
(113.01 -1.02069 4.95735)
(39.382 -3.26032 3.56093)
(101.297 0.344186 2.6398)
(17.2781 -2.96043 2.55398)
(79.415 3.76003 -5.76015)
(12.3412 -1.39074 3.72344)
(13.6524 -0.606891 -1.45691)
(89.8984 -1.00851 5.8257)
(7.05438 -0.447944 -0.443022)
(92.6955 1.181 5.92761)
(3.18329 -0.427906 -0.649693)
(92.56 2.87156 4.03325)
(1.14576 -0.309449 -0.449996)
(81.1871 5.31951 6.0644)
(0.0604981 -0.0380778 -0.0463811)
(-0.986053 -0.993049 0.595673)
(81.8463 1.16689 3.09259)
(-0.663461 -0.672126 0.529646)
(81.8903 1.74108 2.28237)
(2.73956 -0.526683 -0.115484)
(81.4761 1.41443 -2.21971)
(3.51763 -1.06941 -0.66278)
(73.1322 4.95818 -2.97739)
(12.2941 -4.81024 -3.93412)
)
;
    }
    procBoundary3to2
    {
        type            processor;
        value           nonuniform List<vector> 
12
(
(118.97 -0.789498 -2.76132)
(115.715 -1.15132 -2.39046)
(115.363 0.307435 -2.3229)
(126.004 0.212596 -2.30616)
(89.5456 0.104975 -0.617681)
(92.907 -0.361247 -2.72233)
(92.9594 1.97679 -3.91404)
(111.117 1.88099 -4.47549)
(79.6639 -4.3413 1.86432)
(84.0083 -3.15842 3.25254)
(82.3873 2.9679 2.26398)
(97.5426 4.07171 0.0155774)
)
;
    }
    procBoundary3to7
    {
        type            processor;
        value           nonuniform List<vector> 
36
(
(15.6674 0.432433 -1.80326)
(85.4602 -0.529992 2.85161)
(10.1802 0.0743992 -1.68132)
(83.8416 -1.29694 2.46124)
(7.80426 -0.156516 -2.37702)
(80.4836 0.595892 1.2168)
(7.69754 0.0629042 -3.76113)
(77.593 1.24419 5.40365)
(11.1791 0.554287 -8.61907)
(22.4223 1.98202 -0.221551)
(89.5915 1.03844 4.74914)
(20.2921 2.14892 -1.46606)
(92.5465 0.547931 1.58359)
(17.7402 3.01023 -3.49343)
(93.4931 -0.0995105 0.930397)
(16.2966 4.50797 -6.88753)
(87.9131 -2.66683 2.63462)
(18.2877 5.98897 -18.2982)
(24.6503 0.199841 -1.40289)
(89.9354 1.13363 1.81592)
(24.2739 0.354609 -2.20485)
(93.2629 0.994423 2.07398)
(25.5313 2.0615 -4.1696)
(95.55 -0.587868 1.34938)
(28.5682 8.92797 -9.38355)
(91.8949 -6.84507 6.77511)
(32.634 40.6448 -34.4711)
(50.6288 1.74945 -4.07578)
(104.071 0.691087 0.387533)
(49.987 2.07233 -2.67193)
(111.734 -0.688945 3.76906)
(49.2058 4.07485 -1.68724)
(124.942 -4.1826 9.92622)
(44.2337 10.9424 -3.72753)
(152.082 -11.7123 17.9731)
(27.7104 37.6323 -16.8125)
)
;
    }
}


// ************************************************************************* //
