/*--------------------------------*- C++ -*----------------------------------*\
| =========                 |                                                 |
| \\      /  F ield         | OpenFOAM: The Open Source CFD Toolbox           |
|  \\    /   O peration     | Version:  4.x                                   |
|   \\  /    A nd           | Web:      www.OpenFOAM.org                      |
|    \\/     M anipulation  |                                                 |
\*---------------------------------------------------------------------------*/
FoamFile
{
    version     2.0;
    format      ascii;
    class       volScalarField;
    location    "15";
    object      QWallFluidCoeff;
}
// * * * * * * * * * * * * * * * * * * * * * * * * * * * * * * * * * * * * * //

dimensions      [1 -1 -3 -1 0 0 0];

internalField   nonuniform List<scalar> 
108
(
-2.30996e+06
-3.28751e+06
-2.1115e+06
-3.25043e+06
-1.77691e+06
-3.27115e+06
-1.51894e+06
-3.667e+06
-1.92246e+06
-2.24128e+06
-3.22882e+06
-2.03183e+06
-3.2295e+06
-1.70423e+06
-3.18936e+06
-1.38836e+06
-3.21564e+06
-1.48592e+06
-2.39552e+06
-3.27888e+06
-2.22474e+06
-3.22319e+06
-1.78997e+06
-2.91501e+06
-1.02109e+06
-2.18412e+06
-305554
-5.31334e+06
-7.15052e+06
-5.5148e+06
-7.41887e+06
-5.47764e+06
-7.61816e+06
-5.14114e+06
-7.47628e+06
-5.37086e+06
0
0
0
0
0
0
0
0
0
0
0
0
0
0
0
0
0
0
0
0
0
0
0
0
0
0
0
-2.09963e+06
-3.18757e+06
-2.0463e+06
-3.37276e+06
-2.02589e+06
-3.80721e+06
-2.02429e+06
-4.92233e+06
-3.39267e+06
0
0
0
0
0
0
0
0
0
0
0
0
0
0
0
0
0
0
0
0
0
0
0
0
0
0
0
-1.72696e+06
-2.86764e+06
-1.62298e+06
-2.92435e+06
-1.56379e+06
-3.05013e+06
-1.47183e+06
-3.36594e+06
-1.3663e+06
)
;

boundaryField
{
    inlet
    {
        type            calculated;
        value           nonuniform 0();
    }
    outlet
    {
        type            calculated;
        value           uniform 0;
    }
    wall
    {
        type            calculated;
        value           uniform 0;
    }
    procBoundary3to1
    {
        type            processor;
        value           uniform 0;
    }
    procBoundary3to2
    {
        type            processor;
        value           uniform 0;
    }
    procBoundary3to7
    {
        type            processor;
        value           uniform 0;
    }
}


// ************************************************************************* //
