/*--------------------------------*- C++ -*----------------------------------*\
| =========                 |                                                 |
| \\      /  F ield         | OpenFOAM: The Open Source CFD Toolbox           |
|  \\    /   O peration     | Version:  4.x                                   |
|   \\  /    A nd           | Web:      www.OpenFOAM.org                      |
|    \\/     M anipulation  |                                                 |
\*---------------------------------------------------------------------------*/
FoamFile
{
    version     2.0;
    format      ascii;
    class       volScalarField;
    location    "16";
    object      magGField;
}
// * * * * * * * * * * * * * * * * * * * * * * * * * * * * * * * * * * * * * //

dimensions      [1 -2 -1 0 0 0 0];

internalField   nonuniform List<scalar> 
87
(
90.9227
23.8866
90.9379
99.2722
43.7039
101.934
90.3782
29.9305
85.8544
18.3129
81.9616
1.68651
79.1786
0.00230338
78.7165
92.3968
34.5505
89.7028
28.8112
87.6297
25.0257
86.1976
17.1055
84.3367
94.9407
40.2951
95.0979
38.5424
93.8362
34.1959
92.9191
34.0522
93.3842
91.6832
32.7959
88.744
25.8107
87.5841
23.114
88.0866
18.2438
88.1707
93.7301
35.2304
91.3311
29.0436
89.8876
27.0687
89.7741
20.8637
89.259
95.3082
41.073
96.4193
39.9297
95.8941
34.0115
95.3723
38.5737
98.8895
94.3284
37.359
93.0649
28.7887
91.2078
26.8098
91.0477
23.6197
92.6485
94.7793
41.0489
95.4454
40.4638
95.2642
32.8567
94.2197
38.646
96.528
95.9029
44.5504
98.7083
51.1829
102.178
56.6874
104.833
55.4569
103.618
)
;

boundaryField
{
    inlet
    {
        type            calculated;
        value           uniform 67;
    }
    outlet
    {
        type            calculated;
        value           nonuniform 0();
    }
    wall
    {
        type            calculated;
        value           uniform 0;
    }
    procBoundary6to0
    {
        type            processor;
        value           uniform 88.3295;
    }
    procBoundary6to2
    {
        type            processor;
        value           nonuniform List<scalar> 
32
(
87.9271
21.8389
88.0116
100.488
47.2816
101.747
92.787
35.2631
90.5267
31.2519
90.5676
27.3115
90.114
20.9132
20.9132
20.9132
92.8035
37.0393
91.1891
33.8225
90.6979
29.3688
90.2495
90.2495
90.2495
94.9833
42.2723
97.0188
43.6824
99.052
42.1142
42.1142
)
;
    }
    procBoundary6to4
    {
        type            processor;
        value           nonuniform List<scalar> 
27
(
92.7854
33.3397
87.8863
25.7377
85.0804
18.8498
82.6574
12.2174
81.5265
92.5918
32.2535
88.5079
24.2753
85.7908
19.9212
84.9537
15.6372
85.0106
93.0908
35.146
91.7109
25.3309
89.7912
24.0382
90.9352
23.8827
91.912
)
;
    }
    procBoundary6to7
    {
        type            processor;
        value           nonuniform List<scalar> 
12
(
16.0687
21.1103
46.2869
0.00309862
9.0827
35.3532
10.1606
14.3171
45.2367
30.0909
43.6647
52.5781
)
;
    }
}


// ************************************************************************* //
