/*--------------------------------*- C++ -*----------------------------------*\
| =========                 |                                                 |
| \\      /  F ield         | OpenFOAM: The Open Source CFD Toolbox           |
|  \\    /   O peration     | Version:  4.x                                   |
|   \\  /    A nd           | Web:      www.OpenFOAM.org                      |
|    \\/     M anipulation  |                                                 |
\*---------------------------------------------------------------------------*/
FoamFile
{
    version     2.0;
    format      ascii;
    class       volVectorField;
    location    "16";
    object      Us;
}
// * * * * * * * * * * * * * * * * * * * * * * * * * * * * * * * * * * * * * //

dimensions      [0 1 -1 0 0 0 0];

internalField   nonuniform List<vector> 
87
(
(-9.94767e-07 -7.44257e-08 1.24245e-07)
(-7.01335e-07 -1.30261e-07 -1.46961e-08)
(-9.44655e-07 -1.80028e-08 1.85594e-08)
(-1.53828e-07 5.2739e-09 -6.57115e-08)
(-3.97722e-07 -5.83359e-08 -8.18766e-08)
(-3.2142e-07 -1.41679e-08 -6.86369e-08)
(2.81367e-07 -3.98563e-08 -3.20976e-08)
(4.13626e-07 -1.25661e-07 -7.46997e-08)
(5.01807e-07 -1.36986e-07 -1.0233e-07)
(3.81896e-07 -1.64921e-07 -5.92989e-08)
(9.66334e-08 -1.42118e-07 -2.80024e-08)
(-3.16794e-07 -1.54995e-07 2.91802e-08)
(-4.54056e-07 -1.4812e-07 4.18663e-08)
(-7.26832e-07 -1.77774e-07 4.12651e-08)
(-9.28672e-07 -3.04953e-08 1.11171e-07)
(3.91669e-07 -1.57852e-08 2.1839e-08)
(4.61454e-07 -1.10231e-07 -8.95786e-08)
(5.15626e-07 -6.03193e-08 -1.04489e-07)
(2.82425e-07 -6.19353e-08 -3.58955e-08)
(1.35348e-07 -6.15937e-09 -6.30037e-08)
(-1.21986e-07 -4.35819e-08 -5.722e-08)
(-4.15842e-07 -7.1163e-08 -8.61483e-08)
(-5.73829e-07 -5.44595e-08 -9.51036e-08)
(-8.01862e-07 1.21555e-08 5.97613e-08)
(1.2199e-07 1.78891e-08 -4.20737e-08)
(4.06103e-07 -8.73225e-08 -8.9483e-08)
(2.51702e-07 3.71002e-08 -5.92994e-08)
(1.79993e-07 -4.38877e-09 -3.71161e-08)
(8.49571e-08 9.81684e-09 -2.63334e-08)
(-7.77123e-08 8.4316e-09 -3.31959e-08)
(-1.91514e-07 1.84336e-08 -6.90888e-08)
(-2.10841e-07 6.06655e-09 -2.54694e-08)
(-4.30619e-07 3.01045e-08 -2.8472e-08)
(1.99146e-07 3.63198e-08 -2.27471e-08)
(3.66734e-07 -6.49837e-08 -3.16963e-08)
(4.31865e-07 -1.02533e-07 -6.57372e-08)
(3.2722e-07 -8.45361e-08 -3.29934e-08)
(1.95485e-07 -4.63246e-08 -1.0924e-08)
(-1.88836e-07 -2.35627e-08 -8.41314e-08)
(-4.0296e-07 -1.57283e-07 -8.57165e-08)
(-5.96852e-07 -1.89665e-07 3.53532e-08)
(-7.41768e-07 -2.15151e-08 7.24791e-08)
(2.67355e-07 6.5584e-08 5.41133e-08)
(3.88239e-07 -1.12308e-07 -7.02991e-08)
(3.81911e-07 -1.02232e-07 -7.01985e-08)
(2.80755e-07 -7.58879e-08 -3.26527e-08)
(2.07643e-07 6.60904e-09 1.29584e-09)
(-1.45104e-07 2.35316e-08 -3.32509e-08)
(-1.81743e-07 -7.16978e-08 -8.35883e-09)
(-4.26822e-07 -1.51174e-07 -5.40594e-08)
(-7.10596e-07 -1.6079e-08 1.18249e-07)
(5.3834e-07 -3.16856e-08 -2.02042e-07)
(8.22769e-07 5.70285e-08 -2.61364e-07)
(2.13771e-07 -6.32919e-08 -2.50037e-08)
(1.32235e-07 -2.92073e-08 -2.31996e-08)
(9.70967e-08 1.44351e-08 -4.21024e-09)
(-4.89679e-08 2.98666e-08 -6.84766e-09)
(-1.0578e-07 -2.53564e-08 -2.02702e-08)
(-2.17811e-07 -2.02515e-08 -6.9413e-08)
(-3.36419e-07 -5.13107e-08 8.19547e-08)
(1.71518e-07 9.25334e-08 -3.47019e-08)
(2.44709e-07 -2.07803e-08 -9.955e-09)
(3.3707e-07 -5.62431e-08 -1.32272e-08)
(1.83836e-07 -2.63274e-08 -5.64314e-09)
(1.12907e-07 -2.37581e-08 1.55559e-08)
(-3.9226e-08 2.09323e-08 -9.55309e-09)
(-1.77094e-06 -1.7261e-06 -7.91846e-08)
(-4.6376e-07 -1.29814e-07 1.10985e-08)
(-5.43674e-07 -1.11733e-07 -5.41312e-08)
(3.6034e-06 1.72706e-06 6.22597e-08)
(3.92688e-07 -1.44402e-07 -5.02832e-08)
(2.26379e-07 -1.18256e-08 -1.70353e-08)
(1.54233e-07 -2.01686e-08 -1.79593e-08)
(1.21948e-07 -8.08081e-10 -1.74159e-09)
(4.70978e-08 2.1157e-08 1.88234e-08)
(-3.98022e-06 -4.38975e-06 1.26464e-07)
(-3.46185e-07 -1.24977e-07 -2.80828e-08)
(-3.83093e-07 -1.30383e-07 7.98821e-08)
(9.32241e-06 3.9424e-06 4.57857e-08)
(5.10977e-07 5.7259e-08 -6.95437e-08)
(1.26628e-07 -2.21762e-08 6.26375e-09)
(7.03228e-08 -6.78702e-09 6.90962e-10)
(5.67581e-08 1.94879e-09 5.11618e-09)
(-2.86124e-08 2.37776e-08 -4.3067e-09)
(-4.80157e-08 2.27552e-08 -1.85089e-08)
(-5.68782e-08 -2.74512e-08 -4.30397e-08)
(-1.89562e-07 -4.55667e-08 7.26987e-08)
)
;

boundaryField
{
    inlet
    {
        type            zeroGradient;
    }
    outlet
    {
        type            zeroGradient;
    }
    wall
    {
        type            zeroGradient;
    }
    procBoundary6to0
    {
        type            processor;
        value           uniform (-1.14081e-06 -1.06303e-07 1.78732e-07);
    }
    procBoundary6to2
    {
        type            processor;
        value           nonuniform List<vector> 
32
(
(-1.18721e-06 -1.13156e-07 1.16884e-07)
(-8.03908e-07 -1.70445e-07 -1.60587e-08)
(-1.05159e-06 -8.17865e-08 2.70543e-08)
(-2.61545e-07 1.15288e-08 -6.5212e-08)
(-4.55013e-07 3.00139e-08 -9.88196e-08)
(-6.33774e-07 -9.03954e-08 -6.0886e-08)
(2.31914e-07 -2.56585e-08 -4.27907e-08)
(4.43412e-07 -1.16532e-07 -1.05989e-07)
(5.38173e-07 -1.53815e-07 -1.2966e-07)
(3.60895e-07 -1.34146e-07 -1.11667e-07)
(1.23166e-07 -2.04448e-07 -4.60291e-08)
(-2.59867e-07 -1.66942e-07 4.4873e-08)
(-5.39485e-07 -2.02779e-07 3.08708e-08)
(-8.67811e-07 -1.83937e-07 6.25394e-08)
(-8.67811e-07 -1.83937e-07 6.25394e-08)
(-8.67811e-07 -1.83937e-07 6.25394e-08)
(2.01026e-07 -3.54624e-08 -8.02411e-09)
(4.72517e-07 -1.03355e-07 -1.21341e-07)
(4.54323e-07 -6.26008e-08 -1.41002e-07)
(3.40229e-07 -5.39762e-08 -1.09906e-07)
(9.45913e-08 -9.58356e-08 -5.16901e-08)
(-1.78066e-07 -1.21117e-07 -3.67604e-08)
(-3.79526e-07 -2.57148e-08 -8.67282e-08)
(-3.79526e-07 -2.57148e-08 -8.67282e-08)
(-3.79526e-07 -2.57148e-08 -8.67282e-08)
(1.6618e-07 -3.07852e-08 -2.77145e-08)
(2.6738e-07 -9.66438e-08 -1.03168e-07)
(3.86509e-07 -5.1462e-08 -1.16249e-07)
(2.47102e-07 -6.8735e-09 -6.61205e-08)
(1.22481e-07 -1.46827e-09 -5.72141e-08)
(-9.5751e-08 -1.32316e-08 -5.62039e-08)
(-9.5751e-08 -1.32316e-08 -5.62039e-08)
)
;
    }
    procBoundary6to4
    {
        type            processor;
        value           nonuniform List<vector> 
27
(
(2.12446e-07 -4.02316e-08 -5.79884e-08)
(4.0004e-07 -9.23208e-08 -8.09678e-08)
(4.87081e-07 -1.37431e-07 -9.93222e-08)
(3.86986e-07 -1.54422e-07 -6.26098e-08)
(1.26121e-07 -2.21482e-07 -3.08031e-09)
(-3.23274e-07 -2.89801e-07 -8.23905e-10)
(-5.20965e-07 -2.97571e-07 -5.02861e-08)
(-8.70382e-07 -2.5e-07 6.03573e-08)
(-9.63059e-07 -7.35526e-08 9.26174e-08)
(2.01058e-07 -2.19333e-08 -2.14675e-08)
(3.03113e-07 -6.26699e-08 -5.58638e-08)
(3.81459e-07 -9.06153e-08 -7.22299e-08)
(3.31671e-07 -1.00746e-07 -3.86549e-08)
(2.00715e-07 -1.15526e-07 3.38782e-08)
(-1.80922e-07 -1.83074e-07 2.46439e-08)
(-3.85036e-07 -2.89342e-07 -4.22118e-08)
(-5.96326e-07 -2.56812e-07 3.50551e-08)
(-7.33551e-07 -7.59468e-08 -9.97083e-08)
(1.61552e-07 -2.17089e-08 -2.7598e-08)
(2.29392e-07 -1.85601e-08 -4.12451e-08)
(2.87295e-07 -3.79245e-08 -1.19505e-08)
(1.92864e-07 -6.67869e-08 -6.631e-09)
(1.31733e-07 -5.31462e-08 2.79207e-08)
(-1.28671e-08 -6.49986e-08 4.77035e-08)
(-2.34722e-07 -1.33004e-07 -1.40475e-08)
(-1.59301e-06 5.41004e-07 -2.90107e-09)
(-5.37913e-07 -8.66493e-08 -9.89372e-09)
)
;
    }
    procBoundary6to7
    {
        type            processor;
        value           nonuniform List<vector> 
12
(
(-1.13972e-06 1.08973e-07 1.5071e-07)
(-9.48229e-07 -2.18943e-08 8.83952e-08)
(-6.68621e-07 -1.72111e-08 -1.37744e-08)
(-1.00737e-06 3.61007e-08 1.11965e-07)
(-9.15461e-07 1.814e-08 1.00571e-07)
(-6.06286e-07 1.6189e-08 4.13159e-08)
(-8.1336e-07 -3.30065e-08 4.5852e-08)
(-6.73014e-07 1.1425e-08 7.43212e-08)
(-3.7833e-07 1.69044e-08 7.3943e-08)
(-4.85635e-07 -9.32323e-08 2.15772e-08)
(-2.72811e-07 -6.57034e-08 2.63991e-08)
(-1.79423e-07 9.77067e-09 1.5465e-08)
)
;
    }
}


// ************************************************************************* //
