/*--------------------------------*- C++ -*----------------------------------*\
| =========                 |                                                 |
| \\      /  F ield         | OpenFOAM: The Open Source CFD Toolbox           |
|  \\    /   O peration     | Version:  4.x                                   |
|   \\  /    A nd           | Web:      www.OpenFOAM.org                      |
|    \\/     M anipulation  |                                                 |
\*---------------------------------------------------------------------------*/
FoamFile
{
    version     2.0;
    format      ascii;
    class       volScalarField;
    location    "12.5";
    object      Deff;
}
// * * * * * * * * * * * * * * * * * * * * * * * * * * * * * * * * * * * * * //

dimensions      [0 2 -1 0 0 0 0];

internalField   nonuniform List<scalar> 
87
(
9.93856e-08
9.91713e-08
9.91686e-08
9.90407e-08
9.90634e-08
9.88658e-08
9.87764e-08
9.87862e-08
9.88762e-08
9.92719e-08
9.9201e-08
9.90551e-08
9.89863e-08
9.89679e-08
9.8815e-08
9.86614e-08
9.87759e-08
9.89113e-08
9.90782e-08
9.89525e-08
9.88345e-08
9.87583e-08
9.88134e-08
9.88156e-08
9.87116e-08
9.87401e-08
9.88292e-08
9.88685e-08
9.88373e-08
9.87643e-08
9.8634e-08
9.85885e-08
9.84269e-08
9.82814e-08
9.83744e-08
9.85377e-08
9.87144e-08
9.87663e-08
9.86545e-08
9.85488e-08
9.8491e-08
9.84271e-08
9.82752e-08
9.83167e-08
9.85496e-08
9.85508e-08
9.85594e-08
9.85098e-08
9.84766e-08
9.84529e-08
9.83252e-08
9.82152e-08
9.81631e-08
9.8467e-08
9.84783e-08
9.84481e-08
9.82758e-08
9.81845e-08
9.81914e-08
9.80188e-08
9.80381e-08
9.81669e-08
9.8351e-08
9.83339e-08
9.83041e-08
9.83058e-08
9.82076e-08
9.81199e-08
9.80394e-08
9.80141e-08
9.80523e-08
9.82971e-08
9.82258e-08
9.82082e-08
9.82141e-08
9.80055e-08
9.79842e-08
9.79225e-08
9.79398e-08
9.79575e-08
9.82279e-08
9.82412e-08
9.81949e-08
9.79922e-08
9.81027e-08
9.79202e-08
9.80495e-08
)
;

boundaryField
{
    inlet
    {
        type            calculated;
        value           nonuniform 0();
    }
    outlet
    {
        type            calculated;
        value           uniform 0;
    }
    wall
    {
        type            calculated;
        value           uniform 0;
    }
    procBoundary1to0
    {
        type            processor;
        value           uniform 0;
    }
    procBoundary1to3
    {
        type            processor;
        value           uniform 0;
    }
    procBoundary1to5
    {
        type            processor;
        value           uniform 0;
    }
    procBoundary1to7
    {
        type            processor;
        value           uniform 0;
    }
}


// ************************************************************************* //
