/*--------------------------------*- C++ -*----------------------------------*\
| =========                 |                                                 |
| \\      /  F ield         | OpenFOAM: The Open Source CFD Toolbox           |
|  \\    /   O peration     | Version:  4.x                                   |
|   \\  /    A nd           | Web:      www.OpenFOAM.org                      |
|    \\/     M anipulation  |                                                 |
\*---------------------------------------------------------------------------*/
FoamFile
{
    version     2.0;
    format      ascii;
    class       volScalarField;
    location    "12.5";
    object      nu;
}
// * * * * * * * * * * * * * * * * * * * * * * * * * * * * * * * * * * * * * //

dimensions      [0 2 -1 0 0 0 0];

internalField   nonuniform List<scalar> 
87
(
1.00041e-06
1.00056e-06
1.00072e-06
1.00088e-06
1.00101e-06
1.00108e-06
1.00102e-06
1.00096e-06
9.7298e-07
1.00056e-06
1.00075e-06
1.0009e-06
1.00096e-06
1.00089e-06
1.0007e-06
1.00039e-06
1.0001e-06
9.99344e-07
1.00072e-06
1.00087e-06
1.00091e-06
1.00073e-06
1.00043e-06
1.00007e-06
9.99787e-07
9.99614e-07
9.9921e-07
1.00052e-06
1.00066e-06
1.0008e-06
1.00092e-06
1.00097e-06
1.00103e-06
1.00082e-06
1.00074e-06
9.98721e-07
1.00068e-06
1.00074e-06
1.00071e-06
1.00059e-06
1.00036e-06
1.00013e-06
9.99839e-07
9.99698e-07
9.99667e-07
1.00067e-06
1.00063e-06
1.00044e-06
1.00021e-06
9.99949e-07
9.99696e-07
9.99517e-07
9.99725e-07
9.99968e-07
1.00045e-06
1.00058e-06
1.00069e-06
1.00081e-06
1.00086e-06
1.0009e-06
1.00079e-06
1.00074e-06
9.99106e-07
1.00047e-06
1.00045e-06
1.00034e-06
1.0002e-06
1.00002e-06
9.99913e-07
9.9975e-07
9.99788e-07
9.98877e-07
1.0004e-06
1.0003e-06
1.00012e-06
9.99926e-07
9.99748e-07
9.99605e-07
9.99486e-07
9.99492e-07
9.99376e-07
1.00027e-06
1.00037e-06
1.00047e-06
1.00026e-06
1.00024e-06
1.00024e-06
)
;

boundaryField
{
    inlet
    {
        type            calculated;
        value           nonuniform 0();
    }
    outlet
    {
        type            calculated;
        value           uniform 1e-06;
    }
    wall
    {
        type            calculated;
        value           nonuniform List<scalar> 
57
(
1.00041e-06
1.00056e-06
1.00072e-06
1.00056e-06
1.00075e-06
1.00087e-06
1.00072e-06
1.0009e-06
1.00091e-06
1.00088e-06
1.00096e-06
1.00073e-06
1.00101e-06
1.00089e-06
1.00043e-06
1.00108e-06
1.0007e-06
1.00007e-06
1.00102e-06
1.00039e-06
9.99787e-07
1.00096e-06
1.0001e-06
9.99614e-07
9.7298e-07
9.99344e-07
9.9921e-07
1.00041e-06
1.00052e-06
1.00045e-06
1.00027e-06
1.00056e-06
1.00066e-06
1.00058e-06
1.00037e-06
1.00072e-06
1.0008e-06
1.00069e-06
1.00047e-06
1.00088e-06
1.00092e-06
1.00081e-06
1.00101e-06
1.00097e-06
1.00086e-06
1.00108e-06
1.00103e-06
1.0009e-06
1.00102e-06
1.00082e-06
1.00079e-06
1.00096e-06
1.00074e-06
1.00074e-06
9.7298e-07
9.98721e-07
9.99106e-07
)
;
    }
    procBoundary1to0
    {
        type            processor;
        value           nonuniform List<scalar> 
12
(
1.00028e-06
1.00039e-06
1.00051e-06
1.00037e-06
1.00055e-06
1.00062e-06
1.00032e-06
1.00043e-06
1.00044e-06
1.00019e-06
1.00025e-06
1.00026e-06
)
;
    }
    procBoundary1to3
    {
        type            processor;
        value           nonuniform List<scalar> 
27
(
1.00074e-06
1.00087e-06
1.00086e-06
1.0007e-06
1.00044e-06
1.00017e-06
9.99916e-07
9.99741e-07
9.93799e-07
1.00072e-06
1.00067e-06
1.00051e-06
1.00031e-06
1.00008e-06
9.99865e-07
9.99683e-07
9.99568e-07
9.99431e-07
1.00045e-06
1.00037e-06
1.00023e-06
1.00009e-06
9.99948e-07
9.99805e-07
9.9969e-07
9.99586e-07
9.99406e-07
)
;
    }
    procBoundary1to5
    {
        type            processor;
        value           nonuniform List<scalar> 
32
(
1.00057e-06
1.00062e-06
1.00067e-06
1.00057e-06
1.00056e-06
9.99852e-07
1.00016e-06
1.00008e-06
9.99956e-07
9.99909e-07
9.99778e-07
9.99811e-07
9.9928e-07
1.00019e-06
1.00008e-06
9.99957e-07
9.99826e-07
9.99703e-07
9.99597e-07
9.9955e-07
9.99161e-07
1.00019e-06
1.00024e-06
1.00057e-06
1.00016e-06
1.0003e-06
1.00014e-06
1.00016e-06
1.00019e-06
1.00006e-06
1.00019e-06
1.00014e-06
)
;
    }
    procBoundary1to7
    {
        type            processor;
        value           uniform 1.00029e-06;
    }
}


// ************************************************************************* //
