/*--------------------------------*- C++ -*----------------------------------*\
| =========                 |                                                 |
| \\      /  F ield         | OpenFOAM: The Open Source CFD Toolbox           |
|  \\    /   O peration     | Version:  4.x                                   |
|   \\  /    A nd           | Web:      www.OpenFOAM.org                      |
|    \\/     M anipulation  |                                                 |
\*---------------------------------------------------------------------------*/
FoamFile
{
    version     2.0;
    format      ascii;
    class       volScalarField;
    location    "12.5";
    object      p;
}
// * * * * * * * * * * * * * * * * * * * * * * * * * * * * * * * * * * * * * //

dimensions      [1 -1 -2 0 0 0 0];

internalField   nonuniform List<scalar> 
87
(
5654.1
5703.52
5635.49
5697.21
5615.77
5691.92
5594.8
5688.89
5571.89
5654.14
5703.72
5636.06
5697.44
5617.13
5691.79
5597.92
5687.22
5580.59
5654.74
5704.8
5636.53
5698.55
5617.83
5692.4
5600.03
5687.19
5584.59
3776.69
3826.4
3758.35
3820.13
3738.45
3814.85
3716.24
3811.9
3687.13
3776.96
3826.51
3759.08
3819.87
3740.16
3813.7
3721.05
3808.4
3699.2
3777.88
3827.53
3760.17
3821.18
3741.74
3814.84
3725.34
3808.71
3704.18
1899.85
1949.26
1881.52
1942.56
1861.82
1936.85
1839.76
1933.98
1812.61
1900.02
1949.32
1881.72
1942.41
1862.26
1935.66
1841.36
1930.57
1818.24
1901.07
1950.08
1883.24
1942.95
1864.93
1935.83
1846.8
1929.55
1830.4
22.2479
71.8389
3.52964
22.5523
71.7945
22.678
)
;

boundaryField
{
    inlet
    {
        type            calculated;
        value           nonuniform 0();
    }
    outlet
    {
        type            calculated;
        value           nonuniform List<scalar> 9(5633.74 5633.74 5633.74 3755.83 3755.83 3755.83 1877.91 1877.91 1877.91);
    }
    wall
    {
        type            calculated;
        value           nonuniform List<scalar> 
57
(
6592.68
6592.57
6593.03
6641.96
6641.97
6642.93
6573.77
6574.17
6574.63
6635.34
6635.49
6636.82
6553.78
6555.25
6556.39
6629.87
6630.09
6631.29
6532.8
6536.51
6539.19
6626.95
6626.08
6626.51
6536.92
6520.16
6524.29
5654.1
3776.69
1899.85
22.2479
5703.52
3826.4
1949.26
71.8389
5635.49
3758.35
1881.52
3.52964
5697.21
3820.13
1942.56
5615.77
3738.45
1861.82
5691.92
3814.85
1936.85
5594.8
3716.24
1839.76
5688.89
3811.9
1933.98
5571.89
3687.13
1812.61
)
;
    }
    procBoundary1to0
    {
        type            processor;
        value           nonuniform List<scalar> 
12
(
5710.12
5710.32
5711.2
3833.1
3833.43
3834.26
1956.19
1956.58
1956.98
78.8558
79.215
79.4761
)
;
    }
    procBoundary1to3
    {
        type            processor;
        value           nonuniform List<scalar> 
27
(
5654.8
5704.11
5636.66
5697.51
5617.91
5691.68
5598.19
5687.71
5575.58
3777.72
3826.65
3759.77
3819.7
3741.04
3813.36
3722.19
3808.73
3703.55
1901.28
1949.62
1883.45
1942.18
1864.95
1935.44
1846.39
1929.73
1829.23
)
;
    }
    procBoundary1to5
    {
        type            processor;
        value           nonuniform List<scalar> 
32
(
65.1655
-16.844
59.5714
-40.2554
57.1939
-71.8258
3.74243
64.4506
-15.4975
57.755
-35.2472
52.5946
-52.7523
72.1816
4.08927
65.1541
-15.0595
58.6538
-33.9607
53.2948
-51.2398
-1854.81
-1805.71
65.1655
3.74243
-1872.99
-1854.43
3.74243
72.1816
-1805.79
72.1816
-1853.22
)
;
    }
    procBoundary1to7
    {
        type            processor;
        value           uniform 23.8857;
    }
}


// ************************************************************************* //
