/*--------------------------------*- C++ -*----------------------------------*\
| =========                 |                                                 |
| \\      /  F ield         | OpenFOAM: The Open Source CFD Toolbox           |
|  \\    /   O peration     | Version:  4.x                                   |
|   \\  /    A nd           | Web:      www.OpenFOAM.org                      |
|    \\/     M anipulation  |                                                 |
\*---------------------------------------------------------------------------*/
FoamFile
{
    version     2.0;
    format      ascii;
    class       volScalarField;
    location    "12.5";
    object      particleRelTemp;
}
// * * * * * * * * * * * * * * * * * * * * * * * * * * * * * * * * * * * * * //

dimensions      [0 0 0 0 0 0 0];

internalField   nonuniform List<scalar> 
87
(
-1.65371e-08
-8.72137e-09
-6.06084e-09
-2.17326e-08
-3.29707e-08
-1.16384e-08
2.62026e-09
1.94142e-08
3.44548e-08
-2.26727e-09
2.29716e-08
4.41745e-08
-1.04956e-09
-2.06804e-08
2.74041e-10
2.40463e-08
3.95059e-08
5.01834e-08
2.27898e-08
6.27403e-08
1.50033e-07
2.85608e-08
-1.3706e-08
1.72712e-08
4.32726e-08
5.03076e-08
6.53595e-08
-1.20503e-08
-4.40731e-09
-3.55306e-09
-6.54629e-09
-1.0868e-08
-5.6898e-10
1.41291e-08
3.28716e-08
4.6144e-08
-3.95142e-09
1.22967e-08
2.45061e-08
7.43529e-09
4.64101e-09
1.73424e-08
3.17899e-08
5.38327e-08
7.92153e-08
2.24224e-08
3.83681e-08
6.91274e-08
3.56048e-08
1.91817e-08
2.74919e-08
4.39691e-08
6.237e-08
8.39867e-08
-9.63908e-09
-5.35973e-09
5.28557e-10
2.63781e-09
2.41626e-09
1.10033e-08
2.16564e-08
3.60595e-08
5.60629e-08
1.71614e-09
8.41568e-09
1.46654e-08
1.52535e-08
1.62451e-08
2.26727e-08
4.03532e-08
5.84368e-08
7.51606e-08
1.79891e-08
2.55913e-08
2.8098e-08
2.86151e-08
3.26526e-08
3.91589e-08
5.36948e-08
6.67422e-08
8.51783e-08
-9.10016e-09
-5.77379e-09
-1.29903e-09
1.57702e-09
8.18814e-09
1.77424e-08
)
;

boundaryField
{
    inlet
    {
        type            calculated;
        value           nonuniform 0();
    }
    outlet
    {
        type            calculated;
        value           nonuniform List<scalar> 9(3.44548e-08 5.01834e-08 6.53595e-08 4.6144e-08 7.92153e-08 8.39867e-08 5.60629e-08 7.51606e-08 8.51783e-08);
    }
    wall
    {
        type            calculated;
        value           nonuniform List<scalar> 
57
(
-1.65371e-08
-2.26727e-09
2.27898e-08
-8.72137e-09
2.29716e-08
6.27403e-08
-6.06084e-09
4.41745e-08
1.50033e-07
-2.17326e-08
-1.04956e-09
2.85608e-08
-3.29707e-08
-2.06804e-08
-1.3706e-08
-1.16384e-08
2.74041e-10
1.72712e-08
2.62026e-09
2.40463e-08
4.32726e-08
1.94142e-08
3.95059e-08
5.03076e-08
3.44548e-08
5.01834e-08
6.53595e-08
-1.65371e-08
-1.20503e-08
-9.63908e-09
-9.10016e-09
-8.72137e-09
-4.40731e-09
-5.35973e-09
-5.77379e-09
-6.06084e-09
-3.55306e-09
5.28557e-10
-1.29903e-09
-2.17326e-08
-6.54629e-09
2.63781e-09
-3.29707e-08
-1.0868e-08
2.41626e-09
-1.16384e-08
-5.6898e-10
1.10033e-08
2.62026e-09
1.41291e-08
2.16564e-08
1.94142e-08
3.28716e-08
3.60595e-08
3.44548e-08
4.6144e-08
5.60629e-08
)
;
    }
    procBoundary1to0
    {
        type            processor;
        value           nonuniform List<scalar> 
12
(
-2.23866e-08
-1.07335e-08
2.49142e-09
-1.74818e-08
-5.34252e-09
1.10226e-08
-1.32491e-08
-3.31068e-09
9.1876e-09
-1.34533e-08
-2.27657e-09
6.92986e-09
)
;
    }
    procBoundary1to3
    {
        type            processor;
        value           nonuniform List<scalar> 
27
(
4.20797e-08
5.13987e-08
6.83604e-08
3.71703e-08
6.05652e-09
1.55598e-08
3.48699e-08
4.09306e-08
5.67252e-08
4.31677e-08
5.07367e-08
5.62962e-08
3.96931e-08
2.66013e-08
2.78876e-08
4.3907e-08
5.59992e-08
6.704e-08
4.11264e-08
4.0521e-08
4.07065e-08
3.89956e-08
3.87671e-08
4.44456e-08
5.17789e-08
6.64251e-08
7.74754e-08
)
;
    }
    procBoundary1to5
    {
        type            processor;
        value           nonuniform List<scalar> 
32
(
3.09905e-09
5.12601e-09
8.49795e-09
1.84106e-08
2.87792e-08
4.04245e-08
1.29226e-08
1.37188e-08
1.84693e-08
2.4016e-08
3.44674e-08
4.73762e-08
6.00779e-08
2.2458e-08
2.44073e-08
2.66322e-08
2.93614e-08
3.4609e-08
4.67773e-08
6.08522e-08
7.21682e-08
-1.11949e-08
-8.74711e-09
3.09905e-09
1.29226e-08
-2.08578e-09
-3.58681e-09
1.29226e-08
2.2458e-08
1.65423e-09
2.2458e-08
9.94686e-09
)
;
    }
    procBoundary1to7
    {
        type            processor;
        value           uniform 3.09616e-08;
    }
}


// ************************************************************************* //
