/*--------------------------------*- C++ -*----------------------------------*\
| =========                 |                                                 |
| \\      /  F ield         | OpenFOAM: The Open Source CFD Toolbox           |
|  \\    /   O peration     | Version:  4.x                                   |
|   \\  /    A nd           | Web:      www.OpenFOAM.org                      |
|    \\/     M anipulation  |                                                 |
\*---------------------------------------------------------------------------*/
FoamFile
{
    version     2.0;
    format      ascii;
    class       volScalarField;
    location    "12.5";
    object      Qsource;
}
// * * * * * * * * * * * * * * * * * * * * * * * * * * * * * * * * * * * * * //

dimensions      [1 -1 -3 0 0 0 0];

internalField   nonuniform List<scalar> 
87
(
6.21986e+09
9.44646e+09
6.06747e+09
8.88187e+09
5.32394e+09
7.75559e+09
6.33563e+09
8.52188e+09
6.13398e+09
5.34773e+09
5.40917e+09
6.34093e+09
6.51155e+09
4.94098e+09
6.97569e+09
7.01486e+09
6.51219e+09
4.68455e+09
4.4162e+09
7.65935e+09
6.19458e+09
9.14616e+09
5.67344e+09
5.93024e+09
4.70743e+09
5.73239e+09
3.62057e+09
7.87322e+09
7.58747e+09
6.97965e+09
8.72665e+09
7.19645e+09
9.10469e+09
9.74128e+09
1.06807e+10
7.36164e+09
9.42813e+09
6.55965e+09
7.59299e+09
9.22773e+09
8.54877e+09
7.39851e+09
8.98499e+09
9.6195e+09
5.26211e+09
8.89171e+09
8.22187e+09
6.86827e+09
6.4404e+09
5.40304e+09
8.49591e+09
8.40882e+09
1.05733e+10
3.64586e+09
7.60163e+09
7.91823e+09
8.91625e+09
1.069e+10
7.16896e+09
1.13409e+10
9.00104e+09
9.60462e+09
4.01198e+09
8.82514e+09
8.75621e+09
6.33164e+09
8.01533e+09
8.29999e+09
9.24983e+09
7.91924e+09
9.54682e+09
4.00856e+09
8.08869e+09
7.74214e+09
5.34865e+09
1.10675e+10
8.72977e+09
1.06217e+10
7.29633e+09
9.38283e+09
3.04553e+09
7.19e+09
6.62517e+09
8.83084e+09
8.03035e+09
1.24128e+10
6.0596e+09
)
;

boundaryField
{
    inlet
    {
        type            calculated;
        value           nonuniform 0();
    }
    outlet
    {
        type            calculated;
        value           uniform 0;
    }
    wall
    {
        type            calculated;
        value           uniform 0;
    }
    procBoundary1to0
    {
        type            processor;
        value           nonuniform List<scalar> 
12
(
4.3275e+09
6.68938e+09
9.81923e+09
8.20266e+09
8.63236e+09
6.20916e+09
6.20503e+09
7.5515e+09
5.28944e+09
6.89983e+09
6.90964e+09
9.4201e+09
)
;
    }
    procBoundary1to3
    {
        type            processor;
        value           nonuniform List<scalar> 
27
(
8.82174e+09
4.63703e+09
6.73692e+09
3.97308e+09
4.78801e+09
4.52687e+09
5.53491e+09
5.56681e+09
4.54125e+09
8.30474e+09
7.84153e+09
9.86693e+09
1.02416e+10
8.35109e+09
7.6674e+09
6.75958e+09
8.08149e+09
8.12663e+09
8.07973e+09
1.06884e+10
9.21739e+09
1.02444e+10
6.59974e+09
7.87847e+09
9.17173e+09
8.45907e+09
6.57242e+09
)
;
    }
    procBoundary1to5
    {
        type            processor;
        value           nonuniform List<scalar> 
32
(
9.39644e+09
8.82718e+09
9.26847e+09
7.4859e+09
1.12842e+10
8.22743e+09
7.71675e+09
7.37152e+09
6.56842e+09
8.85362e+09
9.56364e+09
1.12189e+10
7.66131e+09
1.01899e+10
6.39831e+09
8.91496e+09
6.26071e+09
5.50943e+09
7.35283e+09
6.84122e+09
7.01151e+09
6.94492e+09
6.59414e+09
9.39644e+09
7.71675e+09
8.13231e+09
8.13923e+09
7.71675e+09
1.01899e+10
8.22712e+09
1.01899e+10
8.62484e+09
)
;
    }
    procBoundary1to7
    {
        type            processor;
        value           uniform 1.03616e+10;
    }
}


// ************************************************************************* //
