/*--------------------------------*- C++ -*----------------------------------*\
| =========                 |                                                 |
| \\      /  F ield         | OpenFOAM: The Open Source CFD Toolbox           |
|  \\    /   O peration     | Version:  4.x                                   |
|   \\  /    A nd           | Web:      www.OpenFOAM.org                      |
|    \\/     M anipulation  |                                                 |
\*---------------------------------------------------------------------------*/
FoamFile
{
    version     2.0;
    format      ascii;
    class       volScalarField;
    location    "12.5";
    object      thCond;
}
// * * * * * * * * * * * * * * * * * * * * * * * * * * * * * * * * * * * * * //

dimensions      [1 1 -3 -1 0 0 0];

internalField   nonuniform List<scalar> 
87
(
192.925
192.509
192.504
192.255
192.299
191.916
191.742
191.762
191.936
192.704
192.567
192.283
192.15
192.114
191.817
191.519
191.741
192.004
192.328
192.084
191.855
191.707
191.814
191.819
191.617
191.672
191.845
191.921
191.861
191.719
191.466
191.378
191.064
190.782
190.962
191.279
191.622
191.723
191.506
191.301
191.188
191.064
190.77
190.85
191.302
191.304
191.321
191.225
191.16
191.114
190.867
190.653
190.552
191.142
191.164
191.105
190.771
190.593
190.607
190.272
190.309
190.559
190.917
190.883
190.826
190.829
190.638
190.468
190.312
190.263
190.337
190.812
190.674
190.64
190.651
190.246
190.205
190.085
190.118
190.153
190.678
190.703
190.614
190.22
190.435
190.08
190.331
)
;

boundaryField
{
    inlet
    {
        type            zeroGradient;
    }
    outlet
    {
        type            zeroGradient;
    }
    wall
    {
        type            zeroGradient;
    }
    procBoundary1to0
    {
        type            processor;
        value           nonuniform List<scalar> 
12
(
193.298
192.763
192.266
192.122
191.811
191.693
191.536
191.193
191.139
191.018
190.749
190.524
)
;
    }
    procBoundary1to3
    {
        type            processor;
        value           nonuniform List<scalar> 
27
(
191.866
191.959
191.71
191.962
191.9
191.968
191.689
191.7
191.635
191.081
191.071
190.754
190.788
190.885
190.933
190.79
190.723
190.594
190.431
190.244
190.151
190.135
190.246
190.14
189.941
190.049
190.115
)
;
    }
    procBoundary1to5
    {
        type            processor;
        value           nonuniform List<scalar> 
32
(
190.191
190.002
189.996
189.915
189.881
189.899
190.195
190.215
190.088
189.93
189.739
189.699
189.832
190.051
190.142
189.933
189.938
189.934
189.738
189.823
189.704
190.341
190.371
190.191
190.195
190.06
190.117
190.195
190.051
190.041
190.051
189.955
)
;
    }
    procBoundary1to7
    {
        type            processor;
        value           uniform 189.957;
    }
}


// ************************************************************************* //
