/*--------------------------------*- C++ -*----------------------------------*\
  =========                 |
  \\      /  F ield         | OpenFOAM: The Open Source CFD Toolbox
   \\    /   O peration     | Website:  https://openfoam.org
    \\  /    A nd           | Version:  4.x
     \\/     M anipulation  |
\*---------------------------------------------------------------------------*/
FoamFile
{
    version     2.0;
    format      ascii;
    class       Cloud<passiveParticle>;
    location    0;
    object      positions;
}
// * * * * * * * * * * * * * * * * * * * * * * * * * * * * * * * * * * * * * //

236
(
( 0.250064 -0.0571682 -0.0378248 ) 63
( 0.253189 -0.0190664 -0.0428845 ) 45
( 0.25259 -0.064196 -0.0651092 ) 36
( 0.25362 -0.0738434 -0.0477501 ) 27
( 0.255807 -0.0383555 -0.0386767 ) 72
( 0.25053 -0.0262667 0.00332996 ) 86
( 0.256704 -0.0654574 0.00463682 ) 84
( 0.251439 -0.0232715 -0.0165359 ) 72
( 0.257169 -0.0759973 -0.0139185 ) 81
( 0.252597 -0.0902933 -0.00140944 ) 81
( 0.353423 -0.0660915 -0.0605264 ) 39
( 0.379213 -0.0900693 -0.0644186 ) 31
( 0.402189 -0.0526045 -0.0631337 ) 41
( 0.312798 -0.0442524 -0.0461423 ) 38
( 0.416381 -0.0899936 -0.0798119 ) 5
( 0.362031 -0.0749462 -0.0398187 ) 58
( 0.30282 -0.0282205 -0.0373126 ) 73
( 0.352869 -0.0311858 -0.0498803 ) 48
( 0.412371 -0.0901967 -0.0422758 ) 59
( 0.445922 -0.0468393 -0.0353703 ) 70
( 0.472065 -0.0451849 -0.0595062 ) 43
( 0.28818 -0.0267663 -0.0597554 ) 46
( 0.420447 -0.0900893 -0.0603172 ) 33
( 0.447541 -0.0150106 -0.0453298 ) 52
( 0.335502 -0.057776 -0.0578275 ) 39
( 0.437665 -0.031295 -0.0633188 ) 51
( 0.300456 -0.0423175 -0.0615479 ) 46
( 0.406647 -0.0246558 -0.0794153 ) 23
( 0.490044 -0.0448171 -0.0457603 ) 44
( 0.336905 -0.07615 -0.0653302 ) 30
( 0.40634 -0.0148157 -0.0568065 ) 50
( 0.342987 -0.0546566 -0.0245105 ) 66
( 0.274061 -0.0539886 -0.0587168 ) 36
( 0.478731 -0.0300437 -0.0284034 ) 80
( 0.359122 -0.0145066 -0.0795908 ) 21
( 0.43128 -0.0440267 -0.049466 ) 42
( 0.34163 -0.0338559 -0.033855 ) 75
( 0.466886 -0.0214613 -0.0520705 ) 52
( 0.359444 -0.0509894 -0.072228 ) 12
( 0.362231 -0.0502769 -0.0525529 ) 40
( 0.417991 -0.0295289 -0.0464218 ) 51
( 0.418404 -0.0725178 -0.0693019 ) 33
( 0.468616 -0.0739205 -0.0515397 ) 34
( 0.320931 -0.0476754 -0.0718403 ) 11
( 0.333322 -0.0393253 -0.0509146 ) 47
( 0.430105 -0.058555 -0.0360646 ) 69
( 0.437492 -0.0728697 -0.0749201 ) 6
( 0.451562 -0.0901624 -0.0491609 ) 34
( 0.287524 -0.0901708 -0.0680839 ) 28
( 0.399958 -0.0732094 -0.0767978 ) 5
( 0.468134 -0.0412949 -0.0405668 ) 79
( 0.474052 -0.0210188 -0.0859799 ) 26
( 0.268657 -0.022458 -0.0728476 ) 18
( 0.40895 -0.044488 -0.0800408 ) 14
( 0.401554 -0.0900763 -0.066427 ) 32
( 0.453126 -0.0190515 -0.0662711 ) 52
( 0.327569 -0.0742775 -0.0418576 ) 56
( 0.410566 -0.0722866 -0.0509469 ) 32
( 0.378727 -0.0676782 -0.0324317 ) 67
( 0.324295 -0.0880893 -0.0751853 ) 2
( 0.339895 -0.0420867 -0.069454 ) 48
( 0.436408 -0.0459149 -0.0767633 ) 15
( 0.270022 -0.0254287 -0.0348882 ) 72
( 0.272701 -0.086368 -0.0204203 ) 54
( 0.440627 -0.0583483 -0.0617968 ) 42
( 0.384522 -0.0609605 -0.0663411 ) 40
( 0.380681 -0.0417039 -0.0342417 ) 76
( 0.409042 -0.0145521 -0.0371368 ) 77
( 0.456023 -0.079715 -0.069655 ) 34
( 0.295277 -0.0697709 -0.0272328 ) 64
( 0.489846 -0.0756274 -0.0426455 ) 62
( 0.302426 -0.0900993 -0.0444035 ) 28
( 0.379192 -0.0429316 -0.0598096 ) 40
( 0.366612 -0.0276915 -0.0359054 ) 76
( 0.328059 -0.090189 -0.0297949 ) 56
( 0.458183 -0.0530423 -0.0835802 ) 16
( 0.479902 -0.0739847 -0.0701133 ) 35
( 0.485329 -0.0614288 -0.055687 ) 44
( 0.271859 -0.0170146 -0.0539909 ) 45
( 0.41369 -0.0531575 -0.0461081 ) 41
( 0.287548 -0.0667564 -0.0658885 ) 37
( 0.381293 -0.0262072 -0.0492958 ) 49
( 0.298296 -0.0168953 -0.0737448 ) 19
( 0.35654 -0.0749317 -0.077994 ) 3
( 0.347226 -0.0870751 -0.0352076 ) 57
( 0.454325 -0.0315815 -0.0843361 ) 25
( 0.483026 -0.0552208 -0.0827664 ) 17
( 0.374349 -0.0224568 -0.0676065 ) 49
( 0.307666 -0.0244712 -0.0561668 ) 47
( 0.271184 -0.0738614 -0.0570518 ) 27
( 0.42559 -0.015567 -0.0617192 ) 51
( 0.315841 -0.0602861 -0.0574188 ) 38
( 0.439755 -0.0901028 -0.0650557 ) 33
( 0.356577 -0.0868772 -0.0547841 ) 30
( 0.432268 -0.0901834 -0.0443671 ) 33
( 0.276114 -0.0669304 -0.0230778 ) 63
( 0.318142 -0.0900183 -0.0564113 ) 29
( 0.372101 -0.0731046 -0.0567659 ) 31
( 0.467862 -0.061103 -0.0365256 ) 70
( 0.456198 -0.0531477 -0.0510355 ) 43
( 0.27059 -0.0901695 -0.0398125 ) 54
( 0.393407 -0.0275176 -0.0649142 ) 50
( 0.30239 -0.0790824 -0.0613736 ) 28
( 0.322485 -0.0301511 -0.0362246 ) 74
( 0.268956 -0.085404 -0.0732444 ) 0
( 0.387981 -0.05771 -0.04683 ) 40
( 0.391985 -0.0868531 -0.0277242 ) 59
( 0.490305 -0.0457869 -0.0668279 ) 44
( 0.417947 -0.0339075 -0.0657329 ) 51
( 0.481768 -0.0495844 -0.0283486 ) 71
( 0.279869 -0.0392458 -0.0467219 ) 46
( 0.490033 -0.0249975 -0.0438809 ) 53
( 0.436856 -0.0295444 -0.0370342 ) 78
( 0.45399 -0.0421276 -0.0674436 ) 52
( 0.340965 -0.0223402 -0.0774278 ) 21
( 0.47031 -0.0888413 -0.0822523 ) 7
( 0.476093 -0.0900805 -0.0427043 ) 62
( 0.436527 -0.090128 -0.0846691 ) 6
( 0.373828 -0.0900096 -0.0452638 ) 31
( 0.43051 -0.0716153 -0.0510367 ) 33
( 0.269418 -0.0603967 -0.0405138 ) 63
( 0.451732 -0.0339563 -0.0494201 ) 52
( 0.288773 -0.0569033 -0.0441151 ) 37
( 0.302542 -0.0516069 -0.0307855 ) 64
( 0.393469 -0.0900988 -0.0482442 ) 32
( 0.278746 -0.0396257 -0.071651 ) 19
( 0.395906 -0.0397261 -0.0494699 ) 50
( 0.337234 -0.0903894 -0.0515835 ) 30
( 0.421825 -0.0533838 -0.0650378 ) 42
( 0.324723 -0.0552073 -0.0323913 ) 65
( 0.346062 -0.0634673 -0.0420227 ) 66
( 0.471386 -0.0902157 -0.0624309 ) 34
( 0.2699 -0.0649511 -0.0748585 ) 9
( 0.314787 -0.0705373 -0.0744437 ) 11
( 0.451173 -0.0771907 -0.0888115 ) 7
( 0.305758 -0.0705292 -0.0439236 ) 38
( 0.290128 -0.0900808 -0.0289438 ) 55
( 0.39603 -0.0290495 -0.0328721 ) 77
( 0.372119 -0.0631306 -0.0817233 ) 13
( 0.388903 -0.0890515 -0.0817752 ) 5
( 0.49006 -0.0319155 -0.0811474 ) 26
( 0.460039 -0.09026 -0.0313527 ) 61
( 0.35672 -0.0314459 -0.0692919 ) 48
( 0.314225 -0.0290859 -0.074379 ) 20
( 0.460083 -0.0245684 -0.0328117 ) 79
( 0.41854 -0.0740998 -0.0327312 ) 60
( 0.490284 -0.0899301 -0.0563627 ) 35
( 0.339811 -0.0193724 -0.0146498 ) 75
( 0.29759 -0.0651188 0.0107432 ) 85
( 0.382125 -0.02812 -0.0187567 ) 76
( 0.454571 -0.0159091 -0.0149495 ) 79
( 0.293106 -0.0901533 -0.00936429 ) 82
( 0.441525 -0.0578235 -0.0196842 ) 69
( 0.301074 -0.029143 -0.0168685 ) 73
( 0.461239 -0.0479938 -0.0232278 ) 70
( 0.289587 -0.0840888 0.0124187 ) 82
( 0.399692 -0.0396843 -0.0147451 ) 77
( 0.2768 -0.0520644 -0.00134332 ) 84
( 0.342452 -0.0900501 -0.0161278 ) 57
( 0.447367 -0.0336295 -0.0204335 ) 79
( 0.368162 -0.0533829 -0.0193732 ) 67
( 0.316253 -0.0412821 -0.0209566 ) 74
( 0.429251 -0.0729962 -0.0160195 ) 60
( 0.272952 -0.0903855 -0.000992562 ) 81
( 0.287425 -0.0513995 -0.0180044 ) 64
( 0.2606 -0.0431897 0.00585503 ) 84
( 0.355067 -0.0308732 -0.0199173 ) 75
( 0.273369 -0.0710905 -0.00393676 ) 84
( 0.292373 -0.0677927 -0.00789674 ) 85
( 0.309276 -0.090203 -0.0230739 ) 56
( 0.409953 -0.023785 -0.0198817 ) 77
( 0.306917 -0.0903346 0.00470234 ) 83
( 0.387008 -0.0721917 -0.0150872 ) 58
( 0.267538 -0.020601 -0.0052375 ) 86
( 0.436523 -0.0156807 -0.0228043 ) 78
( 0.429492 -0.0425139 -0.0239257 ) 78
( 0.325743 -0.090175 0.0107181 ) 83
( 0.367111 -0.0152062 -0.0205856 ) 76
( 0.267901 -0.0415485 -0.0232264 ) 72
( 0.388661 -0.0422316 -0.0773664 ) 22
( 0.449974 -0.0708455 -0.0450622 ) 43
( 0.284407 -0.0762518 -0.0424491 ) 55
( 0.421593 -0.0594433 -0.0840064 ) 15
( 0.304849 -0.0515336 -0.00825891 ) 85
( 0.439436 -0.0188666 -0.0807307 ) 24
( 0.490028 -0.0900341 -0.0762565 ) 8
( 0.323205 -0.0903116 -0.0089139 ) 83
( 0.398878 -0.0696051 -0.0350513 ) 68
( 0.406759 -0.0722212 -0.017002 ) 59
( 0.264191 -0.0349649 -0.0580544 ) 45
( 0.464404 -0.06194 -0.0668564 ) 43
( 0.481932 -0.0282708 -0.0631321 ) 53
( 0.34245 -0.0605739 -0.0763548 ) 12
( 0.25601 -0.0900914 -0.0589352 ) 27
( 0.328669 -0.0234614 -0.0618598 ) 47
( 0.447308 -0.0754062 -0.0260535 ) 61
( 0.35775 -0.045335 -0.0340166 ) 66
( 0.471737 -0.0393025 -0.0784509 ) 25
( 0.490263 -0.0697233 -0.0238394 ) 71
( 0.413108 -0.0902445 -0.0224562 ) 59
( 0.256051 -0.0567204 -0.0182915 ) 63
( 0.334447 -0.0726485 -0.0232286 ) 57
( 0.353976 -0.0748114 -0.021606 ) 57
( 0.25454 -0.0900414 -0.0275676 ) 54
( 0.286327 -0.0347062 -0.0286768 ) 73
( 0.311184 -0.0738142 -0.00533139 ) 83
( 0.315026 -0.0715917 -0.026556 ) 56
( 0.29362 -0.0461816 0.00706643 ) 85
( 0.471652 -0.076147 -0.0240549 ) 61
( 0.43489 -0.0904053 -0.024846 ) 60
( 0.335107 -0.0386024 -0.0157885 ) 75
( 0.411349 -0.0507859 -0.0264838 ) 68
( 0.365283 -0.0901973 -0.0274066 ) 58
( 0.391275 -0.0549823 -0.0238887 ) 68
( 0.293429 -0.0518046 -0.0775827 ) 10
( 0.250133 -0.0799955 -0.0769148 ) 0
( 0.343857 -0.0901427 -0.0784946 ) 3
( 0.440686 -0.0602197 -0.0899565 ) 15
( 0.49004 -0.0733713 -0.087255 ) 8
( 0.386948 -0.0225559 -0.0830913 ) 22
( 0.304658 -0.0895863 -0.078219 ) 1
( 0.469372 -0.0693267 -0.0863714 ) 16
( 0.424639 -0.0317341 -0.0843695 ) 24
( 0.370017 -0.0377136 -0.0827316 ) 22
( 0.39592 -0.057335 -0.0880587 ) 14
( 0.329726 -0.0365129 -0.0857912 ) 20
( 0.263489 -0.0473758 -0.0818412 ) 9
( 0.296719 -0.0718486 -0.082827 ) 1
( 0.297636 -0.0336231 -0.0845151 ) 19
( 0.333826 -0.075102 -0.0869323 ) 3
( 0.286853 -0.0895853 -0.0879694 ) 1
( 0.36899 -0.0900554 -0.0815966 ) 4
( 0.322647 -0.0586237 -0.0883976 ) 11
( 0.35046 -0.0399134 -0.0862195 ) 21
( 0.276764 -0.0304671 -0.0892336 ) 18
( 0.310653 -0.0163931 -0.0893735 ) 20
)
