/*--------------------------------*- C++ -*----------------------------------*\
| =========                 |                                                 |
| \\      /  F ield         | OpenFOAM: The Open Source CFD Toolbox           |
|  \\    /   O peration     | Version:  4.x                                   |
|   \\  /    A nd           | Web:      www.OpenFOAM.org                      |
|    \\/     M anipulation  |                                                 |
\*---------------------------------------------------------------------------*/
FoamFile
{
    version     2.0;
    format      ascii;
    class       volScalarField;
    location    "8";
    object      Cs;
}
// * * * * * * * * * * * * * * * * * * * * * * * * * * * * * * * * * * * * * //

dimensions      [1 -3 0 0 0 0 0];

internalField   nonuniform List<scalar> 
114
(
334.816
334.848
334.876
334.935
334.961
335.447
335.07
335.105
335.148
335.152
335.173
335.153
335.217
335.044
335.096
335.141
335.176
335.194
335.191
335.176
335.171
334.884
334.881
334.892
334.905
334.933
334.956
334.994
335.015
335.092
335.03
335.081
335.132
335.148
335.171
335.15
335.152
335.121
335.141
335.015
335.061
335.103
335.135
335.163
335.169
335.153
335.122
335.102
335.004
335.046
334.917
334.916
334.922
334.927
334.939
334.947
334.969
334.975
335.416
335.006
335.048
335.081
335.082
335.086
335.064
335.08
335.06
335.181
334.995
335.025
335.055
335.073
335.102
335.114
335.141
335.13
335.199
334.985
335.025
335.072
335.091
334.913
334.91
334.91
334.912
334.917
334.92
334.932
334.936
337.727
334.924
334.927
334.932
334.938
334.945
334.953
334.967
334.976
335.232
334.919
334.919
334.923
334.93
334.941
334.955
334.977
334.996
335.345
334.921
334.924
334.932
334.943
334.957
334.975
)
;

boundaryField
{
    inlet
    {
        type            calculated;
        value           nonuniform 0();
    }
    outlet
    {
        type            calculated;
        value           uniform 335;
    }
    wall
    {
        type            calculated;
        value           nonuniform List<scalar> 
66
(
334.913
334.924
334.919
334.921
334.91
334.927
334.919
334.924
334.91
334.932
334.923
334.932
334.912
334.938
334.93
334.943
334.917
334.945
334.941
334.957
334.92
334.953
334.955
334.975
334.932
334.967
334.977
334.936
334.976
334.996
337.727
335.232
335.345
334.884
334.917
334.913
334.881
334.916
334.91
334.892
334.922
334.91
334.816
334.905
334.927
334.912
334.848
334.933
334.939
334.917
334.876
334.956
334.947
334.92
334.935
334.994
334.969
334.932
334.961
335.015
334.975
334.936
335.447
335.092
335.416
337.727
)
;
    }
    procBoundary5to1
    {
        type            processor;
        value           nonuniform List<scalar> 
32
(
334.745
334.801
334.85
334.928
334.968
336.304
335.064
335.116
335.167
335.183
335.205
335.183
335.392
335.04
335.108
335.163
335.202
335.218
335.217
335.201
335.31
334.807
334.796
334.803
334.803
334.803
334.964
335.016
335.016
335.016
334.992
334.992
)
;
    }
    procBoundary5to4
    {
        type            processor;
        value           nonuniform List<scalar> 
12
(
334.891
334.975
334.972
334.964
334.921
334.968
334.963
334.952
334.919
334.925
334.922
334.922
)
;
    }
    procBoundary5to7
    {
        type            processor;
        value           nonuniform List<scalar> 
44
(
335.001
335.043
335.087
335.123
335.142
335.125
335.084
335.037
334.956
335.001
335.088
335.131
335.155
335.107
335.048
335.024
335.015
335.031
335.088
335.069
335.088
335.131
335.128
335.143
335.156
335.136
335.179
334.994
335.02
335.052
335.128
335.076
335.128
335.143
335.002
335.023
335.873
334.917
334.926
334.951
334.985
335.02
335.002
335.044
)
;
    }
}


// ************************************************************************* //
