/*--------------------------------*- C++ -*----------------------------------*\
| =========                 |                                                 |
| \\      /  F ield         | OpenFOAM: The Open Source CFD Toolbox           |
|  \\    /   O peration     | Version:  4.x                                   |
|   \\  /    A nd           | Web:      www.OpenFOAM.org                      |
|    \\/     M anipulation  |                                                 |
\*---------------------------------------------------------------------------*/
FoamFile
{
    version     2.0;
    format      ascii;
    class       volScalarField;
    location    "8";
    object      nu;
}
// * * * * * * * * * * * * * * * * * * * * * * * * * * * * * * * * * * * * * //

dimensions      [0 2 -1 0 0 0 0];

internalField   nonuniform List<scalar> 
114
(
1.00055e-06
1.00045e-06
1.00037e-06
1.0002e-06
1.00012e-06
9.98668e-07
9.9979e-07
9.99687e-07
9.99559e-07
9.99547e-07
9.99483e-07
9.99543e-07
9.99351e-07
9.9987e-07
9.99714e-07
9.99579e-07
9.99475e-07
9.9942e-07
9.9943e-07
9.99476e-07
9.99489e-07
1.00035e-06
1.00036e-06
1.00032e-06
1.00028e-06
1.0002e-06
1.00013e-06
1.00002e-06
9.99954e-07
9.99726e-07
9.9991e-07
9.99757e-07
9.99605e-07
9.99559e-07
9.9949e-07
9.99552e-07
9.99546e-07
9.9964e-07
9.99579e-07
9.99954e-07
9.99818e-07
9.99693e-07
9.99598e-07
9.99515e-07
9.99495e-07
9.99543e-07
9.99637e-07
9.99695e-07
9.99987e-07
9.99864e-07
1.00025e-06
1.00025e-06
1.00023e-06
1.00022e-06
1.00018e-06
1.00016e-06
1.00009e-06
1.00007e-06
9.9876e-07
9.99981e-07
9.99856e-07
9.99758e-07
9.99754e-07
9.99743e-07
9.9981e-07
9.99762e-07
9.9982e-07
9.9946e-07
1.00002e-06
9.99926e-07
9.99837e-07
9.99784e-07
9.99696e-07
9.99659e-07
9.99578e-07
9.99613e-07
9.99408e-07
1.00005e-06
9.99924e-07
9.99786e-07
9.99728e-07
1.00026e-06
1.00027e-06
1.00027e-06
1.00026e-06
1.00025e-06
1.00024e-06
1.0002e-06
1.00019e-06
9.91925e-07
1.00023e-06
1.00022e-06
1.0002e-06
1.00019e-06
1.00016e-06
1.00014e-06
1.0001e-06
1.00007e-06
9.99309e-07
1.00024e-06
1.00024e-06
1.00023e-06
1.00021e-06
1.00018e-06
1.00014e-06
1.00007e-06
1.00001e-06
9.98973e-07
1.00024e-06
1.00023e-06
1.0002e-06
1.00017e-06
1.00013e-06
1.00008e-06
)
;

boundaryField
{
    inlet
    {
        type            calculated;
        value           nonuniform 0();
    }
    outlet
    {
        type            calculated;
        value           uniform 1e-06;
    }
    wall
    {
        type            calculated;
        value           nonuniform List<scalar> 
66
(
1.00026e-06
1.00023e-06
1.00024e-06
1.00024e-06
1.00027e-06
1.00022e-06
1.00024e-06
1.00023e-06
1.00027e-06
1.0002e-06
1.00023e-06
1.0002e-06
1.00026e-06
1.00019e-06
1.00021e-06
1.00017e-06
1.00025e-06
1.00016e-06
1.00018e-06
1.00013e-06
1.00024e-06
1.00014e-06
1.00014e-06
1.00008e-06
1.0002e-06
1.0001e-06
1.00007e-06
1.00019e-06
1.00007e-06
1.00001e-06
9.91925e-07
9.99309e-07
9.98973e-07
1.00035e-06
1.00025e-06
1.00026e-06
1.00036e-06
1.00025e-06
1.00027e-06
1.00032e-06
1.00023e-06
1.00027e-06
1.00055e-06
1.00028e-06
1.00022e-06
1.00026e-06
1.00045e-06
1.0002e-06
1.00018e-06
1.00025e-06
1.00037e-06
1.00013e-06
1.00016e-06
1.00024e-06
1.0002e-06
1.00002e-06
1.00009e-06
1.0002e-06
1.00012e-06
9.99954e-07
1.00007e-06
1.00019e-06
9.98668e-07
9.99726e-07
9.9876e-07
9.91925e-07
)
;
    }
    procBoundary5to1
    {
        type            processor;
        value           nonuniform List<scalar> 
32
(
1.00076e-06
1.00059e-06
1.00045e-06
1.00022e-06
1.0001e-06
9.96121e-07
9.9981e-07
9.99654e-07
9.99503e-07
9.99455e-07
9.99387e-07
9.99453e-07
9.98832e-07
9.99882e-07
9.99678e-07
9.99514e-07
9.99399e-07
9.9935e-07
9.99353e-07
9.994e-07
9.99075e-07
1.00058e-06
1.00061e-06
1.00059e-06
1.00059e-06
1.00059e-06
1.00011e-06
9.99951e-07
9.99951e-07
9.99951e-07
1.00002e-06
1.00002e-06
)
;
    }
    procBoundary5to4
    {
        type            processor;
        value           nonuniform List<scalar> 
12
(
1.00033e-06
1.00007e-06
1.00008e-06
1.00011e-06
1.00023e-06
1.0001e-06
1.00011e-06
1.00014e-06
1.00024e-06
1.00022e-06
1.00023e-06
1.00023e-06
)
;
    }
    procBoundary5to7
    {
        type            processor;
        value           nonuniform List<scalar> 
44
(
9.99996e-07
9.9987e-07
9.99741e-07
9.99633e-07
9.99575e-07
9.99626e-07
9.99749e-07
9.9989e-07
1.00013e-06
9.99996e-07
9.99738e-07
9.99609e-07
9.99538e-07
9.9968e-07
9.99858e-07
9.9993e-07
9.99956e-07
9.99907e-07
9.99738e-07
9.99795e-07
9.99738e-07
9.99609e-07
9.99617e-07
9.99574e-07
9.99534e-07
9.99594e-07
9.99467e-07
1.00002e-06
9.99941e-07
9.99844e-07
9.99617e-07
9.99774e-07
9.99617e-07
9.99574e-07
9.99994e-07
9.99931e-07
9.97401e-07
1.00025e-06
1.00022e-06
1.00015e-06
1.00005e-06
9.9994e-07
9.99994e-07
9.99868e-07
)
;
    }
}


// ************************************************************************* //
