/*--------------------------------*- C++ -*----------------------------------*\
| =========                 |                                                 |
| \\      /  F ield         | OpenFOAM: The Open Source CFD Toolbox           |
|  \\    /   O peration     | Version:  4.x                                   |
|   \\  /    A nd           | Web:      www.OpenFOAM.org                      |
|    \\/     M anipulation  |                                                 |
\*---------------------------------------------------------------------------*/
FoamFile
{
    version     2.0;
    format      ascii;
    class       volScalarField;
    location    "8";
    object      QWallFluid;
}
// * * * * * * * * * * * * * * * * * * * * * * * * * * * * * * * * * * * * * //

dimensions      [1 -1 -3 0 0 0 0];

internalField   nonuniform List<scalar> 
114
(
1.03267e+09
6.55284e+08
1.12515e+09
5.93628e+08
1.3372e+09
7.68863e+08
0
0
0
0
0
0
0
0
0
0
0
0
0
0
0
5.15263e+08
8.85653e+08
5.27926e+08
9.21225e+08
4.9814e+08
9.28384e+08
3.97634e+08
8.54836e+08
2.73398e+08
0
0
0
0
0
0
0
0
0
0
0
0
0
0
0
0
0
0
0
0
5.75072e+08
9.20393e+08
6.06725e+08
9.87664e+08
6.14326e+08
1.08009e+09
5.7657e+08
1.24671e+09
6.38508e+08
0
0
0
0
0
0
0
0
0
0
0
0
0
0
0
0
0
0
0
0
0
0
1.27531e+09
1.9077e+09
1.36701e+09
2.05741e+09
1.41168e+09
2.32298e+09
1.38468e+09
2.97871e+09
1.52745e+09
5.79188e+08
8.91039e+08
5.90189e+08
9.18212e+08
5.71525e+08
9.40748e+08
5.53372e+08
9.48077e+08
8.06973e+08
5.68127e+08
8.87642e+08
5.70569e+08
9.01702e+08
5.29109e+08
8.91038e+08
4.32327e+08
8.37804e+08
3.18633e+08
5.37136e+08
8.42222e+08
5.26324e+08
8.22674e+08
4.51927e+08
7.72199e+08
)
;

boundaryField
{
    inlet
    {
        type            calculated;
        value           nonuniform 0();
    }
    outlet
    {
        type            calculated;
        value           uniform 0;
    }
    wall
    {
        type            calculated;
        value           uniform 0;
    }
    procBoundary5to1
    {
        type            processor;
        value           nonuniform List<scalar> 
32
(
1.00004e+09
6.1616e+08
1.06688e+09
5.53665e+08
1.29077e+09
7.09907e+08
0
0
0
0
0
0
0
0
0
0
0
0
0
0
0
6.19623e+08
9.71457e+08
6.62456e+08
6.62456e+08
6.62456e+08
0
0
0
0
0
0
)
;
    }
    procBoundary5to4
    {
        type            processor;
        value           nonuniform List<scalar> 
12
(
8.42319e+08
0
0
0
8.72328e+08
0
0
0
1.79037e+09
8.61532e+08
8.57653e+08
8.32342e+08
)
;
    }
    procBoundary5to7
    {
        type            processor;
        value           nonuniform List<scalar> 
44
(
0
0
0
0
0
0
0
0
0
0
0
0
0
0
0
0
0
0
0
0
0
0
0
0
0
0
0
0
0
0
0
0
0
0
3.80963e+08
7.05399e+08
3.81582e+08
3.70644e+08
7.85675e+08
2.69648e+08
7.53437e+08
1.35889e+08
3.80963e+08
7.06391e+08
)
;
    }
}


// ************************************************************************* //
