/*--------------------------------*- C++ -*----------------------------------*\
| =========                 |                                                 |
| \\      /  F ield         | OpenFOAM: The Open Source CFD Toolbox           |
|  \\    /   O peration     | Version:  4.x                                   |
|   \\  /    A nd           | Web:      www.OpenFOAM.org                      |
|    \\/     M anipulation  |                                                 |
\*---------------------------------------------------------------------------*/
FoamFile
{
    version     2.0;
    format      ascii;
    class       volScalarField;
    location    "0.5";
    object      KslNext;
}
// * * * * * * * * * * * * * * * * * * * * * * * * * * * * * * * * * * * * * //

dimensions      [1 -3 -1 0 0 0 0];

internalField   nonuniform List<scalar> 
87
(
27635.9
13351.5
17322.9
3914.1
3731.95
2928.72
10325.1
33580.7
27550.1
66717.5
45134
29227.4
32292.3
9566.18
10225.3
10864.4
24366.2
15937.6
54624
27619.9
24904.1
20622.8
11127.3
13184.6
9967.1
13619.2
6995.86
7358.11
5401.11
5731.53
4438.69
4240.34
3420.32
10104.4
14851.7
15926.2
44557.3
37839
17194.1
18933.2
8536.9
9107.62
10379.3
16332
11986.5
26729
25596.9
23086.3
21975.8
13955.3
23475.4
10666.2
15156.6
7457.58
7439.08
5530.76
5889.71
4676.06
4648.05
3826.09
11387.4
11964.1
7192.4
8304.03
6070.38
6615.39
5029.31
5334.79
4290.88
11163.4
14224.4
8166.9
9138
6170.52
6634.5
5129.37
5362
4246.67
11884.9
18915.7
9449.72
9109.72
5647.13
5282.38
4007.36
3803.56
3250.39
)
;

boundaryField
{
    inlet
    {
        type            zeroGradient;
    }
    outlet
    {
        type            zeroGradient;
    }
    wall
    {
        type            zeroGradient;
    }
    procBoundary6to0
    {
        type            processor;
        value           uniform 0;
    }
    procBoundary6to2
    {
        type            processor;
        value           uniform 0;
    }
    procBoundary6to4
    {
        type            processor;
        value           uniform 0;
    }
    procBoundary6to7
    {
        type            processor;
        value           uniform 0;
    }
}


// ************************************************************************* //
