/*--------------------------------*- C++ -*----------------------------------*\
| =========                 |                                                 |
| \\      /  F ield         | OpenFOAM: The Open Source CFD Toolbox           |
|  \\    /   O peration     | Version:  4.x                                   |
|   \\  /    A nd           | Web:      www.OpenFOAM.org                      |
|    \\/     M anipulation  |                                                 |
\*---------------------------------------------------------------------------*/
FoamFile
{
    version     2.0;
    format      ascii;
    class       volScalarField;
    location    "0.5";
    object      SPartFluid;
}
// * * * * * * * * * * * * * * * * * * * * * * * * * * * * * * * * * * * * * //

dimensions      [1 -3 -1 0 0 0 0];

internalField   nonuniform List<scalar> 
87
(
6.74106e-65
5.9408e-65
7.19509e-65
4.93069e-65
5.55722e-65
5.33348e-65
1.02907e-64
7.49346e-65
4.35412e-65
7.79762e-65
9.18819e-65
5.5377e-65
8.0154e-65
6.48848e-65
8.50814e-65
5.75109e-65
7.80234e-65
6.34243e-65
7.80312e-65
7.88937e-65
7.52767e-65
6.93043e-65
8.86882e-65
5.40475e-65
4.91331e-65
7.1192e-65
5.05574e-65
5.06025e-65
8.74773e-65
8.45334e-65
6.31336e-65
7.09565e-65
7.49069e-65
7.89616e-65
7.55487e-65
7.55392e-65
7.41143e-65
5.36313e-65
6.4526e-65
6.69914e-65
5.78674e-65
7.71937e-65
5.59406e-65
7.1784e-65
6.721e-65
6.95675e-65
6.05283e-65
5.52893e-65
7.54334e-65
5.93283e-65
8.41066e-65
5.13958e-65
6.65216e-65
5.51116e-65
7.50874e-65
7.21314e-65
5.91714e-65
6.46831e-65
6.24393e-65
5.63647e-65
4.67203e-65
5.1905e-65
5.8817e-65
6.80883e-65
6.43896e-65
6.37787e-65
8.54803e-65
8.79328e-65
3.7827e-65
5.97842e-65
5.42436e-65
6.7274e-65
5.59062e-65
8.51179e-65
5.61119e-65
6.69763e-65
4.54898e-65
6.56051e-65
4.37151e-65
6.19579e-65
6.05111e-65
6.36506e-65
4.91951e-65
8.15794e-65
4.77964e-65
5.09496e-65
5.5641e-65
)
;

boundaryField
{
    inlet
    {
        type            calculated;
        value           uniform 0;
    }
    outlet
    {
        type            calculated;
        value           nonuniform 0();
    }
    wall
    {
        type            calculated;
        value           uniform 0;
    }
    procBoundary6to0
    {
        type            processor;
        value           uniform 2.33669e-65;
    }
    procBoundary6to2
    {
        type            processor;
        value           nonuniform List<scalar> 
32
(
5.21695e-65
7.43528e-65
8.45829e-65
8.63781e-65
4.86812e-65
6.73204e-65
4.76237e-65
8.03835e-65
8.26924e-65
6.50628e-65
6.35402e-65
7.68696e-65
6.25601e-65
7.74262e-65
7.74262e-65
7.74262e-65
6.84285e-65
6.81751e-65
7.58013e-65
6.43429e-65
7.12985e-65
6.45583e-65
8.70841e-65
8.70841e-65
8.70841e-65
5.2254e-65
6.43942e-65
6.21204e-65
7.05964e-65
5.45284e-65
6.3059e-65
6.3059e-65
)
;
    }
    procBoundary6to4
    {
        type            processor;
        value           nonuniform List<scalar> 
27
(
4.29257e-65
5.65268e-65
7.48478e-65
5.121e-65
6.66651e-65
6.61034e-65
9.41797e-65
6.03026e-65
5.96339e-65
6.5893e-65
7.09901e-65
5.87477e-65
8.40482e-65
8.35056e-65
6.68546e-65
9.32543e-65
8.18101e-65
6.7916e-65
7.66023e-65
6.94521e-65
5.72669e-65
7.72963e-65
6.9781e-65
9.22345e-65
4.46844e-65
4.47505e-65
6.7171e-65
)
;
    }
    procBoundary6to7
    {
        type            processor;
        value           nonuniform List<scalar> 
12
(
7.62808e-65
5.50466e-65
5.10882e-65
3.87996e-65
7.97229e-65
5.56597e-65
7.96288e-65
7.10621e-65
5.40889e-65
6.87453e-65
7.72435e-65
6.57103e-65
)
;
    }
}


// ************************************************************************* //
