/*--------------------------------*- C++ -*----------------------------------*\
| =========                 |                                                 |
| \\      /  F ield         | OpenFOAM: The Open Source CFD Toolbox           |
|  \\    /   O peration     | Version:  4.x                                   |
|   \\  /    A nd           | Web:      www.OpenFOAM.org                      |
|    \\/     M anipulation  |                                                 |
\*---------------------------------------------------------------------------*/
FoamFile
{
    version     2.0;
    format      ascii;
    class       volScalarField;
    location    "0.5";
    object      T;
}
// * * * * * * * * * * * * * * * * * * * * * * * * * * * * * * * * * * * * * //

dimensions      [0 0 0 1 0 0 0];

internalField   nonuniform List<scalar> 
87
(
299.998
299.991
299.996
299.989
299.992
299.994
299.984
299.976
299.976
299.977
299.979
299.986
299.99
299.993
299.995
299.982
299.977
299.976
299.977
299.979
299.984
299.989
299.991
299.992
299.984
299.979
299.98
299.981
299.983
299.985
299.988
299.991
299.993
299.982
299.973
299.973
299.976
299.98
299.984
299.989
299.992
299.992
299.982
299.975
299.974
299.976
299.979
299.983
299.988
299.99
299.991
299.982
299.977
299.979
299.98
299.983
299.985
299.988
299.99
299.992
299.98
299.973
299.975
299.978
299.982
299.985
299.989
299.991
299.993
299.982
299.975
299.976
299.979
299.982
299.985
299.988
299.99
299.992
299.982
299.977
299.98
299.982
299.986
299.988
299.991
299.993
299.994
)
;

boundaryField
{
    inlet
    {
        type            fixedValue;
        value           uniform 300;
    }
    outlet
    {
        type            zeroGradient;
    }
    wall
    {
        type            zeroGradient;
    }
    procBoundary6to0
    {
        type            processor;
        value           uniform 300.007;
    }
    procBoundary6to2
    {
        type            processor;
        value           nonuniform List<scalar> 
32
(
300.005
299.997
300
299.991
299.993
299.995
299.985
299.979
299.979
299.978
299.979
299.986
299.994
299.997
299.997
299.997
299.986
299.979
299.979
299.979
299.981
299.985
299.989
299.989
299.989
299.986
299.981
299.982
299.983
299.985
299.987
299.987
)
;
    }
    procBoundary6to4
    {
        type            processor;
        value           nonuniform List<scalar> 
27
(
299.983
299.975
299.975
299.976
299.98
299.986
299.993
299.996
299.999
299.981
299.973
299.973
299.976
299.98
299.986
299.99
299.993
299.992
299.98
299.973
299.975
299.979
299.983
299.986
299.99
299.992
299.993
)
;
    }
    procBoundary6to7
    {
        type            processor;
        value           nonuniform List<scalar> 
12
(
300.005
299.997
299.995
300
299.995
299.993
299.994
299.992
299.993
299.993
299.993
299.995
)
;
    }
}


// ************************************************************************* //
