/*--------------------------------*- C++ -*----------------------------------*\
| =========                 |                                                 |
| \\      /  F ield         | OpenFOAM: The Open Source CFD Toolbox           |
|  \\    /   O peration     | Version:  4.x                                   |
|   \\  /    A nd           | Web:      www.OpenFOAM.org                      |
|    \\/     M anipulation  |                                                 |
\*---------------------------------------------------------------------------*/
FoamFile
{
    version     2.0;
    format      ascii;
    class       volVectorField;
    location    "0.5";
    object      Urel;
}
// * * * * * * * * * * * * * * * * * * * * * * * * * * * * * * * * * * * * * //

dimensions      [0 1 -1 0 0 0 0];

internalField   nonuniform List<vector> 
87
(
(-0.00908311 -0.00256257 0.00247508)
(-0.0165547 -0.00551542 0.00115802)
(-0.0181041 -0.00469249 0.00158008)
(-0.0289445 -0.0067557 -0.000320611)
(-0.0321035 -0.00636118 -0.00023509)
(-0.0362664 -0.0055291 4.30377e-05)
(-0.0160904 -0.00109535 0.000743536)
(-0.0153894 -0.00143945 0.00064432)
(-0.0151462 -0.00197547 0.000498796)
(-0.0145068 -0.0024473 0.000275985)
(-0.0143388 -0.00274186 0.000171505)
(-0.013572 -0.00290341 0.000183286)
(-0.0133868 -0.00291548 0.000353238)
(-0.0126508 -0.00256323 0.000860896)
(-0.0133111 -0.00202924 0.00173091)
(-0.016449 -0.00207941 0.000702663)
(-0.0162143 -0.00277551 0.000468021)
(-0.0167669 -0.00351303 0.000149567)
(-0.0170516 -0.00412602 -0.000120505)
(-0.0179446 -0.00458555 -0.000244161)
(-0.0185207 -0.00498656 -0.000284073)
(-0.0197169 -0.00518681 -0.000245679)
(-0.0202809 -0.00465351 0.000141179)
(-0.0219562 -0.00385741 0.000899637)
(-0.0171352 -0.00267116 0.00071788)
(-0.0179686 -0.00336904 0.000196706)
(-0.0201397 -0.00429692 -0.00031571)
(-0.0225019 -0.00499188 -0.000873316)
(-0.02564 -0.00547646 -0.00105159)
(-0.0286455 -0.00587333 -0.00110706)
(-0.0325638 -0.00609186 -0.00115509)
(-0.0362312 -0.00554359 -0.000894915)
(-0.0400996 -0.00453241 -0.000180283)
(-0.017186 -0.000945353 -0.000270905)
(-0.017116 -0.00127913 -0.000838614)
(-0.0176215 -0.00178964 -0.00117234)
(-0.017868 -0.00221621 -0.00149788)
(-0.0187439 -0.00245719 -0.00163557)
(-0.0190155 -0.00255528 -0.00170459)
(-0.0198887 -0.00251138 -0.00142693)
(-0.0200997 -0.00217534 -0.000641353)
(-0.0213003 -0.00164206 0.000499894)
(-0.0174149 -0.00183838 -0.000256699)
(-0.0176535 -0.0024996 -0.000853114)
(-0.0189477 -0.00323576 -0.0013143)
(-0.0200078 -0.00376114 -0.00174349)
(-0.0219118 -0.00414222 -0.00185367)
(-0.0233592 -0.00449505 -0.00189398)
(-0.0255362 -0.0045295 -0.00182045)
(-0.0269642 -0.00405521 -0.00110465)
(-0.0294272 -0.00328391 0.000139233)
(-0.0178141 -0.00228406 -9.11752e-06)
(-0.0189226 -0.00297523 -0.000638075)
(-0.0216547 -0.0038862 -0.00134054)
(-0.0247745 -0.00443087 -0.00194857)
(-0.0286341 -0.00481078 -0.00209287)
(-0.0325084 -0.00516508 -0.00219203)
(-0.0372131 -0.00519086 -0.00218594)
(-0.0412649 -0.00457338 -0.00173669)
(-0.0458243 -0.00357097 -0.000730162)
(-0.0179352 -0.000810203 -0.000772706)
(-0.0191382 -0.000995537 -0.00146526)
(-0.0213708 -0.00144818 -0.00216131)
(-0.0236119 -0.00187387 -0.00260339)
(-0.0267527 -0.00211206 -0.00287858)
(-0.0294508 -0.00202261 -0.00293135)
(-0.0325394 -0.00202593 -0.00265279)
(-0.0348259 -0.00167785 -0.00176668)
(-0.0370453 -0.000844992 -0.000246008)
(-0.0180641 -0.00150964 -0.000699488)
(-0.0193397 -0.00195702 -0.00134796)
(-0.0219685 -0.00261446 -0.00200262)
(-0.0248166 -0.00319317 -0.00263553)
(-0.0288763 -0.00350894 -0.00277306)
(-0.032379 -0.0037467 -0.00280142)
(-0.0365337 -0.0038911 -0.00271179)
(-0.0400752 -0.00361488 -0.0018844)
(-0.0438419 -0.00303244 -0.000457925)
(-0.0181865 -0.00194321 -0.00033044)
(-0.0196957 -0.00247333 -0.000988102)
(-0.0229063 -0.00323251 -0.00173194)
(-0.0269788 -0.00382045 -0.00248399)
(-0.0321923 -0.00418763 -0.00265281)
(-0.0372954 -0.00440614 -0.00270615)
(-0.043252 -0.00437261 -0.00267319)
(-0.0486479 -0.00381342 -0.00195243)
(-0.054332 -0.0028841 -0.000693555)
)
;

boundaryField
{
    inlet
    {
        type            calculated;
        value           nonuniform List<vector> 9((-0.00997029 0.000181837 0.00408155) (-0.00950222 0.000147 0.00228754) (-0.0099504 7.81511e-05 0.0031162) (-0.0100994 0.000246881 0.00298853) (-0.0100263 0.000389056 0.00189859) (-0.00993373 0.000335111 0.00199728) (-0.0102185 -0.000414807 0.00161936) (-0.0100729 6.6e-05 0.00130482) (-0.00993619 -0.000114161 0.00248964));
    }
    outlet
    {
        type            calculated;
        value           nonuniform 0();
    }
    wall
    {
        type            calculated;
        value           nonuniform List<vector> 
57
(
(-0.000218541 -0.000414807 0.00161936)
(-7.29084e-05 6.6e-05 0.00130482)
(6.38107e-05 -0.000114161 0.00248964)
(-0.000248844 0.000689021 0.00243235)
(8.27284e-06 0.000228608 0.00159716)
(0.000261944 0.000113528 0.00176891)
(0.000557462 0.000593679 0.00195633)
(0.000302834 0.000162343 0.0024097)
(0.000174999 0.000262309 0.00176308)
(0.00122562 0.000195546 0.00372558)
(0.00149624 0.000428722 0.00260583)
(0.0013052 0.000175905 0.00143104)
(0.00088476 -0.00013151 0.00236986)
(0.00163694 0.000180985 0.00430789)
(0.00209168 2.69358e-05 0.00344412)
(0.00154246 -0.000298293 0.00225896)
(0.00155338 7.23626e-05 0.00341671)
(0.00171242 -0.000112941 0.00264451)
(0.00207992 0.00017896 0.0026649)
(0.00190883 -0.000283544 0.00296867)
(0.000885161 7.61032e-05 0.00199944)
(0.00197475 -0.000115859 0.00140509)
(0.00318196 0.000362436 0.00353401)
(0.00176058 1.40192e-05 0.00317706)
(0.00350829 3.31808e-05 0.00324788)
(0.00294604 0.000681976 0.00290891)
(0.00303744 0.000409266 0.00200757)
(4.95953e-05 7.81511e-05 0.0031162)
(6.62718e-05 0.000335111 0.00199728)
(6.38107e-05 -0.000114161 0.00248964)
(0.000343915 5.34612e-05 0.00249212)
(0.000668156 0.000365757 0.00174951)
(0.000261944 0.000113528 0.00176891)
(0.00131235 -0.000293835 0.00486847)
(0.00135214 1.45753e-05 0.0028367)
(0.000174999 0.000262309 0.00176308)
(0.00230444 -0.000164128 0.00331295)
(0.00208469 8.32068e-05 0.00240277)
(0.0013052 0.000175905 0.00143104)
(0.00277811 0.000164934 0.0038007)
(0.00270419 0.000871458 0.00362551)
(0.00209168 2.69358e-05 0.00344412)
(0.00309552 0.000112081 0.00393396)
(0.00306953 4.0645e-05 0.00356838)
(0.00171242 -0.000112941 0.00264451)
(0.00321252 0.000152227 0.00432466)
(0.00265958 3.5593e-05 0.00362542)
(0.00204725 -8.29554e-05 0.00344094)
(0.000885161 7.61032e-05 0.00199944)
(0.00335217 0.000811892 0.00441843)
(0.00318242 0.000215821 0.00338865)
(0.00234189 0.000120207 0.00320888)
(0.00176058 1.40192e-05 0.00317706)
(0.00333269 0.00106239 0.00493794)
(0.003373 0.000397708 0.00337594)
(0.00260814 0.000345067 0.00410873)
(0.00303744 0.000409266 0.00200757)
)
;
    }
    procBoundary6to0
    {
        type            processor;
        value           uniform (-0.0067749 -0.00106881 0.00256572);
    }
    procBoundary6to2
    {
        type            processor;
        value           nonuniform List<vector> 
32
(
(-0.00461735 -0.002773 0.00262637)
(-0.0120499 -0.00576364 0.00191032)
(-0.0130106 -0.00499665 0.00198346)
(-0.0244475 -0.00710509 0.000951552)
(-0.0261304 -0.00678044 0.000785332)
(-0.0297121 -0.00583537 0.000616058)
(-0.01483 -0.00122313 0.00203153)
(-0.0139962 -0.00160667 0.00199388)
(-0.0134878 -0.00215524 0.0018209)
(-0.0122543 -0.00265576 0.00172699)
(-0.0115306 -0.00300613 0.00168952)
(-0.0101667 -0.00331533 0.00169724)
(-0.00957043 -0.00336814 0.00179606)
(-0.00856624 -0.00308931 0.00204807)
(-0.00856624 -0.00308931 0.00204807)
(-0.00856624 -0.00308931 0.00204807)
(-0.015374 -0.00231394 0.00193148)
(-0.0149917 -0.00311454 0.00167571)
(-0.0151149 -0.00396291 0.0013474)
(-0.0149354 -0.00453374 0.00117054)
(-0.0153507 -0.00509757 0.00106179)
(-0.0153553 -0.00568019 0.000982374)
(-0.0162784 -0.00581835 0.000949931)
(-0.0162784 -0.00581835 0.000949931)
(-0.0162784 -0.00581835 0.000949931)
(-0.0162598 -0.00291961 0.00165144)
(-0.0167507 -0.00376439 0.00121858)
(-0.0186956 -0.00479417 0.000669512)
(-0.0204532 -0.00547732 0.000306027)
(-0.0229091 -0.00606887 0.000142965)
(-0.0253116 -0.00658829 1.09715e-06)
(-0.0253116 -0.00658829 1.09715e-06)
)
;
    }
    procBoundary6to4
    {
        type            processor;
        value           nonuniform List<vector> 
27
(
(-0.0159835 -8.50849e-05 0.000788901)
(-0.0153437 -0.000184742 0.000636176)
(-0.0152881 -0.000430549 0.000337853)
(-0.014199 -0.000698506 0.000177208)
(-0.0138437 -0.00077362 9.91523e-05)
(-0.0124626 -0.000794677 7.90313e-05)
(-0.0118843 -0.000909369 0.000228282)
(-0.010744 -0.000782349 0.000645823)
(-0.0111894 -0.000678767 0.00146655)
(-0.0171155 -4.42095e-05 -0.000171007)
(-0.0170349 -0.000144423 -0.000753776)
(-0.0176509 -0.000413146 -0.00133926)
(-0.0176905 -0.000646838 -0.00165606)
(-0.0184127 -0.000763364 -0.00188408)
(-0.0183603 -0.000754732 -0.00219131)
(-0.0192035 -0.00079598 -0.00187481)
(-0.0193199 -0.000666062 -0.00123551)
(-0.0208732 -0.000505864 -0.000294189)
(-0.0179233 -3.73757e-05 -0.000627907)
(-0.018905 -4.74917e-05 -0.00141292)
(-0.0213109 -0.000149686 -0.00222881)
(-0.0234843 -0.000399264 -0.00281081)
(-0.0264465 -0.000627301 -0.00304113)
(-0.0289531 -0.000479261 -0.00328495)
(-0.0326221 -0.000483422 -0.00307451)
(-0.0349519 -0.000235313 -0.00237604)
(-0.0389753 3.20737e-05 -0.00130541)
)
;
    }
    procBoundary6to7
    {
        type            processor;
        value           nonuniform List<vector> 
12
(
(-0.00924604 -0.00174921 0.00288746)
(-0.0188172 -0.00312134 0.00210668)
(-0.0396445 -0.00395398 0.000500679)
(-0.0133596 -0.00137427 0.00263323)
(-0.0230564 -0.00264739 0.00180032)
(-0.0435624 -0.00306796 0.000521643)
(-0.0218294 -0.00096811 0.00156619)
(-0.0309399 -0.00206168 0.00146621)
(-0.0493051 -0.0020707 0.000561575)
(-0.0383068 -0.000159342 0.00108338)
(-0.0459817 -0.00183932 0.00119814)
(-0.0587149 -0.00147365 0.000988313)
)
;
    }
}


// ************************************************************************* //
