/*--------------------------------*- C++ -*----------------------------------*\
| =========                 |                                                 |
| \\      /  F ield         | OpenFOAM: The Open Source CFD Toolbox           |
|  \\    /   O peration     | Version:  4.x                                   |
|   \\  /    A nd           | Web:      www.OpenFOAM.org                      |
|    \\/     M anipulation  |                                                 |
\*---------------------------------------------------------------------------*/
FoamFile
{
    version     2.0;
    format      ascii;
    class       volVectorField;
    location    "28";
    object      DDtUrel;
}
// * * * * * * * * * * * * * * * * * * * * * * * * * * * * * * * * * * * * * //

dimensions      [0 1 -2 0 0 0 0];

internalField   nonuniform List<vector> 
114
(
(0.000531839 3.55159e-06 2.88731e-06)
(0.000392758 3.14519e-06 2.27664e-05)
(0.000322589 4.37947e-06 3.55816e-05)
(0.000260931 8.31973e-06 3.7513e-05)
(0.000253393 1.26194e-05 3.42755e-05)
(0.000224353 8.58284e-06 2.60715e-05)
(0.0017707 2.38687e-05 -0.000163136)
(0.00113041 1.51876e-05 -8.8539e-05)
(0.00074567 8.29973e-06 -3.0233e-05)
(0.000529771 2.01309e-07 4.46826e-06)
(0.00039064 -5.25466e-06 2.15482e-05)
(0.000320879 -8.2898e-06 3.21164e-05)
(0.000260032 -5.16154e-06 3.54207e-05)
(0.000245396 -6.14928e-07 3.44585e-05)
(0.000212102 1.96634e-06 2.76151e-05)
(0.00180475 6.15516e-05 -0.000159752)
(0.00117145 2.97227e-05 -8.59727e-05)
(0.000788574 1.24235e-05 -2.83359e-05)
(0.000574321 -5.67167e-07 6.09011e-06)
(0.000433934 -9.90902e-06 2.32886e-05)
(0.000362844 -1.59622e-05 3.2724e-05)
(0.000298513 -1.6686e-05 3.54715e-05)
(0.000279214 -1.38464e-05 3.2886e-05)
(0.000241429 -5.6657e-06 2.82948e-05)
(0.00184806 6.80242e-05 -0.000153658)
(0.0012254 3.58848e-05 -8.38351e-05)
(0.000846087 1.38386e-05 -2.90991e-05)
(0.000637706 -2.95397e-07 4.999e-06)
(0.000497374 -1.19697e-05 2.27212e-05)
(0.000429392 -1.85474e-05 3.31264e-05)
(0.000360448 -2.32778e-05 3.63852e-05)
(0.000333057 -2.30576e-05 3.32914e-05)
(0.000290158 -2.13263e-05 2.79228e-05)
(0.000235394 4.68782e-06 3.50755e-05)
(0.000187246 7.06072e-06 2.8361e-05)
(0.000180087 1.40295e-05 2.94385e-05)
(0.000162086 9.3886e-06 1.96025e-05)
(0.00170957 2.86043e-05 -0.000195328)
(0.00104698 1.48738e-05 -9.47055e-05)
(0.000656341 7.98443e-06 -3.16437e-05)
(0.00043902 1.14147e-06 7.46155e-06)
(0.000306552 -4.75534e-06 1.981e-05)
(0.000241083 -9.23744e-06 3.29614e-05)
(0.000189925 -4.86872e-06 2.99536e-05)
(0.000179111 -3.877e-07 3.18367e-05)
(0.000155796 3.25309e-06 2.24897e-05)
(0.00174524 6.82236e-05 -0.000192497)
(0.00108749 3.24185e-05 -9.45002e-05)
(0.000696991 1.18939e-05 -3.17854e-05)
(0.000481992 -1.1659e-06 6.02651e-06)
(0.000345396 -9.16218e-06 1.95215e-05)
(0.000278917 -1.47055e-05 3.08413e-05)
(0.000219943 -1.4436e-05 3.01084e-05)
(0.000206151 -1.33062e-05 3.27506e-05)
(0.000173792 -6.21659e-06 2.32617e-05)
(0.00179409 7.58045e-05 -0.00018618)
(0.00114792 3.88483e-05 -9.28148e-05)
(0.000759173 1.31731e-05 -3.34006e-05)
(0.000546494 -1.60637e-06 3.7846e-06)
(0.000406097 -1.21981e-05 1.78605e-05)
(0.000337964 -1.75756e-05 3.08845e-05)
(0.000273478 -2.06724e-05 3.17619e-05)
(0.000255206 -2.06053e-05 3.12212e-05)
(0.000216528 -1.82134e-05 2.27816e-05)
(0.00010571 1.06715e-05 2.3984e-05)
(0.000118658 1.07654e-05 1.96591e-05)
(0.00165265 3.88007e-05 -0.000176284)
(0.000969695 1.66158e-05 -8.21428e-05)
(0.00057928 6.55684e-06 -2.94958e-05)
(0.000362326 -2.05673e-06 4.85617e-06)
(0.000237382 -5.0446e-06 1.34071e-05)
(0.000172502 -1.08115e-05 2.24902e-05)
(0.000131644 -3.09259e-06 2.07492e-05)
(0.000116106 2.94319e-06 2.49784e-05)
(0.000104859 6.59794e-06 1.82713e-05)
(0.00168998 7.57265e-05 -0.000172419)
(0.00101117 3.47009e-05 -8.25995e-05)
(0.000617113 1.19146e-05 -3.18196e-05)
(0.000398217 -3.29333e-06 2.53798e-06)
(0.000267327 -9.11455e-06 1.30252e-05)
(0.000200596 -1.53969e-05 2.36642e-05)
(0.00015188 -1.17708e-05 2.09741e-05)
(0.000136462 -1.17841e-05 2.30836e-05)
(0.000115446 -4.22903e-06 1.61259e-05)
(0.00174147 8.44978e-05 -0.000169627)
(0.00107237 4.3701e-05 -8.4314e-05)
(0.00067633 1.48707e-05 -3.47359e-05)
(0.000457243 -1.89144e-06 -1.6418e-08)
(0.000319097 -1.13248e-05 1.27818e-05)
(0.000247724 -1.60157e-05 2.40305e-05)
(0.00018894 -1.60264e-05 1.96365e-05)
(0.00017345 -1.99134e-05 2.05812e-05)
(0.00014017 -1.18444e-05 1.22292e-05)
(0.00162313 4.15616e-05 -0.000132765)
(0.000930383 1.96785e-05 -6.09559e-05)
(0.000538966 6.17415e-06 -2.48038e-05)
(0.000322579 -3.07127e-06 7.1602e-07)
(0.000199438 -4.15433e-06 7.34625e-06)
(0.000134749 -8.37292e-06 9.76049e-06)
(9.54822e-05 -3.69116e-06 1.29118e-05)
(7.76601e-05 -2.83566e-08 2.09084e-05)
(0.00166516 8.2056e-05 -0.000129514)
(0.000975791 3.52054e-05 -6.28532e-05)
(0.000577872 1.03271e-05 -2.78065e-05)
(0.000357876 -4.15576e-06 -2.83194e-06)
(0.000227046 -7.44735e-06 6.81307e-06)
(0.000162105 -1.14923e-05 1.38791e-05)
(0.000114007 -1.03628e-05 1.14626e-05)
(0.00171868 8.81154e-05 -0.000129906)
(0.00103595 4.24391e-05 -6.71379e-05)
(0.000632564 1.33191e-05 -3.26655e-05)
(0.000408579 -3.32093e-06 -6.84651e-06)
(0.000269736 -9.53853e-06 6.9421e-06)
(0.000201131 -1.47558e-05 1.51278e-05)
)
;

boundaryField
{
    inlet
    {
        type            calculated;
        value           nonuniform List<vector> 
12
(
(0.00393619 5.3505e-05 -0.000302723)
(0.0040102 0.000239821 -0.000306841)
(0.00416371 0.000168154 -0.000261633)
(0.00376124 7.55011e-05 -0.00065446)
(0.0038232 0.000279753 -0.000682479)
(0.00403339 0.000215953 -0.00061969)
(0.00372643 0.000178676 -0.000552421)
(0.0037526 0.000298446 -0.000530006)
(0.00397583 0.000259037 -0.000508485)
(0.00370991 0.000168828 -0.000452736)
(0.00380521 0.000349304 -0.000394626)
(0.00403768 0.000259552 -0.000393366)
)
;
    }
    outlet
    {
        type            calculated;
        value           nonuniform 0();
    }
    wall
    {
        type            calculated;
        value           nonuniform List<vector> 
66
(
(0.00393619 5.3505e-05 -0.000302723)
(0.0040102 0.000239821 -0.000306841)
(0.00416371 0.000168154 -0.000261633)
(0.000430392 2.78157e-05 -2.8982e-05)
(0.000577615 5.28122e-08 -6.2464e-06)
(0.000839643 1.2948e-05 -8.93666e-07)
(0.000331341 2.69585e-05 4.55777e-05)
(0.000478641 8.33652e-06 6.54355e-05)
(0.000734717 -5.42168e-06 4.85719e-05)
(0.000519613 2.04397e-05 2.78668e-05)
(0.000416316 -1.91789e-05 5.22661e-05)
(0.000560073 -1.3747e-05 7.04345e-05)
(0.000890664 -3.41033e-06 5.84112e-05)
(0.000391697 1.45252e-06 6.22596e-05)
(0.000284276 -2.61164e-05 3.88722e-05)
(0.000418907 -3.08113e-05 6.70198e-05)
(0.000736936 -3.40805e-05 5.95541e-05)
(0.00051333 1.19426e-05 0.000101955)
(0.000402978 -4.07048e-05 4.05633e-05)
(0.000522962 -5.27279e-05 6.07531e-05)
(0.000916343 -3.54536e-05 6.43355e-05)
(0.000266631 4.29725e-05 0.000104327)
(0.000204586 -1.66551e-05 5.93381e-05)
(0.00032151 -5.02691e-05 6.66162e-05)
(0.000681758 -6.75395e-05 7.38865e-05)
(0.000555847 6.84327e-05 9.63092e-05)
(0.00038047 4.86363e-06 6.70859e-05)
(0.000501368 -4.51685e-05 3.37952e-05)
(0.000786447 -6.37494e-05 4.82316e-05)
(0.000274536 -3.03276e-05 5.81618e-05)
(0.000143819 1.02077e-05 2.85854e-05)
(0.000260493 4.8051e-05 3.29725e-05)
(0.000534359 -6.62918e-05 1.81639e-05)
(0.00416371 0.000168154 -0.000261633)
(0.00403339 0.000215953 -0.00061969)
(0.00397583 0.000259037 -0.000508485)
(0.00403768 0.000259552 -0.000393366)
(0.000839643 1.2948e-05 -8.93666e-07)
(0.000492891 1.61743e-05 -3.11682e-05)
(0.000255538 5.11972e-05 -3.8779e-07)
(0.00024981 8.06928e-06 -1.39917e-05)
(0.000734717 -5.42168e-06 4.85719e-05)
(0.000366549 -2.54174e-05 2.45765e-05)
(0.000164551 -5.2268e-06 -5.95872e-06)
(0.000144791 -1.75478e-05 -3.65764e-05)
(0.000890664 -3.41033e-06 5.84112e-05)
(0.000503847 -1.96856e-05 7.96791e-05)
(0.000251624 -1.78622e-05 7.24255e-05)
(0.00022399 -3.05485e-05 9.73521e-06)
(0.000736936 -3.40805e-05 5.95541e-05)
(0.000344801 -4.18057e-05 1.67842e-05)
(0.00014613 -3.63164e-05 1.93337e-05)
(0.00012258 -1.31852e-05 3.64044e-05)
(0.000916343 -3.54536e-05 6.43355e-05)
(0.000503293 -3.56298e-05 8.44115e-05)
(0.000217611 -3.22024e-05 8.20611e-05)
(0.000254646 -4.07889e-05 8.00526e-05)
(0.000681758 -6.75395e-05 7.38865e-05)
(0.000280148 -5.6352e-05 6.44362e-05)
(3.44605e-05 -2.06383e-06 -5.66601e-06)
(0.000786447 -6.37494e-05 4.82316e-05)
(0.000483514 -4.50804e-05 7.83625e-05)
(0.000231406 -8.54495e-05 4.55476e-05)
(0.000534359 -6.62918e-05 1.81639e-05)
(0.000218913 -6.00075e-05 6.96919e-06)
(-1.26535e-05 -5.82901e-06 -2.11513e-05)
)
;
    }
    procBoundary2to0
    {
        type            processor;
        value           nonuniform List<vector> 
44
(
(0.00055279 5.3849e-06 2.22903e-06)
(0.000412476 1.06027e-05 2.09562e-05)
(0.000340234 1.13847e-05 2.93687e-05)
(0.000276489 1.14361e-05 3.23786e-05)
(0.000258698 1.49323e-05 2.38536e-05)
(0.00023596 2.00108e-05 2.564e-05)
(0.0017681 -1.90315e-05 -0.000167662)
(0.00113092 -5.06628e-06 -8.71537e-05)
(0.000748616 -3.18497e-07 -3.05325e-05)
(0.000748616 -3.18497e-07 -3.05325e-05)
(0.000434732 4.05089e-06 8.05914e-06)
(0.000302574 2.87447e-06 2.04323e-05)
(0.000248829 1.35526e-05 3.39035e-05)
(0.000196981 1.25182e-05 2.88888e-05)
(0.000185412 1.43594e-05 2.73618e-05)
(0.000173133 1.74568e-05 3.22222e-05)
(0.00170088 -1.72776e-05 -0.000205963)
(0.00104108 -6.41025e-06 -9.61336e-05)
(0.000652705 -4.00163e-07 -3.1607e-05)
(0.000434732 4.05089e-06 8.05914e-06)
(0.000302574 2.87447e-06 2.04323e-05)
(0.000302574 2.87447e-06 2.04323e-05)
(0.000157946 2.20511e-06 2.3962e-05)
(0.000127133 5.77193e-06 2.1769e-05)
(0.000124049 1.40169e-05 2.54921e-05)
(0.000159582 1.73372e-05 2.53349e-05)
(0.00163358 -1.29058e-05 -0.000181422)
(0.000950608 -5.22081e-06 -8.50923e-05)
(0.000565677 -1.18855e-06 -2.90719e-05)
(0.000345601 1.84792e-06 7.12011e-06)
(0.000229767 1.72623e-06 1.41775e-05)
(0.000157946 2.20511e-06 2.3962e-05)
(0.000127133 5.77193e-06 2.1769e-05)
(0.000127133 5.77193e-06 2.1769e-05)
(6.86489e-05 1.01605e-05 1.7668e-05)
(6.24042e-05 7.73876e-06 1.70211e-05)
(0.00160766 -1.49202e-05 -0.000129661)
(0.000914131 -3.82899e-06 -6.21242e-05)
(0.000524749 -3.90462e-07 -2.33679e-05)
(0.000308868 1.95173e-06 1.53764e-06)
(0.000190455 1.5975e-06 8.16443e-06)
(0.000125372 1.13746e-06 1.30476e-05)
(8.93128e-05 4.45449e-06 1.44899e-05)
(6.86489e-05 1.01605e-05 1.7668e-05)
)
;
    }
    procBoundary2to3
    {
        type            processor;
        value           nonuniform List<vector> 
12
(
(0.00023938 1.13459e-05 1.29751e-05)
(0.000213912 1.75175e-06 2.61113e-05)
(0.000243431 -5.99939e-06 2.80152e-05)
(0.000287532 -2.34973e-05 3.00376e-05)
(0.00017153 4.5121e-06 2.20131e-05)
(0.000160113 9.12964e-06 1.98968e-05)
(0.000179056 -3.83384e-06 2.1449e-05)
(0.000220069 -1.73734e-05 2.38528e-05)
(0.000112797 9.81631e-06 2.35019e-05)
(0.000100387 9.02865e-06 1.86381e-05)
(0.000118862 3.15348e-06 1.45441e-05)
(0.000147288 -6.64252e-06 1.05821e-05)
)
;
    }
    procBoundary2to6
    {
        type            processor;
        value           nonuniform List<vector> 
32
(
(6.07868e-05 3.74038e-06 1.29653e-05)
(9.80349e-05 -1.32004e-05 1.24423e-05)
(7.40355e-05 -4.49944e-06 7.83655e-06)
(0.000145972 -1.61513e-05 8.77605e-06)
(0.000128554 -1.86772e-05 9.12775e-06)
(9.55079e-05 -1.21196e-05 1.61112e-06)
(0.00161846 4.19104e-05 -6.71011e-05)
(0.00091557 1.85451e-05 -3.56794e-05)
(0.000524383 4.54026e-06 -1.83306e-05)
(0.000306381 -4.98934e-06 -5.23426e-06)
(0.000183993 -5.53386e-06 6.37109e-07)
(0.000115557 -9.0409e-06 3.75468e-06)
(8.2343e-05 -5.54493e-06 4.52551e-06)
(6.07868e-05 3.74038e-06 1.29653e-05)
(9.80349e-05 -1.32004e-05 1.24423e-05)
(5.06247e-05 -2.60031e-06 3.2331e-06)
(0.00165947 8.5091e-05 -6.69845e-05)
(0.000961189 3.37194e-05 -3.8102e-05)
(0.000561432 9.01491e-06 -2.09898e-05)
(0.00033739 -8.16547e-06 -7.76103e-06)
(0.000205053 -8.24588e-06 -7.45146e-07)
(0.000133931 -8.76427e-06 2.3592e-06)
(9.80349e-05 -1.32004e-05 1.24423e-05)
(0.000145972 -1.61513e-05 8.77605e-06)
(8.94382e-05 -1.14419e-05 2.84594e-06)
(0.00171465 9.01304e-05 -7.09825e-05)
(0.00102083 4.21382e-05 -4.17029e-05)
(0.000613241 1.16339e-05 -2.50667e-05)
(0.000380993 -6.06203e-06 -1.04016e-05)
(0.000236862 -9.72432e-06 -2.47263e-06)
(0.000145972 -1.61513e-05 8.77605e-06)
(0.000161689 -1.23776e-05 1.64034e-06)
)
;
    }
}


// ************************************************************************* //
