/*--------------------------------*- C++ -*----------------------------------*\
| =========                 |                                                 |
| \\      /  F ield         | OpenFOAM: The Open Source CFD Toolbox           |
|  \\    /   O peration     | Version:  4.x                                   |
|   \\  /    A nd           | Web:      www.OpenFOAM.org                      |
|    \\/     M anipulation  |                                                 |
\*---------------------------------------------------------------------------*/
FoamFile
{
    version     2.0;
    format      ascii;
    class       volScalarField;
    location    "28";
    object      QPartFluid;
}
// * * * * * * * * * * * * * * * * * * * * * * * * * * * * * * * * * * * * * //

dimensions      [1 -1 -3 0 0 0 0];

internalField   nonuniform List<scalar> 
114
(
7.13744e+09
5.59247e+09
3.06493e+09
5.97921e+09
3.64633e+09
4.61173e+09
5.8148e+09
6.93845e+09
6.1369e+09
4.39301e+09
7.35652e+09
5.02144e+09
7.03552e+09
6.78319e+09
4.50446e+09
3.87979e+09
6.16661e+09
5.09627e+09
5.39167e+09
5.8151e+09
5.24824e+09
6.80727e+09
5.40688e+09
6.52447e+09
3.98603e+09
4.00666e+09
5.16133e+09
4.54612e+09
3.95853e+09
4.10181e+09
3.05939e+09
5.34381e+09
3.98306e+09
9.84231e+09
1.22491e+10
6.62111e+09
1.12158e+10
4.73076e+09
7.94922e+09
9.60222e+09
9.21432e+09
8.91189e+09
7.08284e+09
1.1228e+10
8.83667e+09
6.46571e+09
5.86082e+09
1.00161e+10
1.06675e+10
9.1941e+09
9.43302e+09
8.87333e+09
9.18638e+09
8.8986e+09
7.72049e+09
5.06375e+09
5.38382e+09
8.35805e+09
6.02897e+09
7.60007e+09
6.53512e+09
6.71848e+09
7.10095e+09
4.82528e+09
7.7373e+09
9.15814e+09
6.86015e+09
5.7457e+09
6.75071e+09
6.892e+09
6.77257e+09
7.7733e+09
9.85907e+09
7.31626e+09
5.77614e+09
4.99329e+09
6.94999e+09
9.09653e+09
1.04703e+10
9.19366e+09
6.99493e+09
9.49354e+09
8.48345e+09
1.02525e+10
5.01001e+09
7.60258e+09
6.98473e+09
7.49403e+09
4.78158e+09
6.83703e+09
9.70354e+09
5.36035e+09
7.74214e+09
4.89467e+09
9.50077e+09
1.03096e+10
7.20495e+09
8.25102e+09
6.32154e+09
7.5929e+09
7.67568e+09
5.87104e+09
7.90546e+09
1.05171e+10
6.60163e+09
9.10877e+09
7.65523e+09
1.02938e+10
4.25694e+09
6.30411e+09
7.506e+09
7.24272e+09
6.7421e+09
6.47978e+09
)
;

boundaryField
{
    inlet
    {
        type            calculated;
        value           uniform 0;
    }
    outlet
    {
        type            calculated;
        value           nonuniform 0();
    }
    wall
    {
        type            calculated;
        value           uniform 0;
    }
    procBoundary2to0
    {
        type            processor;
        value           nonuniform List<scalar> 
44
(
5.07136e+09
5.57538e+09
4.90261e+09
3.99813e+09
5.18581e+09
8.52629e+09
2.97881e+09
4.53356e+09
3.50883e+09
3.50883e+09
5.50341e+09
1.1314e+10
6.78157e+09
1.05233e+10
6.90825e+09
6.34663e+09
7.9629e+09
7.03951e+09
7.7898e+09
5.50341e+09
1.1314e+10
1.1314e+10
7.90911e+09
8.63961e+09
6.20475e+09
5.33843e+09
6.89933e+09
8.61943e+09
9.52054e+09
8.83361e+09
9.87725e+09
7.90911e+09
8.63961e+09
8.63961e+09
5.57249e+09
2.60014e+09
4.82441e+09
6.72606e+09
9.81687e+09
1.02182e+10
5.48683e+09
9.81204e+09
8.50872e+09
5.57249e+09
)
;
    }
    procBoundary2to3
    {
        type            processor;
        value           nonuniform List<scalar> 
12
(
8.47379e+09
6.30729e+09
6.63764e+09
4.34354e+09
8.55718e+09
7.80339e+09
1.27272e+10
8.4197e+09
8.11097e+09
9.7342e+09
6.04999e+09
8.76934e+09
)
;
    }
    procBoundary2to6
    {
        type            processor;
        value           nonuniform List<scalar> 
32
(
8.11271e+09
6.69984e+09
8.91665e+09
5.68892e+09
6.20426e+09
5.61061e+09
9.96034e+09
8.97409e+09
6.10629e+09
8.09071e+09
1.11449e+10
6.25189e+09
8.76889e+09
8.11271e+09
6.69984e+09
6.68947e+09
6.3061e+09
9.22168e+09
8.18761e+09
1.02419e+10
8.86811e+09
8.76321e+09
6.69984e+09
5.68892e+09
8.77277e+09
4.67981e+09
7.58481e+09
5.96308e+09
6.14358e+09
8.71532e+09
5.68892e+09
9.46132e+09
)
;
    }
}


// ************************************************************************* //
