/*--------------------------------*- C++ -*----------------------------------*\
| =========                 |                                                 |
| \\      /  F ield         | OpenFOAM: The Open Source CFD Toolbox           |
|  \\    /   O peration     | Version:  4.x                                   |
|   \\  /    A nd           | Web:      www.OpenFOAM.org                      |
|    \\/     M anipulation  |                                                 |
\*---------------------------------------------------------------------------*/
FoamFile
{
    version     2.0;
    format      ascii;
    class       volScalarField;
    location    "23.5";
    object      KslPrev;
}
// * * * * * * * * * * * * * * * * * * * * * * * * * * * * * * * * * * * * * //

dimensions      [1 -3 -1 0 0 0 0];

internalField   nonuniform List<scalar> 
114
(
3046.59
7528.86
2938.87
10260.9
2816.05
22973.2
16885.3
3570.72
17113.4
3551.17
14230.8
3777.42
8257.32
3917.06
375943
3902.21
1e+10
3983.77
1e+10
4244.8
12881.8
7572.94
3309.43
8494.76
3278.94
9933.27
3309.63
10733.1
3574.33
5106.19
56333.5
3894.11
1e+10
3988.64
1e+10
4244.78
1e+10
5254.91
62469.8
1e+10
4017.63
1e+10
4014.26
1e+10
4053.95
1e+10
4163.95
30824.2
1e+10
3932.76
6193.81
3084.14
6093.79
2862.25
5956.37
2533
5673.78
1985.16
3701.73
14606.4
3641.29
15868.6
3502.08
14498.6
3392.68
10140.2
3367.55
4370.09
18374.3
3617.27
18868.3
3511.58
18075.3
3482.48
14341.7
3700.31
12185.8
101938
3929.17
1e+10
3974.23
4674.49
2792.22
4457.06
2595.52
4350.14
2276.24
4393.27
1669.68
3625.27
5906.2
3122.39
5786.21
3004.58
5759.76
2907.78
5568.3
2839.02
3300.33
7009.29
3243.73
7392.9
3168.2
7758.8
3119.37
8307.55
3140.51
9785.32
8206.68
3425.51
8832.8
3459.95
9388.42
3533.88
)
;

boundaryField
{
    inlet
    {
        type            zeroGradient;
    }
    outlet
    {
        type            zeroGradient;
    }
    wall
    {
        type            zeroGradient;
    }
    procBoundary5to1
    {
        type            processor;
        value           uniform 0;
    }
    procBoundary5to4
    {
        type            processor;
        value           uniform 0;
    }
    procBoundary5to7
    {
        type            processor;
        value           uniform 0;
    }
}


// ************************************************************************* //
