/*--------------------------------*- C++ -*----------------------------------*\
| =========                 |                                                 |
| \\      /  F ield         | OpenFOAM: The Open Source CFD Toolbox           |
|  \\    /   O peration     | Version:  4.x                                   |
|   \\  /    A nd           | Web:      www.OpenFOAM.org                      |
|    \\/     M anipulation  |                                                 |
\*---------------------------------------------------------------------------*/
FoamFile
{
    version     2.0;
    format      ascii;
    class       volScalarField;
    location    "23.5";
    object      p_rgh;
}
// * * * * * * * * * * * * * * * * * * * * * * * * * * * * * * * * * * * * * //

dimensions      [1 -1 -2 0 0 0 0];

internalField   nonuniform List<scalar> 
114
(
65.8894
-14.9328
60.3765
-34.4977
56.3741
-54.357
4.09904
65.4211
-14.2885
59.1799
-32.3378
54.1306
-49.2732
72.7133
6.13259
65.5838
-11.4594
59.5112
-28.329
53.1305
-44.4355
23.1368
72.5855
5.11227
65.5784
-13.4504
58.9943
-32.125
53.0888
-51.3312
23.3726
72.6046
5.58474
65.1104
-11.9647
58.3818
-28.523
53.9903
-35.5092
24.5285
72.2537
7.34013
65.264
-9.99795
58.6314
-26.6344
51.9724
-40.414
24.8721
72.3588
23.0888
72.3275
4.44859
65.4591
-15.4063
59.5131
-37.9501
56.4681
-71.0732
23.4938
72.3211
5.15265
64.9687
-13.5737
58.0924
-32.5279
52.5803
-50.6754
23.5751
72.3977
5.39277
65.2047
-13.1227
58.6597
-31.6008
53.4415
-48.2095
24.5881
72.2956
6.91938
64.7214
23.3255
72.2693
4.9502
65.4403
-14.8077
59.5887
-37.9663
56.8776
-38.9193
23.6728
72.32
5.60875
65.1778
-12.9491
58.3163
-32.2486
52.269
-52.4116
23.9446
72.4742
5.99885
65.3937
-12.4852
58.773
-31.4467
52.9171
-50.5989
24.541
72.4354
7.0233
64.9907
-10.565
57.4846
)
;

boundaryField
{
    inlet
    {
        type            fixedFluxPressure;
        gradient        nonuniform 0();
        value           nonuniform 0();
    }
    outlet
    {
        type            fixedValue;
        value           uniform 0;
    }
    wall
    {
        type            fixedFluxPressure;
        gradient        nonuniform List<scalar> 
66
(
2.90103e-06
3.10905e-06
8.53586e-07
2.90485e-07
1.99902e-06
3.48314e-06
1.14222e-07
-1.23254e-06
3.02254e-06
-1.89764e-06
-2.75387e-07
-5.70364e-06
-3.48392e-06
-1.84629e-06
-2.17602e-07
-1.53282e-06
1.24569e-06
1.64743e-06
3.74687e-06
6.14537e-06
1.2525e-06
6.03383e-07
1.10574e-06
2.75958e-06
3.80449e-06
-7.22673e-06
4.21896e-06
-1.82296e-05
-2.38161e-06
1.90218e-06
-0.000114392
-3.90171e-06
1.35402e-06
-1.5004e-05
-4.29978e-06
-8.4326e-07
-6.43334e-06
-2.05554e-06
-2.79957e-07
-1.9081e-05
-4.45316e-06
-2.07004e-07
-9.45646e-06
-1.4336e-06
-5.0309e-06
-1.17136e-06
-1.60048e-05
2.2357e-06
1.93326e-07
1.97548e-06
-1.42839e-05
1.87724e-06
1.49716e-06
2.00876e-07
-2.70241e-05
8.24422e-06
4.06066e-06
-1.23328e-05
-2.26171e-07
1.27533e-05
3.74092e-07
-1.85209e-05
-0.000751778
-1.43111e-06
-2.09918e-05
-0.000125082
)
;
        value           nonuniform List<scalar> 
66
(
23.3255
23.6728
23.9446
24.541
72.2693
72.32
72.4742
72.4354
4.9502
5.60875
5.99885
7.0233
65.4403
65.1778
65.3937
64.9907
-14.8077
-12.9491
-12.4852
-10.565
59.5887
58.3163
58.773
57.4846
-37.9663
-32.2486
-31.4467
56.8776
52.269
52.9171
-38.9193
-52.4116
-50.5989
23.1368
23.0888
23.3255
72.5855
72.3275
72.2693
5.11227
4.44859
4.9502
65.8894
65.5784
65.4591
65.4403
-14.9328
-13.4504
-15.4063
-14.8077
60.3765
58.9943
59.5131
59.5887
-34.4977
-32.125
-37.9501
-37.9663
56.3741
53.0888
56.4681
56.8776
-54.357
-51.3312
-71.0732
-38.9193
)
;
    }
    procBoundary5to1
    {
        type            processor;
        value           nonuniform List<scalar> 
32
(
65.7539
-14.6085
59.836
-33.9882
55.1157
-50.7339
4.4065
65.7694
-13.9949
59.3857
-32.5785
53.8799
-48.9469
72.4357
6.16492
65.7779
-11.2273
59.4587
-28.2672
52.0665
-44.0415
22.627
72.4901
4.19222
4.19222
4.19222
22.6534
72.3931
72.3931
72.3931
23.8535
23.8535
)
;
    }
    procBoundary5to4
    {
        type            processor;
        value           nonuniform List<scalar> 
12
(
79.8657
80.2119
80.0388
80.1656
79.5932
79.8829
79.8625
80.068
79.424
79.7023
79.751
79.9237
)
;
    }
    procBoundary5to7
    {
        type            processor;
        value           nonuniform List<scalar> 
44
(
72.3221
6.75961
65.1165
-10.7514
58.5623
-28.2473
52.0608
-45.026
24.3787
72.3221
7.47959
64.9308
-10.2201
57.8314
-27.8812
50.8729
-43.0762
25.0656
7.47959
72.1714
7.47959
64.9308
-10.4287
57.7394
-26.7616
50.1594
-40.7008
24.2048
72.4242
6.15995
-10.4287
65.0829
-10.4287
57.7394
-27.8415
49.9576
-45.232
24.5125
72.5217
6.85484
65.2617
-10.97
-27.8415
58.116
)
;
    }
}


// ************************************************************************* //
