/*--------------------------------*- C++ -*----------------------------------*\
| =========                 |                                                 |
| \\      /  F ield         | OpenFOAM: The Open Source CFD Toolbox           |
|  \\    /   O peration     | Version:  4.x                                   |
|   \\  /    A nd           | Web:      www.OpenFOAM.org                      |
|    \\/     M anipulation  |                                                 |
\*---------------------------------------------------------------------------*/
FoamFile
{
    version     2.0;
    format      ascii;
    class       volScalarField;
    location    "23.5";
    object      QWallFluidCoeff;
}
// * * * * * * * * * * * * * * * * * * * * * * * * * * * * * * * * * * * * * //

dimensions      [1 -1 -3 -1 0 0 0];

internalField   nonuniform List<scalar> 
114
(
-3.01673e+06
-1.43808e+06
-3.06014e+06
-1.10234e+06
-3.08316e+06
-556914
0
0
0
0
0
0
0
0
0
0
0
0
0
0
0
-1.43653e+06
-2.79416e+06
-1.30325e+06
-2.79773e+06
-1.13914e+06
-2.75353e+06
-1.0568e+06
-2.53644e+06
-1.85707e+06
0
0
0
0
0
0
0
0
0
0
0
0
0
0
0
0
0
0
0
0
-1.67847e+06
-2.93628e+06
-1.69328e+06
-3.10214e+06
-1.71722e+06
-3.42405e+06
-1.77882e+06
-4.16681e+06
-2.43972e+06
0
0
0
0
0
0
0
0
0
0
0
0
0
0
0
0
0
0
0
0
0
0
-4.17264e+06
-6.28515e+06
-4.31267e+06
-6.64382e+06
-4.38736e+06
-7.44541e+06
-4.3731e+06
-9.64449e+06
-5.01154e+06
-1.73019e+06
-2.89567e+06
-1.75589e+06
-2.96472e+06
-1.74769e+06
-3.03085e+06
-1.79959e+06
-3.08234e+06
-2.66094e+06
-1.49211e+06
-2.77555e+06
-1.41862e+06
-2.80085e+06
-1.35768e+06
-2.81508e+06
-1.27272e+06
-2.7556e+06
-1.08629e+06
-1.30527e+06
-2.63827e+06
-1.22039e+06
-2.59258e+06
-1.15029e+06
-2.50945e+06
)
;

boundaryField
{
    inlet
    {
        type            calculated;
        value           nonuniform 0();
    }
    outlet
    {
        type            calculated;
        value           uniform 0;
    }
    wall
    {
        type            calculated;
        value           uniform 0;
    }
    procBoundary5to1
    {
        type            processor;
        value           uniform 0;
    }
    procBoundary5to4
    {
        type            processor;
        value           uniform 0;
    }
    procBoundary5to7
    {
        type            processor;
        value           uniform 0;
    }
}


// ************************************************************************* //
