/*--------------------------------*- C++ -*----------------------------------*\
| =========                 |                                                 |
| \\      /  F ield         | OpenFOAM: The Open Source CFD Toolbox           |
|  \\    /   O peration     | Version:  4.x                                   |
|   \\  /    A nd           | Web:      www.OpenFOAM.org                      |
|    \\/     M anipulation  |                                                 |
\*---------------------------------------------------------------------------*/
FoamFile
{
    version     2.0;
    format      ascii;
    class       volScalarField;
    location    "23.5";
    object      Sm;
}
// * * * * * * * * * * * * * * * * * * * * * * * * * * * * * * * * * * * * * //

dimensions      [1 -3 -1 0 0 0 0];

internalField   nonuniform List<scalar> 
114
(
6.81998e-65
8.05997e-65
6.35497e-65
6.74246e-65
7.59496e-65
8.44744e-65
6.81995e-65
5.65746e-65
5.81245e-65
6.66494e-65
8.21492e-65
8.52492e-65
7.90491e-65
8.44743e-65
6.04494e-65
7.51742e-65
5.73494e-65
4.57245e-65
7.28491e-65
5.42493e-65
8.67987e-65
6.355e-65
4.805e-65
6.97498e-65
5.42499e-65
6.43247e-65
6.81998e-65
7.12997e-65
5.65748e-65
5.96747e-65
7.05248e-65
6.81997e-65
8.52495e-65
7.12995e-65
8.36993e-65
8.13743e-65
5.26996e-65
8.60242e-65
6.89743e-65
8.21495e-65
4.57247e-65
7.28494e-65
7.59493e-65
6.19993e-65
7.05242e-65
7.12992e-65
6.89741e-65
5.57993e-65
9.99743e-65
4.33996e-65
6.66501e-65
8.21501e-65
6.7425e-65
7.3625e-65
6.97499e-65
6.8975e-65
6.66499e-65
7.285e-65
6.58749e-65
5.42499e-65
8.36998e-65
6.04498e-65
7.12997e-65
7.12997e-65
7.05246e-65
9.14495e-65
6.43247e-65
5.50247e-65
6.89747e-65
6.35497e-65
6.89746e-65
6.04496e-65
1.00749e-64
7.36244e-65
8.21492e-65
8.91241e-65
8.67991e-65
4.80498e-65
9.37744e-65
8.98994e-65
7.98243e-65
2.63501e-65
6.89753e-65
4.57252e-65
7.13002e-65
6.04502e-65
4.96001e-65
6.97502e-65
6.27752e-65
6.04501e-65
6.35501e-65
6.58751e-65
4.34e-65
5.6575e-65
7.43999e-65
6.50999e-65
4.57249e-65
7.05249e-65
6.04498e-65
6.12249e-65
6.43249e-65
8.52497e-65
6.97498e-65
5.88997e-65
8.05996e-65
6.50996e-65
6.74246e-65
6.81996e-65
7.36249e-65
5.65748e-65
7.12997e-65
5.57997e-65
9.68743e-65
7.74995e-65
)
;

boundaryField
{
    inlet
    {
        type            calculated;
        value           nonuniform 0();
    }
    outlet
    {
        type            calculated;
        value           uniform 0;
    }
    wall
    {
        type            calculated;
        value           uniform 0;
    }
    procBoundary5to1
    {
        type            processor;
        value           nonuniform List<scalar> 
32
(
7.98248e-65
5.73498e-65
8.44746e-65
7.05247e-65
5.73498e-65
4.18497e-65
5.65748e-65
6.12247e-65
6.97495e-65
6.97495e-65
6.58744e-65
7.20743e-65
4.41745e-65
6.35496e-65
5.11496e-65
9.06742e-65
8.29242e-65
8.75741e-65
6.81992e-65
7.9049e-65
3.48745e-65
6.5875e-65
5.27e-65
8.05998e-65
8.05998e-65
8.05998e-65
7.05247e-65
9.99745e-65
9.99745e-65
9.99745e-65
5.73496e-65
5.73496e-65
)
;
    }
    procBoundary5to4
    {
        type            processor;
        value           nonuniform List<scalar> 
12
(
8.91251e-65
9.06748e-65
5.65748e-65
5.96747e-65
8.21502e-65
8.1375e-65
6.81999e-65
6.81998e-65
7.20754e-65
7.59502e-65
6.27751e-65
6.355e-65
)
;
    }
    procBoundary5to7
    {
        type            processor;
        value           nonuniform List<scalar> 
44
(
7.82743e-65
6.43243e-65
6.74242e-65
1.03074e-64
1.03849e-64
7.98239e-65
5.65742e-65
8.36987e-65
9.91992e-65
7.82743e-65
6.43243e-65
7.36242e-65
6.74242e-65
6.89741e-65
8.60238e-65
8.44738e-65
7.36239e-65
3.95247e-65
6.43243e-65
8.52493e-65
6.43243e-65
7.36242e-65
5.03744e-65
5.81243e-65
7.36242e-65
6.04493e-65
5.81242e-65
8.05997e-65
7.36246e-65
6.81995e-65
5.03744e-65
5.19246e-65
5.03744e-65
5.81243e-65
5.50246e-65
6.43245e-65
6.12246e-65
6.89749e-65
5.81249e-65
7.67247e-65
7.43997e-65
5.19247e-65
5.50246e-65
3.87498e-65
)
;
    }
}


// ************************************************************************* //
