/*--------------------------------*- C++ -*----------------------------------*\
| =========                 |                                                 |
| \\      /  F ield         | OpenFOAM: The Open Source CFD Toolbox           |
|  \\    /   O peration     | Version:  4.x                                   |
|   \\  /    A nd           | Web:      www.OpenFOAM.org                      |
|    \\/     M anipulation  |                                                 |
\*---------------------------------------------------------------------------*/
FoamFile
{
    version     2.0;
    format      ascii;
    class       volVectorField;
    location    "23.5";
    object      Urel;
}
// * * * * * * * * * * * * * * * * * * * * * * * * * * * * * * * * * * * * * //

dimensions      [0 1 -1 0 0 0 0];

internalField   nonuniform List<vector> 
114
(
(-0.0224082 0.000125902 7.71677e-06)
(-0.020741 0.000261359 -4.75919e-05)
(-0.0221268 0.000270932 -0.000283689)
(-0.0199044 0.000682554 -0.000258569)
(-0.0210461 0.000746735 -0.000630091)
(-0.0176705 0.00173584 -0.000387085)
(-0.0192915 0.000192451 8.10332e-05)
(-0.0209426 0.000168628 -0.000103863)
(-0.0190938 0.000295977 -0.000113686)
(-0.0206251 0.000289974 -0.000320563)
(-0.018522 0.000673736 -0.000163938)
(-0.0195099 0.000626581 -0.000379573)
(-0.0171468 0.00184819 0.000265491)
(-0.0197803 9.78499e-05 8.54426e-05)
(-0.0178492 9.06349e-05 -1.75325e-06)
(-0.0196379 6.4773e-05 -0.000170994)
(-0.0176013 0.000107217 -0.000199102)
(-0.0192489 0.000103971 -0.000359679)
(-0.017054 0.00024999 -0.000221241)
(-0.0182924 0.000247425 -0.00022282)
(-0.0162292 0.000820361 0.000251838)
(-0.0205912 0.000296768 0.000208796)
(-0.0219233 0.000265554 9.49056e-05)
(-0.0204895 0.000285269 1.31293e-05)
(-0.0219357 0.000279526 -0.000154643)
(-0.0202919 0.000472901 -0.000277756)
(-0.0217207 0.000561273 -0.000533435)
(-0.0196853 0.00107769 -0.000773529)
(-0.0206473 0.00137071 -0.00112689)
(-0.0179748 0.00258846 -0.00214682)
(-0.0188768 0.000244026 0.000148159)
(-0.0205276 0.000202618 4.20909e-05)
(-0.0186915 0.000227357 -3.28141e-05)
(-0.0204422 0.000240875 -0.000191064)
(-0.0185542 0.000365541 -0.000255746)
(-0.0201193 0.000455814 -0.000475289)
(-0.0180301 0.000807653 -0.000515928)
(-0.0189468 0.0010141 -0.000760098)
(-0.0166657 0.00199341 -0.000881134)
(-0.0177209 0.000149054 9.84325e-05)
(-0.0194613 0.000122083 -7.81286e-06)
(-0.017574 0.000142447 -6.17449e-05)
(-0.0193614 0.000147784 -0.000207865)
(-0.0174097 0.000210703 -0.000239926)
(-0.0190487 0.000238321 -0.000387955)
(-0.016934 0.000436605 -0.000337546)
(-0.0181562 0.000502338 -0.000327883)
(-0.0159025 0.00099037 -0.000291245)
(-0.0172462 3.47796e-05 0.000107613)
(-0.0190115 2.81532e-05 2.30747e-05)
(-0.0212357 0.000372321 6.18655e-05)
(-0.0225831 0.000366261 -2.29669e-05)
(-0.0214162 0.000431452 -8.14286e-05)
(-0.0229591 0.000462446 -0.000207037)
(-0.0216661 0.000745596 -0.00038724)
(-0.0234235 0.000887736 -0.000569115)
(-0.0216721 0.00173011 -0.00107391)
(-0.0235354 0.00215838 -0.0012295)
(-0.0196617 0.00457169 -0.00293155)
(-0.0197057 0.000316747 3.46985e-05)
(-0.0212461 0.000323404 -4.67094e-05)
(-0.0197227 0.000375674 -8.64445e-05)
(-0.0214057 0.000420716 -0.000193405)
(-0.0198286 0.000638401 -0.00031156)
(-0.0214818 0.000774789 -0.000469108)
(-0.0196854 0.00146051 -0.000742021)
(-0.020832 0.00177554 -0.000886591)
(-0.0182762 0.00404208 -0.00172694)
(-0.0186073 0.000237389 1.01365e-05)
(-0.0202091 0.000240154 -3.36294e-05)
(-0.0185242 0.000288057 -0.000100698)
(-0.0202105 0.000303994 -0.000184877)
(-0.0184509 0.000457477 -0.000274768)
(-0.0200319 0.000522816 -0.000346314)
(-0.0180568 0.000912203 -0.000469794)
(-0.0191004 0.000963177 -0.000354393)
(-0.0167767 0.00199839 -0.000699676)
(-0.0178739 8.82877e-05 3.39816e-05)
(-0.0195269 9.18601e-05 -1.16961e-05)
(-0.0176549 9.88967e-05 -4.38226e-05)
(-0.0193672 0.000101903 -0.000128688)
(-0.0222092 0.000416005 4.37975e-05)
(-0.0234818 0.000429354 6.38908e-06)
(-0.0225896 0.000522179 -7.72201e-07)
(-0.0240515 0.000595573 -8.75898e-05)
(-0.0230633 0.000937154 -0.000178474)
(-0.0248406 0.00116645 -0.00036549)
(-0.0233777 0.00220028 -0.000666458)
(-0.025642 0.00287565 -0.000977333)
(-0.0211946 0.00601482 -0.00176161)
(-0.0210628 0.000392962 1.83966e-05)
(-0.0223424 0.000416102 -1.5685e-05)
(-0.0212324 0.000509904 -2.40784e-05)
(-0.022625 0.000577397 -9.04844e-05)
(-0.0214281 0.000878024 -0.000162422)
(-0.0228522 0.001067 -0.000298993)
(-0.021314 0.0019575 -0.000491818)
(-0.0224233 0.00242444 -0.000724583)
(-0.0196733 0.00538457 -0.00120561)
(-0.0199473 0.000314969 1.80701e-05)
(-0.0212383 0.000327545 -1.01847e-05)
(-0.0198919 0.000412399 -2.51313e-05)
(-0.0212743 0.000435432 -8.73218e-05)
(-0.0198072 0.000649877 -0.000140186)
(-0.0211371 0.00071845 -0.000230409)
(-0.0193384 0.00124211 -0.00032464)
(-0.0202435 0.00137584 -0.00041605)
(-0.0177387 0.0026386 -0.000621114)
(-0.0192383 0.000152911 1.0122e-05)
(-0.0205124 0.00015531 -8.15895e-06)
(-0.0190393 0.000197534 -2.13672e-05)
(-0.0203448 0.000198241 -5.95697e-05)
(-0.0187854 0.000295856 -0.000102107)
(-0.0199616 0.000287662 -0.000161632)
)
;

boundaryField
{
    inlet
    {
        type            calculated;
        value           nonuniform 0();
    }
    outlet
    {
        type            calculated;
        value           nonuniform List<vector> 
12
(
(-0.00496841 0.00284357 0.000146911)
(-0.00916842 0.0087808 0.0045313)
(-0.00693234 0.00221484 0.00105323)
(-0.00909661 0.00489179 -0.0123144)
(-0.00118438 0.000586465 -0.000128289)
(-0.00303482 -0.000770933 -0.000285852)
(-0.0118197 0.015663 -0.0181204)
(-0.0109845 0.0181871 -0.00809135)
(-0.00611618 0.00453682 -0.0023638)
(-0.0161341 0.0225361 -0.00242173)
(-0.0162959 0.0255688 -0.00125591)
(-0.0086673 0.00498822 -0.000624456)
)
;
    }
    wall
    {
        type            calculated;
        value           nonuniform List<vector> 
66
(
(-1.70191e-09 3.26185e-10 3.79455e-10)
(-3.60453e-09 8.82131e-10 3.62303e-10)
(-4.96355e-09 1.68278e-09 -3.44176e-10)
(-3.65546e-09 1.08024e-09 1.20949e-11)
(-2.10442e-09 4.48351e-10 2.25821e-10)
(-3.76602e-09 1.20328e-09 1.72322e-10)
(-4.82156e-09 2.08322e-09 -6.31569e-10)
(-3.82595e-09 4.20045e-09 -1.13537e-09)
(-9.10731e-10 6.08727e-09 4.99497e-10)
(-3.18114e-09 2.20619e-09 4.65516e-10)
(-6.76401e-09 2.01176e-09 6.63461e-12)
(-5.63803e-10 3.07381e-08 -1.91993e-09)
(-1.23264e-09 -3.58899e-10 1.1884e-10)
(-1.7421e-09 3.22028e-10 1.47686e-10)
(-4.76528e-09 6.7879e-10 -2.89733e-10)
(-6.38837e-09 1.97768e-09 -1.04715e-09)
(-1.72434e-09 -1.05494e-10 9.7341e-11)
(-2.0687e-09 8.44943e-10 4.62102e-10)
(-4.56645e-09 4.49281e-11 4.49999e-10)
(-6.27326e-09 4.50323e-10 1.34421e-10)
(-3.37263e-09 1.88863e-10 1.55914e-09)
(-3.56334e-09 4.90561e-10 1.39217e-09)
(-5.46721e-09 -2.99056e-10 -1.45805e-10)
(-6.21857e-09 -1.63016e-10 9.77534e-11)
(-5.99984e-09 7.56711e-10 2.45918e-10)
(-5.0593e-09 6.83174e-10 -5.79778e-10)
(-4.652e-09 2.89049e-10 -3.23582e-11)
(-6.28414e-09 4.7504e-09 -5.29798e-09)
(-4.42515e-09 7.51684e-09 -1.33133e-09)
(-3.94319e-09 1.00212e-09 -1.46379e-10)
(2.31654e-09 1.44437e-08 -1.3521e-08)
(1.27092e-09 1.88154e-08 -1.19857e-09)
(-2.02671e-09 1.99519e-09 -5.02457e-10)
(-4.20496e-09 1.58992e-09 2.02314e-09)
(-3.35161e-09 7.81681e-10 1.01183e-09)
(-1.70191e-09 3.26185e-10 3.79455e-10)
(-4.96152e-09 8.92189e-10 1.85969e-09)
(-3.15523e-09 2.38569e-10 6.58927e-10)
(-2.10442e-09 4.48351e-10 2.25821e-10)
(-5.52788e-09 1.72843e-09 1.46698e-09)
(-2.64844e-09 6.78948e-10 4.57778e-10)
(-9.10731e-10 6.08727e-09 4.99497e-10)
(-9.31211e-09 2.62564e-09 1.41214e-09)
(-4.09628e-09 6.6242e-10 1.07538e-09)
(-2.30363e-09 -5.67196e-11 1.34659e-10)
(-1.23264e-09 -3.58899e-10 1.1884e-10)
(-9.58639e-09 1.76343e-09 1.45586e-09)
(-3.76251e-09 1.51346e-10 -5.76135e-10)
(-2.99005e-09 -8.87528e-11 -2.03133e-10)
(-1.72434e-09 -1.05494e-10 9.7341e-11)
(-1.18427e-08 3.7611e-09 5.72525e-10)
(-3.51528e-09 2.81726e-10 -1.45789e-10)
(-3.48177e-09 1.4194e-10 -3.01211e-10)
(-3.37263e-09 1.88863e-10 1.55914e-09)
(-8.61122e-09 1.82892e-09 -2.05325e-09)
(-4.31761e-09 -1.28308e-10 -1.62747e-09)
(-4.9102e-09 -1.79222e-10 -1.31413e-09)
(-5.99984e-09 7.56711e-10 2.45918e-10)
(-8.30002e-09 1.54197e-09 -2.16815e-09)
(-3.56036e-09 1.99008e-10 -2.15125e-09)
(-7.32777e-09 6.47281e-10 -2.64252e-09)
(-6.28414e-09 4.7504e-09 -5.29798e-09)
(-9.93817e-08 2.23878e-08 -5.25342e-10)
(-3.16386e-09 3.1356e-09 -6.28069e-09)
(6.22538e-09 3.30603e-09 -1.32424e-08)
(2.31654e-09 1.44437e-08 -1.3521e-08)
)
;
    }
    procBoundary5to1
    {
        type            processor;
        value           nonuniform List<vector> 
32
(
(-0.0233312 2.81281e-06 0.000103967)
(-0.0216707 9.16048e-05 7.827e-05)
(-0.0230982 8.83194e-05 -0.000136056)
(-0.0209032 0.000434707 8.04019e-05)
(-0.0220929 0.000536371 -0.000122587)
(-0.0184592 0.00145593 0.000803243)
(-0.0203038 0.000115454 0.000140367)
(-0.021971 8.39939e-05 -7.38397e-05)
(-0.0201142 0.000192681 -6.50662e-05)
(-0.0217187 0.00019687 -0.000296158)
(-0.0196225 0.000564338 5.12814e-05)
(-0.0206886 0.000520484 -0.00011268)
(-0.0181275 0.00187038 0.00136886)
(-0.020673 5.05984e-05 0.000135187)
(-0.0187839 3.89497e-05 3.62654e-05)
(-0.0205526 9.0246e-06 -0.000170206)
(-0.0185336 4.22151e-05 -0.000183387)
(-0.0201484 5.39214e-05 -0.000341987)
(-0.0179261 0.000156816 -0.000132542)
(-0.0190761 0.000171444 -8.23764e-05)
(-0.0169318 0.000710059 0.000865666)
(-0.0210877 0.00022338 0.000368464)
(-0.0224081 0.000172082 0.000252912)
(-0.0210319 0.000152836 0.000167426)
(-0.0210319 0.000152836 0.000167426)
(-0.0210319 0.000152836 0.000167426)
(-0.0194252 0.000229263 0.000297556)
(-0.0210065 0.000189538 0.000168806)
(-0.0210065 0.000189538 0.000168806)
(-0.0210065 0.000189538 0.000168806)
(-0.0180664 0.000136818 0.000214629)
(-0.0180664 0.000136818 0.000214629)
)
;
    }
    procBoundary5to4
    {
        type            processor;
        value           nonuniform List<vector> 
12
(
(-0.0219128 0.00033871 0.000274179)
(-0.0206552 0.000283163 0.000219471)
(-0.0196425 0.000168135 0.00015313)
(-0.0191896 2.6321e-05 0.000163832)
(-0.0223857 0.000382432 7.30286e-05)
(-0.0212155 0.000325601 3.62401e-05)
(-0.0202723 0.000229805 2.04511e-05)
(-0.0196959 8.98086e-05 3.77105e-05)
(-0.0231238 0.000402788 3.50737e-05)
(-0.0221766 0.000366901 6.98289e-06)
(-0.0212341 0.000275664 5.81021e-06)
(-0.0206435 0.000129848 4.09181e-06)
)
;
    }
    procBoundary5to7
    {
        type            processor;
        value           nonuniform List<vector> 
44
(
(-0.0193386 -2.00707e-05 8.41362e-05)
(-0.0173834 -2.14995e-05 1.24362e-06)
(-0.0191829 -4.60347e-05 -0.000162978)
(-0.0171749 -5.34943e-05 -0.000187081)
(-0.0188733 -8.21027e-05 -0.000364729)
(-0.0167096 -6.23422e-05 -0.000187903)
(-0.0180736 -2.40585e-05 -0.000218345)
(-0.0157861 -0.000116964 0.00041008)
(-0.0175693 5.12608e-06 0.000207269)
(-0.0193386 -2.00707e-05 8.41362e-05)
(-0.0170867 2.64763e-05 -3.51351e-05)
(-0.0189068 1.41008e-05 -0.000170729)
(-0.0169151 1.88706e-05 -0.000184977)
(-0.0186588 -2.88166e-05 -0.000320351)
(-0.0165892 6.0058e-05 -0.00021086)
(-0.0180226 7.46673e-06 -0.000264066)
(-0.015753 0.000240705 0.000201647)
(-0.017527 -7.76321e-05 0.000158153)
(-0.0170867 2.64763e-05 -3.51351e-05)
(-0.0192252 -7.30655e-05 8.10145e-05)
(-0.0170867 2.64763e-05 -3.51351e-05)
(-0.0189068 1.41008e-05 -0.000170729)
(-0.0174661 0.000138726 -0.000153142)
(-0.019022 0.000142101 -0.000226737)
(-0.0169991 0.000258404 -0.00019497)
(-0.0181024 0.000261178 -0.000138386)
(-0.0162083 0.000588771 1.8205e-05)
(-0.0181685 -7.05742e-05 8.20924e-05)
(-0.0197888 -8.00939e-05 5.54554e-05)
(-0.0179438 -7.99033e-05 2.2384e-05)
(-0.0174661 0.000138726 -0.000153142)
(-0.0196557 -0.000101399 -3.88894e-05)
(-0.0174661 0.000138726 -0.000153142)
(-0.019022 0.000142101 -0.000226737)
(-0.0182466 0.000542528 -0.000171389)
(-0.0189732 0.000461936 -0.000132053)
(-0.0170747 0.0011016 -0.000173686)
(-0.0193579 -4.67264e-05 7.45565e-05)
(-0.0206432 -5.25545e-05 6.50269e-05)
(-0.0191111 -4.91427e-05 7.85042e-05)
(-0.0204332 -6.27502e-05 4.92766e-05)
(-0.018787 -8.2239e-05 6.62299e-05)
(-0.0182466 0.000542528 -0.000171389)
(-0.0199796 -0.000112096 3.13339e-05)
)
;
    }
}


// ************************************************************************* //
