/*--------------------------------*- C++ -*----------------------------------*\
| =========                 |                                                 |
| \\      /  F ield         | OpenFOAM: The Open Source CFD Toolbox           |
|  \\    /   O peration     | Version:  4.x                                   |
|   \\  /    A nd           | Web:      www.OpenFOAM.org                      |
|    \\/     M anipulation  |                                                 |
\*---------------------------------------------------------------------------*/
FoamFile
{
    version     2.0;
    format      ascii;
    class       volScalarField;
    location    "23.5";
    object      rho;
}
// * * * * * * * * * * * * * * * * * * * * * * * * * * * * * * * * * * * * * //

dimensions      [1 -3 0 0 0 0 0];

internalField   nonuniform List<scalar> 
132
(
6699.66
6699.42
6699.16
6698.86
6698.71
6698.61
6698.82
6699.03
6704.1
6699.76
6699.6
6699.38
6699.12
6698.94
6698.72
6698.82
6698.73
6700.41
6699.83
6699.7
6699.52
6699.27
6699.07
6698.8
6698.77
6698.62
6699.23
6699.96
6699.93
6699.88
6699.81
6699.69
6699.57
6699.36
6699.15
6690.55
6699.34
6699.23
6699.27
6699.37
6699.69
6699.96
6710.74
6699.53
6699.37
6699.25
6699.22
6699.34
6699.48
6699.81
6699.96
6703.28
6699.77
6699.63
6699.47
6699.33
6699.29
6699.29
6699.5
6699.5
6700.11
6699.95
6699.91
6699.85
6699.76
6699.63
6699.46
6699.26
6698.99
6696.47
6699.34
6699.46
6699.73
6700.05
6701.75
6699.83
6699.71
6699.59
6699.47
6699.4
6699.41
6699.48
6699.6
6699.96
6699.9
6699.82
6699.72
6699.6
6699.51
6699.45
6699.44
6699.47
6699.62
6699.97
6699.95
6699.91
6699.87
6699.81
6699.75
6699.66
6699.57
6686.07
6699.41
6699.3
6697.64
6699.94
6699.9
6699.84
6699.74
6699.63
6699.48
6699.33
6699.19
6698.13
6699.96
6699.94
6699.9
6699.84
6699.77
6699.68
6699.56
6699.42
6696.55
6699.98
6699.97
6699.96
6699.93
6699.89
6699.84
6699.76
6699.67
6693.2
)
;

boundaryField
{
    inlet
    {
        type            calculated;
        value           nonuniform 0();
    }
    outlet
    {
        type            calculated;
        value           uniform 6700;
    }
    wall
    {
        type            calculated;
        value           nonuniform List<scalar> 
66
(
6699.94
6699.96
6699.98
6699.9
6699.94
6699.97
6699.84
6699.9
6699.96
6699.74
6699.84
6699.93
6699.63
6699.77
6699.89
6699.48
6699.68
6699.84
6699.41
6699.33
6699.56
6699.76
6699.3
6699.19
6699.42
6699.67
6697.64
6698.13
6696.55
6693.2
6699.96
6699.95
6699.97
6699.98
6699.93
6699.91
6699.95
6699.97
6699.88
6699.85
6699.91
6699.96
6699.81
6699.76
6699.87
6699.93
6699.69
6699.63
6699.81
6699.89
6699.57
6699.46
6699.75
6699.84
6699.36
6699.26
6699.66
6699.76
6699.15
6698.99
6699.57
6699.67
6690.55
6696.47
6686.07
6693.2
)
;
    }
    procBoundary7to0
    {
        type            processor;
        value           uniform 6699.82;
    }
    procBoundary7to1
    {
        type            processor;
        value           uniform 6699.73;
    }
    procBoundary7to3
    {
        type            processor;
        value           nonuniform List<scalar> 
36
(
6699.35
6698.94
6698.51
6698.14
6697.9
6697.79
6697.98
6698.1
6699.29
6699.64
6699.32
6698.92
6698.47
6698.12
6697.84
6697.85
6697.68
6697.86
6699.72
6699.43
6699.03
6698.57
6698.15
6697.82
6697.69
6697.6
6696.8
6699.95
6699.9
6699.83
6699.7
6699.51
6699.25
6698.94
6698.65
6693.19
)
;
    }
    procBoundary7to5
    {
        type            processor;
        value           nonuniform List<scalar> 
44
(
6699.55
6699.36
6699.15
6699.03
6698.95
6699.09
6699.19
6700.99
6699.68
6699.5
6699.43
6699.33
6699.36
6699.48
6699.81
6700.08
6706.86
6699.68
6699.5
6699.5
6699.5
6699.37
6699.45
6699.43
6699.51
6699.58
6700.93
6699.78
6699.65
6699.5
6699.37
6699.37
6699.63
6699.52
6699.52
6699.42
6698.55
6699.93
6699.88
6699.82
6699.73
6699.63
6699.52
6699.52
)
;
    }
    procBoundary7to6
    {
        type            processor;
        value           nonuniform List<scalar> 
12
(
6699.88
6699.91
6699.97
6699.71
6699.87
6699.97
6699.91
6699.94
6699.98
6699.97
6699.98
6699.99
)
;
    }
}


// ************************************************************************* //
