/*--------------------------------*- C++ -*----------------------------------*\
| =========                 |                                                 |
| \\      /  F ield         | OpenFOAM: The Open Source CFD Toolbox           |
|  \\    /   O peration     | Version:  4.x                                   |
|   \\  /    A nd           | Web:      www.OpenFOAM.org                      |
|    \\/     M anipulation  |                                                 |
\*---------------------------------------------------------------------------*/
FoamFile
{
    version     2.0;
    format      ascii;
    class       volVectorField;
    location    "37.5";
    object      DDtUrel;
}
// * * * * * * * * * * * * * * * * * * * * * * * * * * * * * * * * * * * * * //

dimensions      [0 1 -2 0 0 0 0];

internalField   nonuniform List<vector> 
114
(
(-0.000155396 -2.02186e-05 1.74473e-07)
(-0.000288371 -5.15964e-05 -4.96391e-06)
(-0.00047636 -0.000104472 -2.51483e-05)
(-0.000844076 -0.00018218 -5.66513e-05)
(-0.00135593 -0.000312685 -0.000123305)
(-0.00195674 -0.000440577 -0.00021195)
(-6.16589e-05 3.8325e-06 9.57943e-06)
(-0.000141085 -1.94183e-05 -1.22733e-06)
(-0.000271216 -4.26174e-05 -4.51363e-06)
(-0.000474364 -9.43644e-05 -3.25305e-05)
(-0.000824569 -0.000160469 -5.78321e-05)
(-0.00128033 -0.000311225 -0.000149383)
(-0.00185565 -0.0004652 -0.000231507)
(-1.9734e-05 2.86543e-06 7.18641e-06)
(-6.78988e-05 -4.01674e-06 4.67083e-06)
(-0.000143909 -1.69074e-05 -4.31012e-06)
(-0.00027467 -3.53921e-05 -1.12559e-05)
(-0.000467943 -6.65737e-05 -4.16417e-05)
(-0.000792794 -0.000113175 -7.49631e-05)
(-0.00116359 -0.000198127 -0.000155668)
(-0.00167461 -0.00027392 -0.000226155)
(4.5249e-05 1.7709e-05 2.33582e-05)
(-4.91087e-06 9.58659e-06 2.41998e-05)
(-2.09073e-05 6.50093e-06 2.63477e-05)
(-0.00012087 -2.32148e-05 3.45045e-05)
(-0.000196575 -4.04949e-05 3.52165e-05)
(-0.000433231 -0.000114058 6.74437e-05)
(-0.000687683 -0.000177855 7.68745e-05)
(-0.00136098 -0.00039252 0.000251414)
(-0.00231674 -0.000556071 0.000389696)
(2.39419e-05 1.50443e-05 1.32578e-05)
(-1.41123e-05 7.11414e-06 1.35132e-05)
(-4.3393e-05 1.12387e-06 1.47705e-05)
(-0.000126809 -1.98073e-05 2.09217e-05)
(-0.000233425 -3.78899e-05 2.98272e-05)
(-0.000438599 -0.000105761 5.44542e-05)
(-0.000752111 -0.000166984 7.94523e-05)
(-0.00125193 -0.000399129 0.000237341)
(-0.00196037 -0.000565064 0.000355243)
(8.74792e-06 5.58034e-06 9.24084e-06)
(-2.24764e-05 4.85982e-07 8.48245e-06)
(-5.85631e-05 -6.27497e-06 1.19221e-05)
(-0.000134457 -1.83912e-05 1.38094e-05)
(-0.000245714 -3.68455e-05 2.28982e-05)
(-0.000438947 -7.38389e-05 3.62564e-05)
(-0.000751424 -0.000111099 5.45043e-05)
(-0.00114247 -0.000246034 0.000161409)
(-0.00172205 -0.000369352 0.000264417)
(4.38943e-06 -2.0525e-06 5.34157e-06)
(-2.80898e-05 -4.40803e-06 4.47103e-06)
(5.5758e-05 1.36192e-05 1.31148e-05)
(1.96912e-05 8.72605e-06 2.00479e-05)
(9.71388e-06 2.02726e-06 2.68849e-05)
(-7.54917e-05 -2.00638e-05 4.81077e-05)
(-0.000148169 -4.50035e-05 6.55059e-05)
(-0.000386242 -0.000108601 0.000129569)
(-0.000686379 -0.000193924 0.000188793)
(-0.0014698 -0.000368813 0.000449511)
(-0.00246438 -0.000527068 0.000704557)
(4.16908e-05 1.00335e-05 7.37342e-06)
(6.23258e-06 2.5771e-06 1.35581e-05)
(-8.60097e-06 6.82887e-08 1.62385e-05)
(-9.16769e-05 -2.0944e-05 3.56287e-05)
(-0.000172787 -3.4685e-05 5.01759e-05)
(-0.000398317 -9.88143e-05 0.000110747)
(-0.000692293 -0.000158376 0.000172677)
(-0.0013757 -0.00036118 0.000433799)
(-0.00227479 -0.000527335 0.000627583)
(2.01654e-05 2.23273e-06 1.62456e-06)
(-1.11629e-05 -2.66733e-06 7.87395e-06)
(-4.27602e-05 -6.50285e-06 1.4948e-05)
(-0.000111144 -2.14862e-05 2.77547e-05)
(-0.000216207 -3.92413e-05 4.5334e-05)
(-0.000406843 -8.05919e-05 9.75883e-05)
(-0.000712992 -0.000131794 0.000162797)
(-0.00124064 -0.00027115 0.000418762)
(-0.0019268 -0.000378183 0.000595415)
(1.17384e-05 -3.04183e-06 -2.36019e-06)
(-2.52909e-05 -8.55634e-06 2.83281e-06)
(-5.43158e-05 -1.44091e-05 7.69456e-06)
(-0.000128199 -2.19131e-05 2.18148e-05)
(0.000115763 8.9931e-06 1.31471e-05)
(8.08444e-05 3.7064e-06 2.50145e-05)
(0.000104319 -3.51761e-06 3.05464e-05)
(7.92632e-06 -3.11396e-05 7.21378e-05)
(2.30664e-05 -5.26753e-05 8.22062e-05)
(-0.000279465 -0.000136541 0.000199631)
(-0.000374301 -0.000211117 0.000240212)
(-0.00171441 -0.000519672 0.00069268)
(-0.003304 -0.000796945 0.00118271)
(8.46711e-05 3.03865e-06 5.42858e-06)
(4.73018e-05 -3.47843e-06 1.432e-05)
(5.9329e-05 -3.31432e-06 1.7836e-05)
(-3.53373e-05 -2.88958e-05 4.89987e-05)
(-6.33028e-05 -3.7626e-05 5.99192e-05)
(-0.000343955 -0.000111083 0.000148838)
(-0.000571264 -0.000155036 0.000204975)
(-0.00156271 -0.000411443 0.000530383)
(-0.00280935 -0.000674276 0.000859933)
(5.34137e-05 -5.3212e-06 -1.66115e-06)
(1.29766e-05 -9.98594e-06 9.94842e-06)
(1.24525e-05 -1.09253e-05 1.37954e-05)
(-7.09619e-05 -2.80533e-05 4.35201e-05)
(-0.000111992 -3.7422e-05 4.84973e-05)
(-0.000351256 -8.6583e-05 0.000135604)
(-0.000559559 -0.00012082 0.000176456)
(-0.0014131 -0.00028216 0.000511235)
(-0.00252296 -0.00044616 0.000805799)
(3.16339e-05 -1.02766e-05 -8.49688e-06)
(-1.4866e-05 -1.58158e-05 -3.05969e-07)
(-2.61609e-05 -1.88634e-05 1.70693e-06)
(-0.000109476 -3.093e-05 2.642e-05)
(-0.000158164 -3.64413e-05 3.98442e-05)
(-0.000369159 -7.33944e-05 0.000103615)
)
;

boundaryField
{
    inlet
    {
        type            calculated;
        value           nonuniform 0();
    }
    outlet
    {
        type            calculated;
        value           nonuniform List<vector> 
12
(
(-0.00092137 -0.000272606 -0.000372247)
(-0.00190612 -0.00094126 -0.000765071)
(-0.00175331 -0.000105404 -0.000371787)
(-0.00715412 -0.00150081 0.00182122)
(-0.00325305 -0.00215118 0.00187277)
(-0.00271324 -0.00119236 0.00115009)
(-0.00414957 -0.000123422 0.00126657)
(-0.00499785 -0.000957788 0.00124039)
(-0.00219443 -0.000617464 0.00172679)
(-0.0125407 -0.00289765 0.00522359)
(-0.00784739 -0.00229861 0.00181667)
(-0.00772587 -0.000762575 0.00287971)
)
;
    }
    wall
    {
        type            calculated;
        value           nonuniform List<vector> 
66
(
(0.000547878 4.14125e-05 -8.97875e-06)
(0.000355269 2.57512e-05 -3.66559e-05)
(0.000255671 -1.64759e-05 -6.06627e-05)
(0.000242641 -9.58257e-06 -5.99054e-05)
(0.000181795 1.65931e-05 9.35658e-05)
(1.53493e-05 -4.57468e-05 1.48578e-05)
(-6.23519e-05 -4.65257e-05 5.9602e-05)
(-9.40959e-05 -5.28305e-05 3.20034e-06)
(0.000920301 4.49768e-05 -3.60168e-05)
(0.000618974 9.37151e-05 -9.33409e-05)
(0.000424629 2.90633e-05 -4.88081e-05)
(0.000312772 -1.25659e-05 -0.000111479)
(3.44121e-05 -9.16403e-05 0.000318749)
(-0.000103064 -0.000103531 0.000101499)
(-7.683e-05 -6.1898e-05 0.00020739)
(-0.000160724 -9.32049e-05 6.91967e-05)
(0.00184086 7.96884e-05 -0.000146315)
(0.000975721 0.000208624 -0.000196799)
(0.000842377 9.48385e-05 -0.00021663)
(0.000641161 5.12001e-05 -7.23917e-05)
(-0.000427113 -0.000330167 0.000818366)
(-0.000526498 -0.000241174 0.000257044)
(-0.000248927 -0.000118651 0.00045909)
(-0.000197943 -0.000274672 0.000264787)
(0.00521894 0.000322524 -0.000828785)
(0.00163586 0.000610721 -0.000589439)
(0.00207475 0.000304411 -0.000750821)
(-0.00212092 -0.00141474 0.00181315)
(-0.00130161 -0.000609044 0.000373938)
(-0.000987004 -0.000134983 0.00120057)
(-0.0125407 -0.00289765 0.00522359)
(-0.00784739 -0.00229861 0.00181667)
(-0.00772587 -0.000762575 0.00287971)
(0.000266564 4.87427e-05 9.80715e-05)
(5.01627e-05 4.81087e-05 -2.37122e-05)
(0.000547878 4.14125e-05 -8.97875e-06)
(-0.000102405 -2.09367e-05 0.000109387)
(-0.000135426 4.61023e-05 1.24158e-05)
(0.000181795 1.65931e-05 9.35658e-05)
(0.000395169 0.000112557 9.57082e-05)
(0.00011392 6.11458e-05 3.33131e-06)
(0.000920301 4.49768e-05 -3.60168e-05)
(-0.000321007 -3.2851e-06 1.84805e-05)
(-0.000214511 -9.27631e-05 0.000163716)
(-0.000183416 3.5394e-05 6.68516e-05)
(3.44121e-05 -9.16403e-05 0.000318749)
(-0.000840622 -6.81229e-05 3.23577e-05)
(0.000570108 0.000181715 -2.01481e-05)
(8.69797e-05 5.83704e-05 2.66635e-06)
(0.00184086 7.96884e-05 -0.000146315)
(-7.73109e-05 -2.22561e-06 8.06504e-05)
(-0.000371064 -0.000217176 0.00027415)
(-0.000332228 3.39644e-05 0.000178657)
(-0.000427113 -0.000330167 0.000818366)
(-0.00112065 -0.000112538 -3.13215e-05)
(0.00134153 0.000340184 -0.000399782)
(-5.29608e-05 -8.90192e-06 -0.00023005)
(0.00521894 0.000322524 -0.000828785)
(-0.000441832 2.21325e-05 -4.00764e-05)
(-0.000462095 -0.000855014 0.000952874)
(-0.000658106 8.85282e-05 0.000377935)
(-0.00212092 -0.00141474 0.00181315)
(-0.00092137 -0.000272606 -0.000372247)
(-0.00715412 -0.00150081 0.00182122)
(-0.00414957 -0.000123422 0.00126657)
(-0.0125407 -0.00289765 0.00522359)
)
;
    }
    procBoundary5to1
    {
        type            processor;
        value           nonuniform List<vector> 
32
(
(-9.33965e-05 -2.22504e-05 -4.20535e-05)
(-0.000158589 -4.34955e-05 -4.18639e-05)
(-0.000461991 -0.000112136 -0.000133156)
(-0.000776826 -0.000175099 -0.000159967)
(-0.00163029 -0.000346469 -0.000475765)
(-0.00267127 -0.000490508 -0.000835481)
(8.61268e-06 3.89788e-06 1.43342e-06)
(-0.000102805 -2.55167e-05 -3.06066e-05)
(-0.000193733 -3.88285e-05 -4.1502e-05)
(-0.000467891 -0.000111358 -0.000125478)
(-0.000796049 -0.000151508 -0.000173204)
(-0.00152332 -0.000384317 -0.000453787)
(-0.00242326 -0.000588737 -0.000755839)
(6.46393e-06 3.96186e-06 4.44031e-06)
(-3.38425e-05 -7.13881e-07 -1.66461e-06)
(-0.000127544 -2.03086e-05 -2.51623e-05)
(-0.000254737 -3.49262e-05 -4.46982e-05)
(-0.000483693 -8.11334e-05 -0.000122798)
(-0.00083706 -0.000112663 -0.000197824)
(-0.00134828 -0.000283455 -0.000441424)
(-0.00201564 -0.000412987 -0.000687166)
(3.00584e-05 2.65005e-05 1.88783e-05)
(-2.46283e-05 1.75277e-05 9.83261e-06)
(-7.5922e-05 9.80832e-06 8.36217e-06)
(-7.5922e-05 9.80832e-06 8.36217e-06)
(-7.5922e-05 9.80832e-06 8.36217e-06)
(2.45667e-05 1.93412e-05 1.57461e-05)
(-1.47548e-05 1.11418e-05 1.03013e-05)
(-1.47548e-05 1.11418e-05 1.03013e-05)
(-1.47548e-05 1.11418e-05 1.03013e-05)
(1.14572e-05 7.96698e-06 1.19392e-05)
(1.14572e-05 7.96698e-06 1.19392e-05)
)
;
    }
    procBoundary5to4
    {
        type            processor;
        value           nonuniform List<vector> 
12
(
(5.16152e-05 1.43395e-05 2.29248e-05)
(3.50738e-05 1.22094e-05 1.47131e-05)
(2.43269e-05 6.9349e-06 8.18265e-06)
(1.99232e-05 -1.40621e-06 5.09254e-06)
(6.00572e-05 1.17676e-05 1.32628e-05)
(4.59865e-05 6.34747e-06 8.65938e-06)
(3.14094e-05 1.06411e-06 3.22546e-06)
(2.19338e-05 -4.95477e-06 -1.35057e-06)
(0.00010344 5.53505e-06 1.54353e-05)
(7.93704e-05 -1.80756e-06 7.09951e-06)
(5.39834e-05 -7.59543e-06 1.62066e-06)
(3.71273e-05 -1.20279e-05 -4.45335e-06)
)
;
    }
    procBoundary5to7
    {
        type            processor;
        value           nonuniform List<vector> 
44
(
(-2.17994e-05 -9.91041e-07 5.19956e-06)
(-6.76946e-05 -2.3875e-06 2.19731e-06)
(-0.00014635 -7.66494e-06 -7.96778e-06)
(-0.000272082 -1.25007e-05 -1.73283e-05)
(-0.000462867 -1.75447e-05 -5.30712e-05)
(-0.000784825 -3.09235e-05 -8.96148e-05)
(-0.00112585 -8.59355e-06 -0.000191459)
(-0.00161977 1.64032e-05 -0.000277756)
(1.35032e-05 3.37458e-06 9.20227e-06)
(-2.17994e-05 -9.91041e-07 5.19956e-06)
(-6.68201e-05 -7.85726e-06 7.367e-06)
(-0.000141511 -1.32613e-05 6.88904e-06)
(-0.000256241 -2.07752e-05 1.24991e-05)
(-0.000436391 -3.21727e-05 1.40833e-05)
(-0.000740415 -4.32628e-05 2.73133e-05)
(-0.00108782 -8.52331e-05 9.19016e-05)
(-0.00161612 -0.000122054 0.000152811)
(3.36335e-06 -7.33738e-06 1.50315e-06)
(-6.68201e-05 -7.85726e-06 7.367e-06)
(-3.29193e-05 -8.77159e-06 -9.93343e-07)
(-6.68201e-05 -7.85726e-06 7.367e-06)
(-0.000141511 -1.32613e-05 6.88904e-06)
(-0.000223107 -3.31019e-05 3.69096e-05)
(-0.000405731 -5.26915e-05 8.00844e-05)
(-0.000697729 -7.62755e-05 0.000121218)
(-0.00115872 -0.000136532 0.000351011)
(-0.00182608 -0.000204903 0.000501461)
(-2.52823e-06 -1.19761e-05 -7.17599e-06)
(-3.85339e-05 -1.37177e-05 -3.68312e-06)
(-7.74325e-05 -1.79523e-05 1.09923e-06)
(-0.000223107 -3.31019e-05 3.69096e-05)
(-0.000147962 -1.83613e-05 7.31735e-06)
(-0.000223107 -3.31019e-05 3.69096e-05)
(-0.000405731 -5.26915e-05 8.00844e-05)
(-0.000571874 -8.00544e-05 0.000153386)
(-0.00130371 -0.000209187 0.000401942)
(-0.00230805 -0.000356323 0.000596396)
(4.20157e-06 -1.50923e-05 -1.75062e-05)
(-4.36638e-05 -1.9442e-05 -8.23623e-06)
(-7.12216e-05 -2.3742e-05 -3.41141e-06)
(-0.000148928 -2.93956e-05 1.17968e-05)
(-0.00022823 -3.40857e-05 1.71996e-05)
(-0.000571874 -8.00544e-05 0.000153386)
(-0.000414686 -4.72087e-05 5.70452e-05)
)
;
    }
}


// ************************************************************************* //
