/*--------------------------------*- C++ -*----------------------------------*\
| =========                 |                                                 |
| \\      /  F ield         | OpenFOAM: The Open Source CFD Toolbox           |
|  \\    /   O peration     | Version:  4.x                                   |
|   \\  /    A nd           | Web:      www.OpenFOAM.org                      |
|    \\/     M anipulation  |                                                 |
\*---------------------------------------------------------------------------*/
FoamFile
{
    version     2.0;
    format      ascii;
    class       volVectorField;
    location    "37.5";
    object      ddtUrel;
}
// * * * * * * * * * * * * * * * * * * * * * * * * * * * * * * * * * * * * * //

dimensions      [0 1 -2 0 0 0 0];

internalField   nonuniform List<vector> 
114
(
(-4.71866e-09 8.23879e-11 1.1124e-09)
(-2.42763e-09 1.80666e-11 1.27055e-09)
(-4.34323e-10 -5.57175e-11 1.47282e-09)
(1.35918e-09 -7.06272e-11 1.70546e-09)
(3.27522e-09 -6.9926e-11 1.83554e-09)
(6.28937e-09 -1.58923e-10 1.91812e-09)
(-5.5606e-09 1.74119e-10 1.04717e-09)
(-3.86459e-09 8.35697e-11 1.23667e-09)
(-2.05448e-09 2.30933e-12 1.39652e-09)
(-3.75589e-10 -1.04519e-10 1.58919e-09)
(1.09598e-09 -1.58187e-10 1.79522e-09)
(2.44205e-09 -1.87506e-10 1.83204e-09)
(3.70877e-09 -2.06723e-10 1.94714e-09)
(-4.27183e-09 2.57333e-10 8.33638e-10)
(-3.81554e-09 2.04018e-10 1.11387e-09)
(-2.76631e-09 1.05212e-10 1.35383e-09)
(-1.49207e-09 2.4608e-11 1.52196e-09)
(-2.09251e-10 -6.05387e-11 1.68929e-09)
(9.09804e-10 -1.47895e-10 1.82378e-09)
(1.86581e-09 -1.9556e-10 1.78806e-09)
(2.57772e-09 -2.7134e-11 1.80367e-09)
(-3.55656e-09 1.37605e-10 2.96984e-10)
(-4.0121e-09 1.0593e-10 4.93521e-10)
(-3.54047e-09 6.095e-11 6.69057e-10)
(-2.54995e-09 5.63568e-12 8.04999e-10)
(-1.43792e-09 -3.88068e-11 9.27266e-10)
(-3.35254e-10 -8.10799e-11 1.05113e-09)
(7.08531e-10 -9.9291e-11 1.15651e-09)
(1.6963e-09 -9.82607e-11 1.20026e-09)
(2.65435e-09 -1.04277e-10 1.24103e-09)
(-2.97952e-09 1.86492e-10 3.09486e-10)
(-3.31072e-09 1.60622e-10 5.3302e-10)
(-3.02939e-09 8.78317e-11 7.36617e-10)
(-2.24292e-09 1.18798e-11 9.03918e-10)
(-1.25607e-09 -4.31858e-11 1.04057e-09)
(-2.53566e-10 -1.04462e-10 1.16553e-09)
(6.66857e-10 -1.35393e-10 1.26138e-09)
(1.50607e-09 -1.43204e-10 1.25897e-09)
(2.09914e-09 -1.21229e-10 1.31964e-09)
(-2.19562e-09 2.42123e-10 3.14056e-10)
(-2.43018e-09 2.09186e-10 5.82387e-10)
(-2.25563e-09 1.42807e-10 8.0012e-10)
(-1.70395e-09 7.02013e-11 1.00557e-09)
(-9.45382e-10 8.60939e-12 1.15853e-09)
(-1.24347e-10 -4.564e-11 1.2961e-09)
(6.34532e-10 -9.62541e-11 1.3814e-09)
(1.25666e-09 -1.07843e-10 1.34948e-09)
(1.63761e-09 -8.81151e-11 1.36091e-09)
(-1.46347e-09 3.08032e-10 3.14043e-10)
(-1.63273e-09 2.76394e-10 5.89146e-10)
(-1.9468e-09 9.97548e-11 2.01491e-10)
(-2.12746e-09 6.13174e-11 3.46374e-10)
(-1.98545e-09 1.27691e-11 4.81732e-10)
(-1.49639e-09 -5.06535e-11 6.07613e-10)
(-9.82617e-10 -7.09612e-11 6.91146e-10)
(-3.71862e-10 -8.22254e-11 7.62372e-10)
(2.1158e-10 -8.63824e-11 8.04647e-10)
(6.45723e-10 -6.60373e-11 8.1724e-10)
(1.24978e-09 -3.38169e-12 7.68366e-10)
(-1.76006e-09 1.30962e-10 2.09583e-10)
(-1.92484e-09 9.32491e-11 3.71563e-10)
(-1.89915e-09 3.73147e-11 5.29723e-10)
(-1.55689e-09 -6.58973e-11 6.66496e-10)
(-9.18952e-10 -7.91726e-11 7.75032e-10)
(-2.92896e-10 -1.04349e-10 8.60085e-10)
(2.84276e-10 -9.84995e-11 8.91035e-10)
(7.52855e-10 -8.71865e-11 8.7855e-10)
(1.08621e-09 -1.18603e-11 8.18284e-10)
(-1.43603e-09 1.86919e-10 2.0596e-10)
(-1.5561e-09 1.50029e-10 3.95744e-10)
(-1.54693e-09 9.95586e-11 5.70518e-10)
(-1.22852e-09 2.84919e-11 7.3733e-10)
(-7.26297e-10 -9.57111e-12 8.63278e-10)
(-1.87173e-10 -3.42971e-11 9.59718e-10)
(3.47281e-10 -5.02091e-11 1.00676e-09)
(7.64162e-10 -3.64536e-11 9.61927e-10)
(9.84748e-10 -6.03e-12 9.26514e-10)
(-1.07731e-09 2.51702e-10 2.07815e-10)
(-1.15556e-09 2.21664e-10 4.05884e-10)
(-1.13839e-09 1.79454e-10 6.013e-10)
(-8.87318e-10 1.29962e-10 7.76475e-10)
(-1.25407e-09 7.77406e-11 1.61877e-10)
(-1.35593e-09 4.62996e-11 2.78989e-10)
(-1.35844e-09 1.21259e-13 3.96978e-10)
(-1.02902e-09 -6.50096e-11 5.0076e-10)
(-8.24493e-10 -7.40951e-11 5.58026e-10)
(-4.95607e-10 -7.43074e-11 6.12695e-10)
(-2.29132e-10 -6.21577e-11 6.15774e-10)
(-4.89996e-10 -3.49034e-11 5.84534e-10)
(2.12598e-10 1.95931e-10 1.6977e-10)
(-1.17081e-09 1.03774e-10 1.67227e-10)
(-1.27942e-09 7.15219e-11 2.96222e-10)
(-1.46011e-09 4.61419e-11 4.52115e-10)
(-1.29369e-09 -9.98481e-11 5.33855e-10)
(-8.32816e-10 -9.45888e-11 6.11661e-10)
(-4.40806e-10 -8.2579e-11 6.74215e-10)
(-8.81884e-11 -6.78329e-11 6.91889e-10)
(7.08505e-11 -6.80282e-11 6.684e-10)
(5.76305e-10 1.07149e-11 4.94701e-10)
(-1.00958e-09 1.50714e-10 1.67065e-10)
(-1.0898e-09 1.17498e-10 3.05907e-10)
(-1.17456e-09 7.92488e-11 4.48955e-10)
(-1.00855e-09 1.62522e-11 5.70396e-10)
(-6.866e-10 -1.86836e-11 6.79701e-10)
(-3.544e-10 -2.26217e-11 7.54082e-10)
(7.65824e-12 -2.44176e-11 7.70708e-10)
(1.88701e-10 -9.64541e-12 7.42528e-10)
(5.52887e-10 3.71984e-11 6.1028e-10)
(-8.07448e-10 2.09059e-10 1.68961e-10)
(-8.40994e-10 1.782e-10 3.1307e-10)
(-9.1503e-10 1.40522e-10 4.68498e-10)
(-7.46515e-10 1.14483e-10 6.04428e-10)
(-5.15494e-10 9.50052e-11 7.18195e-10)
(-2.38688e-10 7.80435e-11 7.97976e-10)
)
;

boundaryField
{
    inlet
    {
        type            calculated;
        value           nonuniform 0();
    }
    outlet
    {
        type            calculated;
        value           nonuniform List<vector> 
12
(
(3.06684e-08 -1.92463e-09 -7.32978e-11)
(1.88784e-09 -1.8054e-09 2.3171e-09)
(2.05044e-09 2.15072e-09 2.02821e-09)
(8.86283e-10 -1.43553e-10 4.35505e-10)
(1.39414e-09 -6.14509e-10 1.47697e-09)
(1.15442e-09 -6.59058e-10 1.35024e-09)
(1.45755e-09 -7.77328e-11 1.07512e-09)
(4.82148e-10 4.63627e-10 -1.10374e-10)
(7.04855e-10 5.45289e-11 6.626e-10)
(-3.47289e-09 1.82273e-09 -3.47282e-09)
(3.07675e-10 -6.93813e-10 -1.01659e-10)
(-9.47131e-11 1.41843e-10 -4.67103e-10)
)
;
    }
    wall
    {
        type            calculated;
        value           nonuniform List<vector> 
66
(
(3.6682e-10 -4.07418e-11 1.51133e-11)
(2.81536e-10 -5.13915e-11 3.43228e-11)
(-1.19459e-10 -5.29991e-11 9.57926e-12)
(-3.5205e-10 -7.43553e-11 2.98529e-11)
(1.21632e-09 -3.31309e-11 4.24644e-11)
(1.73858e-09 -1.07728e-10 2.41063e-11)
(9.47611e-10 -3.07053e-11 4.24888e-11)
(9.68346e-10 4.67127e-11 4.09514e-11)
(5.10537e-11 -1.22404e-10 3.22982e-11)
(-1.63002e-09 4.5668e-10 6.53985e-10)
(-2.39035e-10 -2.2206e-11 1.05846e-10)
(-7.77505e-10 -1.05294e-10 2.33427e-10)
(3.05113e-09 -1.91771e-10 2.58946e-10)
(-2.60922e-09 -1.16388e-09 1.36506e-10)
(-3.3218e-10 -7.1187e-11 1.02715e-10)
(-1.26279e-10 5.99491e-11 2.62341e-10)
(-8.11169e-10 -4.92856e-11 -1.5031e-11)
(-8.44455e-10 -4.57964e-10 1.16068e-10)
(-8.78681e-10 -2.42156e-10 2.95288e-10)
(-6.85511e-10 6.32543e-11 3.2667e-10)
(-1.51043e-09 -6.84475e-11 1.29933e-10)
(-1.64808e-09 -2.35704e-10 2.02847e-10)
(-2.25064e-09 -1.19357e-10 4.59317e-10)
(-1.59027e-09 3.00935e-11 3.49647e-10)
(-8.5374e-10 4.02909e-11 -2.36859e-10)
(-1.50809e-09 1.10883e-10 6.23108e-11)
(-1.10826e-09 -1.07416e-11 1.18214e-11)
(-1.63026e-08 -6.45592e-10 1.10995e-09)
(-5.10268e-09 -7.29199e-10 7.54957e-10)
(-5.0148e-09 -2.45028e-10 7.49719e-10)
(-5.40506e-09 4.87275e-09 -8.26798e-09)
(1.28538e-09 2.62105e-10 -6.96403e-10)
(-1.59145e-10 2.54593e-10 -1.07943e-09)
(-5.79237e-10 3.25553e-11 4.39768e-12)
(-5.40348e-10 3.43151e-11 -1.60249e-11)
(1.08825e-10 -3.66972e-11 1.69613e-12)
(-1.10995e-09 -8.89532e-11 1.05776e-10)
(-3.62596e-10 -9.34837e-11 5.85387e-11)
(5.01403e-10 -2.77343e-11 1.84224e-11)
(-5.92453e-10 -1.19518e-10 2.62949e-10)
(-3.42532e-10 -1.13457e-10 4.51442e-11)
(-1.97676e-10 -1.1787e-10 1.85872e-11)
(-9.25396e-10 -8.80057e-11 5.08518e-10)
(-4.58171e-10 -1.12457e-10 2.08167e-10)
(1.67801e-09 -2.61264e-10 2.88554e-10)
(2.68365e-09 -1.83541e-10 2.48456e-10)
(-3.1503e-10 -1.15507e-10 6.18784e-10)
(-4.60523e-10 -1.02502e-10 2.26685e-10)
(-6.7163e-10 -1.75873e-10 1.54536e-10)
(-8.40438e-10 -5.25897e-11 -1.80906e-11)
(5.62318e-11 -4.86636e-10 7.40151e-10)
(-1.66538e-10 -1.68314e-10 3.49338e-10)
(-4.09778e-10 -6.72565e-11 1.33191e-10)
(-1.02261e-09 -6.83326e-11 1.31905e-10)
(4.4165e-10 -4.08457e-10 1.09109e-09)
(3.39868e-10 -1.42141e-10 3.78136e-10)
(1.70735e-10 -1.80681e-10 1.26867e-10)
(-6.64421e-10 9.74308e-14 -1.87328e-10)
(-1.02891e-11 -3.62868e-10 2.52361e-10)
(1.12383e-10 -1.43328e-10 2.70259e-10)
(-7.1043e-10 -1.11847e-10 4.03339e-10)
(-1.36137e-08 -5.0989e-10 9.89617e-10)
(2.92849e-08 -1.92488e-09 -2.27742e-10)
(5.49998e-10 -1.54968e-10 4.15142e-10)
(2.68153e-09 -1.17755e-11 8.9456e-10)
(-4.38308e-09 3.58148e-09 -7.25281e-09)
)
;
    }
    procBoundary5to1
    {
        type            processor;
        value           nonuniform List<vector> 
32
(
(-8.95742e-09 2.1062e-10 1.49282e-09)
(-4.1735e-09 1.43111e-10 1.6592e-09)
(-5.54528e-10 9.74994e-11 1.9842e-09)
(2.44042e-09 1.37044e-10 2.47405e-09)
(5.48241e-09 2.74605e-10 3.03219e-09)
(8.18008e-09 3.13371e-10 3.35516e-09)
(-1.09212e-08 2.9594e-10 1.44664e-09)
(-6.95256e-09 1.89087e-10 1.62437e-09)
(-3.45624e-09 9.51133e-11 1.80301e-09)
(-5.73698e-10 -2.53095e-11 2.07523e-09)
(1.82419e-09 -9.96412e-11 2.41339e-09)
(3.98216e-09 -8.28858e-11 2.68197e-09)
(5.84848e-09 -1.83625e-11 2.75778e-09)
(-7.93896e-09 3.36265e-10 1.16174e-09)
(-6.77786e-09 3.00443e-10 1.50192e-09)
(-4.65091e-09 1.59106e-10 1.74022e-09)
(-2.43748e-09 4.89219e-11 1.93946e-09)
(-4.14207e-10 -8.01091e-11 2.13224e-09)
(1.33238e-09 -2.92368e-10 2.31565e-09)
(2.77322e-09 -3.77256e-10 2.28893e-09)
(3.869e-09 -3.69177e-10 2.17379e-09)
(-7.21067e-09 1.86688e-10 4.67944e-10)
(-8.65907e-09 1.76142e-10 7.47355e-10)
(-7.12216e-09 1.5028e-10 9.63273e-10)
(-7.12216e-09 1.5028e-10 9.63273e-10)
(-7.12216e-09 1.5028e-10 9.63273e-10)
(-5.61653e-09 2.23406e-10 4.88113e-10)
(-6.50678e-09 2.0797e-10 8.01731e-10)
(-6.50678e-09 2.0797e-10 8.01731e-10)
(-6.50678e-09 2.0797e-10 8.01731e-10)
(-3.76219e-09 2.81736e-10 4.76685e-10)
(-3.76219e-09 2.81736e-10 4.76685e-10)
)
;
    }
    procBoundary5to4
    {
        type            processor;
        value           nonuniform List<vector> 
12
(
(-2.63721e-09 1.43492e-10 9.95973e-11)
(-2.25036e-09 1.83373e-10 8.90415e-11)
(-1.66841e-09 2.40559e-10 8.50953e-11)
(-1.1104e-09 3.07529e-10 9.00255e-11)
(-1.51088e-09 1.1375e-10 6.20236e-11)
(-1.36815e-09 1.49197e-10 5.6858e-11)
(-1.0975e-09 2.1456e-10 4.61761e-11)
(-8.25394e-10 2.85532e-10 4.1375e-11)
(-9.82394e-10 9.95565e-11 5.28487e-11)
(-8.94619e-10 1.3146e-10 4.81841e-11)
(-7.57316e-10 1.96267e-10 4.14771e-11)
(-6.20121e-10 2.91944e-10 3.83505e-11)
)
;
    }
    procBoundary5to7
    {
        type            processor;
        value           nonuniform List<vector> 
44
(
(-2.61888e-09 3.1411e-10 8.15757e-10)
(-2.42139e-09 2.51664e-10 1.12124e-09)
(-1.80269e-09 1.53716e-10 1.39097e-09)
(-9.18669e-10 9.679e-11 1.59375e-09)
(5.13026e-11 7.55162e-11 1.77975e-09)
(9.12777e-10 -2.76379e-11 1.85249e-09)
(1.60012e-09 -6.70346e-11 1.75421e-09)
(2.04969e-09 -1.95365e-12 1.67889e-09)
(-2.31407e-09 3.34015e-10 4.64102e-10)
(-2.61888e-09 3.1411e-10 8.15757e-10)
(-1.53898e-09 2.30876e-10 8.36053e-10)
(-1.18267e-09 1.57347e-10 1.05119e-09)
(-5.93659e-10 1.05945e-10 1.21693e-09)
(8.54e-11 8.0117e-11 1.37709e-09)
(7.12949e-10 3.76108e-11 1.44525e-09)
(1.18968e-09 7.78169e-12 1.39007e-09)
(1.47871e-09 1.55464e-11 1.41048e-09)
(-9.02345e-10 3.29455e-10 2.84744e-10)
(-1.53898e-09 2.30876e-10 8.36053e-10)
(-1.03964e-09 3.11139e-10 5.43038e-10)
(-1.53898e-09 2.30876e-10 8.36053e-10)
(-1.18267e-09 1.57347e-10 1.05119e-09)
(-4.96608e-10 1.09746e-10 9.04578e-10)
(-3.60644e-11 8.69377e-11 1.01384e-09)
(4.40568e-10 5.58743e-11 1.07526e-09)
(7.87868e-10 5.56638e-11 1.02938e-09)
(9.67314e-10 4.67653e-11 9.8205e-10)
(-6.91978e-10 2.88482e-10 1.93351e-10)
(-7.69132e-10 2.7894e-10 3.91699e-10)
(-7.82091e-10 2.60489e-10 5.79283e-10)
(-4.96608e-10 1.09746e-10 9.04578e-10)
(-6.07521e-10 2.34612e-10 7.64337e-10)
(-4.96608e-10 1.09746e-10 9.04578e-10)
(-3.60644e-11 8.69377e-11 1.01384e-09)
(8.33924e-11 5.79138e-11 8.29791e-10)
(1.96329e-10 8.17853e-11 8.11615e-10)
(5.99747e-10 1.15447e-10 6.62706e-10)
(-5.39543e-10 2.56498e-10 1.58574e-10)
(-5.58929e-10 2.38383e-10 3.04697e-10)
(-6.48735e-10 2.21796e-10 4.54984e-10)
(-5.36927e-10 2.04152e-10 5.98165e-10)
(-3.88947e-10 1.98996e-10 7.33008e-10)
(8.33924e-11 5.79138e-11 8.29791e-10)
(-1.5541e-10 1.86775e-10 8.27989e-10)
)
;
    }
}


// ************************************************************************* //
