/*--------------------------------*- C++ -*----------------------------------*\
| =========                 |                                                 |
| \\      /  F ield         | OpenFOAM: The Open Source CFD Toolbox           |
|  \\    /   O peration     | Version:  4.x                                   |
|   \\  /    A nd           | Web:      www.OpenFOAM.org                      |
|    \\/     M anipulation  |                                                 |
\*---------------------------------------------------------------------------*/
FoamFile
{
    version     2.0;
    format      ascii;
    class       volScalarField;
    location    "37.5";
    object      Ksl;
}
// * * * * * * * * * * * * * * * * * * * * * * * * * * * * * * * * * * * * * //

dimensions      [1 -3 -1 0 0 0 0];

internalField   nonuniform List<scalar> 
114
(
3555.15
26651.2
4051.97
1e+10
5722.41
119570
1e+10
3779.15
1e+10
3907.75
242339
4380.82
16383.6
4131.39
1e+10
4178.34
1e+10
4277.08
6.67928e+06
4688.79
13392.4
7160.32
3063.83
7393.89
2927.65
8029.09
2755.54
9476.62
2414.34
7745.9
31737.5
3541.35
63978.8
3476.2
71627.1
3432.34
23335.7
3463.85
6121.11
530353
3679.84
1e+10
3628.62
612506
3514.26
46082.7
3610.67
13280
1e+10
3803.02
7681.74
3205.48
8215.55
3127.52
9050.39
3072.17
11446.5
3074.2
16389
14883.2
3467.54
17789.1
3341.19
21590.3
3222.72
20715.7
2994.66
10518.9
79102.7
3653.33
1e+10
3685.29
1e+10
3855.52
33915.7
4155.18
7123.25
42451.7
3610.8
53601.1
3512.27
4854.45
2730.37
4621.56
2535.27
4553.3
2257.73
4768.25
1784.85
5315.35
6112.73
2975.04
5994.24
2789.89
6128.94
2571.08
7025.09
2283.92
9531.27
7382.77
3118.64
7549.32
2965.79
7547.47
2742.64
7693.93
2307.9
7529.65
7425.9
3113.42
7726.9
2998.02
8296.72
2788.06
)
;

boundaryField
{
    inlet
    {
        type            zeroGradient;
    }
    outlet
    {
        type            zeroGradient;
    }
    wall
    {
        type            zeroGradient;
    }
    procBoundary5to1
    {
        type            processor;
        value           nonuniform List<scalar> 
32
(
2892.66
7085.51
2672.51
7907.36
2454.51
8012.78
13724.5
3222.59
13623.2
3008.77
11476.1
2742.56
7760.76
3667.12
35484.3
3621.29
30168.9
3575.71
17547.4
3662.31
7831.89
8413.38
3322.14
11476.4
11476.4
11476.4
63437.8
3740.96
3740.96
3740.96
1e+10
1e+10
)
;
    }
    procBoundary5to4
    {
        type            processor;
        value           nonuniform List<scalar> 
12
(
3180.62
3608.37
3730.64
3841.46
3256.19
3535.68
3686.64
3663.1
2901.68
3078.33
3211.94
3202.79
)
;
    }
    procBoundary5to7
    {
        type            processor;
        value           nonuniform List<scalar> 
44
(
3816.44
1e+10
3782.89
1e+10
3802.46
1e+10
4187.18
21765.5
1e+10
3816.44
1e+10
3756.17
1e+10
3755.25
1e+10
4059.09
14442.1
1e+10
1e+10
3885.63
1e+10
3756.17
33604.8
3430.56
17380.8
3519.54
6476.89
3.0532e+06
3743.05
1e+10
33604.8
3740.68
33604.8
3430.56
8515.04
2405.09
8815.63
9245.54
3276.73
10548.4
3219.33
11665.4
8515.04
3098.09
)
;
    }
}


// ************************************************************************* //
