/*--------------------------------*- C++ -*----------------------------------*\
| =========                 |                                                 |
| \\      /  F ield         | OpenFOAM: The Open Source CFD Toolbox           |
|  \\    /   O peration     | Version:  4.x                                   |
|   \\  /    A nd           | Web:      www.OpenFOAM.org                      |
|    \\/     M anipulation  |                                                 |
\*---------------------------------------------------------------------------*/
FoamFile
{
    version     2.0;
    format      ascii;
    class       volScalarField;
    location    "37.5";
    object      particleRelTemp;
}
// * * * * * * * * * * * * * * * * * * * * * * * * * * * * * * * * * * * * * //

dimensions      [0 0 0 0 0 0 0];

internalField   nonuniform List<scalar> 
114
(
1.38399e-10
1.97967e-10
2.43774e-10
3.08885e-10
3.51638e-10
4.01813e-10
1.7505e-10
2.13239e-10
2.91554e-10
3.50087e-10
4.06441e-10
4.53004e-10
5.10371e-10
1.64324e-10
2.39586e-10
3.05576e-10
3.54897e-10
4.1549e-10
4.87802e-10
5.39925e-10
6.01642e-10
-1.15849e-11
1.44721e-11
8.45442e-11
1.02991e-10
1.69406e-10
2.06202e-10
2.67846e-10
2.96142e-10
3.56683e-10
3.19913e-11
8.33643e-11
1.49181e-10
1.90799e-10
2.61848e-10
3.18498e-10
3.63099e-10
4.20396e-10
4.64728e-10
9.74942e-11
1.81287e-10
2.15129e-10
2.86874e-10
3.47284e-10
3.96967e-10
4.67061e-10
5.31747e-10
5.62481e-10
1.15131e-10
2.14232e-10
-4.45088e-11
-1.49339e-11
2.6187e-11
5.29458e-11
1.08363e-10
1.02357e-10
1.73644e-10
1.95406e-10
2.78802e-10
7.85323e-12
4.10714e-11
8.23641e-11
1.36884e-10
1.88306e-10
2.45091e-10
2.60269e-10
2.85861e-10
3.61188e-10
6.32238e-11
1.06045e-10
1.59455e-10
2.07838e-10
2.7762e-10
3.27587e-10
3.77453e-10
4.24252e-10
4.63304e-10
5.01453e-11
1.25227e-10
1.86458e-10
2.4638e-10
-9.85635e-11
-7.61828e-11
-6.73004e-11
-2.07238e-11
2.35117e-11
1.97559e-11
6.78914e-11
8.84529e-11
1.56704e-10
-5.01857e-11
-2.30386e-11
1.45214e-11
5.91065e-11
9.82917e-11
1.3669e-10
1.82344e-10
2.00674e-10
2.6101e-10
-4.96849e-12
3.35686e-11
8.69509e-11
1.38907e-10
2.01595e-10
2.54208e-10
2.76765e-10
3.085e-10
3.4423e-10
6.03997e-12
5.41169e-11
1.16004e-10
1.74974e-10
2.44887e-10
2.88741e-10
)
;

boundaryField
{
    inlet
    {
        type            calculated;
        value           nonuniform 0();
    }
    outlet
    {
        type            calculated;
        value           nonuniform List<scalar> 
12
(
4.01813e-10
5.10371e-10
6.01642e-10
3.56683e-10
4.64728e-10
5.62481e-10
2.78802e-10
3.61188e-10
4.63304e-10
1.56704e-10
2.6101e-10
3.4423e-10
)
;
    }
    wall
    {
        type            calculated;
        value           nonuniform List<scalar> 
66
(
-9.85635e-11
-5.01857e-11
-4.96849e-12
6.03997e-12
-7.61828e-11
-2.30386e-11
3.35686e-11
5.41169e-11
-6.73004e-11
1.45214e-11
8.69509e-11
1.16004e-10
-2.07238e-11
5.91065e-11
1.38907e-10
1.74974e-10
2.35117e-11
9.82917e-11
2.01595e-10
2.44887e-10
1.97559e-11
1.3669e-10
2.54208e-10
2.88741e-10
6.78914e-11
1.82344e-10
2.76765e-10
8.84529e-11
2.00674e-10
3.085e-10
1.56704e-10
2.6101e-10
3.4423e-10
-1.15849e-11
-4.45088e-11
-9.85635e-11
1.44721e-11
-1.49339e-11
-7.61828e-11
8.45442e-11
2.6187e-11
-6.73004e-11
1.38399e-10
1.02991e-10
5.29458e-11
-2.07238e-11
1.97967e-10
1.69406e-10
1.08363e-10
2.35117e-11
2.43774e-10
2.06202e-10
1.02357e-10
1.97559e-11
3.08885e-10
2.67846e-10
1.73644e-10
6.78914e-11
3.51638e-10
2.96142e-10
1.95406e-10
8.84529e-11
4.01813e-10
3.56683e-10
2.78802e-10
1.56704e-10
)
;
    }
    procBoundary5to1
    {
        type            processor;
        value           nonuniform List<scalar> 
32
(
1.05981e-10
1.5875e-10
2.28205e-10
2.7861e-10
2.97625e-10
3.39482e-10
1.1641e-10
1.70312e-10
2.43694e-10
2.97342e-10
3.66694e-10
4.15983e-10
4.78337e-10
1.45027e-10
1.77929e-10
2.57238e-10
3.19377e-10
3.88396e-10
4.52508e-10
5.14183e-10
5.41514e-10
-1.61443e-11
2.96407e-11
8.26143e-11
8.26143e-11
8.26143e-11
4.71946e-11
1.12154e-10
1.12154e-10
1.12154e-10
9.8937e-11
9.8937e-11
)
;
    }
    procBoundary5to4
    {
        type            processor;
        value           nonuniform List<scalar> 
12
(
-6.05129e-11
-1.01198e-11
3.55081e-11
5.93607e-11
-9.24855e-11
-4.76538e-11
-7.46948e-12
1.5196e-11
-1.39705e-10
-9.42787e-11
-5.39948e-11
-4.03182e-11
)
;
    }
    procBoundary5to7
    {
        type            processor;
        value           nonuniform List<scalar> 
44
(
1.97353e-10
2.58098e-10
3.30567e-10
3.87952e-10
4.64708e-10
5.28034e-10
5.93426e-10
6.23018e-10
1.3174e-10
1.97353e-10
2.63516e-10
3.17023e-10
3.77608e-10
4.44645e-10
5.05292e-10
5.68862e-10
6.02019e-10
1.19727e-10
2.63516e-10
1.7289e-10
2.63516e-10
3.17023e-10
3.41104e-10
3.73031e-10
4.24433e-10
4.62963e-10
5.35507e-10
4.54272e-11
1.33659e-10
1.75641e-10
3.41104e-10
2.37374e-10
3.41104e-10
3.73031e-10
3.32417e-10
3.72981e-10
3.95753e-10
-8.70298e-12
4.55742e-11
1.11334e-10
1.61771e-10
2.19458e-10
3.32417e-10
2.67131e-10
)
;
    }
}


// ************************************************************************* //
