/*--------------------------------*- C++ -*----------------------------------*\
  =========                 |
  \\      /  F ield         | OpenFOAM: The Open Source CFD Toolbox
   \\    /   O peration     | Website:  https://openfoam.org
    \\  /    A nd           | Version:  4.x
     \\/     M anipulation  |
\*---------------------------------------------------------------------------*/
FoamFile
{
    version     2.0;
    format      ascii;
    class       Cloud<passiveParticle>;
    location    0;
    object      positions;
}
// * * * * * * * * * * * * * * * * * * * * * * * * * * * * * * * * * * * * * //

348
(
( 0.256083 -0.0172349 0.0199763 ) 39
( 0.253249 -0.00317213 0.0337024 ) 48
( 0.256965 0.0116431 0.0209285 ) 48
( 0.421224 -0.0532262 -0.00939369 ) 10
( 0.328432 -0.0516084 0.0355964 ) 32
( 0.439677 -0.0867341 -0.00617107 ) 3
( 0.479818 -0.0721244 0.0133747 ) 5
( 0.429413 -0.0905588 0.0309665 ) 27
( 0.346643 -0.0575922 0.0231277 ) 33
( 0.469066 -0.0594016 0.0236777 ) 37
( 0.438584 -0.0210232 0.0177812 ) 45
( 0.477625 -0.0231393 -0.000290596 ) 20
( 0.344235 -0.0902034 0.00357857 ) 0
( 0.431803 -0.0409195 0.0119127 ) 18
( 0.456653 -0.0434042 0.000602573 ) 11
( 0.287718 -0.0166781 -0.00538769 ) 13
( 0.373457 -0.0737799 0.00179887 ) 1
( 0.402794 -0.0578116 -0.00413328 ) 9
( 0.280692 -0.0346717 -0.00974239 ) 13
( 0.345006 -0.0182687 0.00426577 ) 15
( 0.393027 -0.0731037 0.00361851 ) 2
( 0.283144 -0.0296827 0.00907284 ) 13
( 0.321826 -0.0256974 -0.00888195 ) 14
( 0.333705 -0.0747305 -0.00342218 ) 0
( 0.363983 -0.0843416 0.0306441 ) 25
( 0.362926 -0.0224686 -0.00298017 ) 16
( 0.489651 -0.0448066 0.0248184 ) 38
( 0.435986 -0.0902636 0.0126725 ) 3
( 0.481815 -0.0718555 -0.00618202 ) 5
( 0.370548 -0.0543981 0.00550294 ) 8
( 0.432826 -0.055019 0.0260987 ) 36
( 0.448818 -0.0717963 0.00271248 ) 4
( 0.312608 -0.0762258 0.0169582 ) 23
( 0.391677 -0.0907137 0.0243213 ) 26
( 0.348606 -0.0717581 0.00936443 ) 0
( 0.418892 -0.0312226 0.0283521 ) 45
( 0.398047 -0.0880424 -0.00879488 ) 2
( 0.421799 -0.0773467 0.0178898 ) 27
( 0.310817 -0.0570008 0.0226782 ) 32
( 0.425176 -0.0298461 -0.00903069 ) 18
( 0.452394 -0.0666556 0.0314 ) 37
( 0.465892 -0.0316763 -0.0133298 ) 19
( 0.401582 -0.0262152 0.0156787 ) 44
( 0.340148 -0.0562849 -0.00498657 ) 7
( 0.325347 -0.0242214 0.0105984 ) 14
( 0.360497 -0.0862697 -0.00686639 ) 0
( 0.322019 -0.0622531 0.00675117 ) 6
( 0.38423 -0.0385499 0.0238886 ) 43
( 0.38359 -0.0577559 0.019352 ) 34
( 0.278033 -0.0599539 0.0190196 ) 31
( 0.322385 -0.0593549 -0.0130134 ) 6
( 0.403742 -0.0434992 0.0245066 ) 35
( 0.346976 -0.090248 0.0230658 ) 24
( 0.454994 -0.0175925 0.0285349 ) 46
( 0.391141 -0.0281419 -0.00109413 ) 17
( 0.260577 -0.071868 0.0226339 ) 21
( 0.454566 -0.0905163 0.00630425 ) 4
( 0.384743 -0.0905178 0.00595918 ) 1
( 0.359389 -0.0416579 -0.00407206 ) 15
( 0.490475 -0.0171318 0.013071 ) 20
( 0.465505 -0.061813 0.00451833 ) 11
( 0.489122 -0.0557041 0.00816978 ) 12
( 0.474673 -0.0904776 0.020009 ) 29
( 0.490358 -0.0361531 0.00702457 ) 20
( 0.420444 -0.0901737 -0.00420988 ) 3
( 0.45347 -0.0341098 0.0176245 ) 46
( 0.421106 -0.0245053 0.0097358 ) 18
( 0.417038 -0.0534583 0.0141049 ) 10
( 0.356171 -0.0319164 0.0130813 ) 15
( 0.330698 -0.0475335 0.0165162 ) 32
( 0.376446 -0.0211569 0.028383 ) 43
( 0.272227 -0.0274534 0.0251767 ) 39
( 0.449654 -0.0556229 0.014738 ) 37
( 0.35703 -0.0205131 0.0288194 ) 42
( 0.265301 -0.0459796 0.0248947 ) 30
( 0.381873 -0.0450062 -0.0079541 ) 8
( 0.44695 -0.0263405 0.000498941 ) 19
( 0.403558 -0.0668162 0.0187109 ) 35
( 0.302576 -0.0290676 0.00274827 ) 13
( 0.313165 -0.0385744 0.0162779 ) 41
( 0.458184 -0.0850201 -0.0125423 ) 4
( 0.366309 -0.0471484 0.0242435 ) 34
( 0.364604 -0.0664975 0.0198775 ) 34
( 0.32172 -0.0438074 -0.000828158 ) 6
( 0.47317 -0.0488893 -0.00762929 ) 12
( 0.471773 -0.029403 0.0248388 ) 46
( 0.479588 -0.0884604 0.0394554 ) 29
( 0.310981 -0.0419947 0.0354745 ) 41
( 0.358268 -0.0640462 -0.00605858 ) 7
( 0.458941 -0.065126 -0.0136912 ) 11
( 0.365545 -0.090054 0.0118557 ) 1
( 0.332642 -0.0747215 0.0206835 ) 23
( 0.453791 -0.0472829 0.0321735 ) 37
( 0.291013 -0.0718375 0.0280797 ) 22
( 0.341183 -0.0384635 0.00283463 ) 15
( 0.472908 -0.0900621 -0.000563763 ) 5
( 0.490895 -0.054276 -0.0114798 ) 12
( 0.316088 -0.0224338 0.0280316 ) 41
( 0.4105 -0.0901405 0.0279245 ) 26
( 0.411129 -0.0393403 0.0014154 ) 17
( 0.43301 -0.0603344 0.0049421 ) 10
( 0.489588 -0.0631247 0.0313675 ) 38
( 0.393562 -0.0454604 0.00792617 ) 9
( 0.380799 -0.0749661 0.0276325 ) 25
( 0.473132 -0.0443012 0.0118725 ) 12
( 0.339406 -0.0294965 0.0232474 ) 42
( 0.461271 -0.0761928 0.0172423 ) 28
( 0.37463 -0.0346501 0.00734154 ) 16
( 0.268957 -0.0900626 0.019018 ) 21
( 0.48994 -0.0900075 -0.0120046 ) 5
( 0.438394 -0.0440343 -0.00613308 ) 10
( 0.316253 -0.0901257 0.0302888 ) 23
( 0.378857 -0.090118 -0.0130656 ) 1
( 0.293094 -0.0442626 0.0270462 ) 31
( 0.406313 -0.0869656 0.00909155 ) 2
( 0.417283 -0.0710238 -0.000304574 ) 10
( 0.373394 -0.0405881 0.0416347 ) 43
( 0.452909 -0.0904553 0.0274555 ) 28
( 0.472683 -0.045258 0.0363056 ) 38
( 0.273751 0.0049074 0.0288264 ) 48
( 0.491036 -0.0816989 0.0257231 ) 29
( 0.437749 -0.0363775 0.029959 ) 45
( 0.49044 -0.0901341 0.00789301 ) 5
( 0.341688 -0.0440536 0.0523764 ) 62
( 0.322654 -0.0609919 0.0518867 ) 61
( 0.282137 -0.0108888 0.0551376 ) 78
( 0.267132 -0.0899651 0.0394281 ) 21
( 0.382898 -0.0241404 0.0468053 ) 72
( 0.398194 -0.0905009 0.0520489 ) 55
( 0.423264 -0.0351646 0.057183 ) 74
( 0.347881 -0.0707507 0.0552206 ) 62
( 0.340509 -0.0903488 0.0570191 ) 53
( 0.489781 -0.0339965 -0.0125426 ) 20
( 0.29637 0.00147195 0.0483657 ) 78
( 0.28947 -0.0247745 0.0432439 ) 69
( 0.32766 -0.00948446 0.0488992 ) 79
( 0.485104 -0.0234253 0.048457 ) 76
( 0.271752 -0.0729585 0.0575686 ) 50
( 0.387168 -0.0553969 0.0522451 ) 63
( 0.439342 -0.0685485 0.0540119 ) 65
( 0.265417 -0.0536715 0.0519322 ) 59
( 0.461574 -0.0904524 0.0454269 ) 57
( 0.45425 -0.0170759 0.0576638 ) 75
( 0.490385 -0.0902824 0.0771898 ) 89
( 0.312435 -0.0419098 0.0678886 ) 70
( 0.299012 -0.0581673 0.0590825 ) 60
( 0.362246 -0.0342527 0.056759 ) 72
( 0.374729 -0.0902923 0.0582608 ) 54
( 0.420638 -0.0739078 0.0571568 ) 56
( 0.37089 -0.0561716 0.063454 ) 63
( 0.456248 -0.0596619 0.0490482 ) 66
( 0.285065 -0.0901748 0.0581348 ) 51
( 0.489746 -0.0551644 0.0589807 ) 67
( 0.326419 -0.0777247 0.0614451 ) 52
( 0.348511 0.0104927 0.0617998 ) 80
( 0.438574 -0.0481327 0.0575655 ) 65
( 0.471337 -0.0734063 0.0600533 ) 57
( 0.431434 -0.090117 0.0611603 ) 56
( 0.3354 -0.0241912 0.0598227 ) 71
( 0.462299 -0.035631 0.0684122 ) 75
( 0.283946 -0.029781 0.0616096 ) 69
( 0.401135 -0.0432065 0.0581023 ) 64
( 0.368373 -0.0153411 0.0572665 ) 72
( 0.323891 0.00747061 0.0590715 ) 79
( 0.283775 0.00667417 0.0638741 ) 78
( 0.386691 -0.0748025 0.0528709 ) 54
( 0.434658 -0.0199475 0.0630979 ) 74
( 0.310464 -0.0258657 0.0467387 ) 70
( 0.335474 -0.0570118 0.0662074 ) 62
( 0.380643 -0.038867 0.0600843 ) 72
( 0.255707 -0.0205764 0.0425126 ) 39
( 0.254552 -0.0417264 0.0408549 ) 39
( 0.265705 -0.0221163 0.0594011 ) 68
( 0.40273 -0.0237471 0.0549696 ) 73
( 0.454987 -0.0398463 0.0504919 ) 75
( 0.417471 -0.0902892 0.0467432 ) 56
( 0.310259 -0.00948871 0.0575543 ) 79
( 0.367218 -0.0727347 0.0532253 ) 54
( 0.425415 -0.0572388 0.0466157 ) 65
( 0.336554 -0.0703858 0.0393895 ) 33
( 0.359026 -0.0520098 0.0486978 ) 62
( 0.472286 -0.0687859 0.0408417 ) 38
( 0.255373 -0.0756455 0.046934 ) 50
( 0.374014 -0.0600232 0.0384006 ) 34
( 0.29675 -0.0418534 0.0489285 ) 69
( 0.355537 -0.0877592 0.0704428 ) 53
( 0.420882 -0.0529491 0.0654712 ) 65
( 0.260574 0.0139197 0.0399571 ) 48
( 0.29771 -0.0256838 0.0215182 ) 40
( 0.29945 -0.0901388 0.0441197 ) 51
( 0.465892 -0.0248453 0.0434505 ) 75
( 0.353795 -0.00777534 0.0729064 ) 111
( 0.406547 -0.0618763 0.0505356 ) 64
( 0.412241 -0.0438306 0.0419793 ) 35
( 0.434343 -0.0723249 0.0352831 ) 27
( 0.272141 -0.0695949 0.0381805 ) 30
( 0.317559 -0.0705748 0.0351668 ) 32
( 0.473419 -0.0158465 0.0617223 ) 76
( 0.307963 -0.0741162 0.0518739 ) 52
( 0.490152 -0.0739942 0.0479625 ) 58
( 0.380409 -0.090182 0.0399342 ) 25
( 0.490565 -0.0261537 0.0302221 ) 47
( 0.337956 0.00711446 0.0454282 ) 80
( 0.490639 -0.0418363 0.0443646 ) 76
( 0.348988 -0.025521 0.0459244 ) 71
( 0.322497 -0.0412451 0.051437 ) 70
( 0.288828 -0.0736721 0.0476587 ) 51
( 0.26191 -0.09015 0.0585646 ) 50
( 0.272011 -0.0335465 0.0439722 ) 68
( 0.412061 -0.0894144 0.0659431 ) 55
( 0.402897 -0.0603527 0.0695559 ) 64
( 0.350129 -0.0416699 0.0344658 ) 42
( 0.398118 -0.0775646 0.0370989 ) 26
( 0.393029 -0.0401139 0.0409739 ) 44
( 0.334414 -0.0900785 0.0381687 ) 24
( 0.484297 -0.0901831 0.0585303 ) 58
( 0.28048 -0.0551388 0.064099 ) 60
( 0.28501 -0.0903462 0.0307537 ) 22
( 0.300445 -0.0114087 0.0345033 ) 49
( 0.414383 -0.0164384 0.0690254 ) 73
( 0.357873 -0.0901849 0.0482784 ) 53
( 0.392403 -0.0896376 0.0710546 ) 55
( 0.442271 -0.0878792 0.0446877 ) 56
( 0.490817 -0.0350858 0.0637963 ) 76
( 0.355404 -0.046954 0.0723103 ) 93
( 0.415268 -0.0685797 0.0343488 ) 35
( 0.452293 -0.0818063 0.0599529 ) 57
( 0.407114 0.00550857 0.073107 ) 113
( 0.302202 0.00739362 0.0290358 ) 49
( 0.31606 -0.0231853 0.0731761 ) 101
( 0.282087 -0.0527194 0.0412309 ) 31
( 0.395661 -0.0582868 0.0346639 ) 35
( 0.251332 -0.0601921 0.0356367 ) 30
( 0.304523 -0.0901398 0.0636471 ) 51
( 0.294759 -0.0463462 0.0741244 ) 91
( 0.386607 -0.0194197 0.0653837 ) 72
( 0.40214 -0.0236074 0.0353506 ) 44
( 0.474427 -0.0392316 0.0543469 ) 76
( 0.441192 -0.0252826 0.045432 ) 74
( 0.355914 -0.067721 0.0375114 ) 33
( 0.304137 0.0125432 0.0622197 ) 78
( 0.301413 -0.0597413 0.0397057 ) 31
( 0.272914 -0.0124578 0.0378597 ) 48
( 0.265622 -0.0016405 0.064659 ) 77
( 0.335733 0.00856692 0.0762417 ) 111
( 0.444602 -0.0610208 0.0713473 ) 66
( 0.288785 -0.0130022 0.0903623 ) 109
( 0.490043 -0.0730006 0.067715 ) 58
( 0.463054 -0.0567364 0.0669274 ) 66
( 0.380109 -0.0729464 0.071491 ) 85
( 0.329043 -0.008615 0.0697994 ) 79
( 0.443553 -0.0353724 0.0713122 ) 74
( 0.341361 -0.0745346 0.0730548 ) 84
( 0.419311 -0.0201195 0.0449208 ) 74
( 0.467022 -0.090542 0.0689707 ) 57
( 0.347922 -0.00761552 0.0541486 ) 80
( 0.427174 -0.0691802 0.0750973 ) 96
( 0.318398 -0.0906668 0.0497626 ) 52
( 0.408784 -0.034987 0.0732656 ) 104
( 0.385462 -0.0546177 0.0760921 ) 94
( 0.370801 -0.0280106 0.073499 ) 103
( 0.251748 -0.0143349 0.0712959 ) 68
( 0.335368 -0.0387366 0.0731028 ) 102
( 0.294418 -0.0272452 0.0782021 ) 100
( 0.478099 -0.0466003 0.0725132 ) 98
( 0.38984 -0.035096 0.0766206 ) 104
( 0.373489 -0.00840332 0.0751065 ) 112
( 0.28891 -0.0730354 0.0672729 ) 51
( 0.425561 -0.0902241 0.0802319 ) 87
( 0.330329 -0.0271391 0.0405876 ) 41
( 0.267216 -0.0398414 0.0682251 ) 68
( 0.426527 -0.0298766 0.0780313 ) 105
( 0.31201 -0.000428396 0.0747451 ) 110
( 0.477411 -0.027291 0.0770318 ) 107
( 0.312695 -0.0670197 0.0695083 ) 61
( 0.358889 -0.089767 0.0902583 ) 84
( 0.351143 -0.0272554 0.072731 ) 102
( 0.398548 -0.0692496 0.0891797 ) 95
( 0.382967 0.00872478 0.0784576 ) 112
( 0.362213 -0.0642093 0.0796457 ) 94
( 0.277024 -0.0149336 0.0738435 ) 99
( 0.398795 -0.0179286 0.080771 ) 104
( 0.295213 -0.00946797 0.0698325 ) 78
( 0.363941 0.00901699 0.0737352 ) 112
( 0.264151 -0.0622573 0.0720963 ) 90
( 0.327963 -0.0732588 0.0900783 ) 83
( 0.322023 -0.0893678 0.0798538 ) 83
( 0.431938 -0.0501709 0.0816132 ) 96
( 0.406466 -0.0905343 0.0850424 ) 86
( 0.270885 -0.0903456 0.0759963 ) 81
( 0.373632 -0.0904688 0.0773353 ) 85
( 0.28144 -0.0626081 0.0823187 ) 91
( 0.37525 -0.045535 0.090268 ) 94
( 0.344808 -0.00707335 0.0903416 ) 111
( 0.459294 -0.0735686 0.0758798 ) 88
( 0.415715 0.000582048 0.0900594 ) 113
( 0.454809 -0.0473525 0.0821059 ) 97
( 0.287485 0.00566135 0.0843215 ) 109
( 0.386164 -0.00674319 0.0904549 ) 112
( 0.47413 -0.0822898 0.0847612 ) 89
( 0.290502 -0.0900866 0.0774184 ) 82
( 0.380183 -0.0258335 0.0906078 ) 103
( 0.413998 -0.0571652 0.085449 ) 95
( 0.332687 -0.0215645 0.0840843 ) 101
( 0.352363 -0.0385972 0.0901227 ) 102
( 0.251132 -0.0204611 0.090173 ) 99
( 0.378856 -0.0665762 0.0902952 ) 94
( 0.447557 -0.0194228 0.0823685 ) 106
( 0.438055 -0.0788253 0.0904228 ) 87
( 0.270255 0.0127807 0.0903923 ) 108
( 0.255972 0.00168936 0.0824405 ) 108
( 0.490433 -0.0396336 0.0859136 ) 107
( 0.47279 -0.0630628 0.0900756 ) 98
( 0.33905 -0.0901106 0.0901798 ) 84
( 0.307884 -0.0353638 0.0902282 ) 101
( 0.340082 -0.0542301 0.0900343 ) 93
( 0.268742 -0.0295224 0.0903485 ) 99
( 0.490377 -0.0588659 0.0815447 ) 98
( 0.395773 -0.047224 0.0906557 ) 95
( 0.363736 -0.00119323 0.090461 ) 112
( 0.414427 -0.0385727 0.0909959 ) 104
( 0.300308 -0.0732077 0.0830651 ) 82
( 0.268995 -0.00993342 0.0906653 ) 108
( 0.320132 -0.0554267 0.0830871 ) 92
( 0.279407 -0.080401 0.0904466 ) 82
( 0.398702 0.0103393 0.0903065 ) 113
( 0.44469 -0.0903 0.0758634 ) 88
( 0.325297 -0.00270858 0.0900753 ) 110
( 0.305236 -0.0903142 0.0905318 ) 82
( 0.347913 -0.0723953 0.0907856 ) 84
( 0.451116 -0.0643147 0.0906004 ) 97
( 0.471555 -0.0411528 0.0904119 ) 106
( 0.441803 -0.0358802 0.090844 ) 105
( 0.267819 -0.0486725 0.0859664 ) 90
( 0.309242 -0.0154155 0.0901425 ) 101
( 0.416125 -0.0190262 0.090649 ) 104
( 0.386175 -0.0850452 0.090694 ) 85
( 0.490351 -0.0204992 0.0902976 ) 107
( 0.465329 -0.0224067 0.0909421 ) 106
( 0.285264 -0.0401114 0.0901851 ) 100
( 0.306066 0.00884513 0.0905742 ) 110
( 0.417383 -0.075538 0.0906629 ) 87
( 0.490826 -0.0761881 0.0908179 ) 89
( 0.327232 -0.0391443 0.0907346 ) 101
( 0.457688 -0.0903199 0.090465 ) 88
( 0.297629 -0.055535 0.090765 ) 91
( 0.26454 -0.0674738 0.0908036 ) 90
( 0.361023 -0.0207734 0.090152 ) 102
)
