/*--------------------------------*- C++ -*----------------------------------*\
  =========                 |
  \\      /  F ield         | OpenFOAM: The Open Source CFD Toolbox
   \\    /   O peration     | Website:  https://openfoam.org
    \\  /    A nd           | Version:  4.x
     \\/     M anipulation  |
\*---------------------------------------------------------------------------*/
FoamFile
{
    version     2.0;
    format      ascii;
    class       Cloud<passiveParticle>;
    location    0;
    object      positions;
}
// * * * * * * * * * * * * * * * * * * * * * * * * * * * * * * * * * * * * * //

348
(
( 0.255969 -0.0172443 0.0199425 ) 39
( 0.253136 -0.00315865 0.0336355 ) 48
( 0.25688 0.0116566 0.0208616 ) 48
( 0.421191 -0.0532021 -0.00930893 ) 10
( 0.328331 -0.0516004 0.035574 ) 32
( 0.439623 -0.0867273 -0.00612529 ) 3
( 0.479835 -0.0721636 0.0134271 ) 5
( 0.429399 -0.0905623 0.0309814 ) 27
( 0.346517 -0.0575535 0.0231513 ) 33
( 0.469076 -0.0594301 0.0237246 ) 37
( 0.438553 -0.0210334 0.0178107 ) 45
( 0.477598 -0.0231597 -0.000221328 ) 20
( 0.344106 -0.0901633 0.00359684 ) 0
( 0.431845 -0.0409049 0.0119953 ) 18
( 0.456664 -0.0434357 0.000778571 ) 11
( 0.28763 -0.0166737 -0.00541476 ) 13
( 0.373318 -0.0737139 0.00186884 ) 1
( 0.402717 -0.0577724 -0.00410701 ) 9
( 0.280577 -0.0346918 -0.00976833 ) 13
( 0.34492 -0.0182607 0.00427444 ) 15
( 0.392893 -0.0730266 0.00366848 ) 2
( 0.283014 -0.0297193 0.00905775 ) 13
( 0.32172 -0.0256746 -0.00890812 ) 14
( 0.333597 -0.074707 -0.00339574 ) 0
( 0.363945 -0.0843415 0.0306123 ) 25
( 0.362825 -0.0224365 -0.00297752 ) 16
( 0.489656 -0.0448113 0.0248349 ) 38
( 0.435977 -0.0902551 0.0127068 ) 3
( 0.48184 -0.0718378 -0.00613266 ) 5
( 0.370555 -0.0543296 0.0054972 ) 8
( 0.432795 -0.055018 0.0261273 ) 36
( 0.448787 -0.0717481 0.00274718 ) 4
( 0.312466 -0.076214 0.0169256 ) 23
( 0.39166 -0.090705 0.024317 ) 26
( 0.348487 -0.0716853 0.00938806 ) 0
( 0.418852 -0.0312278 0.0283772 ) 45
( 0.397896 -0.0879314 -0.0087137 ) 2
( 0.421842 -0.0773366 0.0179097 ) 27
( 0.310694 -0.0570079 0.0226453 ) 32
( 0.425192 -0.0298568 -0.00897921 ) 18
( 0.45238 -0.0666559 0.0314226 ) 37
( 0.465833 -0.0316707 -0.0132457 ) 19
( 0.401521 -0.0261991 0.0156853 ) 44
( 0.339994 -0.0562249 -0.00497545 ) 7
( 0.325229 -0.0242226 0.0105224 ) 14
( 0.36033 -0.0862381 -0.00689974 ) 0
( 0.321897 -0.0622253 0.0067208 ) 6
( 0.38417 -0.0385367 0.0238743 ) 43
( 0.383568 -0.0577525 0.019341 ) 34
( 0.277933 -0.0599832 0.0190095 ) 31
( 0.322261 -0.0593656 -0.0130214 ) 6
( 0.403698 -0.0434844 0.0245055 ) 35
( 0.346922 -0.0902426 0.0230679 ) 24
( 0.454953 -0.0175787 0.0285754 ) 46
( 0.391069 -0.0280986 -0.00109631 ) 17
( 0.260498 -0.0718586 0.0225794 ) 21
( 0.454535 -0.0905051 0.00631838 ) 4
( 0.384674 -0.0905016 0.00597603 ) 1
( 0.359331 -0.0416216 -0.00406644 ) 15
( 0.490485 -0.0171642 0.0130803 ) 20
( 0.465566 -0.0618171 0.00459929 ) 11
( 0.489137 -0.0557096 0.00819936 ) 12
( 0.474648 -0.0904748 0.0200334 ) 29
( 0.490363 -0.0361469 0.00705071 ) 20
( 0.420326 -0.0901606 -0.00420433 ) 3
( 0.453425 -0.0340923 0.017704 ) 46
( 0.421068 -0.0245148 0.00974958 ) 18
( 0.417007 -0.0534497 0.0140971 ) 10
( 0.356112 -0.0318975 0.0130825 ) 15
( 0.330578 -0.0474827 0.016507 ) 32
( 0.376376 -0.0211443 0.0283819 ) 43
( 0.272099 -0.0274627 0.0251671 ) 39
( 0.449614 -0.0556452 0.0148002 ) 37
( 0.356955 -0.0204938 0.0288144 ) 42
( 0.265189 -0.0460059 0.0248397 ) 30
( 0.381795 -0.0449873 -0.00797303 ) 8
( 0.446906 -0.0263771 0.000550988 ) 19
( 0.403504 -0.0668059 0.0187309 ) 35
( 0.302423 -0.0290248 0.00271845 ) 13
( 0.313022 -0.0385862 0.0162215 ) 41
( 0.458149 -0.085 -0.0125045 ) 4
( 0.366222 -0.0471365 0.0242135 ) 34
( 0.364568 -0.0665162 0.0198336 ) 34
( 0.321617 -0.0437997 -0.000864414 ) 6
( 0.473178 -0.0488792 -0.00752988 ) 12
( 0.471769 -0.0294175 0.024868 ) 46
( 0.479579 -0.0884678 0.0394803 ) 29
( 0.310865 -0.0419964 0.0354399 ) 41
( 0.358171 -0.0639462 -0.00604806 ) 7
( 0.458942 -0.0651109 -0.0136209 ) 11
( 0.365461 -0.0900739 0.0118058 ) 1
( 0.332506 -0.0746828 0.0206782 ) 23
( 0.45378 -0.0472865 0.0322154 ) 37
( 0.290904 -0.0718344 0.0281185 ) 22
( 0.34106 -0.0383672 0.00284439 ) 15
( 0.472871 -0.0900469 -0.000515083 ) 5
( 0.490892 -0.054259 -0.0114828 ) 12
( 0.31598 -0.02243 0.0279938 ) 41
( 0.41049 -0.0901276 0.0279243 ) 26
( 0.41108 -0.0393258 0.00142437 ) 17
( 0.433005 -0.0603011 0.00496777 ) 10
( 0.489579 -0.0631391 0.031388 ) 38
( 0.393493 -0.0454106 0.00791836 ) 9
( 0.38077 -0.074966 0.0276104 ) 25
( 0.473147 -0.0443106 0.0119269 ) 12
( 0.33931 -0.0294755 0.023214 ) 42
( 0.46125 -0.0761982 0.0172655 ) 28
( 0.374558 -0.0346203 0.00731746 ) 16
( 0.268847 -0.0900422 0.0190562 ) 21
( 0.489792 -0.0900022 -0.0119587 ) 5
( 0.438423 -0.0440449 -0.00604847 ) 10
( 0.316183 -0.0901184 0.0302642 ) 23
( 0.378727 -0.0901044 -0.0130128 ) 1
( 0.292979 -0.0442704 0.0270455 ) 31
( 0.406219 -0.0868078 0.00913467 ) 2
( 0.417264 -0.0710084 -0.000290634 ) 10
( 0.373327 -0.0405858 0.0416235 ) 43
( 0.452877 -0.0904576 0.027462 ) 28
( 0.472682 -0.0452683 0.0363449 ) 38
( 0.273663 0.00489474 0.0287754 ) 48
( 0.491045 -0.0817275 0.0257591 ) 29
( 0.437712 -0.0363814 0.030029 ) 45
( 0.490415 -0.0901417 0.00793639 ) 5
( 0.341601 -0.0440376 0.0523648 ) 62
( 0.322572 -0.0609905 0.0518641 ) 61
( 0.282037 -0.0108928 0.0551191 ) 78
( 0.267068 -0.0899368 0.0394313 ) 21
( 0.382834 -0.02414 0.0468068 ) 72
( 0.398171 -0.0904929 0.0520632 ) 55
( 0.423233 -0.0351593 0.0572031 ) 74
( 0.347808 -0.0707399 0.0552008 ) 62
( 0.340464 -0.0903342 0.0570047 ) 53
( 0.489783 -0.033981 -0.0125153 ) 20
( 0.296276 0.00148555 0.0483444 ) 78
( 0.289355 -0.0247818 0.0432306 ) 69
( 0.327571 -0.00947581 0.0488808 ) 79
( 0.485098 -0.0234204 0.0484722 ) 76
( 0.271653 -0.0729547 0.0575739 ) 50
( 0.387096 -0.0553999 0.0522352 ) 63
( 0.439317 -0.0685432 0.0540223 ) 65
( 0.26531 -0.0536701 0.0519201 ) 59
( 0.461553 -0.0904496 0.0454252 ) 57
( 0.454233 -0.0170609 0.0576792 ) 75
( 0.490383 -0.0902838 0.0771923 ) 89
( 0.312346 -0.0419371 0.0678776 ) 70
( 0.298927 -0.0581649 0.0590822 ) 60
( 0.362169 -0.0342562 0.0567522 ) 72
( 0.374691 -0.0902901 0.0582515 ) 54
( 0.420609 -0.0738989 0.057161 ) 56
( 0.370819 -0.0561768 0.0634314 ) 63
( 0.456223 -0.0596621 0.0490681 ) 66
( 0.285009 -0.0901802 0.0581388 ) 51
( 0.489749 -0.0551634 0.0589946 ) 67
( 0.326356 -0.0777106 0.0614374 ) 52
( 0.348453 0.0104929 0.0617883 ) 80
( 0.438551 -0.0481297 0.0575798 ) 65
( 0.471342 -0.0733972 0.060085 ) 57
( 0.431409 -0.0901112 0.0611675 ) 56
( 0.33531 -0.0241955 0.0597969 ) 71
( 0.462283 -0.0356188 0.0684276 ) 75
( 0.283801 -0.0297764 0.0616097 ) 69
( 0.401072 -0.043218 0.0581024 ) 64
( 0.368296 -0.0153469 0.0572664 ) 72
( 0.323805 0.0074948 0.0590508 ) 79
( 0.283704 0.00666145 0.0638736 ) 78
( 0.386635 -0.0748104 0.0528714 ) 54
( 0.434634 -0.0199387 0.0631098 ) 74
( 0.31038 -0.0258653 0.0467102 ) 70
( 0.335396 -0.0570137 0.0661894 ) 62
( 0.380572 -0.038874 0.0600783 ) 72
( 0.255526 -0.0205532 0.042499 ) 39
( 0.25445 -0.0417392 0.0408071 ) 39
( 0.26554 -0.0221017 0.0594136 ) 68
( 0.402685 -0.0237574 0.0549776 ) 73
( 0.454973 -0.0398398 0.0505058 ) 75
( 0.41745 -0.0902876 0.0467537 ) 56
( 0.310166 -0.00947678 0.0575209 ) 79
( 0.367151 -0.0727484 0.0531987 ) 54
( 0.42538 -0.0572304 0.0466268 ) 65
( 0.336456 -0.070358 0.0393779 ) 33
( 0.358944 -0.0520068 0.0486709 ) 62
( 0.472293 -0.0687806 0.0408861 ) 38
( 0.255266 -0.075654 0.0469317 ) 50
( 0.373948 -0.0600238 0.0383762 ) 34
( 0.296655 -0.0418498 0.0489288 ) 69
( 0.355485 -0.0877678 0.0704404 ) 53
( 0.420849 -0.0529453 0.0654879 ) 65
( 0.260503 0.0139133 0.0398936 ) 48
( 0.297591 -0.0257044 0.0215013 ) 40
( 0.29937 -0.0901272 0.0441295 ) 51
( 0.465884 -0.0248217 0.043477 ) 75
( 0.353734 -0.00778245 0.0728965 ) 111
( 0.40651 -0.0618672 0.050545 ) 64
( 0.412183 -0.0438297 0.0419879 ) 35
( 0.434316 -0.0723263 0.0352925 ) 27
( 0.272036 -0.0695978 0.0381734 ) 30
( 0.317445 -0.0705693 0.0351457 ) 32
( 0.473405 -0.0158391 0.0617281 ) 76
( 0.307878 -0.0741146 0.0518728 ) 52
( 0.490151 -0.074002 0.0479796 ) 58
( 0.380367 -0.0901815 0.0399201 ) 25
( 0.490573 -0.0261509 0.0302417 ) 47
( 0.337882 0.00710903 0.0454241 ) 80
( 0.490634 -0.041831 0.0443808 ) 76
( 0.348908 -0.0255106 0.0459119 ) 71
( 0.322399 -0.0412335 0.0514037 ) 70
( 0.288726 -0.0736752 0.0476685 ) 51
( 0.261846 -0.0901512 0.0585643 ) 50
( 0.271905 -0.0335762 0.0439479 ) 68
( 0.412037 -0.089404 0.0659579 ) 55
( 0.402849 -0.0603481 0.069567 ) 64
( 0.35004 -0.0416465 0.0344488 ) 42
( 0.39808 -0.0775618 0.037103 ) 26
( 0.392964 -0.0401137 0.0409723 ) 44
( 0.334352 -0.0900691 0.0381627 ) 24
( 0.484267 -0.0901837 0.0585477 ) 58
( 0.28038 -0.0551269 0.0640854 ) 60
( 0.284941 -0.0903597 0.0307558 ) 22
( 0.300334 -0.0114141 0.0344858 ) 49
( 0.414357 -0.0164415 0.0690192 ) 73
( 0.357835 -0.0901802 0.0482656 ) 53
( 0.392375 -0.0896307 0.0710701 ) 55
( 0.442248 -0.0878796 0.0447049 ) 56
( 0.490813 -0.0350716 0.0638091 ) 76
( 0.354993 -0.0470756 0.0723192 ) 93
( 0.415234 -0.0685736 0.0343528 ) 35
( 0.452275 -0.0818055 0.0599595 ) 57
( 0.407076 0.0055045 0.0731092 ) 113
( 0.302116 0.0073958 0.0290097 ) 49
( 0.315983 -0.0232098 0.0731875 ) 101
( 0.281985 -0.0527247 0.041231 ) 31
( 0.395614 -0.0582844 0.0346707 ) 35
( 0.251212 -0.0602085 0.0356034 ) 30
( 0.304481 -0.090153 0.0636496 ) 51
( 0.294647 -0.0463411 0.0741157 ) 91
( 0.386551 -0.0194303 0.0653851 ) 72
( 0.402084 -0.0235995 0.0353521 ) 44
( 0.474419 -0.0392197 0.0543713 ) 76
( 0.441173 -0.0252759 0.0454666 ) 74
( 0.355841 -0.0677304 0.0374738 ) 33
( 0.30405 0.012578 0.0621848 ) 78
( 0.301312 -0.0597413 0.0397041 ) 31
( 0.272773 -0.0124534 0.0378615 ) 48
( 0.265541 -0.00169627 0.0646396 ) 77
( 0.335642 0.00857236 0.0762053 ) 111
( 0.444578 -0.0610211 0.0713625 ) 66
( 0.288757 -0.0129866 0.090361 ) 109
( 0.490046 -0.0730012 0.0677204 ) 58
( 0.463034 -0.0567302 0.0669377 ) 66
( 0.380046 -0.0729375 0.0714839 ) 85
( 0.328935 -0.00861137 0.069759 ) 79
( 0.443532 -0.035366 0.0713223 ) 74
( 0.341304 -0.0745328 0.0730504 ) 84
( 0.419273 -0.0201237 0.0449409 ) 74
( 0.467012 -0.0905397 0.0689734 ) 57
( 0.347848 -0.00761352 0.0541448 ) 80
( 0.427146 -0.0691785 0.0751002 ) 96
( 0.318344 -0.0906554 0.049751 ) 52
( 0.408739 -0.0349902 0.0732585 ) 104
( 0.385397 -0.0546111 0.0760819 ) 94
( 0.370731 -0.028026 0.0735021 ) 103
( 0.251376 -0.0141466 0.0712485 ) 77
( 0.33527 -0.0387327 0.0730819 ) 102
( 0.294321 -0.0272416 0.0781848 ) 100
( 0.47809 -0.0465947 0.0725193 ) 98
( 0.389788 -0.0351039 0.0766136 ) 104
( 0.373434 -0.00841597 0.0751043 ) 112
( 0.288815 -0.0730345 0.0672731 ) 51
( 0.425544 -0.0902253 0.0802396 ) 87
( 0.33024 -0.0271213 0.0405509 ) 41
( 0.267148 -0.0398442 0.0681972 ) 68
( 0.426492 -0.0298721 0.0780279 ) 105
( 0.311914 -0.000404603 0.074709 ) 110
( 0.477405 -0.027286 0.0770368 ) 107
( 0.312615 -0.0670124 0.0695115 ) 61
( 0.358857 -0.0897853 0.0902631 ) 84
( 0.351063 -0.0272591 0.0727302 ) 102
( 0.398524 -0.0692098 0.0893464 ) 95
( 0.382916 0.00871108 0.0784573 ) 112
( 0.362175 -0.0641809 0.0796521 ) 94
( 0.276945 -0.014967 0.0738244 ) 99
( 0.398764 -0.0179474 0.0807618 ) 104
( 0.295122 -0.00946938 0.0698017 ) 78
( 0.363884 0.0090047 0.0737298 ) 112
( 0.26405 -0.0622491 0.0720989 ) 90
( 0.327912 -0.073144 0.0900771 ) 83
( 0.321982 -0.0892666 0.0798576 ) 83
( 0.431911 -0.0501652 0.0816269 ) 96
( 0.406445 -0.0905347 0.085054 ) 86
( 0.270828 -0.0903387 0.0759991 ) 81
( 0.373593 -0.0904658 0.0773321 ) 85
( 0.28136 -0.0625779 0.0823079 ) 91
( 0.375178 -0.0455666 0.0902713 ) 94
( 0.344774 -0.00707768 0.0903442 ) 111
( 0.459278 -0.0735675 0.0758858 ) 88
( 0.415686 0.000588718 0.0900595 ) 113
( 0.454795 -0.0473498 0.0821112 ) 97
( 0.28746 0.00567832 0.0843205 ) 109
( 0.386136 -0.00675525 0.0904514 ) 112
( 0.474123 -0.0822876 0.0847615 ) 89
( 0.29045 -0.0900814 0.0774176 ) 82
( 0.380146 -0.0258421 0.0906056 ) 103
( 0.413966 -0.0571622 0.0854507 ) 95
( 0.332631 -0.0215464 0.0840576 ) 101
( 0.352269 -0.0386007 0.0901259 ) 102
( 0.251022 -0.0204036 0.0901428 ) 99
( 0.378818 -0.0665772 0.0902938 ) 94
( 0.447541 -0.0194171 0.0823749 ) 106
( 0.438046 -0.0788276 0.0904248 ) 87
( 0.270237 0.0127825 0.0903961 ) 108
( 0.255973 0.00171184 0.0824526 ) 108
( 0.49043 -0.0396334 0.0859148 ) 107
( 0.472792 -0.0630595 0.0900767 ) 98
( 0.339011 -0.0901091 0.0901732 ) 84
( 0.3078 -0.0353489 0.0902187 ) 101
( 0.339988 -0.0542382 0.0900281 ) 93
( 0.268626 -0.0295178 0.0903471 ) 99
( 0.490375 -0.0588654 0.0815445 ) 98
( 0.395736 -0.0472298 0.0906463 ) 95
( 0.363704 -0.0012009 0.0904641 ) 112
( 0.414406 -0.0385675 0.0909917 ) 104
( 0.300221 -0.0732089 0.0830624 ) 82
( 0.26897 -0.00994262 0.0906652 ) 108
( 0.319963 -0.0553835 0.0831126 ) 92
( 0.27937 -0.0803858 0.0904458 ) 82
( 0.398662 0.010336 0.090304 ) 113
( 0.444675 -0.0903003 0.0758666 ) 88
( 0.325261 -0.0027099 0.0900751 ) 110
( 0.305195 -0.0903089 0.0905296 ) 82
( 0.347876 -0.0723867 0.0907811 ) 84
( 0.451108 -0.0643159 0.0906063 ) 97
( 0.471546 -0.0411511 0.0904138 ) 106
( 0.441791 -0.0358773 0.0908481 ) 105
( 0.2677 -0.0486485 0.0859581 ) 90
( 0.309132 -0.015407 0.0901367 ) 101
( 0.416103 -0.0190195 0.0906528 ) 104
( 0.386145 -0.0850389 0.0906891 ) 85
( 0.49035 -0.0204962 0.0902995 ) 107
( 0.465322 -0.0224028 0.0909456 ) 106
( 0.285181 -0.0401055 0.0902001 ) 100
( 0.306031 0.00887051 0.0905675 ) 110
( 0.417359 -0.0755354 0.0906643 ) 87
( 0.490824 -0.0761877 0.0908189 ) 89
( 0.327162 -0.0391264 0.0907316 ) 101
( 0.457679 -0.0903196 0.0904663 ) 88
( 0.297562 -0.055528 0.0907599 ) 91
( 0.264482 -0.067459 0.0908064 ) 90
( 0.360976 -0.0207895 0.0901437 ) 102
)
