/*--------------------------------*- C++ -*----------------------------------*\
  =========                 |
  \\      /  F ield         | OpenFOAM: The Open Source CFD Toolbox
   \\    /   O peration     | Website:  https://openfoam.org
    \\  /    A nd           | Version:  4.x
     \\/     M anipulation  |
\*---------------------------------------------------------------------------*/
FoamFile
{
    version     2.0;
    format      ascii;
    class       Cloud<passiveParticle>;
    location    0;
    object      positions;
}
// * * * * * * * * * * * * * * * * * * * * * * * * * * * * * * * * * * * * * //

354
(
( 0.0733383 -0.0586103 -0.0631237 ) 41
( 0.086127 -0.0205784 -0.0291012 ) 83
( 0.0502887 -0.0383998 -0.0671455 ) 49
( 0.177328 -0.0798885 -0.0518232 ) 36
( 0.0524503 -0.0752163 -0.048917 ) 31
( 0.193093 -0.0267661 -0.0537235 ) 54
( 0.145434 -0.0832582 -0.0260687 ) 67
( 0.0553616 -0.067408 -0.0309937 ) 72
( 0.0535599 -0.0265429 -0.0263394 ) 81
( 0.00979824 -0.0395151 -0.0345267 ) 80
( 0.217801 -0.0898329 -0.0609976 ) 37
( 0.203293 -0.0500926 -0.042382 ) 78
( 0.212132 -0.0255577 -0.0483956 ) 55
( 0.0790369 -0.0210789 -0.0557708 ) 50
( 0.176515 -0.0714532 -0.0698462 ) 36
( 0.186444 -0.0423494 -0.0350889 ) 86
( 0.194342 -0.0148367 -0.0696212 ) 54
( 0.109258 -0.0279756 -0.0582542 ) 51
( 0.226177 -0.0496367 -0.0706064 ) 47
( 0.242013 -0.0204883 -0.0591421 ) 56
( 0.242235 -0.0704461 -0.0256029 ) 79
( 0.0743474 -0.0367082 -0.0289056 ) 82
( 0.137539 -0.0447388 -0.0393854 ) 75
( 0.204552 -0.0531089 -0.06373 ) 46
( 0.0958101 -0.0517557 -0.0334775 ) 74
( 0.0620091 -0.0408008 -0.0437201 ) 50
( 0.215622 -0.0645773 -0.0517959 ) 46
( 0.0273065 -0.0143269 -0.0498391 ) 48
( 0.0792728 -0.0730253 -0.0508297 ) 32
( 0.204902 -0.073109 -0.0374805 ) 69
( 0.119566 -0.0384707 -0.0448901 ) 52
( 0.232919 -0.0560304 -0.0474098 ) 47
( 0.0266271 -0.0169463 -0.0301823 ) 80
( 0.138817 -0.0575354 -0.0244617 ) 75
( 0.0278955 -0.076605 -0.0367189 ) 63
( 0.141265 -0.0201963 -0.0702786 ) 53
( 0.0384897 -0.0747679 -0.0629323 ) 31
( 0.108018 -0.0802782 -0.0393592 ) 65
( 0.0731292 -0.0766544 -0.0324014 ) 64
( 0.110914 -0.0786565 -0.019785 ) 65
( 0.135514 -0.0456707 -0.0683764 ) 43
( 0.149502 -0.0492107 -0.0545968 ) 44
( 0.240268 -0.0356134 -0.0718319 ) 26
( 0.171268 -0.0274972 -0.0687191 ) 54
( 0.127255 -0.0901771 -0.0207509 ) 66
( 0.233716 -0.0753113 -0.0528007 ) 38
( 0.036584 -0.0626054 -0.0474413 ) 40
( 0.172299 -0.0571581 -0.0514986 ) 45
( 0.107442 -0.0761423 -0.0662929 ) 33
( 0.0938104 -0.0217302 -0.0690033 ) 51
( 0.138371 -0.0878359 -0.0550257 ) 34
( 0.188088 -0.0628517 -0.0405006 ) 77
( 0.133332 -0.0181863 -0.0413319 ) 84
( 0.0836377 -0.0382949 -0.0647047 ) 51
( 0.112703 -0.0200557 -0.0403918 ) 84
( 0.0985994 -0.0584833 -0.0672403 ) 42
( 0.1506 -0.0110741 -0.0348597 ) 94
( 0.0401874 -0.0265755 -0.0410836 ) 81
( 0.0666552 -0.0217946 -0.040449 ) 82
( 0.034126 -0.0348116 -0.0242963 ) 81
( 0.148831 -0.0793803 -0.0695829 ) 35
( 0.0114737 -0.0272492 -0.0627475 ) 48
( 0.0977322 -0.0660728 -0.048749 ) 42
( 0.1289 -0.0733225 -0.0308486 ) 66
( 0.00965013 -0.00689467 -0.0306558 ) 89
( 0.239824 -0.0432227 -0.0281971 ) 79
( 0.150064 -0.0624988 -0.039809 ) 76
( 0.166838 -0.0709298 -0.033375 ) 77
( 0.200374 -0.0860995 -0.0517309 ) 37
( 0.160852 -0.0281248 -0.0351364 ) 85
( 0.189343 -0.0353174 -0.0713343 ) 54
( 0.121375 -0.00645572 -0.0519888 ) 61
( 0.187561 -0.0824443 -0.0351645 ) 68
( 0.0275189 -0.0474474 -0.0382141 ) 71
( 0.05387 -0.0580364 -0.0590628 ) 40
( 0.030472 -0.0900511 -0.0511724 ) 31
( 0.0824091 -0.0437143 -0.0456553 ) 41
( 0.157601 -0.0252561 -0.0544976 ) 53
( 0.138978 -0.0319551 -0.054436 ) 53
( 0.0841805 -0.0901758 -0.0421078 ) 65
( 0.0328609 -0.0307821 -0.0595048 ) 49
( 0.0499109 -0.00888006 -0.0361549 ) 90
( 0.0910533 -0.0365092 -0.0182469 ) 83
( 0.0185979 -0.00911025 -0.066855 ) 57
( 0.0704007 -0.0585838 -0.0403903 ) 73
( 0.0534606 -0.0228778 -0.0552073 ) 49
( 0.174992 -0.0327064 -0.0482079 ) 54
( 0.0099109 -0.064157 -0.0350977 ) 71
( 0.0098988 -0.0802118 -0.0232346 ) 62
( 0.200465 -0.0502837 -0.0227417 ) 78
( 0.123745 -0.055243 -0.0556174 ) 43
( 0.187138 -0.0901126 -0.0659044 ) 36
( 0.237213 -0.0901035 -0.0656654 ) 38
( 0.114974 -0.0617096 -0.0390471 ) 75
( 0.0654667 -0.0145739 -0.0687809 ) 50
( 0.00990128 -0.0628836 -0.0617894 ) 39
( 0.0978007 -0.0329171 -0.0391626 ) 83
( 0.225025 -0.072987 -0.0351382 ) 70
( 0.177374 -0.0566304 -0.0249897 ) 77
( 0.224441 -0.026213 -0.0329577 ) 88
( 0.208177 -0.0308433 -0.0670611 ) 55
( 0.0435896 -0.0794373 -0.0202959 ) 63
( 0.216767 -0.0900779 -0.0411475 ) 69
( 0.243207 -0.0902279 -0.0437241 ) 38
( 0.0262317 -0.0614537 -0.024097 ) 71
( 0.0969235 -0.0142332 -0.0508229 ) 60
( 0.209592 -0.0732624 -0.0685542 ) 37
( 0.126541 -0.0684041 -0.0707303 ) 43
( 0.196599 -0.0903 -0.0194478 ) 69
( 0.169696 -0.0902745 -0.0311289 ) 68
( 0.15442 -0.0877297 -0.0434288 ) 35
( 0.179999 -0.0233706 -0.0294698 ) 86
( 0.192835 -0.0687853 -0.0588032 ) 45
( 0.079696 -0.0548113 -0.0224494 ) 73
( 0.234051 -0.0679099 -0.0712139 ) 47
( 0.121728 -0.074764 -0.0525233 ) 34
( 0.188339 -0.0460867 -0.0546487 ) 45
( 0.235544 -0.0359508 -0.0462472 ) 56
( 0.163319 -0.0481074 -0.0363333 ) 76
( 0.0584335 -0.0900839 -0.0631404 ) 32
( 0.216398 -0.0900095 -0.021366 ) 69
( 0.121494 -0.090123 -0.0651833 ) 34
( 0.150188 -0.0400112 -0.023359 ) 85
( 0.0434983 -0.0442232 -0.0494202 ) 40
( 0.00989519 -0.0219027 -0.0436825 ) 48
( 0.161485 -0.0575027 -0.0681206 ) 44
( 0.121714 -0.0168393 -0.0689956 ) 52
( 0.124574 -0.029665 -0.0278744 ) 84
( 0.103181 -0.0472052 -0.0516958 ) 42
( 0.203531 -0.0329939 -0.032234 ) 87
( 0.044667 -0.0900403 -0.0371125 ) 63
( 0.114563 -0.0438265 -0.0690407 ) 43
( 0.0100174 -0.0448459 -0.0535389 ) 39
( 0.0965423 -0.0902469 -0.0267848 ) 65
( 0.0279361 -0.0500801 -0.0603074 ) 40
( 0.0782534 -0.0900544 -0.0610842 ) 32
( 0.0623778 -0.00559286 -0.0513047 ) 59
( 0.0645087 -0.0902045 -0.0442218 ) 32
( 0.119644 -0.0595184 -0.0199494 ) 75
( 0.00971093 -0.0236664 -0.0203606 ) 80
( 0.117987 -0.00259693 -0.0328443 ) 93
( 0.0111336 -0.0824407 -0.058484 ) 30
( 0.220219 -0.0496524 -0.0320888 ) 78
( 0.00985651 -0.00303722 -0.0500959 ) 57
( 0.130954 -0.0422121 0.00674783 ) 118
( 0.110771 -0.0514175 -0.00408084 ) 108
( 0.126431 -0.0173116 0.00199674 ) 118
( 0.17061 -0.0738295 0.00153562 ) 102
( 0.0585566 -0.0722905 0.000503854 ) 98
( 0.039838 -0.00712075 -0.0191568 ) 90
( 0.226091 -0.0427476 -0.00190058 ) 122
( 0.13407 -0.0624317 0.00509572 ) 109
( 0.0217078 -0.0120793 0.00502404 ) 123
( 0.208307 -0.019111 -0.0169181 ) 87
( 0.124966 0.005693 0.00179349 ) 127
( 0.190811 -0.034043 -0.016717 ) 86
( 0.0608108 -0.0107891 -0.00638843 ) 125
( 0.0199285 -0.0337167 0.0079519 ) 114
( 0.160024 -0.00405046 -0.012914 ) 128
( 0.082791 -0.00875898 0.00345588 ) 125
( 0.122444 -0.0127768 -0.0166724 ) 93
( 0.056176 -0.0564954 0.0138373 ) 107
( 0.110712 -0.0357627 0.0080562 ) 117
( 0.16333 -0.0375562 0.0137189 ) 119
( 0.239642 -0.0567008 0.000894403 ) 113
( 0.091046 -0.0432665 0.000397914 ) 108
( 0.206459 -0.061843 0.0115092 ) 112
( 0.205957 -0.0496778 -0.00380023 ) 112
( 0.143282 -0.0087161 -0.00351698 ) 128
( 0.150895 -0.0739303 0.00330059 ) 101
( 0.162084 -0.0901832 0.00871478 ) 101
( 0.186462 -0.0488546 0.0119166 ) 111
( 0.228336 -0.0763564 0.00990445 ) 104
( 0.0353995 -0.082335 -0.00152753 ) 97
( 0.235115 -0.0353295 0.0137278 ) 122
( 0.177008 -0.0174447 -0.0101137 ) 120
( 0.0382191 -0.0335992 0.000360534 ) 115
( 0.219431 -0.0644078 -0.00282564 ) 112
( 0.0563419 -0.020877 0.00994658 ) 116
( 0.221807 -0.0902067 -0.00238719 ) 103
( 0.0261535 -0.0647086 -0.001933 ) 105
( 0.214704 -0.0378704 -0.0169631 ) 87
( 0.0961424 -0.0239768 0.00128361 ) 117
( 0.169146 -0.0182503 0.00814158 ) 120
( 0.101154 -0.0713895 0.00560491 ) 108
( 0.150339 -0.0516239 0.00830309 ) 110
( 0.056292 -0.0306546 -0.0071791 ) 116
( 0.238733 -0.0749544 -0.00671581 ) 104
( 0.158467 -0.0399095 -0.0052446 ) 119
( 0.0789642 -0.0902126 -0.0177834 ) 64
( 0.213423 -0.0130409 0.00133377 ) 130
( 0.0715073 -0.0901432 0.000499428 ) 98
( 0.193706 -0.0129663 -0.000545605 ) 129
( 0.118261 -0.0309296 -0.0093589 ) 118
( 0.20628 -0.0784792 -0.00704717 ) 103
( 0.179458 -0.0810074 -0.0151555 ) 68
( 0.0951031 -0.090092 0.0124003 ) 99
( 0.0740861 -0.0715326 -0.0133844 ) 98
( 0.14922 -0.0902559 -0.00778666 ) 101
( 0.118279 -0.0902088 -0.00304346 ) 100
( 0.169419 -0.0540651 0.00338979 ) 111
( 0.0150919 -0.0902359 -0.00693105 ) 96
( 0.00982911 -0.0843252 0.0111196 ) 96
( 0.191162 -0.0682712 0.00066135 ) 111
( 0.18412 -0.031817 0.00184213 ) 120
( 0.247488 -0.0414142 -0.00903968 ) 122
( 0.139293 -0.0238343 -0.0158712 ) 85
( 0.00988148 -0.0510394 0.00242672 ) 105
( 0.110011 -0.00689405 -0.00229938 ) 126
( 0.134747 -0.0900499 0.00825835 ) 100
( 0.0656312 -0.00338328 0.0119044 ) 125
( 0.0529506 -0.0901688 -0.00639752 ) 97
( 0.071038 -0.0490236 0.00300534 ) 107
( 0.0423095 -0.0707058 0.0130215 ) 106
( 0.0181314 -0.00451858 -0.0129114 ) 123
( 0.230674 -0.0562135 -0.0166243 ) 79
( 0.0745584 -0.028839 0.00459207 ) 116
( 0.185704 -0.051135 -0.00779854 ) 111
( 0.203745 -0.0301975 -0.00111495 ) 121
( 0.160371 -0.0758089 -0.0153189 ) 67
( 0.133693 -0.0426382 -0.0127218 ) 118
( 0.0414387 -0.0134487 -0.000487843 ) 124
( 0.181719 -0.0902912 0.00201889 ) 102
( 0.182141 0.00898477 -0.0387499 ) 95
( 0.087825 0.011762 -0.0413153 ) 92
( 0.135603 0.01422 -0.0561625 ) 61
( 0.058651 0.00900426 -0.0244398 ) 91
( 0.00978723 0.0117491 -0.0205204 ) 89
( 0.0782036 0.00487735 -0.0572233 ) 59
( 0.124139 0.00379498 -0.0687549 ) 61
( 0.148175 0.0133818 -0.0310783 ) 94
( 0.0433175 0.0103505 -0.0368422 ) 90
( 0.113612 0.0110969 -0.0463089 ) 61
( 0.0549573 0.0121138 -0.0563204 ) 58
( 0.10552 -0.000596133 -0.0624027 ) 60
( 0.177158 0.00185798 -0.00489812 ) 129
( 0.0109922 0.0100965 -0.000694493 ) 123
( 0.0869743 0.0111191 -0.00728143 ) 126
( 0.0435533 0.0110185 -0.0117312 ) 124
( 0.209613 0.00577988 -0.00264797 ) 130
( 0.0630618 0.0087466 -0.00501378 ) 125
( 0.10022 0.00416728 0.0121146 ) 126
( 0.146121 0.00882426 0.00514341 ) 128
( 0.107765 0.0126892 -0.0053387 ) 126
( 0.153266 0.0142581 -0.0120841 ) 128
( 0.16611 0.00118473 0.0115615 ) 128
( 0.0330752 0.00398163 0.00352806 ) 124
( 0.139928 -0.0676734 -0.0559977 ) 44
( 0.0666021 -0.00904739 -0.0253677 ) 91
( 0.00997754 -0.0901604 -0.0403197 ) 62
( 0.0479112 -0.0486765 -0.028162 ) 72
( 0.0789949 -0.00609667 -0.0406234 ) 91
( 0.0822254 -0.0656248 0.00349686 ) 107
( 0.00987404 0.00866868 -0.0662044 ) 57
( 0.235243 0.00625257 -0.013694 ) 131
( 0.153894 -0.037275 -0.0698931 ) 53
( 0.163267 -0.0902067 -0.0611661 ) 35
( 0.0435836 -0.00573709 -0.0574197 ) 58
( 0.12515 -0.0902148 -0.0405296 ) 66
( 0.024421 0.00536933 -0.0342625 ) 89
( 0.093131 -0.0710185 -0.0300278 ) 74
( 0.0736436 -0.0236201 -0.0141534 ) 116
( 0.105684 0.0116287 -0.0265093 ) 92
( 0.0274878 0.00521011 -0.053785 ) 57
( 0.0492181 -0.0617637 -0.0131626 ) 106
( 0.249104 -0.0474204 -0.0551298 ) 47
( 0.0973376 -0.00482512 -0.0333405 ) 92
( 0.0997043 -0.0901049 -0.0544791 ) 33
( 0.150318 -0.0251337 0.00490679 ) 119
( 0.173791 -0.00468736 -0.0269651 ) 95
( 0.218585 -0.0436775 -0.0532375 ) 46
( 0.19247 0.00532244 0.00723708 ) 129
( 0.23159 -0.0204263 0.00179745 ) 122
( 0.135677 0.00155136 -0.0408143 ) 93
( 0.0973466 -0.0636031 -0.0121679 ) 108
( 0.0603303 -0.0898037 -0.0247792 ) 64
( 0.213032 -0.0655523 -0.021282 ) 78
( 0.19184 -0.00846433 -0.0199238 ) 95
( 0.151789 -0.0589171 -0.00983805 ) 110
( 0.0785598 0.00672382 -0.0245941 ) 91
( 0.0270976 -0.0902295 -0.0226136 ) 62
( 0.193028 -0.068525 -0.0221355 ) 77
( 0.126678 0.0130549 -0.0244625 ) 93
( 0.10943 -0.0428183 -0.0222892 ) 83
( 0.103431 -0.0209107 -0.017783 ) 83
( 0.159113 -0.0233797 -0.0160133 ) 85
( 0.159404 -0.0718945 -0.0545038 ) 35
( 0.00982893 -0.0632483 -0.0130997 ) 105
( 0.0628959 -0.0475458 -0.0150731 ) 73
( 0.0270407 -0.0220907 -0.011032 ) 114
( 0.170707 -0.0386543 -0.0205985 ) 86
( 0.139324 -0.00183653 -0.0215426 ) 94
( 0.236447 -0.0901194 -0.0193146 ) 70
( 0.118468 -0.0704444 -0.00357779 ) 109
( 0.0897089 -0.00689323 -0.0150636 ) 92
( 0.232764 -0.0298213 -0.0154603 ) 88
( 0.0343276 -0.0492157 -0.0109014 ) 106
( 0.0106556 -0.0426972 -0.0151882 ) 80
( 0.136508 -0.0750375 -0.0102315 ) 100
( 0.193418 0.00993389 -0.0128156 ) 129
( 0.0988516 -0.089216 -0.00707724 ) 99
( 0.0375599 -0.0518969 0.00857483 ) 106
( 0.144118 -0.0614909 -0.0769024 ) 14
( 0.173315 -0.0449953 -0.0780575 ) 15
( 0.0859101 -0.0736437 -0.0694865 ) 33
( 0.00990932 -0.0445379 -0.0734207 ) 9
( 0.040815 -0.058562 -0.0740774 ) 10
( 0.055976 -0.0726432 -0.0723738 ) 2
( 0.0673835 -0.0441199 -0.0754674 ) 11
( 0.0422323 -0.0901758 -0.0747618 ) 1
( 0.205289 -0.0901721 -0.0779835 ) 7
( 0.244591 -0.0533336 -0.0797212 ) 17
( 0.224735 -0.0236575 -0.0754319 ) 26
( 0.0774909 -0.0263733 -0.0794456 ) 20
( 0.223843 -0.083141 -0.0788021 ) 8
( 0.0215725 -0.0742362 -0.0732919 ) 0
( 0.08545 -0.0509334 -0.0800258 ) 12
( 0.109173 -0.0280054 -0.0799089 ) 21
( 0.209885 -0.0448939 -0.0810918 ) 16
( 0.192396 -0.0612249 -0.0772245 ) 15
( 0.172126 -0.0899043 -0.0789716 ) 6
( 0.128698 -0.0315791 -0.0806476 ) 22
( 0.043299 -0.0193069 -0.0719634 ) 19
( 0.134317 -0.087891 -0.0802283 ) 4
( 0.0334435 -0.0404126 -0.0775107 ) 19
( 0.112498 -0.0592839 -0.0814541 ) 13
( 0.0701387 -0.0897759 -0.0792871 ) 2
( 0.0220771 -0.0242014 -0.0793254 ) 18
( 0.0959765 -0.0901351 -0.0744107 ) 3
( 0.18891 -0.0799696 -0.0829861 ) 6
( 0.161316 -0.0710982 -0.0827025 ) 14
( 0.206452 -0.0209745 -0.0842763 ) 25
( 0.159328 -0.0247941 -0.0844563 ) 23
( 0.0722282 -0.0658186 -0.0817046 ) 11
( 0.0229152 -0.0565847 -0.0824858 ) 9
( 0.0578771 -0.0279704 -0.0823538 ) 20
( 0.0343544 0.000879737 -0.073751 ) 28
( 0.0545185 -0.00841295 -0.0842936 ) 28
( 0.218712 -0.063213 -0.0831255 ) 16
( 0.11349 -0.0855011 -0.0828396 ) 4
( 0.144362 -0.0437892 -0.0861346 ) 14
( 0.241966 -0.0208226 -0.0850874 ) 26
( 0.00995507 -0.0900479 -0.076838 ) 0
( 0.0949085 -0.0674388 -0.0861337 ) 12
( 0.228363 -0.0391862 -0.0874388 ) 26
( 0.0616013 0.00984671 -0.0878127 ) 29
( 0.0371671 -0.0743153 -0.0857341 ) 1
( 0.153399 -0.0900602 -0.0857431 ) 5
( 0.0506677 -0.0461622 -0.0860887 ) 10
( 0.00989428 -0.00187035 -0.0831803 ) 27
( 0.191382 -0.0449205 -0.0886651 ) 15
( 0.0350655 -0.0122916 -0.0887047 ) 28
( 0.00989876 -0.0702251 -0.088886 ) 9
( 0.0928232 -0.0347542 -0.0890521 ) 21
)
