/*--------------------------------*- C++ -*----------------------------------*\
| =========                 |                                                 |
| \\      /  F ield         | OpenFOAM: The Open Source CFD Toolbox           |
|  \\    /   O peration     | Version:  4.x                                   |
|   \\  /    A nd           | Web:      www.OpenFOAM.org                      |
|    \\/     M anipulation  |                                                 |
\*---------------------------------------------------------------------------*/
FoamFile
{
    version     2.0;
    format      ascii;
    class       volVectorField;
    location    "36.5";
    object      ddtUrel;
}
// * * * * * * * * * * * * * * * * * * * * * * * * * * * * * * * * * * * * * //

dimensions      [0 1 -2 0 0 0 0];

internalField   nonuniform List<vector> 
114
(
(-5.02918e-09 -7.70475e-11 1.43583e-09)
(-2.70329e-09 -3.02828e-10 1.69614e-09)
(-7.27671e-10 -5.3673e-10 2.0074e-09)
(1.13457e-09 -6.28904e-10 2.31597e-09)
(3.04001e-09 -6.97417e-10 2.43342e-09)
(6.00618e-09 -8.14932e-10 2.43447e-09)
(-5.86971e-09 1.57703e-10 1.33951e-09)
(-4.17226e-09 -1.22845e-10 1.6184e-09)
(-2.34046e-09 -4.04709e-10 1.89505e-09)
(-6.23617e-10 -6.9898e-10 2.21407e-09)
(8.83373e-10 -8.77504e-10 2.52455e-09)
(2.23727e-09 -9.74693e-10 2.54971e-09)
(3.40465e-09 -1.05304e-09 2.65841e-09)
(-4.46006e-09 4.12815e-10 1.08471e-09)
(-4.03946e-09 1.80873e-10 1.48827e-09)
(-3.00353e-09 -1.74488e-10 1.82321e-09)
(-1.73048e-09 -5.14345e-10 2.10581e-09)
(-4.45932e-10 -8.54341e-10 2.39465e-09)
(6.72273e-10 -1.0991e-09 2.6463e-09)
(1.58979e-09 -1.1988e-09 2.61371e-09)
(2.06859e-09 -1.04456e-09 2.59901e-09)
(-3.76914e-09 2.42266e-10 3.44162e-10)
(-4.30779e-09 1.40261e-10 6.08808e-10)
(-3.89004e-09 -8.58385e-12 8.5879e-10)
(-2.92696e-09 -1.97278e-10 1.05942e-09)
(-1.77179e-09 -3.71373e-10 1.24809e-09)
(-6.46223e-10 -5.23571e-10 1.43845e-09)
(4.69355e-10 -6.04277e-10 1.61736e-09)
(1.47743e-09 -6.54368e-10 1.69708e-09)
(2.40077e-09 -6.77971e-10 1.7441e-09)
(-3.1915e-09 3.24063e-10 3.76255e-10)
(-3.60515e-09 2.22458e-10 6.75263e-10)
(-3.38102e-09 1.19711e-11 9.65124e-10)
(-2.61527e-09 -2.32976e-10 1.20474e-09)
(-1.58802e-09 -4.50562e-10 1.41961e-09)
(-5.27227e-10 -6.51774e-10 1.62181e-09)
(4.60935e-10 -7.64274e-10 1.8101e-09)
(1.38222e-09 -8.33017e-10 1.85932e-09)
(1.89459e-09 -8.28626e-10 1.95612e-09)
(-2.34559e-09 4.33768e-10 4.20589e-10)
(-2.67003e-09 3.03484e-10 7.72011e-10)
(-2.55038e-09 7.15036e-11 1.08521e-09)
(-2.02553e-09 -2.1861e-10 1.3655e-09)
(-1.26183e-09 -4.85478e-10 1.5945e-09)
(-4.06522e-10 -7.18044e-10 1.81136e-09)
(4.04295e-10 -8.74212e-10 2.0128e-09)
(1.07319e-09 -9.19318e-10 2.02051e-09)
(1.36402e-09 -8.8079e-10 2.05944e-09)
(-1.46772e-09 5.32782e-10 4.51781e-10)
(-1.70823e-09 3.79446e-10 7.96557e-10)
(-2.18719e-09 1.67798e-10 2.51988e-10)
(-2.44614e-09 5.98567e-11 4.46223e-10)
(-2.37433e-09 -8.81581e-11 6.37969e-10)
(-1.95394e-09 -2.8427e-10 8.29142e-10)
(-1.37535e-09 -3.87821e-10 9.41332e-10)
(-7.21514e-10 -4.64775e-10 1.0521e-09)
(-7.76939e-11 -5.08424e-10 1.15147e-09)
(3.8424e-10 -5.14589e-10 1.21368e-09)
(9.92157e-10 -4.562e-10 1.18488e-09)
(-2.00136e-09 2.2402e-10 2.76718e-10)
(-2.24129e-09 1.11394e-10 4.91852e-10)
(-2.29305e-09 -6.87333e-11 7.1233e-10)
(-2.01147e-09 -3.31472e-10 9.0123e-10)
(-1.29966e-09 -4.52529e-10 1.05908e-09)
(-6.16205e-10 -5.54169e-10 1.19541e-09)
(1.98986e-11 -5.92695e-10 1.28911e-09)
(5.45376e-10 -6.08112e-10 1.33284e-09)
(8.59376e-10 -5.28069e-10 1.29706e-09)
(-1.62483e-09 3.3345e-10 2.96447e-10)
(-1.81717e-09 2.06641e-10 5.42366e-10)
(-1.87691e-09 8.39619e-12 7.85681e-10)
(-1.60935e-09 -2.37009e-10 1.00215e-09)
(-1.08173e-09 -4.28624e-10 1.17865e-09)
(-5.18832e-10 -5.63324e-10 1.32585e-09)
(7.21126e-11 -6.3501e-10 1.45601e-09)
(5.50434e-10 -6.30204e-10 1.46674e-09)
(7.40194e-10 -5.73308e-10 1.45346e-09)
(-1.16384e-09 4.3029e-10 3.12586e-10)
(-1.29805e-09 3.05696e-10 5.47311e-10)
(-1.36205e-09 1.125e-10 8.05135e-10)
(-1.17982e-09 -1.24451e-10 1.03822e-09)
(-1.49331e-09 1.25204e-10 2.13049e-10)
(-1.68012e-09 3.53985e-11 3.68841e-10)
(-1.78215e-09 -9.74583e-11 5.34518e-10)
(-1.53916e-09 -2.84843e-10 6.87448e-10)
(-1.26456e-09 -3.61016e-10 7.64176e-10)
(-8.88165e-10 -4.09704e-10 8.50265e-10)
(-5.73483e-10 -4.26265e-10 8.99883e-10)
(-8.46776e-10 -4.18769e-10 9.12439e-10)
(-7.92782e-11 -1.81681e-10 5.02097e-10)
(-1.4105e-09 1.74372e-10 2.30844e-10)
(-1.61195e-09 7.64482e-11 4.01283e-10)
(-1.97169e-09 -4.23696e-11 6.21013e-10)
(-1.8469e-09 -3.51942e-10 7.26136e-10)
(-1.296e-09 -4.41191e-10 8.3707e-10)
(-8.37352e-10 -4.64984e-10 9.38914e-10)
(-4.27072e-10 -4.82125e-10 1.01006e-09)
(-2.35665e-10 -4.96239e-10 1.02907e-09)
(3.1675e-10 -4.17069e-10 8.68433e-10)
(-1.20079e-09 2.59199e-10 2.44062e-10)
(-1.3611e-09 1.51146e-10 4.22392e-10)
(-1.5497e-09 -7.0071e-12 6.16814e-10)
(-1.45205e-09 -2.1679e-10 7.74404e-10)
(-1.1113e-09 -3.81389e-10 9.24353e-10)
(-7.72521e-10 -4.57986e-10 1.03832e-09)
(-3.48964e-10 -4.92828e-10 1.11065e-09)
(-1.40481e-10 -4.81387e-10 1.12865e-09)
(2.70111e-10 -4.17194e-10 1.0095e-09)
(-9.28972e-10 3.54165e-10 2.52177e-10)
(-1.02005e-09 2.45091e-10 4.28621e-10)
(-1.20264e-09 8.55028e-11 6.31782e-10)
(-1.11825e-09 -9.70441e-11 8.11638e-10)
(-9.02769e-10 -2.5251e-10 9.65576e-10)
(-6.51026e-10 -3.67896e-10 1.08562e-09)
)
;

boundaryField
{
    inlet
    {
        type            calculated;
        value           nonuniform 0();
    }
    outlet
    {
        type            calculated;
        value           nonuniform List<vector> 
12
(
(3.88429e-08 -2.42176e-09 1.27301e-10)
(2.74043e-09 -2.88007e-09 3.8031e-09)
(2.45143e-09 1.16144e-09 3.39505e-09)
(1.04851e-09 -3.41748e-10 6.2481e-10)
(2.21668e-09 -1.30696e-09 2.44115e-09)
(1.89993e-09 -1.42271e-09 2.39677e-09)
(1.67124e-09 -2.11103e-10 1.26984e-09)
(8.70541e-10 3.55474e-10 1.77735e-10)
(9.35635e-10 -1.31731e-10 1.1439e-09)
(-3.64564e-09 1.86513e-09 -3.55971e-09)
(5.56123e-10 -8.62767e-10 -1.52219e-11)
(-3.03589e-11 5.95578e-11 -3.83189e-10)
)
;
    }
    wall
    {
        type            calculated;
        value           nonuniform List<vector> 
66
(
(1.95006e-10 -5.00829e-11 1.99668e-11)
(-3.15554e-11 -6.54867e-14 7.11724e-11)
(-3.23798e-10 3.69125e-11 6.5924e-11)
(-5.83799e-10 3.63449e-11 5.25274e-11)
(9.46168e-10 -2.90671e-11 2.49367e-11)
(1.45251e-09 -9.6072e-11 2.05062e-11)
(5.69914e-10 6.92477e-11 6.8936e-11)
(7.62177e-10 3.12673e-10 6.18373e-11)
(-2.49487e-10 -1.25085e-10 1.49824e-11)
(-4.14216e-09 6.93298e-10 9.96142e-10)
(-8.25941e-10 -8.38448e-11 1.8996e-10)
(-1.57745e-09 7.25016e-11 3.55879e-10)
(1.66688e-09 -4.49532e-10 4.11072e-10)
(-4.48635e-09 -1.75753e-09 1.52084e-10)
(-1.332e-09 -2.72336e-10 1.21183e-10)
(-1.44528e-09 -8.46678e-11 3.90833e-10)
(-1.28371e-09 -1.27011e-10 -4.14998e-11)
(-1.72781e-09 -1.04721e-09 1.42252e-10)
(-1.69921e-09 -6.86909e-10 3.51034e-10)
(-1.55434e-09 -1.98694e-10 3.95525e-10)
(-2.19284e-09 -1.85468e-10 7.49888e-11)
(-2.47931e-09 -4.08016e-10 2.30386e-10)
(-3.9353e-09 -5.24163e-10 5.17845e-10)
(-2.94422e-09 -3.7164e-10 3.39751e-10)
(-1.30405e-09 -9.41115e-12 -2.72886e-10)
(-2.15159e-09 -5.43857e-11 1.72695e-10)
(-1.75907e-09 -3.08607e-10 3.21687e-11)
(-1.81935e-08 -7.98917e-10 1.27182e-09)
(-6.05143e-09 -9.57539e-10 9.74322e-10)
(-6.17868e-09 -5.36742e-10 1.00767e-09)
(-5.87063e-09 5.02572e-09 -8.4725e-09)
(1.26227e-09 4.20293e-11 -5.48681e-10)
(-3.50916e-10 1.41004e-10 -9.32049e-10)
(-8.16205e-10 6.1514e-11 -2.75493e-11)
(-7.98445e-10 1.02359e-10 -3.54031e-11)
(-9.34616e-11 -4.56597e-11 5.89234e-12)
(-1.74285e-09 -1.39528e-10 8.805e-11)
(-8.89404e-10 -1.38614e-10 6.22695e-11)
(2.02582e-10 -2.34386e-11 1.5168e-12)
(-1.24059e-09 -1.86165e-10 2.8974e-10)
(-8.11488e-10 -1.98692e-10 4.62474e-11)
(-6.11594e-10 -1.19252e-10 -3.85446e-13)
(-1.85376e-09 -2.63085e-10 6.52393e-10)
(-1.2868e-09 -2.41133e-10 1.9619e-10)
(1.96168e-10 -6.99164e-10 5.90716e-10)
(1.21956e-09 -4.43224e-10 3.99173e-10)
(-5.7149e-10 -3.65372e-10 8.70518e-10)
(-9.17687e-10 -3.43325e-10 2.3868e-10)
(-1.22213e-09 -4.34617e-10 1.79815e-10)
(-1.39504e-09 -1.31268e-10 -5.40661e-11)
(-1.59683e-09 -1.16986e-09 1.16726e-09)
(-1.20813e-09 -5.25684e-10 3.36582e-10)
(-1.14416e-09 -2.90225e-10 9.22293e-11)
(-1.75672e-09 -1.85982e-10 7.58498e-11)
(3.31067e-10 -6.84165e-10 1.69329e-09)
(7.05505e-11 -3.71095e-10 5.34582e-10)
(-1.84011e-10 -3.59256e-10 1.75589e-10)
(-1.1174e-09 -5.62511e-11 -2.23671e-10)
(-6.70271e-10 -7.152e-10 5.37019e-10)
(-5.17537e-10 -5.43347e-10 5.52378e-10)
(-1.03226e-09 -2.7487e-10 6.26133e-10)
(-1.50887e-08 -6.46827e-10 1.13977e-09)
(2.85514e-08 -2.28727e-09 -1.2769e-09)
(3.50681e-11 -4.15625e-10 6.1842e-10)
(2.45862e-09 -1.51854e-10 1.16299e-09)
(-4.83702e-09 3.68119e-09 -7.45445e-09)
)
;
    }
    procBoundary5to1
    {
        type            processor;
        value           nonuniform List<vector> 
32
(
(-9.15453e-09 1.50354e-10 1.87136e-09)
(-4.36475e-09 -1.10832e-10 2.17337e-09)
(-7.60328e-10 -3.29255e-10 2.64154e-09)
(2.25115e-09 -4.12456e-10 3.21404e-09)
(5.23292e-09 -3.83885e-10 3.77718e-09)
(7.99346e-09 -3.71715e-10 4.08216e-09)
(-1.1154e-08 4.21894e-10 1.78717e-09)
(-7.1541e-09 9.36402e-11 2.07401e-09)
(-3.64583e-09 -2.41993e-10 2.41083e-09)
(-7.44742e-10 -5.84901e-10 2.84217e-09)
(1.64911e-09 -8.30223e-10 3.25233e-09)
(3.69958e-09 -9.66214e-10 3.50678e-09)
(5.39701e-09 -9.64061e-10 3.48419e-09)
(-8.02562e-09 6.15242e-10 1.47965e-09)
(-6.87903e-09 4.20988e-10 1.95111e-09)
(-4.74095e-09 -1.85271e-11 2.30824e-09)
(-2.49987e-09 -4.5035e-10 2.6601e-09)
(-4.78622e-10 -8.99679e-10 3.01691e-09)
(1.15842e-09 -1.34793e-09 3.26637e-09)
(2.28447e-09 -1.59501e-09 3.22562e-09)
(2.85074e-09 -1.68409e-09 2.9223e-09)
(-7.37103e-09 3.49587e-10 4.99678e-10)
(-8.90774e-09 2.82055e-10 8.84927e-10)
(-7.41131e-09 1.46854e-10 1.20624e-09)
(-7.41131e-09 1.46854e-10 1.20624e-09)
(-7.41131e-09 1.46854e-10 1.20624e-09)
(-5.77631e-09 4.11368e-10 5.50382e-10)
(-6.76803e-09 3.37697e-10 9.77687e-10)
(-6.76803e-09 3.37697e-10 9.77687e-10)
(-6.76803e-09 3.37697e-10 9.77687e-10)
(-3.85118e-09 5.30905e-10 5.92981e-10)
(-3.85118e-09 5.30905e-10 5.92981e-10)
)
;
    }
    procBoundary5to4
    {
        type            processor;
        value           nonuniform List<vector> 
12
(
(-2.7725e-09 2.76843e-10 9.01704e-11)
(-2.37774e-09 3.44621e-10 9.58978e-11)
(-1.73518e-09 4.50271e-10 1.32969e-10)
(-1.06085e-09 5.55308e-10 1.77776e-10)
(-1.68662e-09 2.11035e-10 7.07263e-11)
(-1.54258e-09 2.71305e-10 7.87681e-11)
(-1.22444e-09 3.88732e-10 9.12423e-11)
(-8.74334e-10 5.04435e-10 1.09289e-10)
(-1.1547e-09 1.81399e-10 7.04172e-11)
(-1.06735e-09 2.37192e-10 7.45759e-11)
(-9.01074e-10 3.48674e-10 8.01838e-11)
(-7.25446e-10 5.04874e-10 8.94746e-11)
)
;
    }
    procBoundary5to7
    {
        type            processor;
        value           nonuniform List<vector> 
44
(
(-2.60833e-09 4.56033e-10 1.13334e-09)
(-2.46446e-09 1.90366e-10 1.56092e-09)
(-1.87593e-09 -1.84125e-10 1.92065e-09)
(-1.01532e-09 -5.5301e-10 2.22022e-09)
(-9.49738e-11 -8.91164e-10 2.51737e-09)
(6.1681e-10 -1.14866e-09 2.73379e-09)
(1.11393e-09 -1.22554e-09 2.64147e-09)
(1.27113e-09 -1.14508e-09 2.51774e-09)
(-2.23595e-09 5.92559e-10 6.48081e-10)
(-2.60833e-09 4.56033e-10 1.13334e-09)
(-1.68094e-09 1.60327e-10 1.12704e-09)
(-1.38938e-09 -1.5348e-10 1.4232e-09)
(-8.3516e-10 -4.43162e-10 1.66319e-09)
(-1.79543e-10 -6.77954e-10 1.90903e-09)
(4.13212e-10 -8.21686e-10 2.10131e-09)
(8.68275e-10 -8.62134e-10 2.09954e-09)
(1.07902e-09 -8.0629e-10 2.14078e-09)
(-7.79161e-10 5.05465e-10 4.44372e-10)
(-1.68094e-09 1.60327e-10 1.12704e-09)
(-9.77273e-10 3.76568e-10 7.50854e-10)
(-1.68094e-09 1.60327e-10 1.12704e-09)
(-1.38938e-09 -1.5348e-10 1.4232e-09)
(-8.11487e-10 -3.18773e-10 1.2232e-09)
(-3.6819e-10 -4.79058e-10 1.38718e-09)
(1.2474e-10 -5.67969e-10 1.5338e-09)
(4.97662e-10 -5.63958e-10 1.54585e-09)
(6.53932e-10 -5.33916e-10 1.50955e-09)
(-6.47823e-10 4.5401e-10 2.91552e-10)
(-7.8618e-10 3.44671e-10 5.1389e-10)
(-8.93098e-10 1.86392e-10 7.42439e-10)
(-8.11487e-10 -3.18773e-10 1.2232e-09)
(-8.16808e-10 -2.25786e-12 9.99215e-10)
(-8.11487e-10 -3.18773e-10 1.2232e-09)
(-3.6819e-10 -4.79058e-10 1.38718e-09)
(-3.13247e-10 -4.32845e-10 1.17345e-09)
(-2.16249e-10 -4.04345e-10 1.20361e-09)
(2.66067e-10 -3.42474e-10 1.05315e-09)
(-5.62235e-10 4.09849e-10 2.35373e-10)
(-6.45113e-10 3.00467e-10 4.04691e-10)
(-8.33602e-10 1.70874e-10 5.93091e-10)
(-8.24504e-10 1.64184e-11 7.8431e-10)
(-7.23569e-10 -1.21591e-10 9.70136e-10)
(-3.13247e-10 -4.32845e-10 1.17345e-09)
(-5.60115e-10 -2.34463e-10 1.11742e-09)
)
;
    }
}


// ************************************************************************* //
