/*--------------------------------*- C++ -*----------------------------------*\
| =========                 |                                                 |
| \\      /  F ield         | OpenFOAM: The Open Source CFD Toolbox           |
|  \\    /   O peration     | Version:  4.x                                   |
|   \\  /    A nd           | Web:      www.OpenFOAM.org                      |
|    \\/     M anipulation  |                                                 |
\*---------------------------------------------------------------------------*/
FoamFile
{
    version     2.0;
    format      ascii;
    class       volScalarField;
    location    "36.5";
    object      QPartFluidCoeff;
}
// * * * * * * * * * * * * * * * * * * * * * * * * * * * * * * * * * * * * * //

dimensions      [1 -1 -3 -1 0 0 0];

internalField   nonuniform List<scalar> 
114
(
-2.62802e+07
-2.43833e+07
-2.35046e+07
-1.89815e+07
-2.61597e+07
-1.93382e+07
-2.41841e+07
-2.34289e+07
-1.96065e+07
-2.73565e+07
-2.79074e+07
-3.34368e+07
-2.14695e+07
-3.31301e+07
-2.04367e+07
-2.90038e+07
-1.95604e+07
-1.76613e+07
-2.47853e+07
-2.07813e+07
-2.23125e+07
-2.21826e+07
-1.90071e+07
-2.52686e+07
-2.12815e+07
-2.19847e+07
-2.79105e+07
-2.40807e+07
-2.26562e+07
-1.63695e+07
-2.70574e+07
-2.74943e+07
-3.08374e+07
-3.0039e+07
-2.95944e+07
-3.38439e+07
-1.81932e+07
-3.55051e+07
-2.1369e+07
-2.84032e+07
-1.84058e+07
-2.43061e+07
-3.04361e+07
-2.05397e+07
-2.81125e+07
-2.42426e+07
-2.70621e+07
-1.4998e+07
-3.42117e+07
-1.6925e+07
-2.42211e+07
-3.18133e+07
-2.44937e+07
-2.85581e+07
-2.52545e+07
-2.67075e+07
-2.23243e+07
-2.89914e+07
-1.70503e+07
-2.06887e+07
-3.6348e+07
-2.34057e+07
-3.04077e+07
-2.7747e+07
-3.06745e+07
-3.60382e+07
-2.9193e+07
-1.60945e+07
-2.47335e+07
-2.59657e+07
-2.60901e+07
-2.46495e+07
-3.7887e+07
-3.09209e+07
-3.03343e+07
-3.67077e+07
-2.77068e+07
-1.77076e+07
-3.91077e+07
-3.20346e+07
-3.32728e+07
-8.29383e+06
-2.28979e+07
-1.50775e+07
-2.57382e+07
-2.01814e+07
-1.95214e+07
-2.3924e+07
-2.64719e+07
-1.66787e+07
-2.32275e+07
-2.74012e+07
-1.67851e+07
-2.31055e+07
-2.72676e+07
-2.56574e+07
-1.82645e+07
-3.01906e+07
-1.78829e+07
-2.01976e+07
-2.43913e+07
-2.89993e+07
-2.62027e+07
-2.0812e+07
-3.15926e+07
-2.34446e+07
-2.74331e+07
-2.15513e+07
-2.39691e+07
-2.15981e+07
-2.44286e+07
-2.24745e+07
-3.47066e+07
-2.85387e+07
)
;

boundaryField
{
    inlet
    {
        type            calculated;
        value           nonuniform 0();
    }
    outlet
    {
        type            calculated;
        value           uniform 0;
    }
    wall
    {
        type            calculated;
        value           uniform 0;
    }
    procBoundary5to1
    {
        type            processor;
        value           nonuniform List<scalar> 
32
(
727.86
461.315
732.151
578.252
566.151
242.241
488.096
611.128
616.055
685.44
575.452
712.64
278.492
596.372
417.012
842.193
671.916
805.84
564.512
728.989
254.187
491.08
419.519
580.009
580.009
580.009
593.896
921.52
921.52
921.52
443.916
443.916
)
;
    }
    procBoundary5to4
    {
        type            processor;
        value           nonuniform List<scalar> 
12
(
729.752
840.417
509.66
532.774
724.26
793.858
652.574
615.145
620.185
648.65
532.477
535.373
)
;
    }
    procBoundary5to7
    {
        type            processor;
        value           nonuniform List<scalar> 
44
(
685.443
483.146
599.562
835.956
943.122
603.856
495.332
471.794
753.114
685.443
494.99
654.694
529.338
621.838
667.438
750.676
465.18
290.19
494.99
763.754
494.99
654.694
384.798
550.82
628.071
580.663
357.216
644.791
690.672
534.025
384.798
491.289
384.798
550.82
446.999
617.549
371.455
548.648
528.477
563.73
653.965
386.393
446.999
373.183
)
;
    }
}


// ************************************************************************* //
