/*--------------------------------*- C++ -*----------------------------------*\
| =========                 |                                                 |
| \\      /  F ield         | OpenFOAM: The Open Source CFD Toolbox           |
|  \\    /   O peration     | Version:  4.x                                   |
|   \\  /    A nd           | Web:      www.OpenFOAM.org                      |
|    \\/     M anipulation  |                                                 |
\*---------------------------------------------------------------------------*/
FoamFile
{
    version     2.0;
    format      ascii;
    class       volVectorField;
    location    "36.5";
    object      UsPrev;
}
// * * * * * * * * * * * * * * * * * * * * * * * * * * * * * * * * * * * * * //

dimensions      [0 1 -1 0 0 0 0];

internalField   nonuniform List<vector> 
114
(
(9.5136e-11 2.11551e-10 1.49594e-09)
(3.75079e-10 -8.28544e-11 -3.26162e-10)
(4.88103e-10 -3.05989e-10 -1.46328e-09)
(2.37839e-10 6.04127e-10 -2.24037e-09)
(7.58046e-10 4.88397e-10 -2.09477e-09)
(6.34625e-09 -1.78083e-10 -1.57101e-09)
(1.91384e-09 9.66689e-10 5.88544e-09)
(1.37831e-09 3.84553e-11 2.10573e-09)
(1.30679e-09 -8.75588e-10 -7.29714e-10)
(1.14395e-09 -3.07345e-10 -2.75433e-09)
(1.03195e-09 1.15156e-09 -5.01848e-09)
(1.01028e-09 1.15397e-09 -4.84833e-09)
(4.30807e-10 4.22245e-10 -4.14476e-09)
(1.87678e-09 -3.28555e-10 5.04075e-09)
(2.2696e-09 8.40055e-10 4.38956e-09)
(2.6271e-09 -4.07892e-10 1.32185e-09)
(2.05616e-09 -9.56097e-10 -1.1325e-09)
(1.7086e-09 -6.53105e-10 -3.09664e-09)
(8.39056e-10 1.8975e-10 -4.68021e-09)
(1.11895e-09 5.18677e-10 -6.97988e-09)
(3.01005e-10 -7.56154e-11 -4.35371e-09)
(-5.5497e-10 2.05732e-10 1.20003e-09)
(3.89245e-11 2.85662e-10 1.33603e-09)
(-2.90248e-10 -1.18128e-10 1.78645e-09)
(-3.33231e-10 -3.58741e-11 8.29997e-10)
(-3.89463e-10 1.43817e-10 1.85793e-10)
(-2.60574e-10 5.15572e-11 -9.16521e-10)
(-2.89797e-10 3.6886e-10 -1.78995e-09)
(5.12793e-10 3.15504e-10 -1.7299e-09)
(-1.14668e-10 1.94455e-10 -3.40479e-09)
(5.76642e-10 3.99942e-10 1.89235e-09)
(1.84673e-09 7.27128e-10 1.90448e-09)
(1.27982e-09 -1.25504e-11 3.15602e-09)
(3.01704e-10 4.50603e-10 1.44992e-09)
(3.65512e-10 1.27194e-10 -6.32211e-11)
(6.60544e-10 2.87761e-10 -1.70524e-09)
(5.3737e-10 3.34004e-10 -3.1057e-09)
(1.01448e-09 6.74896e-10 -3.45403e-09)
(2.09784e-09 2.63557e-10 -4.08271e-09)
(1.34489e-09 -1.0227e-10 2.6809e-09)
(1.88735e-09 -4.47628e-10 2.93888e-09)
(1.78937e-09 -1.65366e-10 3.52969e-09)
(1.99862e-09 1.14212e-10 1.44602e-09)
(1.85563e-09 -1.76575e-10 -9.00204e-10)
(1.49601e-09 1.93455e-11 -2.30603e-09)
(9.12353e-10 2.30671e-10 -3.95766e-09)
(6.621e-10 7.0561e-10 -4.442e-09)
(1.39872e-10 3.70242e-10 -2.86246e-09)
(1.62372e-09 -3.45612e-10 1.09014e-09)
(1.51814e-09 -1.01896e-09 1.70965e-09)
(-2.44199e-10 8.33232e-11 9.00679e-10)
(-1.44686e-10 -4.55537e-11 9.15584e-10)
(-3.55665e-10 -3.70117e-10 1.12729e-09)
(-1.0694e-09 -1.33405e-09 1.89001e-09)
(-2.03382e-10 1.15628e-10 5.51908e-11)
(-5.09776e-10 7.85282e-11 -4.49656e-10)
(-9.22115e-10 2.93682e-10 -1.15909e-09)
(-8.63099e-10 6.44274e-10 -2.25161e-09)
(2.56662e-09 -6.61575e-10 -7.49568e-09)
(4.65629e-10 -3.26996e-12 1.5244e-09)
(4.92401e-10 -1.20508e-10 1.65238e-09)
(3.29577e-10 -5.82016e-10 2.2105e-09)
(-4.8183e-10 -7.64907e-10 1.30709e-09)
(8.59198e-10 3.40478e-10 -1.24547e-10)
(6.64168e-10 3.59313e-10 -1.25293e-09)
(-5.13285e-10 9.06333e-10 -2.08083e-09)
(-4.47265e-10 1.44096e-09 -2.73067e-09)
(3.37852e-10 1.00897e-09 -4.27593e-09)
(1.73311e-09 7.37658e-11 2.05333e-09)
(1.78688e-09 -2.53747e-10 1.87757e-09)
(1.65385e-09 -6.14068e-10 2.45331e-09)
(1.73438e-09 -3.98634e-10 9.64378e-10)
(1.78546e-09 -7.08009e-11 -3.73366e-10)
(1.42048e-09 1.21743e-10 -1.46533e-09)
(3.48079e-10 6.64287e-10 -2.62112e-09)
(3.30555e-10 6.0583e-10 -3.19921e-09)
(4.46708e-10 4.77969e-10 -2.71881e-09)
(2.34177e-09 -1.39616e-10 1.14635e-09)
(2.36148e-09 -2.84873e-10 1.34196e-09)
(2.07085e-09 -4.77311e-10 9.00089e-10)
(1.91206e-09 -5.14222e-10 4.53097e-10)
(-9.75011e-11 -5.69706e-11 3.54247e-10)
(-1.71532e-10 -3.04223e-11 5.43755e-10)
(-3.6854e-10 -2.57331e-11 2.81194e-10)
(-8.55654e-10 -8.95229e-10 1.10869e-09)
(-4.75899e-10 1.25714e-10 -1.13179e-10)
(-4.521e-10 7.65589e-11 -3.60119e-10)
(-1.23779e-09 4.16569e-10 -5.73394e-10)
(-1.11575e-09 2.13021e-09 -3.00824e-09)
(2.07263e-09 5.55851e-09 -7.15201e-09)
(3.21426e-10 1.59554e-10 6.01428e-10)
(2.08558e-10 1.21649e-11 8.80431e-10)
(-1.33453e-09 3.16353e-10 1.3079e-09)
(-2.47349e-09 -6.67333e-10 4.39153e-10)
(-3.99028e-11 3.18831e-10 -1.97674e-11)
(4.15309e-10 1.71734e-10 -4.85226e-10)
(-3.58784e-10 8.9389e-10 -1.50547e-09)
(-3.15004e-10 3.28464e-09 -1.81826e-09)
(2.48228e-09 7.54889e-09 -2.15168e-09)
(9.70166e-10 8.70419e-11 4.49697e-10)
(1.20504e-09 8.60871e-11 6.48703e-10)
(1.15593e-09 -1.85052e-10 7.78111e-10)
(6.85674e-12 -1.11846e-10 3.48673e-10)
(9.59266e-10 -3.70242e-11 -2.49076e-10)
(1.29524e-09 1.3128e-10 -7.45072e-10)
(4.58125e-10 5.64485e-10 -1.21485e-09)
(-4.96327e-11 6.39311e-10 -1.65001e-09)
(5.92119e-10 5.15273e-10 -1.369e-09)
(2.09998e-09 1.32283e-10 5.15984e-10)
(1.70613e-09 6.4441e-12 6.70894e-10)
(1.40716e-09 3.84784e-11 4.53048e-10)
(1.50502e-09 -2.60061e-10 2.50966e-10)
(1.75788e-09 -1.67854e-10 -1.28524e-10)
(1.46914e-09 3.68184e-11 -5.56065e-10)
)
;

boundaryField
{
    inlet
    {
        type            calculated;
        value           nonuniform 0();
    }
    outlet
    {
        type            calculated;
        value           uniform (0 0 0);
    }
    wall
    {
        type            calculated;
        value           uniform (0 0 0);
    }
    procBoundary5to1
    {
        type            processor;
        value           uniform (0 0 0);
    }
    procBoundary5to4
    {
        type            processor;
        value           uniform (0 0 0);
    }
    procBoundary5to7
    {
        type            processor;
        value           uniform (0 0 0);
    }
}


// ************************************************************************* //
