/*--------------------------------*- C++ -*----------------------------------*\
| =========                 |                                                 |
| \\      /  F ield         | OpenFOAM: The Open Source CFD Toolbox           |
|  \\    /   O peration     | Version:  4.x                                   |
|   \\  /    A nd           | Web:      www.OpenFOAM.org                      |
|    \\/     M anipulation  |                                                 |
\*---------------------------------------------------------------------------*/
FoamFile
{
    version     2.0;
    format      ascii;
    class       volScalarField;
    location    "52";
    object      Ksl;
}
// * * * * * * * * * * * * * * * * * * * * * * * * * * * * * * * * * * * * * //

dimensions      [1 -3 -1 0 0 0 0];

internalField   nonuniform List<scalar> 
114
(
6252.71
3144.04
5504.08
3029.28
5061.4
2875.38
3394.75
8097.67
3327.93
6992.99
3279.56
6441.09
3214.79
6221.36
3132.91
3348.88
7538.32
3226.49
6178.82
3137.32
5507.37
3032.29
5130.11
2914.47
3291.98
6772.67
3092.07
5288.39
2910.02
4513.76
2740.73
4075.52
2637.59
12780.8
3678.53
14605.6
3555.11
3434.98
9958.15
3586.07
11971.8
3689.85
15482.9
3743.78
23740.3
3721.99
3411.82
9064.66
3515.24
9404.92
3523.31
9686.31
3504.58
10209.1
3416.04
3333.52
7565.66
3291.6
6539.93
3164.46
5897.97
3075.19
5522.13
2965.44
23315.8
3658.01
3495.97
10887
3721.78
16634.3
3850.91
33253.8
3923.85
272375
3948.7
3440.01
10055.9
3640.34
13130.8
3731.06
18406.3
3779.25
34292.2
3755.78
3365.27
8215.3
3392.1
7716.45
3327.01
7285.64
3329.91
7285.29
3269.95
3506.27
11542
3755.42
17772.2
3828.36
30047.4
3834.45
76458.5
3464.18
9647.92
3630.89
11027.5
3643.25
11937.4
3580.13
3359.65
7942.91
3386.92
7445.85
3327.13
6961.59
)
;

boundaryField
{
    inlet
    {
        type            zeroGradient;
    }
    outlet
    {
        type            zeroGradient;
    }
    wall
    {
        type            zeroGradient;
    }
    procBoundary2to0
    {
        type            processor;
        value           nonuniform List<scalar> 
44
(
6392.47
3187.01
5730.51
3076.97
5386.21
3039.01
3365.93
7555.4
3228.21
3228.21
10709.5
3664.28
14313.8
3744.52
21127.6
3714.34
3486.34
9706.52
3572.92
10709.5
3664.28
3664.28
20667
3766.25
30735
3764.63
3531.83
11085.9
3732.22
15564.9
3801.01
20667
3766.25
3766.25
32647.3
3721.8
3504.97
11006.3
3746.18
16584.7
3783.32
23804.6
3770.44
32647.3
)
;
    }
    procBoundary2to3
    {
        type            processor;
        value           nonuniform List<scalar> 
12
(
4876.63
6466.62
4914.67
3812.2
16092.4
48530
10853.2
5353.14
27500.3
1e+10
116322
7712.84
)
;
    }
    procBoundary2to6
    {
        type            processor;
        value           nonuniform List<scalar> 
32
(
3794.06
12175
3479.91
3219.5
6577.68
3125.02
3574.29
12700.4
3863.65
28906.2
4004.08
209949
4049.98
3794.06
12175
1e+10
3483.55
10801.7
3683.81
15886.4
3787.73
27107.7
12175
3219.5
3825.64
3369.13
8173.81
3394.89
8051.22
3435
3219.5
8527.92
)
;
    }
}


// ************************************************************************* //
