/*--------------------------------*- C++ -*----------------------------------*\
| =========                 |                                                 |
| \\      /  F ield         | OpenFOAM: The Open Source CFD Toolbox           |
|  \\    /   O peration     | Version:  4.x                                   |
|   \\  /    A nd           | Web:      www.OpenFOAM.org                      |
|    \\/     M anipulation  |                                                 |
\*---------------------------------------------------------------------------*/
FoamFile
{
    version     2.0;
    format      ascii;
    class       volVectorField;
    location    "57";
    object      impParticleForces;
}
// * * * * * * * * * * * * * * * * * * * * * * * * * * * * * * * * * * * * * //

dimensions      [1 1 -2 0 0 0 0];

internalField   nonuniform List<vector> 
87
(
(0.00241691 -7.32621e-06 -4.25393e-05)
(0.00245969 -4.14192e-06 -3.82302e-05)
(0.0024632 -1.62807e-06 -3.43646e-05)
(0.00250794 4.1244e-07 -3.23114e-05)
(0.00246377 7.85672e-07 -3.14079e-05)
(0.00246412 -1.59714e-07 -3.16738e-05)
(0.00245305 -2.47403e-06 -3.77286e-05)
(0.00243792 -6.84661e-06 -4.10435e-05)
(0.00231406 -1.62525e-05 -5.73589e-05)
(0.00246678 -7.65311e-06 -4.32502e-05)
(0.00249336 -4.86655e-06 -3.81841e-05)
(0.0025023 -2.82023e-06 -3.42994e-05)
(0.00253444 -8.25008e-07 -3.11429e-05)
(0.00249909 -1.15957e-06 -2.99023e-05)
(0.00251095 -1.01365e-06 -2.94501e-05)
(0.00248508 -4.65184e-06 -3.57918e-05)
(0.00248593 -4.59157e-06 -3.92127e-05)
(0.00233493 -2.03698e-05 -6.26018e-05)
(0.00247527 -5.66194e-06 -4.23799e-05)
(0.00251191 -3.36304e-06 -3.71084e-05)
(0.00249773 -1.79175e-06 -3.21689e-05)
(0.00253216 -6.58219e-07 -2.83818e-05)
(0.00249047 -9.6175e-07 -2.66084e-05)
(0.00249907 -1.42132e-06 -2.62865e-05)
(0.00245751 -4.0874e-06 -3.39575e-05)
(0.00245057 -4.88464e-06 -3.85901e-05)
(0.00232303 -1.27773e-05 -6.31733e-05)
(0.00245642 -7.35985e-06 -4.20318e-05)
(0.0024719 -4.05405e-06 -3.68378e-05)
(0.00247813 -1.077e-06 -3.26388e-05)
(0.00251109 8.51663e-07 -2.95007e-05)
(0.00247577 1.4377e-06 -2.76341e-05)
(0.00248327 7.84772e-07 -2.70884e-05)
(0.00245801 -1.46697e-06 -3.10542e-05)
(0.00243072 -6.12937e-06 -3.39166e-05)
(0.00230319 -1.40585e-05 -4.92471e-05)
(0.0025046 -7.78808e-06 -4.24317e-05)
(0.00251311 -4.64001e-06 -3.65758e-05)
(0.00250993 -2.15106e-06 -3.19465e-05)
(0.00255503 -6.77141e-09 -2.85041e-05)
(0.00252365 2.98416e-07 -2.60706e-05)
(0.00252625 8.74504e-07 -2.43839e-05)
(0.00249572 -2.48575e-06 -2.93028e-05)
(0.00248556 -3.04601e-06 -3.30612e-05)
(0.00232516 -1.68232e-05 -5.41108e-05)
(0.00249549 -5.75518e-06 -4.11279e-05)
(0.00252649 -3.39474e-06 -3.51321e-05)
(0.00250436 -1.79503e-06 -3.0172e-05)
(0.0025278 -5.1926e-07 -2.58832e-05)
(0.00249025 -5.68321e-07 -2.33046e-05)
(0.00251217 -1.05727e-06 -2.2224e-05)
(0.00247415 -2.92122e-06 -2.72558e-05)
(0.0024714 -5.52213e-06 -3.2513e-05)
(0.00232733 -1.04138e-05 -5.75304e-05)
(0.00242735 -7.30374e-06 -3.83733e-05)
(0.00245724 -3.85871e-06 -3.36368e-05)
(0.00245722 -9.3765e-07 -2.93225e-05)
(0.00248831 1.19028e-06 -2.57081e-05)
(0.00243984 9.11626e-07 -2.17965e-05)
(0.00244757 3.32748e-07 -1.9639e-05)
(0.0023988 -2.65763e-06 -2.08781e-05)
(0.00237745 -6.24369e-06 -1.80832e-05)
(0.00226103 -1.43172e-05 -2.83954e-05)
(0.00246261 -7.60736e-06 -3.83068e-05)
(0.00249324 -4.40084e-06 -3.31253e-05)
(0.00247156 -2.15057e-06 -2.81312e-05)
(0.00250996 1.15708e-07 -2.37911e-05)
(0.00247382 -1.65102e-07 -2.09371e-05)
(0.00248409 4.19629e-07 -1.79215e-05)
(0.00242696 -3.2465e-06 -1.97266e-05)
(0.00241246 -4.22397e-06 -2.02071e-05)
(0.0022825 -1.57461e-05 -3.36785e-05)
(0.00245524 -5.94636e-06 -3.70338e-05)
(0.00248887 -3.63814e-06 -3.12757e-05)
(0.00246103 -1.98659e-06 -2.64202e-05)
(0.00250573 -3.34639e-07 -2.21479e-05)
(0.00246137 -5.37994e-07 -1.91888e-05)
(0.00247663 -2.95379e-07 -1.66675e-05)
(0.00241586 -2.11146e-06 -1.85215e-05)
(0.00239732 -2.51944e-06 -2.15367e-05)
(0.00228617 -1.02776e-05 -3.6612e-05)
(0.00239894 -8.00618e-06 -3.0827e-05)
(0.00240672 -4.59984e-06 -2.54299e-05)
(0.00240344 -1.94803e-06 -2.08226e-05)
(0.0024331 -7.6759e-06 -3.10603e-05)
(0.00246791 -4.1961e-06 -2.60938e-05)
(0.00241627 -5.89608e-06 -3.04712e-05)
)
;

boundaryField
{
    inlet
    {
        type            zeroGradient;
    }
    outlet
    {
        type            zeroGradient;
    }
    wall
    {
        type            zeroGradient;
    }
    procBoundary1to0
    {
        type            processor;
        value           nonuniform List<vector> 
12
(
(0.00243077 -1.08608e-05 -4.89268e-05)
(0.00247763 -1.09505e-05 -4.99543e-05)
(0.00249201 -8.05485e-06 -4.96786e-05)
(0.00246427 -1.12165e-05 -4.8092e-05)
(0.00251199 -1.14351e-05 -4.90144e-05)
(0.0024966 -8.11199e-06 -4.77959e-05)
(0.00243766 -1.13429e-05 -4.40139e-05)
(0.00248614 -1.13227e-05 -4.48693e-05)
(0.00245556 -8.22832e-06 -4.29876e-05)
(0.0024235 -1.17425e-05 -3.64978e-05)
(0.00245143 -1.09779e-05 -3.68686e-05)
(0.00243372 -8.11385e-06 -3.58793e-05)
)
;
    }
    procBoundary1to3
    {
        type            processor;
        value           nonuniform List<vector> 
27
(
(0.0024956 -3.63432e-06 -4.18253e-05)
(0.00248899 -2.20566e-06 -3.55255e-05)
(0.00249229 -1.41705e-06 -3.03615e-05)
(0.00248433 -6.80357e-07 -2.60304e-05)
(0.0024689 -1.08816e-06 -2.3919e-05)
(0.00245532 -1.87907e-07 -2.36883e-05)
(0.00242049 -1.22514e-06 -3.05109e-05)
(0.00237671 1.32007e-06 -3.95798e-05)
(0.00229325 5.12791e-07 -5.8134e-05)
(0.0024997 -3.35997e-06 -4.07224e-05)
(0.00252718 -2.04176e-06 -3.46648e-05)
(0.00251148 -1.22558e-06 -2.95677e-05)
(0.00252907 -5.9368e-07 -2.46977e-05)
(0.00248662 -2.28985e-07 -2.19628e-05)
(0.00248886 1.90054e-07 -2.00592e-05)
(0.00243673 8.28969e-07 -2.59317e-05)
(0.00242503 8.59787e-07 -3.17202e-05)
(0.00232395 9.20052e-07 -5.90575e-05)
(0.00245964 -3.48831e-06 -3.68037e-05)
(0.00250084 -2.47983e-06 -3.1409e-05)
(0.00246967 -1.59222e-06 -2.65646e-05)
(0.00249397 -8.63133e-07 -2.18877e-05)
(0.00244878 -1.02896e-07 -1.87483e-05)
(0.00246183 7.30089e-07 -1.59277e-05)
(0.00240511 1.67096e-06 -1.96964e-05)
(0.00237757 3.99585e-06 -2.43316e-05)
(0.00229368 2.52878e-06 -4.25294e-05)
)
;
    }
    procBoundary1to5
    {
        type            processor;
        value           nonuniform List<vector> 
32
(
(0.00242433 2.11421e-07 -1.57373e-05)
(0.0023833 -5.35151e-07 -1.13038e-05)
(0.00238507 -1.77189e-06 -6.60266e-06)
(0.0023289 -5.8208e-06 -4.05214e-06)
(0.00230685 -1.09424e-05 -1.13741e-06)
(0.00222502 -1.87838e-05 -2.86504e-06)
(0.00242697 -2.2573e-06 -2.07226e-05)
(0.00244435 -1.87695e-07 -1.58564e-05)
(0.00240463 -7.62297e-07 -1.13608e-05)
(0.00241919 -8.54045e-07 -6.1659e-06)
(0.00236187 -4.9763e-06 -4.85341e-06)
(0.00234517 -8.55081e-06 -2.02963e-06)
(0.00225349 -1.81635e-05 -7.21739e-06)
(0.00245051 -3.46138e-06 -2.5499e-05)
(0.00241422 -2.28684e-06 -2.06012e-05)
(0.00243952 -1.04811e-06 -1.59469e-05)
(0.00240196 -1.07005e-06 -1.19308e-05)
(0.00240106 -1.26649e-06 -7.84756e-06)
(0.00235143 -3.08706e-06 -6.41875e-06)
(0.00232226 -5.51995e-06 -6.35411e-06)
(0.00224824 -1.05714e-05 -1.12818e-05)
(0.00239248 -9.47519e-06 -2.23788e-05)
(0.00239944 -6.60037e-06 -1.71886e-05)
(0.00242433 2.11421e-07 -1.57373e-05)
(0.00242697 -2.2573e-06 -2.07226e-05)
(0.00239261 -4.23402e-06 -1.22066e-05)
(0.00242054 -9.08838e-06 -2.26905e-05)
(0.00242697 -2.2573e-06 -2.07226e-05)
(0.00245051 -3.46138e-06 -2.5499e-05)
(0.00243224 -6.3065e-06 -1.78867e-05)
(0.00245051 -3.46138e-06 -2.5499e-05)
(0.00239937 -6.9706e-06 -2.32356e-05)
)
;
    }
    procBoundary1to7
    {
        type            processor;
        value           uniform (0.00241839 -3.42768e-06 -3.09356e-05);
    }
}


// ************************************************************************* //
