/*--------------------------------*- C++ -*----------------------------------*\
| =========                 |                                                 |
| \\      /  F ield         | OpenFOAM: The Open Source CFD Toolbox           |
|  \\    /   O peration     | Version:  4.x                                   |
|   \\  /    A nd           | Web:      www.OpenFOAM.org                      |
|    \\/     M anipulation  |                                                 |
\*---------------------------------------------------------------------------*/
FoamFile
{
    version     2.0;
    format      ascii;
    class       volScalarField;
    location    "57";
    object      particleRelTemp;
}
// * * * * * * * * * * * * * * * * * * * * * * * * * * * * * * * * * * * * * //

dimensions      [0 0 0 0 0 0 0];

internalField   nonuniform List<scalar> 
87
(
1.56414e-09
5.72693e-10
-4.68354e-10
-1.12443e-09
-1.54534e-09
-1.60225e-09
-1.38541e-09
-1.12119e-09
-9.59029e-10
2.2373e-09
9.11736e-10
-3.89515e-10
-1.27626e-09
-1.75943e-09
-1.77393e-09
-1.52321e-09
-1.1364e-09
-9.7507e-10
2.02941e-09
1.08249e-09
-6.42364e-11
-1.18886e-09
-1.74088e-09
-1.79973e-09
-1.62782e-09
-1.21278e-09
-1.02276e-09
2.14596e-09
5.57292e-10
-4.04726e-10
-1.20279e-09
-1.67681e-09
-1.63331e-09
-1.41532e-09
-1.06424e-09
-8.88713e-10
2.20782e-09
1.04955e-09
-3.18959e-10
-1.30872e-09
-1.77409e-09
-1.79251e-09
-1.51742e-09
-1.09185e-09
-8.39449e-10
2.41017e-09
1.12302e-09
-2.95604e-10
-1.3302e-09
-1.81275e-09
-1.77582e-09
-1.58841e-09
-1.20658e-09
-8.64493e-10
1.94217e-09
6.88113e-10
-5.92424e-10
-1.31881e-09
-1.63814e-09
-1.53344e-09
-1.25081e-09
-9.14815e-10
-7.49529e-10
2.09078e-09
7.30671e-10
-4.78338e-10
-1.4167e-09
-1.73343e-09
-1.63938e-09
-1.26178e-09
-9.36445e-10
-6.16192e-10
2.52835e-09
5.86972e-10
-4.27056e-10
-1.32771e-09
-1.69031e-09
-1.62118e-09
-1.25762e-09
-9.43688e-10
-6.89749e-10
1.65924e-09
6.64208e-11
-7.09954e-10
1.51667e-09
1.28616e-10
1.84064e-09
)
;

boundaryField
{
    inlet
    {
        type            calculated;
        value           nonuniform 0();
    }
    outlet
    {
        type            calculated;
        value           nonuniform List<scalar> 9(-9.59029e-10 -9.7507e-10 -1.02276e-09 -8.88713e-10 -8.39449e-10 -8.64493e-10 -7.49529e-10 -6.16192e-10 -6.89749e-10);
    }
    wall
    {
        type            calculated;
        value           nonuniform List<scalar> 
57
(
1.56414e-09
2.2373e-09
2.02941e-09
5.72693e-10
9.11736e-10
1.08249e-09
-4.68354e-10
-3.89515e-10
-6.42364e-11
-1.12443e-09
-1.27626e-09
-1.18886e-09
-1.54534e-09
-1.75943e-09
-1.74088e-09
-1.60225e-09
-1.77393e-09
-1.79973e-09
-1.38541e-09
-1.52321e-09
-1.62782e-09
-1.12119e-09
-1.1364e-09
-1.21278e-09
-9.59029e-10
-9.7507e-10
-1.02276e-09
1.56414e-09
2.14596e-09
1.94217e-09
1.65924e-09
5.72693e-10
5.57292e-10
6.88113e-10
6.64208e-11
-4.68354e-10
-4.04726e-10
-5.92424e-10
-7.09954e-10
-1.12443e-09
-1.20279e-09
-1.31881e-09
-1.54534e-09
-1.67681e-09
-1.63814e-09
-1.60225e-09
-1.63331e-09
-1.53344e-09
-1.38541e-09
-1.41532e-09
-1.25081e-09
-1.12119e-09
-1.06424e-09
-9.14815e-10
-9.59029e-10
-8.88713e-10
-7.49529e-10
)
;
    }
    procBoundary1to0
    {
        type            processor;
        value           nonuniform List<scalar> 
12
(
2.54689e-09
3.13211e-09
3.35952e-09
2.86266e-09
3.33345e-09
3.52306e-09
2.93275e-09
3.1845e-09
3.44763e-09
2.46951e-09
2.77988e-09
2.54125e-09
)
;
    }
    procBoundary1to3
    {
        type            processor;
        value           nonuniform List<scalar> 
27
(
2.33978e-09
1.35939e-09
-4.06688e-11
-7.5188e-10
-1.38132e-09
-1.58359e-09
-1.60552e-09
-1.25308e-09
-1.09824e-09
2.13393e-09
9.5216e-10
-3.78838e-11
-1.05485e-09
-1.53846e-09
-1.64103e-09
-1.51435e-09
-1.23715e-09
-1.04187e-09
1.63673e-09
8.75292e-10
-3.79127e-10
-1.14503e-09
-1.57993e-09
-1.60525e-09
-1.3612e-09
-9.53564e-10
-7.92391e-10
)
;
    }
    procBoundary1to5
    {
        type            processor;
        value           nonuniform List<scalar> 
32
(
-1.35704e-09
-1.55829e-09
-1.41331e-09
-1.04107e-09
-7.07399e-10
-4.40911e-10
-9.37428e-10
-1.46042e-09
-1.63563e-09
-1.41852e-09
-1.12411e-09
-6.50807e-10
-4.04586e-10
5.14938e-10
-8.79741e-10
-1.49543e-09
-1.62246e-09
-1.41601e-09
-1.03935e-09
-6.65534e-10
-3.41055e-10
5.17233e-10
-2.87055e-10
-1.35704e-09
-9.37428e-10
-1.01023e-09
5.99893e-10
-9.37428e-10
5.14938e-10
-2.44494e-10
5.14938e-10
3.43901e-10
)
;
    }
    procBoundary1to7
    {
        type            processor;
        value           uniform 1.08812e-09;
    }
}


// ************************************************************************* //
