/*--------------------------------*- C++ -*----------------------------------*\
| =========                 |                                                 |
| \\      /  F ield         | OpenFOAM: The Open Source CFD Toolbox           |
|  \\    /   O peration     | Version:  4.x                                   |
|   \\  /    A nd           | Web:      www.OpenFOAM.org                      |
|    \\/     M anipulation  |                                                 |
\*---------------------------------------------------------------------------*/
FoamFile
{
    version     2.0;
    format      ascii;
    class       volVectorField;
    location    "57";
    object      UsNext;
}
// * * * * * * * * * * * * * * * * * * * * * * * * * * * * * * * * * * * * * //

dimensions      [0 1 -1 0 0 0 0];

internalField   nonuniform List<vector> 
87
(
(3.52162e-09 -5.36076e-10 1.11477e-09)
(3.45899e-09 8.00175e-10 2.32696e-09)
(-1.91625e-09 1.80233e-09 5.45805e-09)
(-4.62141e-09 1.34376e-09 1.95849e-11)
(-1.53439e-09 1.45547e-09 1.41863e-09)
(-8.19929e-10 5.29459e-10 5.07976e-10)
(1.26487e-09 -1.03146e-11 -6.57501e-10)
(9.35324e-08 2.43519e-09 -5.43312e-09)
(4.83268e-08 -3.53808e-09 -8.97156e-09)
(7.4896e-09 -1.61214e-09 1.22669e-09)
(8.78059e-09 -2.73279e-09 1.18077e-09)
(-4.90306e-09 6.33541e-09 1.42493e-08)
(-1.33246e-08 7.85021e-10 3.15111e-09)
(-1.02545e-08 3.66113e-09 7.94138e-10)
(-4.69385e-09 1.89066e-10 1.54034e-09)
(-1.42811e-09 3.64276e-10 -7.22429e-10)
(-6.29756e-10 -8.8575e-10 -1.19753e-09)
(-9.89223e-10 -5.72314e-09 -2.89193e-09)
(6.48928e-09 -2.65498e-09 1.09952e-09)
(1.07295e-08 -4.17929e-09 -7.4707e-11)
(-3.82824e-09 -1.98042e-09 7.13368e-09)
(-2.32604e-08 2.16418e-09 4.44858e-09)
(-1.42988e-08 5.99125e-10 7.88678e-10)
(-8.3027e-09 -7.83846e-10 1.31465e-09)
(-4.23585e-09 -5.49886e-10 2.19926e-09)
(-8.69482e-10 4.55393e-10 -6.26389e-10)
(1.49886e-09 9.13883e-10 1.87164e-10)
(3.74735e-09 -1.29828e-09 7.96727e-10)
(2.94674e-09 -1.57214e-09 2.48758e-09)
(-2.13702e-09 -3.07368e-09 3.6285e-09)
(-8.11049e-09 2.44097e-10 2.30261e-09)
(-3.61896e-09 -1.40092e-10 3.98441e-10)
(-7.87903e-10 1.40871e-10 -1.35694e-10)
(1.29244e-10 1.7683e-10 -4.48366e-10)
(9.31498e-10 -2.69236e-10 -1.40617e-09)
(3.62554e-10 -1.46502e-09 -2.78366e-09)
(5.9452e-09 -1.45952e-09 7.08347e-10)
(7.20373e-09 -3.07055e-09 1.36862e-09)
(-6.09302e-09 -1.29053e-09 8.03421e-09)
(-1.1725e-08 -3.47601e-10 1.73933e-09)
(-7.00434e-09 -1.60114e-10 3.90109e-10)
(-2.96463e-09 -6.99882e-11 2.7058e-10)
(-1.50853e-09 1.37424e-10 -2.88479e-10)
(-2.86144e-11 -3.6051e-11 -1.15442e-09)
(2.10711e-09 -1.47623e-09 -1.73752e-09)
(5.33453e-09 -2.92891e-09 1.74123e-09)
(6.46686e-09 -4.06549e-09 1.69872e-09)
(-4.95629e-09 -6.28667e-09 7.63489e-09)
(-1.42272e-08 -2.18488e-09 3.40431e-09)
(-1.06445e-08 -6.61904e-10 6.19104e-10)
(-6.59134e-09 -7.84766e-10 -2.88626e-10)
(-2.68522e-09 -9.50598e-10 1.34276e-10)
(-1.07393e-09 -3.92674e-10 -8.89128e-10)
(3.40791e-11 -4.68815e-10 -3.82254e-10)
(2.12842e-09 -3.09318e-10 4.91576e-10)
(3.16576e-09 -1.58655e-09 1.52783e-09)
(-2.69094e-09 -5.76864e-09 2.45572e-10)
(-5.86215e-09 -8.4958e-10 1.19239e-09)
(-3.86599e-09 1.68643e-10 4.97468e-10)
(-1.88299e-09 1.95477e-10 2.48703e-11)
(-7.97447e-10 1.84809e-10 -1.72352e-10)
(-5.90737e-10 1.14537e-10 -4.88277e-10)
(2.37124e-10 -3.73408e-10 -8.65436e-10)
(1.97663e-09 -5.9989e-10 1.66928e-09)
(1.88275e-09 -1.95445e-09 3.2986e-09)
(-3.14059e-09 -3.31137e-09 2.35115e-09)
(-5.84512e-09 -2.77478e-09 1.99534e-09)
(-4.36987e-09 -1.21959e-09 6.68092e-10)
(-2.24995e-09 8.04261e-11 -3.42696e-10)
(-9.76034e-10 5.77604e-11 -5.08595e-10)
(-4.06512e-10 -2.93594e-11 -8.58802e-10)
(-1.17682e-10 -1.14452e-10 3.87175e-11)
(2.93716e-09 -2.25436e-09 1.352e-09)
(3.12146e-09 -2.98687e-09 3.74345e-09)
(-1.15458e-09 -7.48314e-10 3.20369e-09)
(-6.6151e-09 -2.53492e-09 3.84004e-09)
(-6.50905e-09 -1.39315e-09 8.90516e-10)
(-3.96277e-09 -6.94054e-10 -8.38397e-11)
(-1.55976e-09 -6.1049e-10 -7.0186e-10)
(-8.67469e-10 -2.60143e-10 -7.2997e-10)
(-1.8175e-10 -1.6401e-10 1.60154e-10)
(6.37807e-10 -5.60235e-10 6.73722e-10)
(2.70221e-09 1.55904e-10 6.65128e-10)
(-1.57515e-09 -1.44459e-09 1.43229e-09)
(1.14429e-09 -9.95959e-10 1.78064e-09)
(1.54098e-09 -1.61018e-09 3.48584e-09)
(1.81736e-09 -1.16656e-09 1.82514e-09)
)
;

boundaryField
{
    inlet
    {
        type            calculated;
        value           nonuniform 0();
    }
    outlet
    {
        type            calculated;
        value           nonuniform List<vector> 9((4.83268e-08 -3.53808e-09 -8.97156e-09) (-9.89223e-10 -5.72314e-09 -2.89193e-09) (1.49886e-09 9.13883e-10 1.87164e-10) (3.62554e-10 -1.46502e-09 -2.78366e-09) (2.10711e-09 -1.47623e-09 -1.73752e-09) (3.40791e-11 -4.68815e-10 -3.82254e-10) (2.37124e-10 -3.73408e-10 -8.65436e-10) (-1.17682e-10 -1.14452e-10 3.87175e-11) (-1.8175e-10 -1.6401e-10 1.60154e-10));
    }
    wall
    {
        type            calculated;
        value           nonuniform List<vector> 
57
(
(3.52162e-09 -5.36076e-10 1.11477e-09)
(7.4896e-09 -1.61214e-09 1.22669e-09)
(6.48928e-09 -2.65498e-09 1.09952e-09)
(3.45899e-09 8.00175e-10 2.32696e-09)
(8.78059e-09 -2.73279e-09 1.18077e-09)
(1.07295e-08 -4.17929e-09 -7.4707e-11)
(-1.91625e-09 1.80233e-09 5.45805e-09)
(-4.90306e-09 6.33541e-09 1.42493e-08)
(-3.82824e-09 -1.98042e-09 7.13368e-09)
(-4.62141e-09 1.34376e-09 1.95849e-11)
(-1.33246e-08 7.85021e-10 3.15111e-09)
(-2.32604e-08 2.16418e-09 4.44858e-09)
(-1.53439e-09 1.45547e-09 1.41863e-09)
(-1.02545e-08 3.66113e-09 7.94138e-10)
(-1.42988e-08 5.99125e-10 7.88678e-10)
(-8.19929e-10 5.29459e-10 5.07976e-10)
(-4.69385e-09 1.89066e-10 1.54034e-09)
(-8.3027e-09 -7.83846e-10 1.31465e-09)
(1.26487e-09 -1.03146e-11 -6.57501e-10)
(-1.42811e-09 3.64276e-10 -7.22429e-10)
(-4.23585e-09 -5.49886e-10 2.19926e-09)
(9.35324e-08 2.43519e-09 -5.43312e-09)
(-6.29756e-10 -8.8575e-10 -1.19753e-09)
(-8.69482e-10 4.55393e-10 -6.26389e-10)
(4.83268e-08 -3.53808e-09 -8.97156e-09)
(-9.89223e-10 -5.72314e-09 -2.89193e-09)
(1.49886e-09 9.13883e-10 1.87164e-10)
(3.52162e-09 -5.36076e-10 1.11477e-09)
(3.74735e-09 -1.29828e-09 7.96727e-10)
(2.12842e-09 -3.09318e-10 4.91576e-10)
(6.37807e-10 -5.60235e-10 6.73722e-10)
(3.45899e-09 8.00175e-10 2.32696e-09)
(2.94674e-09 -1.57214e-09 2.48758e-09)
(3.16576e-09 -1.58655e-09 1.52783e-09)
(2.70221e-09 1.55904e-10 6.65128e-10)
(-1.91625e-09 1.80233e-09 5.45805e-09)
(-2.13702e-09 -3.07368e-09 3.6285e-09)
(-2.69094e-09 -5.76864e-09 2.45572e-10)
(-1.57515e-09 -1.44459e-09 1.43229e-09)
(-4.62141e-09 1.34376e-09 1.95849e-11)
(-8.11049e-09 2.44097e-10 2.30261e-09)
(-5.86215e-09 -8.4958e-10 1.19239e-09)
(-1.53439e-09 1.45547e-09 1.41863e-09)
(-3.61896e-09 -1.40092e-10 3.98441e-10)
(-3.86599e-09 1.68643e-10 4.97468e-10)
(-8.19929e-10 5.29459e-10 5.07976e-10)
(-7.87903e-10 1.40871e-10 -1.35694e-10)
(-1.88299e-09 1.95477e-10 2.48703e-11)
(1.26487e-09 -1.03146e-11 -6.57501e-10)
(1.29244e-10 1.7683e-10 -4.48366e-10)
(-7.97447e-10 1.84809e-10 -1.72352e-10)
(9.35324e-08 2.43519e-09 -5.43312e-09)
(9.31498e-10 -2.69236e-10 -1.40617e-09)
(-5.90737e-10 1.14537e-10 -4.88277e-10)
(4.83268e-08 -3.53808e-09 -8.97156e-09)
(3.62554e-10 -1.46502e-09 -2.78366e-09)
(2.37124e-10 -3.73408e-10 -8.65436e-10)
)
;
    }
    procBoundary1to0
    {
        type            processor;
        value           nonuniform List<vector> 
12
(
(3.1386e-09 -1.13816e-09 -1.466e-12)
(5.53811e-09 -1.01985e-09 5.72689e-10)
(4.40874e-09 -1.41876e-09 6.56637e-10)
(2.183e-09 1.51964e-10 -1.33767e-10)
(3.55289e-09 -1.45594e-09 2.24052e-10)
(3.45116e-09 -1.47772e-09 9.18777e-10)
(1.39795e-09 -2.42592e-10 -1.59691e-10)
(2.19351e-09 -1.20743e-09 2.71339e-10)
(2.30636e-09 -1.27121e-09 4.99789e-10)
(1.04293e-09 -2.91295e-10 1.24038e-10)
(1.34191e-09 -7.91578e-10 8.18514e-10)
(1.61404e-09 -6.73899e-10 9.74045e-10)
)
;
    }
    procBoundary1to3
    {
        type            processor;
        value           nonuniform List<vector> 
27
(
(5.07371e-09 -2.48529e-09 1.83107e-09)
(4.59984e-09 -2.89761e-09 3.95864e-09)
(-2.72938e-09 -8.08003e-09 9.83805e-09)
(-8.87745e-09 -2.46388e-09 7.04382e-09)
(-1.34282e-08 -5.37977e-10 9.3254e-10)
(-9.29624e-09 -1.66077e-09 3.25405e-10)
(-5.55098e-09 -1.5071e-09 1.66504e-09)
(-2.12647e-09 -8.7847e-10 9.5489e-10)
(1.3574e-08 6.0204e-11 7.10187e-10)
(3.64468e-09 -2.3674e-09 2.18113e-09)
(2.06718e-09 -2.17471e-09 5.07147e-09)
(-2.3306e-09 -5.10516e-09 9.02821e-09)
(-7.29723e-09 -2.30437e-09 5.0161e-09)
(-7.88219e-09 -6.31759e-10 1.46947e-09)
(-7.94253e-09 -2.07885e-09 9.92954e-11)
(-4.21138e-09 -1.39336e-09 -9.24712e-11)
(-4.9284e-10 -8.51702e-10 -2.16813e-10)
(4.03199e-09 -2.20479e-10 4.60906e-10)
(2.41055e-09 -1.59755e-09 2.04669e-09)
(2.27326e-09 -1.87473e-09 3.97027e-09)
(-1.44658e-09 -4.34506e-09 6.174e-09)
(-8.45534e-09 -3.42214e-09 4.97538e-09)
(-6.88965e-09 -2.6722e-09 1.3852e-09)
(-4.3012e-09 -1.70859e-09 -1.11942e-11)
(-2.98588e-09 -9.93396e-10 -3.92987e-10)
(-8.95579e-10 -3.50208e-10 -4.3587e-10)
(6.0453e-12 -2.1472e-10 1.17125e-10)
)
;
    }
    procBoundary1to5
    {
        type            processor;
        value           nonuniform List<vector> 
32
(
(-4.97794e-09 -6.54329e-10 8.29013e-10)
(-3.25554e-09 9.27804e-11 4.00729e-10)
(-2.38011e-09 3.40867e-11 8.84749e-11)
(-7.85871e-10 1.35572e-10 -7.04108e-11)
(-3.53126e-10 1.71676e-10 -2.62543e-10)
(9.3226e-09 -1.5284e-10 -9.7872e-10)
(-2.09743e-09 -3.85405e-09 4.30107e-09)
(-5.22807e-09 -1.67244e-09 2.29868e-09)
(-4.42668e-09 -1.11144e-09 9.93683e-10)
(-2.69523e-09 -3.42727e-10 1.27906e-10)
(-1.74032e-09 -7.26726e-11 -1.35857e-10)
(-7.15185e-10 4.18414e-10 -3.67827e-10)
(-2.13373e-10 2.4393e-10 -2.50927e-10)
(9.29995e-10 -1.68721e-09 3.07804e-09)
(-2.17262e-09 -3.34269e-09 5.01828e-09)
(-4.73883e-09 -2.53683e-09 3.26686e-09)
(-4.55237e-09 -1.3488e-09 1.28955e-09)
(-3.45639e-09 -8.01491e-10 9.17142e-11)
(-2.20504e-09 -4.15909e-10 -3.29109e-10)
(-9.75347e-10 2.06621e-10 -4.0605e-10)
(-1.4975e-10 5.28021e-10 -3.50855e-11)
(1.98153e-09 -1.71056e-10 5.6909e-10)
(3.34473e-09 -6.29361e-10 1.18709e-09)
(-4.97794e-09 -6.54329e-10 8.29013e-10)
(-2.09743e-09 -3.85405e-09 4.30107e-09)
(-9.62024e-10 -2.65455e-09 2.10911e-09)
(8.65358e-09 3.71582e-09 3.81654e-10)
(-2.09743e-09 -3.85405e-09 4.30107e-09)
(9.29995e-10 -1.68721e-09 3.07804e-09)
(2.01717e-08 1.0712e-08 8.70205e-10)
(9.29995e-10 -1.68721e-09 3.07804e-09)
(2.16811e-09 -8.86167e-10 1.24939e-09)
)
;
    }
    procBoundary1to7
    {
        type            processor;
        value           uniform (1.95302e-09 -8.20101e-10 1.56646e-09);
    }
}


// ************************************************************************* //
