/*--------------------------------*- C++ -*----------------------------------*\
| =========                 |                                                 |
| \\      /  F ield         | OpenFOAM: The Open Source CFD Toolbox           |
|  \\    /   O peration     | Version:  4.x                                   |
|   \\  /    A nd           | Web:      www.OpenFOAM.org                      |
|    \\/     M anipulation  |                                                 |
\*---------------------------------------------------------------------------*/
FoamFile
{
    version     2.0;
    format      ascii;
    class       volScalarField;
    location    "0.5";
    object      Ksl;
}
// * * * * * * * * * * * * * * * * * * * * * * * * * * * * * * * * * * * * * //

dimensions      [1 -3 -1 0 0 0 0];

internalField   nonuniform List<scalar> 
108
(
10378.6
13614.3
6691.24
7405.57
5443.67
5637.89
4239.11
3991.27
3109.47
10901
21019.4
15732.6
56605.6
24608.4
19675
18354.1
10273.2
13565.4
10325.9
23244.3
14548.3
49269.7
51226.1
19731.8
17652.9
7639.36
8349.32
9992.92
25029.1
12193.7
40590.4
18043.3
38999.2
29029.3
11687.2
19825
10363.7
13471.5
7039.82
7477.09
5556.53
6050.85
4577.75
4775.37
3785.46
10684.6
16881.7
13885.8
46260.7
33493.2
19765.1
23935.6
11192.4
15159
10263.1
16755.8
12083.6
32244.5
53888.7
14764.4
17405.2
9236.91
11326.9
9940.86
16216.2
10672
24126.5
16180.4
24528
19156.5
17030
26198
11812.9
17891.3
8967.21
9457.83
5681.38
5312.67
3987.21
3745.51
3133.77
10950
13810.8
7754.23
9229.17
6343.72
6852.62
4879.02
5035.4
3908.26
11737
12372.7
7257.87
6252.95
5000.55
5694.07
4468.48
4639.88
3632.01
10325.1
14586.2
7082.72
7768.12
5528.9
5889.36
4283.66
4130.02
3270.33
)
;

boundaryField
{
    inlet
    {
        type            zeroGradient;
    }
    outlet
    {
        type            zeroGradient;
    }
    wall
    {
        type            zeroGradient;
    }
    procBoundary4to0
    {
        type            processor;
        value           nonuniform List<scalar> 
36
(
10852.6
11544.4
6531.76
7166.61
4845
4977.64
3758.1
3491.08
2690.57
10706.8
18084.6
12432.3
22514.8
18831.8
17423.6
17682.4
8726.79
10788.7
9702.77
23434.3
11919.6
318148
69058.6
21366.4
27222.3
7001.51
7766.3
10821.1
19229.1
10347.2
31272.3
15204.5
124816
52311.4
17755.2
49766.5
)
;
    }
    procBoundary4to5
    {
        type            processor;
        value           nonuniform List<scalar> 
12
(
2826.38
6150.07
4119.29
6645.67
3881
7251.97
6013.32
11403.4
2938.05
4103.17
3549.32
3146.33
)
;
    }
    procBoundary4to6
    {
        type            processor;
        value           nonuniform List<scalar> 
27
(
10325.1
33580.7
27550.1
66717.5
45134
29227.4
32292.3
9566.18
10225.3
10104.4
14851.7
15926.2
44557.3
37839
17194.1
18933.2
8536.9
9107.62
11387.4
11964.1
7192.4
8304.03
6070.38
6615.39
5029.31
5334.79
4290.88
)
;
    }
}


// ************************************************************************* //
