/*--------------------------------*- C++ -*----------------------------------*\
| =========                 |                                                 |
| \\      /  F ield         | OpenFOAM: The Open Source CFD Toolbox           |
|  \\    /   O peration     | Version:  4.x                                   |
|   \\  /    A nd           | Web:      www.OpenFOAM.org                      |
|    \\/     M anipulation  |                                                 |
\*---------------------------------------------------------------------------*/
FoamFile
{
    version     2.0;
    format      ascii;
    class       volScalarField;
    location    "0.5";
    object      KslNext;
}
// * * * * * * * * * * * * * * * * * * * * * * * * * * * * * * * * * * * * * //

dimensions      [1 -3 -1 0 0 0 0];

internalField   nonuniform List<scalar> 
108
(
10378.6
13614.3
6691.24
7405.57
5443.67
5637.89
4239.11
3991.27
3109.47
10901
21019.4
15732.6
56605.6
24608.4
19675
18354.1
10273.2
13565.4
10325.9
23244.3
14548.3
49269.7
51226.1
19731.8
17652.9
7639.36
8349.32
9992.92
25029.1
12193.7
40590.4
18043.3
38999.2
29029.3
11687.2
19825
10363.7
13471.5
7039.82
7477.09
5556.53
6050.85
4577.75
4775.37
3785.46
10684.6
16881.7
13885.8
46260.7
33493.2
19765.1
23935.6
11192.4
15159
10263.1
16755.8
12083.6
32244.5
53888.7
14764.4
17405.2
9236.91
11326.9
9940.86
16216.2
10672
24126.5
16180.4
24528
19156.5
17030
26198
11812.9
17891.3
8967.21
9457.83
5681.38
5312.67
3987.21
3745.51
3133.77
10950
13810.8
7754.23
9229.17
6343.72
6852.62
4879.02
5035.4
3908.26
11737
12372.7
7257.87
6252.95
5000.55
5694.07
4468.48
4639.88
3632.01
10325.1
14586.2
7082.72
7768.12
5528.9
5889.36
4283.66
4130.02
3270.33
)
;

boundaryField
{
    inlet
    {
        type            zeroGradient;
    }
    outlet
    {
        type            zeroGradient;
    }
    wall
    {
        type            zeroGradient;
    }
    procBoundary4to0
    {
        type            processor;
        value           uniform 0;
    }
    procBoundary4to5
    {
        type            processor;
        value           uniform 0;
    }
    procBoundary4to6
    {
        type            processor;
        value           uniform 0;
    }
}


// ************************************************************************* //
