/*--------------------------------*- C++ -*----------------------------------*\
| =========                 |                                                 |
| \\      /  F ield         | OpenFOAM: The Open Source CFD Toolbox           |
|  \\    /   O peration     | Version:  4.x                                   |
|   \\  /    A nd           | Web:      www.OpenFOAM.org                      |
|    \\/     M anipulation  |                                                 |
\*---------------------------------------------------------------------------*/
FoamFile
{
    version     2.0;
    format      ascii;
    class       volScalarField;
    location    "0.5";
    object      QWallFluidCoeff;
}
// * * * * * * * * * * * * * * * * * * * * * * * * * * * * * * * * * * * * * //

dimensions      [1 -1 -3 -1 0 0 0];

internalField   nonuniform List<scalar> 
108
(
-2.63028e+06
-2.16831e+06
-3.99868e+06
-3.87189e+06
-5.22518e+06
-5.29747e+06
-6.90266e+06
-7.30902e+06
-8.9933e+06
0
0
0
0
0
0
0
0
0
0
0
0
0
0
0
0
0
0
0
0
0
0
0
0
0
0
0
-2.65303e+06
-2.21233e+06
-3.89904e+06
-3.92968e+06
-5.31717e+06
-5.22423e+06
-6.8745e+06
-6.8579e+06
-8.38699e+06
0
0
0
0
0
0
0
0
0
0
0
0
0
0
0
0
0
0
0
0
0
0
0
0
0
0
0
-4.78483e+06
-3.52516e+06
-6.44777e+06
-6.55351e+06
-1.05906e+07
-1.18927e+07
-1.59621e+07
-1.74824e+07
-2.06673e+07
-2.54632e+06
-2.17036e+06
-3.63246e+06
-3.33697e+06
-4.78863e+06
-4.7392e+06
-6.53888e+06
-6.59754e+06
-8.19535e+06
-2.40988e+06
-2.37243e+06
-3.8158e+06
-4.52e+06
-5.72338e+06
-5.37578e+06
-6.81655e+06
-6.81605e+06
-8.30862e+06
-2.6624e+06
-2.08011e+06
-3.9004e+06
-3.80716e+06
-5.27434e+06
-5.21725e+06
-6.97142e+06
-7.37374e+06
-9.00316e+06
)
;

boundaryField
{
    inlet
    {
        type            calculated;
        value           uniform 0;
    }
    outlet
    {
        type            calculated;
        value           nonuniform 0();
    }
    wall
    {
        type            calculated;
        value           uniform 0;
    }
    procBoundary4to0
    {
        type            processor;
        value           uniform 0;
    }
    procBoundary4to5
    {
        type            processor;
        value           uniform 0;
    }
    procBoundary4to6
    {
        type            processor;
        value           uniform 0;
    }
}


// ************************************************************************* //
