/*--------------------------------*- C++ -*----------------------------------*\
| =========                 |                                                 |
| \\      /  F ield         | OpenFOAM: The Open Source CFD Toolbox           |
|  \\    /   O peration     | Version:  4.x                                   |
|   \\  /    A nd           | Web:      www.OpenFOAM.org                      |
|    \\/     M anipulation  |                                                 |
\*---------------------------------------------------------------------------*/
FoamFile
{
    version     2.0;
    format      ascii;
    class       volScalarField;
    location    "0.5";
    object      QWallFluid;
}
// * * * * * * * * * * * * * * * * * * * * * * * * * * * * * * * * * * * * * //

dimensions      [1 -1 -3 0 0 0 0];

internalField   nonuniform List<scalar> 
108
(
7.89084e+08
6.50494e+08
1.1996e+09
1.16157e+09
1.56755e+09
1.58924e+09
2.0708e+09
2.19271e+09
2.69799e+09
0
0
0
0
0
0
0
0
0
0
0
0
0
0
0
0
0
0
0
0
0
0
0
0
0
0
0
7.95908e+08
6.63698e+08
1.16971e+09
1.1789e+09
1.59515e+09
1.56727e+09
2.06235e+09
2.05737e+09
2.5161e+09
0
0
0
0
0
0
0
0
0
0
0
0
0
0
0
0
0
0
0
0
0
0
0
0
0
0
0
1.43545e+09
1.05755e+09
1.93433e+09
1.96605e+09
3.17717e+09
3.56781e+09
4.78862e+09
5.24471e+09
6.2002e+09
7.63897e+08
6.51109e+08
1.08974e+09
1.00109e+09
1.43659e+09
1.42176e+09
1.96166e+09
1.97926e+09
2.4586e+09
7.22963e+08
7.11728e+08
1.14474e+09
1.356e+09
1.71701e+09
1.61273e+09
2.04496e+09
2.04482e+09
2.49259e+09
7.98721e+08
6.24032e+08
1.17012e+09
1.14215e+09
1.5823e+09
1.56518e+09
2.09143e+09
2.21212e+09
2.70095e+09
)
;

boundaryField
{
    inlet
    {
        type            calculated;
        value           uniform 0;
    }
    outlet
    {
        type            calculated;
        value           nonuniform 0();
    }
    wall
    {
        type            calculated;
        value           uniform 0;
    }
    procBoundary4to0
    {
        type            processor;
        value           nonuniform List<scalar> 
36
(
7.56286e+08
7.36022e+08
1.20507e+09
1.16137e+09
1.65982e+09
1.67387e+09
2.13879e+09
2.24791e+09
2.72977e+09
0
0
0
0
0
0
0
0
0
0
0
0
0
0
0
0
0
0
0
0
0
0
0
0
0
0
0
)
;
    }
    procBoundary4to5
    {
        type            processor;
        value           nonuniform List<scalar> 
12
(
2.86021e+09
0
0
0
2.49332e+09
0
0
0
6.40069e+09
2.36383e+09
2.54267e+09
2.79788e+09
)
;
    }
    procBoundary4to6
    {
        type            processor;
        value           nonuniform List<scalar> 
27
(
0
0
0
0
0
0
0
0
0
0
0
0
0
0
0
0
0
0
7.4199e+08
7.34287e+08
1.15907e+09
1.0852e+09
1.47141e+09
1.44627e+09
1.89173e+09
1.85402e+09
2.25133e+09
)
;
    }
}


// ************************************************************************* //
