/*--------------------------------*- C++ -*----------------------------------*\
| =========                 |                                                 |
| \\      /  F ield         | OpenFOAM: The Open Source CFD Toolbox           |
|  \\    /   O peration     | Version:  4.x                                   |
|   \\  /    A nd           | Web:      www.OpenFOAM.org                      |
|    \\/     M anipulation  |                                                 |
\*---------------------------------------------------------------------------*/
FoamFile
{
    version     2.0;
    format      ascii;
    class       volScalarField;
    location    "0.5";
    object      rho;
}
// * * * * * * * * * * * * * * * * * * * * * * * * * * * * * * * * * * * * * //

dimensions      [1 -3 0 0 0 0 0];

internalField   nonuniform List<scalar> 
108
(
6698.43
6697.67
6697.61
6697.79
6698.05
6698.41
6698.86
6699.3
6699.72
6698.1
6697.86
6697.83
6698.09
6698.62
6699.53
6700.47
6700.9
6701.93
6698.1
6697.54
6697.62
6697.96
6698.64
6699.41
6700.53
6701.3
6702.1
6698.12
6697.49
6697.69
6697.96
6698.57
6699.32
6700.34
6701.36
6701.85
6698.52
6698
6697.92
6697.98
6698.19
6698.57
6698.96
6699.29
6699.71
6698.46
6698
6698.04
6698.25
6698.86
6699.78
6700.36
6700.73
6701.88
6698.37
6697.83
6697.82
6698.2
6698.78
6699.77
6700.66
6701.2
6701.86
6698.26
6697.89
6697.94
6697.98
6698.55
6699.48
6699.96
6700.91
6701.65
6698
6697.68
6697.78
6697.89
6698.01
6698.22
6698.43
6698.53
6698.73
6697.87
6697.56
6697.72
6698.01
6698.25
6698.55
6698.85
6699.08
6699.46
6698.02
6697.63
6697.63
6697.86
6698.02
6698.29
6698.7
6699.12
6699.61
6698.02
6697.73
6697.75
6697.78
6697.98
6698.37
6698.72
6699.08
6699.54
)
;

boundaryField
{
    inlet
    {
        type            calculated;
        value           uniform 6700;
    }
    outlet
    {
        type            calculated;
        value           nonuniform 0();
    }
    wall
    {
        type            calculated;
        value           nonuniform List<scalar> 
63
(
6698
6697.87
6698.02
6698.02
6697.68
6697.56
6697.63
6697.73
6697.78
6697.72
6697.63
6697.75
6697.89
6698.01
6697.86
6697.78
6698.01
6698.25
6698.02
6697.98
6698.22
6698.55
6698.29
6698.37
6698.43
6698.85
6698.7
6698.72
6698.53
6699.08
6699.12
6699.08
6698.73
6699.46
6699.61
6699.54
6698.43
6698.52
6698
6697.67
6698
6697.68
6697.61
6697.92
6697.78
6697.79
6697.98
6697.89
6698.05
6698.19
6698.01
6698.41
6698.57
6698.22
6698.86
6698.96
6698.43
6699.3
6699.29
6698.53
6699.72
6699.71
6698.73
)
;
    }
    procBoundary4to0
    {
        type            processor;
        value           nonuniform List<scalar> 
36
(
6697.84
6696.74
6696.74
6697.21
6697.57
6698.01
6698.55
6699.06
6699.64
6697.69
6696.88
6696.98
6698
6698.46
6699.33
6700.45
6701.43
6702.27
6697.55
6696.52
6696.86
6698.06
6698.16
6699.33
6700.56
6701.89
6702.61
6697.26
6695.99
6696.87
6697.64
6698.4
6699.07
6700.29
6701.09
6702.17
)
;
    }
    procBoundary4to5
    {
        type            processor;
        value           nonuniform List<scalar> 
12
(
6700.16
6703.37
6703.17
6702.16
6700.1
6703
6702.57
6701.51
6698.97
6699.8
6700.01
6699.96
)
;
    }
    procBoundary4to6
    {
        type            processor;
        value           nonuniform List<scalar> 
27
(
6698.04
6697.75
6697.79
6697.91
6698.46
6699.8
6700.69
6701.69
6701.99
6698.21
6697.85
6697.87
6698.03
6698.75
6699.74
6700.57
6701.56
6701.89
6698.01
6697.88
6697.81
6697.75
6697.87
6698.19
6698.6
6699.06
6699.64
)
;
    }
}


// ************************************************************************* //
