/*--------------------------------*- C++ -*----------------------------------*\
| =========                 |                                                 |
| \\      /  F ield         | OpenFOAM: The Open Source CFD Toolbox           |
|  \\    /   O peration     | Version:  4.x                                   |
|   \\  /    A nd           | Web:      www.OpenFOAM.org                      |
|    \\/     M anipulation  |                                                 |
\*---------------------------------------------------------------------------*/
FoamFile
{
    version     2.0;
    format      ascii;
    class       volScalarField;
    location    "0.5";
    object      thCond;
}
// * * * * * * * * * * * * * * * * * * * * * * * * * * * * * * * * * * * * * //

dimensions      [1 1 -3 -1 0 0 0];

internalField   nonuniform List<scalar> 
108
(
192.082
191.635
191.311
191.281
191.099
191.036
190.831
190.695
190.305
191.659
191.457
191.142
190.858
190.735
190.731
190.711
190.606
190.193
191.583
191.195
191.021
190.686
190.656
190.646
190.524
190.214
190.343
191.627
191.301
190.944
190.804
190.596
190.483
190.131
190.37
190.37
192.005
191.701
191.257
190.955
190.869
190.881
190.875
190.469
190.278
191.762
191.401
191.162
190.893
190.783
190.68
190.552
190.299
190.12
191.681
191.223
190.835
190.6
190.501
190.439
190.316
190.221
190.168
191.295
191.05
190.865
190.425
190.286
190.272
190.021
190.123
190.191
192.002
191.593
191.486
191.05
190.921
190.612
190.592
190.413
190.343
191.746
191.172
191.22
190.98
190.8
190.551
190.518
190.423
190.196
191.582
191.073
190.859
190.61
190.627
190.408
190.392
190.253
190.243
191.179
191.034
190.897
190.446
190.328
190.086
190.418
190.453
190.278
)
;

boundaryField
{
    inlet
    {
        type            zeroGradient;
    }
    outlet
    {
        type            zeroGradient;
    }
    wall
    {
        type            zeroGradient;
    }
    procBoundary4to0
    {
        type            processor;
        value           nonuniform List<scalar> 
36
(
192.504
192.153
191.808
191.696
191.423
191.253
191.37
191.451
191.129
192.167
191.716
191.492
191.412
191.199
191.101
190.886
190.997
190.88
192.102
191.785
191.335
191.198
190.976
190.818
190.772
190.89
190.662
191.933
191.605
191.135
190.875
191.071
190.83
190.541
190.825
190.951
)
;
    }
    procBoundary4to5
    {
        type            processor;
        value           nonuniform List<scalar> 
12
(
190.415
190.215
190.072
189.931
190.158
190.196
190.018
190.232
190.749
190.341
190.181
190.099
)
;
    }
    procBoundary4to6
    {
        type            processor;
        value           nonuniform List<scalar> 
27
(
191.015
191.056
191.107
190.646
190.392
190.525
190.252
190.333
190.189
191.102
190.974
190.803
190.535
190.533
190.412
190.236
190.298
190.122
191.51
191.294
190.976
190.607
190.448
190.335
190.132
190.18
190.479
)
;
    }
}


// ************************************************************************* //
