/*--------------------------------*- C++ -*----------------------------------*\
  =========                 |
  \\      /  F ield         | OpenFOAM: The Open Source CFD Toolbox
   \\    /   O peration     | Website:  https://openfoam.org
    \\  /    A nd           | Version:  4.x
     \\/     M anipulation  |
\*---------------------------------------------------------------------------*/
FoamFile
{
    version     2.0;
    format      ascii;
    class       vectorField;
    location    0;
    object      v;
}
// * * * * * * * * * * * * * * * * * * * * * * * * * * * * * * * * * * * * * //

357
(
( 3.61698e-09 4.62021e-11 3.67612e-11 )  
( 1.19757e-09 -4.94821e-10 -9.89633e-10 )  
( 2.72208e-09 -1.76853e-09 5.75209e-10 )  
( 1.44298e-09 4.56055e-10 -2.3501e-10 )  
( 1.22003e-09 -6.55009e-10 -1.18978e-09 )  
( 9.57147e-10 4.92643e-10 1.23281e-09 )  
( 3.18986e-09 -1.46728e-09 -4.53294e-10 )  
( 1.22174e-09 -1.6977e-10 -1.1216e-09 )  
( 1.15018e-09 3.7703e-10 3.16248e-10 )  
( 8.82278e-10 9.03342e-11 -4.9173e-10 )  
( 2.06167e-10 8.85376e-11 -5.24528e-11 )  
( 1.95852e-09 -6.72473e-10 -7.80297e-10 )  
( 2.69698e-09 -1.48148e-09 -3.0723e-10 )  
( 3.29416e-09 -1.58891e-09 8.58452e-11 )  
( 2.13777e-09 -2.09465e-10 -8.22693e-10 )  
( 1.55813e-09 -8.03548e-10 -9.50497e-10 )  
( 2.55753e-09 -1.09049e-09 -5.66648e-10 )  
( 3.89646e-09 -1.53154e-09 -1.08401e-10 )  
( 2.37031e-09 -1.29036e-09 -1.16697e-09 )  
( 4.38717e-09 -1.40058e-09 -7.00559e-10 )  
( 4.26143e-09 -1.74945e-09 1.87574e-09 )  
( 1.8323e-09 -1.26256e-09 5.28814e-12 )  
( 1.47087e-09 -1.26854e-10 -9.0746e-10 )  
( 2.13759e-09 -8.38122e-10 -1.57094e-09 )  
( 3.41238e-09 -1.45339e-09 -5.91857e-10 )  
( 1.4371e-09 -4.9623e-10 -1.05177e-09 )  
( 1.49189e-09 1.41831e-10 -6.367e-10 )  
( 2.9025e-09 -1.59067e-09 -2.86384e-10 )  
( 4.91558e-10 2.86906e-10 -2.16957e-10 )  
( 3.61964e-09 2.49532e-10 1.47542e-09 )  
( 1.91893e-09 -1.02069e-09 -5.25482e-10 )  
( 2.26919e-09 -1.31582e-09 -1.36389e-09 )  
( 3.13692e-09 -1.67376e-09 -1.16598e-10 )  
( 3.90251e-10 1.47104e-10 -2.11429e-10 )  
( 1.78232e-09 -3.62704e-10 -1.33739e-09 )  
( 6.09619e-11 6.97337e-11 5.41261e-10 )  
( 2.71292e-09 -1.34346e-09 -9.21293e-10 )  
( 1.8718e-10 5.88748e-10 1.22961e-09 )  
( 1.84504e-09 -1.80156e-10 -1.55145e-09 )  
( 1.9651e-09 1.2818e-10 4.09421e-10 )  
( 1.21614e-09 -1.30134e-11 -1.0995e-09 )  
( 2.85406e-09 -1.5201e-09 -1.67544e-09 )  
( 2.17753e-09 -7.36849e-10 -1.21176e-09 )  
( 4.81032e-09 -1.4969e-09 1.1658e-09 )  
( 3.25583e-09 -1.33305e-09 -9.31929e-10 )  
( 9.42243e-10 -2.01478e-10 -9.20254e-10 )  
( 2.5768e-09 1.11411e-10 -9.59912e-10 )  
( 3.83128e-10 4.58572e-10 5.17364e-10 )  
( 2.25453e-09 -1.10065e-09 -9.08503e-10 )  
( 3.89552e-09 -1.32176e-09 -3.54995e-09 )  
( 2.27651e-09 -8.33394e-10 -1.09787e-09 )  
( 1.19358e-09 -4.03287e-10 -1.36195e-09 )  
( 2.35002e-09 -8.96108e-10 -8.76388e-10 )  
( 2.32004e-09 -1.09745e-09 -1.3442e-09 )  
( 2.70822e-09 -7.44087e-10 -1.08076e-09 )  
( 1.97882e-09 -9.82421e-10 -1.29143e-09 )  
( 3.73251e-09 -1.17161e-09 -1.45649e-09 )  
( 2.02813e-09 -8.80443e-10 -9.8914e-10 )  
( 6.53682e-10 1.04822e-10 -3.04964e-10 )  
( 1.32427e-09 -1.90669e-10 -7.38256e-10 )  
( 3.98089e-10 1.11398e-10 -2.5031e-10 )  
( 8.68727e-10 -2.47526e-10 -9.8301e-10 )  
( 4.56127e-10 3.11836e-10 -2.26359e-11 )  
( 2.46935e-09 -7.97029e-10 -1.51632e-09 )  
( 1.93072e-09 -4.5174e-10 -1.61322e-09 )  
( 2.39882e-10 1.18129e-10 -1.26886e-10 )  
( 2.901e-09 -1.53144e-09 9.36095e-10 )  
( 2.01857e-09 -3.93132e-10 -1.22019e-09 )  
( 1.76342e-09 -2.88304e-10 -9.71337e-10 )  
( 1.50752e-09 -3.53121e-10 -9.25508e-10 )  
( 2.30153e-09 -8.99489e-10 -1.00133e-09 )  
( 3.49052e-09 -1.49063e-09 -6.35464e-10 )  
( 2.09256e-09 -1.08086e-09 -1.24457e-09 )  
( 1.43238e-09 -6.42064e-10 -1.1513e-09 )  
( 3.3233e-10 2.60997e-10 1.3395e-10 )  
( 1.53314e-09 8.80211e-10 2.71352e-10 )  
( -1.74302e-10 1.09011e-10 8.57396e-10 )  
( 2.47204e-09 2.40345e-11 -6.39611e-10 )  
( 2.82607e-09 -1.20318e-09 -1.04684e-09 )  
( 2.79045e-09 -1.36491e-09 -1.34046e-09 )  
( 9.10628e-10 2.64201e-11 -6.22332e-10 )  
( 5.60354e-10 4.19766e-10 -3.71016e-10 )  
( 7.39582e-10 -1.68375e-10 -5.33253e-10 )  
( 1.02557e-09 -5.8047e-10 -8.86178e-10 )  
( 3.58473e-10 3.44624e-10 -1.57608e-10 )  
( 1.91394e-09 8.71003e-11 -8.39831e-12 )  
( 1.18809e-09 3.08442e-10 -5.0895e-10 )  
( 2.81027e-09 -1.18488e-09 -7.30374e-10 )  
( 4.26348e-11 1.62553e-10 2.77481e-10 )  
( 9.69322e-11 1.19875e-10 5.37424e-10 )  
( 2.22382e-09 -1.22751e-09 -2.72792e-10 )  
( 3.10288e-09 -1.52372e-09 -1.92575e-09 )  
( 1.05378e-09 -2.65229e-10 -7.98578e-10 )  
( 1.86817e-09 8.84395e-11 -5.76514e-10 )  
( 2.70503e-09 -4.07591e-10 -1.80668e-09 )  
( 1.73559e-09 -9.10386e-11 -7.951e-10 )  
( 1.56629e-10 4.5577e-10 3.3111e-10 )  
( 1.76618e-09 -5.17228e-10 -9.5183e-10 )  
( 2.03279e-09 -8.02334e-10 -6.45324e-10 )  
( 2.15104e-09 -7.70713e-10 -6.56236e-10 )  
( 2.88246e-09 -1.62378e-09 5.35016e-10 )  
( 3.93918e-09 -1.57039e-09 -2.05638e-10 )  
( 5.61199e-10 1.72381e-10 3.96271e-10 )  
( 1.10586e-09 -2.86409e-10 -6.55598e-10 )  
( 1.18739e-09 1.93586e-11 -2.30851e-10 )  
( 2.40564e-10 1.77986e-10 3.47789e-10 )  
( 1.78861e-09 -7.43981e-10 -9.58661e-10 )  
( 2.92548e-09 -5.70938e-10 -8.66263e-10 )  
( 2.49426e-09 -1.66753e-09 -1.79974e-09 )  
( 6.21723e-10 -3.07405e-11 -5.66263e-10 )  
( 9.84084e-10 -9.96934e-11 -7.14408e-10 )  
( 8.85318e-10 3.44437e-12 -8.44799e-10 )  
( 1.90021e-09 -1.13561e-09 -1.82891e-10 )  
( 2.43629e-09 -6.09631e-10 -1.12309e-09 )  
( 1.59359e-09 -2.87961e-11 -5.8236e-10 )  
( 4.33936e-09 -1.19307e-09 -1.29643e-09 )  
( 2.20227e-09 -9.48241e-10 -2.43307e-09 )  
( 2.92025e-09 -1.47967e-09 -7.8169e-10 )  
( 3.52967e-09 -1.40391e-09 6.45331e-10 )  
( 2.62873e-09 -6.01853e-10 -9.78249e-10 )  
( 1.96397e-09 2.33113e-10 1.91685e-09 )  
( 4.25748e-10 1.66494e-10 -2.4763e-10 )  
( 7.79455e-10 -5.30748e-10 -1.84074e-09 )  
( 1.42623e-09 -6.7098e-10 -1.25655e-09 )  
( 8.59262e-10 4.6573e-10 7.85781e-11 )  
( 9.84668e-11 2.08885e-10 -1.12067e-10 )  
( 2.03012e-09 -8.40708e-10 -1.04005e-09 )  
( 2.9428e-09 -1.47568e-09 -1.0703e-09 )  
( 2.05037e-09 -8.53086e-10 -1.33479e-09 )  
( 2.57747e-09 -9.62909e-10 -1.40494e-09 )  
( 2.68749e-09 -1.3903e-09 -2.51453e-10 )  
( 2.2869e-10 1.01729e-10 4.32513e-10 )  
( 2.9803e-09 -1.94471e-09 -1.47916e-09 )  
( 1.20905e-10 2.59054e-10 8.06509e-11 )  
( 9.61713e-10 7.10504e-11 -9.2004e-10 )  
( 1.37265e-10 6.70398e-10 4.05726e-10 )  
( 2.52405e-09 2.66315e-10 2.07263e-09 )  
( 1.19199e-09 -1.00384e-10 -8.01135e-10 )  
( 1.5682e-09 3.53405e-10 1.34183e-09 )  
( 1.84487e-09 -3.58019e-10 -1.46796e-09 )  
( 1.40779e-10 1.39993e-10 -7.9552e-11 )  
( 1.81771e-09 -8.64551e-10 -1.2805e-09 )  
( -6.94625e-11 2.17099e-10 7.84814e-10 )  
( 2.54165e-09 -1.63841e-09 1.31757e-10 )  
( 2.18206e-10 1.89721e-10 -9.63912e-11 )  
( 9.22566e-10 -3.79453e-10 -9.43543e-10 )  
( 1.1012e-09 -3.6373e-10 -1.31126e-09 )  
( 8.90513e-10 -4.40007e-10 -9.53076e-10 )  
( 1.23639e-09 -1.40697e-10 -7.50986e-10 )  
( 8.81301e-10 1.39861e-10 -1.7894e-10 )  
( 3.76786e-10 -6.83446e-11 -4.658e-10 )  
( 1.91975e-09 -8.0721e-10 1.13844e-09 )  
( 1.2308e-09 -4.79197e-10 -9.73382e-10 )  
( 2.54847e-11 -5.41157e-11 -3.04421e-10 )  
( 1.95013e-09 -1.251e-09 2.81522e-11 )  
( 6.47686e-10 -4.62451e-10 -8.12031e-10 )  
( 2.23216e-09 -1.00996e-09 -2.54964e-10 )  
( 8.08589e-10 -2.1902e-10 -6.03703e-10 )  
( 6.74212e-11 1.21318e-10 -2.21203e-10 )  
( 1.40953e-09 -6.73771e-10 -5.48937e-10 )  
( 4.78355e-10 -2.18728e-10 -7.51081e-10 )  
( 1.30344e-09 -5.57049e-10 -9.52576e-10 )  
( 4.81885e-10 -3.17907e-10 -4.05953e-10 )  
( 4.1925e-10 -4.25109e-10 -1.12888e-09 )  
( 8.71535e-10 -5.60117e-10 -5.94933e-10 )  
( 1.72429e-09 -1.17933e-09 1.07113e-09 )  
( 4.84763e-10 -4.84446e-10 -7.84167e-10 )  
( 1.75184e-09 -8.21435e-10 9.20968e-11 )  
( 1.75577e-09 -1.04893e-09 -1.5025e-11 )  
( 1.07811e-09 -5.67913e-10 -8.45275e-10 )  
( 1.15909e-09 1.13315e-11 -9.3857e-10 )  
( 6.98726e-10 8.34254e-11 -5.54312e-10 )  
( 1.37941e-09 -4.72681e-10 -2.98335e-10 )  
( 1.65238e-09 -4.15352e-10 3.39564e-10 )  
( 1.54302e-10 -4.44032e-11 1.50867e-10 )  
( 2.45681e-09 -4.8397e-10 1.09542e-09 )  
( 1.48468e-09 -9.61825e-10 -2.35649e-10 )  
( 2.3037e-10 2.31888e-11 -3.56673e-10 )  
( 1.7534e-09 -9.39629e-10 1.9362e-10 )  
( 4.79047e-10 -1.07036e-10 -5.50376e-10 )  
( 6.29184e-10 -6.3688e-11 1.56857e-10 )  
( 2.058e-10 3.79822e-11 2.37832e-10 )  
( 2.24499e-09 -1.29308e-09 2.58015e-10 )  
( 1.16563e-10 -3.99222e-10 -8.91387e-10 )  
( 1.2472e-09 -5.60033e-10 -3.42281e-10 )  
( 1.03058e-09 -4.0459e-11 -7.25783e-10 )  
( 9.88268e-10 -4.59974e-10 -7.19323e-10 )  
( 7.15275e-10 -8.84761e-11 -5.31021e-10 )  
( 1.23175e-09 -5.95702e-10 1.33631e-10 )  
( 1.13203e-09 -7.33871e-10 -8.27777e-10 )  
( 7.67672e-10 6.66543e-11 2.19919e-10 )  
( 1.60102e-09 -8.85136e-10 1.9451e-10 )  
( 6.27402e-10 1.57543e-10 -7.72853e-11 )  
( 1.60174e-09 -9.48385e-10 -6.58634e-11 )  
( 1.03212e-09 -3.39721e-10 -1.25271e-09 )  
( 1.25162e-09 -6.06371e-10 -4.54443e-10 )  
( 1.22614e-09 -3.94826e-10 -8.53141e-10 )  
( 2.80048e-10 -1.70809e-10 -4.85247e-10 )  
( 1.17596e-09 1.40216e-10 -3.75387e-10 )  
( 7.52554e-10 3.41973e-11 -6.53352e-10 )  
( 5.23168e-10 7.35894e-11 -5.67088e-10 )  
( 1.2558e-09 -3.59767e-10 -5.19179e-10 )  
( 1.02934e-10 1.43644e-10 3.22688e-10 )  
( 1.92085e-11 4.27078e-11 1.87726e-10 )  
( 1.70666e-09 -5.53822e-10 -1.88482e-10 )  
( 1.58025e-09 -8.53861e-10 -4.76014e-10 )  
( 2.13882e-09 -1.17462e-09 2.44209e-09 )  
( 1.35958e-09 -5.2599e-10 -1.18638e-09 )  
( 7.5133e-11 9.54495e-11 1.5215e-10 )  
( 7.84313e-10 -4.25775e-10 -9.93669e-10 )  
( 5.08637e-10 -1.66288e-12 -5.95469e-10 )  
( 4.39561e-10 -1.7471e-10 -5.50439e-10 )  
( 2.53573e-10 9.50674e-11 4.78064e-12 )  
( 6.86711e-10 -4.86334e-10 -6.20311e-10 )  
( 1.17742e-10 1.6485e-11 1.07932e-10 )  
( 1.83829e-10 -5.34767e-11 -2.53782e-10 )  
( 2.22701e-09 -1.19072e-09 6.19743e-10 )  
( 7.10393e-10 -2.95612e-10 -6.93461e-10 )  
( 1.96446e-09 -6.84299e-10 -3.46782e-10 )  
( 1.60672e-09 -9.19836e-10 4.5941e-11 )  
( 1.31946e-09 -2.95443e-10 -1.04928e-09 )  
( 1.33848e-09 -2.3735e-10 -1.08191e-09 )  
( 2.71669e-10 1.75293e-12 -3.73965e-10 )  
( 7.38354e-10 -6.8942e-11 -5.99719e-10 )  
( 1.89906e-09 -1.11843e-09 -2.96376e-10 )  
( 1.11546e-09 -5.49191e-10 -9.50169e-10 )  
( 1.91581e-09 -8.6669e-10 -1.07377e-09 )  
( 6.35257e-10 -2.94673e-10 -6.59183e-10 )  
( 8.35495e-11 7.04298e-11 -1.31024e-10 )  
( 1.27967e-09 -2.34709e-10 -9.17092e-10 )  
( 2.27946e-09 -9.11418e-10 -1.07705e-09 )  
( 1.41345e-09 -7.9533e-10 -9.0116e-10 )  
( 3.90626e-10 -4.47721e-11 -4.89824e-10 )  
( 1.61776e-09 -8.2492e-10 -1.25757e-09 )  
( 8.35227e-10 -4.17217e-11 -7.92146e-10 )  
( 1.8643e-09 -8.30402e-10 -1.03637e-09 )  
( 1.45591e-09 -8.78145e-10 -3.03653e-10 )  
( 5.83242e-11 2.82028e-11 -1.55058e-10 )  
( 3.6439e-10 -3.892e-10 -8.99554e-10 )  
( 2.43056e-10 -1.70914e-10 -4.75399e-10 )  
( 1.58766e-09 -7.28618e-10 1.10671e-10 )  
( 4.22083e-10 -2.26833e-10 -6.17845e-10 )  
( -2.6888e-10 -5.8708e-10 -5.51466e-10 )  
( 6.63317e-10 -4.46982e-10 -7.36204e-10 )  
( 4.24693e-10 -4.12401e-10 -8.34955e-10 )  
( 1.0301e-09 -5.77061e-10 -7.76671e-10 )  
( 9.92877e-10 -5.15806e-10 -4.29425e-10 )  
( 6.43754e-11 -6.37151e-11 -3.12227e-10 )  
( 1.301e-09 -7.19011e-10 -1.24872e-09 )  
( 1.01948e-09 -2.70108e-10 -7.22807e-10 )  
( 1.19153e-10 1.13333e-10 4.43568e-10 )  
( 3.76905e-10 2.90035e-11 -7.23653e-11 )  
( 1.19481e-09 -3.7738e-10 -9.0612e-10 )  
( 9.71862e-10 -2.03846e-10 -4.41891e-10 )  
( 1.51955e-10 1.46003e-10 -4.27381e-11 )  
( 1.84118e-09 -1.19722e-09 1.33276e-09 )  
( 2.88046e-09 -1.28743e-09 -1.14906e-09 )  
( 7.86344e-10 -2.0794e-10 -8.25381e-10 )  
( 7.48815e-10 4.999e-11 -5.2171e-10 )  
( 1.01036e-09 -2.38853e-10 -8.75138e-10 )  
( 2.81228e-10 2.35942e-10 -2.32791e-10 )  
( 1.78014e-09 -2.71661e-10 -9.78107e-10 )  
( 1.03077e-09 -2.99635e-10 -7.47387e-10 )  
( 1.08884e-09 -7.53032e-10 -1.1056e-09 )  
( 5.08263e-10 1.93842e-10 -3.18989e-10 )  
( 7.31415e-10 8.14478e-11 -1.58278e-10 )  
( 4.61241e-09 -1.52622e-09 1.19784e-09 )  
( 1.09992e-09 -7.85608e-10 -9.05099e-10 )  
( 3.03539e-09 -5.09094e-10 -3.32068e-09 )  
( 8.96452e-10 -6.07069e-10 -8.48555e-10 )  
( 1.96644e-09 -1.0679e-09 -3.059e-10 )  
( 3.31489e-09 -1.91339e-09 -1.42216e-10 )  
( 1.50084e-09 -8.10573e-10 -1.69727e-10 )  
( 1.71285e-09 -7.22872e-10 1.05061e-09 )  
( 1.91261e-09 -9.76354e-10 -1.14347e-09 )  
( 1.0074e-09 -1.81333e-10 -9.04158e-10 )  
( 8.23227e-10 1.30426e-10 2.93658e-10 )  
( 2.01764e-09 -1.4434e-09 -5.87861e-11 )  
( 1.89545e-09 -1.3188e-09 -1.34913e-10 )  
( 1.32879e-09 -3.90893e-10 -8.23735e-10 )  
( 8.76524e-10 -3.40197e-10 -8.99544e-10 )  
( 6.99123e-11 6.51541e-11 2.73609e-10 )  
( 1.65687e-09 -1.02448e-09 -7.7281e-10 )  
( 1.23872e-09 -7.52577e-10 -1.10418e-09 )  
( 1.31429e-09 -4.81751e-10 -1.22468e-09 )  
( 8.48876e-10 -4.74835e-10 -1.17086e-09 )  
( 1.43941e-09 -8.51778e-10 -9.02781e-10 )  
( 1.20111e-09 -4.92979e-10 -1.22417e-09 )  
( 7.25868e-11 9.76301e-11 8.02563e-11 )  
( 1.00854e-09 -7.49327e-11 -5.29008e-10 )  
( 2.92836e-10 8.61377e-11 -2.38489e-10 )  
( 1.86743e-09 -7.98304e-10 -3.30416e-10 )  
( 1.47958e-09 -8.00385e-10 -1.02695e-09 )  
( 7.00469e-10 -1.57971e-11 -1.03691e-10 )  
( 1.31987e-09 -8.13291e-11 -1.02047e-09 )  
( 6.47501e-10 -4.6632e-10 -8.99846e-10 )  
( 2.4256e-09 -1.19598e-09 1.03809e-09 )  
( 3.38603e-10 -1.86904e-13 -7.03215e-11 )  
( 2.24639e-10 1.11629e-10 -1.87738e-11 )  
( 1.32123e-09 -1.0015e-10 -1.20552e-09 )  
( 1.51024e-09 -9.8659e-10 -1.81145e-10 )  
( 4.61246e-10 -5.2372e-11 -4.78339e-10 )  
( 2.47645e-10 -1.20774e-11 -1.03445e-10 )  
( 1.32111e-09 -1.10173e-09 -1.09938e-09 )  
( 3.61632e-09 -1.47522e-09 -1.95785e-10 )  
( 3.19868e-09 -1.4543e-09 -7.19844e-10 )  
( 5.79068e-09 -4.06863e-10 -2.60723e-09 )  
( 6.62153e-11 4.10665e-10 -5.76347e-11 )  
( 3.31402e-10 1.46507e-09 2.27785e-10 )  
( 5.54545e-09 2.35176e-09 1.5029e-09 )  
( 3.15423e-09 1.53537e-09 -1.71371e-10 )  
( -1.37643e-09 5.87398e-10 4.36818e-10 )  
( 1.53278e-09 -2.83875e-11 -8.62394e-10 )  
( 7.25422e-09 -5.29827e-10 7.44535e-10 )  
( 5.07339e-09 -1.59373e-09 4.94184e-10 )  
( 2.55493e-09 3.20594e-10 -8.26867e-10 )  
( 3.04781e-09 -1.6069e-09 -7.61894e-10 )  
( -7.83443e-10 4.36629e-10 2.87419e-10 )  
( 3.29354e-09 -2.46683e-09 -1.2596e-09 )  
( 2.37507e-09 -1.44813e-09 -8.56744e-10 )  
( 4.20315e-09 -1.04358e-09 -3.58104e-10 )  
( 3.02288e-09 -7.94504e-10 -9.64809e-10 )  
( 1.00022e-09 -7.24571e-10 -7.1066e-10 )  
( 2.66129e-09 -1.79182e-09 -8.46174e-10 )  
( 1.10238e-09 5.02688e-10 -6.4749e-10 )  
( -8.7619e-10 -8.63678e-10 -1.25206e-09 )  
( 9.6291e-10 7.47583e-10 -1.96891e-10 )  
( 2.18127e-09 -2.25624e-09 -1.03863e-09 )  
( 8.10563e-09 2.36405e-09 1.8411e-09 )  
( 7.75898e-10 4.97493e-10 -2.35945e-11 )  
( 4.95778e-09 -1.94574e-09 -2.01401e-09 )  
( 1.07267e-09 -2.05002e-10 -9.1339e-10 )  
( 1.57556e-09 -7.63667e-10 -6.83255e-10 )  
( 4.25467e-09 -1.4177e-09 -1.77158e-11 )  
( 3.25465e-09 -1.43037e-09 -1.01926e-09 )  
( 5.23708e-09 2.24917e-09 -4.41173e-10 )  
( -1.41882e-11 7.32384e-10 -3.17058e-11 )  
( 1.63835e-09 2.66694e-11 -5.96496e-10 )  
( 6.18898e-10 2.64006e-10 -4.30067e-10 )  
( 1.13127e-09 -2.42203e-10 -7.34188e-10 )  
( 3.97185e-09 -1.08098e-09 -8.18674e-10 )  
( -1.07554e-10 -1.32668e-09 -1.26057e-09 )  
( 2.45562e-09 -8.17523e-10 -1.09649e-09 )  
( 5.874e-09 -1.90086e-09 9.91439e-10 )  
( -7.67713e-10 3.22428e-10 2.44989e-10 )  
( 3.36668e-09 -2.96235e-09 -1.04744e-09 )  
( 6.46472e-09 -8.02553e-10 5.66172e-11 )  
( 1.26285e-09 -3.9361e-10 -7.76512e-10 )  
( -1.36325e-09 7.47172e-10 4.27182e-10 )  
( -6.16483e-10 -4.76447e-10 -6.0382e-10 )  
( 9.16022e-10 5.90714e-10 -2.01533e-10 )  
( 2.05168e-10 4.97251e-10 -9.11578e-11 )  
( 4.99864e-09 -8.08882e-10 -9.24532e-10 )  
( 1.19624e-10 1.70179e-10 -5.66724e-10 )  
( -2.03942e-10 3.81387e-10 5.8372e-11 )  
( 1.8986e-09 -1.09404e-09 -1.04429e-09 )  
( -6.67627e-10 1.96792e-10 5.64901e-11 )  
)
