/*--------------------------------*- C++ -*----------------------------------*\
  =========                 |
  \\      /  F ield         | OpenFOAM: The Open Source CFD Toolbox
   \\    /   O peration     | Website:  https://openfoam.org
    \\  /    A nd           | Version:  4.x
     \\/     M anipulation  |
\*---------------------------------------------------------------------------*/
FoamFile
{
    version     2.0;
    format      ascii;
    class       vectorField;
    location    0;
    object      v;
}
// * * * * * * * * * * * * * * * * * * * * * * * * * * * * * * * * * * * * * //

348
(
( 3.28153e-09 1.11284e-09 2.56127e-09 )  
( 3.83386e-09 1.31961e-09 1.95847e-09 )  
( 4.6106e-09 9.20311e-10 1.6008e-09 )  
( 2.64879e-09 3.44485e-10 -3.07775e-09 )  
( 5.2069e-09 1.14357e-09 5.10687e-09 )  
( 1.12457e-09 -1.41137e-10 -1.42694e-09 )  
( 1.30395e-09 2.65942e-10 -4.65124e-09 )  
( 5.73101e-10 9.40515e-11 -7.90219e-10 )  
( 4.75471e-09 -1.72094e-10 1.992e-09 )  
( 1.49953e-09 9.68817e-11 -2.51205e-09 )  
( 2.68982e-09 9.82498e-10 -2.30826e-09 )  
( 1.51977e-09 -5.17987e-10 -2.32283e-09 )  
( 2.05157e-09 -3.67412e-10 1.35789e-09 )  
( 2.86351e-09 4.76695e-10 -2.22947e-09 )  
( 1.99877e-09 4.52573e-10 -2.98542e-09 )  
( 5.13095e-09 7.24232e-10 5.28172e-09 )  
( 3.83279e-09 -9.41363e-10 8.84266e-10 )  
( 2.85301e-09 -1.00764e-10 -1.50085e-09 )  
( 3.80244e-09 9.29112e-10 7.10903e-09 )  
( 6.39508e-09 1.25335e-09 1.77e-09 )  
( 3.5139e-09 -4.20267e-10 -6.28773e-10 )  
( 3.70783e-09 1.03822e-09 5.85247e-09 )  
( 6.4307e-09 1.61933e-09 5.51603e-09 )  
( 4.50149e-09 -1.62498e-10 5.01692e-09 )  
( 2.25488e-09 3.51334e-11 7.33828e-10 )  
( 5.60454e-09 4.24312e-10 1.13401e-09 )  
( 8.39543e-10 6.87496e-10 -1.03417e-09 )  
( 7.32013e-10 -1.24841e-10 -9.48037e-10 )  
( -1.69418e-09 -5.50548e-10 -4.87964e-09 )  
( 4.74955e-09 -6.71447e-10 4.64602e-10 )  
( 3.24025e-09 3.91309e-10 -2.25173e-09 )  
( 1.62241e-09 -2.78181e-10 -2.08267e-09 )  
( 3.37903e-09 4.9735e-10 3.08991e-09 )  
( 9.72869e-10 -1.199e-10 5.5708e-12 )  
( 4.13111e-09 -9.06185e-10 2.69819e-09 )  
( 2.64204e-09 7.58591e-10 -1.24766e-09 )  
( 2.3994e-09 -3.85589e-10 -9.31648e-10 )  
( 1.72294e-09 2.24963e-10 -1.37132e-09 )  
( 5.40009e-09 5.40637e-10 4.023e-09 )  
( 3.16741e-09 6.15882e-11 -1.73135e-09 )  
( 2.21624e-09 2.48106e-10 -2.13056e-09 )  
( 2.22911e-09 -5.52708e-10 -3.73983e-09 )  
( 4.09558e-09 4.61868e-10 -9.54392e-10 )  
( 6.57392e-09 4.27871e-10 6.26848e-09 )  
( 5.3143e-09 2.16832e-09 4.04155e-09 )  
( 2.42848e-09 -3.92904e-10 1.08968e-09 )  
( 5.11721e-09 1.54006e-09 7.49162e-09 )  
( 4.31454e-09 2.05085e-10 -3.15097e-10 )  
( 4.02633e-09 -2.2595e-11 1.6011e-10 )  
( 8.97017e-09 6.12207e-09 9.58941e-10 )  
( 6.6005e-09 1.62406e-09 1.40309e-08 )  
( 3.58039e-09 4.86015e-10 -5.80809e-10 )  
( 1.94741e-09 -4.3494e-10 5.35095e-10 )  
( 1.56212e-09 1.69325e-09 -2.39378e-09 )  
( 4.58807e-09 -1.99326e-10 -7.94932e-10 )  
( -9.73478e-11 7.38944e-10 1.20912e-09 )  
( 8.48039e-10 -2.29563e-10 -9.61209e-10 )  
( 1.74159e-09 1.55712e-10 -3.12506e-10 )  
( 5.49431e-09 3.10559e-10 2.04041e-09 )  
( 4.08831e-10 -6.71646e-11 -9.84263e-10 )  
( 1.34115e-09 2.09707e-10 -2.60621e-09 )  
( 8.64912e-10 8.34456e-10 -1.51785e-09 )  
( 3.20447e-10 -7.12784e-11 -2.16713e-09 )  
( 6.81393e-10 3.24783e-10 -9.42729e-10 )  
( 1.1506e-09 1.41299e-10 -7.84498e-10 )  
( 2.36259e-09 7.90572e-10 -2.51949e-09 )  
( 3.0236e-09 5.76741e-10 -1.84255e-09 )  
( 3.15677e-09 4.68917e-10 -1.212e-09 )  
( 6.08555e-09 1.66302e-09 2.09716e-09 )  
( 7.01539e-09 1.5713e-09 5.73867e-09 )  
( 5.1091e-09 7.79525e-10 -3.16276e-11 )  
( 2.42216e-09 8.66091e-10 3.92604e-09 )  
( 1.65929e-09 6.98546e-10 -2.95116e-09 )  
( 5.52919e-09 1.26983e-09 1.09499e-09 )  
( 2.6041e-09 4.89732e-10 2.93745e-09 )  
( 4.05166e-09 -7.25889e-10 -1.25237e-10 )  
( 2.75499e-09 8.26137e-10 -2.38969e-09 )  
( 2.93426e-09 4.54651e-10 -8.04441e-10 )  
( 5.28443e-09 1.0967e-09 5.21913e-09 )  
( 5.73094e-09 1.40546e-09 5.317e-09 )  
( 1.55503e-09 -4.80689e-10 -1.32099e-09 )  
( 3.83163e-09 5.28793e-11 3.34122e-10 )  
( 4.03936e-09 1.99136e-10 9.90714e-10 )  
( 5.99739e-09 2.73754e-09 7.44831e-09 )  
( 1.36333e-09 -2.14061e-10 -2.9854e-09 )  
( -2.53476e-10 5.17628e-10 -2.46796e-09 )  
( -9.84858e-10 -2.04586e-10 -7.21095e-09 )  
( 4.70008e-09 6.42505e-10 4.07846e-09 )  
( 4.04114e-09 -7.69358e-10 1.36848e-09 )  
( 1.57334e-09 -3.21815e-10 -2.88942e-09 )  
( 2.01344e-09 -3.26173e-10 8.36543e-10 )  
( 3.17738e-09 -2.06359e-12 1.95617e-09 )  
( 1.23523e-09 5.15994e-10 -2.7425e-09 )  
( 3.72843e-09 8.44923e-10 2.82506e-09 )  
( 6.91028e-09 1.86672e-10 4.21797e-09 )  
( 6.41187e-10 -4.23532e-10 -3.46041e-10 )  
( 5.00915e-10 -6.45878e-10 -7.20658e-10 )  
( 5.39926e-09 1.03359e-09 3.1681e-09 )  
( 9.12274e-10 -5.14051e-11 -7.69657e-10 )  
( 3.60429e-09 3.38668e-10 -1.16593e-09 )  
( 2.11294e-09 3.98158e-10 -2.74679e-09 )  
( 2.42905e-09 -5.66317e-10 -5.80045e-09 )  
( 4.21538e-09 -1.28123e-10 -4.4218e-10 )  
( 2.71812e-09 2.0386e-10 7.53376e-10 )  
( 1.26296e-09 1.18894e-10 -2.11191e-09 )  
( 5.56385e-09 1.22448e-09 2.49196e-09 )  
( 1.72908e-09 -1.28151e-10 -2.39741e-09 )  
( 5.17176e-09 4.66613e-10 2.64563e-10 )  
( -4.0828e-10 7.028e-10 1.37651e-09 )  
( -3.80853e-09 3.24585e-10 1.01953e-09 )  
( 2.63614e-09 6.2983e-10 -2.62639e-09 )  
( 6.89921e-10 -8.557e-11 1.10616e-09 )  
( 2.08023e-09 -4.01745e-10 2.02214e-10 )  
( 5.4586e-09 -1.1716e-10 2.45641e-09 )  
( 1.64565e-09 -2.32473e-11 -6.45379e-10 )  
( 1.96696e-09 3.52256e-10 -1.76301e-09 )  
( 3.55799e-09 1.24704e-10 2.24624e-11 )  
( 1.23172e-09 1.03492e-10 -1.35366e-09 )  
( 2.25745e-10 8.04937e-10 -2.48955e-09 )  
( 4.62401e-09 5.31215e-10 1.82172e-09 )  
( -5.52742e-10 7.62609e-10 -4.07397e-09 )  
( 2.47064e-09 1.00365e-09 -2.14987e-09 )  
( 3.72106e-10 -8.5223e-10 -4.44084e-10 )  
( 4.11805e-09 -4.94789e-10 2.3584e-09 )  
( 2.32869e-09 1.9759e-10 3.39606e-09 )  
( 4.31534e-09 9.13759e-10 1.4344e-09 )  
( 6.44464e-10 5.79428e-10 3.59987e-10 )  
( 3.89684e-09 2.86493e-10 -9.23505e-11 )  
( 1.56337e-09 1.85205e-11 -2.01205e-10 )  
( 1.07679e-09 9.58675e-10 -1.62116e-09 )  
( 3.24252e-09 -6.49524e-10 1.01251e-09 )  
( 1.2645e-09 -1.25571e-10 2.0556e-10 )  
( 1.08688e-09 2.18382e-10 -1.07421e-09 )  
( 4.09999e-09 8.57259e-10 1.55492e-09 )  
( 3.82351e-09 3.56506e-10 1.86177e-09 )  
( 4.71544e-09 6.65933e-10 9.43553e-10 )  
( -7.1512e-10 1.50619e-09 -1.85293e-09 )  
( 1.3698e-09 -3.13914e-10 6.54435e-10 )  
( 3.61495e-09 3.89844e-10 9.70646e-12 )  
( 1.04144e-09 9.94187e-10 -2.44166e-09 )  
( 1.89668e-09 -3.69813e-10 1.50362e-09 )  
( 4.17448e-10 -1.10897e-10 -1.22005e-09 )  
( -1.99802e-10 1.08823e-09 -9.43123e-10 )  
( 3.33683e-09 7.47292e-09 -1.06169e-08 )  
( 1.79233e-09 2.58022e-09 2.8294e-09 )  
( 2.11576e-09 -2.15522e-10 2.05095e-09 )  
( 3.84143e-09 1.02849e-10 2.35333e-10 )  
( 1.42116e-09 -3.55906e-10 2.97708e-10 )  
( 9.9528e-10 2.56288e-10 -1.04873e-09 )  
( 3.4022e-09 1.18559e-10 3.39838e-10 )  
( 1.43018e-09 2.50536e-09 -2.54229e-09 )  
( 9.16183e-10 7.78883e-11 4.65641e-10 )  
( -1.81207e-09 4.06303e-09 -4.22465e-09 )  
( 1.75557e-09 -6.12918e-10 1.46455e-09 )  
( 3.13841e-09 1.04183e-09 1.56429e-10 )  
( 3.74548e-10 1.47209e-09 -1.84501e-09 )  
( 1.66162e-09 2.55605e-09 -1.81134e-09 )  
( -5.17664e-10 -1.40737e-12 -6.58485e-10 )  
( 4.80907e-09 3.26033e-10 9.11174e-10 )  
( -4.39182e-10 2.94411e-09 -2.22447e-09 )  
( 1.91863e-09 6.16613e-10 8.46188e-10 )  
( 2.7511e-09 9.04702e-10 -3.60864e-10 )  
( 3.06417e-09 2.25004e-10 -3.09182e-10 )  
( 4.35101e-09 4.1138e-10 5.91019e-10 )  
( 4.50129e-09 1.17206e-09 1.35204e-10 )  
( 3.19276e-09 3.94856e-10 -1.81192e-10 )  
( -1.59073e-10 1.27261e-09 -1.15998e-09 )  
( 3.77459e-09 1.03568e-09 2.38341e-09 )  
( 3.8765e-09 -6.37346e-10 2.03546e-09 )  
( 3.21039e-09 2.98396e-10 1.27118e-10 )  
( 2.18149e-09 1.93836e-09 2.61406e-09 )  
( 2.92948e-09 8.07017e-10 2.67977e-09 )  
( 2.4848e-09 2.2312e-09 2.07292e-09 )  
( 1.95722e-09 6.64967e-10 -5.8115e-10 )  
( -3.00208e-12 1.62094e-09 -2.66169e-09 )  
( 3.65742e-10 1.30494e-10 -4.21893e-10 )  
( 4.34764e-09 8.64133e-10 9.41724e-10 )  
( 3.14232e-09 2.06953e-10 6.17471e-10 )  
( 1.53204e-09 7.01337e-10 -1.39955e-09 )  
( 2.95893e-09 -3.34745e-10 1.95159e-09 )  
( 3.80946e-09 -7.66878e-11 7.79177e-10 )  
( 3.79611e-09 1.98864e-09 -2.81445e-09 )  
( 1.1157e-09 2.21825e-10 9.91985e-10 )  
( 3.52822e-09 6.00832e-11 6.54603e-10 )  
( 2.76643e-09 -2.48847e-10 2.18876e-09 )  
( 2.86755e-09 7.56131e-10 -1.17359e-09 )  
( 5.11257e-10 8.16881e-10 -1.48159e-09 )  
( 4.40712e-09 6.76184e-10 1.38222e-09 )  
( 5.14743e-09 7.48666e-10 4.11158e-09 )  
( 9.79064e-10 3.53429e-10 7.64919e-10 )  
( -1.63222e-10 1.77473e-09 -2.15633e-09 )  
( 2.67628e-09 5.35447e-10 2.97901e-10 )  
( 2.10037e-09 2.92439e-10 -1.00413e-09 )  
( 2.72989e-09 8.43541e-10 -6.0483e-10 )  
( 2.15878e-09 3.80599e-10 -1.76119e-09 )  
( 1.58286e-09 1.41248e-10 7.3287e-10 )  
( 2.86669e-09 -4.47837e-10 3.34617e-09 )  
( -5.62969e-10 2.22971e-09 -1.34616e-09 )  
( 1.91432e-09 8.41883e-11 2.01721e-09 )  
( 2.47888e-09 -4.28397e-10 -9.3152e-09 )  
( 1.53353e-09 -1.22754e-10 4.32148e-10 )  
( -4.61615e-10 7.37595e-10 -1.14759e-09 )  
( 3.841e-09 8.26886e-10 2.67557e-11 )  
( -4.07576e-10 1.3661e-09 -2.37699e-09 )  
( 4.94654e-09 6.12212e-10 1.0819e-09 )  
( 4.28719e-09 1.13293e-09 4.04962e-09 )  
( 1.62399e-09 2.31818e-10 1.27809e-09 )  
( 6.2135e-10 -1.29822e-10 2.70916e-10 )  
( 3.47642e-09 2.08622e-10 2.66905e-09 )  
( 3.73309e-10 -1.57414e-10 -3.46652e-10 )  
( 2.06565e-09 2.41659e-11 -9.14783e-10 )  
( 4.56775e-09 1.12626e-10 1.31015e-09 )  
( 2.59416e-09 2.28239e-11 -5.28773e-10 )  
( 3.13389e-09 5.28633e-10 -2.82912e-10 )  
( 1.38213e-09 -3.96311e-11 4.78495e-10 )  
( 8.19976e-09 -2.16599e-09 -1.41464e-08 )  
( 1.85692e-09 -6.95722e-10 6.44631e-10 )  
( 5.53148e-10 8.30868e-10 6.86805e-10 )  
( 4.92152e-09 6.25065e-10 2.80796e-09 )  
( 1.2227e-09 8.24795e-10 -2.98395e-10 )  
( 1.3141e-09 9.89914e-11 3.22533e-10 )  
( 9.15463e-10 -3.58648e-10 -3.62919e-10 )  
( 4.27711e-10 1.59172e-10 -1.43785e-09 )  
( 4.4996e-11 2.86242e-09 -3.48308e-09 )  
( -3.42985e-09 -2.7816e-09 9.94642e-11 )  
( 2.3683e-09 5.52921e-10 -1.25831e-09 )  
( -1.65968e-09 5.65426e-10 -2.38051e-09 )  
( 1.5512e-09 6.17746e-10 -1.97452e-10 )  
( 4.71388e-09 3.34699e-10 1.55239e-09 )  
( 1.26315e-09 3.30025e-09 1.71679e-10 )  
( 2.78614e-09 -3.07365e-10 9.68572e-10 )  
( 3.1695e-09 5.10051e-10 -4.5557e-10 )  
( 1.55569e-09 6.73362e-10 2.20726e-09 )  
( 9.12988e-10 1.16195e-11 7.62732e-10 )  
( 1.16067e-09 1.54533e-10 7.63218e-10 )  
( 2.26716e-09 5.56329e-10 -1.58528e-10 )  
( 2.7725e-09 7.48711e-10 -8.88896e-10 )  
( -5.23651e-10 2.62027e-09 -3.21739e-09 )  
( 8.45237e-10 1.06037e-09 -1.38484e-09 )  
( 3.39776e-09 3.89933e-11 9.65178e-10 )  
( 3.90686e-09 6.99806e-10 8.42578e-10 )  
( 3.55393e-09 7.68278e-11 2.98145e-09 )  
( 2.8991e-09 9.41013e-10 2.61233e-09 )  
( 4.55401e-09 9.28118e-10 9.11691e-10 )  
( 3.42498e-09 8.12502e-10 3.74323e-10 )  
( -3.13294e-10 2.29829e-09 -2.57862e-09 )  
( 1.97384e-09 4.21418e-10 -3.61123e-12 )  
( 2.94754e-09 3.97356e-09 -1.04542e-08 )  
( -2.75304e-10 3.02155e-09 -2.29696e-09 )  
( 2.98773e-09 -2.30745e-10 3.55924e-12 )  
( 4.34194e-09 5.19661e-10 4.5747e-10 )  
( 6.72142e-12 1.79454e-09 -1.33246e-09 )  
( 2.49753e-09 -9.50916e-10 6.96598e-10 )  
( 1.4875e-09 1.13604e-09 -1.4271e-09 )  
( -1.80198e-09 1.78196e-09 -3.52149e-09 )  
( 3.98942e-09 8.41177e-10 6.78561e-10 )  
( 7.33174e-10 8.77348e-10 -1.09105e-09 )  
( 1.07187e-09 -1.26057e-10 7.69031e-10 )  
( 1.40513e-09 7.47894e-10 5.54725e-11 )  
( 2.82471e-09 -2.64308e-10 1.3681e-10 )  
( 2.69614e-09 4.51989e-10 -2.48341e-10 )  
( 3.28171e-09 1.0673e-09 -4.34287e-10 )  
( 3.66934e-09 -5.12441e-11 1.06946e-09 )  
( 1.85272e-09 2.77647e-10 3.8618e-10 )  
( 1.13371e-10 5.45419e-09 -2.79546e-09 )  
( 1.86358e-09 5.35981e-10 2.02185e-10 )  
( 2.35531e-09 6.138e-10 -1.92304e-10 )  
( 1.2885e-09 -1.12368e-10 9.15221e-10 )  
( -1.29852e-09 1.87583e-13 -1.05733e-10 )  
( 5.06069e-09 3.51737e-10 2.54777e-09 )  
( 9.52019e-10 1.68494e-09 8.69879e-10 )  
( 7.69019e-10 1.0609e-09 -4.71213e-10 )  
( 4.5703e-09 4.84203e-10 4.88631e-10 )  
( -6.71901e-10 3.56209e-09 -1.57433e-09 )  
( 1.70911e-09 -1.18172e-09 2.29181e-09 )  
( 8.62103e-10 1.82376e-10 -1.76916e-11 )  
( 3.04212e-09 4.95005e-10 7.72729e-10 )  
( 1.17746e-09 1.06508e-10 4.06042e-11 )  
( 2.2609e-09 8.13446e-10 -3.60096e-10 )  
( 1.34035e-09 -8.20901e-10 -2.50593e-10 )  
( 4.32506e-09 8.72233e-10 9.55787e-10 )  
( 1.54212e-09 7.11295e-10 -8.7421e-11 )  
( 4.44815e-09 6.37462e-10 1.17505e-09 )  
( 2.56273e-09 8.0527e-10 2.14655e-10 )  
( 1.35724e-09 -3.39151e-10 2.23915e-10 )  
( 7.08004e-10 6.54717e-10 -9.54304e-11 )  
( 1.23422e-10 1.39402e-09 -1.69393e-10 )  
( 5.70087e-10 1.23418e-09 -1.33304e-09 )  
( -3.46421e-10 -5.14647e-11 -1.34356e-10 )  
( 3.76095e-10 8.60911e-11 -1.93961e-11 )  
( 1.58811e-09 -1.00093e-11 -1.68104e-11 )  
( 9.59697e-10 -1.74546e-11 4.97503e-10 )  
( 1.29077e-09 -5.80643e-10 -2.7553e-10 )  
( 1.48769e-09 -5.8452e-10 -2.22892e-10 )  
( -4.08332e-09 2.5122e-09 -4.20925e-09 )  
( 7.21011e-10 3.00989e-10 1.28483e-10 )  
( -3.03928e-10 2.09224e-09 -1.52255e-09 )  
( 2.82364e-09 6.55244e-10 1.85852e-11 )  
( 1.26483e-09 4.88629e-10 -6.59982e-11 )  
( 1.78069e-09 1.15907e-08 -1.2207e-08 )  
( 3.76719e-10 -2.31618e-12 3.57378e-10 )  
( 1.13134e-09 4.79815e-10 1.31328e-10 )  
( 1.44628e-09 1.87517e-10 -6.64449e-10 )  
( 1.78216e-09 -2.20163e-10 3.01342e-10 )  
( 1.45154e-09 -4.88812e-10 -9.00154e-11 )  
( 4.98316e-10 6.94243e-10 -1.47608e-10 )  
( 1.35706e-09 -1.34901e-11 -1.48791e-10 )  
( -5.28362e-10 1.55268e-09 -4.15801e-10 )  
( -2.06352e-09 9.1174e-10 -3.04911e-10 )  
( 2.37435e-09 6.43585e-10 3.7487e-10 )  
( 3.19588e-09 7.34233e-10 -2.30758e-10 )  
( 4.24966e-10 3.83238e-09 -2.24805e-09 )  
( 4.40479e-09 3.27851e-08 -9.36236e-10 )  
( 7.07912e-10 5.61065e-11 -1.58398e-10 )  
( 5.86387e-10 -3.53952e-10 -1.37913e-10 )  
( 1.14733e-09 -8.84183e-11 -9.2496e-11 )  
( 5.3661e-10 2.39152e-10 -1.39464e-10 )  
( 2.97746e-09 7.19224e-09 -2.70027e-09 )  
( 1.46975e-09 3.44664e-10 3.64369e-10 )  
( 1.36485e-09 3.51404e-10 1.09601e-10 )  
( 7.81712e-10 2.22212e-10 -1.61366e-10 )  
( 5.94783e-10 -8.19173e-11 1.04752e-09 )  
( 2.26147e-09 1.601e-10 1.20825e-10 )  
( 6.0117e-09 -2.19802e-09 3.12637e-10 )  
( 3.3738e-10 -4.67692e-12 1.95591e-10 )  
( 1.0814e-09 5.15348e-10 -5.63893e-11 )  
( -3.38178e-09 1.1666e-09 -9.24415e-10 )  
( 1.6976e-09 -4.8521e-09 -5.83275e-10 )  
( -2.57655e-12 3.02649e-11 4.29759e-10 )  
( 1.33651e-09 -4.22582e-10 4.53358e-10 )  
( -1.65585e-09 1.59006e-09 -1.25186e-09 )  
( -2.10853e-10 2.07792e-09 -1.77353e-09 )  
( -1.74734e-12 1.04055e-09 -6.20814e-10 )  
( 7.18787e-10 1.23967e-11 -1.06591e-10 )  
( 7.45803e-10 2.28566e-09 1.77235e-10 )  
( 6.17485e-10 3.02938e-10 -7.8246e-11 )  
( 1.11664e-09 -1.39748e-10 2.31818e-10 )  
( 1.73451e-10 2.01962e-09 -3.08625e-10 )  
( -7.04642e-10 1.26544e-09 -2.26349e-10 )  
( 4.44294e-10 2.20682e-10 1.82941e-10 )  
( 2.67378e-09 2.78574e-11 5.93573e-11 )  
( 2.76794e-10 7.08107e-11 -4.60485e-10 )  
( 2.53315e-09 8.76629e-09 -7.40917e-09 )  
( 7.52905e-10 -8.84028e-12 2.0903e-11 )  
( -6.05253e-10 2.42528e-09 -1.68247e-09 )  
( 6.22499e-10 1.96819e-10 5.92463e-10 )  
( 6.03331e-10 -1.77213e-11 9.41591e-11 )  
( 1.03753e-09 6.6142e-11 -3.94988e-10 )  
)
