/*--------------------------------*- C++ -*----------------------------------*\
| =========                 |                                                 |
| \\      /  F ield         | OpenFOAM: The Open Source CFD Toolbox           |
|  \\    /   O peration     | Version:  4.x                                   |
|   \\  /    A nd           | Web:      www.OpenFOAM.org                      |
|    \\/     M anipulation  |                                                 |
\*---------------------------------------------------------------------------*/
FoamFile
{
    version     2.0;
    format      ascii;
    class       volScalarField;
    location    "4.5";
    object      Cs;
}
// * * * * * * * * * * * * * * * * * * * * * * * * * * * * * * * * * * * * * //

dimensions      [1 -3 0 0 0 0 0];

internalField   nonuniform List<scalar> 
132
(
334.962
334.87
334.73
334.578
334.448
334.369
334.349
334.376
334.447
334.967
334.876
334.728
334.563
334.437
334.389
334.425
334.53
334.706
334.967
334.863
334.693
334.519
334.434
334.463
334.561
334.7
334.867
334.969
334.863
334.69
334.981
334.925
334.829
334.721
334.624
334.569
334.555
334.58
334.631
334.982
334.921
334.819
334.718
334.656
334.668
334.722
334.827
334.951
334.983
334.91
334.794
334.701
334.672
334.73
334.819
334.923
335.024
334.983
334.907
334.785
334.693
334.659
334.989
334.954
334.892
334.822
334.756
334.717
334.701
334.713
334.751
334.989
334.95
334.884
334.822
334.785
334.8
334.841
334.914
334.998
334.99
334.945
334.873
334.816
334.797
334.83
334.891
334.972
335.047
334.99
334.945
334.871
334.812
334.792
334.822
334.87
334.994
334.975
334.94
334.9
334.859
334.832
334.817
334.819
334.831
334.994
334.971
334.932
334.896
334.872
334.883
334.912
334.962
335.024
334.993
334.966
334.921
334.885
334.873
334.893
334.933
334.993
335.05
334.993
334.963
334.914
334.874
334.861
334.875
334.906
334.951
335.005
)
;

boundaryField
{
    inlet
    {
        type            calculated;
        value           uniform 335;
    }
    outlet
    {
        type            calculated;
        value           nonuniform 0();
    }
    wall
    {
        type            calculated;
        value           nonuniform List<scalar> 
66
(
334.962
334.967
334.967
334.969
334.87
334.876
334.863
334.863
334.73
334.728
334.693
334.69
334.578
334.563
334.519
334.448
334.437
334.434
334.369
334.389
334.463
334.349
334.425
334.561
334.376
334.53
334.7
334.447
334.706
334.867
334.962
334.981
334.989
334.994
334.87
334.925
334.954
334.975
334.73
334.829
334.892
334.94
334.578
334.721
334.822
334.9
334.448
334.624
334.756
334.859
334.369
334.569
334.717
334.832
334.349
334.555
334.701
334.817
334.376
334.58
334.713
334.819
334.447
334.631
334.751
334.831
)
;
    }
    procBoundary0to1
    {
        type            processor;
        value           nonuniform List<scalar> 
12
(
334.531
334.857
335.009
334.707
335.06
335.118
334.797
335.095
335.126
334.85
335.087
335.104
)
;
    }
    procBoundary0to2
    {
        type            processor;
        value           nonuniform List<scalar> 
44
(
334.521
334.445
334.487
334.6
334.744
334.897
334.967
334.866
334.521
334.695
334.521
334.445
334.709
334.791
334.888
335.001
334.983
334.916
334.802
334.7
334.709
334.655
334.709
334.791
334.928
334.991
334.991
334.951
334.883
334.823
334.799
334.83
334.928
334.883
334.928
334.991
334.994
334.973
334.936
334.903
334.888
334.899
334.931
334.982
)
;
    }
    procBoundary0to4
    {
        type            processor;
        value           nonuniform List<scalar> 
36
(
334.996
334.982
334.959
334.933
334.907
334.89
334.881
334.887
334.907
334.995
334.978
334.949
334.921
334.907
334.918
334.95
334.995
335.077
334.995
334.975
334.942
334.912
334.902
334.918
334.953
335
335.051
334.995
334.975
334.942
334.911
334.898
334.912
334.943
334.987
335.038
)
;
    }
    procBoundary0to6
    {
        type            processor;
        value           uniform 335.034;
    }
    procBoundary0to7
    {
        type            processor;
        value           uniform 335.045;
    }
}


// ************************************************************************* //
