/*--------------------------------*- C++ -*----------------------------------*\
| =========                 |                                                 |
| \\      /  F ield         | OpenFOAM: The Open Source CFD Toolbox           |
|  \\    /   O peration     | Version:  4.x                                   |
|   \\  /    A nd           | Web:      www.OpenFOAM.org                      |
|    \\/     M anipulation  |                                                 |
\*---------------------------------------------------------------------------*/
FoamFile
{
    version     2.0;
    format      ascii;
    class       volScalarField;
    location    "4.5";
    object      SPartFluid;
}
// * * * * * * * * * * * * * * * * * * * * * * * * * * * * * * * * * * * * * //

dimensions      [1 -3 -1 0 0 0 0];

internalField   nonuniform List<scalar> 
132
(
4.02938e-65
3.64084e-65
3.09776e-65
2.86524e-65
3.79527e-65
4.02759e-65
4.88047e-65
3.48638e-65
1.70447e-65
4.88151e-65
4.64777e-65
4.64694e-65
5.11085e-65
3.17472e-65
5.80783e-65
4.25989e-65
4.64757e-65
4.2611e-65
2.71184e-65
5.34492e-65
4.72449e-65
4.72327e-65
4.25854e-65
4.3358e-65
3.25244e-65
4.18253e-65
7.205e-65
2.86714e-65
4.41567e-65
3.25339e-65
4.18436e-65
6.66202e-65
8.05488e-65
7.04676e-65
6.81464e-65
7.12476e-65
6.27378e-65
6.42943e-65
6.19822e-65
5.42382e-65
7.97874e-65
6.27297e-65
7.20069e-65
7.27788e-65
7.12332e-65
6.5048e-65
7.74522e-65
6.73991e-65
5.88891e-65
8.13346e-65
6.81449e-65
6.271e-65
6.65762e-65
6.58034e-65
8.28495e-65
6.04064e-65
4.95804e-65
8.05832e-65
6.11972e-65
6.11752e-65
4.56744e-65
9.13464e-65
5.96645e-65
6.81749e-65
7.28043e-65
6.81423e-65
6.58202e-65
5.18826e-65
7.04748e-65
6.89372e-65
4.72576e-65
6.43115e-65
7.04945e-65
6.7374e-65
5.57437e-65
7.35473e-65
5.72889e-65
7.35534e-65
8.82884e-65
6.27436e-65
7.67081e-65
6.27444e-65
6.58198e-65
8.20588e-65
7.81811e-65
7.35348e-65
7.43064e-65
6.19523e-65
4.56987e-65
7.28339e-65
7.59067e-65
7.66559e-65
7.97361e-65
8.35963e-65
7.12094e-65
7.1219e-65
4.57205e-65
4.88047e-65
5.73176e-65
5.34316e-65
6.11726e-65
7.74334e-65
4.80134e-65
4.10507e-65
4.95779e-65
5.5015e-65
8.13389e-65
7.27982e-65
6.73604e-65
5.80605e-65
5.65121e-65
8.36177e-65
6.58242e-65
5.3444e-65
4.57129e-65
4.95696e-65
7.27893e-65
5.72845e-65
7.27597e-65
7.74021e-65
7.04323e-65
5.11046e-65
8.20955e-65
5.26886e-65
5.88684e-65
7.82074e-65
9.21207e-65
4.41178e-65
9.21042e-65
7.12148e-65
5.41928e-65
2.32332e-65
)
;

boundaryField
{
    inlet
    {
        type            calculated;
        value           uniform 0;
    }
    outlet
    {
        type            calculated;
        value           nonuniform 0();
    }
    wall
    {
        type            calculated;
        value           uniform 0;
    }
    procBoundary0to1
    {
        type            processor;
        value           nonuniform List<scalar> 
12
(
3.71949e-65
3.64229e-65
3.48742e-65
6.43148e-65
7.51631e-65
8.13616e-65
7.05108e-65
7.67042e-65
7.90257e-65
6.58585e-65
7.05041e-65
5.73264e-65
)
;
    }
    procBoundary0to2
    {
        type            processor;
        value           nonuniform List<scalar> 
44
(
6.50465e-65
4.87833e-65
2.55485e-65
4.87852e-65
2.24596e-65
2.63382e-65
5.73414e-65
6.50765e-65
6.50465e-65
5.11232e-65
6.50465e-65
4.87833e-65
8.4382e-65
9.75529e-65
5.73111e-65
9.37237e-65
5.42399e-65
6.81725e-65
7.6671e-65
7.74299e-65
8.4382e-65
6.73553e-65
8.4382e-65
9.75529e-65
7.58863e-65
7.97742e-65
7.28352e-65
4.95777e-65
5.49802e-65
5.72917e-65
5.8832e-65
7.12161e-65
7.58863e-65
8.36107e-65
7.58863e-65
7.97742e-65
4.8038e-65
8.13307e-65
8.36307e-65
6.58059e-65
6.42461e-65
6.26961e-65
6.27034e-65
7.74312e-65
)
;
    }
    procBoundary0to4
    {
        type            processor;
        value           nonuniform List<scalar> 
36
(
5.19171e-65
7.36006e-65
7.51357e-65
5.57604e-65
5.96255e-65
5.65279e-65
7.58933e-65
6.73833e-65
8.90895e-65
7.74847e-65
6.35239e-65
7.27971e-65
8.51728e-65
8.20626e-65
7.50954e-65
6.34888e-65
5.42067e-65
9.06231e-65
6.97332e-65
8.75321e-65
6.4274e-65
8.51621e-65
6.96656e-65
5.96021e-65
6.11569e-65
9.67874e-65
5.65374e-65
4.33889e-65
5.7321e-65
7.5886e-65
5.18674e-65
7.3532e-65
6.03723e-65
9.52151e-65
5.96186e-65
5.96314e-65
)
;
    }
    procBoundary0to6
    {
        type            processor;
        value           uniform 6.73775e-65;
    }
    procBoundary0to7
    {
        type            processor;
        value           uniform 9.91583e-65;
    }
}


// ************************************************************************* //
