/*--------------------------------*- C++ -*----------------------------------*\
| =========                 |                                                 |
| \\      /  F ield         | OpenFOAM: The Open Source CFD Toolbox           |
|  \\    /   O peration     | Version:  4.x                                   |
|   \\  /    A nd           | Web:      www.OpenFOAM.org                      |
|    \\/     M anipulation  |                                                 |
\*---------------------------------------------------------------------------*/
FoamFile
{
    version     2.0;
    format      ascii;
    class       volScalarField;
    location    "26.5";
    object      QPartFluidCoeff;
}
// * * * * * * * * * * * * * * * * * * * * * * * * * * * * * * * * * * * * * //

dimensions      [1 -1 -3 -1 0 0 0];

internalField   nonuniform List<scalar> 
132
(
-3.50115e+07
-3.08057e+07
-2.21123e+07
-2.64286e+07
-3.68901e+07
-4.16045e+07
-2.67421e+07
-2.21291e+07
-2.15282e+07
-2.59789e+07
-3.84693e+07
-2.52597e+07
-2.7289e+07
-2.7783e+07
-2.31966e+07
-2.58537e+07
-2.58694e+07
-2.30453e+07
-1.74316e+07
-3.14456e+07
-2.29715e+07
-2.99304e+07
-2.74073e+07
-3.48704e+07
-2.83043e+07
-3.04531e+07
-2.28252e+07
-2.34555e+07
-2.51044e+07
-2.98922e+07
-2.00051e+07
-2.66351e+07
-2.70216e+07
-2.69459e+07
-2.36673e+07
-1.18762e+07
-2.20094e+07
-2.87454e+07
-2.32937e+07
-2.70588e+07
-2.91336e+07
-3.24435e+07
-2.00502e+07
-1.29229e+07
-3.39582e+07
-2.45669e+07
-2.95515e+07
-2.87415e+07
-2.76232e+07
-1.88405e+07
-3.02108e+07
-1.53372e+07
-2.00431e+07
-3.38928e+07
-2.52253e+07
-2.44369e+07
-2.74898e+07
-3.52512e+07
-3.20392e+07
-2.82582e+07
-2.1377e+07
-2.23969e+07
-2.89661e+07
-2.04804e+07
-2.71321e+07
-2.39953e+07
-2.28321e+07
-2.09666e+07
-2.99211e+07
-1.4374e+07
-1.61181e+07
-2.38081e+07
-2.63932e+07
-2.45954e+07
-1.41927e+07
-2.85983e+07
-3.05901e+07
-2.34183e+07
-2.1659e+07
-3.00593e+07
-2.92115e+07
-2.55019e+07
-3.54361e+07
-2.25172e+07
-2.72443e+07
-3.17074e+07
-2.87088e+07
-3.01592e+07
-3.10379e+07
-3.33862e+07
-3.00462e+07
-3.15995e+07
-2.34547e+07
-2.00892e+07
-2.45922e+07
-2.41265e+07
-2.74073e+07
-2.19766e+07
-2.34158e+07
-2.82084e+07
-2.87893e+07
-1.74914e+07
-1.82709e+07
-2.5399e+07
-1.52119e+07
-2.39189e+07
-2.31554e+07
-2.44489e+07
-2.84207e+07
-1.64278e+07
-1.59097e+07
-2.18171e+07
-2.44622e+07
-1.36689e+07
-2.08554e+07
-2.25694e+07
-2.08436e+07
-2.58494e+07
-2.40405e+07
-2.37851e+07
-2.50359e+07
-2.56062e+07
-1.98839e+07
-2.02349e+07
-2.76704e+07
-1.96356e+07
-2.40515e+07
-2.46001e+07
-2.36604e+07
-2.21917e+07
-2.42689e+07
-1.25417e+07
)
;

boundaryField
{
    inlet
    {
        type            calculated;
        value           nonuniform 0();
    }
    outlet
    {
        type            calculated;
        value           uniform 0;
    }
    wall
    {
        type            calculated;
        value           uniform 0;
    }
    procBoundary7to0
    {
        type            processor;
        value           uniform 198.334;
    }
    procBoundary7to1
    {
        type            processor;
        value           uniform 452.818;
    }
    procBoundary7to3
    {
        type            processor;
        value           nonuniform List<scalar> 
36
(
614.074
780.744
671.366
750.413
486.085
574.107
681.591
640.942
530.657
745.917
469.88
621.948
378.558
332.629
716.252
579.158
839.283
389.381
457.781
783.825
695.179
545.996
549.824
741.752
599.68
689.977
351.982
658.039
369.459
439.072
531.899
488.322
653.211
485.679
717.759
570.553
)
;
    }
    procBoundary7to5
    {
        type            processor;
        value           nonuniform List<scalar> 
44
(
759.372
467.174
661.446
443.06
402.281
563.157
474.347
520.472
795.306
388.592
556.502
687.385
473.608
632.307
557.011
604.95
340.218
795.306
388.592
388.592
710.132
746.326
871.212
707.353
697.931
837.772
629.274
397.809
885.336
710.132
746.326
746.326
754.343
626.558
523.071
610.094
474.443
529.636
485.057
538.819
499.936
754.343
626.558
626.558
)
;
    }
    procBoundary7to6
    {
        type            processor;
        value           nonuniform List<scalar> 
12
(
620.092
676.112
424.674
761.251
711.546
664.602
725.378
755.257
521.509
342.271
639.478
543.808
)
;
    }
}


// ************************************************************************* //
