/*--------------------------------*- C++ -*----------------------------------*\
| =========                 |                                                 |
| \\      /  F ield         | OpenFOAM: The Open Source CFD Toolbox           |
|  \\    /   O peration     | Version:  4.x                                   |
|   \\  /    A nd           | Web:      www.OpenFOAM.org                      |
|    \\/     M anipulation  |                                                 |
\*---------------------------------------------------------------------------*/
FoamFile
{
    version     2.0;
    format      ascii;
    class       volScalarField;
    location    "10";
    object      Cs;
}
// * * * * * * * * * * * * * * * * * * * * * * * * * * * * * * * * * * * * * //

dimensions      [1 -3 0 0 0 0 0];

internalField   nonuniform List<scalar> 
132
(
334.918
334.954
334.995
335.039
335.081
335.115
335.124
335.113
335.083
334.942
334.976
335.014
335.054
335.09
335.122
335.142
335.152
335.198
334.924
334.957
335
335.035
335.078
335.094
335.125
335.117
335.205
334.862
334.836
334.822
334.813
334.828
334.84
334.891
334.91
335.318
335.051
335.093
335.129
335.126
335.086
335.056
335.051
334.992
335.028
335.066
335.097
335.128
335.145
335.147
335.129
335.17
334.967
334.997
335.033
335.06
335.099
335.107
335.125
335.109
335.157
334.906
334.89
334.886
334.882
334.897
334.908
334.937
334.958
335.169
335.097
335.117
335.141
335.132
335.23
334.967
334.989
335.016
335.04
335.071
335.095
335.123
335.127
335.193
334.969
334.995
335.019
335.032
335.048
335.047
335.061
335.051
335.181
334.932
334.922
334.917
334.914
334.92
334.924
334.942
334.949
335.52
334.975
334.993
335.62
334.925
334.922
334.929
334.948
334.979
335.01
335.04
335.055
335.223
334.932
334.925
334.921
334.921
334.926
334.935
334.953
334.965
335.096
334.934
334.924
334.918
334.913
334.912
334.912
334.917
334.921
334.99
)
;

boundaryField
{
    inlet
    {
        type            calculated;
        value           nonuniform 0();
    }
    outlet
    {
        type            calculated;
        value           uniform 335;
    }
    wall
    {
        type            calculated;
        value           nonuniform List<scalar> 
66
(
334.925
334.932
334.934
334.922
334.925
334.924
334.929
334.921
334.918
334.948
334.921
334.913
334.979
334.926
334.912
335.01
334.935
334.912
334.975
335.04
334.953
334.917
334.993
335.055
334.965
334.921
335.62
335.223
335.096
334.99
334.862
334.906
334.932
334.934
334.836
334.89
334.922
334.924
334.822
334.886
334.917
334.918
334.813
334.882
334.914
334.913
334.828
334.897
334.92
334.912
334.84
334.908
334.924
334.912
334.891
334.937
334.942
334.917
334.91
334.958
334.949
334.921
335.318
335.169
335.52
334.99
)
;
    }
    procBoundary7to0
    {
        type            processor;
        value           uniform 334.895;
    }
    procBoundary7to1
    {
        type            processor;
        value           uniform 334.945;
    }
    procBoundary7to3
    {
        type            processor;
        value           nonuniform List<scalar> 
36
(
334.883
334.933
334.985
335.038
335.086
335.131
335.16
335.178
335.195
334.882
334.929
334.983
335.037
335.086
335.13
335.162
335.182
335.274
334.856
334.905
334.972
335.027
335.082
335.103
335.139
335.13
335.558
334.777
334.745
334.73
334.724
334.745
334.77
334.826
334.862
335.652
)
;
    }
    procBoundary7to5
    {
        type            processor;
        value           nonuniform List<scalar> 
44
(
334.987
335.034
335.082
335.125
335.158
335.175
335.175
335.219
334.971
335.01
335.061
335.097
335.132
335.149
335.155
335.136
335.184
334.971
335.01
335.01
335.031
335.061
335.068
335.08
335.109
335.102
335.208
334.959
334.99
335.031
335.061
335.061
334.941
334.953
334.952
334.966
335.264
334.929
334.926
334.927
334.931
334.941
334.953
334.953
)
;
    }
    procBoundary7to6
    {
        type            processor;
        value           nonuniform List<scalar> 
12
(
334.918
334.902
334.889
334.958
334.944
334.922
334.949
334.95
334.942
334.934
334.942
334.945
)
;
    }
}


// ************************************************************************* //
