/*--------------------------------*- C++ -*----------------------------------*\
| =========                 |                                                 |
| \\      /  F ield         | OpenFOAM: The Open Source CFD Toolbox           |
|  \\    /   O peration     | Version:  4.x                                   |
|   \\  /    A nd           | Web:      www.OpenFOAM.org                      |
|    \\/     M anipulation  |                                                 |
\*---------------------------------------------------------------------------*/
FoamFile
{
    version     2.0;
    format      ascii;
    class       volScalarField;
    location    "10";
    object      KslPrev;
}
// * * * * * * * * * * * * * * * * * * * * * * * * * * * * * * * * * * * * * //

dimensions      [1 -3 -1 0 0 0 0];

internalField   nonuniform List<scalar> 
132
(
19325.4
3862.55
18858.6
3988.01
22553.3
4366.81
28763.9
5550.99
18670.8
19345
3685.71
17543.9
3576.87
15584.1
3528.02
11972.1
3606.12
7609.91
17406.5
3677.2
15201.4
3521.05
12674.9
3424.44
9297.42
3346.6
3749.75
5692.17
2996.56
5317.66
2753.84
5249.6
2470.09
5615.72
1958.81
3698.04
1e+10
4492.9
1e+10
4861.22
1e+10
5610.97
15812.8
130534
4067.58
90447.3
4116.46
48078
4289.25
21823.6
4800.37
10845.8
63427.1
4035.63
98634.5
4058.51
137794
4276.75
64828.8
4863.61
20707.8
6866.1
3319.03
6894.85
3235.27
7258.58
3201.1
8257.73
3371.7
8925.08
1e+10
4641.17
1e+10
5315.42
18904
26746.5
3799.44
37201.8
3691.75
54212.3
3642.41
63930.8
3965.57
21187.7
19071.4
3808.72
19984.5
3692.49
18968.5
3551.13
13062.4
3523.82
4815.41
5493.1
3010.3
5221.34
2840.05
5177.62
2541.77
5377.27
1950.1
5272.47
8329.93
3881.64
8151.21
8678.22
3489.22
10973.5
3617.24
18922.3
3886.37
47642.5
4579.51
17267.4
5950.64
3208.92
6147.85
3285.54
7087.65
3388.21
8615.06
3817.09
8847.65
5034.42
2958.58
4820.16
2883.59
4665.03
2680.27
4377.34
2470.16
3605.96
)
;

boundaryField
{
    inlet
    {
        type            zeroGradient;
    }
    outlet
    {
        type            zeroGradient;
    }
    wall
    {
        type            zeroGradient;
    }
    procBoundary7to0
    {
        type            processor;
        value           uniform 0;
    }
    procBoundary7to1
    {
        type            processor;
        value           uniform 0;
    }
    procBoundary7to3
    {
        type            processor;
        value           uniform 0;
    }
    procBoundary7to5
    {
        type            processor;
        value           uniform 0;
    }
    procBoundary7to6
    {
        type            processor;
        value           uniform 0;
    }
}


// ************************************************************************* //
