/*--------------------------------*- C++ -*----------------------------------*\
| =========                 |                                                 |
| \\      /  F ield         | OpenFOAM: The Open Source CFD Toolbox           |
|  \\    /   O peration     | Version:  4.x                                   |
|   \\  /    A nd           | Web:      www.OpenFOAM.org                      |
|    \\/     M anipulation  |                                                 |
\*---------------------------------------------------------------------------*/
FoamFile
{
    version     2.0;
    format      ascii;
    class       volScalarField;
    location    "10";
    object      nu;
}
// * * * * * * * * * * * * * * * * * * * * * * * * * * * * * * * * * * * * * //

dimensions      [0 2 -1 0 0 0 0];

internalField   nonuniform List<scalar> 
132
(
1.00024e-06
1.00014e-06
1.00002e-06
9.99883e-07
9.99759e-07
9.99658e-07
9.9963e-07
9.99663e-07
9.99753e-07
1.00017e-06
1.00007e-06
9.99957e-07
9.9984e-07
9.99731e-07
9.99636e-07
9.99578e-07
9.99545e-07
9.99408e-07
1.00023e-06
1.00013e-06
1e-06
9.99897e-07
9.99769e-07
9.99719e-07
9.99627e-07
9.99652e-07
9.99388e-07
1.00041e-06
1.00049e-06
1.00053e-06
1.00056e-06
1.00051e-06
1.00048e-06
1.00032e-06
1.00027e-06
9.99053e-07
9.99849e-07
9.99722e-07
9.99616e-07
9.99625e-07
9.99743e-07
9.99832e-07
9.99849e-07
1.00002e-06
9.99915e-07
9.99802e-07
9.99711e-07
9.99619e-07
9.99567e-07
9.99562e-07
9.99616e-07
9.99493e-07
1.0001e-06
1.00001e-06
9.99902e-07
9.99822e-07
9.99706e-07
9.99679e-07
9.99627e-07
9.99676e-07
9.99532e-07
1.00028e-06
1.00033e-06
1.00034e-06
1.00035e-06
1.00031e-06
1.00027e-06
1.00019e-06
1.00013e-06
9.99497e-07
9.9971e-07
9.99652e-07
9.9958e-07
9.99607e-07
9.99314e-07
1.0001e-06
1.00003e-06
9.99951e-07
9.99881e-07
9.99789e-07
9.99717e-07
9.99634e-07
9.99621e-07
9.99425e-07
1.00009e-06
1.00001e-06
9.99943e-07
9.99905e-07
9.99858e-07
9.99859e-07
9.99819e-07
9.99849e-07
9.99459e-07
1.0002e-06
1.00023e-06
1.00025e-06
1.00026e-06
1.00024e-06
1.00023e-06
1.00017e-06
1.00015e-06
9.9845e-07
1.00007e-06
1.00002e-06
9.98154e-07
1.00022e-06
1.00023e-06
1.00021e-06
1.00015e-06
1.00006e-06
9.9997e-07
9.99879e-07
9.99835e-07
9.99334e-07
1.0002e-06
1.00022e-06
1.00024e-06
1.00024e-06
1.00022e-06
1.0002e-06
1.00014e-06
1.0001e-06
9.99712e-07
1.0002e-06
1.00023e-06
1.00025e-06
1.00026e-06
1.00026e-06
1.00026e-06
1.00025e-06
1.00023e-06
1.00003e-06
)
;

boundaryField
{
    inlet
    {
        type            calculated;
        value           nonuniform 0();
    }
    outlet
    {
        type            calculated;
        value           uniform 1e-06;
    }
    wall
    {
        type            calculated;
        value           nonuniform List<scalar> 
66
(
1.00022e-06
1.0002e-06
1.0002e-06
1.00023e-06
1.00022e-06
1.00023e-06
1.00021e-06
1.00024e-06
1.00025e-06
1.00015e-06
1.00024e-06
1.00026e-06
1.00006e-06
1.00022e-06
1.00026e-06
9.9997e-07
1.0002e-06
1.00026e-06
1.00007e-06
9.99879e-07
1.00014e-06
1.00025e-06
1.00002e-06
9.99835e-07
1.0001e-06
1.00023e-06
9.98154e-07
9.99334e-07
9.99712e-07
1.00003e-06
1.00041e-06
1.00028e-06
1.0002e-06
1.0002e-06
1.00049e-06
1.00033e-06
1.00023e-06
1.00023e-06
1.00053e-06
1.00034e-06
1.00025e-06
1.00025e-06
1.00056e-06
1.00035e-06
1.00026e-06
1.00026e-06
1.00051e-06
1.00031e-06
1.00024e-06
1.00026e-06
1.00048e-06
1.00027e-06
1.00023e-06
1.00026e-06
1.00032e-06
1.00019e-06
1.00017e-06
1.00025e-06
1.00027e-06
1.00013e-06
1.00015e-06
1.00023e-06
9.99053e-07
9.99497e-07
9.9845e-07
1.00003e-06
)
;
    }
    procBoundary7to0
    {
        type            processor;
        value           uniform 1.00031e-06;
    }
    procBoundary7to1
    {
        type            processor;
        value           uniform 1.00016e-06;
    }
    procBoundary7to3
    {
        type            processor;
        value           nonuniform List<scalar> 
36
(
1.00035e-06
1.0002e-06
1.00005e-06
9.99887e-07
9.99743e-07
9.99611e-07
9.99524e-07
9.99468e-07
9.99417e-07
1.00035e-06
1.00021e-06
1.00005e-06
9.9989e-07
9.99742e-07
9.99613e-07
9.99516e-07
9.99458e-07
9.99183e-07
1.00043e-06
1.00028e-06
1.00008e-06
9.99919e-07
9.99757e-07
9.99694e-07
9.99585e-07
9.99611e-07
9.98337e-07
1.00067e-06
1.00076e-06
1.00081e-06
1.00083e-06
1.00076e-06
1.00069e-06
1.00052e-06
1.00041e-06
9.98059e-07
)
;
    }
    procBoundary7to5
    {
        type            processor;
        value           nonuniform List<scalar> 
44
(
1.00004e-06
9.99898e-07
9.99754e-07
9.99626e-07
9.99529e-07
9.99477e-07
9.99478e-07
9.99347e-07
1.00009e-06
9.99971e-07
9.99818e-07
9.9971e-07
9.99607e-07
9.99556e-07
9.99538e-07
9.99593e-07
9.99452e-07
1.00009e-06
9.99971e-07
9.99971e-07
9.99906e-07
9.99819e-07
9.99796e-07
9.9976e-07
9.99675e-07
9.99695e-07
9.99378e-07
1.00012e-06
1.00003e-06
9.99906e-07
9.99819e-07
9.99819e-07
1.00018e-06
1.00014e-06
1.00014e-06
1.0001e-06
9.99212e-07
1.00021e-06
1.00022e-06
1.00022e-06
1.00021e-06
1.00018e-06
1.00014e-06
1.00014e-06
)
;
    }
    procBoundary7to6
    {
        type            processor;
        value           nonuniform List<scalar> 
12
(
1.00025e-06
1.00029e-06
1.00033e-06
1.00013e-06
1.00017e-06
1.00023e-06
1.00015e-06
1.00015e-06
1.00017e-06
1.0002e-06
1.00017e-06
1.00017e-06
)
;
    }
}


// ************************************************************************* //
