/*--------------------------------*- C++ -*----------------------------------*\
| =========                 |                                                 |
| \\      /  F ield         | OpenFOAM: The Open Source CFD Toolbox           |
|  \\    /   O peration     | Version:  4.x                                   |
|   \\  /    A nd           | Web:      www.OpenFOAM.org                      |
|    \\/     M anipulation  |                                                 |
\*---------------------------------------------------------------------------*/
FoamFile
{
    version     2.0;
    format      ascii;
    class       volVectorField;
    location    "10";
    object      Us;
}
// * * * * * * * * * * * * * * * * * * * * * * * * * * * * * * * * * * * * * //

dimensions      [0 1 -1 0 0 0 0];

internalField   nonuniform List<vector> 
132
(
(-7.23821e-08 -7.30053e-09 3.43029e-08)
(-6.75428e-08 -5.76064e-09 4.25579e-08)
(-5.51414e-08 -1.54476e-09 4.55414e-08)
(-4.66673e-08 7.63211e-11 2.3732e-08)
(-3.50408e-08 1.66821e-09 1.45379e-08)
(-2.10534e-08 2.399e-09 7.54097e-09)
(-1.48255e-08 1.19312e-10 5.32629e-09)
(-6.3334e-09 1.68432e-09 7.13108e-09)
(5.72571e-10 3.40227e-09 9.39287e-09)
(-7.31987e-08 -3.20578e-09 3.36059e-08)
(-6.89361e-08 -2.11116e-09 4.34504e-08)
(-6.11907e-08 -5.19746e-09 3.78712e-08)
(-5.12486e-08 -1.64792e-09 2.52884e-08)
(-3.14433e-08 -3.13418e-10 6.47015e-09)
(-2.18766e-08 -1.98435e-09 4.55806e-09)
(-1.79644e-08 -1.25072e-09 4.56154e-09)
(-1.29234e-08 -3.92593e-09 1.5854e-08)
(-7.13274e-09 3.31411e-09 1.78136e-08)
(-7.61997e-08 -3.31286e-09 1.8816e-08)
(-7.17294e-08 -4.37352e-10 3.41104e-08)
(-6.29183e-08 -7.80097e-10 2.93458e-08)
(-5.43202e-08 -2.27332e-09 1.77364e-08)
(-3.56841e-08 -2.72936e-09 6.98901e-09)
(-2.59892e-08 -1.92403e-09 7.40163e-09)
(-2.17302e-08 -2.92541e-09 8.07881e-09)
(-1.71915e-08 -9.18968e-09 2.10102e-08)
(-1.98489e-08 -1.17256e-08 1.61706e-08)
(-6.41642e-08 2.31421e-09 3.64078e-09)
(-5.46726e-08 1.03218e-09 7.69536e-09)
(-4.14179e-08 -3.77611e-09 1.61002e-08)
(-4.00775e-08 -3.1359e-09 1.10643e-08)
(-3.0728e-08 -2.33425e-09 8.32608e-09)
(-2.36498e-08 1.15393e-09 7.59234e-09)
(-1.61259e-08 -4.30669e-09 8.23316e-09)
(-1.55123e-08 -2.00244e-09 1.57604e-08)
(-1.41885e-08 -8.67522e-09 5.77459e-09)
(-5.81087e-08 -7.73491e-09 2.81362e-08)
(-4.68752e-08 -3.1241e-09 1.96444e-08)
(-2.9222e-08 -8.46023e-10 7.86181e-09)
(-1.88694e-08 -2.01448e-09 4.25188e-09)
(-1.13771e-08 -1.12038e-09 1.18994e-09)
(-4.11909e-09 5.06248e-10 3.53583e-10)
(-3.28724e-10 -8.54963e-10 -1.24496e-09)
(-7.55425e-08 -5.61395e-10 2.42741e-08)
(-7.20553e-08 -1.27965e-09 2.77116e-08)
(-6.20279e-08 -1.42568e-09 2.70718e-08)
(-5.44129e-08 -4.24039e-10 1.63889e-08)
(-3.88809e-08 -1.5789e-09 1.81457e-09)
(-1.93857e-08 -2.86707e-09 4.16243e-09)
(-1.1873e-08 -8.61831e-10 1.54167e-09)
(-5.4872e-09 -4.40157e-09 3.48367e-09)
(-6.77365e-10 -2.45815e-09 1.87619e-09)
(-7.59828e-08 -8.88286e-10 1.86323e-08)
(-7.29185e-08 7.60805e-09 2.39952e-08)
(-6.72465e-08 1.29499e-09 1.98775e-08)
(-5.67049e-08 3.52048e-09 1.41922e-08)
(-4.07486e-08 -1.63377e-09 3.75919e-09)
(-2.44084e-08 -4.26994e-09 4.37794e-09)
(-1.99897e-08 -2.41086e-09 7.35695e-09)
(-9.40631e-09 -3.96768e-09 7.63803e-09)
(-3.42174e-08 -1.99555e-08 3.10977e-09)
(-6.88541e-08 -3.95817e-09 9.64377e-09)
(-6.73942e-08 4.22151e-09 4.85663e-09)
(-6.19223e-08 -3.34536e-09 1.05052e-08)
(-4.61636e-08 2.41471e-09 9.79706e-09)
(-3.23768e-08 -3.20905e-09 6.38123e-09)
(-2.22662e-08 -2.21889e-09 2.47069e-09)
(-1.77436e-08 -2.08896e-09 6.77488e-09)
(-9.49704e-09 3.61059e-10 7.22498e-09)
(-1.49963e-08 -9.88966e-09 1.14033e-09)
(-2.77553e-08 -4.3642e-09 3.74937e-09)
(-1.88729e-08 -4.12726e-09 4.8631e-11)
(-1.06524e-08 -2.48044e-09 -2.96446e-09)
(-5.63519e-09 -2.15474e-09 -6.29614e-09)
(-1.83824e-09 -2.01419e-09 -7.61644e-09)
(-6.59268e-08 -3.36188e-09 1.387e-08)
(-6.7883e-08 -4.1934e-10 2.2405e-08)
(-5.91158e-08 4.96113e-09 2.51532e-08)
(-3.90316e-08 -5.72015e-10 1.08349e-08)
(-2.88207e-08 -3.66626e-09 9.78241e-10)
(-1.67129e-08 -3.14809e-09 8.76621e-10)
(-9.97557e-09 -1.00835e-09 -1.28805e-09)
(-5.46241e-09 -1.7617e-09 -2.21878e-09)
(-1.84903e-09 -2.77959e-09 -2.60151e-09)
(-6.57353e-08 -1.79232e-09 1.38981e-08)
(-5.80027e-08 5.08085e-09 9.73046e-09)
(-5.50046e-08 1.06617e-09 2.25861e-08)
(-4.54561e-08 3.15474e-09 7.33809e-09)
(-2.87767e-08 -2.31183e-09 7.19202e-10)
(-1.99167e-08 -2.21196e-09 2.24898e-09)
(-9.88167e-09 3.86558e-10 2.95982e-09)
(-3.99245e-09 -6.06943e-10 -1.04673e-09)
(-9.2499e-10 -2.64976e-09 -1.51117e-09)
(-4.37281e-08 -4.72476e-10 9.24511e-09)
(-4.98384e-08 -2.80042e-09 2.11858e-09)
(-5.43453e-08 2.83363e-09 6.81059e-09)
(-4.57357e-08 -6.55193e-10 3.72059e-09)
(-2.40139e-08 -3.61072e-10 1.40622e-09)
(-2.01429e-08 5.92285e-10 -7.70369e-10)
(-9.42886e-09 -2.05416e-09 3.40964e-09)
(-3.5244e-09 3.44978e-10 1.64233e-09)
(-9.56508e-10 -2.06093e-09 -2.79525e-10)
(-9.95511e-09 -4.12058e-09 -4.58173e-09)
(-1.0023e-08 -2.00256e-09 -5.35963e-09)
(5.87106e-09 -6.78181e-10 -1.54623e-08)
(-4.20781e-08 -5.81425e-09 8.55115e-09)
(-4.15675e-08 -1.06528e-08 6.64846e-09)
(-3.47317e-08 -4.30846e-09 5.96252e-09)
(-2.31274e-08 -2.84413e-09 1.52698e-09)
(-1.58423e-08 -2.21513e-09 -8.40383e-10)
(-1.28162e-08 -2.05339e-09 -3.22235e-10)
(-6.72282e-09 -1.02187e-09 -4.27653e-09)
(-6.19367e-09 3.47012e-10 -2.91643e-09)
(1.15403e-09 2.82533e-09 -4.77939e-09)
(-2.76686e-08 -7.07863e-09 4.65775e-09)
(-2.79374e-08 -7.8309e-09 3.01216e-09)
(-3.20294e-08 -5.76501e-09 6.23046e-09)
(-2.5022e-08 5.90125e-10 1.0879e-09)
(-1.65365e-08 -3.08332e-10 -4.5132e-10)
(-9.37954e-09 3.94464e-10 2.51527e-10)
(-4.10891e-09 5.57743e-10 -9.26108e-10)
(-1.79739e-09 9.59404e-11 -1.2312e-09)
(1.89284e-09 -2.38135e-09 -2.60719e-09)
(-1.94401e-08 3.50191e-09 3.14605e-09)
(-2.14673e-08 -1.15565e-09 6.51436e-10)
(-2.7379e-08 5.55806e-10 2.44609e-09)
(-2.51027e-08 2.51625e-09 2.03301e-09)
(-1.99337e-08 3.21461e-09 7.93358e-10)
(-9.1433e-09 -2.24765e-10 -1.72985e-09)
(-4.44186e-09 5.61048e-11 6.26529e-10)
(-5.32483e-09 -2.54182e-10 -5.82005e-11)
(1.26665e-08 -1.54384e-08 -5.43944e-09)
)
;

boundaryField
{
    inlet
    {
        type            zeroGradient;
    }
    outlet
    {
        type            zeroGradient;
    }
    wall
    {
        type            zeroGradient;
    }
    procBoundary7to0
    {
        type            processor;
        value           uniform (-6.96958e-08 -7.38895e-09 2.38352e-08);
    }
    procBoundary7to1
    {
        type            processor;
        value           uniform (-7.61293e-08 -8.98096e-09 2.41434e-08);
    }
    procBoundary7to3
    {
        type            processor;
        value           nonuniform List<vector> 
36
(
(-5.40738e-08 -7.30897e-09 4.7348e-08)
(-4.34273e-08 -9.15808e-09 5.82441e-08)
(-3.64745e-08 -5.59075e-09 6.13311e-08)
(-3.12939e-08 -8.73506e-09 3.21043e-08)
(-2.72241e-08 -1.15641e-09 1.15743e-08)
(-2.09915e-08 1.90381e-09 -1.64533e-10)
(-1.74446e-08 1.40761e-09 3.30794e-09)
(-1.54812e-08 1.66777e-09 2.3509e-08)
(-4.93153e-09 -9.71814e-09 3.65357e-08)
(-5.67189e-08 -6.96499e-09 4.43845e-08)
(-4.38636e-08 -8.99578e-09 5.88445e-08)
(-6.61679e-08 -1.37692e-08 5.22383e-08)
(-2.98518e-08 -5.97142e-09 3.06784e-08)
(-2.07951e-08 -2.4668e-09 1.24972e-08)
(-2.26397e-08 1.5494e-09 2.91495e-10)
(-1.56479e-08 1.64158e-09 7.23381e-09)
(-1.02e-08 3.74713e-09 2.11055e-08)
(3.09236e-09 1.00856e-09 4.98407e-08)
(-5.4738e-08 -3.03338e-09 3.01967e-08)
(-4.46453e-08 -5.35647e-09 4.15838e-08)
(-4.84916e-08 -1.40254e-09 4.23864e-08)
(-3.98649e-08 -6.01387e-09 2.68896e-08)
(-2.10518e-08 -1.31183e-09 8.8107e-09)
(-2.14262e-08 1.1468e-09 6.85277e-09)
(-1.41221e-08 4.51946e-09 6.31853e-09)
(-1.77658e-08 -4.56961e-09 3.44434e-08)
(-9.10678e-09 1.2804e-08 4.96838e-08)
(-4.02276e-08 6.48309e-09 1.27802e-08)
(-3.62638e-08 -3.74833e-09 1.05926e-08)
(-2.55496e-08 -5.48573e-09 2.30771e-08)
(-2.85068e-08 -5.43044e-09 1.33934e-08)
(-2.04667e-08 -1.66468e-09 1.20089e-08)
(-1.59669e-08 2.63778e-09 1.42996e-08)
(-7.2078e-09 -1.20999e-11 4.22839e-09)
(-7.82876e-09 2.66355e-09 3.60048e-08)
(-5.79132e-09 2.18116e-08 6.72791e-08)
)
;
    }
    procBoundary7to5
    {
        type            processor;
        value           nonuniform List<vector> 
44
(
(-6.30197e-08 -5.97139e-09 3.98553e-08)
(-5.50122e-08 -7.22486e-10 3.59728e-08)
(-4.31421e-08 1.57214e-09 2.68754e-08)
(-3.66145e-08 5.69057e-10 1.38483e-08)
(-2.70416e-08 1.62725e-09 6.51241e-09)
(-1.7891e-08 -2.29804e-10 5.17141e-09)
(-1.04665e-08 3.50656e-09 1.10628e-08)
(-3.4238e-09 5.65741e-09 7.97154e-09)
(-7.95104e-08 -7.04272e-09 2.19265e-08)
(-7.28812e-08 -5.78531e-09 2.92275e-08)
(-5.7246e-08 -1.03823e-08 2.88606e-08)
(-4.50226e-08 -2.09783e-09 2.11395e-08)
(-3.26368e-08 -1.8918e-09 1.00946e-08)
(-2.30282e-08 -1.80532e-09 5.01866e-09)
(-1.51362e-08 1.15889e-09 3.28947e-09)
(-6.49262e-09 2.83051e-09 9.6274e-10)
(-1.12078e-09 1.42511e-09 3.81389e-10)
(-7.95104e-08 -7.04272e-09 2.19265e-08)
(-7.28812e-08 -5.78531e-09 2.92275e-08)
(-7.28812e-08 -5.78531e-09 2.92275e-08)
(-5.64341e-08 -8.60259e-09 1.30282e-08)
(-4.11403e-08 -7.2847e-09 1.2249e-08)
(-2.71624e-08 -4.89594e-09 6.9894e-09)
(-1.85439e-08 -4.78948e-09 2.34974e-09)
(-7.49783e-09 -2.58512e-09 -1.05245e-10)
(-2.43852e-09 -1.05552e-09 -2.55312e-09)
(-1.23145e-09 -2.2901e-09 -4.14296e-09)
(-7.4036e-08 -3.42142e-09 3.65656e-09)
(-6.77599e-08 -6.59945e-09 1.15397e-08)
(-5.64341e-08 -8.60259e-09 1.30282e-08)
(-4.11403e-08 -7.2847e-09 1.2249e-08)
(-4.11403e-08 -7.2847e-09 1.2249e-08)
(-1.84323e-08 -5.05278e-09 2.16525e-09)
(-1.22746e-08 -4.90348e-09 -2.51405e-09)
(-6.00914e-09 -3.17569e-09 -1.29982e-09)
(-2.17388e-09 -3.42484e-09 -2.58965e-09)
(1.15016e-09 -6.50908e-09 -4.96042e-09)
(-4.81658e-08 -7.97973e-09 3.92377e-09)
(-4.21919e-08 -1.12748e-08 3.55377e-09)
(-5.31501e-08 -1.15862e-08 2.90626e-09)
(-2.76832e-08 -1.19192e-09 5.74887e-09)
(-1.84323e-08 -5.05278e-09 2.16525e-09)
(-1.22746e-08 -4.90348e-09 -2.51405e-09)
(-1.22746e-08 -4.90348e-09 -2.51405e-09)
)
;
    }
    procBoundary7to6
    {
        type            processor;
        value           nonuniform List<vector> 
12
(
(-6.99462e-08 -3.5583e-09 1.7755e-08)
(-6.67678e-08 -1.72623e-09 1.29014e-08)
(-2.59353e-08 -1.1453e-11 2.47479e-09)
(-7.47001e-08 -2.75067e-09 1.5523e-08)
(-7.1153e-08 7.99307e-10 1.14274e-08)
(-5.08841e-08 2.08306e-09 1.73539e-09)
(-6.64469e-08 -3.8306e-09 1.01779e-08)
(-6.8108e-08 -3.15993e-09 1.37967e-08)
(-4.48138e-08 -9.97668e-10 1.35645e-08)
(-5.37239e-08 -1.05806e-08 -3.76453e-09)
(-4.47932e-08 -3.06632e-09 7.11704e-09)
(-2.32912e-08 -4.5848e-09 1.01056e-08)
)
;
    }
}


// ************************************************************************* //
