/*--------------------------------*- C++ -*----------------------------------*\
| =========                 |                                                 |
| \\      /  F ield         | OpenFOAM: The Open Source CFD Toolbox           |
|  \\    /   O peration     | Version:  4.x                                   |
|   \\  /    A nd           | Web:      www.OpenFOAM.org                      |
|    \\/     M anipulation  |                                                 |
\*---------------------------------------------------------------------------*/
FoamFile
{
    version     2.0;
    format      ascii;
    class       volScalarField;
    location    "21";
    object      KslNext;
}
// * * * * * * * * * * * * * * * * * * * * * * * * * * * * * * * * * * * * * //

dimensions      [1 -3 -1 0 0 0 0];

internalField   nonuniform List<scalar> 
132
(
116264
3946.33
1e+10
4003.07
1e+10
4035.12
1e+10
4072.95
31394.2
23766.5
3681.42
28318.2
3591.74
32410.5
3570.93
28874.2
3744.62
14967.5
14865.5
3611.08
15622.6
3505.1
15514.4
3483.62
11698.7
3557.56
4923.03
6217.87
3036.43
6098.63
2832.28
6092.76
2567.36
6241.49
2096.79
5463.21
1e+10
3839.06
1e+10
3726.69
66097.9
3456.55
18263.3
1e+10
4160.59
1e+10
4174.66
1e+10
4204.81
31945.2
4206.59
7987.87
72753.4
3986.98
1e+10
4091.05
1e+10
4374.25
1e+10
5136.02
39403
8419.68
3443.77
9499.24
3487.01
11077.4
3625.89
12872.5
4070.6
12435.8
1e+10
4158.91
1e+10
4745.1
13811.5
34688.8
3726.38
58039.5
3628.18
78282.5
3577.52
59754
3768.19
20564.2
14438
3632.85
14959.6
3530.13
13277.6
3414.69
9545.75
3308.52
4371.76
6075
3053.42
5829.89
2880.46
5683.13
2556.95
5576.14
1897.33
4796.22
8490.12
3667.82
7454.91
9420.46
3434.79
10403.7
3458.71
11570.1
3588.19
13362.8
4086.94
11603.5
6610.44
3236.75
6639.15
3271.28
6890.84
3298.1
6987.84
3533.96
6756.81
4763
2886.5
4807.38
2890.34
4916.01
2787.06
4593.42
2635.36
3562.51
)
;

boundaryField
{
    inlet
    {
        type            zeroGradient;
    }
    outlet
    {
        type            zeroGradient;
    }
    wall
    {
        type            zeroGradient;
    }
    procBoundary7to0
    {
        type            processor;
        value           uniform 0;
    }
    procBoundary7to1
    {
        type            processor;
        value           uniform 0;
    }
    procBoundary7to3
    {
        type            processor;
        value           uniform 0;
    }
    procBoundary7to5
    {
        type            processor;
        value           uniform 0;
    }
    procBoundary7to6
    {
        type            processor;
        value           uniform 0;
    }
}


// ************************************************************************* //
