/*--------------------------------*- C++ -*----------------------------------*\
  =========                 |
  \\      /  F ield         | OpenFOAM: The Open Source CFD Toolbox
   \\    /   O peration     | Website:  https://openfoam.org
    \\  /    A nd           | Version:  4.x
     \\/     M anipulation  |
\*---------------------------------------------------------------------------*/
FoamFile
{
    version     2.0;
    format      ascii;
    class       Cloud<passiveParticle>;
    location    0;
    object      positions;
}
// * * * * * * * * * * * * * * * * * * * * * * * * * * * * * * * * * * * * * //

354
(
( 0.0733008 -0.0589843 -0.0634669 ) 41
( 0.0862932 -0.0205451 -0.0290802 ) 83
( 0.0504196 -0.0384036 -0.067101 ) 49
( 0.177506 -0.0799754 -0.0518167 ) 36
( 0.0525098 -0.0752056 -0.0489212 ) 31
( 0.193391 -0.0267977 -0.0537211 ) 54
( 0.145657 -0.0831961 -0.0260772 ) 67
( 0.0554358 -0.0673935 -0.0310029 ) 72
( 0.053668 -0.0265171 -0.0263516 ) 81
( 0.00981363 -0.0395099 -0.0345332 ) 80
( 0.218142 -0.089871 -0.0609772 ) 37
( 0.203608 -0.0501186 -0.042394 ) 78
( 0.212446 -0.02558 -0.0484215 ) 55
( 0.0792228 -0.0210767 -0.0557482 ) 50
( 0.176784 -0.071483 -0.0698128 ) 36
( 0.18676 -0.0423425 -0.0351279 ) 86
( 0.194637 -0.0148306 -0.0695962 ) 55
( 0.109472 -0.0279605 -0.0582387 ) 51
( 0.226496 -0.0496769 -0.0706163 ) 47
( 0.242335 -0.0205274 -0.0591714 ) 56
( 0.242574 -0.0704677 -0.0256246 ) 79
( 0.074506 -0.0366737 -0.0288971 ) 82
( 0.137762 -0.0447331 -0.0393938 ) 75
( 0.204866 -0.0531429 -0.0637438 ) 46
( 0.0959528 -0.0517315 -0.0334165 ) 74
( 0.0621184 -0.0407944 -0.043681 ) 50
( 0.215949 -0.0646036 -0.0518088 ) 46
( 0.0273643 -0.014322 -0.0498375 ) 48
( 0.0793807 -0.0730092 -0.0508046 ) 32
( 0.205169 -0.0730691 -0.0375045 ) 69
( 0.119778 -0.0384695 -0.0448812 ) 52
( 0.233248 -0.0560581 -0.0474292 ) 47
( 0.026662 -0.0169363 -0.0301816 ) 80
( 0.139014 -0.0575364 -0.0244705 ) 76
( 0.0279278 -0.0765976 -0.036721 ) 63
( 0.14151 -0.0201637 -0.0702709 ) 53
( 0.0385191 -0.0747571 -0.0629145 ) 31
( 0.108134 -0.0802989 -0.0393454 ) 65
( 0.0732053 -0.0766437 -0.0323897 ) 64
( 0.11103 -0.0786831 -0.0197712 ) 65
( 0.1357 -0.0456473 -0.0683465 ) 43
( 0.14974 -0.0492006 -0.0545897 ) 44
( 0.240586 -0.0356615 -0.0718464 ) 26
( 0.171549 -0.0274992 -0.068712 ) 54
( 0.127358 -0.0901786 -0.0207472 ) 66
( 0.234066 -0.0753397 -0.0528034 ) 38
( 0.0366371 -0.062589 -0.0474182 ) 40
( 0.172571 -0.0571934 -0.0515041 ) 45
( 0.107595 -0.0761719 -0.0662788 ) 33
( 0.0940058 -0.0217152 -0.0689739 ) 51
( 0.138531 -0.0878678 -0.0550154 ) 34
( 0.188355 -0.0628291 -0.0405218 ) 77
( 0.133584 -0.0181679 -0.0413321 ) 84
( 0.0838258 -0.0382953 -0.0646747 ) 51
( 0.112923 -0.0200484 -0.040379 ) 84
( 0.098766 -0.0584956 -0.0671914 ) 42
( 0.150863 -0.0110486 -0.0348571 ) 94
( 0.0402603 -0.026557 -0.0410617 ) 81
( 0.0667963 -0.0217848 -0.0404352 ) 82
( 0.0341676 -0.0348038 -0.0242887 ) 81
( 0.14901 -0.0793618 -0.0695679 ) 35
( 0.0115317 -0.0272389 -0.0627506 ) 48
( 0.0978511 -0.0660748 -0.0487158 ) 42
( 0.129088 -0.0733305 -0.030849 ) 66
( 0.00966569 -0.00688923 -0.0306519 ) 89
( 0.240147 -0.0432479 -0.0282198 ) 79
( 0.150289 -0.0624973 -0.0398022 ) 76
( 0.1671 -0.0709026 -0.0333562 ) 77
( 0.200644 -0.0860277 -0.051787 ) 37
( 0.161119 -0.0280943 -0.0351302 ) 85
( 0.189621 -0.0353492 -0.0713313 ) 54
( 0.121602 -0.00643919 -0.0519733 ) 61
( 0.18782 -0.082426 -0.0352021 ) 68
( 0.0275591 -0.0474305 -0.038207 ) 71
( 0.0539191 -0.0580609 -0.0590411 ) 40
( 0.0305089 -0.0900484 -0.0511733 ) 31
( 0.0825772 -0.0437024 -0.0456233 ) 41
( 0.15788 -0.0252249 -0.0544869 ) 53
( 0.139249 -0.0319307 -0.0544349 ) 53
( 0.0842412 -0.0901746 -0.0421168 ) 65
( 0.0329674 -0.0307681 -0.0595013 ) 49
( 0.0500369 -0.0089259 -0.0361388 ) 90
( 0.0912248 -0.0364757 -0.0182268 ) 83
( 0.0186394 -0.00908923 -0.066849 ) 57
( 0.0705213 -0.0585649 -0.0403633 ) 73
( 0.0535739 -0.0228606 -0.0551746 ) 49
( 0.175267 -0.0327058 -0.0481956 ) 54
( 0.00991461 -0.064144 -0.0350966 ) 71
( 0.00990795 -0.0802056 -0.0232366 ) 62
( 0.200781 -0.0502978 -0.0227621 ) 78
( 0.123913 -0.0552709 -0.0556399 ) 43
( 0.187381 -0.0901079 -0.0659152 ) 36
( 0.237537 -0.0901047 -0.0657154 ) 38
( 0.115143 -0.0617362 -0.0390564 ) 75
( 0.0656252 -0.0145778 -0.0687365 ) 50
( 0.00991207 -0.062876 -0.0617914 ) 39
( 0.097987 -0.0329009 -0.0391247 ) 83
( 0.225353 -0.0730384 -0.0351418 ) 70
( 0.177649 -0.0565882 -0.0250076 ) 77
( 0.224761 -0.026234 -0.0329855 ) 88
( 0.208479 -0.0308743 -0.0670842 ) 55
( 0.0436252 -0.0794358 -0.0203118 ) 63
( 0.21697 -0.0900757 -0.0411393 ) 69
( 0.24356 -0.0902208 -0.0436959 ) 38
( 0.0262437 -0.0614465 -0.0241 ) 71
( 0.0971303 -0.0142327 -0.0507925 ) 60
( 0.209902 -0.0732959 -0.0685494 ) 37
( 0.126731 -0.0683727 -0.0707007 ) 43
( 0.196809 -0.0902984 -0.0194769 ) 69
( 0.169851 -0.0902667 -0.0311247 ) 68
( 0.154569 -0.0876815 -0.0434068 ) 35
( 0.180302 -0.0233661 -0.029473 ) 86
( 0.193133 -0.0687938 -0.0588113 ) 45
( 0.0797948 -0.05479 -0.0224264 ) 73
( 0.234354 -0.067961 -0.0712255 ) 47
( 0.121898 -0.074778 -0.0525103 ) 34
( 0.188636 -0.0461265 -0.0546533 ) 45
( 0.235867 -0.035973 -0.0462729 ) 56
( 0.163581 -0.0481157 -0.0363534 ) 76
( 0.0584665 -0.0900869 -0.0631465 ) 32
( 0.216626 -0.0900068 -0.021361 ) 69
( 0.121676 -0.0901186 -0.0652104 ) 34
( 0.150433 -0.0399939 -0.0233672 ) 85
( 0.0435841 -0.044209 -0.0493832 ) 40
( 0.00990951 -0.0218962 -0.0436857 ) 48
( 0.161719 -0.057502 -0.0681132 ) 44
( 0.12195 -0.0168237 -0.0689667 ) 52
( 0.124816 -0.0296465 -0.0278746 ) 84
( 0.103367 -0.0472204 -0.0516372 ) 42
( 0.203853 -0.0330119 -0.032252 ) 87
( 0.04472 -0.0900399 -0.0371274 ) 63
( 0.114759 -0.0437968 -0.0690389 ) 43
( 0.0100441 -0.0448336 -0.0535428 ) 39
( 0.0965942 -0.0902361 -0.0267792 ) 65
( 0.0279999 -0.050058 -0.0602865 ) 40
( 0.0782973 -0.0900398 -0.0610808 ) 32
( 0.0625002 -0.00557807 -0.0512767 ) 59
( 0.0645585 -0.0902018 -0.0442288 ) 32
( 0.119824 -0.0595185 -0.0199625 ) 75
( 0.00972046 -0.0236597 -0.0203595 ) 80
( 0.118212 -0.00258352 -0.0328324 ) 93
( 0.0111461 -0.0824347 -0.0584852 ) 30
( 0.220538 -0.0496772 -0.0321051 ) 78
( 0.00987827 -0.00302617 -0.0500907 ) 57
( 0.131137 -0.0421929 0.00672985 ) 118
( 0.110978 -0.0514276 -0.00408636 ) 108
( 0.126659 -0.0172923 0.00200372 ) 118
( 0.170817 -0.073842 0.00154269 ) 102
( 0.0585946 -0.072296 0.000501032 ) 98
( 0.0399156 -0.0071394 -0.0191625 ) 90
( 0.226411 -0.042756 -0.00191731 ) 122
( 0.134253 -0.0624056 0.00507034 ) 109
( 0.0217333 -0.0120707 0.00502836 ) 123
( 0.20862 -0.0191223 -0.016941 ) 87
( 0.125163 0.00570427 0.00180951 ) 127
( 0.191136 -0.0340442 -0.016734 ) 86
( 0.0609227 -0.0107847 -0.00638946 ) 125
( 0.0199597 -0.0337127 0.00795338 ) 114
( 0.16029 -0.00402858 -0.012899 ) 128
( 0.0829317 -0.00875541 0.00346845 ) 125
( 0.12267 -0.0127638 -0.0166606 ) 93
( 0.0562274 -0.0564891 0.0138353 ) 107
( 0.110879 -0.0357663 0.00803566 ) 117
( 0.163571 -0.0375705 0.0137136 ) 119
( 0.23995 -0.056721 0.000877369 ) 113
( 0.0911601 -0.043269 0.000407332 ) 108
( 0.206743 -0.0618778 0.0114914 ) 112
( 0.206267 -0.0497027 -0.00381829 ) 112
( 0.143527 -0.00870594 -0.00351783 ) 128
( 0.151099 -0.07393 0.00328836 ) 101
( 0.162221 -0.0901673 0.00874929 ) 101
( 0.18671 -0.0488497 0.0118922 ) 111
( 0.228685 -0.0763741 0.00988513 ) 104
( 0.0354257 -0.0823312 -0.00153571 ) 97
( 0.235428 -0.0353162 0.0137046 ) 122
( 0.177293 -0.0174372 -0.0101211 ) 120
( 0.0382565 -0.0335933 0.000359549 ) 115
( 0.21973 -0.0644553 -0.0028411 ) 112
( 0.0564162 -0.0208788 0.00993581 ) 116
( 0.222052 -0.0902011 -0.00238702 ) 103
( 0.0261689 -0.0647092 -0.00193465 ) 105
( 0.215022 -0.0378868 -0.0169789 ) 87
( 0.0962863 -0.023991 0.00129623 ) 117
( 0.169426 -0.0182186 0.00813287 ) 120
( 0.101316 -0.0714069 0.00563441 ) 108
( 0.150539 -0.0516015 0.00828182 ) 110
( 0.0563438 -0.0306546 -0.00718667 ) 116
( 0.239063 -0.0749747 -0.00674364 ) 104
( 0.158714 -0.0399048 -0.00525461 ) 119
( 0.0790054 -0.0902183 -0.017772 ) 64
( 0.213738 -0.0130409 0.00130455 ) 130
( 0.0715332 -0.090145 0.000501072 ) 98
( 0.194011 -0.0129679 -0.000566073 ) 129
( 0.118484 -0.0309089 -0.0093619 ) 118
( 0.206551 -0.0785201 -0.0070639 ) 103
( 0.17971 -0.0809691 -0.0151369 ) 68
( 0.0951802 -0.090093 0.0123964 ) 99
( 0.0742114 -0.0715245 -0.0133713 ) 98
( 0.149366 -0.0902489 -0.00779797 ) 101
( 0.118362 -0.0902068 -0.00303885 ) 100
( 0.169646 -0.0540697 0.00338706 ) 111
( 0.0151012 -0.0902303 -0.00693164 ) 96
( 0.00983761 -0.0843172 0.0111175 ) 96
( 0.191441 -0.0682696 0.000614342 ) 111
( 0.184407 -0.0318159 0.00181327 ) 120
( 0.247805 -0.0414306 -0.00905679 ) 122
( 0.139545 -0.0238207 -0.0158669 ) 85
( 0.00988585 -0.0510342 0.00242528 ) 105
( 0.110217 -0.00689233 -0.00228128 ) 126
( 0.134839 -0.0900507 0.00825 ) 100
( 0.0657385 -0.00339525 0.0118799 ) 125
( 0.0529801 -0.0901637 -0.00640837 ) 97
( 0.0711047 -0.0490286 0.00300568 ) 107
( 0.0423472 -0.0706996 0.0130147 ) 106
( 0.0181554 -0.00450911 -0.0129079 ) 123
( 0.230987 -0.056242 -0.0166394 ) 79
( 0.0746801 -0.0288431 0.00460228 ) 116
( 0.185981 -0.0511302 -0.00781776 ) 111
( 0.204053 -0.0302059 -0.00112481 ) 121
( 0.160604 -0.0758302 -0.0153034 ) 67
( 0.133916 -0.0426222 -0.0127317 ) 118
( 0.0414852 -0.0134424 -0.000481557 ) 124
( 0.181917 -0.0902892 0.00202924 ) 102
( 0.182415 0.00898715 -0.0387484 ) 95
( 0.0879777 0.0117807 -0.0412856 ) 92
( 0.135815 0.014237 -0.0561528 ) 61
( 0.0587284 0.00900013 -0.0244125 ) 91
( 0.00979552 0.0117542 -0.0205205 ) 89
( 0.0783376 0.00490428 -0.0571888 ) 59
( 0.124346 0.00381528 -0.0687431 ) 61
( 0.148427 0.0134052 -0.0310884 ) 94
( 0.043363 0.0103478 -0.0367997 ) 90
( 0.113814 0.0111045 -0.0462909 ) 61
( 0.0550811 0.0121282 -0.056275 ) 58
( 0.105729 -0.000604176 -0.0623874 ) 60
( 0.177447 0.00186743 -0.00489089 ) 129
( 0.0110001 0.0101015 -0.000696993 ) 123
( 0.0871157 0.0111132 -0.00725816 ) 126
( 0.0436241 0.0109969 -0.0117114 ) 124
( 0.209923 0.00578442 -0.00267931 ) 130
( 0.0631333 0.00875628 -0.00499017 ) 125
( 0.100354 0.00414202 0.0121152 ) 126
( 0.146354 0.00884314 0.00513272 ) 128
( 0.107945 0.0126905 -0.00531874 ) 126
( 0.153517 0.0142822 -0.012091 ) 128
( 0.166398 0.00120077 0.0115774 ) 128
( 0.0331126 0.00398855 0.0035386 ) 124
( 0.140125 -0.0676899 -0.0559818 ) 44
( 0.0667391 -0.00903407 -0.0253519 ) 91
( 0.00998176 -0.0901598 -0.0403205 ) 62
( 0.0479639 -0.0486615 -0.0281587 ) 72
( 0.079128 -0.00606977 -0.040596 ) 91
( 0.0823749 -0.06565 0.00351265 ) 107
( 0.00988556 0.00867789 -0.0662031 ) 57
( 0.235563 0.00624812 -0.0137365 ) 131
( 0.154143 -0.0372464 -0.0698723 ) 53
( 0.163382 -0.0902165 -0.0611434 ) 35
( 0.0436739 -0.00573882 -0.0573717 ) 58
( 0.125264 -0.0902178 -0.0405288 ) 66
( 0.0244395 0.00538365 -0.0342401 ) 89
( 0.0932623 -0.0709957 -0.029988 ) 74
( 0.073802 -0.023599 -0.0141332 ) 116
( 0.10588 0.0116311 -0.0265011 ) 92
( 0.0275525 0.00520817 -0.0537477 ) 57
( 0.0492664 -0.0617661 -0.0131736 ) 106
( 0.24943 -0.0474463 -0.0551632 ) 47
( 0.09749 -0.00479993 -0.0333361 ) 92
( 0.0997845 -0.0900976 -0.0544708 ) 33
( 0.15058 -0.0251188 0.00490352 ) 119
( 0.174079 -0.0046828 -0.026942 ) 95
( 0.218903 -0.0437067 -0.053254 ) 46
( 0.192787 0.0053224 0.00721609 ) 129
( 0.231912 -0.0204286 0.00176325 ) 122
( 0.135916 0.00156919 -0.0408067 ) 93
( 0.0975169 -0.0636051 -0.0121291 ) 108
( 0.0603799 -0.089782 -0.0247863 ) 64
( 0.213341 -0.0655849 -0.0212962 ) 78
( 0.192145 -0.00847494 -0.019943 ) 95
( 0.151984 -0.0589336 -0.00985004 ) 110
( 0.0786975 0.00674363 -0.0245731 ) 91
( 0.0271102 -0.090226 -0.0226172 ) 62
( 0.193283 -0.0685181 -0.0221608 ) 77
( 0.126912 0.0130645 -0.0244413 ) 93
( 0.109612 -0.0428015 -0.0222732 ) 83
( 0.103634 -0.0208954 -0.0177598 ) 83
( 0.159376 -0.0233586 -0.0160072 ) 85
( 0.159625 -0.0718931 -0.0544938 ) 35
( 0.00983627 -0.0632385 -0.013101 ) 105
( 0.0629572 -0.0475457 -0.0150779 ) 73
( 0.0270694 -0.0220839 -0.0110299 ) 114
( 0.170946 -0.0386293 -0.0206225 ) 86
( 0.139565 -0.00182716 -0.0215417 ) 94
( 0.236777 -0.0901166 -0.0193814 ) 70
( 0.118634 -0.0704415 -0.00357813 ) 109
( 0.089902 -0.00688781 -0.0150341 ) 92
( 0.233083 -0.0298358 -0.0154876 ) 88
( 0.0343661 -0.0492184 -0.0109013 ) 106
( 0.0106668 -0.0426919 -0.0151908 ) 80
( 0.13668 -0.075039 -0.0102321 ) 100
( 0.193719 0.00993305 -0.0128436 ) 129
( 0.0989357 -0.0892024 -0.00707656 ) 99
( 0.0376021 -0.0518859 0.00857478 ) 106
( 0.144319 -0.061457 -0.0768598 ) 14
( 0.173573 -0.0450064 -0.0780473 ) 15
( 0.0860294 -0.0736285 -0.0694621 ) 33
( 0.00993113 -0.0445109 -0.0734205 ) 9
( 0.0408693 -0.058551 -0.0740609 ) 10
( 0.0560573 -0.0726398 -0.0723746 ) 2
( 0.0675349 -0.0441143 -0.0754166 ) 11
( 0.0422409 -0.0901694 -0.0747546 ) 1
( 0.205498 -0.0901607 -0.0779989 ) 7
( 0.244902 -0.0533823 -0.0797443 ) 17
( 0.225055 -0.0236955 -0.0754589 ) 26
( 0.0776658 -0.0263697 -0.0794012 ) 20
( 0.224111 -0.0832079 -0.0788061 ) 8
( 0.0215951 -0.0742154 -0.0732848 ) 0
( 0.0856199 -0.0509242 -0.079989 ) 12
( 0.109378 -0.0279561 -0.0799199 ) 21
( 0.210209 -0.0449382 -0.0811091 ) 16
( 0.192717 -0.0612675 -0.0772403 ) 15
( 0.172313 -0.0899047 -0.0789209 ) 6
( 0.128918 -0.0315427 -0.0806298 ) 22
( 0.0434388 -0.0192948 -0.0719398 ) 19
( 0.134504 -0.0878479 -0.0802407 ) 4
( 0.0335574 -0.0403889 -0.0774845 ) 19
( 0.112662 -0.0592774 -0.0814226 ) 13
( 0.0701857 -0.08976 -0.0792851 ) 2
( 0.0221875 -0.0241793 -0.0792996 ) 18
( 0.0960733 -0.0901222 -0.0744237 ) 3
( 0.1891 -0.0799947 -0.083023 ) 6
( 0.161568 -0.0711335 -0.0826587 ) 14
( 0.206722 -0.0209695 -0.0842772 ) 25
( 0.159607 -0.0247846 -0.0844436 ) 23
( 0.0723462 -0.0663114 -0.0819986 ) 11
( 0.0229567 -0.0565502 -0.0824769 ) 9
( 0.0580387 -0.0279813 -0.0823055 ) 20
( 0.0344436 0.000877264 -0.0737044 ) 28
( 0.0546932 -0.00842133 -0.0842601 ) 28
( 0.219016 -0.0632497 -0.0831276 ) 16
( 0.11361 -0.0855089 -0.0828413 ) 4
( 0.14458 -0.0437559 -0.0860961 ) 14
( 0.242309 -0.020862 -0.0850834 ) 26
( 0.00996482 -0.090041 -0.0768396 ) 0
( 0.0950729 -0.0674421 -0.0860901 ) 12
( 0.228689 -0.0392351 -0.0874533 ) 26
( 0.0617424 0.00985633 -0.0877676 ) 29
( 0.0371986 -0.0742985 -0.0857178 ) 1
( 0.15359 -0.0900527 -0.0857226 ) 5
( 0.0508097 -0.046176 -0.0860455 ) 10
( 0.0099074 -0.00185722 -0.0831775 ) 27
( 0.191706 -0.0449447 -0.0886665 ) 15
( 0.0351913 -0.0122783 -0.0886764 ) 28
( 0.00991733 -0.0702008 -0.0888831 ) 9
( 0.0930076 -0.0347473 -0.0890203 ) 21
)
