/*--------------------------------*- C++ -*----------------------------------*\
  =========                 |
  \\      /  F ield         | OpenFOAM: The Open Source CFD Toolbox
   \\    /   O peration     | Website:  https://openfoam.org
    \\  /    A nd           | Version:  4.x
     \\/     M anipulation  |
\*---------------------------------------------------------------------------*/
FoamFile
{
    version     2.0;
    format      ascii;
    class       vectorField;
    location    0;
    object      v;
}
// * * * * * * * * * * * * * * * * * * * * * * * * * * * * * * * * * * * * * //

258
(
( 2.10034e-05 -1.32503e-05 2.97138e-05 )  
( 4.72843e-05 1.1831e-05 -2.98686e-05 )  
( 1.8578e-05 -1.11171e-05 2.17788e-05 )  
( 2.67755e-05 -9.69713e-07 3.47955e-05 )  
( 4.82869e-05 7.73407e-06 -2.23005e-05 )  
( 0.000109125 1.17971e-05 -2.73386e-05 )  
( 6.34974e-05 1.08448e-05 -2.94142e-05 )  
( 9.27679e-05 -5.00384e-06 2.14068e-05 )  
( 9.61284e-05 5.32056e-06 -8.89081e-06 )  
( 0.000113696 -7.106e-06 1.40335e-05 )  
( 6.60121e-05 -7.97078e-06 3.5087e-05 )  
( 7.33441e-05 4.65362e-06 -2.6688e-05 )  
( 4.38466e-05 -9.29563e-06 2.46799e-05 )  
( 8.77809e-05 5.41189e-06 4.69241e-06 )  
( 7.33689e-05 -1.11679e-05 2.8858e-05 )  
( 8.40431e-05 -1.00217e-05 1.89262e-05 )  
( 2.576e-05 -1.64338e-05 2.33257e-05 )  
( 3.18172e-05 -3.65784e-07 2.2871e-05 )  
( 9.72461e-05 -8.27254e-06 -1.66412e-05 )  
( 0.000113179 -8.69107e-07 -1.71436e-05 )  
( 4.06014e-05 -7.42067e-06 2.65213e-05 )  
( 2.9285e-05 3.99749e-06 -1.29491e-05 )  
( 5.36345e-05 1.07982e-05 -1.89627e-05 )  
( 0.000115881 -1.70567e-06 1.95872e-05 )  
( 7.84437e-05 -1.20982e-05 2.21495e-05 )  
( 8.91248e-05 2.53044e-06 -2.01345e-05 )  
( 9.87496e-05 -3.38025e-06 3.33743e-06 )  
( 7.46897e-05 5.11959e-06 -3.5107e-05 )  
( 0.000125178 -5.88671e-06 6.099e-06 )  
( 1.07873e-05 -1.55045e-05 1.81879e-05 )  
( 9.91498e-05 5.57201e-06 1.99765e-05 )  
( 0.000101701 -2.8085e-06 9.29232e-06 )  
( 7.64697e-05 8.0908e-06 -1.98565e-05 )  
( 7.60263e-05 3.25829e-06 -2.73059e-05 )  
( 2.90983e-06 -3.4559e-06 1.74503e-05 )  
( 6.82308e-05 1.17181e-05 -2.72408e-05 )  
( 6.24334e-05 -1.20296e-05 1.11437e-05 )  
( 8.74858e-05 -7.77341e-06 1.54036e-05 )  
( 8.07485e-05 4.36113e-06 -1.52911e-05 )  
( 4.80909e-05 1.05166e-05 -1.80865e-05 )  
( 0.000135799 -1.95557e-06 6.37508e-07 )  
( 8.41002e-05 -4.76396e-06 1.55784e-05 )  
( 6.19834e-05 2.61104e-06 -1.69794e-05 )  
( 0.000113534 -6.33422e-09 -2.38261e-05 )  
( 1.09474e-05 -2.65042e-06 1.0132e-05 )  
( 4.05655e-05 4.69402e-06 -2.73394e-05 )  
( 5.80635e-05 8.392e-06 -2.52538e-05 )  
( 5.72525e-05 8.8887e-06 -1.69823e-05 )  
( 6.55385e-05 -3.86361e-06 3.86562e-06 )  
( 7.85869e-05 1.27257e-06 -2.40432e-05 )  
( 9.27879e-06 -7.97163e-06 1.34562e-05 )  
( 5.78191e-05 4.95808e-06 -1.36777e-05 )  
( 5.08528e-05 -1.84218e-06 -1.28191e-05 )  
( 3.22678e-05 -1.13512e-05 3.52421e-05 )  
( 7.17678e-05 -1.0988e-05 3.23893e-05 )  
( 6.14834e-05 -2.33638e-06 2.99666e-05 )  
( 4.35941e-05 8.23283e-06 -1.47359e-05 )  
( 8.63606e-05 1.21495e-06 -2.40637e-05 )  
( 6.91244e-05 1.03071e-05 3.33285e-06 )  
( 7.09992e-05 -2.51032e-06 -7.35679e-06 )  
( 4.64704e-05 9.50983e-06 -1.97201e-05 )  
( 2.28615e-05 8.21576e-06 -1.55751e-05 )  
( 7.97633e-05 -1.93761e-06 3.12154e-05 )  
( 2.13205e-05 -1.9968e-06 2.12795e-05 )  
( 1.26315e-05 -9.6791e-06 2.71599e-05 )  
( 5.68842e-05 2.54778e-06 -1.99933e-05 )  
( 8.80856e-06 -7.29015e-06 1.28767e-05 )  
( 2.67864e-05 4.84823e-06 -1.76602e-05 )  
( 6.34091e-05 4.42614e-06 -1.90694e-05 )  
( 0.000135613 -2.0535e-06 1.55029e-05 )  
( 9.30673e-05 1.3513e-06 -1.65617e-05 )  
( 9.39179e-05 9.52292e-06 -1.7696e-05 )  
( 6.81787e-05 -1.25606e-05 2.84723e-05 )  
( 5.23273e-05 5.33151e-07 -2.18559e-05 )  
( 4.44574e-05 -5.79905e-06 2.63776e-05 )  
( 9.16007e-05 8.32034e-06 -1.40321e-05 )  
( 4.24562e-05 -1.34544e-05 1.55582e-05 )  
( 7.0322e-05 -3.83894e-06 1.37944e-05 )  
( 0.000119983 -7.53221e-06 -1.51357e-05 )  
( 0.00010777 -2.79581e-06 2.7766e-05 )  
( 4.03079e-05 -9.61757e-06 1.49032e-05 )  
( 8.37835e-05 1.29669e-05 -1.60986e-05 )  
( 2.56415e-05 -3.81925e-06 1.9661e-05 )  
( 0.000124339 -1.67996e-06 7.83414e-06 )  
( 8.32128e-05 4.0819e-06 -5.73084e-06 )  
( 5.15931e-05 -7.44659e-06 -5.21804e-06 )  
( 2.47705e-05 -6.65405e-06 1.87244e-05 )  
( 6.10992e-05 -2.30782e-06 1.96191e-05 )  
( 8.14702e-05 -3.18971e-06 4.99341e-06 )  
( 6.705e-05 -4.71028e-07 4.42298e-07 )  
( 9.86431e-05 -1.52598e-06 1.40137e-06 )  
( 2.20625e-05 -5.97785e-06 1.76754e-05 )  
( 0.000114957 2.00447e-06 2.64094e-06 )  
( 0.000103698 -3.53945e-06 5.90557e-06 )  
( 1.4813e-05 -6.88533e-06 1.89422e-05 )  
( 0.000107361 1.39155e-06 -1.28212e-05 )  
( 8.98187e-05 -3.6085e-06 -3.54684e-06 )  
( 5.53611e-05 -3.91678e-06 1.57413e-05 )  
( 5.83988e-05 -2.68627e-06 -3.23705e-06 )  
( 5.49047e-05 7.90718e-06 -1.39083e-05 )  
( 9.91067e-06 -8.75154e-06 8.7382e-06 )  
( 4.38321e-05 3.22266e-06 -1.15608e-05 )  
( 9.41079e-05 -1.36268e-06 -8.9011e-06 )  
( 5.87648e-05 1.17779e-06 1.01127e-05 )  
( 9.62632e-05 1.55576e-06 5.70315e-06 )  
( 5.58402e-05 -5.33397e-07 1.0618e-06 )  
( 1.02148e-05 -6.42459e-06 1.24738e-05 )  
( 6.58158e-05 -2.51729e-06 1.27283e-05 )  
( 5.19e-05 5.77848e-06 -6.61867e-06 )  
( 0.000108697 2.59524e-06 -1.84993e-05 )  
( 4.44925e-05 -4.45651e-06 1.46033e-05 )  
( 7.14468e-05 -7.11144e-06 1.05111e-05 )  
( 6.88485e-05 9.89352e-06 -1.47818e-05 )  
( 5.03432e-05 1.22185e-05 1.17e-05 )  
( 7.93134e-05 1.00236e-05 -7.19955e-06 )  
( 0.00012717 -1.73772e-06 3.6341e-06 )  
( 7.27885e-05 1.079e-05 -3.1312e-06 )  
( 5.14993e-05 -1.15806e-05 1.09281e-05 )  
( 2.62291e-05 5.58365e-07 1.83243e-05 )  
( 6.34682e-05 3.93062e-06 -9.06931e-06 )  
( 7.89875e-05 4.19188e-06 -8.90535e-06 )  
( 7.30813e-05 6.56262e-07 -1.068e-05 )  
( 0.000102014 2.15118e-06 -3.24279e-06 )  
( 8.89993e-05 -7.78149e-07 1.0149e-05 )  
( 1.7184e-05 -9.59591e-06 1.69006e-05 )  
( 1.48088e-05 -8.55021e-06 9.97374e-06 )  
( 9.16926e-05 2.32537e-06 -2.95911e-06 )  
( 3.79694e-05 -1.22148e-06 1.48209e-05 )  
( 5.47277e-05 5.1945e-06 -1.92487e-05 )  
( 4.84156e-05 -1.82199e-06 2.49596e-05 )  
( 0.000106619 -3.38356e-06 1.39217e-05 )  
( 7.46483e-06 -9.87122e-07 8.44048e-06 )  
( 4.17062e-05 -6.45717e-06 -1.82382e-05 )  
( 4.61579e-05 -1.19018e-05 2.95792e-06 )  
( 6.59549e-05 -1.56104e-06 -3.88201e-07 )  
( 0.000113656 1.835e-06 -1.36819e-05 )  
( 2.66629e-05 -4.78006e-06 2.91209e-05 )  
( 0.00010827 6.21697e-06 -1.14109e-05 )  
( 0.000102552 2.59028e-06 -5.74724e-06 )  
( 3.12925e-05 -2.681e-06 1.7938e-05 )  
( 5.27541e-05 -7.65303e-06 2.32985e-05 )  
( 1.52941e-05 -7.60491e-06 2.63078e-05 )  
( 3.28911e-05 -9.16811e-06 1.84042e-05 )  
( 9.83192e-05 2.7942e-06 9.00519e-06 )  
( 9.50798e-05 4.98423e-08 -1.71295e-06 )  
( 6.03158e-05 7.30466e-06 6.28984e-07 )  
( 8.30299e-05 9.11002e-06 -1.87464e-05 )  
( 0.000103012 -6.31807e-07 -1.47968e-06 )  
( 9.64226e-05 1.90339e-06 -1.97069e-05 )  
( 7.57192e-05 2.30505e-06 1.1791e-05 )  
( 4.57e-05 -5.90455e-06 -1.01242e-05 )  
( 9.15056e-05 -1.16089e-06 1.14095e-05 )  
( 8.26953e-05 -4.59839e-06 2.95327e-06 )  
( 5.09911e-05 -1.15754e-06 -9.83612e-06 )  
( 7.94603e-05 -2.00676e-06 1.05177e-05 )  
( 4.48923e-05 6.65129e-06 -1.58717e-05 )  
( 1.96304e-05 -8.09008e-06 2.48719e-05 )  
( 7.58578e-05 2.1064e-06 -2.89533e-06 )  
( 5.68777e-05 5.73338e-06 -1.59479e-05 )  
( 7.97034e-05 -4.69799e-07 -9.14845e-08 )  
( 6.56504e-05 -1.01637e-05 2.30561e-05 )  
( 8.53858e-05 -7.92308e-08 -5.84973e-06 )  
( 6.54659e-05 -1.55452e-05 -1.10741e-06 )  
( 7.99762e-05 1.00023e-05 -1.15304e-05 )  
( 3.07803e-05 1.25525e-05 -8.81128e-06 )  
( 2.19203e-05 -3.86709e-06 1.04407e-05 )  
( 8.0879e-05 5.8278e-06 -4.19682e-06 )  
( 4.64318e-05 -7.3634e-06 2.10797e-05 )  
( 1.90456e-05 1.36449e-06 1.89712e-05 )  
( 5.11925e-05 -8.79994e-07 1.02946e-05 )  
( 6.32453e-05 -5.79942e-06 2.92347e-05 )  
( 4.11169e-05 -1.11621e-05 2.0476e-05 )  
( 5.08606e-05 8.38121e-06 -9.29245e-06 )  
( 1.51139e-05 -2.20871e-06 1.54216e-05 )  
( 6.78244e-05 2.82838e-06 -1.66102e-05 )  
( 0.000102406 1.21558e-06 -6.34405e-06 )  
( 0.000113266 2.36628e-06 1.49623e-05 )  
( 0.000106042 -1.60491e-06 -3.81149e-06 )  
( 7.3283e-05 -2.38022e-06 -1.09522e-05 )  
( 0.000105061 4.33276e-06 3.67194e-06 )  
( 8.43894e-06 -3.14298e-06 9.26696e-06 )  
( 7.23337e-06 -6.01773e-06 1.15018e-05 )  
( 2.81307e-05 -9.3621e-06 9.81179e-06 )  
( 5.71979e-05 6.24156e-06 -6.42739e-06 )  
( 5.1524e-05 2.86591e-06 -9.89742e-06 )  
( 8.41642e-05 2.23297e-06 1.18499e-07 )  
( 6.17969e-05 -3.53682e-06 6.90791e-06 )  
( 9.89441e-05 6.40022e-06 -1.17575e-05 )  
( 9.31186e-05 -3.76955e-06 -7.90962e-07 )  
( 6.77481e-05 -7.15783e-06 1.38163e-05 )  
( 4.81888e-05 1.98491e-06 3.22196e-06 )  
( 6.59315e-05 1.03961e-06 -7.38475e-06 )  
( 3.46565e-05 -3.15705e-06 7.99176e-06 )  
( 9.17181e-05 3.9513e-06 -1.76534e-05 )  
( 9.22714e-05 2.47225e-06 -9.6808e-06 )  
( 5.50697e-05 -8.9336e-06 1.55416e-05 )  
( 8.11595e-06 -6.79832e-06 5.3626e-06 )  
( 8.97482e-05 2.44385e-06 -8.35944e-06 )  
( 7.86322e-05 8.6706e-06 -2.02764e-06 )  
( 6.62477e-05 -5.00316e-06 -3.77985e-06 )  
( 3.24724e-05 -4.63997e-06 4.73962e-07 )  
( 5.43272e-05 7.90019e-07 -2.29331e-06 )  
( 5.59806e-05 -7.08293e-06 9.68717e-06 )  
( 2.97573e-05 -1.98088e-06 6.38003e-06 )  
( 4.22562e-05 -4.18088e-06 6.03522e-06 )  
( 7.45224e-05 -6.88242e-06 2.17119e-07 )  
( 6.67995e-05 3.72913e-06 -6.67658e-06 )  
( 9.60197e-06 -3.3897e-06 1.52844e-06 )  
( 7.1151e-05 3.36814e-06 7.20093e-06 )  
( 2.11468e-05 -8.24386e-06 1.08782e-05 )  
( 2.70111e-05 -8.26954e-07 -2.89454e-07 )  
( 6.0633e-05 8.62746e-07 -4.90726e-06 )  
( 6.46091e-05 6.10091e-06 -9.67158e-06 )  
( 3.70817e-05 -3.19718e-06 4.83142e-06 )  
( 3.2082e-05 3.71949e-06 2.69e-06 )  
( 6.7402e-05 -1.65634e-06 -7.69244e-07 )  
( 5.43824e-06 -4.94339e-06 5.60158e-06 )  
( 3.39147e-05 -4.36761e-06 -2.61071e-06 )  
( 6.4092e-05 -3.13177e-06 1.59456e-06 )  
( 6.37614e-05 4.56977e-06 2.24877e-06 )  
( 5.9513e-05 -3.39237e-07 -2.93723e-06 )  
( 2.13872e-05 1.19335e-06 9.95073e-06 )  
( 4.8338e-05 1.13516e-06 -8.82245e-06 )  
( 2.98287e-05 -9.72194e-07 4.68068e-06 )  
( 4.62043e-05 1.06356e-06 -2.94584e-07 )  
( 2.95668e-05 -5.68487e-06 3.66064e-06 )  
( 1.94923e-05 -1.1291e-06 -1.10591e-06 )  
( 4.20721e-06 -5.88295e-07 3.21199e-06 )  
( 5.0601e-05 -2.07039e-06 -7.13384e-07 )  
( 7.29005e-05 4.21608e-06 -4.82265e-06 )  
( 4.39712e-05 2.66144e-06 5.21526e-06 )  
( 5.30662e-05 2.0292e-06 -3.04602e-06 )  
( 3.17526e-05 1.88043e-07 -1.48088e-05 )  
( 2.91276e-05 -3.46301e-06 5.36411e-06 )  
( 5.04614e-05 2.28198e-06 7.3812e-06 )  
( 9.87901e-06 -4.86585e-06 7.6459e-06 )  
( 3.11336e-05 -2.95509e-06 7.76566e-06 )  
( 3.35599e-05 -4.76029e-06 -7.42183e-06 )  
( 4.3172e-05 -4.64597e-06 6.14978e-06 )  
( 1.2185e-05 -1.63485e-06 6.22874e-07 )  
( 1.69083e-05 -3.86718e-06 5.771e-06 )  
( 3.79757e-05 6.03601e-06 -1.38473e-05 )  
( 1.9729e-05 6.17069e-06 7.27851e-06 )  
( 4.18793e-05 -5.21542e-07 5.59928e-06 )  
( 3.60557e-05 1.85058e-06 1.69374e-05 )  
( 3.0979e-05 -1.75882e-06 -4.37132e-06 )  
( 2.88566e-05 -4.50387e-06 -8.71759e-06 )  
( 3.84602e-05 -7.9126e-07 -1.70691e-06 )  
( 1.73951e-05 -6.02249e-06 3.70419e-06 )  
( 1.56739e-05 -5.09827e-06 -6.15654e-06 )  
( 3.31284e-05 3.53896e-06 2.02962e-07 )  
( 3.66061e-05 2.98483e-06 -1.06317e-05 )  
( 4.63618e-05 5.08039e-06 -3.22952e-06 )  
( 5.79905e-06 -3.79952e-06 4.49633e-06 )  
( 2.09717e-05 -2.08376e-06 1.96234e-06 )  
( 1.79071e-05 2.22586e-06 -2.86397e-06 )  
( 3.14035e-05 2.48309e-06 -4.86484e-07 )  
( 4.08536e-05 -3.07903e-06 -9.84952e-06 )  
)
