/*--------------------------------*- C++ -*----------------------------------*\
| =========                 |                                                 |
| \\      /  F ield         | OpenFOAM: The Open Source CFD Toolbox           |
|  \\    /   O peration     | Version:  4.x                                   |
|   \\  /    A nd           | Web:      www.OpenFOAM.org                      |
|    \\/     M anipulation  |                                                 |
\*---------------------------------------------------------------------------*/
FoamFile
{
    version     2.0;
    format      ascii;
    class       volVectorField;
    location    "45";
    object      DDtUrel;
}
// * * * * * * * * * * * * * * * * * * * * * * * * * * * * * * * * * * * * * //

dimensions      [0 1 -2 0 0 0 0];

internalField   nonuniform List<vector> 
132
(
(1.48858e-05 1.21451e-06 8.81401e-06)
(-2.07753e-05 -2.94826e-06 3.03258e-06)
(-6.70735e-05 -6.11956e-06 -1.04974e-06)
(-0.000145234 -1.08357e-05 -1.20417e-05)
(-0.000274063 -1.344e-05 -2.56317e-05)
(-0.00046558 -1.82274e-05 -6.68256e-05)
(-0.000796705 -2.99912e-05 -0.000112043)
(-0.00114064 -1.12078e-05 -0.000231657)
(-0.00162491 5.39973e-06 -0.000337994)
(1.82494e-05 -1.09079e-05 5.62916e-06)
(-1.70924e-05 -7.74374e-06 -3.40293e-07)
(-6.56997e-05 -6.12334e-06 -5.33047e-06)
(-0.000140507 1.0005e-06 -2.12177e-05)
(-0.000262811 7.41011e-06 -3.92356e-05)
(-0.000452999 4.40634e-05 -8.9276e-05)
(-0.000766469 6.53213e-05 -0.000150395)
(-0.00116736 0.000224129 -0.000262209)
(-0.0017062 0.00034954 -0.000403399)
(4.62573e-05 -2.19676e-05 2.33564e-06)
(-4.4818e-06 -1.25887e-05 -9.02447e-06)
(-2.91853e-05 -1.24353e-05 -1.70403e-05)
(-0.000121311 1.02667e-05 -3.84198e-05)
(-0.000203642 1.05072e-05 -5.64016e-05)
(-0.000432205 7.52574e-05 -0.000122658)
(-0.000707001 9.77325e-05 -0.000177465)
(-0.00131242 0.000310286 -0.000383827)
(-0.00211353 0.000508985 -0.000638533)
(5.8568e-05 -3.09486e-05 -3.94246e-06)
(-1.8378e-06 -2.45733e-05 -1.44212e-05)
(-2.36142e-05 -1.91396e-05 -1.74696e-05)
(-0.000123745 8.00529e-07 -4.59456e-05)
(-0.000193128 2.3148e-05 -5.67973e-05)
(-0.000433388 6.99875e-05 -0.000139433)
(-0.000697171 0.000130254 -0.000190116)
(-0.00140199 0.000240106 -0.000464657)
(-0.00233866 0.000312272 -0.000767225)
(-6.49811e-05 -9.84339e-06 5.23995e-06)
(-0.000139432 -1.36589e-05 2.25499e-06)
(-0.000254848 -1.81478e-05 3.92503e-06)
(-0.000438446 -2.82495e-05 3.05654e-06)
(-0.000745648 -3.39068e-05 1.28225e-05)
(-0.0010979 -7.73925e-05 6.11862e-05)
(-0.00162794 -0.000115598 0.00010904)
(6.22586e-06 -9.04869e-06 8.81992e-07)
(-2.90669e-05 -9.85243e-06 -1.83489e-06)
(-6.90815e-05 -9.64818e-06 -3.49884e-06)
(-0.000142939 -6.56987e-06 -7.83153e-06)
(-0.000251773 -1.22627e-07 -1.27941e-05)
(-0.000434502 1.1314e-05 -2.29476e-05)
(-0.000722499 3.16496e-05 -2.94232e-05)
(-0.0011135 7.89649e-05 -2.60698e-05)
(-0.00168225 0.000118061 -2.96376e-05)
(3.4017e-06 -2.18856e-05 -1.54558e-06)
(-3.32356e-05 -1.60605e-05 -6.17666e-06)
(-7.86442e-05 -1.31432e-05 -8.59576e-06)
(-0.000146859 -2.92648e-06 -1.61496e-05)
(-0.000262514 9.35963e-06 -2.46486e-05)
(-0.000434886 3.28595e-05 -4.57321e-05)
(-0.000743117 6.79619e-05 -6.83208e-05)
(-0.00118927 0.000150841 -0.000101508)
(-0.00176255 0.000238925 -0.00014505)
(-1.51146e-06 -3.33324e-05 -4.93562e-06)
(-4.92228e-05 -2.39163e-05 -9.36551e-06)
(-9.33544e-05 -1.94721e-05 -1.16499e-05)
(-0.000163725 -5.77987e-06 -1.83201e-05)
(-0.00027574 1.25208e-05 -3.06135e-05)
(-0.000447364 3.50582e-05 -5.7738e-05)
(-0.000759915 7.4778e-05 -9.07859e-05)
(-0.00123323 0.000126052 -0.000154133)
(-0.00185605 0.000159641 -0.000238653)
(-0.000223075 -2.84948e-05 2.61471e-05)
(-0.000412441 -4.57688e-05 6.63012e-05)
(-0.000709073 -6.81134e-05 0.000107552)
(-0.00117059 -0.00011534 0.000331734)
(-0.00183941 -0.000172187 0.000476265)
(3.78699e-06 -1.30678e-05 -6.5959e-06)
(-3.22381e-05 -1.45364e-05 -5.06488e-06)
(-6.97094e-05 -1.77508e-05 -2.16911e-06)
(-0.000141081 -1.67509e-05 1.92731e-06)
(-0.000243531 -1.91556e-05 7.41047e-06)
(-0.000425601 -9.33796e-06 2.96795e-05)
(-0.000710833 -9.08974e-06 5.50793e-05)
(-0.00117182 7.22779e-05 0.000193841)
(-0.00181249 0.00010876 0.000282909)
(1.14568e-05 -2.63955e-05 -1.18248e-05)
(-3.56955e-05 -2.11791e-05 -9.40258e-06)
(-5.70187e-05 -2.3159e-05 -1.03828e-05)
(-0.000142607 -1.45567e-05 -4.3476e-06)
(-0.000202899 -2.17286e-05 -7.71714e-06)
(-0.000411026 8.81476e-06 7.37845e-06)
(-0.000617134 4.39508e-06 4.78841e-06)
(-0.00124168 0.000125601 0.000137273)
(-0.00212878 0.00022465 0.000231327)
(1.04088e-05 -3.30665e-05 -9.00203e-06)
(-4.42816e-05 -3.04024e-05 -9.21443e-06)
(-7.85344e-05 -2.96687e-05 -1.10347e-05)
(-0.000164205 -2.43958e-05 -9.10887e-06)
(-0.000233652 -1.45643e-05 -1.70278e-05)
(-0.000437481 -3.15025e-06 -1.49068e-05)
(-0.000647255 2.5683e-05 -1.86158e-05)
(-0.0012577 4.03828e-05 7.33119e-05)
(-0.00216367 3.28222e-05 0.000123713)
(-0.000601891 -7.43032e-05 0.000144034)
(-0.00131333 -0.000200875 0.000379815)
(-0.00228813 -0.000350589 0.000570999)
(1.27869e-05 -1.61221e-05 -1.71189e-05)
(-3.337e-05 -2.04839e-05 -1.08588e-05)
(-6.32882e-05 -2.30948e-05 -9.15092e-06)
(-0.000142004 -2.77016e-05 3.49563e-06)
(-0.000226873 -2.88957e-05 2.42859e-06)
(-0.000421529 -3.74752e-05 4.09724e-05)
(-0.000686486 -3.59296e-05 7.92272e-05)
(-0.00125388 -6.60005e-05 0.000215551)
(-0.0020679 -0.000130244 0.000342639)
(1.09051e-05 -2.62119e-05 -2.0866e-05)
(-4.35024e-05 -2.57457e-05 -2.23313e-05)
(-7.85082e-05 -2.88223e-05 -2.3036e-05)
(-0.000165474 -2.82602e-05 -1.9735e-05)
(-0.000248183 -2.46e-05 -1.2781e-05)
(-0.000446667 -2.17574e-05 -4.21893e-06)
(-0.000706186 -1.17682e-05 4.40796e-05)
(-0.00126306 -1.98939e-05 9.51277e-05)
(-0.00212747 -3.42533e-05 0.000112891)
(7.94585e-06 -3.22417e-05 -2.08781e-05)
(-5.18854e-05 -3.0425e-05 -2.36498e-05)
(-0.000100469 -2.99255e-05 -2.44105e-05)
(-0.000187513 -3.13292e-05 -2.81836e-05)
(-0.000293415 -1.96983e-05 -1.97892e-05)
(-0.000479659 -2.6069e-05 -3.24043e-05)
(-0.000792921 -4.90247e-06 1.35719e-05)
(-0.00124407 -7.01603e-05 4.71733e-07)
(-0.00198037 -0.000125229 -3.9209e-05)
)
;

boundaryField
{
    inlet
    {
        type            calculated;
        value           nonuniform 0();
    }
    outlet
    {
        type            calculated;
        value           nonuniform List<vector> 
16
(
(-0.00190742 0.000504775 -0.000717678)
(-0.00204705 0.0020928 -0.000410348)
(-0.00585521 0.00248025 -0.0020306)
(-0.00638543 -8.96877e-05 -0.00245469)
(-0.00217896 -0.000424987 0.000556605)
(-0.00297224 -8.99685e-05 7.49924e-05)
(-0.00138344 0.000354035 5.93444e-06)
(-0.00174017 -5.34675e-05 -0.00029062)
(-0.00303804 -0.000264604 0.0020124)
(-0.0024548 0.00143584 0.000911723)
(-0.00699087 0.00223704 0.00222291)
(-0.00670968 -0.000483765 0.00156635)
(-0.00672165 -0.00177257 0.00143258)
(-0.00462998 -0.000689502 0.000941306)
(-0.00555745 -0.000301378 -0.000430065)
(-0.00335439 -0.0010662 -0.0011321)
)
;
    }
    wall
    {
        type            calculated;
        value           nonuniform List<vector> 
66
(
(8.47868e-05 4.81635e-06 -0.000105796)
(0.000137553 -4.61437e-05 -7.50951e-05)
(0.000103838 -5.61043e-05 -6.11446e-05)
(-0.000132081 -3.89931e-05 -3.01827e-06)
(-0.000135748 -2.99992e-05 -9.53911e-05)
(-0.000137246 -4.05681e-05 -7.82882e-05)
(3.98638e-05 -2.62082e-05 -4.2052e-05)
(4.4991e-05 -7.21239e-05 -0.000113054)
(-0.00010983 -2.80134e-05 -5.97988e-05)
(-0.000154273 -5.99877e-05 7.69238e-05)
(-0.000253504 -7.2642e-05 -0.000123908)
(-0.00026581 -0.000104194 -0.000151909)
(5.67795e-05 -2.93186e-05 -0.000177281)
(6.09371e-05 -3.26898e-05 -5.87257e-05)
(-0.00035459 3.77253e-05 1.79191e-05)
(-0.000226068 -0.000103662 6.41084e-05)
(-0.000334298 -7.72777e-05 -0.000220865)
(-0.000298611 -0.000198727 -0.000362106)
(0.0014629 0.000318038 -0.000219163)
(0.000168933 2.75257e-05 -0.000255641)
(0.00018979 5.02856e-05 0.000141046)
(-0.00105902 0.000202433 0.000210191)
(-0.000729004 -0.000562703 0.000764336)
(-0.00049609 -0.000107042 0.000177534)
(-0.000418256 -0.000150223 -5.2776e-06)
(-0.000219972 -0.000595963 -0.000426412)
(-0.00672165 -0.00177257 0.00143258)
(-0.00462998 -0.000689502 0.000941306)
(-0.00555745 -0.000301378 -0.000430065)
(-0.00335439 -0.0010662 -0.0011321)
(0.000350745 -6.38487e-05 -4.53612e-05)
(-0.000152709 -0.000119573 8.2407e-07)
(0.000170783 -7.27745e-05 1.89999e-05)
(0.000103838 -5.61043e-05 -6.11446e-05)
(-7.41763e-05 -4.55045e-05 -0.000109831)
(-0.000270097 -9.95442e-06 -1.10345e-05)
(-9.83725e-05 -7.21851e-05 4.13227e-05)
(-0.000137246 -4.05681e-05 -7.82882e-05)
(0.000361252 -6.32292e-05 1.26367e-05)
(-0.000312091 -3.86773e-05 9.33967e-06)
(0.000134988 -9.48168e-05 1.78507e-05)
(-0.00010983 -2.80134e-05 -5.97988e-05)
(-0.000204854 -2.8447e-05 -0.000220096)
(-0.000201344 7.33548e-06 4.96774e-05)
(-0.000212828 -0.000105146 9.48112e-05)
(-0.00026581 -0.000104194 -0.000151909)
(0.000509183 -1.50009e-05 0.000138484)
(-0.000505122 5.8906e-05 3.77905e-05)
(0.000418856 -6.49651e-05 -2.80421e-05)
(-0.00035459 3.77253e-05 1.79191e-05)
(-0.000422503 1.43419e-05 -0.000398731)
(-0.000102076 -3.80317e-06 4.35811e-05)
(-0.000339455 -0.000143234 0.000120332)
(-0.000298611 -0.000198727 -0.000362106)
(0.000761249 8.50796e-05 0.000607968)
(-0.000827389 3.86151e-05 2.18167e-05)
(0.00134969 7.98122e-05 -0.000277894)
(-0.00105902 0.000202433 0.000210191)
(-0.000980044 5.93955e-05 -0.000673023)
(-0.000291942 2.05502e-05 7.88269e-06)
(-0.00046662 -7.23304e-05 0.000931408)
(-0.000219972 -0.000595963 -0.000426412)
(-0.00638543 -8.96877e-05 -0.00245469)
(-0.00174017 -5.34675e-05 -0.00029062)
(-0.00670968 -0.000483765 0.00156635)
(-0.00335439 -0.0010662 -0.0011321)
)
;
    }
    procBoundary7to0
    {
        type            processor;
        value           uniform (3.08931e-05 -5.52372e-07 1.25236e-05);
    }
    procBoundary7to1
    {
        type            processor;
        value           uniform (1.364e-05 8.73707e-06 1.12476e-05);
    }
    procBoundary7to3
    {
        type            processor;
        value           nonuniform List<vector> 
36
(
(4.65853e-05 1.16178e-06 1.68722e-05)
(2.55776e-06 -3.01531e-06 5.60748e-06)
(-4.01716e-05 -7.89551e-06 -1.37054e-06)
(-0.0001318 -1.35253e-05 -2.75922e-05)
(-0.00026173 -1.60256e-05 -5.20997e-05)
(-0.000483521 -2.42839e-05 -0.000141573)
(-0.000832725 -2.12728e-05 -0.000240401)
(-0.0012974 -6.71419e-05 -0.000527467)
(-0.00190019 -0.000101671 -0.000774806)
(4.10842e-05 -6.6801e-06 1.6129e-05)
(4.49658e-06 -6.64762e-06 5.614e-06)
(-4.28028e-05 -3.31692e-06 -2.47806e-06)
(-0.000126196 2.78409e-06 -2.71809e-05)
(-0.000252989 1.68679e-05 -5.71227e-05)
(-0.00046664 4.41694e-05 -0.000147732)
(-0.000822531 8.72479e-05 -0.000271589)
(-0.00128125 0.000203937 -0.00050941)
(-0.00186277 0.000328928 -0.000754467)
(7.09837e-05 -2.05052e-05 1.2107e-05)
(2.25723e-05 -1.49001e-05 2.27917e-06)
(-6.17557e-06 -9.29816e-06 -4.82543e-06)
(-9.91567e-05 1.41752e-05 -3.6513e-05)
(-0.000185643 3.55227e-05 -6.8842e-05)
(-0.000424028 0.000109461 -0.00018292)
(-0.000746018 0.000166845 -0.000311629)
(-0.00142754 0.000461946 -0.000682372)
(-0.00227224 0.000701598 -0.00105365)
(9.27777e-05 -3.34439e-05 1.0733e-05)
(3.08557e-05 -2.93056e-05 -1.66459e-06)
(8.95929e-06 -2.64042e-05 -6.62546e-06)
(-9.21677e-05 4.86409e-06 -4.28169e-05)
(-0.000148292 3.28854e-05 -7.11876e-05)
(-0.000399257 0.000103569 -0.000187208)
(-0.000634121 0.000180615 -0.000325791)
(-0.00155253 0.000382789 -0.000758335)
(-0.00271626 0.000475946 -0.00119362)
)
;
    }
    procBoundary7to5
    {
        type            processor;
        value           nonuniform List<vector> 
44
(
(-1.70862e-05 1.7038e-06 5.69403e-06)
(-6.404e-05 -6.76936e-06 2.30928e-06)
(-0.000140509 -1.84739e-05 -8.8539e-06)
(-0.000270523 -3.67295e-05 -2.05662e-05)
(-0.000466912 -6.39985e-05 -5.56391e-05)
(-0.000800165 -0.000107322 -0.000100132)
(-0.00117494 -0.000186571 -0.00019248)
(-0.00168519 -0.000256192 -0.000271523)
(5.8043e-06 -3.92493e-06 2.36575e-06)
(-2.59274e-05 -5.78297e-06 2.4758e-06)
(-5.58335e-05 -7.14519e-06 8.83941e-06)
(-0.000131725 -2.03042e-05 9.97106e-06)
(-0.000240952 -3.65829e-05 1.4684e-05)
(-0.000438819 -7.28107e-05 2.69965e-05)
(-0.000752373 -0.000105035 3.85092e-05)
(-0.0011531 -0.000234636 0.00013696)
(-0.0017461 -0.000353071 0.000232086)
(5.8043e-06 -3.92493e-06 2.36575e-06)
(-2.59274e-05 -5.78297e-06 2.4758e-06)
(-2.59274e-05 -5.78297e-06 2.4758e-06)
(-5.15387e-05 -1.44156e-05 3.41658e-06)
(-0.000126789 -2.05327e-05 1.46311e-05)
(-0.000214136 -3.80449e-05 3.61957e-05)
(-0.000410962 -7.72396e-05 8.76708e-05)
(-0.000717668 -0.000126057 0.00015242)
(-0.00125173 -0.000258304 0.000412419)
(-0.00194493 -0.000361378 0.000593268)
(1.52291e-05 -4.55432e-06 -2.95794e-06)
(-2.18195e-05 -9.32494e-06 2.50095e-07)
(-5.15387e-05 -1.44156e-05 3.41658e-06)
(-0.000126789 -2.05327e-05 1.46311e-05)
(-0.000126789 -2.05327e-05 1.46311e-05)
(-0.000165578 -3.49054e-05 2.93907e-05)
(-0.000382321 -7.04406e-05 9.02279e-05)
(-0.000564669 -0.000117037 0.000171468)
(-0.00142755 -0.000278685 0.000513667)
(-0.0025412 -0.000443477 0.000815053)
(3.68975e-05 -1.12597e-05 -9.15466e-06)
(-9.3884e-06 -1.69364e-05 -2.85968e-06)
(-2.37254e-05 -1.95304e-05 -3.07012e-06)
(-0.000109132 -3.11256e-05 1.88567e-05)
(-0.000165578 -3.49054e-05 2.93907e-05)
(-0.000382321 -7.04406e-05 9.02279e-05)
(-0.000382321 -7.04406e-05 9.02279e-05)
)
;
    }
    procBoundary7to6
    {
        type            processor;
        value           nonuniform List<vector> 
12
(
(3.64595e-05 -9.41728e-06 9.96932e-06)
(5.27772e-05 -1.83772e-05 5.15357e-06)
(6.50895e-05 -3.10575e-05 3.12236e-07)
(2.15654e-05 -1.06309e-05 2.64164e-06)
(2.36526e-05 -2.09431e-05 8.63635e-07)
(2.01613e-05 -2.94473e-05 -2.63329e-06)
(1.82685e-05 -1.2787e-05 -5.04257e-06)
(2.03158e-05 -2.22591e-05 -6.92074e-06)
(2.81535e-05 -3.02945e-05 -7.38798e-06)
(2.43564e-05 -1.61509e-05 -9.99071e-06)
(2.6712e-05 -2.41759e-05 -1.47466e-05)
(3.30604e-05 -3.1603e-05 -1.69318e-05)
)
;
    }
}


// ************************************************************************* //
