/*--------------------------------*- C++ -*----------------------------------*\
| =========                 |                                                 |
| \\      /  F ield         | OpenFOAM: The Open Source CFD Toolbox           |
|  \\    /   O peration     | Version:  4.x                                   |
|   \\  /    A nd           | Web:      www.OpenFOAM.org                      |
|    \\/     M anipulation  |                                                 |
\*---------------------------------------------------------------------------*/
FoamFile
{
    version     2.0;
    format      ascii;
    class       volVectorField;
    location    "45";
    object      impParticleForces;
}
// * * * * * * * * * * * * * * * * * * * * * * * * * * * * * * * * * * * * * //

dimensions      [1 1 -2 0 0 0 0];

internalField   nonuniform List<vector> 
132
(
(0.00241248 1.23608e-05 -2.87418e-05)
(0.00244287 1.41095e-05 -2.37408e-05)
(0.00240789 1.38863e-05 -1.89108e-05)
(0.00243126 1.2846e-05 -1.40732e-05)
(0.00241334 1.12664e-05 -9.38383e-06)
(0.0024246 1.06614e-05 -4.632e-06)
(0.00234676 9.46002e-06 -3.51942e-06)
(0.00231136 9.32404e-06 -2.61834e-06)
(0.00223846 1.08147e-05 -9.35924e-06)
(0.0024106 1.14054e-05 -2.9916e-05)
(0.00245948 1.15909e-05 -2.54979e-05)
(0.0024138 1.1081e-05 -2.11804e-05)
(0.00242822 1.06583e-05 -1.71326e-05)
(0.00240217 1.0827e-05 -1.36979e-05)
(0.00241294 1.17776e-05 -1.03145e-05)
(0.00235481 1.62778e-05 -1.04655e-05)
(0.00232827 1.9997e-05 -1.02035e-05)
(0.00224688 3.22608e-05 -1.6846e-05)
(0.002417 1.10571e-05 -3.24545e-05)
(0.00246173 9.97091e-06 -2.87806e-05)
(0.00242583 9.15123e-06 -2.53032e-05)
(0.00244412 8.73285e-06 -2.23862e-05)
(0.00242316 1.0535e-05 -2.0708e-05)
(0.00245113 1.16882e-05 -1.93048e-05)
(0.00238342 1.97892e-05 -2.06419e-05)
(0.00235442 2.55673e-05 -2.12306e-05)
(0.00224985 4.27671e-05 -3.18854e-05)
(0.00240176 9.90113e-06 -3.40179e-05)
(0.00241715 8.25667e-06 -3.03827e-05)
(0.00240378 7.07773e-06 -2.76535e-05)
(0.00240187 6.87219e-06 -2.46599e-05)
(0.00240302 8.05183e-06 -2.4357e-05)
(0.00241084 1.11844e-05 -2.27046e-05)
(0.00235473 1.83615e-05 -2.55127e-05)
(0.00233277 2.69131e-05 -2.57565e-05)
(0.00222977 3.62062e-05 -3.7113e-05)
(0.00237841 8.63613e-06 -1.38105e-05)
(0.00240352 7.72468e-06 -8.92832e-06)
(0.00237116 6.67296e-06 -4.08515e-06)
(0.00238028 5.73533e-06 1.90227e-06)
(0.00232674 5.02235e-06 6.65422e-06)
(0.00230774 5.81305e-06 1.34468e-05)
(0.00222355 3.84263e-06 1.77851e-05)
(0.00237905 7.95919e-06 -2.40261e-05)
(0.00242136 7.52669e-06 -2.04235e-05)
(0.00238211 6.93233e-06 -1.66869e-05)
(0.00240255 6.14865e-06 -1.27011e-05)
(0.00237702 5.94935e-06 -8.65959e-06)
(0.00237897 6.56828e-06 -4.19483e-06)
(0.00231965 8.63808e-06 -9.25326e-07)
(0.00230432 1.27805e-05 4.01256e-06)
(0.00221794 1.74908e-05 6.05159e-06)
(0.00239135 8.22735e-06 -2.63788e-05)
(0.00242878 6.28987e-06 -2.34164e-05)
(0.00238927 5.42194e-06 -2.01259e-05)
(0.0024011 4.42441e-06 -1.67551e-05)
(0.00238366 4.99304e-06 -1.37292e-05)
(0.0023972 6.02364e-06 -1.02607e-05)
(0.00233454 1.02141e-05 -8.16666e-06)
(0.00230153 1.54478e-05 -5.05667e-06)
(0.00221322 2.30277e-05 -4.67685e-06)
(0.00237056 7.86644e-06 -2.79341e-05)
(0.00238766 5.56439e-06 -2.49942e-05)
(0.00236238 4.3404e-06 -2.2334e-05)
(0.00237206 3.20881e-06 -1.92437e-05)
(0.00234764 3.92374e-06 -1.65611e-05)
(0.00234672 5.62726e-06 -1.38174e-05)
(0.00229687 9.96092e-06 -1.26754e-05)
(0.00226754 1.55294e-05 -1.04573e-05)
(0.0021854 2.03846e-05 -1.20356e-05)
(0.00235798 1.74922e-06 -3.43721e-07)
(0.00237165 4.22717e-07 5.73523e-06)
(0.00232958 -1.31372e-06 1.32675e-05)
(0.00231257 -2.21961e-06 2.17055e-05)
(0.00221768 -4.15635e-06 3.79981e-05)
(0.00238312 5.34481e-06 -1.8901e-05)
(0.00241283 4.64209e-06 -1.61782e-05)
(0.00237205 3.37856e-06 -1.3019e-05)
(0.00238953 1.91328e-06 -9.3481e-06)
(0.00236412 8.50794e-07 -5.14801e-06)
(0.00237372 -3.74355e-08 -2.20937e-07)
(0.00232172 9.35378e-07 5.18513e-06)
(0.00231281 2.14964e-06 1.20228e-05)
(0.00221735 1.00754e-05 2.33231e-05)
(0.00238915 6.51018e-06 -2.09703e-05)
(0.00241358 4.53454e-06 -1.86138e-05)
(0.00238223 2.86069e-06 -1.59359e-05)
(0.00240434 8.44932e-07 -1.30827e-05)
(0.00237677 2.39827e-07 -9.31149e-06)
(0.00238686 -1.00839e-06 -5.73825e-06)
(0.00232842 1.98238e-06 -1.09494e-06)
(0.00231192 3.27921e-06 3.03654e-06)
(0.00220898 1.27724e-05 1.19608e-05)
(0.00235676 6.50581e-06 -2.22487e-05)
(0.00237005 4.12315e-06 -1.97834e-05)
(0.00234914 2.12039e-06 -1.74567e-05)
(0.00237039 1.19594e-07 -1.46416e-05)
(0.00234278 -7.60576e-07 -1.16808e-05)
(0.00235105 -8.46436e-07 -8.47926e-06)
(0.00229596 1.12484e-06 -5.29489e-06)
(0.00226446 4.67016e-06 -2.00974e-06)
(0.00217689 7.69626e-06 4.10851e-06)
(0.00230571 -6.16792e-06 1.59998e-05)
(0.0023033 -6.53272e-06 2.57816e-05)
(0.00220066 -1.14715e-05 4.11675e-05)
(0.00235478 3.62109e-06 -1.6212e-05)
(0.00237101 2.62033e-06 -1.40167e-05)
(0.00234822 1.09086e-06 -1.13187e-05)
(0.00237028 -6.5185e-07 -8.36963e-06)
(0.00233179 -2.23998e-06 -4.0155e-06)
(0.00233163 -3.23838e-06 1.42288e-07)
(0.00229203 -3.86248e-06 6.3974e-06)
(0.00227737 -2.08505e-06 1.23941e-05)
(0.002186 -7.61628e-07 2.30166e-05)
(0.00235003 5.24424e-06 -1.85366e-05)
(0.00235761 3.27646e-06 -1.66362e-05)
(0.00234437 1.30436e-06 -1.47468e-05)
(0.00237621 -9.87578e-07 -1.27526e-05)
(0.00233815 -2.35844e-06 -9.7066e-06)
(0.00232524 -3.1196e-06 -5.81566e-06)
(0.00228575 -2.53993e-06 -2.28052e-06)
(0.00226915 -8.16254e-07 3.21073e-06)
(0.00217984 1.61011e-06 8.58108e-06)
(0.00232987 5.46657e-06 -2.00329e-05)
(0.00234484 3.16957e-06 -1.81246e-05)
(0.00232827 9.38856e-07 -1.63878e-05)
(0.00235898 -1.37907e-06 -1.45855e-05)
(0.00232968 -3.07572e-06 -1.24148e-05)
(0.00230246 -2.91865e-06 -8.6337e-06)
(0.00225604 -2.439e-06 -6.32486e-06)
(0.00223106 5.2096e-08 -1.52015e-06)
(0.00215664 -1.4924e-06 -1.18578e-06)
)
;

boundaryField
{
    inlet
    {
        type            zeroGradient;
    }
    outlet
    {
        type            zeroGradient;
    }
    wall
    {
        type            zeroGradient;
    }
    procBoundary7to0
    {
        type            processor;
        value           uniform (0.00240025 9.73911e-06 -3.40256e-05);
    }
    procBoundary7to1
    {
        type            processor;
        value           uniform (0.00241339 1.46042e-05 -2.83496e-05);
    }
    procBoundary7to3
    {
        type            processor;
        value           nonuniform List<vector> 
36
(
(0.00245643 1.71475e-05 -3.46739e-05)
(0.00249698 1.94553e-05 -2.88068e-05)
(0.00246485 1.9003e-05 -2.3718e-05)
(0.00248794 1.68543e-05 -1.8632e-05)
(0.00244179 1.43713e-05 -1.49994e-05)
(0.00245334 1.2444e-05 -1.12921e-05)
(0.00239629 1.13222e-05 -1.38689e-05)
(0.00236784 1.22589e-05 -1.70434e-05)
(0.00228377 1.03353e-05 -3.40491e-05)
(0.00245606 1.45897e-05 -3.52752e-05)
(0.00247984 1.51009e-05 -2.94104e-05)
(0.0024548 1.48439e-05 -2.47614e-05)
(0.00245228 1.42305e-05 -2.03517e-05)
(0.00242531 1.43331e-05 -1.7233e-05)
(0.00245236 1.64476e-05 -1.46832e-05)
(0.00239747 2.00191e-05 -1.79495e-05)
(0.0023776 2.77185e-05 -2.31493e-05)
(0.00227897 3.57111e-05 -3.82696e-05)
(0.00246408 1.33946e-05 -3.73904e-05)
(0.0025031 1.25926e-05 -3.26235e-05)
(0.00247151 1.19348e-05 -2.81029e-05)
(0.00248092 1.1819e-05 -2.4263e-05)
(0.00245795 1.38561e-05 -2.2517e-05)
(0.0024885 1.79965e-05 -2.23624e-05)
(0.00243326 2.63702e-05 -2.73526e-05)
(0.00240705 3.88364e-05 -3.6537e-05)
(0.00229608 5.77813e-05 -5.67224e-05)
(0.00243511 1.20859e-05 -3.83271e-05)
(0.00244519 1.06001e-05 -3.33737e-05)
(0.00243398 9.46743e-06 -2.97836e-05)
(0.00245372 9.09398e-06 -2.67226e-05)
(0.00245138 1.13165e-05 -2.63919e-05)
(0.00246847 1.56427e-05 -2.64733e-05)
(0.00240484 2.56143e-05 -3.32195e-05)
(0.00239474 3.88624e-05 -4.41984e-05)
(0.00229193 5.455e-05 -6.65195e-05)
)
;
    }
    procBoundary7to5
    {
        type            processor;
        value           nonuniform List<vector> 
44
(
(0.00244692 1.8342e-05 -2.30336e-05)
(0.00240981 1.81337e-05 -1.78166e-05)
(0.00243442 1.64498e-05 -1.26883e-05)
(0.00239611 1.302e-05 -8.11909e-06)
(0.00239468 9.81466e-06 -3.17427e-06)
(0.00234554 5.66722e-06 -7.31183e-07)
(0.00231551 1.73936e-06 5.17812e-07)
(0.00224154 -4.14162e-06 -3.55564e-06)
(0.00238797 7.85711e-06 -2.23235e-05)
(0.00239737 8.76979e-06 -1.82272e-05)
(0.00238652 1.10908e-05 -1.18598e-05)
(0.00241342 1.04792e-05 -6.52152e-06)
(0.00237406 8.21592e-06 -1.217e-06)
(0.00238642 5.86437e-06 5.39395e-06)
(0.00232992 1.82686e-06 1.15255e-05)
(0.00231117 -1.83746e-06 1.93939e-05)
(0.00222935 -9.6679e-06 2.58767e-05)
(0.00238797 7.85711e-06 -2.23235e-05)
(0.00239737 8.76979e-06 -1.82272e-05)
(0.00239737 8.76979e-06 -1.82272e-05)
(0.00238445 4.01268e-06 -9.76738e-06)
(0.00240436 3.02962e-06 -5.53457e-06)
(0.00239023 3.24923e-06 3.45895e-06)
(0.00239703 1.45681e-06 1.0343e-05)
(0.00234781 -2.58861e-06 1.94416e-05)
(0.0023365 -7.15537e-06 3.23058e-05)
(0.00224566 -1.65692e-05 5.19405e-05)
(0.00237427 4.18999e-06 -1.68891e-05)
(0.00242074 4.68164e-06 -1.35604e-05)
(0.00238445 4.01268e-06 -9.76738e-06)
(0.00240436 3.02962e-06 -5.53457e-06)
(0.00240436 3.02962e-06 -5.53457e-06)
(0.00235782 -2.66476e-06 1.64776e-06)
(0.00234776 -3.54829e-06 7.33821e-06)
(0.00232987 -5.89447e-06 2.25719e-05)
(0.0023202 -8.91133e-06 3.24278e-05)
(0.00222789 -1.87298e-05 5.60083e-05)
(0.00234605 1.96579e-06 -1.40895e-05)
(0.00237279 1.94849e-06 -1.11678e-05)
(0.00235716 1.03527e-06 -7.83702e-06)
(0.00237325 -2.51865e-07 -4.00271e-06)
(0.00235782 -2.66476e-06 1.64776e-06)
(0.00234776 -3.54829e-06 7.33821e-06)
(0.00234776 -3.54829e-06 7.33821e-06)
)
;
    }
    procBoundary7to6
    {
        type            processor;
        value           nonuniform List<vector> 
12
(
(0.00242922 1.12159e-05 -3.50029e-05)
(0.00244771 1.27083e-05 -3.72426e-05)
(0.00240366 1.19533e-05 -3.77753e-05)
(0.00241604 8.04451e-06 -2.79949e-05)
(0.00242986 9.92656e-06 -3.01332e-05)
(0.00239945 1.02945e-05 -3.12091e-05)
(0.00240871 5.99353e-06 -2.1561e-05)
(0.00242425 8.90837e-06 -2.31317e-05)
(0.00238416 9.17687e-06 -2.45184e-05)
(0.00236766 4.47821e-06 -1.82035e-05)
(0.00237843 7.26798e-06 -2.02078e-05)
(0.00236307 8.02578e-06 -2.17411e-05)
)
;
    }
}


// ************************************************************************* //
