/*--------------------------------*- C++ -*----------------------------------*\
| =========                 |                                                 |
| \\      /  F ield         | OpenFOAM: The Open Source CFD Toolbox           |
|  \\    /   O peration     | Version:  4.x                                   |
|   \\  /    A nd           | Web:      www.OpenFOAM.org                      |
|    \\/     M anipulation  |                                                 |
\*---------------------------------------------------------------------------*/
FoamFile
{
    version     2.0;
    format      ascii;
    class       volScalarField;
    location    "45";
    object      p;
}
// * * * * * * * * * * * * * * * * * * * * * * * * * * * * * * * * * * * * * //

dimensions      [1 -1 -2 0 0 0 0];

internalField   nonuniform List<scalar> 
132
(
20.6048
74.4987
1.92319
68.068
-16.7068
62.2354
-35.3118
57.5369
-50.8426
20.5663
74.6133
1.86221
67.8417
-16.368
60.9299
-33.9927
54.6546
-49.3381
18.8713
74.4199
-0.804325
68.0408
-21.0433
62.6844
-42.3814
59.9293
-64.3424
19.4194
74.5124
-0.0727434
68.2245
-20.1827
62.8209
-41.4243
59.6629
-63.5225
-1874.32
-1809.88
-1892.49
-1815.65
-1910.41
-1821.55
-1926.91
-1855.4
-1803.27
-1873.37
-1809.65
-1891.4
-1815.66
-1909.55
-1822.02
-1927.14
-1857.05
-1803.32
-1875.29
-1809.83
-1892.96
-1815.92
-1910.16
-1822.24
-1924.31
-1856.96
-1802.8
-1875.25
-1809.19
-1893.4
-1815.66
-1910.51
-1822.52
-1924.83
-3773.33
-3694.14
-3792.34
-3699.09
-3809.91
-3734.77
-3681.22
-3753.25
-3687.95
-3771.4
-3694.88
-3789.32
-3701.36
-3805.17
-3735.42
-3681.32
-3754.6
-3687.9
-3774.27
-3693.69
-3796.15
-3697.23
-3819.97
-3735.27
-3681.22
-3754.01
-3687.7
-3773.7
-3693.47
-3794.01
-3697.46
-3817.24
-5672.89
-5575.17
-5695.68
-5612.77
-5559.09
-5631.38
-5565.61
-5650.3
-5571.62
-5669.03
-5576.92
-5687.87
-5613.09
-5559.13
-5631.73
-5565.48
-5650.82
-5571.13
-5670.04
-5575.5
-5690.52
-5612.79
-5559.02
-5631.31
-5565.4
-5650.04
-5571.44
-5668.28
-5576.9
-5685.26
)
;

boundaryField
{
    inlet
    {
        type            calculated;
        value           nonuniform 0();
    }
    outlet
    {
        type            calculated;
        value           nonuniform List<scalar> 
16
(
0
0
0
0
-1877.91
-1877.91
-1877.91
-1877.91
-3755.83
-3755.83
-3755.83
-3755.83
-5633.74
-5633.74
-5633.74
-5633.74
)
;
    }
    wall
    {
        type            calculated;
        value           nonuniform List<scalar> 
66
(
-6551.73
-6552.04
-6551.75
-6498.04
-6498.09
-6497.97
-6570.34
-6570.69
-6570.26
-6504.56
-6504.44
-6504.35
-6589.25
-6589.77
-6589
-6510.58
-6510.08
-6510.4
-6611.85
-6607.98
-6608.99
-6607.24
-6514.13
-6515.88
-6514.46
-6515.86
-6634
-6626.22
-6628.35
-6623.65
19.4194
-1856.96
-3735.27
-5612.79
74.5124
-1802.8
-3681.22
-5559.02
-0.0727434
-1875.25
-3754.01
-5631.31
68.2245
-1809.19
-3687.7
-5565.4
-20.1827
-1893.4
-3773.7
-5650.04
62.8209
-1815.66
-3693.47
-5571.44
-41.4243
-1910.51
-3794.01
-5668.28
59.6629
-1822.52
-3697.46
-5576.9
-63.5225
-1924.83
-3817.24
-5685.26
)
;
    }
    procBoundary7to0
    {
        type            processor;
        value           uniform 81.6549;
    }
    procBoundary7to1
    {
        type            processor;
        value           uniform 22.1648;
    }
    procBoundary7to3
    {
        type            processor;
        value           nonuniform List<scalar> 
36
(
1896.8
1952.38
1877.49
1945.96
1858.06
1940.62
1839.04
1936.58
1822.41
1898.88
1952.5
1880.78
1946.34
1862.99
1940.73
1845.2
1934.91
1829.37
1897.57
1952.53
1878.46
1945.86
1859.29
1940.07
1839.79
1935.74
1822.56
1897.69
1952.65
1878.79
1946.53
1859.23
1940.99
1838.53
1936.87
1815.53
)
;
    }
    procBoundary7to5
    {
        type            processor;
        value           nonuniform List<scalar> 
44
(
74.8225
4.62611
68.1706
-12.6598
61.4395
-29.5451
53.65
-44.5568
-1856.42
-1803.42
-1875.34
-1809.97
-1894.06
-1815.89
-1912.93
-1820.59
-1930.62
-1856.42
-1803.42
-1803.42
-3754.26
-3688.05
-3772.3
-3694.82
-3790.18
-3701.43
-3805.91
-3735.37
-3681.24
-3754.26
-3688.05
-3688.05
-5652.13
-5571.29
-5673.67
-5575.04
-5698.14
-5613.43
-5559.2
-5632.43
-5565.59
-5652.13
-5571.29
-5571.29
)
;
    }
    procBoundary7to6
    {
        type            processor;
        value           nonuniform List<scalar> 
12
(
81.8216
81.3069
81.3234
-1796.41
-1796.2
-1796.15
-3673.94
-3674.26
-3674.37
-5552.2
-5552.3
-5552.29
)
;
    }
}


// ************************************************************************* //
