/*--------------------------------*- C++ -*----------------------------------*\
| =========                 |                                                 |
| \\      /  F ield         | OpenFOAM: The Open Source CFD Toolbox           |
|  \\    /   O peration     | Version:  4.x                                   |
|   \\  /    A nd           | Web:      www.OpenFOAM.org                      |
|    \\/     M anipulation  |                                                 |
\*---------------------------------------------------------------------------*/
FoamFile
{
    version     2.0;
    format      ascii;
    class       surfaceScalarField;
    location    "45";
    object      phi;
}
// * * * * * * * * * * * * * * * * * * * * * * * * * * * * * * * * * * * * * //

dimensions      [0 3 -1 0 0 0 0];

internalField   nonuniform List<scalar> 
308
(
5.444e-06
1.66142e-08
5.55147e-06
8.16345e-08
5.41236e-06
2.74286e-08
-3.96328e-08
5.42851e-06
1.0039e-07
7.74928e-08
5.15175e-06
4.69491e-08
-2.76893e-09
5.26018e-06
3.3652e-08
2.96471e-07
4.3985e-06
4.20823e-07
-2.3212e-12
5.15367e-06
-7.30107e-07
8.14321e-07
2.08682e-06
-1.75866e-08
5.24679e-06
1.39625e-07
-2.85249e-11
5.31063e-06
9.97124e-08
-8.5358e-09
5.13861e-06
1.9945e-07
-1.50514e-12
5.39436e-06
-1.46825e-08
5.59049e-08
5.02711e-06
4.16184e-07
-1.51585e-08
5.83836e-06
-4.27562e-07
1.83169e-07
5.12809e-06
1.13279e-06
-4.62162e-08
6.28225e-06
-1.45852e-06
3.62154e-07
3.48098e-06
2.38291e-07
7.55553e-06
4.89886e-08
-1.31158e-07
7.65426e-06
1.22113e-08
-6.73237e-08
7.77886e-06
6.94715e-08
-2.0914e-07
7.93218e-06
-1.36516e-07
-7.60602e-08
8.07936e-06
2.13272e-07
-3.65415e-07
8.17454e-06
-4.41081e-07
3.85423e-08
8.40601e-06
5.68461e-07
-6.24689e-07
8.19641e-06
-9.60245e-07
6.27239e-07
1.59035e-06
-8.80688e-07
9.59758e-06
-3.68594e-07
9.62092e-06
-2.62128e-07
9.69021e-06
-4.70434e-07
9.61118e-06
-2.15928e-07
9.67207e-06
-5.92117e-07
9.29962e-06
3.15413e-08
9.48627e-06
-8.824e-07
8.68686e-06
8.20712e-07
-1.53082e-06
5.07974e-06
-8.00552e-13
5.15246e-06
-8.18598e-08
4.99459e-06
-7.18968e-13
1.06667e-07
5.07907e-06
2.75774e-08
1.59311e-07
4.45834e-06
-3.26437e-13
3.85199e-07
5.71306e-06
5.0579e-07
-2.349e-07
-3.53957e-07
2.2252e-06
4.97498e-06
7.44462e-13
8.33419e-09
5.03562e-06
-1.37567e-07
2.29377e-09
5.03562e-06
8.31677e-13
1.12795e-12
5.10759e-06
-1.37636e-07
3.97143e-08
5.08661e-06
8.28614e-13
5.81741e-09
5.17016e-06
5.20315e-08
7.51682e-08
4.98252e-06
4.36207e-13
1.41423e-07
5.74617e-06
2.3314e-07
-1.28852e-07
-2.22503e-07
8.7714e-07
5.1187e-06
-9.15639e-09
2.62049e-08
5.18124e-06
-2.44294e-07
-2.31371e-08
4.93891e-06
-1.45129e-08
4.77072e-08
5.01282e-06
-3.01034e-07
1.34234e-08
4.47908e-06
3.99144e-09
1.64333e-07
4.56318e-06
-8.88716e-08
9.53472e-08
3.51612e-06
6.90842e-10
4.21677e-07
4.37071e-06
1.28513e-07
-1.22717e-07
-8.81394e-08
1.49871e-06
7.42146e-06
-1.15373e-07
6.88079e-06
3.42446e-08
6.47967e-06
-8.38253e-08
5.87432e-06
8.83861e-08
5.20771e-06
7.84789e-08
4.98123e-06
1.69151e-07
3.82156e-06
2.7796e-07
4.65141e-06
1.19381e-07
1.31597e-06
5.88122e-06
-2.06413e-08
6.42617e-06
-9.51888e-08
5.93479e-06
7.59139e-08
6.83829e-07
7.02769e-06
-4.65261e-07
-7.65705e-07
1.13103e-06
2.98007e-06
5.2844e-06
5.82651e-08
4.44367e-08
5.30384e-06
4.82152e-08
3.18948e-09
5.19544e-06
6.88018e-08
3.09409e-08
5.32753e-06
-8.89995e-08
-1.08145e-08
5.04766e-06
1.57712e-07
1.07337e-07
5.66341e-06
-4.46268e-07
-1.89504e-07
5.06888e-06
5.16896e-07
2.94968e-07
6.47626e-06
-1.25103e-06
-7.50461e-07
2.65081e-06
1.19351e-06
6.92514e-06
5.11885e-08
-1.03056e-09
6.96873e-06
1.09508e-08
-2.94677e-08
7.15741e-06
-3.04366e-09
-6.91286e-08
7.39976e-06
-1.55734e-07
-1.6219e-07
7.81053e-06
-1.41199e-08
-7.46033e-08
8.18807e-06
-4.79616e-07
-2.48843e-07
9.06689e-06
1.01343e-07
-4.15908e-08
9.09645e-06
-8.89734e-07
-5.13581e-07
1.0868e-06
9.59938e-07
9.36118e-06
-5.03563e-08
9.36711e-06
3.92605e-08
9.35488e-06
-7.46338e-08
9.27901e-06
8.51916e-09
9.45608e-06
-1.12717e-07
9.15272e-06
-7.09715e-09
9.84644e-06
-3.14421e-07
9.1493e-06
-7.32127e-08
1.60097e-07
9.5211e-06
-8.18946e-07
9.02164e-06
2.31782e-07
-1.45555e-06
8.13905e-06
-3.75477e-08
8.06882e-06
-4.24432e-08
7.94813e-06
-1.00818e-07
7.91091e-06
-1.2661e-07
7.82255e-06
-2.21228e-07
7.67073e-06
-1.72795e-07
7.52477e-06
-3.78021e-07
7.06234e-06
-5.62511e-08
-5.56166e-07
9.13604e-06
-3.57677e-08
9.11528e-06
-5.11519e-08
9.03899e-06
-9.36577e-08
8.88444e-06
-1.34253e-07
8.82483e-06
-2.36217e-07
8.52405e-06
-1.20863e-07
8.55668e-06
-4.52239e-07
7.86278e-06
1.24066e-07
-1.10722e-06
1.03667e-05
1.03548e-05
1.01865e-05
1.00608e-05
9.71184e-06
9.58388e-06
8.81722e-06
8.86808e-06
)
;

boundaryField
{
    inlet
    {
        type            calculated;
        value           nonuniform 0();
    }
    outlet
    {
        type            calculated;
        value           nonuniform List<scalar> 
16
(
1.52951e-06
4.77191e-06
8.80831e-06
9.29843e-06
2.97322e-06
4.97587e-06
1.85695e-06
1.71648e-06
4.44124e-06
4.6401e-06
1.11992e-05
1.1392e-05
1.19015e-05
7.35647e-06
9.37377e-06
7.92095e-06
)
;
    }
    wall
    {
        type            calculated;
        value           nonuniform List<scalar> 
66
(
0
0
0
0
0
0
0
0
0
0
0
0
0
0
0
0
0
0
-2.46519e-32
0
0
-3.08149e-33
0
0
0
0
0
0
-9.86076e-32
0
0
-4.93038e-32
0
0
0
0
0
0
0
0
0
0
0
0
0
0
0
0
0
0
0
0
0
0
0
0
0
0
0
0
0
0
0
0
0
0
)
;
    }
    procBoundary7to0
    {
        type            processor;
        value           uniform -5.57496e-06;
    }
    procBoundary7to1
    {
        type            processor;
        value           uniform -1.73163e-08;
    }
    procBoundary7to3
    {
        type            processor;
        value           nonuniform List<scalar> 
36
(
1.5965e-07
2.86718e-08
1.79966e-07
-5.29552e-08
2.35235e-07
-3.72891e-07
4.40865e-07
-1.33346e-06
1.83495e-06
-5.552e-12
-7.33788e-08
-6.21125e-13
-1.96587e-07
1.31783e-08
-5.33211e-07
4.45251e-08
-7.87905e-07
-1.22108e-07
1.46702e-07
5.60929e-08
2.14515e-07
4.45746e-08
4.21148e-07
-1.20203e-07
9.57546e-07
-9.15912e-07
2.15942e-06
3.58666e-07
2.50998e-07
4.70613e-07
1.5844e-07
7.44503e-07
-1.00174e-07
1.26421e-06
-9.81543e-07
2.50959e-06
)
;
    }
    procBoundary7to5
    {
        type            processor;
        value           nonuniform List<scalar> 
44
(
-1.79269e-07
-2.86496e-08
-1.41084e-07
-2.65525e-09
-6.56635e-08
-3.57547e-12
4.94074e-07
-2.80019e-07
-2.79948e-08
-3.8501e-08
6.3273e-13
2.47836e-08
4.84287e-08
2.51039e-08
2.35533e-07
-7.11297e-07
8.51016e-07
7.2383e-13
-5.15538e-06
6.60945e-08
3.60122e-08
6.18522e-08
2.01749e-08
-1.47613e-07
1.1684e-07
-9.68395e-08
7.00556e-07
1.40512e-08
-6.85575e-08
8.65729e-09
-5.97692e-06
7.4423e-09
2.0283e-07
-1.42833e-07
8.59771e-07
-4.98027e-07
1.55573e-06
1.61019e-07
1.15855e-07
2.52452e-07
1.53019e-07
4.16925e-07
-8.87809e-06
1.35111e-07
)
;
    }
    procBoundary7to6
    {
        type            processor;
        value           nonuniform List<scalar> 
12
(
-5.36977e-06
-7.48044e-06
-9.53866e-06
-4.98334e-06
-5.26691e-06
-7.68383e-06
-5.39282e-06
-6.89082e-06
-9.375e-06
-8.21808e-06
-9.13885e-06
-1.04528e-05
)
;
    }
}


// ************************************************************************* //
