/*--------------------------------*- C++ -*----------------------------------*\
| =========                 |                                                 |
| \\      /  F ield         | OpenFOAM: The Open Source CFD Toolbox           |
|  \\    /   O peration     | Version:  4.x                                   |
|   \\  /    A nd           | Web:      www.OpenFOAM.org                      |
|    \\/     M anipulation  |                                                 |
\*---------------------------------------------------------------------------*/
FoamFile
{
    version     2.0;
    format      ascii;
    class       volScalarField;
    location    "26";
    object      KslNext;
}
// * * * * * * * * * * * * * * * * * * * * * * * * * * * * * * * * * * * * * //

dimensions      [1 -3 -1 0 0 0 0];

internalField   nonuniform List<scalar> 
114
(
3103.23
9362.24
3184.53
13554.4
3733.26
16335.9
27977.3
3519.45
51120.4
3411.13
46938.3
3372.28
25261.5
3838.79
54879
3907.63
90405.9
3866.63
139111
4264.61
9308.13
8001.48
3176.55
8874.4
3048.61
11213.2
2941.81
9130.5
2637.9
5127.05
47720.5
3634.49
159688
3756.08
57422.7
3781.36
45514.7
3543.89
7624.63
83631.2
3785.42
1e+10
4229.9
3.52222e+06
4540.99
10666.2
4954.98
18145
86462.1
3378.33
6970.05
3053.63
7077.14
2844.51
6896.24
2596.42
6881.41
2182.62
7145.62
16274.2
3414.49
17046.2
3242.37
19389
3018.63
13616
2624.73
5241.29
20890
3532.61
23064
3464.5
23132.5
3484.52
16375.8
3459.63
6799.75
96549.8
3564.33
1e+10
3570.47
5092.14
2754.72
4998.21
2545.27
4887.54
2266.22
5099.46
1800.68
7163.41
6699.79
3036.37
6430.24
2815.18
6817.59
2612.72
7027.95
2264.6
6363.11
7705.46
3185.73
8548.14
3055.19
9603.73
2893.1
8726.15
2622.4
9822.68
9445.62
3247.98
8754.49
3156.43
11579.8
3103.21
)
;

boundaryField
{
    inlet
    {
        type            zeroGradient;
    }
    outlet
    {
        type            zeroGradient;
    }
    wall
    {
        type            zeroGradient;
    }
    procBoundary5to1
    {
        type            processor;
        value           uniform 0;
    }
    procBoundary5to4
    {
        type            processor;
        value           uniform 0;
    }
    procBoundary5to7
    {
        type            processor;
        value           uniform 0;
    }
}


// ************************************************************************* //
