/*--------------------------------*- C++ -*----------------------------------*\
| =========                 |                                                 |
| \\      /  F ield         | OpenFOAM: The Open Source CFD Toolbox           |
|  \\    /   O peration     | Version:  4.x                                   |
|   \\  /    A nd           | Web:      www.OpenFOAM.org                      |
|    \\/     M anipulation  |                                                 |
\*---------------------------------------------------------------------------*/
FoamFile
{
    version     2.0;
    format      ascii;
    class       volScalarField;
    location    "26";
    object      rho;
}
// * * * * * * * * * * * * * * * * * * * * * * * * * * * * * * * * * * * * * //

dimensions      [1 -3 0 0 0 0 0];

internalField   nonuniform List<scalar> 
114
(
6699.91
6699.86
6699.78
6699.66
6699.44
6695.99
6699.76
6699.61
6699.46
6699.24
6699.08
6698.79
6698.25
6699.72
6699.53
6699.34
6699.17
6699.07
6699.01
6698.81
6699.67
6699.98
6699.95
6699.93
6699.9
6699.83
6699.75
6699.66
6699.53
6695.92
6699.89
6699.8
6699.65
6699.57
6699.49
6699.46
6699.55
6699.43
6700.37
6699.85
6699.73
6699.59
6699.44
6699.38
6699.48
6699.61
6699.62
6704.25
6699.81
6699.67
6699.99
6699.98
6699.96
6699.95
6699.91
6699.87
6699.79
6699.75
6692.68
6699.95
6699.9
6699.85
6699.78
6699.69
6699.62
6699.56
6699.58
6700.17
6699.93
6699.86
6699.79
6699.71
6699.6
6699.52
6699.5
6699.52
6701.03
6699.89
6699.78
6699.66
6699.52
6699.98
6699.98
6699.98
6699.97
6699.95
6699.93
6699.89
6699.86
6733.53
6699.98
6699.97
6699.96
6699.94
6699.91
6699.87
6699.79
6699.75
6698.51
6699.98
6699.96
6699.94
6699.91
6699.85
6699.79
6699.7
6699.63
6698.6
6699.97
6699.93
6699.91
6699.87
6699.8
6699.71
)
;

boundaryField
{
    inlet
    {
        type            calculated;
        value           nonuniform 0();
    }
    outlet
    {
        type            calculated;
        value           uniform 6700;
    }
    wall
    {
        type            calculated;
        value           nonuniform List<scalar> 
66
(
6699.98
6699.98
6699.98
6699.97
6699.98
6699.97
6699.96
6699.93
6699.98
6699.96
6699.94
6699.91
6699.97
6699.94
6699.91
6699.87
6699.95
6699.91
6699.85
6699.8
6699.93
6699.87
6699.79
6699.71
6699.89
6699.79
6699.7
6699.86
6699.75
6699.63
6733.53
6698.51
6698.6
6699.98
6699.99
6699.98
6699.95
6699.98
6699.98
6699.93
6699.96
6699.98
6699.91
6699.9
6699.95
6699.97
6699.86
6699.83
6699.91
6699.95
6699.78
6699.75
6699.87
6699.93
6699.66
6699.66
6699.79
6699.89
6699.44
6699.53
6699.75
6699.86
6695.99
6695.92
6692.68
6733.53
)
;
    }
    procBoundary5to1
    {
        type            processor;
        value           nonuniform List<scalar> 
32
(
6699.83
6699.71
6699.57
6699.31
6699.13
6692.16
6699.41
6699.01
6698.4
6698.11
6697.83
6697.92
6695.97
6699.28
6699.15
6698.84
6698.67
6698.47
6698.51
6698.32
6698.54
6699.99
6699.97
6699.94
6699.94
6699.94
6699.94
6699.85
6699.85
6699.85
6699.85
6699.85
)
;
    }
    procBoundary5to4
    {
        type            processor;
        value           nonuniform List<scalar> 
12
(
6699.99
6699.95
6699.92
6699.91
6700
6699.98
6699.96
6699.94
6699.99
6699.99
6699.99
6699.98
)
;
    }
    procBoundary5to7
    {
        type            processor;
        value           nonuniform List<scalar> 
44
(
6699.58
6699.41
6699.18
6698.93
6698.68
6698.75
6698.63
6701.98
6699.79
6699.58
6699.55
6699.39
6699.29
6699.28
6699.4
6699.57
6708.35
6699.71
6699.55
6699.56
6699.55
6699.39
6699.42
6699.43
6699.54
6699.69
6701.3
6699.91
6699.83
6699.74
6699.42
6699.62
6699.42
6699.43
6699.61
6699.5
6697.63
6699.97
6699.95
6699.92
6699.87
6699.8
6699.61
6699.7
)
;
    }
}


// ************************************************************************* //
