/*--------------------------------*- C++ -*----------------------------------*\
| =========                 |                                                 |
| \\      /  F ield         | OpenFOAM: The Open Source CFD Toolbox           |
|  \\    /   O peration     | Version:  4.x                                   |
|   \\  /    A nd           | Web:      www.OpenFOAM.org                      |
|    \\/     M anipulation  |                                                 |
\*---------------------------------------------------------------------------*/
FoamFile
{
    version     2.0;
    format      ascii;
    class       volScalarField;
    location    "26";
    object      Sm;
}
// * * * * * * * * * * * * * * * * * * * * * * * * * * * * * * * * * * * * * //

dimensions      [1 -3 -1 0 0 0 0];

internalField   nonuniform List<scalar> 
114
(
6.8199e-65
8.05995e-65
6.35501e-65
6.74252e-65
7.59501e-65
8.44749e-65
6.81979e-65
5.6574e-65
5.81246e-65
6.665e-65
8.215e-65
8.52498e-65
7.90496e-65
8.44708e-65
6.04482e-65
7.51741e-65
5.73497e-65
4.5725e-65
7.28498e-65
5.42497e-65
8.67993e-65
6.35486e-65
4.80494e-65
6.97491e-65
5.42497e-65
6.4325e-65
6.82003e-65
7.13003e-65
5.65752e-65
5.96751e-65
7.05233e-65
6.81986e-65
8.52488e-65
7.12996e-65
8.36999e-65
8.13752e-65
5.27001e-65
8.6025e-65
6.89748e-65
8.21482e-65
4.57241e-65
7.28489e-65
7.59496e-65
6.20001e-65
7.05251e-65
7.12999e-65
6.89747e-65
5.57997e-65
9.99732e-65
4.33995e-65
6.66494e-65
8.21497e-65
6.74249e-65
7.36252e-65
6.97504e-65
6.89755e-65
6.66505e-65
7.28505e-65
6.58753e-65
5.42495e-65
8.36993e-65
6.04499e-65
7.13001e-65
7.13003e-65
7.05253e-65
9.14505e-65
6.43252e-65
5.50251e-65
6.89742e-65
6.35496e-65
6.89749e-65
6.04502e-65
1.0075e-64
7.36253e-65
8.21502e-65
8.91249e-65
8.67997e-65
4.80497e-65
9.37747e-65
8.99001e-65
7.98253e-65
2.63501e-65
6.89753e-65
4.57253e-65
7.13006e-65
6.04505e-65
4.96005e-65
6.97506e-65
6.27755e-65
6.04504e-65
6.355e-65
6.58752e-65
4.34002e-65
5.65754e-65
7.44006e-65
6.51005e-65
4.57253e-65
7.05254e-65
6.04502e-65
6.12249e-65
6.43252e-65
8.52503e-65
6.97504e-65
5.89004e-65
8.06005e-65
6.51003e-65
6.74252e-65
6.82e-65
7.3625e-65
5.65751e-65
7.13003e-65
5.58004e-65
9.68757e-65
7.75005e-65
)
;

boundaryField
{
    inlet
    {
        type            calculated;
        value           nonuniform 0();
    }
    outlet
    {
        type            calculated;
        value           uniform 0;
    }
    wall
    {
        type            calculated;
        value           uniform 0;
    }
    procBoundary5to1
    {
        type            processor;
        value           nonuniform List<scalar> 
32
(
7.98231e-65
5.73494e-65
8.44749e-65
7.05251e-65
5.735e-65
4.18499e-65
5.65719e-65
6.12233e-65
6.97493e-65
6.97498e-65
6.58748e-65
7.20747e-65
4.41747e-65
6.35457e-65
5.11474e-65
9.06727e-65
8.29243e-65
8.75747e-65
6.81997e-65
7.90495e-65
3.48747e-65
6.58716e-65
5.26982e-65
8.05975e-65
8.05975e-65
8.05975e-65
7.05209e-65
9.99702e-65
9.99702e-65
9.99702e-65
5.73465e-65
5.73465e-65
)
;
    }
    procBoundary5to4
    {
        type            processor;
        value           nonuniform List<scalar> 
12
(
8.91232e-65
9.06725e-65
5.65738e-65
5.96739e-65
8.21495e-65
8.13743e-65
6.81994e-65
6.81997e-65
7.20752e-65
7.59499e-65
6.27749e-65
6.355e-65
)
;
    }
    procBoundary5to7
    {
        type            processor;
        value           nonuniform List<scalar> 
44
(
7.82723e-65
6.43237e-65
6.74245e-65
1.03075e-64
1.0385e-64
7.98246e-65
5.65745e-65
8.36992e-65
9.9196e-65
7.82723e-65
6.43245e-65
7.36248e-65
6.7425e-65
6.8975e-65
8.60247e-65
8.44744e-65
7.36243e-65
3.95246e-65
6.43245e-65
8.52493e-65
6.43245e-65
7.36248e-65
5.03752e-65
5.81252e-65
7.3625e-65
6.04498e-65
5.81245e-65
8.05999e-65
7.36249e-65
6.82002e-65
5.03752e-65
5.19253e-65
5.03752e-65
5.81252e-65
5.50251e-65
6.4325e-65
6.12248e-65
6.89751e-65
5.81253e-65
7.67254e-65
7.44006e-65
5.19255e-65
5.50251e-65
3.87503e-65
)
;
    }
}


// ************************************************************************* //
