/*--------------------------------*- C++ -*----------------------------------*\
  =========                 |
  \\      /  F ield         | OpenFOAM: The Open Source CFD Toolbox
   \\    /   O peration     | Website:  https://openfoam.org
    \\  /    A nd           | Version:  4.x
     \\/     M anipulation  |
\*---------------------------------------------------------------------------*/
FoamFile
{
    version     2.0;
    format      ascii;
    class       vectorField;
    location    0;
    object      v;
}
// * * * * * * * * * * * * * * * * * * * * * * * * * * * * * * * * * * * * * //

356
(
( 3.57612e-09 9.45277e-10 1.1064e-09 )  
( 9.4534e-10 -3.31707e-11 1.58805e-10 )  
( -9.8271e-09 5.46e-09 1.62416e-08 )  
( 1.47321e-09 1.08392e-09 6.64856e-10 )  
( -1.06419e-09 -7.91773e-10 7.73285e-10 )  
( 1.01008e-09 7.038e-10 2.34339e-09 )  
( 1.01437e-09 -4.09777e-11 1.5027e-09 )  
( 2.34874e-10 2.12702e-10 -1.59039e-12 )  
( 1.14245e-09 4.32681e-10 1.29902e-09 )  
( 8.16068e-10 4.26587e-10 5.02636e-10 )  
( 1.57283e-10 2.22345e-10 2.45344e-10 )  
( -1.22183e-09 3.83894e-10 -3.18671e-09 )  
( -2.5741e-10 7.47668e-10 1.90434e-09 )  
( 4.61014e-10 2.13298e-10 3.13864e-09 )  
( 1.8424e-09 4.5112e-10 3.17863e-10 )  
( -9.67281e-10 -4.11399e-11 1.27223e-09 )  
( -1.87263e-10 5.70549e-11 1.50073e-09 )  
( 2.39048e-09 -9.17719e-10 1.41974e-09 )  
( 1.84986e-09 -6.582e-10 6.54818e-11 )  
( 3.1332e-09 -1.51281e-09 5.25978e-09 )  
( 2.77112e-09 -1.87287e-09 3.92199e-09 )  
( -6.61033e-09 2.17609e-09 1.03058e-08 )  
( 1.31771e-09 1.92082e-10 3.86678e-10 )  
( 8.90576e-10 -4.37572e-10 -1.56029e-10 )  
( 7.29139e-10 1.88203e-11 2.33339e-09 )  
( 1.40809e-09 -9.3875e-11 6.90894e-11 )  
( 1.47202e-09 5.6263e-10 5.06508e-10 )  
( -6.78681e-11 -4.035e-10 3.05404e-09 )  
( 4.57352e-10 6.32756e-10 4.11948e-10 )  
( 3.87423e-09 5.25625e-10 2.60173e-09 )  
( -1.02225e-09 -8.27705e-10 2.12551e-09 )  
( 1.36477e-09 -6.41921e-10 -9.3954e-11 )  
( -4.19961e-09 4.69092e-09 9.773e-09 )  
( 3.71484e-10 4.63478e-10 5.36802e-10 )  
( 4.97589e-10 -2.31053e-10 -1.46683e-10 )  
( 4.7795e-10 2.59498e-10 1.09386e-09 )  
( 1.60664e-09 -6.07164e-10 3.59299e-10 )  
( 2.53875e-10 9.05724e-10 2.11223e-09 )  
( 1.46072e-09 -1.58652e-10 -9.65803e-10 )  
( 2.02377e-09 2.12856e-10 1.22339e-09 )  
( 9.70112e-10 5.45324e-12 -3.39996e-10 )  
( 1.32122e-09 -9.5784e-10 -3.27237e-10 )  
( 6.26674e-10 -4.13148e-10 2.09199e-10 )  
( 4.09648e-09 -2.87309e-09 4.791e-09 )  
( 1.82758e-09 -4.21403e-10 6.24162e-10 )  
( 5.22741e-10 -1.02451e-10 -7.05793e-10 )  
( -4.3019e-09 -2.44957e-09 5.66319e-09 )  
( 7.29237e-10 8.89643e-10 1.22626e-09 )  
( -5.10693e-11 -1.40729e-10 5.29313e-10 )  
( 3.79627e-09 -1.27638e-09 -3.55114e-09 )  
( 1.95861e-09 -2.25823e-10 1.5945e-10 )  
( 1.22971e-10 -3.75628e-11 -7.52908e-10 )  
( -7.19544e-11 2.13847e-10 1.02542e-09 )  
( 1.32387e-09 -3.54932e-10 2.67669e-10 )  
( 2.61969e-09 -1.71332e-10 1.07465e-10 )  
( 1.21507e-09 -3.49325e-10 1.12165e-10 )  
( 3.66367e-09 -1.03823e-09 -5.89618e-10 )  
( 1.12432e-09 -6.31759e-11 6.38043e-10 )  
( 6.44786e-10 4.47285e-10 5.25352e-10 )  
( 1.12456e-09 2.57617e-10 3.60419e-10 )  
( 4.77492e-10 3.65289e-10 5.00294e-10 )  
( -7.55154e-10 -1.05184e-10 -1.32886e-10 )  
( 2.54136e-10 6.1142e-10 3.41017e-10 )  
( 2.4987e-09 -7.19284e-10 -7.43786e-10 )  
( 8.97069e-10 -2.10208e-10 -8.61643e-10 )  
( 1.39011e-10 2.29649e-10 2.48197e-10 )  
( -1.74772e-09 7.55142e-09 8.09864e-09 )  
( 3.98323e-10 -3.36448e-10 1.54928e-11 )  
( -7.60149e-11 -2.02658e-10 7.76052e-10 )  
( 1.13359e-09 2.63619e-10 -5.78643e-10 )  
( 9.5263e-10 2.49849e-11 6.79448e-10 )  
( 1.95422e-09 -4.29157e-10 1.4764e-09 )  
( 1.36934e-09 -3.8739e-10 3.84576e-10 )  
( -8.85843e-10 -1.67157e-10 1.3146e-09 )  
( 3.94893e-10 5.118e-10 8.92388e-10 )  
( 1.68347e-09 1.40734e-09 1.41648e-09 )  
( 1.95286e-10 3.46791e-10 1.3125e-09 )  
( 2.2885e-09 4.59525e-10 6.27195e-10 )  
( 1.3532e-09 -3.37341e-10 5.21061e-10 )  
( 1.36655e-09 -5.80564e-10 1.41808e-10 )  
( 8.5919e-10 4.65467e-11 -3.51823e-10 )  
( 7.42579e-10 8.47588e-10 4.32867e-10 )  
( 6.00804e-10 1.22379e-10 4.27205e-10 )  
( 9.78175e-10 2.8115e-11 2.38518e-10 )  
( 3.43287e-10 5.78556e-10 2.48051e-10 )  
( 1.77415e-09 2.38824e-10 9.93049e-10 )  
( 1.1902e-09 8.00333e-10 4.65788e-10 )  
( 7.33825e-10 2.92493e-12 8.51832e-10 )  
( 1.20686e-10 2.24645e-10 5.95994e-10 )  
( 9.8526e-11 1.55097e-10 7.90471e-10 )  
( 1.74559e-10 4.28926e-10 1.76423e-09 )  
( 1.42635e-09 -1.20582e-09 -9.12401e-10 )  
( -9.76453e-10 2.30481e-10 8.90157e-10 )  
( 1.60698e-09 -1.54976e-09 5.01342e-09 )  
( 1.4496e-09 -3.94e-10 -8.42949e-10 )  
( 1.55235e-09 5.45833e-10 2.77332e-10 )  
( 5.91223e-11 6.14885e-10 6.30959e-10 )  
( 1.2781e-09 -1.17721e-10 1.78524e-10 )  
( -2.68149e-09 -7.3144e-10 4.9363e-09 )  
( -9.56115e-11 -4.82099e-11 8.94686e-10 )  
( -1.88197e-09 3.03784e-09 4.93992e-09 )  
( 2.4347e-09 -1.14797e-09 3.01147e-09 )  
( 6.52438e-10 1.87414e-10 1.13065e-09 )  
( 1.64203e-09 2.91415e-10 -8.81131e-10 )  
( -1.15768e-08 -4.33943e-09 9.46632e-09 )  
( 3.33739e-10 3.94966e-10 9.64304e-10 )  
( 1.28487e-09 -5.19536e-11 2.66671e-10 )  
( -1.80762e-10 1.04304e-09 1.00972e-09 )  
( 1.20248e-09 -1.26103e-09 -1.07631e-09 )  
( -2.95231e-10 3.37563e-11 1.46631e-09 )  
( -4.08921e-10 -1.84871e-10 6.77474e-10 )  
( -2.4393e-10 1.30633e-10 6.01636e-11 )  
( 7.6797e-10 2.16653e-10 8.35807e-10 )  
( -4.34988e-10 8.10807e-10 8.27016e-10 )  
( 1.50502e-09 7.38851e-11 5.86756e-10 )  
( 1.46399e-09 -3.18914e-09 6.41369e-09 )  
( 1.20495e-09 -7.99246e-10 -1.99566e-09 )  
( 7.79871e-11 1.08296e-10 1.2698e-09 )  
( -7.6209e-10 4.32344e-09 7.58948e-09 )  
( 1.53108e-10 -1.60133e-10 4.23834e-10 )  
( 1.93661e-09 3.28245e-10 3.01452e-09 )  
( -5.9739e-10 9.40703e-10 -9.74628e-11 )  
( -1.11242e-10 -3.75177e-10 -1.5956e-09 )  
( 8.74872e-10 3.19755e-11 5.10514e-10 )  
( 9.61501e-10 9.57239e-10 9.9005e-10 )  
( 1.16275e-10 3.59739e-10 1.95058e-10 )  
( 1.72566e-10 -4.22232e-10 2.78474e-10 )  
( 1.90844e-09 -4.87255e-10 2.33358e-10 )  
( 1.25943e-09 -1.61571e-10 1.09694e-10 )  
( 2.28776e-09 -7.35038e-10 -4.35138e-10 )  
( -4.49814e-10 6.97234e-10 2.33629e-09 )  
( 4.51061e-10 1.42792e-10 9.15906e-10 )  
( 2.01081e-09 -1.4739e-09 -4.40452e-10 )  
( 1.10633e-10 3.88648e-10 4.29443e-10 )  
( 9.05021e-10 4.70094e-11 -5.5687e-10 )  
( 4.02671e-10 1.10304e-09 1.01741e-09 )  
( 2.6096e-09 6.34831e-10 2.96284e-09 )  
( 9.82223e-10 3.07687e-10 2.89283e-10 )  
( 1.73674e-09 3.84495e-10 2.12067e-09 )  
( 9.03574e-10 -1.77329e-10 -2.64502e-10 )  
( 1.32985e-10 2.95788e-10 3.40357e-10 )  
( 1.11414e-09 -4.06743e-10 4.83827e-10 )  
( -3.48413e-10 3.24877e-10 1.1301e-09 )  
( -1.94179e-10 1.91879e-09 2.51479e-09 )  
( 1.79814e-10 3.84833e-10 2.15078e-10 )  
( 7.02131e-10 1.94496e-10 2.32407e-10 )  
( 1.14119e-09 1.73978e-10 1.46186e-10 )  
( 1.88226e-09 3.26168e-10 4.48708e-10 )  
( -2.20065e-11 1.9496e-10 6.27845e-10 )  
( 7.10441e-10 6.89324e-11 5.23372e-10 )  
( 5.11206e-10 1.50541e-10 4.11011e-10 )  
( -1.12828e-09 2.42438e-09 3.88744e-09 )  
( 7.5816e-10 1.95573e-10 1.0621e-11 )  
( 2.33854e-10 1.59312e-10 3.13124e-10 )  
( 6.53251e-10 1.14854e-09 2.47436e-09 )  
( 2.20781e-09 2.59619e-10 9.36101e-10 )  
( 1.05572e-10 3.00708e-10 1.04868e-09 )  
( 7.20919e-10 6.18686e-11 3.6293e-10 )  
( 2.70273e-10 3.65133e-10 4.0144e-10 )  
( 1.87224e-09 3.01783e-10 9.6363e-10 )  
( 1.23971e-09 1.91726e-10 3.66399e-10 )  
( 1.47576e-09 -3.38489e-12 4.99211e-10 )  
( 5.72135e-10 1.09367e-10 4.8512e-10 )  
( 1.1409e-09 2.74292e-10 2.76482e-10 )  
( 1.06056e-09 9.5303e-11 6.91882e-10 )  
( -1.89084e-09 1.04452e-09 2.72288e-09 )  
( 7.97256e-10 1.15812e-10 1.86659e-10 )  
( -2.55027e-10 8.02088e-10 1.71729e-09 )  
( -2.20025e-10 6.90054e-10 1.8687e-09 )  
( 1.99065e-09 1.97313e-10 6.86532e-10 )  
( 2.16636e-10 6.92304e-11 2.96055e-10 )  
( 1.72489e-11 1.64251e-10 2.66986e-10 )  
( 2.97707e-10 3.90244e-10 9.19326e-10 )  
( -1.47154e-09 8.60849e-10 4.31492e-09 )  
( 4.33451e-10 1.15175e-10 5.83129e-10 )  
( 7.86244e-10 1.41992e-09 3.04801e-09 )  
( 1.62364e-09 6.94016e-10 1.04088e-09 )  
( 4.26472e-10 2.59758e-10 3.80274e-10 )  
( -7.2362e-10 -1.93165e-10 2.29002e-09 )  
( 8.3427e-10 1.44092e-10 2.99558e-10 )  
( 8.95358e-10 7.35014e-10 8.87301e-10 )  
( 3.13989e-10 1.69654e-10 7.08704e-10 )  
( -3.10206e-10 1.48447e-09 2.748e-09 )  
( 1.1872e-09 2.56977e-10 2.05005e-10 )  
( 2.18754e-09 6.73198e-10 1.10993e-09 )  
( 9.34959e-10 7.32244e-12 2.29127e-10 )  
( 6.45957e-10 2.39867e-10 4.07983e-10 )  
( 7.36437e-10 2.10215e-10 3.68095e-10 )  
( -1.01394e-09 -1.92122e-09 7.85254e-09 )  
( 7.44294e-10 2.07503e-10 6.59901e-10 )  
( 7.99809e-10 3.91766e-11 6.81353e-10 )  
( 8.48454e-10 1.39968e-09 2.92665e-09 )  
( 5.89997e-10 8.57261e-11 2.96974e-10 )  
( 1.5206e-09 1.17612e-09 1.13096e-09 )  
( 1.23066e-09 4.7643e-10 2.85281e-10 )  
( -9.11542e-10 -5.06184e-10 2.8533e-09 )  
( -4.13596e-10 3.81651e-10 8.3594e-10 )  
( 4.02138e-10 5.38513e-11 7.67973e-11 )  
( 1.07041e-09 -3.27661e-11 4.33551e-10 )  
( 1.16798e-10 1.08773e-11 1.80667e-10 )  
( 4.50188e-10 2.506e-12 -1.40582e-10 )  
( 4.37639e-10 1.81904e-10 6.57678e-10 )  
( 1.31346e-10 1.31033e-10 5.11453e-10 )  
( 1.00806e-10 1.1466e-10 3.73818e-10 )  
( -2.85974e-10 5.36079e-10 1.13472e-09 )  
( 4.58446e-10 8.08067e-10 1.11048e-09 )  
( -9.8625e-10 2.10665e-09 3.7816e-09 )  
( 1.24269e-09 2.83557e-10 3.88546e-10 )  
( 1.13365e-10 8.26276e-11 3.80299e-10 )  
( 2.14795e-09 5.06127e-10 7.26701e-10 )  
( 3.65296e-10 -1.36556e-11 -6.76218e-11 )  
( 1.01155e-09 1.38897e-11 2.16704e-10 )  
( 2.83836e-10 5.0641e-11 3.72868e-10 )  
( 7.49241e-10 1.23727e-10 4.64817e-10 )  
( 4.97643e-10 1.50629e-10 5.13875e-10 )  
( 1.26297e-10 1.31223e-10 2.93473e-10 )  
( -1.39265e-09 3.38538e-09 3.54682e-09 )  
( 9.13574e-10 2.68691e-10 3.45066e-10 )  
( 1.37432e-10 5.79298e-10 9.96718e-10 )  
( 5.9825e-10 1.14266e-09 2.10594e-09 )  
( -1.26337e-10 1.48309e-10 3.51918e-10 )  
( 7.82717e-10 2.66614e-10 1.47363e-10 )  
( 5.605e-10 1.09669e-10 4.05048e-10 )  
( -2.13865e-10 1.32314e-10 4.45384e-10 )  
( 1.28552e-09 3.05638e-11 7.88291e-10 )  
( 6.39336e-10 -6.40444e-11 4.28999e-10 )  
( 1.126e-09 -4.36796e-10 5.00164e-10 )  
( 6.14942e-10 4.63961e-12 3.77184e-10 )  
( 2.85322e-11 1.11741e-10 2.27513e-10 )  
( 9.74908e-10 1.93835e-10 3.9779e-10 )  
( 1.56992e-09 -5.45033e-10 4.9585e-10 )  
( 1.05798e-09 -2.41137e-10 5.14685e-10 )  
( 4.43173e-10 8.46887e-11 3.73987e-10 )  
( 8.80492e-10 -3.94071e-10 4.84071e-10 )  
( 7.3855e-10 2.95639e-10 1.58769e-10 )  
( 1.35911e-09 -3.09342e-10 2.62177e-10 )  
( 2.1581e-09 6.66537e-10 1.10152e-09 )  
( 6.63208e-11 1.10867e-10 2.3437e-10 )  
( 9.64093e-10 -2.5875e-10 3.68828e-10 )  
( 6.24205e-10 -3.46728e-11 4.71341e-10 )  
( 2.12014e-09 9.4532e-10 1.39094e-09 )  
( 7.94429e-10 -7.06116e-11 3.15862e-10 )  
( 2.32164e-09 7.76987e-11 2.23008e-10 )  
( 2.05487e-09 1.32047e-10 6.7983e-10 )  
( 1.74409e-09 3.89353e-11 8.21343e-10 )  
( 1.50907e-09 8.58969e-11 5.99075e-10 )  
( 2.52378e-09 2.91624e-10 1.13327e-09 )  
( 5.22234e-10 2.40213e-11 3.30583e-10 )  
( -1.78524e-10 -5.5417e-10 -3.04841e-10 )  
( 7.39742e-10 5.13052e-11 3.81816e-10 )  
( 4.60842e-11 1.70097e-10 6.2472e-10 )  
( 7.12412e-10 2.97484e-10 8.29219e-10 )  
( 8.45207e-10 1.29345e-10 3.77077e-10 )  
( 9.35846e-10 -5.46997e-11 2.75244e-10 )  
( 1.40907e-10 3.20705e-10 1.6148e-10 )  
( 2.67045e-09 6.70047e-10 1.82137e-09 )  
( 1.5876e-09 -6.20972e-10 4.22777e-10 )  
( -5.43072e-10 -1.39342e-10 -3.39072e-11 )  
( 6.95604e-10 3.94349e-10 2.44642e-10 )  
( 3.65677e-10 -2.12784e-11 -5.00168e-10 )  
( 2.66004e-10 3.0635e-10 3.53175e-10 )  
( 2.08151e-09 -6.22142e-12 1.45599e-10 )  
( 7.92269e-10 6.85202e-11 3.21179e-10 )  
( 9.68538e-10 -3.23414e-10 5.92902e-10 )  
( 4.54085e-10 5.09907e-10 2.9078e-10 )  
( 6.33539e-10 1.09074e-10 6.68825e-10 )  
( -3.20287e-09 1.76382e-09 1.2051e-08 )  
( 6.97569e-10 -1.38902e-10 3.79166e-10 )  
( 3.15573e-09 -3.81205e-10 -3.63693e-09 )  
( 1.64847e-09 4.00182e-10 6.48304e-10 )  
( 1.44507e-09 3.79912e-10 9.37612e-10 )  
( -3.74313e-10 5.12371e-10 3.6464e-09 )  
( 2.32981e-09 1.23313e-09 9.09007e-10 )  
( 4.17383e-10 2.45494e-09 4.61563e-09 )  
( 1.07492e-09 -3.29316e-10 5.67699e-10 )  
( 1.15993e-09 4.43303e-11 3.10374e-10 )  
( 8.54835e-10 1.0499e-10 8.65448e-10 )  
( -1.99572e-09 -1.2889e-09 3.02029e-09 )  
( 1.45856e-09 1.0843e-09 1.50333e-09 )  
( 3.1769e-10 1.076e-10 3.56478e-10 )  
( 7.26712e-10 -4.91646e-11 5.83165e-10 )  
( 1.15764e-10 8.58449e-11 5.45443e-10 )  
( -3.23843e-10 -4.16669e-11 1.04525e-09 )  
( 9.41124e-10 -3.72378e-10 6.53118e-10 )  
( 1.06228e-09 1.02062e-10 2.78131e-10 )  
( 1.00648e-09 6.39536e-11 2.62483e-10 )  
( 1.31673e-09 2.43318e-10 7.55195e-10 )  
( -5.59705e-10 -3.67458e-10 -1.26077e-10 )  
( 8.69294e-11 7.11979e-11 3.31413e-10 )  
( 9.41557e-10 1.1678e-10 6.00679e-10 )  
( 3.36817e-10 2.91973e-10 4.82773e-10 )  
( 2.95215e-10 -6.41272e-11 6.33386e-10 )  
( 1.30837e-09 -6.6361e-11 7.39723e-10 )  
( 2.77245e-10 -1.67109e-09 8.99344e-09 )  
( 8.28106e-10 2.93514e-11 -8.27401e-12 )  
( 9.35425e-10 -6.85217e-11 2.86346e-10 )  
( -9.12531e-10 3.52609e-09 5.11684e-09 )  
( 4.4874e-10 2.16946e-10 6.18837e-10 )  
( 1.33464e-10 1.85104e-10 2.37976e-10 )  
( 5.37738e-10 4.44997e-11 1.47094e-11 )  
( 2.01396e-09 9.46563e-10 1.01693e-09 )  
( 4.9096e-10 4.13711e-11 4.55096e-11 )  
( 4.52056e-10 1.94458e-10 5.15645e-10 )  
( -3.90396e-10 -6.7569e-10 7.12755e-11 )  
( 1.45624e-09 -5.24014e-10 8.74534e-10 )  
( 6.36844e-09 -1.92878e-10 -2.43496e-09 )  
( 1.10694e-11 6.19542e-10 2.59889e-10 )  
( 4.9825e-10 2.00869e-09 8.53464e-10 )  
( 5.9767e-09 3.22706e-09 3.06851e-09 )  
( 3.37199e-09 2.78238e-09 7.99241e-10 )  
( -1.73705e-09 8.29119e-10 1.02563e-09 )  
( -1.4018e-09 9.64995e-10 -2.77011e-10 )  
( 7.21439e-09 -5.88438e-09 8.82683e-09 )  
( 3.46199e-09 -3.09522e-09 3.87183e-09 )  
( 2.49114e-09 1.0394e-09 2.88179e-10 )  
( -1.00129e-09 6.76664e-10 -8.23695e-11 )  
( -1.01313e-09 6.84759e-10 7.56258e-10 )  
( 3.26668e-09 -2.4041e-09 -1.33898e-10 )  
( 1.8322e-09 -7.32514e-10 4.24854e-10 )  
( 3.64527e-09 -5.61558e-10 2.98159e-09 )  
( 1.39702e-09 2.08386e-11 1.1503e-09 )  
( -1.17058e-09 6.26023e-10 7.91539e-10 )  
( 1.73929e-09 -1.22566e-09 4.35377e-10 )  
( 1.19643e-09 1.01836e-09 3.20383e-10 )  
( -2.78758e-09 -5.68598e-10 -7.06953e-10 )  
( 9.90397e-10 1.17423e-09 4.87978e-10 )  
( 1.20948e-09 -1.68201e-09 -9.69751e-11 )  
( 8.76982e-09 5.5841e-09 2.83181e-09 )  
( 7.01682e-10 9.09241e-10 3.80937e-10 )  
( 5.51077e-09 -2.19707e-09 -2.08495e-09 )  
( -1.61022e-09 4.62224e-10 1.78407e-09 )  
( 3.01733e-10 -5.42456e-10 8.2921e-10 )  
( 3.84276e-09 -2.11868e-09 2.49436e-09 )  
( 2.30875e-09 -7.79585e-10 5.59458e-10 )  
( 5.33599e-09 3.55996e-09 5.61635e-10 )  
( -1.10068e-11 1.09777e-09 4.89012e-10 )  
( 1.59875e-09 6.54982e-10 3.50523e-10 )  
( 8.39425e-10 5.43647e-10 2.07156e-10 )  
( 9.08719e-10 2.0883e-10 1.95721e-10 )  
( 4.80804e-09 -2.06134e-11 3.95047e-09 )  
( -1.23138e-09 -7.73355e-10 -7.64656e-10 )  
( 1.18921e-09 -2.03244e-10 4.63669e-10 )  
( 2.99426e-09 -4.4266e-09 3.40211e-09 )  
( -9.70562e-10 4.53222e-10 4.30648e-10 )  
( 3.12163e-09 -2.90282e-09 -3.41244e-10 )  
( 4.65786e-09 -3.51245e-09 4.6489e-09 )  
( 9.71208e-10 -3.39258e-11 1.80118e-10 )  
( -1.4249e-09 1.06685e-09 1.08108e-09 )  
( -2.20801e-09 -4.28327e-11 7.73905e-11 )  
( 9.59103e-10 1.32848e-09 5.89529e-10 )  
( 2.68242e-10 6.68263e-10 1.72812e-10 )  
( 4.10569e-09 1.64977e-10 1.38795e-09 )  
( 7.2479e-10 2.59505e-10 1.92831e-10 )  
( -1.74667e-10 6.50877e-10 3.06312e-10 )  
( 1.74254e-09 -7.11864e-10 2.66834e-10 )  
( -6.6849e-10 3.63586e-10 4.26369e-10 )  
)
