/*--------------------------------*- C++ -*----------------------------------*\
| =========                 |                                                 |
| \\      /  F ield         | OpenFOAM: The Open Source CFD Toolbox           |
|  \\    /   O peration     | Version:  4.x                                   |
|   \\  /    A nd           | Web:      www.OpenFOAM.org                      |
|    \\/     M anipulation  |                                                 |
\*---------------------------------------------------------------------------*/
FoamFile
{
    version     2.0;
    format      ascii;
    class       volVectorField;
    location    "47.5";
    object      ddtUrel;
}
// * * * * * * * * * * * * * * * * * * * * * * * * * * * * * * * * * * * * * //

dimensions      [0 1 -2 0 0 0 0];

internalField   nonuniform List<vector> 
132
(
(2.44171e-09 -1.3933e-08 -1.94637e-09)
(5.59557e-09 -2.37716e-08 -3.32628e-09)
(1.12526e-08 -3.9578e-08 -5.61705e-09)
(2.03168e-08 -6.45341e-08 -9.25142e-09)
(3.38958e-08 -1.02384e-07 -1.47537e-08)
(5.28182e-08 -1.55972e-07 -2.25174e-08)
(7.65317e-08 -2.23835e-07 -3.23337e-08)
(1.011e-07 -2.94596e-07 -4.25724e-08)
(1.18141e-07 -3.43637e-07 -4.96653e-08)
(4.28382e-09 -1.67195e-08 -2.39285e-09)
(8.47714e-09 -2.92398e-08 -4.18849e-09)
(1.58697e-08 -5.0411e-08 -7.26584e-09)
(2.81925e-08 -8.5544e-08 -1.23693e-08)
(4.78314e-08 -1.41681e-07 -2.05259e-08)
(7.71424e-08 -2.26023e-07 -3.27751e-08)
(1.16711e-07 -3.40287e-07 -4.93716e-08)
(1.61064e-07 -4.68745e-07 -6.80436e-08)
(1.94198e-07 -5.64708e-07 -8.19857e-08)
(5.64823e-09 -1.92326e-08 -2.78229e-09)
(1.07737e-08 -3.42939e-08 -4.95764e-09)
(1.99018e-08 -6.06474e-08 -8.78801e-09)
(3.56535e-08 -1.06016e-07 -1.53842e-08)
(6.19247e-08 -1.81797e-07 -2.64026e-08)
(1.03502e-07 -3.02033e-07 -4.38861e-08)
(1.63569e-07 -4.7615e-07 -6.92086e-08)
(2.36592e-07 -6.88123e-07 -1.00047e-07)
(2.96208e-07 -8.61185e-07 -1.25219e-07)
(6.37881e-09 -2.07481e-08 -3.01471e-09)
(1.20538e-08 -3.73918e-08 -5.42559e-09)
(2.23392e-08 -6.7039e-08 -9.73546e-09)
(4.0406e-08 -1.19192e-07 -1.73196e-08)
(7.1379e-08 -2.08763e-07 -3.03481e-08)
(1.223e-07 -3.56207e-07 -5.18008e-08)
(1.99599e-07 -5.80541e-07 -8.4438e-08)
(3.00051e-07 -8.72326e-07 -1.2688e-07)
(3.89441e-07 -1.13204e-06 -1.64647e-07)
(1.58613e-08 -5.04697e-08 -7.25248e-09)
(2.81534e-08 -8.55165e-08 -1.23467e-08)
(4.77279e-08 -1.41622e-07 -2.0481e-08)
(7.69616e-08 -2.25999e-07 -3.26903e-08)
(1.16406e-07 -3.40414e-07 -4.92229e-08)
(1.60615e-07 -4.68929e-07 -6.78315e-08)
(1.93617e-07 -5.64902e-07 -8.17071e-08)
(6.0481e-09 -2.05881e-08 -2.96223e-09)
(1.16391e-08 -3.70298e-08 -5.33806e-09)
(2.17055e-08 -6.61779e-08 -9.57525e-09)
(3.93635e-08 -1.1723e-07 -1.69855e-08)
(6.94051e-08 -2.04243e-07 -2.9592e-08)
(1.17983e-07 -3.45294e-07 -5.00257e-08)
(1.8985e-07 -5.5445e-07 -8.03081e-08)
(2.79394e-07 -8.15335e-07 -1.18106e-07)
(3.54199e-07 -1.03336e-06 -1.49677e-07)
(7.50965e-09 -2.3943e-08 -3.47068e-09)
(1.44028e-08 -4.41039e-08 -6.39748e-09)
(2.71787e-08 -8.12067e-08 -1.17872e-08)
(5.05646e-08 -1.49127e-07 -2.16457e-08)
(9.26957e-08 -2.71565e-07 -3.93939e-08)
(1.65995e-07 -4.84917e-07 -7.03062e-08)
(2.84974e-07 -8.31712e-07 -1.20535e-07)
(4.51604e-07 -1.31767e-06 -1.90949e-07)
(6.12125e-07 -1.78584e-06 -2.58792e-07)
(8.34537e-09 -2.59881e-08 -3.77734e-09)
(1.60418e-08 -4.84708e-08 -7.04748e-09)
(3.06283e-08 -9.07496e-08 -1.31917e-08)
(5.80063e-08 -1.70324e-07 -2.47372e-08)
(1.09181e-07 -3.19255e-07 -4.63232e-08)
(2.03057e-07 -5.92641e-07 -8.59312e-08)
(3.67095e-07 -1.07107e-06 -1.55235e-07)
(6.22966e-07 -1.81738e-06 -2.63344e-07)
(9.11502e-07 -2.65936e-06 -3.85268e-07)
(6.16855e-08 -1.81568e-07 -2.63157e-08)
(1.031e-07 -3.01736e-07 -4.37293e-08)
(1.6294e-07 -4.76225e-07 -6.89134e-08)
(2.35664e-07 -6.88466e-07 -9.95953e-08)
(2.94985e-07 -8.6161e-07 -1.24625e-07)
(7.49995e-09 -2.39689e-08 -3.4683e-09)
(1.43844e-08 -4.4137e-08 -6.3907e-09)
(2.71273e-08 -8.12274e-08 -1.17758e-08)
(5.04802e-08 -1.49096e-07 -2.16213e-08)
(9.25671e-08 -2.7154e-07 -3.93494e-08)
(1.65799e-07 -4.84888e-07 -7.02325e-08)
(2.84714e-07 -8.31835e-07 -1.20407e-07)
(4.5124e-07 -1.31783e-06 -1.90755e-07)
(6.11651e-07 -1.78602e-06 -2.58515e-07)
(9.11347e-09 -2.81697e-08 -4.086e-09)
(1.76916e-08 -5.32329e-08 -7.7352e-09)
(3.41875e-08 -1.01315e-07 -1.47164e-08)
(6.60602e-08 -1.94161e-07 -2.81754e-08)
(1.2764e-07 -3.73726e-07 -5.41682e-08)
(2.45394e-07 -7.17179e-07 -1.03876e-07)
(4.62101e-07 -1.34964e-06 -1.95399e-07)
(8.21498e-07 -2.39864e-06 -3.47289e-07)
(1.25617e-06 -3.66774e-06 -5.30998e-07)
(1.00723e-08 -3.07235e-08 -4.46253e-09)
(1.9734e-08 -5.88831e-08 -8.56414e-09)
(3.87809e-08 -1.14323e-07 -1.66167e-08)
(7.68168e-08 -2.25187e-07 -3.26867e-08)
(1.5397e-07 -4.50416e-07 -6.52795e-08)
(3.12795e-07 -9.13661e-07 -1.32332e-07)
(6.39528e-07 -1.86711e-06 -2.70335e-07)
(1.28611e-06 -3.75416e-06 -5.4351e-07)
(2.33575e-06 -6.82017e-06 -9.87008e-07)
(1.98705e-07 -5.80425e-07 -8.40573e-08)
(2.98694e-07 -8.72687e-07 -1.26261e-07)
(3.87637e-07 -1.13259e-06 -1.6381e-07)
(8.34879e-09 -2.60005e-08 -3.76739e-09)
(1.60388e-08 -4.85103e-08 -7.03135e-09)
(3.05412e-08 -9.07822e-08 -1.31634e-08)
(5.78566e-08 -1.70264e-07 -2.4695e-08)
(1.08953e-07 -3.19046e-07 -4.62533e-08)
(2.02691e-07 -5.92356e-07 -8.58211e-08)
(3.66669e-07 -1.07109e-06 -1.55039e-07)
(6.22372e-07 -1.81755e-06 -2.63054e-07)
(9.10632e-07 -2.65962e-06 -3.84895e-07)
(1.0074e-08 -3.07266e-08 -4.45285e-09)
(1.97312e-08 -5.89066e-08 -8.55245e-09)
(3.87369e-08 -1.1436e-07 -1.65989e-08)
(7.67417e-08 -2.25226e-07 -3.26588e-08)
(1.5388e-07 -4.50436e-07 -6.52434e-08)
(3.12661e-07 -9.13639e-07 -1.32277e-07)
(6.39379e-07 -1.86712e-06 -2.70276e-07)
(1.28586e-06 -3.75422e-06 -5.43433e-07)
(2.33495e-06 -6.82026e-06 -9.86999e-07)
(1.1108e-08 -3.35947e-08 -4.87259e-09)
(2.20325e-08 -6.54082e-08 -9.50601e-09)
(4.41457e-08 -1.29888e-07 -1.88619e-08)
(9.0115e-08 -2.64172e-07 -3.83055e-08)
(1.89114e-07 -5.53978e-07 -8.02158e-08)
(4.14487e-07 -1.21062e-06 -1.75274e-07)
(9.59918e-07 -2.80197e-06 -4.05632e-07)
(2.40735e-06 -7.02614e-06 -1.01695e-06)
(6.71152e-06 -1.95987e-05 -2.83724e-06)
)
;

boundaryField
{
    inlet
    {
        type            calculated;
        value           nonuniform 0();
    }
    outlet
    {
        type            calculated;
        value           nonuniform List<vector> 
16
(
(-1.28138e-10 4.0088e-12 1.93287e-10)
(-1.40701e-10 -1.06233e-10 9.66836e-11)
(2.37244e-10 -1.3996e-10 4.45724e-11)
(1.81808e-10 6.46785e-11 -1.30139e-10)
(-3.22731e-11 -1.50875e-10 1.98841e-10)
(2.19487e-12 -3.31984e-10 4.10283e-11)
(8.28629e-10 -9.68422e-11 -7.90161e-10)
(4.55565e-10 9.21047e-11 -3.51475e-10)
(-4.8825e-11 -1.66871e-10 2.1336e-10)
(-8.26666e-11 -2.66551e-10 1.17495e-10)
(-2.13834e-10 -5.74399e-10 -9.18692e-10)
(3.39119e-09 -1.47019e-08 3.07468e-09)
(-1.76002e-11 -2.39148e-12 4.52129e-10)
(-4.08159e-11 -2.10837e-10 2.18257e-10)
(-3.811e-09 -1.47697e-08 1.55563e-09)
(4.74629e-05 -0.000138601 -2.0067e-05)
)
;
    }
    wall
    {
        type            calculated;
        value           nonuniform List<vector> 
66
(
(-1.02558e-10 5.54344e-11 2.13992e-11)
(-7.92787e-11 1.07272e-10 3.63615e-11)
(-1.89333e-10 5.91723e-11 1.57823e-11)
(-1.7241e-10 3.62172e-11 -2.7207e-12)
(3.0096e-11 4.89356e-11 -5.35362e-12)
(-9.52321e-11 5.16894e-11 -4.24876e-12)
(-3.01808e-10 5.04038e-11 7.96159e-12)
(-4.39387e-10 7.29262e-11 1.31119e-11)
(-8.06968e-11 4.59012e-11 5.10974e-12)
(-4.21758e-10 1.87612e-11 6.43203e-12)
(-3.28498e-10 1.28063e-10 1.67212e-11)
(3.42232e-10 1.22576e-10 -6.79136e-11)
(-3.33121e-10 -3.20229e-11 6.51549e-11)
(-3.06207e-10 7.83987e-11 3.78373e-11)
(-4.62645e-09 8.37059e-10 3.0994e-10)
(-8.90472e-10 -8.06978e-11 4.06814e-11)
(-4.13606e-10 -5.67283e-13 -2.26287e-11)
(1.11264e-09 7.2227e-11 -1.27245e-10)
(-2.11816e-10 4.72538e-11 5.91926e-11)
(-2.78015e-10 -1.17573e-10 6.37072e-11)
(-4.15091e-10 -1.6535e-10 -5.31117e-11)
(9.39706e-11 -1.19424e-10 -1.20843e-10)
(-5.72526e-10 -1.46542e-10 1.32655e-10)
(2.24156e-10 -1.889e-10 4.01443e-11)
(1.23947e-09 -2.90428e-10 -3.72354e-10)
(2.0716e-08 -1.61671e-08 -2.75179e-11)
(-7.39161e-12 2.10891e-11 4.39757e-10)
(-2.75691e-10 -2.3763e-10 2.55447e-10)
(-3.01962e-09 -1.47629e-08 1.60533e-09)
(4.74576e-05 -0.000138601 -2.00655e-05)
(-3.35978e-10 9.4898e-11 -1.29248e-11)
(-2.5255e-10 1.06554e-10 -1.82788e-11)
(-3.31196e-10 7.9891e-11 -3.47326e-11)
(-3.74056e-10 6.32671e-11 2.04397e-11)
(-1.07941e-09 1.25433e-10 4.13849e-11)
(-7.8924e-10 1.46487e-10 -4.73145e-11)
(-2.88322e-10 6.83248e-11 -6.14295e-11)
(-2.20115e-10 5.30122e-11 -2.35408e-12)
(-9.05976e-11 1.33292e-10 -7.23675e-12)
(2.26632e-10 9.11099e-11 -9.35965e-11)
(-1.17867e-10 5.70634e-11 -6.93331e-11)
(-7.84724e-11 4.58283e-11 4.83079e-12)
(1.95306e-10 5.90976e-11 -1.13625e-11)
(7.90311e-11 1.25473e-10 -4.35642e-11)
(2.02484e-10 1.77804e-10 -1.21582e-10)
(2.57544e-10 1.22827e-10 -6.25656e-11)
(-3.87998e-11 6.23985e-11 1.1588e-11)
(7.33858e-11 6.09384e-11 -5.19001e-11)
(-4.31971e-11 1.9755e-10 -3.752e-11)
(-1.04012e-08 1.19331e-09 7.54739e-10)
(3.51496e-10 1.85385e-11 2.42225e-11)
(1.50873e-09 3.04122e-11 -3.44601e-11)
(7.44921e-10 1.4353e-10 -2.84962e-10)
(1.07158e-09 6.96503e-11 -1.17521e-10)
(-1.67199e-10 1.88111e-11 1.60102e-11)
(-2.19656e-10 -5.70868e-11 -1.66651e-10)
(-2.02207e-10 -1.40144e-10 -2.2673e-11)
(2.94166e-10 -1.4557e-10 -1.5806e-10)
(-3.35912e-10 3.85976e-11 4.78581e-12)
(-2.6874e-10 -5.01608e-11 -2.06049e-10)
(4.58913e-10 -2.00391e-10 -5.4991e-10)
(3.78649e-08 -1.51462e-08 7.27821e-10)
(-2.82604e-10 8.43815e-11 -2.27835e-10)
(5.00785e-11 8.62072e-11 -3.83695e-10)
(8.52134e-09 -1.85183e-08 6.71706e-09)
(0.000138622 -0.000167747 -5.48746e-05)
)
;
    }
    procBoundary7to0
    {
        type            processor;
        value           uniform (9.08997e-10 -7.87361e-09 -1.12354e-09);
    }
    procBoundary7to1
    {
        type            processor;
        value           uniform (2.96773e-10 -1.13429e-08 -1.53512e-09);
    }
    procBoundary7to3
    {
        type            processor;
        value           nonuniform List<vector> 
36
(
(2.06953e-10 -1.10832e-08 -1.52133e-09)
(2.32017e-09 -1.83945e-08 -2.5527e-09)
(6.68326e-09 -2.97426e-08 -4.19464e-09)
(1.34488e-08 -4.67885e-08 -6.67793e-09)
(2.28125e-08 -7.11894e-08 -1.02362e-08)
(3.48186e-08 -1.03613e-07 -1.49447e-08)
(4.87294e-08 -1.41977e-07 -2.05128e-08)
(6.21127e-08 -1.79286e-07 -2.594e-08)
(7.09091e-08 -2.03572e-07 -2.95092e-08)
(2.47899e-09 -1.32461e-08 -1.8717e-09)
(5.45707e-09 -2.24033e-08 -3.18289e-09)
(1.07324e-08 -3.71552e-08 -5.32564e-09)
(1.91367e-08 -6.02392e-08 -8.69245e-09)
(3.16011e-08 -9.47459e-08 -1.37371e-08)
(4.8755e-08 -1.42835e-07 -2.07802e-08)
(6.99829e-08 -2.02715e-07 -2.95758e-08)
(9.17277e-08 -2.64194e-07 -3.86748e-08)
(1.06696e-07 -3.06233e-07 -4.49365e-08)
(3.92897e-09 -1.50768e-08 -2.16465e-09)
(7.57723e-09 -2.59081e-08 -3.72632e-09)
(1.38619e-08 -4.38516e-08 -6.33278e-09)
(2.4096e-08 -7.27908e-08 -1.05656e-08)
(3.99347e-08 -1.17564e-07 -1.71303e-08)
(6.284e-08 -1.82519e-07 -2.6692e-08)
(9.27532e-08 -2.67315e-07 -3.92455e-08)
(1.25265e-07 -3.59208e-07 -5.29669e-08)
(1.49e-07 -4.25675e-07 -6.29432e-08)
(4.60493e-09 -1.6151e-08 -2.33711e-09)
(8.61715e-09 -2.80081e-08 -4.04836e-09)
(1.56037e-08 -4.79339e-08 -6.94455e-09)
(2.70935e-08 -8.06036e-08 -1.17301e-08)
(4.52373e-08 -1.32193e-07 -1.93084e-08)
(7.22718e-08 -2.08993e-07 -3.06524e-08)
(1.08853e-07 -3.12627e-07 -4.60585e-08)
(1.5041e-07 -4.29619e-07 -6.36291e-08)
(1.8241e-07 -5.18295e-07 -7.71022e-08)
)
;
    }
    procBoundary7to5
    {
        type            processor;
        value           nonuniform List<vector> 
44
(
(2.43322e-09 -1.84607e-08 -2.55823e-09)
(6.77312e-09 -2.98117e-08 -4.20556e-09)
(1.34796e-08 -4.68534e-08 -6.6765e-09)
(2.27755e-08 -7.12661e-08 -1.02061e-08)
(3.46937e-08 -1.03727e-07 -1.48773e-08)
(4.84922e-08 -1.42126e-07 -2.03997e-08)
(6.17491e-08 -1.79514e-07 -2.5787e-08)
(7.03998e-08 -2.03811e-07 -2.92859e-08)
(4.31843e-09 -1.65997e-08 -2.37655e-09)
(8.51097e-09 -2.9047e-08 -4.18001e-09)
(1.07887e-08 -3.72075e-08 -5.31848e-09)
(1.91032e-08 -6.03321e-08 -8.65767e-09)
(3.14161e-08 -9.49183e-08 -1.36474e-08)
(4.83539e-08 -1.43083e-07 -2.06044e-08)
(6.92787e-08 -2.03018e-07 -2.92695e-08)
(9.06559e-08 -2.64603e-07 -3.82007e-08)
(1.05267e-07 -3.06761e-07 -4.4285e-08)
(4.31843e-09 -1.65997e-08 -2.37655e-09)
(8.51097e-09 -2.9047e-08 -4.18001e-09)
(8.51097e-09 -2.9047e-08 -4.18001e-09)
(1.98671e-08 -6.0641e-08 -8.76574e-09)
(3.55351e-08 -1.06168e-07 -1.53264e-08)
(3.95682e-08 -1.17878e-07 -1.69685e-08)
(6.21152e-08 -1.83033e-07 -2.63835e-08)
(9.14737e-08 -2.67954e-07 -3.86906e-08)
(1.23225e-07 -3.6e-07 -5.20611e-08)
(1.4615e-07 -4.26689e-07 -6.17205e-08)
(5.68262e-09 -1.9233e-08 -2.77328e-09)
(1.07974e-08 -3.42951e-08 -4.95204e-09)
(1.98671e-08 -6.0641e-08 -8.76574e-09)
(3.55351e-08 -1.06168e-07 -1.53264e-08)
(3.55351e-08 -1.06168e-07 -1.53264e-08)
(7.10328e-08 -2.09172e-07 -3.02035e-08)
(1.2171e-07 -3.57011e-07 -5.15506e-08)
(1.0703e-07 -3.1354e-07 -4.5308e-08)
(1.47328e-07 -4.30879e-07 -6.23286e-08)
(1.77964e-07 -5.19967e-07 -7.52764e-08)
(6.43737e-09 -2.07791e-08 -3.00008e-09)
(1.21144e-08 -3.74614e-08 -5.41219e-09)
(2.22833e-08 -6.71197e-08 -9.70368e-09)
(4.02264e-08 -1.19356e-07 -1.72469e-08)
(7.10328e-08 -2.09172e-07 -3.02035e-08)
(1.2171e-07 -3.57011e-07 -5.15506e-08)
(1.2171e-07 -3.57011e-07 -5.15506e-08)
)
;
    }
    procBoundary7to6
    {
        type            processor;
        value           nonuniform List<vector> 
12
(
(2.04046e-09 -9.42131e-09 -1.35188e-09)
(2.86249e-09 -1.07125e-08 -1.55239e-09)
(3.27771e-09 -1.14685e-08 -1.66879e-09)
(3.05107e-09 -1.12705e-08 -1.63191e-09)
(3.84298e-09 -1.29781e-08 -1.8838e-09)
(4.26908e-09 -1.39729e-08 -2.02972e-09)
(3.84931e-09 -1.29519e-08 -1.87718e-09)
(4.65611e-09 -1.49772e-08 -2.16988e-09)
(5.13176e-09 -1.6179e-08 -2.34533e-09)
(4.3064e-09 -1.39471e-08 -2.02078e-09)
(5.12364e-09 -1.6165e-08 -2.33798e-09)
(5.6207e-09 -1.74834e-08 -2.52943e-09)
)
;
    }
}


// ************************************************************************* //
