/*--------------------------------*- C++ -*----------------------------------*\
| =========                 |                                                 |
| \\      /  F ield         | OpenFOAM: The Open Source CFD Toolbox           |
|  \\    /   O peration     | Version:  4.x                                   |
|   \\  /    A nd           | Web:      www.OpenFOAM.org                      |
|    \\/     M anipulation  |                                                 |
\*---------------------------------------------------------------------------*/
FoamFile
{
    version     2.0;
    format      ascii;
    class       volScalarField;
    location    "47.5";
    object      KslPrev;
}
// * * * * * * * * * * * * * * * * * * * * * * * * * * * * * * * * * * * * * //

dimensions      [1 -3 -1 0 0 0 0];

internalField   nonuniform List<scalar> 
132
(
84765.6
3727.82
99551.3
3709.03
426181
3746.87
2.33926e+06
4145.4
24844.1
2.4649e+06
3794.88
1e+10
3836.21
135912
3953.06
21711.9
4227.73
7042.49
11978.9
3357.74
11998.8
3181.16
11650
2996.49
10950.4
2674.22
8420.03
6488.4
3017.79
6597.05
2896.45
7058.5
2791.21
8276.45
2563.7
9350.02
1e+10
3821.45
1e+10
3831.58
1e+10
4125.7
15824.3
1e+10
3957.71
1e+10
3865.18
1e+10
3769.46
1e+10
3711
28252.6
1e+10
3851.72
1e+10
3945.09
1e+10
4287.57
1e+10
5242.61
25261.6
11410.9
3494.93
19483
3639.63
87896.3
3974.55
1e+10
4899.62
31489.4
49827.1
3423.63
22479.6
3510.94
6902.15
247010
3731.88
1e+10
3722.38
536486
3761.36
34996.9
3941.7
7814.62
15294.3
3427.61
15802.9
3208.72
14108.9
2874.01
11278.6
2369.41
7167.48
6371.56
3052.34
6499.93
2966.25
6934.38
2775.1
7961.78
2338.14
9378.21
8554.88
2454.56
8364.45
8675.22
3280.52
9425.18
3255.53
10508.8
3215.75
12917.1
3161.1
19703.4
6660.67
3084.01
6936.42
3060.5
7715.4
2938.79
9221.39
2775.89
14712.6
5151.08
2893.63
5295.39
2920.87
5644.72
2908.7
5846.61
3079.38
5395.54
)
;

boundaryField
{
    inlet
    {
        type            zeroGradient;
    }
    outlet
    {
        type            zeroGradient;
    }
    wall
    {
        type            zeroGradient;
    }
    procBoundary7to0
    {
        type            processor;
        value           uniform 0;
    }
    procBoundary7to1
    {
        type            processor;
        value           uniform 0;
    }
    procBoundary7to3
    {
        type            processor;
        value           uniform 0;
    }
    procBoundary7to5
    {
        type            processor;
        value           uniform 0;
    }
    procBoundary7to6
    {
        type            processor;
        value           uniform 0;
    }
}


// ************************************************************************* //
