/*--------------------------------*- C++ -*----------------------------------*\
| =========                 |                                                 |
| \\      /  F ield         | OpenFOAM: The Open Source CFD Toolbox           |
|  \\    /   O peration     | Version:  4.x                                   |
|   \\  /    A nd           | Web:      www.OpenFOAM.org                      |
|    \\/     M anipulation  |                                                 |
\*---------------------------------------------------------------------------*/
FoamFile
{
    version     2.0;
    format      ascii;
    class       volScalarField;
    location    "47.5";
    object      Qsource;
}
// * * * * * * * * * * * * * * * * * * * * * * * * * * * * * * * * * * * * * //

dimensions      [1 -1 -3 0 0 0 0];

internalField   nonuniform List<scalar> 
132
(
1.0121e+10
9.17353e+09
6.48248e+09
7.99034e+09
1.11212e+10
1.25514e+10
8.01365e+09
6.54483e+09
6.14684e+09
7.4882e+09
1.14573e+10
7.45243e+09
8.18427e+09
8.39333e+09
6.96389e+09
7.88296e+09
7.68228e+09
6.84175e+09
5.34293e+09
9.46941e+09
6.98934e+09
9.03124e+09
8.43618e+09
1.05767e+10
8.68439e+09
9.19109e+09
6.93858e+09
7.57814e+09
8.45749e+09
9.48301e+09
6.92902e+09
8.41792e+09
9.03601e+09
8.44331e+09
8.06304e+09
3.99345e+09
6.55308e+09
8.64441e+09
6.99852e+09
8.21786e+09
8.82785e+09
9.89973e+09
6.08923e+09
3.85326e+09
1.01043e+10
7.33689e+09
8.88099e+09
8.66432e+09
8.32635e+09
5.7048e+09
9.07174e+09
4.5989e+09
6.01446e+09
1.0136e+10
7.51951e+09
7.3054e+09
8.19627e+09
1.04982e+10
9.50513e+09
8.34662e+09
6.19366e+09
6.94465e+09
9.40588e+09
6.04931e+09
8.7356e+09
6.71944e+09
7.27408e+09
5.38886e+09
8.9307e+09
4.16405e+09
5.01934e+09
7.29605e+09
8.26122e+09
7.67829e+09
4.6667e+09
8.5792e+09
9.16096e+09
7.09247e+09
6.53782e+09
9.17607e+09
8.87621e+09
7.87876e+09
1.08202e+10
6.9386e+09
8.19848e+09
9.51635e+09
8.66227e+09
9.05161e+09
9.33894e+09
1.00016e+10
8.97691e+09
9.45313e+09
6.92651e+09
6.53336e+09
8.21874e+09
7.68885e+09
9.02866e+09
6.92872e+09
7.83234e+09
8.61424e+09
9.43227e+09
5.54122e+09
6.27364e+09
9.14229e+09
5.25913e+09
7.71763e+09
7.86142e+09
7.92768e+09
9.51306e+09
5.55475e+09
5.78802e+09
7.25352e+09
8.61158e+09
4.51537e+09
6.81804e+09
7.68257e+09
6.81986e+09
8.6968e+09
7.78691e+09
8.10171e+09
7.96463e+09
8.6603e+09
6.21188e+09
7.24898e+09
1.01274e+10
7.03427e+09
8.9944e+09
8.40569e+09
8.81499e+09
7.54495e+09
8.77743e+09
4.71315e+09
)
;

boundaryField
{
    inlet
    {
        type            calculated;
        value           nonuniform 0();
    }
    outlet
    {
        type            calculated;
        value           uniform 0;
    }
    wall
    {
        type            calculated;
        value           uniform 0;
    }
    procBoundary7to0
    {
        type            processor;
        value           uniform 2.62062e+09;
    }
    procBoundary7to1
    {
        type            processor;
        value           uniform 5.89894e+09;
    }
    procBoundary7to3
    {
        type            processor;
        value           nonuniform List<scalar> 
36
(
8.2626e+09
1.10372e+10
9.28882e+09
1.03941e+10
6.64324e+09
7.87249e+09
9.19943e+09
8.48104e+09
7.01123e+09
9.55345e+09
6.13859e+09
8.1599e+09
5.0198e+09
4.38176e+09
9.43121e+09
7.62694e+09
1.05796e+10
5.12364e+09
6.03134e+09
1.03094e+10
9.18296e+09
7.27726e+09
7.39968e+09
9.99425e+09
8.11425e+09
9.32003e+09
5.03638e+09
9.19247e+09
5.75418e+09
6.18541e+09
7.86324e+09
6.79096e+09
9.4894e+09
6.62748e+09
1.05729e+10
7.82609e+09
)
;
    }
    procBoundary7to5
    {
        type            processor;
        value           nonuniform List<scalar> 
44
(
9.95771e+09
6.14922e+09
8.71783e+09
5.88977e+09
5.32113e+09
7.46895e+09
6.25875e+09
6.64563e+09
1.02777e+10
5.07182e+09
7.28548e+09
9.11857e+09
6.20347e+09
8.44494e+09
7.33894e+09
8.14388e+09
4.51456e+09
1.02777e+10
5.07182e+09
5.07182e+09
9.5448e+09
9.98477e+09
1.13678e+10
9.27656e+09
9.06267e+09
1.10101e+10
8.27499e+09
5.3004e+09
1.17404e+10
9.5448e+09
9.98477e+09
9.98477e+09
1.08226e+10
9.48758e+09
7.46514e+09
9.31776e+09
6.86941e+09
7.63341e+09
7.3591e+09
7.76234e+09
7.64125e+09
1.08226e+10
9.48758e+09
9.48758e+09
)
;
    }
    procBoundary7to6
    {
        type            processor;
        value           nonuniform List<scalar> 
12
(
8.1137e+09
8.97266e+09
6.52052e+09
9.96437e+09
9.38831e+09
9.5657e+09
9.5741e+09
9.98625e+09
7.7512e+09
5.3791e+09
9.34921e+09
9.01614e+09
)
;
    }
}


// ************************************************************************* //
