/*--------------------------------*- C++ -*----------------------------------*\
| =========                 |                                                 |
| \\      /  F ield         | OpenFOAM: The Open Source CFD Toolbox           |
|  \\    /   O peration     | Version:  4.x                                   |
|   \\  /    A nd           | Web:      www.OpenFOAM.org                      |
|    \\/     M anipulation  |                                                 |
\*---------------------------------------------------------------------------*/
FoamFile
{
    version     2.0;
    format      ascii;
    class       volVectorField;
    location    "47.5";
    object      Urel;
}
// * * * * * * * * * * * * * * * * * * * * * * * * * * * * * * * * * * * * * //

dimensions      [0 1 -1 0 0 0 0];

internalField   nonuniform List<vector> 
132
(
(-0.0177115 2.76758e-05 0.000216937)
(-0.0196432 7.58704e-06 0.00016769)
(-0.0176251 1.95243e-05 0.000138938)
(-0.0195504 1.19925e-05 6.94852e-05)
(-0.0174192 4.24255e-05 3.9919e-05)
(-0.0192109 2.56444e-05 -7.1786e-05)
(-0.0168768 6.37853e-05 -1.31364e-05)
(-0.0181009 0.000113046 -0.000172371)
(-0.0158868 -4.64343e-05 0.000310108)
(-0.0179229 2.58536e-07 0.00022718)
(-0.0198698 1.67906e-05 0.000189304)
(-0.0178517 3.07269e-05 0.000161838)
(-0.0197639 3.87217e-05 0.000103692)
(-0.0177162 1.05702e-05 0.000102464)
(-0.0194512 1.24839e-05 6.85651e-06)
(-0.0173405 -0.000202002 0.000111684)
(-0.0184361 -0.000131736 1.40029e-05)
(-0.0163011 -0.00109082 0.000308954)
(-0.0192868 -5.02545e-05 0.000329525)
(-0.0210127 1.00195e-05 0.000286517)
(-0.0192309 7.5212e-06 0.000313143)
(-0.0210061 7.19977e-05 0.000269546)
(-0.0190765 -4.54706e-05 0.000341244)
(-0.0208097 5.60633e-05 0.000257375)
(-0.0185239 -0.000331699 0.000482807)
(-0.0198951 -0.000159752 0.000301928)
(-0.01676 -0.00134277 0.00102119)
(-0.0207334 4.58571e-05 0.000435792)
(-0.0221644 0.000108209 0.000408832)
(-0.0206229 0.000161578 0.000441611)
(-0.0220914 0.00019595 0.000390488)
(-0.0202895 0.00016077 0.000494925)
(-0.0217717 0.000110725 0.000372309)
(-0.0194552 -7.67378e-05 0.00069746)
(-0.0207212 -0.000279247 0.000469233)
(-0.0171667 -0.000714077 0.00150405)
(-0.0173848 6.62805e-05 4.15049e-05)
(-0.0193265 8.82243e-05 -2.59409e-05)
(-0.0172449 9.09809e-05 -6.7119e-05)
(-0.0190527 0.000100357 -0.000185507)
(-0.0167861 0.00011401 -0.000247431)
(-0.0181194 4.37431e-05 -0.000421565)
(-0.0159431 0.000261079 -0.000681149)
(-0.0176484 3.61552e-05 0.000133145)
(-0.0195332 6.58914e-05 0.000115697)
(-0.0175457 7.53739e-05 9.25451e-05)
(-0.0194359 9.83048e-05 5.37151e-05)
(-0.0173689 8.36535e-05 2.17123e-05)
(-0.0191437 5.80083e-05 -4.89018e-05)
(-0.0168832 -1.7773e-06 -8.86534e-05)
(-0.0182394 -9.27353e-05 -0.000204756)
(-0.0158332 -0.000289451 -0.000308054)
(-0.018554 1.93031e-05 0.000197822)
(-0.0203554 9.95539e-05 0.000185569)
(-0.0183853 9.74482e-05 0.000173103)
(-0.0201494 0.000160017 0.000135708)
(-0.0180923 9.92105e-05 0.000126077)
(-0.0196748 9.35187e-05 4.89591e-05)
(-0.0174317 -3.36165e-05 6.6708e-05)
(-0.0184589 -0.000102208 -6.62658e-05)
(-0.016061 -0.000426007 -1.08555e-05)
(-0.0199435 4.57591e-05 0.000289759)
(-0.0213576 0.000145862 0.00026079)
(-0.0195215 0.000161131 0.000273794)
(-0.0209838 0.000236499 0.000217914)
(-0.0188781 0.00017616 0.000215169)
(-0.0203047 0.000154428 0.000132369)
(-0.0179538 4.64751e-05 0.000173431)
(-0.0188816 -9.04057e-05 3.40828e-05)
(-0.0162958 -0.000257946 0.000186086)
(-0.0180566 0.000174295 -0.000144609)
(-0.0199086 0.000185109 -0.000213081)
(-0.0177499 0.000262152 -0.00047798)
(-0.0190843 0.000279625 -0.000561844)
(-0.0166688 0.000429377 -0.00177383)
(-0.018321 5.57228e-05 4.40429e-05)
(-0.020164 7.89587e-05 4.96771e-05)
(-0.0181882 0.000117334 4.0543e-05)
(-0.0200631 0.000157018 1.58887e-05)
(-0.0180282 0.000172838 -2.66631e-05)
(-0.0198029 0.000217776 -8.19955e-05)
(-0.0176611 0.000147389 -0.000233645)
(-0.0189202 0.000209502 -0.000304841)
(-0.0165421 -0.000391251 -0.00100322)
(-0.019439 9.59015e-06 8.74982e-05)
(-0.021071 7.28138e-05 9.79454e-05)
(-0.0193013 0.000108976 9.59145e-05)
(-0.0210174 0.000182839 9.78815e-05)
(-0.0191036 0.000157145 3.87361e-05)
(-0.0208459 0.000273197 4.48158e-05)
(-0.0185995 7.97708e-05 -0.000119335)
(-0.0201412 0.000253231 -8.94773e-05)
(-0.0168107 -0.000511916 -0.000810408)
(-0.0207984 3.93019e-05 0.000123703)
(-0.0220949 0.000116105 0.000104976)
(-0.0205914 0.000186255 0.00012442)
(-0.0219097 0.00025303 9.88262e-05)
(-0.0201751 0.000290315 8.33347e-05)
(-0.0215311 0.000304238 7.66784e-05)
(-0.0193439 0.00029592 -2.98976e-06)
(-0.0206203 0.000199453 -3.1809e-05)
(-0.0171925 0.000146065 -0.000559521)
(-0.0191916 0.00055115 -0.000508854)
(-0.0206431 0.000419455 -0.000581524)
(-0.0171919 0.00101903 -0.00167084)
(-0.0198045 0.000110471 -9.0522e-06)
(-0.0212547 0.000141784 2.21877e-05)
(-0.019656 0.000200903 3.06341e-05)
(-0.0211547 0.000236698 5.24446e-05)
(-0.0193844 0.000306249 -4.0816e-06)
(-0.0208355 0.000322531 4.70679e-05)
(-0.0187054 0.00039876 -0.000155103)
(-0.0198362 0.000327885 -0.000153364)
(-0.0167212 0.000425193 -0.000772868)
(-0.020694 4.58826e-05 7.54976e-05)
(-0.022014 0.000105661 0.000110555)
(-0.0205339 0.000161375 0.000162282)
(-0.0218707 0.000228824 0.000193636)
(-0.0201647 0.000268071 0.000225881)
(-0.0214845 0.000307967 0.000225034)
(-0.0193287 0.000309992 0.000238919)
(-0.0204021 0.000298223 5.37895e-05)
(-0.0171352 0.000276237 -2.71295e-05)
(-0.0216931 6.98925e-05 0.00013524)
(-0.0228477 0.000137367 0.000161238)
(-0.0215081 0.000210365 0.000216796)
(-0.0226115 0.000266648 0.000236538)
(-0.0210468 0.000336521 0.000302489)
(-0.0220511 0.000326863 0.000273819)
(-0.0200965 0.000419827 0.000407512)
(-0.0206787 0.000298055 0.00016128)
(-0.018117 0.000687515 0.000471804)
)
;

boundaryField
{
    inlet
    {
        type            calculated;
        value           nonuniform 0();
    }
    outlet
    {
        type            calculated;
        value           nonuniform List<vector> 
16
(
(-0.00328859 -0.0013651 0.00170154)
(-0.00950077 -0.0103254 -0.00108631)
(-0.00562631 -0.00904005 0.00501925)
(-0.00593538 0.000254378 0.00870949)
(-0.00593382 0.00139098 -0.0015205)
(-0.00339459 0.000574528 -0.000171422)
(-0.00384034 0.000662632 -0.000235391)
(-0.00322308 -0.000129622 -0.000472363)
(-0.00882045 0.000696617 -0.0110218)
(-0.00925499 -0.00729185 -0.00432881)
(-0.00696831 -0.0080529 -0.00817121)
(-0.00716328 0.00156849 -0.00694089)
(-0.00733507 0.00651338 -0.00586236)
(-0.00445962 0.00187643 -0.00160964)
(-0.00579997 0.000904417 0.00286376)
(-0.0156554 0.00486846 0.00616381)
)
;
    }
    wall
    {
        type            calculated;
        value           nonuniform List<vector> 
66
(
(1.18498e-09 1.28111e-10 1.2171e-10)
(8.97835e-10 2.26937e-10 3.78587e-11)
(6.10795e-10 -2.34314e-10 3.69365e-12)
(1.44887e-09 3.43087e-10 2.81364e-11)
(1.1186e-09 2.02758e-10 7.28099e-11)
(8.03136e-10 -7.57419e-11 2.12953e-11)
(1.45577e-09 1.32185e-10 -5.79154e-11)
(1.48329e-09 2.7226e-10 -1.59376e-10)
(1.04654e-09 -6.04413e-12 -9.20586e-12)
(1.37005e-09 3.34454e-10 -5.26209e-11)
(1.60195e-09 3.25923e-10 2.04509e-12)
(1.45455e-09 8.66589e-11 1.55115e-10)
(1.23654e-09 4.81473e-10 -3.28485e-11)
(1.67541e-09 4.40465e-10 9.15057e-11)
(1.98111e-09 -8.01017e-09 4.17736e-11)
(1.12616e-09 5.75912e-10 -2.73375e-10)
(1.28904e-09 4.85566e-10 -7.43511e-11)
(1.27242e-09 3.12447e-10 3.57696e-10)
(1.93849e-10 2.83837e-10 -2.49558e-10)
(6.14472e-10 3.47004e-10 -9.91264e-11)
(8.26768e-10 5.54034e-10 -1.27797e-10)
(1.14665e-09 3.10531e-10 1.73925e-11)
(-1.84161e-10 8.4451e-10 -2.75418e-10)
(-8.00438e-10 2.84197e-10 6.34561e-11)
(9.17731e-10 3.29399e-10 5.51359e-10)
(2.07138e-09 1.67905e-08 3.65192e-10)
(4.02702e-11 1.60356e-09 -6.49763e-11)
(-4.73168e-10 3.76198e-10 4.4243e-11)
(1.43566e-09 1.59373e-08 3.91055e-11)
(-5.98865e-09 0.000126274 -5.13911e-09)
(7.62552e-10 -2.2175e-10 1.66478e-10)
(4.80654e-10 -4.09598e-10 1.72694e-10)
(9.65488e-10 -2.17875e-10 8.01892e-11)
(6.10795e-10 -2.34314e-10 3.69365e-12)
(1.15614e-09 -3.98529e-10 1.3285e-10)
(6.96001e-10 -4.06596e-10 3.23441e-10)
(9.71729e-10 -1.05057e-10 1.99334e-10)
(8.03136e-10 -7.57419e-11 2.12953e-11)
(1.05297e-09 -1.13368e-11 2.45306e-10)
(6.11663e-10 1.61625e-10 5.30058e-10)
(1.38684e-09 -2.24701e-11 1.78633e-10)
(1.04654e-09 -6.04413e-12 -9.20586e-12)
(1.00131e-09 1.05959e-10 3.59707e-10)
(1.52973e-09 4.60949e-11 3.56469e-10)
(2.12062e-09 1.27894e-10 3.41906e-10)
(1.45455e-09 8.66589e-11 1.55115e-10)
(7.20015e-10 2.30894e-11 2.46619e-10)
(1.49383e-09 3.03468e-10 2.31565e-10)
(1.95535e-09 2.71213e-10 2.64395e-10)
(1.98111e-09 -8.01017e-09 4.17736e-11)
(4.38566e-10 1.22732e-10 3.88427e-10)
(1.43526e-09 8.90419e-10 4.88232e-10)
(3.28597e-09 5.53326e-10 6.11234e-10)
(1.27242e-09 3.12447e-10 3.57696e-10)
(1.46283e-10 -1.4555e-11 -4.38757e-10)
(9.903e-10 4.00172e-10 -4.98045e-11)
(2.12523e-09 4.80343e-10 2.37244e-10)
(1.14665e-09 3.10531e-10 1.73925e-11)
(2.72065e-10 6.16925e-11 -1.26594e-09)
(6.81618e-10 -8.03681e-11 -3.81799e-10)
(1.73856e-09 3.06475e-10 4.30915e-10)
(2.07138e-09 1.67905e-08 3.65192e-10)
(-7.11751e-10 -1.28716e-10 -1.10179e-12)
(-1.22647e-09 -1.94702e-10 2.52888e-10)
(1.19181e-09 1.71782e-08 1.57283e-09)
(-5.98865e-09 0.000126274 -5.13911e-09)
)
;
    }
    procBoundary7to0
    {
        type            processor;
        value           uniform (-0.0197122 3.86042e-05 0.000265146);
    }
    procBoundary7to1
    {
        type            processor;
        value           uniform (-0.017979 5.4349e-05 0.000209497);
    }
    procBoundary7to3
    {
        type            processor;
        value           nonuniform List<vector> 
36
(
(-0.0187799 5.91036e-05 0.000339365)
(-0.0206695 4.4534e-05 0.000248654)
(-0.0187067 5.89224e-05 0.000234725)
(-0.020642 6.46723e-05 0.000128902)
(-0.0185526 0.000101965 0.000183891)
(-0.0203259 9.97954e-05 3.11469e-05)
(-0.0180145 0.0001667 0.000333748)
(-0.0192279 8.16431e-05 0.00020301)
(-0.0168049 0.000383535 0.00143583)
(-0.0187229 1.46639e-05 0.000296098)
(-0.0206473 3.45471e-05 0.000212107)
(-0.0186772 3.6484e-05 0.000188214)
(-0.0205948 3.29161e-05 9.27898e-05)
(-0.018537 1.36409e-05 0.000116106)
(-0.0202786 -5.40356e-05 -1.1354e-05)
(-0.0179782 -0.000147608 0.000235165)
(-0.0190931 -0.000289481 0.000230546)
(-0.0166808 -0.00068539 0.000980938)
(-0.0197934 -2.14209e-05 0.000360816)
(-0.0216863 3.18077e-05 0.000304655)
(-0.0197675 4.79345e-05 0.000275953)
(-0.0217533 7.49799e-05 0.000204427)
(-0.0197538 -1.67763e-05 0.000258622)
(-0.0216489 -5.72972e-05 0.000171113)
(-0.0194271 -0.000430087 0.000522209)
(-0.0207196 -0.000495605 0.000494696)
(-0.0178246 -0.00187714 0.00173777)
(-0.0214948 2.48257e-05 0.000456994)
(-0.022983 9.59997e-05 0.000396292)
(-0.0214834 0.000157642 0.000396957)
(-0.0230314 0.000217405 0.000317951)
(-0.0212825 0.000143056 0.000414573)
(-0.0228947 0.000101233 0.000319753)
(-0.0206692 -0.000213957 0.000694538)
(-0.0221722 -0.000454993 0.000725687)
(-0.0183466 -0.00131757 0.00204572)
)
;
    }
    procBoundary7to5
    {
        type            processor;
        value           nonuniform List<vector> 
44
(
(-0.0198162 -7.4827e-06 0.000154608)
(-0.0178598 1.28659e-05 0.00011747)
(-0.0196932 -9.63504e-06 4.27753e-05)
(-0.0176603 4.4974e-05 2.13118e-05)
(-0.0193218 8.10717e-05 -8.7596e-05)
(-0.0171144 0.000185976 -2.76289e-05)
(-0.0182554 0.000300902 -0.000110092)
(-0.0162623 0.000522011 0.000233477)
(-0.0174792 5.76449e-05 9.94725e-05)
(-0.0193905 6.47527e-05 7.98937e-05)
(-0.017756 5.00132e-05 5.76706e-06)
(-0.0197326 3.11745e-05 -6.456e-05)
(-0.0176487 8.66497e-05 -0.000125277)
(-0.0195212 9.94496e-05 -0.000241262)
(-0.0173049 0.000257922 -0.000371712)
(-0.0186436 0.000217496 -0.000456982)
(-0.0163404 0.000811362 -0.000952436)
(-0.0174792 5.76449e-05 9.94725e-05)
(-0.0193905 6.47527e-05 7.98937e-05)
(-0.0193905 6.47527e-05 7.98937e-05)
(-0.0181195 0.000120867 -2.82593e-05)
(-0.0200735 0.000129647 -5.13174e-05)
(-0.0184334 0.000140906 -0.000201588)
(-0.020259 0.000131325 -0.000279688)
(-0.0181474 0.000305018 -0.000562931)
(-0.0194164 0.000348007 -0.000716862)
(-0.0170018 0.000898999 -0.00200326)
(-0.0182405 9.71007e-05 -3.82612e-06)
(-0.0200961 8.82621e-05 -2.30722e-06)
(-0.0181195 0.000120867 -2.82593e-05)
(-0.0200735 0.000129647 -5.13174e-05)
(-0.0200735 0.000129647 -5.13174e-05)
(-0.0196529 0.000349066 -0.000167491)
(-0.0212883 0.00033686 -0.000174946)
(-0.0199507 0.000486363 -0.000792533)
(-0.0214667 0.000426767 -0.000751169)
(-0.0177508 0.00104304 -0.00224902)
(-0.0198342 0.000176529 -7.33046e-05)
(-0.0213132 0.000185762 -6.29457e-05)
(-0.0197819 0.00024139 -6.91619e-05)
(-0.0213598 0.000252545 -5.69062e-05)
(-0.0196529 0.000349066 -0.000167491)
(-0.0212883 0.00033686 -0.000174946)
(-0.0212883 0.00033686 -0.000174946)
)
;
    }
    procBoundary7to6
    {
        type            processor;
        value           nonuniform List<vector> 
12
(
(-0.0199222 -4.0418e-05 0.000271168)
(-0.0209696 -0.00010534 0.000345509)
(-0.0221023 -4.34575e-05 0.000434843)
(-0.0196171 2.95258e-05 0.000158411)
(-0.0204789 -2.10096e-05 0.000225118)
(-0.0215447 -2.99956e-05 0.000283616)
(-0.0202563 2.20789e-05 3.75144e-05)
(-0.02112 -6.49313e-05 6.42379e-05)
(-0.0221483 -5.04567e-05 9.61372e-05)
(-0.0212942 7.01426e-05 -5.31942e-05)
(-0.0220398 -1.9401e-05 2.61753e-05)
(-0.0228769 -1.72867e-05 8.67795e-05)
)
;
    }
}


// ************************************************************************* //
