/*--------------------------------*- C++ -*----------------------------------*\
| =========                 |                                                 |
| \\      /  F ield         | OpenFOAM: The Open Source CFD Toolbox           |
|  \\    /   O peration     | Version:  4.x                                   |
|   \\  /    A nd           | Web:      www.OpenFOAM.org                      |
|    \\/     M anipulation  |                                                 |
\*---------------------------------------------------------------------------*/
FoamFile
{
    version     2.0;
    format      ascii;
    class       volScalarField;
    location    "36.5";
    object      Ksl;
}
// * * * * * * * * * * * * * * * * * * * * * * * * * * * * * * * * * * * * * //

dimensions      [1 -3 -1 0 0 0 0];

internalField   nonuniform List<scalar> 
87
(
3856.75
15888.4
3586.99
3253.75
6841.21
3176.64
3574.28
12179
3837.45
24002.3
3951.58
81814.2
3977.55
1e+10
3957.98
3486.85
10642.5
3679.23
15063.9
3771.02
23496.3
3801.03
50613.2
3796.51
3373.04
8066.11
3387.74
7824.61
3409.15
8003.67
3380.42
8105.93
3350.28
3516.97
10632.6
3707.24
15189.6
3757.22
24136.6
3789.13
51945.5
3757.98
3439.94
9082.03
3563.56
9997.5
3592.7
11059.5
3617.95
12932
3578.36
3360.42
7529.22
3302.08
6936.72
3268.92
6646.31
3228.2
6505.39
3168.32
3427.48
8093.75
3459.48
8155.41
3420.82
8274.6
3415.3
8724.24
3337.71
3370.33
7526.8
3341.27
7005.75
3286.1
6710.5
3251.5
6636.87
3174.39
3317.05
6947.61
3197.27
5992.57
3062.94
5452.44
3007.36
5188.47
2949.04
)
;

boundaryField
{
    inlet
    {
        type            zeroGradient;
    }
    outlet
    {
        type            zeroGradient;
    }
    wall
    {
        type            zeroGradient;
    }
    procBoundary6to0
    {
        type            processor;
        value           uniform 3862.09;
    }
    procBoundary6to2
    {
        type            processor;
        value           nonuniform List<scalar> 
32
(
3802.98
24291
3706.31
3284.87
6818.53
3191.49
3511.1
11404.7
3760.62
17344.7
3840.39
28547.9
3862.63
63554.6
63554.6
63554.6
3463.37
9905.76
3655.04
11956.4
3695.59
14023.2
3661.8
3661.8
3661.8
3360.49
7967.86
3395.54
7541.61
3346.74
7135.01
7135.01
)
;
    }
    procBoundary6to4
    {
        type            processor;
        value           nonuniform List<scalar> 
27
(
3496.18
11260.9
3800.68
19164.4
3892.1
46669.6
3905.67
1.24517e+06
3835.99
3497.72
10452.2
3708.67
14663.5
3780.14
20720.2
3753.19
29240.6
3661.59
3468.21
8443.56
3496.33
8563.53
3459.32
8199.73
3326.84
7566.66
3202.92
)
;
    }
    procBoundary6to7
    {
        type            processor;
        value           nonuniform List<scalar> 
12
(
822443
16964.5
6826.54
1e+10
505409
8818.58
6.99125e+06
15421.4
6420.36
9420.68
6663.08
5085.9
)
;
    }
}


// ************************************************************************* //
