/*--------------------------------*- C++ -*----------------------------------*\
| =========                 |                                                 |
| \\      /  F ield         | OpenFOAM: The Open Source CFD Toolbox           |
|  \\    /   O peration     | Version:  4.x                                   |
|   \\  /    A nd           | Web:      www.OpenFOAM.org                      |
|    \\/     M anipulation  |                                                 |
\*---------------------------------------------------------------------------*/
FoamFile
{
    version     2.0;
    format      ascii;
    class       volScalarField;
    location    "36.5";
    object      pSmooth;
}
// * * * * * * * * * * * * * * * * * * * * * * * * * * * * * * * * * * * * * //

dimensions      [1 -1 -2 0 0 0 0];

internalField   nonuniform List<scalar> 
87
(
81.7746
38.2947
81.4733
88.4059
38.4093
81.3899
111.596
93.4077
104.278
75.8776
96.6285
57.8361
88.9055
39.9641
81.5182
111.116
93.2929
103.963
75.5231
96.5013
57.3052
89.0486
39.0463
81.7168
110.451
92.9613
103.346
75.3677
96.0306
57.1735
88.6012
38.9795
81.5669
111.531
93.4992
104.229
75.7043
96.7153
57.6691
89.232
39.4399
81.9337
110.968
93.2857
103.715
75.5384
96.2434
57.441
88.8494
39.151
81.6397
110.416
93.0037
103.284
75.4102
95.9178
57.2855
88.5884
39.0809
81.4905
111.007
93.2929
103.772
75.6234
96.2777
57.5818
88.8385
39.211
81.6541
110.609
93.1232
103.423
75.5056
95.9941
57.3326
88.6069
39.1729
81.4844
110.176
92.9548
103.077
75.3708
95.7645
57.3377
88.4232
39.2476
81.4385
)
;

boundaryField
{
    inlet
    {
        type            zeroGradient;
    }
    outlet
    {
        type            fixedValue;
        value           nonuniform 0();
    }
    wall
    {
        type            zeroGradient;
    }
    procBoundary6to0
    {
        type            processor;
        value           uniform 81.5573;
    }
    procBoundary6to2
    {
        type            processor;
        value           nonuniform List<scalar> 
32
(
81.628
38.0952
81.6031
88.2431
38.1387
81.3344
111.097
93.3274
103.952
75.3746
96.5232
57.2995
89.0774
39.1867
39.1867
39.1867
110.673
93.0315
103.542
75.0705
96.123
56.8378
88.6885
88.6885
88.6885
110.055
92.7129
103.006
74.8871
95.6868
56.7329
56.7329
)
;
    }
    procBoundary6to4
    {
        type            processor;
        value           nonuniform List<scalar> 
27
(
111.433
93.6673
104.27
75.8704
96.6868
57.8079
88.9933
39.6004
81.4463
111.512
93.587
104.238
75.8129
96.5856
57.4804
88.9815
38.9763
81.6488
111.134
93.2492
103.768
75.5664
96.1316
57.2259
88.5193
38.9579
81.3785
)
;
    }
    procBoundary6to7
    {
        type            processor;
        value           nonuniform List<scalar> 
12
(
21.2477
19.6257
19.9123
22.2184
20.8089
20.6459
21.2658
20.7026
20.7782
21.0922
20.8301
20.9932
)
;
    }
}


// ************************************************************************* //
