/*--------------------------------*- C++ -*----------------------------------*\
| =========                 |                                                 |
| \\      /  F ield         | OpenFOAM: The Open Source CFD Toolbox           |
|  \\    /   O peration     | Version:  4.x                                   |
|   \\  /    A nd           | Web:      www.OpenFOAM.org                      |
|    \\/     M anipulation  |                                                 |
\*---------------------------------------------------------------------------*/
FoamFile
{
    version     2.0;
    format      ascii;
    class       volVectorField;
    location    "36.5";
    object      U;
}
// * * * * * * * * * * * * * * * * * * * * * * * * * * * * * * * * * * * * * //

dimensions      [0 1 -1 0 0 0 0];

internalField   nonuniform List<vector> 
87
(
(0.0276937 0.000172593 0.000111475)
(0.00668532 0.000469183 -0.000497182)
(0.0300047 0.000728224 -0.000341382)
(0.0325938 0.000525018 -0.000839371)
(0.0153808 3.25931e-05 -0.000945651)
(0.0333051 0.000136923 -0.000751163)
(0.0294511 0.000425644 -0.000585099)
(0.00872947 0.000272062 -0.00018415)
(0.0279856 0.000516172 -0.000440901)
(0.00446351 0.000140198 -0.000134069)
(0.0274231 0.000299497 -0.000301208)
(0.00130097 5.17161e-05 -4.21702e-05)
(0.0269918 -6.89316e-05 -0.000219537)
(1.05619e-08 -9.75184e-10 1.41568e-09)
(0.0268448 -0.000395603 -0.000211401)
(0.0297156 0.00158224 -0.000418941)
(0.0098802 0.000563959 -0.000236973)
(0.0290689 0.0014892 -0.000332913)
(0.00709945 0.000425163 -0.000265872)
(0.0286701 0.000974771 -0.000263364)
(0.00454062 0.000289474 -0.000219742)
(0.02833 0.00051551 -0.00030612)
(0.00208331 0.000172159 -0.000150747)
(0.0281689 -1.89223e-05 -0.00029814)
(0.0300154 0.000992852 -0.000513977)
(0.0127265 0.000488396 -0.000346489)
(0.0307082 0.0010765 -0.000529401)
(0.0133583 0.00038015 -0.000539044)
(0.0312008 0.000803704 -0.000535238)
(0.0132394 0.000287585 -0.000551439)
(0.0313547 0.000732827 -0.00047763)
(0.0128822 0.000217447 -0.000630886)
(0.0315499 0.000295381 -0.000400887)
(0.029612 0.000741437 0.00081159)
(0.00991291 0.000317419 0.000220706)
(0.0289003 0.000827839 0.000777973)
(0.00701029 0.000222978 0.000221573)
(0.0285101 0.000551472 0.000571924)
(0.00440365 4.98499e-05 0.000133339)
(0.0282897 0.000202381 0.000138456)
(0.002016 -2.00872e-05 0.000127334)
(0.028188 7.09876e-06 -0.000141781)
(0.0297744 0.00155662 0.000713789)
(0.0114801 0.00067585 0.000270111)
(0.0297807 0.0015593 0.000844828)
(0.0105844 0.000482457 0.00017207)
(0.0297905 0.00127591 0.000757182)
(0.00957961 0.000443558 0.00011557)
(0.0296732 0.00104571 0.000643798)
(0.00814675 0.000337015 3.23772e-05)
(0.0297984 0.000741326 0.000333217)
(0.0299587 0.000837042 0.000404925)
(0.0134858 0.000439709 0.000110582)
(0.0312303 0.000809444 0.000434262)
(0.0149578 0.000330053 0.00012239)
(0.032129 0.000602084 0.000423337)
(0.0157262 0.000308351 -9.72509e-06)
(0.0326366 0.000502924 0.000241849)
(0.0160293 0.00021175 -0.000145733)
(0.0331317 0.000306856 0.00010806)
(0.0298252 0.000731885 0.000766485)
(0.0126938 0.00026454 0.000337445)
(0.0303441 0.000584508 0.000774276)
(0.0128281 0.000177125 0.000236879)
(0.0307943 0.000262645 0.000705913)
(0.0126755 -2.43063e-05 0.000221469)
(0.0310668 -0.000129883 0.000638389)
(0.0119297 -0.000185837 0.00029876)
(0.0311814 -0.000226749 0.000532806)
(0.0298927 0.00118503 0.000547533)
(0.0135132 0.000572566 0.000268976)
(0.0310124 0.00120709 0.000531522)
(0.0148181 0.000536897 0.00016905)
(0.0319872 0.000929474 0.000423996)
(0.0155713 0.000467684 0.000209655)
(0.0324025 0.000765699 0.000433255)
(0.0156824 0.000180955 0.000102188)
(0.0329545 0.00036848 0.000269066)
(0.0299729 0.000665308 0.000379228)
(0.0144164 0.000324927 0.000143935)
(0.0318881 0.000641123 0.000360853)
(0.0170414 0.000327304 0.000147538)
(0.0336079 0.000477984 0.000287456)
(0.0189927 0.000162887 4.62575e-05)
(0.0345826 0.000335324 0.000254921)
(0.0199034 4.97138e-05 -7.64917e-05)
(0.0352684 9.01098e-05 4.18055e-05)
)
;

boundaryField
{
    inlet
    {
        type            fixedValue;
        value           uniform (0.01 0 0);
    }
    outlet
    {
        type            zeroGradient;
    }
    wall
    {
        type            fixedValue;
        value           uniform (0 0 0);
    }
    procBoundary6to0
    {
        type            processor;
        value           uniform (0.0273217 -0.000128156 -4.78293e-05);
    }
    procBoundary6to2
    {
        type            processor;
        value           nonuniform List<vector> 
32
(
(0.0283832 -0.000296636 -0.000364509)
(0.00444732 0.000189813 -0.000328723)
(0.0294503 0.000490647 -0.000258888)
(0.0328207 0.000749685 -0.00101687)
(0.0155995 0.000168384 -0.000940975)
(0.0336088 0.00043628 -0.000761317)
(0.029663 0.000658447 -0.00180151)
(0.00929828 0.000371454 -0.000751837)
(0.0288512 0.000954059 -0.00154745)
(0.00618613 0.00029062 -0.000534844)
(0.0282519 0.000773914 -0.00100034)
(0.00373814 0.000230327 -0.000295878)
(0.0279617 0.000451394 -0.000348823)
(0.00165522 0.000142852 -0.000184592)
(0.00165522 0.000142852 -0.000184592)
(0.00165522 0.000142852 -0.000184592)
(0.0297136 0.00146129 -0.00150491)
(0.0105708 0.000693051 -0.000731722)
(0.029525 0.00156188 -0.00133943)
(0.00894176 0.000523799 -0.000639321)
(0.0293644 0.00134924 -0.00104597)
(0.00763081 0.000458974 -0.00048217)
(0.0296043 0.00110903 -0.000626792)
(0.0296043 0.00110903 -0.000626792)
(0.0296043 0.00110903 -0.000626792)
(0.0299659 0.000927944 -0.00137263)
(0.0128444 0.00046972 -0.000854425)
(0.0310165 0.000958419 -0.0014224)
(0.0139364 0.000385469 -0.00100448)
(0.0317971 0.000776006 -0.00131037)
(0.0147999 0.000286511 -0.000792649)
(0.0147999 0.000286511 -0.000792649)
)
;
    }
    procBoundary6to4
    {
        type            processor;
        value           nonuniform List<vector> 
27
(
(0.0296619 -0.000506664 -0.000506849)
(0.00940778 -0.00010424 -0.000155751)
(0.028479 -0.000412878 -0.000178816)
(0.00559639 -0.000176935 -0.0001287)
(0.0278294 -0.000384347 -5.49373e-06)
(0.00228765 -9.93562e-05 2.49121e-06)
(0.0276247 -2.53019e-05 -4.09063e-05)
(8.43277e-05 -5.86051e-06 1.90592e-06)
(0.027522 1.37856e-06 -0.000141324)
(0.0296792 -0.000327487 0.000413816)
(0.0100907 1.51143e-05 0.000340386)
(0.0289298 -8.39675e-05 0.000810469)
(0.00731231 -1.20691e-05 0.000242322)
(0.0286691 -7.74688e-05 0.000844756)
(0.00514836 -8.45267e-05 0.000272477)
(0.0286908 -0.00010338 0.000754176)
(0.00359314 -7.72689e-05 0.000205847)
(0.0287994 -8.4065e-05 0.000168263)
(0.0296698 -0.000146288 0.000552421)
(0.0122287 -5.91983e-05 0.000375106)
(0.0300905 -0.000237599 0.000802783)
(0.0123003 -0.000164518 0.000352725)
(0.0308222 -0.000279477 0.000769946)
(0.0128664 -0.000251261 0.000362889)
(0.0315321 -0.000363439 0.000800673)
(0.0137112 -0.000268774 0.000213704)
(0.0324424 -0.000425773 0.000480601)
)
;
    }
    procBoundary6to7
    {
        type            processor;
        value           nonuniform List<vector> 
12
(
(0.000125917 2.09455e-05 -1.64844e-05)
(0.00620115 0.000622777 -0.000618197)
(0.0154351 -0.000236048 -0.00119212)
(1.08669e-08 -7.18014e-10 2.08947e-09)
(0.000205655 2.50205e-05 -1.96354e-05)
(0.0118166 0.000170863 -0.000718462)
(1.49295e-05 1.50443e-08 1.34716e-06)
(0.0068057 0.000308183 4.38346e-05)
(0.0161513 2.86253e-05 -0.000243058)
(0.0109721 -0.000242468 0.000228111)
(0.0155006 0.000174153 -3.46508e-05)
(0.020147 -0.000129153 -0.000204895)
)
;
    }
}


// ************************************************************************* //
