/*--------------------------------*- C++ -*----------------------------------*\
| =========                 |                                                 |
| \\      /  F ield         | OpenFOAM: The Open Source CFD Toolbox           |
|  \\    /   O peration     | Version:  4.x                                   |
|   \\  /    A nd           | Web:      www.OpenFOAM.org                      |
|    \\/     M anipulation  |                                                 |
\*---------------------------------------------------------------------------*/
FoamFile
{
    version     2.0;
    format      ascii;
    class       volVectorField;
    location    "36.5";
    object      Urel;
}
// * * * * * * * * * * * * * * * * * * * * * * * * * * * * * * * * * * * * * //

dimensions      [0 1 -1 0 0 0 0];

internalField   nonuniform List<vector> 
87
(
(-0.0198512 -5.11336e-05 0.000280924)
(-0.0192735 -0.000183026 0.000418186)
(-0.0208824 -0.000149386 0.000364853)
(-0.0220671 -0.000289543 0.000543288)
(-0.020746 -0.000194762 0.000502669)
(-0.0221046 -0.000144685 0.000457283)
(-0.0229106 -0.000226812 0.00049152)
(-0.0205731 -0.000203026 0.000438889)
(-0.0212978 -0.000214585 0.000417552)
(-0.0191857 -0.000165566 0.000358018)
(-0.0204185 -0.000157171 0.00032163)
(-0.0183373 -0.0001091 0.000265826)
(-0.0198943 -8.1315e-05 0.000239024)
(-0.0178409 -4.77809e-05 0.000197975)
(-0.0196042 -5.63434e-06 0.000184472)
(-0.0231143 -0.000509176 0.000482823)
(-0.0209214 -0.000425912 0.0004467)
(-0.0217455 -0.000455648 0.000427983)
(-0.019871 -0.000354115 0.000388975)
(-0.0211029 -0.000348799 0.000352672)
(-0.0192637 -0.000258759 0.000312855)
(-0.0207285 -0.000231441 0.000284146)
(-0.018846 -0.000152502 0.00025706)
(-0.0205024 -9.73803e-05 0.000241153)
(-0.023331 -0.000553663 0.000496005)
(-0.0213632 -0.000489193 0.000467719)
(-0.0222679 -0.000503759 0.000460902)
(-0.0207644 -0.000413306 0.000434334)
(-0.0219315 -0.000397833 0.000404246)
(-0.0205083 -0.000312341 0.000371486)
(-0.021773 -0.00028751 0.000341431)
(-0.0203448 -0.000193707 0.000332852)
(-0.0216813 -0.000138017 0.000308861)
(-0.0230314 -0.000248565 0.000101645)
(-0.0208233 -0.000211145 0.00012185)
(-0.0215973 -0.000227834 7.65946e-05)
(-0.0196796 -0.000168892 9.11085e-05)
(-0.0208801 -0.000161823 5.20522e-05)
(-0.0190014 -0.000102 6.61947e-05)
(-0.0204574 -8.00977e-05 5.06477e-05)
(-0.0185398 -3.43328e-05 5.87891e-05)
(-0.0201996 -6.09046e-06 7.24218e-05)
(-0.0232249 -0.000505349 0.000116217)
(-0.0211745 -0.000426553 0.000136008)
(-0.0220318 -0.000451654 9.62091e-05)
(-0.0203768 -0.000351722 0.000118924)
(-0.021557 -0.000352588 7.7106e-05)
(-0.0199647 -0.000261289 0.000100374)
(-0.0212804 -0.000244618 7.12013e-05)
(-0.0196508 -0.000154765 0.000105229)
(-0.0211049 -0.000122221 0.000100351)
(-0.0234156 -0.000533269 0.000153513)
(-0.0215511 -0.000473462 0.000168596)
(-0.0224979 -0.000475746 0.000142466)
(-0.0211331 -0.000395454 0.000153306)
(-0.0223026 -0.000373446 0.00012571)
(-0.0210236 -0.000298513 0.0001458)
(-0.0222276 -0.000264784 0.000128624)
(-0.0209398 -0.00018154 0.000161128)
(-0.0221823 -0.000129328 0.000157106)
(-0.0231951 -0.000247606 -5.43544e-05)
(-0.0212023 -0.000203241 -2.62904e-05)
(-0.0220273 -0.000208217 -6.17704e-05)
(-0.0204483 -0.000156061 -3.27213e-05)
(-0.0215768 -0.000135667 -6.79495e-05)
(-0.0200921 -8.20801e-05 -4.13684e-05)
(-0.0213425 -4.557e-05 -6.50049e-05)
(-0.0198382 -2.68289e-06 -3.33752e-05)
(-0.0211882 3.14839e-05 -2.9027e-05)
(-0.0233669 -0.000472337 -2.37479e-05)
(-0.0214964 -0.000405929 1.40802e-06)
(-0.0224095 -0.000420797 -2.15124e-05)
(-0.0210258 -0.000340077 3.75499e-06)
(-0.0221812 -0.000324089 -1.89859e-05)
(-0.0208841 -0.000247186 -1.83423e-07)
(-0.0220724 -0.000216878 -1.25416e-05)
(-0.0207593 -0.000128929 2.60829e-05)
(-0.0220019 -8.99666e-05 3.66964e-05)
(-0.0235235 -0.000502138 1.23525e-05)
(-0.0217763 -0.000448195 3.44985e-05)
(-0.0227832 -0.000446715 1.69396e-05)
(-0.0215959 -0.000379408 3.33706e-05)
(-0.0227963 -0.000348374 2.13816e-05)
(-0.0217022 -0.000274212 4.28948e-05)
(-0.0228615 -0.00023527 3.69522e-05)
(-0.0217451 -0.000153446 7.8459e-05)
(-0.0228918 -9.85293e-05 9.39361e-05)
)
;

boundaryField
{
    inlet
    {
        type            calculated;
        value           nonuniform List<vector> 9((-0.01 -2.76684e-10 4.07303e-10) (-0.01 -1.60548e-10 2.27023e-10) (-0.01 -9.03206e-11 2.08155e-10) (-0.01 -2.42131e-10 2.47186e-10) (-0.01 -1.97201e-10 1.77504e-10) (-0.01 -9.40913e-12 1.71475e-10) (-0.01 -2.19822e-10 1.56308e-10) (-0.01 -4.07448e-10 9.95904e-11) (-0.01 -6.46915e-10 -2.39756e-11));
    }
    outlet
    {
        type            calculated;
        value           nonuniform 0();
    }
    wall
    {
        type            calculated;
        value           nonuniform List<vector> 
57
(
(-4.25439e-11 -2.19822e-10 1.56308e-10)
(-5.7582e-10 -4.07448e-10 9.95904e-11)
(-2.02395e-09 -6.46915e-10 -2.39756e-11)
(-9.90599e-12 -3.95738e-10 2.11852e-10)
(-1.68877e-11 -1.84469e-10 1.62058e-10)
(-1.05288e-10 -1.05704e-10 1.43428e-10)
(4.85696e-12 -4.32379e-10 3.98803e-10)
(-1.85926e-10 -1.78737e-10 2.31178e-10)
(-7.07762e-11 -1.13494e-10 2.48728e-10)
(1.00142e-10 -2.57103e-10 3.42362e-10)
(6.68001e-11 -1.53928e-10 2.41109e-10)
(-5.76214e-12 -6.63734e-11 6.91305e-11)
(6.93466e-11 -3.66203e-10 4.17121e-10)
(1.38606e-11 -2.74394e-10 2.23625e-10)
(-2.98157e-11 -7.9324e-11 1.0963e-10)
(4.1223e-10 -5.93539e-10 5.16606e-10)
(9.87319e-11 -3.76939e-10 2.79336e-10)
(3.73717e-12 -1.42107e-10 1.18057e-10)
(7.5308e-10 -8.67172e-10 7.63924e-10)
(-6.79288e-10 -1.25984e-09 4.46369e-10)
(-3.54657e-11 -1.90878e-10 1.54699e-10)
(1.73317e-09 -1.2268e-09 6.42052e-10)
(1.959e-09 -4.90468e-09 -1.83438e-10)
(4.26177e-11 -6.59679e-10 2.58883e-10)
(2.15529e-09 -1.53691e-09 8.52023e-10)
(2.7605e-10 -1.69089e-09 2.58431e-10)
(-2.21388e-10 -4.70673e-10 2.91071e-10)
(-9.84428e-11 -9.03206e-11 2.08155e-10)
(-3.63052e-10 -9.40913e-12 1.71475e-10)
(-2.02395e-09 -6.46915e-10 -2.39756e-11)
(-7.27245e-11 -6.40455e-12 5.48911e-10)
(2.20562e-11 1.91331e-11 3.87277e-10)
(-1.05288e-10 -1.05704e-10 1.43428e-10)
(-3.17968e-10 -1.6744e-10 3.82834e-10)
(-1.50296e-10 -1.77304e-10 5.84972e-10)
(-7.07762e-11 -1.13494e-10 2.48728e-10)
(-2.98405e-10 -1.0574e-10 5.45558e-10)
(-7.63952e-11 -3.45449e-12 4.14826e-10)
(-5.76214e-12 -6.63734e-11 6.91305e-11)
(-3.92976e-10 -1.19916e-10 5.19102e-10)
(-1.99371e-10 -1.30346e-10 2.69862e-10)
(-2.98157e-11 -7.9324e-11 1.0963e-10)
(-4.07643e-10 -3.5812e-10 6.34013e-10)
(-1.36774e-10 -1.67062e-10 3.01089e-10)
(3.73717e-12 -1.42107e-10 1.18057e-10)
(-4.94205e-10 -1.81187e-10 7.50408e-10)
(-5.48788e-10 -4.25141e-10 5.52183e-10)
(-2.52105e-10 -3.5969e-10 2.9971e-10)
(-3.54657e-11 -1.90878e-10 1.54699e-10)
(-5.03857e-10 -4.47302e-10 1.14156e-09)
(-5.68983e-10 -5.17137e-10 2.78219e-10)
(-3.24979e-10 -3.6016e-10 4.61206e-10)
(4.26177e-11 -6.59679e-10 2.58883e-10)
(-1.16497e-10 -7.06237e-10 9.55136e-10)
(-1.32092e-09 -9.12994e-10 3.46284e-10)
(-1.14152e-09 -6.50088e-10 4.44712e-10)
(-2.21388e-10 -4.70673e-10 2.91071e-10)
)
;
    }
    procBoundary6to0
    {
        type            processor;
        value           uniform (-0.0195431 2.87391e-05 0.000256062);
    }
    procBoundary6to2
    {
        type            processor;
        value           nonuniform List<vector> 
32
(
(-0.0207604 -3.03212e-05 0.000409163)
(-0.0199881 -0.000164561 0.000530795)
(-0.0216762 -0.000142458 0.00045789)
(-0.0227635 -0.000293988 0.000692063)
(-0.0215412 -0.000198488 0.000612729)
(-0.0229655 -0.000162735 0.000545924)
(-0.0229604 -0.000231247 0.000914044)
(-0.0206486 -0.000206243 0.0008022)
(-0.0214161 -0.000234389 0.000795728)
(-0.0193602 -0.000182464 0.000660012)
(-0.0205893 -0.000190689 0.000614499)
(-0.0186002 -0.000133192 0.000490058)
(-0.0201251 -0.000117962 0.000430368)
(-0.0181266 -7.55788e-05 0.000348248)
(-0.0181266 -7.55788e-05 0.000348248)
(-0.0181266 -7.55788e-05 0.000348248)
(-0.0231504 -0.000490761 0.000887489)
(-0.0209905 -0.000422739 0.000795465)
(-0.0218409 -0.00045689 0.000790875)
(-0.0200383 -0.000364073 0.000684453)
(-0.0212714 -0.000374196 0.000643626)
(-0.0195553 -0.00027884 0.00053609)
(-0.021007 -0.000267597 0.00048255)
(-0.021007 -0.000267597 0.00048255)
(-0.021007 -0.000267597 0.00048255)
(-0.0233556 -0.000539413 0.000874844)
(-0.0214024 -0.000482156 0.000804683)
(-0.0223424 -0.000499121 0.000809172)
(-0.0208802 -0.000418765 0.000730475)
(-0.0220909 -0.000408285 0.000692691)
(-0.0207631 -0.000320305 0.000595586)
(-0.0207631 -0.000320305 0.000595586)
)
;
    }
    procBoundary6to4
    {
        type            processor;
        value           nonuniform List<vector> 
27
(
(-0.0228724 0.00012593 0.000489621)
(-0.0205285 9.40687e-05 0.000433557)
(-0.0212204 9.92889e-05 0.000397617)
(-0.0190839 8.08138e-05 0.000339848)
(-0.0202768 8.27153e-05 0.000286909)
(-0.0181797 6.23622e-05 0.0002363)
(-0.0197315 5.37053e-05 0.000201042)
(-0.017635 4.62549e-05 0.000164257)
(-0.0194327 4.34038e-05 0.000143183)
(-0.0229819 0.000108677 0.000125865)
(-0.0207499 8.14021e-05 0.0001162)
(-0.0214945 8.16575e-05 6.4737e-05)
(-0.0195424 7.16682e-05 7.37541e-05)
(-0.0207344 7.27281e-05 1.89145e-05)
(-0.018849 6.84565e-05 3.08341e-05)
(-0.020322 6.85523e-05 -7.81647e-06)
(-0.0184331 6.91973e-05 1.64416e-05)
(-0.0200997 7.52814e-05 1.47815e-05)
(-0.0231249 9.18688e-05 -3.89163e-05)
(-0.0210919 8.16282e-05 -3.35398e-05)
(-0.0218992 9.01111e-05 -7.93895e-05)
(-0.0202756 8.39105e-05 -5.85709e-05)
(-0.0214249 8.95757e-05 -9.97677e-05)
(-0.0199419 8.95468e-05 -7.90031e-05)
(-0.0212384 0.000100853 -0.000112955)
(-0.0198078 0.000106781 -7.20857e-05)
(-0.0211834 0.000130815 -8.05472e-05)
)
;
    }
    procBoundary6to7
    {
        type            processor;
        value           nonuniform List<vector> 
12
(
(-0.0178744 -3.5291e-05 0.000239131)
(-0.0191317 -0.000102453 0.000343521)
(-0.0207452 -6.89071e-05 0.000462076)
(-0.0176185 -2.43714e-06 0.000151031)
(-0.0185834 -5.11223e-05 0.000222324)
(-0.0201874 -6.77714e-05 0.000323809)
(-0.0182368 2.06082e-05 7.22934e-05)
(-0.0194251 -5.19501e-05 0.000129062)
(-0.0208541 -5.0123e-05 0.000196704)
(-0.0196298 6.60946e-05 9.20309e-06)
(-0.020636 -2.84798e-05 8.44847e-05)
(-0.0217112 -2.43882e-05 0.000141553)
)
;
    }
}


// ************************************************************************* //
