/*--------------------------------*- C++ -*----------------------------------*\
| =========                 |                                                 |
| \\      /  F ield         | OpenFOAM: The Open Source CFD Toolbox           |
|  \\    /   O peration     | Version:  4.x                                   |
|   \\  /    A nd           | Web:      www.OpenFOAM.org                      |
|    \\/     M anipulation  |                                                 |
\*---------------------------------------------------------------------------*/
FoamFile
{
    version     2.0;
    format      ascii;
    class       volScalarField;
    location    "6";
    object      Cs;
}
// * * * * * * * * * * * * * * * * * * * * * * * * * * * * * * * * * * * * * //

dimensions      [1 -3 0 0 0 0 0];

internalField   nonuniform List<scalar> 
114
(
334.882
334.921
334.956
335.01
335.038
335.913
335.134
335.161
335.197
335.19
335.196
335.178
335.195
335.107
335.157
335.193
335.214
335.212
335.183
335.15
335.093
334.902
334.914
334.937
334.956
334.989
335.01
335.033
335.045
335.134
335.093
335.142
335.177
335.181
335.185
335.16
335.148
335.125
335.098
335.062
335.108
335.147
335.173
335.19
335.171
335.128
335.081
335.028
335.044
335.083
334.92
334.929
334.935
334.942
334.953
334.965
334.99
335
335.382
335.056
335.094
335.115
335.093
335.093
335.071
335.094
335.084
335.164
335.04
335.064
335.092
335.108
335.145
335.154
335.169
335.149
335.149
335.023
335.068
335.112
335.119
334.906
334.909
334.913
334.918
334.926
334.931
334.946
334.952
337.308
334.931
334.939
334.945
334.952
334.964
334.975
334.995
335.006
335.23
334.919
334.926
334.936
334.949
334.967
334.986
335.012
335.031
335.356
334.923
334.939
334.949
334.964
334.984
335.007
)
;

boundaryField
{
    inlet
    {
        type            calculated;
        value           nonuniform 0();
    }
    outlet
    {
        type            calculated;
        value           uniform 335;
    }
    wall
    {
        type            calculated;
        value           nonuniform List<scalar> 
66
(
334.906
334.931
334.919
334.923
334.909
334.939
334.926
334.939
334.913
334.945
334.936
334.949
334.918
334.952
334.949
334.964
334.926
334.964
334.967
334.984
334.931
334.975
334.986
335.007
334.946
334.995
335.012
334.952
335.006
335.031
337.308
335.23
335.356
334.902
334.92
334.906
334.914
334.929
334.909
334.937
334.935
334.913
334.882
334.956
334.942
334.918
334.921
334.989
334.953
334.926
334.956
335.01
334.965
334.931
335.01
335.033
334.99
334.946
335.038
335.045
335
334.952
335.913
335.134
335.382
337.308
)
;
    }
    procBoundary5to1
    {
        type            processor;
        value           nonuniform List<scalar> 
32
(
334.856
334.919
334.972
335.029
335.058
337.624
335.151
335.184
335.223
335.225
335.226
335.198
335.495
335.121
335.181
335.22
335.232
335.226
335.209
335.185
335.335
334.817
334.831
334.855
334.855
334.855
335.031
335.085
335.085
335.085
335.055
335.055
)
;
    }
    procBoundary5to4
    {
        type            processor;
        value           nonuniform List<scalar> 
12
(
334.884
335.026
335.013
335.003
334.913
335.004
335
334.983
334.905
334.923
334.915
334.915
)
;
    }
    procBoundary5to7
    {
        type            processor;
        value           nonuniform List<scalar> 
44
(
335.053
335.089
335.13
335.16
335.156
335.097
335.038
335.006
335.007
335.053
335.126
335.171
335.164
335.052
335.013
335.008
335.003
335.08
335.126
335.109
335.126
335.171
335.165
335.167
335.16
335.125
335.084
335.033
335.057
335.094
335.165
335.111
335.165
335.167
335.037
335.054
336.171
334.924
334.952
334.998
335.031
335.054
335.037
335.068
)
;
    }
}


// ************************************************************************* //
