/*--------------------------------*- C++ -*----------------------------------*\
| =========                 |                                                 |
| \\      /  F ield         | OpenFOAM: The Open Source CFD Toolbox           |
|  \\    /   O peration     | Version:  4.x                                   |
|   \\  /    A nd           | Web:      www.OpenFOAM.org                      |
|    \\/     M anipulation  |                                                 |
\*---------------------------------------------------------------------------*/
FoamFile
{
    version     2.0;
    format      ascii;
    class       volVectorField;
    location    "6";
    object      GField;
}
// * * * * * * * * * * * * * * * * * * * * * * * * * * * * * * * * * * * * * //

dimensions      [1 -2 -1 0 0 0 0];

internalField   nonuniform List<vector> 
114
(
(129.362 1.57592 9.00008)
(76.0388 -3.7503 1.87119)
(140.21 9.08993 3.8732)
(60.3837 -12.3507 -7.28824)
(171.245 14.5656 -1.41355)
(31.5534 -60.337 -71.0328)
(16.998 -0.571107 -3.72908)
(91.6125 4.87827 -7.26391)
(8.12042 -0.956813 -2.40103)
(93.056 5.68876 -6.16546)
(20.2028 -8.82883 -7.82626)
(93.4314 8.6613 -7.10537)
(27.9949 -63.6084 -25.4142)
(87.2239 1.29077 -0.326544)
(6.56223 -0.940406 -1.67247)
(88.5073 3.24554 -6.22844)
(14.2969 -3.70072 -6.03255)
(92.6798 -2.18437 -9.16713)
(20.3575 -9.32348 -10.3519)
(88.9877 -0.239636 -7.0955)
(18.0809 -15.1741 -15.0806)
(60.2148 -1.84123 5.71705)
(108.139 -0.792787 9.04716)
(59.1977 -2.27248 5.26968)
(112.642 1.24283 7.4305)
(52.0824 -4.10685 2.49494)
(112.856 6.46632 3.81846)
(41.85 -8.79453 -1.59659)
(107.852 12.2585 0.216126)
(24.1395 -16.7727 -20.2556)
(7.76511 -0.375805 -0.836121)
(74.7373 4.1715 -4.5544)
(5.82355 -0.64616 -1.52329)
(73.5425 4.78348 -1.74864)
(0.188879 -0.0544458 -0.0576369)
(76.8046 0.589287 -4.68502)
(6.45294 -4.01696 -2.2353)
(68.0993 6.47683 -1.51068)
(14.6918 -17.1893 -7.31955)
(3.35626 -0.334258 -0.313249)
(79.9926 -0.564376 -1.98924)
(12.5069 -2.59814 -2.47639)
(79.7198 1.52448 -10.1433)
(16.8249 -7.6161 -6.07629)
(75.5699 -2.40709 -7.43369)
(11.1301 -6.09073 -4.01329)
(62.2314 1.38446 -0.795912)
(14.6046 -6.66227 -4.03007)
(9.52418 0.166366 -0.863526)
(73.2419 -1.64716 -10.5652)
(70.9291 -2.24643 6.80606)
(115.239 -1.57132 8.53619)
(76.8105 -2.87985 7.59009)
(125.639 5.03223 8.01693)
(75.1334 -3.44417 8.27311)
(136.398 11.4526 4.60619)
(60.6882 -12.837 13.549)
(158.242 18.2096 -5.13871)
(29.9021 -50.3336 33.6224)
(3.9502 -0.0608623 -0.109741)
(83.1252 -0.121105 -2.17598)
(1.54576 -0.170857 -0.168082)
(85.2334 1.10046 -3.81939)
(2.10929 -0.467398 -0.17025)
(92.4959 6.02421 -6.09089)
(14.7471 -7.263 0.99819)
(90.1145 13.9446 -7.49033)
(29.7432 -53.1002 10.9387)
(19.2913 -1.96681 0.477445)
(89.467 -7.24929 -5.6959)
(17.2831 -2.0923 -0.352313)
(88.0733 7.26041 -8.69377)
(7.09007 -2.42471 0.0109471)
(88.4449 0.671886 -6.46495)
(9.338 -6.61181 1.8954)
(83.7247 5.32901 -8.0864)
(20.3118 -18.266 7.92232)
(8.31132 -0.139601 0.325646)
(70.5387 -1.26445 -1.98678)
(-29.1913 4.72498 -2.68285)
(68.6459 3.46771 -8.72821)
(79.4181 -0.518943 1.62924)
(120.94 1.37464 2.78849)
(86.4731 -0.858988 -0.238733)
(132.742 3.15883 0.698118)
(88.8107 -4.60956 -2.02543)
(152.285 6.02846 -1.68256)
(82.5695 -15.8452 -0.611156)
(201.234 11.657 -4.02128)
(48.5466 -72.2441 3.28751)
(65.9896 -0.0685165 0.51614)
(108.219 0.792249 1.79827)
(67.8851 -1.84181 -2.46588)
(111.381 0.846189 -6.73859)
(60.4997 -6.68478 -6.19717)
(111.403 0.440105 -9.38953)
(48.6406 -18.2601 -3.30414)
(107.91 10.581 -6.8935)
(38.5299 -83.4937 1.77286)
(70.2802 -3.17105 -1.01838)
(110.155 -2.78731 -0.707612)
(67.4016 -4.72521 -3.84914)
(109.511 -2.00179 -4.21146)
(53.7851 -8.63578 -4.41242)
(104.055 0.181383 -6.79401)
(33.6165 -11.8101 -2.85337)
(94.2553 4.72718 -4.31493)
(20.6411 -16.0416 -1.72995)
(62.6145 -3.39106 4.24455)
(105.437 -4.5143 8.34927)
(65.442 -3.33619 0.344479)
(99.7695 -0.250523 -11.6319)
(43.6665 -3.02135 -4.05844)
(89.3305 5.27125 -5.4188)
)
;

boundaryField
{
    inlet
    {
        type            calculated;
        value           nonuniform 0();
    }
    outlet
    {
        type            calculated;
        value           nonuniform List<vector> 
12
(
(69.0461 -132.031 -155.436)
(61.5144 -139.77 -55.8437)
(39.8958 -33.482 -33.2756)
(52.9696 -36.8044 -44.4471)
(32.4242 -37.936 -16.1539)
(32.2856 -14.728 -8.90909)
(65.7368 -110.654 73.9156)
(65.526 -116.983 24.0986)
(45.2732 -40.7133 17.6581)
(105.85 -157.52 7.16804)
(84.7775 -183.712 3.90084)
(45.6939 -35.512 -3.82966)
)
;
    }
    wall
    {
        type            calculated;
        value           uniform (0 0 0);
    }
    procBoundary5to1
    {
        type            processor;
        value           nonuniform List<vector> 
32
(
(120.878 1.88915 10.6226)
(63.5703 -3.01181 6.22706)
(127.812 6.35191 5.44302)
(53.0009 -10.841 5.63684)
(157.14 12.4711 -2.32048)
(35.044 -58.6411 -67.763)
(9.97079 -0.622266 -1.62731)
(92.7286 3.91229 -6.88639)
(5.35064 -0.812105 -1.06904)
(90.855 1.92446 -0.885875)
(12.6913 -6.31619 -1.71401)
(88.9299 8.99939 -5.26753)
(31.591 -53.2129 -10.621)
(88.6956 2.0433 -6.41974)
(6.69552 -0.31955 -1.45762)
(88.6194 4.57162 -6.03369)
(11.7774 -0.821778 -2.62117)
(88.6644 0.198034 -4.17624)
(12.2485 -1.48638 -1.20175)
(90.6848 -2.08955 -8.6241)
(27.0605 -5.26622 -2.05872)
(77.6226 -1.61111 9.04036)
(122.222 -0.287335 12.7599)
(81.496 -0.620219 7.2396)
(81.496 -0.620219 7.2396)
(81.496 -0.620219 7.2396)
(20.909 -0.0357392 -2.01844)
(89.2813 -0.108965 -2.0714)
(89.2813 -0.108965 -2.0714)
(89.2813 -0.108965 -2.0714)
(14.7534 -1.15472 -1.81286)
(14.7534 -1.15472 -1.81286)
)
;
    }
    procBoundary5to4
    {
        type            processor;
        value           nonuniform List<vector> 
12
(
(102.148 -1.52175 8.23848)
(76.4053 0.300464 -1.64606)
(81.1358 0.0481895 -0.20276)
(74.8307 -0.418826 -1.22153)
(107.338 -3.7457 8.51356)
(83.0484 0.168776 0.883595)
(87.007 0.0411121 1.60432)
(77.1196 -0.486067 0.998987)
(110.508 -0.776119 3.78776)
(103.613 0.188993 4.74637)
(105.803 -1.61115 1.64243)
(102.443 -4.44038 4.25858)
)
;
    }
    procBoundary5to7
    {
        type            processor;
        value           nonuniform List<vector> 
44
(
(82.3232 1.94423 -3.90439)
(24.4738 1.30789 -8.17085)
(79.3786 -1.24504 -9.4256)
(18.8081 0.820585 -11.3398)
(68.715 -0.0582904 -4.37705)
(8.77236 0.953874 -6.79829)
(44.3636 -0.195802 3.56757)
(4.70372 1.15179 -5.30088)
(18.2066 0.247749 -2.17455)
(82.3232 1.94423 -3.90439)
(4.41406 0.262011 -0.977123)
(65.7164 0.688892 3.35854)
(5.99347 0.439165 -2.53968)
(42.8051 1.17643 -1.02937)
(-0.00391557 3.61389e-05 -0.000562986)
(24.5418 1.03302 2.13235)
(5.40781 0.276179 -2.84792)
(4.82661 0.415875 -0.630541)
(4.41406 0.262011 -0.977123)
(80.4147 0.921746 -6.93309)
(4.41406 0.262011 -0.977123)
(65.7164 0.688892 3.35854)
(0.413589 0.00394017 -0.0105434)
(67.8139 0.445894 -3.78997)
(6.07011 -0.545347 0.537143)
(59.0425 2.99793 -0.997399)
(18.0506 -2.9726 -2.17666)
(15.4289 1.28398 -0.640454)
(85.5844 10.8228 -6.81786)
(3.59206 0.48178 -0.442726)
(0.413589 0.00394017 -0.0105434)
(90.349 -10.3899 -9.95968)
(0.413589 0.00394017 -0.0105434)
(67.8139 0.445894 -3.78997)
(35.4624 -6.2182 2.85503)
(82.7518 8.37825 -2.57543)
(35.2075 -14.4956 -1.64073)
(32.2196 -0.0398827 -1.05645)
(89.6561 -1.12058 -1.05644)
(17.5219 0.691922 -1.63503)
(85.8635 -2.04755 -5.78192)
(1.6471 0.247787 -0.319042)
(35.4624 -6.2182 2.85503)
(80.9521 -2.96068 0.622993)
)
;
    }
}


// ************************************************************************* //
