/*--------------------------------*- C++ -*----------------------------------*\
| =========                 |                                                 |
| \\      /  F ield         | OpenFOAM: The Open Source CFD Toolbox           |
|  \\    /   O peration     | Version:  4.x                                   |
|   \\  /    A nd           | Web:      www.OpenFOAM.org                      |
|    \\/     M anipulation  |                                                 |
\*---------------------------------------------------------------------------*/
FoamFile
{
    version     2.0;
    format      ascii;
    class       volScalarField;
    location    "6";
    object      KslNext;
}
// * * * * * * * * * * * * * * * * * * * * * * * * * * * * * * * * * * * * * //

dimensions      [1 -3 -1 0 0 0 0];

internalField   nonuniform List<scalar> 
114
(
2628.06
4381.6
2392.06
5291.12
1917.51
3200.5
19295.7
3680.55
38984
3575.35
13919.1
3453.15
4221.9
3834.89
48319.8
3741.39
20511.7
3505.76
12906.7
3526.63
10839
5533.41
3114.58
5660.6
2988.71
6355.57
2951.66
7628.92
2989.52
8729.34
42754.9
4489.93
55001.6
4546.11
1.57605e+06
4290.17
40704.2
4677.29
12994.1
96861.3
4147.7
25148.1
4087.16
16610.4
4233.21
23524.4
4962.5
18160
34058.6
4443.07
4706.94
2924.84
4367.18
2674
4416.44
2444.41
5171.77
2071.32
4649.35
84625.2
4072.58
213571
3928.37
151981
3558.8
19664.1
3526.54
5010.69
17035.7
3698.03
18838.9
3691.81
42917.3
3623.98
26919.8
3663.53
10508.5
39402.1
4656.13
10833.4
4664.65
4186.44
2757.26
3857.96
2507.49
3722.05
2188.65
3907.01
1648.99
3633.49
5041.41
3107
4914.5
2981.9
5362.27
2927
6220.59
2955.85
3365.06
4675.62
3006.61
4815.38
2969.84
5869.48
3051.91
8721.22
3256.72
11406.4
5180.4
3095.2
4911.57
3204.27
7159.66
3473.67
)
;

boundaryField
{
    inlet
    {
        type            zeroGradient;
    }
    outlet
    {
        type            zeroGradient;
    }
    wall
    {
        type            zeroGradient;
    }
    procBoundary5to1
    {
        type            processor;
        value           uniform 0;
    }
    procBoundary5to4
    {
        type            processor;
        value           uniform 0;
    }
    procBoundary5to7
    {
        type            processor;
        value           uniform 0;
    }
}


// ************************************************************************* //
