/*--------------------------------*- C++ -*----------------------------------*\
| =========                 |                                                 |
| \\      /  F ield         | OpenFOAM: The Open Source CFD Toolbox           |
|  \\    /   O peration     | Version:  4.x                                   |
|   \\  /    A nd           | Web:      www.OpenFOAM.org                      |
|    \\/     M anipulation  |                                                 |
\*---------------------------------------------------------------------------*/
FoamFile
{
    version     2.0;
    format      ascii;
    class       volScalarField;
    location    "6";
    object      QPartFluid;
}
// * * * * * * * * * * * * * * * * * * * * * * * * * * * * * * * * * * * * * //

dimensions      [1 -1 -3 0 0 0 0];

internalField   nonuniform List<scalar> 
114
(
8.6863e+09
8.56311e+09
8.2856e+09
7.14542e+09
9.94414e+09
8.01188e+09
7.76708e+09
7.34748e+09
6.28695e+09
8.72324e+09
9.37744e+09
1.1099e+10
7.60525e+09
1.01981e+10
6.33512e+09
8.87643e+09
6.27296e+09
5.47406e+09
7.52298e+09
6.7149e+09
6.74329e+09
6.85624e+09
5.91593e+09
8.13278e+09
6.54296e+09
7.00677e+09
8.46476e+09
7.83659e+09
6.83613e+09
5.18303e+09
8.23224e+09
8.24907e+09
9.4618e+09
8.90714e+09
9.08203e+09
1.01885e+10
5.50578e+09
1.06944e+10
6.29965e+09
8.55829e+09
5.42748e+09
7.51105e+09
9.02449e+09
6.44543e+09
8.20069e+09
7.28699e+09
7.63644e+09
4.26836e+09
1.05308e+10
5.03327e+09
7.87229e+09
9.89206e+09
8.16446e+09
9.02608e+09
8.44568e+09
8.71445e+09
7.54067e+09
9.70083e+09
6.26844e+09
5.90541e+09
1.08936e+10
7.11599e+09
9.17804e+09
8.30534e+09
9.19865e+09
1.09545e+10
8.74692e+09
5.43839e+09
9.16781e+09
7.77603e+09
8.07912e+09
7.26596e+09
1.13696e+10
9.15205e+09
8.68634e+09
1.05046e+10
7.76768e+09
3.89354e+09
1.12965e+10
8.48902e+09
9.39436e+09
2.57959e+09
6.98037e+09
4.7764e+09
7.94414e+09
6.40435e+09
6.06787e+09
7.69364e+09
8.46435e+09
5.85595e+09
6.84552e+09
8.72117e+09
5.13229e+09
7.03264e+09
8.47784e+09
7.71995e+09
5.60528e+09
8.77913e+09
6.27871e+09
6.79731e+09
7.3945e+09
9.0569e+09
7.856e+09
6.44669e+09
9.27704e+09
6.7693e+09
7.57647e+09
6.19903e+09
7.45074e+09
6.43316e+09
7.82124e+09
6.74048e+09
1.03403e+10
8.10763e+09
)
;

boundaryField
{
    inlet
    {
        type            calculated;
        value           nonuniform 0();
    }
    outlet
    {
        type            calculated;
        value           uniform 0;
    }
    wall
    {
        type            calculated;
        value           uniform 0;
    }
    procBoundary5to1
    {
        type            processor;
        value           nonuniform List<scalar> 
32
(
9.82053e+09
6.56203e+09
1.00868e+10
8.24444e+09
8.15965e+09
3.72791e+09
6.2907e+09
7.95779e+09
8.03333e+09
8.95209e+09
7.63396e+09
9.21225e+09
4.17068e+09
7.80694e+09
5.42484e+09
1.11054e+10
8.99667e+09
1.06767e+10
7.4278e+09
9.68148e+09
3.26904e+09
7.13481e+09
5.95473e+09
8.90539e+09
8.90539e+09
8.90539e+09
8.2554e+09
1.25618e+10
1.25618e+10
1.25618e+10
6.14376e+09
6.14376e+09
)
;
    }
    procBoundary5to4
    {
        type            processor;
        value           nonuniform List<scalar> 
12
(
9.70343e+09
1.10122e+10
6.64442e+09
7.01687e+09
9.72419e+09
1.04395e+10
8.65358e+09
8.14618e+09
8.21928e+09
8.6544e+09
7.21277e+09
7.21385e+09
)
;
    }
    procBoundary5to7
    {
        type            processor;
        value           nonuniform List<scalar> 
44
(
9.32855e+09
6.93948e+09
8.06805e+09
1.1553e+10
1.22229e+10
8.1434e+09
5.95961e+09
5.80014e+09
1.06504e+10
9.32855e+09
6.55789e+09
8.40271e+09
6.9903e+09
7.51275e+09
8.33507e+09
8.44459e+09
5.35779e+09
3.94693e+09
6.55789e+09
1.0107e+10
6.55789e+09
8.40271e+09
4.7449e+09
6.74487e+09
7.53007e+09
6.80442e+09
4.03923e+09
8.83392e+09
9.09733e+09
6.95431e+09
4.7449e+09
6.49237e+09
4.7449e+09
6.74487e+09
5.65694e+09
7.23855e+09
4.80721e+09
7.25609e+09
6.84542e+09
7.10045e+09
8.33662e+09
4.45205e+09
5.65694e+09
4.58646e+09
)
;
    }
}


// ************************************************************************* //
