/*--------------------------------*- C++ -*----------------------------------*\
| =========                 |                                                 |
| \\      /  F ield         | OpenFOAM: The Open Source CFD Toolbox           |
|  \\    /   O peration     | Version:  4.x                                   |
|   \\  /    A nd           | Web:      www.OpenFOAM.org                      |
|    \\/     M anipulation  |                                                 |
\*---------------------------------------------------------------------------*/
FoamFile
{
    version     2.0;
    format      ascii;
    class       volScalarField;
    location    "6";
    object      QPartFluidCoeff;
}
// * * * * * * * * * * * * * * * * * * * * * * * * * * * * * * * * * * * * * //

dimensions      [1 -1 -3 -1 0 0 0];

internalField   nonuniform List<scalar> 
114
(
-2.89544e+07
-2.85437e+07
-2.76187e+07
-2.38182e+07
-3.31473e+07
-2.67064e+07
-2.58903e+07
-2.44917e+07
-2.09565e+07
-2.90776e+07
-3.12582e+07
-3.69969e+07
-2.5351e+07
-3.39938e+07
-2.11171e+07
-2.95882e+07
-2.09099e+07
-1.82469e+07
-2.50767e+07
-2.23831e+07
-2.24778e+07
-2.28542e+07
-1.97198e+07
-2.71093e+07
-2.18099e+07
-2.33559e+07
-2.82159e+07
-2.61221e+07
-2.27872e+07
-1.72768e+07
-2.74409e+07
-2.74969e+07
-3.15394e+07
-2.96905e+07
-3.02735e+07
-3.39619e+07
-1.83527e+07
-3.56483e+07
-2.09989e+07
-2.85277e+07
-1.80916e+07
-2.50369e+07
-3.00817e+07
-2.14848e+07
-2.73357e+07
-2.42901e+07
-2.54549e+07
-1.42279e+07
-3.51026e+07
-1.67776e+07
-2.6241e+07
-3.29736e+07
-2.72149e+07
-3.0087e+07
-2.81523e+07
-2.90482e+07
-2.51356e+07
-3.23362e+07
-2.08949e+07
-1.96847e+07
-3.63119e+07
-2.372e+07
-3.05935e+07
-2.76845e+07
-3.06623e+07
-3.6515e+07
-2.91565e+07
-1.81281e+07
-3.05594e+07
-2.59201e+07
-2.69304e+07
-2.42199e+07
-3.78988e+07
-3.05069e+07
-2.89546e+07
-3.50154e+07
-2.58924e+07
-1.29785e+07
-3.7655e+07
-2.82968e+07
-3.13146e+07
-8.59863e+06
-2.32679e+07
-1.59213e+07
-2.64805e+07
-2.13479e+07
-2.02263e+07
-2.56455e+07
-2.82146e+07
-1.95199e+07
-2.28184e+07
-2.90706e+07
-1.71076e+07
-2.34422e+07
-2.82595e+07
-2.57332e+07
-1.86843e+07
-2.92638e+07
-2.09291e+07
-2.26577e+07
-2.46484e+07
-3.01897e+07
-2.61867e+07
-2.1489e+07
-3.09236e+07
-2.25644e+07
-2.5255e+07
-2.06635e+07
-2.48359e+07
-2.14439e+07
-2.60709e+07
-2.24683e+07
-3.44677e+07
-2.70255e+07
)
;

boundaryField
{
    inlet
    {
        type            calculated;
        value           nonuniform 0();
    }
    outlet
    {
        type            calculated;
        value           uniform 0;
    }
    wall
    {
        type            calculated;
        value           uniform 0;
    }
    procBoundary5to1
    {
        type            processor;
        value           nonuniform List<scalar> 
32
(
742.293
495.997
762.422
623.165
616.756
281.779
475.488
601.497
607.207
676.653
577.022
696.319
315.246
590.095
410.042
839.414
680.022
807.008
561.439
731.786
247.094
539.291
450.094
673.122
673.122
673.122
623.992
949.495
949.495
949.495
464.382
464.382
)
;
    }
    procBoundary5to4
    {
        type            processor;
        value           nonuniform List<scalar> 
12
(
733.442
832.37
502.225
530.377
735.012
789.079
654.089
615.737
621.261
654.151
545.184
545.266
)
;
    }
    procBoundary5to7
    {
        type            processor;
        value           nonuniform List<scalar> 
44
(
705.107
524.527
609.832
873.245
923.879
615.529
450.465
438.411
805.019
705.107
495.684
635.127
528.369
567.859
630.016
638.295
404.975
298.333
495.684
763.95
495.684
635.127
358.648
509.818
569.168
514.32
305.31
667.72
687.63
525.648
358.648
490.732
358.648
509.818
427.586
547.134
363.359
548.458
517.417
536.694
630.131
336.512
427.586
346.672
)
;
    }
}


// ************************************************************************* //
