/*--------------------------------*- C++ -*----------------------------------*\
| =========                 |                                                 |
| \\      /  F ield         | OpenFOAM: The Open Source CFD Toolbox           |
|  \\    /   O peration     | Version:  4.x                                   |
|   \\  /    A nd           | Web:      www.OpenFOAM.org                      |
|    \\/     M anipulation  |                                                 |
\*---------------------------------------------------------------------------*/
FoamFile
{
    version     2.0;
    format      ascii;
    class       volScalarField;
    location    "6";
    object      QWallFluid;
}
// * * * * * * * * * * * * * * * * * * * * * * * * * * * * * * * * * * * * * //

dimensions      [1 -1 -3 0 0 0 0];

internalField   nonuniform List<scalar> 
114
(
1.04985e+09
6.85763e+08
1.1197e+09
5.82219e+08
1.31516e+09
8.41786e+08
0
0
0
0
0
0
0
0
0
0
0
0
0
0
0
5.7056e+08
9.10388e+08
5.62714e+08
9.39623e+08
5.07743e+08
9.41038e+08
4.32438e+08
9.10569e+08
3.74051e+08
0
0
0
0
0
0
0
0
0
0
0
0
0
0
0
0
0
0
0
0
6.50494e+08
9.5737e+08
6.93561e+08
1.02589e+09
6.82243e+08
1.09668e+09
5.92928e+08
1.23806e+09
6.22775e+08
0
0
0
0
0
0
0
0
0
0
0
0
0
0
0
0
0
0
0
0
0
0
1.41862e+09
1.98619e+09
1.51835e+09
2.13973e+09
1.55302e+09
2.38929e+09
1.48455e+09
2.98855e+09
1.52711e+09
6.11519e+08
9.08485e+08
6.2603e+08
9.3092e+08
5.756e+08
9.32331e+08
5.05852e+08
9.11237e+08
7.97525e+08
6.43687e+08
9.21597e+08
6.23978e+08
9.17696e+08
5.25903e+08
8.818e+08
3.74446e+08
8.14821e+08
2.92042e+08
5.88114e+08
8.92514e+08
6.08079e+08
8.55782e+08
4.41829e+08
7.81373e+08
)
;

boundaryField
{
    inlet
    {
        type            calculated;
        value           nonuniform 0();
    }
    outlet
    {
        type            calculated;
        value           uniform 0;
    }
    wall
    {
        type            calculated;
        value           uniform 0;
    }
    procBoundary5to1
    {
        type            processor;
        value           nonuniform List<scalar> 
32
(
9.95576e+08
5.96303e+08
1.03948e+09
5.23891e+08
1.22737e+09
8.26872e+08
0
0
0
0
0
0
0
0
0
0
0
0
0
0
0
7.00202e+08
1.00559e+09
7.26278e+08
7.26278e+08
7.26278e+08
0
0
0
0
0
0
)
;
    }
    procBoundary5to4
    {
        type            processor;
        value           nonuniform List<scalar> 
12
(
8.69692e+08
0
0
0
9.05149e+08
0
0
0
1.84831e+09
8.78043e+08
8.92278e+08
8.70621e+08
)
;
    }
    procBoundary5to7
    {
        type            processor;
        value           nonuniform List<scalar> 
44
(
0
0
0
0
0
0
0
0
0
0
0
0
0
0
0
0
0
0
0
0
0
0
0
0
0
0
0
0
0
0
0
0
0
0
3.77557e+08
7.36171e+08
3.9414e+08
3.44748e+08
7.81509e+08
2.12548e+08
7.56397e+08
3.26844e+07
3.77557e+08
7.20516e+08
)
;
    }
}


// ************************************************************************* //
