/*--------------------------------*- C++ -*----------------------------------*\
| =========                 |                                                 |
| \\      /  F ield         | OpenFOAM: The Open Source CFD Toolbox           |
|  \\    /   O peration     | Version:  4.x                                   |
|   \\  /    A nd           | Web:      www.OpenFOAM.org                      |
|    \\/     M anipulation  |                                                 |
\*---------------------------------------------------------------------------*/
FoamFile
{
    version     2.0;
    format      ascii;
    class       volScalarField;
    location    "44";
    object      particleRelTemp;
}
// * * * * * * * * * * * * * * * * * * * * * * * * * * * * * * * * * * * * * //

dimensions      [0 0 0 0 0 0 0];

internalField   nonuniform List<scalar> 
108
(
-6.35514e-12
-2.71168e-12
2.35454e-12
6.79999e-12
1.05052e-11
1.72186e-11
2.23922e-11
2.95438e-11
3.55644e-11
-8.09097e-12
-3.88245e-12
3.48892e-13
5.16256e-12
9.87105e-12
1.3364e-11
2.19821e-11
2.70643e-11
3.51209e-11
-1.12313e-11
-8.30815e-12
-4.1862e-12
-7.63933e-13
5.04395e-12
7.83197e-12
1.36847e-11
1.72507e-11
2.31617e-11
-1.51161e-11
-1.2258e-11
-1.17977e-11
-5.83896e-12
-1.20062e-12
8.28061e-13
2.1691e-12
6.72479e-12
9.3451e-12
-1.87731e-12
4.66562e-12
7.47478e-12
1.41244e-11
1.98529e-11
2.41401e-11
3.31166e-11
4.02702e-11
4.39763e-11
-3.99799e-12
1.205e-12
6.61076e-12
1.1511e-11
1.60111e-11
2.57883e-11
3.08272e-11
3.64652e-11
4.18939e-11
-8.27674e-12
-2.72411e-12
1.49077e-12
5.46181e-12
1.13852e-11
1.62977e-11
2.29914e-11
2.76546e-11
3.18924e-11
-1.08913e-11
-8.02355e-12
-5.28517e-12
-2.38111e-13
5.02652e-12
7.41743e-12
1.42657e-11
1.75532e-11
2.11172e-11
3.49806e-12
8.06709e-12
1.50976e-11
1.97732e-11
2.69944e-11
3.53089e-11
4.2194e-11
5.20187e-11
5.48966e-11
5.8814e-13
6.82908e-12
1.30098e-11
1.9823e-11
2.70388e-11
3.37407e-11
4.1221e-11
4.6666e-11
4.99062e-11
-2.01937e-12
1.03598e-12
8.70993e-12
1.42659e-11
2.1285e-11
2.74746e-11
3.10875e-11
3.80739e-11
4.09645e-11
-5.99685e-12
-4.07967e-12
1.58324e-12
7.56788e-12
1.35272e-11
1.6394e-11
2.31335e-11
2.8311e-11
3.48781e-11
)
;

boundaryField
{
    inlet
    {
        type            calculated;
        value           nonuniform 0();
    }
    outlet
    {
        type            calculated;
        value           nonuniform List<scalar> 
12
(
3.55644e-11
3.51209e-11
2.31617e-11
9.3451e-12
4.39763e-11
4.18939e-11
3.18924e-11
2.11172e-11
5.48966e-11
4.99062e-11
4.09645e-11
3.48781e-11
)
;
    }
    wall
    {
        type            calculated;
        value           nonuniform List<scalar> 
63
(
-6.35514e-12
-8.09097e-12
-1.12313e-11
-1.51161e-11
-2.71168e-12
-3.88245e-12
-8.30815e-12
-1.2258e-11
2.35454e-12
3.48892e-13
-4.1862e-12
-1.17977e-11
6.79999e-12
5.16256e-12
-7.63933e-13
-5.83896e-12
1.05052e-11
9.87105e-12
5.04395e-12
-1.20062e-12
1.72186e-11
1.3364e-11
7.83197e-12
8.28061e-13
2.23922e-11
2.19821e-11
1.36847e-11
2.1691e-12
2.95438e-11
2.70643e-11
1.72507e-11
6.72479e-12
3.55644e-11
3.51209e-11
2.31617e-11
9.3451e-12
-1.51161e-11
-1.08913e-11
-5.99685e-12
-1.2258e-11
-8.02355e-12
-4.07967e-12
-1.17977e-11
-5.28517e-12
1.58324e-12
-5.83896e-12
-2.38111e-13
7.56788e-12
-1.20062e-12
5.02652e-12
1.35272e-11
8.28061e-13
7.41743e-12
1.6394e-11
2.1691e-12
1.42657e-11
2.31335e-11
6.72479e-12
1.75532e-11
2.8311e-11
9.3451e-12
2.11172e-11
3.48781e-11
)
;
    }
    procBoundary3to1
    {
        type            processor;
        value           nonuniform List<scalar> 
27
(
-5.17865e-12
-3.34298e-12
-7.25912e-14
5.91188e-12
1.00327e-11
1.33697e-11
1.9717e-11
2.26466e-11
2.83434e-11
-1.22458e-12
6.80353e-13
5.77938e-12
1.0398e-11
1.8385e-11
2.37123e-11
2.86631e-11
3.74812e-11
4.43902e-11
4.34115e-13
8.02061e-12
1.1678e-11
1.93831e-11
2.65475e-11
3.46875e-11
4.27013e-11
4.94201e-11
5.3185e-11
)
;
    }
    procBoundary3to2
    {
        type            processor;
        value           nonuniform List<scalar> 
12
(
-1.06429e-11
-1.16365e-11
-1.40935e-11
-1.6996e-11
-6.37518e-12
-7.76628e-12
-1.1108e-11
-1.45985e-11
-2.32666e-12
-4.65299e-12
-6.40276e-12
-1.0546e-11
)
;
    }
    procBoundary3to7
    {
        type            processor;
        value           nonuniform List<scalar> 
36
(
5.33014e-12
1.1486e-11
1.75495e-11
2.54167e-11
3.22965e-11
4.12471e-11
4.90025e-11
5.65825e-11
6.03942e-11
4.35917e-12
1.02908e-11
1.77561e-11
2.33249e-11
3.08789e-11
3.67315e-11
4.39532e-11
5.12753e-11
5.62743e-11
1.34757e-12
5.71571e-12
1.22254e-11
1.72627e-11
2.38763e-11
2.84003e-11
3.55921e-11
4.26429e-11
4.73269e-11
-2.72722e-12
1.04461e-12
5.36076e-12
1.18111e-11
1.58947e-11
2.11382e-11
2.73689e-11
3.2786e-11
3.759e-11
)
;
    }
}


// ************************************************************************* //
