/*--------------------------------*- C++ -*----------------------------------*\
| =========                 |                                                 |
| \\      /  F ield         | OpenFOAM: The Open Source CFD Toolbox           |
|  \\    /   O peration     | Version:  4.x                                   |
|   \\  /    A nd           | Web:      www.OpenFOAM.org                      |
|    \\/     M anipulation  |                                                 |
\*---------------------------------------------------------------------------*/
FoamFile
{
    version     2.0;
    format      ascii;
    class       volScalarField;
    location    "44";
    object      QWallFluid;
}
// * * * * * * * * * * * * * * * * * * * * * * * * * * * * * * * * * * * * * //

dimensions      [1 -1 -3 0 0 0 0];

internalField   nonuniform List<scalar> 
108
(
6.5895e+08
1.04503e+09
6.73857e+08
1.09775e+09
6.58277e+08
1.15888e+09
5.73381e+08
1.24229e+09
4.89339e+08
5.28243e+08
9.42003e+08
4.84471e+08
9.41466e+08
3.84178e+08
8.86068e+08
1.78271e+08
7.01586e+08
22059.9
6.52835e+08
1.03073e+09
6.60435e+08
1.08229e+09
6.40787e+08
1.1535e+09
5.70202e+08
1.28388e+09
5.45438e+08
1.58257e+09
2.22394e+09
1.60728e+09
2.29036e+09
1.56781e+09
2.41485e+09
1.43342e+09
2.66328e+09
1.105e+09
0
0
0
0
0
0
0
0
0
0
0
0
0
0
0
0
0
0
0
0
0
0
0
0
0
0
0
5.95662e+08
9.8837e+08
5.92781e+08
1.02108e+09
5.59744e+08
1.08753e+09
4.92381e+08
1.25787e+09
6.16582e+08
0
0
0
0
0
0
0
0
0
0
0
0
0
0
0
0
0
0
0
0
0
0
0
0
0
0
0
4.53516e+08
8.94705e+08
4.2954e+08
9.05985e+08
3.84143e+08
9.35051e+08
3.39681e+08
1.05004e+09
3.1233e+08
)
;

boundaryField
{
    inlet
    {
        type            calculated;
        value           nonuniform 0();
    }
    outlet
    {
        type            calculated;
        value           uniform 0;
    }
    wall
    {
        type            calculated;
        value           uniform 0;
    }
    procBoundary3to1
    {
        type            processor;
        value           nonuniform List<scalar> 
27
(
6.1258e+08
9.95724e+08
6.00972e+08
1.02181e+09
5.75867e+08
1.08099e+09
5.40519e+08
1.22641e+09
5.02593e+08
0
0
0
0
0
0
0
0
0
0
0
0
0
0
0
0
0
0
)
;
    }
    procBoundary3to2
    {
        type            processor;
        value           nonuniform List<scalar> 
12
(
1.00431e+09
9.36788e+08
9.95466e+08
2.14703e+09
0
0
0
9.62527e+08
0
0
0
8.80691e+08
)
;
    }
    procBoundary3to7
    {
        type            processor;
        value           nonuniform List<scalar> 
36
(
0
0
0
0
0
0
0
0
0
0
0
0
0
0
0
0
0
0
0
0
0
0
0
0
0
0
0
4.88224e+08
9.09309e+08
4.74765e+08
9.32108e+08
4.48129e+08
9.57582e+08
3.92612e+08
1.00394e+09
3.50298e+08
)
;
    }
}


// ************************************************************************* //
