/*--------------------------------*- C++ -*----------------------------------*\
| =========                 |                                                 |
| \\      /  F ield         | OpenFOAM: The Open Source CFD Toolbox           |
|  \\    /   O peration     | Version:  4.x                                   |
|   \\  /    A nd           | Web:      www.OpenFOAM.org                      |
|    \\/     M anipulation  |                                                 |
\*---------------------------------------------------------------------------*/
FoamFile
{
    version     2.0;
    format      ascii;
    class       volVectorField;
    location    "7.5";
    object      ddtUrel;
}
// * * * * * * * * * * * * * * * * * * * * * * * * * * * * * * * * * * * * * //

dimensions      [0 1 -2 0 0 0 0];

internalField   nonuniform List<vector> 
132
(
(4.78498e-06 1.74389e-07 -3.77294e-06)
(2.5198e-06 1.62381e-07 -3.69782e-06)
(-1.4821e-06 2.02838e-07 -3.61932e-06)
(-8.04112e-06 1.30605e-07 -3.66522e-06)
(-1.77536e-05 7.76465e-08 -3.65245e-06)
(-3.34781e-05 6.0482e-08 -3.71284e-06)
(-6.35988e-05 3.43065e-08 -3.80466e-06)
(-7.66927e-05 1.97805e-07 -3.1384e-06)
(-6.20989e-05 1.84365e-07 -2.70219e-06)
(4.7176e-06 5.13372e-07 -3.84931e-06)
(2.38481e-06 4.0446e-07 -3.73869e-06)
(-1.43071e-06 3.27792e-07 -3.73566e-06)
(-7.59666e-06 2.72975e-07 -3.73145e-06)
(-1.72417e-05 1.76725e-07 -3.57274e-06)
(-3.29129e-05 -1.8141e-08 -3.55512e-06)
(-6.2873e-05 -2.42444e-07 -3.55184e-06)
(-7.70179e-05 -2.93873e-07 -2.94971e-06)
(-6.27505e-05 -1.95757e-07 -2.58923e-06)
(4.56953e-06 8.60763e-07 -3.96921e-06)
(2.5675e-06 6.92483e-07 -3.90083e-06)
(-1.00339e-06 5.33106e-07 -3.75247e-06)
(-6.79317e-06 3.91731e-07 -3.57352e-06)
(-1.62681e-05 2.29284e-07 -3.43167e-06)
(-3.15001e-05 -3.64725e-08 -3.47119e-06)
(-5.99048e-05 -4.43654e-07 -3.55848e-06)
(-7.21413e-05 -6.93594e-07 -3.00181e-06)
(-5.86173e-05 -3.64388e-07 -2.5118e-06)
(4.98153e-06 1.03475e-06 -3.80757e-06)
(3.43819e-06 8.90312e-07 -3.84384e-06)
(-8.19074e-07 6.71726e-07 -3.6391e-06)
(-6.10465e-06 4.70816e-07 -3.43601e-06)
(-1.51795e-05 2.68757e-07 -3.35822e-06)
(-2.97072e-05 -5.08802e-08 -3.31913e-06)
(-5.48314e-05 -3.47194e-07 -3.23017e-06)
(-6.56827e-05 -3.91227e-07 -2.6503e-06)
(-5.50588e-05 -1.67455e-07 -2.33634e-06)
(-1.4005e-06 1.78123e-07 -3.97275e-06)
(-7.92047e-06 1.84223e-07 -4.03317e-06)
(-1.75762e-05 1.82852e-07 -4.01059e-06)
(-3.29192e-05 1.3401e-07 -4.00944e-06)
(-6.14385e-05 6.07862e-08 -3.88242e-06)
(-7.32233e-05 1.46091e-07 -3.46258e-06)
(-5.92498e-05 1.00976e-07 -2.80084e-06)
(5.11968e-06 3.80116e-07 -4.35517e-06)
(2.84024e-06 3.67675e-07 -4.11091e-06)
(-1.10138e-06 3.58688e-07 -4.01445e-06)
(-7.36872e-06 2.5989e-07 -3.97404e-06)
(-1.69708e-05 1.74232e-07 -3.96702e-06)
(-3.21082e-05 2.35278e-08 -3.9287e-06)
(-6.01204e-05 -2.76633e-07 -3.71604e-06)
(-7.23732e-05 -3.83563e-07 -3.38784e-06)
(-5.90493e-05 -4.77005e-08 -2.79029e-06)
(5.20919e-06 6.53756e-07 -4.54342e-06)
(3.06732e-06 7.15092e-07 -4.27122e-06)
(-5.19238e-07 6.43533e-07 -3.91967e-06)
(-6.31858e-06 3.09948e-07 -3.82607e-06)
(-1.59395e-05 6.71158e-08 -3.89023e-06)
(-3.09064e-05 -1.09561e-07 -3.74651e-06)
(-5.76412e-05 -5.01079e-07 -3.59289e-06)
(-6.78693e-05 -6.89463e-07 -3.18064e-06)
(-5.48502e-05 -1.33228e-07 -2.46468e-06)
(4.80519e-06 9.01292e-07 -4.61329e-06)
(3.31702e-06 9.78841e-07 -4.19468e-06)
(3.51624e-08 7.40214e-07 -3.82871e-06)
(-5.42532e-06 4.1427e-07 -3.66816e-06)
(-1.45937e-05 1.86189e-07 -3.65119e-06)
(-2.98645e-05 1.64453e-08 -3.54643e-06)
(-5.21997e-05 -1.08948e-07 -3.26403e-06)
(-6.25191e-05 -1.76856e-07 -3.01044e-06)
(-5.21528e-05 -2.94934e-08 -2.40116e-06)
(-1.6268e-05 2.5147e-07 -4.21742e-06)
(-3.11027e-05 1.05132e-07 -4.06351e-06)
(-5.81393e-05 7.75359e-09 -4.09375e-06)
(-6.78708e-05 4.51138e-08 -3.99344e-06)
(-5.40646e-05 1.74951e-09 -2.88948e-06)
(5.28231e-06 3.03047e-07 -4.76443e-06)
(3.12232e-06 3.95956e-07 -4.32842e-06)
(-4.94709e-07 3.63791e-07 -4.05007e-06)
(-6.40169e-06 2.55133e-07 -4.01175e-06)
(-1.55404e-05 2.14797e-07 -4.07972e-06)
(-2.99031e-05 5.56304e-08 -3.90588e-06)
(-5.67095e-05 -2.50969e-07 -4.02085e-06)
(-6.60738e-05 -2.29902e-07 -3.96307e-06)
(-5.30858e-05 -3.92968e-08 -2.84881e-06)
(5.22243e-06 6.88831e-07 -4.8701e-06)
(3.43167e-06 8.53501e-07 -4.38525e-06)
(1.32878e-07 6.45422e-07 -4.04042e-06)
(-5.02048e-06 3.02325e-07 -3.85848e-06)
(-1.42413e-05 2.06419e-07 -3.89651e-06)
(-2.83905e-05 8.44948e-08 -3.7199e-06)
(-5.37722e-05 -4.53859e-07 -3.66488e-06)
(-6.19358e-05 -5.60433e-07 -3.43835e-06)
(-5.02534e-05 -4.05725e-08 -2.4725e-06)
(4.86029e-06 8.80229e-07 -4.83952e-06)
(3.65746e-06 9.76972e-07 -4.47737e-06)
(9.66464e-07 7.24486e-07 -3.97015e-06)
(-3.62308e-06 4.3493e-07 -3.72628e-06)
(-1.2479e-05 3.35483e-07 -3.66421e-06)
(-2.64359e-05 1.3529e-07 -3.51603e-06)
(-4.84128e-05 -1.88968e-07 -3.35232e-06)
(-5.63759e-05 -3.08329e-07 -3.02651e-06)
(-4.78273e-05 -4.32021e-08 -2.35109e-06)
(-5.50153e-05 -2.82908e-08 -4.11379e-06)
(-6.28209e-05 6.90779e-08 -4.15374e-06)
(-4.96881e-05 1.11382e-08 -3.05105e-06)
(6.50209e-06 1.27916e-07 -4.90785e-06)
(4.11343e-06 3.47379e-07 -4.40332e-06)
(6.44181e-07 4.33671e-07 -3.99133e-06)
(-4.72136e-06 3.59649e-07 -3.94276e-06)
(-1.32693e-05 3.21602e-07 -3.97509e-06)
(-2.69314e-05 1.0394e-07 -3.81653e-06)
(-5.29559e-05 -1.66569e-07 -4.02051e-06)
(-6.08077e-05 -4.775e-08 -4.39728e-06)
(-4.9414e-05 5.77682e-09 -3.2933e-06)
(6.67459e-06 8.36487e-07 -4.89165e-06)
(5.09718e-06 9.10847e-07 -4.43865e-06)
(2.42176e-06 7.71056e-07 -4.12705e-06)
(-2.51038e-06 4.92646e-07 -3.82946e-06)
(-1.21856e-05 3.60966e-07 -3.79178e-06)
(-2.49369e-05 2.00792e-07 -3.77855e-06)
(-4.8018e-05 -1.42454e-07 -3.68457e-06)
(-5.61301e-05 -6.02071e-08 -3.58828e-06)
(-4.69384e-05 1.47655e-07 -2.73537e-06)
(8.18134e-06 9.4799e-07 -4.98095e-06)
(6.4922e-06 8.91984e-07 -4.64392e-06)
(2.98537e-06 8.8352e-07 -4.04189e-06)
(-1.72788e-06 7.19988e-07 -3.7788e-06)
(-1.10554e-05 4.03954e-07 -3.75539e-06)
(-2.42244e-05 2.61574e-07 -3.55597e-06)
(-4.32447e-05 4.74044e-08 -3.27725e-06)
(-5.18738e-05 -4.07662e-08 -3.0708e-06)
(-4.43734e-05 1.30774e-07 -2.46323e-06)
)
;

boundaryField
{
    inlet
    {
        type            calculated;
        value           nonuniform 0();
    }
    outlet
    {
        type            calculated;
        value           nonuniform List<vector> 
16
(
(-4.07021e-06 -3.47383e-07 -2.47796e-06)
(-4.97085e-06 -6.64258e-07 -2.14571e-06)
(-2.80586e-06 -1.50807e-06 -2.18868e-06)
(-4.3525e-06 1.64787e-06 -1.05989e-06)
(-5.63192e-06 -8.05674e-07 -1.35628e-06)
(-4.38452e-06 1.34452e-06 -2.21313e-06)
(2.25438e-07 2.54705e-07 -1.36968e-06)
(-4.71648e-06 1.26269e-06 -4.16141e-07)
(-2.72189e-06 -5.80367e-07 -6.64046e-07)
(-2.27567e-06 -3.85413e-07 -8.54693e-07)
(8.93863e-07 -4.23595e-07 2.10157e-07)
(-5.4146e-07 4.94802e-07 -4.7298e-07)
(1.89158e-05 -5.30712e-07 1.24787e-06)
(6.22234e-06 -1.58367e-07 -1.73074e-06)
(2.96174e-06 4.71389e-07 -1.35595e-07)
(6.22942e-06 5.78894e-07 -5.22876e-07)
)
;
    }
    wall
    {
        type            calculated;
        value           nonuniform List<vector> 
66
(
(3.41862e-05 -2.77169e-06 -7.87769e-06)
(3.22681e-05 6.78095e-06 -4.52773e-06)
(8.13461e-05 5.62936e-06 -4.1758e-06)
(1.51703e-05 1.59588e-07 -4.43065e-06)
(2.1418e-05 3.67135e-06 -4.18768e-06)
(5.17886e-05 1.06669e-06 -7.33646e-06)
(1.59591e-05 1.00769e-06 -1.104e-06)
(3.19989e-05 1.87358e-06 -5.07208e-06)
(3.26775e-05 3.13691e-06 -2.16713e-06)
(1.48329e-05 4.78193e-07 -2.23192e-06)
(4.83067e-05 5.4059e-07 -2.99281e-06)
(2.76304e-05 2.60451e-06 -3.1331e-06)
(2.29051e-05 1.53034e-06 -3.96594e-06)
(9.71588e-06 8.94293e-07 -3.05902e-06)
(1.78944e-05 1.32332e-07 -5.10598e-06)
(4.41473e-05 2.5423e-07 -5.14945e-07)
(4.17937e-05 4.40785e-07 -5.07021e-06)
(-4.20667e-06 1.16134e-06 -3.43893e-06)
(-0.000130116 -4.42687e-07 -5.44423e-06)
(-0.000121585 -4.03648e-08 -4.79932e-06)
(-7.3126e-05 -5.60444e-07 -4.22559e-06)
(-4.73499e-05 1.27127e-06 -1.37301e-06)
(-0.000123826 8.28899e-07 -8.62138e-06)
(-8.71843e-05 7.07461e-07 -1.52724e-05)
(-8.40425e-05 1.26035e-06 -6.21793e-06)
(-8.02217e-05 4.6336e-07 -2.54532e-06)
(2.77738e-05 2.61386e-07 2.70826e-06)
(-3.99573e-07 1.39713e-07 -4.3754e-06)
(-4.8419e-06 1.41159e-06 1.62801e-07)
(8.75943e-06 1.37277e-06 1.23804e-06)
(3.946e-05 4.45431e-06 5.35488e-08)
(4.68295e-06 2.57579e-06 -7.09946e-06)
(-7.15268e-06 2.22765e-06 -4.86931e-06)
(3.74432e-05 3.6312e-06 -5.22889e-06)
(3.3994e-05 8.63127e-07 -4.15257e-06)
(9.62134e-06 3.10439e-06 -3.64099e-06)
(-2.58681e-06 2.79549e-06 -5.81213e-06)
(3.00491e-05 7.41374e-07 -6.45963e-06)
(3.23796e-07 5.76351e-08 -3.80334e-06)
(8.859e-06 1.62032e-06 -3.09563e-06)
(9.11353e-06 3.58992e-07 -2.55798e-06)
(1.87201e-05 2.30782e-06 -2.8266e-06)
(4.19011e-06 6.60313e-07 -2.82135e-06)
(4.4039e-06 3.08315e-07 -3.38974e-06)
(2.51668e-05 -7.83008e-07 -2.64912e-06)
(3.00929e-05 2.66849e-06 -3.02642e-06)
(5.12527e-06 5.89745e-07 -3.32677e-06)
(1.65125e-05 -3.7076e-07 -3.31888e-06)
(2.35384e-05 1.64488e-06 -2.57297e-06)
(8.63894e-06 4.66558e-07 -4.65033e-06)
(1.34248e-05 -9.41869e-07 -3.06015e-06)
(-3.18275e-05 6.2725e-07 -4.8837e-06)
(1.0505e-05 1.15113e-06 -2.63721e-06)
(1.17781e-05 1.15703e-06 -2.76365e-06)
(-9.40695e-05 -1.92226e-06 -4.32362e-06)
(-6.76539e-05 2.86079e-06 -8.34471e-07)
(-7.55604e-05 -6.85311e-07 -3.11032e-06)
(-4.21842e-05 8.37105e-07 -1.36806e-06)
(-0.000142227 7.11554e-09 1.12345e-07)
(-0.00012645 2.0068e-06 -4.9276e-06)
(-8.63516e-05 -1.90294e-06 -2.912e-06)
(-7.80263e-05 -9.27878e-08 -3.14863e-06)
(-2.22152e-05 2.88055e-06 -7.27412e-07)
(-2.08604e-05 2.14173e-06 -4.46936e-07)
(-9.6012e-06 6.54153e-07 4.15673e-07)
(7.41428e-07 1.12722e-06 6.87017e-07)
)
;
    }
    procBoundary7to0
    {
        type            processor;
        value           uniform (6.75286e-06 2.42453e-07 -3.91841e-06);
    }
    procBoundary7to1
    {
        type            processor;
        value           uniform (5.03075e-06 -1.34625e-08 -3.69938e-06);
    }
    procBoundary7to3
    {
        type            processor;
        value           nonuniform List<vector> 
36
(
(4.96076e-06 1.36634e-07 -3.18987e-06)
(2.80134e-06 9.9618e-08 -3.09962e-06)
(-1.04895e-06 2.49476e-07 -3.02147e-06)
(-7.56705e-06 1.23268e-07 -3.11844e-06)
(-1.71853e-05 6.48934e-09 -3.16301e-06)
(-3.26045e-05 7.41249e-08 -3.17746e-06)
(-6.29093e-05 8.36182e-08 -3.2416e-06)
(-7.52524e-05 2.68625e-07 -2.79529e-06)
(-6.13413e-05 3.84822e-07 -2.88755e-06)
(4.82908e-06 4.2191e-07 -3.29996e-06)
(2.35891e-06 3.88811e-07 -3.23451e-06)
(-1.32902e-06 3.93148e-07 -3.17684e-06)
(-7.27727e-06 2.74886e-07 -3.18959e-06)
(-1.67373e-05 8.62709e-08 -3.10079e-06)
(-3.22736e-05 6.76999e-08 -3.08601e-06)
(-6.27657e-05 -1.74151e-07 -3.14838e-06)
(-7.60852e-05 -3.27773e-07 -2.52641e-06)
(-6.13445e-05 -2.077e-07 -2.56416e-06)
(4.12544e-06 7.26225e-07 -3.48593e-06)
(1.99746e-06 8.86142e-07 -3.34293e-06)
(-1.23794e-06 6.60198e-07 -3.22207e-06)
(-6.7178e-06 5.5502e-07 -3.1357e-06)
(-1.58398e-05 2.64222e-07 -2.95938e-06)
(-3.08812e-05 1.58002e-07 -3.01767e-06)
(-5.99578e-05 -3.72495e-07 -3.10035e-06)
(-7.30093e-05 -8.2167e-07 -2.59096e-06)
(-5.87046e-05 -4.87793e-07 -2.56907e-06)
(2.86226e-06 8.62798e-07 -3.41417e-06)
(1.68275e-06 1.11062e-06 -3.41805e-06)
(-8.45128e-07 8.69831e-07 -3.22409e-06)
(-6.1898e-06 6.13921e-07 -2.96398e-06)
(-1.44307e-05 4.65679e-07 -2.82757e-06)
(-2.92044e-05 1.62604e-07 -2.92301e-06)
(-5.38389e-05 -3.45604e-07 -2.87252e-06)
(-6.69323e-05 -6.31182e-07 -2.39201e-06)
(-5.61435e-05 -5.58516e-07 -2.41386e-06)
)
;
    }
    procBoundary7to5
    {
        type            processor;
        value           nonuniform List<vector> 
44
(
(2.87664e-06 1.52207e-08 -3.56893e-06)
(-1.2518e-06 2.0733e-08 -3.41661e-06)
(-7.87098e-06 -3.78006e-08 -3.5034e-06)
(-1.77427e-05 -6.85362e-08 -3.52914e-06)
(-3.31909e-05 -8.02533e-09 -3.53141e-06)
(-6.27105e-05 3.65677e-07 -3.61995e-06)
(-7.54714e-05 6.6153e-07 -3.07278e-06)
(-6.07089e-05 4.76712e-07 -2.63295e-06)
(4.91918e-06 1.66576e-07 -4.20371e-06)
(2.66088e-06 1.63403e-07 -4.06739e-06)
(-1.28302e-06 1.43747e-08 -3.84647e-06)
(-7.6735e-06 2.69355e-08 -3.90467e-06)
(-1.74504e-05 -7.59218e-09 -3.94489e-06)
(-3.27126e-05 1.76715e-08 -3.88502e-06)
(-6.0998e-05 3.24808e-07 -3.80745e-06)
(-7.29275e-05 6.52592e-07 -3.55528e-06)
(-5.83171e-05 4.03899e-07 -2.81488e-06)
(4.91918e-06 1.66576e-07 -4.20371e-06)
(2.66088e-06 1.63403e-07 -4.06739e-06)
(2.66088e-06 1.63403e-07 -4.06739e-06)
(-8.91995e-07 1.86276e-07 -4.14065e-06)
(-6.82518e-06 2.29906e-07 -4.21302e-06)
(-1.62492e-05 6.71056e-08 -4.10137e-06)
(-3.07042e-05 6.78562e-08 -3.91104e-06)
(-5.69305e-05 2.84847e-07 -4.04262e-06)
(-6.60513e-05 3.79102e-07 -3.93599e-06)
(-5.39918e-05 1.61184e-07 -2.89159e-06)
(4.56281e-06 9.59433e-08 -4.44405e-06)
(2.69318e-06 7.09391e-08 -4.26467e-06)
(-8.91995e-07 1.86276e-07 -4.14065e-06)
(-6.82518e-06 2.29906e-07 -4.21302e-06)
(-6.82518e-06 2.29906e-07 -4.21302e-06)
(-1.44533e-05 2.9403e-07 -4.33361e-06)
(-3.02038e-05 1.0407e-07 -4.15489e-06)
(-5.2056e-05 1.21068e-07 -3.91741e-06)
(-5.95449e-05 2.39253e-07 -3.69391e-06)
(-4.97169e-05 1.28355e-07 -2.83657e-06)
(5.03171e-06 -5.3027e-08 -4.59008e-06)
(4.50631e-06 4.18472e-09 -4.30496e-06)
(3.80465e-07 2.27312e-07 -4.28672e-06)
(-5.49663e-06 3.01692e-07 -4.36631e-06)
(-1.44533e-05 2.9403e-07 -4.33361e-06)
(-3.02038e-05 1.0407e-07 -4.15489e-06)
(-3.02038e-05 1.0407e-07 -4.15489e-06)
)
;
    }
    procBoundary7to6
    {
        type            processor;
        value           nonuniform List<vector> 
12
(
(6.52984e-06 4.34733e-07 -4.00967e-06)
(6.16833e-06 6.39882e-07 -4.09536e-06)
(5.28723e-06 7.19643e-07 -4.10369e-06)
(6.70701e-06 4.33744e-07 -4.47241e-06)
(6.82139e-06 4.87119e-07 -4.55059e-06)
(6.70227e-06 5.55829e-07 -4.61249e-06)
(6.50492e-06 3.66438e-07 -4.87129e-06)
(6.60182e-06 3.875e-07 -4.97868e-06)
(6.40553e-06 5.07662e-07 -4.98409e-06)
(6.62229e-06 2.54949e-07 -5.07331e-06)
(7.1092e-06 3.84931e-07 -5.15069e-06)
(6.80961e-06 5.25446e-07 -5.04432e-06)
)
;
    }
}


// ************************************************************************* //
