/*--------------------------------*- C++ -*----------------------------------*\
| =========                 |                                                 |
| \\      /  F ield         | OpenFOAM: The Open Source CFD Toolbox           |
|  \\    /   O peration     | Version:  4.x                                   |
|   \\  /    A nd           | Web:      www.OpenFOAM.org                      |
|    \\/     M anipulation  |                                                 |
\*---------------------------------------------------------------------------*/
FoamFile
{
    version     2.0;
    format      ascii;
    class       volScalarField;
    location    "7.5";
    object      nu;
}
// * * * * * * * * * * * * * * * * * * * * * * * * * * * * * * * * * * * * * //

dimensions      [0 2 -1 0 0 0 0];

internalField   nonuniform List<scalar> 
132
(
1.0001e-06
9.99957e-07
9.99835e-07
9.99708e-07
9.99605e-07
9.9956e-07
9.99637e-07
9.99782e-07
9.99919e-07
1.00002e-06
9.99889e-07
9.99775e-07
9.99664e-07
9.99567e-07
9.99496e-07
9.99502e-07
9.9951e-07
9.99576e-07
1.00007e-06
9.99922e-07
9.99773e-07
9.99667e-07
9.99554e-07
9.99532e-07
9.99496e-07
9.99532e-07
9.99453e-07
1.00051e-06
1.00052e-06
1.00048e-06
1.00042e-06
1.00032e-06
1.00025e-06
1.00011e-06
1.00005e-06
9.98535e-07
9.99709e-07
9.99581e-07
9.99525e-07
9.99711e-07
9.99889e-07
9.99947e-07
9.9997e-07
9.99872e-07
9.99764e-07
9.99656e-07
9.99574e-07
9.99502e-07
9.99506e-07
9.99592e-07
9.99723e-07
9.99776e-07
9.9998e-07
9.99873e-07
9.99754e-07
9.99662e-07
9.9956e-07
9.99579e-07
9.99594e-07
9.99657e-07
9.99631e-07
1.00034e-06
1.00035e-06
1.00031e-06
1.00026e-06
1.00018e-06
1.00011e-06
1.00003e-06
9.99977e-07
9.99362e-07
9.99593e-07
9.99555e-07
9.99527e-07
9.99597e-07
9.99524e-07
9.99991e-07
9.99915e-07
9.99814e-07
9.99747e-07
9.99649e-07
9.9958e-07
9.99537e-07
9.9959e-07
9.99492e-07
9.99964e-07
9.99884e-07
9.99818e-07
9.99801e-07
9.9976e-07
9.99779e-07
9.9975e-07
9.99783e-07
9.99485e-07
1.00026e-06
1.00027e-06
1.00025e-06
1.00024e-06
1.0002e-06
1.00016e-06
1.0001e-06
1.00007e-06
9.98459e-07
9.9997e-07
9.99906e-07
9.97192e-07
1.00025e-06
1.00021e-06
1.00012e-06
1.00001e-06
9.9991e-07
9.99848e-07
9.99781e-07
9.99747e-07
9.9912e-07
1.00025e-06
1.00025e-06
1.00024e-06
1.00021e-06
1.00017e-06
1.00013e-06
1.00006e-06
1.00001e-06
9.99522e-07
1.00026e-06
1.00027e-06
1.00028e-06
1.00027e-06
1.00026e-06
1.00024e-06
1.00021e-06
1.00019e-06
9.99442e-07
)
;

boundaryField
{
    inlet
    {
        type            calculated;
        value           nonuniform 0();
    }
    outlet
    {
        type            calculated;
        value           uniform 1e-06;
    }
    wall
    {
        type            calculated;
        value           nonuniform List<scalar> 
66
(
1.00025e-06
1.00025e-06
1.00026e-06
1.00021e-06
1.00025e-06
1.00027e-06
1.00012e-06
1.00024e-06
1.00028e-06
1.00001e-06
1.00021e-06
1.00027e-06
9.9991e-07
1.00017e-06
1.00026e-06
9.99848e-07
1.00013e-06
1.00024e-06
9.9997e-07
9.99781e-07
1.00006e-06
1.00021e-06
9.99906e-07
9.99747e-07
1.00001e-06
1.00019e-06
9.97192e-07
9.9912e-07
9.99522e-07
9.99442e-07
1.00051e-06
1.00034e-06
1.00026e-06
1.00026e-06
1.00052e-06
1.00035e-06
1.00027e-06
1.00027e-06
1.00048e-06
1.00031e-06
1.00025e-06
1.00028e-06
1.00042e-06
1.00026e-06
1.00024e-06
1.00027e-06
1.00032e-06
1.00018e-06
1.0002e-06
1.00026e-06
1.00025e-06
1.00011e-06
1.00016e-06
1.00024e-06
1.00011e-06
1.00003e-06
1.0001e-06
1.00021e-06
1.00005e-06
9.99977e-07
1.00007e-06
1.00019e-06
9.98535e-07
9.99362e-07
9.98459e-07
9.99442e-07
)
;
    }
    procBoundary7to0
    {
        type            processor;
        value           uniform 1.00022e-06;
    }
    procBoundary7to1
    {
        type            processor;
        value           uniform 9.99979e-07;
    }
    procBoundary7to3
    {
        type            processor;
        value           nonuniform List<scalar> 
36
(
1.00015e-06
9.99983e-07
9.99838e-07
9.99675e-07
9.9954e-07
9.9944e-07
9.99423e-07
9.99458e-07
9.99567e-07
1.00013e-06
9.9996e-07
9.998e-07
9.99648e-07
9.99518e-07
9.99415e-07
9.99369e-07
9.99351e-07
9.99153e-07
1.0002e-06
9.99981e-07
9.99767e-07
9.99637e-07
9.99514e-07
9.99476e-07
9.99406e-07
9.99435e-07
9.98408e-07
1.0008e-06
1.00078e-06
1.0007e-06
1.0006e-06
1.00046e-06
1.00034e-06
1.00018e-06
1.00008e-06
9.96248e-07
)
;
    }
    procBoundary7to5
    {
        type            processor;
        value           nonuniform List<scalar> 
44
(
9.99823e-07
9.99667e-07
9.99537e-07
9.99443e-07
9.99401e-07
9.99429e-07
9.99488e-07
9.99538e-07
9.99959e-07
9.99836e-07
9.9966e-07
9.9957e-07
9.99493e-07
9.99486e-07
9.99555e-07
9.9966e-07
9.99757e-07
9.99959e-07
9.99836e-07
9.99836e-07
9.99755e-07
9.99707e-07
9.99668e-07
9.99631e-07
9.99555e-07
9.99595e-07
9.99431e-07
1.00002e-06
9.99894e-07
9.99755e-07
9.99707e-07
9.99707e-07
1.00011e-06
1.00005e-06
1.00004e-06
9.99985e-07
9.98936e-07
1.00024e-06
1.00022e-06
1.00019e-06
1.00016e-06
1.00011e-06
1.00005e-06
1.00005e-06
)
;
    }
    procBoundary7to6
    {
        type            processor;
        value           nonuniform List<scalar> 
12
(
1.00014e-06
1.0002e-06
1.00048e-06
1.00001e-06
1.00009e-06
1.00033e-06
1.00008e-06
1.00008e-06
1.00025e-06
1.00025e-06
1.00024e-06
1.00025e-06
)
;
    }
}


// ************************************************************************* //
