/*--------------------------------*- C++ -*----------------------------------*\
| =========                 |                                                 |
| \\      /  F ield         | OpenFOAM: The Open Source CFD Toolbox           |
|  \\    /   O peration     | Version:  4.x                                   |
|   \\  /    A nd           | Web:      www.OpenFOAM.org                      |
|    \\/     M anipulation  |                                                 |
\*---------------------------------------------------------------------------*/
FoamFile
{
    version     2.0;
    format      ascii;
    class       volScalarField;
    location    "7.5";
    object      particleRelTemp;
}
// * * * * * * * * * * * * * * * * * * * * * * * * * * * * * * * * * * * * * //

dimensions      [0 0 0 0 0 0 0];

internalField   nonuniform List<scalar> 
132
(
1.09251e-07
9.34669e-08
8.38976e-08
9.82219e-08
1.32042e-07
2.06054e-07
2.91599e-07
3.81591e-07
4.38803e-07
8.46285e-08
7.92209e-08
7.6067e-08
8.52228e-08
1.2009e-07
1.62008e-07
2.31325e-07
3.1635e-07
3.7858e-07
2.80477e-08
2.43865e-08
2.56182e-08
3.45134e-08
6.41037e-08
9.07478e-08
1.53102e-07
2.19816e-07
2.67774e-07
-1.98455e-08
-3.08108e-08
-2.72324e-08
-1.63935e-08
-5.75005e-10
2.69419e-08
7.53409e-08
1.14858e-07
1.46263e-07
6.69006e-08
7.78504e-08
1.14627e-07
1.80874e-07
2.60311e-07
3.51532e-07
3.98735e-07
6.36467e-08
5.55411e-08
5.4876e-08
6.38133e-08
9.89254e-08
1.54237e-07
2.36083e-07
3.05758e-07
3.59155e-07
2.07611e-08
7.62632e-09
5.75013e-09
2.20175e-08
3.96671e-08
8.83603e-08
1.42643e-07
2.17349e-07
2.39566e-07
-3.58625e-08
-4.37079e-08
-3.72943e-08
-2.95313e-08
-1.55943e-08
1.24331e-08
5.68846e-08
1.06116e-07
1.26082e-07
8.98731e-08
1.30903e-07
2.0845e-07
2.68407e-07
3.46543e-07
1.5978e-08
2.11177e-08
1.24938e-08
2.82866e-08
6.01175e-08
1.2056e-07
1.92923e-07
2.42558e-07
2.97337e-07
-2.37729e-08
-3.50939e-08
-3.242e-08
-1.73718e-08
6.09198e-09
5.24066e-08
1.02399e-07
1.42605e-07
1.85791e-07
-7.75351e-08
-7.274e-08
-7.64567e-08
-6.43443e-08
-5.90359e-08
-3.03767e-08
1.46831e-08
4.17419e-08
7.17656e-08
1.51209e-07
2.13525e-07
2.45036e-07
-1.44138e-08
-3.06373e-08
-2.4381e-08
-9.11842e-09
3.11722e-08
7.69179e-08
1.2199e-07
1.74432e-07
2.27015e-07
-6.76528e-08
-6.74611e-08
-6.50092e-08
-5.60866e-08
-2.61472e-08
1.70612e-08
4.75409e-08
7.90713e-08
1.19143e-07
-1.08609e-07
-1.07843e-07
-1.10566e-07
-1.06694e-07
-8.70243e-08
-6.07802e-08
-3.14018e-08
-1.40824e-08
-1.70512e-08
)
;

boundaryField
{
    inlet
    {
        type            calculated;
        value           nonuniform 0();
    }
    outlet
    {
        type            calculated;
        value           nonuniform List<scalar> 
16
(
4.38803e-07
3.7858e-07
2.67774e-07
1.46263e-07
3.98735e-07
3.59155e-07
2.39566e-07
1.26082e-07
3.46543e-07
2.97337e-07
1.85791e-07
7.17656e-08
2.45036e-07
2.27015e-07
1.19143e-07
-1.70512e-08
)
;
    }
    wall
    {
        type            calculated;
        value           nonuniform List<scalar> 
66
(
-1.44138e-08
-6.76528e-08
-1.08609e-07
-3.06373e-08
-6.74611e-08
-1.07843e-07
-2.4381e-08
-6.50092e-08
-1.10566e-07
-9.11842e-09
-5.60866e-08
-1.06694e-07
3.11722e-08
-2.61472e-08
-8.70243e-08
7.69179e-08
1.70612e-08
-6.07802e-08
1.51209e-07
1.2199e-07
4.75409e-08
-3.14018e-08
2.13525e-07
1.74432e-07
7.90713e-08
-1.40824e-08
2.45036e-07
2.27015e-07
1.19143e-07
-1.70512e-08
-1.98455e-08
-3.58625e-08
-7.75351e-08
-1.08609e-07
-3.08108e-08
-4.37079e-08
-7.274e-08
-1.07843e-07
-2.72324e-08
-3.72943e-08
-7.64567e-08
-1.10566e-07
-1.63935e-08
-2.95313e-08
-6.43443e-08
-1.06694e-07
-5.75005e-10
-1.55943e-08
-5.90359e-08
-8.70243e-08
2.69419e-08
1.24331e-08
-3.03767e-08
-6.07802e-08
7.53409e-08
5.68846e-08
1.46831e-08
-3.14018e-08
1.14858e-07
1.06116e-07
4.17419e-08
-1.40824e-08
1.46263e-07
1.26082e-07
7.17656e-08
-1.70512e-08
)
;
    }
    procBoundary7to0
    {
        type            processor;
        value           uniform 1.27283e-07;
    }
    procBoundary7to1
    {
        type            processor;
        value           uniform 1.00468e-07;
    }
    procBoundary7to3
    {
        type            processor;
        value           nonuniform List<scalar> 
36
(
1.0264e-07
8.88485e-08
8.04184e-08
8.42343e-08
1.20681e-07
1.82641e-07
2.56188e-07
3.64641e-07
4.13559e-07
8.3289e-08
7.50354e-08
6.80524e-08
7.64381e-08
1.09239e-07
1.61608e-07
2.3467e-07
2.99551e-07
3.41883e-07
1.68345e-08
1.09428e-08
1.94298e-08
3.01196e-08
6.15075e-08
1.02455e-07
1.41064e-07
2.05789e-07
2.36083e-07
-3.70823e-08
-5.47554e-08
-4.54745e-08
-3.49194e-08
-4.0982e-09
1.3062e-08
6.31507e-08
1.08719e-07
1.53477e-07
)
;
    }
    procBoundary7to5
    {
        type            processor;
        value           nonuniform List<scalar> 
44
(
7.5667e-08
6.01261e-08
7.41328e-08
1.0235e-07
1.57899e-07
2.46054e-07
3.37939e-07
4.16971e-07
8.34755e-08
6.10712e-08
3.88749e-08
5.66239e-08
9.16939e-08
1.43354e-07
2.27143e-07
3.1712e-07
3.62441e-07
8.34755e-08
6.10712e-08
6.10712e-08
1.53341e-08
3.53266e-08
5.1223e-08
1.02887e-07
1.66373e-07
2.32597e-07
2.78705e-07
3.02482e-08
1.71558e-08
1.53341e-08
3.53266e-08
3.53266e-08
3.75623e-08
9.393e-08
1.01271e-07
1.55911e-07
1.9611e-07
-1.44934e-08
-2.76079e-08
-2.45944e-08
-5.95953e-09
3.75623e-08
9.393e-08
9.393e-08
)
;
    }
    procBoundary7to6
    {
        type            processor;
        value           nonuniform List<scalar> 
12
(
1.04469e-07
3.80895e-08
-2.73997e-08
7.63319e-08
2.21055e-08
-2.56657e-08
3.7821e-08
-3.59424e-09
-6.31806e-08
-2.08136e-08
-5.36844e-08
-9.934e-08
)
;
    }
}


// ************************************************************************* //
