/*--------------------------------*- C++ -*----------------------------------*\
| =========                 |                                                 |
| \\      /  F ield         | OpenFOAM: The Open Source CFD Toolbox           |
|  \\    /   O peration     | Version:  4.x                                   |
|   \\  /    A nd           | Web:      www.OpenFOAM.org                      |
|    \\/     M anipulation  |                                                 |
\*---------------------------------------------------------------------------*/
FoamFile
{
    version     2.0;
    format      ascii;
    class       volVectorField;
    location    "7.5";
    object      Urel;
}
// * * * * * * * * * * * * * * * * * * * * * * * * * * * * * * * * * * * * * //

dimensions      [0 1 -1 0 0 0 0];

internalField   nonuniform List<vector> 
132
(
(-0.0182109 -1.10487e-05 4.07945e-05)
(-0.0198316 -2.37281e-05 0.000316315)
(-0.0181881 -2.64952e-05 0.000629917)
(-0.0196689 -8.41795e-06 0.000962728)
(-0.0178786 -1.80586e-05 0.00126589)
(-0.0189252 1.07208e-06 0.00152388)
(-0.0167158 6.18048e-06 0.00187029)
(-0.0171208 4.23109e-05 0.00209489)
(-0.0149711 -9.17679e-06 0.00285096)
(-0.0186458 -0.00016723 5.98166e-06)
(-0.0203838 -0.000149268 0.000276641)
(-0.0187532 -0.000189346 0.000603863)
(-0.0204155 -0.000147565 0.000937807)
(-0.0186349 -0.00036439 0.00127989)
(-0.0200982 -0.000457211 0.00160855)
(-0.0179671 -0.000904079 0.00217168)
(-0.0188609 -0.00103018 0.00250071)
(-0.0162285 -0.00224502 0.00375702)
(-0.0197977 -0.000242349 -0.000226812)
(-0.0215288 -0.000183249 1.31648e-05)
(-0.0200055 -0.000194646 0.000425587)
(-0.021762 -0.000161198 0.000818865)
(-0.0200025 -0.000366516 0.00110832)
(-0.0217389 -0.00047168 0.00147069)
(-0.0197201 -0.00116586 0.00227597)
(-0.0209639 -0.00156601 0.00289248)
(-0.0179072 -0.00409184 0.00505484)
(-0.0223294 -0.000353746 -0.000680226)
(-0.0237798 -0.000267568 -0.000556889)
(-0.0228138 -0.000257651 -0.000116569)
(-0.02426 -0.000218503 0.000165532)
(-0.0229473 -0.000428004 0.000762815)
(-0.0245181 -0.000460139 0.00113497)
(-0.0225066 -0.0013163 0.00227636)
(-0.0242515 -0.00175606 0.00315925)
(-0.0197865 -0.00441764 0.00622972)
(-0.0177626 5.64232e-05 0.000485536)
(-0.0192075 6.16743e-05 0.000750231)
(-0.0173325 8.05519e-05 0.000945281)
(-0.0180837 8.72327e-05 0.00118044)
(-0.0159202 0.00015618 0.00138354)
(-0.0161479 0.000189813 0.00158903)
(-0.0143723 0.000300141 0.00203291)
(-0.0183242 -9.82919e-05 3.26088e-05)
(-0.0200681 -7.30339e-05 0.000348193)
(-0.0183047 -8.27614e-05 0.000525523)
(-0.0198729 -2.79815e-05 0.000844801)
(-0.0180233 -0.000277704 0.00106575)
(-0.0191799 -0.0003572 0.00135047)
(-0.0170297 -0.000625354 0.00164596)
(-0.0176106 -0.00073422 0.00186255)
(-0.0155117 -0.00148979 0.00261223)
(-0.0195695 -0.000170802 -0.000145489)
(-0.0212437 -9.49496e-05 8.21099e-05)
(-0.0196737 -0.000127714 0.000356205)
(-0.0211385 -7.55657e-05 0.000659312)
(-0.0192464 -0.000291534 0.000933192)
(-0.0207999 -0.000403594 0.00129956)
(-0.0187012 -0.000870492 0.00174393)
(-0.0195853 -0.00123312 0.00219093)
(-0.0170947 -0.00264554 0.00332326)
(-0.0220122 -0.000271033 -0.000501582)
(-0.0234125 -0.000193171 -0.000387061)
(-0.0223648 -0.000231761 -2.25427e-05)
(-0.0236443 -0.000202188 0.000210378)
(-0.0222117 -0.000382903 0.000718552)
(-0.023441 -0.000415803 0.00105362)
(-0.0214671 -0.00108072 0.00188589)
(-0.0223077 -0.00144225 0.00249915)
(-0.0191119 -0.00313078 0.00431139)
(-0.0179609 0.000189774 0.000787901)
(-0.0190998 0.000218139 0.000973375)
(-0.0168904 0.00034162 0.000980207)
(-0.017537 0.000363127 0.0011767)
(-0.015578 0.000715305 0.00110272)
(-0.0190968 -6.19891e-05 1.3687e-05)
(-0.0206644 -0.000104041 0.000337313)
(-0.0187473 -1.15709e-05 0.000474085)
(-0.0203895 0.000107114 0.000836496)
(-0.0182953 -7.002e-05 0.000882437)
(-0.019643 -9.78397e-05 0.00109867)
(-0.0172223 -0.0003041 0.0012293)
(-0.018182 -0.000399149 0.00147099)
(-0.015902 -0.00111886 0.00175699)
(-0.0201547 -0.000130127 -0.000105033)
(-0.0218266 -0.000114284 0.00013491)
(-0.0203267 -9.10002e-05 0.000346751)
(-0.0217959 -2.59873e-05 0.000625154)
(-0.0199358 -0.000222624 0.000847696)
(-0.0213211 -0.000280688 0.00117597)
(-0.01912 -0.000789698 0.00146647)
(-0.020063 -0.000997323 0.0018515)
(-0.0175455 -0.00294691 0.00248305)
(-0.0225202 -0.000193162 -0.000380595)
(-0.0239046 -0.000101357 -0.000252706)
(-0.0229773 -0.000145223 8.12816e-06)
(-0.0242067 -0.00010303 0.000226898)
(-0.0228452 -0.000361398 0.000601688)
(-0.0240749 -0.000376319 0.000921657)
(-0.0220555 -0.00110386 0.00150555)
(-0.0233162 -0.0012722 0.00208401)
(-0.0194712 -0.00339136 0.00315029)
(-0.0184224 0.000576014 0.000878037)
(-0.0189853 0.000490474 0.00105194)
(-0.0167561 0.00119656 0.000994931)
(-0.0204265 2.63405e-05 3.43805e-06)
(-0.0216371 5.79381e-05 0.00024074)
(-0.0198139 6.22515e-05 0.000455957)
(-0.021081 0.000115399 0.000773935)
(-0.0188009 1.54126e-05 0.000829626)
(-0.0200889 9.21519e-06 0.000939978)
(-0.017714 -0.000127711 0.00109703)
(-0.0186062 -0.000248077 0.00125055)
(-0.016424 -0.000531327 0.00165456)
(-0.0216562 -0.000102 -3.591e-05)
(-0.0228523 -9.6283e-05 0.000218884)
(-0.0214868 -7.21568e-05 0.000445717)
(-0.0225553 -4.76956e-05 0.000706154)
(-0.0207634 -0.000195066 0.000899251)
(-0.0217266 -0.000221464 0.0011311)
(-0.0195147 -0.000660449 0.00144541)
(-0.0201563 -0.000819056 0.00174467)
(-0.017773 -0.00199969 0.00243727)
(-0.0231623 -0.000135325 -0.000175306)
(-0.0244515 -9.71811e-05 -1.84388e-05)
(-0.0236243 -0.000142188 0.000238342)
(-0.0247194 -0.000147025 0.000446198)
(-0.0235348 -0.000365991 0.000811547)
(-0.0244601 -0.000443499 0.00105015)
(-0.022698 -0.00103309 0.00175634)
(-0.0233002 -0.00122458 0.00213911)
(-0.0204046 -0.00274278 0.00383644)
)
;

boundaryField
{
    inlet
    {
        type            calculated;
        value           nonuniform 0();
    }
    outlet
    {
        type            calculated;
        value           nonuniform List<vector> 
16
(
(0.00090565 -0.00027296 0.0043395)
(-0.00564927 -0.00928436 0.00995688)
(-0.00816377 -0.0221524 0.0186207)
(-0.0123831 -0.0192377 0.0266752)
(0.0047499 0.000115877 0.0028337)
(-0.00396305 -0.00470416 0.00375093)
(-0.0038252 -0.00392363 0.00341377)
(-0.0117735 -0.00534993 0.0108903)
(-0.00485118 0.00125288 -0.00267056)
(-0.0040656 -0.00413382 0.000158944)
(-0.00920238 -0.0173243 0.00227689)
(-0.0111477 -0.0144029 0.00299318)
(-0.0114196 0.00466439 -0.000908961)
(-0.00579329 -0.000442964 0.00227323)
(-0.00681711 -0.00514596 0.00265519)
(-0.0219404 -0.00795066 0.015718)
)
;
    }
    wall
    {
        type            calculated;
        value           nonuniform List<vector> 
66
(
(1.11699e-06 3.49485e-07 3.17995e-06)
(1.18688e-06 -1.85232e-07 3.61802e-06)
(2.50738e-06 6.98846e-07 4.85172e-06)
(5.44902e-07 -4.96879e-07 1.87158e-06)
(1.32939e-06 7.51574e-08 1.97168e-06)
(1.80992e-06 4.37655e-07 3.17538e-06)
(1.08141e-06 -2.56246e-07 1.02443e-06)
(6.16707e-07 -9.98695e-07 2.23562e-06)
(2.32428e-06 -1.10197e-07 2.32849e-06)
(1.01822e-06 -3.41744e-07 1.11277e-06)
(7.03356e-07 -2.03662e-07 1.30225e-06)
(2.33115e-06 1.38256e-07 2.38265e-06)
(1.32965e-06 -4.2586e-07 1.74299e-06)
(7.89782e-07 -3.61655e-07 1.44623e-06)
(1.11299e-06 -1.54572e-07 2.10454e-06)
(1.29668e-07 -5.29628e-08 1.12127e-06)
(4.94181e-07 -2.67299e-07 2.90036e-06)
(9.33246e-07 3.61094e-08 1.67892e-06)
(5.96025e-07 1.58356e-07 1.56519e-06)
(2.18007e-07 -1.17325e-07 1.05481e-06)
(3.31013e-07 1.97341e-07 1.6323e-06)
(4.97215e-07 7.06896e-08 8.6407e-07)
(1.37157e-07 1.60321e-07 1.75114e-06)
(-1.95741e-07 3.57429e-07 2.35993e-06)
(1.15338e-07 5.15001e-07 1.5338e-06)
(4.89151e-07 1.68355e-07 1.45448e-06)
(5.88107e-07 5.57786e-07 3.86148e-06)
(2.89993e-07 2.1699e-07 2.10904e-06)
(2.98988e-07 -2.24526e-08 1.28241e-06)
(1.95543e-06 8.84568e-08 2.29896e-06)
(1.10267e-06 3.61957e-07 4.76653e-06)
(-1.02823e-06 -1.56013e-07 4.15923e-06)
(1.58085e-06 5.10232e-07 3.58222e-06)
(2.50738e-06 6.98846e-07 4.85172e-06)
(5.76042e-07 -4.26695e-08 4.85788e-06)
(-9.94588e-09 3.63394e-08 5.01701e-06)
(1.07732e-06 -2.26764e-07 4.27151e-06)
(1.80992e-06 4.37655e-07 3.17538e-06)
(6.62092e-07 2.51955e-08 4.07128e-06)
(1.39363e-07 -1.34887e-07 4.12686e-06)
(1.5105e-06 1.72699e-07 3.31478e-06)
(2.32428e-06 -1.10197e-07 2.32849e-06)
(1.37165e-06 -4.01571e-07 3.85306e-06)
(1.1055e-06 -9.41206e-08 3.11128e-06)
(1.00355e-06 1.22029e-07 2.50002e-06)
(2.33115e-06 1.38256e-07 2.38265e-06)
(3.34614e-07 -2.57937e-07 3.05342e-06)
(1.20344e-06 1.2624e-07 2.45412e-06)
(9.80391e-07 -3.41655e-07 2.08409e-06)
(1.11299e-06 -1.54572e-07 2.10454e-06)
(3.6817e-07 -1.11293e-07 3.38659e-06)
(1.30021e-06 6.43082e-08 2.58146e-06)
(2.15085e-06 -2.85781e-07 2.64791e-06)
(9.33246e-07 3.61094e-08 1.67892e-06)
(1.78096e-07 -1.17068e-07 2.0837e-06)
(1.41036e-06 -2.48671e-08 1.41243e-06)
(2.36475e-07 9.81521e-08 1.2703e-06)
(4.97215e-07 7.06896e-08 8.6407e-07)
(4.70326e-07 -4.30513e-07 9.50336e-07)
(7.39202e-07 -1.05553e-08 1.17272e-06)
(5.45767e-07 4.03062e-07 1.00911e-06)
(4.89151e-07 1.68355e-07 1.45448e-06)
(1.42407e-07 -2.38193e-07 1.40285e-06)
(-2.70318e-08 1.07566e-07 1.22095e-06)
(2.37463e-08 1.06204e-07 1.02864e-06)
(1.95543e-06 8.84568e-08 2.29896e-06)
)
;
    }
    procBoundary7to0
    {
        type            processor;
        value           uniform (-0.019819 -1.86784e-05 -0.000240664);
    }
    procBoundary7to1
    {
        type            processor;
        value           uniform (-0.0185592 0.000149645 -8.42917e-05);
    }
    procBoundary7to3
    {
        type            processor;
        value           nonuniform List<vector> 
36
(
(-0.0183234 -3.80088e-05 -1.74541e-05)
(-0.0200388 -5.72972e-05 0.000261224)
(-0.0182561 -6.5438e-05 0.000526145)
(-0.0200544 -8.104e-05 0.000876786)
(-0.0182491 -8.83855e-05 0.00121219)
(-0.0197381 -6.45747e-05 0.00157169)
(-0.0175688 -9.87348e-05 0.00194722)
(-0.0185347 -3.13122e-05 0.00238616)
(-0.0160558 -0.000312324 0.00318312)
(-0.0189658 -0.000220975 -7.59195e-05)
(-0.0206676 -0.000176863 0.000213131)
(-0.0189847 -0.000239592 0.000508474)
(-0.0207963 -0.000233784 0.000861719)
(-0.0190433 -0.000390701 0.00121501)
(-0.0207584 -0.000424587 0.00161697)
(-0.0186693 -0.000838572 0.00211736)
(-0.0200184 -0.000996013 0.00279363)
(-0.0171826 -0.00237573 0.00381405)
(-0.0200738 -0.00035828 -0.000353964)
(-0.0217799 -0.000307963 -9.58657e-05)
(-0.0200979 -0.000292676 0.000238311)
(-0.0220927 -0.000263647 0.000606404)
(-0.0203541 -0.000438995 0.00101313)
(-0.0223196 -0.000517622 0.00143434)
(-0.0201956 -0.00110257 0.00212259)
(-0.0219918 -0.00149661 0.00304211)
(-0.018462 -0.00383393 0.00476789)
(-0.0226324 -0.000528163 -0.000897731)
(-0.0240295 -0.000478192 -0.000775448)
(-0.0230219 -0.000400262 -0.000366039)
(-0.0244812 -0.000317205 -6.76143e-05)
(-0.0231535 -0.00046409 0.000535072)
(-0.0247741 -0.000511431 0.00099369)
(-0.0227485 -0.00122527 0.00193993)
(-0.0245857 -0.00170386 0.00326855)
(-0.0200316 -0.00400581 0.00589493)
)
;
    }
    procBoundary7to5
    {
        type            processor;
        value           nonuniform List<vector> 
44
(
(-0.020272 0.000109422 0.000140026)
(-0.0184639 0.000140945 0.000406451)
(-0.0202378 0.000114136 0.000758711)
(-0.0183504 0.000337062 0.00101764)
(-0.0198965 0.000495429 0.00137248)
(-0.0176969 0.000939556 0.00172133)
(-0.0186649 0.00118679 0.00208019)
(-0.0161201 0.00225193 0.00274512)
(-0.0179899 4.30099e-05 2.43402e-05)
(-0.019555 7.48908e-05 0.000355875)
(-0.0184499 0.000214345 0.00036757)
(-0.0200663 0.000188632 0.000725129)
(-0.0182192 0.000474239 0.000873672)
(-0.0194639 0.000611532 0.00113874)
(-0.0172737 0.000979183 0.00127707)
(-0.0179558 0.00121005 0.00148729)
(-0.0157814 0.00216169 0.00177389)
(-0.0179899 4.30099e-05 2.43402e-05)
(-0.019555 7.48908e-05 0.000355875)
(-0.019555 7.48908e-05 0.000355875)
(-0.0182858 0.000120357 0.000433289)
(-0.0199048 0.000134713 0.000761237)
(-0.0190717 0.000489252 0.000717397)
(-0.0205419 0.000622545 0.000962528)
(-0.0182063 0.00110513 0.000904026)
(-0.0191904 0.00132979 0.00113574)
(-0.0167052 0.00268137 0.000779293)
(-0.0188795 0.000118147 -6.63223e-05)
(-0.0202854 0.000161906 0.000224936)
(-0.0182858 0.000120357 0.000433289)
(-0.0199048 0.000134713 0.000761237)
(-0.0199048 0.000134713 0.000761237)
(-0.0197514 0.000332782 0.000789386)
(-0.0205243 0.000264918 0.00093582)
(-0.0197896 0.00139906 0.000894835)
(-0.0204639 0.00159827 0.000960495)
(-0.0176474 0.00301995 0.000788594)
(-0.0210021 0.00025532 -0.000165745)
(-0.0220825 0.000310184 4.90502e-05)
(-0.0207065 0.000290218 0.000370665)
(-0.0215885 0.000276085 0.000770086)
(-0.0197514 0.000332782 0.000789386)
(-0.0205243 0.000264918 0.00093582)
(-0.0205243 0.000264918 0.00093582)
)
;
    }
    procBoundary7to6
    {
        type            processor;
        value           nonuniform List<vector> 
12
(
(-0.0202214 -0.000176751 -0.00022903)
(-0.021201 -0.000297378 -0.000463783)
(-0.0231043 -0.000433368 -0.000868393)
(-0.0200142 -0.000110667 -0.000163083)
(-0.021003 -0.000222672 -0.000317459)
(-0.0228243 -0.000330644 -0.000654842)
(-0.0206925 -6.92846e-05 -0.000174866)
(-0.0215713 -0.000172354 -0.000281801)
(-0.0232582 -0.000266736 -0.000513161)
(-0.0217978 1.2738e-05 -0.000180949)
(-0.022682 -0.000145988 -0.000246245)
(-0.0238035 -0.000187271 -0.000331241)
)
;
    }
}


// ************************************************************************* //
