/*--------------------------------*- C++ -*----------------------------------*\
| =========                 |                                                 |
| \\      /  F ield         | OpenFOAM: The Open Source CFD Toolbox           |
|  \\    /   O peration     | Version:  4.x                                   |
|   \\  /    A nd           | Web:      www.OpenFOAM.org                      |
|    \\/     M anipulation  |                                                 |
\*---------------------------------------------------------------------------*/
FoamFile
{
    version     2.0;
    format      ascii;
    class       volScalarField;
    location    "45";
    object      pSmooth;
}
// * * * * * * * * * * * * * * * * * * * * * * * * * * * * * * * * * * * * * //

dimensions      [1 -1 -2 0 0 0 0];

internalField   nonuniform List<scalar> 
114
(
74.2287
94.9535
55.9556
87.9545
37.2633
81.2002
108.958
91.9683
102.241
74.4243
95.3383
56.3298
88.3986
37.8781
81.6115
108.571
91.7757
101.875
74.1813
94.9578
56.0983
88.0268
37.5586
81.2319
108.28
91.6719
101.653
74.1385
94.7836
56.1958
87.9319
37.8684
81.1983
56.1444
88.5546
37.2494
81.6002
109.825
92.5247
103.096
74.7029
96.0801
56.4875
89.0365
37.8042
82.0732
109.407
92.2248
102.584
74.3314
95.4912
56.0918
88.3987
37.4055
81.4866
108.967
92.0352
102.214
74.2691
95.2088
56.1763
88.2286
37.6857
81.4307
37.783
81.5608
110.625
92.968
103.732
75.3219
96.4586
57.3382
89.0824
39.0295
81.7349
110.247
92.8358
103.406
74.9999
96.1493
56.8854
88.9744
38.4368
81.8458
109.766
92.549
102.877
74.8251
95.7166
56.9298
88.5961
38.503
81.696
111.309
93.5071
104.201
75.4855
96.7963
57.3048
89.3651
39.0217
110.741
93.0904
103.596
75.0733
96.173
56.7403
88.7488
110.202
92.842
103.164
74.9692
95.8541
56.7432
)
;

boundaryField
{
    inlet
    {
        type            zeroGradient;
    }
    outlet
    {
        type            fixedValue;
        value           nonuniform 0();
    }
    wall
    {
        type            zeroGradient;
    }
    procBoundary2to0
    {
        type            processor;
        value           nonuniform List<scalar> 
44
(
74.3352
95.1661
56.2211
88.2231
37.9119
81.4854
108.608
91.7854
101.977
101.977
74.5753
95.8109
56.518
89.007
37.9745
82.1053
109.662
92.2406
102.85
74.5753
95.8109
95.8109
56.5013
88.6817
38.1645
81.6792
110.536
92.8287
103.529
74.9489
96.1281
56.5013
88.6817
88.6817
38.7639
81.9165
111.179
93.4787
104.147
75.4276
96.621
57.2306
89.068
38.7639
)
;
    }
    procBoundary2to3
    {
        type            processor;
        value           nonuniform List<scalar> 
12
(
18.2178
19.4214
18.6164
19.1324
18.164
19.3559
18.3734
18.9337
19.0954
21.1321
19.8472
19.9824
)
;
    }
    procBoundary2to6
    {
        type            processor;
        value           nonuniform List<scalar> 
32
(
82.0643
38.0317
81.5642
88.5806
38.3146
81.5734
111.903
93.7036
104.603
76.1842
96.9154
58.1792
89.0738
82.0643
38.0317
40.3749
111.329
93.4979
104.198
75.7291
96.7587
57.5224
38.0317
88.5806
89.3089
110.713
93.2098
103.63
75.6141
96.3382
88.5806
57.4468
)
;
    }
}


// ************************************************************************* //
