/*--------------------------------*- C++ -*----------------------------------*\
| =========                 |                                                 |
| \\      /  F ield         | OpenFOAM: The Open Source CFD Toolbox           |
|  \\    /   O peration     | Version:  4.x                                   |
|   \\  /    A nd           | Web:      www.OpenFOAM.org                      |
|    \\/     M anipulation  |                                                 |
\*---------------------------------------------------------------------------*/
FoamFile
{
    version     2.0;
    format      ascii;
    class       volScalarField;
    location    "45";
    object      QPartFluid;
}
// * * * * * * * * * * * * * * * * * * * * * * * * * * * * * * * * * * * * * //

dimensions      [1 -1 -3 0 0 0 0];

internalField   nonuniform List<scalar> 
114
(
7.13529e+09
5.59328e+09
3.05258e+09
5.97083e+09
3.63668e+09
4.59922e+09
5.81585e+09
6.93095e+09
6.13248e+09
4.37609e+09
7.33705e+09
4.99066e+09
6.99763e+09
6.71159e+09
4.47149e+09
3.87886e+09
6.1667e+09
5.09562e+09
5.39284e+09
5.81136e+09
5.24497e+09
6.80162e+09
5.40115e+09
6.51222e+09
3.98644e+09
4.00581e+09
5.16044e+09
4.54208e+09
3.95785e+09
4.09655e+09
3.06002e+09
5.34143e+09
3.98071e+09
9.84918e+09
1.23053e+10
6.61272e+09
1.12293e+10
4.73238e+09
7.93586e+09
9.59255e+09
9.17283e+09
8.88181e+09
6.98356e+09
1.11506e+10
8.69541e+09
6.40613e+09
5.86071e+09
1.00137e+10
1.06621e+10
9.18535e+09
9.42326e+09
8.87303e+09
9.17334e+09
8.90331e+09
7.6937e+09
5.06446e+09
5.38055e+09
8.35848e+09
6.02761e+09
7.59952e+09
6.53222e+09
6.71948e+09
7.10233e+09
4.82068e+09
8.06688e+09
9.29593e+09
6.86095e+09
5.73703e+09
6.7472e+09
6.86217e+09
6.75807e+09
7.67964e+09
9.82045e+09
7.20277e+09
5.73818e+09
4.9916e+09
6.95365e+09
9.09019e+09
1.04739e+10
9.18143e+09
7.01419e+09
9.47168e+09
8.48272e+09
1.02342e+10
5.00914e+09
7.60139e+09
6.98234e+09
7.48869e+09
4.78097e+09
6.83739e+09
9.69735e+09
5.34856e+09
7.74019e+09
4.89889e+09
9.48503e+09
1.03016e+10
7.15645e+09
8.24167e+09
6.27526e+09
7.58881e+09
7.49401e+09
5.87229e+09
7.91154e+09
1.05288e+10
6.61725e+09
9.1256e+09
7.71322e+09
1.03159e+10
4.25922e+09
6.30414e+09
7.51379e+09
7.25206e+09
6.75557e+09
6.50081e+09
)
;

boundaryField
{
    inlet
    {
        type            calculated;
        value           uniform 0;
    }
    outlet
    {
        type            calculated;
        value           nonuniform 0();
    }
    wall
    {
        type            calculated;
        value           uniform 0;
    }
    procBoundary2to0
    {
        type            processor;
        value           nonuniform List<scalar> 
44
(
5.06324e+09
5.56428e+09
4.88839e+09
3.97994e+09
5.16993e+09
8.50486e+09
2.97888e+09
4.53282e+09
3.50886e+09
3.50886e+09
5.51172e+09
1.13198e+10
6.73861e+09
1.05159e+10
6.89299e+09
6.3459e+09
7.96445e+09
7.03679e+09
7.79728e+09
5.51172e+09
1.13198e+10
1.13198e+10
8.03894e+09
8.77862e+09
6.45335e+09
5.39646e+09
6.90609e+09
8.67111e+09
9.5767e+09
9.00169e+09
9.97714e+09
8.03894e+09
8.77862e+09
8.77862e+09
5.53447e+09
2.61714e+09
4.82792e+09
6.72965e+09
9.8301e+09
1.02199e+10
5.50866e+09
9.799e+09
8.5571e+09
5.53447e+09
)
;
    }
    procBoundary2to3
    {
        type            processor;
        value           nonuniform List<scalar> 
12
(
8.49071e+09
6.18993e+09
6.63884e+09
4.3389e+09
8.55648e+09
7.60885e+09
1.27416e+10
8.42887e+09
8.24887e+09
9.55188e+09
6.03788e+09
8.76475e+09
)
;
    }
    procBoundary2to6
    {
        type            processor;
        value           nonuniform List<scalar> 
32
(
8.11284e+09
6.80363e+09
8.9691e+09
5.7025e+09
6.23272e+09
5.6256e+09
9.95303e+09
8.95463e+09
6.08442e+09
7.99493e+09
1.10691e+10
6.08992e+09
8.70264e+09
8.11284e+09
6.80363e+09
6.66497e+09
6.30325e+09
9.21762e+09
8.17782e+09
1.02198e+10
8.85369e+09
8.73651e+09
6.80363e+09
5.7025e+09
8.75199e+09
4.67869e+09
7.58425e+09
5.96101e+09
6.14614e+09
8.70729e+09
5.7025e+09
9.46708e+09
)
;
    }
}


// ************************************************************************* //
