/*--------------------------------*- C++ -*----------------------------------*\
| =========                 |                                                 |
| \\      /  F ield         | OpenFOAM: The Open Source CFD Toolbox           |
|  \\    /   O peration     | Version:  4.x                                   |
|   \\  /    A nd           | Web:      www.OpenFOAM.org                      |
|    \\/     M anipulation  |                                                 |
\*---------------------------------------------------------------------------*/
FoamFile
{
    version     2.0;
    format      ascii;
    class       volVectorField;
    location    "45";
    object      Urel;
}
// * * * * * * * * * * * * * * * * * * * * * * * * * * * * * * * * * * * * * //

dimensions      [0 1 -1 0 0 0 0];

internalField   nonuniform List<vector> 
114
(
(-0.0218846 0.000101906 0.00106971)
(-0.0232835 0.000100878 0.00103028)
(-0.0222976 9.06606e-05 0.000860408)
(-0.0237077 9.37795e-05 0.000785359)
(-0.0227019 7.42154e-05 0.000625183)
(-0.0241077 7.25521e-05 0.000553784)
(-0.0236568 -0.000114764 0.00127672)
(-0.021814 -0.00010753 0.00118004)
(-0.0229918 -0.000120631 0.00118746)
(-0.0218206 -0.000108135 0.00103548)
(-0.0232322 -9.74411e-05 0.000988531)
(-0.0221868 -6.00456e-05 0.000823034)
(-0.0236212 -3.67426e-05 0.000752123)
(-0.022531 -1.55146e-06 0.000589423)
(-0.0239595 7.16592e-06 0.000518335)
(-0.0237785 -0.000358725 0.0012419)
(-0.0220374 -0.000316545 0.00115055)
(-0.0232883 -0.000344491 0.00115042)
(-0.0222771 -0.000299301 0.00100678)
(-0.0237383 -0.000300641 0.00095029)
(-0.0228761 -0.000226016 0.000795695)
(-0.0243314 -0.000204795 0.000718889)
(-0.023439 -0.000123218 0.000573575)
(-0.0248705 -0.000107659 0.000501288)
(-0.0239088 -0.000392962 0.00120396)
(-0.0223061 -0.000356733 0.00112403)
(-0.0236297 -0.000363056 0.00111652)
(-0.0228269 -0.00031863 0.000991684)
(-0.0243429 -0.000298995 0.000931149)
(-0.023714 -0.000224593 0.00079228)
(-0.0251854 -0.000179339 0.000711421)
(-0.0245332 -8.50008e-05 0.000578404)
(-0.0259186 -3.573e-05 0.000509253)
(-0.0205547 6.83232e-05 0.000795857)
(-0.022097 6.83445e-05 0.000724204)
(-0.0205059 5.2278e-05 0.000568161)
(-0.0221833 4.35105e-05 0.000491903)
(-0.0234179 -0.000154359 0.00133989)
(-0.0213452 -0.000131445 0.00120099)
(-0.0223756 -0.000150047 0.00122343)
(-0.0207623 -0.000130307 0.00102645)
(-0.0221426 -0.000134386 0.000983015)
(-0.0205807 -8.52122e-05 0.000793726)
(-0.0221409 -6.85913e-05 0.000718578)
(-0.0204794 -2.98874e-05 0.000563546)
(-0.0221821 -2.27649e-05 0.000470894)
(-0.0235594 -0.000399522 0.00131291)
(-0.0216068 -0.000348001 0.0011882)
(-0.0227105 -0.000386684 0.00121244)
(-0.0213036 -0.000319792 0.00103222)
(-0.022719 -0.000335491 0.000992333)
(-0.021415 -0.000241344 0.000819178)
(-0.0229369 -0.000235319 0.000757118)
(-0.0215742 -0.000134855 0.000613257)
(-0.0231823 -0.000123681 0.000543834)
(-0.0237136 -0.000434631 0.00127955)
(-0.0219405 -0.00039103 0.00117244)
(-0.0231262 -0.000404731 0.00118725)
(-0.0220224 -0.000344659 0.00104165)
(-0.0234506 -0.000330055 0.000993287)
(-0.0224983 -0.000244503 0.000853337)
(-0.0239402 -0.000205722 0.000776037)
(-0.022964 -0.000106152 0.00065836)
(-0.0243923 -5.56672e-05 0.000589055)
(-0.0189175 7.3813e-05 0.000474388)
(-0.0206511 6.36482e-05 0.000400901)
(-0.0231482 -0.000180125 0.00119165)
(-0.0209194 -0.000149643 0.00105854)
(-0.021776 -0.00015882 0.00105462)
(-0.0198694 -0.000126858 0.000869993)
(-0.0211587 -0.000115999 0.00081177)
(-0.019283 -7.31236e-05 0.000645331)
(-0.0208515 -3.81364e-05 0.000566539)
(-0.0188965 -2.26927e-05 0.000446915)
(-0.0206737 6.7221e-06 0.000365978)
(-0.0233142 -0.000431895 0.00116119)
(-0.0212059 -0.000371101 0.00104272)
(-0.0221503 -0.0004075 0.00104192)
(-0.0204434 -0.000326945 0.00088347)
(-0.0217629 -0.000334571 0.000829265)
(-0.0201199 -0.000234971 0.000678024)
(-0.0216401 -0.000215807 0.000604462)
(-0.0199165 -0.00012633 0.00049509)
(-0.0216134 -8.03456e-05 0.000424226)
(-0.0234929 -0.000471645 0.001139)
(-0.0215742 -0.000424896 0.00104045)
(-0.0226109 -0.000444189 0.0010434)
(-0.0212457 -0.000371497 0.000916606)
(-0.0225533 -0.000357995 0.000860741)
(-0.0213286 -0.000262237 0.000732403)
(-0.0226958 -0.000230898 0.000654476)
(-0.0214414 -0.000130451 0.000570977)
(-0.0228508 -7.34375e-05 0.000500963)
(-0.0229734 -0.000214531 0.000904852)
(-0.0206491 -0.000188805 0.000791995)
(-0.0214279 -0.000213071 0.000780688)
(-0.0193603 -0.000160168 0.000644381)
(-0.0206099 -0.000165559 0.000588882)
(-0.0186058 -0.000107462 0.000467384)
(-0.0201622 -9.5193e-05 0.000392875)
(-0.018139 -5.02838e-05 0.000324268)
(-0.0231596 -0.000481392 0.000881895)
(-0.0210014 -0.000411247 0.000788877)
(-0.0218565 -0.000446814 0.000783236)
(-0.0200642 -0.000348231 0.000674189)
(-0.0212994 -0.000358517 0.000630507)
(-0.0196034 -0.000255074 0.000519705)
(-0.0210545 -0.000241876 0.000462555)
(-0.0233625 -0.000508568 0.000867138)
(-0.0214039 -0.00045091 0.000795928)
(-0.0223477 -0.000460196 0.000797654)
(-0.0208832 -0.000378991 0.00071709)
(-0.022097 -0.000358904 0.000674934)
(-0.0207684 -0.000267493 0.000575846)
)
;

boundaryField
{
    inlet
    {
        type            calculated;
        value           nonuniform List<vector> 
12
(
(-0.01 -5.95139e-11 1.74416e-10)
(-0.01 -2.12525e-11 1.68386e-10)
(-0.01 -7.70194e-11 1.52221e-10)
(-0.01 -7.98993e-11 7.30952e-11)
(-0.01 -4.98697e-11 5.17231e-11)
(-0.01 -5.60812e-11 3.45379e-11)
(-0.01 -1.45722e-10 1.87682e-10)
(-0.01 -4.04516e-11 1.04588e-10)
(-0.01 -9.9123e-11 9.47574e-11)
(-0.01 -7.06687e-11 1.32799e-10)
(-0.01 2.44158e-12 5.87915e-11)
(-0.01 -9.89099e-11 8.5515e-11)
)
;
    }
    outlet
    {
        type            calculated;
        value           nonuniform 0();
    }
    wall
    {
        type            calculated;
        value           nonuniform List<vector> 
66
(
(-1.55856e-12 -5.95139e-11 1.74416e-10)
(4.81738e-11 -2.12525e-11 1.68386e-10)
(-1.28136e-10 -7.70194e-11 1.52221e-10)
(2.63471e-10 -1.79982e-10 3.66511e-10)
(2.75749e-10 -1.37816e-10 3.06474e-10)
(1.25519e-10 -9.09488e-11 2.7104e-10)
(2.61669e-10 -2.89023e-10 5.44852e-10)
(2.6803e-10 -1.12222e-10 5.85725e-10)
(1.09584e-10 -7.90285e-11 6.31065e-10)
(4.86688e-10 -1.55884e-10 5.80936e-10)
(2.91409e-10 -3.59386e-10 6.12699e-10)
(4.4946e-10 -2.99485e-10 6.20021e-10)
(3.38828e-10 -9.09536e-10 2.66579e-10)
(5.53325e-10 -1.66884e-10 8.27144e-10)
(3.95279e-10 -6.89785e-10 6.28613e-10)
(4.84583e-10 -5.85168e-10 6.66577e-10)
(3.09459e-10 -6.79165e-10 1.55091e-10)
(1.12386e-09 -5.3653e-10 8.23654e-10)
(1.00236e-09 -8.38363e-10 5.61673e-10)
(9.31443e-10 -7.6987e-10 3.92706e-10)
(6.65581e-10 -3.41094e-10 -2.76974e-12)
(1.49366e-09 -6.29011e-10 1.10942e-09)
(1.53524e-09 -1.37887e-09 7.68774e-10)
(1.1652e-09 -7.55032e-10 7.27536e-10)
(9.02164e-10 -6.32649e-10 4.8457e-10)
(2.66854e-09 -1.80737e-09 1.73101e-09)
(1.96375e-09 -1.73035e-09 9.95218e-10)
(1.86475e-09 -1.64011e-09 8.58247e-10)
(1.29567e-09 -1.2929e-09 8.67726e-10)
(3.12589e-09 -2.75014e-09 1.90503e-09)
(2.21698e-09 -2.11951e-09 1.2368e-09)
(1.73692e-09 -1.55355e-09 1.06372e-09)
(1.4278e-09 -1.09223e-09 6.75465e-10)
(-1.28136e-10 -7.70194e-11 1.52221e-10)
(-1.41649e-11 -5.60812e-11 3.45379e-11)
(-4.9512e-12 -9.9123e-11 9.47574e-11)
(8.2303e-12 -9.89099e-11 8.5515e-11)
(1.25519e-10 -9.09488e-11 2.7104e-10)
(5.97368e-11 -9.95562e-11 1.48923e-10)
(1.74745e-11 -8.06443e-11 1.95331e-10)
(6.36039e-11 -7.9771e-11 1.66858e-10)
(1.09584e-10 -7.90285e-11 6.31065e-10)
(6.58804e-11 -1.65569e-10 1.17769e-10)
(-9.64862e-11 -1.54183e-10 1.65464e-10)
(1.8429e-11 -8.42146e-11 2.64592e-10)
(3.38828e-10 -9.09536e-10 2.66579e-10)
(2.05102e-10 -1.225e-10 1.03749e-10)
(-6.48482e-11 -1.77985e-10 2.48483e-10)
(8.76808e-11 -1.575e-10 1.86012e-10)
(3.09459e-10 -6.79165e-10 1.55091e-10)
(3.33208e-10 -2.54592e-10 -1.39327e-10)
(2.0183e-10 -2.05763e-10 2.03621e-10)
(3.12875e-10 -2.03943e-10 2.58301e-10)
(6.65581e-10 -3.41094e-10 -2.76974e-12)
(3.53463e-10 -3.45027e-10 6.42504e-11)
(2.01141e-10 -2.46401e-10 2.09554e-10)
(3.62504e-10 -1.82886e-10 1.68524e-10)
(9.02164e-10 -6.32649e-10 4.8457e-10)
(5.34593e-10 -4.76578e-10 2.70179e-10)
(3.18832e-10 -2.93e-10 2.64773e-10)
(1.29567e-09 -1.2929e-09 8.67726e-10)
(7.14641e-10 -4.60453e-10 1.19646e-10)
(4.75067e-10 -4.45417e-10 3.79874e-10)
(1.4278e-09 -1.09223e-09 6.75465e-10)
(6.63347e-10 -4.774e-10 2.87551e-10)
(8.81681e-10 -4.64129e-10 3.05077e-10)
)
;
    }
    procBoundary2to0
    {
        type            processor;
        value           nonuniform List<vector> 
44
(
(-0.0220492 0.000280825 0.00108669)
(-0.0234845 0.000260267 0.00104924)
(-0.0225366 0.000207201 0.000888331)
(-0.0239631 0.000192662 0.000827898)
(-0.0229731 0.000144419 0.000673113)
(-0.0243639 0.000122656 0.000618404)
(-0.0236532 0.000146124 0.00132519)
(-0.0218336 0.000120447 0.0012097)
(-0.0230107 0.000122337 0.00121768)
(-0.0230107 0.000122337 0.00121768)
(-0.020733 8.34455e-05 0.00103985)
(-0.0220935 7.80536e-05 0.000996445)
(-0.020808 0.000198222 0.000799957)
(-0.0223589 0.000177447 0.000725916)
(-0.020759 0.000125619 0.000577282)
(-0.0224387 0.000100291 0.000501578)
(-0.0233791 0.000123437 0.00138053)
(-0.0213076 0.00010749 0.00122636)
(-0.0223264 0.000107176 0.00124734)
(-0.020733 8.34455e-05 0.00103985)
(-0.0220935 7.80536e-05 0.000996445)
(-0.0220935 7.80536e-05 0.000996445)
(-0.0192019 8.52702e-05 0.000660627)
(-0.0207848 9.56568e-05 0.000591105)
(-0.0192755 0.000139465 0.000494568)
(-0.0209829 0.000117832 0.000400163)
(-0.0230934 0.000126398 0.00120922)
(-0.0208417 0.000109828 0.00108077)
(-0.0216968 0.000115639 0.00108358)
(-0.0197639 9.26729e-05 0.000883325)
(-0.0210698 9.91983e-05 0.000828459)
(-0.0192019 8.52702e-05 0.000660627)
(-0.0207848 9.56568e-05 0.000591105)
(-0.0207848 9.56568e-05 0.000591105)
(-0.0179317 4.03601e-05 0.000324376)
(-0.0196864 4.0248e-05 0.000259875)
(-0.0229231 0.000112047 0.000897286)
(-0.0205816 8.87676e-05 0.000801817)
(-0.0213315 7.71206e-05 0.000788809)
(-0.0192093 6.289e-05 0.000646141)
(-0.020455 5.10368e-05 0.000602173)
(-0.0183997 4.93998e-05 0.000472199)
(-0.0199769 5.20172e-05 0.000423025)
(-0.0179317 4.03601e-05 0.000324376)
)
;
    }
    procBoundary2to3
    {
        type            processor;
        value           nonuniform List<vector> 
12
(
(-0.0230324 6.8215e-05 0.000437851)
(-0.0227764 3.51768e-05 0.00039231)
(-0.0239114 -5.57989e-05 0.000381629)
(-0.0251955 6.19033e-05 0.000402193)
(-0.0205236 3.42339e-05 0.000399353)
(-0.0204365 9.15565e-07 0.000377637)
(-0.0217531 -5.37023e-05 0.000452987)
(-0.0233563 4.52887e-05 0.000518672)
(-0.0187586 5.6055e-05 0.000337362)
(-0.018727 9.57551e-06 0.000297725)
(-0.0198245 -3.04802e-05 0.000365695)
(-0.0215359 1.3582e-05 0.000463875)
)
;
    }
    procBoundary2to6
    {
        type            processor;
        value           nonuniform List<vector> 
32
(
(-0.0199141 -4.13588e-05 0.000266723)
(-0.0193544 -0.000147728 0.000398994)
(-0.0209587 -0.000109884 0.000347638)
(-0.0220729 -0.000224336 0.000519642)
(-0.02075 -0.000120367 0.000478767)
(-0.0221046 -5.57075e-05 0.000434844)
(-0.0229156 -0.000207575 0.000486413)
(-0.0205633 -0.000184092 0.000433618)
(-0.0212897 -0.000190544 0.000408076)
(-0.0191578 -0.000143184 0.000349287)
(-0.0204043 -0.000129783 0.000305721)
(-0.0183106 -8.46001e-05 0.000251188)
(-0.0198892 -5.27842e-05 0.000214661)
(-0.0199141 -4.13588e-05 0.000266723)
(-0.0193544 -0.000147728 0.000398994)
(-0.0178538 -2.16172e-05 0.00017786)
(-0.0231177 -0.000498288 0.000485683)
(-0.0209157 -0.000412976 0.000447766)
(-0.0217389 -0.000441601 0.000431049)
(-0.0198514 -0.000335113 0.000387508)
(-0.0210867 -0.000323419 0.000352556)
(-0.0192333 -0.000227897 0.000305583)
(-0.0193544 -0.000147728 0.000398994)
(-0.0220729 -0.000224336 0.000519642)
(-0.020708 -0.000183665 0.000277635)
(-0.0233339 -0.000527943 0.000494782)
(-0.0213561 -0.000462896 0.000465516)
(-0.0222589 -0.000472518 0.000457834)
(-0.0207419 -0.000380239 0.000429509)
(-0.0219056 -0.00035751 0.000396967)
(-0.0220729 -0.000224336 0.000519642)
(-0.0204613 -0.000266901 0.000362004)
)
;
    }
}


// ************************************************************************* //
