/*--------------------------------*- C++ -*----------------------------------*\
| =========                 |                                                 |
| \\      /  F ield         | OpenFOAM: The Open Source CFD Toolbox           |
|  \\    /   O peration     | Version:  4.x                                   |
|   \\  /    A nd           | Web:      www.OpenFOAM.org                      |
|    \\/     M anipulation  |                                                 |
\*---------------------------------------------------------------------------*/
FoamFile
{
    version     2.0;
    format      ascii;
    class       volVectorField;
    location    "45";
    object      Us;
}
// * * * * * * * * * * * * * * * * * * * * * * * * * * * * * * * * * * * * * //

dimensions      [0 1 -1 0 0 0 0];

internalField   nonuniform List<vector> 
114
(
(6.0798e-10 -2.71363e-10 4.7002e-10)
(7.13164e-10 -4.11357e-10 6.9948e-10)
(1.21867e-09 -6.67439e-10 5.75002e-10)
(1.55525e-09 -6.99704e-10 8.41264e-10)
(2.56264e-09 -1.82518e-09 1.40571e-09)
(3.00735e-09 -2.70849e-09 1.6201e-09)
(2.64822e-10 7.17196e-12 1.21533e-10)
(2.55903e-10 -7.98935e-11 3.02356e-10)
(3.16937e-10 -2.61269e-10 4.29314e-10)
(3.81606e-10 -3.94339e-10 4.64577e-10)
(5.25805e-10 -7.38337e-10 4.81771e-10)
(1.10474e-09 -8.52423e-10 3.70695e-10)
(1.69322e-09 -1.34394e-09 5.36014e-10)
(1.99661e-09 -1.65733e-09 7.16893e-10)
(2.16351e-09 -2.05658e-09 1.0093e-09)
(5.57111e-11 -2.58194e-11 1.30215e-10)
(2.19674e-10 -1.07758e-10 2.19318e-10)
(2.89483e-10 -1.04305e-10 4.86106e-10)
(4.68936e-10 -3.05741e-10 4.9851e-10)
(5.58058e-10 -6.08028e-10 5.48513e-10)
(9.38015e-10 -7.68532e-10 2.77093e-10)
(1.20093e-09 -7.35604e-10 5.68108e-10)
(1.81576e-09 -1.62387e-09 7.16366e-10)
(1.84147e-09 -1.50435e-09 8.78703e-10)
(-4.97521e-11 -7.54561e-11 1.28375e-10)
(7.26488e-11 -8.28021e-11 2.10565e-10)
(1.17495e-10 -7.09186e-11 5.87954e-10)
(1.65357e-10 -6.21274e-10 2.09345e-10)
(3.72223e-10 -6.30437e-10 6.8667e-11)
(6.17739e-10 -3.28387e-10 -7.50922e-11)
(8.65604e-10 -5.70592e-10 3.93675e-10)
(1.27492e-09 -1.13382e-09 6.73978e-10)
(1.49139e-09 -9.67329e-10 5.6374e-10)
(9.62478e-10 -5.00679e-10 6.10238e-10)
(1.26433e-09 -4.88554e-10 8.85681e-10)
(2.05151e-09 -1.10407e-09 1.14882e-09)
(2.60625e-09 -1.61608e-09 1.45872e-09)
(8.73948e-11 9.76271e-12 3.73487e-11)
(1.87526e-10 -4.62762e-11 2.09876e-10)
(1.93967e-10 -1.42494e-10 3.59309e-10)
(2.4961e-10 -2.88746e-10 4.42323e-10)
(2.92892e-10 -5.67456e-10 4.65621e-10)
(7.50825e-10 -5.7669e-10 2.45118e-10)
(1.25156e-09 -7.2865e-10 4.57514e-10)
(1.68182e-09 -1.00215e-09 4.98654e-10)
(2.42614e-09 -1.47108e-09 6.6498e-10)
(2.68568e-11 -3.21784e-11 1.01407e-11)
(1.25307e-10 -1.01906e-10 8.87775e-11)
(1.28405e-10 -1.7727e-10 2.67094e-10)
(2.12258e-10 -2.29115e-10 3.3862e-10)
(3.13718e-10 -4.26039e-10 1.83929e-10)
(5.67583e-10 -5.61701e-10 1.97577e-10)
(8.58587e-10 -7.25257e-10 3.39198e-10)
(1.19371e-09 -8.97065e-10 5.04358e-10)
(1.66146e-09 -1.15565e-09 4.09658e-10)
(-4.07586e-12 -5.01057e-11 1.16816e-11)
(5.93999e-11 -9.55714e-11 8.87789e-11)
(8.53635e-11 -1.55544e-10 5.71898e-11)
(2.109e-10 -1.1546e-10 4.93462e-11)
(3.4357e-10 -2.40297e-10 -2.16582e-10)
(3.3731e-10 -3.38334e-10 3.08768e-11)
(5.10747e-10 -4.46398e-10 2.05482e-10)
(7.16833e-10 -4.43765e-10 8.59685e-11)
(7.37332e-10 -4.21538e-10 2.04412e-10)
(2.06926e-09 -2.43774e-10 1.0963e-09)
(2.54899e-09 -4.76285e-10 1.36214e-09)
(9.27458e-11 -6.29923e-11 1.58029e-10)
(1.17333e-10 -1.36887e-10 2.93873e-10)
(1.78276e-10 -1.90084e-10 4.28263e-10)
(2.15356e-10 -3.02547e-10 6.00014e-10)
(2.69815e-10 -5.12843e-10 6.51386e-10)
(6.68182e-10 -3.33565e-10 4.81611e-10)
(9.4455e-10 -4.87631e-10 5.83832e-10)
(1.52967e-09 -4.09329e-10 5.6894e-10)
(1.92431e-09 -7.39665e-10 4.31884e-10)
(2.47951e-11 -1.1455e-11 7.44721e-11)
(2.3429e-11 -9.63491e-11 3.20538e-10)
(-6.09721e-11 -1.1938e-10 4.11012e-10)
(-2.62086e-11 -1.19778e-10 4.86071e-10)
(7.81017e-11 -3.33606e-10 4.55819e-10)
(3.50784e-10 -3.92542e-10 3.1443e-10)
(5.14815e-10 -6.40142e-10 4.60259e-10)
(9.65529e-10 -4.36389e-10 5.77061e-10)
(1.53448e-09 -8.49067e-10 1.74291e-10)
(8.78765e-12 -8.44958e-11 6.64916e-11)
(1.32153e-11 -7.71276e-11 1.49236e-10)
(-7.72941e-11 -1.4828e-10 1.23822e-10)
(-6.24657e-11 -1.77113e-10 1.70896e-10)
(1.93794e-10 -1.96805e-10 1.28013e-10)
(1.76562e-10 -2.44604e-10 1.55053e-10)
(2.98136e-10 -2.93148e-10 2.14559e-10)
(4.55594e-10 -4.29051e-10 2.90297e-10)
(8.3976e-10 -4.33826e-10 1.94586e-10)
(9.2554e-11 -2.42337e-11 1.26986e-10)
(3.15285e-10 -1.81989e-10 2.90378e-10)
(4.56642e-10 -3.07757e-10 4.3676e-10)
(5.83864e-10 -2.60333e-10 4.47797e-10)
(8.01405e-10 -2.11525e-10 5.97073e-10)
(1.35293e-09 -2.12968e-10 3.82719e-10)
(1.65748e-09 -1.585e-10 5.44965e-10)
(2.4925e-09 -1.90582e-10 4.44381e-10)
(1.84668e-11 1.79867e-11 5.07922e-11)
(2.48613e-10 -1.51814e-10 2.79341e-10)
(2.15302e-10 -1.39908e-10 3.45933e-10)
(3.80494e-10 -1.70856e-10 3.65405e-10)
(4.72381e-10 -3.20132e-10 4.02184e-10)
(7.6952e-10 -2.08195e-10 3.66829e-10)
(9.52254e-10 -2.92947e-10 4.84226e-10)
(7.14626e-12 -8.48917e-11 6.64353e-11)
(5.17251e-11 -7.76568e-11 1.37612e-10)
(1.30593e-11 -9.96671e-11 2.23332e-10)
(6.4348e-11 -1.57489e-10 1.57616e-10)
(2.5421e-10 -2.11884e-10 2.0808e-10)
(3.01138e-10 -1.77365e-10 1.47396e-10)
)
;

boundaryField
{
    inlet
    {
        type            zeroGradient;
    }
    outlet
    {
        type            zeroGradient;
    }
    wall
    {
        type            zeroGradient;
    }
    procBoundary2to0
    {
        type            processor;
        value           nonuniform List<vector> 
44
(
(8.14329e-10 -3.93878e-10 4.94009e-10)
(7.54515e-10 -5.73847e-10 4.87988e-10)
(1.01926e-09 -4.91622e-10 4.88711e-10)
(1.24944e-09 -4.8318e-10 8.48655e-10)
(2.1797e-09 -1.3229e-09 1.63982e-09)
(2.42268e-09 -2.33931e-09 2.31355e-09)
(1.70026e-10 3.20885e-10 2.06094e-10)
(4.81586e-10 1.21694e-10 3.84079e-10)
(4.2894e-10 -4.30432e-11 4.34843e-10)
(4.2894e-10 -4.30432e-11 4.34843e-10)
(5.38133e-10 -2.29981e-10 5.33334e-10)
(5.6567e-10 -4.29396e-10 6.70025e-10)
(7.47236e-10 -4.73157e-10 4.59358e-10)
(9.69885e-10 -4.49413e-10 8.53935e-10)
(1.02032e-09 -7.01438e-10 1.63434e-09)
(1.56058e-09 -7.98937e-10 2.86859e-09)
(1.6055e-10 2.34644e-10 2.27884e-10)
(3.24401e-10 1.95409e-10 3.6304e-10)
(3.68039e-10 1.15288e-10 5.482e-10)
(5.38133e-10 -2.29981e-10 5.33334e-10)
(5.6567e-10 -4.29396e-10 6.70025e-10)
(5.6567e-10 -4.29396e-10 6.70025e-10)
(1.09564e-09 -3.01985e-10 7.14417e-10)
(1.51413e-09 -7.54791e-11 7.3532e-10)
(5.44339e-10 1.77441e-10 1.59178e-09)
(7.47379e-11 1.5985e-09 3.10077e-09)
(5.03697e-11 6.84672e-11 2.63615e-10)
(3.48143e-10 -9.92313e-11 4.53572e-10)
(4.28415e-10 -1.32397e-10 5.94319e-10)
(6.24092e-10 -2.68741e-10 6.55822e-10)
(8.18912e-10 -4.47814e-10 7.72797e-10)
(1.09564e-09 -3.01985e-10 7.14417e-10)
(1.51413e-09 -7.54791e-11 7.3532e-10)
(1.51413e-09 -7.54791e-11 7.3532e-10)
(2.23159e-09 2.41541e-10 9.59443e-10)
(2.92976e-09 -2.51508e-10 1.06399e-09)
(7.41026e-11 6.35706e-11 2.30996e-10)
(4.67093e-10 -8.02695e-11 3.71758e-10)
(7.20183e-10 -7.41659e-11 2.98686e-10)
(1.50245e-09 -8.47324e-12 5.1766e-10)
(1.86899e-09 1.71683e-10 6.70732e-10)
(2.02135e-09 -3.55988e-11 7.30821e-10)
(2.26387e-09 2.47633e-10 7.07553e-10)
(2.23159e-09 2.41541e-10 9.59443e-10)
)
;
    }
    procBoundary2to3
    {
        type            processor;
        value           nonuniform List<vector> 
12
(
(3.64909e-09 -4.18754e-09 1.16095e-09)
(2.82351e-09 -2.39277e-09 6.27378e-10)
(2.48898e-09 -2.23064e-09 1.30099e-10)
(1.20506e-09 -5.10253e-10 -8.82301e-12)
(4.0673e-09 -3.03855e-09 7.87195e-10)
(2.91335e-09 -1.74819e-09 3.25567e-10)
(2.32038e-09 -1.14668e-09 1.38198e-10)
(1.41173e-09 -4.46358e-10 8.22182e-11)
(4.14258e-09 -1.25961e-09 9.01236e-10)
(2.99537e-09 -1.28188e-09 5.3103e-10)
(2.27845e-09 -1.01211e-09 3.16299e-11)
(9.99594e-10 -6.30939e-10 1.5021e-10)
)
;
    }
    procBoundary2to6
    {
        type            processor;
        value           nonuniform List<vector> 
32
(
(2.77643e-09 -6.66155e-11 2.59268e-10)
(1.78107e-09 -1.41033e-10 4.02066e-10)
(2.2773e-09 -5.81571e-10 1.51678e-10)
(2.92652e-10 -1.21357e-10 1.39098e-10)
(7.32877e-10 -1.34838e-10 2.76402e-10)
(6.44417e-10 -2.87092e-10 8.42334e-11)
(1.29444e-10 -9.49447e-11 1.11627e-10)
(2.89817e-10 -2.28652e-10 2.18181e-10)
(3.99232e-10 -2.74879e-10 2.20964e-10)
(6.34574e-10 -2.08172e-10 2.9923e-10)
(1.14936e-09 -2.57104e-10 4.57175e-10)
(1.53644e-09 -1.65768e-10 1.70305e-10)
(1.77581e-09 -1.28815e-10 2.49485e-10)
(2.77643e-09 -6.66155e-11 2.59268e-10)
(1.78107e-09 -1.41033e-10 4.02066e-10)
(2.19994e-09 -2.66398e-10 2.19569e-10)
(4.88929e-11 -1.02527e-11 -2.80661e-11)
(8.92134e-11 -1.08294e-10 1.56798e-10)
(1.94741e-10 -1.42958e-10 1.35965e-10)
(3.27964e-10 -1.86696e-10 2.14022e-10)
(4.62991e-10 -3.58793e-10 2.70882e-10)
(7.38453e-10 -2.87278e-10 2.28591e-10)
(1.78107e-09 -1.41033e-10 4.02066e-10)
(2.92652e-10 -1.21357e-10 1.39098e-10)
(1.24723e-09 -4.09652e-10 1.81761e-10)
(1.40176e-11 -2.88992e-11 5.16882e-11)
(1.58684e-10 -3.84828e-11 1.0254e-10)
(2.02253e-11 -9.25443e-11 3.33198e-11)
(9.51156e-11 -1.46626e-10 8.95641e-11)
(9.70691e-11 -1.54014e-10 8.72968e-11)
(2.92652e-10 -1.21357e-10 1.39098e-10)
(2.34966e-10 -2.24774e-10 1.04229e-10)
)
;
    }
}


// ************************************************************************* //
