/*--------------------------------*- C++ -*----------------------------------*\
| =========                 |                                                 |
| \\      /  F ield         | OpenFOAM: The Open Source CFD Toolbox           |
|  \\    /   O peration     | Version:  4.x                                   |
|   \\  /    A nd           | Web:      www.OpenFOAM.org                      |
|    \\/     M anipulation  |                                                 |
\*---------------------------------------------------------------------------*/
FoamFile
{
    version     2.0;
    format      ascii;
    class       volVectorField;
    location    "52";
    object      UsNext;
}
// * * * * * * * * * * * * * * * * * * * * * * * * * * * * * * * * * * * * * //

dimensions      [0 1 -1 0 0 0 0];

internalField   nonuniform List<vector> 
87
(
(1.24712e-09 3.77103e-10 2.92894e-10)
(7.88277e-10 1.38215e-10 1.76886e-10)
(1.04144e-09 4.01965e-11 1.04768e-10)
(1.79622e-10 -2.54913e-11 3.16675e-11)
(3.82051e-10 2.14057e-11 8.60901e-11)
(3.05399e-10 -6.69953e-11 5.73983e-12)
(9.45779e-11 -2.22885e-11 2.77866e-11)
(2.11456e-10 -5.9394e-11 5.06761e-11)
(2.84991e-10 -8.92075e-11 1.48138e-11)
(4.12997e-10 -7.25031e-11 4.57217e-11)
(6.17805e-10 -3.98384e-11 1.44222e-10)
(7.57604e-10 3.5607e-11 6.05799e-11)
(8.38751e-10 1.70931e-10 9.07743e-11)
(9.67263e-10 1.64198e-10 1.57077e-10)
(1.3116e-09 3.62037e-10 2.26005e-10)
(8.19423e-11 2.02989e-11 -1.74703e-11)
(1.02183e-10 -1.9898e-11 7.52834e-12)
(1.68809e-10 -2.52814e-11 1.18766e-11)
(2.05341e-10 -5.03745e-11 2.72077e-11)
(2.89973e-10 -1.03261e-10 7.68543e-11)
(3.55208e-10 -3.12301e-11 6.4628e-11)
(6.52958e-10 3.03931e-11 1.36771e-10)
(7.88405e-10 1.59004e-10 2.35739e-10)
(1.01857e-09 6.42428e-11 1.44253e-10)
(2.11459e-11 -1.00481e-11 7.95406e-14)
(5.43926e-11 -5.31906e-11 -5.09946e-12)
(5.98418e-11 -3.82171e-11 -8.2524e-12)
(7.91727e-11 -5.57906e-11 -1.64782e-12)
(1.02367e-10 -5.39829e-11 4.36691e-12)
(1.39142e-10 -5.96816e-11 2.68992e-11)
(1.55856e-10 -5.14477e-11 1.89239e-11)
(2.89847e-11 -9.9965e-11 -8.81816e-11)
(2.98029e-10 -8.07031e-11 3.48201e-11)
(4.40313e-11 -2.71024e-11 1.06662e-11)
(1.63761e-10 -6.01034e-11 5.57527e-12)
(2.71747e-10 -8.27741e-11 -2.25197e-11)
(3.15583e-10 -7.01477e-11 4.03805e-12)
(4.22317e-10 -4.82771e-11 3.4902e-11)
(6.29115e-10 -4.88475e-11 8.52715e-12)
(7.70446e-10 9.90527e-11 3.77134e-11)
(8.15714e-10 8.86038e-11 8.50111e-11)
(1.0156e-09 3.15506e-10 2.06231e-10)
(4.0034e-11 -8.77976e-12 -1.59358e-11)
(1.3987e-10 -2.02632e-11 1.58843e-12)
(2.18991e-10 -6.12851e-11 4.49631e-11)
(2.51692e-10 -5.5481e-11 2.69472e-11)
(3.19124e-10 -3.36117e-11 5.94053e-11)
(4.33736e-10 -5.54589e-11 4.38842e-12)
(5.97373e-10 5.3559e-11 1.01817e-10)
(7.50081e-10 3.26984e-10 2.19795e-10)
(1.07665e-09 2.76711e-10 2.43878e-11)
(2.37374e-11 -2.36498e-11 8.36285e-12)
(2.29168e-11 -5.09827e-11 7.05594e-12)
(1.22145e-10 -1.34444e-10 1.42567e-10)
(1.05848e-10 -3.85186e-11 1.21037e-11)
(1.3138e-10 -5.03418e-11 3.28823e-11)
(1.38467e-10 -5.72384e-11 1.22834e-11)
(2.11829e-10 -5.89432e-11 4.13576e-11)
(2.82645e-10 -6.97536e-12 1.29517e-10)
(5.18043e-10 6.97656e-11 -9.23788e-11)
(4.86628e-11 -2.73679e-11 -2.97658e-13)
(6.64639e-11 -4.96989e-11 1.12932e-12)
(1.6847e-10 -5.17462e-11 -2.77068e-11)
(1.89887e-10 -4.65242e-11 -1.80534e-11)
(2.72887e-10 -4.38857e-11 -2.80897e-11)
(3.2889e-10 -7.5745e-11 -2.80154e-11)
(5.24506e-10 7.0695e-11 -5.32306e-12)
(4.07786e-10 4.34639e-11 9.55229e-12)
(4.43755e-10 1.65142e-10 3.8198e-11)
(-2.27554e-11 -4.50184e-11 -1.63288e-11)
(7.34388e-11 -1.37323e-11 1.15542e-12)
(8.70138e-11 -3.33912e-11 -2.90238e-12)
(1.54866e-10 -3.05805e-11 -1.5958e-12)
(2.1695e-10 -1.78513e-11 -1.55301e-11)
(2.52018e-10 -3.69371e-11 -1.78748e-11)
(5.34563e-10 1.97286e-10 5.1114e-11)
(4.86184e-10 6.3955e-10 8.06733e-11)
(5.60612e-10 4.34058e-10 -4.9363e-11)
(-1.05765e-10 -9.80028e-11 -2.07761e-12)
(2.29446e-11 -1.94593e-11 4.76506e-13)
(7.28049e-11 -7.32265e-11 6.0129e-11)
(6.46807e-11 -3.07503e-11 -1.30255e-11)
(8.50072e-11 -2.59723e-11 4.10024e-12)
(1.26617e-10 -4.18966e-11 4.84228e-13)
(1.40556e-10 -2.99338e-11 5.83781e-12)
(1.14974e-10 4.47484e-11 7.06158e-11)
(3.50945e-10 1.20174e-10 -1.1035e-10)
)
;

boundaryField
{
    inlet
    {
        type            calculated;
        value           nonuniform List<vector> 9((9.45779e-11 -2.22885e-11 2.77866e-11) (8.19423e-11 2.02989e-11 -1.74703e-11) (2.11459e-11 -1.00481e-11 7.95406e-14) (4.40313e-11 -2.71024e-11 1.06662e-11) (4.0034e-11 -8.77976e-12 -1.59358e-11) (2.37374e-11 -2.36498e-11 8.36285e-12) (4.86628e-11 -2.73679e-11 -2.97658e-13) (-2.27554e-11 -4.50184e-11 -1.63288e-11) (-1.05765e-10 -9.80028e-11 -2.07761e-12));
    }
    outlet
    {
        type            calculated;
        value           nonuniform 0();
    }
    wall
    {
        type            calculated;
        value           nonuniform List<vector> 
57
(
(4.86628e-11 -2.73679e-11 -2.97658e-13)
(-2.27554e-11 -4.50184e-11 -1.63288e-11)
(-1.05765e-10 -9.80028e-11 -2.07761e-12)
(6.64639e-11 -4.96989e-11 1.12932e-12)
(7.34388e-11 -1.37323e-11 1.15542e-12)
(2.29446e-11 -1.94593e-11 4.76506e-13)
(1.6847e-10 -5.17462e-11 -2.77068e-11)
(8.70138e-11 -3.33912e-11 -2.90238e-12)
(7.28049e-11 -7.32265e-11 6.0129e-11)
(1.89887e-10 -4.65242e-11 -1.80534e-11)
(1.54866e-10 -3.05805e-11 -1.5958e-12)
(6.46807e-11 -3.07503e-11 -1.30255e-11)
(2.72887e-10 -4.38857e-11 -2.80897e-11)
(2.1695e-10 -1.78513e-11 -1.55301e-11)
(8.50072e-11 -2.59723e-11 4.10024e-12)
(3.2889e-10 -7.5745e-11 -2.80154e-11)
(2.52018e-10 -3.69371e-11 -1.78748e-11)
(1.26617e-10 -4.18966e-11 4.84228e-13)
(5.24506e-10 7.0695e-11 -5.32306e-12)
(5.34563e-10 1.97286e-10 5.1114e-11)
(1.40556e-10 -2.99338e-11 5.83781e-12)
(4.07786e-10 4.34639e-11 9.55229e-12)
(4.86184e-10 6.3955e-10 8.06733e-11)
(1.14974e-10 4.47484e-11 7.06158e-11)
(4.43755e-10 1.65142e-10 3.8198e-11)
(5.60612e-10 4.34058e-10 -4.9363e-11)
(3.50945e-10 1.20174e-10 -1.1035e-10)
(2.11459e-11 -1.00481e-11 7.95406e-14)
(2.37374e-11 -2.36498e-11 8.36285e-12)
(-1.05765e-10 -9.80028e-11 -2.07761e-12)
(5.43926e-11 -5.31906e-11 -5.09946e-12)
(2.29168e-11 -5.09827e-11 7.05594e-12)
(2.29446e-11 -1.94593e-11 4.76506e-13)
(5.98418e-11 -3.82171e-11 -8.2524e-12)
(1.22145e-10 -1.34444e-10 1.42567e-10)
(7.28049e-11 -7.32265e-11 6.0129e-11)
(7.91727e-11 -5.57906e-11 -1.64782e-12)
(1.05848e-10 -3.85186e-11 1.21037e-11)
(6.46807e-11 -3.07503e-11 -1.30255e-11)
(1.02367e-10 -5.39829e-11 4.36691e-12)
(1.3138e-10 -5.03418e-11 3.28823e-11)
(8.50072e-11 -2.59723e-11 4.10024e-12)
(1.39142e-10 -5.96816e-11 2.68992e-11)
(1.38467e-10 -5.72384e-11 1.22834e-11)
(1.26617e-10 -4.18966e-11 4.84228e-13)
(1.79622e-10 -2.54913e-11 3.16675e-11)
(1.55856e-10 -5.14477e-11 1.89239e-11)
(2.11829e-10 -5.89432e-11 4.13576e-11)
(1.40556e-10 -2.99338e-11 5.83781e-12)
(3.82051e-10 2.14057e-11 8.60901e-11)
(2.89847e-11 -9.9965e-11 -8.81816e-11)
(2.82645e-10 -6.97536e-12 1.29517e-10)
(1.14974e-10 4.47484e-11 7.06158e-11)
(3.05399e-10 -6.69953e-11 5.73983e-12)
(2.98029e-10 -8.07031e-11 3.48201e-11)
(5.18043e-10 6.97656e-11 -9.23788e-11)
(3.50945e-10 1.20174e-10 -1.1035e-10)
)
;
    }
    procBoundary6to0
    {
        type            processor;
        value           uniform (1.07257e-09 4.18301e-10 8.70393e-10);
    }
    procBoundary6to2
    {
        type            processor;
        value           nonuniform List<vector> 
32
(
(1.05076e-09 -9.01922e-11 3.59678e-10)
(7.02111e-10 -3.82714e-11 2.30292e-10)
(9.48053e-10 -1.25549e-10 1.64931e-10)
(3.01278e-10 -1.01485e-10 5.05328e-11)
(3.98444e-10 -1.38528e-10 1.16773e-10)
(5.4762e-10 -7.31276e-11 9.59639e-11)
(8.16064e-11 4.19635e-11 4.08082e-11)
(2.09218e-10 -1.20956e-11 7.82907e-11)
(3.04372e-10 -6.0475e-11 7.13966e-11)
(3.27741e-10 -5.83401e-11 6.16091e-11)
(4.4211e-10 -1.06989e-11 9.99845e-11)
(5.59682e-10 2.96989e-11 1.2074e-10)
(7.2777e-10 1.93323e-10 2.26205e-10)
(1.08382e-09 2.77985e-10 2.79503e-10)
(1.08382e-09 2.77985e-10 2.79503e-10)
(1.08382e-09 2.77985e-10 2.79503e-10)
(3.73439e-11 3.9874e-11 1.70645e-11)
(1.52937e-10 -1.39042e-11 6.14579e-11)
(1.83541e-10 -1.44763e-11 6.35263e-11)
(2.34108e-10 -2.83093e-11 5.60881e-11)
(3.09259e-10 -6.76124e-11 5.68672e-11)
(3.93497e-10 -2.48825e-12 8.7796e-11)
(4.87057e-10 -4.0918e-11 1.68785e-10)
(4.87057e-10 -4.0918e-11 1.68785e-10)
(4.87057e-10 -4.0918e-11 1.68785e-10)
(1.8466e-11 -2.77038e-11 2.32291e-12)
(5.76666e-11 -3.99393e-11 -4.33324e-12)
(1.04694e-10 -2.6396e-11 1.53069e-11)
(9.85727e-11 -4.89267e-11 5.21935e-12)
(1.86492e-10 -5.82557e-11 1.76001e-11)
(1.66555e-10 -4.72271e-11 2.13671e-11)
(1.66555e-10 -4.72271e-11 2.13671e-11)
)
;
    }
    procBoundary6to4
    {
        type            processor;
        value           nonuniform List<vector> 
27
(
(7.45762e-11 3.34955e-11 4.75061e-11)
(2.5848e-10 2.14771e-11 5.71965e-11)
(4.7329e-10 -1.63521e-11 -8.50013e-12)
(6.21908e-10 2.39397e-12 1.04716e-11)
(8.4943e-10 8.80996e-11 9.8303e-11)
(1.00925e-09 1.52318e-10 2.0214e-10)
(1.30628e-09 1.4748e-10 3.35059e-10)
(1.39115e-09 3.5709e-10 3.87473e-10)
(1.42107e-09 4.05872e-10 5.69469e-10)
(5.74446e-11 2.5494e-11 1.59091e-11)
(1.80984e-10 1.71137e-11 9.75457e-12)
(3.37433e-10 -1.09327e-11 -3.48418e-11)
(3.97409e-10 -1.40545e-11 -2.47573e-11)
(5.49429e-10 -1.91313e-11 4.9307e-12)
(8.62837e-10 9.55044e-11 6.09739e-11)
(9.77228e-10 2.17301e-10 1.68395e-10)
(1.10784e-09 1.61816e-10 2.30993e-10)
(1.29555e-09 8.67793e-11 4.58994e-10)
(4.49797e-11 -1.99916e-12 -8.89539e-12)
(9.86687e-11 1.94656e-12 -1.66853e-11)
(2.10664e-10 3.08466e-11 -2.27619e-11)
(2.03936e-10 -1.17606e-11 -1.68455e-11)
(3.0737e-10 -4.50994e-11 -3.07968e-11)
(3.13999e-10 -3.57628e-11 -3.23119e-11)
(3.29286e-10 4.09069e-11 2.50548e-11)
(1.67212e-09 -5.93041e-10 1.69221e-11)
(6.78443e-10 1.34396e-10 9.658e-11)
)
;
    }
    procBoundary6to7
    {
        type            processor;
        value           nonuniform List<vector> 
12
(
(1.45686e-09 9.29275e-11 3.74264e-10)
(1.15143e-09 1.82997e-10 1.3405e-10)
(5.98234e-10 -6.15358e-11 7.29006e-11)
(1.38629e-09 2.90894e-10 2.85434e-10)
(1.23899e-09 2.29621e-10 1.35747e-10)
(5.13974e-10 -8.63322e-11 9.29607e-12)
(1.2227e-09 3.50752e-10 2.29841e-10)
(1.14873e-09 2.11924e-10 3.45015e-11)
(6.59502e-10 -3.06402e-11 -5.58608e-11)
(4.49803e-10 2.01988e-10 7.20534e-11)
(5.48109e-10 4.10508e-10 5.33928e-12)
(3.71482e-10 -2.89349e-11 -2.08494e-11)
)
;
    }
}


// ************************************************************************* //
