/*--------------------------------*- C++ -*----------------------------------*\
| =========                 |                                                 |
| \\      /  F ield         | OpenFOAM: The Open Source CFD Toolbox           |
|  \\    /   O peration     | Version:  4.x                                   |
|   \\  /    A nd           | Web:      www.OpenFOAM.org                      |
|    \\/     M anipulation  |                                                 |
\*---------------------------------------------------------------------------*/
FoamFile
{
    version     2.0;
    format      ascii;
    class       volScalarField;
    location    "42.5";
    object      alpha.iron;
}
// * * * * * * * * * * * * * * * * * * * * * * * * * * * * * * * * * * * * * //

dimensions      [0 0 0 0 0 0 0];

internalField   nonuniform List<scalar> 
87
(
1
1
1
1
1
1
1
1
0.997521
1
1
1
1
1
1
0.999999
0.999999
0.999065
1
1
1
1
1
0.999999
0.999998
0.999998
0.999577
1
1
1
1
1
1
1
0.999999
0.999425
1
1
1
1
0.999999
0.999999
0.999997
0.999997
0.999657
1
1
0.999999
0.999998
0.999996
0.999994
0.999987
0.999987
0.999849
1
1
1
1
1
1
0.999999
0.999999
0.999711
1
1
1
0.999999
0.999998
0.999998
0.999994
0.999993
0.999739
1
0.999999
0.999999
0.999997
0.999993
0.999988
0.999979
0.999975
0.999835
1
1
1
1
1
1
)
;

boundaryField
{
    inlet
    {
        type            fixedValue;
        value           nonuniform 0();
    }
    outlet
    {
        type            fixedValue;
        value           uniform 1;
    }
    wall
    {
        type            zeroGradient;
    }
    procBoundary1to0
    {
        type            processor;
        value           nonuniform List<scalar> 
12
(
1
1
1
1
1
1
1
1
1
1
1
1
)
;
    }
    procBoundary1to3
    {
        type            processor;
        value           nonuniform List<scalar> 
27
(
1
1
1
1
1
1
0.999999
0.999998
0.999805
1
1
0.999999
0.999999
0.999997
0.999996
0.99999
0.999989
0.999754
1
0.999999
0.999998
0.999995
0.99999
0.999982
0.99997
0.999964
0.99986
)
;
    }
    procBoundary1to5
    {
        type            processor;
        value           nonuniform List<scalar> 
32
(
1
1
1
0.999999
0.999998
0.999986
1
0.999999
0.999998
0.999997
0.999994
0.99999
0.999929
0.999999
0.999999
0.999997
0.999994
0.999989
0.99998
0.999968
0.999778
1
1
1
1
1
1
1
0.999999
1
0.999999
1
)
;
    }
    procBoundary1to7
    {
        type            processor;
        value           uniform 1;
    }
}


// ************************************************************************* //
