/*--------------------------------*- C++ -*----------------------------------*\
| =========                 |                                                 |
| \\      /  F ield         | OpenFOAM: The Open Source CFD Toolbox           |
|  \\    /   O peration     | Version:  4.x                                   |
|   \\  /    A nd           | Web:      www.OpenFOAM.org                      |
|    \\/     M anipulation  |                                                 |
\*---------------------------------------------------------------------------*/
FoamFile
{
    version     2.0;
    format      ascii;
    class       volScalarField;
    location    "19";
    object      alpha.iron;
}
// * * * * * * * * * * * * * * * * * * * * * * * * * * * * * * * * * * * * * //

dimensions      [0 0 0 0 0 0 0];

internalField   nonuniform List<scalar> 
87
(
0.999932
0.999972
0.999945
0.999995
0.999992
0.999983
1
0.999999
0.999999
0.999997
0.999995
0.999986
0.999965
0.999931
0.999896
1
1
0.999999
0.999997
0.999995
0.999991
0.999983
0.999967
0.999942
1
1
0.999999
0.999998
0.999997
0.999996
0.999994
0.99999
0.999981
1
1
0.999999
0.999998
0.999997
0.999993
0.999986
0.999973
0.999953
1
1
0.999999
0.999998
0.999997
0.999996
0.999991
0.999982
0.999967
1
1
0.999999
0.999999
0.999998
0.999997
0.999996
0.999993
0.999987
1
1
0.999999
0.999999
0.999998
0.999997
0.999994
0.999988
0.999979
1
1
0.999999
0.999999
0.999998
0.999997
0.999995
0.999991
0.999984
1
1
0.999999
0.999999
0.999998
0.999998
0.999997
0.999995
0.999992
)
;

boundaryField
{
    inlet
    {
        type            fixedValue;
        value           uniform 1;
    }
    outlet
    {
        type            fixedValue;
        value           nonuniform 0();
    }
    wall
    {
        type            zeroGradient;
    }
    procBoundary6to0
    {
        type            processor;
        value           uniform 0.999913;
    }
    procBoundary6to2
    {
        type            processor;
        value           nonuniform List<scalar> 
32
(
0.999899
0.999966
0.999914
0.999995
0.999992
0.999978
1
1
0.999999
0.999998
0.999996
0.999992
0.999983
0.999963
0.999963
0.999963
1
0.999999
0.999999
0.999997
0.999996
0.999993
0.999987
0.999987
0.999987
1
0.999999
0.999999
0.999998
0.999997
0.999997
0.999997
)
;
    }
    procBoundary6to4
    {
        type            processor;
        value           nonuniform List<scalar> 
27
(
1
1
0.999999
0.999998
0.999996
0.99999
0.999978
0.999955
0.999924
1
1
0.999999
0.999998
0.999997
0.999993
0.999985
0.99997
0.999946
1
1
0.999999
0.999999
0.999998
0.999996
0.999993
0.999987
0.999976
)
;
    }
    procBoundary6to7
    {
        type            processor;
        value           nonuniform List<scalar> 
12
(
0.999892
0.999909
0.99997
0.999873
0.999914
0.999967
0.999929
0.999946
0.999979
0.999965
0.999976
0.999987
)
;
    }
}


// ************************************************************************* //
