/*--------------------------------*- C++ -*----------------------------------*\
| =========                 |                                                 |
| \\      /  F ield         | OpenFOAM: The Open Source CFD Toolbox           |
|  \\    /   O peration     | Version:  4.x                                   |
|   \\  /    A nd           | Web:      www.OpenFOAM.org                      |
|    \\/     M anipulation  |                                                 |
\*---------------------------------------------------------------------------*/
FoamFile
{
    version     2.0;
    format      ascii;
    class       volScalarField;
    location    "19";
    object      Sm;
}
// * * * * * * * * * * * * * * * * * * * * * * * * * * * * * * * * * * * * * //

dimensions      [1 -3 -1 0 0 0 0];

internalField   nonuniform List<scalar> 
87
(
6.74171e-65
6.04449e-65
7.1293e-65
5.11471e-65
5.81209e-65
4.95964e-65
1.03851e-64
7.59497e-65
4.95992e-65
7.43973e-65
9.37697e-65
6.12205e-65
7.36189e-65
6.50936e-65
8.52411e-65
5.81253e-65
7.90499e-65
6.43241e-65
8.83473e-65
7.05218e-65
7.82703e-65
7.05198e-65
8.6018e-65
7.59435e-65
4.96005e-65
7.20751e-65
5.42497e-65
6.12236e-65
7.59476e-65
8.75708e-65
6.50964e-65
6.66457e-65
7.517e-65
7.67256e-65
7.67248e-65
7.74991e-65
7.67228e-65
5.34727e-65
7.0521e-65
6.27709e-65
5.88953e-65
7.90431e-65
5.65754e-65
7.285e-65
6.81994e-65
6.89734e-65
5.96732e-65
5.57972e-65
7.74955e-65
5.73464e-65
7.74942e-65
5.19255e-65
6.74252e-65
5.57996e-65
7.59489e-65
7.28483e-65
5.96729e-65
6.66473e-65
5.96719e-65
5.65722e-65
5.03754e-65
5.27002e-65
6.12246e-65
6.89737e-65
6.50983e-65
6.43222e-65
8.67955e-65
8.75695e-65
3.79728e-65
6.04506e-65
5.50252e-65
6.81998e-65
5.65742e-65
8.6023e-65
6.35479e-65
6.19974e-65
5.5797e-65
7.82709e-65
4.41755e-65
6.27753e-65
6.1225e-65
6.43245e-65
4.95993e-65
8.2148e-65
4.80489e-65
5.19234e-65
6.04479e-65
)
;

boundaryField
{
    inlet
    {
        type            calculated;
        value           uniform 0;
    }
    outlet
    {
        type            calculated;
        value           nonuniform 0();
    }
    wall
    {
        type            calculated;
        value           uniform 0;
    }
    procBoundary6to0
    {
        type            processor;
        value           uniform 2.32468e-65;
    }
    procBoundary6to2
    {
        type            processor;
        value           nonuniform List<scalar> 
32
(
4.88195e-65
7.43935e-65
8.36919e-65
8.29203e-65
4.95965e-65
6.66451e-65
4.80502e-65
8.13744e-65
8.36982e-65
6.58726e-65
6.81961e-65
5.88954e-65
6.27691e-65
7.74915e-65
7.74915e-65
7.74915e-65
6.89755e-65
6.89748e-65
8.36988e-65
5.81232e-65
7.20714e-65
6.89702e-65
8.36936e-65
8.36936e-65
8.36936e-65
5.27004e-65
6.51e-65
6.27743e-65
7.12983e-65
5.5023e-65
6.35467e-65
6.35467e-65
)
;
    }
    procBoundary6to4
    {
        type            processor;
        value           nonuniform List<scalar> 
27
(
4.34002e-65
5.73498e-65
7.59486e-65
5.19232e-65
7.3621e-65
6.35455e-65
9.22167e-65
5.9669e-65
5.96683e-65
6.66505e-65
7.20749e-65
5.9674e-65
8.52477e-65
8.44712e-65
6.74211e-65
9.60928e-65
7.90433e-65
6.81938e-65
7.44006e-65
7.05252e-65
5.81246e-65
7.67233e-65
6.97477e-65
9.22207e-65
4.49476e-65
4.88218e-65
6.35455e-65
)
;
    }
    procBoundary6to7
    {
        type            processor;
        value           nonuniform List<scalar> 
12
(
7.67156e-65
4.80451e-65
6.50948e-65
3.95204e-65
5.50199e-65
6.742e-65
8.05928e-65
7.05198e-65
5.57971e-65
6.89699e-65
5.96717e-65
6.04477e-65
)
;
    }
}


// ************************************************************************* //
