/*--------------------------------*- C++ -*----------------------------------*\
| =========                 |                                                 |
| \\      /  F ield         | OpenFOAM: The Open Source CFD Toolbox           |
|  \\    /   O peration     | Version:  4.x                                   |
|   \\  /    A nd           | Web:      www.OpenFOAM.org                      |
|    \\/     M anipulation  |                                                 |
\*---------------------------------------------------------------------------*/
FoamFile
{
    version     2.0;
    format      ascii;
    class       volVectorField;
    location    "19";
    object      U;
}
// * * * * * * * * * * * * * * * * * * * * * * * * * * * * * * * * * * * * * //

dimensions      [0 1 -1 0 0 0 0];

internalField   nonuniform List<vector> 
87
(
(0.0284481 0.000566213 0.000242647)
(0.00729709 0.000103104 -0.000581221)
(0.0288233 0.00056824 -0.000302209)
(0.0318975 0.000762104 -0.00110475)
(0.0157948 0.000385107 -0.00118039)
(0.0327909 0.000593634 -0.000950435)
(0.0287845 0.000424038 -0.000846052)
(0.0095771 0.000283341 -0.000393916)
(0.0273019 0.000536463 -0.000861416)
(0.00543172 0.000144152 -0.000338132)
(0.026678 0.00039921 -0.000691183)
(0.00201754 6.07193e-05 -0.000166386)
(0.0261768 0.000164602 -0.000399334)
(-5.48347e-08 -7.96612e-09 -7.1531e-09)
(0.0256825 0.000125621 3.7479e-05)
(0.0289113 0.00145381 -0.000635859)
(0.0108002 0.00051574 -0.000410152)
(0.0282108 0.00134513 -0.00072248)
(0.00834574 0.000364257 -0.000453226)
(0.0277529 0.000924444 -0.000649562)
(0.00615605 0.000229073 -0.000399909)
(0.027322 0.000656475 -0.00059295)
(0.00379298 0.000165198 -0.000313514)
(0.0269461 8.43125e-05 -0.000292346)
(0.0293061 0.000968083 -0.000695419)
(0.013235 0.000509595 -0.000519127)
(0.0298583 0.000978165 -0.00085976)
(0.0135058 0.000390143 -0.00076242)
(0.0301457 0.000716704 -0.000910671)
(0.0130306 0.000321972 -0.000812843)
(0.0300757 0.000819153 -0.000824348)
(0.0126171 0.000334112 -0.000923654)
(0.0301252 0.000651464 -0.000623304)
(0.0287444 0.000703418 0.00079511)
(0.0109972 0.00033611 0.000204599)
(0.0280711 0.000783998 0.000723693)
(0.00862758 0.000282831 0.000162279)
(0.0277703 0.000586356 0.00061652)
(0.00672876 0.000149511 4.85526e-05)
(0.0276781 0.000325031 0.000436818)
(0.0049145 8.43365e-05 0.000145032)
(0.0277465 0.000177368 0.000271542)
(0.0290237 0.00130686 0.000625039)
(0.0120046 0.000549865 0.000221492)
(0.0288452 0.00112491 0.000622144)
(0.0107819 0.000339867 9.65128e-05)
(0.0287169 0.000784863 0.000516195)
(0.00958755 0.000322447 3.47167e-05)
(0.0285329 0.000714415 0.000609047)
(0.00800489 0.00028924 7.84704e-06)
(0.0284538 0.00069087 0.000687341)
(0.0292348 0.000930678 0.000427961)
(0.014 0.000538326 0.000125014)
(0.0303816 0.000937846 0.000453628)
(0.0150436 0.00043166 0.000126539)
(0.031087 0.000741605 0.000463527)
(0.01532 0.000424309 -1.37207e-05)
(0.0314322 0.000751415 0.000285503)
(0.0155011 0.000466238 -0.000167937)
(0.0320746 0.000746027 0.000120559)
(0.0291343 0.000793346 0.000482661)
(0.0131008 0.000329834 0.000154493)
(0.0294325 0.000731557 0.000228441)
(0.0125961 0.000264098 1.5218e-05)
(0.0295598 0.000436882 6.38233e-05)
(0.0118279 9.30013e-05 4.23114e-07)
(0.0295246 9.76104e-05 0.000112707)
(0.0109386 1.56512e-05 8.93555e-05)
(0.0294764 5.0419e-05 0.000284147)
(0.0292107 0.00110031 0.000426943)
(0.0139469 0.000528414 0.000185632)
(0.0301417 0.00113331 0.000318428)
(0.0148096 0.000497205 5.52029e-05)
(0.0308261 0.000872852 0.000146091)
(0.0149925 0.000419611 4.55468e-05)
(0.0308591 0.000698641 0.000203597)
(0.0148162 0.000145906 -4.6347e-05)
(0.0311156 0.000300183 0.000237606)
(0.0293005 0.000764354 0.00025885)
(0.0150078 0.000431369 5.49812e-05)
(0.0311836 0.000819077 0.000183218)
(0.0175993 0.000487091 5.02305e-05)
(0.032906 0.000734368 8.98642e-05)
(0.0196177 0.00040285 -7.87169e-05)
(0.0339159 0.000620371 -1.06552e-05)
(0.0205474 0.000328 -0.000346813)
(0.034514 0.000309886 -0.000350335)
)
;

boundaryField
{
    inlet
    {
        type            fixedValue;
        value           uniform (0.01 0 0);
    }
    outlet
    {
        type            zeroGradient;
    }
    wall
    {
        type            fixedValue;
        value           uniform (0 0 0);
    }
    procBoundary6to0
    {
        type            processor;
        value           uniform (0.0269731 9.59228e-05 -0.000283575);
    }
    procBoundary6to2
    {
        type            processor;
        value           nonuniform List<vector> 
32
(
(0.0275305 -0.00017493 -0.00018811)
(0.00483957 0.000125576 -0.000359403)
(0.0279696 0.000510477 -0.000205535)
(0.0318769 0.000918046 -0.00119903)
(0.0158139 0.000350192 -0.000998206)
(0.0324825 0.0007301 -0.000963531)
(0.0288402 0.000487784 -0.00178336)
(0.0107749 0.000306602 -0.000850978)
(0.0283547 0.000675652 -0.0016559)
(0.00864975 0.000253523 -0.00071281)
(0.0281624 0.000514598 -0.00125489)
(0.00706331 0.000237751 -0.00050185)
(0.0282894 0.000383147 -0.000648607)
(0.00546852 0.000236368 -0.000473104)
(0.00546852 0.000236368 -0.000473104)
(0.00546852 0.000236368 -0.000473104)
(0.0288754 0.0011173 -0.00149605)
(0.0114302 0.000502334 -0.000805421)
(0.0286362 0.00100999 -0.00137119)
(0.00985265 0.000283608 -0.000737442)
(0.0284464 0.000771648 -0.00111856)
(0.00848003 0.000163503 -0.000594949)
(0.0285944 0.000692015 -0.000742584)
(0.0285944 0.000692015 -0.000742584)
(0.0285944 0.000692015 -0.000742584)
(0.0291921 0.000973057 -0.00139916)
(0.013551 0.000541946 -0.000938318)
(0.0302533 0.000994313 -0.00154226)
(0.0144898 0.000468008 -0.00112532)
(0.0310555 0.000859704 -0.00151207)
(0.0151983 0.000441616 -0.000971034)
(0.0151983 0.000441616 -0.000971034)
)
;
    }
    procBoundary6to4
    {
        type            processor;
        value           nonuniform List<vector> 
27
(
(0.0289277 -0.000473217 -0.000855398)
(0.0104745 -7.97855e-05 -0.000423137)
(0.0277705 -0.000393324 -0.000805167)
(0.00726657 -0.000153846 -0.000423683)
(0.0270921 -0.000405135 -0.000690748)
(0.00436079 -8.69047e-05 -0.000231132)
(0.0266857 -3.39625e-05 -0.000460011)
(0.00184207 -4.063e-05 -9.47239e-05)
(0.0263388 0.000365195 0.000245501)
(0.0288864 -0.000383658 0.000259512)
(0.0107584 -3.41402e-05 0.000244284)
(0.0279083 -0.000133949 0.000460945)
(0.00783544 -5.92862e-05 0.000109251)
(0.0273495 -0.00013418 0.000534471)
(0.0053544 -0.00013834 0.000135841)
(0.0270267 -0.0002309 0.000754618)
(0.00338283 -0.000123878 8.36706e-05)
(0.026776 -0.000328067 0.000892375)
(0.0289936 -0.000217907 0.00034001)
(0.0123886 -0.000114448 0.000231742)
(0.0289979 -0.000381166 0.000399902)
(0.0113782 -0.000226621 0.000170429)
(0.0291416 -0.000388288 0.000342755)
(0.0108132 -0.000273235 0.000191193)
(0.0292331 -0.00038087 0.000487918)
(0.0109667 -0.000265066 0.00013828)
(0.0294995 -0.000331509 0.000466821)
)
;
    }
    procBoundary6to7
    {
        type            processor;
        value           nonuniform List<vector> 
12
(
(0.0043012 0.000453989 -0.000379204)
(0.00683634 0.000161564 -0.000567355)
(0.016202 0.000452876 -0.00138298)
(-7.61245e-08 5.90757e-10 -9.94843e-09)
(0.00178792 0.000131551 -0.000158149)
(0.0118277 0.000352908 -0.000986965)
(0.00320022 0.000150283 0.000174534)
(0.00647443 0.000303576 7.18857e-05)
(0.0162096 0.000581218 -0.000238272)
(0.0103407 6.48127e-05 -3.34761e-05)
(0.0150393 0.000201551 -0.000130076)
(0.0206171 0.000214536 -0.000718481)
)
;
    }
}


// ************************************************************************* //
