/*--------------------------------*- C++ -*----------------------------------*\
| =========                 |                                                 |
| \\      /  F ield         | OpenFOAM: The Open Source CFD Toolbox           |
|  \\    /   O peration     | Version:  4.x                                   |
|   \\  /    A nd           | Web:      www.OpenFOAM.org                      |
|    \\/     M anipulation  |                                                 |
\*---------------------------------------------------------------------------*/
FoamFile
{
    version     2.0;
    format      ascii;
    class       volScalarField;
    location    "46.5";
    object      alpha.iron;
}
// * * * * * * * * * * * * * * * * * * * * * * * * * * * * * * * * * * * * * //

dimensions      [0 0 0 0 0 0 0];

internalField   nonuniform List<scalar> 
108
(
1
1
1
1
1
1
1
1
0.999816
1
1
1
1
1
1
1
0.999999
0.999999
1
1
1
1
1
1
1
1
0.999896
1
1
1
1
1
1
1
1
1.01634
1
1
1
1
0.999999
0.999999
0.999997
0.999996
0.99986
1
1
1
1
0.999999
0.999999
0.999998
0.999997
0.999962
1
1
1
1
1
1
0.999999
0.999999
0.999895
1
1
1
1
1
1
1
1
0.999613
1
1
1
0.999999
0.999997
0.999995
0.999991
0.999988
0.999936
1
1
1
0.999999
0.999998
0.999997
0.999994
0.99999
0.999961
1
1
1
1
0.999999
0.999999
0.999998
0.999997
0.99991
1
1
1
1
1
1
1
1
0.999721
)
;

boundaryField
{
    inlet
    {
        type            fixedValue;
        value           nonuniform 0();
    }
    outlet
    {
        type            fixedValue;
        value           uniform 1;
    }
    wall
    {
        type            zeroGradient;
    }
    procBoundary3to1
    {
        type            processor;
        value           nonuniform List<scalar> 
27
(
1
1
1
1
1
1
0.999999
0.999999
0.999589
1
1
1
0.999999
0.999999
0.999998
0.999995
0.999995
0.999915
1
1
1
0.999999
0.999998
0.999996
0.999993
0.999991
0.999913
)
;
    }
    procBoundary3to2
    {
        type            processor;
        value           nonuniform List<scalar> 
12
(
1
1
1
1
1
1
1
1
1
1
1
1
)
;
    }
    procBoundary3to7
    {
        type            processor;
        value           nonuniform List<scalar> 
36
(
1
1
1
0.999999
0.999998
0.999996
0.999991
0.999985
0.999944
1
1
1
0.999999
0.999998
0.999997
0.999995
0.999992
0.999911
1
1
1
1
1
0.999999
0.999998
0.999997
0.99983
1
1
1
1
1
1
1
1
0.99975
)
;
    }
}


// ************************************************************************* //
