/*--------------------------------*- C++ -*----------------------------------*\
| =========                 |                                                 |
| \\      /  F ield         | OpenFOAM: The Open Source CFD Toolbox           |
|  \\    /   O peration     | Version:  4.x                                   |
|   \\  /    A nd           | Web:      www.OpenFOAM.org                      |
|    \\/     M anipulation  |                                                 |
\*---------------------------------------------------------------------------*/
FoamFile
{
    version     2.0;
    format      ascii;
    class       volScalarField;
    location    "46.5";
    object      Ksl;
}
// * * * * * * * * * * * * * * * * * * * * * * * * * * * * * * * * * * * * * //

dimensions      [1 -3 -1 0 0 0 0];

internalField   nonuniform List<scalar> 
108
(
4877.89
2746.93
4723.25
2576.37
4836.86
2374.82
5586.75
2085.22
6465.65
6441.23
3125.15
7211.67
3125.24
9697.33
3357.57
26128.1
4288.06
1e+10
4917.96
2792.48
4851.37
2642.83
5057.17
2439.9
5706.05
2037.38
5767.41
3808.77
2512.89
3794.56
2440
3905.27
2277.61
4268.22
1922.9
5921.44
16332.7
3440.56
19361.5
3286.75
22252.8
3080.76
21405.2
2803.43
8690.33
47010.9
3721.27
252493
3707.33
9.19144e+09
3861.15
138555
4353.99
19326.6
11038.6
3312.74
10797.6
3092.86
9850.64
2744.28
7926.91
2236.87
4089.16
5367.85
2895.69
5440.33
2802.22
5859.68
2587.49
6679.68
2058.76
4797.45
28779.1
3637.2
35545.6
3581.45
31562.6
3571.38
21734.2
3732.79
8226.69
1e+10
3998.34
1e+10
3988.04
1e+10
4039.63
1e+10
4523.21
27988
76053.3
3709.96
478562
3595.84
67415.3
3500.7
17231
3485.68
5971.83
7563.27
3212.58
8190.98
3158.29
9547.47
3039.44
11025.8
2560.46
11275.2
)
;

boundaryField
{
    inlet
    {
        type            zeroGradient;
    }
    outlet
    {
        type            zeroGradient;
    }
    wall
    {
        type            zeroGradient;
    }
    procBoundary3to1
    {
        type            processor;
        value           nonuniform List<scalar> 
27
(
5384.85
2962.59
5503.01
2863.32
5777.74
2640.59
6134.62
2198.46
6367.5
43636.5
3727.99
357133
3724.84
9.80351e+09
3845.31
51687.7
4113.65
7378.04
43010.9
3735.77
55331.3
3696.79
45317.7
3641.59
21213.8
3703.53
8034.21
)
;
    }
    procBoundary3to2
    {
        type            processor;
        value           nonuniform List<scalar> 
12
(
2874.57
3129.28
2913.58
2635.27
3555.68
3712.76
3420.93
2966.37
3653.63
3928.32
3751.82
3260.03
)
;
    }
    procBoundary3to7
    {
        type            processor;
        value           nonuniform List<scalar> 
36
(
97346.2
3728.94
111106
3707.48
666638
3741.14
3.90134e+07
4173.61
25082.6
4.65393e+06
3797.23
1e+10
3838.13
136253
3955.48
21749.6
4232.52
7053.41
12152.8
3361.15
12178.4
3184.92
11768.6
3001.3
10966.6
2682.02
8437.83
6510.12
3020.55
6626.6
2899.03
7087.63
2791.91
8265.83
2565.22
9345.42
)
;
    }
}


// ************************************************************************* //
