/*--------------------------------*- C++ -*----------------------------------*\
| =========                 |                                                 |
| \\      /  F ield         | OpenFOAM: The Open Source CFD Toolbox           |
|  \\    /   O peration     | Version:  4.x                                   |
|   \\  /    A nd           | Web:      www.OpenFOAM.org                      |
|    \\/     M anipulation  |                                                 |
\*---------------------------------------------------------------------------*/
FoamFile
{
    version     2.0;
    format      ascii;
    class       volScalarField;
    location    "46.5";
    object      particleRelTemp;
}
// * * * * * * * * * * * * * * * * * * * * * * * * * * * * * * * * * * * * * //

dimensions      [0 0 0 0 0 0 0];

internalField   nonuniform List<scalar> 
108
(
-2.6532e-12
-1.25022e-12
7.26417e-13
2.46658e-12
3.96367e-12
6.62596e-12
8.7037e-12
1.15964e-11
1.39374e-11
-3.27098e-12
-1.65339e-12
-2.6569e-14
1.88834e-12
3.77023e-12
5.20408e-12
8.60601e-12
1.06394e-11
1.37991e-11
-4.37922e-12
-3.25662e-12
-1.67313e-12
-3.11502e-13
1.97781e-12
3.13721e-12
5.45078e-12
6.91111e-12
9.23343e-12
-5.77378e-12
-4.67876e-12
-4.44819e-12
-2.17394e-12
-3.63882e-13
4.95801e-13
1.08478e-12
2.89316e-12
3.98342e-12
-1.02112e-12
1.46138e-12
2.59821e-12
5.20837e-12
7.48889e-12
9.22396e-12
1.27808e-11
1.5658e-11
1.71393e-11
-1.79309e-12
2.03921e-13
2.29104e-12
4.23534e-12
6.05698e-12
9.89572e-12
1.19555e-11
1.42252e-11
1.63701e-11
-3.32757e-12
-1.21679e-12
4.2401e-13
2.00325e-12
4.35707e-12
6.34023e-12
9.00905e-12
1.08896e-11
1.25629e-11
-4.25319e-12
-3.13481e-12
-2.06375e-12
-9.49496e-14
1.97482e-12
2.99342e-12
5.70657e-12
7.0445e-12
8.45969e-12
9.16484e-13
2.68053e-12
5.41015e-12
7.28434e-12
1.01605e-11
1.34492e-11
1.62219e-11
2.01252e-11
2.12811e-11
-1.4893e-13
2.24915e-12
4.63998e-12
7.34451e-12
1.0197e-11
1.28988e-11
1.59051e-11
1.81152e-11
1.94191e-11
-1.05173e-12
1.42109e-13
3.09384e-12
5.27802e-12
8.06638e-12
1.05677e-11
1.20805e-11
1.48768e-11
1.60519e-11
-2.47652e-12
-1.70947e-12
4.82664e-13
2.82192e-12
5.17587e-12
6.39564e-12
9.13293e-12
1.11855e-11
1.37703e-11
)
;

boundaryField
{
    inlet
    {
        type            calculated;
        value           nonuniform 0();
    }
    outlet
    {
        type            calculated;
        value           nonuniform List<scalar> 
12
(
1.39374e-11
1.37991e-11
9.23343e-12
3.98342e-12
1.71393e-11
1.63701e-11
1.25629e-11
8.45969e-12
2.12811e-11
1.94191e-11
1.60519e-11
1.37703e-11
)
;
    }
    wall
    {
        type            calculated;
        value           nonuniform List<scalar> 
63
(
-2.6532e-12
-3.27098e-12
-4.37922e-12
-5.77378e-12
-1.25022e-12
-1.65339e-12
-3.25662e-12
-4.67876e-12
7.26417e-13
-2.6569e-14
-1.67313e-12
-4.44819e-12
2.46658e-12
1.88834e-12
-3.11502e-13
-2.17394e-12
3.96367e-12
3.77023e-12
1.97781e-12
-3.63882e-13
6.62596e-12
5.20408e-12
3.13721e-12
4.95801e-13
8.7037e-12
8.60601e-12
5.45078e-12
1.08478e-12
1.15964e-11
1.06394e-11
6.91111e-12
2.89316e-12
1.39374e-11
1.37991e-11
9.23343e-12
3.98342e-12
-5.77378e-12
-4.25319e-12
-2.47652e-12
-4.67876e-12
-3.13481e-12
-1.70947e-12
-4.44819e-12
-2.06375e-12
4.82664e-13
-2.17394e-12
-9.49496e-14
2.82192e-12
-3.63882e-13
1.97482e-12
5.17587e-12
4.95801e-13
2.99342e-12
6.39564e-12
1.08478e-12
5.70657e-12
9.13293e-12
2.89316e-12
7.0445e-12
1.11855e-11
3.98342e-12
8.45969e-12
1.37703e-11
)
;
    }
    procBoundary3to1
    {
        type            processor;
        value           nonuniform List<scalar> 
27
(
-2.17976e-12
-1.45515e-12
-1.78067e-13
2.1614e-12
3.80872e-12
5.16227e-12
7.71226e-12
8.93246e-12
1.11575e-11
-7.71218e-13
3.3685e-15
1.98746e-12
3.82114e-12
6.95641e-12
9.07364e-12
1.10718e-11
1.45597e-11
1.72921e-11
-2.09184e-13
2.69741e-12
4.14519e-12
7.12652e-12
9.97202e-12
1.32187e-11
1.64409e-11
1.90956e-11
2.06289e-11
)
;
    }
    procBoundary3to2
    {
        type            processor;
        value           nonuniform List<scalar> 
12
(
-4.24907e-12
-4.60095e-12
-5.47065e-12
-6.48592e-12
-2.72162e-12
-3.2178e-12
-4.40718e-12
-5.63621e-12
-1.27603e-12
-2.10721e-12
-2.69985e-12
-4.18603e-12
)
;
    }
    procBoundary3to7
    {
        type            processor;
        value           nonuniform List<scalar> 
36
(
1.56736e-12
3.93508e-12
6.29602e-12
9.40161e-12
1.21504e-11
1.57168e-11
1.883e-11
2.18517e-11
2.33906e-11
1.23822e-12
3.51482e-12
6.40823e-12
8.62214e-12
1.1627e-11
1.39999e-11
1.6915e-11
1.98687e-11
2.18435e-11
1.67078e-13
1.87171e-12
4.39985e-12
6.39396e-12
9.01966e-12
1.09189e-11
1.38115e-11
1.6618e-11
1.8494e-11
-1.2775e-12
1.95878e-13
1.87402e-12
4.41598e-12
6.03976e-12
8.21901e-12
1.07511e-11
1.295e-11
1.48638e-11
)
;
    }
}


// ************************************************************************* //
