/*--------------------------------*- C++ -*----------------------------------*\
| =========                 |                                                 |
| \\      /  F ield         | OpenFOAM: The Open Source CFD Toolbox           |
|  \\    /   O peration     | Version:  4.x                                   |
|   \\  /    A nd           | Web:      www.OpenFOAM.org                      |
|    \\/     M anipulation  |                                                 |
\*---------------------------------------------------------------------------*/
FoamFile
{
    version     2.0;
    format      ascii;
    class       volScalarField;
    location    "46.5";
    object      QPartFluidCoeff;
}
// * * * * * * * * * * * * * * * * * * * * * * * * * * * * * * * * * * * * * //

dimensions      [1 -1 -3 -1 0 0 0];

internalField   nonuniform List<scalar> 
108
(
-2.83053e+07
-1.28554e+07
-2.24534e+07
-1.07914e+07
-1.67341e+07
-1.26731e+07
-1.88118e+07
-1.7685e+07
-9.73065e+06
-2.06256e+07
-2.94051e+07
-1.64817e+07
-1.83269e+07
-1.9767e+07
-1.63086e+07
-1.95098e+07
-1.83433e+07
-1.19724e+07
-2.21331e+07
-2.26838e+07
-2.36689e+07
-1.64602e+07
-1.96095e+07
-1.80292e+07
-2.2545e+07
-2.37725e+07
-1.371e+07
-1.44628e+07
-1.43554e+07
-1.55454e+07
-2.22609e+07
-1.84236e+07
-1.83942e+07
-1.20747e+07
-1.85389e+07
-1.4476e+07
-2.85323e+07
-2.69917e+07
-3.42761e+07
-3.55599e+07
-2.84654e+07
-2.67058e+07
-2.29238e+07
-2.87613e+07
-2.56761e+07
-2.535e+07
-2.67519e+07
-2.67523e+07
-2.99642e+07
-2.49467e+07
-2.62128e+07
-3.08893e+07
-2.88235e+07
-1.9191e+07
-4.2474e+07
-3.30365e+07
-3.02638e+07
-3.80819e+07
-2.85234e+07
-3.41424e+07
-2.76819e+07
-3.30463e+07
-2.63651e+07
-2.80952e+07
-2.38899e+07
-2.4378e+07
-2.68178e+07
-3.05803e+07
-2.5459e+07
-2.43326e+07
-2.89489e+07
-1.85786e+07
-2.75266e+07
-3.67832e+07
-3.09358e+07
-3.46325e+07
-2.2122e+07
-2.62185e+07
-3.06223e+07
-2.82351e+07
-2.3336e+07
-3.18434e+07
-2.04646e+07
-2.7195e+07
-1.67299e+07
-1.46032e+07
-3.14332e+07
-2.54127e+07
-3.52615e+07
-1.70662e+07
-2.01122e+07
-3.43733e+07
-3.06295e+07
-2.42656e+07
-2.46852e+07
-3.3327e+07
-2.70638e+07
-3.10799e+07
-1.68032e+07
-2.91818e+07
-1.62242e+07
-1.92494e+07
-2.32336e+07
-2.14344e+07
-2.85858e+07
-2.10826e+07
-3.18558e+07
-2.50978e+07
)
;

boundaryField
{
    inlet
    {
        type            calculated;
        value           nonuniform 0();
    }
    outlet
    {
        type            calculated;
        value           uniform 0;
    }
    wall
    {
        type            calculated;
        value           uniform 0;
    }
    procBoundary3to1
    {
        type            processor;
        value           nonuniform List<scalar> 
27
(
298.343
536.386
470.564
677.305
476.037
440.288
435.995
476.656
324.938
598.233
641.391
543.147
514.656
438.275
704.128
714.386
996.851
337.104
716.024
595.429
414.513
842.379
670.834
809.538
566.62
732.295
255.511
)
;
    }
    procBoundary3to2
    {
        type            processor;
        value           nonuniform List<scalar> 
12
(
347.642
337.976
492.273
300.908
848.737
484.109
581.45
364.373
702.842
433.509
773.209
584.815
)
;
    }
    procBoundary3to7
    {
        type            processor;
        value           nonuniform List<scalar> 
36
(
763.857
693.05
489.494
603.838
840.354
948.832
605.282
494.117
464.11
565.672
865.648
563.057
618.405
634.202
526.222
595.671
580.376
516.852
403.473
715.626
527.967
682.533
637.337
799.368
656.475
694.483
524.475
535.336
570.157
680.03
452.91
601.661
610.435
608.657
533.572
275.835
)
;
    }
}


// ************************************************************************* //
