/*--------------------------------*- C++ -*----------------------------------*\
| =========                 |                                                 |
| \\      /  F ield         | OpenFOAM: The Open Source CFD Toolbox           |
|  \\    /   O peration     | Version:  4.x                                   |
|   \\  /    A nd           | Web:      www.OpenFOAM.org                      |
|    \\/     M anipulation  |                                                 |
\*---------------------------------------------------------------------------*/
FoamFile
{
    version     2.0;
    format      ascii;
    class       volScalarField;
    location    "46.5";
    object      QWallFluidCoeff;
}
// * * * * * * * * * * * * * * * * * * * * * * * * * * * * * * * * * * * * * //

dimensions      [1 -1 -3 -1 0 0 0];

internalField   nonuniform List<scalar> 
108
(
-2.19923e+06
-3.48621e+06
-2.25028e+06
-3.66469e+06
-2.1996e+06
-3.87322e+06
-1.91895e+06
-4.15782e+06
-1.63427e+06
-1.75412e+06
-3.1352e+06
-1.60158e+06
-3.12759e+06
-1.25515e+06
-2.93544e+06
-554760
-2.31617e+06
-37.6779
-2.1769e+06
-3.43548e+06
-2.20186e+06
-3.60658e+06
-2.13491e+06
-3.84263e+06
-1.89755e+06
-4.27786e+06
-1.80129e+06
-5.26974e+06
-7.40717e+06
-5.35141e+06
-7.62379e+06
-5.22018e+06
-8.03013e+06
-4.77064e+06
-8.83602e+06
-3.57582e+06
0
0
0
0
0
0
0
0
0
0
0
0
0
0
0
0
0
0
0
0
0
0
0
0
0
0
0
-1.99034e+06
-3.29784e+06
-1.98114e+06
-3.40729e+06
-1.87228e+06
-3.62991e+06
-1.65158e+06
-4.20206e+06
-2.0633e+06
0
0
0
0
0
0
0
0
0
0
0
0
0
0
0
0
0
0
0
0
0
0
0
0
0
0
0
-1.48221e+06
-2.96785e+06
-1.39219e+06
-2.99723e+06
-1.23261e+06
-3.08127e+06
-1.07584e+06
-3.43619e+06
-1.01414e+06
)
;

boundaryField
{
    inlet
    {
        type            calculated;
        value           nonuniform 0();
    }
    outlet
    {
        type            calculated;
        value           uniform 0;
    }
    wall
    {
        type            calculated;
        value           uniform 0;
    }
    procBoundary3to1
    {
        type            processor;
        value           uniform 0;
    }
    procBoundary3to2
    {
        type            processor;
        value           uniform 0;
    }
    procBoundary3to7
    {
        type            processor;
        value           uniform 0;
    }
}


// ************************************************************************* //
