/*--------------------------------*- C++ -*----------------------------------*\
| =========                 |                                                 |
| \\      /  F ield         | OpenFOAM: The Open Source CFD Toolbox           |
|  \\    /   O peration     | Version:  4.x                                   |
|   \\  /    A nd           | Web:      www.OpenFOAM.org                      |
|    \\/     M anipulation  |                                                 |
\*---------------------------------------------------------------------------*/
FoamFile
{
    version     2.0;
    format      ascii;
    class       volVectorField;
    location    "46.5";
    object      U;
}
// * * * * * * * * * * * * * * * * * * * * * * * * * * * * * * * * * * * * * //

dimensions      [0 1 -1 0 0 0 0];

internalField   nonuniform List<vector> 
108
(
(0.0225479 -0.000311614 -0.000269812)
(0.0399411 -0.000318884 -0.00049594)
(0.023245 -0.000397895 -0.000311025)
(0.0424748 -0.00069465 5.33615e-05)
(0.0224118 -0.0016459 -0.000508322)
(0.0454696 -0.00134765 0.0013785)
(0.0184333 -0.0045344 -0.00176885)
(0.0500478 0.000181685 0.00338934)
(0.00896122 -0.0115315 -0.00541021)
(0.0169954 -0.000423025 -0.000171937)
(0.03538 -0.000246466 -0.000194075)
(0.0151878 -0.000412347 -0.000211167)
(0.0349967 -0.000193422 0.000868758)
(0.0111915 -0.000359674 -0.000126055)
(0.0322047 5.73606e-05 0.00243551)
(0.00405644 -4.74622e-05 -8.96662e-05)
(0.0240122 -0.000110312 0.00326287)
(-2.55888e-08 2.47821e-09 -1.52157e-09)
(0.0222463 0.000597283 8.5721e-05)
(0.0394818 0.00078147 1.79102e-05)
(0.0226562 0.000804887 0.000562118)
(0.0418005 0.000783506 0.000712458)
(0.0215874 0.00221949 0.00131285)
(0.0451753 0.000774367 0.00195059)
(0.0179354 0.00554156 0.00172279)
(0.0520056 -0.00252457 0.00277623)
(0.00967665 0.0147128 -0.000185898)
(0.028 -0.000616532 3.37037e-05)
(0.0429017 -0.000551085 -2.12261e-05)
(0.0286361 -0.00129231 0.000417812)
(0.0449159 -0.00106068 0.000495776)
(0.0278847 -0.00177015 0.000908416)
(0.0477382 -0.00113054 0.00132821)
(0.0247178 -0.00225035 0.00175739)
(0.0540929 -0.00110752 0.00274716)
(0.0136884 -0.000768106 -0.0102459)
(0.00672481 8.01105e-05 -0.000487086)
(0.0323677 0.000181845 -0.000373216)
(0.00568023 0.000127734 -0.000622268)
(0.0338818 2.96804e-05 0.000588088)
(0.00481452 0.000108919 -0.00100111)
(0.0354641 -0.000322882 0.00239171)
(0.00448437 1.81622e-05 -0.00222715)
(0.0374509 -0.00109341 0.00646143)
(0.00548302 -0.000700863 -0.010361)
(0.00231914 -2.80817e-05 -0.000314175)
(0.0299292 0.000307156 0.000255725)
(0.000425577 1.04191e-05 -9.63834e-05)
(0.0298905 0.000179124 0.000891825)
(1.35809e-08 3.17989e-10 -4.31819e-09)
(0.0283302 -0.00036568 0.00180743)
(0.000687476 0.000212845 -0.000283023)
(0.0239685 -0.00287354 0.00286402)
(0.00376769 0.00333593 -0.00150342)
(0.0100347 0.000442069 -0.000977446)
(0.0338503 0.00074476 -0.000764508)
(0.0101752 0.00081046 -0.00142616)
(0.0365299 -4.59181e-06 0.00028556)
(0.0108455 0.0020189 -0.00247491)
(0.0408603 -0.00117749 0.00203184)
(0.0115589 0.00557156 -0.00498765)
(0.0478015 -0.00461013 0.00541558)
(0.00776676 0.0189779 -0.0146389)
(0.0201615 -0.000534805 -0.00131715)
(0.0378534 -0.000469287 -0.00103462)
(0.0200089 -0.00119951 -0.00177229)
(0.0397193 -0.00105024 -0.000722302)
(0.0186229 -0.00178866 -0.00263751)
(0.0430243 -0.00136459 0.000398202)
(0.015612 -0.00186015 -0.00361835)
(0.0518411 -0.000725735 0.00383431)
(0.00931135 0.00246847 -0.0189919)
(0.00368096 -0.00033856 -0.000721131)
(0.0302925 -0.000185248 -0.000105479)
(0.00292431 -0.000428432 -0.000793283)
(0.0306531 -0.000475227 0.000272942)
(0.00303464 -0.000824808 -0.00133057)
(0.0302911 -0.00063551 0.00124272)
(0.00384608 -0.00157707 -0.00253232)
(0.0277149 0.00104527 0.003881)
(0.00765344 -0.00405552 -0.00867192)
(1.2444e-08 -1.59802e-09 -7.97966e-10)
(0.0273593 -0.000227144 0.000484284)
(1.31453e-08 -1.3703e-09 -1.31126e-09)
(0.0271228 0.000138915 0.000753929)
(1.17815e-08 -1.60286e-09 -2.516e-09)
(0.0267062 0.000817178 0.00196057)
(1.04819e-08 -7.6389e-10 -3.92111e-09)
(0.0230211 0.000997488 0.0026964)
(0.00356086 -3.18894e-05 -0.000489877)
(0.00142109 0.000129231 -7.97187e-05)
(0.0297631 -0.000191162 -7.81126e-05)
(0.000224038 3.39659e-05 -2.27094e-05)
(0.0304342 -0.000278706 0.000372835)
(0.00151803 0.000440147 -0.000297667)
(0.0313353 -0.000212104 0.00123204)
(0.00526524 0.00278475 -0.00182581)
(0.0302241 -0.00207256 0.00326186)
(0.0101135 0.0116848 -0.00701912)
(0.0141844 -5.81818e-05 -0.000704628)
(0.0335723 -0.000219844 -0.000297412)
(0.0130795 -0.000311833 -0.000797091)
(0.034252 -0.0010832 0.000141016)
(0.0112545 -0.000205424 -0.00124406)
(0.0357843 -0.00136582 0.000827408)
(0.00937097 0.000475583 -0.00212255)
(0.0411487 -0.00134194 0.00266523)
(0.00624879 0.00392771 -0.0051013)
)
;

boundaryField
{
    inlet
    {
        type            fixedValue;
        value           nonuniform 0();
    }
    outlet
    {
        type            zeroGradient;
    }
    wall
    {
        type            fixedValue;
        value           uniform (0 0 0);
    }
    procBoundary3to1
    {
        type            processor;
        value           nonuniform List<vector> 
27
(
(0.0202544 0.000182275 -0.000723965)
(0.0374005 0.000291878 -0.000776203)
(0.0199869 0.000502952 -0.00099834)
(0.038976 0.000598711 -6.52543e-05)
(0.0188789 0.000237459 -0.00201843)
(0.0416481 0.000672677 0.00116598)
(0.0170201 -0.000980423 -0.00448201)
(0.0487923 0.00124628 0.00455799)
(0.0103589 -0.00415939 -0.0115145)
(0.00250973 0.00012494 -0.000153155)
(0.0298853 0.000318021 0.000221942)
(0.000306343 2.86234e-05 -2.98795e-05)
(0.0298967 0.000412969 0.000729692)
(1.29859e-08 -6.69678e-10 -2.45978e-09)
(0.0287086 0.000153909 0.00176756)
(0.00195607 0.0001457 -0.000767425)
(0.026075 -0.000220784 0.00420812)
(0.00903733 0.000196617 -0.0105142)
(0.00246267 -0.000131656 -0.000525626)
(0.0293853 -2.8601e-05 0.000139614)
(0.00185852 -0.000149366 -0.000605837)
(0.0298625 0.00048971 7.32251e-05)
(0.00214602 -0.000360958 -0.000992669)
(0.0299064 0.000951155 0.000650281)
(0.00408967 -0.00157043 -0.00242984)
(0.028208 0.00289501 0.00258471)
(0.00882168 -0.00712489 -0.00529732)
)
;
    }
    procBoundary3to2
    {
        type            processor;
        value           nonuniform List<vector> 
12
(
(0.0377599 -0.000225356 -0.000773624)
(0.0345957 -0.000208432 -0.000764767)
(0.0373514 0.000746089 -0.000396167)
(0.0405912 -0.000113987 -0.00035553)
(0.0310548 6.75733e-05 -0.000686373)
(0.0294849 0.000154601 -0.000300461)
(0.032117 0.00103566 -0.00125026)
(0.0361677 -5.37388e-06 -0.00131243)
(0.0296669 -0.00013065 -0.000644884)
(0.0275263 -0.000470282 1.20647e-05)
(0.0291311 3.96283e-05 -0.000161591)
(0.0329364 0.000231609 -0.000516071)
)
;
    }
    procBoundary3to7
    {
        type            processor;
        value           nonuniform List<vector> 
36
(
(0.00106739 0.00012275 -0.000204602)
(0.0289084 0.000367392 -9.89571e-05)
(0.00089342 0.00019797 -0.000278215)
(0.0289366 0.000522044 -3.43586e-05)
(0.000140908 4.38453e-05 -6.12708e-05)
(0.0285861 0.000734983 0.000775976)
(2.13444e-06 9.14489e-07 -1.24645e-06)
(0.0241743 -0.00127144 0.00339378)
(0.00327985 0.00136299 -0.00170331)
(2.24912e-05 3.07076e-06 -2.6642e-06)
(0.0285835 0.000130862 -8.06455e-05)
(1.35636e-08 1.90979e-09 -8.18281e-10)
(0.0279193 3.0577e-05 0.00029511)
(0.000735363 0.00024285 -7.46426e-05)
(0.0269004 -0.000598879 0.000939529)
(0.00418024 0.00230138 -0.00024611)
(0.0240556 -0.00289683 0.00155562)
(0.00949396 0.0103152 0.00108603)
(0.00870754 0.000823054 -0.000713277)
(0.0323133 0.00044959 -0.000238955)
(0.00863603 0.00115912 -0.00115454)
(0.0338577 -0.000101981 -0.000646926)
(0.00860757 0.00209586 -0.0020196)
(0.0359891 -0.00184392 -0.000575793)
(0.00804042 0.00394381 -0.0034322)
(0.0383293 -0.00537722 0.00170795)
(0.00562675 0.0090385 -0.00501629)
(0.0162214 -0.000495917 -0.00123486)
(0.0352867 -0.000358958 -0.00108477)
(0.0158916 -0.000707778 -0.00175807)
(0.0365349 -0.000608772 -0.00101472)
(0.0146695 -0.00085172 -0.00280402)
(0.0380952 -0.000620615 -0.000175376)
(0.0116044 -0.000802649 -0.00476302)
(0.0400441 -6.07332e-05 0.00256255)
(0.00593307 -0.000264459 -0.00869531)
)
;
    }
}


// ************************************************************************* //
