/*--------------------------------*- C++ -*----------------------------------*\
| =========                 |                                                 |
| \\      /  F ield         | OpenFOAM: The Open Source CFD Toolbox           |
|  \\    /   O peration     | Version:  4.x                                   |
|   \\  /    A nd           | Web:      www.OpenFOAM.org                      |
|    \\/     M anipulation  |                                                 |
\*---------------------------------------------------------------------------*/
FoamFile
{
    version     2.0;
    format      ascii;
    class       volScalarField;
    location    "46";
    object      particleRelTemp;
}
// * * * * * * * * * * * * * * * * * * * * * * * * * * * * * * * * * * * * * //

dimensions      [0 0 0 0 0 0 0];

internalField   nonuniform List<scalar> 
108
(
-3.17144e-12
-1.46867e-12
9.20105e-13
3.02533e-12
4.82563e-12
8.03446e-12
1.05328e-11
1.40065e-11
1.68376e-11
-3.93079e-12
-1.97032e-12
2.14742e-15
2.31193e-12
4.57964e-12
6.29884e-12
1.04e-11
1.28459e-11
1.66607e-11
-5.29364e-12
-3.93218e-12
-2.01184e-12
-3.71882e-13
2.39163e-12
3.77689e-12
6.5671e-12
8.3159e-12
1.11188e-11
-7.00593e-12
-5.67786e-12
-5.40918e-12
-2.64852e-12
-4.59463e-13
5.62371e-13
1.25687e-12
3.44012e-12
4.74487e-12
-1.17342e-12
1.84455e-12
3.20993e-12
6.36398e-12
9.11267e-12
1.11982e-11
1.54837e-11
1.89404e-11
2.07246e-11
-2.11921e-12
3.00849e-13
2.8308e-12
5.17654e-12
7.36619e-12
1.20022e-11
1.44709e-11
1.71956e-11
1.97837e-11
-4.0019e-12
-1.43902e-12
5.47086e-13
2.45046e-12
5.28699e-12
7.67003e-12
1.08834e-11
1.31404e-11
1.51601e-11
-5.14079e-12
-3.78897e-12
-2.49311e-12
-1.12087e-13
2.38654e-12
3.59836e-12
6.86812e-12
8.47325e-12
1.01786e-11
1.20138e-12
3.33961e-12
6.64302e-12
8.89936e-12
1.2365e-11
1.63327e-11
1.96644e-11
2.43659e-11
2.57579e-11
-1.02487e-13
2.80646e-12
5.70249e-12
8.96299e-12
1.24038e-11
1.56523e-11
1.92655e-11
2.19168e-11
2.3484e-11
-1.21519e-12
2.26489e-13
3.80518e-12
6.44348e-12
9.80427e-12
1.28092e-11
1.46143e-11
1.79769e-11
1.93869e-11
-2.96567e-12
-2.04152e-12
6.13404e-13
3.44067e-12
6.28107e-12
7.73391e-12
1.10168e-11
1.34908e-11
1.66104e-11
)
;

boundaryField
{
    inlet
    {
        type            calculated;
        value           nonuniform 0();
    }
    outlet
    {
        type            calculated;
        value           nonuniform List<scalar> 
12
(
1.68376e-11
1.66607e-11
1.11188e-11
4.74487e-12
2.07246e-11
1.97837e-11
1.51601e-11
1.01786e-11
2.57579e-11
2.3484e-11
1.93869e-11
1.66104e-11
)
;
    }
    wall
    {
        type            calculated;
        value           nonuniform List<scalar> 
63
(
-3.17144e-12
-3.93079e-12
-5.29364e-12
-7.00593e-12
-1.46867e-12
-1.97032e-12
-3.93218e-12
-5.67786e-12
9.20105e-13
2.14742e-15
-2.01184e-12
-5.40918e-12
3.02533e-12
2.31193e-12
-3.71882e-13
-2.64852e-12
4.82563e-12
4.57964e-12
2.39163e-12
-4.59463e-13
8.03446e-12
6.29884e-12
3.77689e-12
5.62371e-13
1.05328e-11
1.04e-11
6.5671e-12
1.25687e-12
1.40065e-11
1.28459e-11
8.3159e-12
3.44012e-12
1.68376e-11
1.66607e-11
1.11188e-11
4.74487e-12
-7.00593e-12
-5.14079e-12
-2.96567e-12
-5.67786e-12
-3.78897e-12
-2.04152e-12
-5.40918e-12
-2.49311e-12
6.13404e-13
-2.64852e-12
-1.12087e-13
3.44067e-12
-4.59463e-13
2.38654e-12
6.28107e-12
5.62371e-13
3.59836e-12
7.73391e-12
1.25687e-12
6.86812e-12
1.10168e-11
3.44012e-12
8.47325e-12
1.34908e-11
4.74487e-12
1.01786e-11
1.66104e-11
)
;
    }
    procBoundary3to1
    {
        type            processor;
        value           nonuniform List<scalar> 
27
(
-2.60107e-12
-1.72652e-12
-1.79288e-13
2.64806e-12
4.63164e-12
6.2572e-12
9.32262e-12
1.07823e-11
1.34727e-11
-8.68736e-13
6.21067e-14
2.46145e-12
4.6743e-12
8.45998e-12
1.10131e-11
1.34132e-11
1.76175e-11
2.09127e-11
-1.75499e-13
3.35309e-12
5.09831e-12
8.7101e-12
1.21418e-11
1.60521e-11
1.99266e-11
2.31268e-11
2.49681e-11
)
;
    }
    procBoundary3to2
    {
        type            processor;
        value           nonuniform List<scalar> 
12
(
-5.1178e-12
-5.55007e-12
-6.62003e-12
-7.87323e-12
-3.24336e-12
-3.85175e-12
-5.31284e-12
-6.82744e-12
-1.46698e-12
-2.48818e-12
-3.2221e-12
-5.04589e-12
)
;
    }
    procBoundary3to7
    {
        type            processor;
        value           nonuniform List<scalar> 
36
(
2.00144e-12
4.8735e-12
7.72856e-12
1.14756e-11
1.47867e-11
1.90834e-11
2.2826e-11
2.64632e-11
2.83124e-11
1.59301e-12
4.35568e-12
7.85732e-12
1.05258e-11
1.41463e-11
1.69967e-11
2.04986e-11
2.40462e-11
2.64285e-11
2.77564e-13
2.33799e-12
5.39718e-12
7.80271e-12
1.09692e-11
1.32389e-11
1.67151e-11
2.00925e-11
2.2347e-11
-1.49768e-12
2.81396e-13
2.31146e-12
5.38122e-12
7.33874e-12
9.9489e-12
1.29899e-11
1.56242e-11
1.79229e-11
)
;
    }
}


// ************************************************************************* //
