/*--------------------------------*- C++ -*----------------------------------*\
| =========                 |                                                 |
| \\      /  F ield         | OpenFOAM: The Open Source CFD Toolbox           |
|  \\    /   O peration     | Version:  4.x                                   |
|   \\  /    A nd           | Web:      www.OpenFOAM.org                      |
|    \\/     M anipulation  |                                                 |
\*---------------------------------------------------------------------------*/
FoamFile
{
    version     2.0;
    format      ascii;
    class       surfaceScalarField;
    location    "46";
    object      phi;
}
// * * * * * * * * * * * * * * * * * * * * * * * * * * * * * * * * * * * * * //

dimensions      [0 3 -1 0 0 0 0];

internalField   nonuniform List<scalar> 
249
(
1.22132e-05
-1.39951e-07
-1.41911e-07
1.24813e-05
-1.06701e-07
-1.65182e-07
1.28309e-05
-1.54243e-07
-1.73912e-07
1.28628e-05
-1.685e-07
1.19021e-07
1.32635e-05
-3.83863e-07
-2.82516e-07
1.26691e-05
-2.45777e-07
7.10794e-07
1.32505e-05
-8.75334e-07
-7.48025e-07
1.16622e-05
1.16327e-08
1.84432e-06
-2.2011e-06
-2.93756e-06
1.01561e-05
3.4505e-08
-9.18542e-08
9.93717e-06
1.02526e-07
9.68221e-09
9.76562e-06
7.63058e-08
-5.89998e-08
9.15457e-06
1.12866e-07
3.29689e-07
8.43804e-06
3.58033e-07
-2.5366e-08
7.23394e-06
1.58535e-07
7.99784e-07
5.37639e-06
1.04999e-06
-6.77768e-08
4.73557e-06
-5.01025e-07
1.15348e-06
2.81181e-06
-2.76999e-07
1.20152e-05
-3.7602e-09
-1.65035e-07
1.22142e-05
4.28696e-08
-1.39363e-07
1.25435e-05
-9.4956e-08
-1.57987e-07
1.25209e-05
-5.2776e-08
1.88182e-07
1.3003e-05
8.52644e-08
-2.09303e-07
1.24806e-05
-6.83051e-08
7.49224e-07
1.3507e-05
6.20839e-07
-5.97184e-07
1.21617e-05
-6.84202e-07
1.52847e-06
2.66097e-06
-2.7417e-06
1.39556e-05
-2.40383e-07
1.4197e-05
-1.98522e-07
1.43539e-05
-2.51818e-07
1.43422e-05
-4.10836e-08
1.47449e-05
-3.17422e-07
1.43505e-05
3.26081e-07
1.53095e-05
-3.38169e-07
1.33949e-05
1.23042e-06
-5.52399e-06
7.44075e-06
8.78728e-09
-2.22036e-07
7.36616e-06
9.06426e-08
-8.74424e-08
7.45699e-06
2.3837e-08
-2.57427e-07
7.45924e-06
3.94503e-08
1.60438e-07
7.60483e-06
1.85343e-08
-4.24678e-07
7.73718e-06
-1.26211e-07
6.73528e-07
7.85015e-06
3.41983e-08
-8.63614e-07
8.27556e-06
-7.2828e-07
1.90447e-06
4.78104e-07
-3.47197e-06
6.12788e-06
7.73245e-08
-5.9283e-08
5.89512e-06
1.96478e-07
1.36607e-07
5.72502e-06
1.5382e-07
-1.888e-08
5.75683e-06
3.31312e-08
3.04196e-07
5.37399e-06
3.76012e-07
-2.58893e-12
5.64132e-06
-2.85737e-07
6.91982e-07
4.58245e-06
1.07671e-06
-5.14254e-08
5.3787e-06
-1.3876e-06
1.01655e-06
4.14725e-06
-3.66972e-07
8.32828e-06
-1.84688e-08
-1.97187e-07
8.49128e-06
5.05928e-08
-1.56476e-07
8.83314e-06
-7.49611e-08
-2.71064e-07
9.12982e-06
-1.97287e-07
1.21922e-07
9.77378e-06
4.11452e-08
-5.18399e-07
1.01086e-05
-4.73173e-07
6.01815e-07
1.11678e-05
6.84235e-07
-1.26393e-06
1.06989e-05
-9.87153e-07
1.59701e-06
3.97657e-06
-3.99477e-06
1.11567e-05
-3.77694e-07
1.12584e-05
-2.4962e-07
1.14126e-05
-4.8094e-07
1.12834e-05
-1.09164e-07
1.17289e-05
-7.218e-07
1.13569e-05
2.24857e-07
1.27693e-05
-1.0663e-06
1.18179e-05
1.19467e-06
-4.46962e-06
6.30549e-06
-6.20078e-08
6.28771e-06
-7.36822e-08
6.19545e-06
-7.75405e-08
6.37345e-06
-6.00568e-08
6.13379e-06
-1.49253e-07
6.46653e-06
3.11674e-08
5.7724e-06
-2.8367e-07
6.70718e-06
3.64713e-07
-7.42394e-07
5.14255e-06
2.53882e-08
5.20617e-06
-7.50512e-08
5.10104e-06
8.71343e-09
5.17677e-06
-2.50161e-08
4.95589e-06
8.42477e-08
5.04291e-06
1.08536e-07
4.23798e-06
5.13256e-07
5.04722e-06
-2.00885e-07
2.15057e-06
5.84546e-06
1.44346e-08
5.7446e-06
-7.35194e-08
5.74442e-06
-4.97268e-08
6.13958e-06
-2.50359e-07
6.07647e-06
4.53552e-08
6.95797e-06
-2.90081e-07
6.55239e-06
6.00998e-07
7.67053e-06
-6.23716e-07
2.87633e-06
9.07886e-06
9.00834e-06
8.94361e-06
8.7437e-06
8.80224e-06
8.62669e-06
9.406e-06
9.02144e-06
)
;

boundaryField
{
    inlet
    {
        type            calculated;
        value           nonuniform 0();
    }
    outlet
    {
        type            calculated;
        value           nonuniform List<scalar> 
12
(
1.38189e-05
-3.32044e-10
1.50542e-05
2.15798e-05
8.24751e-06
1.79953e-06
1.21226e-05
1.47401e-05
3.79426e-06
1.67543e-06
5.11609e-06
9.9322e-06
)
;
    }
    wall
    {
        type            calculated;
        value           uniform 0;
    }
    procBoundary3to1
    {
        type            processor;
        value           nonuniform List<scalar> 
27
(
2.25396e-08
3.84761e-09
-2.15104e-08
1.76059e-08
2.65685e-07
1.29345e-07
1.04198e-06
-2.67598e-07
2.98187e-06
-4.00064e-08
-9.37985e-08
-3.11542e-08
-8.31104e-08
-2.19677e-08
3.11341e-08
-3.15823e-08
2.42728e-07
8.43582e-08
8.47549e-08
3.86249e-08
1.02803e-07
-3.55219e-09
2.11998e-07
-5.67873e-08
5.6597e-07
-7.15442e-07
2.0513e-06
)
;
    }
    procBoundary3to2
    {
        type            processor;
        value           nonuniform List<scalar> 
12
(
-1.19539e-05
-1.02387e-05
-1.18119e-05
-1.3719e-05
-7.3294e-06
-6.22899e-06
-8.20034e-06
-1.10379e-05
-6.38385e-06
-5.28919e-06
-5.88652e-06
-9.08527e-06
)
;
    }
    procBoundary3to7
    {
        type            processor;
        value           nonuniform List<scalar> 
36
(
-1.66426e-07
-3.46099e-08
-1.90425e-07
4.60424e-08
-2.4776e-07
3.66412e-07
-4.51792e-07
1.32042e-06
-1.86795e-06
-3.52726e-11
7.43522e-08
7.40866e-13
1.93427e-07
-1.26279e-08
5.27594e-07
-4.34171e-08
7.72906e-07
1.11853e-07
-1.45176e-07
-5.71417e-08
-2.12444e-07
-4.79011e-08
-4.16395e-07
1.18933e-07
-9.46087e-07
9.01696e-07
-2.16608e-06
-3.56846e-07
-2.52618e-07
-4.65936e-07
-1.59612e-07
-7.34986e-07
1.10327e-07
-1.24462e-06
9.55518e-07
-2.50406e-06
)
;
    }
}


// ************************************************************************* //
