/*--------------------------------*- C++ -*----------------------------------*\
| =========                 |                                                 |
| \\      /  F ield         | OpenFOAM: The Open Source CFD Toolbox           |
|  \\    /   O peration     | Version:  4.x                                   |
|   \\  /    A nd           | Web:      www.OpenFOAM.org                      |
|    \\/     M anipulation  |                                                 |
\*---------------------------------------------------------------------------*/
FoamFile
{
    version     2.0;
    format      ascii;
    class       volScalarField;
    location    "46";
    object      Qsource;
}
// * * * * * * * * * * * * * * * * * * * * * * * * * * * * * * * * * * * * * //

dimensions      [1 -1 -3 0 0 0 0];

internalField   nonuniform List<scalar> 
108
(
9.15081e+09
4.90226e+09
7.41048e+09
4.3365e+09
5.67927e+09
4.96302e+09
6.21775e+09
6.55093e+09
3.4081e+09
6.71473e+09
9.76287e+09
5.42595e+09
6.43735e+09
6.30957e+09
5.77537e+09
6.02213e+09
6.19896e+09
3.59151e+09
7.2925e+09
7.83558e+09
7.7607e+09
6.02012e+09
6.52328e+09
6.56185e+09
7.33328e+09
8.41551e+09
4.65571e+09
5.91987e+09
6.52904e+09
6.26926e+09
8.96601e+09
7.09313e+09
7.92862e+09
5.05432e+09
8.21542e+09
5.42643e+09
8.55862e+09
8.09693e+09
1.02807e+10
1.06662e+10
8.53612e+09
8.00925e+09
6.87359e+09
8.62343e+09
7.69757e+09
7.60608e+09
8.02584e+09
8.02645e+09
8.98915e+09
7.48402e+09
7.86359e+09
9.26464e+09
8.64624e+09
5.75664e+09
1.27419e+10
9.91131e+09
9.07828e+09
1.14245e+10
8.55669e+09
1.02426e+10
8.30438e+09
9.91345e+09
7.9101e+09
9.0254e+09
8.15603e+09
7.9071e+09
9.06731e+09
9.73566e+09
8.7266e+09
7.79488e+09
9.94554e+09
6.19367e+09
8.25523e+09
1.10333e+10
9.27608e+09
1.0387e+10
6.63307e+09
7.86171e+09
9.18105e+09
8.46609e+09
6.99603e+09
9.55272e+09
6.13979e+09
8.15752e+09
5.01847e+09
4.3805e+09
9.42934e+09
7.62266e+09
1.05781e+10
5.11772e+09
6.03499e+09
1.03135e+10
9.19227e+09
7.28091e+09
7.40904e+09
1.00003e+10
8.12193e+09
9.32618e+09
5.04365e+09
9.20345e+09
5.75966e+09
6.19688e+09
7.8728e+09
6.80553e+09
9.50643e+09
6.65917e+09
1.05959e+10
7.83785e+09
)
;

boundaryField
{
    inlet
    {
        type            calculated;
        value           nonuniform 0();
    }
    outlet
    {
        type            calculated;
        value           uniform 0;
    }
    wall
    {
        type            calculated;
        value           uniform 0;
    }
    procBoundary3to1
    {
        type            processor;
        value           nonuniform List<scalar> 
27
(
4.55943e+09
8.09166e+09
6.82605e+09
9.9815e+09
6.87302e+09
6.90459e+09
6.30745e+09
7.53114e+09
4.80058e+09
7.91536e+09
8.48585e+09
7.18594e+09
6.80913e+09
5.79788e+09
9.31463e+09
9.44873e+09
1.31856e+10
4.45668e+09
9.47748e+09
7.87869e+09
5.48627e+09
1.11455e+10
8.87598e+09
1.07092e+10
7.49479e+09
9.68617e+09
3.37932e+09
)
;
    }
    procBoundary3to2
    {
        type            processor;
        value           nonuniform List<scalar> 
12
(
5.60391e+09
5.40787e+09
7.50811e+09
6.12712e+09
1.1229e+10
6.40519e+09
7.69295e+09
5.78386e+09
9.29787e+09
5.73627e+09
1.02311e+10
8.6167e+09
)
;
    }
    procBoundary3to7
    {
        type            processor;
        value           nonuniform List<scalar> 
36
(
1.0097e+10
9.16569e+09
6.472e+09
7.98724e+09
1.11158e+10
1.25517e+10
8.00671e+09
6.53546e+09
6.13865e+09
7.48125e+09
1.14488e+10
7.44701e+09
8.1795e+09
8.38983e+09
6.96086e+09
7.88154e+09
7.67717e+09
6.83705e+09
5.33496e+09
9.46648e+09
6.98232e+09
9.02878e+09
8.42953e+09
1.05748e+10
8.68575e+09
9.18682e+09
6.93973e+09
7.575e+09
8.45553e+09
9.47643e+09
6.92853e+09
8.41389e+09
9.03708e+09
8.44862e+09
8.06342e+09
3.99713e+09
)
;
    }
}


// ************************************************************************* //
