/*--------------------------------*- C++ -*----------------------------------*\
| =========                 |                                                 |
| \\      /  F ield         | OpenFOAM: The Open Source CFD Toolbox           |
|  \\    /   O peration     | Version:  4.x                                   |
|   \\  /    A nd           | Web:      www.OpenFOAM.org                      |
|    \\/     M anipulation  |                                                 |
\*---------------------------------------------------------------------------*/
FoamFile
{
    version     2.0;
    format      ascii;
    class       volVectorField;
    location    "46";
    object      Urel;
}
// * * * * * * * * * * * * * * * * * * * * * * * * * * * * * * * * * * * * * //

dimensions      [0 1 -1 0 0 0 0];

internalField   nonuniform List<vector> 
108
(
(-0.0230332 7.06572e-05 0.0004348)
(-0.0244929 6.29955e-05 0.000369936)
(-0.0232264 7.63356e-05 0.000295576)
(-0.024699 0.000117716 0.000198457)
(-0.0230337 0.00021362 0.000223084)
(-0.0244487 0.000269458 0.000109326)
(-0.0219833 0.000500772 0.000508352)
(-0.0232125 0.000433546 0.000505479)
(-0.0189748 0.00123497 0.00182669)
(-0.0227705 3.8255e-05 0.000387567)
(-0.024241 3.81808e-05 0.0003014)
(-0.0227945 5.91218e-05 0.000213622)
(-0.024226 5.43435e-05 7.02999e-05)
(-0.0223265 4.71784e-05 7.22223e-05)
(-0.0235387 5.85232e-06 -7.69333e-05)
(-0.0208649 -7.30804e-05 0.000244097)
(-0.0215274 -0.000144817 0.000326606)
(-0.0180572 -0.000437859 0.00117831)
(-0.0239076 -5.25124e-05 0.000375655)
(-0.0253697 -3.27881e-05 0.000289005)
(-0.0241968 -4.76045e-06 0.000177312)
(-0.0256572 -1.55078e-05 6.5923e-05)
(-0.0240818 -0.000140495 8.49001e-06)
(-0.0255318 -0.000191246 -5.78744e-05)
(-0.0231168 -0.00063019 0.000212294)
(-0.0244447 -0.000612777 0.000515101)
(-0.0199044 -0.0021763 0.00161306)
(-0.0251889 6.67044e-05 0.00039537)
(-0.0265455 0.000127027 0.000313728)
(-0.0255936 0.000225962 0.000212625)
(-0.0269164 0.000234757 0.000122841)
(-0.0255874 0.000226698 7.64056e-05)
(-0.0269121 9.81071e-05 5.10091e-05)
(-0.0247673 -0.000101635 0.000315633)
(-0.0259672 -0.000476148 0.000861987)
(-0.0212316 -0.00116168 0.00275496)
(-0.0205273 3.60601e-05 0.000398927)
(-0.0223489 2.12089e-05 0.000316868)
(-0.0205108 3.15014e-05 0.000267619)
(-0.0224256 4.79634e-05 0.000141164)
(-0.0203256 8.32807e-05 0.00019563)
(-0.0221603 0.000130312 2.11595e-05)
(-0.0196424 0.000183483 0.000420283)
(-0.0210855 0.000260945 0.000305821)
(-0.0177931 0.000381748 0.00194485)
(-0.0204309 3.31231e-06 0.000375594)
(-0.022303 -2.00097e-06 0.000270836)
(-0.0203719 2.22295e-05 0.000220218)
(-0.0222983 2.13793e-05 8.81614e-05)
(-0.0201563 1.02896e-05 0.000118036)
(-0.0218673 -7.77784e-07 -1.42975e-05)
(-0.0193837 -0.000128141 0.000307882)
(-0.0204311 -0.000121955 0.000356951)
(-0.0175208 -0.000823055 0.00138068)
(-0.0217521 -5.07299e-05 0.00045182)
(-0.0235048 -2.95992e-05 0.000370245)
(-0.0219215 1.91871e-06 0.000335296)
(-0.0237677 3.29364e-05 0.000195971)
(-0.0219436 -9.67952e-05 0.000300352)
(-0.0238121 -7.48897e-05 0.000114847)
(-0.0214419 -0.000590369 0.000648155)
(-0.0230408 -0.000542076 0.000602278)
(-0.0189674 -0.002441 0.00248871)
(-0.023351 4.98817e-05 0.000517983)
(-0.0248164 0.000112259 0.00044245)
(-0.0235826 0.000208655 0.000428016)
(-0.0250893 0.000235554 0.000325067)
(-0.0235286 0.000224553 0.000423599)
(-0.025136 0.000121377 0.000297954)
(-0.0228843 -0.000141121 0.000765072)
(-0.0245266 -0.000538115 0.00096643)
(-0.0199696 -0.00145508 0.00330561)
(-0.0187686 5.78372e-05 0.000338409)
(-0.0206615 4.21094e-05 0.000246814)
(-0.0186907 5.59512e-05 0.000231463)
(-0.0206286 6.09694e-05 0.000124454)
(-0.0185322 9.72027e-05 0.000175458)
(-0.0203069 9.62398e-05 2.12413e-05)
(-0.0179925 0.000161161 0.000315094)
(-0.0192056 7.9839e-05 0.000178899)
(-0.016787 0.000376516 0.00139596)
(-0.0187252 1.22097e-05 0.000297017)
(-0.0206507 3.11024e-05 0.000212904)
(-0.0186779 3.36756e-05 0.000188243)
(-0.0205972 2.98407e-05 9.1737e-05)
(-0.0185375 1.03347e-05 0.00011376)
(-0.0202819 -5.64154e-05 -1.76165e-05)
(-0.0179793 -0.000153247 0.000225951)
(-0.0190956 -0.000293539 0.000213719)
(-0.0166736 -0.000702572 0.000958895)
(-0.0198112 -2.61434e-05 0.000363387)
(-0.0216972 2.69208e-05 0.000306941)
(-0.019786 4.32419e-05 0.00027912)
(-0.0217674 7.07644e-05 0.000206582)
(-0.0197744 -2.25049e-05 0.000262391)
(-0.0216685 -6.31806e-05 0.000172018)
(-0.0194524 -0.00044385 0.000523149)
(-0.0207428 -0.000513299 0.000487107)
(-0.0178402 -0.00191753 0.0017252)
(-0.0215174 1.89204e-05 0.00046039)
(-0.0230039 8.91927e-05 0.000400212)
(-0.0215136 0.000152442 0.000402453)
(-0.0230616 0.000212387 0.000323601)
(-0.021322 0.000138246 0.000422463)
(-0.0229385 9.67285e-05 0.000325885)
(-0.0207227 -0.000226916 0.000701064)
(-0.0222327 -0.000469916 0.000724248)
(-0.0183841 -0.00135956 0.00204107)
)
;

boundaryField
{
    inlet
    {
        type            calculated;
        value           nonuniform 0();
    }
    outlet
    {
        type            calculated;
        value           nonuniform List<vector> 
12
(
(-0.00891982 0.0115252 0.00543499)
(-2.19948e-06 -5.54592e-07 1.30388e-07)
(-0.00966302 -0.0148629 0.000320824)
(-0.0138127 0.000620102 0.0107016)
(-0.00540332 0.000671156 0.0101787)
(-0.00378321 -0.00338 0.00148575)
(-0.00770983 -0.0189808 0.0145124)
(-0.00925686 -0.00259635 0.018944)
(-0.0075727 0.00397793 0.00845182)
(-0.00344841 -3.05977e-05 0.000463982)
(-0.0101734 -0.0120141 0.00698023)
(-0.0063935 -0.00415305 0.00506273)
)
;
    }
    wall
    {
        type            calculated;
        value           nonuniform List<vector> 
63
(
(3.00683e-09 -4.03313e-09 1.55451e-09)
(2.15753e-09 -2.26864e-09 9.48347e-10)
(1.89286e-09 -2.06917e-09 4.26596e-10)
(8.80324e-10 -5.84077e-10 8.18158e-11)
(4.12342e-09 -6.05982e-09 1.87435e-09)
(2.56219e-09 -2.60967e-09 5.20562e-10)
(3.03184e-09 -2.00109e-09 1.05213e-10)
(1.65259e-09 -1.48934e-09 -3.65472e-10)
(3.63282e-09 -4.81132e-09 4.27133e-10)
(2.62051e-09 -2.5048e-09 -3.28957e-11)
(2.19309e-09 -1.62777e-09 -2.45978e-10)
(1.44905e-09 -2.73073e-09 -8.52987e-11)
(3.27559e-09 -2.74293e-09 -3.15444e-11)
(2.3421e-09 -1.65858e-09 -2.718e-10)
(1.85903e-09 -8.10715e-10 -2.09452e-10)
(9.25136e-10 -3.26742e-10 -4.06749e-11)
(2.78954e-09 -2.30765e-09 -1.01689e-09)
(1.71574e-09 -1.31307e-09 -8.29219e-10)
(1.36249e-09 -7.65968e-10 -5.51528e-10)
(1.39355e-09 -1.87859e-10 -2.60759e-10)
(3.44057e-09 -1.52447e-09 -1.65789e-09)
(9.48973e-10 -8.65495e-10 -1.5762e-09)
(1.73539e-12 -3.22178e-10 -1.22081e-09)
(7.19609e-10 1.73869e-10 -1.30895e-09)
(3.76366e-09 -1.78472e-09 -2.88409e-09)
(2.55268e-10 -3.49386e-10 -2.80728e-09)
(-7.09949e-10 3.39642e-10 -2.14859e-09)
(7.35765e-09 2.84706e-09 -1.22726e-09)
(4.91094e-09 1.72635e-09 -4.54028e-09)
(-1.30616e-09 2.07471e-09 -4.61943e-09)
(-4.0349e-09 -3.39707e-10 -5.74454e-09)
(7.56283e-09 2.80475e-09 -4.57304e-09)
(-2.62836e-08 -1.1216e-09 -2.86144e-09)
(-4.25657e-08 2.43539e-09 -3.90935e-09)
(-3.15684e-09 1.76482e-08 -9.27934e-09)
(-4.52419e-09 6.49922e-07 -2.79505e-08)
(8.80324e-10 -5.84077e-10 8.18158e-11)
(1.02017e-09 -5.18851e-10 2.11663e-10)
(7.41339e-10 -5.64402e-10 3.2411e-10)
(1.65259e-09 -1.48934e-09 -3.65472e-10)
(1.50815e-09 -1.02408e-09 -2.83047e-10)
(8.14788e-10 -6.74604e-10 8.64854e-11)
(1.44905e-09 -2.73073e-09 -8.52987e-11)
(8.9957e-10 -6.5421e-10 -2.99326e-10)
(6.78867e-10 -3.84707e-10 1.59039e-10)
(9.25136e-10 -3.26742e-10 -4.06749e-11)
(9.86444e-10 -5.48517e-10 -1.48025e-10)
(3.35729e-10 -7.37001e-11 8.2874e-11)
(1.39355e-09 -1.87859e-10 -2.60759e-10)
(1.05265e-09 -2.27674e-10 -3.88442e-10)
(-5.28581e-11 -5.12319e-10 -3.47373e-10)
(7.19609e-10 1.73869e-10 -1.30895e-09)
(1.66098e-09 -3.97924e-10 -5.7598e-10)
(-3.3332e-10 -1.23013e-10 -2.62703e-10)
(7.35765e-09 2.84706e-09 -1.22726e-09)
(1.45532e-09 4.80074e-10 -1.64778e-09)
(-1.06774e-09 -3.81147e-11 -1.08798e-09)
(7.56283e-09 2.80475e-09 -4.57304e-09)
(1.02857e-09 6.22502e-10 -4.64832e-09)
(-1.59752e-09 -7.33581e-10 -3.14273e-09)
(-4.52419e-09 6.49922e-07 -2.79505e-08)
(-7.01002e-10 2.14275e-10 -1.67212e-08)
(-9.14118e-10 -2.01585e-09 -5.7964e-09)
)
;
    }
    procBoundary3to1
    {
        type            processor;
        value           nonuniform List<vector> 
27
(
(-0.023281 6.62781e-05 0.000516502)
(-0.0247314 2.89507e-05 0.000457869)
(-0.0234812 8.70347e-06 0.000422631)
(-0.0249782 1.26432e-05 0.00033719)
(-0.0234038 9.29098e-05 0.000451615)
(-0.0249224 0.000140275 0.0003305)
(-0.0227079 0.000399849 0.00086628)
(-0.0240988 0.000457555 0.0007663)
(-0.0198686 0.00124663 0.00257627)
(-0.0207095 5.83255e-05 0.000413346)
(-0.0225589 2.0295e-05 0.000328988)
(-0.0206616 1.79836e-05 0.000294666)
(-0.0226114 -2.47071e-06 0.000201866)
(-0.0205286 6.22462e-05 0.000252866)
(-0.0223371 8.81299e-05 0.000152502)
(-0.0200141 0.0002408 0.000520154)
(-0.0212496 0.000340999 0.000544584)
(-0.0184508 0.00077199 0.00222156)
(-0.0191219 7.73299e-05 0.000355143)
(-0.020989 3.6391e-05 0.000265881)
(-0.0190506 3.49315e-05 0.000261227)
(-0.0209748 -2.35955e-06 0.000173924)
(-0.0189075 7.43417e-05 0.000225426)
(-0.0206895 4.99661e-05 0.000111219)
(-0.018437 0.000268201 0.000404859)
(-0.0196629 0.000200529 0.000303137)
(-0.017245 0.00101111 0.00138393)
)
;
    }
    procBoundary3to2
    {
        type            processor;
        value           nonuniform List<vector> 
12
(
(-0.0241078 7.44005e-05 0.000550554)
(-0.0239558 1.00696e-05 0.000514023)
(-0.0248674 -0.000104609 0.000495714)
(-0.0259136 -3.11161e-05 0.000503178)
(-0.0221838 4.48203e-05 0.000490902)
(-0.0221777 -2.05837e-05 0.000467651)
(-0.0231802 -0.000120965 0.000542848)
(-0.024388 -5.10412e-05 0.000588693)
(-0.0206545 6.33176e-05 0.000400939)
(-0.0206678 9.77598e-06 0.000364372)
(-0.0216056 -7.44826e-05 0.000421566)
(-0.0228393 -6.7905e-05 0.000497859)
)
;
    }
    procBoundary3to7
    {
        type            processor;
        value           nonuniform List<vector> 
36
(
(-0.0176874 2.94465e-05 0.000212514)
(-0.0196288 8.70404e-06 0.000163677)
(-0.017605 2.15754e-05 0.00013274)
(-0.0195391 1.2331e-05 6.37218e-05)
(-0.0174053 4.3473e-05 3.1665e-05)
(-0.0191989 2.51924e-05 -8.10747e-05)
(-0.0168672 6.29451e-05 -2.7486e-05)
(-0.0180849 0.000111837 -0.000195639)
(-0.0158809 -4.64304e-05 0.000279803)
(-0.0179139 -5.82783e-08 0.000225683)
(-0.0198605 1.65119e-05 0.000187459)
(-0.0178437 3.05102e-05 0.000160089)
(-0.0197567 3.75711e-05 0.000101381)
(-0.0177121 9.7248e-06 9.95352e-05)
(-0.0194473 8.69124e-06 2.12194e-06)
(-0.0173414 -0.000206757 0.000102063)
(-0.0184329 -0.000139622 -6.32398e-06)
(-0.0162996 -0.00109587 0.000283767)
(-0.0192741 -5.04481e-05 0.000330004)
(-0.021005 8.99007e-06 0.000286551)
(-0.0192186 8.91522e-06 0.000313928)
(-0.0209997 7.26208e-05 0.000270674)
(-0.0190701 -4.32036e-05 0.000343346)
(-0.0208059 5.5356e-05 0.000259612)
(-0.018526 -0.00033618 0.000480844)
(-0.0198924 -0.00017238 0.000286843)
(-0.0167663 -0.0013553 0.00100719)
(-0.0207356 4.05344e-05 0.000436904)
(-0.0221675 0.000103607 0.000409199)
(-0.0206277 0.000158851 0.000445)
(-0.0220979 0.000194914 0.000394926)
(-0.0202997 0.000160149 0.000502714)
(-0.0217851 0.000111076 0.000384517)
(-0.0194732 -8.35508e-05 0.000701045)
(-0.0207433 -0.0002893 0.000456949)
(-0.0171904 -0.000735787 0.00149979)
)
;
    }
}


// ************************************************************************* //
