/*--------------------------------*- C++ -*----------------------------------*\
| =========                 |                                                 |
| \\      /  F ield         | OpenFOAM: The Open Source CFD Toolbox           |
|  \\    /   O peration     | Version:  4.x                                   |
|   \\  /    A nd           | Web:      www.OpenFOAM.org                      |
|    \\/     M anipulation  |                                                 |
\*---------------------------------------------------------------------------*/
FoamFile
{
    version     2.0;
    format      ascii;
    class       volVectorField;
    location    "46";
    object      UsPrev;
}
// * * * * * * * * * * * * * * * * * * * * * * * * * * * * * * * * * * * * * //

dimensions      [0 1 -1 0 0 0 0];

internalField   nonuniform List<vector> 
108
(
(2.86707e-09 -3.9412e-09 1.52922e-09)
(3.95167e-09 -5.93144e-09 1.93075e-09)
(4.27066e-09 -7.12719e-09 5.13417e-10)
(3.20233e-09 -2.91719e-09 1.74998e-10)
(2.35755e-09 -1.93318e-09 -6.64725e-10)
(2.78719e-09 -1.35621e-09 -1.29564e-09)
(3.188e-09 -1.63136e-09 -2.20254e-09)
(1.42854e-09 3.29801e-10 -3.0764e-09)
(-1.7515e-08 -1.13214e-09 -1.77129e-09)
(2.04909e-09 -2.07765e-09 8.21962e-10)
(2.19306e-09 -2.2836e-09 5.06435e-10)
(2.48164e-09 -2.17535e-09 8.39983e-11)
(2.50863e-09 -1.34081e-09 -1.06533e-10)
(1.51827e-09 -1.01033e-09 -4.89023e-10)
(5.60427e-10 -6.17281e-10 -1.1904e-09)
(-3.60569e-11 -2.85845e-10 -1.98388e-09)
(-1.83405e-09 1.12436e-09 -3.30523e-09)
(-2.90159e-08 1.77059e-09 -2.52109e-09)
(1.8542e-09 -1.4085e-09 3.42956e-10)
(2.88834e-09 -1.64394e-09 1.30685e-10)
(2.07741e-09 -7.50281e-10 -1.50078e-10)
(1.94452e-09 -5.2165e-10 -8.92283e-11)
(1.31073e-09 -5.6723e-10 -2.46926e-10)
(-1.49948e-10 -7.04366e-11 -8.63232e-10)
(-9.18635e-10 3.3793e-10 -1.54664e-09)
(-4.32932e-09 -5.98532e-10 -4.53993e-09)
(-3.01367e-09 1.59865e-08 -7.72634e-09)
(8.59934e-10 -5.0845e-10 9.2258e-12)
(1.77666e-09 -1.26024e-09 -3.37719e-10)
(1.57996e-09 -2.65952e-09 -1.39225e-11)
(1.05553e-09 -2.17869e-10 7.59011e-11)
(1.50302e-09 -1.2723e-10 -3.44416e-11)
(6.37367e-10 2.14828e-10 -1.00141e-09)
(6.71127e-09 2.39671e-09 -1.01904e-09)
(6.72007e-09 2.46311e-09 -4.07729e-09)
(-3.87422e-09 6.06113e-07 -2.56027e-08)
(3.10601e-09 -2.65931e-09 1.21333e-09)
(3.62647e-09 -1.83736e-09 1.37027e-09)
(3.25813e-09 -2.22412e-09 9.67447e-10)
(3.4172e-09 -1.72322e-09 2.24252e-10)
(3.2405e-09 -1.49423e-09 -7.20661e-10)
(2.72359e-09 -1.50469e-09 -1.49059e-09)
(3.21867e-09 -8.91928e-10 -2.89865e-09)
(4.05426e-09 -4.13249e-10 -2.80807e-09)
(-8.18053e-10 -1.04516e-09 -1.84496e-09)
(2.18456e-09 -1.39519e-09 5.28282e-10)
(2.69611e-09 -1.72189e-09 3.34192e-10)
(2.72221e-09 -1.8188e-09 -2.261e-10)
(2.92112e-09 -1.36654e-09 -2.48617e-10)
(2.26853e-09 -8.80938e-10 -4.7915e-10)
(1.48065e-09 -7.67326e-10 -1.14535e-09)
(3.47324e-09 1.50575e-09 -2.31081e-09)
(1.50337e-09 -1.39049e-11 -3.14702e-09)
(1.43383e-09 2.90592e-10 -2.89911e-09)
(1.61821e-09 -1.05119e-09 3.34683e-10)
(1.98346e-09 -1.12647e-09 7.2665e-12)
(1.95913e-09 -8.95646e-10 -4.63232e-10)
(1.81442e-09 -6.77113e-10 -5.66853e-11)
(1.42672e-09 -4.64636e-10 -1.80241e-10)
(5.0109e-10 -3.42194e-10 -3.89384e-10)
(-6.16058e-10 -2.69197e-10 -1.66349e-09)
(-9.74175e-10 2.69225e-10 -4.22303e-09)
(-7.10463e-10 1.25962e-10 -4.81926e-09)
(9.58022e-10 -5.39592e-10 1.79361e-10)
(1.71741e-09 -8.33554e-10 -2.38902e-10)
(9.72259e-10 -4.96681e-10 -3.41494e-10)
(1.05813e-09 -3.76273e-10 2.47673e-11)
(1.14818e-09 -1.12786e-10 -1.36036e-10)
(1.68439e-09 -2.76732e-10 -2.62214e-10)
(1.47967e-09 4.64274e-10 -1.35136e-09)
(1.08937e-09 5.91961e-10 -4.26185e-09)
(-4.59819e-10 2.38401e-10 -1.53012e-08)
(3.2149e-09 -8.50288e-10 1.19963e-09)
(3.70331e-09 -6.77251e-10 1.55606e-09)
(3.63088e-09 2.5597e-10 1.97562e-09)
(3.86983e-09 -9.48597e-10 4.58787e-10)
(3.67476e-09 -1.13105e-09 -4.37433e-10)
(3.37242e-09 -7.67203e-10 -1.39961e-09)
(3.13643e-09 -6.72512e-10 -2.34319e-09)
(2.87606e-09 -5.17615e-10 -2.31277e-09)
(2.08692e-09 -4.39664e-10 -1.41929e-09)
(2.42995e-09 -9.56331e-10 4.75013e-10)
(3.05889e-09 -1.19926e-09 2.16909e-10)
(3.91241e-09 -9.09951e-10 2.53817e-10)
(3.48782e-09 -6.82522e-10 3.59539e-11)
(2.91666e-09 -6.98295e-10 -5.69632e-10)
(2.49255e-09 -3.13244e-10 -8.83109e-10)
(2.07592e-09 -2.60318e-10 -1.87835e-09)
(1.83101e-09 2.47268e-13 -2.39529e-09)
(8.70112e-10 -1.11928e-10 -1.50227e-09)
(1.67343e-09 -8.38882e-10 1.67666e-10)
(1.89454e-09 -1.02352e-09 7.72599e-11)
(2.12017e-09 -4.23743e-10 5.86259e-13)
(1.96732e-09 -4.77337e-10 2.38148e-10)
(1.36113e-09 -3.75121e-10 -6.9229e-11)
(8.99099e-10 -7.45262e-12 -2.55028e-10)
(-5.43702e-12 -1.9221e-10 -1.17091e-09)
(3.99298e-10 -8.53946e-11 -3.21586e-09)
(2.61361e-10 -6.08928e-10 -3.46823e-09)
(6.7251e-10 -5.43516e-10 2.61862e-10)
(8.56137e-10 -5.55276e-10 1.94428e-11)
(8.5295e-10 -2.32372e-10 -7.46312e-11)
(5.88586e-10 6.95974e-11 1.28806e-10)
(2.27295e-10 -2.68338e-10 -8.78666e-11)
(-9.91561e-11 3.41904e-11 -1.49432e-11)
(-9.14497e-10 -1.40769e-11 -9.38991e-10)
(-9.88633e-10 -5.9847e-10 -3.01942e-09)
(-4.72753e-10 -1.77257e-09 -5.42829e-09)
)
;

boundaryField
{
    inlet
    {
        type            calculated;
        value           nonuniform 0();
    }
    outlet
    {
        type            calculated;
        value           uniform (0 0 0);
    }
    wall
    {
        type            calculated;
        value           uniform (0 0 0);
    }
    procBoundary3to1
    {
        type            processor;
        value           uniform (0 0 0);
    }
    procBoundary3to2
    {
        type            processor;
        value           uniform (0 0 0);
    }
    procBoundary3to7
    {
        type            processor;
        value           uniform (0 0 0);
    }
}


// ************************************************************************* //
