/*--------------------------------*- C++ -*----------------------------------*\
| =========                 |                                                 |
| \\      /  F ield         | OpenFOAM: The Open Source CFD Toolbox           |
|  \\    /   O peration     | Version:  4.x                                   |
|   \\  /    A nd           | Web:      www.OpenFOAM.org                      |
|    \\/     M anipulation  |                                                 |
\*---------------------------------------------------------------------------*/
FoamFile
{
    version     2.0;
    format      ascii;
    class       volScalarField;
    location    "25";
    object      Deff;
}
// * * * * * * * * * * * * * * * * * * * * * * * * * * * * * * * * * * * * * //

dimensions      [0 2 -1 0 0 0 0];

internalField   nonuniform List<scalar> 
108
(
9.87692e-08
9.85427e-08
9.83811e-08
9.83686e-08
9.83134e-08
9.82853e-08
9.81759e-08
9.81228e-08
9.79471e-08
9.85548e-08
9.8452e-08
9.82893e-08
9.81481e-08
9.81204e-08
9.81241e-08
9.81144e-08
9.80817e-08
9.78987e-08
9.85182e-08
9.8318e-08
9.82211e-08
9.80668e-08
9.80661e-08
9.80677e-08
9.80202e-08
9.78977e-08
9.79759e-08
9.85455e-08
9.83742e-08
9.8185e-08
9.81219e-08
9.79973e-08
9.79758e-08
9.78459e-08
9.79742e-08
9.79714e-08
9.8748e-08
9.85942e-08
9.83782e-08
9.82277e-08
9.82048e-08
9.82305e-08
9.81999e-08
9.80068e-08
9.78719e-08
9.86242e-08
9.84422e-08
9.83301e-08
9.81976e-08
9.81538e-08
9.81147e-08
9.80483e-08
9.79253e-08
9.78443e-08
9.85821e-08
9.83481e-08
9.81551e-08
9.80402e-08
9.798e-08
9.79621e-08
9.79435e-08
9.79029e-08
9.78933e-08
9.83973e-08
9.82656e-08
9.81689e-08
9.79498e-08
9.78798e-08
9.78834e-08
9.77783e-08
9.78572e-08
9.78885e-08
9.87497e-08
9.85315e-08
9.85158e-08
9.82909e-08
9.82196e-08
9.80314e-08
9.80273e-08
9.80196e-08
9.79692e-08
9.86178e-08
9.83267e-08
9.83508e-08
9.82631e-08
9.81612e-08
9.80277e-08
9.80264e-08
9.80035e-08
9.79003e-08
9.85193e-08
9.82789e-08
9.81597e-08
9.80594e-08
9.80618e-08
9.79661e-08
9.79738e-08
9.79161e-08
9.79327e-08
9.83532e-08
9.82671e-08
9.81942e-08
9.79798e-08
9.79203e-08
9.78042e-08
9.79831e-08
9.80002e-08
9.79534e-08
)
;

boundaryField
{
    inlet
    {
        type            calculated;
        value           uniform 0;
    }
    outlet
    {
        type            calculated;
        value           nonuniform 0();
    }
    wall
    {
        type            calculated;
        value           uniform 0;
    }
    procBoundary4to0
    {
        type            processor;
        value           uniform 0;
    }
    procBoundary4to5
    {
        type            processor;
        value           uniform 0;
    }
    procBoundary4to6
    {
        type            processor;
        value           uniform 0;
    }
}


// ************************************************************************* //
