/*--------------------------------*- C++ -*----------------------------------*\
| =========                 |                                                 |
| \\      /  F ield         | OpenFOAM: The Open Source CFD Toolbox           |
|  \\    /   O peration     | Version:  4.x                                   |
|   \\  /    A nd           | Web:      www.OpenFOAM.org                      |
|    \\/     M anipulation  |                                                 |
\*---------------------------------------------------------------------------*/
FoamFile
{
    version     2.0;
    format      ascii;
    class       volScalarField;
    location    "25";
    object      QWallFluidCoeff;
}
// * * * * * * * * * * * * * * * * * * * * * * * * * * * * * * * * * * * * * //

dimensions      [1 -1 -3 -1 0 0 0];

internalField   nonuniform List<scalar> 
108
(
-2.84868e+06
-1.25623e+06
-2.86785e+06
-1.28631e+06
-2.89841e+06
-1.28587e+06
-2.93168e+06
-1.39258e+06
-2.98353e+06
0
0
0
0
0
0
0
0
0
0
0
0
0
0
0
0
0
0
0
0
0
0
0
0
0
0
0
-2.82169e+06
-1.34231e+06
-2.88213e+06
-1.44568e+06
-2.93868e+06
-1.58069e+06
-3.02089e+06
-1.72416e+06
-3.09034e+06
0
0
0
0
0
0
0
0
0
0
0
0
0
0
0
0
0
0
0
0
0
0
0
0
0
0
0
-5.68979e+06
-2.83573e+06
-5.94077e+06
-3.2657e+06
-6.10921e+06
-3.56508e+06
-6.23657e+06
-4.02816e+06
-6.44229e+06
-2.82449e+06
-1.30791e+06
-2.87302e+06
-1.41726e+06
-2.93032e+06
-1.49622e+06
-2.98494e+06
-1.62097e+06
-3.04913e+06
-2.80382e+06
-1.23431e+06
-2.81526e+06
-1.24912e+06
-2.86196e+06
-1.29917e+06
-2.93182e+06
-1.5382e+06
-2.99836e+06
-2.77013e+06
-1.20214e+06
-2.77639e+06
-1.15327e+06
-2.78521e+06
-1.11539e+06
-2.84538e+06
-1.14737e+06
-2.90682e+06
)
;

boundaryField
{
    inlet
    {
        type            calculated;
        value           uniform 0;
    }
    outlet
    {
        type            calculated;
        value           nonuniform 0();
    }
    wall
    {
        type            calculated;
        value           uniform 0;
    }
    procBoundary4to0
    {
        type            processor;
        value           uniform 0;
    }
    procBoundary4to5
    {
        type            processor;
        value           uniform 0;
    }
    procBoundary4to6
    {
        type            processor;
        value           uniform 0;
    }
}


// ************************************************************************* //
