/*--------------------------------*- C++ -*----------------------------------*\
| =========                 |                                                 |
| \\      /  F ield         | OpenFOAM: The Open Source CFD Toolbox           |
|  \\    /   O peration     | Version:  4.x                                   |
|   \\  /    A nd           | Web:      www.OpenFOAM.org                      |
|    \\/     M anipulation  |                                                 |
\*---------------------------------------------------------------------------*/
FoamFile
{
    version     2.0;
    format      ascii;
    class       volScalarField;
    location    "25";
    object      SPartFluid;
}
// * * * * * * * * * * * * * * * * * * * * * * * * * * * * * * * * * * * * * //

dimensions      [1 -3 -1 0 0 0 0];

internalField   nonuniform List<scalar> 
108
(
5.19228e-65
7.36238e-65
7.51737e-65
5.57993e-65
5.96747e-65
5.65747e-65
7.59512e-65
6.7427e-65
8.91306e-65
7.74963e-65
6.35488e-65
7.36247e-65
8.60257e-65
8.21518e-65
7.51769e-65
6.35517e-65
5.42524e-65
9.06845e-65
6.97467e-65
8.75733e-65
6.66492e-65
8.44768e-65
6.66514e-65
5.96759e-65
6.12273e-65
9.68825e-65
5.65782e-65
4.33982e-65
5.73484e-65
7.5946e-65
5.19268e-65
7.36274e-65
6.35496e-65
9.22333e-65
5.96765e-65
5.96777e-65
5.3473e-65
5.11493e-65
7.05241e-65
7.67246e-65
6.97497e-65
5.26998e-65
4.4948e-65
6.97537e-65
8.21542e-65
5.65733e-65
6.50993e-65
5.81248e-65
6.43254e-65
5.96755e-65
5.96757e-65
6.66506e-65
7.90534e-65
8.13799e-65
4.41734e-65
6.27745e-65
7.82748e-65
7.20754e-65
7.67268e-65
7.28519e-65
6.66519e-65
6.66523e-65
6.82032e-65
6.66474e-65
7.20738e-65
5.96744e-65
8.52515e-65
8.44771e-65
6.74266e-65
9.61047e-65
7.90529e-65
6.82025e-65
4.95978e-65
6.66487e-65
4.41739e-65
6.7424e-65
5.73491e-65
8.05994e-65
7.20632e-65
6.27775e-65
7.20783e-65
5.3473e-65
8.75738e-65
5.81244e-65
5.50244e-65
6.20002e-65
7.20749e-65
6.35472e-65
5.65764e-65
7.59511e-65
5.42479e-65
7.3624e-65
7.43993e-65
7.36237e-65
5.65761e-65
6.58758e-65
6.43253e-65
7.51764e-65
6.27761e-65
7.43971e-65
7.05238e-65
5.81244e-65
7.6725e-65
6.97506e-65
9.22267e-65
4.495e-65
4.88252e-65
6.35511e-65
)
;

boundaryField
{
    inlet
    {
        type            calculated;
        value           uniform 0;
    }
    outlet
    {
        type            calculated;
        value           nonuniform 0();
    }
    wall
    {
        type            calculated;
        value           uniform 0;
    }
    procBoundary4to0
    {
        type            processor;
        value           nonuniform List<scalar> 
36
(
4.57224e-65
4.88238e-65
5.73484e-65
5.34739e-65
6.12242e-65
7.44e-65
4.80491e-65
4.10756e-65
4.96006e-65
5.5022e-65
8.13727e-65
7.2848e-65
6.7425e-65
5.81253e-65
5.96763e-65
8.37032e-65
6.58761e-65
5.50219e-65
4.57227e-65
4.95977e-65
7.28442e-65
5.73502e-65
7.28518e-65
8.06069e-65
6.7428e-65
5.11518e-65
8.06094e-65
5.26967e-65
5.88957e-65
7.98024e-65
9.06986e-65
4.49549e-65
9.14583e-65
7.13037e-65
5.42511e-65
2.32512e-65
)
;
    }
    procBoundary4to5
    {
        type            processor;
        value           nonuniform List<scalar> 
12
(
6.35531e-65
7.05304e-65
8.21574e-65
9.99835e-65
6.66534e-65
5.42517e-65
6.89789e-65
4.80517e-65
2.63507e-65
6.35459e-65
6.12257e-65
7.36265e-65
)
;
    }
    procBoundary4to6
    {
        type            processor;
        value           nonuniform List<scalar> 
27
(
1.03845e-64
7.59485e-65
4.95995e-65
7.4402e-65
9.37787e-65
6.12262e-65
7.3627e-65
6.51025e-65
8.52538e-65
7.6722e-65
7.67244e-65
7.75e-65
7.67261e-65
5.34754e-65
7.05261e-65
6.27762e-65
5.89009e-65
7.90532e-65
5.03731e-65
5.26993e-65
6.12245e-65
6.89749e-65
6.50998e-65
6.43252e-65
8.68014e-65
8.75771e-65
3.79752e-65
)
;
    }
}


// ************************************************************************* //
