/*--------------------------------*- C++ -*----------------------------------*\
| =========                 |                                                 |
| \\      /  F ield         | OpenFOAM: The Open Source CFD Toolbox           |
|  \\    /   O peration     | Version:  4.x                                   |
|   \\  /    A nd           | Web:      www.OpenFOAM.org                      |
|    \\/     M anipulation  |                                                 |
\*---------------------------------------------------------------------------*/
FoamFile
{
    version     2.0;
    format      ascii;
    class       volScalarField;
    location    "41";
    object      Cs;
}
// * * * * * * * * * * * * * * * * * * * * * * * * * * * * * * * * * * * * * //

dimensions      [1 -3 0 0 0 0 0];

internalField   nonuniform List<scalar> 
114
(
335
335
335
335
334.999
334.993
335
335
334.999
334.998
334.997
334.995
334.97
335
334.999
334.999
334.997
334.995
334.991
334.986
334.913
335
335
335
335
335
335
335
334.999
334.91
335
335
335
335
334.999
334.998
334.997
334.996
334.972
335
335
334.999
334.999
334.998
334.996
334.994
334.992
334.968
335
335
335
335
335
335
335
335
335
335
334.892
335
335
335
335
335
335
334.999
334.999
334.946
335
335
335
335
334.999
334.998
334.997
334.997
334.972
335
335
335
334.999
335
335
335
335
335
335
335
335
335.531
335
335
335
335
335
335
335
335
334.86
335
335
335
335
335
335
334.999
334.999
334.811
335
335
335
335
335
335
)
;

boundaryField
{
    inlet
    {
        type            calculated;
        value           nonuniform 0();
    }
    outlet
    {
        type            calculated;
        value           uniform 335;
    }
    wall
    {
        type            calculated;
        value           nonuniform List<scalar> 
66
(
335
335
335
335
335
335
335
335
335
335
335
335
335
335
335
335
335
335
335
335
335
335
335
335
335
335
334.999
335
335
334.999
335.531
334.86
334.811
335
335
335
335
335
335
335
335
335
335
335
335
335
335
335
335
335
335
335
335
335
335
335
335
335
334.999
334.999
335
335
334.993
334.91
334.892
335.531
)
;
    }
    procBoundary5to1
    {
        type            processor;
        value           nonuniform List<scalar> 
32
(
335
335
335
335
334.999
334.884
335
335
334.999
334.999
334.997
334.996
334.891
335
334.999
334.998
334.996
334.994
334.99
334.988
334.932
335
335
335
335
335
335
335
335
335
335
335
)
;
    }
    procBoundary5to4
    {
        type            processor;
        value           nonuniform List<scalar> 
12
(
335
335
335
335
335
335
335
335
335
335
335
335
)
;
    }
    procBoundary5to7
    {
        type            processor;
        value           nonuniform List<scalar> 
44
(
335
334.999
334.998
334.997
334.994
334.99
334.984
334.953
335
335
334.999
334.998
334.997
334.995
334.992
334.988
334.96
335
334.999
334.999
334.999
334.998
334.999
334.998
334.996
334.995
334.969
335
335
335
334.999
334.999
334.999
334.998
334.999
334.999
334.794
335
335
335
335
335
334.999
335
)
;
    }
}


// ************************************************************************* //
