/*--------------------------------*- C++ -*----------------------------------*\
| =========                 |                                                 |
| \\      /  F ield         | OpenFOAM: The Open Source CFD Toolbox           |
|  \\    /   O peration     | Version:  4.x                                   |
|   \\  /    A nd           | Web:      www.OpenFOAM.org                      |
|    \\/     M anipulation  |                                                 |
\*---------------------------------------------------------------------------*/
FoamFile
{
    version     2.0;
    format      ascii;
    class       volScalarField;
    location    "41";
    object      p;
}
// * * * * * * * * * * * * * * * * * * * * * * * * * * * * * * * * * * * * * //

dimensions      [1 -1 -2 0 0 0 0];

internalField   nonuniform List<scalar> 
114
(
69.3159
-16.4134
62.7111
-33.3062
55.9814
-46.7292
1.23701
68.6905
-17.2122
62.3949
-35.0119
56.3599
-50.341
75.1602
4.68612
68.5572
-12.7189
61.8237
-29.5199
53.8852
-44.6164
-1858.64
-1803.03
-1877.86
-1809.14
-1898.06
-1814.21
-1919.63
-1817.23
-1943.23
-1858.4
-1802.9
-1877.38
-1809.37
-1896.67
-1815.2
-1915.88
-1819.65
-1933.6
-1857.08
-1803.11
-1875.42
-1809.56
-1894.22
-1815.38
-1913.2
-1820.05
-1931.12
-1856.23
-1803.08
-3735.74
-3680.65
-3754.71
-3687.07
-3774.08
-3693.05
-3793.79
-3698.11
-3812.71
-3735.89
-3680.67
-3755.09
-3687.23
-3774.65
-3693.36
-3794.55
-3698.44
-3814.05
-3735.23
-3680.7
-3753.82
-3687.47
-3772.32
-3694.44
-3790.26
-3701.13
-3806.1
-3735.2
-3680.87
-3754.08
-3687.7
-5613.98
-5558.97
-5633.31
-5565.07
-5654.01
-5569.99
-5677.45
-5571.42
-5709.53
-5613.93
-5558.91
-5633.25
-5565.1
-5653.47
-5570.38
-5675.29
-5573.24
-5699.43
-5613.39
-5558.87
-5632.48
-5565.35
-5652.47
-5571.06
-5673.98
-5574.63
-5698.67
-5613.3
-5558.84
-5632.31
-5565.23
-5652.04
-5570.96
)
;

boundaryField
{
    inlet
    {
        type            calculated;
        value           nonuniform 0();
    }
    outlet
    {
        type            calculated;
        value           nonuniform List<scalar> 
12
(
0
0
0
-1877.91
-1877.91
-1877.91
-3755.83
-3755.83
-3755.83
-5633.74
-5633.74
-5633.74
)
;
    }
    wall
    {
        type            calculated;
        value           nonuniform List<scalar> 
66
(
-6552.94
-6552.88
-6552.34
-6552.25
-6497.93
-6497.87
-6497.82
-6497.8
-6572.27
-6572.21
-6571.44
-6571.27
-6504.03
-6504.06
-6504.31
-6504.18
-6592.97
-6592.43
-6591.42
-6591
-6508.94
-6509.34
-6510.02
-6509.92
-6616.41
-6614.25
-6612.93
-6510.37
-6512.2
-6513.59
-6649.97
-6638
-6637.1
-1858.64
-3735.74
-5613.98
-1803.03
-3680.65
-5558.97
-1877.86
-3754.71
-5633.31
69.3159
-1809.14
-3687.07
-5565.07
-16.4134
-1898.06
-3774.08
-5654.01
62.7111
-1814.21
-3693.05
-5569.99
-33.3498
-1919.63
-3793.79
-5677.45
55.9814
-1817.23
-3698.11
-5571.42
-46.7292
-1943.23
-3812.71
-5709.53
)
;
    }
    procBoundary5to1
    {
        type            processor;
        value           nonuniform List<scalar> 
32
(
1946.93
1856.16
1942.34
1833.87
1940.38
1810.58
1876.42
1946.65
1855.73
1941.7
1834.22
1939.28
1812.22
1952.77
1878.59
1946.49
1859.29
1940.98
1840.23
1936.64
1822.87
20.2424
75.6163
1.8487
1.8487
1.8487
20.0648
75.3309
75.3309
75.3309
22.262
22.262
)
;
    }
    procBoundary5to4
    {
        type            processor;
        value           nonuniform List<scalar> 
12
(
-1796.41
-1796.1
-1796.11
-1796.2
-3673.93
-3673.82
-3673.66
-3673.84
-5552.4
-5552.2
-5552.08
-5552.07
)
;
    }
    procBoundary5to7
    {
        type            processor;
        value           nonuniform List<scalar> 
44
(
74.9116
2.14591
68.376
-16.4025
62.589
-34.8526
57.4878
-50.7627
20.767
74.9116
-1874.16
-1809.53
-1892.44
-1815.26
-1910.51
-1821.22
-1927.11
-1855.61
-1874.16
-1802.98
-1874.16
-1809.53
-3773.15
-3693.83
-3792.11
-3698.96
-3809.7
-3734.73
-3680.91
-3753.21
-3773.15
-3687.51
-3773.15
-3693.83
-5672.82
-5574.91
-5695.68
-5612.8
-5558.74
-5631.52
-5565.28
-5650.74
-5672.82
-5571.32
)
;
    }
}


// ************************************************************************* //
