/*--------------------------------*- C++ -*----------------------------------*\
| =========                 |                                                 |
| \\      /  F ield         | OpenFOAM: The Open Source CFD Toolbox           |
|  \\    /   O peration     | Version:  4.x                                   |
|   \\  /    A nd           | Web:      www.OpenFOAM.org                      |
|    \\/     M anipulation  |                                                 |
\*---------------------------------------------------------------------------*/
FoamFile
{
    version     2.0;
    format      ascii;
    class       volScalarField;
    location    "41";
    object      QPartFluidCoeff;
}
// * * * * * * * * * * * * * * * * * * * * * * * * * * * * * * * * * * * * * //

dimensions      [1 -1 -3 -1 0 0 0];

internalField   nonuniform List<scalar> 
114
(
-2.6204e+07
-2.41985e+07
-2.34146e+07
-1.90072e+07
-2.61726e+07
-1.93912e+07
-2.41958e+07
-2.34803e+07
-1.96025e+07
-2.74479e+07
-2.81638e+07
-3.36387e+07
-2.16876e+07
-3.31745e+07
-2.04743e+07
-2.90479e+07
-1.96052e+07
-1.77096e+07
-2.48259e+07
-2.08131e+07
-2.21971e+07
-2.21525e+07
-1.89984e+07
-2.52179e+07
-2.12676e+07
-2.19233e+07
-2.79026e+07
-2.40825e+07
-2.26412e+07
-1.62951e+07
-2.70407e+07
-2.74781e+07
-3.07812e+07
-3.00031e+07
-2.94627e+07
-3.38489e+07
-1.80024e+07
-3.55455e+07
-2.12452e+07
-2.83955e+07
-1.84065e+07
-2.43019e+07
-3.04528e+07
-2.0653e+07
-2.81866e+07
-2.44187e+07
-2.71704e+07
-1.50951e+07
-3.42291e+07
-1.69108e+07
-2.41607e+07
-3.17977e+07
-2.44409e+07
-2.85563e+07
-2.52267e+07
-2.67298e+07
-2.22552e+07
-2.90433e+07
-1.70768e+07
-2.06538e+07
-3.63507e+07
-2.33667e+07
-3.04105e+07
-2.77187e+07
-3.06695e+07
-3.59374e+07
-2.91232e+07
-1.60192e+07
-2.47192e+07
-2.5977e+07
-2.60948e+07
-2.46648e+07
-3.79124e+07
-3.09562e+07
-3.03415e+07
-3.67708e+07
-2.77551e+07
-1.76887e+07
-3.91272e+07
-3.19252e+07
-3.32838e+07
-8.29279e+06
-2.29045e+07
-1.50809e+07
-2.57493e+07
-2.01922e+07
-1.95358e+07
-2.39295e+07
-2.64832e+07
-1.67451e+07
-2.32147e+07
-2.74101e+07
-1.6781e+07
-2.31182e+07
-2.72814e+07
-2.56586e+07
-1.82635e+07
-3.01492e+07
-1.78513e+07
-2.02603e+07
-2.44407e+07
-2.90829e+07
-2.62532e+07
-2.09203e+07
-3.16533e+07
-2.35139e+07
-2.75251e+07
-2.16444e+07
-2.39742e+07
-2.16156e+07
-2.44443e+07
-2.24887e+07
-3.47266e+07
-2.85397e+07
)
;

boundaryField
{
    inlet
    {
        type            calculated;
        value           nonuniform 0();
    }
    outlet
    {
        type            calculated;
        value           uniform 0;
    }
    wall
    {
        type            calculated;
        value           uniform 0;
    }
    procBoundary5to1
    {
        type            processor;
        value           nonuniform List<scalar> 
32
(
728.553
461.565
732.528
577.656
565.194
242.113
490.602
613.082
618.79
687.173
577.259
714.353
279.819
596.621
416.468
843.086
671.573
808.344
565.131
730.641
254.441
489.421
418.612
575.505
575.505
575.505
593.766
922.683
922.683
922.683
445.179
445.179
)
;
    }
    procBoundary5to4
    {
        type            processor;
        value           nonuniform List<scalar> 
12
(
729.605
840.084
509.771
532.894
724.042
793.928
653.017
615.185
620.432
648.71
533.138
535.824
)
;
    }
    procBoundary5to7
    {
        type            processor;
        value           nonuniform List<scalar> 
44
(
689.4
484.701
601.339
838.046
944.82
604.388
493.574
464.503
755.717
689.4
495.112
654.257
529.273
621.814
667.644
750.091
464.026
290.617
495.112
764.594
495.112
654.257
381.591
551.245
627.152
580.903
355.136
646.305
692.333
535.552
381.591
493.472
381.591
551.245
445.435
615.166
368.745
552.736
530.96
570.626
657.698
395.611
445.435
376.54
)
;
    }
}


// ************************************************************************* //
