/*--------------------------------*- C++ -*----------------------------------*\
| =========                 |                                                 |
| \\      /  F ield         | OpenFOAM: The Open Source CFD Toolbox           |
|  \\    /   O peration     | Version:  4.x                                   |
|   \\  /    A nd           | Web:      www.OpenFOAM.org                      |
|    \\/     M anipulation  |                                                 |
\*---------------------------------------------------------------------------*/
FoamFile
{
    version     2.0;
    format      ascii;
    class       volVectorField;
    location    "41";
    object      Us;
}
// * * * * * * * * * * * * * * * * * * * * * * * * * * * * * * * * * * * * * //

dimensions      [0 1 -1 0 0 0 0];

internalField   nonuniform List<vector> 
114
(
(1.3257e-09 -3.31698e-10 1.63425e-09)
(1.4464e-09 -2.75191e-10 2.03405e-10)
(1.71083e-09 -1.0895e-10 -6.41023e-10)
(1.04074e-09 1.39104e-10 -1.12992e-09)
(1.35608e-09 -8.62631e-11 -1.27859e-09)
(7.31323e-09 -8.5019e-10 -1.00469e-09)
(2.92658e-09 5.10656e-10 5.38403e-09)
(2.68094e-09 -5.77452e-10 2.71424e-09)
(2.65002e-09 -1.13733e-09 6.26733e-10)
(2.57226e-09 -5.54068e-10 -8.34759e-10)
(2.41419e-09 3.47022e-11 -2.24704e-09)
(2.01596e-09 4.89208e-11 -2.8417e-09)
(1.1312e-09 -4.02618e-10 -2.45672e-09)
(2.45075e-09 1.96723e-10 3.60476e-09)
(3.16288e-09 5.1401e-10 3.64565e-09)
(3.78178e-09 -5.83416e-10 2.37619e-09)
(3.36895e-09 -1.13103e-09 7.89261e-10)
(3.06872e-09 -1.1658e-09 -4.95804e-10)
(2.61638e-09 -5.9633e-10 -1.76225e-09)
(2.4874e-09 -2.03518e-10 -3.47885e-09)
(1.38084e-09 5.14841e-10 -2.02639e-09)
(-2.92617e-10 1.25087e-10 6.24971e-10)
(3.97627e-10 1.36035e-10 8.85456e-10)
(5.63591e-10 -2.04787e-10 1.28339e-09)
(6.26325e-10 -2.37332e-10 6.94827e-10)
(6.88425e-10 -1.20376e-10 4.80102e-10)
(5.3109e-10 -1.8058e-10 -4.10337e-10)
(4.74229e-10 3.61014e-11 -1.00121e-09)
(8.01682e-10 1.84272e-10 -1.32344e-09)
(8.41878e-11 9.29637e-11 -2.7474e-09)
(1.94889e-10 1.93096e-11 1.19636e-09)
(9.86925e-10 -2.25378e-10 1.49244e-09)
(1.68065e-09 -2.08114e-10 2.63662e-09)
(1.44068e-09 -3.42827e-11 1.45462e-09)
(1.67107e-09 -2.32137e-10 6.12695e-10)
(1.73071e-09 -2.86378e-10 -5.23057e-10)
(1.69651e-09 -1.34204e-10 -1.52625e-09)
(1.43935e-09 1.26356e-10 -2.25279e-09)
(1.21444e-09 2.04051e-10 -2.86318e-09)
(9.61706e-10 1.30825e-10 1.62231e-09)
(1.99933e-09 -1.53935e-10 2.20426e-09)
(2.37033e-09 -1.99085e-10 2.72877e-09)
(2.97303e-09 -7.31747e-11 1.82939e-09)
(2.92241e-09 -4.128e-10 3.92443e-10)
(2.44355e-09 -5.31123e-10 -4.05566e-10)
(2.25863e-09 -1.14666e-10 -1.57266e-09)
(1.53546e-09 6.13185e-10 -2.21645e-09)
(2.99055e-10 3.27143e-10 -1.69358e-09)
(1.89889e-09 2.69819e-10 6.38945e-10)
(2.07382e-09 -4.35105e-10 1.37886e-09)
(6.65145e-12 -8.17502e-12 4.203e-10)
(1.66246e-10 -8.80412e-11 5.98059e-10)
(2.26316e-10 -3.50144e-10 8.33656e-10)
(2.44757e-10 -5.76578e-10 7.20206e-10)
(6.54732e-10 -1.41608e-10 1.68133e-10)
(2.02187e-10 -1.36537e-10 -2.78561e-10)
(-2.91285e-10 4.94627e-11 -7.24336e-10)
(-6.82632e-10 5.93212e-10 -1.62212e-09)
(2.21206e-09 -3.09326e-10 -6.34533e-09)
(3.28282e-10 -5.92046e-11 8.33857e-10)
(5.42977e-10 -2.43156e-10 1.08642e-09)
(7.76665e-10 -4.52619e-10 1.85944e-09)
(1.62822e-09 -4.87274e-10 1.07373e-09)
(1.53425e-09 -1.26781e-10 3.27115e-10)
(1.15863e-09 -1.69107e-10 -4.5957e-10)
(7.25503e-11 3.83776e-10 -1.29226e-09)
(-3.02474e-10 1.13766e-09 -1.88797e-09)
(-8.10615e-11 1.37276e-09 -3.61396e-09)
(8.78839e-10 3.98246e-10 1.18806e-09)
(1.07636e-09 -7.02075e-11 1.20245e-09)
(1.68084e-09 -1.96142e-10 1.87028e-09)
(2.14428e-09 -4.21443e-10 1.13232e-09)
(2.16847e-09 -3.19643e-10 2.59046e-10)
(1.59139e-09 -1.31672e-10 -2.90651e-10)
(7.32454e-10 4.5187e-10 -1.21184e-09)
(3.71681e-10 8.66789e-10 -1.93118e-09)
(1.92642e-10 9.34407e-10 -2.13158e-09)
(1.33648e-09 3.20854e-10 7.25823e-10)
(1.88099e-09 1.3951e-10 8.19421e-10)
(2.14094e-09 -1.48314e-10 7.86433e-10)
(2.40724e-09 -2.67914e-10 8.02717e-10)
(4.00115e-11 -4.22468e-11 1.32305e-10)
(-1.07251e-12 -5.96153e-11 3.35383e-10)
(1.31462e-10 -6.73912e-11 3.3824e-11)
(2.10378e-10 -4.63307e-10 3.84964e-10)
(3.66407e-10 -8.62745e-11 2.17642e-11)
(-2.14325e-11 -4.79885e-11 -1.77034e-10)
(-8.16205e-10 2.28937e-10 -2.99762e-10)
(-9.224e-10 1.82785e-09 -2.26418e-09)
(1.73812e-09 4.80854e-09 -6.00658e-09)
(1.91369e-10 3.67449e-11 2.48061e-10)
(1.54979e-10 -4.58419e-11 4.94302e-10)
(1.04365e-12 -1.18585e-10 8.2006e-10)
(1.09794e-09 -3.58113e-11 1.08179e-10)
(1.22995e-09 3.90371e-10 -9.8939e-12)
(6.41188e-10 -3.52583e-11 -1.5333e-10)
(-2.9566e-11 5.43086e-10 -8.93505e-10)
(-5.29519e-10 2.82071e-09 -1.30938e-09)
(1.60876e-09 6.50616e-09 -2.0122e-09)
(4.8865e-10 1.77428e-10 1.814e-10)
(6.87292e-10 8.35379e-11 2.95377e-10)
(8.47863e-10 5.17047e-11 4.66175e-10)
(1.0272e-09 -1.80875e-10 2.94005e-10)
(1.30622e-09 8.1025e-11 6.70136e-11)
(1.13115e-09 5.11744e-11 -9.67439e-11)
(3.79744e-10 4.26191e-10 -6.18474e-10)
(-1.75998e-10 7.38882e-10 -1.07113e-09)
(3.27036e-10 9.40495e-10 -1.32795e-09)
(1.12287e-09 2.38232e-10 2.36359e-10)
(1.09389e-09 1.06537e-10 2.76187e-10)
(1.0274e-09 -3.66322e-10 2.93008e-10)
(1.54032e-09 -1.91972e-10 2.77405e-10)
(1.69146e-09 3.24771e-11 1.51948e-10)
(1.1565e-09 -3.79727e-11 1.25358e-11)
)
;

boundaryField
{
    inlet
    {
        type            zeroGradient;
    }
    outlet
    {
        type            zeroGradient;
    }
    wall
    {
        type            zeroGradient;
    }
    procBoundary5to1
    {
        type            processor;
        value           nonuniform List<vector> 
32
(
(1.83957e-09 -4.3122e-10 1.50493e-09)
(1.66246e-09 -3.65895e-10 3.56692e-10)
(1.72693e-09 -3.75146e-10 -9.71166e-10)
(1.79162e-09 1.81456e-10 -1.82365e-09)
(1.31921e-10 -2.66599e-10 -2.58966e-09)
(1.23163e-09 -7.71808e-10 -5.75347e-09)
(2.86054e-09 1.29675e-10 8.53436e-09)
(1.85131e-09 -1.50744e-09 2.85776e-09)
(2.4538e-09 -1.4518e-09 3.63118e-10)
(2.43595e-09 -6.57314e-10 -1.37406e-09)
(3.15829e-09 -5.23678e-11 -4.06454e-09)
(2.3903e-09 -1.35467e-09 -5.50353e-09)
(1.36114e-09 -1.25016e-09 -4.24647e-09)
(2.48588e-09 7.7164e-10 5.30127e-09)
(3.27723e-09 7.11301e-10 5.95717e-09)
(3.28186e-09 -9.53055e-10 2.79849e-09)
(3.45883e-09 -1.72138e-09 5.40631e-10)
(3.91513e-09 -1.80604e-09 -1.51133e-09)
(4.53865e-09 -4.02637e-10 -4.68409e-09)
(3.1319e-09 -7.24095e-10 -5.23642e-09)
(2.48532e-09 -1.44284e-09 -4.78569e-09)
(-1.09867e-10 1.17714e-10 2.23639e-09)
(5.25315e-10 7.56516e-10 8.82961e-10)
(7.1937e-10 4.76764e-10 1.98456e-09)
(7.1937e-10 4.76764e-10 1.98456e-09)
(7.1937e-10 4.76764e-10 1.98456e-09)
(-1.71615e-11 2.74488e-10 2.51672e-09)
(1.37601e-09 7.46576e-10 4.15313e-09)
(1.37601e-09 7.46576e-10 4.15313e-09)
(1.37601e-09 7.46576e-10 4.15313e-09)
(1.39128e-09 3.45679e-10 2.2426e-09)
(1.39128e-09 3.45679e-10 2.2426e-09)
)
;
    }
    procBoundary5to4
    {
        type            processor;
        value           nonuniform List<vector> 
12
(
(-5.93536e-10 2.15084e-11 1.06473e-09)
(-5.39297e-10 2.46858e-10 1.55511e-09)
(1.18578e-09 -8.89097e-11 1.1028e-09)
(1.89857e-09 1.42713e-10 7.99029e-10)
(9.51737e-12 -9.10871e-11 4.11762e-10)
(1.90318e-10 -1.63339e-10 7.79265e-10)
(6.35174e-10 1.46714e-10 9.13453e-10)
(9.80117e-10 -4.01372e-11 8.80374e-10)
(8.32083e-11 -4.90443e-11 1.38337e-10)
(1.0912e-10 -8.18582e-11 3.17583e-10)
(4.03946e-10 -5.39062e-11 3.58715e-10)
(9.266e-10 1.57051e-10 3.10346e-10)
)
;
    }
    procBoundary5to7
    {
        type            processor;
        value           nonuniform List<vector> 
44
(
(3.14764e-09 -3.35846e-10 2.12331e-09)
(3.3823e-09 -2.86376e-10 2.86632e-09)
(3.49682e-09 -1.39367e-09 1.44292e-09)
(3.55168e-09 -1.13265e-09 7.71575e-10)
(3.26184e-09 -1.42569e-09 -1.11252e-09)
(2.11081e-09 -4.61986e-10 -2.27319e-09)
(1.71875e-09 4.90085e-10 -2.89508e-09)
(6.71135e-10 8.12851e-11 -1.85124e-09)
(2.91321e-09 7.53592e-11 1.46862e-09)
(3.14764e-09 -3.35846e-10 2.12331e-09)
(2.97102e-09 -8.54033e-10 1.11945e-09)
(3.23444e-09 -7.29828e-10 1.21367e-09)
(3.1167e-09 -6.36711e-10 5.03206e-10)
(2.92207e-09 -2.80155e-10 -3.85516e-10)
(2.07404e-09 2.3035e-10 -1.53303e-09)
(1.30801e-09 1.16229e-09 -2.23578e-09)
(2.80912e-10 5.19264e-10 -1.75178e-09)
(2.34892e-09 -3.46264e-10 7.89898e-10)
(2.97102e-09 -8.54033e-10 1.11945e-09)
(2.4886e-09 -3.79244e-10 1.155e-09)
(2.97102e-09 -8.54033e-10 1.11945e-09)
(3.23444e-09 -7.29828e-10 1.21367e-09)
(2.3944e-09 -8.10904e-12 4.33633e-10)
(1.91554e-09 -4.51718e-11 -1.94988e-10)
(1.01872e-09 4.00759e-10 -1.54559e-09)
(6.43091e-10 6.6743e-10 -1.66114e-09)
(2.66312e-10 4.65175e-10 -1.47965e-09)
(1.92254e-09 -2.02792e-11 6.98342e-10)
(2.24955e-09 7.38669e-11 9.30367e-10)
(2.05152e-09 1.65157e-10 1.15289e-09)
(2.3944e-09 -8.10904e-12 4.33633e-10)
(2.60766e-09 -5.34531e-11 9.46952e-10)
(2.3944e-09 -8.10904e-12 4.33633e-10)
(1.91554e-09 -4.51718e-11 -1.94988e-10)
(6.09807e-10 8.22892e-11 -7.20617e-10)
(-2.25139e-10 1.00844e-09 -1.1603e-09)
(6.80605e-10 7.5221e-10 -1.51627e-09)
(1.46808e-09 9.0498e-11 2.9937e-10)
(1.83251e-09 6.66247e-11 5.1207e-10)
(1.64033e-09 -3.79563e-11 2.69126e-10)
(1.93118e-09 4.39068e-11 3.2956e-10)
(2.19877e-09 2.59741e-10 1.54775e-10)
(6.09807e-10 8.22892e-11 -7.20617e-10)
(2.94386e-09 4.15049e-10 -3.42146e-10)
)
;
    }
}


// ************************************************************************* //
