/*--------------------------------*- C++ -*----------------------------------*\
| =========                 |                                                 |
| \\      /  F ield         | OpenFOAM: The Open Source CFD Toolbox           |
|  \\    /   O peration     | Version:  4.x                                   |
|   \\  /    A nd           | Web:      www.OpenFOAM.org                      |
|    \\/     M anipulation  |                                                 |
\*---------------------------------------------------------------------------*/
FoamFile
{
    version     2.0;
    format      ascii;
    class       volScalarField;
    location    "33";
    object      QPartFluid;
}
// * * * * * * * * * * * * * * * * * * * * * * * * * * * * * * * * * * * * * //

dimensions      [1 -1 -3 0 0 0 0];

internalField   nonuniform List<scalar> 
132
(
5.18504e+09
4.25733e+09
3.70104e+09
2.96544e+09
4.32188e+09
4.48927e+09
5.88368e+09
3.94105e+09
2.02017e+09
4.65105e+09
5.10291e+09
5.52888e+09
5.59999e+09
3.84686e+09
6.72638e+09
5.32563e+09
5.80307e+09
5.25637e+09
3.11762e+09
5.87715e+09
5.75175e+09
5.07286e+09
5.57625e+09
4.90485e+09
3.99322e+09
5.19341e+09
8.53636e+09
2.98029e+09
4.53254e+09
3.50913e+09
4.26815e+09
6.97607e+09
8.63934e+09
7.57871e+09
7.74963e+09
7.6041e+09
7.12909e+09
6.7817e+09
7.26649e+09
4.98323e+09
9.4624e+09
8.02164e+09
8.51495e+09
9.61792e+09
8.63476e+09
9.21497e+09
9.24526e+09
8.99745e+09
5.3016e+09
9.45802e+09
8.41286e+09
7.5391e+09
9.07998e+09
6.78447e+09
1.05394e+10
6.9421e+09
6.36225e+09
7.96698e+09
7.03674e+09
7.79864e+09
5.50902e+09
1.13254e+10
5.58728e+09
6.96707e+09
8.13985e+09
6.96322e+09
7.49139e+09
5.66946e+09
8.05527e+09
7.05355e+09
5.41128e+09
6.24962e+09
8.28021e+09
7.99182e+09
6.91351e+09
9.28042e+09
6.71636e+09
9.44117e+09
1.01324e+10
1.01336e+10
6.70848e+09
7.19863e+09
8.08782e+09
9.2758e+09
9.82743e+09
8.01791e+09
9.19893e+09
6.35963e+09
5.37346e+09
6.90688e+09
8.64461e+09
9.55635e+09
8.91235e+09
9.92927e+09
7.9569e+09
8.69442e+09
4.35315e+09
4.99101e+09
6.76988e+09
5.19173e+09
7.08968e+09
7.79003e+09
5.91191e+09
4.35125e+09
6.05486e+09
5.13605e+09
9.6015e+09
9.0971e+09
8.09573e+09
7.20908e+09
6.67096e+09
1.04487e+10
7.25313e+09
6.93709e+09
5.18519e+09
5.59161e+09
9.03869e+09
6.12035e+09
8.68057e+09
8.42428e+09
8.20955e+09
4.89607e+09
9.32206e+09
4.82269e+09
6.71104e+09
9.7912e+09
1.01537e+10
5.45526e+09
9.64974e+09
8.44126e+09
5.38186e+09
2.58419e+09
)
;

boundaryField
{
    inlet
    {
        type            calculated;
        value           uniform 0;
    }
    outlet
    {
        type            calculated;
        value           nonuniform 0();
    }
    wall
    {
        type            calculated;
        value           uniform 0;
    }
    procBoundary0to1
    {
        type            processor;
        value           nonuniform List<scalar> 
12
(
4.30486e+09
4.54413e+09
3.952e+09
7.43338e+09
9.05159e+09
7.96809e+09
7.09935e+09
6.44127e+09
9.39131e+09
6.52428e+09
7.89007e+09
5.85342e+09
)
;
    }
    procBoundary0to2
    {
        type            processor;
        value           nonuniform List<scalar> 
44
(
7.13443e+09
5.59242e+09
3.05868e+09
5.97426e+09
3.64056e+09
4.60306e+09
5.81621e+09
6.93448e+09
7.13443e+09
6.13735e+09
7.13443e+09
5.59242e+09
9.84406e+09
1.22804e+10
6.6007e+09
1.1227e+10
4.73267e+09
7.94489e+09
9.60393e+09
9.2064e+09
9.84406e+09
8.91189e+09
9.84406e+09
1.22804e+10
7.85969e+09
9.18981e+09
6.86393e+09
5.74901e+09
6.75842e+09
6.90353e+09
6.78839e+09
7.78996e+09
7.85969e+09
9.86976e+09
7.85969e+09
9.18981e+09
4.89753e+09
9.48523e+09
1.02999e+10
7.17112e+09
8.23722e+09
6.28024e+09
7.57241e+09
7.55125e+09
)
;
    }
    procBoundary0to4
    {
        type            processor;
        value           nonuniform List<scalar> 
36
(
4.92598e+09
7.10604e+09
8.42794e+09
5.97688e+09
7.1585e+09
5.98729e+09
8.94516e+09
6.86999e+09
9.64986e+09
7.0196e+09
7.29219e+09
9.39055e+09
1.00343e+10
1.0119e+10
8.57763e+09
8.14124e+09
5.74357e+09
1.11192e+10
6.68976e+09
1.02733e+10
8.31645e+09
9.34622e+09
8.1161e+09
6.28649e+09
7.29706e+09
1.02782e+10
6.74051e+09
3.45658e+09
6.72614e+09
9.38955e+09
5.69395e+09
8.77517e+09
6.64415e+09
1.09866e+10
5.97294e+09
7.04465e+09
)
;
    }
    procBoundary0to6
    {
        type            processor;
        value           uniform 8.07118e+09;
    }
    procBoundary0to7
    {
        type            processor;
        value           uniform 9.94952e+09;
    }
}


// ************************************************************************* //
