/*--------------------------------*- C++ -*----------------------------------*\
| =========                 |                                                 |
| \\      /  F ield         | OpenFOAM: The Open Source CFD Toolbox           |
|  \\    /   O peration     | Version:  4.x                                   |
|   \\  /    A nd           | Web:      www.OpenFOAM.org                      |
|    \\/     M anipulation  |                                                 |
\*---------------------------------------------------------------------------*/
FoamFile
{
    version     2.0;
    format      ascii;
    class       volVectorField;
    location    "33";
    object      Us;
}
// * * * * * * * * * * * * * * * * * * * * * * * * * * * * * * * * * * * * * //

dimensions      [0 1 -1 0 0 0 0];

internalField   nonuniform List<vector> 
132
(
(-1.06953e-09 -3.98981e-10 -9.57884e-11)
(-7.96251e-10 -3.14482e-10 -1.74821e-10)
(1.79617e-09 4.30745e-10 7.97508e-10)
(2.38882e-09 -2.57851e-09 -5.70739e-10)
(-4.29595e-10 -9.04632e-10 -8.82272e-11)
(1.10589e-09 -9.52273e-10 1.60614e-09)
(-6.54791e-10 5.57126e-10 2.7443e-09)
(-7.58641e-10 1.09423e-09 8.45577e-10)
(-1.45988e-09 1.86045e-09 1.154e-09)
(-6.79781e-10 -9.29095e-10 -4.58938e-10)
(1.94469e-10 -1.68816e-09 -1.45528e-09)
(2.99177e-09 -3.82138e-09 -2.65781e-09)
(3.34079e-09 -6.61681e-09 -2.02181e-09)
(2.65942e-09 -5.22264e-09 -1.00527e-09)
(4.00984e-09 -3.02839e-09 1.87318e-09)
(3.07951e-09 -2.17153e-10 4.2246e-09)
(2.2215e-09 1.67053e-09 4.41784e-09)
(6.9017e-10 2.73744e-10 5.57861e-09)
(-1.32903e-09 -2.10736e-09 -8.18778e-10)
(7.60088e-10 -3.20466e-09 -2.33512e-09)
(2.41367e-09 -4.17718e-09 -3.28315e-09)
(3.18958e-09 -5.90082e-09 -2.63881e-09)
(3.17558e-09 -5.60805e-09 -7.69632e-10)
(1.00468e-08 -5.48634e-09 1.59988e-09)
(4.45762e-09 -1.81373e-09 5.59986e-09)
(6.03386e-09 1.22951e-09 7.315e-09)
(1.32737e-09 2.072e-09 7.25173e-09)
(-1.1327e-09 -1.07814e-09 -1.15526e-09)
(5.8287e-10 -4.11276e-09 -3.21318e-09)
(1.6801e-09 -4.64367e-09 -3.99308e-09)
(-1.26938e-09 -3.06859e-10 2.05399e-10)
(4.90036e-10 -4.86226e-10 4.5735e-10)
(1.12882e-09 -4.815e-10 1.13958e-09)
(2.70269e-09 -1.51593e-09 -1.10768e-09)
(1.21458e-09 -1.3397e-09 -1.6934e-10)
(1.08545e-09 -1.19103e-09 1.57534e-09)
(1.2522e-10 -9.28874e-10 2.8254e-09)
(1.24363e-09 -1.21343e-10 1.35015e-09)
(-2.50188e-09 -5.70555e-10 3.20334e-09)
(-3.40952e-10 -8.08365e-10 4.50981e-11)
(7.37322e-10 -1.16426e-09 -2.03513e-10)
(1.32462e-09 -1.95155e-09 -6.23578e-10)
(2.94303e-09 -2.99875e-09 -1.95471e-09)
(1.91848e-09 -3.15373e-09 -3.90393e-10)
(2.39473e-09 -2.09758e-09 1.92812e-09)
(2.05011e-09 -1.09701e-09 4.1953e-09)
(2.75794e-09 -6.01328e-10 4.70667e-09)
(9.55566e-10 1.43983e-09 6.72025e-09)
(-8.70488e-10 -1.19445e-09 -7.76422e-10)
(1.43367e-09 -2.5962e-09 -2.01859e-09)
(2.40701e-09 -3.61555e-09 -2.59529e-09)
(3.24285e-09 -5.02405e-09 -2.15854e-09)
(3.38407e-09 -4.83696e-09 -3.2902e-10)
(4.3418e-09 -4.78297e-09 2.38571e-09)
(4.34332e-09 -2.41901e-09 5.96545e-09)
(4.00806e-09 -7.63287e-10 7.09179e-09)
(3.0666e-09 1.65649e-10 7.78857e-09)
(-4.4428e-11 -1.10308e-09 -1.5229e-09)
(1.20753e-09 -2.83554e-09 -2.95545e-09)
(1.89908e-09 -3.66727e-09 -3.02525e-09)
(3.04102e-09 -5.073e-09 -1.9045e-09)
(2.81517e-09 -5.50322e-09 -6.78728e-11)
(-3.93262e-10 -1.02478e-10 8.44239e-11)
(7.47961e-10 -5.63805e-10 8.27848e-12)
(5.69368e-10 -4.80853e-10 4.06834e-10)
(1.48409e-09 -7.71423e-10 -1.24668e-10)
(1.18471e-09 -8.12152e-10 -2.12916e-10)
(1.82628e-09 -3.4584e-10 1.38734e-09)
(9.96762e-10 -3.94598e-10 2.56394e-09)
(1.40087e-09 -4.84828e-10 2.00591e-09)
(-1.08622e-09 -5.92459e-10 4.04496e-09)
(-2.45976e-10 -2.75328e-10 -2.11397e-10)
(1.14539e-09 -1.07201e-09 -6.85904e-10)
(1.72729e-09 -1.32593e-09 -8.28416e-10)
(2.87118e-09 -1.66769e-09 -5.3558e-10)
(2.06152e-09 -1.67961e-09 -3.4103e-11)
(2.76925e-09 -1.48191e-09 2.09827e-09)
(2.719e-09 -7.84574e-10 3.23712e-09)
(3.26229e-09 -9.54841e-10 4.20968e-09)
(1.3699e-09 1.4584e-09 6.3818e-09)
(1.52288e-10 -7.73393e-10 -8.93543e-10)
(1.65578e-09 -1.4963e-09 -1.81169e-09)
(2.37816e-09 -2.49841e-09 -2.19509e-09)
(3.28594e-09 -2.87351e-09 -1.5816e-09)
(2.80704e-09 -3.76914e-09 -6.67812e-11)
(4.26918e-09 -3.45953e-09 3.25705e-09)
(3.68215e-09 -2.13284e-09 4.06079e-09)
(4.55014e-09 -7.87546e-10 6.06798e-09)
(3.84257e-09 1.60309e-09 7.59452e-09)
(2.79567e-10 -9.12921e-10 -1.23516e-09)
(1.54086e-09 -2.60244e-09 -2.50174e-09)
(1.83758e-09 -3.39077e-09 -3.01045e-09)
(2.80531e-09 -3.85078e-09 -2.67233e-09)
(2.50178e-09 -4.75798e-09 9.65128e-11)
(2.5022e-09 -4.43881e-09 2.33802e-09)
(3.51434e-09 -3.16348e-09 4.92886e-09)
(-1.89374e-10 7.67101e-11 4.5694e-11)
(3.63091e-10 -5.58973e-10 -7.57877e-12)
(2.61895e-10 -3.78383e-10 7.82215e-11)
(1.25476e-09 -4.91237e-10 1.37874e-10)
(8.60413e-10 -2.27434e-10 2.80341e-10)
(1.23627e-09 -1.40617e-10 1.10972e-09)
(6.76263e-10 -2.18657e-10 2.27949e-09)
(1.15988e-09 -5.23665e-10 3.03046e-09)
(-2.64989e-10 -1.48183e-10 3.88387e-09)
(-8.45809e-11 -1.94622e-10 -5.32504e-11)
(9.08348e-10 -8.1501e-10 -5.07736e-10)
(1.06084e-09 -1.19356e-09 -5.95369e-10)
(2.54612e-09 -1.58887e-09 -2.78691e-11)
(1.79095e-09 -1.0906e-09 5.399e-10)
(1.83008e-09 -9.03858e-10 2.09869e-09)
(1.23656e-09 -1.05734e-09 3.15627e-09)
(1.67359e-09 -3.98308e-10 3.89116e-09)
(8.25457e-10 8.49603e-10 5.26707e-09)
(1.75373e-10 -1.21793e-09 -8.41889e-10)
(9.47635e-10 -1.45267e-09 -1.52573e-09)
(1.40925e-09 -2.19358e-09 -1.8855e-09)
(2.84028e-09 -2.4232e-09 -6.21958e-10)
(2.16073e-09 -2.73862e-09 4.5691e-10)
(2.73184e-09 -1.88527e-09 2.6428e-09)
(2.79292e-09 -1.55202e-09 3.36173e-09)
(3.60215e-09 -8.25813e-10 5.15784e-09)
(3.36876e-09 1.63642e-09 6.50853e-09)
(-1.25191e-10 -9.89431e-10 -1.11911e-09)
(1.10238e-09 -1.83998e-09 -1.86792e-09)
(7.18882e-10 -2.60624e-09 -2.43764e-09)
(8.73668e-10 -3.45868e-09 -1.22266e-09)
(6.5141e-10 -3.76202e-09 -5.18759e-11)
(1.33041e-09 -2.7819e-09 2.38033e-09)
(2.10944e-09 -2.22031e-09 4.2586e-09)
(2.41225e-09 -1.60489e-09 5.39558e-09)
(3.33242e-09 -4.28348e-10 7.07617e-09)
)
;

boundaryField
{
    inlet
    {
        type            zeroGradient;
    }
    outlet
    {
        type            zeroGradient;
    }
    wall
    {
        type            zeroGradient;
    }
    procBoundary0to1
    {
        type            processor;
        value           nonuniform List<vector> 
12
(
(5.83737e-09 7.53665e-09 1.8742e-08)
(1.56832e-09 4.29171e-11 9.78682e-09)
(4.49718e-09 1.89856e-09 6.57203e-09)
(-4.26136e-09 4.39155e-09 1.32971e-08)
(-2.12803e-09 3.25547e-09 1.0488e-08)
(4.56299e-09 2.14161e-09 7.40065e-09)
(-4.09452e-10 7.74077e-10 2.90949e-09)
(2.21275e-09 2.50791e-09 5.97786e-09)
(6.72732e-09 4.61212e-10 7.68825e-09)
(-2.38581e-13 7.76424e-10 2.36604e-09)
(7.21948e-10 1.8866e-09 3.96737e-09)
(4.79268e-09 1.24113e-09 6.06914e-09)
)
;
    }
    procBoundary0to2
    {
        type            processor;
        value           nonuniform List<vector> 
44
(
(3.81578e-09 -5.74246e-09 -3.02573e-09)
(3.66623e-09 -6.65064e-09 -8.65906e-10)
(4.42884e-09 -7.43341e-09 3.29771e-09)
(4.14211e-09 -4.46385e-09 7.10851e-09)
(3.9763e-09 -1.10453e-10 9.34991e-09)
(3.4596e-09 4.86306e-10 9.30234e-09)
(-1.93451e-08 5.09089e-09 -1.31575e-09)
(9.25989e-10 -3.21345e-09 -4.00955e-09)
(3.81578e-09 -5.74246e-09 -3.02573e-09)
(2.31663e-09 -4.54174e-09 -4.48039e-09)
(3.81578e-09 -5.74246e-09 -3.02573e-09)
(3.66623e-09 -6.65064e-09 -8.65906e-10)
(4.67482e-09 -6.00955e-09 3.32747e-09)
(3.53965e-09 -4.57013e-09 6.92846e-09)
(4.05381e-09 -1.25857e-09 8.66071e-09)
(4.307e-09 -4.07567e-10 8.68499e-09)
(3.06447e-11 -7.69218e-10 -1.76209e-09)
(1.23235e-09 -2.45413e-09 -3.54604e-09)
(1.90062e-09 -3.43308e-09 -4.10054e-09)
(2.63706e-09 -4.12545e-09 -2.80971e-09)
(4.67482e-09 -6.00955e-09 3.32747e-09)
(2.7511e-09 -4.80629e-09 -7.89761e-10)
(4.67482e-09 -6.00955e-09 3.32747e-09)
(3.53965e-09 -4.57013e-09 6.92846e-09)
(4.32138e-09 -1.67206e-09 6.58966e-09)
(4.63773e-09 -6.43527e-10 7.51263e-09)
(1.81122e-10 -8.62986e-10 -1.3165e-09)
(1.31537e-09 -2.00191e-09 -2.78795e-09)
(1.37538e-09 -2.98858e-09 -3.45142e-09)
(1.5027e-09 -3.45056e-09 -2.61766e-09)
(1.60454e-09 -4.19058e-09 -6.76373e-10)
(1.34882e-09 -3.94967e-09 2.53444e-09)
(4.32138e-09 -1.67206e-09 6.58966e-09)
(1.14035e-09 -3.26158e-09 4.40213e-09)
(4.32138e-09 -1.67206e-09 6.58966e-09)
(4.63773e-09 -6.43527e-10 7.51263e-09)
(6.90598e-11 -6.53235e-10 -1.01566e-09)
(7.81702e-10 -1.59891e-09 -1.97114e-09)
(5.90022e-10 -2.42186e-09 -2.46077e-09)
(3.35688e-10 -2.73994e-09 -1.9195e-09)
(1.63713e-11 -2.95281e-09 -4.23748e-10)
(6.37867e-11 -2.33686e-09 1.48327e-09)
(4.349e-10 -2.64107e-09 3.18408e-09)
(1.96489e-09 -1.50043e-09 4.61732e-09)
)
;
    }
    procBoundary0to4
    {
        type            processor;
        value           nonuniform List<vector> 
36
(
(-1.30813e-10 -2.87025e-11 5.56864e-11)
(7.41511e-10 -2.53898e-11 5.53231e-11)
(2.84877e-10 -2.93308e-10 1.10885e-10)
(1.24842e-09 -4.70217e-10 3.59162e-10)
(1.37658e-09 -5.899e-10 5.7022e-10)
(1.6007e-09 -2.33033e-10 7.55324e-10)
(8.79183e-10 -4.19615e-10 2.06037e-09)
(2.49337e-09 -3.01627e-10 2.05155e-09)
(2.9089e-10 2.40914e-10 2.12352e-09)
(5.24216e-11 -1.38839e-10 -8.32074e-11)
(8.95859e-10 -3.41556e-10 -1.62435e-10)
(1.03535e-09 -9.56775e-10 -1.65636e-10)
(1.81954e-09 -1.12914e-09 2.43039e-10)
(1.80583e-09 -1.16186e-09 1.01424e-09)
(2.51111e-09 -7.85168e-10 1.48253e-09)
(1.74165e-09 -6.9023e-10 2.69412e-09)
(1.83958e-09 -4.80125e-10 3.23792e-09)
(1.19005e-09 6.87501e-10 4.20971e-09)
(-1.131e-10 -4.98758e-10 -3.44211e-10)
(9.60845e-10 -1.10515e-09 -1.0681e-09)
(1.27569e-09 -1.54075e-09 -1.08869e-09)
(1.61256e-09 -2.01322e-09 -4.24842e-10)
(1.71666e-09 -1.77355e-09 8.17184e-10)
(2.00664e-09 -1.3692e-09 1.84411e-09)
(2.34524e-09 -1.1629e-09 2.69628e-09)
(3.0888e-09 -8.14894e-10 3.49543e-09)
(4.47538e-09 -5.62025e-10 4.09242e-09)
(7.00149e-11 -6.4071e-10 -7.50335e-10)
(7.85573e-10 -1.53313e-09 -1.03309e-09)
(3.68316e-10 -2.24045e-09 -1.0002e-09)
(7.38898e-10 -2.48095e-09 -1.12529e-10)
(2.58844e-10 -2.46275e-09 7.14535e-10)
(5.96677e-10 -2.11716e-09 1.61181e-09)
(1.72893e-09 -1.60078e-09 2.95371e-09)
(3.25479e-09 -1.63575e-09 3.6076e-09)
(4.1083e-09 -1.40225e-09 4.04877e-09)
)
;
    }
    procBoundary0to6
    {
        type            processor;
        value           uniform (2.00749e-09 -7.55456e-10 5.39298e-09);
    }
    procBoundary0to7
    {
        type            processor;
        value           uniform (5.15561e-09 -3.79026e-10 5.92539e-09);
    }
}


// ************************************************************************* //
