/*--------------------------------*- C++ -*----------------------------------*\
| =========                 |                                                 |
| \\      /  F ield         | OpenFOAM: The Open Source CFD Toolbox           |
|  \\    /   O peration     | Version:  4.x                                   |
|   \\  /    A nd           | Web:      www.OpenFOAM.org                      |
|    \\/     M anipulation  |                                                 |
\*---------------------------------------------------------------------------*/
FoamFile
{
    version     2.0;
    format      ascii;
    class       volScalarField;
    location    "37";
    object      Cs;
}
// * * * * * * * * * * * * * * * * * * * * * * * * * * * * * * * * * * * * * //

dimensions      [1 -3 0 0 0 0 0];

internalField   nonuniform List<scalar> 
132
(
335
334.999
334.998
334.996
334.992
334.986
334.979
334.969
334.919
335
334.999
334.999
334.997
334.995
334.991
334.987
334.982
334.891
335
335
334.999
334.999
334.998
334.997
334.993
334.991
334.832
335
335
335
335
335
334.999
334.999
334.998
334.824
334.998
334.996
334.993
334.989
334.984
334.978
334.959
334.999
334.998
334.997
334.994
334.99
334.986
334.981
334.977
334.934
335
334.999
334.999
334.997
334.995
334.992
334.988
334.986
334.957
335
335
335
335
335
334.999
334.998
334.998
334.902
334.997
334.994
334.991
334.989
334.969
335
335
334.999
334.998
334.997
334.995
334.992
334.99
334.958
335
335
335
335
334.999
334.999
334.997
334.997
334.873
335
335
335
335
335
335
335
334.999
333.813
334.998
334.997
334.838
335
335
335
335
335
334.999
334.998
334.997
334.834
335
335
335
335
335
335
335
334.999
334.663
335
335
335
335
335
335
335
335
334.817
)
;

boundaryField
{
    inlet
    {
        type            calculated;
        value           nonuniform 0();
    }
    outlet
    {
        type            calculated;
        value           uniform 335;
    }
    wall
    {
        type            calculated;
        value           nonuniform List<scalar> 
66
(
335
335
335
335
335
335
335
335
335
335
335
335
335
335
335
334.999
335
335
334.998
334.998
335
335
334.997
334.997
334.999
335
334.838
334.834
334.663
334.817
335
335
335
335
335
335
335
335
335
335
335
335
335
335
335
335
335
335
335
335
334.999
334.999
335
335
334.999
334.998
335
335
334.998
334.998
334.999
335
334.824
334.902
333.813
334.817
)
;
    }
    procBoundary7to0
    {
        type            processor;
        value           uniform 335;
    }
    procBoundary7to1
    {
        type            processor;
        value           uniform 335;
    }
    procBoundary7to3
    {
        type            processor;
        value           nonuniform List<scalar> 
36
(
334.999
334.998
334.995
334.99
334.983
334.976
334.965
334.964
334.899
335
334.999
334.998
334.997
334.993
334.989
334.982
334.978
334.901
335
335
334.999
334.998
334.996
334.994
334.99
334.988
334.891
335
335
335
335
335
334.999
334.998
334.998
334.764
)
;
    }
    procBoundary7to5
    {
        type            processor;
        value           nonuniform List<scalar> 
44
(
334.999
334.998
334.996
334.993
334.988
334.982
334.975
334.879
335
334.999
334.998
334.997
334.995
334.992
334.988
334.985
334.964
335
334.999
334.999
334.999
334.998
334.998
334.996
334.994
334.993
334.973
335
335
334.999
334.998
334.998
335
334.999
334.999
334.998
334.852
335
335
335
335
335
334.999
334.999
)
;
    }
    procBoundary7to6
    {
        type            processor;
        value           nonuniform List<scalar> 
12
(
335
335
335
335
335
335
335
335
335
335
335
335
)
;
    }
}


// ************************************************************************* //
