/*--------------------------------*- C++ -*----------------------------------*\
| =========                 |                                                 |
| \\      /  F ield         | OpenFOAM: The Open Source CFD Toolbox           |
|  \\    /   O peration     | Version:  4.x                                   |
|   \\  /    A nd           | Web:      www.OpenFOAM.org                      |
|    \\/     M anipulation  |                                                 |
\*---------------------------------------------------------------------------*/
FoamFile
{
    version     2.0;
    format      ascii;
    class       volScalarField;
    location    "37";
    object      KslNext;
}
// * * * * * * * * * * * * * * * * * * * * * * * * * * * * * * * * * * * * * //

dimensions      [1 -3 -1 0 0 0 0];

internalField   nonuniform List<scalar> 
132
(
1e+10
3827.96
1e+10
3787.37
1e+10
3802.49
1e+10
4173.34
20961.4
2.75192e+06
3848.11
1e+10
3876.08
60240.1
3929.81
15959.4
4113.3
6638.91
16620.2
3475.2
17292.2
3323.51
16044.2
3138.85
12709.3
2794.79
9935.62
6817.02
3083.63
7076.91
2985.39
7783.53
2897.9
9199.45
2692.85
11617.1
1e+10
3754.16
1e+10
3753.82
1e+10
4060.96
14412.5
1e+10
3887.63
1e+10
3792.12
1e+10
3707.38
1e+10
3654.92
29840.5
572850
3789.93
1e+10
3857.15
1e+10
4141.94
1e+10
4994.12
19563.2
8879.47
3317.56
10859.7
3325.06
14789.5
3360.93
19868.9
3436.67
26779.2
32607
3428.42
16975.4
3516.67
6430.89
3.90216e+06
3747.3
1e+10
3745.88
1e+10
3864.9
62241.1
4143.71
8535.9
15556.2
3462.48
17136.1
3276.24
16699.8
2985.56
14011
2533.4
9402.8
6431.95
3069.71
6668.58
3018.87
7324.31
2921.27
8941.84
2659.64
14269.4
8471.44
2396.36
8720.45
9328.25
3282.09
10733.5
3227.42
12007.9
3110.81
12617.6
2881.42
13745.5
6670.44
3080.86
7063.21
3059.17
8059.26
2934.01
9814.1
2770.14
15333.5
5090.28
2867.12
5245.15
2887.32
5681.83
2887.59
6148.8
3128.26
5978.37
)
;

boundaryField
{
    inlet
    {
        type            zeroGradient;
    }
    outlet
    {
        type            zeroGradient;
    }
    wall
    {
        type            zeroGradient;
    }
    procBoundary7to0
    {
        type            processor;
        value           uniform 0;
    }
    procBoundary7to1
    {
        type            processor;
        value           uniform 0;
    }
    procBoundary7to3
    {
        type            processor;
        value           uniform 0;
    }
    procBoundary7to5
    {
        type            processor;
        value           uniform 0;
    }
    procBoundary7to6
    {
        type            processor;
        value           uniform 0;
    }
}


// ************************************************************************* //
