/*--------------------------------*- C++ -*----------------------------------*\
| =========                 |                                                 |
| \\      /  F ield         | OpenFOAM: The Open Source CFD Toolbox           |
|  \\    /   O peration     | Version:  4.x                                   |
|   \\  /    A nd           | Web:      www.OpenFOAM.org                      |
|    \\/     M anipulation  |                                                 |
\*---------------------------------------------------------------------------*/
FoamFile
{
    version     2.0;
    format      ascii;
    class       volScalarField;
    location    "48.5";
    object      Ksl;
}
// * * * * * * * * * * * * * * * * * * * * * * * * * * * * * * * * * * * * * //

dimensions      [1 -3 -1 0 0 0 0];

internalField   nonuniform List<scalar> 
114
(
6251.9
3143.49
5503.19
3028.75
5060.66
2874.9
3394.73
8096.62
3327.81
6996.42
3279.3
6447.97
3214.01
6226.56
3130.61
3348.54
7536.83
3226.08
6178.01
3136.91
5507.88
3031.87
5131.91
2913.92
3291.84
6771.43
3091.82
5288.08
2909.6
4513.73
2739.98
4075.01
2636.24
12801.4
3679.12
14649.5
3556.18
3435.09
9970.86
3586.88
12002.4
3690.19
15523.8
3741.94
23722.3
3715.63
3411.19
9079.76
3515.75
9434.63
3524.81
9731.59
3506.59
10273
3418.02
3333.14
7570.44
3291.73
6546.01
3164.87
5904.39
3075.59
5528.79
2965.47
23300
3655.43
3496.72
10832.8
3719.52
16332.1
3845.29
31438.5
3915.63
182949
3938.75
3440.58
10025.3
3639.55
12998.3
3728.99
17931.1
3776.68
32033
3754.42
3365.96
8204.7
3392
7702.73
3325.92
7268.26
3327.49
7256.97
3265.26
3505.3
11536.9
3753.41
17735.9
3825.43
29902.3
3831.09
75688.1
3462.65
9681.57
3631.61
11124.3
3646.45
12122.3
3585.55
3358.7
7949.77
3386.77
7458.42
3328.05
6979.95
)
;

boundaryField
{
    inlet
    {
        type            zeroGradient;
    }
    outlet
    {
        type            zeroGradient;
    }
    wall
    {
        type            zeroGradient;
    }
    procBoundary2to0
    {
        type            processor;
        value           nonuniform List<scalar> 
44
(
6394.24
3186.79
5734.12
3076.5
5390.94
3037.99
3365.32
7555.29
3227.62
3227.62
10723.7
3664.36
14374.9
3745.38
21281.6
3714.64
3485.39
9717.25
3572.49
10723.7
3664.36
3664.36
20569.3
3763.15
29023.1
3755.38
3530.85
11071.5
3729.98
15510.4
3798.17
20569.3
3763.15
3763.15
37023.5
3733.76
3503.01
11086.9
3748.22
17090
3789.87
25616.9
3780.11
37023.5
)
;
    }
    procBoundary2to3
    {
        type            processor;
        value           nonuniform List<scalar> 
12
(
4875.92
6454.01
4916.25
3810.49
16206.5
47952.9
10934.9
5359.84
27936.5
1e+10
93690.4
7645.38
)
;
    }
    procBoundary2to6
    {
        type            processor;
        value           nonuniform List<scalar> 
32
(
3791.84
12436.7
3486.84
3221.66
6601.26
3128.43
3574.46
12630.9
3860.33
28183.3
3996.87
176099
4038.64
3791.84
12436.7
1e+10
3484.23
10783.8
3683.98
15783.4
3787.23
26630.3
12436.7
3221.66
3825.58
3369.87
8158.31
3394.26
8015.14
3431.99
3221.66
8436.02
)
;
    }
}


// ************************************************************************* //
