/*--------------------------------*- C++ -*----------------------------------*\
| =========                 |                                                 |
| \\      /  F ield         | OpenFOAM: The Open Source CFD Toolbox           |
|  \\    /   O peration     | Version:  4.x                                   |
|   \\  /    A nd           | Web:      www.OpenFOAM.org                      |
|    \\/     M anipulation  |                                                 |
\*---------------------------------------------------------------------------*/
FoamFile
{
    version     2.0;
    format      ascii;
    class       volScalarField;
    location    "48.5";
    object      p_rgh;
}
// * * * * * * * * * * * * * * * * * * * * * * * * * * * * * * * * * * * * * //

dimensions      [1 -1 -2 0 0 0 0];

internalField   nonuniform List<scalar> 
114
(
74.4055
95.0327
56.0036
87.9598
37.2716
81.2099
109.235
92.2497
102.495
74.6182
95.4975
56.4335
88.4714
37.8646
81.6508
108.805
92.0055
102.088
74.3654
95.1116
56.2286
88.1538
37.7327
81.3161
108.515
91.8972
101.869
74.3253
94.9576
56.3427
88.0844
38.0125
81.3138
56.2046
88.5579
37.2846
81.6076
110.106
92.7879
103.327
74.8822
96.2251
56.5841
89.1195
37.8492
82.1273
109.623
92.4349
102.761
74.4996
95.6051
56.2092
88.4708
37.4971
81.5354
109.181
92.2428
102.403
74.4424
95.3509
56.3086
88.3365
37.788
81.4825
37.8919
81.6148
110.949
93.2679
104.025
75.5549
96.6729
57.5146
89.2055
39.2025
81.7535
110.509
93.081
103.649
75.2009
96.3522
57.0351
89.1381
38.5434
81.97
110.025
92.7913
103.124
75.0269
95.9307
57.0876
88.7743
38.6258
81.8278
111.559
93.7452
104.405
75.6826
96.9324
57.4589
89.4476
39.1628
110.928
93.2702
103.735
75.2239
96.2549
56.8439
88.7879
110.402
93.0354
103.33
75.1358
95.9725
56.8687
)
;

boundaryField
{
    inlet
    {
        type            fixedFluxPressure;
        gradient        nonuniform List<scalar> 
12
(
-3.89197e-06
-4.53653e-07
-7.07213e-07
-3.64543e-07
-3.31258e-07
-2.32111e-07
-3.61997e-07
-2.35881e-07
-2.05252e-07
-3.36679e-07
-1.27181e-07
-5.65693e-08
)
;
        value           nonuniform List<scalar> 
12
(
109.235
108.805
108.515
110.106
109.623
109.181
110.949
110.509
110.025
111.559
110.928
110.402
)
;
    }
    outlet
    {
        type            fixedValue;
        value           nonuniform 0();
    }
    wall
    {
        type            fixedFluxPressure;
        gradient        nonuniform List<scalar> 
66
(
1.71026e-07
-1.39375e-07
-3.39841e-07
-4.42739e-07
4.12111e-07
-2.08919e-07
-4.8318e-07
-1.01266e-06
-2.13453e-06
-1.9601e-06
-1.47996e-06
-1.89106e-06
-8.34426e-07
-2.39745e-06
-1.35516e-06
-1.70823e-06
4.57596e-07
-3.81874e-06
-2.56646e-06
-2.067e-06
6.45283e-07
-3.55817e-06
-2.82229e-06
-3.05034e-06
-1.96635e-06
-1.22556e-05
-8.77143e-06
-7.92675e-06
-2.9881e-06
-8.91637e-06
-7.7051e-06
-6.38049e-06
-4.03866e-06
-2.10757e-07
-5.45274e-08
-2.18648e-07
-2.84234e-07
-2.56133e-07
-2.63565e-07
-5.40736e-07
-8.60104e-07
4.26527e-08
-2.9412e-07
-3.0423e-07
-2.17586e-07
6.39779e-08
-1.10857e-07
-8.54704e-07
-1.13425e-06
-1.85292e-06
-6.49605e-07
-5.97384e-07
-6.08399e-07
-1.6538e-06
-1.99529e-06
-1.64442e-06
-1.08912e-06
-1.15963e-06
-1.06805e-06
-6.77523e-07
-7.18845e-06
-2.77334e-06
-2.71323e-06
-3.4878e-06
-1.13091e-06
-5.22196e-07
)
;
        value           nonuniform List<scalar> 
66
(
109.235
108.805
108.515
92.2497
92.0055
91.8972
102.495
102.088
101.869
74.4055
74.6182
74.3654
74.3253
95.0327
95.4975
95.1116
94.9576
56.0036
56.4335
56.2286
56.3427
87.9598
88.4714
88.1538
88.0844
37.2716
37.8646
37.7327
38.0125
81.2099
81.6508
81.3161
81.3138
108.515
109.181
110.025
110.402
91.8972
92.2428
92.7913
93.0354
101.869
102.403
103.124
103.33
74.3253
74.4424
75.0269
75.1358
94.9576
95.3509
95.9307
95.9725
56.3427
56.3086
57.0876
56.8687
88.0844
88.3365
88.7743
38.0125
37.788
38.6258
81.3138
81.4825
81.8278
)
;
    }
    procBoundary2to0
    {
        type            processor;
        value           nonuniform List<scalar> 
44
(
74.4604
95.1556
56.1759
88.2117
37.9193
81.521
109.045
92.1439
102.236
102.236
74.7431
95.8774
56.5039
89.0102
37.9782
82.137
110.018
92.5568
103.078
74.7431
95.8774
95.8774
56.6214
88.7424
38.2731
81.7612
110.869
93.133
103.772
75.1482
96.245
56.6214
88.7424
88.7424
38.7493
81.9651
111.413
93.696
104.296
75.5717
96.677
57.2792
89.0935
38.7493
)
;
    }
    procBoundary2to3
    {
        type            processor;
        value           nonuniform List<scalar> 
12
(
18.2499
19.4711
18.6329
19.2318
18.2054
19.408
18.4493
18.9125
19.2093
21.3451
19.9089
20.0542
)
;
    }
    procBoundary2to6
    {
        type            processor;
        value           nonuniform List<scalar> 
32
(
82.1084
38.0921
81.587
88.6526
38.3949
81.6048
112.187
93.9669
104.866
76.4062
97.1168
58.3618
89.1913
82.1084
38.0921
40.5515
111.564
93.7031
104.42
75.9102
96.9498
57.6519
38.0921
88.6526
89.4567
110.96
93.4399
103.872
75.8105
96.5587
88.6526
57.6033
)
;
    }
}


// ************************************************************************* //
