/*--------------------------------*- C++ -*----------------------------------*\
| =========                 |                                                 |
| \\      /  F ield         | OpenFOAM: The Open Source CFD Toolbox           |
|  \\    /   O peration     | Version:  4.x                                   |
|   \\  /    A nd           | Web:      www.OpenFOAM.org                      |
|    \\/     M anipulation  |                                                 |
\*---------------------------------------------------------------------------*/
FoamFile
{
    version     2.0;
    format      ascii;
    class       volScalarField;
    location    "48.5";
    object      particleRelTemp;
}
// * * * * * * * * * * * * * * * * * * * * * * * * * * * * * * * * * * * * * //

dimensions      [0 0 0 0 0 0 0];

internalField   nonuniform List<scalar> 
114
(
-3.88969e-12
-3.62817e-12
-3.10853e-12
-2.72895e-12
-2.16477e-12
-2.00598e-12
-4.44229e-12
-4.29896e-12
-4.13946e-12
-3.8979e-12
-3.58804e-12
-3.20795e-12
-2.8783e-12
-2.47235e-12
-2.1614e-12
-4.48629e-12
-4.36625e-12
-4.1905e-12
-4.00565e-12
-3.72194e-12
-3.46732e-12
-3.14243e-12
-2.71349e-12
-2.54263e-12
-4.48785e-12
-4.41307e-12
-4.29041e-12
-4.12873e-12
-3.89996e-12
-3.7691e-12
-3.41191e-12
-3.1722e-12
-2.98403e-12
-2.92268e-12
-2.37412e-12
-1.84653e-12
-1.33207e-12
-4.45977e-12
-4.28713e-12
-4.04367e-12
-3.7619e-12
-3.4565e-12
-2.96542e-12
-2.55341e-12
-2.00131e-12
-1.5514e-12
-4.46061e-12
-4.3129e-12
-4.12468e-12
-3.87091e-12
-3.58665e-12
-3.28197e-12
-2.88529e-12
-2.43766e-12
-2.07491e-12
-4.46713e-12
-4.35631e-12
-4.20233e-12
-4.00843e-12
-3.79988e-12
-3.54909e-12
-3.25692e-12
-2.83345e-12
-2.61012e-12
-1.27279e-12
-6.93279e-13
-4.41231e-12
-4.2417e-12
-3.96009e-12
-3.63023e-12
-3.2237e-12
-2.68111e-12
-2.16578e-12
-1.55111e-12
-1.06015e-12
-4.45139e-12
-4.27488e-12
-4.00089e-12
-3.75154e-12
-3.34644e-12
-2.97131e-12
-2.55311e-12
-2.00973e-12
-1.3146e-12
-4.45648e-12
-4.31143e-12
-4.12502e-12
-3.84636e-12
-3.61465e-12
-3.28075e-12
-2.89855e-12
-2.50237e-12
-1.97226e-12
-4.39745e-12
-4.14578e-12
-3.87727e-12
-3.57082e-12
-3.14803e-12
-2.57442e-12
-1.96497e-12
-1.05539e-12
-4.44221e-12
-4.22683e-12
-4.01875e-12
-3.66981e-12
-3.29696e-12
-2.84099e-12
-2.50764e-12
-4.46284e-12
-4.29555e-12
-4.06717e-12
-3.83015e-12
-3.52627e-12
-3.11864e-12
)
;

boundaryField
{
    inlet
    {
        type            calculated;
        value           nonuniform List<scalar> 
12
(
-4.44229e-12
-4.48629e-12
-4.48785e-12
-4.45977e-12
-4.46061e-12
-4.46713e-12
-4.41231e-12
-4.45139e-12
-4.45648e-12
-4.39745e-12
-4.44221e-12
-4.46284e-12
)
;
    }
    outlet
    {
        type            calculated;
        value           nonuniform 0();
    }
    wall
    {
        type            calculated;
        value           nonuniform List<scalar> 
66
(
-4.44229e-12
-4.48629e-12
-4.48785e-12
-4.29896e-12
-4.36625e-12
-4.41307e-12
-4.13946e-12
-4.1905e-12
-4.29041e-12
-3.88969e-12
-3.8979e-12
-4.00565e-12
-4.12873e-12
-3.62817e-12
-3.58804e-12
-3.72194e-12
-3.89996e-12
-3.10853e-12
-3.20795e-12
-3.46732e-12
-3.7691e-12
-2.72895e-12
-2.8783e-12
-3.14243e-12
-3.41191e-12
-2.16477e-12
-2.47235e-12
-2.71349e-12
-3.1722e-12
-2.00598e-12
-2.1614e-12
-2.54263e-12
-2.98403e-12
-4.48785e-12
-4.46713e-12
-4.45648e-12
-4.46284e-12
-4.41307e-12
-4.35631e-12
-4.31143e-12
-4.29555e-12
-4.29041e-12
-4.20233e-12
-4.12502e-12
-4.06717e-12
-4.12873e-12
-4.00843e-12
-3.84636e-12
-3.83015e-12
-3.89996e-12
-3.79988e-12
-3.61465e-12
-3.52627e-12
-3.7691e-12
-3.54909e-12
-3.28075e-12
-3.11864e-12
-3.41191e-12
-3.25692e-12
-2.89855e-12
-3.1722e-12
-2.83345e-12
-2.50237e-12
-2.98403e-12
-2.61012e-12
-1.97226e-12
)
;
    }
    procBoundary2to0
    {
        type            processor;
        value           nonuniform List<scalar> 
44
(
-3.85579e-12
-3.59962e-12
-3.24921e-12
-2.78461e-12
-2.33542e-12
-1.9496e-12
-4.47657e-12
-4.27766e-12
-4.19264e-12
-4.19264e-12
-3.62758e-12
-3.33738e-12
-3.07523e-12
-2.46987e-12
-1.93554e-12
-1.31178e-12
-4.4156e-12
-4.21618e-12
-3.96464e-12
-3.62758e-12
-3.33738e-12
-3.33738e-12
-2.69909e-12
-1.84918e-12
-1.33776e-12
-9.51601e-13
-4.39724e-12
-4.15437e-12
-3.87815e-12
-3.57945e-12
-3.12382e-12
-2.69909e-12
-1.84918e-12
-1.84918e-12
-1.15662e-12
-4.32389e-13
-4.39012e-12
-4.18848e-12
-3.88523e-12
-3.46341e-12
-3.07194e-12
-2.45968e-12
-1.64033e-12
-1.15662e-12
)
;
    }
    procBoundary2to3
    {
        type            processor;
        value           nonuniform List<scalar> 
12
(
-1.28702e-12
-1.55991e-12
-2.04434e-12
-2.65834e-12
-5.58497e-13
-9.02589e-13
-1.58058e-12
-1.98535e-12
3.02491e-13
-1.7613e-13
-5.64013e-13
-1.19544e-12
)
;
    }
    procBoundary2to6
    {
        type            processor;
        value           nonuniform List<scalar> 
32
(
-5.93908e-13
-1.91255e-12
-9.63728e-13
-2.80583e-12
-2.22965e-12
-1.6701e-12
-4.3812e-12
-4.17412e-12
-3.86918e-12
-3.47267e-12
-3.02942e-12
-2.55155e-12
-2.10839e-12
-5.93908e-13
-1.91255e-12
-1.46147e-12
-4.39715e-12
-4.25639e-12
-4.00228e-12
-3.65019e-12
-3.31599e-12
-2.8847e-12
-1.91255e-12
-2.80583e-12
-2.32923e-12
-4.44894e-12
-4.29172e-12
-4.11079e-12
-3.78148e-12
-3.52454e-12
-2.80583e-12
-3.10997e-12
)
;
    }
}


// ************************************************************************* //
