/*--------------------------------*- C++ -*----------------------------------*\
| =========                 |                                                 |
| \\      /  F ield         | OpenFOAM: The Open Source CFD Toolbox           |
|  \\    /   O peration     | Version:  4.x                                   |
|   \\  /    A nd           | Web:      www.OpenFOAM.org                      |
|    \\/     M anipulation  |                                                 |
\*---------------------------------------------------------------------------*/
FoamFile
{
    version     2.0;
    format      ascii;
    class       volVectorField;
    location    "48.5";
    object      UsNext;
}
// * * * * * * * * * * * * * * * * * * * * * * * * * * * * * * * * * * * * * //

dimensions      [0 1 -1 0 0 0 0];

internalField   nonuniform List<vector> 
114
(
(6.92109e-10 -2.88518e-11 1.53122e-10)
(9.95813e-10 -9.74145e-11 3.72143e-10)
(1.24821e-09 -1.46463e-10 3.40101e-10)
(1.52925e-09 -2.16917e-10 5.71715e-10)
(1.97576e-09 -1.26598e-09 1.18239e-09)
(2.26166e-09 -1.99847e-09 1.5044e-09)
(1.14217e-09 -2.57145e-10 -2.48562e-11)
(2.81488e-10 5.54147e-11 2.67986e-11)
(5.37724e-10 -4.70613e-11 7.11735e-11)
(6.64427e-10 -9.92568e-11 1.03578e-10)
(9.04493e-10 -2.54244e-10 2.00975e-10)
(1.26483e-09 -2.55967e-10 1.93994e-10)
(1.80125e-09 -5.51614e-10 4.24766e-10)
(1.8366e-09 -8.24792e-10 6.81164e-10)
(1.85932e-09 -1.3664e-09 1.19321e-09)
(1.16155e-10 -8.07737e-12 2.06318e-11)
(1.40763e-10 4.12177e-11 -2.68681e-11)
(4.5197e-10 3.93557e-11 1.54038e-10)
(6.28816e-10 -5.07471e-11 1.49907e-10)
(9.00318e-10 -1.98974e-10 2.66642e-10)
(1.05544e-09 -3.38188e-10 1.83557e-10)
(1.54973e-09 -2.12001e-10 4.89845e-10)
(1.51955e-09 -6.33136e-10 7.51366e-10)
(1.94345e-09 -9.84148e-10 1.06142e-09)
(1.97507e-10 -3.1824e-11 5.13157e-11)
(-2.8423e-11 -1.87278e-11 1.52756e-11)
(2.33979e-10 6.79759e-12 3.40183e-10)
(8.68747e-12 5.9571e-12 7.7695e-11)
(6.63253e-10 -3.14563e-10 -7.76844e-11)
(5.90904e-10 -1.8081e-10 -7.0549e-11)
(8.82804e-10 -2.08826e-10 3.54099e-10)
(1.13535e-09 -8.63926e-10 3.59117e-10)
(1.19952e-09 -6.48282e-10 7.50672e-10)
(8.17589e-10 -5.1208e-11 3.52815e-10)
(9.85848e-10 6.03545e-12 5.77706e-10)
(1.4004e-09 -6.21314e-10 1.02917e-09)
(1.57557e-09 -9.73333e-10 1.47284e-09)
(1.03718e-10 6.90344e-11 -8.51569e-12)
(2.58603e-10 1.02609e-10 5.25843e-12)
(4.21031e-10 5.22858e-11 1.83672e-11)
(4.95211e-10 -2.89101e-11 1.00099e-10)
(6.16752e-10 -1.87014e-10 1.79244e-10)
(9.19777e-10 -7.16276e-11 9.14456e-11)
(1.25241e-09 -2.03086e-10 3.76813e-10)
(1.37164e-09 -4.75715e-10 5.89228e-10)
(1.63322e-09 -8.73401e-10 9.42379e-10)
(9.83023e-11 2.7328e-11 -3.942e-11)
(1.89664e-10 3.67471e-11 -5.59332e-11)
(3.43378e-10 -2.88948e-13 -2.51769e-11)
(4.49908e-10 7.42929e-12 5.94435e-11)
(5.91121e-10 -1.68824e-10 -3.33858e-11)
(7.78987e-10 -2.22075e-10 1.61085e-10)
(1.02339e-09 -2.73756e-10 3.30434e-10)
(1.13091e-09 -3.62568e-10 6.19168e-10)
(1.38891e-09 -5.96079e-10 7.21168e-10)
(5.31939e-11 -8.00122e-12 -1.48949e-11)
(1.08209e-10 -1.69428e-11 -5.17439e-11)
(2.21014e-10 -4.31063e-11 -6.38992e-11)
(3.03613e-10 -8.16595e-12 -2.93413e-11)
(4.29194e-10 -9.88143e-11 -2.39455e-10)
(4.32298e-10 -1.6275e-10 4.20183e-11)
(5.94644e-10 -1.66872e-10 2.25073e-10)
(7.19194e-10 -2.40508e-10 2.64354e-10)
(6.1013e-10 -1.83144e-10 2.21364e-10)
(9.75661e-10 1.61776e-10 1.11286e-09)
(1.13254e-09 7.85328e-12 1.58946e-09)
(1.05106e-10 4.00631e-11 6.72562e-11)
(1.63517e-10 1.31718e-11 1.19998e-10)
(2.93849e-10 -7.56319e-12 1.17046e-10)
(2.47208e-10 -3.44237e-11 2.00993e-10)
(3.73037e-10 -1.40905e-10 2.82266e-10)
(5.71397e-10 1.7061e-11 2.64391e-10)
(7.45054e-10 -6.50823e-11 4.99771e-10)
(1.03765e-09 4.37145e-12 6.2691e-10)
(1.20401e-09 -2.54631e-10 7.20927e-10)
(6.36091e-11 4.5412e-11 2.76641e-11)
(4.21264e-11 -2.01466e-11 1.13077e-10)
(1.36331e-10 4.08362e-11 9.56199e-11)
(1.32268e-10 4.83163e-11 1.56072e-10)
(2.92241e-10 -6.22656e-11 1.61188e-10)
(4.61572e-10 -7.59628e-11 1.98897e-10)
(6.91106e-10 -2.28857e-10 3.83442e-10)
(8.55508e-10 -3.98512e-12 5.47226e-10)
(1.29363e-09 -3.3689e-10 5.36802e-10)
(5.45705e-11 -3.14144e-11 8.86749e-12)
(4.99744e-11 -3.1514e-11 1.46783e-11)
(5.82068e-11 -4.27131e-11 8.71209e-12)
(9.57661e-11 -5.25604e-11 6.79839e-12)
(2.80705e-10 -8.54368e-11 2.32176e-12)
(2.6338e-10 -1.06922e-10 1.04217e-10)
(4.19439e-10 -9.56315e-11 2.1237e-10)
(5.08082e-10 -1.76739e-10 3.12675e-10)
(8.24667e-10 -7.51677e-11 3.39154e-10)
(9.60487e-11 3.4414e-11 7.84891e-11)
(2.35984e-10 -4.62059e-11 1.67738e-10)
(3.4623e-10 -9.52495e-11 1.89893e-10)
(3.64283e-10 -6.61752e-11 1.92133e-10)
(5.05148e-10 -2.84554e-12 2.81357e-10)
(7.47838e-10 -2.27745e-12 2.80965e-10)
(9.94401e-10 1.44634e-10 4.62997e-10)
(1.50597e-09 1.67598e-10 5.20166e-10)
(3.67286e-11 4.61821e-11 3.43098e-11)
(1.49754e-10 -3.05983e-11 1.44897e-10)
(2.00491e-10 -2.64939e-11 1.49982e-10)
(2.53722e-10 -1.74984e-11 1.63269e-10)
(3.59546e-10 -1.04554e-10 1.90166e-10)
(5.16048e-10 -8.95128e-12 2.29177e-10)
(6.97715e-10 -7.65317e-11 3.9103e-10)
(1.68429e-11 -4.05735e-11 1.56012e-11)
(3.34375e-11 -5.1314e-11 2.29436e-11)
(7.98047e-11 -3.02933e-11 7.02612e-11)
(7.61618e-11 -7.12473e-11 4.66098e-11)
(2.21279e-10 -8.57117e-11 9.08134e-11)
(2.18647e-10 -7.28222e-11 9.27077e-11)
)
;

boundaryField
{
    inlet
    {
        type            calculated;
        value           nonuniform List<vector> 
12
(
(1.14217e-09 -2.57145e-10 -2.48562e-11)
(1.16155e-10 -8.07737e-12 2.06318e-11)
(1.97507e-10 -3.1824e-11 5.13157e-11)
(1.03718e-10 6.90344e-11 -8.51569e-12)
(9.83023e-11 2.7328e-11 -3.942e-11)
(5.31939e-11 -8.00122e-12 -1.48949e-11)
(1.05106e-10 4.00631e-11 6.72562e-11)
(6.36091e-11 4.5412e-11 2.76641e-11)
(5.45705e-11 -3.14144e-11 8.86749e-12)
(9.60487e-11 3.4414e-11 7.84891e-11)
(3.67286e-11 4.61821e-11 3.43098e-11)
(1.68429e-11 -4.05735e-11 1.56012e-11)
)
;
    }
    outlet
    {
        type            calculated;
        value           nonuniform 0();
    }
    wall
    {
        type            calculated;
        value           nonuniform List<vector> 
66
(
(1.14217e-09 -2.57145e-10 -2.48562e-11)
(1.16155e-10 -8.07737e-12 2.06318e-11)
(1.97507e-10 -3.1824e-11 5.13157e-11)
(2.81488e-10 5.54147e-11 2.67986e-11)
(1.40763e-10 4.12177e-11 -2.68681e-11)
(-2.8423e-11 -1.87278e-11 1.52756e-11)
(5.37724e-10 -4.70613e-11 7.11735e-11)
(4.5197e-10 3.93557e-11 1.54038e-10)
(2.33979e-10 6.79759e-12 3.40183e-10)
(6.92109e-10 -2.88518e-11 1.53122e-10)
(6.64427e-10 -9.92568e-11 1.03578e-10)
(6.28816e-10 -5.07471e-11 1.49907e-10)
(8.68747e-12 5.9571e-12 7.7695e-11)
(9.95813e-10 -9.74145e-11 3.72143e-10)
(9.04493e-10 -2.54244e-10 2.00975e-10)
(9.00318e-10 -1.98974e-10 2.66642e-10)
(6.63253e-10 -3.14563e-10 -7.76844e-11)
(1.24821e-09 -1.46463e-10 3.40101e-10)
(1.26483e-09 -2.55967e-10 1.93994e-10)
(1.05544e-09 -3.38188e-10 1.83557e-10)
(5.90904e-10 -1.8081e-10 -7.0549e-11)
(1.52925e-09 -2.16917e-10 5.71715e-10)
(1.80125e-09 -5.51614e-10 4.24766e-10)
(1.54973e-09 -2.12001e-10 4.89845e-10)
(8.82804e-10 -2.08826e-10 3.54099e-10)
(1.97576e-09 -1.26598e-09 1.18239e-09)
(1.8366e-09 -8.24792e-10 6.81164e-10)
(1.51955e-09 -6.33136e-10 7.51366e-10)
(1.13535e-09 -8.63926e-10 3.59117e-10)
(2.26166e-09 -1.99847e-09 1.5044e-09)
(1.85932e-09 -1.3664e-09 1.19321e-09)
(1.94345e-09 -9.84148e-10 1.06142e-09)
(1.19952e-09 -6.48282e-10 7.50672e-10)
(1.97507e-10 -3.1824e-11 5.13157e-11)
(5.31939e-11 -8.00122e-12 -1.48949e-11)
(5.45705e-11 -3.14144e-11 8.86749e-12)
(1.68429e-11 -4.05735e-11 1.56012e-11)
(-2.8423e-11 -1.87278e-11 1.52756e-11)
(1.08209e-10 -1.69428e-11 -5.17439e-11)
(4.99744e-11 -3.1514e-11 1.46783e-11)
(3.34375e-11 -5.1314e-11 2.29436e-11)
(2.33979e-10 6.79759e-12 3.40183e-10)
(2.21014e-10 -4.31063e-11 -6.38992e-11)
(5.82068e-11 -4.27131e-11 8.71209e-12)
(7.98047e-11 -3.02933e-11 7.02612e-11)
(8.68747e-12 5.9571e-12 7.7695e-11)
(3.03613e-10 -8.16595e-12 -2.93413e-11)
(9.57661e-11 -5.25604e-11 6.79839e-12)
(7.61618e-11 -7.12473e-11 4.66098e-11)
(6.63253e-10 -3.14563e-10 -7.76844e-11)
(4.29194e-10 -9.88143e-11 -2.39455e-10)
(2.80705e-10 -8.54368e-11 2.32176e-12)
(2.21279e-10 -8.57117e-11 9.08134e-11)
(5.90904e-10 -1.8081e-10 -7.0549e-11)
(4.32298e-10 -1.6275e-10 4.20183e-11)
(2.6338e-10 -1.06922e-10 1.04217e-10)
(2.18647e-10 -7.28222e-11 9.27077e-11)
(8.82804e-10 -2.08826e-10 3.54099e-10)
(5.94644e-10 -1.66872e-10 2.25073e-10)
(4.19439e-10 -9.56315e-11 2.1237e-10)
(1.13535e-09 -8.63926e-10 3.59117e-10)
(7.19194e-10 -2.40508e-10 2.64354e-10)
(5.08082e-10 -1.76739e-10 3.12675e-10)
(1.19952e-09 -6.48282e-10 7.50672e-10)
(6.1013e-10 -1.83144e-10 2.21364e-10)
(8.24667e-10 -7.51677e-11 3.39154e-10)
)
;
    }
    procBoundary2to0
    {
        type            processor;
        value           nonuniform List<vector> 
44
(
(9.4539e-10 -2.10583e-10 1.5139e-10)
(9.62121e-10 -3.64214e-10 2.17553e-10)
(8.12787e-10 -1.22856e-10 3.37582e-10)
(1.03277e-09 -1.66528e-10 6.3464e-10)
(1.69517e-09 -9.23607e-10 1.47395e-09)
(2.12494e-09 -2.0278e-09 2.3645e-09)
(1.94855e-10 3.36752e-10 1.10671e-10)
(4.42855e-10 2.3258e-10 1.20795e-10)
(6.09744e-10 7.23471e-11 1.12726e-10)
(6.09744e-10 7.23471e-11 1.12726e-10)
(6.49144e-10 -3.57054e-13 1.76323e-10)
(7.34154e-10 -1.12115e-10 3.13119e-10)
(6.84896e-10 -1.14434e-10 2.60808e-10)
(6.57364e-10 -8.6627e-11 6.47319e-10)
(5.11717e-10 -2.02467e-10 1.51878e-09)
(8.45335e-10 -3.17904e-10 2.98276e-09)
(1.6389e-10 2.4125e-10 1.35302e-10)
(3.73371e-10 2.45601e-10 1.2821e-10)
(5.44824e-10 1.88232e-10 1.86337e-10)
(6.49144e-10 -3.57054e-13 1.76323e-10)
(7.34154e-10 -1.12115e-10 3.13119e-10)
(7.34154e-10 -1.12115e-10 3.13119e-10)
(6.92356e-10 3.9698e-11 4.37866e-10)
(8.50836e-10 2.63469e-10 6.90877e-10)
(-2.48954e-10 5.60314e-10 1.5209e-09)
(-7.9459e-10 1.91528e-09 3.14073e-09)
(9.50912e-11 1.16004e-10 1.58631e-10)
(2.92294e-10 6.93912e-11 2.35997e-10)
(4.2069e-10 3.79769e-11 2.61881e-10)
(4.5238e-10 -3.71586e-11 2.68994e-10)
(6.22057e-10 -8.60129e-11 3.81431e-10)
(6.92356e-10 3.9698e-11 4.37866e-10)
(8.50836e-10 2.63469e-10 6.90877e-10)
(8.50836e-10 2.63469e-10 6.90877e-10)
(1.08757e-09 5.11771e-10 1.00574e-09)
(1.46877e-09 2.45066e-10 1.22747e-09)
(9.56739e-11 8.02134e-11 1.49893e-10)
(3.15837e-10 3.26099e-11 2.22469e-10)
(5.71105e-10 5.02473e-11 1.77117e-10)
(9.81731e-10 8.10186e-11 2.9299e-10)
(1.22469e-09 2.11868e-10 4.72954e-10)
(1.17749e-09 1.3398e-10 5.22782e-10)
(1.26673e-09 4.37705e-10 6.88576e-10)
(1.08757e-09 5.11771e-10 1.00574e-09)
)
;
    }
    procBoundary2to3
    {
        type            processor;
        value           nonuniform List<vector> 
12
(
(2.03495e-09 -3.47629e-09 1.80177e-09)
(1.6385e-09 -1.38251e-09 1.29154e-09)
(1.65543e-09 1.06566e-09 8.7001e-10)
(7.36974e-10 -4.04948e-10 4.91104e-10)
(2.04279e-09 -2.20434e-09 1.61521e-09)
(1.68455e-09 -9.99259e-10 1.07922e-09)
(1.5112e-09 -5.29576e-10 1.09451e-09)
(1.06637e-09 -1.88557e-10 6.22717e-10)
(1.9853e-09 -3.70459e-10 1.57268e-09)
(1.69284e-09 -4.26754e-10 1.01854e-09)
(1.72278e-09 -4.72736e-10 6.9985e-10)
(1.00594e-09 -4.51521e-10 4.10597e-10)
)
;
    }
    procBoundary2to6
    {
        type            processor;
        value           nonuniform List<vector> 
32
(
(1.68083e-09 2.65016e-10 5.42752e-10)
(1.13783e-09 1.57786e-10 3.86414e-10)
(1.48921e-09 -1.58075e-10 3.99648e-10)
(2.4005e-10 -1.43909e-11 1.45577e-10)
(5.42015e-10 4.23726e-11 2.39558e-10)
(4.60609e-10 -1.10117e-10 1.64993e-10)
(1.21391e-10 -4.18122e-11 6.53463e-11)
(2.45505e-10 -1.04424e-10 1.22471e-10)
(3.47904e-10 -1.24601e-10 9.6476e-11)
(5.09286e-10 -9.29706e-11 1.55469e-10)
(8.2188e-10 -6.66507e-11 3.09539e-10)
(1.02268e-09 1.20804e-11 1.73759e-10)
(1.16162e-09 1.5663e-10 2.31395e-10)
(1.68083e-09 2.65016e-10 5.42752e-10)
(1.13783e-09 1.57786e-10 3.86414e-10)
(1.37202e-09 1.17835e-10 3.31707e-10)
(8.93164e-11 1.90981e-11 -1.66866e-11)
(8.01778e-11 -3.13869e-11 5.75486e-11)
(2.18225e-10 -3.49998e-11 5.33396e-11)
(2.35832e-10 -5.82476e-11 9.84432e-11)
(3.78341e-10 -1.51884e-10 1.73453e-10)
(4.68297e-10 -7.53992e-11 1.68886e-10)
(1.13783e-09 1.57786e-10 3.86414e-10)
(2.4005e-10 -1.43909e-11 1.45577e-10)
(9.51706e-10 -4.24711e-11 2.60226e-10)
(2.78302e-11 -9.57584e-12 5.49898e-12)
(1.47251e-11 -7.00915e-11 2.46536e-11)
(6.52803e-11 -4.50469e-11 1.53559e-11)
(7.77425e-11 -7.17548e-11 3.00908e-11)
(1.20058e-10 -7.16536e-11 4.22317e-11)
(2.4005e-10 -1.43909e-11 1.45577e-10)
(1.64392e-10 -1.07881e-10 8.44305e-11)
)
;
    }
}


// ************************************************************************* //
