/*--------------------------------*- C++ -*----------------------------------*\
| =========                 |                                                 |
| \\      /  F ield         | OpenFOAM: The Open Source CFD Toolbox           |
|  \\    /   O peration     | Version:  4.x                                   |
|   \\  /    A nd           | Web:      www.OpenFOAM.org                      |
|    \\/     M anipulation  |                                                 |
\*---------------------------------------------------------------------------*/
FoamFile
{
    version     2.0;
    format      ascii;
    class       volScalarField;
    location    "40.5";
    object      KslNext;
}
// * * * * * * * * * * * * * * * * * * * * * * * * * * * * * * * * * * * * * //

dimensions      [1 -3 -1 0 0 0 0];

internalField   nonuniform List<scalar> 
108
(
3380.15
7964.28
3385.77
7607.1
3367.58
7306.78
3303.93
7151.91
3180
3471.97
9940.09
3649.72
12736.8
3700.73
15489.8
3678.59
19401.3
3605.73
3508.53
11172.2
3758.57
17149.3
3813.55
27212.3
3786.74
67075.6
3729.72
3488.71
11327.5
3787.72
19340.9
3876.7
48879
3895.57
1e+10
3868.13
3360.59
7876.66
3351.7
7572.73
3358.24
7306.82
3297.36
7404.74
3257.02
3442.78
9024.94
3535.93
9962.88
3572.55
11042.6
3563.31
12977.8
3534.49
3457.59
10258.4
3675.51
14104.4
3752.02
20157.5
3724.92
32893.9
3678.79
3491.64
10547.6
3702.4
14907.2
3776.89
21587.9
3755.39
32141.3
3667.31
3316.19
6978.97
3165.32
5978.81
3101.15
5553.11
3027.53
5236.96
2899.74
3368.69
7740.18
3351.52
7099.36
3286.34
6688.05
3194.98
6379.24
3079.01
3419.97
8307.82
3448.82
8181.48
3418.62
7896.35
3315.79
7499.15
3201.63
3462.38
8505.92
3491.49
8637.68
3456.34
8272.03
3326.49
7622.41
3205.48
)
;

boundaryField
{
    inlet
    {
        type            zeroGradient;
    }
    outlet
    {
        type            zeroGradient;
    }
    wall
    {
        type            zeroGradient;
    }
    procBoundary4to0
    {
        type            processor;
        value           uniform 0;
    }
    procBoundary4to5
    {
        type            processor;
        value           uniform 0;
    }
    procBoundary4to6
    {
        type            processor;
        value           uniform 0;
    }
}


// ************************************************************************* //
