/*--------------------------------*- C++ -*----------------------------------*\
| =========                 |                                                 |
| \\      /  F ield         | OpenFOAM: The Open Source CFD Toolbox           |
|  \\    /   O peration     | Version:  4.x                                   |
|   \\  /    A nd           | Web:      www.OpenFOAM.org                      |
|    \\/     M anipulation  |                                                 |
\*---------------------------------------------------------------------------*/
FoamFile
{
    version     2.0;
    format      ascii;
    class       volScalarField;
    location    "40.5";
    object      QWallFluid;
}
// * * * * * * * * * * * * * * * * * * * * * * * * * * * * * * * * * * * * * //

dimensions      [1 -1 -3 0 0 0 0];

internalField   nonuniform List<scalar> 
108
(
8.2772e+08
4.16839e+08
8.37096e+08
4.38979e+08
8.49529e+08
4.53871e+08
8.60522e+08
4.57564e+08
8.72936e+08
0
0
0
0
0
0
0
0
0
0
0
0
0
0
0
0
0
0
0
0
0
0
0
0
0
0
0
8.26844e+08
4.19152e+08
8.37774e+08
4.36406e+08
8.45368e+08
4.49793e+08
8.55201e+08
4.4231e+08
8.53687e+08
0
0
0
0
0
0
0
0
0
0
0
0
0
0
0
0
0
0
0
0
0
0
0
0
0
0
0
1.65906e+09
9.10216e+08
1.72967e+09
1.03695e+09
1.77441e+09
1.10369e+09
1.80645e+09
1.15721e+09
1.85892e+09
8.24421e+08
4.2265e+08
8.38082e+08
4.57436e+08
8.53873e+08
4.79021e+08
8.67595e+08
4.95356e+08
8.85878e+08
8.16683e+08
4.00486e+08
8.181e+08
4.07162e+08
8.26722e+08
4.18477e+08
8.394e+08
4.32612e+08
8.55103e+08
8.0834e+08
3.93505e+08
8.11768e+08
3.89955e+08
8.17164e+08
4.0109e+08
8.34313e+08
4.26368e+08
8.52027e+08
)
;

boundaryField
{
    inlet
    {
        type            calculated;
        value           uniform 0;
    }
    outlet
    {
        type            calculated;
        value           nonuniform 0();
    }
    wall
    {
        type            calculated;
        value           uniform 0;
    }
    procBoundary4to0
    {
        type            processor;
        value           nonuniform List<scalar> 
36
(
8.34761e+08
4.1202e+08
8.46604e+08
4.37398e+08
8.56157e+08
4.46194e+08
8.62911e+08
4.40276e+08
8.63134e+08
0
0
0
0
0
0
0
0
0
0
0
0
0
0
0
0
0
0
0
0
0
0
0
0
0
0
0
)
;
    }
    procBoundary4to5
    {
        type            processor;
        value           nonuniform List<scalar> 
12
(
4.51627e+08
0
0
0
4.2297e+08
0
0
0
1.22396e+09
5.0812e+08
4.3944e+08
4.28373e+08
)
;
    }
    procBoundary4to6
    {
        type            processor;
        value           nonuniform List<scalar> 
27
(
0
0
0
0
0
0
0
0
0
0
0
0
0
0
0
0
0
0
8.17171e+08
4.09138e+08
8.1926e+08
4.08682e+08
8.20407e+08
4.05847e+08
8.21956e+08
3.90105e+08
8.33571e+08
)
;
    }
}


// ************************************************************************* //
