/*--------------------------------*- C++ -*----------------------------------*\
| =========                 |                                                 |
| \\      /  F ield         | OpenFOAM: The Open Source CFD Toolbox           |
|  \\    /   O peration     | Version:  4.x                                   |
|   \\  /    A nd           | Web:      www.OpenFOAM.org                      |
|    \\/     M anipulation  |                                                 |
\*---------------------------------------------------------------------------*/
FoamFile
{
    version     2.0;
    format      ascii;
    class       volVectorField;
    location    "40.5";
    object      UsPrev;
}
// * * * * * * * * * * * * * * * * * * * * * * * * * * * * * * * * * * * * * //

dimensions      [0 1 -1 0 0 0 0];

internalField   nonuniform List<vector> 
108
(
(-2.50841e-11 1.65511e-11 -1.2252e-10)
(-7.50886e-11 5.18566e-11 -1.24352e-10)
(-1.72327e-11 6.41518e-11 -3.06916e-11)
(-1.67865e-10 9.95414e-11 7.72397e-11)
(-2.2331e-10 2.16046e-10 2.59417e-10)
(-2.80571e-10 1.25092e-10 3.15651e-10)
(-1.83313e-10 9.26316e-11 5.20283e-10)
(-4.6115e-10 1.06828e-10 7.9123e-10)
(-5.61368e-10 3.88504e-11 1.13846e-09)
(-7.96767e-12 -2.76618e-11 -1.45169e-10)
(-1.6676e-11 3.33427e-11 -2.07966e-10)
(-5.12929e-11 8.23471e-11 -6.90555e-11)
(-4.00157e-11 1.60463e-10 7.43387e-11)
(6.4011e-11 2.74569e-10 2.50788e-10)
(1.62171e-10 2.40811e-10 3.76851e-10)
(4.72932e-11 2.33585e-10 6.55611e-10)
(-1.19098e-10 2.46364e-10 1.02194e-09)
(-4.33331e-10 3.02961e-10 1.66417e-09)
(6.23237e-11 1.64073e-13 -8.83089e-11)
(2.03624e-10 1.45188e-10 -7.79735e-11)
(2.91218e-10 1.55758e-10 9.94933e-11)
(5.65551e-10 2.77431e-10 5.93769e-11)
(6.79068e-10 3.82999e-10 3.57592e-10)
(1.03724e-09 3.72875e-10 4.12507e-10)
(9.67639e-10 3.75101e-10 6.55227e-10)
(8.43442e-10 2.90478e-10 1.06729e-09)
(1.39905e-09 -3.94635e-11 1.18471e-09)
(8.00289e-11 -1.7982e-11 -6.40905e-11)
(1.85295e-10 -4.29371e-11 -1.58525e-10)
(5.49446e-10 -3.88277e-11 -2.17709e-10)
(6.73817e-10 1.80122e-10 -2.49259e-10)
(1.38614e-09 2.70946e-10 3.0191e-10)
(1.83195e-09 3.38256e-10 4.00217e-10)
(1.771e-09 3.27547e-10 5.61475e-10)
(1.90928e-09 1.42518e-10 2.76161e-10)
(2.14959e-09 1.21696e-10 7.87907e-10)
(-1.08988e-11 2.55281e-11 -6.97599e-11)
(-9.09516e-11 5.66891e-11 -9.48619e-11)
(-4.98966e-11 4.49482e-11 -2.61411e-11)
(-1.57487e-10 7.4532e-11 5.92314e-11)
(-9.97021e-11 7.96468e-11 1.24215e-10)
(-1.30535e-10 2.36393e-11 1.35278e-10)
(-1.14942e-10 1.60286e-11 2.4432e-10)
(-2.32818e-10 3.63635e-11 4.80686e-10)
(2.42391e-11 -7.52795e-11 4.68027e-10)
(-5.17213e-12 2.56808e-11 -1.07727e-10)
(-8.32906e-11 9.35457e-11 -1.03437e-10)
(-9.27491e-11 7.71374e-11 -5.02596e-11)
(-1.13553e-10 1.4782e-10 3.62012e-11)
(1.09781e-11 1.07145e-10 1.47619e-10)
(-3.95607e-11 8.24586e-11 2.55823e-10)
(6.51296e-11 2.46214e-10 4.92124e-10)
(5.33158e-11 1.87417e-10 6.6238e-10)
(2.57167e-10 -1.24619e-10 8.55307e-10)
(1.73701e-11 2.98629e-11 -2.67286e-11)
(9.13005e-12 1.16512e-10 -4.24121e-11)
(1.29373e-10 1.77441e-10 4.41122e-11)
(1.61386e-10 1.24443e-10 1.26709e-10)
(3.00236e-10 1.55535e-10 1.69143e-10)
(3.49564e-10 1.54086e-10 3.48814e-10)
(5.50597e-10 2.67434e-10 5.74893e-10)
(7.03262e-10 3.16414e-10 6.03466e-10)
(8.1864e-10 2.51353e-10 1.00222e-09)
(1.26475e-11 -2.1002e-11 -7.64711e-11)
(3.88539e-11 -3.08362e-11 -1.19019e-10)
(2.27045e-10 -1.53977e-11 -1.24769e-10)
(2.51678e-10 2.51434e-11 1.48982e-11)
(3.96223e-10 6.81298e-11 1.46774e-10)
(6.41872e-10 2.44028e-10 2.09998e-10)
(9.42239e-10 4.04779e-10 3.26871e-10)
(9.5571e-10 2.24688e-10 5.82084e-10)
(1.15338e-09 -1.21284e-11 9.28182e-10)
(-9.86919e-12 1.07721e-11 -2.68325e-11)
(-4.06982e-11 4.22429e-11 -3.99475e-11)
(-1.91169e-11 3.97655e-11 -1.43829e-11)
(-7.0288e-11 4.29049e-11 2.49843e-11)
(-6.50136e-11 4.92506e-12 4.874e-11)
(-7.81745e-11 -1.32861e-11 3.74196e-11)
(-1.11637e-10 -3.05617e-11 1.64772e-10)
(-8.81346e-11 4.68846e-12 2.3154e-10)
(7.169e-11 -4.06938e-11 1.52509e-10)
(7.74455e-12 1.27455e-11 -4.42796e-11)
(-4.78477e-11 6.33634e-11 -3.83174e-11)
(-5.41202e-11 7.85898e-11 -2.44259e-11)
(-5.00413e-11 7.6459e-11 5.53989e-12)
(2.19029e-11 4.61425e-11 6.95868e-11)
(-1.644e-10 4.45197e-11 7.26528e-11)
(2.84469e-11 1.82833e-10 1.57651e-10)
(7.12114e-12 2.37123e-11 2.9722e-10)
(1.46618e-10 -5.49954e-11 3.43567e-10)
(1.45999e-11 1.371e-11 5.78365e-13)
(2.74655e-11 1.11651e-10 -1.97234e-11)
(3.9695e-11 8.46688e-11 2.17429e-11)
(7.84996e-11 6.95372e-11 3.37588e-11)
(1.69771e-10 6.0425e-11 7.8043e-11)
(8.04528e-11 1.44353e-10 1.20617e-10)
(4.09201e-10 2.88167e-10 2.09165e-10)
(4.34537e-10 1.97124e-10 3.29466e-10)
(4.8903e-10 1.7954e-12 3.89449e-10)
(2.08099e-11 -1.54563e-11 -4.27243e-11)
(4.62357e-12 1.73552e-11 -5.22878e-11)
(1.40733e-10 8.9948e-11 -2.51985e-11)
(6.20003e-11 3.05891e-11 1.16295e-11)
(1.16192e-10 -2.01308e-11 1.62169e-11)
(2.3837e-10 4.30354e-11 1.2704e-11)
(4.3966e-10 3.52226e-10 2.587e-10)
(-4.38198e-10 1.07809e-09 2.78299e-10)
(1.08299e-09 2.25913e-10 3.4292e-10)
)
;

boundaryField
{
    inlet
    {
        type            calculated;
        value           uniform (0 0 0);
    }
    outlet
    {
        type            calculated;
        value           nonuniform 0();
    }
    wall
    {
        type            calculated;
        value           uniform (0 0 0);
    }
    procBoundary4to0
    {
        type            processor;
        value           uniform (0 0 0);
    }
    procBoundary4to5
    {
        type            processor;
        value           uniform (0 0 0);
    }
    procBoundary4to6
    {
        type            processor;
        value           uniform (0 0 0);
    }
}


// ************************************************************************* //
