/*--------------------------------*- C++ -*----------------------------------*\
| =========                 |                                                 |
| \\      /  F ield         | OpenFOAM: The Open Source CFD Toolbox           |
|  \\    /   O peration     | Version:  4.x                                   |
|   \\  /    A nd           | Web:      www.OpenFOAM.org                      |
|    \\/     M anipulation  |                                                 |
\*---------------------------------------------------------------------------*/
FoamFile
{
    version     2.0;
    format      ascii;
    class       volVectorField;
    location    "52";
    object      impParticleForces;
}
// * * * * * * * * * * * * * * * * * * * * * * * * * * * * * * * * * * * * * //

dimensions      [1 1 -2 0 0 0 0];

internalField   nonuniform List<vector> 
87
(
(0.00243728 0.000159532 -3.47421e-05)
(0.00247965 0.000389553 -2.02595e-05)
(0.00247117 0.000165168 -2.63404e-05)
(0.00251151 8.28223e-05 -2.80041e-05)
(0.00246584 4.65814e-05 -2.8675e-05)
(0.00246718 2.77377e-05 -2.96883e-05)
(0.00245399 1.59752e-05 -3.61306e-05)
(0.0024381 6.6528e-06 -3.966e-05)
(0.00231375 -4.97728e-06 -5.61185e-05)
(0.00247134 9.08983e-05 -3.81624e-05)
(0.00249984 0.000140905 -3.10297e-05)
(0.00250648 9.54563e-05 -2.92486e-05)
(0.0025366 5.98147e-05 -2.77318e-05)
(0.00250004 3.67191e-05 -2.74651e-05)
(0.00251129 2.35903e-05 -2.7513e-05)
(0.00248463 1.23373e-05 -3.40442e-05)
(0.0024848 8.15419e-06 -3.73826e-05)
(0.00233333 -9.50744e-06 -6.05983e-05)
(0.00247542 5.08688e-05 -3.91746e-05)
(0.00251386 6.48817e-05 -3.3406e-05)
(0.00249934 5.45903e-05 -2.89447e-05)
(0.00253296 4.03082e-05 -2.57856e-05)
(0.00249045 2.77802e-05 -2.44989e-05)
(0.00249851 1.88963e-05 -2.4444e-05)
(0.00245625 1.08329e-05 -3.20745e-05)
(0.00244833 6.91037e-06 -3.64444e-05)
(0.00231965 -2.36476e-06 -6.06494e-05)
(0.00246187 9.10214e-05 -3.68109e-05)
(0.00247896 0.000141583 -2.96111e-05)
(0.00248265 9.71359e-05 -2.7573e-05)
(0.00251369 6.14942e-05 -2.61384e-05)
(0.00247686 3.93008e-05 -2.5279e-05)
(0.00248238 2.53876e-05 -2.53328e-05)
(0.00245899 1.54926e-05 -2.96253e-05)
(0.00243194 6.62462e-06 -3.26696e-05)
(0.00230341 -3.33585e-06 -4.8119e-05)
(0.00250531 6.18291e-05 -3.84284e-05)
(0.0025158 8.26934e-05 -3.18518e-05)
(0.00251245 6.71715e-05 -2.80934e-05)
(0.00255663 4.80372e-05 -2.56153e-05)
(0.00252431 3.26202e-05 -2.38651e-05)
(0.00252616 2.28558e-05 -2.25735e-05)
(0.00249573 1.32091e-05 -2.76464e-05)
(0.00248513 8.99612e-06 -3.13241e-05)
(0.00232409 -6.52709e-06 -5.21121e-05)
(0.00249179 3.94464e-05 -3.82366e-05)
(0.00252757 4.80888e-05 -3.20102e-05)
(0.0025053 4.32528e-05 -2.73561e-05)
(0.00252829 3.41583e-05 -2.3488e-05)
(0.00249002 2.48717e-05 -2.12773e-05)
(0.00251184 1.75141e-05 -2.03516e-05)
(0.00247343 1.10458e-05 -2.53365e-05)
(0.00246909 5.74796e-06 -3.03268e-05)
(0.00232434 -4.86073e-07 -5.48149e-05)
(0.00242897 4.90028e-05 -3.50479e-05)
(0.00246001 6.41949e-05 -2.98233e-05)
(0.0024596 5.53518e-05 -2.613e-05)
(0.00249003 4.21478e-05 -2.32787e-05)
(0.00244039 2.96645e-05 -1.99422e-05)
(0.00244677 2.06155e-05 -1.81855e-05)
(0.00240082 1.22436e-05 -1.97371e-05)
(0.002379 5.54557e-06 -1.70005e-05)
(0.00226131 -4.12862e-06 -2.73498e-05)
(0.00246345 3.74421e-05 -3.54891e-05)
(0.00249435 4.6986e-05 -3.00186e-05)
(0.00247292 4.28751e-05 -2.53794e-05)
(0.00251106 3.48039e-05 -2.15219e-05)
(0.00247426 2.526e-05 -1.90961e-05)
(0.00248396 1.89168e-05 -1.63017e-05)
(0.00242722 1.06389e-05 -1.8303e-05)
(0.0024126 6.81269e-06 -1.87449e-05)
(0.00228199 -6.04471e-06 -3.21537e-05)
(0.00246012 2.68768e-05 -3.48988e-05)
(0.00249056 3.22372e-05 -2.88622e-05)
(0.00246159 3.08656e-05 -2.41602e-05)
(0.00250588 2.65769e-05 -2.01094e-05)
(0.00246096 2.03575e-05 -1.73608e-05)
(0.00247508 1.57383e-05 -1.48199e-05)
(0.0024143 1.04366e-05 -1.67413e-05)
(0.00239596 7.83989e-06 -1.96215e-05)
(0.00228448 -1.02345e-06 -3.44509e-05)
(0.00239895 2.59863e-05 -2.85668e-05)
(0.00240732 3.30508e-05 -2.30356e-05)
(0.002404 3.21902e-05 -1.86174e-05)
(0.00243303 2.17451e-05 -2.90147e-05)
(0.002468 2.77202e-05 -2.3953e-05)
(0.00241652 1.75833e-05 -2.86896e-05)
)
;

boundaryField
{
    inlet
    {
        type            zeroGradient;
    }
    outlet
    {
        type            zeroGradient;
    }
    wall
    {
        type            zeroGradient;
    }
    procBoundary1to0
    {
        type            processor;
        value           nonuniform List<vector> 
12
(
(0.00241358 7.18942e-05 -4.41255e-05)
(0.00247344 5.00055e-05 -4.6488e-05)
(0.00249017 3.30379e-05 -4.72481e-05)
(0.00245992 4.96054e-05 -4.45055e-05)
(0.00250909 3.68492e-05 -4.60757e-05)
(0.00249449 2.66294e-05 -4.55824e-05)
(0.00243643 2.95151e-05 -4.14639e-05)
(0.00248544 2.32712e-05 -4.26154e-05)
(0.00245536 1.85846e-05 -4.11464e-05)
(0.00242265 1.56086e-05 -3.46136e-05)
(0.00245057 1.33741e-05 -3.5123e-05)
(0.00243293 1.20178e-05 -3.43223e-05)
)
;
    }
    procBoundary1to3
    {
        type            processor;
        value           nonuniform List<vector> 
27
(
(0.00249534 3.06662e-05 -3.97021e-05)
(0.0024894 3.56662e-05 -3.31842e-05)
(0.00249201 3.28403e-05 -2.81211e-05)
(0.00248406 2.70428e-05 -2.40019e-05)
(0.00246826 2.03116e-05 -2.21099e-05)
(0.00245427 1.62172e-05 -2.19477e-05)
(0.00241938 1.16433e-05 -2.87118e-05)
(0.00237635 1.1925e-05 -3.75794e-05)
(0.00228739 1.06124e-05 -5.57259e-05)
(0.00249845 2.62428e-05 -3.86948e-05)
(0.0025271 3.00056e-05 -3.24462e-05)
(0.00251169 2.83436e-05 -2.74199e-05)
(0.00252844 2.40119e-05 -2.26887e-05)
(0.00248551 1.92704e-05 -2.01105e-05)
(0.00248748 1.55087e-05 -1.82485e-05)
(0.00243529 1.30392e-05 -2.40185e-05)
(0.00242284 1.11876e-05 -2.94783e-05)
(0.00231896 1.05904e-05 -5.63359e-05)
(0.00245956 2.00231e-05 -3.49923e-05)
(0.00250074 2.24905e-05 -2.94076e-05)
(0.00246934 2.1928e-05 -2.46429e-05)
(0.0024931 1.94094e-05 -2.00307e-05)
(0.00244759 1.6568e-05 -1.69895e-05)
(0.00246026 1.42428e-05 -1.41496e-05)
(0.00240376 1.27599e-05 -1.78018e-05)
(0.00237591 1.35154e-05 -2.2186e-05)
(0.0022913 1.13522e-05 -4.01073e-05)
)
;
    }
    procBoundary1to5
    {
        type            processor;
        value           nonuniform List<vector> 
32
(
(0.00242439 2.79298e-05 -1.39065e-05)
(0.00238275 2.09206e-05 -9.73951e-06)
(0.00238393 1.4739e-05 -5.27252e-06)
(0.00232838 7.13507e-06 -2.88056e-06)
(0.00230625 -1.12567e-07 -7.37454e-08)
(0.00222431 -9.0469e-06 -2.0165e-06)
(0.002427 2.72849e-05 -1.87254e-05)
(0.00244427 2.44826e-05 -1.41022e-05)
(0.002404 1.88156e-05 -9.78384e-06)
(0.00241827 1.44659e-05 -4.73206e-06)
(0.00236138 7.20736e-06 -3.55642e-06)
(0.00234454 1.65357e-06 -7.19229e-07)
(0.00225279 -8.83939e-06 -6.03069e-06)
(0.00245053 2.15231e-05 -2.36341e-05)
(0.00241392 2.12754e-05 -1.8788e-05)
(0.00243897 1.93122e-05 -1.42279e-05)
(0.00240111 1.56507e-05 -1.02786e-05)
(0.00240006 1.22466e-05 -6.1898e-06)
(0.00235115 7.93709e-06 -4.6908e-06)
(0.00232131 3.91511e-06 -4.50326e-06)
(0.00224707 -1.91857e-06 -9.2518e-06)
(0.00239201 1.27824e-05 -2.06989e-05)
(0.00239911 1.71065e-05 -1.54372e-05)
(0.00242439 2.79298e-05 -1.39065e-05)
(0.002427 2.72849e-05 -1.87254e-05)
(0.002392 1.82293e-05 -1.05139e-05)
(0.00241952 1.11876e-05 -2.10905e-05)
(0.002427 2.72849e-05 -1.87254e-05)
(0.00245053 2.15231e-05 -2.36341e-05)
(0.00243144 1.51239e-05 -1.62309e-05)
(0.00245053 2.15231e-05 -2.36341e-05)
(0.00239875 1.03306e-05 -2.17582e-05)
)
;
    }
    procBoundary1to7
    {
        type            processor;
        value           uniform (0.00241721 1.47327e-05 -2.93603e-05);
    }
}


// ************************************************************************* //
