/*--------------------------------*- C++ -*----------------------------------*\
| =========                 |                                                 |
| \\      /  F ield         | OpenFOAM: The Open Source CFD Toolbox           |
|  \\    /   O peration     | Version:  4.x                                   |
|   \\  /    A nd           | Web:      www.OpenFOAM.org                      |
|    \\/     M anipulation  |                                                 |
\*---------------------------------------------------------------------------*/
FoamFile
{
    version     2.0;
    format      ascii;
    class       volVectorField;
    location    "52";
    object      Urel;
}
// * * * * * * * * * * * * * * * * * * * * * * * * * * * * * * * * * * * * * //

dimensions      [0 1 -1 0 0 0 0];

internalField   nonuniform List<vector> 
87
(
(-0.0254568 -5.60888e-06 0.000608149)
(-0.0268338 -5.05634e-05 0.000578703)
(-0.0259385 -0.00010864 0.00060467)
(-0.027357 -0.00011404 0.000581956)
(-0.0260993 -0.000110166 0.000753728)
(-0.0276368 -4.6266e-05 0.000704135)
(-0.0254488 0.000128499 0.00129713)
(-0.02704 0.000312298 0.00117594)
(-0.0216617 0.00102425 0.00285256)
(-0.0244205 0.000126236 0.000575076)
(-0.0258622 8.40897e-05 0.000530622)
(-0.0247971 6.66597e-05 0.000527423)
(-0.0262999 3.31186e-05 0.000478663)
(-0.0248639 0.000131721 0.000608094)
(-0.0264728 8.6599e-05 0.000524924)
(-0.0241891 0.000450863 0.00106915)
(-0.025734 0.000346479 0.00100041)
(-0.0208426 0.00155373 0.00273793)
(-0.023283 6.61993e-05 0.000503731)
(-0.024731 2.90026e-05 0.000445506)
(-0.0234857 8.75003e-06 0.000410159)
(-0.0249798 1.29255e-05 0.000328884)
(-0.0234153 9.0745e-05 0.000446429)
(-0.0249347 0.000136806 0.0003339)
(-0.0227358 0.000389654 0.000882088)
(-0.0241355 0.000444655 0.000808605)
(-0.0199153 0.00122126 0.0026487)
(-0.023439 1.21552e-05 0.00050727)
(-0.0248996 -3.95837e-05 0.000465126)
(-0.0236551 -0.00010576 0.00046201)
(-0.0251316 -0.000122808 0.000423981)
(-0.023547 -0.000133068 0.000523866)
(-0.024993 -8.85249e-05 0.000461243)
(-0.0226593 4.01839e-05 0.000893404)
(-0.023749 0.000209819 0.000766143)
(-0.0195785 0.000603866 0.00214)
(-0.0220616 0.000104783 0.000461241)
(-0.0237447 5.99441e-05 0.000400763)
(-0.0221691 2.38685e-05 0.000373207)
(-0.023949 -3.24654e-05 0.00030562)
(-0.0220594 4.56126e-05 0.00038713)
(-0.0238654 -3.72374e-05 0.00028424)
(-0.0214185 0.000257487 0.00070104)
(-0.0228466 0.000115765 0.00063513)
(-0.0190589 0.00109978 0.00217401)
(-0.0207053 5.72602e-05 0.000407908)
(-0.0225557 1.89785e-05 0.000323881)
(-0.0206616 1.67283e-05 0.000289674)
(-0.0226114 -3.95861e-06 0.000199298)
(-0.0205384 5.88765e-05 0.000256223)
(-0.0223518 8.39716e-05 0.000164143)
(-0.0200519 0.000228711 0.000552031)
(-0.0212924 0.000330754 0.000598133)
(-0.01851 0.000727055 0.00233644)
(-0.0219173 2.31918e-05 0.000510428)
(-0.0233615 -4.15083e-05 0.000463991)
(-0.0218693 -0.000102612 0.000474566)
(-0.0233568 -0.000134544 0.000410442)
(-0.0214932 -9.89899e-05 0.000520888)
(-0.0229851 -8.54878e-05 0.00034946)
(-0.0204829 9.74434e-05 0.000739431)
(-0.0216583 0.000181739 0.000438321)
(-0.0179657 0.000599274 0.00167966)
(-0.0204761 0.000118436 0.000433721)
(-0.0221971 4.67317e-05 0.000365322)
(-0.0204659 4.59252e-05 0.00035457)
(-0.0222583 -3.1833e-05 0.000258481)
(-0.0202831 8.80249e-05 0.000365917)
(-0.0220396 -1.99663e-05 0.000201415)
(-0.019632 0.000317326 0.000583961)
(-0.02102 0.000124519 0.000363265)
(-0.0176911 0.0011362 0.0016609)
(-0.0190876 7.52955e-05 0.000344831)
(-0.020972 3.45855e-05 0.000259141)
(-0.0190242 3.17897e-05 0.000251174)
(-0.0209659 -5.66625e-06 0.000173735)
(-0.0189022 6.73844e-05 0.000227918)
(-0.0206995 4.06197e-05 0.000132297)
(-0.0184585 0.00025244 0.000437108)
(-0.0196961 0.000184802 0.000364973)
(-0.0172815 0.00097215 0.00148143)
(-0.0206384 5.77366e-05 0.000290031)
(-0.0220251 -3.03069e-05 0.000217599)
(-0.0202253 -6.90313e-05 0.000181889)
(-0.0191055 9.30982e-05 0.000251943)
(-0.0208878 -3.50572e-06 0.000200116)
(-0.0179866 5.36116e-05 0.000209369)
)
;

boundaryField
{
    inlet
    {
        type            calculated;
        value           nonuniform 0();
    }
    outlet
    {
        type            calculated;
        value           nonuniform List<vector> 9((-0.0131385 0.00299496 0.0108171) (-0.0107755 0.00949353 0.0100178) (-0.0104508 0.00415405 0.0116644) (-0.00619666 -0.000908927 0.00571683) (-0.00559209 0.00544574 0.00661117) (-0.00929152 -0.000386672 0.011009) (-0.0062184 0.000171108 0.0090759) (-0.0062982 0.00778449 0.00846971) (-0.00885844 0.00698715 0.00546928));
    }
    wall
    {
        type            calculated;
        value           nonuniform List<vector> 
57
(
(9.50394e-09 7.02747e-09 2.51868e-08)
(3.19278e-09 -4.94614e-09 1.11509e-08)
(3.4752e-09 -6.15832e-09 4.56278e-09)
(-4.24841e-08 1.03641e-06 1.01463e-07)
(1.5465e-09 -8.30825e-09 2.13399e-08)
(1.69343e-09 -9.40615e-09 7.3773e-09)
(-1.19005e-08 1.21753e-09 1.63318e-08)
(-1.27129e-08 -6.88288e-09 7.72417e-09)
(1.47154e-09 -5.36559e-09 4.19454e-09)
(-6.60241e-09 -5.6877e-10 1.68158e-09)
(-2.9163e-09 -2.07812e-09 8.12467e-10)
(-9.46653e-11 -1.56638e-09 1.1851e-09)
(-2.61653e-09 2.53324e-10 1.66528e-10)
(1.86762e-10 -3.23007e-09 1.64651e-10)
(4.20397e-10 -1.24876e-09 5.10487e-11)
(-2.99989e-10 -7.53369e-10 -6.78535e-10)
(7.45325e-10 -1.97434e-10 -1.06675e-09)
(1.40597e-09 -5.70803e-10 -3.40721e-10)
(2.23189e-09 -1.30411e-09 -1.49982e-09)
(9.56853e-10 -1.16048e-09 -2.31782e-09)
(2.02477e-09 -4.9779e-10 -7.84623e-10)
(1.70151e-07 2.81038e-09 -1.08282e-08)
(-5.25306e-10 -3.72856e-09 -3.29269e-09)
(1.25441e-09 -2.06683e-09 -2.91318e-09)
(8.77315e-08 -6.42685e-09 -1.69011e-08)
(-2.72127e-09 -1.12949e-08 -7.35415e-09)
(2.79258e-09 -3.90771e-11 -8.50488e-10)
(9.50394e-09 7.02747e-09 2.51868e-08)
(-5.82291e-09 4.83087e-09 1.71477e-08)
(-1.27515e-09 2.25002e-10 3.33026e-09)
(-2.18509e-10 2.88561e-10 2.05637e-09)
(-4.24841e-08 1.03641e-06 1.01463e-07)
(3.80433e-10 3.04417e-09 3.96002e-08)
(-2.05102e-11 1.65171e-09 4.92874e-09)
(6.32389e-10 8.44944e-10 7.0675e-10)
(-1.19005e-08 1.21753e-09 1.63318e-08)
(2.45677e-09 1.70629e-09 1.46238e-08)
(8.0697e-11 1.44163e-09 6.62426e-09)
(7.37063e-10 5.61083e-10 1.64217e-09)
(-6.60241e-09 -5.6877e-10 1.68158e-09)
(1.91874e-09 -1.133e-09 9.78136e-10)
(1.56079e-09 -2.87781e-10 1.17424e-09)
(-2.61653e-09 2.53324e-10 1.66528e-10)
(3.55592e-10 1.63981e-10 5.42663e-10)
(9.43456e-10 -4.1477e-11 4.50863e-10)
(-2.99989e-10 -7.53369e-10 -6.78535e-10)
(2.67952e-10 -4.45472e-11 -4.56971e-10)
(4.23065e-10 -8.21889e-11 -3.96565e-10)
(2.23189e-09 -1.30411e-09 -1.49982e-09)
(9.38993e-10 -2.98306e-10 -1.14273e-09)
(2.48592e-10 4.68427e-11 -5.32597e-10)
(1.70151e-07 2.81038e-09 -1.08282e-08)
(7.27306e-10 -1.09752e-09 -2.77278e-09)
(-5.58267e-10 -7.28855e-11 -8.52606e-10)
(8.77315e-08 -6.42685e-09 -1.69011e-08)
(-5.50074e-11 -2.45089e-09 -5.41159e-09)
(9.64958e-11 -2.83498e-10 -2.0662e-09)
)
;
    }
    procBoundary1to0
    {
        type            processor;
        value           nonuniform List<vector> 
12
(
(-0.0261697 0.000102315 0.000688325)
(-0.02531 0.000209305 0.000662729)
(-0.0243621 0.000123022 0.000604516)
(-0.0245118 0.000114644 0.000592025)
(-0.0234663 0.00019212 0.000555739)
(-0.0224328 9.88136e-05 0.000497589)
(-0.0231949 0.00012415 0.000563021)
(-0.0220738 0.000183806 0.000499385)
(-0.0209624 0.000117108 0.000392876)
(-0.0221713 0.000138424 0.000363092)
(-0.0210011 0.000139703 0.000331117)
(-0.0199392 7.36723e-05 0.000265407)
)
;
    }
    procBoundary1to3
    {
        type            processor;
        value           nonuniform List<vector> 
27
(
(-0.0230358 7.72644e-05 0.000423209)
(-0.0244955 7.14156e-05 0.00035809)
(-0.0232321 8.62528e-05 0.000284921)
(-0.0247066 0.000129013 0.00019057)
(-0.023046 0.000225858 0.00021917)
(-0.024471 0.00027998 0.000115626)
(-0.0220105 0.000511385 0.000522805)
(-0.0232603 0.000437746 0.000546766)
(-0.0190177 0.00124763 0.00187446)
(-0.0205391 4.04254e-05 0.000396376)
(-0.0223598 2.5362e-05 0.000314201)
(-0.0205356 3.76949e-05 0.000267525)
(-0.0224498 5.2774e-05 0.000143344)
(-0.0203683 9.08514e-05 0.0002057)
(-0.022211 0.000136577 3.85718e-05)
(-0.0197048 0.000190965 0.000457942)
(-0.0211676 0.000270388 0.000364889)
(-0.0178541 0.000398539 0.00204812)
(-0.0187954 6.01369e-05 0.000339649)
(-0.020682 4.7917e-05 0.000251767)
(-0.0187294 6.21973e-05 0.00023894)
(-0.0206631 6.94848e-05 0.000137435)
(-0.018586 0.000106957 0.0001982)
(-0.0203588 0.000102185 5.07324e-05)
(-0.0180544 0.000171548 0.000366653)
(-0.0192725 8.04649e-05 0.000251487)
(-0.0168424 0.000391091 0.00151299)
)
;
    }
    procBoundary1to5
    {
        type            processor;
        value           nonuniform List<vector> 
32
(
(-0.0216257 -0.000131578 9.12271e-05)
(-0.0194697 -4.52673e-05 7.47886e-05)
(-0.0208021 -1.10961e-05 -6.24336e-05)
(-0.0183565 0.000179511 -1.52808e-05)
(-0.0191262 0.000326614 -0.000161314)
(-0.016549 0.00063871 0.000136688)
(-0.0188624 -3.83367e-06 0.000144788)
(-0.0207058 -8.44764e-05 6.49069e-05)
(-0.0185534 1.2419e-05 5.13601e-05)
(-0.0202401 -1.97753e-05 -9.72823e-05)
(-0.0178996 0.00019925 1.38441e-05)
(-0.0190089 0.000166532 -0.000188775)
(-0.0166479 0.000773408 0.000456871)
(-0.0198218 -5.77084e-06 0.000156239)
(-0.0178682 1.15387e-05 0.000120529)
(-0.0196996 -1.00976e-05 5.25186e-05)
(-0.0176687 4.04061e-05 3.26464e-05)
(-0.0193299 7.38178e-05 -6.79912e-05)
(-0.0171239 0.000177003 -1.30094e-06)
(-0.0182702 0.000292293 -6.82806e-05)
(-0.0162727 0.000503707 0.000294388)
(-0.0206513 0.000129782 6.27034e-05)
(-0.022084 7.73844e-05 -2.79498e-05)
(-0.0216257 -0.000131578 9.12271e-05)
(-0.0188624 -3.83367e-06 0.000144788)
(-0.0204862 4.46434e-05 -8.83012e-05)
(-0.0190688 0.000138452 7.18631e-05)
(-0.0188624 -3.83367e-06 0.000144788)
(-0.0198218 -5.77084e-06 0.000156239)
(-0.0208424 7.31533e-05 1.54275e-05)
(-0.0198218 -5.77084e-06 0.000156239)
(-0.0178855 8.21699e-05 8.23946e-05)
)
;
    }
    procBoundary1to7
    {
        type            processor;
        value           uniform (-0.0177586 2.3861e-05 0.000224167);
    }
}


// ************************************************************************* //
