/*--------------------------------*- C++ -*----------------------------------*\
| =========                 |                                                 |
| \\      /  F ield         | OpenFOAM: The Open Source CFD Toolbox           |
|  \\    /   O peration     | Version:  4.x                                   |
|   \\  /    A nd           | Web:      www.OpenFOAM.org                      |
|    \\/     M anipulation  |                                                 |
\*---------------------------------------------------------------------------*/
FoamFile
{
    version     2.0;
    format      ascii;
    class       volScalarField;
    location    "2.5";
    object      Deff;
}
// * * * * * * * * * * * * * * * * * * * * * * * * * * * * * * * * * * * * * //

dimensions      [0 2 -1 0 0 0 0];

internalField   nonuniform List<scalar> 
132
(
9.78865e-08
9.78602e-08
9.78882e-08
9.78022e-08
9.76075e-08
9.75736e-08
9.76316e-08
9.77467e-08
9.76485e-08
9.79744e-08
9.78074e-08
9.78511e-08
9.78492e-08
9.77072e-08
9.77398e-08
9.76734e-08
9.77124e-08
9.76618e-08
9.81589e-08
9.79478e-08
9.79367e-08
9.78993e-08
9.77815e-08
9.76884e-08
9.76759e-08
9.77173e-08
9.76969e-08
9.82784e-08
9.80516e-08
9.79243e-08
9.79966e-08
9.78663e-08
9.78078e-08
9.77314e-08
9.78436e-08
9.79772e-08
9.77758e-08
9.7681e-08
9.76478e-08
9.75887e-08
9.75098e-08
9.75343e-08
9.76029e-08
9.7992e-08
9.7751e-08
9.77248e-08
9.76933e-08
9.7582e-08
9.76013e-08
9.76096e-08
9.75634e-08
9.76486e-08
9.80194e-08
9.77846e-08
9.77945e-08
9.77956e-08
9.76426e-08
9.75492e-08
9.75046e-08
9.75971e-08
9.76111e-08
9.81104e-08
9.78591e-08
9.78702e-08
9.77983e-08
9.77209e-08
9.77204e-08
9.76553e-08
9.76612e-08
9.78485e-08
9.76507e-08
9.76264e-08
9.75557e-08
9.75998e-08
9.76555e-08
9.78442e-08
9.77496e-08
9.77041e-08
9.77295e-08
9.75757e-08
9.76115e-08
9.75679e-08
9.75154e-08
9.75897e-08
9.79243e-08
9.78066e-08
9.77446e-08
9.77238e-08
9.76001e-08
9.75945e-08
9.75633e-08
9.75988e-08
9.76126e-08
9.80818e-08
9.79165e-08
9.78148e-08
9.77772e-08
9.77529e-08
9.77582e-08
9.76309e-08
9.76841e-08
9.78323e-08
9.76801e-08
9.76708e-08
9.77168e-08
9.79219e-08
9.78693e-08
9.77069e-08
9.76905e-08
9.77318e-08
9.77984e-08
9.76603e-08
9.76593e-08
9.77481e-08
9.79831e-08
9.79074e-08
9.78406e-08
9.77874e-08
9.77102e-08
9.77136e-08
9.76436e-08
9.76939e-08
9.77198e-08
9.80376e-08
9.78967e-08
9.79129e-08
9.78633e-08
9.77732e-08
9.77483e-08
9.77141e-08
9.77893e-08
9.7987e-08
)
;

boundaryField
{
    inlet
    {
        type            calculated;
        value           nonuniform 0();
    }
    outlet
    {
        type            calculated;
        value           uniform 0;
    }
    wall
    {
        type            calculated;
        value           uniform 0;
    }
    procBoundary7to0
    {
        type            processor;
        value           uniform 0;
    }
    procBoundary7to1
    {
        type            processor;
        value           uniform 0;
    }
    procBoundary7to3
    {
        type            processor;
        value           uniform 0;
    }
    procBoundary7to5
    {
        type            processor;
        value           uniform 0;
    }
    procBoundary7to6
    {
        type            processor;
        value           uniform 0;
    }
}


// ************************************************************************* //
