/*--------------------------------*- C++ -*----------------------------------*\
| =========                 |                                                 |
| \\      /  F ield         | OpenFOAM: The Open Source CFD Toolbox           |
|  \\    /   O peration     | Version:  4.x                                   |
|   \\  /    A nd           | Web:      www.OpenFOAM.org                      |
|    \\/     M anipulation  |                                                 |
\*---------------------------------------------------------------------------*/
FoamFile
{
    version     2.0;
    format      ascii;
    class       volVectorField;
    location    "2.5";
    object      impParticleForces;
}
// * * * * * * * * * * * * * * * * * * * * * * * * * * * * * * * * * * * * * //

dimensions      [1 1 -2 0 0 0 0];

internalField   nonuniform List<vector> 
132
(
(0.00292929 -3.85379e-05 -6.81989e-06)
(0.00288007 -4.31875e-05 -2.41568e-05)
(0.00272967 -1.41575e-05 -1.08292e-05)
(0.0026056 1.02639e-05 1.68794e-06)
(0.00242384 1.41644e-05 4.14545e-06)
(0.00224742 2.18303e-05 -7.03202e-06)
(0.00197029 1.70119e-05 -2.54025e-05)
(0.00172977 1.20345e-05 -6.12224e-05)
(0.00147891 3.40202e-06 -0.000119117)
(0.00290042 -2.43968e-05 -2.96828e-06)
(0.00286187 -5.27856e-05 -1.79092e-05)
(0.00267787 5.92191e-06 -2.0568e-05)
(0.00258295 5.09044e-05 -7.66026e-06)
(0.00242297 6.50339e-05 -9.6747e-06)
(0.00228899 0.000101205 -2.3793e-05)
(0.00206097 0.000139425 -4.06803e-05)
(0.00187848 0.000194793 -6.57626e-05)
(0.00166121 0.000262632 -9.19428e-05)
(0.00296654 1.4459e-05 2.16826e-05)
(0.00287456 5.728e-06 -9.17166e-06)
(0.0026335 1.8358e-05 -3.33833e-05)
(0.00262571 4.33295e-05 -9.83143e-06)
(0.00251261 7.82675e-05 -1.49081e-05)
(0.0024502 0.000130331 -4.4835e-05)
(0.00226908 0.000199321 -5.16116e-05)
(0.00213683 0.000298596 -8.05741e-05)
(0.00192748 0.000451148 -0.000108932)
(0.00304018 3.67797e-05 3.79694e-05)
(0.0029634 4.01573e-05 1.1886e-05)
(0.00282692 3.27957e-05 -3.56044e-06)
(0.00272203 4.2833e-05 -1.33539e-06)
(0.00264729 7.6753e-05 -3.37016e-06)
(0.00255988 0.000130635 -2.51874e-05)
(0.00241768 0.000214606 -4.81539e-05)
(0.00236031 0.000310467 -7.7614e-05)
(0.00208965 0.000440876 -0.000126545)
(0.00277075 -1.41228e-05 -7.19977e-06)
(0.00263774 -3.62075e-06 3.44753e-06)
(0.00243283 7.68917e-07 1.52727e-05)
(0.00223697 3.17453e-06 2.34895e-05)
(0.00193224 1.12988e-06 3.57806e-05)
(0.00154692 7.78115e-07 3.68338e-05)
(0.00106635 -2.09422e-05 7.14925e-05)
(0.00290512 -1.69767e-05 -8.28208e-06)
(0.00290545 -2.04933e-05 -3.3616e-05)
(0.00275264 1.00617e-06 -1.93853e-05)
(0.00262835 2.53237e-05 -8.62988e-06)
(0.00244887 4.5585e-05 -2.52097e-06)
(0.0022707 7.51779e-05 -1.59196e-06)
(0.00201833 0.000125379 7.59814e-06)
(0.00177086 0.000201594 8.27996e-06)
(0.00152659 0.000269059 1.18128e-05)
(0.00304273 9.51945e-06 3.09803e-05)
(0.00301003 -5.38146e-06 1.94662e-05)
(0.00283482 6.62489e-06 -1.48132e-05)
(0.00271994 2.59272e-05 -2.60771e-05)
(0.00258819 6.11072e-05 -1.97755e-05)
(0.00245162 0.000110278 -3.15475e-05)
(0.00223425 0.000176875 -2.37888e-05)
(0.00207792 0.000271699 -3.61875e-05)
(0.00188709 0.000373556 -5.47121e-05)
(0.00314438 2.49822e-05 5.27041e-05)
(0.00309524 1.9861e-05 3.0675e-05)
(0.00296306 1.5272e-05 3.8881e-06)
(0.00284345 2.96869e-05 -1.26591e-05)
(0.00272853 6.83508e-05 -1.38684e-05)
(0.00258011 0.000120658 -2.3531e-05)
(0.00241784 0.000192978 -3.76947e-05)
(0.00228713 0.000278614 -6.35433e-05)
(0.00208258 0.000365361 -0.000106546)
(0.0025099 -4.602e-06 3.67005e-05)
(0.00232865 -8.88377e-06 5.98876e-05)
(0.00207853 -1.62201e-05 0.000111894)
(0.0018427 -2.23952e-05 0.000193113)
(0.0015636 -7.13926e-05 0.000314352)
(0.00303826 -1.74596e-05 -1.8605e-05)
(0.00298979 -2.43347e-05 -0.000102159)
(0.00280005 -8.09436e-06 -1.8461e-05)
(0.00268228 8.92401e-06 2.73781e-05)
(0.00248974 2.50911e-05 2.82069e-05)
(0.00231392 4.77859e-05 4.23796e-05)
(0.00206962 8.43352e-05 7.1006e-05)
(0.0018772 0.000132314 0.000118825)
(0.00168075 0.000155674 0.0001612)
(0.00314151 1.00253e-05 1.75547e-05)
(0.00309898 5.17304e-06 -1.80626e-05)
(0.00295792 -2.68462e-07 -1.18154e-05)
(0.00282217 5.20321e-06 7.00976e-07)
(0.00263885 4.04408e-05 9.4413e-06)
(0.00246424 8.52336e-05 1.5652e-05)
(0.00223856 0.000134291 3.1202e-05)
(0.00207856 0.000189464 4.477e-05)
(0.00190677 0.000261016 5.50391e-05)
(0.00321959 2.147e-05 4.03415e-05)
(0.00318173 1.69449e-05 1.49283e-05)
(0.00307343 1.07164e-05 5.39672e-06)
(0.00296371 1.80631e-05 3.08254e-06)
(0.00279086 5.74016e-05 9.03621e-06)
(0.00263817 0.000105576 1.34497e-05)
(0.00242271 0.000154744 1.34972e-05)
(0.00225631 0.000204205 1.17369e-05)
(0.00206767 0.00027553 4.37702e-06)
(0.00220507 -2.593e-05 0.000131133)
(0.00205825 -3.60941e-05 0.000214863)
(0.00182035 -7.86071e-05 0.00030823)
(0.00306824 -1.88161e-05 -8.52762e-06)
(0.00294165 -2.24493e-05 -4.68477e-05)
(0.00266748 -1.25166e-05 3.06805e-06)
(0.00267864 -8.76396e-07 4.87791e-05)
(0.00249322 1.34692e-05 4.83608e-05)
(0.00234482 3.19642e-05 6.63758e-05)
(0.00213366 5.49331e-05 9.45998e-05)
(0.00198692 8.19542e-05 0.000143439)
(0.00180862 7.23188e-05 0.000192047)
(0.00315568 1.34477e-05 1.57919e-05)
(0.00306696 1.43359e-05 -1.28553e-05)
(0.00291411 -1.41877e-06 -9.75874e-07)
(0.00283606 -2.13182e-05 1.60651e-05)
(0.00263418 2.41474e-05 3.04888e-05)
(0.00244708 6.29432e-05 4.161e-05)
(0.00223952 0.000101268 5.63775e-05)
(0.00210964 0.000134828 7.36434e-05)
(0.00194463 0.000174817 0.000102363)
(0.0032346 1.69111e-05 3.32596e-05)
(0.0032012 1.87834e-05 1.09818e-05)
(0.00310996 1.34598e-05 1.15109e-05)
(0.00302356 1.91026e-05 2.1277e-05)
(0.00284357 4.88951e-05 2.88614e-05)
(0.00261254 8.7664e-05 3.45007e-05)
(0.00241948 0.000129999 4.17904e-05)
(0.00230005 0.000170379 5.2472e-05)
(0.00214361 0.000219278 5.84331e-05)
)
;

boundaryField
{
    inlet
    {
        type            zeroGradient;
    }
    outlet
    {
        type            zeroGradient;
    }
    wall
    {
        type            zeroGradient;
    }
    procBoundary7to0
    {
        type            processor;
        value           uniform (0.00295362 -2.91605e-05 3.59087e-05);
    }
    procBoundary7to1
    {
        type            processor;
        value           uniform (0.00296089 -3.99283e-05 1.62463e-05);
    }
    procBoundary7to3
    {
        type            processor;
        value           nonuniform List<vector> 
36
(
(0.00284292 -3.05012e-05 -2.19168e-05)
(0.00280363 -2.75075e-05 -4.80726e-05)
(0.0026839 -9.20079e-06 -1.05559e-05)
(0.00257558 7.76745e-06 9.80533e-06)
(0.00237966 1.86236e-05 9.0905e-06)
(0.00222216 3.19912e-05 -5.08979e-06)
(0.00199876 3.48047e-05 -1.45389e-05)
(0.00183365 3.61554e-05 -3.74021e-05)
(0.0016751 3.12097e-05 -4.94596e-05)
(0.00287235 -1.47585e-05 -1.58803e-05)
(0.00280385 -1.93486e-05 -3.89978e-05)
(0.00266244 7.20586e-06 -1.69979e-05)
(0.00254232 3.85992e-05 2.77324e-06)
(0.00238047 6.57499e-05 -3.23082e-06)
(0.00226406 0.000108289 -2.07306e-05)
(0.00206384 0.000140297 -3.94162e-05)
(0.00192779 0.000186812 -6.70455e-05)
(0.00175097 0.000221725 -6.62518e-05)
(0.00295411 2.21283e-05 1.67735e-06)
(0.00289735 1.66595e-05 -4.53697e-05)
(0.00271513 2.9951e-05 -1.0903e-05)
(0.00262127 5.44001e-05 1.76745e-05)
(0.00245889 8.9939e-05 -9.45695e-07)
(0.00238419 0.000140877 -2.00509e-05)
(0.00221346 0.000198879 -3.9759e-05)
(0.00209133 0.000284204 -6.746e-05)
(0.00190286 0.00038374 -7.2967e-05)
(0.00300632 4.02335e-05 2.66034e-05)
(0.00291733 4.24519e-05 -2.22349e-06)
(0.0027894 4.86707e-05 5.30749e-06)
(0.00269705 7.06526e-05 1.80318e-05)
(0.00257539 9.98158e-05 8.82807e-06)
(0.00249087 0.000142577 -7.09203e-06)
(0.00230944 0.0002202 -2.94704e-05)
(0.00220531 0.000320617 -5.88244e-05)
(0.00201643 0.000455332 -7.2159e-05)
)
;
    }
    procBoundary7to5
    {
        type            processor;
        value           nonuniform List<vector> 
44
(
(0.0029237 -3.88011e-05 -2.05969e-06)
(0.00277524 -3.3408e-05 1.15993e-05)
(0.00267121 -3.53009e-05 2.88625e-05)
(0.00248888 -4.27205e-05 3.51471e-05)
(0.00232599 -6.53689e-05 3.72335e-05)
(0.00210765 -0.00011064 3.86417e-05)
(0.00192741 -0.000174756 3.49082e-05)
(0.00171169 -0.00026875 2.40505e-05)
(0.00296199 -3.27103e-05 5.20125e-06)
(0.00290273 -2.75508e-05 -1.46537e-05)
(0.00280538 -3.702e-05 6.33734e-06)
(0.0027084 -5.45667e-05 1.72726e-05)
(0.00252882 -5.1876e-05 3.31202e-05)
(0.00236849 -7.89133e-05 4.80312e-05)
(0.00212358 -0.000135279 6.98612e-05)
(0.0018934 -0.00022364 9.48529e-05)
(0.00164439 -0.000343436 0.000120018)
(0.00296199 -3.27103e-05 5.20125e-06)
(0.00290273 -2.75508e-05 -1.46537e-05)
(0.00290273 -2.75508e-05 -1.46537e-05)
(0.00286859 -1.99441e-05 -2.88342e-06)
(0.00272761 -5.23874e-07 2.20566e-05)
(0.00264376 -4.59944e-05 3.81963e-05)
(0.00248238 -7.32479e-05 7.02986e-05)
(0.00224074 -0.000126121 0.000117975)
(0.00204868 -0.000203664 0.000185346)
(0.001827 -0.000300653 0.000260818)
(0.00304558 -3.90501e-05 8.81176e-06)
(0.00302029 -4.56952e-05 -2.6176e-05)
(0.00286859 -1.99441e-05 -2.88342e-06)
(0.00272761 -5.23874e-07 2.20566e-05)
(0.00272761 -5.23874e-07 2.20566e-05)
(0.00261074 -8.33712e-07 5.16756e-05)
(0.00241734 -1.18138e-05 7.96116e-05)
(0.00232984 -0.000112541 0.0001292)
(0.00216546 -0.000171487 0.00019695)
(0.00197455 -0.00023322 0.000275753)
(0.00311946 -4.92633e-05 1.39087e-05)
(0.00305007 -6.77148e-05 -1.43239e-05)
(0.0028955 -2.35541e-05 4.9641e-06)
(0.00277747 1.10141e-05 3.0715e-05)
(0.00261074 -8.33712e-07 5.16756e-05)
(0.00241734 -1.18138e-05 7.96116e-05)
(0.00241734 -1.18138e-05 7.96116e-05)
)
;
    }
    procBoundary7to6
    {
        type            processor;
        value           nonuniform List<vector> 
12
(
(0.00298717 -6.73692e-06 2.48176e-05)
(0.00307955 2.68318e-05 5.30511e-05)
(0.00311808 4.25681e-05 6.9502e-05)
(0.00303254 -5.81819e-06 4.21014e-05)
(0.00314879 3.18642e-05 6.69357e-05)
(0.0032264 3.5753e-05 8.28303e-05)
(0.00312543 -1.05076e-05 4.75717e-05)
(0.00321328 1.76631e-05 5.98008e-05)
(0.00327383 2.74369e-05 7.41675e-05)
(0.0031515 -1.1368e-05 3.75916e-05)
(0.00323362 1.71272e-05 5.37629e-05)
(0.00329183 1.99342e-05 6.36738e-05)
)
;
    }
}


// ************************************************************************* //
