/*--------------------------------*- C++ -*----------------------------------*\
| =========                 |                                                 |
| \\      /  F ield         | OpenFOAM: The Open Source CFD Toolbox           |
|  \\    /   O peration     | Version:  4.x                                   |
|   \\  /    A nd           | Web:      www.OpenFOAM.org                      |
|    \\/     M anipulation  |                                                 |
\*---------------------------------------------------------------------------*/
FoamFile
{
    version     2.0;
    format      ascii;
    class       volScalarField;
    location    "2.5";
    object      nu;
}
// * * * * * * * * * * * * * * * * * * * * * * * * * * * * * * * * * * * * * //

dimensions      [0 2 -1 0 0 0 0];

internalField   nonuniform List<scalar> 
132
(
9.99705e-07
9.99636e-07
9.99551e-07
9.99443e-07
9.99325e-07
9.99284e-07
9.99374e-07
9.99623e-07
9.97979e-07
9.99681e-07
9.99573e-07
9.9944e-07
9.99302e-07
9.99219e-07
9.9928e-07
9.99455e-07
9.99576e-07
9.99588e-07
9.9969e-07
9.99544e-07
9.99405e-07
9.99329e-07
9.9925e-07
9.99323e-07
9.99366e-07
9.99522e-07
9.99553e-07
1.00023e-06
1.0001e-06
1.00003e-06
9.99935e-07
9.99849e-07
9.99795e-07
9.99723e-07
9.9971e-07
9.89339e-07
9.99429e-07
9.99313e-07
9.99328e-07
9.99471e-07
9.99616e-07
9.99775e-07
9.999e-07
9.9954e-07
9.99437e-07
9.99307e-07
9.99313e-07
9.99419e-07
9.99565e-07
9.99693e-07
9.99777e-07
9.99941e-07
9.99703e-07
9.99576e-07
9.99413e-07
9.99406e-07
9.99369e-07
9.99472e-07
9.99528e-07
9.99656e-07
9.99798e-07
1.00017e-06
1.00008e-06
1e-06
9.99943e-07
9.99881e-07
9.9984e-07
9.99813e-07
9.99805e-07
9.99426e-07
9.99364e-07
9.99451e-07
9.99582e-07
9.99695e-07
9.99809e-07
9.99626e-07
9.99575e-07
9.99381e-07
9.99398e-07
9.99428e-07
9.99516e-07
9.99646e-07
9.99765e-07
9.99961e-07
9.99627e-07
9.99644e-07
9.99662e-07
9.99661e-07
9.99609e-07
9.99624e-07
9.99649e-07
9.99725e-07
9.99922e-07
1.00016e-06
1.00008e-06
1.00004e-06
9.99996e-07
9.99957e-07
9.9993e-07
9.99899e-07
9.99861e-07
9.99756e-07
9.99811e-07
9.99804e-07
9.95778e-07
1.00005e-06
9.9995e-07
9.99884e-07
9.99821e-07
9.99778e-07
9.99671e-07
9.99546e-07
9.99622e-07
9.99483e-07
1.00021e-06
1.00013e-06
1.0001e-06
1.00006e-06
9.99983e-07
9.99903e-07
9.99788e-07
9.99756e-07
9.99664e-07
1.00025e-06
1.00019e-06
1.00016e-06
1.00013e-06
1.00012e-06
1.0001e-06
1.00007e-06
1.00004e-06
9.97906e-07
)
;

boundaryField
{
    inlet
    {
        type            calculated;
        value           nonuniform 0();
    }
    outlet
    {
        type            calculated;
        value           uniform 1e-06;
    }
    wall
    {
        type            calculated;
        value           nonuniform List<scalar> 
66
(
1.00005e-06
1.00021e-06
1.00025e-06
9.9995e-07
1.00013e-06
1.00019e-06
9.99884e-07
1.0001e-06
1.00016e-06
9.99821e-07
1.00006e-06
1.00013e-06
9.99778e-07
9.99983e-07
1.00012e-06
9.99671e-07
9.99903e-07
1.0001e-06
9.99811e-07
9.99546e-07
9.99788e-07
1.00007e-06
9.99804e-07
9.99622e-07
9.99756e-07
1.00004e-06
9.95778e-07
9.99483e-07
9.99664e-07
9.97906e-07
1.00023e-06
1.00017e-06
1.00016e-06
1.00025e-06
1.0001e-06
1.00008e-06
1.00008e-06
1.00019e-06
1.00003e-06
1e-06
1.00004e-06
1.00016e-06
9.99935e-07
9.99943e-07
9.99996e-07
1.00013e-06
9.99849e-07
9.99881e-07
9.99957e-07
1.00012e-06
9.99795e-07
9.9984e-07
9.9993e-07
1.0001e-06
9.99723e-07
9.99813e-07
9.99899e-07
1.00007e-06
9.9971e-07
9.99805e-07
9.99861e-07
1.00004e-06
9.89339e-07
9.99426e-07
9.99756e-07
9.97906e-07
)
;
    }
    procBoundary7to0
    {
        type            processor;
        value           uniform 9.99803e-07;
    }
    procBoundary7to1
    {
        type            processor;
        value           uniform 9.99487e-07;
    }
    procBoundary7to3
    {
        type            processor;
        value           nonuniform List<scalar> 
36
(
9.99746e-07
9.99588e-07
9.99373e-07
9.99219e-07
9.99134e-07
9.99206e-07
9.99341e-07
9.99483e-07
9.9867e-07
9.9961e-07
9.99458e-07
9.99302e-07
9.99175e-07
9.99105e-07
9.99169e-07
9.99324e-07
9.99467e-07
9.99424e-07
9.99661e-07
9.99504e-07
9.99342e-07
9.99223e-07
9.99149e-07
9.99184e-07
9.99265e-07
9.99429e-07
9.99357e-07
1.0003e-06
1.00015e-06
1e-06
9.99876e-07
9.99778e-07
9.99718e-07
9.99631e-07
9.99609e-07
9.97099e-07
)
;
    }
    procBoundary7to5
    {
        type            processor;
        value           nonuniform List<scalar> 
44
(
9.99367e-07
9.99262e-07
9.99251e-07
9.99323e-07
9.99466e-07
9.99558e-07
9.99614e-07
9.99588e-07
9.99684e-07
9.99573e-07
9.99297e-07
9.99286e-07
9.99342e-07
9.99463e-07
9.99595e-07
9.99675e-07
9.9983e-07
9.99684e-07
9.99573e-07
9.99573e-07
9.99455e-07
9.99377e-07
9.9937e-07
9.99447e-07
9.99548e-07
9.99665e-07
9.99796e-07
9.99743e-07
9.99596e-07
9.99455e-07
9.99377e-07
9.99377e-07
9.99898e-07
9.99865e-07
9.99837e-07
9.99813e-07
9.99413e-07
1.00013e-06
1.00006e-06
1e-06
9.99953e-07
9.99898e-07
9.99865e-07
9.99865e-07
)
;
    }
    procBoundary7to6
    {
        type            processor;
        value           nonuniform List<scalar> 
12
(
9.9975e-07
9.99786e-07
1.00032e-06
9.99667e-07
9.9979e-07
1.00023e-06
9.99725e-07
9.99689e-07
1.00022e-06
1.00016e-06
1.00026e-06
1.00029e-06
)
;
    }
}


// ************************************************************************* //
