/*--------------------------------*- C++ -*----------------------------------*\
| =========                 |                                                 |
| \\      /  F ield         | OpenFOAM: The Open Source CFD Toolbox           |
|  \\    /   O peration     | Version:  4.x                                   |
|   \\  /    A nd           | Web:      www.OpenFOAM.org                      |
|    \\/     M anipulation  |                                                 |
\*---------------------------------------------------------------------------*/
FoamFile
{
    version     2.0;
    format      ascii;
    class       volScalarField;
    location    "2.5";
    object      partTemp;
}
// * * * * * * * * * * * * * * * * * * * * * * * * * * * * * * * * * * * * * //

dimensions      [0 0 0 1 0 0 0];

internalField   nonuniform List<scalar> 
132
(
300.002
300.003
300.003
300.001
299.998
299.994
299.989
299.985
299.982
300.002
300.003
300.003
300.001
299.999
299.996
299.992
299.987
299.984
300.001
300.002
300.003
300.001
299.999
299.997
299.993
299.99
299.988
300.001
300.002
300.002
300.001
299.999
299.998
299.995
299.993
299.992
300.002
300.001
299.999
299.995
299.991
299.987
299.985
300.001
300.002
300.002
300.001
299.999
299.996
299.992
299.988
299.986
300.001
300.002
300.002
300.001
299.999
299.997
299.994
299.991
299.989
300
300.001
300.002
300.001
300
299.998
299.996
299.994
299.993
299.999
299.997
299.993
299.99
299.987
300
300.001
300.001
300.001
299.999
299.996
299.993
299.991
299.988
300
300.001
300.001
300.001
299.999
299.997
299.995
299.993
299.991
300
300.001
300.001
300.001
300
299.998
299.997
299.995
299.994
299.995
299.992
299.991
299.999
300
300.001
300
299.999
299.997
299.996
299.993
299.992
300
300
300.001
300
299.999
299.998
299.997
299.995
299.994
299.999
300
300
300
300
299.999
299.998
299.997
299.996
)
;

boundaryField
{
    inlet
    {
        type            zeroGradient;
    }
    outlet
    {
        type            zeroGradient;
    }
    wall
    {
        type            zeroGradient;
    }
    procBoundary7to0
    {
        type            processor;
        value           uniform 300;
    }
    procBoundary7to1
    {
        type            processor;
        value           uniform 300.002;
    }
    procBoundary7to3
    {
        type            processor;
        value           nonuniform List<scalar> 
36
(
300.003
300.003
300.003
300.001
299.998
299.993
299.989
299.984
299.982
300.002
300.003
300.003
300.001
299.998
299.994
299.99
299.986
299.984
300.001
300.002
300.003
300.001
299.999
299.996
299.993
299.989
299.988
300.001
300.001
300.002
300.001
299.999
299.997
299.995
299.992
299.991
)
;
    }
    procBoundary7to5
    {
        type            processor;
        value           nonuniform List<scalar> 
44
(
300.003
300.003
300.001
299.999
299.996
299.991
299.987
299.984
300.001
300.002
300.002
300.001
299.999
299.996
299.992
299.988
299.986
300.001
300.002
300.002
300.001
300.001
299.999
299.997
299.994
299.991
299.989
300
300.001
300.001
300.001
300.001
299.999
299.997
299.996
299.994
299.992
300
300
300.001
300.001
299.999
299.997
299.997
)
;
    }
    procBoundary7to6
    {
        type            processor;
        value           nonuniform List<scalar> 
12
(
300
300
299.999
299.999
299.999
299.999
299.999
299.999
299.999
299.998
299.999
299.999
)
;
    }
}


// ************************************************************************* //
