/*--------------------------------*- C++ -*----------------------------------*\
| =========                 |                                                 |
| \\      /  F ield         | OpenFOAM: The Open Source CFD Toolbox           |
|  \\    /   O peration     | Version:  4.x                                   |
|   \\  /    A nd           | Web:      www.OpenFOAM.org                      |
|    \\/     M anipulation  |                                                 |
\*---------------------------------------------------------------------------*/
FoamFile
{
    version     2.0;
    format      ascii;
    class       volScalarField;
    location    "2.5";
    object      SPartFluid;
}
// * * * * * * * * * * * * * * * * * * * * * * * * * * * * * * * * * * * * * //

dimensions      [1 -3 -1 0 0 0 0];

internalField   nonuniform List<scalar> 
132
(
9.92989e-65
7.84071e-65
6.44381e-65
6.75044e-65
1.05348e-64
1.0424e-64
7.93076e-65
5.60501e-65
8.27712e-65
7.67935e-65
9.4698e-65
7.29691e-65
6.75136e-65
8.44422e-65
5.64295e-65
7.4808e-65
6.30577e-65
7.98043e-65
5.50519e-65
7.37113e-65
6.20614e-65
7.13689e-65
7.44173e-65
8.12515e-65
7.49111e-65
7.16721e-65
8.53708e-65
5.1162e-65
7.28917e-65
8.76398e-65
5.58378e-65
7.21163e-65
6.66011e-65
8.04233e-65
5.87172e-65
4.32311e-65
6.44219e-65
7.36893e-65
6.35092e-65
6.95472e-65
8.55367e-65
8.37599e-65
7.29244e-65
3.95519e-65
8.45688e-65
7.52825e-65
7.44641e-65
8.21011e-65
6.95808e-65
5.70678e-65
7.61662e-65
5.76069e-65
5.81357e-65
8.53135e-65
6.9821e-65
5.73967e-65
7.36223e-65
8.51242e-65
9.19174e-65
6.93967e-65
8.00537e-65
5.57958e-65
8.37363e-65
5.97143e-65
7.28936e-65
7.36452e-65
6.19615e-65
6.57577e-65
7.95828e-65
5.32778e-65
5.03586e-65
5.80048e-65
7.33133e-65
6.00806e-65
5.76285e-65
8.05882e-65
7.36674e-65
6.82579e-65
5.19524e-65
8.52306e-65
7.03902e-65
7.10024e-65
8.63141e-65
7.53789e-65
7.05102e-65
7.36418e-65
7.52221e-65
6.97841e-65
8.29254e-65
7.58523e-65
7.34418e-65
6.94709e-65
7.78673e-65
5.34568e-65
6.12372e-65
7.21055e-65
6.90013e-65
6.12352e-65
5.26704e-65
7.58397e-65
7.03763e-65
5.79264e-65
5.48672e-65
6.40667e-65
6.09126e-65
6.89484e-65
5.81384e-65
7.67568e-65
7.44292e-65
5.19117e-65
3.86988e-65
6.87935e-65
6.63859e-65
5.39885e-65
5.96535e-65
6.04516e-65
6.04674e-65
6.20208e-65
6.8975e-65
6.34946e-65
7.19331e-65
6.41643e-65
7.26003e-65
6.2752e-65
7.3623e-65
5.6584e-65
5.81384e-65
6.5882e-65
6.50772e-65
6.50323e-65
6.3464e-65
4.10153e-65
)
;

boundaryField
{
    inlet
    {
        type            calculated;
        value           nonuniform 0();
    }
    outlet
    {
        type            calculated;
        value           uniform 0;
    }
    wall
    {
        type            calculated;
        value           uniform 0;
    }
    procBoundary7to0
    {
        type            processor;
        value           uniform 2.32578e-65;
    }
    procBoundary7to1
    {
        type            processor;
        value           uniform 5.74095e-65;
    }
    procBoundary7to3
    {
        type            processor;
        value           nonuniform List<scalar> 
36
(
7.68363e-65
9.00884e-65
8.30867e-65
9.07589e-65
6.1143e-65
6.17405e-65
8.54838e-65
6.75162e-65
7.66418e-65
9.00015e-65
5.12527e-65
7.60932e-65
4.4997e-65
4.64639e-65
7.87993e-65
7.24469e-65
8.76136e-65
6.06087e-65
5.11891e-65
8.84561e-65
8.22701e-65
5.81879e-65
6.81729e-65
7.96513e-65
6.63976e-65
7.15916e-65
5.38475e-65
7.83043e-65
4.03333e-65
5.43003e-65
6.12671e-65
5.58049e-65
7.12326e-65
6.18471e-65
7.87619e-65
8.48232e-65
)
;
    }
    procBoundary7to5
    {
        type            processor;
        value           nonuniform List<scalar> 
44
(
8.46177e-65
6.05535e-65
7.4461e-65
5.80983e-65
4.5611e-65
6.93794e-65
5.6902e-65
8.59075e-65
1.00015e-64
4.42364e-65
7.29547e-65
7.60154e-65
6.19713e-65
7.03551e-65
7.09674e-65
6.84902e-65
5.53339e-65
1.00015e-64
4.42364e-65
4.42364e-65
8.99706e-65
7.98833e-65
1.01501e-64
7.35108e-65
8.18716e-65
8.86497e-65
8.62114e-65
3.56548e-65
9.38292e-65
8.99706e-65
7.98833e-65
7.98833e-65
9.68747e-65
7.74076e-65
6.49632e-65
6.71937e-65
6.79081e-65
7.20516e-65
5.50349e-65
7.28761e-65
5.66071e-65
9.68747e-65
7.74076e-65
7.74076e-65
)
;
    }
    procBoundary7to6
    {
        type            processor;
        value           nonuniform List<scalar> 
12
(
6.74022e-65
7.12759e-65
4.95802e-65
8.5206e-65
7.58969e-65
7.5126e-65
7.89739e-65
7.74296e-65
5.65317e-65
3.79312e-65
7.82022e-65
6.04077e-65
)
;
    }
}


// ************************************************************************* //
