/*--------------------------------*- C++ -*----------------------------------*\
| =========                 |                                                 |
| \\      /  F ield         | OpenFOAM: The Open Source CFD Toolbox           |
|  \\    /   O peration     | Version:  4.x                                   |
|   \\  /    A nd           | Web:      www.OpenFOAM.org                      |
|    \\/     M anipulation  |                                                 |
\*---------------------------------------------------------------------------*/
FoamFile
{
    version     2.0;
    format      ascii;
    class       volScalarField;
    location    "23";
    object      Ksl;
}
// * * * * * * * * * * * * * * * * * * * * * * * * * * * * * * * * * * * * * //

dimensions      [1 -3 -1 0 0 0 0];

internalField   nonuniform List<scalar> 
87
(
3777.08
13948.8
3728.29
3290.19
6283.92
3177.52
3655.74
10876.9
3942.49
19241.5
4079.24
48804
4121.31
1.83499e+08
4161.35
3575.59
9677.42
3794.4
13143.2
3911.69
18883.7
3964.49
32561.4
3991.92
3449.84
7572.76
3472.4
7431.77
3503.92
7645.69
3487.77
7675.58
3470.65
3618.85
9380.2
3815.66
12179.1
3861.41
15982.6
3878.97
22210.6
3813.83
3527.41
8440.36
3670.36
9361.53
3710.76
10367.2
3744.87
11931.9
3719.13
3441.18
7043.15
3377.1
6556.3
3336.4
6305.71
3282.03
6134.18
3196.13
3508.11
7559.95
3545.9
7693.52
3512.21
7886.38
3518.95
8321.26
3455.19
3447.27
7106.23
3424.17
6718.1
3375.41
6509.5
3352.4
6485.21
3296.54
3389.8
6545.68
3260.48
5694.08
3114.27
5181.33
3046.16
4891.2
2976.23
)
;

boundaryField
{
    inlet
    {
        type            zeroGradient;
    }
    outlet
    {
        type            zeroGradient;
    }
    wall
    {
        type            zeroGradient;
    }
    procBoundary6to0
    {
        type            processor;
        value           uniform 3968.58;
    }
    procBoundary6to2
    {
        type            processor;
        value           nonuniform List<scalar> 
32
(
3940.41
22655.8
3916.22
3379.46
6562.15
3291.56
3611.01
9790.66
3843.44
12600
3878.9
15403.3
3842.13
18734.1
18734.1
18734.1
3559.93
9050.94
3770.01
10761.8
3819.96
12468.5
3795.25
3795.25
3795.25
3447.05
7391.26
3471.31
7019.46
3406.1
6635.12
6635.12
)
;
    }
    procBoundary6to4
    {
        type            processor;
        value           nonuniform List<scalar> 
27
(
3580.59
10082.4
3910.95
15408.1
4024.04
28109.3
4060.16
85918.4
4001.15
3588.05
9663.02
3844.99
13899.3
3967.62
21863.6
3983.5
40819.7
3922.16
3546.85
8003.97
3603.85
8459
3600.36
8522.4
3509.4
8220.32
3437.75
)
;
    }
    procBoundary6to7
    {
        type            processor;
        value           nonuniform List<scalar> 
12
(
22945.2
14404.7
6080.91
1e+10
86931.8
8230.29
36828.9
13712.2
5908.76
9007.95
6486.06
4723.02
)
;
    }
}


// ************************************************************************* //
