/*--------------------------------*- C++ -*----------------------------------*\
| =========                 |                                                 |
| \\      /  F ield         | OpenFOAM: The Open Source CFD Toolbox           |
|  \\    /   O peration     | Version:  4.x                                   |
|   \\  /    A nd           | Web:      www.OpenFOAM.org                      |
|    \\/     M anipulation  |                                                 |
\*---------------------------------------------------------------------------*/
FoamFile
{
    version     2.0;
    format      ascii;
    class       volVectorField;
    location    "23";
    object      Us;
}
// * * * * * * * * * * * * * * * * * * * * * * * * * * * * * * * * * * * * * //

dimensions      [0 1 -1 0 0 0 0];

internalField   nonuniform List<vector> 
87
(
(-1.31951e-09 2.35975e-09 1.72907e-09)
(-5.80036e-11 1.7321e-09 1.69965e-09)
(4.93641e-10 1.67241e-09 1.25567e-09)
(-6.93801e-11 5.91945e-10 1.39711e-09)
(2.45499e-10 8.84497e-10 1.28477e-09)
(5.38885e-10 3.26393e-10 8.86091e-10)
(-3.73172e-10 5.19433e-10 8.54021e-10)
(-7.40042e-10 9.68558e-10 1.5983e-09)
(-1.27764e-09 1.17697e-09 2.27056e-09)
(-1.40748e-09 1.39736e-09 2.53183e-09)
(-2.82974e-09 1.47379e-09 2.71122e-09)
(-1.66914e-09 1.64242e-09 2.98051e-09)
(-1.67238e-09 1.67768e-09 2.70419e-09)
(-5.4937e-10 2.1753e-09 1.91746e-09)
(-7.37855e-11 1.94378e-09 7.63435e-10)
(-3.98869e-10 6.02849e-10 7.18047e-10)
(-2.90013e-10 9.10587e-10 1.34894e-09)
(-7.81145e-10 1.32663e-09 1.79715e-09)
(-6.20119e-10 1.25932e-09 2.05065e-09)
(-9.29604e-10 1.37079e-09 2.22349e-09)
(-6.40182e-10 1.43956e-09 2.26436e-09)
(-1.47619e-10 1.65214e-09 2.02899e-09)
(6.14022e-10 1.73447e-09 1.71824e-09)
(1.19299e-09 1.22467e-09 8.81629e-10)
(-5.17579e-11 1.27019e-10 2.89257e-10)
(1.11269e-09 9.87145e-10 1.08759e-09)
(-2.22627e-12 5.45543e-10 8.25814e-10)
(-4.8838e-12 8.65571e-10 1.31153e-09)
(-8.28989e-11 7.1974e-10 1.07717e-09)
(-8.3642e-12 7.14178e-10 1.23405e-09)
(4.05266e-10 7.39282e-10 1.29978e-09)
(8.01454e-10 5.38545e-10 8.55533e-10)
(1.41494e-09 4.78873e-10 9.63666e-10)
(-1.01219e-10 4.57895e-10 5.13301e-10)
(-2.20977e-11 9.17696e-10 1.10366e-09)
(-1.86718e-10 1.10241e-09 1.6959e-09)
(-1.36387e-10 1.01523e-09 1.69548e-09)
(-5.80115e-11 9.68655e-10 1.92963e-09)
(2.15809e-10 1.53634e-09 2.07121e-09)
(7.19045e-10 1.85234e-09 1.92289e-09)
(7.83191e-10 2.01487e-09 1.41795e-09)
(9.45361e-10 1.91773e-09 6.70256e-10)
(-7.47841e-11 5.26231e-10 5.85892e-10)
(2.3186e-10 5.89664e-10 9.11919e-10)
(1.37482e-10 1.01167e-09 1.42571e-09)
(3.50397e-10 1.0853e-09 1.77346e-09)
(7.01069e-10 8.66192e-10 1.14872e-09)
(1.02556e-09 1.25379e-09 1.66261e-09)
(1.24391e-09 1.5362e-09 1.65468e-09)
(3.34026e-09 4.24451e-11 1.33386e-09)
(2.18156e-09 1.81289e-09 3.09355e-10)
(2.89576e-10 1.32251e-10 -1.72089e-10)
(4.36527e-09 1.58062e-09 2.64887e-11)
(3.50558e-10 3.07694e-10 1.14509e-09)
(6.74239e-10 6.78684e-10 1.08059e-09)
(6.13889e-10 5.4568e-10 8.85814e-10)
(8.04916e-10 5.29126e-10 6.47817e-10)
(9.54388e-10 6.09789e-10 7.31975e-10)
(1.65832e-09 9.47266e-10 1.091e-09)
(1.8099e-09 8.05229e-10 3.04879e-10)
(2.07149e-11 3.75276e-10 2.53449e-10)
(3.72355e-10 4.53684e-10 4.51442e-10)
(4.10445e-10 6.78038e-10 9.81359e-10)
(6.58044e-10 6.61385e-10 7.90349e-10)
(3.9773e-10 5.9053e-10 8.51736e-10)
(8.63469e-10 8.20892e-10 8.93801e-10)
(1.52635e-09 1.32825e-09 1.11096e-09)
(2.26449e-09 1.41289e-09 5.77719e-10)
(2.58424e-09 1.71264e-09 8.52922e-10)
(-3.85941e-11 2.41471e-10 3.30694e-10)
(2.66853e-10 2.50818e-10 4.10332e-10)
(2.1718e-10 3.4292e-10 5.39046e-10)
(1.13474e-09 6.40271e-10 5.38062e-10)
(8.80325e-10 6.09584e-10 4.81209e-10)
(1.20053e-09 6.4822e-10 6.1558e-10)
(1.49556e-09 1.05121e-09 9.56412e-10)
(5.76255e-09 -6.3162e-10 4.01578e-10)
(2.40575e-09 1.75819e-09 1.15952e-10)
(-2.3297e-10 -1.26597e-11 2.57443e-13)
(3.15389e-10 4.37037e-11 2.6733e-10)
(1.6322e-10 1.74866e-10 5.30555e-10)
(4.75779e-10 2.06461e-10 2.77333e-10)
(6.24072e-10 4.07154e-10 5.78387e-10)
(9.26497e-10 3.05745e-10 4.29187e-10)
(9.41895e-10 4.11845e-10 4.92184e-10)
(1.22776e-09 4.45803e-10 3.37725e-10)
(1.26279e-09 7.36324e-10 1.07709e-10)
)
;

boundaryField
{
    inlet
    {
        type            zeroGradient;
    }
    outlet
    {
        type            zeroGradient;
    }
    wall
    {
        type            zeroGradient;
    }
    procBoundary6to0
    {
        type            processor;
        value           uniform (-1.05106e-09 2.49822e-09 2.83116e-09);
    }
    procBoundary6to2
    {
        type            processor;
        value           nonuniform List<vector> 
32
(
(-2.51951e-10 1.87013e-09 2.7723e-09)
(-9.97049e-10 1.45954e-09 2.28917e-09)
(3.27657e-10 1.34192e-09 1.81391e-09)
(-8.02407e-10 6.14406e-10 2.21618e-09)
(-1.90028e-10 4.55589e-10 1.80961e-09)
(1.6053e-10 5.21195e-10 1.53512e-09)
(-2.46653e-10 3.31798e-10 7.99095e-10)
(-8.17417e-10 9.03234e-10 1.82344e-09)
(-1.90228e-09 1.29949e-09 2.54097e-09)
(-2.01625e-09 1.63578e-09 2.72542e-09)
(-2.86219e-09 1.83938e-09 3.14896e-09)
(-2.91152e-09 1.80298e-09 3.44907e-09)
(-3.09146e-09 1.94426e-09 3.00474e-09)
(-1.4146e-09 2.47223e-09 2.08272e-09)
(-1.4146e-09 2.47223e-09 2.08272e-09)
(-1.4146e-09 2.47223e-09 2.08272e-09)
(-1.96497e-10 2.76189e-10 5.74687e-10)
(-6.1494e-10 9.97977e-10 1.64587e-09)
(-9.46977e-10 1.30595e-09 1.90243e-09)
(-1.30982e-09 1.59486e-09 2.35024e-09)
(-1.93839e-09 1.53503e-09 2.69078e-09)
(-1.71166e-09 1.60782e-09 2.8145e-09)
(-1.27748e-09 1.02726e-09 2.50329e-09)
(-1.27748e-09 1.02726e-09 2.50329e-09)
(-1.27748e-09 1.02726e-09 2.50329e-09)
(2.81286e-12 1.14948e-10 3.89511e-10)
(-7.8109e-11 5.37592e-10 1.1222e-09)
(-4.62878e-10 9.70535e-10 1.55624e-09)
(-2.4452e-10 7.17928e-10 1.32378e-09)
(-9.74543e-10 7.89118e-10 1.6589e-09)
(-1.02482e-10 6.47693e-10 1.38319e-09)
(-1.02482e-10 6.47693e-10 1.38319e-09)
)
;
    }
    procBoundary6to4
    {
        type            processor;
        value           nonuniform List<vector> 
27
(
(-2.38297e-10 3.04053e-10 8.64543e-10)
(-5.94249e-10 5.32555e-10 1.57768e-09)
(-1.69394e-09 9.63752e-10 2.4362e-09)
(-2.02338e-09 9.37791e-10 2.55394e-09)
(-3.27799e-09 1.10048e-09 2.8374e-09)
(-3.52678e-09 1.80757e-09 3.36136e-09)
(-3.3147e-09 2.32254e-09 3.09718e-09)
(-1.98537e-09 2.20669e-09 2.22173e-09)
(-1.82131e-09 2.27027e-09 1.14618e-09)
(-2.27086e-11 3.10478e-10 6.79554e-10)
(-4.41673e-11 5.22843e-10 1.15439e-09)
(-6.20566e-10 9.09546e-10 1.93345e-09)
(-6.98191e-10 8.23113e-10 1.81063e-09)
(-1.14046e-09 8.38775e-10 2.19943e-09)
(-1.05005e-09 1.4021e-09 2.32892e-09)
(-2.63046e-10 1.66902e-09 2.43059e-09)
(1.87122e-10 1.70763e-09 1.56866e-09)
(6.66398e-10 1.97729e-09 4.66996e-10)
(3.50385e-11 1.09158e-10 3.35398e-10)
(3.41338e-10 4.15217e-10 4.29233e-10)
(2.04252e-10 4.48067e-10 9.67415e-10)
(1.60889e-10 6.11257e-10 9.22035e-10)
(-2.07341e-10 9.59303e-10 1.14322e-09)
(1.81387e-10 1.17282e-09 9.87045e-10)
(9.46638e-10 1.33226e-09 1.23137e-09)
(1.28602e-08 -5.53462e-09 6.49398e-10)
(2.00598e-09 1.27468e-09 2.98396e-10)
)
;
    }
    procBoundary6to7
    {
        type            processor;
        value           nonuniform List<vector> 
12
(
(6.86562e-10 2.46784e-09 -6.15756e-10)
(1.58897e-09 2.24734e-09 2.8166e-10)
(2.04915e-09 3.45735e-10 3.59122e-10)
(1.11836e-09 2.02155e-09 -2.6604e-10)
(2.17732e-09 1.56626e-09 1.5218e-10)
(2.47791e-09 2.14776e-10 4.88104e-11)
(1.90354e-09 2.0546e-09 8.31004e-11)
(3.07696e-09 1.43129e-09 -1.36598e-10)
(2.96424e-09 5.21101e-10 -2.15626e-10)
(2.30093e-09 1.91997e-09 1.15079e-10)
(2.02735e-09 1.53959e-09 -1.53688e-10)
(1.57314e-09 5.75217e-10 -3.7638e-11)
)
;
    }
}


// ************************************************************************* //
