/*--------------------------------*- C++ -*----------------------------------*\
| =========                 |                                                 |
| \\      /  F ield         | OpenFOAM: The Open Source CFD Toolbox           |
|  \\    /   O peration     | Version:  4.x                                   |
|   \\  /    A nd           | Web:      www.OpenFOAM.org                      |
|    \\/     M anipulation  |                                                 |
\*---------------------------------------------------------------------------*/
FoamFile
{
    version     2.0;
    format      ascii;
    class       volScalarField;
    location    "23.5";
    object      KslNext;
}
// * * * * * * * * * * * * * * * * * * * * * * * * * * * * * * * * * * * * * //

dimensions      [1 -3 -1 0 0 0 0];

internalField   nonuniform List<scalar> 
87
(
3690.26
2577.89
3620.47
2463.06
3657.52
2243.24
4109.58
1929.13
6926.65
4186.64
2722.06
4046.98
2579.52
4094.48
2328.89
4641.74
1960.95
5739.14
5028.49
3020.17
5289.78
3028.77
6248.39
3172.12
9244.22
3816.97
16033.2
5374.12
2976.28
5340.02
2842.26
5568.93
2561.4
6460.61
2111.39
5823.11
8211.91
3331.78
8151.15
3148.11
8480.92
2813.21
8305.6
2376.54
4855.11
17667.8
3720.72
32804.3
3658.5
99329.9
3603.47
61846.6
3749.92
11044
6781.53
3273.24
7593.75
3264.14
8914.39
3150.31
10877.2
2918.16
17902.3
16315
3729.72
20014.8
3656.56
20821.5
3551.98
12145.7
3540.72
5177.67
1e+10
4118.77
1e+10
4176.98
1e+10
4244.06
240283
4581.75
12522.4
6238.94
3094.55
6524.84
14867.1
3637.83
54491
)
;

boundaryField
{
    inlet
    {
        type            zeroGradient;
    }
    outlet
    {
        type            zeroGradient;
    }
    wall
    {
        type            zeroGradient;
    }
    procBoundary1to0
    {
        type            processor;
        value           uniform 0;
    }
    procBoundary1to3
    {
        type            processor;
        value           uniform 0;
    }
    procBoundary1to5
    {
        type            processor;
        value           uniform 0;
    }
    procBoundary1to7
    {
        type            processor;
        value           uniform 0;
    }
}


// ************************************************************************* //
