/*--------------------------------*- C++ -*----------------------------------*\
| =========                 |                                                 |
| \\      /  F ield         | OpenFOAM: The Open Source CFD Toolbox           |
|  \\    /   O peration     | Version:  4.x                                   |
|   \\  /    A nd           | Web:      www.OpenFOAM.org                      |
|    \\/     M anipulation  |                                                 |
\*---------------------------------------------------------------------------*/
FoamFile
{
    version     2.0;
    format      ascii;
    class       surfaceScalarField;
    location    "23.5";
    object      phi;
}
// * * * * * * * * * * * * * * * * * * * * * * * * * * * * * * * * * * * * * //

dimensions      [0 3 -1 0 0 0 0];

internalField   nonuniform List<scalar> 
192
(
1.43311e-05
2.28494e-08
-2.31657e-07
1.459e-05
1.46415e-08
-2.73541e-07
1.48639e-05
2.25743e-08
-2.96532e-07
1.48879e-05
1.22206e-07
-1.46149e-07
1.53405e-05
-1.13664e-07
-3.38963e-07
1.47702e-05
2.7086e-07
2.99442e-07
1.58478e-05
-6.40936e-07
-4.3663e-07
1.34837e-05
8.94175e-07
1.46988e-06
-2.50965e-06
-4.11426e-06
1.32861e-05
-1.08877e-07
-2.00785e-07
1.36091e-05
-8.98321e-08
-2.1857e-07
1.393e-05
-1.37392e-07
-1.60899e-07
1.39536e-05
-1.02851e-08
1.08851e-07
1.44748e-05
-4.65187e-07
-1.69632e-07
1.38017e-05
1.06186e-07
8.37742e-07
1.50783e-05
-1.33424e-06
-5.8327e-07
1.29659e-05
9.56416e-07
2.05019e-06
-3.33636e-06
-2.69276e-06
1.14954e-05
-1.39403e-07
1.13881e-05
-6.25514e-08
1.11799e-05
-4.03279e-08
1.06628e-05
2.78681e-07
1.00243e-05
7.54827e-08
8.98925e-06
8.26086e-07
7.4087e-06
1.20347e-07
6.43301e-06
1.51567e-06
-1.29921e-07
1.11069e-05
8.4673e-09
-4.34083e-07
1.12648e-05
-5.67871e-08
-3.74736e-07
1.14864e-05
2.99679e-08
-5.48113e-07
1.14129e-05
1.49856e-07
-2.22484e-07
1.18869e-05
-7.98755e-08
-7.33039e-07
1.14362e-05
5.29286e-07
2.20817e-07
1.27331e-05
-5.86894e-07
-1.14667e-06
1.15476e-05
1.1915e-06
1.4639e-06
-3.24992e-06
-3.2771e-06
9.06263e-06
-7.21707e-08
-2.99638e-07
9.20043e-06
-1.96225e-07
-2.16937e-07
9.4639e-06
-1.0397e-07
-2.90425e-07
9.47263e-06
2.0436e-08
2.29536e-07
9.95152e-06
-2.70305e-07
-4.58093e-07
9.95042e-06
4.39349e-07
9.28787e-07
1.08279e-05
-7.96995e-07
-1.25069e-06
1.03633e-05
1.49303e-06
2.21329e-06
-3.97869e-06
-4.68355e-06
6.9057e-06
-1.25534e-07
6.47606e-06
1.18536e-07
6.38461e-06
-8.91665e-08
6.09782e-06
4.29531e-07
5.8767e-06
-4.51658e-08
6.1452e-06
7.45496e-07
5.41368e-06
-1.19118e-07
6.40781e-06
1.53272e-06
-1.00537e-06
9.30319e-06
-5.01658e-08
-3.35651e-07
9.09913e-06
6.96512e-08
-2.40323e-07
8.96279e-06
-4.6715e-08
-3.65052e-07
8.66933e-06
1.73398e-07
8.58715e-06
-1.7868e-07
8.25151e-06
3.49041e-07
8.41422e-06
-6.45146e-07
7.74281e-06
1.01059e-06
-1.97571e-06
6.79205e-06
-7.96169e-08
-2.2024e-07
6.67392e-06
6.65563e-08
-9.57188e-08
6.63416e-06
-1.03384e-07
6.6989e-06
7.28615e-08
6.58296e-06
-2.04424e-07
7.22162e-06
3.64945e-08
6.80077e-06
-5.97612e-07
7.85707e-06
7.98043e-07
-1.97079e-06
4.97003e-06
-2.82152e-08
5.02882e-06
4.84074e-06
4.90968e-06
4.66009e-06
4.85375e-06
4.18035e-06
5.6135e-06
9.62078e-06
-1.54615e-07
9.57115e-06
-1.00123e-07
6.82879e-06
-1.74544e-07
)
;

boundaryField
{
    inlet
    {
        type            calculated;
        value           nonuniform 0();
    }
    outlet
    {
        type            calculated;
        value           nonuniform List<scalar> 9(2.01076e-05 1.64853e-05 2.57316e-06 1.39604e-05 1.30829e-05 2.81286e-06 6.86513e-06 6.11176e-06 3.51741e-06);
    }
    wall
    {
        type            calculated;
        value           uniform 0;
    }
    procBoundary1to0
    {
        type            processor;
        value           nonuniform List<scalar> 
12
(
-1.41223e-05
-1.29536e-05
-1.14396e-05
-1.09129e-05
-8.88314e-06
-6.9969e-06
-9.35146e-06
-6.84199e-06
-5.14741e-06
-9.58053e-06
-6.9045e-06
-5.51587e-06
)
;
    }
    procBoundary1to3
    {
        type            processor;
        value           nonuniform List<scalar> 
27
(
-2.52758e-08
8.00539e-08
1.11163e-07
2.28055e-07
9.78786e-08
3.15137e-07
1.25955e-07
4.16437e-07
6.5341e-07
5.16275e-09
5.2326e-08
3.63178e-08
1.56375e-07
7.1459e-08
2.5144e-07
1.73996e-07
4.81855e-07
4.91698e-07
4.35947e-10
1.79941e-08
2.06194e-12
8.67667e-08
8.88392e-13
9.91535e-08
-1.53206e-08
1.60012e-07
-1.05122e-07
)
;
    }
    procBoundary1to5
    {
        type            processor;
        value           nonuniform List<scalar> 
32
(
-1.02423e-07
-4.72182e-07
2.07413e-07
-6.6423e-07
1.12472e-06
-4.23705e-07
-1.93989e-07
2.65335e-07
-3.1641e-07
6.02667e-07
-8.77373e-07
1.36954e-06
-2.94316e-06
1.0831e-07
-4.47299e-09
3.4669e-07
-4.88032e-13
4.89172e-07
-2.80086e-08
7.37606e-07
-7.74947e-07
-2.2128e-07
-9.05712e-08
9.52807e-06
-1.48765e-07
-1.73204e-07
-1.24606e-07
6.76701e-06
-1.14511e-07
-1.95412e-08
5.38421e-06
-2.83744e-08
)
;
    }
    procBoundary1to7
    {
        type            processor;
        value           uniform -4.2729e-08;
    }
}


// ************************************************************************* //
