/*--------------------------------*- C++ -*----------------------------------*\
| =========                 |                                                 |
| \\      /  F ield         | OpenFOAM: The Open Source CFD Toolbox           |
|  \\    /   O peration     | Version:  4.x                                   |
|   \\  /    A nd           | Web:      www.OpenFOAM.org                      |
|    \\/     M anipulation  |                                                 |
\*---------------------------------------------------------------------------*/
FoamFile
{
    version     2.0;
    format      ascii;
    class       volScalarField;
    location    "23.5";
    object      QPartFluid;
}
// * * * * * * * * * * * * * * * * * * * * * * * * * * * * * * * * * * * * * //

dimensions      [1 -1 -3 0 0 0 0];

internalField   nonuniform List<scalar> 
87
(
4.35036e+09
7.08018e+09
4.26221e+09
6.58429e+09
4.43458e+09
4.95962e+09
5.30631e+09
6.50575e+09
3.99288e+09
4.61837e+09
4.46882e+09
5.99172e+09
5.80592e+09
4.50798e+09
6.66943e+09
7.71058e+09
6.6896e+09
4.01712e+09
3.98489e+09
7.03245e+09
6.35376e+09
8.89877e+09
6.24415e+09
5.59367e+09
5.34749e+09
5.47673e+09
3.78373e+09
7.51107e+09
6.62267e+09
6.26721e+09
7.65619e+09
6.49224e+09
7.99912e+09
9.28825e+09
9.3962e+09
5.8349e+09
9.16039e+09
6.76048e+09
7.8176e+09
9.51631e+09
9.36768e+09
7.8443e+09
9.66352e+09
1.08239e+10
5.15177e+09
9.17448e+09
8.50522e+09
7.24483e+09
6.81519e+09
5.76171e+09
9.18132e+09
9.18751e+09
1.291e+10
4.19612e+09
7.07252e+09
6.89952e+09
8.15156e+09
9.46907e+09
6.08506e+09
9.62769e+09
7.53283e+09
7.32958e+09
3.34834e+09
6.4125e+09
8.7509e+09
6.32602e+09
7.87926e+09
8.02372e+09
8.90111e+09
7.59188e+09
9.12976e+09
3.94901e+09
8.05408e+09
7.6558e+09
5.33568e+09
1.075e+10
8.52152e+09
1.02323e+10
7.14733e+09
9.20209e+09
3.25642e+09
6.68467e+09
5.65945e+09
8.11921e+09
8.03997e+09
1.22611e+10
5.88415e+09
)
;

boundaryField
{
    inlet
    {
        type            calculated;
        value           nonuniform 0();
    }
    outlet
    {
        type            calculated;
        value           uniform 0;
    }
    wall
    {
        type            calculated;
        value           uniform 0;
    }
    procBoundary1to0
    {
        type            processor;
        value           nonuniform List<scalar> 
12
(
2.02876e+09
5.27671e+09
8.52279e+09
7.26925e+09
9.00821e+09
6.33829e+09
5.36934e+09
1.00872e+10
5.32802e+09
6.06969e+09
6.94424e+09
9.34225e+09
)
;
    }
    procBoundary1to3
    {
        type            processor;
        value           nonuniform List<scalar> 
27
(
8.61915e+09
3.88108e+09
6.8551e+09
3.28717e+09
5.11476e+09
3.85525e+09
5.70219e+09
5.06644e+09
3.3281e+09
8.60921e+09
7.98959e+09
1.02886e+10
1.05398e+10
8.48518e+09
7.9164e+09
6.85639e+09
8.51477e+09
8.02467e+09
8.07624e+09
1.07171e+10
8.92267e+09
1.00399e+10
6.40124e+09
7.60498e+09
8.85117e+09
8.26621e+09
6.73867e+09
)
;
    }
    procBoundary1to5
    {
        type            processor;
        value           nonuniform List<scalar> 
32
(
8.15863e+09
7.85628e+09
7.61148e+09
6.33195e+09
8.67795e+09
6.1148e+09
7.53993e+09
7.12916e+09
6.22765e+09
8.37935e+09
8.84463e+09
1.02064e+10
6.66252e+09
9.91979e+09
6.08814e+09
8.68185e+09
5.82767e+09
5.26143e+09
7.32358e+09
6.14733e+09
6.58314e+09
6.61315e+09
5.61565e+09
8.15863e+09
7.53993e+09
7.49699e+09
8.05062e+09
7.53993e+09
9.91979e+09
8.17494e+09
9.91979e+09
8.44836e+09
)
;
    }
    procBoundary1to7
    {
        type            processor;
        value           uniform 9.95891e+09;
    }
}


// ************************************************************************* //
