/*--------------------------------*- C++ -*----------------------------------*\
| =========                 |                                                 |
| \\      /  F ield         | OpenFOAM: The Open Source CFD Toolbox           |
|  \\    /   O peration     | Version:  4.x                                   |
|   \\  /    A nd           | Web:      www.OpenFOAM.org                      |
|    \\/     M anipulation  |                                                 |
\*---------------------------------------------------------------------------*/
FoamFile
{
    version     2.0;
    format      ascii;
    class       volScalarField;
    location    "23.5";
    object      rho;
}
// * * * * * * * * * * * * * * * * * * * * * * * * * * * * * * * * * * * * * //

dimensions      [1 -3 0 0 0 0 0];

internalField   nonuniform List<scalar> 
87
(
6699.8
6699.79
6699.78
6699.76
6699.74
6699.71
6699.62
6699.54
6783.6
6699.94
6699.91
6699.86
6699.8
6699.71
6699.61
6699.35
6699.19
6686.65
6699.93
6699.89
6699.82
6699.71
6699.52
6699.22
6698.74
6698.19
6696.56
6699.93
6699.88
6699.82
6699.73
6699.59
6699.45
6699.17
6699.02
6684.07
6699.79
6699.63
6699.39
6699.17
6698.8
6698.63
6698.18
6698.18
6694.12
6699.64
6699.35
6698.92
6698.48
6697.98
6697.79
6697.66
6697.77
6697.9
6699.91
6699.83
6699.72
6699.59
6699.38
6699.16
6698.79
6698.55
6689.34
6699.58
6699.12
6698.47
6697.8
6697.23
6697.02
6697.1
6697.33
6697.24
6699.44
6699.14
6698.88
6698.61
6698.49
6698.41
6698.73
6698.69
6700.1
6699.95
6699.91
6699.86
6699.82
6699.71
6699.73
)
;

boundaryField
{
    inlet
    {
        type            calculated;
        value           nonuniform 0();
    }
    outlet
    {
        type            calculated;
        value           uniform 6700;
    }
    wall
    {
        type            calculated;
        value           nonuniform List<scalar> 
57
(
6699.8
6699.94
6699.93
6699.79
6699.91
6699.89
6699.78
6699.86
6699.82
6699.76
6699.8
6699.71
6699.74
6699.71
6699.52
6699.71
6699.61
6699.22
6699.62
6699.35
6698.74
6699.54
6699.19
6698.19
6783.6
6686.65
6696.56
6699.8
6699.93
6699.91
6699.95
6699.79
6699.88
6699.83
6699.91
6699.78
6699.82
6699.72
6699.86
6699.76
6699.73
6699.59
6699.74
6699.59
6699.38
6699.71
6699.45
6699.16
6699.62
6699.17
6698.79
6699.54
6699.02
6698.55
6783.6
6684.07
6689.34
)
;
    }
    procBoundary1to0
    {
        type            processor;
        value           nonuniform List<scalar> 
12
(
6699.82
6699.96
6699.96
6699.96
6699.9
6699.83
6699.95
6699.82
6699.69
6699.97
6699.9
6699.85
)
;
    }
    procBoundary1to3
    {
        type            processor;
        value           nonuniform List<scalar> 
27
(
6699.94
6699.9
6699.84
6699.75
6699.6
6699.41
6699.06
6698.71
6722.12
6699.64
6699.33
6698.88
6698.36
6697.79
6697.53
6697.25
6697.39
6697.03
6699.35
6698.94
6698.51
6698.14
6697.9
6697.79
6697.98
6698.1
6699.29
)
;
    }
    procBoundary1to5
    {
        type            processor;
        value           nonuniform List<scalar> 
32
(
6699.8
6699.7
6699.58
6699.38
6699.09
6691.52
6699.59
6699.36
6699.2
6698.89
6698.86
6698.6
6699.22
6699.55
6699.36
6699.15
6699.03
6698.95
6699.09
6699.19
6700.99
6699.95
6699.91
6699.8
6699.59
6699.86
6699.78
6699.59
6699.55
6699.66
6699.55
6699.72
)
;
    }
    procBoundary1to7
    {
        type            processor;
        value           uniform 6699.66;
    }
}


// ************************************************************************* //
