/*--------------------------------*- C++ -*----------------------------------*\
| =========                 |                                                 |
| \\      /  F ield         | OpenFOAM: The Open Source CFD Toolbox           |
|  \\    /   O peration     | Version:  4.x                                   |
|   \\  /    A nd           | Web:      www.OpenFOAM.org                      |
|    \\/     M anipulation  |                                                 |
\*---------------------------------------------------------------------------*/
FoamFile
{
    version     2.0;
    format      ascii;
    class       volVectorField;
    location    "23.5";
    object      UsPrev;
}
// * * * * * * * * * * * * * * * * * * * * * * * * * * * * * * * * * * * * * //

dimensions      [0 1 -1 0 0 0 0];

internalField   nonuniform List<vector> 
87
(
(4.96346e-09 1.2188e-08 2.87577e-08)
(-1.07161e-07 1.06967e-06 9.10053e-08)
(-1.20796e-08 5.39836e-09 1.33731e-08)
(-5.6681e-09 1.54932e-09 1.32426e-09)
(-5.54501e-10 2.06512e-09 -5.62643e-10)
(7.45395e-09 -2.11035e-09 -5.0602e-09)
(3.81289e-08 -1.05479e-08 -9.12098e-09)
(1.29245e-06 2.05992e-09 -8.01461e-08)
(6.63228e-07 -3.88825e-08 -1.24115e-07)
(-3.93078e-09 3.28704e-09 1.36331e-08)
(-1.54223e-09 -1.29145e-09 2.31909e-08)
(-7.66687e-09 3.70354e-09 5.73211e-09)
(5.4346e-09 1.16499e-09 2.0709e-11)
(1.3029e-08 -8.93019e-09 2.07554e-09)
(2.42765e-08 4.12087e-09 -6.21858e-09)
(3.87221e-08 -1.79665e-08 -1.51658e-08)
(4.27612e-08 -3.42094e-08 -2.4643e-08)
(-5.25929e-09 -6.45168e-08 -5.96368e-08)
(5.83799e-09 1.71943e-09 4.10983e-09)
(7.36457e-09 -1.53879e-09 6.6941e-09)
(1.10999e-08 5.92464e-09 2.99905e-09)
(1.95905e-08 9.6093e-10 -4.73203e-10)
(2.38222e-08 -2.54625e-09 4.9903e-10)
(3.65669e-08 4.2344e-10 9.80873e-09)
(4.1869e-08 -1.22758e-08 -2.67487e-10)
(3.87705e-08 -2.55755e-08 -3.03627e-08)
(3.2358e-08 -5.37652e-09 -2.81189e-08)
(-9.53128e-09 8.33876e-09 1.84927e-08)
(-2.58823e-10 7.55992e-09 3.34555e-08)
(2.12472e-09 6.1714e-09 1.16708e-08)
(1.69885e-09 5.95449e-10 5.7583e-10)
(5.06971e-09 3.73022e-10 -6.78174e-10)
(6.86449e-09 1.73335e-09 -4.97553e-09)
(1.43855e-08 -2.62994e-09 -7.5252e-09)
(2.13554e-08 -8.1076e-09 -1.75935e-08)
(8.7505e-09 -1.67127e-08 -3.98131e-08)
(-8.00697e-09 7.80751e-09 1.3181e-08)
(-4.39849e-09 3.84054e-09 1.78614e-08)
(6.21661e-09 8.20529e-09 7.09616e-09)
(5.72506e-09 2.71529e-09 3.14413e-10)
(1.56433e-08 -3.61348e-09 -2.30562e-09)
(2.035e-08 -1.98221e-09 -8.25681e-09)
(2.62495e-08 -7.31871e-09 -1.10438e-08)
(2.92755e-08 -1.0942e-08 -1.69713e-08)
(2.87936e-08 -1.955e-08 -4.51791e-08)
(3.36582e-09 5.7735e-09 2.05206e-09)
(5.91248e-09 5.98519e-09 4.24059e-09)
(1.207e-08 7.38522e-09 4.07386e-10)
(1.32052e-08 1.69849e-09 -2.44059e-10)
(2.07026e-08 -5.34596e-09 3.71591e-10)
(2.62984e-08 -7.409e-09 -3.96036e-10)
(3.28529e-08 -7.40905e-09 -9.04326e-09)
(3.62563e-08 -1.05827e-08 -1.17444e-08)
(8.26915e-09 -9.73364e-09 -2.66889e-08)
(-2.45076e-09 2.06486e-09 1.6672e-09)
(-1.21194e-09 3.9229e-09 4.12425e-09)
(3.74157e-10 3.18945e-09 2.86626e-09)
(1.63048e-09 1.24325e-09 -6.02615e-10)
(-3.65015e-10 7.89594e-10 -1.5233e-09)
(-1.71146e-09 4.94654e-10 -3.80327e-09)
(-8.58974e-10 1.8113e-09 -4.39046e-09)
(-4.46304e-09 5.32967e-10 -5.88054e-09)
(-3.99727e-10 -3.00719e-10 -1.56261e-08)
(-3.53899e-09 5.77586e-09 3.38948e-09)
(3.04022e-11 5.26034e-09 3.7822e-09)
(2.32478e-09 4.37479e-09 3.20055e-09)
(2.55196e-09 2.56517e-09 -3.8391e-10)
(2.4638e-09 8.08614e-10 -2.5212e-09)
(4.39481e-09 3.51094e-09 -8.58629e-09)
(6.687e-09 9.75322e-10 -8.3874e-09)
(7.57025e-09 -4.80677e-09 -9.59343e-09)
(-3.87008e-09 2.32089e-09 -1.07501e-08)
(2.52364e-10 6.04283e-09 7.95069e-10)
(3.34865e-09 4.75578e-09 2.22279e-09)
(4.57327e-09 5.1612e-09 9.61577e-10)
(4.69924e-09 3.49189e-09 -2.19738e-10)
(8.15227e-09 2.57669e-09 -2.1898e-09)
(1.19298e-08 -2.38814e-09 -2.91558e-09)
(1.40985e-08 -2.47951e-09 -9.41394e-09)
(6.32982e-09 -3.87499e-09 -4.60454e-09)
(-1.4665e-09 9.10939e-10 -1.07764e-08)
(-7.45131e-10 1.56044e-09 9.19056e-10)
(-2.50893e-09 1.00509e-09 1.83232e-09)
(-9.84329e-10 1.67715e-09 1.49129e-09)
(-2.37316e-09 2.5792e-09 1.1278e-09)
(-1.8835e-09 4.00844e-09 1.94082e-09)
(-3.50081e-09 3.73465e-09 1.66639e-09)
)
;

boundaryField
{
    inlet
    {
        type            calculated;
        value           nonuniform 0();
    }
    outlet
    {
        type            calculated;
        value           uniform (0 0 0);
    }
    wall
    {
        type            calculated;
        value           uniform (0 0 0);
    }
    procBoundary1to0
    {
        type            processor;
        value           uniform (0 0 0);
    }
    procBoundary1to3
    {
        type            processor;
        value           uniform (0 0 0);
    }
    procBoundary1to5
    {
        type            processor;
        value           uniform (0 0 0);
    }
    procBoundary1to7
    {
        type            processor;
        value           uniform (0 0 0);
    }
}


// ************************************************************************* //
