/*--------------------------------*- C++ -*----------------------------------*\
  =========                 |
  \\      /  F ield         | OpenFOAM: The Open Source CFD Toolbox
   \\    /   O peration     | Website:  https://openfoam.org
    \\  /    A nd           | Version:  4.x
     \\/     M anipulation  |
\*---------------------------------------------------------------------------*/
FoamFile
{
    version     2.0;
    format      ascii;
    class       vectorField;
    location    0;
    object      v;
}
// * * * * * * * * * * * * * * * * * * * * * * * * * * * * * * * * * * * * * //

325
(
( -2.13284e-10 -3.74307e-10 1.09332e-09 )  
( 1.20637e-10 -1.23894e-10 2.93461e-09 )  
( -2.94608e-09 -3.75722e-09 1.03045e-08 )  
( 2.47554e-11 -5.31702e-10 3.2265e-09 )  
( 8.83913e-11 -4.59903e-10 5.21934e-09 )  
( 2.89915e-10 -9.55993e-10 2.81254e-09 )  
( 1.04157e-10 -3.69103e-10 9.52519e-10 )  
( -1.35914e-10 -2.4587e-10 1.00254e-09 )  
( -4.327e-09 -3.93831e-09 6.71889e-09 )  
( 1.25186e-10 -1.81369e-10 1.12369e-09 )  
( -7.51292e-09 -3.54316e-09 9.73134e-09 )  
( -5.60604e-09 -7.73207e-10 8.74722e-09 )  
( -2.29588e-09 -1.96614e-09 7.19925e-09 )  
( -8.68442e-09 -3.81828e-09 1.00512e-08 )  
( -9.97293e-09 3.71013e-11 1.17872e-08 )  
( 2.22011e-10 -8.91855e-10 4.31292e-09 )  
( 7.26426e-10 -5.96789e-12 1.99234e-09 )  
( 2.72164e-10 -7.16265e-10 2.20972e-09 )  
( 9.91065e-10 -6.05582e-10 3.42973e-09 )  
( -2.59044e-09 -3.14008e-09 6.00683e-09 )  
( 7.39507e-10 1.33138e-10 3.04815e-09 )  
( -1.86723e-09 -2.00707e-09 6.4087e-09 )  
( -4.97318e-09 -4.427e-09 8.33765e-09 )  
( -7.49587e-10 -1.84989e-09 4.48908e-09 )  
( 5.12627e-10 -1.59657e-10 8.05316e-10 )  
( -5.04024e-09 -2.92012e-09 8.84667e-09 )  
( -5.32314e-11 -4.42027e-10 1.86365e-09 )  
( -4.53887e-09 -1.90919e-09 8.81631e-09 )  
( -4.9616e-10 -1.21555e-09 3.26645e-09 )  
( -3.49703e-09 -1.15386e-09 6.77643e-09 )  
( 2.21809e-09 4.57897e-11 4.20832e-09 )  
( -8.23316e-10 -1.28763e-09 3.58265e-09 )  
( -1.62704e-09 -3.67377e-10 5.06787e-09 )  
( 6.79528e-11 -8.10102e-10 1.8336e-09 )  
( 4.81804e-10 -1.10965e-10 2.63158e-09 )  
( -1.31981e-10 2.61419e-10 7.62992e-10 )  
( 8.2924e-10 -7.74515e-10 1.75948e-09 )  
( -1.0024e-09 -1.38054e-09 4.64838e-09 )  
( -1.17112e-09 -8.38093e-10 5.03452e-09 )  
( -5.21172e-09 -1.39664e-09 8.37865e-09 )  
( 3.05554e-10 -6.04096e-10 1.05417e-09 )  
( 2.14742e-10 -1.1153e-09 2.25935e-09 )  
( -3.10324e-11 -2.52964e-10 1.76131e-09 )  
( -4.36333e-10 -1.2418e-09 3.94484e-09 )  
( -4.86145e-10 -8.13858e-10 2.72325e-09 )  
( -1.60351e-09 -2.04098e-09 6.73536e-09 )  
( -1.64621e-09 -2.05961e-09 5.00316e-09 )  
( 9.94461e-10 4.59046e-10 2.60818e-09 )  
( -1.0206e-09 -1.00951e-09 3.47087e-09 )  
( 1.07621e-09 -6.61722e-10 2.94047e-09 )  
( 1.17492e-09 -4.27136e-10 1.27761e-09 )  
( -8.78491e-10 -2.16997e-09 4.0865e-09 )  
( -1.66443e-09 -2.13446e-09 4.60664e-09 )  
( 5.41716e-10 -3.25357e-09 5.85083e-09 )  
( -1.40053e-09 -7.39963e-11 5.45666e-09 )  
( 6.53267e-10 -4.25564e-10 3.45058e-09 )  
( -5.12329e-09 -3.5795e-09 6.5637e-09 )  
( 5.78164e-11 -3.79027e-11 6.56926e-10 )  
( -2.02957e-09 -3.09997e-09 7.99966e-09 )  
( -6.83e-11 -1.13617e-10 7.48883e-10 )  
( 4.30818e-10 -7.91196e-10 2.43797e-09 )  
( 5.89006e-10 -1.91272e-10 1.10013e-09 )  
( 1.42221e-10 -7.93154e-10 1.32366e-09 )  
( -2.46842e-09 -2.29792e-09 7.39752e-09 )  
( -7.69794e-11 -5.67475e-10 2.00602e-09 )  
( -3.3184e-09 -9.43548e-10 6.71562e-09 )  
( -3.48369e-09 -1.94513e-09 7.41699e-09 )  
( -1.48938e-10 -8.57977e-10 4.34392e-09 )  
( -9.41361e-09 -9.44072e-11 9.33982e-09 )  
( 7.86021e-10 -3.34021e-10 1.94602e-09 )  
( 2.85256e-10 -9.97307e-10 1.43093e-09 )  
( -9.38318e-11 -1.68347e-09 3.18633e-09 )  
( -9.24118e-10 -7.19585e-10 3.32805e-09 )  
( 3.1958e-10 -8.33614e-10 3.86983e-09 )  
( -8.33161e-10 -1.40951e-09 2.97327e-09 )  
( -3.84903e-09 -2.59869e-09 6.02266e-09 )  
( -2.24185e-09 -6.43068e-10 5.28583e-09 )  
( -7.84097e-09 -4.2945e-09 8.81234e-09 )  
( -1.48779e-09 -1.32833e-09 2.86468e-09 )  
( -3.99046e-09 -3.14425e-09 7.49598e-09 )  
( -2.68914e-09 -2.68022e-09 3.80468e-09 )  
( -2.33642e-09 -4.51263e-09 8.22731e-09 )  
( -6.2551e-09 -3.17244e-09 5.50497e-09 )  
( -7.07631e-09 -6.00294e-09 8.80272e-09 )  
( -3.0219e-09 -2.04242e-09 5.3727e-09 )  
( -1.3181e-09 -1.22763e-09 1.3659e-09 )  
( -5.16343e-09 -2.88083e-11 8.10512e-09 )  
( 1.39486e-10 -1.10707e-11 5.60516e-10 )  
( 3.04531e-10 -3.61232e-10 4.19367e-09 )  
( -2.21867e-09 -1.20399e-09 5.36283e-09 )  
( -2.10349e-10 -2.60685e-10 1.00962e-09 )  
( 5.3077e-10 -1.42096e-10 1.58908e-09 )  
( -1.93397e-09 -8.03361e-10 4.14604e-09 )  
( -1.00416e-10 -2.09015e-10 8.5743e-10 )  
( 1.45407e-10 -1.21843e-10 8.00933e-10 )  
( 1.12412e-09 4.19418e-10 4.07375e-09 )  
( -3.21691e-10 -1.95801e-10 1.49633e-09 )  
( -5.66549e-10 -5.96823e-10 1.6373e-09 )  
( -3.47615e-09 -5.13519e-09 9.3167e-09 )  
( 4.66194e-10 -1.1548e-09 3.28998e-09 )  
( 1.46654e-11 -7.21402e-10 2.96152e-09 )  
( -7.31366e-10 -3.0727e-10 2.48438e-09 )  
( -8.28549e-10 -3.04791e-09 3.06066e-09 )  
( -6.32385e-10 -9.47018e-10 1.3739e-09 )  
( 5.89479e-10 1.41191e-10 8.55965e-10 )  
( -4.33269e-10 -4.75754e-10 7.50427e-10 )  
( -1.11756e-10 -6.01679e-10 3.51275e-09 )  
( -1.57146e-10 -5.56213e-10 3.22991e-09 )  
( -9.97541e-11 -3.10124e-09 7.15703e-09 )  
( -4.89491e-10 -5.98729e-10 7.16759e-10 )  
( 1.16194e-09 -3.71687e-10 2.31815e-09 )  
( 2.16154e-10 -3.61318e-10 9.18612e-10 )  
( -3.90252e-10 -8.60686e-10 2.09271e-09 )  
( 4.80205e-10 -1.61339e-09 5.11767e-09 )  
( -1.44727e-09 -2.26473e-09 8.47751e-09 )  
( -3.17932e-11 -7.67685e-10 1.88458e-09 )  
( 7.63004e-10 -3.11748e-10 9.60289e-10 )  
( -1.28791e-09 -1.03669e-09 2.24804e-09 )  
( 7.91034e-12 3.11508e-11 3.10924e-10 )  
( -2.25553e-09 -3.22763e-09 4.57981e-09 )  
( 4.7621e-10 -5.88707e-10 1.07896e-09 )  
( -8.52283e-10 -1.05154e-09 3.70525e-09 )  
( -1.3325e-09 -1.49298e-09 4.66649e-09 )  
( -3.42895e-10 -3.8206e-10 1.56381e-09 )  
( 5.7582e-10 -3.29108e-10 1.69708e-09 )  
( -1.19358e-09 -2.12432e-09 6.88129e-09 )  
( -2.71135e-13 -3.11041e-09 3.04963e-09 )  
( 1.61306e-09 -1.29527e-09 4.719e-09 )  
( 6.90641e-12 -4.79944e-10 5.97679e-10 )  
( 8.59883e-10 -5.01015e-10 8.40126e-10 )  
( 1.43495e-10 -6.3699e-10 6.37496e-10 )  
( 1.86879e-10 -1.76574e-09 2.88487e-09 )  
( 1.98517e-10 -1.43037e-09 3.25166e-09 )  
( 6.37477e-10 -1.81066e-10 5.17564e-10 )  
( -4.43386e-10 -8.41143e-10 3.26123e-09 )  
( 5.93143e-10 -7.40718e-10 4.46346e-09 )  
( -3.51627e-10 2.57372e-10 2.35743e-09 )  
( -1.13758e-09 -5.39815e-10 2.05954e-09 )  
( 3.03623e-09 -4.55851e-09 1.95622e-09 )  
( 1.45993e-09 -1.7489e-10 2.52459e-09 )  
( -3.62597e-10 -9.58792e-10 9.25927e-10 )  
( 4.41176e-10 -2.85253e-09 4.21426e-09 )  
( -5.63774e-10 -1.00572e-09 1.71769e-09 )  
( 3.80494e-10 -7.7625e-10 2.09863e-09 )  
( -6.0331e-10 -1.03819e-09 2.13504e-09 )  
( -7.20547e-10 -1.44339e-09 2.18514e-09 )  
( -9.89773e-10 -1.17145e-09 5.29418e-09 )  
( 3.69696e-11 -1.72968e-10 6.99149e-10 )  
( -3.36516e-10 -2.12381e-10 5.33132e-10 )  
( -1.72418e-10 -1.06019e-09 1.16405e-09 )  
( 2.34521e-10 3.83408e-11 1.05596e-09 )  
( -1.66563e-10 -9.19095e-10 3.62769e-09 )  
( -4.5431e-09 7.51983e-10 3.49182e-09 )  
( -1.40551e-09 -9.54026e-10 3.88163e-09 )  
( -7.28905e-10 -2.53233e-11 2.93508e-09 )  
( 8.98923e-10 -3.56079e-10 8.4603e-10 )  
( -1.48881e-09 -1.2937e-09 3.02901e-09 )  
( -1.73258e-10 -3.67942e-10 6.64407e-10 )  
( 1.00258e-09 -6.53968e-10 2.83874e-09 )  
( -9.66234e-10 -1.56104e-09 5.5461e-09 )  
( 4.69957e-10 -2.02369e-10 1.71778e-09 )  
( 9.61387e-11 -8.025e-10 1.54179e-09 )  
( -1.91681e-10 -9.59418e-10 8.64599e-10 )  
( -5.8798e-10 -2.81604e-09 4.01829e-09 )  
( 8.94895e-10 -2.77465e-10 1.29914e-09 )  
( -7.78837e-10 -1.3335e-09 5.75824e-09 )  
( 9.24335e-11 -3.29187e-10 7.1968e-10 )  
( 1.78541e-09 -1.80755e-09 3.9228e-09 )  
( -1.16773e-09 -1.56835e-09 3.12992e-09 )  
( 7.15388e-10 -1.60992e-09 5.36002e-09 )  
( -1.72436e-09 -1.57115e-09 6.79709e-09 )  
( -3.94859e-10 -8.41977e-10 2.3783e-09 )  
( 1.60497e-09 -3.95688e-10 3.51399e-09 )  
( 3.28413e-10 -4.35252e-10 2.6805e-09 )  
( -2.20454e-10 -8.53371e-10 2.02707e-09 )  
( -1.30412e-10 -1.7614e-10 4.92764e-10 )  
( -1.74466e-09 -3.25286e-09 7.52525e-09 )  
( 3.39006e-10 -2.61058e-10 9.06793e-10 )  
( -4.76411e-11 -5.02862e-10 1.2856e-09 )  
( -2.2952e-09 -1.33202e-09 6.41139e-09 )  
( -1.1699e-10 -7.24786e-10 3.72793e-09 )  
( -1.06757e-09 -1.48198e-09 3.81415e-09 )  
( -1.78262e-09 -1.87167e-09 3.69105e-09 )  
( -5.99789e-10 -6.07952e-10 4.96296e-09 )  
( 1.21898e-09 -4.57954e-10 2.05261e-09 )  
( 2.32718e-10 -3.41266e-10 4.57308e-10 )  
( -1.02791e-11 -1.02417e-09 1.56095e-09 )  
( -1.45598e-09 -1.66364e-09 5.81586e-09 )  
( 4.68859e-11 -1.02894e-09 1.14047e-09 )  
( -3.94922e-11 -4.4939e-10 5.39084e-10 )  
( -1.85376e-10 -1.7064e-10 4.52674e-10 )  
( 2.35995e-10 -3.69528e-10 5.99088e-10 )  
( 7.52006e-10 -3.08012e-10 2.31486e-09 )  
( 1.45792e-09 -4.0441e-09 4.73794e-09 )  
( 1.06463e-09 -2.51292e-09 5.24575e-09 )  
( 1.21169e-10 -7.48208e-10 2.97384e-09 )  
( 2.66967e-10 -1.82175e-10 8.81088e-10 )  
( -1.18545e-09 -1.84996e-09 1.72927e-09 )  
( -7.66534e-10 -2.76487e-09 6.56276e-09 )  
( -1.73e-10 -4.38841e-10 7.38776e-10 )  
( -1.80477e-10 -1.44149e-09 1.84437e-09 )  
( 9.52158e-11 -8.90439e-10 1.81581e-09 )  
( -3.12665e-09 -2.80871e-09 6.093e-09 )  
( 2.8459e-10 -2.2213e-10 6.71623e-10 )  
( 8.99455e-11 -8.87108e-10 4.47696e-09 )  
( -1.73718e-09 9.41971e-10 3.66889e-09 )  
( 5.18139e-10 -4.20327e-10 7.56503e-10 )  
( 7.10135e-11 -4.73465e-10 1.13907e-09 )  
( -1.28187e-09 -9.63067e-10 5.25555e-09 )  
( 4.29471e-10 -1.11454e-09 4.89497e-09 )  
( -6.13785e-11 -1.45137e-10 3.11616e-10 )  
( -1.10093e-09 -8.91196e-10 3.08058e-09 )  
( 1.94554e-10 -1.74881e-09 5.10526e-09 )  
( -9.26336e-10 -4.87333e-10 4.30263e-09 )  
( -4.59188e-10 -5.59377e-10 1.22626e-09 )  
( 2.30945e-09 -7.33318e-09 5.3717e-09 )  
( -1.00621e-10 -1.67427e-10 3.70683e-10 )  
( 3.5369e-11 -1.2136e-09 1.07028e-09 )  
( 2.66321e-09 -2.96736e-10 3.92769e-09 )  
( 5.76611e-10 -3.23817e-10 1.38634e-09 )  
( -3.48524e-10 -3.98616e-10 8.43676e-10 )  
( -1.52741e-09 -2.34409e-09 3.15036e-09 )  
( -1.99064e-10 8.99638e-10 1.56818e-09 )  
( -8.61316e-10 -1.46867e-09 4.56883e-09 )  
( 5.99974e-10 -4.02177e-10 9.67167e-10 )  
( -1.80169e-09 -2.28112e-09 6.04543e-09 )  
( 4.03762e-10 -4.10275e-10 1.05059e-09 )  
( 6.12835e-11 -1.73074e-09 3.96363e-09 )  
( -5.44494e-10 -7.33632e-10 1.08431e-09 )  
( -2.71515e-09 -2.01547e-09 2.59156e-09 )  
( 7.6545e-10 -9.55669e-10 2.47406e-09 )  
( -2.67926e-10 -1.67738e-09 7.2456e-10 )  
( -1.39369e-09 -1.09732e-09 2.33923e-09 )  
( -1.10761e-10 -3.6457e-10 7.76136e-10 )  
( 1.25163e-09 3.08514e-09 4.36465e-09 )  
( -3.05864e-09 -3.39254e-09 4.02569e-09 )  
( 1.44189e-09 -1.06579e-09 3.04045e-09 )  
( 3.10854e-10 -1.46585e-10 6.2537e-10 )  
( -1.95343e-11 -5.31349e-10 1.32431e-09 )  
( 2.3099e-10 -3.18945e-09 1.88438e-09 )  
( 8.05859e-10 -4.36416e-10 2.33208e-09 )  
( -3.22925e-11 -6.72988e-11 1.11591e-09 )  
( 1.31464e-09 -1.89492e-09 1.95819e-09 )  
( -6.42012e-10 -1.0446e-09 2.42002e-09 )  
( 1.47884e-10 -6.46351e-10 5.98169e-10 )  
( 2.99044e-10 -3.18339e-10 7.80588e-10 )  
( -3.70033e-10 -1.80756e-11 1.70027e-09 )  
( 1.92986e-09 3.38257e-09 2.70396e-09 )  
( 1.86673e-10 -9.99269e-10 1.19731e-09 )  
( -2.05302e-10 -5.93932e-10 2.47523e-09 )  
( -9.88605e-11 -6.14003e-10 7.24929e-10 )  
( 4.91769e-11 -1.00205e-10 3.10238e-10 )  
( 2.32979e-10 -2.25564e-10 8.15503e-10 )  
( -3.13991e-11 -1.33819e-09 2.28243e-09 )  
( -1.06267e-09 -4.21135e-09 4.05514e-09 )  
( -6.84541e-10 -4.92989e-10 1.80379e-09 )  
( 3.8858e-10 -6.72524e-10 1.927e-09 )  
( -1.97234e-09 -1.24599e-10 1.15305e-09 )  
( 3.53841e-10 -3.72671e-10 6.49404e-10 )  
( -9.04626e-11 -1.1438e-09 1.36492e-09 )  
( -9.46282e-11 -6.15444e-10 9.6374e-10 )  
( -2.71272e-09 -5.76961e-09 8.43567e-09 )  
( -3.47856e-11 -1.20902e-10 1.01057e-09 )  
( 8.43856e-11 -2.77752e-11 7.09051e-10 )  
( 6.42347e-10 -9.84339e-10 1.84067e-09 )  
( 8.87908e-11 -1.33957e-10 3.26323e-10 )  
( 7.21081e-10 -1.16918e-09 1.65468e-09 )  
( 1.78345e-10 -8.09319e-10 7.95892e-10 )  
( -1.28714e-10 -1.60487e-10 3.5858e-10 )  
( 2.95349e-10 -1.87883e-10 6.73503e-10 )  
( 1.56682e-12 -3.148e-09 6.29674e-09 )  
( 1.20327e-09 -2.0065e-10 6.32167e-10 )  
( 1.66094e-10 -2.52472e-10 4.60545e-10 )  
( -6.55037e-11 -4.7008e-10 5.74583e-10 )  
( -4.29159e-10 -4.71537e-10 1.4698e-09 )  
( -6.95482e-10 -5.09665e-10 1.53904e-09 )  
( 8.83256e-10 -5.55056e-10 3.06876e-09 )  
( 1.49962e-11 -4.05532e-10 2.5953e-09 )  
( 4.42958e-10 -3.54774e-10 4.71731e-10 )  
( 1.88058e-10 -7.50539e-10 1.34438e-09 )  
( 1.52664e-10 -6.33589e-10 1.326e-09 )  
( 4.98035e-11 -6.29309e-10 3.48622e-10 )  
( 1.17925e-09 -4.06102e-10 1.60848e-09 )  
( 1.22084e-10 7.9372e-11 9.6799e-10 )  
( 3.26714e-11 -3.20483e-10 2.68235e-09 )  
( 1.68868e-10 -1.16715e-09 7.54817e-10 )  
( 6.95106e-10 -3.91963e-10 1.19178e-09 )  
( -2.09373e-10 -1.17097e-09 5.89744e-10 )  
( 1.76209e-10 -8.25133e-11 4.87137e-10 )  
( 7.32185e-10 -1.48247e-09 3.69363e-09 )  
( 2.6206e-10 3.84629e-11 1.24388e-09 )  
( 3.3169e-11 -2.55478e-10 3.65762e-10 )  
( -4.10477e-10 -5.49322e-10 8.06379e-10 )  
( 2.14937e-10 -1.79189e-10 1.15683e-09 )  
( -1.14332e-09 7.1335e-10 6.64548e-10 )  
( -7.07892e-10 -2.54206e-09 4.42408e-09 )  
( -2.46145e-10 -6.13996e-10 1.53434e-09 )  
( 2.45435e-10 -1.87476e-09 6.11255e-10 )  
( -5.23595e-10 7.45036e-11 6.22447e-10 )  
( 3.55061e-11 -2.35618e-10 3.18334e-10 )  
( -2.20644e-11 -4.6513e-10 8.22783e-10 )  
( 9.44133e-11 -4.3264e-10 7.40962e-10 )  
( -5.99739e-11 -3.13695e-10 4.54433e-10 )  
( 3.38287e-10 -3.79683e-10 1.01201e-09 )  
( -3.80965e-11 -3.41484e-10 8.60187e-10 )  
( 9.53028e-10 -1.1967e-09 1.52322e-09 )  
( 6.95653e-10 -3.75081e-10 8.63271e-10 )  
( 3.68127e-10 -4.85151e-10 5.75645e-10 )  
( 3.63015e-10 2.64694e-11 1.15347e-09 )  
( 9.21915e-11 -7.14161e-11 3.5237e-10 )  
( 7.87337e-11 -6.033e-11 2.6147e-10 )  
( -1.52639e-10 -6.01636e-10 5.11687e-10 )  
( -7.01402e-11 -5.42452e-10 5.42868e-10 )  
( 2.9524e-11 -1.1802e-10 4.48435e-10 )  
( 1.8158e-10 -6.91153e-10 2.99431e-10 )  
( 2.05351e-08 -1.67822e-08 1.48604e-09 )  
( 3.2907e-10 -5.21125e-10 7.35326e-10 )  
( -2.719e-10 -5.44426e-10 1.01543e-09 )  
( 6.01389e-10 -1.00586e-09 2.30683e-09 )  
( 4.87713e-11 -3.5107e-10 2.94154e-10 )  
( 1.27874e-10 -3.69069e-11 2.35173e-10 )  
( 1.92748e-09 -3.17552e-09 2.44801e-09 )  
( 4.51353e-10 -4.32124e-09 1.69991e-09 )  
( 1.71155e-10 -1.32524e-09 1.22584e-09 )  
( -2.70354e-10 -5.85674e-10 1.28358e-09 )  
)
