/*--------------------------------*- C++ -*----------------------------------*\
| =========                 |                                                 |
| \\      /  F ield         | OpenFOAM: The Open Source CFD Toolbox           |
|  \\    /   O peration     | Version:  4.x                                   |
|   \\  /    A nd           | Web:      www.OpenFOAM.org                      |
|    \\/     M anipulation  |                                                 |
\*---------------------------------------------------------------------------*/
FoamFile
{
    version     2.0;
    format      ascii;
    class       volVectorField;
    location    "33.5";
    object      ddtUrel;
}
// * * * * * * * * * * * * * * * * * * * * * * * * * * * * * * * * * * * * * //

dimensions      [0 1 -2 0 0 0 0];

internalField   nonuniform List<vector> 
87
(
(8.06588e-11 -8.13481e-10 -1.11531e-10)
(6.22947e-10 -5.25851e-10 -1.21833e-10)
(3.66157e-10 -7.33877e-10 -1.41727e-10)
(7.26182e-10 -2.84633e-10 -1.0804e-10)
(5.34342e-10 -4.74269e-10 -1.48758e-10)
(1.95893e-10 -6.29763e-10 -1.77113e-10)
(5.40074e-10 6.14072e-11 7.65667e-11)
(6.59291e-10 4.54916e-11 7.1925e-11)
(8.21606e-10 2.06503e-11 5.29325e-11)
(9.49645e-10 -9.17566e-12 3.20147e-11)
(1.01656e-09 -4.32379e-11 -9.46898e-12)
(1.04204e-09 -1.17167e-10 -6.00569e-11)
(9.27586e-10 -2.44082e-10 -6.00862e-11)
(7.41949e-10 -3.6276e-10 -4.23021e-11)
(5.32952e-10 -5.29529e-10 2.14037e-11)
(5.47021e-10 3.95817e-11 5.53628e-11)
(6.18483e-10 2.18087e-11 5.34616e-11)
(7.46669e-10 -7.88447e-13 3.23454e-11)
(8.68711e-10 -2.40225e-11 8.58893e-12)
(9.21825e-10 -6.84089e-11 -2.61175e-11)
(9.39725e-10 -1.34693e-10 -7.74691e-11)
(8.63746e-10 -2.52783e-10 -9.08417e-11)
(7.67688e-10 -4.05773e-10 -9.68048e-11)
(6.57956e-10 -4.952e-10 -5.9743e-11)
(5.28948e-10 2.82623e-11 4.37537e-11)
(5.89619e-10 1.24055e-11 4.16352e-11)
(7.00998e-10 -4.81626e-13 2.39102e-11)
(8.18321e-10 -2.8163e-11 4.95437e-12)
(8.62705e-10 -6.36219e-11 -2.90659e-11)
(8.37651e-10 -1.22833e-10 -6.77629e-11)
(7.39098e-10 -2.21679e-10 -1.01682e-10)
(6.00546e-10 -3.38643e-10 -1.1864e-10)
(4.74076e-10 -4.4802e-10 -1.23652e-10)
(5.34001e-10 5.49913e-11 3.90934e-11)
(6.2238e-10 4.31487e-11 3.34508e-11)
(7.61483e-10 2.33177e-11 1.7844e-11)
(8.61233e-10 -6.1027e-13 -9.47266e-13)
(9.34602e-10 -3.49716e-11 -3.32816e-11)
(9.56746e-10 -9.6398e-11 -5.98046e-11)
(9.12079e-10 -1.58765e-10 -6.51645e-11)
(8.03189e-10 -2.15115e-10 -6.78133e-11)
(7.32556e-10 -3.11986e-10 4.32128e-11)
(5.3656e-10 3.54994e-11 2.77302e-11)
(5.93229e-10 1.68986e-11 2.48266e-11)
(7.01892e-10 -1.1328e-13 1.32867e-11)
(7.95899e-10 -1.84559e-11 -9.8297e-12)
(8.59005e-10 -5.30361e-11 -3.55062e-11)
(8.86228e-10 -1.14066e-10 -7.09942e-11)
(8.34647e-10 -1.85875e-10 -8.23583e-11)
(7.80277e-10 -2.44228e-10 -8.84139e-11)
(6.91203e-10 -3.15981e-10 -4.17414e-11)
(5.28085e-10 3.00352e-11 2.47401e-11)
(5.39158e-10 9.08252e-12 1.82666e-11)
(6.49621e-10 -5.57374e-12 8.0468e-12)
(7.3241e-10 -2.29934e-11 -1.22856e-11)
(7.91349e-10 -5.08964e-11 -3.69692e-11)
(7.86285e-10 -1.00879e-10 -6.63578e-11)
(6.86951e-10 -1.68739e-10 -8.1243e-11)
(5.85414e-10 -2.39284e-10 -9.42315e-11)
(4.2023e-10 -2.94164e-10 -9.66554e-11)
(5.53193e-10 5.60196e-11 1.34566e-11)
(6.17266e-10 4.67538e-11 1.26246e-11)
(7.71006e-10 3.66865e-11 3.76721e-12)
(8.58915e-10 1.24818e-11 -1.42778e-11)
(9.70534e-10 -2.13086e-11 -4.11813e-11)
(9.83877e-10 -6.41697e-11 -6.37796e-11)
(9.71032e-10 -1.03823e-10 -6.09224e-11)
(8.24969e-10 -1.32415e-10 -2.30325e-11)
(8.16877e-10 -2.02999e-10 4.706e-11)
(5.73526e-10 5.02543e-11 1.13905e-11)
(5.97696e-10 2.63663e-11 7.75279e-12)
(6.95636e-10 7.25235e-12 -2.09085e-12)
(7.66057e-10 -7.96205e-12 -2.32254e-11)
(8.52828e-10 -3.93847e-11 -4.56408e-11)
(8.71204e-10 -8.50487e-11 -6.86108e-11)
(8.25994e-10 -1.52742e-10 -7.79117e-11)
(7.72019e-10 -1.84429e-10 -7.69293e-11)
(8.06792e-10 -2.14395e-10 -3.23163e-11)
(5.93768e-10 5.99706e-11 1.3685e-11)
(5.61878e-10 2.29457e-11 6.69834e-12)
(6.37553e-10 6.24457e-13 -3.35267e-12)
(6.88216e-10 -1.20506e-11 -2.59765e-11)
(7.40227e-10 -3.67032e-11 -4.55691e-11)
(7.6024e-10 -8.40905e-11 -6.41024e-11)
(6.91351e-10 -1.32641e-10 -7.61987e-11)
(5.6033e-10 -1.85113e-10 -7.65561e-11)
(5.3864e-10 -2.28501e-10 -6.54934e-11)
)
;

boundaryField
{
    inlet
    {
        type            calculated;
        value           nonuniform List<vector> 9((9.2006e-10 5.47957e-11 1.74189e-10) (1.07339e-09 1.09652e-10 9.49223e-11) (2.33609e-10 2.239e-11 4.38162e-11) (3.39257e-10 1.71641e-11 8.53642e-11) (5.37525e-10 1.07027e-11 5.43447e-11) (1.45827e-10 -8.23294e-12 5.60463e-11) (4.78126e-10 1.99845e-11 2.79387e-11) (5.71957e-10 1.21057e-10 4.01235e-12) (2.49426e-10 2.78061e-10 1.42247e-11));
    }
    outlet
    {
        type            calculated;
        value           nonuniform 0();
    }
    wall
    {
        type            calculated;
        value           nonuniform List<vector> 
57
(
(5.58325e-10 1.74345e-11 2.59675e-11)
(7.3044e-10 1.23857e-10 3.21064e-12)
(9.99324e-10 2.99407e-10 2.66725e-11)
(3.97155e-10 -3.49171e-11 2.16652e-11)
(3.20777e-10 -3.3729e-11 4.16758e-12)
(2.17636e-10 1.44299e-11 -1.32178e-11)
(1.59472e-09 4.41554e-11 -7.27616e-12)
(8.45897e-10 -5.06474e-11 3.57567e-12)
(7.42541e-10 -2.42499e-11 2.03182e-11)
(9.05763e-10 -4.1365e-12 6.85207e-12)
(5.86226e-10 3.72494e-12 -5.43986e-12)
(3.8198e-10 2.55985e-11 -3.11052e-11)
(2.01471e-09 -4.97754e-12 -1.97169e-11)
(1.15474e-09 -4.18271e-11 -9.59153e-12)
(5.07025e-10 1.79498e-11 -6.32992e-11)
(1.52418e-09 -1.07188e-11 -7.40495e-11)
(1.09823e-09 -5.12523e-11 -6.54324e-11)
(6.36428e-10 -1.64462e-11 -6.53399e-11)
(2.88521e-09 -1.41201e-10 -7.65473e-11)
(9.60456e-10 -4.16869e-10 2.32808e-11)
(4.21486e-10 1.16305e-11 1.58015e-12)
(1.80189e-09 -2.08801e-11 1.22541e-10)
(1.16214e-09 -1.96007e-10 -2.31607e-10)
(-4.80262e-10 -2.67431e-11 -2.97843e-11)
(2.04355e-09 -4.81253e-11 1.45753e-10)
(4.55618e-09 -1.82754e-11 -1.33833e-10)
(2.807e-09 1.00773e-11 -1.50926e-10)
(8.15785e-11 1.50648e-11 3.86757e-11)
(1.10342e-10 -9.83535e-12 5.29801e-11)
(1.00187e-09 2.98697e-10 2.68416e-11)
(1.78591e-10 -5.29218e-11 7.33326e-11)
(-7.09395e-10 -1.15468e-10 3.38375e-11)
(8.61095e-11 1.16494e-11 -1.38023e-11)
(1.91811e-10 -2.63643e-11 -3.82696e-11)
(2.95051e-10 -7.09937e-11 5.85772e-11)
(4.53904e-10 -2.99009e-11 1.93054e-11)
(7.21125e-10 -4.40857e-11 3.70989e-11)
(3.8347e-10 -4.44524e-11 1.23904e-11)
(2.71905e-10 2.31983e-11 -3.03809e-11)
(9.53011e-10 -6.67345e-12 2.73758e-11)
(5.44311e-10 -2.20218e-11 -1.91034e-11)
(2.3062e-10 1.47275e-11 -6.1721e-11)
(8.57887e-10 -8.11969e-11 -7.78982e-11)
(6.73952e-10 -3.36027e-11 -5.32666e-11)
(4.04639e-10 -1.7376e-11 -6.50991e-11)
(1.03249e-09 -1.9784e-11 -3.04212e-10)
(-2.21264e-10 -5.66337e-11 -1.6996e-10)
(-5.48462e-10 -1.01732e-10 -1.93115e-11)
(-1.11199e-10 7.87754e-12 -6.68938e-12)
(7.45165e-10 -3.09299e-10 -2.79248e-10)
(3.94804e-10 -1.14828e-10 -2.12315e-10)
(-1.91609e-10 -1.61869e-10 -1.23902e-10)
(-1.32773e-09 -2.68287e-11 -2.76775e-11)
(-2.23744e-10 -2.41968e-10 -5.07886e-10)
(-4.3552e-11 -2.94344e-10 -2.80954e-10)
(-2.80534e-09 -9.19217e-11 -2.487e-10)
(-3.31755e-10 -5.96301e-11 -8.27334e-11)
)
;
    }
    procBoundary6to0
    {
        type            processor;
        value           uniform (-8.91494e-10 -9.58876e-10 -1.83489e-10);
    }
    procBoundary6to2
    {
        type            processor;
        value           nonuniform List<vector> 
32
(
(-1.33177e-09 -1.29964e-09 -3.9971e-10)
(-3.87232e-11 -8.03917e-10 -2.77803e-10)
(-4.02548e-10 -1.00961e-09 -2.61682e-10)
(4.13858e-10 -4.62955e-10 -1.6991e-10)
(1.98431e-10 -6.69396e-10 -2.20615e-10)
(-2.04289e-10 -8.39893e-10 -2.2817e-10)
(5.75597e-10 7.51773e-11 1.24277e-10)
(6.91084e-10 5.73912e-11 1.32354e-10)
(8.35162e-10 2.67407e-11 1.18305e-10)
(9.2876e-10 -2.37999e-11 6.60006e-11)
(9.14876e-10 -9.58539e-11 -2.02285e-11)
(8.3353e-10 -2.49052e-10 -1.01002e-10)
(5.57782e-10 -4.89539e-10 -1.46443e-10)
(2.78053e-10 -6.8967e-10 -1.14828e-10)
(2.78053e-10 -6.8967e-10 -1.14828e-10)
(2.78053e-10 -6.8967e-10 -1.14828e-10)
(5.48193e-10 4.3303e-11 9.35341e-11)
(6.39449e-10 2.4494e-11 1.00039e-10)
(7.61438e-10 -2.40181e-12 8.81635e-11)
(8.63059e-10 -4.1631e-11 5.06619e-11)
(8.8789e-10 -1.08941e-10 -2.75066e-11)
(8.23829e-10 -2.15058e-10 -9.27342e-11)
(6.58212e-10 -3.8159e-10 -1.37455e-10)
(6.58212e-10 -3.8159e-10 -1.37455e-10)
(6.58212e-10 -3.8159e-10 -1.37455e-10)
(5.42693e-10 2.51971e-11 7.67664e-11)
(6.14506e-10 1.21579e-11 7.80488e-11)
(7.15497e-10 -6.17349e-12 6.78892e-11)
(8.02996e-10 -4.67786e-11 3.87657e-11)
(8.48229e-10 -1.09046e-10 -1.65582e-11)
(7.92268e-10 -1.95608e-10 -6.59963e-11)
(7.92268e-10 -1.95608e-10 -6.59963e-11)
)
;
    }
    procBoundary6to4
    {
        type            processor;
        value           nonuniform List<vector> 
27
(
(5.4875e-10 9.30799e-11 9.59665e-11)
(6.70533e-10 8.8698e-11 9.62877e-11)
(8.27573e-10 7.35216e-11 7.02505e-11)
(9.36907e-10 4.36686e-11 2.5477e-11)
(9.73076e-10 -8.88579e-12 -2.03772e-11)
(9.28557e-10 -1.38446e-10 -5.22576e-11)
(7.18855e-10 -3.21479e-10 -9.07035e-11)
(4.53699e-10 -4.38704e-10 -6.45075e-11)
(2.23913e-10 -6.488e-10 -2.74651e-12)
(5.31591e-10 7.93928e-11 4.77395e-11)
(6.26742e-10 7.58254e-11 4.5472e-11)
(7.71963e-10 6.21166e-11 3.17084e-11)
(8.75823e-10 3.90445e-11 8.76189e-12)
(9.5047e-10 3.46759e-12 -2.31356e-11)
(9.26132e-10 -6.50201e-11 -4.92805e-11)
(7.83583e-10 -1.61175e-10 -5.8076e-11)
(5.66899e-10 -2.54204e-10 -3.66415e-11)
(5.17308e-10 -4.41848e-10 3.03154e-12)
(5.42756e-10 7.23368e-11 1.95676e-11)
(6.18458e-10 7.21707e-11 1.92148e-11)
(7.82327e-10 6.59235e-11 1.21721e-11)
(8.77123e-10 3.56968e-11 -3.52844e-12)
(1.00251e-09 2.80069e-12 -2.50495e-11)
(9.63136e-10 -3.90867e-11 -4.29271e-11)
(8.52383e-10 -7.24525e-11 -3.88102e-11)
(4.54185e-10 -5.48328e-11 -3.31339e-11)
(6.09399e-10 -2.99582e-10 1.67425e-12)
)
;
    }
    procBoundary6to7
    {
        type            processor;
        value           nonuniform List<vector> 
12
(
(-5.1379e-10 -9.98783e-10 -5.44631e-11)
(2.68151e-11 -8.37949e-10 -7.04122e-11)
(-3.37435e-11 -7.05878e-10 -1.73566e-10)
(2.5765e-10 -7.09535e-10 7.21235e-11)
(3.59549e-10 -6.0766e-10 -3.25714e-11)
(2.75261e-10 -5.43152e-10 -1.18148e-10)
(4.6789e-10 -5.37279e-10 3.60174e-11)
(4.3278e-10 -4.29521e-10 -1.22795e-11)
(2.41347e-10 -3.70016e-10 -5.77557e-11)
(5.40913e-10 -3.97145e-10 1.01932e-11)
(5.34072e-10 -3.1194e-10 -1.6773e-11)
(2.677e-10 -2.83156e-10 -4.31916e-11)
)
;
    }
}


// ************************************************************************* //
