/*--------------------------------*- C++ -*----------------------------------*\
| =========                 |                                                 |
| \\      /  F ield         | OpenFOAM: The Open Source CFD Toolbox           |
|  \\    /   O peration     | Version:  4.x                                   |
|   \\  /    A nd           | Web:      www.OpenFOAM.org                      |
|    \\/     M anipulation  |                                                 |
\*---------------------------------------------------------------------------*/
FoamFile
{
    version     2.0;
    format      ascii;
    class       surfaceScalarField;
    location    "33.5";
    object      phi;
}
// * * * * * * * * * * * * * * * * * * * * * * * * * * * * * * * * * * * * * //

dimensions      [0 3 -1 0 0 0 0];

internalField   nonuniform List<scalar> 
192
(
1.46216e-07
-5.50093e-08
6.75709e-06
1.09717e-07
-1.10919e-07
1.60226e-07
-9.83898e-08
9.17365e-06
-2.51893e-07
9.20034e-06
-2.98117e-07
-2.16939e-07
7.29617e-06
3.79905e-07
3.30539e-08
7.00512e-06
1.57005e-07
-1.27274e-09
6.24722e-06
3.75777e-07
4.7517e-08
6.01321e-06
1.04851e-07
5.10686e-09
5.48846e-06
2.40706e-07
3.13394e-08
5.35219e-06
6.14685e-08
4.21703e-09
5.12934e-06
1.01089e-07
-3.46544e-08
5.03966e-06
2.83854e-08
1.44152e-08
-6.65647e-08
-1.0141e-07
7.63839e-06
4.88406e-07
5.4983e-08
7.41362e-06
1.97253e-07
5.88415e-09
6.907e-06
4.80147e-07
9.40272e-08
6.71779e-06
1.48599e-07
-1.69791e-08
6.29887e-06
3.31037e-07
9.28663e-08
6.15258e-06
1.05402e-07
-1.92712e-08
5.78055e-06
2.44812e-07
6.88076e-08
5.64873e-06
7.44297e-08
-2.51479e-08
6.48186e-08
1.97571e-08
8.31523e-06
-2.51039e-08
8.33323e-06
-4.85256e-08
8.46689e-06
-2.35965e-08
8.40955e-06
-8.41649e-08
8.41863e-06
-2.71894e-08
8.38455e-06
-1.13204e-07
8.42887e-06
-5.13992e-08
8.36432e-06
-1.59146e-07
-6.45633e-08
7.55766e-06
4.29996e-07
2.87298e-07
7.33828e-06
1.84788e-07
9.7453e-08
6.81289e-06
4.39999e-07
2.72374e-07
6.65405e-06
1.31617e-07
7.46235e-08
6.22253e-06
3.36903e-07
2.15183e-07
6.07671e-06
9.4658e-08
5.27264e-08
5.70132e-06
2.34544e-07
1.24176e-07
5.57137e-06
6.46232e-08
6.47646e-08
1.46844e-07
3.22891e-08
7.95865e-06
4.52304e-07
2.37291e-07
7.84054e-06
2.09004e-07
9.9781e-08
7.68173e-06
4.39508e-07
2.53323e-07
7.58415e-06
1.51375e-07
6.08463e-08
7.45647e-06
3.45022e-07
2.12428e-07
7.3354e-06
1.41188e-07
5.52689e-08
7.16256e-06
2.86718e-07
1.89472e-07
7.07996e-06
1.05645e-07
1.64266e-08
1.97704e-07
9.94308e-08
8.44436e-06
1.46109e-07
8.56007e-06
4.47601e-08
8.83277e-06
1.43218e-07
8.85531e-06
4.46646e-08
9.05025e-06
1.22892e-07
9.08069e-06
-2.45134e-09
9.23688e-06
7.91284e-08
9.24076e-06
-5.73784e-08
7.25837e-09
8.20277e-06
3.64889e-07
8.18469e-06
1.59849e-07
8.19193e-06
3.39135e-07
8.13935e-06
1.37874e-07
8.132e-06
2.29503e-07
8.05158e-06
9.38126e-08
7.95724e-06
1.37048e-07
7.92961e-06
2.25935e-08
5.8631e-08
8.41209e-06
3.53351e-07
8.50095e-06
1.7078e-07
8.74501e-06
3.48392e-07
8.77971e-06
1.64023e-07
8.95614e-06
2.65502e-07
8.98142e-06
1.23804e-07
9.09213e-06
2.15806e-07
9.07192e-06
5.92318e-08
1.08204e-07
8.66273e-06
8.87826e-06
9.36987e-06
9.57856e-06
9.96696e-06
1.00883e-05
1.03832e-05
1.03851e-05
)
;

boundaryField
{
    inlet
    {
        type            calculated;
        value           uniform -8.16327e-06;
    }
    outlet
    {
        type            calculated;
        value           nonuniform 0();
    }
    wall
    {
        type            calculated;
        value           nonuniform List<scalar> 
57
(
0
0
0
0
0
0
0
0
0
2.46519e-32
0
0
0
0
0
0
0
0
0
0
0
0
1.2326e-32
0
0
2.46519e-32
0
0
7.70372e-34
0
0
0
0
0
0
0
0
0
-3.85186e-34
0
0
0
0
1.54074e-33
0
0
0
0
0
0
0
0
0
0
0
0
0
)
;
    }
    procBoundary6to0
    {
        type            processor;
        value           uniform -9.66791e-09;
    }
    procBoundary6to2
    {
        type            processor;
        value           nonuniform List<scalar> 
32
(
8.25885e-08
1.56395e-07
1.03022e-07
3.59613e-07
3.81141e-07
2.98734e-07
4.5373e-07
1.78251e-07
3.77149e-07
1.29589e-07
2.59598e-07
7.04014e-08
1.49045e-07
-5.53742e-06
-1.22112e-07
4.61559e-08
3.61394e-07
1.78637e-07
3.08218e-07
1.62443e-07
2.35728e-07
1.21618e-07
-6.79017e-06
-2.9961e-07
1.59504e-07
3.61547e-07
2.27773e-07
3.70087e-07
2.90106e-07
3.49147e-07
-8.98176e-06
2.52689e-07
)
;
    }
    procBoundary6to4
    {
        type            processor;
        value           nonuniform List<scalar> 
27
(
4.0772e-10
-4.29381e-08
-4.25359e-08
-5.53958e-09
-6.88913e-09
1.80824e-10
7.36954e-09
7.21774e-10
6.19362e-08
-7.86352e-08
-6.41298e-08
-1.39468e-07
-4.22967e-08
-8.92288e-08
2.65595e-09
-1.79817e-08
1.4979e-08
1.39935e-08
-1.17099e-07
-4.43107e-08
-7.4001e-08
-1.06736e-08
-6.97081e-09
3.93295e-08
8.14697e-08
6.98055e-08
1.12349e-07
)
;
    }
    procBoundary6to7
    {
        type            processor;
        value           nonuniform List<scalar> 
12
(
5.37329e-06
6.73845e-06
9.27877e-06
5.09069e-06
5.3992e-06
8.27677e-06
5.27683e-06
6.94943e-06
9.36664e-06
7.79092e-06
9.12178e-06
1.05006e-05
)
;
    }
}


// ************************************************************************* //
