/*--------------------------------*- C++ -*----------------------------------*\
| =========                 |                                                 |
| \\      /  F ield         | OpenFOAM: The Open Source CFD Toolbox           |
|  \\    /   O peration     | Version:  4.x                                   |
|   \\  /    A nd           | Web:      www.OpenFOAM.org                      |
|    \\/     M anipulation  |                                                 |
\*---------------------------------------------------------------------------*/
FoamFile
{
    version     2.0;
    format      ascii;
    class       volScalarField;
    location    "33.5";
    object      pSmooth;
}
// * * * * * * * * * * * * * * * * * * * * * * * * * * * * * * * * * * * * * //

dimensions      [1 -1 -2 0 0 0 0];

internalField   nonuniform List<scalar> 
87
(
81.9301
38.4909
81.7089
88.5834
38.4925
81.5928
111.727
93.5114
104.429
75.9272
96.8128
57.8022
89.1551
39.8111
81.7442
111.272
93.4273
104.141
75.6205
96.6977
57.354
89.2614
39.0318
81.9492
110.59
93.0772
103.507
75.4443
96.2139
57.1993
88.8042
38.9379
81.7788
111.662
93.6236
104.364
75.8285
96.8677
57.7983
89.4186
39.5772
82.1562
111.124
93.4276
103.884
75.6621
96.4221
57.5398
89.0357
39.2163
81.8331
110.558
93.1327
103.439
75.5241
96.0858
57.3817
88.7716
39.1542
81.688
111.152
93.4239
103.939
75.7435
96.4761
57.701
89.0801
39.3479
81.9448
110.766
93.264
103.599
75.6221
96.1889
57.4228
88.8195
39.2355
81.7144
110.322
93.0839
103.242
75.4771
95.9506
57.4199
88.6319
39.3036
81.6672
)
;

boundaryField
{
    inlet
    {
        type            zeroGradient;
    }
    outlet
    {
        type            fixedValue;
        value           nonuniform 0();
    }
    wall
    {
        type            zeroGradient;
    }
    procBoundary6to0
    {
        type            processor;
        value           uniform 81.7893;
    }
    procBoundary6to2
    {
        type            processor;
        value           nonuniform List<scalar> 
32
(
81.7993
38.0783
81.8413
88.4263
38.0583
81.5328
111.213
93.4322
104.067
75.4662
96.6428
57.3753
89.2096
39.2558
39.2558
39.2558
110.825
93.1752
103.703
75.2179
96.3029
56.9996
88.8956
88.8956
88.8956
110.191
92.8345
103.151
74.995
95.8452
56.8277
56.8277
)
;
    }
    procBoundary6to4
    {
        type            processor;
        value           nonuniform List<scalar> 
27
(
111.612
93.836
104.467
76.039
96.9044
57.9955
89.234
39.819
81.6981
111.676
93.7438
104.416
75.9665
96.7786
57.6246
89.1819
39.1028
81.8517
111.307
93.4091
103.963
75.713
96.3482
57.3608
88.7556
39.083
81.631
)
;
    }
    procBoundary6to7
    {
        type            processor;
        value           nonuniform List<scalar> 
12
(
21.3422
19.8896
19.9869
21.9368
20.715
20.5115
21.4052
20.7272
20.8204
21.2828
20.8648
21.0196
)
;
    }
}


// ************************************************************************* //
