/*--------------------------------*- C++ -*----------------------------------*\
| =========                 |                                                 |
| \\      /  F ield         | OpenFOAM: The Open Source CFD Toolbox           |
|  \\    /   O peration     | Version:  4.x                                   |
|   \\  /    A nd           | Web:      www.OpenFOAM.org                      |
|    \\/     M anipulation  |                                                 |
\*---------------------------------------------------------------------------*/
FoamFile
{
    version     2.0;
    format      ascii;
    class       volVectorField;
    location    "33.5";
    object      Us;
}
// * * * * * * * * * * * * * * * * * * * * * * * * * * * * * * * * * * * * * //

dimensions      [0 1 -1 0 0 0 0];

internalField   nonuniform List<vector> 
87
(
(-5.62917e-09 -2.01873e-09 5.21374e-09)
(-4.94727e-09 -1.91211e-09 2.96953e-09)
(-6.44719e-09 -2.082e-09 3.72167e-09)
(-1.40774e-09 -6.40736e-11 1.1178e-09)
(-2.7781e-09 -7.06938e-10 1.50719e-09)
(-1.80283e-09 -5.85422e-10 1.43928e-09)
(-2.65334e-10 -1.65006e-10 3.95946e-10)
(-7.02846e-10 -4.75146e-10 8.12049e-10)
(-1.01981e-09 -5.52856e-10 1.19322e-09)
(-1.59945e-09 -7.79994e-10 1.54326e-09)
(-2.625e-09 -8.53053e-10 1.91825e-09)
(-3.49749e-09 -1.47376e-09 2.43761e-09)
(-4.03694e-09 -2.06531e-09 2.99712e-09)
(-4.69445e-09 -3.0672e-09 3.58548e-09)
(-4.89491e-09 -2.30105e-09 4.28802e-09)
(-4.03256e-10 -1.57257e-10 3.34777e-10)
(-7.09795e-10 -7.53353e-11 6.35939e-10)
(-9.07466e-10 -6.03848e-11 9.20736e-10)
(-1.62807e-09 -2.89447e-10 9.65957e-10)
(-1.98821e-09 -4.90247e-10 1.3329e-09)
(-2.67027e-09 -7.59454e-10 1.59879e-09)
(-3.41603e-09 -1.71698e-09 1.87542e-09)
(-4.19169e-09 -1.94986e-09 2.12384e-09)
(-5.38385e-09 -1.63546e-09 2.77888e-09)
(-6.60653e-11 -1.00862e-11 1.01947e-10)
(-8.85214e-10 -1.31079e-10 4.50134e-10)
(-3.23648e-10 -5.44841e-11 4.47996e-10)
(-6.36915e-10 8.49952e-11 5.00944e-10)
(-7.0353e-10 6.37695e-11 5.51447e-10)
(-1.38608e-09 -2.16704e-10 8.37421e-10)
(-1.83036e-09 -5.12845e-10 1.07771e-09)
(-1.76381e-09 -4.17399e-10 1.06513e-09)
(-3.7074e-09 -6.503e-10 1.02465e-09)
(-5.21961e-11 -1.80495e-10 2.72882e-10)
(-4.73886e-10 -3.59949e-10 5.00575e-10)
(-5.20709e-10 -4.24473e-10 9.15085e-10)
(-8.52401e-10 -4.07864e-10 9.11832e-10)
(-8.2518e-10 -4.63086e-10 1.07079e-09)
(-1.60745e-09 -9.92351e-10 1.36969e-09)
(-1.91683e-09 -1.53643e-09 1.67707e-09)
(-2.31514e-09 -2.38602e-09 2.70813e-09)
(-2.28259e-09 -2.08852e-09 3.19123e-09)
(-1.53796e-10 -1.68726e-10 2.55224e-10)
(-5.18439e-10 -1.8189e-10 4.21724e-10)
(-6.53325e-10 -1.19418e-10 7.03791e-10)
(-1.02853e-09 -2.32822e-10 6.90069e-10)
(-6.1641e-10 -2.20855e-10 4.59693e-10)
(-1.99187e-09 -7.13401e-10 1.11829e-09)
(-2.45621e-09 -1.26133e-09 1.04916e-09)
(-2.64535e-09 -3.57446e-09 5.01239e-10)
(-4.4458e-09 -2.04984e-09 2.57267e-09)
(1.32737e-10 -3.40682e-11 1.33337e-10)
(-2.46502e-09 -9.03041e-10 2.83792e-10)
(-2.37397e-10 -6.11269e-11 5.75565e-10)
(-4.04114e-10 7.27857e-11 3.40386e-10)
(-4.09512e-10 -1.57188e-11 2.41722e-10)
(-7.36775e-10 -3.32066e-11 3.86846e-10)
(-9.90271e-10 -4.34425e-10 5.17582e-10)
(-1.66036e-09 -2.24672e-10 5.94768e-10)
(-2.96345e-09 -9.43154e-10 1.41941e-09)
(-4.77191e-11 -1.85682e-10 2.05472e-10)
(-1.15174e-10 -3.61214e-10 2.68848e-10)
(-8.80031e-11 -4.83335e-10 5.00969e-10)
(-3.79351e-10 -2.42604e-10 4.49418e-10)
(-5.23366e-10 -3.0209e-10 5.73029e-10)
(-7.94267e-10 -8.23361e-10 7.00598e-10)
(-7.13797e-10 -1.24595e-09 9.17801e-10)
(-8.05287e-10 -2.0583e-09 1.06928e-09)
(-7.00896e-10 -2.64535e-09 9.42202e-10)
(2.75564e-10 2.41195e-11 1.72326e-10)
(-1.7324e-10 -1.40457e-10 1.77138e-10)
(-8.51233e-11 -1.56225e-10 2.96242e-10)
(-3.93764e-10 -9.55486e-11 3.25133e-10)
(-3.63924e-10 -1.9483e-10 3.25697e-10)
(-7.47135e-10 -4.09707e-10 4.42315e-10)
(-1.59789e-09 -1.0819e-09 4.71721e-10)
(-6.64521e-10 -6.13558e-09 2.71224e-10)
(-1.76919e-09 -2.76947e-09 1.17772e-09)
(1.57286e-09 4.12393e-10 1.34605e-10)
(-1.53753e-10 -6.39406e-11 1.44912e-10)
(-1.41241e-11 -3.38366e-11 2.75553e-10)
(-1.83133e-10 -9.76002e-12 1.25569e-10)
(-2.15852e-10 -6.84854e-11 9.28631e-11)
(-5.58801e-10 -7.57196e-11 2.22879e-10)
(-6.33415e-10 -1.94537e-10 2.14727e-10)
(-7.48256e-10 -8.50225e-10 2.91388e-10)
(-1.22081e-09 -7.2705e-10 1.05206e-09)
)
;

boundaryField
{
    inlet
    {
        type            zeroGradient;
    }
    outlet
    {
        type            zeroGradient;
    }
    wall
    {
        type            zeroGradient;
    }
    procBoundary6to0
    {
        type            processor;
        value           uniform (-7.17751e-09 -1.92126e-09 6.93574e-09);
    }
    procBoundary6to2
    {
        type            processor;
        value           nonuniform List<vector> 
32
(
(-8.66352e-09 -2.72373e-09 5.88497e-09)
(-6.18535e-09 -2.02249e-09 3.63142e-09)
(-8.6313e-09 -2.1633e-09 4.39976e-09)
(-2.28867e-09 -1.97525e-11 1.64808e-09)
(-3.55658e-09 -5.13313e-11 1.31495e-09)
(-4.83714e-09 -1.18029e-09 2.08584e-09)
(-1.63545e-10 -1.66502e-10 3.64577e-10)
(-6.83199e-10 -3.74119e-10 8.87036e-10)
(-1.01145e-09 -3.99725e-10 1.27943e-09)
(-1.8275e-09 -7.30648e-10 1.63884e-09)
(-2.73221e-09 -1.02103e-09 2.33073e-09)
(-3.71841e-09 -1.27245e-09 2.88095e-09)
(-4.62605e-09 -2.00496e-09 3.81611e-09)
(-5.45978e-09 -2.69598e-09 4.51212e-09)
(-5.45978e-09 -2.69598e-09 4.51212e-09)
(-5.45978e-09 -2.69598e-09 4.51212e-09)
(-1.09281e-10 -6.87912e-11 2.12517e-10)
(-8.15175e-10 -9.9266e-11 8.33103e-10)
(-8.65972e-10 -3.32963e-11 8.86968e-10)
(-1.48536e-09 -2.62759e-10 1.26224e-09)
(-2.11809e-09 -5.31611e-10 1.80194e-09)
(-2.88048e-09 -8.79593e-10 2.22588e-09)
(-3.1211e-09 -7.9853e-10 2.16712e-09)
(-3.1211e-09 -7.9853e-10 2.16712e-09)
(-3.1211e-09 -7.9853e-10 2.16712e-09)
(-1.04803e-10 -3.46055e-11 1.54029e-10)
(-4.74078e-10 5.61652e-11 4.6474e-10)
(-6.40081e-10 -2.3722e-11 6.43046e-10)
(-6.97881e-10 -6.0317e-11 6.0912e-10)
(-8.91927e-10 -9.83996e-11 9.25199e-10)
(-1.27512e-09 -2.13845e-10 9.28199e-10)
(-1.27512e-09 -2.13845e-10 9.28199e-10)
)
;
    }
    procBoundary6to4
    {
        type            processor;
        value           nonuniform List<vector> 
27
(
(-4.58229e-11 -1.6976e-10 4.74409e-10)
(-2.36063e-10 -5.17913e-10 9.123e-10)
(-5.65586e-10 -6.56763e-10 1.55331e-09)
(-7.48619e-10 -9.61055e-10 1.75737e-09)
(-1.07549e-09 -1.26702e-09 2.29576e-09)
(-2.20131e-09 -1.47848e-09 2.79118e-09)
(-1.07414e-09 -1.42018e-09 3.33826e-09)
(-2.62981e-09 -2.51625e-09 4.27216e-09)
(-3.15502e-09 -1.99486e-09 4.29765e-09)
(1.7337e-11 -2.91918e-10 3.46762e-10)
(-1.52143e-10 -5.90494e-10 6.28018e-10)
(-1.25277e-10 -4.6368e-10 9.94561e-10)
(-3.22995e-10 -4.87884e-10 1.04744e-09)
(-2.9186e-10 -6.82015e-10 1.62763e-09)
(-8.58497e-10 -1.36704e-09 1.70513e-09)
(-2.39057e-10 -1.1705e-09 2.43835e-09)
(-1.57994e-10 -1.56338e-09 2.51368e-09)
(6.27721e-10 -1.94851e-09 2.25533e-09)
(4.10238e-11 -1.6885e-10 1.90566e-10)
(-1.79449e-11 -5.38261e-10 2.66684e-10)
(2.63565e-11 -5.23406e-10 5.72447e-10)
(-1.40133e-11 -2.92493e-10 5.78634e-10)
(-1.62156e-10 -1.61992e-10 7.84146e-10)
(-4.62146e-10 -5.20468e-10 7.69288e-10)
(1.77158e-10 -1.09528e-09 8.13066e-10)
(4.63143e-09 -4.5455e-09 1.03759e-09)
(2.3234e-10 -1.8396e-09 1.77497e-09)
)
;
    }
    procBoundary6to7
    {
        type            processor;
        value           nonuniform List<vector> 
12
(
(-7.37996e-09 -3.05075e-09 6.5657e-09)
(-6.68225e-09 -3.87798e-09 3.31619e-09)
(-5.76771e-09 -2.55056e-09 1.05103e-09)
(-6.1662e-09 -3.09267e-09 4.91553e-09)
(-6.91128e-09 -2.85766e-09 3.29714e-09)
(-5.57607e-09 -1.57642e-09 1.3135e-09)
(-3.42241e-09 -2.74469e-09 3.01443e-09)
(-5.88193e-09 -2.63208e-09 2.36986e-09)
(-4.23761e-09 -7.94304e-10 1.58339e-09)
(-5.41563e-10 -2.28054e-09 1.62779e-09)
(-2.52536e-09 -3.1861e-09 9.24026e-10)
(-1.82609e-09 -7.20146e-10 5.52919e-10)
)
;
    }
}


// ************************************************************************* //
