/*--------------------------------*- C++ -*----------------------------------*\
| =========                 |                                                 |
| \\      /  F ield         | OpenFOAM: The Open Source CFD Toolbox           |
|  \\    /   O peration     | Version:  4.x                                   |
|   \\  /    A nd           | Web:      www.OpenFOAM.org                      |
|    \\/     M anipulation  |                                                 |
\*---------------------------------------------------------------------------*/
FoamFile
{
    version     2.0;
    format      ascii;
    class       volVectorField;
    location    "54";
    object      GField;
}
// * * * * * * * * * * * * * * * * * * * * * * * * * * * * * * * * * * * * * //

dimensions      [1 -2 -1 0 0 0 0];

internalField   nonuniform List<vector> 
108
(
(96.1523 -2.838 -1.8336)
(40.9596 -1.27415 -1.17887)
(97.5154 -2.95228 -1.74875)
(43.7048 -1.17191 -1.3268)
(99.3617 -2.17948 -0.872887)
(45.5992 -0.62376 -0.957055)
(100.976 -1.51103 -0.691526)
(46.0906 -0.584899 -0.915105)
(102.795 -1.46232 0.666901)
(94.3848 -5.4267 -1.5121)
(33.5288 -2.58367 -0.795166)
(92.2598 -5.61967 -1.12762)
(26.5591 -1.95129 -0.768778)
(91.0356 -4.17839 -0.401926)
(21.8378 -1.41648 -0.447311)
(91.3277 -3.1496 0.032137)
(17.3772 -1.3504 -0.396881)
(91.8134 -1.87812 0.85974)
(94.183 -2.8885 -1.3456)
(29.793 -1.56601 -0.618005)
(89.6955 -3.19801 -0.569181)
(19.2655 -1.04088 -0.181497)
(87.7851 -2.77165 0.196221)
(11.8024 -0.731967 0.15681)
(87.4971 -1.68506 -0.58157)
(4.05072 -0.270249 0.172639)
(87.6362 0.0777838 -0.589466)
(94.4818 -1.9725 -2.2028)
(30.1813 -0.539823 -0.847939)
(89.4709 -1.84267 -1.62357)
(18.9167 -0.758224 -0.786178)
(86.8799 -1.52711 -1.19053)
(9.12878 -0.501687 -0.258133)
(85.3676 0.295006 -0.778633)
(1.87428 -0.165593 -0.0397647)
(84.9845 -0.0486318 0.304199)
(96.0467 -2.23037 0.609614)
(41.2808 -0.919093 0.223884)
(97.6527 -1.84981 0.676503)
(43.4056 -0.655933 -0.536644)
(98.7771 -1.42661 -0.0550017)
(45.0722 -0.526455 -0.804285)
(100.239 -0.95757 0.0767298)
(44.2005 0.032924 -0.795655)
(100.094 -0.3024 0.471531)
(95.0878 -4.69922 1.26712)
(36.4816 -2.49899 0.464035)
(94.2369 -4.96259 1.87288)
(33.3611 -1.79342 0.128635)
(93.5772 -3.88195 1.13573)
(30.0176 -1.26327 -0.230336)
(93.1939 -2.43488 1.06334)
(25.4221 -0.753112 -0.228195)
(93.1819 -1.54964 1.24423)
(94.8005 -2.98535 1.76327)
(32.2926 -1.2566 0.713017)
(90.9601 -2.71216 2.21845)
(23.5756 -0.816405 0.509787)
(88.7415 -1.53335 1.66372)
(16.2848 -0.266302 0.275529)
(88.1761 -0.168238 1.52914)
(9.4844 0.0318552 0.218583)
(88.3021 0.262489 0.819051)
(93.6423 -0.94716 1.22411)
(31.4589 0.0846465 0.996293)
(90.2021 -0.114249 2.37917)
(21.9998 -0.0214513 0.612451)
(87.967 -0.0657869 2.49839)
(14.592 -0.240085 0.627854)
(87.606 -0.12306 2.40003)
(9.27629 -0.198422 0.402787)
(88.7675 -0.165573 0.884584)
(96.4391 -2.14323 1.47166)
(45.7299 -1.07609 1.06751)
(101.62 -1.77584 2.20567)
(53.8433 -0.549242 0.803706)
(104.962 -0.989938 1.68695)
(58.2328 -0.147479 0.54007)
(107.349 -0.572981 2.18562)
(61.7925 -0.132634 1.52206)
(111.258 -0.771997 2.95539)
(95.6262 -4.3702 1.54127)
(41.6607 -2.4758 0.909948)
(97.6421 -4.34244 2.27338)
(46.0451 -1.78506 0.917934)
(100.064 -2.9029 2.11123)
(48.8324 -1.37881 0.897708)
(102.16 -2.2003 2.56486)
(50.9896 -1.58871 1.19772)
(104.957 -2.18982 2.39062)
(94.537 -2.9095 1.7976)
(38.9986 -1.2863 1.22521)
(94.715 -2.79511 2.86365)
(39.8798 -1.14849 1.16685)
(95.9731 -1.62223 2.83533)
(41.3188 -0.430092 0.913869)
(97.7644 -0.540809 2.69644)
(43.0153 -0.456773 1.043)
(99.8938 -0.661122 2.48916)
(93.4171 -0.530453 1.53845)
(38.1961 -0.238331 1.02896)
(93.9769 -0.827375 2.24248)
(37.8424 -0.567694 0.944337)
(94.8721 -0.898808 2.15914)
(39.3249 -0.845289 0.978617)
(97.5284 -1.09835 2.33712)
(42.715 -0.962307 0.514721)
(100.387 -1.34846 1.40856)
)
;

boundaryField
{
    inlet
    {
        type            calculated;
        value           uniform (67 0 0);
    }
    outlet
    {
        type            calculated;
        value           nonuniform 0();
    }
    wall
    {
        type            calculated;
        value           uniform (0 0 0);
    }
    procBoundary4to0
    {
        type            processor;
        value           nonuniform List<vector> 
36
(
(97.0974 -2.56308 -4.26148)
(40.2993 -1.12556 -2.72349)
(98.8231 -2.42748 -4.41467)
(43.4404 -0.793875 -2.61485)
(100.267 -1.71189 -3.4423)
(44.4612 -0.603989 -2.40717)
(101.216 -1.48297 -2.68653)
(43.3277 0.0331646 -2.46692)
(101.091 -0.187831 -1.79229)
(95.9214 -5.19882 -4.84478)
(32.7143 -2.54812 -2.51358)
(93.6526 -5.89092 -4.87251)
(26.4749 -2.02125 -1.85733)
(92.102 -4.58252 -3.28851)
(20.0196 -1.54942 -1.272)
(90.7676 -2.20833 -2.30332)
(12.4806 -1.17288 -1.02908)
(90.4496 0.0602602 -2.14354)
(95.2216 -2.32223 -4.88444)
(28.5993 -1.01527 -2.35417)
(90.226 -2.17187 -4.16323)
(15.2216 -0.356567 -1.1059)
(86.4446 -0.594132 -2.3459)
(4.04686 -0.0364554 -0.307203)
(83.7866 0.821613 -1.62445)
(3.19709e-05 2.36067e-06 6.06503e-07)
(81.0802 0.966853 -0.263306)
(94.9901 -0.443746 -4.46807)
(30.5543 0.120826 -2.55501)
(90.9859 0.561337 -4.53542)
(20.4938 0.436421 -1.70999)
(89.7256 0.917998 -3.65219)
(14.3207 0.480204 -1.38117)
(89.2703 -0.186081 -2.72365)
(10.4783 0.597783 -1.26654)
(89.1158 -0.111269 -1.10536)
)
;
    }
    procBoundary4to5
    {
        type            processor;
        value           nonuniform List<vector> 
12
(
(45.4156 -0.751033 0.733896)
(10.8574 -1.33192 0.209566)
(3.36851e-05 -2.51543e-06 7.71506e-06)
(3.36369e-05 -2.70952e-06 2.91228e-06)
(42.0419 0.450237 -0.956359)
(21.6551 -1.07399 -0.215529)
(3.42509 -0.107466 0.120802)
(6.37569 -0.235117 0.522707)
(66.2844 -0.161016 2.15317)
(52.6986 -2.66049 1.15781)
(43.7087 -1.39927 1.16428)
(43.4636 -1.97111 0.593704)
)
;
    }
    procBoundary4to6
    {
        type            processor;
        value           nonuniform List<vector> 
27
(
(92.1002 0.831108 -1.80923)
(26.1321 0.528219 -0.572091)
(86.968 0.808484 -1.23652)
(11.3492 0.153162 -0.374463)
(83.1823 0.124035 -0.678713)
(1.43417 0.0176518 -0.0559545)
(81.523 -0.716009 -0.343313)
(3.29324e-05 8.79154e-07 -7.98974e-07)
(80.6819 -1.23229 -0.43498)
(92.9436 2.22815 3.0864)
(31.0084 0.903508 1.02102)
(89.8445 2.48628 3.23428)
(21.945 0.595938 0.995555)
(88.0864 1.72746 2.42751)
(14.253 0.0756091 0.674074)
(86.9278 0.810455 0.44564)
(7.40435 -0.123048 0.626531)
(86.3427 0.386587 -0.0378511)
(94.6017 2.11325 2.23518)
(40.0843 0.661894 0.926875)
(94.8925 1.53346 2.18427)
(40.1643 0.329149 0.62123)
(95.0346 0.509469 1.98624)
(39.8939 -0.35175 0.57757)
(95.1461 -0.659222 1.82167)
(37.6646 -0.897404 0.757362)
(96.5061 -0.891305 1.55221)
)
;
    }
}


// ************************************************************************* //
