/*--------------------------------*- C++ -*----------------------------------*\
| =========                 |                                                 |
| \\      /  F ield         | OpenFOAM: The Open Source CFD Toolbox           |
|  \\    /   O peration     | Version:  4.x                                   |
|   \\  /    A nd           | Web:      www.OpenFOAM.org                      |
|    \\/     M anipulation  |                                                 |
\*---------------------------------------------------------------------------*/
FoamFile
{
    version     2.0;
    format      ascii;
    class       surfaceScalarField;
    location    "54";
    object      phi;
}
// * * * * * * * * * * * * * * * * * * * * * * * * * * * * * * * * * * * * * //

dimensions      [0 3 -1 0 0 0 0];

internalField   nonuniform List<scalar> 
249
(
8.36461e-06
-4.89612e-07
-7.25471e-08
8.41887e-06
-2.28476e-07
-5.66737e-08
8.6256e-06
-5.07817e-07
-6.37015e-08
8.6878e-06
-1.84938e-07
-1.10522e-07
8.86438e-06
-3.76642e-07
-5.52236e-08
8.89049e-06
-1.20702e-07
-1.04482e-07
9.00368e-06
-2.761e-07
-3.67953e-08
9.02007e-06
-1.14462e-07
-1.01737e-07
-1.9797e-07
6.69869e-08
7.80442e-06
-4.92648e-07
-1.44931e-08
7.64576e-06
-2.45926e-07
-1.96685e-08
7.26102e-06
-5.22367e-07
4.40698e-08
7.13608e-06
-1.77405e-07
-3.80192e-08
6.90957e-06
-4.11726e-07
4.32535e-08
6.85517e-06
-1.27534e-07
-4.03539e-08
6.66679e-06
-2.86439e-07
6.45523e-08
6.60185e-06
-9.63681e-08
-3.72685e-08
-1.06601e-07
1.24354e-07
7.56457e-06
-2.87613e-07
2.47572e-08
7.26196e-06
-1.24614e-07
5.50368e-09
6.66039e-06
-2.98353e-07
9.75125e-08
6.49391e-06
-1.06364e-07
1.9364e-08
6.09987e-06
-2.54524e-07
1.09853e-07
6.01098e-06
-7.28068e-08
2.55416e-08
5.62048e-06
-8.22873e-08
5.58556e-08
5.53675e-06
-2.53328e-08
2.30248e-08
1.78374e-09
1.32826e-08
7.60641e-06
-5.79454e-08
7.27195e-06
8.85868e-09
6.6255e-06
4.4767e-08
6.41748e-06
-1.02045e-08
5.88172e-06
7.74955e-08
5.7187e-06
2.2068e-08
5.35773e-06
9.60018e-08
5.24299e-06
2.18759e-08
7.02478e-08
8.37773e-06
-4.10491e-07
1.23476e-07
8.44677e-06
-2.02385e-07
7.66747e-08
8.61559e-06
-4.03485e-07
1.70963e-07
8.63417e-06
-1.4502e-07
1.59132e-08
8.7965e-06
-3.14418e-07
9.68655e-08
8.81358e-06
-1.05966e-07
-1.55925e-08
8.84342e-06
-2.00936e-07
1.34298e-07
8.74093e-06
-4.25142e-08
4.3267e-08
-1.09672e-07
2.03299e-07
8.02706e-06
-4.55298e-07
1.66516e-07
7.94617e-06
-2.22688e-07
8.15254e-08
7.79575e-06
-4.54789e-07
2.45797e-07
7.70534e-06
-1.54731e-07
6.20978e-08
7.56261e-06
-3.20961e-07
1.92533e-07
7.46738e-06
-9.07444e-08
3.96532e-08
7.27015e-06
-1.54348e-07
2.15188e-07
7.17581e-06
-4.30221e-08
5.75824e-08
-7.63934e-08
2.15519e-07
7.75438e-06
-2.32751e-07
2.11098e-07
7.49136e-06
-6.91787e-08
1.15011e-07
6.99997e-06
-1.67183e-07
3.01295e-07
6.81469e-06
-4.95064e-08
9.94245e-08
6.43124e-06
-9.44463e-08
2.66781e-07
6.32533e-06
-2.97708e-08
7.04823e-08
5.99325e-06
-1.69843e-08
2.50576e-07
5.90789e-06
-9.41113e-09
7.47707e-08
6.00117e-09
1.96235e-07
7.6331e-06
1.63802e-07
7.39432e-06
1.20076e-07
6.85771e-06
2.73924e-07
6.67177e-06
9.22969e-08
6.28067e-06
2.76022e-07
6.18781e-06
9.51924e-08
5.94567e-06
2.80762e-07
5.9235e-06
5.42128e-08
1.3597e-07
8.67259e-06
-3.85851e-07
8.95963e-06
-2.1036e-07
9.49298e-06
-3.62386e-07
9.64708e-06
-1.38191e-07
9.97451e-06
-2.30561e-07
1.00492e-05
-9.02996e-08
1.03478e-05
-1.64248e-07
1.04929e-05
-1.01848e-07
-1.75457e-07
8.37521e-06
-4.31283e-07
8.46937e-06
-2.22992e-07
8.77567e-06
-4.22892e-07
8.87345e-06
-1.73874e-07
9.10358e-06
-2.68152e-07
9.16028e-06
-1.0735e-07
9.37371e-06
-1.62493e-07
9.45084e-06
-1.21394e-07
-1.68923e-07
8.14674e-06
-2.03659e-07
8.12886e-06
-9.00972e-08
8.22169e-06
-2.14426e-07
8.24876e-06
-1.01521e-07
8.39653e-06
-1.49147e-07
8.43489e-06
-7.52194e-08
8.61982e-06
-9.68512e-08
8.65692e-06
-8.37188e-08
-1.1887e-07
8.02975e-06
8.03481e-06
8.05264e-06
8.05769e-06
8.20782e-06
8.2991e-06
8.58737e-06
8.66837e-06
)
;

boundaryField
{
    inlet
    {
        type            calculated;
        value           nonuniform List<scalar> 
12
(
-8.16327e-06
-8.16327e-06
-8.16327e-06
-8.16327e-06
-8.16327e-06
-8.16327e-06
-8.16327e-06
-8.16327e-06
-8.16327e-06
-8.16327e-06
-8.16327e-06
-8.16327e-06
)
;
    }
    outlet
    {
        type            calculated;
        value           nonuniform 0();
    }
    wall
    {
        type            calculated;
        value           nonuniform List<scalar> 
63
(
0
0
0
0
0
0
0
0
0
0
0
0
0
0
0
0
0
0
0
0
0
0
0
0
0
0
0
0
0
0
0
0
0
3.08149e-33
0
1.54074e-33
0
0
0
0
0
0
-7.70372e-34
0
0
0
0
0
0
0
0
0
0
0
0
0
0
0
0
0
0
0
0
)
;
    }
    procBoundary4to0
    {
        type            processor;
        value           nonuniform List<scalar> 
36
(
3.60811e-07
2.30891e-07
3.64792e-07
2.33263e-07
2.55278e-07
1.99075e-07
1.99709e-07
1.99814e-07
6.61096e-08
3.76378e-07
1.95771e-07
3.55227e-07
1.55423e-07
2.18341e-07
1.01582e-07
1.34173e-07
8.411e-08
7.56627e-08
3.68907e-07
1.7579e-07
2.80047e-07
7.60768e-08
1.26984e-07
8.61961e-09
1.30493e-07
-1.03307e-08
5.03073e-08
3.95139e-07
2.01576e-07
3.64835e-07
1.48001e-07
2.86938e-07
9.72706e-08
2.07502e-07
7.76332e-08
4.72782e-08
)
;
    }
    procBoundary4to5
    {
        type            processor;
        value           nonuniform List<scalar> 
12
(
9.08494e-06
6.31046e-06
5.36478e-06
5.20312e-06
8.71429e-06
7.05137e-06
5.64254e-06
5.851e-06
1.08716e-05
9.65983e-06
8.8031e-06
8.81833e-06
)
;
    }
    procBoundary4to6
    {
        type            processor;
        value           nonuniform List<scalar> 
27
(
-6.79536e-08
-5.91641e-10
-6.15e-08
-3.61374e-08
-8.32014e-08
-2.91222e-08
-2.48249e-08
-1.00986e-08
-7.58702e-08
7.56619e-08
5.839e-08
1.40272e-07
3.3933e-08
9.81282e-08
-1.00371e-08
4.03947e-08
-1.95821e-08
1.27817e-08
9.36607e-08
2.49138e-08
4.16764e-08
-1.42786e-08
-2.32601e-08
-7.13003e-08
-1.04366e-07
-1.105e-07
-1.3286e-07
)
;
    }
}


// ************************************************************************* //
