/*--------------------------------*- C++ -*----------------------------------*\
| =========                 |                                                 |
| \\      /  F ield         | OpenFOAM: The Open Source CFD Toolbox           |
|  \\    /   O peration     | Version:  4.x                                   |
|   \\  /    A nd           | Web:      www.OpenFOAM.org                      |
|    \\/     M anipulation  |                                                 |
\*---------------------------------------------------------------------------*/
FoamFile
{
    version     2.0;
    format      ascii;
    class       volVectorField;
    location    "54";
    object      Urel;
}
// * * * * * * * * * * * * * * * * * * * * * * * * * * * * * * * * * * * * * //

dimensions      [0 1 -1 0 0 0 0];

internalField   nonuniform List<vector> 
108
(
(-0.0233591 0.000607737 0.000514404)
(-0.0214276 0.000541608 0.00047809)
(-0.022371 0.000546968 0.000462623)
(-0.0209186 0.000455234 0.000414678)
(-0.0221243 0.000425923 0.000362768)
(-0.0207933 0.000332443 0.000315901)
(-0.0220895 0.000298702 0.000262021)
(-0.0207434 0.000223146 0.000213258)
(-0.0221073 0.000190362 0.00012155)
(-0.023168 0.000627334 0.00049948)
(-0.0210363 0.000544454 0.000456809)
(-0.021888 0.000571022 0.000430693)
(-0.0201021 0.00045322 0.000376806)
(-0.0213448 0.000443485 0.000323298)
(-0.0196374 0.000332873 0.000274282)
(-0.0210863 0.00031015 0.000221703)
(-0.0193373 0.000227406 0.000178884)
(-0.0209527 0.000190442 0.000108983)
(-0.0229771 0.000422724 0.000487305)
(-0.0206872 0.000368884 0.000438592)
(-0.0214409 0.000382046 0.000400705)
(-0.0194078 0.0003031 0.00034003)
(-0.0206357 0.000298406 0.000284536)
(-0.0186624 0.000219234 0.000235733)
(-0.0201882 0.000195493 0.00020317)
(-0.0181693 0.000139853 0.000152861)
(-0.019929 0.000104946 0.000121027)
(-0.0228919 0.000144505 0.000498496)
(-0.0205576 0.000111238 0.000440588)
(-0.0212625 0.000122923 0.00041331)
(-0.0191496 9.92589e-05 0.000348826)
(-0.0203496 0.000103907 0.000303827)
(-0.0182812 7.83077e-05 0.000241857)
(-0.0198244 6.23854e-05 0.000207742)
(-0.0177501 6.09528e-05 0.000160067)
(-0.0195198 6.03519e-05 0.000124454)
(-0.0234348 0.000584741 0.000185929)
(-0.0215592 0.000521747 0.000180917)
(-0.0225373 0.000511438 0.000155)
(-0.0211577 0.000428 0.000163995)
(-0.0223809 0.000395772 0.000131067)
(-0.0211128 0.00031561 0.000119324)
(-0.0224025 0.000278979 6.237e-05)
(-0.0211217 0.000212692 4.02636e-05)
(-0.0224827 0.000184993 -3.12648e-05)
(-0.0232677 0.000604557 0.000157355)
(-0.0212362 0.000530005 0.000155404)
(-0.0221277 0.000544017 0.000110557)
(-0.0205024 0.000434804 0.000121593)
(-0.0217254 0.00042058 7.95259e-05)
(-0.0201847 0.000318952 7.79748e-05)
(-0.0215648 0.000293117 2.12001e-05)
(-0.0199907 0.000224452 1.49672e-05)
(-0.0215211 0.000207581 -4.473e-05)
(-0.0230844 0.000414857 0.000130214)
(-0.020901 0.000356536 0.00012886)
(-0.0217023 0.000364723 7.6242e-05)
(-0.0198272 0.000291376 8.42137e-05)
(-0.0210462 0.000273973 3.59307e-05)
(-0.0192405 0.000208018 4.04948e-05)
(-0.0207135 0.000179295 -7.28127e-06)
(-0.0188717 0.000147746 3.11225e-07)
(-0.0205481 0.00013147 -2.98835e-05)
(-0.0229959 0.000116798 0.000126801)
(-0.0207634 9.03583e-05 0.000116904)
(-0.0215157 9.04228e-05 6.6253e-05)
(-0.0195638 8.22096e-05 7.44561e-05)
(-0.0207679 8.1612e-05 1.82449e-05)
(-0.0188772 7.94551e-05 2.96371e-05)
(-0.0203703 7.62373e-05 -1.46303e-05)
(-0.0184703 8.2365e-05 9.38747e-06)
(-0.0201673 8.93396e-05 -4.13734e-06)
(-0.0235504 0.000571604 1.3865e-05)
(-0.0218041 0.000513284 1.31931e-05)
(-0.0228392 0.000494185 -2.46136e-05)
(-0.0216696 0.000410054 -2.72337e-06)
(-0.0228953 0.000369568 -3.46589e-05)
(-0.0218373 0.000296281 -3.33423e-05)
(-0.0230886 0.00026539 -0.000104584)
(-0.0220549 0.000221142 -0.000126328)
(-0.0233612 0.000210537 -0.000195284)
(-0.0234001 0.000587805 -3.22162e-06)
(-0.0215217 0.000519311 -1.07698e-06)
(-0.0224723 0.000522604 -4.81915e-05)
(-0.0211132 0.000421338 -2.95123e-05)
(-0.0223226 0.000393241 -7.00565e-05)
(-0.0210922 0.000311602 -6.27726e-05)
(-0.0223796 0.000289806 -0.000126365)
(-0.0211745 0.000249855 -0.000122673)
(-0.0225413 0.000248375 -0.000173516)
(-0.023221 0.000405496 -2.63484e-05)
(-0.021228 0.000351845 -2.54251e-05)
(-0.0220909 0.000361652 -7.956e-05)
(-0.020542 0.000294385 -5.85909e-05)
(-0.0217162 0.000272012 -0.000106613)
(-0.0203157 0.000213956 -8.3527e-05)
(-0.0216279 0.000194418 -0.000136539)
(-0.020272 0.00017905 -0.000112199)
(-0.0216658 0.000184281 -0.000148288)
(-0.0231385 0.000102789 -3.04766e-05)
(-0.0211054 9.27971e-05 -2.63079e-05)
(-0.0219205 0.000102759 -7.13492e-05)
(-0.0203024 9.7026e-05 -5.33469e-05)
(-0.0214628 0.000103016 -9.61413e-05)
(-0.0199907 0.000104581 -7.78975e-05)
(-0.0213008 0.000114833 -0.000115556)
(-0.0198884 0.000125915 -7.54777e-05)
(-0.0212801 0.000150121 -8.8611e-05)
)
;

boundaryField
{
    inlet
    {
        type            calculated;
        value           nonuniform List<vector> 
12
(
(-0.01 1.17451e-11 -7.60059e-12)
(-0.01 -1.49987e-12 -9.99407e-12)
(-0.01 1.72663e-11 -1.16918e-11)
(-0.01 2.67633e-12 8.28615e-14)
(-0.01 2.39513e-11 -9.83786e-12)
(-0.01 -3.25382e-12 -1.28566e-11)
(-0.01 1.45119e-11 -1.00378e-11)
(-0.01 9.61311e-12 -1.51683e-11)
(-0.01 2.13671e-11 -4.549e-12)
(-0.01 -1.04886e-11 -1.25349e-11)
(-0.01 1.70778e-11 -1.34018e-11)
(-0.01 -9.75422e-12 -1.87704e-11)
)
;
    }
    outlet
    {
        type            calculated;
        value           nonuniform 0();
    }
    wall
    {
        type            calculated;
        value           nonuniform List<vector> 
63
(
(6.97993e-12 2.13671e-11 -4.549e-12)
(1.61058e-11 -1.04886e-11 -1.25349e-11)
(1.72705e-11 1.70778e-11 -1.34018e-11)
(2.81854e-11 -9.75422e-12 -1.87704e-11)
(1.073e-11 2.85119e-11 -1.05326e-11)
(2.1155e-11 8.49501e-12 -1.19802e-11)
(2.32389e-11 4.40392e-11 -1.06273e-11)
(6.26275e-11 -6.66133e-13 -2.52668e-11)
(2.08139e-11 2.52674e-11 -7.40136e-12)
(2.99751e-11 -4.9623e-12 -9.23785e-12)
(3.08366e-11 2.51702e-11 -7.65219e-12)
(1.36826e-10 2.60933e-11 -3.22074e-11)
(2.75406e-11 1.54333e-11 -5.28272e-12)
(4.8786e-11 6.09548e-12 -2.82862e-12)
(3.77835e-11 2.53734e-11 -1.37967e-11)
(1.26566e-10 -8.37757e-12 -2.16845e-11)
(1.26693e-11 2.88326e-11 5.1987e-12)
(3.93794e-11 1.78321e-11 7.38881e-12)
(3.46976e-11 1.83558e-11 -3.08746e-12)
(2.08673e-10 -3.28015e-11 -3.02145e-11)
(5.8837e-12 1.65772e-11 8.93905e-12)
(-2.12663e-11 -4.81721e-11 3.37514e-11)
(6.13304e-11 5.49548e-12 4.15225e-11)
(2.34852e-10 -1.89059e-11 -2.69661e-11)
(-2.85342e-11 -1.00301e-11 7.55365e-11)
(-4.21142e-11 -9.79491e-11 2.4257e-11)
(1.13177e-10 9.4308e-11 7.75178e-11)
(2.57326e-10 5.2055e-11 2.95697e-11)
(-3.09678e-11 9.57287e-12 1.4078e-10)
(4.50588e-13 -2.42215e-11 1.37676e-10)
(1.3242e-10 1.53496e-10 1.02128e-10)
(1.42223e-09 -4.8213e-10 1.84609e-11)
(2.21614e-11 4.68979e-12 7.155e-11)
(-7.45125e-12 -6.10299e-11 1.59111e-10)
(2.2535e-11 4.31245e-11 1.35728e-10)
(5.86626e-10 1.46167e-10 9.551e-11)
(1.06016e-11 1.17451e-11 -7.60059e-12)
(1.24056e-11 2.39513e-11 -9.83786e-12)
(6.97993e-12 2.13671e-11 -4.549e-12)
(2.21206e-11 2.80464e-11 -1.11985e-11)
(2.39916e-11 2.79195e-11 -1.07527e-11)
(1.073e-11 2.85119e-11 -1.05326e-11)
(4.80526e-11 2.71687e-11 -6.66412e-12)
(3.57053e-11 2.13805e-11 -1.19384e-12)
(2.08139e-11 2.52674e-11 -7.40136e-12)
(4.98245e-11 4.2275e-11 1.29771e-11)
(5.08534e-11 3.21076e-11 -3.89584e-12)
(2.75406e-11 1.54333e-11 -5.28272e-12)
(5.20693e-11 1.21251e-10 2.94737e-11)
(6.54037e-11 5.19643e-11 2.61553e-11)
(1.26693e-11 2.88326e-11 5.1987e-12)
(1.95111e-11 1.06886e-10 9.53622e-11)
(3.85501e-11 3.74917e-11 3.23265e-11)
(5.8837e-12 1.65772e-11 8.93905e-12)
(-3.50887e-12 6.58529e-11 2.31347e-10)
(2.76251e-11 1.06761e-11 1.1234e-10)
(-2.85342e-11 -1.00301e-11 7.55365e-11)
(-1.54023e-10 1.4677e-10 4.81549e-10)
(-1.11977e-11 6.04346e-11 2.75943e-10)
(-3.09678e-11 9.57287e-12 1.4078e-10)
(-3.23049e-10 6.72798e-11 8.27184e-10)
(1.23962e-10 -1.50999e-11 2.50489e-10)
(2.21614e-11 4.68979e-12 7.155e-11)
)
;
    }
    procBoundary4to0
    {
        type            processor;
        value           nonuniform List<vector> 
36
(
(-0.0233809 0.000590074 0.000878162)
(-0.0214322 0.000528066 0.000809489)
(-0.0224177 0.000532142 0.000806408)
(-0.0209759 0.000444629 0.00070532)
(-0.022219 0.000417181 0.000656345)
(-0.0208849 0.00032817 0.000565068)
(-0.0221993 0.000288748 0.000509651)
(-0.0208201 0.000194091 0.000439634)
(-0.02217 0.000134872 0.000362283)
(-0.0231958 0.000610986 0.000891641)
(-0.0210431 0.000533638 0.0008045)
(-0.0219373 0.000567015 0.000801038)
(-0.0201474 0.000449686 0.000672626)
(-0.0214144 0.000443364 0.000624574)
(-0.019685 0.000328767 0.000513645)
(-0.0211627 0.000288196 0.000465675)
(-0.0193648 0.000206669 0.000379759)
(-0.0210025 0.000138298 0.00033026)
(-0.0229972 0.000401 0.000893491)
(-0.0206878 0.000349248 0.000795738)
(-0.0214768 0.000355601 0.000778404)
(-0.019401 0.000278337 0.000636788)
(-0.0206662 0.00025481 0.000582603)
(-0.0186293 0.000192672 0.000462877)
(-0.020215 0.00015053 0.000416318)
(-0.0182082 0.000117851 0.000321564)
(-0.0199405 7.33904e-05 0.000265234)
(-0.0229233 0.000114036 0.00089035)
(-0.0206002 9.116e-05 0.000796336)
(-0.0213493 7.86865e-05 0.000781762)
(-0.0192614 6.49733e-05 0.000642322)
(-0.0204935 5.22858e-05 0.000597171)
(-0.0184869 5.00924e-05 0.000472737)
(-0.0200323 5.22436e-05 0.000424028)
(-0.0180396 3.74532e-05 0.000333259)
(-0.0197504 3.53395e-05 0.000275024)
)
;
    }
    procBoundary4to5
    {
        type            processor;
        value           nonuniform List<vector> 
12
(
(-0.0206523 0.000125803 6.26159e-05)
(-0.0190763 0.000137879 7.20319e-05)
(-0.0178883 8.21152e-05 8.31635e-05)
(-0.0175029 5.86784e-05 0.00010373)
(-0.0211221 0.000131969 -4.16209e-05)
(-0.019871 0.000170508 -4.27177e-05)
(-0.0186451 0.000124461 -2.55252e-05)
(-0.0182602 9.91617e-05 3.02689e-06)
(-0.0223158 0.000173584 -0.000202864)
(-0.0213099 0.000240743 -0.0001618)
(-0.0202912 0.000200938 -0.000122564)
(-0.0198541 0.000181551 -5.79894e-05)
)
;
    }
    procBoundary4to6
    {
        type            processor;
        value           nonuniform List<vector> 
27
(
(-0.0229144 -0.000195158 0.000487284)
(-0.0205569 -0.000172261 0.000434054)
(-0.0212848 -0.000174023 0.000409315)
(-0.0191457 -0.000129884 0.000349324)
(-0.020398 -0.000111865 0.000307094)
(-0.0183024 -7.19548e-05 0.000251569)
(-0.0198868 -3.78792e-05 0.000217528)
(-0.0178673 -1.18571e-05 0.000181114)
(-0.0196172 3.15672e-05 0.00016365)
(-0.0230386 -0.000227168 8.79107e-05)
(-0.0208282 -0.000189009 0.000109775)
(-0.0216045 -0.000202682 5.62842e-05)
(-0.0196898 -0.000142421 7.59252e-05)
(-0.0208947 -0.000133558 3.03245e-05)
(-0.0190294 -7.16025e-05 4.97312e-05)
(-0.0204909 -5.00849e-05 3.51592e-05)
(-0.018603 -1.16152e-07 3.85597e-05)
(-0.0202594 2.49152e-05 4.41846e-05)
(-0.0232047 -0.000224718 -4.63553e-05)
(-0.0212136 -0.000179616 -1.94847e-05)
(-0.0220431 -0.00017998 -5.52665e-05)
(-0.0204771 -0.000126373 -2.86068e-05)
(-0.0216092 -0.000101354 -6.54878e-05)
(-0.0201505 -4.50541e-05 -4.06968e-05)
(-0.0214005 -5.0389e-06 -6.64373e-05)
(-0.019932 4.22602e-05 -3.62598e-05)
(-0.0212812 7.74916e-05 -3.65323e-05)
)
;
    }
}


// ************************************************************************* //
