/*--------------------------------*- C++ -*----------------------------------*\
  =========                 |
  \\      /  F ield         | OpenFOAM: The Open Source CFD Toolbox
   \\    /   O peration     | Website:  https://openfoam.org
    \\  /    A nd           | Version:  4.x
     \\/     M anipulation  |
\*---------------------------------------------------------------------------*/
FoamFile
{
    version     2.0;
    format      ascii;
    class       Cloud<passiveParticle>;
    location    0;
    object      positions;
}
// * * * * * * * * * * * * * * * * * * * * * * * * * * * * * * * * * * * * * //

325
(
( 0.0388641 -0.0811821 0.0295069 ) 1
( 0.0913069 -0.073359 0.0223464 ) 3
( 0.244275 -0.029711 0.0296468 ) 26
( 0.104055 -0.0622523 0.0322823 ) 12
( 0.121271 -0.0409379 0.0239765 ) 22
( 0.0693528 -0.0265405 0.0234484 ) 20
( 0.0144374 -0.0313833 0.0342943 ) 18
( 0.00978892 -0.0204791 0.0185376 ) 18
( 0.229641 -0.0151798 0.0288043 ) 26
( 0.0184074 -0.0624107 0.0159928 ) 9
( 0.241524 -0.00397455 0.0176469 ) 35
( 0.204859 -0.0421459 0.0146963 ) 25
( 0.179727 -0.0292835 0.0209638 ) 24
( 0.247276 -0.0512881 0.0183795 ) 17
( 0.238979 -0.0713482 0.0254788 ) 17
( 0.126461 -0.0523452 0.0392982 ) 13
( 0.118011 -0.0744309 0.0484107 ) 40
( 0.0664867 -0.0449494 0.0295885 ) 11
( 0.081734 -0.0414111 0.0178227 ) 20
( 0.138695 -0.00767275 0.033551 ) 31
( 0.12261 -0.0693912 0.0297669 ) 13
( 0.169714 -0.0153844 0.0308713 ) 24
( 0.210711 -0.00892241 0.029772 ) 34
( 0.124059 -0.0216167 0.0208627 ) 22
( 0.060855 -0.0900887 0.0331752 ) 2
( 0.202083 -0.0201953 0.0159783 ) 25
( 0.0345578 -0.0220895 0.0162382 ) 19
( 0.231813 -0.0461824 0.0298173 ) 17
( 0.0976405 -0.0115402 0.0332086 ) 30
( 0.197739 -0.0680324 0.0276027 ) 16
( 0.124108 -0.0284552 0.0393293 ) 22
( 0.077085 -0.00603408 0.0280496 ) 29
( 0.193397 -0.0835754 0.0163937 ) 6
( 0.0536597 -0.0306962 0.0347769 ) 19
( 0.0763948 -0.0602111 0.0214435 ) 11
( 0.0506437 -0.090027 0.0160893 ) 1
( 0.0599183 -0.0673921 0.0300387 ) 11
( 0.153255 -0.0453032 0.0287515 ) 14
( 0.136555 -0.0531314 0.0221861 ) 13
( 0.180708 -0.0681609 0.0174763 ) 15
( 0.0315775 -0.0621525 0.0306698 ) 10
( 0.0484956 -0.010827 0.0249385 ) 28
( 0.0293303 -0.0417768 0.0234996 ) 19
( 0.0874921 -0.0203858 0.0188336 ) 21
( 0.139486 -0.0768766 0.0224023 ) 5
( 0.184198 -0.0540449 0.0308592 ) 15
( 0.140912 -0.0319101 0.0211061 ) 23
( 0.113519 -0.0820358 0.0173026 ) 4
( 0.157535 -0.0838263 0.0270992 ) 5
( 0.0887059 -0.0435223 0.0384708 ) 12
( 0.0678365 -0.0791276 0.0163414 ) 2
( 0.106233 -0.014483 0.0156255 ) 21
( 0.151117 -0.0227804 0.0355384 ) 23
( 0.189405 -0.00732047 0.0363675 ) 33
( 0.212084 -0.0901735 0.0161799 ) 7
( 0.0962768 -0.0548555 0.0156362 ) 12
( 0.135789 -0.00516692 0.0144167 ) 31
( 0.00979317 -0.0747449 0.0283309 ) 0
( 0.1849 -0.0101209 0.0172402 ) 33
( 0.00973801 -0.0568984 0.036995 ) 9
( 0.0815061 -0.0225736 0.038268 ) 20
( 0.103559 -0.0901042 0.0325712 ) 3
( 0.0284137 -0.0173953 0.0353788 ) 19
( 0.196496 -0.0316667 0.0310765 ) 25
( 0.0475253 -0.0369734 0.0172582 ) 19
( 0.216569 -0.0774624 0.0307379 ) 7
( 0.216801 -0.0301043 0.0251261 ) 25
( 0.164459 -0.059107 0.0369862 ) 14
( 0.225493 -0.057351 0.0148187 ) 17
( 0.0840404 -0.0627825 0.039342 ) 12
( 0.047774 -0.0508658 0.0310779 ) 10
( 0.11879 -0.00367572 0.026691 ) 31
( 0.175999 -0.0902567 0.0229703 ) 6
( 0.108707 -0.0441674 0.0386485 ) 12
( 0.0584684 -1.44557e-06 0.038296 ) 29
( 0.153922 -0.0122327 0.0193584 ) 32
( 0.249261 -0.0872343 0.0176665 ) 8
( 0.228228 0.00821501 0.0256278 ) 35
( 0.0659409 0.0126445 0.0236115 ) 29
( 0.188669 0.0101698 0.0260752 ) 33
( 0.0921098 0.00913897 0.0296114 ) 30
( 0.20381 0.00192677 0.0461318 ) 70
( 0.149408 0.00634337 0.0242956 ) 32
( 0.208585 0.0102933 0.0273581 ) 34
( 0.170285 0.00446803 0.0314494 ) 33
( 0.0353119 0.00430984 0.040495 ) 28
( 0.211835 -0.0541212 0.0288408 ) 16
( 0.0194383 -0.0902702 0.0354995 ) 0
( 0.0993245 -0.035389 0.0239358 ) 21
( 0.230535 -0.090334 0.023308 ) 8
( 0.0283222 -0.0901059 0.0153128 ) 1
( 0.0799576 -0.0877581 0.0289782 ) 2
( 0.158577 -0.0655645 0.0194691 ) 14
( 0.00959818 -0.000938998 0.015682 ) 27
( 0.00991018 -0.0453013 0.0211998 ) 9
( 0.115965 -0.0579077 0.0149145 ) 13
( 0.0257858 -0.0467266 0.0422951 ) 9
( 0.028902 -0.00366895 0.0213358 ) 28
( 0.221467 0.0104182 0.0440949 ) 70
( 0.13166 -0.0558607 0.0577888 ) 49
( 0.140703 -0.0729249 0.0543263 ) 41
( 0.168721 -0.090148 0.0422348 ) 6
( 0.154744 -0.00709444 0.0546041 ) 68
( 0.0334873 -0.0272343 0.0518905 ) 55
( 0.127602 -0.0900618 0.056289 ) 40
( 0.0426107 -0.0769885 0.0597576 ) 37
( 0.167502 -0.0420947 0.059163 ) 60
( 0.125851 -0.009195 0.0692117 ) 67
( 0.230585 -0.0234958 0.0596127 ) 62
( 0.0466406 -0.0574609 0.0615787 ) 46
( 0.116031 -0.0443539 0.0603921 ) 49
( 0.0859146 -0.0775287 0.0621556 ) 39
( 0.242439 -0.090438 0.0561135 ) 44
( 0.210213 -0.0331404 0.0605854 ) 61
( 0.246297 -0.0571056 0.0544593 ) 53
( 0.0741964 0.000230652 0.0625812 ) 65
( 0.0648575 -0.0380671 0.0655937 ) 56
( 0.203255 -0.0901126 0.0601552 ) 43
( 0.00989591 -0.0828583 0.0715178 ) 72
( 0.168245 0.0100081 0.0581477 ) 69
( 0.0718735 -0.0639086 0.0605037 ) 47
( 0.186772 -0.0730458 0.0627517 ) 42
( 0.234149 -0.0727692 0.054063 ) 44
( 0.148224 -0.0904968 0.0575231 ) 41
( 0.0900629 -0.0188629 0.061236 ) 57
( 0.229389 -0.0473617 0.0515334 ) 53
( 0.209083 0.00975915 0.0654775 ) 70
( 0.175509 -0.00697409 0.0677174 ) 69
( 0.00967675 -0.0104053 0.0627318 ) 63
( 0.0663442 -0.0173371 0.0680588 ) 56
( 0.0269921 -0.0604953 0.0716198 ) 81
( 0.194748 -0.0145103 0.0547644 ) 61
( 0.149576 -0.0370887 0.0663922 ) 59
( 0.0639182 -0.0902107 0.0565852 ) 38
( 0.166256 -0.0655523 0.0621049 ) 50
( 0.188388 -0.0334757 0.0595454 ) 60
( 0.104885 -0.0726529 0.0653856 ) 39
( 0.223102 -0.0906664 0.0613688 ) 44
( 0.249323 -0.00224143 0.0534581 ) 71
( 0.115349 -0.0247629 0.0589249 ) 58
( 0.030858 0.00970552 0.0591164 ) 64
( 0.19075 0.00379549 0.061214 ) 69
( 0.0881428 0.0130169 0.0685871 ) 66
( 0.0877207 -0.0529097 0.0558642 ) 48
( 0.102145 -0.00180823 0.0563461 ) 66
( 0.118643 0.00796583 0.0612773 ) 67
( 0.2109 -0.0568305 0.050583 ) 52
( 0.0168538 -0.02675 0.0715617 ) 90
( 0.0296039 -0.0851892 0.0724967 ) 73
( 0.0266296 -0.00861849 0.052944 ) 63
( 0.107639 -0.0899698 0.0555032 ) 39
( 0.150998 -0.0560699 0.0553033 ) 50
( 0.204501 -0.0900413 0.0403308 ) 7
( 0.214869 -0.075732 0.0525767 ) 43
( 0.142098 -0.0876331 0.0389763 ) 5
( 0.0629726 -0.0213874 0.0492875 ) 56
( 0.0754963 0.00958225 0.0403267 ) 29
( 0.00963131 -0.0454722 0.0630856 ) 45
( 0.0994279 -0.0309739 0.0493466 ) 57
( 0.182354 -0.0245145 0.0430356 ) 60
( 0.125264 -0.0733403 0.0668476 ) 40
( 0.0628332 -0.0553652 0.045586 ) 47
( 0.0466802 -0.0304126 0.0679602 ) 55
( 0.227603 -0.0893467 0.0425465 ) 8
( 0.0701749 -0.0756664 0.0447269 ) 38
( 0.193681 -0.0476577 0.0469648 ) 51
( 0.0179595 -0.0611831 0.0543727 ) 45
( 0.215624 -0.00747264 0.0592538 ) 70
( 0.159072 -0.0198296 0.0690859 ) 59
( 0.134325 -0.0120389 0.0519685 ) 67
( 0.210899 -0.0395395 0.0419217 ) 25
( 0.0853594 -0.00566093 0.0474114 ) 66
( 0.133612 -0.0314882 0.0562989 ) 58
( 0.106013 -0.058899 0.0515097 ) 48
( 0.1509 -0.0736388 0.0714393 ) 77
( 0.0456268 -0.0902921 0.0457088 ) 37
( 0.228337 -0.0304638 0.0412878 ) 26
( 0.082647 -0.0905418 0.0479409 ) 38
( 0.177589 -0.0901453 0.0599504 ) 42
( 0.226356 -0.0625318 0.0393125 ) 17
( 0.143482 -0.0623327 0.0380376 ) 14
( 0.164009 -0.0245619 0.0504377 ) 59
( 0.136358 0.00760653 0.0511314 ) 67
( 0.179741 -0.0614241 0.0487011 ) 51
( 0.0802998 -0.0345372 0.0539682 ) 56
( 0.0102565 0.00459603 0.0491909 ) 63
( 0.055692 -0.00394944 0.057848 ) 65
( 0.181442 -0.0761644 0.0356993 ) 6
( 0.0460165 -0.065643 0.0438017 ) 46
( 0.044351 -0.0688001 0.0774206 ) 82
( 0.0219524 -0.090472 0.0552405 ) 36
( 0.0098274 -0.0130997 0.0404111 ) 27
( 0.123413 -0.0899817 0.0327254 ) 4
( 0.231358 -0.00782357 0.0472111 ) 71
( 0.231071 -0.00848901 0.0722977 ) 107
( 0.114167 -0.0119371 0.044067 ) 67
( 0.116842 -0.0901239 0.0731134 ) 76
( 0.145193 -0.00477784 0.0715838 ) 104
( 0.211644 -0.0205396 0.0454087 ) 61
( 0.0289071 -0.0750312 0.0454706 ) 37
( 0.0455344 -0.0137221 0.0441532 ) 64
( 0.106726 -0.0129075 0.0716018 ) 102
( 0.182875 0.0119487 0.0448979 ) 69
( 0.00984224 -0.0283623 0.05318 ) 54
( 0.172379 -0.0412919 0.0401543 ) 24
( 0.246544 -0.0901671 0.0368617 ) 8
( 0.0616049 -0.0554411 0.0746576 ) 83
( 0.0805059 -0.0483712 0.073442 ) 83
( 0.197142 -0.0705659 0.0466797 ) 52
( 0.22624 -0.0404625 0.069538 ) 62
( 0.0490592 -0.0901679 0.0791191 ) 73
( 0.204208 -0.0738793 0.0716134 ) 79
( 0.173441 -0.00619408 0.0480247 ) 69
( 0.249694 -0.0737715 0.0658897 ) 44
( 0.029093 -0.0437579 0.0614041 ) 46
( 0.247851 -0.0416746 0.0727564 ) 98
( 0.00944091 -0.0774416 0.0476204 ) 36
( 0.0401983 -0.0115388 0.0671252 ) 64
( 0.18187 -0.0238869 0.0757278 ) 96
( 0.0981752 -0.0348578 0.0700671 ) 57
( 0.0868762 -0.0665385 0.0783751 ) 84
( 0.117026 0.00827512 0.0420531 ) 31
( 0.15655 -0.0548022 0.0757353 ) 86
( 0.216935 -0.0590383 0.0692269 ) 52
( 0.0806795 -0.027821 0.0760972 ) 92
( 0.236333 -0.0591511 0.0713355 ) 53
( 0.0968168 -0.0766566 0.0454963 ) 39
( 0.149286 -0.0386286 0.0467851 ) 59
( 0.0505143 -0.0408197 0.0514981 ) 55
( 0.155916 0.0141623 0.0729652 ) 104
( 0.131709 -0.0428102 0.0723603 ) 94
( 0.0408995 0.00853772 0.0760577 ) 100
( 0.0925168 0.0138276 0.049305 ) 66
( 0.141216 -0.0901379 0.0766784 ) 77
( 0.198304 -0.0534223 0.0656177 ) 52
( 0.154695 0.00876389 0.043047 ) 68
( 0.198524 -0.0347492 0.0762841 ) 97
( 0.0756872 -0.0900932 0.0751042 ) 74
( 0.221847 -0.0803376 0.0776311 ) 79
( 0.193172 0.00257211 0.0814086 ) 105
( 0.12081 -0.0259002 0.0778365 ) 94
( 0.0146859 -0.0711936 0.0874255 ) 81
( 0.202345 -0.0128055 0.07295 ) 106
( 0.174814 -0.0722206 0.0778319 ) 78
( 0.0234479 -0.00782757 0.0766422 ) 99
( 0.0663375 -0.0379213 0.0852778 ) 92
( 0.109693 -0.0723602 0.0843087 ) 75
( 0.181181 -0.0476434 0.0736497 ) 87
( 0.0657117 -0.00208346 0.0804985 ) 101
( 0.19446 -0.089919 0.077976 ) 79
( 0.0402389 -0.046821 0.0769061 ) 82
( 0.00977617 0.00628693 0.0807324 ) 99
( 0.00990968 -0.052355 0.0831452 ) 81
( 0.163131 -0.00315792 0.0825707 ) 104
( 0.224546 0.00930609 0.0771501 ) 107
( 0.131104 0.00828146 0.0762909 ) 103
( 0.136783 -0.0612333 0.0774211 ) 85
( 0.142926 -0.0274971 0.0823693 ) 95
( 0.0613339 -0.0768725 0.0709361 ) 38
( 0.0775651 0.0130206 0.0852925 ) 101
( 0.161719 -0.090254 0.0716919 ) 77
( 0.248004 -0.0321182 0.0562311 ) 62
( 0.160085 -0.0681515 0.0901994 ) 86
( 0.0969892 -0.0902212 0.0722798 ) 75
( 0.245112 -0.090218 0.0755977 ) 80
( 0.0580376 -0.0763638 0.0903075 ) 74
( 0.231452 -0.017676 0.0901206 ) 98
( 0.106215 -0.0305975 0.0902687 ) 93
( 0.0358425 -0.0808212 0.0905004 ) 73
( 0.0733109 -0.0556735 0.0904252 ) 83
( 0.24255 0.00727922 0.0698234 ) 71
( 0.228974 -0.0672419 0.0903408 ) 89
( 0.0858083 -0.040287 0.0904387 ) 93
( 0.0327789 -0.0245625 0.0829868 ) 91
( 0.208716 -0.0703456 0.0903589 ) 88
( 0.111885 0.00443671 0.0790201 ) 103
( 0.225389 -0.0481959 0.0875023 ) 89
( 0.165476 -0.036363 0.077784 ) 95
( 0.126675 -0.0900272 0.0902424 ) 76
( 0.0881088 -0.00556864 0.0752615 ) 102
( 0.111341 -0.046345 0.079369 ) 85
( 0.0269083 0.0101797 0.0901038 ) 99
( 0.184996 -0.036826 0.0903604 ) 96
( 0.126961 -0.00530733 0.0901386 ) 103
( 0.206151 -0.051674 0.0840418 ) 88
( 0.0521049 -0.017346 0.0818042 ) 91
( 0.126475 -0.0392818 0.0906755 ) 94
( 0.0542078 0.0104363 0.0904378 ) 100
( 0.00984399 -0.0304824 0.0897086 ) 90
( 0.218845 -0.023316 0.0757487 ) 97
( 0.210206 -0.0901436 0.0901879 ) 79
( 0.0315443 -0.061387 0.0905228 ) 82
( 0.14632 -0.00981238 0.0904778 ) 104
( 0.188126 -0.0564824 0.0901022 ) 87
( 0.146584 -0.0454819 0.0901535 ) 86
( 0.248561 -0.0572847 0.0865052 ) 89
( 0.176034 -0.090465 0.0850791 ) 78
( 0.180573 -0.00973957 0.090132 ) 105
( 0.143812 0.0116457 0.0905227 ) 104
( 0.0506016 -0.0559476 0.0907212 ) 82
( 0.141746 -0.0755255 0.0902296 ) 77
( 0.0946236 0.00435734 0.0905904 ) 102
( 0.08609 -0.082452 0.0901855 ) 75
( 0.122312 -0.0585913 0.0904253 ) 85
( 0.107825 -0.0106148 0.0907075 ) 102
( 0.247221 -0.0768459 0.0901322 ) 80
( 0.232587 -0.090065 0.0906492 ) 80
( 0.0699257 -0.0189003 0.0902457 ) 92
( 0.169348 -0.0505379 0.0904909 ) 87
( 0.0256744 -0.0424098 0.0901431 ) 90
( 0.00986934 -0.0106591 0.0904693 ) 99
( 0.0981037 -0.0558173 0.09037 ) 84
( 0.155692 -0.0897806 0.090339 ) 77
( 0.104513 -0.0902019 0.0904421 ) 75
( 0.0378218 -0.00679264 0.0903066 ) 100
( 0.216746 -0.00347685 0.0901621 ) 106
( 0.0898047 -0.0181308 0.0904704 ) 93
( 0.187905 -0.0761564 0.0909542 ) 78
( 0.212045 -0.0340407 0.0905508 ) 97
( 0.0476182 -0.0351605 0.0905994 ) 91
( 0.00984539 -0.0901544 0.0900716 ) 72
( 0.242486 -0.0392105 0.0908713 ) 98
( 0.241529 0.012574 0.0902522 ) 107
( 0.197172 -0.020831 0.0902959 ) 97
( 0.164679 -0.0214138 0.0903792 ) 95
)
