/*--------------------------------*- C++ -*----------------------------------*\
| =========                 |                                                 |
| \\      /  F ield         | OpenFOAM: The Open Source CFD Toolbox           |
|  \\    /   O peration     | Version:  4.x                                   |
|   \\  /    A nd           | Web:      www.OpenFOAM.org                      |
|    \\/     M anipulation  |                                                 |
\*---------------------------------------------------------------------------*/
FoamFile
{
    version     2.0;
    format      ascii;
    class       volVectorField;
    location    "23.5";
    object      DDtUrel;
}
// * * * * * * * * * * * * * * * * * * * * * * * * * * * * * * * * * * * * * //

dimensions      [0 1 -2 0 0 0 0];

internalField   nonuniform List<vector> 
87
(
(4.33291e-05 1.60173e-06 1.73354e-05)
(8.6872e-05 -8.35801e-06 1.56468e-05)
(6.50049e-05 -2.15666e-06 1.11293e-05)
(0.000141627 -1.14055e-05 6.48902e-06)
(0.000124228 -1.23649e-05 9.42643e-06)
(9.60581e-05 -4.48354e-06 2.83598e-06)
(0.00160761 3.99021e-05 -7.93034e-05)
(0.00090518 1.85879e-05 -4.37934e-05)
(0.000512956 5.08313e-06 -2.33641e-05)
(0.000294964 -2.41896e-06 -7.79187e-06)
(0.000172496 -3.69572e-06 4.68443e-08)
(0.000101898 -5.86556e-06 5.42643e-06)
(6.43802e-05 -4.38655e-06 7.38007e-06)
(3.68722e-05 -4.42692e-06 1.00238e-05)
(2.40613e-05 -1.53275e-06 8.11603e-06)
(0.00165047 8.38266e-05 -7.78736e-05)
(0.000952058 3.47323e-05 -4.58167e-05)
(0.00055248 1.01266e-05 -2.64227e-05)
(0.000327217 -4.83103e-06 -1.10269e-05)
(0.000195736 -6.64325e-06 -2.94752e-06)
(0.000121284 -9.54204e-06 2.01038e-06)
(7.7386e-05 -8.42876e-06 3.26368e-06)
(5.18808e-05 -1.15136e-05 5.30394e-06)
(3.48288e-05 -3.96517e-06 4.34576e-06)
(0.00170792 8.98108e-05 -8.15591e-05)
(0.00101325 4.27743e-05 -4.95065e-05)
(0.000606806 1.32141e-05 -3.10092e-05)
(0.000373052 -3.07807e-06 -1.456e-05)
(0.000231375 -6.67437e-06 -6.13511e-06)
(0.000152428 -8.41172e-06 -3.75773e-07)
(0.000101677 -9.50677e-06 -1.98337e-06)
(7.67613e-05 -1.16787e-05 5.66517e-07)
(5.13562e-05 -4.84457e-06 -2.56593e-06)
(0.00163715 4.4153e-05 -7.89303e-06)
(0.000933815 1.89215e-05 -1.67756e-05)
(0.000531682 4.74633e-06 -1.50096e-05)
(0.00030841 -3.73751e-06 -1.09039e-05)
(0.000175914 -5.58488e-06 -6.39836e-06)
(0.000103723 -7.8074e-06 -4.2668e-06)
(5.80833e-05 -6.10563e-06 -1.09866e-06)
(3.68607e-05 -5.96829e-06 -3.61477e-06)
(1.58093e-05 -2.62899e-06 -1.72283e-06)
(0.00168182 8.24958e-05 -1.15914e-05)
(0.000981544 3.40578e-05 -1.86806e-05)
(0.000575408 9.30558e-06 -1.78046e-05)
(0.000344597 -4.46277e-06 -1.27724e-05)
(0.000204329 -6.21869e-06 -8.50361e-06)
(0.000124378 -9.22279e-06 -6.03912e-06)
(7.38985e-05 -8.66613e-06 -5.60033e-06)
(5.04344e-05 -8.40298e-06 -6.25727e-06)
(2.97037e-05 -2.91012e-06 -5.619e-06)
(0.00173436 8.7463e-05 -1.915e-05)
(0.00104142 4.17344e-05 -2.15544e-05)
(0.000630197 1.33137e-05 -1.87235e-05)
(0.000392673 -2.00186e-06 -1.35141e-05)
(0.000244276 -5.73035e-06 -1.16368e-05)
(0.000160054 -8.41976e-06 -9.72673e-06)
(0.000103363 -8.82076e-06 -1.02425e-05)
(7.97237e-05 -9.77341e-06 -1.05991e-05)
(5.60443e-05 -3.62358e-06 -1.09325e-05)
(0.00168289 4.34572e-05 8.53984e-06)
(0.000979455 1.64099e-05 -8.15244e-06)
(0.000569542 3.38579e-06 -1.24358e-05)
(0.000338517 -5.46646e-06 -1.17911e-05)
(0.000196594 -7.49111e-06 -7.9738e-06)
(0.000117359 -1.02773e-05 -5.92882e-06)
(6.45181e-05 -8.25201e-06 -4.72123e-06)
(4.02555e-05 -7.02629e-06 -5.48522e-06)
(1.3649e-05 -3.87919e-06 -8.72298e-06)
(0.00172467 7.6929e-05 3.94687e-06)
(0.00102679 3.38512e-05 -1.02282e-05)
(0.000616014 1.01938e-05 -1.44207e-05)
(0.000380148 -4.29896e-06 -1.34564e-05)
(0.000231446 -7.4166e-06 -9.84655e-06)
(0.000143162 -1.02632e-05 -8.4477e-06)
(8.59632e-05 -1.19581e-05 -1.06711e-05)
(5.76455e-05 -1.14472e-05 -1.19796e-05)
(3.22434e-05 -2.68309e-06 -1.47849e-05)
(0.00176711 8.12367e-05 -3.89133e-06)
(0.00107833 4.06133e-05 -1.28461e-05)
(0.000667793 1.48209e-05 -1.45107e-05)
(0.000431445 -1.23368e-06 -1.44082e-05)
(0.000277394 -7.53053e-06 -1.35467e-05)
(0.000182862 -9.77358e-06 -1.19723e-05)
(0.000118919 -1.03853e-05 -1.57431e-05)
(8.61573e-05 -1.15182e-05 -1.79392e-05)
(5.76368e-05 -4.53852e-06 -2.16432e-05)
)
;

boundaryField
{
    inlet
    {
        type            calculated;
        value           nonuniform List<vector> 9((0.00365943 0.000145554 -0.000215327) (0.00374441 0.000379388 -0.000176177) (0.00403226 0.0002741 -0.000207009) (0.00377615 0.000211951 0.000212917) (0.00389102 0.00035462 0.000178528) (0.00412104 0.000262749 0.000109845) (0.00403026 0.000206637 0.00012584) (0.00411503 0.000288785 0.000107354) (0.00422954 0.000206975 4.78117e-05));
    }
    outlet
    {
        type            calculated;
        value           nonuniform 0();
    }
    wall
    {
        type            calculated;
        value           nonuniform List<vector> 
57
(
(0.00403026 0.000206637 0.00012584)
(0.00411503 0.000288785 0.000107354)
(0.00422954 0.000206975 4.78117e-05)
(7.77247e-05 -1.14894e-05 -3.14859e-05)
(0.000222694 2.97546e-06 -1.50669e-05)
(0.000448007 9.82296e-06 -1.78572e-05)
(1.09585e-05 -6.95903e-06 -2.42386e-05)
(0.000157779 -1.01438e-05 -2.66528e-05)
(0.000377105 2.0347e-06 -7.67606e-06)
(4.41198e-05 -4.50001e-05 -2.86162e-05)
(0.000177106 -4.64967e-05 -2.6435e-05)
(0.000440666 -2.11252e-05 -2.25794e-05)
(-3.95662e-05 -2.64264e-05 -8.21598e-06)
(8.48001e-05 -1.14259e-05 -1.32946e-06)
(0.000326682 -2.65542e-05 -3.31048e-05)
(-1.65215e-05 -5.67777e-05 -9.59509e-06)
(5.73718e-05 -1.87102e-05 -1.11768e-06)
(0.000275134 -1.77566e-05 -1.23789e-05)
(-0.000100433 -1.48152e-05 6.57874e-06)
(-5.96124e-06 -4.54564e-05 -3.19179e-05)
(0.000166429 -8.74041e-06 -5.32527e-05)
(-2.24692e-05 -7.16913e-06 1.56867e-05)
(3.62735e-05 -6.09688e-05 -2.62757e-05)
(0.000179436 -4.34316e-05 -5.37711e-05)
(-0.000130876 1.00494e-05 -2.99453e-05)
(-1.96081e-05 1.96599e-05 -3.796e-05)
(8.85031e-05 -6.9917e-06 -7.97137e-05)
(0.00403226 0.0002741 -0.000207009)
(0.00412104 0.000262749 0.000109845)
(0.00422954 0.000206975 4.78117e-05)
(0.000123678 1.48929e-05 -2.3313e-05)
(0.000285596 9.39821e-06 1.15597e-05)
(0.000448007 9.82296e-06 -1.78572e-05)
(7.39464e-05 -2.32876e-05 -5.24463e-05)
(0.00019206 -2.12324e-05 -4.59845e-06)
(0.000377105 2.0347e-06 -7.67606e-06)
(5.96141e-05 -4.75941e-05 -1.26493e-05)
(0.000192577 -3.11072e-05 8.49876e-07)
(0.000440666 -2.11252e-05 -2.25794e-05)
(-8.94774e-06 -1.4517e-05 -1.95132e-05)
(9.6775e-05 7.4167e-07 -3.24494e-05)
(0.000326682 -2.65542e-05 -3.31048e-05)
(-3.67391e-07 9.73607e-07 4.04357e-06)
(0.000133554 -9.33699e-06 -3.50179e-05)
(0.000275134 -1.77566e-05 -1.23789e-05)
(0.000110584 -2.07046e-05 -4.80136e-05)
(-3.51748e-05 -5.79829e-06 -3.22269e-05)
(4.39675e-05 -7.30099e-07 -3.35104e-05)
(0.000166429 -8.74041e-06 -5.32527e-05)
(0.0002856 -5.32929e-05 1.45458e-05)
(8.68076e-08 -4.53478e-05 1.15343e-05)
(0.000158849 -2.59584e-05 -3.57195e-05)
(0.000179436 -4.34316e-05 -5.37711e-05)
(8.62827e-05 7.56753e-06 -6.98433e-05)
(-0.00010852 1.30832e-06 -2.7703e-05)
(6.95332e-05 1.14958e-05 -1.80484e-05)
(8.85031e-05 -6.9917e-06 -7.97137e-05)
)
;
    }
    procBoundary6to0
    {
        type            processor;
        value           uniform (3.58065e-05 3.05466e-06 2.23962e-05);
    }
    procBoundary6to2
    {
        type            processor;
        value           nonuniform List<vector> 
32
(
(7.68359e-05 2.80175e-07 2.67658e-05)
(0.000122922 -1.07412e-05 2.57224e-05)
(9.88766e-05 -4.15773e-06 2.2186e-05)
(0.000188421 -1.2637e-05 1.78437e-05)
(0.000167623 -1.32162e-05 2.04583e-05)
(0.000137487 -6.52104e-06 1.54929e-05)
(0.0016188 3.88337e-05 -0.000144468)
(0.000927547 1.88293e-05 -6.99168e-05)
(0.00053484 5.84953e-06 -3.0487e-05)
(0.000320203 -1.48588e-06 -3.2068e-06)
(0.000194341 -3.15249e-06 6.58e-06)
(0.000129899 -5.603e-06 1.54617e-05)
(8.42131e-05 -3.37517e-06 1.4647e-05)
(6.33468e-05 -1.101e-06 2.22157e-05)
(6.33468e-05 -1.101e-06 2.22157e-05)
(6.33468e-05 -1.101e-06 2.22157e-05)
(0.00165975 7.85166e-05 -0.000140881)
(0.00097047 3.41018e-05 -7.12324e-05)
(0.000572688 1.00875e-05 -3.36561e-05)
(0.000352216 -2.97179e-06 -7.0362e-06)
(0.000221328 -6.65144e-06 4.39182e-06)
(0.000154212 -9.6709e-06 1.35424e-05)
(0.00010562 -8.51639e-06 1.14157e-05)
(0.00010562 -8.51639e-06 1.14157e-05)
(0.00010562 -8.51639e-06 1.14157e-05)
(0.00171496 8.77307e-05 -0.000140642)
(0.00103183 4.24892e-05 -7.53643e-05)
(0.000629092 1.40811e-05 -3.87702e-05)
(0.00040432 -1.33924e-06 -1.13319e-05)
(0.000266244 -7.09701e-06 3.30533e-06)
(0.000196009 -1.10652e-05 1.28948e-05)
(0.000196009 -1.10652e-05 1.28948e-05)
)
;
    }
    procBoundary6to4
    {
        type            processor;
        value           nonuniform List<vector> 
27
(
(0.001597 -1.91635e-05 -8.01727e-05)
(0.00089258 -6.49509e-06 -4.27175e-05)
(0.000501455 -3.49512e-06 -2.21433e-05)
(0.000284086 -2.13356e-07 -6.33791e-06)
(0.00016353 1.09079e-06 1.82591e-06)
(9.61806e-05 2.82894e-06 6.97686e-06)
(5.90656e-05 1.65626e-06 9.5453e-06)
(3.57668e-05 2.74399e-06 1.42831e-05)
(2.20761e-05 3.59977e-07 1.19807e-05)
(0.00162206 -1.73484e-05 -1.19509e-05)
(0.000916142 -5.93968e-06 -1.35435e-05)
(0.000516725 -3.93191e-06 -1.36899e-05)
(0.000295009 -1.40119e-06 -8.26659e-06)
(0.000168637 -1.18325e-06 -3.51912e-06)
(0.000100156 -8.66957e-07 -2.60546e-07)
(5.92119e-05 -1.342e-06 8.20499e-07)
(3.75691e-05 -3.04698e-06 3.117e-07)
(1.94822e-05 -4.16113e-06 1.88482e-06)
(0.00166469 -1.53923e-05 8.87147e-06)
(0.000961743 -9.29039e-06 -2.98595e-06)
(0.000554201 -5.8063e-06 -9.2621e-06)
(0.000329042 -2.69373e-06 -8.94421e-06)
(0.000193347 -2.49582e-06 -5.83615e-06)
(0.000121063 -2.70237e-06 -3.10169e-06)
(7.31558e-05 -3.75341e-06 -4.08614e-06)
(4.91763e-05 -5.6947e-06 -5.19152e-06)
(2.44658e-05 -9.90748e-06 -3.60391e-06)
)
;
    }
    procBoundary6to7
    {
        type            processor;
        value           nonuniform List<vector> 
12
(
(3.56333e-05 4.9228e-07 1.74149e-05)
(6.26403e-05 1.06713e-06 1.38434e-05)
(0.000103455 -3.70832e-07 3.89265e-06)
(8.12194e-06 -4.47799e-07 9.14551e-06)
(2.16621e-05 -2.44728e-07 5.4973e-06)
(4.42509e-05 -2.25466e-06 -1.70106e-06)
(7.36203e-06 -7.78407e-07 -2.75979e-06)
(2.42883e-05 7.61174e-07 -7.57407e-06)
(5.60631e-05 -8.11574e-07 -1.18853e-05)
(1.68723e-06 -1.64267e-06 -1.11553e-05)
(1.87491e-05 2.26295e-06 -1.83443e-05)
(4.50083e-05 5.77865e-07 -2.40235e-05)
)
;
    }
}


// ************************************************************************* //
