/*--------------------------------*- C++ -*----------------------------------*\
| =========                 |                                                 |
| \\      /  F ield         | OpenFOAM: The Open Source CFD Toolbox           |
|  \\    /   O peration     | Version:  4.x                                   |
|   \\  /    A nd           | Web:      www.OpenFOAM.org                      |
|    \\/     M anipulation  |                                                 |
\*---------------------------------------------------------------------------*/
FoamFile
{
    version     2.0;
    format      ascii;
    class       volVectorField;
    location    "23.5";
    object      GField;
}
// * * * * * * * * * * * * * * * * * * * * * * * * * * * * * * * * * * * * * //

dimensions      [1 -2 -1 0 0 0 0];

internalField   nonuniform List<vector> 
87
(
(86.9114 1.99044 0.156168)
(23.7015 0.578571 -1.86447)
(88.8239 1.91063 -1.25079)
(100.296 2.45491 -2.99477)
(52.2467 1.18495 -3.53955)
(103.402 1.58895 -2.76499)
(89.4112 1.37735 -2.34629)
(30.4589 0.945098 -1.04792)
(84.6683 1.75086 -2.23534)
(17.1789 0.503916 -0.913677)
(81.0293 1.25127 -1.80739)
(6.72321 0.224257 -0.489573)
(79.2906 0.506314 -1.32268)
(0.0106345 0.00028252 -0.000944929)
(77.2684 -0.0996717 -0.533919)
(91.2519 4.75504 -1.76598)
(33.9382 1.75063 -1.11668)
(87.5727 4.48781 -1.77419)
(25.0058 1.25358 -1.21685)
(84.6899 3.1153 -1.56476)
(17.1884 0.792759 -1.0513)
(82.786 2.28463 -1.53248)
(9.72187 0.542463 -0.822344)
(81.2841 0.0698371 -1.07036)
(93.2662 3.24629 -2.00332)
(42.6347 1.74532 -1.47417)
(93.7761 3.48794 -2.27999)
(43.6916 1.42037 -2.19472)
(93.2493 2.64351 -2.34566)
(42.4821 1.15579 -2.35291)
(93.2697 2.62935 -2.20417)
(41.8912 1.04711 -2.8465)
(93.009 1.80934 -1.90402)
(89.6578 2.35436 2.79556)
(34.9497 1.16271 0.899014)
(86.6017 2.78015 2.89191)
(26.8351 0.97404 0.796409)
(84.8641 2.20582 2.49)
(20.2613 0.497758 0.384436)
(83.804 1.41739 1.61383)
(14.2937 0.259023 0.549704)
(83.7081 0.931105 0.119404)
(91.484 4.31777 2.30093)
(38.6567 1.90299 0.955916)
(89.6626 3.93508 2.64408)
(34.9286 1.28414 0.59639)
(88.4964 2.96681 2.36381)
(31.4781 1.22597 0.361385)
(87.2487 2.49063 2.14031)
(27.1587 1.03148 0.0547779)
(86.772 2.24966 1.60377)
(92.8855 2.99978 1.52883)
(45.3486 1.76701 0.56121)
(95.3418 3.10847 1.72811)
(48.939 1.48846 0.591014)
(96.5956 2.57072 1.74955)
(51.0379 1.54313 0.165366)
(98.4337 2.40737 1.25057)
(52.4781 1.5493 -0.260221)
(100.604 1.96542 0.762586)
(91.6802 2.47791 1.67776)
(42.6693 1.05855 0.623912)
(91.7838 2.21947 1.16064)
(41.9242 0.850835 0.259322)
(91.5623 1.41928 0.684847)
(40.7117 0.359926 0.151568)
(91.0786 0.434079 0.488794)
(38.1943 0.0825978 0.24659)
(91.8168 0.334646 0.719229)
(92.3558 3.47516 1.36353)
(45.0758 1.6985 0.61533)
(94.0404 3.43712 1.1071)
(47.8416 1.54454 0.248543)
(95.0177 2.61399 0.680942)
(49.2005 1.35831 0.285201)
(95.9837 2.33628 0.658224)
(49.2843 0.645785 -0.192087)
(96.2881 1.39756 0.191888)
(93.5129 2.41837 0.775351)
(48.2761 1.35858 0.137523)
(97.6117 2.50091 0.459225)
(55.5782 1.46277 0.0680195)
(101.93 2.1304 0.110043)
(61.0937 1.10839 -0.37046)
(105.19 1.88376 -0.0450021)
(65.1435 1.05209 -1.05041)
(106.956 1.32431 -0.729389)
)
;

boundaryField
{
    inlet
    {
        type            calculated;
        value           uniform (67 0 0);
    }
    outlet
    {
        type            calculated;
        value           nonuniform 0();
    }
    wall
    {
        type            calculated;
        value           uniform (0 0 0);
    }
    procBoundary6to0
    {
        type            processor;
        value           uniform (82.3975 0.888294 -1.24283);
    }
    procBoundary6to2
    {
        type            processor;
        value           nonuniform List<vector> 
32
(
(85.475 -0.748303 -1.40499)
(14.8488 0.446196 -1.13737)
(86.5192 1.52876 -0.812365)
(99.8295 2.81848 -3.03417)
(51.1459 1.02537 -2.91074)
(101.967 2.17823 -2.40323)
(91.4412 1.71452 -5.4297)
(34.0471 1.07653 -2.53625)
(87.8594 2.40088 -4.68959)
(26.5372 0.907619 -2.06143)
(86.6897 1.92787 -3.32487)
(21.5266 0.875025 -1.47602)
(86.6301 1.52977 -1.95934)
(17.4307 0.94992 -1.69866)
(17.4307 0.94992 -1.69866)
(17.4307 0.94992 -1.69866)
(91.6278 3.83829 -4.68591)
(36.5029 1.81696 -2.4892)
(89.2258 3.65017 -4.15749)
(31.0595 1.15731 -2.23314)
(88.1067 2.8594 -3.3187)
(26.6902 0.775008 -1.76773)
(87.9204 2.36154 -2.1243)
(87.9204 2.36154 -2.1243)
(87.9204 2.36154 -2.1243)
(93.2783 3.19803 -4.32053)
(43.8474 1.8091 -2.87346)
(95.2907 3.39239 -4.52728)
(46.856 1.60987 -3.40095)
(97.5682 2.97329 -4.30184)
(49.6192 1.50419 -2.85649)
(49.6192 1.50419 -2.85649)
)
;
    }
    procBoundary6to4
    {
        type            processor;
        value           nonuniform List<vector> 
27
(
(91.4932 -1.34192 -2.46812)
(32.9408 -0.173507 -1.15146)
(85.7381 -0.937729 -2.09142)
(21.4748 -0.40972 -1.10004)
(82.4629 -0.869764 -1.76369)
(11.568 -0.222414 -0.51856)
(80.5487 -0.0773248 -1.35109)
(3.68787 -0.0996068 -0.169077)
(80.3371 0.852307 0.134293)
(90.5836 -1.1299 1.22354)
(34.0053 -0.0455771 1.04881)
(86.2426 -0.398525 2.2747)
(23.5522 -0.124222 0.601045)
(82.8746 -0.375489 2.33497)
(14.7229 -0.327661 0.523381)
(81.2732 -0.58609 2.35169)
(7.62338 -0.245894 0.198449)
(81.1287 -0.932209 1.44994)
(90.5541 -0.450609 1.25609)
(40.23 -0.188474 0.885998)
(90.3137 -0.760011 1.79384)
(38.2614 -0.519476 0.789494)
(90.0475 -0.876797 1.6607)
(37.6709 -0.763628 0.826323)
(91.0583 -1.10427 1.83536)
(38.7943 -0.814379 0.455475)
(91.6731 -1.13853 1.03933)
)
;
    }
    procBoundary6to7
    {
        type            processor;
        value           nonuniform List<vector> 
12
(
(14.0014 1.71025 -1.65081)
(22.7564 0.888003 -2.22743)
(53.5676 1.26708 -4.51024)
(3.6715e-05 7.43943e-06 -2.98044e-06)
(3.52295 0.299119 -0.361216)
(38.7237 1.02177 -3.28761)
(8.43754 0.380201 0.469462)
(23.3816 1.11214 0.0834398)
(53.8789 1.71154 -0.458508)
(35.0009 0.277333 -0.345255)
(48.5225 0.986844 -0.795659)
(66.2707 0.993068 -2.05977)
)
;
    }
}


// ************************************************************************* //
