/*--------------------------------*- C++ -*----------------------------------*\
| =========                 |                                                 |
| \\      /  F ield         | OpenFOAM: The Open Source CFD Toolbox           |
|  \\    /   O peration     | Version:  4.x                                   |
|   \\  /    A nd           | Web:      www.OpenFOAM.org                      |
|    \\/     M anipulation  |                                                 |
\*---------------------------------------------------------------------------*/
FoamFile
{
    version     2.0;
    format      ascii;
    class       volScalarField;
    location    "23.5";
    object      KslNext;
}
// * * * * * * * * * * * * * * * * * * * * * * * * * * * * * * * * * * * * * //

dimensions      [1 -3 -1 0 0 0 0];

internalField   nonuniform List<scalar> 
87
(
3781.23
13874.2
3729.27
3289.75
6263.77
3176.48
3657.5
10860.1
3945.17
19189.3
4083.22
48452
4127.39
3.01116e+07
4166.31
3576.79
9671.72
3796.45
13159.3
3915.02
18994.3
3969.13
33058.5
3997.54
3451.25
7563.05
3473.51
7416.73
3504.73
7621.86
3488.29
7644.17
3471.08
3620.33
9367.52
3817.48
12165.6
3864.03
15993.7
3882.62
22304.6
3818.12
3529.02
8425.54
3671.65
9333.02
3711.98
10318.7
3746.36
11850.5
3720.79
3442.79
7033.11
3378.02
6540.99
3336.43
6282.9
3280.96
6104.55
3194.2
3509.91
7545.17
3546.84
7662.78
3511.94
7832.41
3517.49
8241.68
3453.04
3449
7097.21
3425.49
6705.4
3376.23
6490.81
3352.53
6460.39
3296.24
3391.44
6540.4
3262.04
5691.17
3116.04
5180.4
3048.25
4890.67
2978.27
)
;

boundaryField
{
    inlet
    {
        type            zeroGradient;
    }
    outlet
    {
        type            zeroGradient;
    }
    wall
    {
        type            zeroGradient;
    }
    procBoundary6to0
    {
        type            processor;
        value           uniform 0;
    }
    procBoundary6to2
    {
        type            processor;
        value           uniform 0;
    }
    procBoundary6to4
    {
        type            processor;
        value           uniform 0;
    }
    procBoundary6to7
    {
        type            processor;
        value           uniform 0;
    }
}


// ************************************************************************* //
