/*--------------------------------*- C++ -*----------------------------------*\
| =========                 |                                                 |
| \\      /  F ield         | OpenFOAM: The Open Source CFD Toolbox           |
|  \\    /   O peration     | Version:  4.x                                   |
|   \\  /    A nd           | Web:      www.OpenFOAM.org                      |
|    \\/     M anipulation  |                                                 |
\*---------------------------------------------------------------------------*/
FoamFile
{
    version     2.0;
    format      ascii;
    class       volScalarField;
    location    "23.5";
    object      pSmooth;
}
// * * * * * * * * * * * * * * * * * * * * * * * * * * * * * * * * * * * * * //

dimensions      [1 -1 -2 0 0 0 0];

internalField   nonuniform List<scalar> 
87
(
79.7301
40.4939
79.5804
86.8257
40.3345
79.3361
111.656
93.7967
103.945
76.8012
95.9185
59.2776
87.8304
41.8987
79.672
111.242
93.7709
103.658
76.6278
95.7651
59.078
87.8753
41.5274
80.0751
110.556
93.4022
103.034
76.4114
95.2801
58.8687
87.3732
41.375
79.7765
111.356
93.7218
103.539
76.5868
95.5294
59.2139
87.604
41.624
79.9153
111.006
93.6806
103.322
76.572
95.3998
59.1426
87.5348
41.5562
79.7998
110.371
93.3181
102.786
76.3485
94.945
58.8647
87.1299
41.283
79.5251
111
93.6407
103.337
76.5958
95.404
59.2209
87.519
41.5856
79.8278
110.725
93.5842
103.129
76.5936
95.2681
59.1134
87.4147
41.7087
79.762
110.225
93.3453
102.698
76.3747
94.9297
58.9999
87.1025
41.6124
79.5883
)
;

boundaryField
{
    inlet
    {
        type            zeroGradient;
    }
    outlet
    {
        type            fixedValue;
        value           nonuniform 0();
    }
    wall
    {
        type            zeroGradient;
    }
    procBoundary6to0
    {
        type            processor;
        value           uniform 79.9638;
    }
    procBoundary6to2
    {
        type            processor;
        value           nonuniform List<scalar> 
32
(
79.8758
40.5248
79.946
86.9625
40.4435
79.5057
110.79
93.3779
103.092
75.9673
95.1594
58.3191
87.3148
40.4843
40.4843
40.4843
110.601
93.3108
102.999
75.97
95.12
58.3694
87.2419
87.2419
87.2419
109.925
92.9309
102.395
75.7043
94.5881
58.1257
58.1257
)
;
    }
    procBoundary6to4
    {
        type            processor;
        value           nonuniform List<scalar> 
27
(
111.57
94.1365
103.996
76.9236
96.0299
59.4504
87.9799
41.8463
80.0373
111.561
94.0021
103.886
76.8998
95.8396
59.3299
87.8167
41.684
79.9483
111.293
93.7624
103.554
76.7263
95.526
59.1249
87.4812
41.6938
79.8114
)
;
    }
    procBoundary6to7
    {
        type            processor;
        value           nonuniform List<scalar> 
12
(
22.6684
22.5607
22.2828
24.7532
24.034
23.8274
23.9487
23.852
23.5251
24.2601
24.2222
24.1011
)
;
    }
}


// ************************************************************************* //
