/*--------------------------------*- C++ -*----------------------------------*\
  =========                 |
  \\      /  F ield         | OpenFOAM: The Open Source CFD Toolbox
   \\    /   O peration     | Website:  https://openfoam.org
    \\  /    A nd           | Version:  4.x
     \\/     M anipulation  |
\*---------------------------------------------------------------------------*/
FoamFile
{
    version     2.0;
    format      ascii;
    class       vectorField;
    location    0;
    object      v;
}
// * * * * * * * * * * * * * * * * * * * * * * * * * * * * * * * * * * * * * //

313
(
( 3.19338e-07 -1.44517e-07 -1.50255e-07 )  
( 2.75493e-07 -9.41082e-08 -1.87733e-07 )  
( 2.53979e-07 -1.15295e-07 -1.17408e-07 )  
( 2.18825e-07 -1.16759e-07 -1.78749e-07 )  
( 2.99695e-07 -1.20247e-07 -6.33425e-08 )  
( 2.2547e-07 -1.3064e-07 -1.58926e-07 )  
( 3.23856e-07 -1.03073e-07 -2.10386e-07 )  
( 2.45095e-07 -8.40745e-08 -1.49039e-07 )  
( 2.68464e-07 -1.11906e-07 -1.41536e-07 )  
( 2.8389e-07 -8.14352e-08 -1.85447e-07 )  
( 1.3445e-07 -6.98284e-08 -1.26765e-07 )  
( 1.55224e-07 -1.05932e-07 -1.30184e-07 )  
( 5.49659e-08 -2.40416e-08 -4.52011e-08 )  
( 1.85545e-07 -1.05965e-07 -1.39915e-07 )  
( 3.17812e-07 -9.47245e-08 -1.28397e-07 )  
( 1.31792e-07 -3.21179e-08 -9.92079e-08 )  
( 1.86239e-08 -5.53648e-09 -3.18464e-08 )  
( 2.02776e-07 -4.74183e-08 -1.14077e-07 )  
( 2.17093e-07 -1.2665e-07 -1.56414e-07 )  
( 8.66113e-08 -3.04898e-08 -7.16309e-08 )  
( 7.96733e-08 -3.25387e-08 -6.26048e-08 )  
( 3.65922e-08 -1.96567e-08 -2.84954e-08 )  
( 2.83295e-07 -8.56846e-08 -1.4088e-07 )  
( 1.45816e-07 -3.29303e-08 -1.11606e-07 )  
( 2.74688e-08 -1.5208e-08 -2.71844e-08 )  
( 3.64432e-09 -3.7976e-09 -1.44692e-08 )  
( 1.63742e-08 -8.3368e-09 -1.86699e-08 )  
( 7.59639e-08 -2.75552e-08 -6.19757e-08 )  
( 6.72348e-08 -1.26713e-08 -3.81333e-08 )  
( 1.71399e-07 -5.52747e-08 -9.79963e-08 )  
( 2.34024e-07 -6.41025e-08 -1.21686e-07 )  
( 6.08787e-08 -2.07485e-08 -5.10534e-08 )  
( 1.99619e-07 -1.20241e-07 -1.65412e-07 )  
( 8.34967e-08 -3.09919e-08 -6.92718e-08 )  
( 6.60075e-08 -2.91618e-08 -6.18269e-08 )  
( 2.07793e-07 -7.47613e-08 -1.14431e-07 )  
( 2.1199e-07 -7.51663e-08 -1.11117e-07 )  
( 1.06135e-07 -3.89009e-08 -8.3403e-08 )  
( 1.15191e-07 -4.29082e-08 -5.43654e-08 )  
( 1.9049e-07 -6.62477e-08 -1.06586e-07 )  
( 7.92266e-08 -1.85175e-08 -5.17331e-08 )  
( 1.53513e-07 -4.3845e-08 -9.89689e-08 )  
( 1.3342e-07 -1.23918e-08 -7.98837e-08 )  
( 1.6466e-07 -5.0261e-08 -9.56721e-08 )  
( 1.92039e-07 -6.62602e-08 -1.17322e-07 )  
( 2.08276e-07 -3.66226e-08 -1.13974e-07 )  
( 1.17972e-08 -6.64057e-09 -1.56881e-08 )  
( 2.65438e-07 -6.71301e-08 -1.43827e-07 )  
( 1.19759e-07 -2.06412e-08 1.09271e-08 )  
( 4.53327e-08 -1.62482e-08 -4.84098e-08 )  
( 2.25915e-07 -6.79034e-08 -8.31649e-08 )  
( 1.61111e-07 -4.63637e-08 -1.14476e-07 )  
( 6.06715e-08 7.94185e-09 -6.49923e-08 )  
( 6.71004e-08 -2.50864e-08 -5.69959e-08 )  
( 4.91082e-08 -1.08147e-08 -3.99723e-08 )  
( 1.75562e-07 -6.84239e-08 -1.244e-07 )  
( 2.52577e-07 -8.02197e-08 -1.47005e-07 )  
( 2.73339e-07 -8.65934e-08 -1.33597e-07 )  
( 2.25777e-07 -1.34142e-07 -1.51692e-07 )  
( 1.40831e-08 -9.60008e-09 -2.62638e-08 )  
( 1.35783e-07 -5.91156e-08 -8.34596e-08 )  
( 8.75453e-08 -3.83583e-08 -7.58575e-08 )  
( 1.73298e-07 -5.43982e-08 -1.02578e-07 )  
( 9.82386e-08 -2.19971e-08 -8.34594e-08 )  
( 3.23273e-09 -3.63029e-09 -1.61424e-08 )  
( 1.50719e-07 -4.29221e-08 -6.92498e-08 )  
( 3.61423e-08 -1.22651e-08 -3.36656e-08 )  
( 1.38135e-07 -5.10857e-08 -7.98761e-08 )  
( 2.41368e-07 -7.95325e-08 -1.6175e-07 )  
( 1.74735e-07 -5.34832e-08 -8.81736e-08 )  
( 2.44299e-07 -8.11224e-08 -1.60425e-07 )  
( 2.39894e-07 -4.79052e-08 -1.44153e-07 )  
( 3.10112e-07 -1.18728e-07 -1.0632e-07 )  
( 8.32504e-08 -3.32078e-08 -6.4477e-08 )  
( 7.38654e-08 -2.13971e-08 -3.30747e-08 )  
( 1.32117e-07 -3.19608e-08 -9.92876e-08 )  
( 6.48431e-08 -2.28946e-08 -5.39797e-08 )  
( 2.36856e-07 -5.52971e-08 -1.13665e-07 )  
( 1.26314e-07 -3.97305e-08 -8.25111e-08 )  
( 3.76155e-08 -1.84e-08 -2.8865e-08 )  
( 1.06904e-07 -1.58865e-08 -7.07799e-08 )  
( 7.26765e-08 -2.64471e-08 -5.54683e-08 )  
( 2.95657e-08 -1.27387e-08 -2.49682e-08 )  
( 1.92094e-07 -6.42604e-08 -1.05429e-07 )  
( 3.50636e-09 -9.26352e-09 -9.64612e-09 )  
( 2.22021e-07 -7.72075e-08 -1.48478e-07 )  
( 5.28198e-08 -2.3416e-08 -3.41037e-08 )  
( 1.44636e-07 -5.02239e-08 -1.14095e-07 )  
( 3.77925e-09 -4.109e-09 -1.13633e-08 )  
( 2.26317e-08 -9.95853e-09 -2.22448e-08 )  
( 2.04903e-07 -4.55424e-08 -1.03883e-07 )  
( 2.36852e-08 -9.34903e-09 -3.13324e-08 )  
( 4.53114e-08 -5.64696e-09 -3.5324e-08 )  
( 3.40787e-08 -2.17677e-08 -2.64113e-08 )  
( 1.49475e-07 -4.86705e-08 -1.03555e-07 )  
( 2.25141e-07 -1.11199e-07 -1.32057e-07 )  
( 1.00844e-07 -3.70191e-08 -1.06961e-07 )  
( 1.70425e-09 -4.88008e-09 -3.10544e-08 )  
( 1.85389e-07 -4.33984e-08 -9.38067e-08 )  
( 3.56607e-08 5.3738e-09 -2.23207e-08 )  
( 1.51883e-07 -4.84963e-08 -9.98989e-08 )  
( 5.90156e-08 -2.99039e-08 -6.14617e-08 )  
( 2.25894e-07 -1.00409e-07 -1.27597e-07 )  
( 2.42929e-07 -8.33642e-08 -1.23944e-07 )  
( 1.97734e-07 -6.70221e-08 -1.11341e-07 )  
( 2.88694e-07 -8.95316e-08 -1.67039e-07 )  
( 6.06011e-08 -2.09033e-08 -5.43097e-08 )  
( 2.34028e-07 -5.60615e-08 -1.29222e-07 )  
( 1.88448e-07 -5.17434e-08 -1.07776e-07 )  
( 1.12915e-07 -5.17517e-08 -7.17214e-08 )  
( 1.12054e-07 -2.71681e-08 -7.89717e-08 )  
( 2.40825e-07 -6.07405e-08 -1.51502e-07 )  
( 2.41607e-07 -4.51554e-08 -1.13009e-07 )  
( 6.5871e-08 -1.54286e-08 -5.82892e-08 )  
( 5.24624e-08 -5.98045e-09 -4.13772e-08 )  
( 2.18177e-07 -5.68066e-08 -1.39386e-07 )  
( 9.69207e-08 -1.60419e-08 -6.36534e-08 )  
( 2.95145e-07 -8.55816e-08 -1.33167e-07 )  
( 7.31068e-08 -1.63917e-08 -9.63042e-08 )  
( 6.3024e-08 -2.52364e-08 -5.57519e-08 )  
( 4.892e-08 -2.56576e-08 -6.06778e-08 )  
( 9.24501e-08 -4.03513e-08 -7.17062e-08 )  
( 6.61695e-09 -9.98495e-09 -1.13163e-08 )  
( 2.86657e-07 -1.37319e-07 -1.15828e-07 )  
( 7.29834e-08 -1.49148e-08 -5.43726e-08 )  
( 4.45751e-08 -2.46161e-08 -3.80855e-08 )  
( 1.20407e-07 -2.55343e-08 -8.39341e-08 )  
( 1.82688e-07 -1.37574e-08 -7.52171e-08 )  
( 1.5648e-08 -8.14983e-09 -1.5673e-08 )  
( 5.38372e-08 -2.67486e-08 -4.28958e-08 )  
( 2.00376e-07 -6.79419e-08 -1.20056e-07 )  
( 3.72244e-08 -1.68385e-08 -1.71745e-08 )  
( 2.03917e-07 -8.99336e-08 -1.1837e-07 )  
( 2.25491e-07 -1.65389e-07 -1.82189e-07 )  
( 6.81474e-08 -1.06626e-08 -6.39881e-08 )  
( 2.33661e-08 -1.33423e-08 -4.05686e-08 )  
( 1.69511e-08 -1.09941e-08 -2.33473e-08 )  
( 2.0426e-07 -6.34356e-08 -9.16006e-08 )  
( 8.52755e-09 -5.03513e-09 -1.28276e-08 )  
( 9.037e-08 -3.9299e-09 -2.20506e-08 )  
( 4.24829e-08 -1.84815e-08 -2.99513e-08 )  
( 1.1545e-08 -2.49081e-09 -1.90132e-08 )  
( 1.85614e-07 -5.46316e-08 -1.43971e-07 )  
( 2.06785e-07 -6.61951e-08 -1.48614e-07 )  
( 3.73477e-08 -1.84293e-08 -3.11825e-08 )  
( 3.29192e-07 -1.10976e-07 -1.56439e-07 )  
( 4.93619e-08 9.69776e-09 -3.79082e-08 )  
( 2.39295e-07 -9.54259e-08 -1.40504e-07 )  
( 3.81465e-08 -2.14585e-08 -3.35093e-08 )  
( 3.20749e-08 -1.8504e-08 -5.14383e-08 )  
( 7.9467e-08 -3.00507e-08 -7.49321e-08 )  
( 4.13101e-08 -2.19055e-08 -5.48648e-08 )  
( 3.23397e-08 -2.87161e-08 -5.80086e-08 )  
( 7.48437e-08 -5.90946e-08 -1.08234e-07 )  
( 6.90381e-08 -4.1748e-08 -8.3978e-08 )  
( 2.42585e-08 -1.43674e-08 -4.08946e-08 )  
( 8.34731e-08 -4.39934e-08 -8.23804e-08 )  
( 1.39933e-07 -2.41897e-08 -9.6339e-08 )  
( 1.04783e-07 -2.5718e-08 -8.49622e-08 )  
( 8.2169e-08 -3.82318e-08 -8.48639e-08 )  
( 7.33492e-08 -3.85692e-08 -8.08327e-08 )  
( 1.01004e-07 -4.17285e-08 -9.87815e-08 )  
( 1.04919e-08 -1.15935e-08 -2.27268e-08 )  
( 1.16072e-07 -5.92365e-08 -1.02791e-07 )  
( 6.38005e-09 -2.20696e-09 -9.41013e-09 )  
( 7.43194e-09 1.16247e-10 -8.21578e-09 )  
( 1.93836e-08 -1.69045e-09 -2.23802e-08 )  
( 1.02731e-07 -4.49154e-08 -8.41519e-08 )  
( 1.2221e-07 -6.93232e-09 -7.02488e-08 )  
( 3.6219e-09 -1.18296e-08 -2.00084e-08 )  
( 2.03444e-08 -1.00459e-08 -3.14229e-08 )  
( 1.15836e-08 -1.28385e-08 -2.2173e-08 )  
( 4.51298e-08 -2.78119e-08 -5.97317e-08 )  
( 2.75297e-08 -1.65027e-08 -3.76803e-08 )  
( 1.03169e-07 -4.67662e-08 -1.18865e-07 )  
( 1.08473e-07 -4.68549e-08 -1.09924e-07 )  
( 3.11283e-08 -1.47626e-08 -3.38289e-08 )  
( -1.21686e-10 -1.21251e-09 -6.18416e-09 )  
( 7.04448e-08 -1.975e-08 -5.66699e-08 )  
( 8.37466e-08 -1.93313e-08 -7.22752e-08 )  
( 5.87011e-08 -2.51882e-08 -5.5988e-08 )  
( 1.23912e-07 -4.42697e-08 -1.12757e-07 )  
( 2.03583e-08 -1.12298e-08 -2.49453e-08 )  
( 5.9312e-08 -3.09382e-08 -7.30153e-08 )  
( 3.52927e-08 -1.7994e-08 -4.16638e-08 )  
( 7.16507e-09 -3.43765e-09 -2.03851e-08 )  
( 2.13394e-08 -1.19433e-08 -2.95942e-08 )  
( 4.35395e-08 -2.12493e-08 -6.0474e-08 )  
( 4.78104e-08 -3.1072e-08 -5.51509e-08 )  
( 3.24159e-08 -1.66986e-08 -4.34873e-08 )  
( 7.02904e-08 -2.71717e-08 -5.85918e-08 )  
( 2.20769e-08 -1.23501e-08 -2.05339e-08 )  
( 1.31204e-08 -1.04472e-08 -2.88216e-08 )  
( 1.07653e-07 -4.38821e-08 -1.07212e-07 )  
( 7.64271e-08 -4.35184e-08 -9.73963e-08 )  
( 1.16032e-07 -4.31494e-08 -9.28351e-08 )  
( 7.97598e-08 -3.19767e-08 -7.50407e-08 )  
( 3.30599e-08 -2.24931e-08 -4.49865e-08 )  
( 7.88106e-09 8.82536e-10 -8.44373e-09 )  
( 2.33751e-08 -1.6657e-08 -3.37026e-08 )  
( 1.16701e-07 -3.11856e-08 -8.33052e-08 )  
( 2.5946e-08 -1.17886e-08 -2.36478e-08 )  
( 1.06145e-07 -3.1477e-08 -1.07614e-07 )  
( 1.11492e-07 -5.19144e-08 -1.00911e-07 )  
( 6.29072e-08 -3.0118e-08 -7.02309e-08 )  
( 4.99835e-08 -3.74319e-08 -5.90078e-08 )  
( 1.37195e-07 -5.98219e-08 -1.13523e-07 )  
( 2.73874e-08 -1.38572e-08 -3.87126e-08 )  
( 9.48623e-08 -1.51357e-08 -6.71702e-08 )  
( 4.13423e-09 -1.88572e-09 -1.29546e-08 )  
( 9.06066e-08 -2.13671e-08 -6.72124e-08 )  
( 3.09365e-09 -2.53175e-09 -6.77724e-09 )  
( 1.691e-07 -7.55457e-08 -1.15388e-07 )  
( 1.19102e-07 -3.35264e-08 -9.82742e-08 )  
( 2.62052e-08 -1.88188e-08 -5.21699e-08 )  
( 3.88262e-09 -3.61628e-09 -1.35005e-08 )  
( 1.37969e-09 -1.36394e-09 -3.83096e-09 )  
( 5.85693e-08 -2.71386e-08 -6.30184e-08 )  
( 2.14527e-07 -8.68272e-08 -9.9927e-08 )  
( 2.3159e-08 -9.29168e-09 -2.63071e-08 )  
( 2.94754e-07 -1.21183e-07 -1.87657e-07 )  
( 1.43132e-08 -5.10783e-09 -9.7457e-09 )  
( 1.08835e-07 -2.35436e-08 -2.5223e-08 )  
( 1.10219e-07 -4.12311e-08 -7.35085e-08 )  
( 2.69504e-07 -1.20318e-07 -1.25199e-07 )  
( 1.67324e-07 -1.20841e-07 -1.5956e-07 )  
( 1.06239e-07 -4.84557e-08 -1.04737e-07 )  
( 2.1391e-08 -7.02292e-09 -2.76194e-08 )  
( 1.25194e-07 -6.1883e-08 -1.17602e-07 )  
( 7.94484e-08 -2.11985e-08 -6.76865e-08 )  
( 2.63092e-07 -9.82972e-08 -1.66451e-07 )  
( 6.26712e-08 4.4922e-09 -4.58979e-08 )  
( 1.54742e-07 -6.80472e-08 -1.20217e-07 )  
( 2.49879e-07 -4.83843e-08 -1.74181e-07 )  
( 3.25766e-08 -8.75427e-09 -2.29667e-08 )  
( 1.00505e-07 -3.19485e-08 -8.96093e-08 )  
( 8.25885e-08 -3.71001e-08 -8.12998e-08 )  
( 9.87587e-08 -3.52737e-08 -7.9812e-08 )  
( 1.59995e-07 -4.43427e-08 -1.28427e-07 )  
( 1.6595e-07 -3.30965e-08 -1.03387e-07 )  
( 4.18423e-08 -3.1704e-08 -5.51139e-08 )  
( 2.54821e-08 -1.73402e-08 -4.33008e-08 )  
( 2.19308e-08 -1.14066e-08 -3.47591e-08 )  
( 2.00269e-07 -1.06777e-08 -1.49877e-07 )  
( 7.1458e-08 -2.11526e-08 -6.25964e-08 )  
( 1.52338e-07 -3.68846e-08 -7.82808e-08 )  
( 7.25789e-08 -3.77812e-08 -6.73904e-08 )  
( 4.2921e-08 -1.85813e-08 -4.19022e-08 )  
( 1.50541e-07 -5.41619e-08 -1.09753e-07 )  
( 1.50659e-07 -3.70106e-08 -9.88745e-08 )  
( 4.46011e-08 -2.51071e-08 -6.10473e-08 )  
( 3.11968e-08 -1.81944e-08 -4.99218e-08 )  
( 2.12076e-08 -6.90551e-09 -2.44106e-08 )  
( 1.43475e-08 -3.44282e-09 -1.41915e-08 )  
( 5.19576e-08 2.1916e-08 -5.66065e-08 )  
( 2.96026e-07 -3.55237e-08 -1.54017e-07 )  
( 3.62134e-08 -2.21268e-08 -2.28655e-08 )  
( 1.53938e-07 -2.13564e-08 -7.87788e-08 )  
( 1.75067e-07 2.04074e-08 -1.12049e-07 )  
( 4.23742e-07 -1.18633e-07 -1.91294e-07 )  
( 6.23959e-08 -2.93779e-08 -4.98774e-08 )  
( 1.35828e-07 -4.33797e-08 -9.20752e-08 )  
( 7.91004e-08 -1.77834e-08 -4.39314e-08 )  
( 7.96213e-08 -2.5702e-08 -5.78962e-08 )  
( 1.97593e-07 -8.08219e-08 -9.76417e-08 )  
( 1.74336e-07 -7.42564e-09 -9.28646e-08 )  
( 2.8352e-08 -1.49515e-08 -2.47274e-08 )  
( 2.05682e-07 -9.45423e-08 -1.22534e-07 )  
( 9.42749e-08 -4.07253e-08 -6.16563e-08 )  
( 2.93996e-08 -5.51473e-09 -3.54133e-08 )  
( 3.29908e-07 -1.4114e-07 -1.61403e-07 )  
( 4.84592e-08 -1.64995e-08 -4.65033e-08 )  
( 4.52417e-09 -1.12401e-08 -2.10831e-08 )  
( 9.10341e-08 -4.16878e-08 -5.29383e-08 )  
( 3.33529e-08 -9.84019e-09 -4.40106e-09 )  
( 1.57625e-07 -4.43505e-08 -1.19737e-07 )  
( 2.45714e-07 -8.70956e-08 -1.05995e-07 )  
( 2.14429e-07 -6.24909e-08 -1.06418e-07 )  
( 3.6515e-07 -1.02191e-07 -1.31835e-07 )  
( 3.30035e-10 -1.87555e-09 -1.28262e-08 )  
( 2.99949e-07 -1.28028e-07 -1.13321e-07 )  
( 1.00976e-07 -3.4354e-08 -5.42632e-08 )  
( 2.53774e-07 -2.23217e-07 -1.71736e-07 )  
( 3.08121e-08 -1.87916e-08 -1.75397e-08 )  
( 2.82672e-07 -9.18944e-08 -1.16704e-07 )  
( -6.37539e-09 -2.69583e-09 -1.02238e-08 )  
( 1.01717e-07 -2.77108e-09 -6.44204e-08 )  
( 1.12671e-07 -4.55043e-08 -7.67226e-08 )  
( 8.34907e-08 -3.81455e-08 -5.47501e-08 )  
( 1.59043e-07 -1.30749e-08 -5.33573e-08 )  
( 2.23961e-08 -8.94922e-09 -3.79473e-08 )  
( 1.82343e-07 6.478e-09 -6.17752e-08 )  
( 1.26962e-07 -2.48462e-08 -2.41802e-08 )  
( 2.06758e-07 -8.84993e-08 -1.46705e-07 )  
( 1.79064e-07 -7.3297e-08 -9.92761e-08 )  
( 7.28409e-08 -1.82876e-08 -6.2444e-08 )  
( 2.18328e-08 -8.56174e-09 3.34897e-10 )  
( 2.09643e-07 -6.85062e-08 -1.14085e-07 )  
( 3.58997e-07 -1.54907e-07 -1.39605e-07 )  
( 1.70347e-08 -1.53178e-08 -1.66093e-08 )  
( 7.58146e-09 -4.5226e-09 -1.74031e-08 )  
( 2.19569e-08 -2.27847e-08 -1.50628e-08 )  
( 3.57365e-08 -2.77801e-08 -2.8123e-08 )  
( 2.72211e-07 -3.39594e-07 -1.43094e-07 )  
( 3.77726e-09 -1.62769e-09 -2.0174e-08 )  
( 1.17755e-07 -3.06142e-08 -5.60726e-08 )  
( 8.91917e-08 -3.85452e-08 -5.59842e-08 )  
( 1.94725e-07 -6.42319e-08 -1.08467e-07 )  
( 2.30868e-07 -8.59752e-08 -7.6413e-08 )  
( 1.90254e-07 -4.99404e-08 -8.66839e-08 )  
( 4.05064e-08 -1.70385e-09 -2.6111e-08 )  
( 3.15648e-07 2.66976e-08 -1.03113e-07 )  
( 3.41741e-07 -1.09861e-07 -1.10564e-07 )  
)
