/*--------------------------------*- C++ -*----------------------------------*\
  =========                 |
  \\      /  F ield         | OpenFOAM: The Open Source CFD Toolbox
   \\    /   O peration     | Website:  https://openfoam.org
    \\  /    A nd           | Version:  4.x
     \\/     M anipulation  |
\*---------------------------------------------------------------------------*/
FoamFile
{
    version     2.0;
    format      ascii;
    class       vectorField;
    location    0;
    object      v;
}
// * * * * * * * * * * * * * * * * * * * * * * * * * * * * * * * * * * * * * //

303
(
( 1.79876e-09 -6.51954e-10 4.50333e-10 )  
( 4.74058e-09 -2.95888e-09 1.67075e-09 )  
( 5.07986e-09 -2.65767e-09 2.4349e-09 )  
( 3.10177e-09 -1.68393e-09 6.77901e-10 )  
( 4.44916e-09 -2.65381e-09 5.99382e-10 )  
( 7.25582e-09 -7.45322e-09 3.67924e-09 )  
( 1.56988e-09 -1.70142e-09 7.3052e-10 )  
( 4.66315e-09 -4.05195e-09 2.01666e-09 )  
( 6.39135e-09 -3.4645e-09 2.22533e-09 )  
( 1.06349e-08 -4.26282e-09 -1.75324e-09 )  
( 1.12083e-08 -4.83661e-09 -3.91662e-09 )  
( 7.62173e-09 -2.07489e-09 -6.00032e-09 )  
( 7.98899e-09 -8.69079e-09 1.90534e-09 )  
( 1.17372e-08 -3.14149e-09 -3.01137e-09 )  
( 2.08603e-09 -6.85687e-09 -8.45092e-09 )  
( 1.15036e-08 -4.56736e-09 -1.97154e-09 )  
( 1.95814e-08 8.36884e-09 -1.10181e-08 )  
( 9.10167e-09 -6.02145e-09 -3.58976e-10 )  
( 1.12882e-08 -3.56874e-09 1.16803e-09 )  
( 1.01203e-08 -1.33378e-09 -9.49079e-09 )  
( 1.04429e-08 -3.84511e-09 2.78919e-09 )  
( 1.03803e-08 -4.59681e-09 -1.17868e-09 )  
( 9.18103e-09 -6.72435e-09 1.57477e-09 )  
( 1.04901e-08 -4.42762e-09 -4.67255e-10 )  
( 9.57866e-09 -9.10609e-09 2.83578e-09 )  
( 9.07133e-09 -3.42754e-09 3.55252e-09 )  
( 9.42813e-09 -2.79043e-09 -9.23251e-09 )  
( 6.02325e-09 -5.58554e-09 -6.45687e-09 )  
( 1.04994e-08 -4.18396e-09 3.7193e-09 )  
( 1.02158e-08 -4.25083e-09 -3.95756e-09 )  
( 9.86846e-09 -1.26699e-09 -9.13315e-09 )  
( 1.02099e-08 -3.21765e-09 4.66174e-09 )  
( 3.40213e-09 -1.32661e-09 -4.89891e-09 )  
( 6.28957e-09 -2.67212e-09 -2.67182e-09 )  
( 4.23573e-09 -2.82681e-09 -1.39709e-09 )  
( 4.08599e-09 -2.62763e-09 -8.98369e-10 )  
( 9.64144e-09 -5.63948e-09 -1.30284e-09 )  
( 2.88435e-09 3.60081e-10 -7.0438e-09 )  
( 4.88331e-09 -2.83407e-09 -6.68226e-10 )  
( 5.87584e-09 -3.27305e-09 -2.07532e-09 )  
( 1.07229e-08 3.27147e-09 -1.2444e-08 )  
( 6.79692e-09 -2.29143e-09 -2.3335e-09 )  
( 2.05238e-09 -5.99785e-10 -7.23757e-09 )  
( 6.30693e-09 -5.30964e-09 -1.32232e-09 )  
( 8.24486e-09 -5.00366e-09 6.57004e-10 )  
( 9.8908e-09 -4.47704e-09 -3.61499e-09 )  
( -1.48346e-08 5.54376e-09 -1.95131e-08 )  
( -2.21377e-09 1.42704e-09 -5.40674e-09 )  
( -5.88907e-09 3.70062e-09 -1.02204e-08 )  
( 7.11129e-09 -4.33074e-09 -1.50936e-09 )  
( 5.17776e-09 -5.019e-09 -3.01883e-09 )  
( 4.56809e-09 -3.38583e-09 -1.28119e-09 )  
( 4.46181e-09 -1.81444e-09 -1.677e-09 )  
( 5.5017e-09 -2.52569e-09 -1.52756e-09 )  
( 6.77875e-10 -1.02496e-09 -3.58065e-11 )  
( 2.80374e-09 -9.28463e-10 -6.52889e-10 )  
( -3.94434e-09 -7.57383e-11 -7.50655e-09 )  
( 9.20971e-10 -9.02769e-10 -7.92612e-11 )  
( 5.28693e-09 -1.89807e-09 -5.75674e-09 )  
( 3.63378e-09 -2.53638e-09 -1.22587e-09 )  
( 3.35668e-09 -1.30151e-09 -1.5386e-09 )  
( 8.64768e-09 7.66242e-09 -1.74601e-08 )  
( -2.37463e-09 -1.8062e-09 -1.63529e-08 )  
( -4.4705e-07 -1.80399e-09 -6.81696e-09 )  
( 7.9234e-09 -3.74528e-09 1.4136e-09 )  
( 4.0302e-09 -1.15018e-09 -1.49765e-09 )  
( 9.89468e-09 -5.03149e-09 2.65704e-09 )  
( 3.30936e-09 -2.45502e-09 6.89798e-10 )  
( 7.64821e-09 -3.14475e-09 -3.6684e-09 )  
( 8.38073e-09 -4.94134e-09 3.95679e-12 )  
( 7.41252e-09 -5.97952e-09 -3.89294e-11 )  
( 1.37815e-09 -1.57918e-09 -1.1308e-08 )  
( 4.62907e-09 -2.98941e-09 4.31876e-10 )  
( 3.33227e-09 -1.85793e-09 -2.3506e-09 )  
( 3.1331e-09 2.27078e-10 -9.23749e-09 )  
( 1.49005e-08 8.61824e-09 -2.67653e-09 )  
( 6.27651e-09 -2.91573e-09 -2.23866e-09 )  
( 6.79585e-09 -5.86697e-09 -2.39954e-09 )  
( 3.64713e-09 -1.20756e-09 -1.35162e-08 )  
( 8.00062e-09 -5.10352e-09 -2.20622e-09 )  
( 3.18257e-09 -1.93911e-09 -1.14037e-09 )  
( 7.7398e-09 -7.19467e-09 1.41551e-09 )  
( 5.27979e-09 -2.93072e-09 -3.57196e-09 )  
( 3.01275e-09 -4.60795e-09 -1.40464e-08 )  
( -1.88118e-10 -1.49529e-09 -7.02395e-09 )  
( 4.39329e-09 -2.22202e-09 -6.35823e-09 )  
( 2.23265e-09 -1.23275e-09 -9.50906e-10 )  
( -1.68354e-09 -3.63582e-10 -4.73541e-09 )  
( 2.19859e-09 -2.47207e-09 -8.69836e-09 )  
( -1.07832e-08 7.17823e-09 -4.12246e-08 )  
( 6.77607e-09 -4.35189e-09 -2.18749e-09 )  
( 5.71258e-09 -2.3053e-09 -2.28594e-09 )  
( 2.52824e-09 -9.4691e-10 -9.44663e-09 )  
( 5.50544e-09 -1.3507e-09 -1.36731e-09 )  
( 4.69682e-09 -2.28718e-09 -1.6521e-09 )  
( 2.34761e-09 -2.93862e-09 2.47898e-10 )  
( -4.83544e-10 7.72886e-10 -6.07239e-09 )  
( 2.45747e-09 8.80264e-10 -1.12599e-09 )  
( 7.81426e-09 -2.87971e-09 -3.80996e-09 )  
( 8.00564e-09 -5.36281e-09 -5.69843e-10 )  
( 7.36552e-09 -3.49767e-09 -1.82269e-09 )  
( 3.65166e-09 -1.50356e-09 4.60963e-11 )  
( -9.26331e-09 -6.43964e-09 -9.20564e-09 )  
( 4.85906e-09 -1.2632e-09 -1.40949e-09 )  
( -5.07733e-09 7.19664e-10 -1.21653e-08 )  
( 2.07561e-09 -2.5354e-10 -3.3832e-09 )  
( 4.01864e-09 -2.9583e-09 -9.09445e-10 )  
( -3.72882e-09 -3.85243e-10 -3.4655e-09 )  
( -1.72763e-08 2.53908e-06 -8.11875e-08 )  
( 5.91072e-09 -4.10462e-09 -3.72792e-10 )  
( 9.08289e-09 -6.18545e-09 -7.35546e-10 )  
( 8.08559e-09 -6.07018e-09 1.51458e-09 )  
( 1.09509e-08 -3.31279e-09 -7.81576e-10 )  
( -2.67955e-09 6.69274e-08 -1.94118e-08 )  
( -2.12814e-09 -1.78091e-09 -2.06743e-09 )  
( 4.69699e-09 -3.47881e-09 -1.82144e-09 )  
( -2.52295e-09 -1.43047e-09 -9.44615e-09 )  
( 9.82911e-09 -4.31389e-09 -2.47581e-09 )  
( 1.06818e-08 3.8218e-09 -1.06018e-08 )  
( 1.90324e-08 1.46338e-08 -1.24522e-08 )  
( 7.62921e-09 -4.33323e-09 7.20843e-10 )  
( 5.49802e-09 -3.08651e-09 1.02753e-09 )  
( 9.30326e-09 -4.07457e-09 -2.19032e-09 )  
( 3.46664e-09 1.23992e-09 -7.75263e-09 )  
( 5.96552e-09 -4.36276e-09 -1.29284e-09 )  
( 3.70748e-09 -1.48339e-09 -1.01719e-09 )  
( 6.68064e-09 3.36115e-09 -6.57586e-09 )  
( 8.27303e-09 -9.64091e-10 -8.67796e-09 )  
( -5.43651e-09 -1.24127e-08 -4.57466e-08 )  
( 3.63026e-09 -2.19601e-09 -2.05083e-09 )  
( -2.36671e-09 1.14944e-08 -1.90622e-08 )  
( 1.4081e-09 -1.4837e-09 -3.08775e-09 )  
( -2.83832e-10 -8.89272e-10 -8.44281e-10 )  
( 4.01571e-09 -6.78165e-10 -1.47231e-09 )  
( 5.79417e-09 1.32684e-10 -4.03229e-09 )  
( 8.55123e-09 -5.68775e-09 1.42171e-09 )  
( 2.945e-08 2.14451e-08 -9.78079e-09 )  
( 3.52013e-09 1.26598e-09 -4.21914e-09 )  
( 1.11961e-08 -4.34554e-09 -1.61516e-09 )  
( 1.48051e-09 -1.05622e-09 -8.9153e-10 )  
( 5.02846e-09 6.63207e-10 -9.1142e-09 )  
( 4.64e-09 -1.00142e-09 -6.74077e-09 )  
( 9.63696e-09 -5.04425e-09 -1.59852e-09 )  
( 1.44279e-09 -1.8784e-09 -1.28682e-09 )  
( -6.49875e-10 -4.37558e-10 -4.93202e-09 )  
( 2.18246e-08 1.28052e-08 -1.9495e-08 )  
( 2.79575e-09 -8.58924e-10 -3.00132e-09 )  
( 6.01554e-09 -3.47523e-09 4.08327e-10 )  
( -1.78499e-09 1.91404e-10 -1.17393e-09 )  
( 1.95736e-09 -8.21747e-10 -6.4116e-10 )  
( 9.76961e-09 -4.00978e-09 1.15606e-09 )  
( 1.40115e-09 -8.81594e-10 6.18433e-10 )  
( 6.79003e-09 -4.49113e-09 -1.72521e-10 )  
( 5.63242e-09 -1.97771e-09 -1.18859e-09 )  
( 4.22204e-09 -1.49354e-09 -8.71089e-10 )  
( 1.00998e-08 -3.40391e-09 -3.76727e-09 )  
( 3.2281e-09 4.57888e-10 -1.78024e-09 )  
( 7.27852e-09 -2.42447e-09 -7.28732e-09 )  
( 7.56661e-09 -1.40767e-10 -8.89526e-09 )  
( 4.56875e-09 -3.13026e-09 -8.53601e-10 )  
( 3.66601e-09 -1.58191e-09 -1.64349e-09 )  
( -3.34877e-10 8.01298e-09 -3.5125e-08 )  
( 2.81618e-09 -2.50509e-09 -2.65584e-09 )  
( 8.62531e-09 -6.05168e-09 1.02675e-10 )  
( -9.58263e-10 -3.69625e-10 -3.34381e-09 )  
( -2.33287e-09 -3.87347e-09 -2.28789e-08 )  
( 4.70529e-09 -3.03977e-09 -2.14491e-10 )  
( 3.02898e-09 -2.99666e-09 -9.33319e-10 )  
( 5.65578e-10 -4.07817e-09 -8.27587e-09 )  
( 3.53504e-09 -2.4987e-09 -8.55236e-10 )  
( 4.07158e-09 1.18999e-09 -3.93053e-09 )  
( -5.73054e-09 -4.01705e-09 -1.08361e-08 )  
( 5.52464e-09 -4.46154e-09 1.21607e-09 )  
( 1.18914e-09 -2.6134e-09 -5.63449e-09 )  
( -1.28434e-10 -5.40389e-10 -6.77527e-10 )  
( 1.83245e-09 -1.09418e-09 -1.47782e-09 )  
( 1.10321e-09 -4.51735e-10 -1.50725e-09 )  
( 2.25263e-10 -2.87037e-09 -8.27147e-09 )  
( 4.50751e-09 -1.76792e-09 -2.07038e-09 )  
( 1.53043e-09 9.23116e-10 -9.60285e-09 )  
( -1.67268e-08 2.91731e-08 -1.61929e-08 )  
( 2.09338e-09 -5.80952e-10 8.54095e-11 )  
( 8.78128e-10 -1.24536e-09 -1.96863e-09 )  
( 5.18967e-09 -1.15933e-09 -1.11385e-08 )  
( 2.40644e-08 2.32136e-09 -2.52455e-09 )  
( 8.15097e-09 -3.25523e-09 -2.7324e-09 )  
( 1.9337e-09 -1.01134e-09 -4.05635e-10 )  
( 1.76935e-08 3.43335e-09 -4.2932e-09 )  
( 4.64504e-09 -3.01692e-09 -1.65648e-09 )  
( 5.02062e-09 -3.94039e-09 -2.81701e-11 )  
( -2.85386e-09 -1.00143e-09 -6.63713e-09 )  
( 7.28875e-09 -6.26118e-09 -3.96716e-10 )  
( -4.0619e-09 -4.26705e-10 -4.38115e-09 )  
( 1.29984e-09 -8.98428e-10 -9.78883e-10 )  
( -1.94655e-09 -1.49381e-10 -5.75044e-10 )  
( 8.68056e-09 -3.45538e-09 7.99203e-10 )  
( -4.99124e-09 -1.28452e-09 -4.71021e-09 )  
( 8.31839e-09 -2.26667e-09 -2.88724e-09 )  
( 7.0254e-10 1.44206e-10 -2.75963e-09 )  
( 5.71193e-09 -1.20013e-09 -5.58863e-11 )  
( -2.73217e-10 -1.389e-09 -7.93379e-10 )  
( 6.10405e-09 -1.07708e-09 -3.51768e-09 )  
( 5.31779e-09 -1.74376e-09 -7.08599e-09 )  
( 1.59172e-09 2.45159e-10 -5.96561e-09 )  
( 1.94343e-09 -2.51293e-10 5.24702e-10 )  
( 4.61442e-09 -2.15682e-09 -1.68305e-09 )  
( -4.49231e-09 1.73999e-10 -3.10049e-09 )  
( 2.053e-09 -1.33393e-09 -4.34456e-09 )  
( -1.15142e-09 -4.00688e-10 -6.13408e-10 )  
( 3.7613e-09 -3.54104e-10 -2.58788e-09 )  
( 4.49009e-09 -6.57502e-10 -7.60454e-09 )  
( -1.60226e-09 -6.30611e-09 -1.72897e-08 )  
( 4.46371e-09 9.17513e-11 -5.74596e-09 )  
( 9.87941e-09 -3.85628e-09 7.65908e-10 )  
( 6.11345e-09 -1.36492e-09 -4.58054e-09 )  
( 1.19419e-09 -1.26387e-09 7.53802e-10 )  
( 1.18441e-08 -3.40523e-09 2.34027e-09 )  
( 2.00938e-10 -8.72017e-10 -1.82669e-09 )  
( 2.19299e-09 3.46863e-10 5.00384e-10 )  
( 5.17666e-09 -3.23961e-09 1.80316e-09 )  
( -5.69718e-10 -1.37679e-09 -1.09133e-09 )  
( -8.88347e-09 -4.17939e-09 -7.12484e-09 )  
( -1.84759e-09 -7.26012e-09 -3.28921e-09 )  
( 4.43851e-09 -2.41967e-09 1.76608e-09 )  
( 8.15073e-09 -6.48917e-09 3.05449e-09 )  
( 9.90248e-09 9.19421e-10 -1.00815e-08 )  
( 1.02113e-08 -2.90604e-10 3.7665e-09 )  
( 6.32184e-09 -3.26807e-09 -2.01551e-09 )  
( 5.62321e-09 -1.18549e-09 6.06289e-10 )  
( 1.07291e-08 -3.14508e-09 2.47806e-09 )  
( -7.00822e-08 -4.51055e-09 -3.35533e-09 )  
( 9.18399e-09 -2.61671e-09 -5.37134e-09 )  
( 6.69549e-09 -5.60965e-09 1.22146e-09 )  
( 5.65643e-09 -2.79807e-09 3.37459e-10 )  
( -2.45739e-09 -5.19294e-10 -2.58463e-09 )  
( 3.15017e-09 -5.35109e-10 -5.17971e-09 )  
( 2.53794e-09 -1.24973e-09 9.42088e-10 )  
( 9.80966e-09 -4.71371e-09 -3.95697e-09 )  
( 2.57335e-09 -2.88375e-09 -4.59676e-09 )  
( 9.63074e-09 -2.68211e-09 1.75171e-09 )  
( 1.06038e-08 -1.1608e-09 -8.63665e-09 )  
( 8.43358e-09 -2.94646e-09 3.13178e-09 )  
( 9.23231e-09 -1.90021e-09 -3.70386e-09 )  
( 1.13913e-08 -4.66085e-09 -3.77955e-10 )  
( 7.22553e-09 -8.54957e-09 4.10901e-09 )  
( 5.58069e-09 -2.40526e-09 5.61065e-11 )  
( -4.7453e-09 -3.97649e-10 -7.39441e-09 )  
( 9.0611e-09 -5.97103e-09 -2.87946e-09 )  
( 5.87131e-09 -4.17206e-09 -1.50187e-09 )  
( 4.75281e-09 -2.66261e-09 -3.43919e-09 )  
( 4.39295e-09 -2.6167e-09 1.21757e-09 )  
( 1.01736e-08 -5.81271e-09 2.84578e-09 )  
( 5.66261e-09 -2.67467e-09 -1.50338e-09 )  
( 9.27266e-09 -1.65233e-10 7.01466e-09 )  
( 4.85302e-09 -1.38127e-09 -4.34538e-09 )  
( 1.10437e-08 -3.06551e-09 -7.26219e-10 )  
( 3.50269e-09 -2.51336e-10 -3.37845e-09 )  
( 6.91562e-09 -3.78046e-09 4.13072e-10 )  
( 3.65608e-09 -1.66782e-09 2.78599e-10 )  
( 1.40586e-09 -2.10251e-09 -3.13065e-10 )  
( 1.08508e-08 -3.88607e-09 -1.46233e-09 )  
( 2.71095e-09 3.26592e-10 -7.06637e-09 )  
( 2.48312e-09 -3.37232e-09 2.63719e-10 )  
( -2.70595e-10 -3.56136e-11 -5.24481e-09 )  
( 7.94304e-09 -3.11918e-09 2.61304e-09 )  
( 7.35106e-09 -2.2619e-09 -5.0014e-09 )  
( 6.95753e-09 -2.49541e-09 -1.29593e-09 )  
( -1.36161e-09 -2.75297e-10 -8.46418e-09 )  
( 9.75513e-09 -2.32261e-09 3.84329e-09 )  
( -3.00976e-09 -3.58971e-10 -2.46282e-09 )  
( 1.03067e-08 -2.8413e-09 1.9338e-09 )  
( 7.64987e-09 -5.04766e-10 -8.15348e-09 )  
( 4.38489e-09 -5.34861e-10 -2.48556e-09 )  
( 3.07228e-09 1.21964e-09 -7.05304e-09 )  
( 9.33639e-09 -5.77343e-09 -8.24889e-11 )  
( 1.16958e-08 -1.63398e-08 4.9497e-09 )  
( -2.0948e-08 -5.22958e-09 -2.33918e-08 )  
( 5.25644e-09 -3.42937e-09 -2.32932e-09 )  
( 4.14077e-09 -2.56329e-09 -2.10591e-09 )  
( 1.11215e-08 -5.65229e-09 -7.63228e-10 )  
( 4.92431e-09 -2.78673e-09 -1.09837e-09 )  
( -4.67187e-09 1.90597e-09 -8.91456e-09 )  
( 3.11084e-09 -1.80146e-09 -8.15878e-11 )  
( 6.59978e-09 -6.435e-09 1.44708e-09 )  
( 1.19441e-08 -1.36514e-08 -1.19003e-09 )  
( 5.62593e-09 -4.92928e-09 1.06431e-10 )  
( 4.49948e-09 -8.94709e-10 -9.78493e-10 )  
( 3.87414e-09 -4.34458e-09 -1.8493e-09 )  
( 6.24125e-09 -5.94908e-09 -8.31094e-10 )  
( 5.16237e-09 -6.30645e-09 2.37721e-09 )  
( 3.49428e-09 -1.05918e-09 -7.88299e-10 )  
( 1.23534e-09 -4.45912e-11 -3.24288e-10 )  
( -1.2578e-09 1.20854e-09 -4.20103e-09 )  
( 1.44708e-09 -9.37316e-10 2.33829e-10 )  
( 4.61512e-09 -9.28406e-12 -4.86247e-09 )  
( 7.78936e-09 -7.14254e-09 5.70677e-10 )  
( 1.33772e-10 1.48855e-09 -5.80405e-09 )  
( 3.60468e-09 -8.63742e-09 9.89483e-10 )  
( 7.00377e-09 -5.97955e-09 8.23604e-10 )  
( 6.6598e-09 -7.26707e-09 7.32948e-10 )  
( 3.66329e-09 -8.95224e-09 -1.37461e-10 )  
( 6.76547e-09 -9.95444e-09 2.90653e-09 )  
( 5.38163e-09 -3.99964e-09 -1.06937e-09 )  
)
