/*--------------------------------*- C++ -*----------------------------------*\
| =========                 |                                                 |
| \\      /  F ield         | OpenFOAM: The Open Source CFD Toolbox           |
|  \\    /   O peration     | Version:  4.x                                   |
|   \\  /    A nd           | Web:      www.OpenFOAM.org                      |
|    \\/     M anipulation  |                                                 |
\*---------------------------------------------------------------------------*/
FoamFile
{
    version     2.0;
    format      ascii;
    class       volScalarField;
    location    "25.5";
    object      SPartFluid;
}
// * * * * * * * * * * * * * * * * * * * * * * * * * * * * * * * * * * * * * //

dimensions      [1 -3 -1 0 0 0 0];

internalField   nonuniform List<scalar> 
132
(
5.50249e-65
4.41745e-65
3.09996e-65
2.86744e-65
3.79743e-65
4.0299e-65
4.72735e-65
3.48727e-65
1.70488e-65
4.88248e-65
4.72742e-65
4.5724e-65
5.11485e-65
3.1774e-65
5.81234e-65
4.41728e-65
4.95955e-65
3.95196e-65
2.71248e-65
5.34741e-65
4.72739e-65
4.7273e-65
4.26233e-65
4.33991e-65
3.25481e-65
4.49437e-65
6.89642e-65
2.86749e-65
4.41743e-65
3.25494e-65
4.18499e-65
6.66491e-65
8.05988e-65
7.05236e-65
6.81987e-65
7.12984e-65
5.73481e-65
6.43207e-65
6.19925e-65
5.42497e-65
7.98239e-65
6.27738e-65
7.20727e-65
7.28478e-65
7.12984e-65
7.0522e-65
7.74929e-65
6.97392e-65
5.88998e-65
8.13738e-65
6.81983e-65
6.27727e-65
7.36226e-65
5.88991e-65
8.29197e-65
6.04434e-65
4.95916e-65
8.05997e-65
6.12242e-65
6.12237e-65
4.72733e-65
8.98973e-65
5.96749e-65
6.81994e-65
7.28492e-65
6.74241e-65
6.58743e-65
5.19242e-65
7.05231e-65
6.89709e-65
4.72701e-65
6.43249e-65
7.05244e-65
6.4324e-65
5.9674e-65
7.36239e-65
5.73493e-65
7.36231e-65
8.83442e-65
8.29142e-65
7.67249e-65
6.27744e-65
6.58739e-65
8.21483e-65
7.82735e-65
7.36246e-65
7.43986e-65
6.19946e-65
4.57172e-65
7.28499e-65
7.59491e-65
7.67238e-65
8.13735e-65
8.21488e-65
7.12996e-65
7.12984e-65
4.5725e-65
4.88247e-65
5.73496e-65
5.34747e-65
6.12248e-65
7.43995e-65
4.80494e-65
4.10736e-65
4.95975e-65
5.5025e-65
8.13745e-65
7.28495e-65
6.74246e-65
5.81247e-65
5.96748e-65
8.36989e-65
6.58727e-65
5.50204e-65
4.57249e-65
4.95996e-65
7.28494e-65
5.73496e-65
7.28497e-65
8.05999e-65
6.74244e-65
5.11477e-65
8.05931e-65
5.27e-65
5.88995e-65
7.98244e-65
9.06747e-65
4.495e-65
9.14502e-65
7.12994e-65
5.42491e-65
2.3249e-65
)
;

boundaryField
{
    inlet
    {
        type            calculated;
        value           uniform 0;
    }
    outlet
    {
        type            calculated;
        value           nonuniform 0();
    }
    wall
    {
        type            calculated;
        value           uniform 0;
    }
    procBoundary0to1
    {
        type            processor;
        value           nonuniform List<scalar> 
12
(
3.71919e-65
3.64199e-65
3.48721e-65
6.66379e-65
7.20621e-65
7.12905e-65
7.0517e-65
5.57897e-65
8.91083e-65
6.587e-65
7.05182e-65
5.73436e-65
)
;
    }
    procBoundary0to2
    {
        type            processor;
        value           nonuniform List<scalar> 
44
(
6.50978e-65
4.88232e-65
2.55743e-65
4.88218e-65
3.02187e-65
4.10663e-65
5.73498e-65
6.50991e-65
6.50978e-65
5.1149e-65
6.50978e-65
4.88232e-65
8.44727e-65
9.76452e-65
5.73411e-65
9.22111e-65
5.42498e-65
6.81991e-65
7.67233e-65
7.82728e-65
8.44727e-65
6.97482e-65
8.44727e-65
9.76452e-65
7.59447e-65
8.1366e-65
7.28499e-65
4.95995e-65
5.50243e-65
6.12242e-65
5.57994e-65
7.12996e-65
7.59447e-65
8.36987e-65
7.59447e-65
8.1366e-65
4.805e-65
8.13746e-65
8.36995e-65
6.50999e-65
6.82001e-65
5.89002e-65
6.27748e-65
7.74989e-65
)
;
    }
    procBoundary0to4
    {
        type            processor;
        value           nonuniform List<scalar> 
36
(
5.19251e-65
7.36248e-65
7.51749e-65
5.58e-65
5.9675e-65
5.65748e-65
7.59495e-65
6.74241e-65
8.91232e-65
7.75001e-65
6.35498e-65
7.36249e-65
8.6025e-65
8.21501e-65
7.51749e-65
6.35497e-65
5.42493e-65
9.06722e-65
6.97501e-65
8.75747e-65
6.66499e-65
8.44751e-65
6.66503e-65
5.96752e-65
6.12249e-65
9.68739e-65
5.6574e-65
4.34e-65
5.73498e-65
7.59499e-65
5.19253e-65
7.36255e-65
6.35503e-65
9.22251e-65
5.9675e-65
5.96743e-65
)
;
    }
    procBoundary0to6
    {
        type            processor;
        value           uniform 6.74236e-65;
    }
    procBoundary0to7
    {
        type            processor;
        value           uniform 9.91948e-65;
    }
}


// ************************************************************************* //
