/*--------------------------------*- C++ -*----------------------------------*\
| =========                 |                                                 |
| \\      /  F ield         | OpenFOAM: The Open Source CFD Toolbox           |
|  \\    /   O peration     | Version:  4.x                                   |
|   \\  /    A nd           | Web:      www.OpenFOAM.org                      |
|    \\/     M anipulation  |                                                 |
\*---------------------------------------------------------------------------*/
FoamFile
{
    version     2.0;
    format      ascii;
    class       volVectorField;
    location    "25.5";
    object      U;
}
// * * * * * * * * * * * * * * * * * * * * * * * * * * * * * * * * * * * * * //

dimensions      [0 1 -1 0 0 0 0];

internalField   nonuniform List<vector> 
132
(
(0.0300985 -0.000482975 -0.000898838)
(0.0143722 -0.000333796 -0.000554089)
(0.0329532 -0.000551055 -0.000932434)
(0.0190647 -0.000285381 -0.000362028)
(0.0358039 -0.000371334 -0.000581198)
(0.0227449 -0.000213259 -1.87012e-05)
(0.0383774 -0.000237056 -0.000280051)
(0.0256878 -0.00026479 0.00017366)
(0.0408837 -0.000261936 -0.00025666)
(0.0301439 -0.000868076 -0.00110237)
(0.0136645 -0.000628116 -0.000556744)
(0.0323468 -0.00108834 -0.00107147)
(0.0173344 -0.000620949 -0.000462804)
(0.0345521 -0.000924411 -0.000805308)
(0.0202848 -0.000618726 -0.000131025)
(0.0366785 -0.0010812 -0.000413364)
(0.0224936 -0.00110154 0.000231049)
(0.0388313 -0.00194217 -6.56441e-05)
(0.0302136 -0.000647528 -0.00118257)
(0.0131289 -0.000428454 -0.000484251)
(0.0319443 -0.000749391 -0.00105537)
(0.0159582 -0.000573307 -0.00037859)
(0.0334147 -0.000568591 -0.000785564)
(0.0176758 -0.00061036 -0.000139883)
(0.0348712 -0.000603859 -0.000410215)
(0.0180353 -0.0010745 6.72208e-05)
(0.0372349 -0.00127735 -0.00201995)
(0.0301249 -0.000362565 -0.00132752)
(0.0132689 -2.61316e-05 -0.000528839)
(0.031903 -0.000181198 -0.00122058)
(0.0299396 -0.000670594 -0.00229842)
(0.0129365 -0.000328402 -0.00137516)
(0.031705 -0.000676666 -0.0025106)
(0.0151825 -0.000353111 -0.00130079)
(0.0330941 -0.000564656 -0.00209196)
(0.0169757 -0.000267468 -0.0012316)
(0.0344809 -0.000326664 -0.00200691)
(0.0182569 -0.000121378 -0.00136041)
(0.0359948 5.00488e-06 -0.00249866)
(0.0299719 -0.00110505 -0.00257243)
(0.0116456 -0.000510172 -0.00132238)
(0.0307483 -0.00116906 -0.0026923)
(0.0123066 -0.0005145 -0.00122749)
(0.0312812 -0.00104746 -0.00227339)
(0.0124954 -0.000501417 -0.00108039)
(0.031996 -0.00108314 -0.00199464)
(0.0125523 -0.000711265 -0.00125428)
(0.0332129 -0.00260391 -0.00319726)
(0.0298517 -0.000833881 -0.0027879)
(0.010775 -0.000336969 -0.00134363)
(0.0301664 -0.00083977 -0.00293004)
(0.0102837 -0.00039574 -0.00146752)
(0.0300954 -0.000691212 -0.00220868)
(0.009125 -0.000411729 -0.00198807)
(0.0298754 -0.000380439 -0.0017319)
(0.0071284 -0.000610623 -0.00383689)
(0.0291149 -0.000779538 -0.0095481)
(0.0297037 -0.000211113 -0.00292809)
(0.010829 -8.26836e-05 -0.00149145)
(0.0298464 -0.000205016 -0.00303619)
(0.0101879 3.0227e-05 -0.00148711)
(0.0297143 -1.95912e-06 -0.00232269)
(0.029985 -0.00077482 -0.00153084)
(0.0121023 -0.00037118 -0.000792395)
(0.0309042 -0.00079118 -0.00153637)
(0.0130053 -0.000367236 -0.000603561)
(0.0316012 -0.000657381 -0.00111292)
(0.0132377 -0.000294909 -0.000293405)
(0.0325478 -0.000346488 -0.000686586)
(0.0125553 -0.000470899 -9.19935e-05)
(0.0344683 -0.00201439 -0.000534844)
(0.0298958 -0.00136662 -0.00181242)
(0.0105302 -0.000672662 -0.000832253)
(0.0298305 -0.0015405 -0.00177299)
(0.00939779 -0.000865619 -0.000475223)
(0.0295679 -0.0010975 -0.00117919)
(0.00769347 -0.00134747 -0.000223335)
(0.0292252 -0.000850122 -0.000857072)
(0.0055765 -0.00273449 -4.35055e-05)
(0.0282672 -0.00902969 -0.000765022)
(0.0296668 -0.00102846 -0.00175183)
(0.0091962 -0.000530503 -0.00075881)
(0.028481 -0.00106345 -0.00172022)
(0.00586413 -0.00051252 -0.000291335)
(0.0263937 -0.000515238 -0.000946901)
(0.00316703 -0.000537917 1.48993e-05)
(0.0222947 0.0002053 -9.05311e-05)
(0.000874341 -0.000415466 8.90051e-05)
(0.0129859 -0.00227369 -0.00149122)
(0.0294625 -5.61208e-05 -0.00191072)
(0.00898291 0.000120935 -0.000881208)
(0.0281147 -3.27517e-05 -0.00197086)
(0.00553056 0.000343477 -0.000305481)
(0.0262185 -0.000105861 -0.00108635)
(0.00313299 0.000554387 -6.84507e-05)
(0.0232678 -5.8301e-05 -0.000564845)
(0.0299919 -0.000974825 -0.00113084)
(0.0127223 -0.000499015 -0.000630425)
(0.0313622 -0.00100088 -0.00123841)
(0.0142719 -0.000426445 -0.000436283)
(0.0325059 -0.000761831 -0.000929329)
(0.015311 -0.000406231 -9.92063e-05)
(0.0335144 -0.000665623 -0.000512621)
(0.0158589 -0.000247901 0.000168396)
(0.0345057 -0.000285414 0.000464524)
(0.0298799 -0.00133725 -0.0013447)
(0.0105757 -0.000636302 -0.0006112)
(0.0299824 -0.00143812 -0.0014528)
(0.00942679 -0.000469811 -0.000315951)
(0.0300171 -0.00107353 -0.000993)
(0.00846607 -0.000211793 2.78891e-05)
(0.0303912 -0.000621788 -0.000780362)
(0.00723722 0.000202866 0.00019009)
(0.0308564 -0.000703103 0.00038579)
(0.0296435 -0.000947404 -0.00127338)
(0.00987889 -0.000495281 -0.000507908)
(0.0293157 -0.00109782 -0.00116976)
(0.00727608 -0.00033968 2.86571e-05)
(0.0292359 -0.000690692 -0.000755663)
(0.00532034 -0.000220083 0.000654311)
(0.0297785 -0.000148089 -0.000579638)
(0.00484047 -0.000191627 0.00203892)
(0.0311099 -0.000500429 0.00834067)
(0.0297455 -0.000267785 -0.0012036)
(0.00949264 -6.30225e-05 -0.000563455)
(0.0290611 -3.65034e-05 -0.0012363)
(0.00628088 -3.75809e-05 -9.41829e-05)
(0.028582 2.89717e-05 -0.000847939)
(0.00429462 -0.000131526 0.000436249)
(0.0287039 -0.000358728 -0.00050714)
(0.00357929 -0.000246237 0.00124467)
(0.0288056 0.000875631 0.00125427)
)
;

boundaryField
{
    inlet
    {
        type            fixedValue;
        value           uniform (0.01 0 0);
    }
    outlet
    {
        type            zeroGradient;
    }
    wall
    {
        type            fixedValue;
        value           uniform (0 0 0);
    }
    procBoundary0to1
    {
        type            processor;
        value           nonuniform List<vector> 
12
(
(0.0299804 -0.000443635 -2.28558e-05)
(0.0259629 -0.000525236 0.000622833)
(0.0251516 -0.00226849 -0.00213594)
(0.0204957 0.000278469 -0.00130086)
(0.0134071 -0.00150029 -0.00268702)
(0.00106576 -0.000256025 -9.39013e-05)
(0.0198347 -0.0028061 -7.85021e-05)
(0.00170561 -0.000204115 -0.000254079)
(-0.0331173 -0.0151449 -0.00691646)
(0.0159456 -0.000186346 0.000159702)
(0.0063131 0.00071979 0.00105454)
(0.000171274 1.53201e-05 -1.95808e-05)
)
;
    }
    procBoundary0to2
    {
        type            processor;
        value           nonuniform List<vector> 
44
(
(0.0163267 0.000101241 -0.000448221)
(0.0334008 -4.15404e-05 -0.00102679)
(0.0183859 0.000376679 -0.000208777)
(0.0346498 0.000265555 -0.00031481)
(0.0189688 0.00102589 0.000308532)
(0.036143 0.00163038 0.000809161)
(0.0300496 0.00019241 -0.00100251)
(0.012609 0.000191085 -0.000531211)
(0.0163267 0.000101241 -0.000448221)
(0.0315857 0.000303526 -0.00107063)
(0.0163267 0.000101241 -0.000448221)
(0.0334008 -4.15404e-05 -0.00102679)
(0.00893904 0.000131853 -0.00184945)
(0.0293881 0.000182421 -0.00138489)
(0.00832275 0.000415472 -0.00338409)
(0.0289485 0.00245475 -0.0040647)
(0.029843 0.000380348 -0.00248742)
(0.0108354 0.0001395 -0.00120818)
(0.0300815 0.000376985 -0.00277255)
(0.00990886 0.00035397 -0.000996505)
(0.00893904 0.000131853 -0.00184945)
(0.0300505 0.000428798 -0.00223827)
(0.00893904 0.000131853 -0.00184945)
(0.0293881 0.000182421 -0.00138489)
(0.00276839 0.00120788 0.000112955)
(0.0172466 0.00717232 -0.000459212)
(0.0299316 0.000664262 -0.0018109)
(0.00962636 0.000371237 -0.000784127)
(0.029307 0.000501412 -0.00157911)
(0.00676098 0.000553103 -0.00040824)
(0.0290414 0.000159201 -0.000975369)
(0.0037352 0.000587102 -0.000140914)
(0.00276839 0.00120788 0.000112955)
(0.0293715 -0.000706802 -0.000819733)
(0.00276839 0.00120788 0.000112955)
(0.0172466 0.00717232 -0.000459212)
(0.0296791 0.000568101 -0.00155849)
(0.00975509 0.000343135 -0.000557814)
(0.0290884 0.000781518 -0.00128492)
(0.00742507 0.000289045 -0.000328995)
(0.0286005 0.000533468 -0.000590112)
(0.00563448 0.000261487 -4.88906e-06)
(0.0284737 0.00017267 -0.00321454)
(0.00333668 0.000151362 -0.000118531)
)
;
    }
    procBoundary0to4
    {
        type            processor;
        value           nonuniform List<vector> 
36
(
(0.0302303 -0.00101686 -0.000641942)
(0.0123547 -0.000487687 -0.000357468)
(0.03112 -0.00110817 -0.000763044)
(0.0129159 -0.000445355 -0.000374228)
(0.0316557 -0.000847259 -0.000547334)
(0.0129347 -0.000242566 -0.000291863)
(0.0322959 -0.000705252 -0.000513827)
(0.0129026 -0.000282916 -0.000434222)
(0.033205 -0.00115671 -3.59844e-05)
(0.0299778 -0.00152349 -0.000566739)
(0.0100105 -0.000659285 -0.000237815)
(0.0295697 -0.00155295 -0.00064524)
(0.00726546 -0.000457262 -0.000200336)
(0.029313 -0.00102936 -0.000573117)
(0.00468047 -0.000267893 -0.000139214)
(0.0292801 -0.00102611 -0.000556441)
(0.00153145 -0.000102936 -0.000120947)
(0.0297556 -0.00168357 -0.000138824)
(0.0299827 -0.000894286 -0.000553922)
(0.00904425 -0.000524976 -0.000202604)
(0.0289153 -0.000875698 -0.000524859)
(0.00531182 -0.000361452 -9.76379e-05)
(0.0284267 -0.000432094 -0.000322531)
(0.00219267 -0.000135758 -0.000118929)
(0.0285898 0.000253693 -0.000370414)
(0.00142217 -5.52278e-05 -0.00021759)
(0.0304462 -0.00119633 0.00110675)
(0.0297993 -0.000354617 -0.000685392)
(0.00924813 5.79023e-05 -0.000178364)
(0.0285108 -0.000166534 -0.000612567)
(0.00562677 6.47986e-05 -0.000108696)
(0.0278611 7.4329e-05 -0.000580013)
(0.00319067 0.000161332 -1.81245e-05)
(0.0282729 -0.00272348 -0.000644053)
(0.00256376 4.97887e-05 -9.92692e-05)
(0.0294637 0.00406187 -0.000380141)
)
;
    }
    procBoundary0to6
    {
        type            processor;
        value           uniform (0.0314381 0.000480849 0.00305173);
    }
    procBoundary0to7
    {
        type            processor;
        value           uniform (0.00202141 -0.00140351 0.00755371);
    }
}


// ************************************************************************* //
