/*--------------------------------*- C++ -*----------------------------------*\
| =========                 |                                                 |
| \\      /  F ield         | OpenFOAM: The Open Source CFD Toolbox           |
|  \\    /   O peration     | Version:  4.x                                   |
|   \\  /    A nd           | Web:      www.OpenFOAM.org                      |
|    \\/     M anipulation  |                                                 |
\*---------------------------------------------------------------------------*/
FoamFile
{
    version     2.0;
    format      ascii;
    class       volVectorField;
    location    "17";
    object      impParticleForces;
}
// * * * * * * * * * * * * * * * * * * * * * * * * * * * * * * * * * * * * * //

dimensions      [1 1 -2 0 0 0 0];

internalField   nonuniform List<vector> 
114
(
(0.00242327 -7.22647e-06 -9.63348e-05)
(0.00246252 -6.55708e-06 -9.03349e-05)
(0.00246455 -5.91459e-06 -8.09238e-05)
(0.00249773 -4.99323e-06 -7.08673e-05)
(0.00246801 -2.70398e-06 -5.54868e-05)
(0.00247237 3.41907e-07 -4.01598e-05)
(0.00231953 -6.38638e-07 -9.97137e-05)
(0.00235094 -3.55592e-08 -0.00010101)
(0.00239822 7.32127e-07 -0.000100057)
(0.00242223 1.17864e-06 -9.55844e-05)
(0.00247028 1.77814e-06 -9.03696e-05)
(0.00246835 1.65266e-06 -8.12497e-05)
(0.00250436 2.01846e-06 -7.15721e-05)
(0.00248578 2.74999e-06 -5.67921e-05)
(0.00247808 4.62679e-06 -4.11773e-05)
(0.0022924 5.75448e-06 -9.70243e-05)
(0.00232853 6.3684e-06 -9.85408e-05)
(0.00237454 6.94724e-06 -9.77334e-05)
(0.0023999 7.08581e-06 -9.33463e-05)
(0.00244737 7.58736e-06 -8.8242e-05)
(0.00244898 7.3226e-06 -7.98816e-05)
(0.00248629 7.79554e-06 -7.06497e-05)
(0.00247875 7.77164e-06 -5.69067e-05)
(0.00248704 9.17918e-06 -4.25384e-05)
(0.00225417 8.31248e-06 -9.39898e-05)
(0.00227798 8.72649e-06 -9.46046e-05)
(0.00233243 9.3502e-06 -9.41127e-05)
(0.0023483 9.28491e-06 -8.97901e-05)
(0.0023833 9.48266e-06 -8.46314e-05)
(0.0023919 9.37537e-06 -7.67531e-05)
(0.00240977 9.7433e-06 -6.73344e-05)
(0.00242592 1.01561e-05 -5.54252e-05)
(0.002436 1.13561e-05 -4.1921e-05)
(0.00253111 -6.62202e-06 -8.33292e-05)
(0.00256276 -5.99284e-06 -7.30096e-05)
(0.00250319 -3.53816e-06 -5.52224e-05)
(0.0025167 -9.43445e-07 -3.95283e-05)
(0.00234674 1.03395e-07 -0.000100404)
(0.00239933 7.80083e-07 -0.000103346)
(0.00246803 1.77521e-06 -0.000104521)
(0.00248587 2.17146e-06 -9.909e-05)
(0.00252427 2.62281e-06 -9.31855e-05)
(0.00251215 2.12598e-06 -8.26819e-05)
(0.00255489 2.45273e-06 -7.32839e-05)
(0.00251294 3.08862e-06 -5.66863e-05)
(0.00250202 4.70207e-06 -4.02408e-05)
(0.00232961 7.12139e-06 -9.85559e-05)
(0.00238752 8.21583e-06 -0.000101771)
(0.00246098 9.40106e-06 -0.000103195)
(0.00246979 9.03611e-06 -9.72727e-05)
(0.00250071 9.21404e-06 -9.12676e-05)
(0.00249975 8.81125e-06 -8.21182e-05)
(0.00252857 9.28363e-06 -7.25201e-05)
(0.00250661 9.02645e-06 -5.7593e-05)
(0.00250915 1.01292e-05 -4.20989e-05)
(0.00227993 9.53786e-06 -9.45141e-05)
(0.00232098 1.03639e-05 -9.62951e-05)
(0.00239412 1.15274e-05 -9.76417e-05)
(0.00239463 1.09839e-05 -9.2016e-05)
(0.00241977 1.09809e-05 -8.624e-05)
(0.00243203 1.09178e-05 -7.83064e-05)
(0.00245146 1.1455e-05 -6.8656e-05)
(0.00244546 1.14924e-05 -5.57206e-05)
(0.00244145 1.23561e-05 -4.13844e-05)
(0.00246444 -4.16806e-06 -4.82848e-05)
(0.00246348 -1.89605e-06 -3.32949e-05)
(0.00237086 9.97104e-07 -9.63048e-05)
(0.00240651 1.53866e-06 -9.80127e-05)
(0.00246636 2.37888e-06 -9.866e-05)
(0.00247687 2.44014e-06 -9.31798e-05)
(0.00250125 2.51172e-06 -8.6368e-05)
(0.00249136 2.2161e-06 -7.58477e-05)
(0.00251439 2.64516e-06 -6.50017e-05)
(0.00247065 3.33008e-06 -4.95848e-05)
(0.00246226 4.81259e-06 -3.43643e-05)
(0.00233876 8.15546e-06 -9.36344e-05)
(0.00238799 9.22928e-06 -9.62985e-05)
(0.00246359 1.06641e-05 -9.8155e-05)
(0.00247517 1.02009e-05 -9.31945e-05)
(0.0024938 1.00088e-05 -8.61945e-05)
(0.00247419 9.2492e-06 -7.57217e-05)
(0.0025071 1.01758e-05 -6.58601e-05)
(0.00247248 9.77571e-06 -5.13054e-05)
(0.00248216 1.0805e-05 -3.68247e-05)
(0.00229707 1.08474e-05 -9.06156e-05)
(0.00233912 1.19067e-05 -9.26658e-05)
(0.00239773 1.28733e-05 -9.32805e-05)
(0.00240892 1.24118e-05 -8.88486e-05)
(0.00241084 1.18172e-05 -8.1472e-05)
(0.00242431 1.1933e-05 -7.34484e-05)
(0.00245574 1.30556e-05 -6.4217e-05)
(0.00242338 1.23329e-05 -5.07132e-05)
(0.00243387 1.31183e-05 -3.7429e-05)
(0.00237175 1.44066e-06 -8.62703e-05)
(0.00242516 2.15949e-06 -8.85706e-05)
(0.00247944 2.93975e-06 -8.89394e-05)
(0.00246499 2.39198e-06 -8.26452e-05)
(0.00248364 2.28625e-06 -7.588e-05)
(0.00245517 1.9755e-06 -6.50032e-05)
(0.00246872 2.45924e-06 -5.39984e-05)
(0.00242532 3.22319e-06 -4.05691e-05)
(0.00234302 9.03257e-06 -8.43603e-05)
(0.00239274 1.01841e-05 -8.67093e-05)
(0.00246124 1.14119e-05 -8.78178e-05)
(0.00244693 1.00376e-05 -8.20799e-05)
(0.00247623 9.99497e-06 -7.61756e-05)
(0.00244815 9.2245e-06 -6.59678e-05)
(0.00246795 1.00852e-05 -5.58333e-05)
(0.002289 1.15208e-05 -8.14921e-05)
(0.00233149 1.25835e-05 -8.33756e-05)
(0.0023956 1.36751e-05 -8.43816e-05)
(0.00239599 1.27365e-05 -7.98344e-05)
(0.00241998 1.25466e-05 -7.40668e-05)
(0.00240163 1.20164e-05 -6.47345e-05)
)
;

boundaryField
{
    inlet
    {
        type            zeroGradient;
    }
    outlet
    {
        type            zeroGradient;
    }
    wall
    {
        type            zeroGradient;
    }
    procBoundary2to0
    {
        type            processor;
        value           nonuniform List<vector> 
44
(
(0.00241057 -1.56837e-05 -9.54104e-05)
(0.00246245 -1.48927e-05 -8.97209e-05)
(0.00246219 -1.31422e-05 -7.99205e-05)
(0.00247996 -1.10625e-05 -6.90612e-05)
(0.00247533 -7.37256e-06 -5.46834e-05)
(0.00250479 -2.68066e-06 -4.0306e-05)
(0.00231194 -8.88842e-06 -0.000100346)
(0.0023371 -8.60139e-06 -0.000101012)
(0.00237781 -7.99352e-06 -9.97773e-05)
(0.00237781 -7.99352e-06 -9.97773e-05)
(0.00247064 -7.57294e-06 -9.84945e-05)
(0.00253825 -6.85779e-06 -9.43482e-05)
(0.00251401 -1.47762e-05 -8.13973e-05)
(0.0025483 -1.35115e-05 -7.09648e-05)
(0.00249958 -9.50769e-06 -5.4258e-05)
(0.0025056 -5.41078e-06 -3.86317e-05)
(0.00236857 -9.09907e-06 -0.000103121)
(0.00239833 -8.8683e-06 -0.000104216)
(0.00245631 -8.37633e-06 -0.000104715)
(0.00247064 -7.57294e-06 -9.84945e-05)
(0.00253825 -6.85779e-06 -9.43482e-05)
(0.00253825 -6.85779e-06 -9.43482e-05)
(0.00250555 -6.89796e-06 -7.58006e-05)
(0.0025179 -6.14703e-06 -6.38571e-05)
(0.00246067 -1.10494e-05 -4.77344e-05)
(0.00245853 -7.92775e-06 -3.31062e-05)
(0.00238215 -9.0669e-06 -9.76068e-05)
(0.00242159 -8.98016e-06 -9.97993e-05)
(0.00248406 -8.56451e-06 -0.000100349)
(0.00248926 -7.89952e-06 -9.4011e-05)
(0.00252382 -7.42665e-06 -8.7267e-05)
(0.00250555 -6.89796e-06 -7.58006e-05)
(0.0025179 -6.14703e-06 -6.38571e-05)
(0.0025179 -6.14703e-06 -6.38571e-05)
(0.00241711 -4.79623e-06 -3.95708e-05)
(0.00240408 -2.85841e-06 -2.63463e-05)
(0.00236598 -9.40276e-06 -8.59082e-05)
(0.00241538 -9.37961e-06 -8.80434e-05)
(0.002484 -9.20473e-06 -8.86606e-05)
(0.00248119 -8.52896e-06 -8.29077e-05)
(0.00248221 -8.12074e-06 -7.4737e-05)
(0.00247375 -7.47444e-06 -6.47344e-05)
(0.00247777 -6.72827e-06 -5.30552e-05)
(0.00241711 -4.79623e-06 -3.95708e-05)
)
;
    }
    procBoundary2to3
    {
        type            processor;
        value           nonuniform List<vector> 
12
(
(0.00250702 4.03797e-06 -2.50662e-05)
(0.0025056 7.01972e-06 -2.57857e-05)
(0.0024939 1.12563e-05 -2.7441e-05)
(0.00242258 1.32547e-05 -2.74827e-05)
(0.00250326 2.63335e-06 -2.30973e-05)
(0.00250935 7.06746e-06 -2.44976e-05)
(0.0025332 1.21498e-05 -2.73135e-05)
(0.00246072 1.43871e-05 -2.78408e-05)
(0.0024549 7.41834e-07 -1.85692e-05)
(0.00246124 6.69032e-06 -2.00733e-05)
(0.00246248 1.20245e-05 -2.26201e-05)
(0.00242948 1.45487e-05 -2.4413e-05)
)
;
    }
    procBoundary2to6
    {
        type            processor;
        value           nonuniform List<vector> 
32
(
(0.00243273 4.61165e-06 -2.72047e-05)
(0.00242535 9.57489e-06 -4.28237e-05)
(0.00244042 1.04443e-05 -3.00741e-05)
(0.00240548 1.23983e-05 -5.46264e-05)
(0.00238729 1.21842e-05 -4.3202e-05)
(0.00239285 1.27948e-05 -3.1425e-05)
(0.0023885 1.97686e-06 -7.38029e-05)
(0.00241641 2.04609e-06 -7.42361e-05)
(0.00244068 2.26093e-06 -7.28981e-05)
(0.00243965 1.6932e-06 -6.84447e-05)
(0.00246531 1.56597e-06 -6.27297e-05)
(0.00242348 1.32349e-06 -5.28861e-05)
(0.00243782 1.72513e-06 -4.29413e-05)
(0.00243273 4.61165e-06 -2.72047e-05)
(0.00242535 9.57489e-06 -4.28237e-05)
(0.00239035 2.37506e-06 -3.17448e-05)
(0.00235218 1.02831e-05 -7.24954e-05)
(0.00239048 1.09501e-05 -7.34154e-05)
(0.00242871 1.13257e-05 -7.27116e-05)
(0.00243296 1.00947e-05 -6.88209e-05)
(0.00245184 9.69234e-06 -6.32379e-05)
(0.00242538 8.98142e-06 -5.44687e-05)
(0.00242535 9.57489e-06 -4.28237e-05)
(0.00240548 1.23983e-05 -5.46264e-05)
(0.00243532 9.48061e-06 -4.46911e-05)
(0.00229516 1.24946e-05 -7.07829e-05)
(0.00232927 1.33154e-05 -7.17186e-05)
(0.00235785 1.32203e-05 -7.07843e-05)
(0.002369 1.24049e-05 -6.74719e-05)
(0.00240512 1.23545e-05 -6.2592e-05)
(0.00240548 1.23983e-05 -5.46264e-05)
(0.00239487 1.20853e-05 -5.48959e-05)
)
;
    }
}


// ************************************************************************* //
