/*--------------------------------*- C++ -*----------------------------------*\
| =========                 |                                                 |
| \\      /  F ield         | OpenFOAM: The Open Source CFD Toolbox           |
|  \\    /   O peration     | Version:  4.x                                   |
|   \\  /    A nd           | Web:      www.OpenFOAM.org                      |
|    \\/     M anipulation  |                                                 |
\*---------------------------------------------------------------------------*/
FoamFile
{
    version     2.0;
    format      ascii;
    class       volVectorField;
    location    "17";
    object      Us;
}
// * * * * * * * * * * * * * * * * * * * * * * * * * * * * * * * * * * * * * //

dimensions      [0 1 -1 0 0 0 0];

internalField   nonuniform List<vector> 
114
(
(1.34829e-07 -8.90219e-08 -1.48738e-07)
(1.10005e-08 -1.1179e-07 -2.1214e-07)
(-2.45671e-07 -1.71918e-07 -1.43931e-07)
(-3.9588e-07 -1.27359e-07 -1.89675e-07)
(-5.42487e-07 -6.93625e-08 -2.07093e-07)
(-6.95295e-07 3.7108e-08 -2.14299e-07)
(8.15871e-07 -3.17617e-07 -6.89489e-08)
(1.63483e-07 -5.30097e-08 -6.2447e-08)
(1.69093e-07 -5.21625e-08 -1.24373e-07)
(1.19762e-07 -6.63463e-08 -1.38653e-07)
(3.98786e-09 -9.77156e-08 -1.57111e-07)
(-2.45601e-07 -1.02929e-07 -1.05191e-07)
(-4.83592e-07 -7.77968e-08 -1.26216e-07)
(-6.19167e-07 -9.70568e-08 -1.85943e-07)
(-6.60789e-07 3.55341e-08 -1.90229e-07)
(1.05393e-07 -4.06589e-08 -4.953e-08)
(1.53482e-07 -1.9351e-08 -6.84258e-08)
(1.41341e-07 -1.09258e-08 -1.15506e-07)
(6.38646e-08 3.48922e-08 -1.41557e-07)
(-3.3148e-08 1.69682e-08 -1.41169e-07)
(-2.31112e-07 -1.06884e-08 -6.07562e-08)
(-4.37824e-07 -7.03268e-08 -1.07594e-07)
(-5.63523e-07 3.20277e-08 -1.38834e-07)
(-5.70286e-07 5.71295e-08 -1.81108e-07)
(1.7427e-07 -1.02388e-08 -7.54369e-09)
(1.18081e-07 -3.66727e-10 -3.64879e-08)
(1.12863e-07 -7.70958e-09 -8.26007e-08)
(1.17073e-07 -2.42285e-09 -5.79687e-08)
(3.31386e-08 7.31804e-08 -6.10059e-08)
(-9.37475e-08 2.579e-08 -2.6239e-08)
(-2.45711e-07 -3.00398e-08 -1.07619e-07)
(-3.48675e-07 1.23241e-07 -8.06654e-08)
(-3.68873e-07 8.86011e-08 -1.0536e-07)
(-2.0693e-07 -1.50587e-07 -1.43564e-07)
(-3.57028e-07 -1.38549e-07 -1.93623e-07)
(-5.4069e-07 -6.44285e-08 -1.7779e-07)
(-6.28348e-07 8.23375e-09 -1.88958e-07)
(8.19473e-08 -3.63587e-08 -2.66494e-08)
(1.60577e-07 -5.69591e-08 -6.87716e-08)
(1.65793e-07 -5.44341e-08 -1.19954e-07)
(1.05028e-07 -4.50919e-08 -1.35708e-07)
(4.20515e-08 -6.33808e-08 -1.36139e-07)
(-2.35511e-07 -1.22805e-07 -7.84888e-08)
(-4.14051e-07 -1.06456e-07 -1.26039e-07)
(-5.36686e-07 -7.14503e-08 -1.71742e-07)
(-6.37121e-07 -9.76733e-10 -1.73077e-07)
(1.25712e-07 -3.12171e-08 -4.16786e-08)
(1.41808e-07 -3.83487e-08 -6.42275e-08)
(1.41875e-07 -2.56844e-08 -1.04586e-07)
(9.80465e-08 -1.97886e-08 -1.23897e-07)
(-1.67693e-09 6.95956e-09 -8.63998e-08)
(-1.67846e-07 -2.31399e-08 -6.48721e-08)
(-3.43753e-07 -3.12062e-08 -8.98497e-08)
(-4.53223e-07 -2.05266e-08 -1.29568e-07)
(-5.40095e-07 2.77336e-09 -1.50099e-07)
(8.86e-08 -1.50099e-08 -2.25128e-08)
(1.13748e-07 -1.32825e-08 -5.67673e-08)
(1.01049e-07 -6.93701e-09 -7.9125e-08)
(6.11916e-08 5.73858e-09 -5.93408e-08)
(1.47876e-08 2.03255e-08 -2.36942e-08)
(-5.96632e-08 1.18935e-08 -3.64348e-08)
(-1.72644e-07 5.18912e-09 -9.06976e-08)
(-2.56932e-07 1.66364e-08 -7.12548e-08)
(-2.15479e-07 2.37488e-09 -6.56986e-08)
(-4.88035e-07 -8.72388e-08 -1.40698e-07)
(-5.89201e-07 -1.67952e-08 -1.59738e-07)
(9.10588e-08 -1.40216e-08 -2.68897e-08)
(1.52186e-07 -5.12914e-08 -6.00892e-08)
(1.70708e-07 -5.50176e-08 -1.04127e-07)
(8.29373e-08 -3.89659e-08 -1.33826e-07)
(-2.70007e-10 -6.89709e-08 -1.34681e-07)
(-1.88445e-07 -9.60739e-08 -9.9382e-08)
(-2.82036e-07 -7.93652e-08 -1.30006e-07)
(-4.43898e-07 -7.69517e-08 -1.40856e-07)
(-5.54585e-07 -3.07308e-08 -1.39771e-07)
(8.83873e-08 -2.49889e-08 -2.49302e-08)
(1.54727e-07 -4.25743e-08 -5.50467e-08)
(1.39806e-07 -3.26025e-08 -1.01208e-07)
(9.22065e-08 -2.67301e-08 -1.07425e-07)
(-5.00679e-09 -1.52356e-08 -7.57477e-08)
(-1.40513e-07 -4.6172e-08 -6.72478e-08)
(-2.49813e-07 -1.96189e-08 -9.47878e-08)
(-3.89302e-07 -5.63968e-08 -1.05147e-07)
(-4.82207e-07 -3.97955e-08 -1.11613e-07)
(8.01456e-08 -2.54014e-08 -2.44318e-08)
(1.17801e-07 -2.51376e-08 -4.86687e-08)
(1.09231e-07 -9.97629e-10 -5.0341e-08)
(7.47003e-08 2.42307e-09 -5.61617e-08)
(1.08827e-08 1.14204e-08 -4.29182e-08)
(-5.5331e-08 1.672e-09 -5.18354e-08)
(-1.37495e-07 7.91271e-09 -5.44445e-08)
(-2.10568e-07 1.57606e-08 -8.04994e-08)
(-2.85073e-07 -4.6692e-08 -8.65086e-08)
(8.2431e-08 -9.37802e-09 -2.3986e-08)
(1.5606e-07 -4.29591e-08 -5.44724e-08)
(1.77392e-07 -5.82342e-08 -8.09731e-08)
(9.95132e-08 -5.1905e-08 -8.88614e-08)
(-5.33678e-09 -7.98126e-08 -8.85396e-08)
(-1.6645e-07 -7.09367e-08 -7.29285e-08)
(-2.8414e-07 -6.42443e-08 -1.00412e-07)
(-4.31049e-07 -7.32141e-08 -1.00664e-07)
(7.11731e-08 -1.2224e-08 -1.02915e-08)
(1.68562e-07 -3.6428e-08 -5.33903e-08)
(1.48383e-07 -2.18141e-08 -6.76912e-08)
(9.58193e-08 -2.00448e-08 -7.46607e-08)
(-1.17269e-08 -3.62946e-08 -6.65471e-08)
(-1.22222e-07 -5.22231e-08 -7.10225e-08)
(-2.1465e-07 -1.86062e-08 -8.75078e-08)
(5.96787e-08 -1.071e-08 -1.16496e-08)
(9.62765e-08 -3.33158e-08 -4.26655e-08)
(1.32804e-07 -1.97112e-08 -5.08286e-08)
(8.0485e-08 -9.46841e-11 -3.4569e-08)
(1.48973e-08 -2.68616e-10 -4.45491e-08)
(-5.81838e-08 -9.55596e-09 -3.68817e-08)
)
;

boundaryField
{
    inlet
    {
        type            zeroGradient;
    }
    outlet
    {
        type            zeroGradient;
    }
    wall
    {
        type            zeroGradient;
    }
    procBoundary2to0
    {
        type            processor;
        value           nonuniform List<vector> 
44
(
(1.1572e-07 -1.25587e-07 -1.86996e-07)
(2.51583e-08 -1.72214e-07 -2.32723e-07)
(-1.73431e-07 -1.843e-07 -1.93025e-07)
(-3.18168e-07 -1.5219e-07 -1.80112e-07)
(-4.99665e-07 -1.26278e-07 -1.72015e-07)
(-6.74969e-07 -4.19754e-08 -1.91615e-07)
(6.48245e-08 -2.05985e-08 -4.04226e-08)
(1.78986e-07 -4.06958e-08 -7.5464e-08)
(1.86961e-07 -7.07905e-08 -1.13315e-07)
(1.86961e-07 -7.07905e-08 -1.13315e-07)
(9.61954e-08 -1.00066e-07 -1.56417e-07)
(1.71932e-08 -1.35876e-07 -1.31063e-07)
(-1.87388e-07 -1.48246e-07 -1.86783e-07)
(-3.48229e-07 -1.43448e-07 -1.92546e-07)
(-4.68527e-07 -7.2601e-08 -1.57769e-07)
(-5.9863e-07 -9.62472e-09 -1.68028e-07)
(9.861e-08 -3.20251e-08 -4.07725e-08)
(1.67366e-07 -6.06717e-08 -7.10211e-08)
(1.8678e-07 -9.44069e-08 -1.28465e-07)
(9.61954e-08 -1.00066e-07 -1.56417e-07)
(1.71932e-08 -1.35876e-07 -1.31063e-07)
(1.71932e-08 -1.35876e-07 -1.31063e-07)
(-1.61346e-07 -1.17454e-07 -1.15455e-07)
(-3.34549e-07 -8.85082e-08 -1.67583e-07)
(-4.61681e-07 -7.34858e-08 -1.39303e-07)
(-5.59554e-07 -4.53044e-08 -1.16073e-07)
(8.69515e-08 -2.38449e-08 -3.65831e-08)
(1.6813e-07 -6.18268e-08 -7.29895e-08)
(2.0049e-07 -9.55045e-08 -1.14892e-07)
(1.2209e-07 -8.56371e-08 -1.39687e-07)
(-4.29395e-08 -1.08466e-07 -1.18036e-07)
(-1.61346e-07 -1.17454e-07 -1.15455e-07)
(-3.34549e-07 -8.85082e-08 -1.67583e-07)
(-3.34549e-07 -8.85082e-08 -1.67583e-07)
(-4.09838e-07 -8.14611e-08 -1.25378e-07)
(-5.35903e-07 -3.23719e-08 -1.32044e-07)
(1.05597e-07 -2.22959e-08 -4.03357e-08)
(1.71095e-07 -4.65038e-08 -6.59191e-08)
(2.1963e-07 -5.90597e-08 -8.68057e-08)
(1.10014e-07 -8.81173e-08 -1.03666e-07)
(-3.30042e-09 -1.16283e-07 -1.19229e-07)
(-1.94242e-07 -9.94504e-08 -1.19752e-07)
(-3.45359e-07 -8.72823e-08 -1.43493e-07)
(-4.09838e-07 -8.14611e-08 -1.25378e-07)
)
;
    }
    procBoundary2to3
    {
        type            processor;
        value           nonuniform List<vector> 
12
(
(-7.35191e-07 7.99139e-08 -2.20936e-07)
(-7.23845e-07 6.55713e-08 -1.92631e-07)
(-5.98589e-07 7.61898e-08 -1.4478e-07)
(-2.99439e-07 1.21852e-08 -4.59647e-08)
(-7.52088e-07 6.56557e-08 -1.85615e-07)
(-6.79715e-07 2.83748e-08 -1.65172e-07)
(-5.90966e-07 -1.02645e-08 -1.50978e-07)
(-3.65985e-07 -1.38711e-08 -8.9652e-08)
(-6.81031e-07 3.7511e-08 -1.40978e-07)
(-6.35937e-07 3.55348e-08 -1.36448e-07)
(-5.75555e-07 4.26498e-08 -9.90487e-08)
(-3.6462e-07 4.66245e-08 -9.22639e-08)
)
;
    }
    procBoundary2to6
    {
        type            processor;
        value           nonuniform List<vector> 
32
(
(-4.84398e-07 -3.94151e-08 -9.75614e-08)
(-3.40572e-07 -6.5047e-08 -7.56118e-08)
(-4.45164e-07 -2.10308e-08 -9.52229e-08)
(-8.45179e-08 -1.00533e-08 -4.04133e-08)
(-1.86552e-07 -3.48126e-08 -7.53963e-08)
(-1.5885e-07 -9.71007e-09 -7.00031e-08)
(1.01237e-07 -1.44045e-08 -1.80095e-08)
(1.50757e-07 -4.63535e-08 -3.82842e-08)
(1.75315e-07 -5.66571e-08 -5.49598e-08)
(1.25643e-07 -6.95948e-08 -5.60013e-08)
(-3.31634e-09 -6.25231e-08 -6.72394e-08)
(-1.89921e-07 -9.14961e-08 -4.52356e-08)
(-2.66311e-07 -9.71076e-08 -5.90429e-08)
(-4.84398e-07 -3.94151e-08 -9.75614e-08)
(-3.40572e-07 -6.5047e-08 -7.56118e-08)
(-3.63944e-07 -8.33336e-08 -6.31266e-08)
(1.36415e-07 -1.30774e-09 -1.00232e-08)
(1.64086e-07 -3.66538e-08 -3.18523e-08)
(1.82379e-07 -3.30555e-08 -4.25178e-08)
(8.76429e-08 -3.20803e-08 -3.35014e-08)
(1.42329e-08 -1.67545e-08 -5.95857e-08)
(-1.17282e-07 -4.16437e-08 -4.99857e-08)
(-3.40572e-07 -6.5047e-08 -7.56118e-08)
(-8.45179e-08 -1.00533e-08 -4.04133e-08)
(-2.42817e-07 -4.77414e-08 -7.18272e-08)
(4.32671e-08 2.49607e-09 -1.47906e-08)
(1.53668e-07 -2.55571e-08 -3.5166e-08)
(8.53374e-08 1.0187e-08 -2.20407e-08)
(5.60436e-08 -3.42329e-09 -2.12973e-08)
(1.903e-08 1.52198e-10 -2.19401e-08)
(-8.45179e-08 -1.00533e-08 -4.04133e-08)
(-5.74089e-08 -7.242e-09 -2.58844e-08)
)
;
    }
}


// ************************************************************************* //
