/*--------------------------------*- C++ -*----------------------------------*\
| =========                 |                                                 |
| \\      /  F ield         | OpenFOAM: The Open Source CFD Toolbox           |
|  \\    /   O peration     | Version:  4.x                                   |
|   \\  /    A nd           | Web:      www.OpenFOAM.org                      |
|    \\/     M anipulation  |                                                 |
\*---------------------------------------------------------------------------*/
FoamFile
{
    version     2.0;
    format      ascii;
    class       volScalarField;
    location    "54.5";
    object      Deff;
}
// * * * * * * * * * * * * * * * * * * * * * * * * * * * * * * * * * * * * * //

dimensions      [0 2 -1 0 0 0 0];

internalField   nonuniform List<scalar> 
87
(
9.9496e-08
9.92136e-08
9.91798e-08
9.90331e-08
9.90276e-08
9.891e-08
9.87916e-08
9.87937e-08
9.88818e-08
9.92855e-08
9.92134e-08
9.90593e-08
9.89855e-08
9.89768e-08
9.88265e-08
9.86665e-08
9.87794e-08
9.89183e-08
9.90614e-08
9.89462e-08
9.88293e-08
9.87542e-08
9.88104e-08
9.88138e-08
9.87074e-08
9.87357e-08
9.88431e-08
9.88763e-08
9.8851e-08
9.87694e-08
9.863e-08
9.85802e-08
9.84348e-08
9.82865e-08
9.83778e-08
9.85414e-08
9.87356e-08
9.87727e-08
9.86589e-08
9.85453e-08
9.84764e-08
9.84277e-08
9.82771e-08
9.83187e-08
9.85542e-08
9.85723e-08
9.85569e-08
9.85044e-08
9.84705e-08
9.84463e-08
9.8322e-08
9.8213e-08
9.81608e-08
9.84755e-08
9.8485e-08
9.84587e-08
9.82788e-08
9.818e-08
9.81918e-08
9.80203e-08
9.80405e-08
9.81696e-08
9.83547e-08
9.83994e-08
9.83158e-08
9.83083e-08
9.82057e-08
9.81157e-08
9.80383e-08
9.80142e-08
9.80543e-08
9.83016e-08
9.81738e-08
9.81939e-08
9.82065e-08
9.80004e-08
9.79793e-08
9.79184e-08
9.79371e-08
9.79599e-08
9.82334e-08
9.82373e-08
9.81977e-08
9.79934e-08
9.81004e-08
9.79196e-08
9.80271e-08
)
;

boundaryField
{
    inlet
    {
        type            calculated;
        value           nonuniform 0();
    }
    outlet
    {
        type            calculated;
        value           uniform 0;
    }
    wall
    {
        type            calculated;
        value           uniform 0;
    }
    procBoundary1to0
    {
        type            processor;
        value           uniform 0;
    }
    procBoundary1to3
    {
        type            processor;
        value           uniform 0;
    }
    procBoundary1to5
    {
        type            processor;
        value           uniform 0;
    }
    procBoundary1to7
    {
        type            processor;
        value           uniform 0;
    }
}


// ************************************************************************* //
