/*--------------------------------*- C++ -*----------------------------------*\
| =========                 |                                                 |
| \\      /  F ield         | OpenFOAM: The Open Source CFD Toolbox           |
|  \\    /   O peration     | Version:  4.x                                   |
|   \\  /    A nd           | Web:      www.OpenFOAM.org                      |
|    \\/     M anipulation  |                                                 |
\*---------------------------------------------------------------------------*/
FoamFile
{
    version     2.0;
    format      ascii;
    class       volScalarField;
    location    "54.5";
    object      magGField;
}
// * * * * * * * * * * * * * * * * * * * * * * * * * * * * * * * * * * * * * //

dimensions      [1 -2 -1 0 0 0 0];

internalField   nonuniform List<scalar> 
87
(
95.1706
138.073
97.5429
147.012
95.8494
164.491
85.0106
204.777
54.7736
81.0582
133.394
84.4727
140.569
81.3454
154.346
69.8743
181.683
56.977
67.7963
120.4
67.8038
123.566
63.2508
133.389
57.074
157.555
52.5023
58.6632
114.548
60.0637
116.798
55.296
120.854
43.5553
124.69
26.3435
31.6026
104.351
29.7059
107.352
24.2001
114.272
21.2102
122.801
32.4548
9.27157
94.3064
2.06581
93.1303
1.02087
89.7514
7.38058
82.7372
46.5438
54.9002
112.503
53.5765
114.854
46.9846
119.294
37.5986
126.995
33.8059
29.741
103.075
30.8362
107.107
29.5129
112.648
29.9437
121.74
40.7068
8.18745
91.0443
6.90262
90.725
7.261
90.1084
15.201
88.4479
39.0627
38.067
98.233
27.2144
5.94966
89.939
3.84327
)
;

boundaryField
{
    inlet
    {
        type            calculated;
        value           nonuniform 0();
    }
    outlet
    {
        type            calculated;
        value           nonuniform List<scalar> 9(114.102 117.872 109.007 55.5675 68.4068 98.5153 72.0265 86.9803 83.7798);
    }
    wall
    {
        type            calculated;
        value           uniform 0;
    }
    procBoundary1to0
    {
        type            processor;
        value           nonuniform List<scalar> 
12
(
135.544
128.459
118.596
113.795
102.95
95.8842
110.894
99.8088
92.3548
101.98
91.6546
81.9163
)
;
    }
    procBoundary1to3
    {
        type            processor;
        value           nonuniform List<scalar> 
27
(
73.5116
129.02
76.7921
137.035
74.1027
147.285
61.8276
161.528
51.4024
22.6539
101.82
20.317
106.147
17.58
112.633
17.0803
120.952
38.2399
13.7898
94.0033
12.6758
94.8933
13.1434
93.9288
16.15
87.1185
39.4524
)
;
    }
    procBoundary1to5
    {
        type            processor;
        value           nonuniform List<scalar> 
32
(
90.1441
9.8597
77.3875
3.60004
55.3662
5.43944
0.667795
89.1593
1.81499
85.7824
4.83624
75.9292
24.5358
79.0412
0.320223
77.6479
1.41229
75.3409
3.27811
65.2281
20.1009
47.1855
106.626
90.1441
0.667795
45.9792
12.1558
0.667795
79.0412
92.9036
79.0412
6.35391
)
;
    }
    procBoundary1to7
    {
        type            processor;
        value           uniform 6.04778;
    }
}


// ************************************************************************* //
