/*--------------------------------*- C++ -*----------------------------------*\
| =========                 |                                                 |
| \\      /  F ield         | OpenFOAM: The Open Source CFD Toolbox           |
|  \\    /   O peration     | Version:  4.x                                   |
|   \\  /    A nd           | Web:      www.OpenFOAM.org                      |
|    \\/     M anipulation  |                                                 |
\*---------------------------------------------------------------------------*/
FoamFile
{
    version     2.0;
    format      ascii;
    class       volScalarField;
    location    "54.5";
    object      Sm;
}
// * * * * * * * * * * * * * * * * * * * * * * * * * * * * * * * * * * * * * //

dimensions      [1 -3 -1 0 0 0 0];

internalField   nonuniform List<scalar> 
87
(
1.63288e-65
5.82052e-65
3.79969e-65
5.11668e-65
3.95308e-65
4.18548e-65
4.41784e-65
5.03786e-65
4.80523e-65
3.64553e-65
3.25724e-65
4.65122e-65
4.18579e-65
3.41036e-65
5.03796e-65
6.58798e-65
4.57276e-65
3.95266e-65
3.48862e-65
5.50469e-65
5.81296e-65
7.13113e-65
5.50305e-65
4.34035e-65
4.96028e-65
4.57272e-65
4.49517e-65
6.59698e-65
5.66057e-65
5.34922e-65
6.20145e-65
5.81326e-65
6.58822e-65
8.3707e-65
7.28551e-65
6.35528e-65
7.21163e-65
5.11617e-65
6.35642e-65
6.97612e-65
7.28599e-65
5.65802e-65
7.51806e-65
7.59548e-65
5.50272e-65
7.12947e-65
6.58901e-65
6.20091e-65
5.27058e-65
5.27046e-65
7.36308e-65
8.06055e-65
1.03082e-64
4.88268e-65
7.05468e-65
5.73662e-65
7.67438e-65
7.98411e-65
5.73561e-65
8.4484e-65
7.05301e-65
5.73533e-65
4.18515e-65
5.5798e-65
7.05374e-65
5.65841e-65
6.1233e-65
6.97571e-65
6.97558e-65
6.5879e-65
7.2079e-65
4.41765e-65
8.90571e-65
6.35601e-65
5.11545e-65
9.06861e-65
8.29327e-65
8.75823e-65
6.82039e-65
7.90543e-65
3.48761e-65
6.58802e-65
5.27065e-65
8.06104e-65
7.05277e-65
9.99858e-65
5.73476e-65
)
;

boundaryField
{
    inlet
    {
        type            calculated;
        value           nonuniform 0();
    }
    outlet
    {
        type            calculated;
        value           uniform 0;
    }
    wall
    {
        type            calculated;
        value           uniform 0;
    }
    procBoundary1to0
    {
        type            processor;
        value           nonuniform List<scalar> 
12
(
3.85971e-65
3.95047e-65
6.89636e-65
6.27151e-65
6.97318e-65
4.95962e-65
4.72602e-65
8.29112e-65
4.57228e-65
4.9597e-65
5.50219e-65
8.05965e-65
)
;
    }
    procBoundary1to3
    {
        type            processor;
        value           nonuniform List<scalar> 
27
(
6.97608e-65
3.25538e-65
5.73562e-65
2.55767e-65
4.10775e-65
3.02264e-65
4.72771e-65
4.57269e-65
3.87512e-65
7.51827e-65
6.27819e-65
9.06862e-65
8.52589e-65
7.59562e-65
6.27787e-65
6.0453e-65
6.5878e-65
8.91289e-65
7.67254e-65
9.06823e-65
8.75826e-65
8.52572e-65
6.12286e-65
6.27785e-65
8.52548e-65
7.13032e-65
7.4403e-65
)
;
    }
    procBoundary1to5
    {
        type            processor;
        value           nonuniform List<scalar> 
32
(
6.82079e-65
8.06072e-65
6.35544e-65
6.74284e-65
7.59539e-65
8.44786e-65
6.82065e-65
5.65797e-65
5.8129e-65
6.66541e-65
8.21547e-65
8.52545e-65
7.90534e-65
8.44812e-65
6.0454e-65
7.51808e-65
5.73533e-65
4.57271e-65
7.28536e-65
5.42522e-65
8.68036e-65
6.35522e-65
4.80528e-65
6.82079e-65
6.82065e-65
6.9755e-65
7.05271e-65
6.82065e-65
8.44812e-65
6.82038e-65
8.44812e-65
8.21512e-65
)
;
    }
    procBoundary1to7
    {
        type            processor;
        value           uniform 9.92005e-65;
    }
}


// ************************************************************************* //
