/*--------------------------------*- C++ -*----------------------------------*\
| =========                 |                                                 |
| \\      /  F ield         | OpenFOAM: The Open Source CFD Toolbox           |
|  \\    /   O peration     | Version:  4.x                                   |
|   \\  /    A nd           | Web:      www.OpenFOAM.org                      |
|    \\/     M anipulation  |                                                 |
\*---------------------------------------------------------------------------*/
FoamFile
{
    version     2.0;
    format      ascii;
    class       volVectorField;
    location    "52.5";
    object      impParticleForces;
}
// * * * * * * * * * * * * * * * * * * * * * * * * * * * * * * * * * * * * * //

dimensions      [1 1 -2 0 0 0 0];

internalField   nonuniform List<vector> 
87
(
(0.00243219 1.28165e-05 -3.54055e-05)
(0.00242768 1.44391e-05 -4.24947e-05)
(0.00245023 1.37574e-05 -3.7425e-05)
(0.00240865 1.64375e-05 -4.79115e-05)
(0.00239465 1.44665e-05 -4.26221e-05)
(0.00240546 1.26718e-05 -3.79265e-05)
(0.00238884 8.32713e-06 -5.57063e-05)
(0.00241366 8.66042e-06 -5.51683e-05)
(0.00243745 9.3092e-06 -5.3363e-05)
(0.00243348 9.14928e-06 -5.00424e-05)
(0.00246093 9.41112e-06 -4.64402e-05)
(0.00242104 9.03543e-06 -4.14446e-05)
(0.00244074 9.15615e-06 -3.70113e-05)
(0.00239776 9.27695e-06 -3.24598e-05)
(0.00241947 9.35648e-06 -2.84295e-05)
(0.00235383 1.76251e-05 -5.49349e-05)
(0.0023895 1.87444e-05 -5.48994e-05)
(0.00242924 1.97673e-05 -5.36294e-05)
(0.00243179 1.83918e-05 -5.0705e-05)
(0.00245474 1.76667e-05 -4.73388e-05)
(0.00242913 1.55587e-05 -4.27815e-05)
(0.00244597 1.41015e-05 -3.84503e-05)
(0.00241046 1.23596e-05 -3.40281e-05)
(0.00243259 1.06756e-05 -3.03346e-05)
(0.00229797 1.96415e-05 -5.39919e-05)
(0.00233077 2.08968e-05 -5.42578e-05)
(0.00236135 2.11608e-05 -5.31301e-05)
(0.00237359 2.01561e-05 -5.07032e-05)
(0.00241398 1.95455e-05 -4.74903e-05)
(0.00240638 1.75516e-05 -4.35416e-05)
(0.00240623 1.5477e-05 -3.89553e-05)
(0.00237383 1.28936e-05 -3.47628e-05)
(0.00240099 1.07119e-05 -3.13084e-05)
(0.00236468 7.85719e-06 -4.16167e-05)
(0.00239346 8.50879e-06 -4.07431e-05)
(0.0024334 9.11063e-06 -3.85151e-05)
(0.00241962 8.57716e-06 -3.66867e-05)
(0.00243353 8.47777e-06 -3.37532e-05)
(0.0024162 7.93951e-06 -3.09207e-05)
(0.00243711 7.9062e-06 -2.76294e-05)
(0.00238759 7.35869e-06 -2.49473e-05)
(0.00241216 7.12481e-06 -2.2071e-05)
(0.00232746 1.64399e-05 -4.21234e-05)
(0.00237011 1.78093e-05 -4.11934e-05)
(0.0024121 1.88774e-05 -3.91697e-05)
(0.0024039 1.70699e-05 -3.77108e-05)
(0.00243247 1.66086e-05 -3.45244e-05)
(0.00240842 1.42954e-05 -3.21785e-05)
(0.00244118 1.35217e-05 -2.85759e-05)
(0.00239749 1.10568e-05 -2.62952e-05)
(0.00242782 9.75075e-06 -2.343e-05)
(0.00228493 1.89681e-05 -4.24782e-05)
(0.00230471 1.96211e-05 -4.20558e-05)
(0.00234057 2.00048e-05 -4.04999e-05)
(0.00235475 1.90837e-05 -3.8736e-05)
(0.00238396 1.81645e-05 -3.60528e-05)
(0.00237304 1.60534e-05 -3.33325e-05)
(0.00239292 1.43423e-05 -2.99553e-05)
(0.00236953 1.18425e-05 -2.74535e-05)
(0.00238695 9.6424e-06 -2.46669e-05)
(0.00232119 6.94221e-06 -3.53315e-05)
(0.00233293 7.21207e-06 -3.44947e-05)
(0.00238401 7.71997e-06 -3.21795e-05)
(0.00237599 7.28099e-06 -3.07587e-05)
(0.00239338 7.09935e-06 -2.82115e-05)
(0.00238396 6.70106e-06 -2.59564e-05)
(0.00241332 6.34753e-06 -2.28563e-05)
(0.0023697 5.85665e-06 -2.10917e-05)
(0.00237066 5.47537e-06 -1.89183e-05)
(0.00228809 1.48089e-05 -3.61852e-05)
(0.00231036 1.54537e-05 -3.52749e-05)
(0.00235361 1.61455e-05 -3.34997e-05)
(0.00235792 1.51385e-05 -3.19993e-05)
(0.00238784 1.45847e-05 -2.94662e-05)
(0.00237481 1.27984e-05 -2.73715e-05)
(0.00239549 1.15856e-05 -2.47211e-05)
(0.00236764 9.54885e-06 -2.28805e-05)
(0.00238188 8.09568e-06 -2.08212e-05)
(0.00225641 1.75265e-05 -3.69506e-05)
(0.00227311 1.79964e-05 -3.62656e-05)
(0.00231401 1.84094e-05 -3.47546e-05)
(0.00231799 1.7473e-05 -3.3179e-05)
(0.00233696 1.63642e-05 -3.09855e-05)
(0.00235154 1.48324e-05 -2.86055e-05)
(0.00236283 1.29131e-05 -2.62265e-05)
(0.0023474 1.05677e-05 -2.43146e-05)
(0.00236617 8.52058e-06 -2.2279e-05)
)
;

boundaryField
{
    inlet
    {
        type            zeroGradient;
    }
    outlet
    {
        type            zeroGradient;
    }
    wall
    {
        type            zeroGradient;
    }
    procBoundary6to0
    {
        type            processor;
        value           uniform (0.00240367 1.18695e-05 -3.43594e-05);
    }
    procBoundary6to2
    {
        type            processor;
        value           nonuniform List<vector> 
32
(
(0.00245314 1.51604e-05 -4.14865e-05)
(0.00245962 1.58905e-05 -4.95888e-05)
(0.00247884 1.54004e-05 -4.33666e-05)
(0.00244658 1.79196e-05 -5.61743e-05)
(0.00241726 1.58575e-05 -4.9075e-05)
(0.00243549 1.45433e-05 -4.33278e-05)
(0.00236721 7.88698e-06 -7.04221e-05)
(0.00241518 8.93896e-06 -7.15428e-05)
(0.0024664 1.03765e-05 -7.1127e-05)
(0.00244634 1.01252e-05 -6.55155e-05)
(0.00246561 1.05733e-05 -6.03185e-05)
(0.00243613 1.03594e-05 -5.32848e-05)
(0.00245557 1.10621e-05 -4.71944e-05)
(0.00241677 1.16015e-05 -4.08371e-05)
(0.00241677 1.16015e-05 -4.08371e-05)
(0.00241677 1.16015e-05 -4.08371e-05)
(0.00233961 1.66578e-05 -6.87822e-05)
(0.00238562 1.84339e-05 -7.01824e-05)
(0.00245355 2.0667e-05 -7.0478e-05)
(0.00243556 1.88677e-05 -6.54022e-05)
(0.00246674 1.89741e-05 -6.09051e-05)
(0.00243892 1.68289e-05 -5.41061e-05)
(0.00246438 1.60542e-05 -4.86261e-05)
(0.00246438 1.60542e-05 -4.86261e-05)
(0.00246438 1.60542e-05 -4.86261e-05)
(0.00228708 1.89568e-05 -6.64169e-05)
(0.00232749 2.05002e-05 -6.76442e-05)
(0.00239212 2.21286e-05 -6.80105e-05)
(0.00239097 2.09124e-05 -6.40598e-05)
(0.00241715 2.01257e-05 -5.96178e-05)
(0.00240043 1.80403e-05 -5.34909e-05)
(0.00240043 1.80403e-05 -5.34909e-05)
)
;
    }
    procBoundary6to4
    {
        type            processor;
        value           nonuniform List<vector> 
27
(
(0.00235378 -4.54459e-06 -5.51671e-05)
(0.00240482 -4.8576e-06 -5.50361e-05)
(0.00245774 -4.36826e-06 -5.35595e-05)
(0.00243786 -2.89988e-06 -4.99e-05)
(0.00246202 -1.44258e-06 -4.5784e-05)
(0.0024302 9.11215e-07 -4.10197e-05)
(0.00245531 3.27757e-06 -3.63627e-05)
(0.00239633 5.61681e-06 -3.14323e-05)
(0.00240495 7.89541e-06 -2.69883e-05)
(0.00235609 -4.70911e-06 -4.20136e-05)
(0.00239505 -4.74931e-06 -4.08774e-05)
(0.00243656 -4.27146e-06 -3.85993e-05)
(0.002436 -3.07732e-06 -3.62349e-05)
(0.00246302 -1.93808e-06 -3.27236e-05)
(0.00242802 -1.42291e-07 -3.00318e-05)
(0.00244952 1.58403e-06 -2.62187e-05)
(0.00239463 3.24979e-06 -2.36266e-05)
(0.00240115 4.64695e-06 -2.04966e-05)
(0.00233566 -4.64794e-06 -3.52532e-05)
(0.00234455 -4.36157e-06 -3.42232e-05)
(0.0023892 -4.12356e-06 -3.18937e-05)
(0.002393 -3.25279e-06 -2.99855e-05)
(0.00242297 -2.21231e-06 -2.69611e-05)
(0.00239904 -7.14601e-07 -2.4777e-05)
(0.00238629 7.8516e-07 -2.22133e-05)
(0.0023614 1.98662e-06 -1.99158e-05)
(0.00236682 2.8585e-06 -1.72696e-05)
)
;
    }
    procBoundary6to7
    {
        type            processor;
        value           nonuniform List<vector> 
12
(
(0.00241462 1.33027e-05 -3.04637e-05)
(0.00242039 1.24363e-05 -3.28123e-05)
(0.00240406 1.08993e-05 -3.4257e-05)
(0.00238314 9.52802e-06 -2.4632e-05)
(0.0023949 9.39191e-06 -2.67355e-05)
(0.00237243 8.70478e-06 -2.81159e-05)
(0.00238728 6.73176e-06 -1.96428e-05)
(0.00239371 7.65732e-06 -2.14632e-05)
(0.00236057 7.33071e-06 -2.25807e-05)
(0.00235843 4.87751e-06 -1.71579e-05)
(0.00235435 6.41182e-06 -1.93221e-05)
(0.00233394 6.3227e-06 -2.07033e-05)
)
;
    }
}


// ************************************************************************* //
