/*--------------------------------*- C++ -*----------------------------------*\
| =========                 |                                                 |
| \\      /  F ield         | OpenFOAM: The Open Source CFD Toolbox           |
|  \\    /   O peration     | Version:  4.x                                   |
|   \\  /    A nd           | Web:      www.OpenFOAM.org                      |
|    \\/     M anipulation  |                                                 |
\*---------------------------------------------------------------------------*/
FoamFile
{
    version     2.0;
    format      ascii;
    class       volScalarField;
    location    "52.5";
    object      Qsource;
}
// * * * * * * * * * * * * * * * * * * * * * * * * * * * * * * * * * * * * * //

dimensions      [1 -1 -3 0 0 0 0];

internalField   nonuniform List<scalar> 
87
(
8.11791e+09
6.832e+09
8.97656e+09
6.58083e+09
6.73114e+09
6.52382e+09
9.95374e+09
8.95435e+09
6.0829e+09
7.98283e+09
1.10746e+10
6.07323e+09
8.70748e+09
6.67344e+09
9.96874e+09
6.30352e+09
9.21427e+09
8.17612e+09
1.021e+10
8.85034e+09
8.72196e+09
8.74961e+09
9.20435e+09
9.38903e+09
5.50673e+09
7.98794e+09
6.79028e+09
6.55248e+09
9.5274e+09
9.83544e+09
8.15895e+09
6.63534e+09
9.55095e+09
7.34929e+09
9.0027e+09
9.65921e+09
8.63765e+09
6.67086e+09
7.89492e+09
7.93432e+09
6.12007e+09
9.57611e+09
5.37356e+09
8.87257e+09
8.84547e+09
8.03689e+09
7.94831e+09
6.56136e+09
1.00253e+10
6.60317e+09
9.99343e+09
5.6349e+09
7.11094e+09
7.02143e+09
8.30694e+09
9.0671e+09
6.66467e+09
8.49214e+09
6.92787e+09
7.75236e+09
5.72889e+09
5.82111e+09
8.25397e+09
7.44675e+09
7.99492e+09
6.93189e+09
1.11317e+10
9.11539e+09
5.37222e+09
6.01891e+09
6.26404e+09
8.46268e+09
6.64606e+09
1.05193e+10
7.1927e+09
8.06793e+09
6.58574e+09
9.35385e+09
5.90417e+09
7.04511e+09
8.47574e+09
7.36131e+09
7.00836e+09
9.59311e+09
7.41929e+09
6.79509e+09
9.01495e+09
)
;

boundaryField
{
    inlet
    {
        type            calculated;
        value           uniform 0;
    }
    outlet
    {
        type            calculated;
        value           nonuniform 0();
    }
    wall
    {
        type            calculated;
        value           uniform 0;
    }
    procBoundary6to0
    {
        type            processor;
        value           uniform 2.62429e+09;
    }
    procBoundary6to2
    {
        type            processor;
        value           nonuniform List<scalar> 
32
(
5.72892e+09
8.45199e+09
1.02218e+10
1.0557e+10
5.79351e+09
8.60843e+09
4.8981e+09
9.48634e+09
1.03007e+10
7.1556e+09
8.23887e+09
6.27719e+09
7.58739e+09
7.51226e+09
7.51226e+09
7.51226e+09
5.87122e+09
7.91639e+09
1.05287e+10
6.62534e+09
9.12622e+09
7.73464e+09
1.0314e+10
1.0314e+10
1.0314e+10
5.0874e+09
6.72449e+09
8.35615e+09
7.70243e+09
7.61476e+09
6.98007e+09
6.98007e+09
)
;
    }
    procBoundary6to4
    {
        type            processor;
        value           nonuniform List<scalar> 
27
(
3.45866e+09
6.73584e+09
9.40495e+09
5.71908e+09
8.81733e+09
6.70203e+09
1.10519e+10
6.01766e+09
7.08231e+09
6.2051e+09
8.58587e+09
7.54541e+09
9.65157e+09
1.05276e+10
7.61198e+09
1.18458e+10
8.47726e+09
8.14406e+09
8.06109e+09
7.40776e+09
7.51336e+09
8.37134e+09
9.26181e+09
9.94455e+09
5.80944e+09
5.61351e+09
7.94894e+09
)
;
    }
    procBoundary6to7
    {
        type            processor;
        value           nonuniform List<scalar> 
12
(
7.49924e+09
5.3555e+09
7.58161e+09
3.85737e+09
6.01917e+09
6.8799e+09
8.58125e+09
8.2141e+09
6.54247e+09
7.69312e+09
6.82506e+09
7.24623e+09
)
;
    }
}


// ************************************************************************* //
