/*--------------------------------*- C++ -*----------------------------------*\
| =========                 |                                                 |
| \\      /  F ield         | OpenFOAM: The Open Source CFD Toolbox           |
|  \\    /   O peration     | Version:  4.x                                   |
|   \\  /    A nd           | Web:      www.OpenFOAM.org                      |
|    \\/     M anipulation  |                                                 |
\*---------------------------------------------------------------------------*/
FoamFile
{
    version     2.0;
    format      ascii;
    class       volVectorField;
    location    "27";
    object      GField;
}
// * * * * * * * * * * * * * * * * * * * * * * * * * * * * * * * * * * * * * //

dimensions      [1 -2 -1 0 0 0 0];

internalField   nonuniform List<vector> 
114
(
(53.9632 -0.30113 -1.96013)
(110.75 -0.286383 -3.88452)
(61.5791 -0.324861 -1.45211)
(115.641 -0.20412 -2.57832)
(65.6434 0.127201 -0.168131)
(120.363 0.144731 -2.0768)
(98.9872 0.608183 -3.8229)
(42.1888 0.401103 -2.14823)
(103.678 1.04967 -4.33163)
(50.4896 0.811832 -1.9087)
(107.578 0.727375 -3.57309)
(56.0959 0.349034 -1.60835)
(111.258 0.0898671 -3.10036)
(59.1377 -0.120114 -0.923858)
(115.047 -0.147619 -2.32151)
(99.9817 3.05981 -4.01963)
(44.2626 1.46141 -2.12172)
(105.992 2.94851 -4.10945)
(55.0847 1.72302 -1.68196)
(111.665 2.66239 -3.10334)
(62.5747 1.33958 -1.0803)
(116.409 1.83867 -2.38483)
(67.3461 0.717602 -0.424895)
(120.752 1.18696 -2.1598)
(100.295 2.15089 -3.37594)
(49.0298 1.18763 -1.93718)
(109.444 2.31376 -3.3878)
(64.2775 1.2585 -1.6665)
(119 2.23437 -2.6598)
(76.7928 0.901732 -1.19009)
(127.725 1.71351 -1.98873)
(85.6605 0.080583 -0.525884)
(134.014 0.762459 -1.55268)
(28.2615 -0.211656 -3.76204)
(95.7016 0.494138 -4.96254)
(25.0839 -0.0648918 -3.85274)
(97.9678 2.45795 -2.91893)
(97.128 1.15644 -8.07138)
(35.0605 0.269441 -3.95427)
(96.5562 1.0979 -8.45021)
(31.3241 0.695656 -3.25083)
(95.7336 1.21424 -6.2137)
(27.1184 0.24689 -2.57524)
(95.3749 -0.058304 -3.54195)
(22.9574 -0.349957 -1.90067)
(97.1178 -0.350533 -1.5857)
(97.6596 3.44609 -8.25792)
(36.6196 1.61945 -4.3543)
(97.8819 3.6887 -8.97293)
(35.4747 1.54397 -3.71964)
(98.6364 3.31999 -7.19047)
(33.6316 1.18612 -3.069)
(99.7442 2.63116 -5.63371)
(29.7613 0.589703 -2.54593)
(101.447 1.63075 -3.16416)
(98.2702 2.72063 -7.36919)
(43.7766 1.40851 -4.33288)
(103 2.94624 -7.71136)
(51.598 1.22987 -4.30355)
(108.002 2.61571 -6.39273)
(57.8187 0.747543 -4.26286)
(112.631 2.05952 -5.06619)
(61.7194 -0.0273763 -3.4565)
(116.991 1.35612 -3.84214)
(0.72771 -0.0135069 -0.156322)
(79.3823 -0.726653 -0.422825)
(95.3662 2.23184 -6.36962)
(32.0356 0.932274 -3.0837)
(92.778 1.96104 -5.61499)
(23.759 0.986351 -1.92901)
(90.9154 1.22395 -3.69636)
(16.8504 0.74913 -1.38559)
(89.8461 -0.841503 -2.41892)
(13.9414 0.7867 -1.71921)
(90.1939 -0.544869 -1.10123)
(96.4513 3.7674 -6.07378)
(32.881 1.52152 -2.99388)
(93.9802 3.86336 -5.46176)
(25.264 1.29267 -2.10897)
(92.2252 2.85489 -3.677)
(17.6633 0.707445 -1.43828)
(91.2789 0.983649 -1.98838)
(8.67097 0.327602 -0.802276)
(91.3521 -0.327056 -0.629141)
(97.3022 3.07774 -5.67896)
(40.1207 1.74344 -3.28126)
(99.2809 3.92296 -5.46965)
(43.7138 1.74857 -3.16482)
(101.852 3.62401 -4.18168)
(46.713 1.21019 -2.74986)
(103.082 3.02879 -2.7704)
(46.9363 1.1052 -2.7746)
(105.367 1.19627 -2.0627)
(94.3686 1.70329 -5.32379)
(30.288 0.989049 -2.21812)
(90.5858 2.22366 -4.22775)
(21.6491 0.803589 -1.66472)
(88.979 1.33143 -2.66828)
(15.024 0.790585 -1.02254)
(88.2366 0.0977583 -3.07661)
(9.29328 0.789414 -1.00394)
(94.7363 4.15994 -4.5182)
(33.4277 1.89318 -2.14052)
(92.6264 4.03047 -3.80361)
(28.1078 1.37537 -1.82202)
(91.7687 3.31818 -2.84767)
(23.6998 1.25154 -1.32213)
(91.7673 2.78842 -1.70645)
(96.3277 3.11884 -4.24544)
(40.873 1.58988 -2.61427)
(98.2268 3.18386 -4.29695)
(43.8895 1.33642 -3.05061)
(100.391 2.60431 -4.04876)
(46.5638 1.15275 -2.3859)
)
;

boundaryField
{
    inlet
    {
        type            calculated;
        value           uniform (67 0 0);
    }
    outlet
    {
        type            calculated;
        value           nonuniform 0();
    }
    wall
    {
        type            calculated;
        value           uniform (0 0 0);
    }
    procBoundary2to0
    {
        type            processor;
        value           nonuniform List<vector> 
44
(
(53.8595 -1.68879 -2.03999)
(111.116 -2.08012 -3.87693)
(60.7539 -1.11708 -1.74295)
(115.695 -1.78684 -3.95584)
(64.5689 -0.984523 -0.953408)
(117.437 -1.46055 -5.06451)
(100.717 -1.25906 -4.69914)
(44.31 -0.313641 -2.08502)
(106.193 -0.612753 -4.30532)
(106.193 -0.612753 -4.30532)
(32.9357 -0.194245 -4.34853)
(95.7901 -0.0636849 -7.83197)
(28.1452 -0.359238 -2.84815)
(96.5216 -1.11049 -3.95149)
(20.2456 0.276728 -1.5041)
(97.1177 -0.954942 -1.55921)
(96.4706 -0.763726 -9.77141)
(35.273 -0.396305 -4.90407)
(96.9025 -0.754658 -10.0756)
(32.9357 -0.194245 -4.34853)
(95.7901 -0.0636849 -7.83197)
(95.7901 -0.0636849 -7.83197)
(5.00863 -0.0540099 -0.684171)
(81.8338 -0.146414 -1.81809)
(3.0054 -0.328332 -0.56614)
(84.5831 0.718759 0.0378073)
(94.2312 -0.0677865 -6.48996)
(28.1258 0.0901035 -3.31304)
(89.3802 0.255243 -6.41267)
(15.2792 0.10423 -1.56045)
(84.902 0.332689 -3.52374)
(5.00863 -0.0540099 -0.684171)
(81.8338 -0.146414 -1.81809)
(81.8338 -0.146414 -1.81809)
(12.5794 0.563284 -0.936525)
(87.4035 1.36939 -2.15005)
(94.9467 -0.967212 -3.87701)
(30.2465 -0.165266 -2.12979)
(90.6113 -0.31363 -3.48496)
(19.8277 0.19494 -1.1523)
(88.8426 -0.0141111 -2.13776)
(14.0288 0.312633 -0.809342)
(87.9085 -0.332019 -1.64143)
(12.5794 0.563284 -0.936525)
)
;
    }
    procBoundary2to3
    {
        type            processor;
        value           nonuniform List<vector> 
12
(
(67.3823 -0.366571 0.286449)
(60.0866 -0.43598 -0.566069)
(69.7912 1.39572 -0.160551)
(90.9508 -0.772598 -0.439485)
(21.0518 0.191964 -4.02062)
(20.756 -0.559999 -1.99759)
(24.7802 0.696088 -2.21165)
(63.297 -0.881073 -3.29222)
(0.000224806 -1.89412e-05 -0.000165015)
(11.5544 0.988221 -1.9836)
(3.78263 0.286047 -0.441721)
(44.8851 0.832081 -3.03275)
)
;
    }
    procBoundary2to6
    {
        type            processor;
        value           nonuniform List<vector> 
32
(
(87.279 -0.120046 -1.31912)
(20.0716 1.41546 -1.32834)
(92.8604 1.4561 -1.69031)
(102.923 1.89545 -2.71141)
(48.8708 0.711094 -2.75191)
(105.627 0.905006 -2.69329)
(92.2152 1.49773 -2.07822)
(27.8266 0.950469 -0.757422)
(88.0653 1.62532 -1.73283)
(16.0945 0.546769 -0.596759)
(85.0743 0.516139 -1.24052)
(8.99269 0.427191 -0.342711)
(83.9673 -0.834055 -1.03984)
(87.279 -0.120046 -1.31912)
(20.0716 1.41546 -1.32834)
(0.64288 0.0440566 -0.0153995)
(94.4741 4.8406 -1.68198)
(30.514 1.64136 -0.930007)
(91.1197 4.1118 -1.61196)
(21.2102 1.14845 -0.898947)
(88.7022 2.01551 -1.43929)
(12.8582 0.700292 -0.573559)
(20.0716 1.41546 -1.32834)
(102.923 1.89545 -2.71141)
(87.5301 1.99206 -1.44633)
(96.3573 3.44208 -1.87877)
(39.7762 1.69821 -1.25938)
(96.9518 3.69594 -2.01172)
(40.7202 1.33276 -1.82283)
(96.5548 2.69526 -2.02958)
(102.923 1.89545 -2.71141)
(38.6254 1.00858 -1.72193)
)
;
    }
}


// ************************************************************************* //
