/*--------------------------------*- C++ -*----------------------------------*\
| =========                 |                                                 |
| \\      /  F ield         | OpenFOAM: The Open Source CFD Toolbox           |
|  \\    /   O peration     | Version:  4.x                                   |
|   \\  /    A nd           | Web:      www.OpenFOAM.org                      |
|    \\/     M anipulation  |                                                 |
\*---------------------------------------------------------------------------*/
FoamFile
{
    version     2.0;
    format      ascii;
    class       volScalarField;
    location    "27";
    object      Sm;
}
// * * * * * * * * * * * * * * * * * * * * * * * * * * * * * * * * * * * * * //

dimensions      [1 -3 -1 0 0 0 0];

internalField   nonuniform List<scalar> 
114
(
6.51e-65
4.88249e-65
2.55748e-65
4.88245e-65
3.02244e-65
4.10742e-65
5.73506e-65
6.51005e-65
5.11502e-65
3.7975e-65
6.19999e-65
4.41747e-65
5.88994e-65
6.12241e-65
3.95244e-65
4.03005e-65
5.65755e-65
4.57252e-65
4.96001e-65
4.495e-65
4.57249e-65
5.34748e-65
4.41746e-65
5.26995e-65
4.41755e-65
4.26254e-65
4.65004e-65
4.57253e-65
3.33252e-65
3.79751e-65
2.71251e-65
4.805e-65
3.1e-65
8.44741e-65
9.76485e-65
5.73487e-65
9.22227e-65
5.42506e-65
6.82005e-65
7.67252e-65
7.82749e-65
6.97497e-65
6.27745e-65
8.98989e-65
7.59487e-65
5.1924e-65
6.04507e-65
8.60257e-65
8.29254e-65
7.59501e-65
7.43999e-65
7.28498e-65
7.05245e-65
7.43992e-65
5.96743e-65
5.89007e-65
5.19255e-65
6.97505e-65
5.81252e-65
6.89752e-65
5.89e-65
5.88999e-65
6.50997e-65
4.26249e-65
7.59482e-65
8.13729e-65
7.28508e-65
4.96004e-65
5.50251e-65
6.12249e-65
5.57997e-65
7.12994e-65
8.36991e-65
6.58738e-65
4.88239e-65
5.34756e-65
6.04505e-65
7.13003e-65
9.06751e-65
7.28498e-65
6.43247e-65
7.51744e-65
7.43993e-65
8.36989e-65
5.34756e-65
7.51757e-65
6.04504e-65
6.97502e-65
4.65001e-65
6.51e-65
8.29248e-65
4.95997e-65
6.66496e-65
4.80505e-65
8.13756e-65
8.37003e-65
6.51e-65
6.81998e-65
5.88997e-65
6.27744e-65
7.7499e-65
6.89758e-65
6.89755e-65
8.37004e-65
5.81251e-65
7.20749e-65
6.89747e-65
8.36996e-65
5.27006e-65
6.51006e-65
6.27754e-65
7.13003e-65
5.50251e-65
6.355e-65
)
;

boundaryField
{
    inlet
    {
        type            calculated;
        value           uniform 0;
    }
    outlet
    {
        type            calculated;
        value           nonuniform 0();
    }
    wall
    {
        type            calculated;
        value           uniform 0;
    }
    procBoundary2to0
    {
        type            processor;
        value           nonuniform List<scalar> 
44
(
4.7275e-65
4.26249e-65
4.33997e-65
3.25496e-65
4.49492e-65
6.89736e-65
2.86753e-65
4.41753e-65
3.25502e-65
3.25502e-65
4.72748e-65
8.98995e-65
5.88995e-65
8.29237e-65
6.04487e-65
4.95986e-65
8.06008e-65
6.12254e-65
6.12251e-65
4.72748e-65
8.98995e-65
8.98995e-65
7.12993e-65
7.12988e-65
6.19985e-65
4.57237e-65
7.28508e-65
7.59504e-65
7.67251e-65
8.13748e-65
8.21495e-65
7.12993e-65
7.12988e-65
7.12988e-65
5.42491e-65
2.32494e-65
5.27006e-65
5.89004e-65
7.98252e-65
9.06749e-65
4.49498e-65
9.14493e-65
7.1299e-65
5.42491e-65
)
;
    }
    procBoundary2to3
    {
        type            processor;
        value           nonuniform List<scalar> 
12
(
6.97484e-65
5.19241e-65
5.50245e-65
4.64999e-65
7.5173e-65
6.66485e-65
1.03849e-64
7.74995e-65
7.6723e-65
9.0673e-65
5.11494e-65
8.52494e-65
)
;
    }
    procBoundary2to6
    {
        type            processor;
        value           nonuniform List<scalar> 
32
(
6.7424e-65
6.04497e-65
7.12994e-65
5.115e-65
5.81248e-65
4.95999e-65
1.03851e-64
7.59506e-65
4.96003e-65
7.44002e-65
9.37749e-65
6.12248e-65
7.36247e-65
6.7424e-65
6.04497e-65
6.50995e-65
5.81256e-65
7.90507e-65
6.43254e-65
8.83503e-65
7.05251e-65
7.8275e-65
6.04497e-65
5.115e-65
7.05249e-65
4.96006e-65
7.20757e-65
5.42504e-65
6.12253e-65
7.59503e-65
5.115e-65
8.75752e-65
)
;
    }
}


// ************************************************************************* //
