/*--------------------------------*- C++ -*----------------------------------*\
| =========                 |                                                 |
| \\      /  F ield         | OpenFOAM: The Open Source CFD Toolbox           |
|  \\    /   O peration     | Version:  4.x                                   |
|   \\  /    A nd           | Web:      www.OpenFOAM.org                      |
|    \\/     M anipulation  |                                                 |
\*---------------------------------------------------------------------------*/
FoamFile
{
    version     2.0;
    format      ascii;
    class       volVectorField;
    location    "49.5";
    object      DDtUrel;
}
// * * * * * * * * * * * * * * * * * * * * * * * * * * * * * * * * * * * * * //

dimensions      [0 1 -2 0 0 0 0];

internalField   nonuniform List<vector> 
114
(
(0.000531278 1.42821e-07 -1.15469e-06)
(0.000389473 -5.25352e-07 1.98354e-05)
(0.000315168 -6.02967e-07 3.51369e-05)
(0.000245921 1.75938e-06 3.87435e-05)
(0.000220788 2.60467e-06 4.0011e-05)
(0.000171681 -1.98278e-06 3.08833e-05)
(0.00176802 1.67786e-05 -0.000173679)
(0.00112645 1.06458e-05 -9.51776e-05)
(0.000740192 4.09388e-06 -3.36267e-05)
(0.000520974 -3.45754e-06 2.86478e-06)
(0.000378527 -1.00903e-05 2.19126e-05)
(0.00030154 -1.33514e-05 3.43719e-05)
(0.00023232 -1.36367e-05 3.92271e-05)
(0.000199285 -1.10243e-05 4.11679e-05)
(0.000149084 -1.02249e-05 3.40429e-05)
(0.00180286 5.81547e-05 -0.00016651)
(0.00116913 2.66065e-05 -9.0065e-05)
(0.000785145 8.49288e-06 -3.01377e-05)
(0.000568334 -3.81355e-06 6.33683e-06)
(0.000425023 -1.46428e-05 2.5173e-05)
(0.000349512 -2.1018e-05 3.6938e-05)
(0.000278704 -2.44391e-05 4.06566e-05)
(0.000248599 -2.35597e-05 4.11995e-05)
(0.000200462 -1.73289e-05 3.69816e-05)
(0.00184507 5.56848e-05 -0.000159235)
(0.00122138 2.73039e-05 -8.72033e-05)
(0.000840953 7.02291e-06 -3.0281e-05)
(0.000629362 -7.04194e-06 5.61377e-06)
(0.000486349 -1.94523e-05 2.515e-05)
(0.000412592 -2.74086e-05 3.74903e-05)
(0.000337965 -3.48715e-05 4.2085e-05)
(0.000299484 -3.65197e-05 4.12221e-05)
(0.000247925 -3.94772e-05 3.65781e-05)
(0.000224105 1.92661e-07 3.52399e-05)
(0.000166422 1.52916e-06 3.19976e-05)
(0.000147626 2.86936e-06 3.45937e-05)
(0.000109756 9.72112e-07 2.36931e-05)
(0.00170597 2.46261e-05 -0.00019777)
(0.00104171 1.19878e-05 -9.6697e-05)
(0.000649878 5.60785e-06 -3.28314e-05)
(0.000429486 -7.71666e-07 7.2321e-06)
(0.000294677 -7.07389e-06 2.06219e-05)
(0.000222638 -1.19924e-05 3.48532e-05)
(0.000165358 -1.06906e-05 3.28807e-05)
(0.00013794 -1.00977e-05 3.80879e-05)
(0.000104718 -8.07832e-06 2.71086e-05)
(0.00174348 6.69431e-05 -0.000194022)
(0.00108524 3.03619e-05 -9.58935e-05)
(0.000693859 8.63262e-06 -3.27392e-05)
(0.000476436 -3.73546e-06 6.17438e-06)
(0.000338143 -1.3212e-05 2.02613e-05)
(0.00026712 -1.92947e-05 3.24093e-05)
(0.00020374 -2.20229e-05 3.15275e-05)
(0.000181148 -2.38591e-05 3.48654e-05)
(0.000140888 -1.86965e-05 2.52169e-05)
(0.00179139 6.42313e-05 -0.000188178)
(0.00114418 3.08456e-05 -9.4105e-05)
(0.000754648 6.96094e-06 -3.42488e-05)
(0.000538851 -7.78832e-06 4.10193e-06)
(0.000396603 -1.90031e-05 1.85017e-05)
(0.000322748 -2.6037e-05 3.23309e-05)
(0.000253748 -3.15882e-05 3.2662e-05)
(0.000224988 -3.45963e-05 3.31112e-05)
(0.000178656 -3.67406e-05 2.34393e-05)
(9.00761e-05 4.27399e-06 2.4008e-05)
(6.14812e-05 9.61408e-07 1.60085e-05)
(0.00165004 2.85329e-05 -0.000179898)
(0.000965773 1.1172e-05 -8.36031e-05)
(0.000574546 3.04522e-06 -2.89578e-05)
(0.000355041 -4.39056e-06 7.08493e-06)
(0.00022878 -7.37015e-06 1.65139e-05)
(0.000157621 -1.22914e-05 2.78403e-05)
(0.000112615 -9.11142e-06 2.40404e-05)
(8.28495e-05 -8.87664e-06 2.55368e-05)
(6.25876e-05 -7.86617e-06 1.77557e-05)
(0.00168843 7.21463e-05 -0.000174095)
(0.00100902 3.18039e-05 -8.33718e-05)
(0.000613892 8.5825e-06 -3.12209e-05)
(0.000392512 -5.97533e-06 4.16025e-06)
(0.000259862 -1.31247e-05 1.55273e-05)
(0.000188317 -2.05019e-05 2.66992e-05)
(0.000135106 -1.98746e-05 2.29901e-05)
(0.000111018 -2.56379e-05 2.4227e-05)
(8.11267e-05 -1.94491e-05 1.60664e-05)
(0.00173855 7.15458e-05 -0.000171505)
(0.00106824 3.54963e-05 -8.49924e-05)
(0.00067153 8.75414e-06 -3.43427e-05)
(0.000449232 -7.62617e-06 1.57695e-06)
(0.000309431 -1.79144e-05 1.49901e-05)
(0.00023162 -2.37695e-05 2.68433e-05)
(0.000168699 -2.66285e-05 2.20187e-05)
(0.000141561 -3.25069e-05 2.27059e-05)
(0.000100181 -3.0786e-05 1.4289e-05)
(0.00161963 3.85703e-05 -0.000136002)
(0.000926071 1.76401e-05 -6.14581e-05)
(0.000535482 3.90142e-06 -2.38296e-05)
(0.000318184 -4.24026e-06 3.63909e-06)
(0.000194912 -6.5677e-06 1.11524e-05)
(0.000126389 -1.05044e-05 2.006e-05)
(8.27999e-05 -9.154e-06 1.50257e-05)
(5.81606e-05 -9.26182e-06 1.2834e-05)
(0.00166481 8.26415e-05 -0.000132206)
(0.000976036 3.41111e-05 -6.35978e-05)
(0.000577628 7.22573e-06 -2.72279e-05)
(0.000357245 -7.25283e-06 -1.11738e-06)
(0.000224802 -1.23631e-05 9.17119e-06)
(0.000157476 -1.88077e-05 1.77432e-05)
(0.000104606 -1.83951e-05 1.24751e-05)
(0.00171712 7.6736e-05 -0.000131467)
(0.001034 3.50779e-05 -6.72192e-05)
(0.000630437 7.24099e-06 -3.19962e-05)
(0.000404432 -9.10643e-06 -5.02087e-06)
(0.0002641 -1.70691e-05 8.78868e-06)
(0.000190385 -2.38493e-05 1.74358e-05)
)
;

boundaryField
{
    inlet
    {
        type            calculated;
        value           nonuniform List<vector> 
12
(
(0.00392614 1.12791e-05 -0.000351828)
(0.00401514 0.000267752 -0.000330277)
(0.00415976 0.000113929 -0.000281731)
(0.00374141 8.29385e-05 -0.000643802)
(0.00383119 0.000334301 -0.000663697)
(0.00403268 0.000167858 -0.000614819)
(0.00370198 8.58548e-05 -0.000574282)
(0.00375729 0.000322096 -0.000525426)
(0.00396786 0.00019295 -0.000515489)
(0.00368882 0.000176952 -0.000474682)
(0.00382673 0.000420848 -0.000417839)
(0.00404045 0.000200186 -0.000403168)
)
;
    }
    outlet
    {
        type            calculated;
        value           nonuniform 0();
    }
    wall
    {
        type            calculated;
        value           nonuniform List<vector> 
66
(
(0.00392614 1.12791e-05 -0.000351828)
(0.00401514 0.000267752 -0.000330277)
(0.00415976 0.000113929 -0.000281731)
(0.000409062 1.86791e-05 -4.86152e-05)
(0.000587502 1.83661e-05 -1.18189e-05)
(0.000829936 -7.69516e-06 -8.35993e-06)
(0.000309646 1.21954e-05 4.37904e-05)
(0.000490491 7.16482e-06 6.48106e-05)
(0.000729186 -1.74343e-05 4.95219e-05)
(0.000571478 4.66849e-06 1.03286e-05)
(0.000375892 -2.46178e-05 4.76691e-05)
(0.000569667 -6.48813e-08 7.68359e-05)
(0.000871167 -2.00071e-05 6.10209e-05)
(0.000446678 -1.02804e-05 3.45553e-05)
(0.000247203 -4.56058e-05 4.36026e-05)
(0.000426077 -3.27165e-05 7.31544e-05)
(0.000724758 -5.00371e-05 6.87209e-05)
(0.00058427 -6.83165e-06 9.18603e-05)
(0.000329596 -4.278e-05 4.73166e-05)
(0.000540571 -3.98693e-05 8.29817e-05)
(0.000883782 -5.28397e-05 8.0055e-05)
(0.000360433 2.72962e-05 8.06818e-05)
(0.000136564 -4.6202e-05 6.51587e-05)
(0.00033694 -4.69733e-05 7.88496e-05)
(0.000660106 -9.57982e-05 9.29888e-05)
(0.000594875 2.97711e-05 0.000103135)
(0.000225808 -1.14097e-05 8.34552e-05)
(0.000508594 -3.87713e-05 7.60166e-05)
(0.000725669 -7.79749e-05 7.83632e-05)
(0.000264706 -5.55626e-05 5.08295e-05)
(-6.07421e-05 -2.22177e-05 2.66059e-05)
(0.000254968 5.67796e-05 6.24054e-05)
(0.000479699 -0.000114188 5.1448e-05)
(0.00415976 0.000113929 -0.000281731)
(0.00403268 0.000167858 -0.000614819)
(0.00396786 0.00019295 -0.000515489)
(0.00404045 0.000200186 -0.000403168)
(0.000829936 -7.69516e-06 -8.35993e-06)
(0.000485673 -1.89912e-06 -2.68111e-05)
(0.000235617 3.21495e-05 -3.31498e-07)
(0.000251019 -1.02292e-05 -1.25262e-05)
(0.000729186 -1.74343e-05 4.95219e-05)
(0.000368079 -3.34169e-05 1.89183e-05)
(0.000154126 -1.41728e-05 -3.66696e-06)
(0.000153248 -3.26725e-05 -3.7729e-05)
(0.000871167 -2.00071e-05 6.10209e-05)
(0.00048901 -3.44757e-05 7.8413e-05)
(0.000218524 -2.74384e-05 7.90062e-05)
(0.000223459 -4.13086e-05 1.66501e-05)
(0.000724758 -5.00371e-05 6.87209e-05)
(0.000346268 -5.23032e-05 5.29939e-06)
(0.000132366 -4.63041e-05 2.6582e-05)
(0.000133226 -3.49361e-05 3.53803e-05)
(0.000883782 -5.28397e-05 8.0055e-05)
(0.000481306 -5.43373e-05 7.67915e-05)
(0.000163156 -3.63791e-05 9.32835e-05)
(0.000254324 -5.2723e-05 8.43198e-05)
(0.000660106 -9.57982e-05 9.29888e-05)
(0.00027893 -7.43528e-05 3.94645e-05)
(1.441e-05 -1.78199e-05 7.32505e-06)
(0.000725669 -7.79749e-05 7.83632e-05)
(0.000443369 -7.09518e-05 6.75275e-05)
(0.000136021 -7.18844e-05 5.96867e-05)
(0.000479699 -0.000114188 5.1448e-05)
(0.000195496 -9.93113e-05 -2.87131e-05)
(-8.14308e-05 -3.36258e-05 5.42266e-06)
)
;
    }
    procBoundary2to0
    {
        type            processor;
        value           nonuniform List<vector> 
44
(
(0.000548429 5.18507e-06 -2.76274e-06)
(0.000405815 1.04011e-05 1.71554e-05)
(0.000326689 1.07626e-05 2.96289e-05)
(0.000255094 1.06175e-05 3.37424e-05)
(0.000218637 1.28096e-05 3.46041e-05)
(0.000172506 1.51534e-05 2.22774e-05)
(0.00176928 -2.41586e-05 -0.000181638)
(0.00113261 -8.86996e-06 -9.60341e-05)
(0.000749269 -3.42759e-06 -3.66828e-05)
(0.000749269 -3.42759e-06 -3.66828e-05)
(0.000430659 1.63511e-06 8.00432e-06)
(0.000293924 6.13993e-07 2.16229e-05)
(0.000232568 1.23569e-05 3.38497e-05)
(0.000173726 1.09478e-05 3.04437e-05)
(0.000147044 1.24931e-05 3.2702e-05)
(0.00011287 1.10112e-05 2.18628e-05)
(0.00170054 -1.94345e-05 -0.000204814)
(0.0010403 -8.73807e-06 -9.67242e-05)
(0.000649601 -1.95463e-06 -3.18775e-05)
(0.000430659 1.63511e-06 8.00432e-06)
(0.000293924 6.13993e-07 2.16229e-05)
(0.000293924 6.13993e-07 2.16229e-05)
(0.000162233 -3.70683e-07 2.63425e-05)
(0.000112636 7.91541e-07 2.23652e-05)
(9.52104e-05 1.08365e-05 2.5624e-05)
(6.71371e-05 8.95223e-06 1.69785e-05)
(0.00164032 -2.15901e-05 -0.000184875)
(0.000960883 -1.01e-05 -8.73734e-05)
(0.000570317 -3.88192e-06 -2.87698e-05)
(0.000355545 -6.33801e-07 8.20792e-06)
(0.000227789 -9.25792e-07 1.59528e-05)
(0.000162233 -3.70683e-07 2.63425e-05)
(0.000112636 7.91541e-07 2.23652e-05)
(0.000112636 7.91541e-07 2.23652e-05)
(5.00284e-05 5.99695e-07 1.83056e-05)
(3.09546e-05 -3.23501e-08 1.18866e-05)
(0.00160827 -1.55483e-05 -0.000135731)
(0.000915665 -4.87498e-06 -6.47304e-05)
(0.000525024 -1.86583e-06 -2.36928e-05)
(0.000310639 7.52827e-07 2.19677e-06)
(0.000188342 8.50381e-08 1.01144e-05)
(0.000122005 -1.53137e-06 1.74091e-05)
(7.79043e-05 1.11848e-07 1.54885e-05)
(5.00284e-05 5.99695e-07 1.83056e-05)
)
;
    }
    procBoundary2to3
    {
        type            processor;
        value           nonuniform List<vector> 
12
(
(0.000172963 -1.31618e-06 2.73895e-05)
(0.000135702 -8.87332e-06 3.59502e-05)
(0.000195552 -1.85001e-05 3.91511e-05)
(0.000235114 -4.29407e-05 3.93284e-05)
(0.000107998 1.25162e-06 2.21878e-05)
(9.21408e-05 -6.9314e-06 2.58907e-05)
(0.000142263 -2.09872e-05 2.62717e-05)
(0.000171555 -3.97285e-05 2.43813e-05)
(4.91058e-05 -3.0663e-07 1.63716e-05)
(4.27243e-05 -6.83859e-06 1.56529e-05)
(7.17869e-05 -1.97399e-05 1.20471e-05)
(9.01999e-05 -3.35909e-05 1.12912e-05)
)
;
    }
    procBoundary2to6
    {
        type            processor;
        value           nonuniform List<vector> 
32
(
(3.71704e-05 -8.96028e-06 9.58976e-06)
(8.541e-05 -2.33113e-05 1.27945e-05)
(5.53308e-05 -1.7705e-05 4.90301e-06)
(0.000129678 -2.81855e-05 9.31429e-06)
(0.000105576 -3.25778e-05 8.29381e-06)
(6.71353e-05 -3.0686e-05 3.60794e-07)
(0.00161342 3.55469e-05 -6.44312e-05)
(0.000909389 1.5489e-05 -3.29844e-05)
(0.000520629 2.85643e-06 -1.61736e-05)
(0.000300903 -5.79492e-06 -2.5393e-06)
(0.000180952 -7.30607e-06 3.20782e-06)
(0.000106968 -1.11703e-05 6.2183e-06)
(6.81628e-05 -1.02405e-05 5.72949e-06)
(3.71704e-05 -8.96028e-06 9.58976e-06)
(8.541e-05 -2.33113e-05 1.27945e-05)
(4.11143e-05 -1.23146e-05 4.2783e-06)
(0.00165694 8.3993e-05 -6.66124e-05)
(0.000958316 3.20242e-05 -3.68156e-05)
(0.000558991 6.30527e-06 -1.97146e-05)
(0.000333481 -1.14705e-05 -5.92518e-06)
(0.000200959 -1.38254e-05 1.0457e-06)
(0.000124866 -2.18537e-05 4.2747e-06)
(8.541e-05 -2.33113e-05 1.27945e-05)
(0.000129678 -2.81855e-05 9.31429e-06)
(7.67742e-05 -1.99805e-05 4.36196e-06)
(0.0017122 7.97756e-05 -6.99527e-05)
(0.0010176 3.58099e-05 -4.02486e-05)
(0.00061037 6.58616e-06 -2.38617e-05)
(0.000375415 -1.08406e-05 -8.70711e-06)
(0.000230348 -1.63875e-05 -1.0464e-06)
(0.000129678 -2.81855e-05 9.31429e-06)
(0.000147318 -2.2225e-05 3.51496e-06)
)
;
    }
}


// ************************************************************************* //
