/*--------------------------------*- C++ -*----------------------------------*\
| =========                 |                                                 |
| \\      /  F ield         | OpenFOAM: The Open Source CFD Toolbox           |
|  \\    /   O peration     | Version:  4.x                                   |
|   \\  /    A nd           | Web:      www.OpenFOAM.org                      |
|    \\/     M anipulation  |                                                 |
\*---------------------------------------------------------------------------*/
FoamFile
{
    version     2.0;
    format      ascii;
    class       volVectorField;
    location    "49.5";
    object      impParticleForces;
}
// * * * * * * * * * * * * * * * * * * * * * * * * * * * * * * * * * * * * * //

dimensions      [1 1 -2 0 0 0 0];

internalField   nonuniform List<vector> 
114
(
(0.00240177 -5.99221e-07 -8.50864e-05)
(0.00243793 1.61088e-06 -7.94513e-05)
(0.00243586 4.94226e-06 -7.09973e-05)
(0.00247098 9.12101e-06 -6.36075e-05)
(0.00244826 1.50726e-05 -5.42346e-05)
(0.00246191 2.20245e-05 -4.64738e-05)
(0.00231044 5.68678e-06 -8.93484e-05)
(0.00233731 6.59526e-06 -9.03656e-05)
(0.00238106 7.71671e-06 -8.93087e-05)
(0.00239763 8.67647e-06 -8.43996e-05)
(0.00244193 9.91109e-06 -7.92548e-05)
(0.00243519 1.09543e-05 -7.07436e-05)
(0.00247049 1.27814e-05 -6.34545e-05)
(0.00245345 1.50679e-05 -5.43408e-05)
(0.00245554 1.81091e-05 -4.64325e-05)
(0.00228433 1.33518e-05 -8.6792e-05)
(0.00231651 1.4365e-05 -8.8131e-05)
(0.00235976 1.54592e-05 -8.7196e-05)
(0.0023796 1.57929e-05 -8.25145e-05)
(0.00242489 1.6573e-05 -7.7457e-05)
(0.00242227 1.60155e-05 -6.95779e-05)
(0.00245955 1.66438e-05 -6.24621e-05)
(0.00245142 1.65027e-05 -5.40091e-05)
(0.00246838 1.71629e-05 -4.69227e-05)
(0.00224698 1.58845e-05 -8.38574e-05)
(0.00226796 1.66712e-05 -8.43286e-05)
(0.00232107 1.7724e-05 -8.38476e-05)
(0.00233306 1.76564e-05 -7.92863e-05)
(0.00236637 1.77387e-05 -7.4217e-05)
(0.00237319 1.70009e-05 -6.71185e-05)
(0.00239059 1.66388e-05 -6.01475e-05)
(0.0024088 1.59164e-05 -5.29683e-05)
(0.00242571 1.54342e-05 -4.62318e-05)
(0.00249998 3.804e-06 -7.17185e-05)
(0.00253702 7.60872e-06 -6.41609e-05)
(0.00248186 1.30422e-05 -5.35773e-05)
(0.0025046 1.90003e-05 -4.5965e-05)
(0.00233765 6.41557e-06 -8.87819e-05)
(0.00238477 7.39956e-06 -9.12223e-05)
(0.00244941 8.82881e-06 -9.19675e-05)
(0.00245863 9.63059e-06 -8.59932e-05)
(0.00249372 1.07281e-05 -8.01364e-05)
(0.00247571 1.11174e-05 -7.06413e-05)
(0.00252013 1.26605e-05 -6.36222e-05)
(0.0024821 1.43394e-05 -5.38889e-05)
(0.00248249 1.6744e-05 -4.57905e-05)
(0.00232188 1.48939e-05 -8.72109e-05)
(0.00237471 1.65443e-05 -8.99772e-05)
(0.00244594 1.86439e-05 -9.11279e-05)
(0.00244742 1.79774e-05 -8.47284e-05)
(0.00247588 1.81544e-05 -7.86775e-05)
(0.00247171 1.7196e-05 -7.0324e-05)
(0.00250243 1.73377e-05 -6.31948e-05)
(0.00248261 1.65014e-05 -5.45659e-05)
(0.00249452 1.65711e-05 -4.71614e-05)
(0.00227304 1.72129e-05 -8.33268e-05)
(0.0023112 1.84683e-05 -8.48472e-05)
(0.00238333 2.02043e-05 -8.60536e-05)
(0.00237894 1.94708e-05 -8.012e-05)
(0.00240266 1.90463e-05 -7.45064e-05)
(0.0024131 1.80572e-05 -6.75596e-05)
(0.00243439 1.73873e-05 -6.0591e-05)
(0.00243082 1.60173e-05 -5.3207e-05)
(0.00243434 1.50085e-05 -4.62649e-05)
(0.00245221 1.01009e-05 -4.84342e-05)
(0.00245897 1.4746e-05 -4.12868e-05)
(0.00236331 7.10115e-06 -8.27803e-05)
(0.00239351 7.962e-06 -8.37321e-05)
(0.00244927 9.24773e-06 -8.36907e-05)
(0.00245244 9.69304e-06 -7.81068e-05)
(0.00247461 1.02125e-05 -7.20166e-05)
(0.0024605 1.04959e-05 -6.37418e-05)
(0.00248829 1.15007e-05 -5.67559e-05)
(0.00245094 1.2658e-05 -4.84459e-05)
(0.00245257 1.43074e-05 -4.14073e-05)
(0.00233257 1.56674e-05 -8.02629e-05)
(0.002377 1.72684e-05 -8.21827e-05)
(0.00245015 1.96051e-05 -8.32577e-05)
(0.00245461 1.8935e-05 -7.81343e-05)
(0.00247312 1.87058e-05 -7.17572e-05)
(0.00245175 1.69141e-05 -6.35313e-05)
(0.00248936 1.67445e-05 -5.71635e-05)
(0.00245938 1.5375e-05 -4.95562e-05)
(0.00247837 1.4783e-05 -4.32926e-05)
(0.00229208 1.83642e-05 -7.75463e-05)
(0.00233119 1.99244e-05 -7.90443e-05)
(0.00238859 2.13679e-05 -7.9142e-05)
(0.00239553 2.07123e-05 -7.47391e-05)
(0.00239746 1.95166e-05 -6.82442e-05)
(0.00241091 1.83432e-05 -6.20769e-05)
(0.0024464 1.75758e-05 -5.61592e-05)
(0.00241698 1.5425e-05 -4.90341e-05)
(0.00243505 1.40296e-05 -4.32529e-05)
(0.00236709 7.76854e-06 -7.04185e-05)
(0.00241502 8.81835e-06 -7.15452e-05)
(0.00246624 1.02379e-05 -7.11373e-05)
(0.00244615 9.93686e-06 -6.55226e-05)
(0.00246534 1.03267e-05 -6.03258e-05)
(0.00243574 1.00151e-05 -5.32718e-05)
(0.00245504 1.06095e-05 -4.71613e-05)
(0.00241603 1.10056e-05 -4.074e-05)
(0.0023395 1.65444e-05 -6.8777e-05)
(0.00238549 1.83121e-05 -7.01799e-05)
(0.00245344 2.05259e-05 -7.04827e-05)
(0.00243541 1.87004e-05 -6.54028e-05)
(0.00246655 1.87581e-05 -6.0909e-05)
(0.0024386 1.65515e-05 -5.40935e-05)
(0.00246401 1.57151e-05 -4.85947e-05)
(0.00228698 1.8868e-05 -6.64058e-05)
(0.00232738 2.04054e-05 -6.76353e-05)
(0.00239202 2.20289e-05 -6.80022e-05)
(0.00239083 2.07845e-05 -6.40478e-05)
(0.00241698 1.99706e-05 -5.95972e-05)
(0.00240019 1.78291e-05 -5.34608e-05)
)
;

boundaryField
{
    inlet
    {
        type            zeroGradient;
    }
    outlet
    {
        type            zeroGradient;
    }
    wall
    {
        type            zeroGradient;
    }
    procBoundary2to0
    {
        type            processor;
        value           nonuniform List<vector> 
44
(
(0.00239339 -9.01953e-06 -8.43684e-05)
(0.00244325 -5.67803e-06 -7.95196e-05)
(0.00243797 -6.45147e-08 -7.09192e-05)
(0.00245616 7.10895e-06 -6.29941e-05)
(0.00245447 1.7551e-05 -5.44103e-05)
(0.0024897 3.1169e-05 -4.73052e-05)
(0.00230344 -3.9177e-06 -8.97319e-05)
(0.00232438 -3.40082e-06 -9.00782e-05)
(0.00236184 -2.33505e-06 -8.86877e-05)
(0.00236184 -2.33505e-06 -8.86877e-05)
(0.00244812 -1.25107e-06 -8.5462e-05)
(0.00251243 8.42638e-07 -8.12942e-05)
(0.0024858 -2.16624e-06 -7.07032e-05)
(0.00252608 4.29773e-06 -6.3381e-05)
(0.00248051 1.3788e-05 -5.34576e-05)
(0.00249405 2.50241e-05 -4.5604e-05)
(0.00236042 -4.26378e-06 -9.12748e-05)
(0.00238497 -3.92941e-06 -9.18452e-05)
(0.00244027 -3.11932e-06 -9.18989e-05)
(0.00244812 -1.25107e-06 -8.5462e-05)
(0.00251243 8.42638e-07 -8.12942e-05)
(0.00251243 8.42638e-07 -8.12942e-05)
(0.00248058 2.6144e-06 -6.47274e-05)
(0.00249973 5.6485e-06 -5.71903e-05)
(0.00245118 9.12111e-06 -4.84479e-05)
(0.00245491 1.73174e-05 -4.1139e-05)
(0.00237521 -4.52057e-06 -8.4121e-05)
(0.00240965 -4.36789e-06 -8.56026e-05)
(0.00246946 -3.77048e-06 -8.56117e-05)
(0.00246788 -2.01717e-06 -7.93119e-05)
(0.0025017 -2.20906e-07 -7.35547e-05)
(0.00248058 2.6144e-06 -6.47274e-05)
(0.00249973 5.6485e-06 -5.71903e-05)
(0.00249973 5.6485e-06 -5.71903e-05)
(0.00240801 7.72402e-06 -4.03053e-05)
(0.00240262 1.09327e-05 -3.42228e-05)
(0.0023615 -4.49812e-06 -7.04305e-05)
(0.00240638 -4.32097e-06 -7.16818e-05)
(0.00247273 -3.67568e-06 -7.15863e-05)
(0.00246275 -2.12886e-06 -6.63299e-05)
(0.00246566 -2.83693e-07 -6.0391e-05)
(0.00245348 1.91803e-06 -5.37721e-05)
(0.00246463 4.53067e-06 -4.75294e-05)
(0.00240801 7.72402e-06 -4.03053e-05)
)
;
    }
    procBoundary2to3
    {
        type            processor;
        value           nonuniform List<vector> 
12
(
(0.00249475 2.91197e-05 -3.97074e-05)
(0.0024835 2.08121e-05 -3.9674e-05)
(0.00248211 1.75408e-05 -4.04257e-05)
(0.00241911 1.47451e-05 -3.99015e-05)
(0.00249779 2.48754e-05 -3.865e-05)
(0.00249535 1.90127e-05 -3.90133e-05)
(0.00252642 1.67242e-05 -4.14713e-05)
(0.00246037 1.39825e-05 -4.11098e-05)
(0.00245873 1.88797e-05 -3.48816e-05)
(0.00245788 1.57e-05 -3.54359e-05)
(0.00246526 1.40686e-05 -3.74564e-05)
(0.00243584 1.25469e-05 -3.83456e-05)
)
;
    }
    procBoundary2to6
    {
        type            processor;
        value           nonuniform List<vector> 
32
(
(0.00243126 1.20672e-05 -3.52306e-05)
(0.00242706 1.39858e-05 -4.2415e-05)
(0.00244942 1.31915e-05 -3.72879e-05)
(0.00240833 1.61656e-05 -4.78586e-05)
(0.0023942 1.41025e-05 -4.25427e-05)
(0.00240484 1.2216e-05 -3.7801e-05)
(0.00238868 8.23342e-06 -5.56852e-05)
(0.00241348 8.56271e-06 -5.51474e-05)
(0.00243723 9.19891e-06 -5.33362e-05)
(0.00243321 8.99813e-06 -5.00106e-05)
(0.00246051 9.21733e-06 -4.63921e-05)
(0.00242053 8.74932e-06 -4.13814e-05)
(0.00244005 8.7828e-06 -3.69125e-05)
(0.00243126 1.20672e-05 -3.52306e-05)
(0.00242706 1.39858e-05 -4.2415e-05)
(0.00239689 8.77748e-06 -3.23256e-05)
(0.0023537 1.75295e-05 -5.49105e-05)
(0.00238938 1.86471e-05 -5.48772e-05)
(0.0024291 1.96542e-05 -5.3604e-05)
(0.00243164 1.82653e-05 -5.06811e-05)
(0.00245451 1.75104e-05 -4.7303e-05)
(0.00242884 1.53531e-05 -4.27376e-05)
(0.00242706 1.39858e-05 -4.2415e-05)
(0.00240833 1.61656e-05 -4.78586e-05)
(0.00244552 1.38512e-05 -3.83858e-05)
(0.00229785 1.95763e-05 -5.39657e-05)
(0.00233066 2.08269e-05 -5.42329e-05)
(0.00236123 2.10846e-05 -5.31017e-05)
(0.00237346 2.0063e-05 -5.06731e-05)
(0.00241383 1.94427e-05 -4.74507e-05)
(0.00240833 1.61656e-05 -4.78586e-05)
(0.00240624 1.7408e-05 -4.34967e-05)
)
;
    }
}


// ************************************************************************* //
