/*--------------------------------*- C++ -*----------------------------------*\
| =========                 |                                                 |
| \\      /  F ield         | OpenFOAM: The Open Source CFD Toolbox           |
|  \\    /   O peration     | Version:  4.x                                   |
|   \\  /    A nd           | Web:      www.OpenFOAM.org                      |
|    \\/     M anipulation  |                                                 |
\*---------------------------------------------------------------------------*/
FoamFile
{
    version     2.0;
    format      ascii;
    class       volScalarField;
    location    "49.5";
    object      pSmooth;
}
// * * * * * * * * * * * * * * * * * * * * * * * * * * * * * * * * * * * * * //

dimensions      [1 -1 -2 0 0 0 0];

internalField   nonuniform List<scalar> 
114
(
74.3149
95.0252
56.0447
88.0229
37.352
81.265
109.065
92.0711
102.351
74.5215
95.4471
56.4236
88.4997
37.9744
81.7027
108.661
91.8646
101.964
74.2708
95.0456
56.1876
88.1126
37.6461
81.3132
108.379
91.7683
101.754
74.2322
94.8851
56.2881
88.0316
37.9614
81.2936
56.2279
88.5995
37.3337
81.6464
109.913
92.6109
103.185
74.7864
96.1719
56.5675
89.1275
37.8816
82.1527
109.472
92.2932
102.639
74.4056
95.5392
56.1684
88.4437
37.4796
81.5336
109.045
92.1144
102.289
74.35
95.2795
56.257
88.2958
37.7638
81.4937
37.9151
81.6351
110.765
93.102
103.889
75.458
96.6127
57.4863
89.1971
39.2083
81.7655
110.359
92.9425
103.529
75.1066
96.2835
56.9914
89.1117
38.5362
81.9702
109.889
92.6645
103.011
74.9347
95.8585
57.0374
88.7394
38.6131
81.8351
111.395
93.5963
104.279
75.5848
96.8666
57.4203
89.4281
39.1578
110.789
93.1433
103.622
75.1317
96.186
56.798
88.7603
110.272
92.9143
103.222
75.0453
95.9017
56.8188
)
;

boundaryField
{
    inlet
    {
        type            zeroGradient;
    }
    outlet
    {
        type            fixedValue;
        value           nonuniform 0();
    }
    wall
    {
        type            zeroGradient;
    }
    procBoundary2to0
    {
        type            processor;
        value           nonuniform List<scalar> 
44
(
74.4295
95.2704
56.312
88.3217
38.0016
81.5733
108.69
91.8677
102.054
102.054
74.6524
95.8578
56.5974
89.0928
38.0434
82.179
109.726
92.3086
102.903
74.6524
95.8578
95.8578
56.6194
88.7576
38.3119
81.7876
110.627
92.9211
103.613
75.0523
96.2056
56.6194
88.7576
88.7576
38.7551
81.9724
111.215
93.5183
104.153
75.4659
96.6204
57.2561
89.0874
38.7551
)
;
    }
    procBoundary2to3
    {
        type            processor;
        value           nonuniform List<scalar> 
12
(
18.2996
19.5299
18.7007
19.229
18.2419
19.4386
18.4358
19.0061
19.2329
21.3614
19.9289
20.0998
)
;
    }
    procBoundary2to6
    {
        type            processor;
        value           nonuniform List<scalar> 
32
(
82.1118
38.082
81.5887
88.6205
38.382
81.6074
112.038
93.8316
104.746
76.3109
97.0457
58.3157
89.161
82.1118
38.082
40.5375
111.432
93.5935
104.311
75.8177
96.8771
57.6016
38.082
88.6205
89.4223
110.833
93.3218
103.764
75.7196
96.4854
88.6205
57.5512
)
;
    }
}


// ************************************************************************* //
