/*--------------------------------*- C++ -*----------------------------------*\
| =========                 |                                                 |
| \\      /  F ield         | OpenFOAM: The Open Source CFD Toolbox           |
|  \\    /   O peration     | Version:  4.x                                   |
|   \\  /    A nd           | Web:      www.OpenFOAM.org                      |
|    \\/     M anipulation  |                                                 |
\*---------------------------------------------------------------------------*/
FoamFile
{
    version     2.0;
    format      ascii;
    class       volScalarField;
    location    "49.5";
    object      Qsource;
}
// * * * * * * * * * * * * * * * * * * * * * * * * * * * * * * * * * * * * * //

dimensions      [1 -1 -3 0 0 0 0];

internalField   nonuniform List<scalar> 
114
(
7.66799e+09
6.52632e+09
3.65066e+09
6.9407e+09
4.27675e+09
5.60418e+09
6.66429e+09
7.35597e+09
7.01122e+09
4.86366e+09
8.23897e+09
5.51598e+09
7.91839e+09
7.25154e+09
5.40759e+09
4.7316e+09
6.61433e+09
5.99067e+09
5.92797e+09
6.7455e+09
5.84046e+09
7.7685e+09
6.03419e+09
7.50934e+09
5.69661e+09
4.97008e+09
6.99312e+09
5.73892e+09
5.91565e+09
5.47602e+09
5.129e+09
6.84811e+09
6.12699e+09
9.8483e+09
1.23025e+10
6.61326e+09
1.12274e+10
4.73254e+09
7.93563e+09
9.59173e+09
9.17084e+09
8.87966e+09
6.97831e+09
1.11439e+10
8.68533e+09
6.40292e+09
5.86044e+09
1.00153e+10
1.06622e+10
9.18645e+09
9.42169e+09
8.87383e+09
9.17224e+09
8.90568e+09
7.69158e+09
5.90788e+09
5.82311e+09
9.23418e+09
6.53236e+09
8.50752e+09
7.08662e+09
7.65648e+09
7.68721e+09
5.78427e+09
8.07458e+09
9.30059e+09
6.86071e+09
5.73339e+09
6.744e+09
6.84975e+09
6.75042e+09
7.65263e+09
9.80894e+09
7.18449e+09
5.73123e+09
4.99167e+09
6.95076e+09
9.08694e+09
1.04606e+10
9.17455e+09
6.98988e+09
9.46243e+09
8.45923e+09
1.02243e+10
5.84435e+09
8.01052e+09
7.82884e+09
7.9216e+09
5.64163e+09
7.29321e+09
1.05588e+10
5.79669e+09
8.61064e+09
4.89834e+09
9.48613e+09
1.03011e+10
7.15654e+09
8.23989e+09
6.27789e+09
7.58779e+09
7.51002e+09
5.87158e+09
7.91507e+09
1.05288e+10
6.62344e+09
9.12632e+09
7.72965e+09
1.03148e+10
5.08771e+09
6.72366e+09
8.35617e+09
7.70077e+09
7.61422e+09
6.97726e+09
)
;

boundaryField
{
    inlet
    {
        type            calculated;
        value           uniform 0;
    }
    outlet
    {
        type            calculated;
        value           nonuniform 0();
    }
    wall
    {
        type            calculated;
        value           uniform 0;
    }
    procBoundary2to0
    {
        type            processor;
        value           nonuniform List<scalar> 
44
(
5.5876e+09
6.49401e+09
5.46839e+09
4.93907e+09
5.78116e+09
9.47661e+09
3.83777e+09
4.98316e+09
4.4079e+09
4.4079e+09
5.51114e+09
1.13171e+10
6.73772e+09
1.0515e+10
6.89012e+09
6.34502e+09
7.96365e+09
7.03721e+09
7.796e+09
5.51114e+09
1.13171e+10
1.13171e+10
8.04175e+09
8.77885e+09
6.43054e+09
5.39284e+09
6.9054e+09
8.67058e+09
9.57502e+09
9.0014e+09
9.97595e+09
8.04175e+09
8.77885e+09
8.77885e+09
5.58154e+09
2.6225e+09
4.8282e+09
6.73502e+09
9.83691e+09
1.02392e+10
5.51802e+09
9.84404e+09
8.57522e+09
5.58154e+09
)
;
    }
    procBoundary2to3
    {
        type            processor;
        value           nonuniform List<scalar> 
12
(
9.15282e+09
6.71089e+09
7.29525e+09
5.91963e+09
8.56384e+09
7.60095e+09
1.27439e+10
9.02716e+09
8.26854e+09
9.55442e+09
6.02829e+09
9.18337e+09
)
;
    }
    procBoundary2to6
    {
        type            processor;
        value           nonuniform List<scalar> 
32
(
8.11594e+09
6.82568e+09
8.97464e+09
6.57983e+09
6.72867e+09
6.5224e+09
9.95364e+09
8.95433e+09
6.08343e+09
7.98617e+09
1.10729e+10
6.07801e+09
8.70622e+09
8.11594e+09
6.82568e+09
6.67103e+09
6.30354e+09
9.21502e+09
8.17672e+09
1.02126e+10
8.85148e+09
8.72591e+09
6.82568e+09
6.57983e+09
8.7505e+09
5.50649e+09
7.98919e+09
6.79067e+09
6.55566e+09
9.52929e+09
6.57983e+09
9.84561e+09
)
;
    }
}


// ************************************************************************* //
