/*--------------------------------*- C++ -*----------------------------------*\
| =========                 |                                                 |
| \\      /  F ield         | OpenFOAM: The Open Source CFD Toolbox           |
|  \\    /   O peration     | Version:  4.x                                   |
|   \\  /    A nd           | Web:      www.OpenFOAM.org                      |
|    \\/     M anipulation  |                                                 |
\*---------------------------------------------------------------------------*/
FoamFile
{
    version     2.0;
    format      ascii;
    class       volVectorField;
    location    "49.5";
    object      UsNext;
}
// * * * * * * * * * * * * * * * * * * * * * * * * * * * * * * * * * * * * * //

dimensions      [0 1 -1 0 0 0 0];

internalField   nonuniform List<vector> 
114
(
(6.73137e-10 -9.76868e-11 1.3059e-10)
(8.55692e-10 -2.04246e-10 3.2801e-10)
(1.10189e-09 -3.34156e-10 3.0506e-10)
(1.34027e-09 -3.30936e-10 5.50666e-10)
(1.81683e-09 -1.24883e-09 1.1763e-09)
(2.04601e-09 -1.96567e-09 1.40463e-09)
(5.12786e-11 1.36923e-10 4.57798e-12)
(2.59746e-10 3.11794e-11 2.05054e-11)
(4.47983e-10 -7.03811e-11 6.91431e-11)
(5.68962e-10 -1.51229e-10 9.72467e-11)
(7.12722e-10 -3.4286e-10 1.6823e-10)
(1.06023e-09 -4.21685e-10 1.6631e-10)
(1.44296e-09 -7.11313e-10 3.32304e-10)
(1.56463e-09 -1.07375e-09 5.23963e-10)
(1.46928e-09 -1.33238e-09 9.13008e-10)
(6.05521e-11 2.60219e-11 1.59568e-12)
(1.84838e-10 1.92514e-11 -6.37933e-12)
(3.79286e-10 6.3416e-12 1.2773e-10)
(5.59391e-10 -8.74158e-11 1.61676e-10)
(7.01065e-10 -2.70767e-10 2.2258e-10)
(8.6654e-10 -4.0971e-10 1.3497e-10)
(1.05253e-09 -3.62089e-10 3.52671e-10)
(1.36197e-09 -8.65063e-10 5.49854e-10)
(1.30748e-09 -9.01244e-10 7.36283e-10)
(-3.67523e-11 -1.45959e-11 2.59511e-11)
(6.00606e-11 -1.36292e-11 2.87122e-11)
(1.8848e-10 -7.76229e-12 2.4862e-10)
(3.44326e-10 -5.10704e-10 3.1135e-11)
(4.81231e-10 -3.06108e-10 -5.41634e-11)
(5.13246e-10 -1.80671e-10 -9.04787e-11)
(6.75951e-10 -2.83037e-10 2.62189e-10)
(8.85464e-10 -7.01763e-10 2.72413e-10)
(9.17391e-10 -5.56339e-10 4.18184e-10)
(7.72496e-10 -2.00413e-10 3.2484e-10)
(8.93899e-10 -9.3532e-11 5.68284e-10)
(1.31504e-09 -6.168e-10 9.86509e-10)
(1.52742e-09 -9.09684e-10 1.34237e-09)
(7.37417e-11 7.45159e-11 -2.66196e-11)
(2.36615e-10 8.24391e-11 2.56615e-12)
(3.7778e-10 7.64649e-12 2.91482e-11)
(4.37496e-10 -9.08521e-11 9.78692e-11)
(5.07281e-10 -2.54754e-10 1.46524e-10)
(7.69199e-10 -2.20414e-10 8.55852e-11)
(1.05087e-09 -2.93408e-10 2.89619e-10)
(1.21398e-09 -5.13097e-10 4.67787e-10)
(1.48085e-09 -8.06554e-10 7.29854e-10)
(6.27084e-11 2.68176e-11 -5.45032e-11)
(1.7115e-10 1.6603e-11 -4.4718e-11)
(2.88973e-10 -2.61097e-11 -9.67515e-12)
(3.81347e-10 -4.84246e-11 7.18454e-11)
(4.65897e-10 -2.00176e-10 -1.72232e-11)
(6.03503e-10 -2.76839e-10 1.13254e-10)
(7.75984e-10 -3.38054e-10 2.39043e-10)
(9.19928e-10 -4.0148e-10 4.62642e-10)
(1.14326e-09 -5.57342e-10 4.97543e-10)
(2.46701e-11 -1.21461e-11 -2.35666e-11)
(9.57875e-11 -2.38738e-11 -2.39938e-11)
(1.70714e-10 -5.09299e-11 -4.458e-11)
(2.60089e-10 -3.00884e-11 -2.37319e-11)
(3.51587e-10 -1.05204e-10 -2.08781e-10)
(3.51992e-10 -1.75799e-10 1.93981e-11)
(4.41769e-10 -2.04575e-10 1.59573e-10)
(5.74034e-10 -2.25869e-10 1.75506e-10)
(5.07702e-10 -1.63729e-10 1.57594e-10)
(9.64178e-10 1.90735e-10 1.02646e-09)
(1.17008e-09 9.99989e-11 1.41729e-09)
(7.81596e-11 3.85214e-11 5.51182e-11)
(1.51899e-10 3.51985e-12 9.63377e-11)
(2.54823e-10 -3.48538e-11 1.06563e-10)
(2.38174e-10 -7.92257e-11 1.80967e-10)
(3.19718e-10 -1.87606e-10 2.44453e-10)
(4.89739e-10 -4.4115e-11 2.25169e-10)
(6.30036e-10 -7.4387e-11 3.99998e-10)
(9.26681e-10 4.61234e-12 5.10023e-10)
(1.13213e-09 -1.60353e-10 5.2751e-10)
(4.4631e-11 4.63934e-11 2.09598e-11)
(7.30472e-11 -1.06646e-11 9.76829e-11)
(1.23069e-10 7.02936e-12 8.76859e-11)
(1.25824e-10 1.68015e-12 1.38116e-10)
(2.2578e-10 -9.7788e-11 1.51155e-10)
(3.54804e-10 -1.22691e-10 1.61172e-10)
(4.86736e-10 -2.34088e-10 2.92168e-10)
(7.10108e-10 -5.40047e-11 4.03179e-10)
(1.03529e-09 -2.1826e-10 3.03828e-10)
(2.68863e-11 -2.85144e-11 7.62848e-13)
(6.29926e-11 -3.06184e-11 1.61313e-11)
(5.8618e-11 -4.90926e-11 1.18881e-11)
(1.24661e-10 -5.47409e-11 1.05274e-11)
(2.24308e-10 -8.14089e-11 -4.15554e-12)
(2.11416e-10 -1.08705e-10 7.16293e-11)
(2.92105e-10 -1.1737e-10 1.39438e-10)
(4.14238e-10 -1.7246e-10 2.24527e-10)
(6.26252e-10 -9.23515e-11 1.97773e-10)
(7.47911e-11 3.10228e-11 6.68939e-11)
(2.16256e-10 -4.7456e-11 1.44067e-10)
(2.96235e-10 -1.08186e-10 1.65743e-10)
(3.29432e-10 -1.01565e-10 1.6529e-10)
(4.40569e-10 -4.33943e-11 2.43565e-10)
(6.5876e-10 -3.13736e-11 2.50406e-10)
(8.60524e-10 1.23789e-10 3.80406e-10)
(1.37722e-09 1.81926e-10 4.11879e-10)
(2.30104e-11 4.31264e-11 2.63978e-11)
(1.56358e-10 -3.196e-11 1.20379e-10)
(1.60952e-10 -3.14466e-11 1.3248e-10)
(2.22511e-10 -4.60211e-11 1.37979e-10)
(2.8342e-10 -1.24495e-10 1.70172e-10)
(4.27035e-10 -4.02947e-11 2.00549e-10)
(5.49035e-10 -9.34422e-11 3.03711e-10)
(9.41264e-12 -3.85707e-11 1.09943e-11)
(5.28431e-11 -4.73925e-11 2.22e-11)
(7.47693e-11 -3.76659e-11 6.24554e-11)
(8.2857e-11 -6.89708e-11 4.50658e-11)
(1.71649e-10 -8.97898e-11 7.70872e-11)
(1.82714e-10 -7.59336e-11 7.17845e-11)
)
;

boundaryField
{
    inlet
    {
        type            calculated;
        value           nonuniform List<vector> 
12
(
(5.12786e-11 1.36923e-10 4.57798e-12)
(6.05521e-11 2.60219e-11 1.59568e-12)
(-3.67523e-11 -1.45959e-11 2.59511e-11)
(7.37417e-11 7.45159e-11 -2.66196e-11)
(6.27084e-11 2.68176e-11 -5.45032e-11)
(2.46701e-11 -1.21461e-11 -2.35666e-11)
(7.81596e-11 3.85214e-11 5.51182e-11)
(4.4631e-11 4.63934e-11 2.09598e-11)
(2.68863e-11 -2.85144e-11 7.62848e-13)
(7.47911e-11 3.10228e-11 6.68939e-11)
(2.30104e-11 4.31264e-11 2.63978e-11)
(9.41264e-12 -3.85707e-11 1.09943e-11)
)
;
    }
    outlet
    {
        type            calculated;
        value           nonuniform 0();
    }
    wall
    {
        type            calculated;
        value           nonuniform List<vector> 
66
(
(5.12786e-11 1.36923e-10 4.57798e-12)
(6.05521e-11 2.60219e-11 1.59568e-12)
(-3.67523e-11 -1.45959e-11 2.59511e-11)
(2.59746e-10 3.11794e-11 2.05054e-11)
(1.84838e-10 1.92514e-11 -6.37933e-12)
(6.00606e-11 -1.36292e-11 2.87122e-11)
(4.47983e-10 -7.03811e-11 6.91431e-11)
(3.79286e-10 6.3416e-12 1.2773e-10)
(1.8848e-10 -7.76229e-12 2.4862e-10)
(6.73137e-10 -9.76868e-11 1.3059e-10)
(5.68962e-10 -1.51229e-10 9.72467e-11)
(5.59391e-10 -8.74158e-11 1.61676e-10)
(3.44326e-10 -5.10704e-10 3.1135e-11)
(8.55692e-10 -2.04246e-10 3.2801e-10)
(7.12722e-10 -3.4286e-10 1.6823e-10)
(7.01065e-10 -2.70767e-10 2.2258e-10)
(4.81231e-10 -3.06108e-10 -5.41634e-11)
(1.10189e-09 -3.34156e-10 3.0506e-10)
(1.06023e-09 -4.21685e-10 1.6631e-10)
(8.6654e-10 -4.0971e-10 1.3497e-10)
(5.13246e-10 -1.80671e-10 -9.04787e-11)
(1.34027e-09 -3.30936e-10 5.50666e-10)
(1.44296e-09 -7.11313e-10 3.32304e-10)
(1.05253e-09 -3.62089e-10 3.52671e-10)
(6.75951e-10 -2.83037e-10 2.62189e-10)
(1.81683e-09 -1.24883e-09 1.1763e-09)
(1.56463e-09 -1.07375e-09 5.23963e-10)
(1.36197e-09 -8.65063e-10 5.49854e-10)
(8.85464e-10 -7.01763e-10 2.72413e-10)
(2.04601e-09 -1.96567e-09 1.40463e-09)
(1.46928e-09 -1.33238e-09 9.13008e-10)
(1.30748e-09 -9.01244e-10 7.36283e-10)
(9.17391e-10 -5.56339e-10 4.18184e-10)
(-3.67523e-11 -1.45959e-11 2.59511e-11)
(2.46701e-11 -1.21461e-11 -2.35666e-11)
(2.68863e-11 -2.85144e-11 7.62848e-13)
(9.41264e-12 -3.85707e-11 1.09943e-11)
(6.00606e-11 -1.36292e-11 2.87122e-11)
(9.57875e-11 -2.38738e-11 -2.39938e-11)
(6.29926e-11 -3.06184e-11 1.61313e-11)
(5.28431e-11 -4.73925e-11 2.22e-11)
(1.8848e-10 -7.76229e-12 2.4862e-10)
(1.70714e-10 -5.09299e-11 -4.458e-11)
(5.8618e-11 -4.90926e-11 1.18881e-11)
(7.47693e-11 -3.76659e-11 6.24554e-11)
(3.44326e-10 -5.10704e-10 3.1135e-11)
(2.60089e-10 -3.00884e-11 -2.37319e-11)
(1.24661e-10 -5.47409e-11 1.05274e-11)
(8.2857e-11 -6.89708e-11 4.50658e-11)
(4.81231e-10 -3.06108e-10 -5.41634e-11)
(3.51587e-10 -1.05204e-10 -2.08781e-10)
(2.24308e-10 -8.14089e-11 -4.15554e-12)
(1.71649e-10 -8.97898e-11 7.70872e-11)
(5.13246e-10 -1.80671e-10 -9.04787e-11)
(3.51992e-10 -1.75799e-10 1.93981e-11)
(2.11416e-10 -1.08705e-10 7.16293e-11)
(1.82714e-10 -7.59336e-11 7.17845e-11)
(6.75951e-10 -2.83037e-10 2.62189e-10)
(4.41769e-10 -2.04575e-10 1.59573e-10)
(2.92105e-10 -1.1737e-10 1.39438e-10)
(8.85464e-10 -7.01763e-10 2.72413e-10)
(5.74034e-10 -2.25869e-10 1.75506e-10)
(4.14238e-10 -1.7246e-10 2.24527e-10)
(9.17391e-10 -5.56339e-10 4.18184e-10)
(5.07702e-10 -1.63729e-10 1.57594e-10)
(6.26252e-10 -9.23515e-11 1.97773e-10)
)
;
    }
    procBoundary2to0
    {
        type            processor;
        value           nonuniform List<vector> 
44
(
(9.27204e-10 -2.84406e-10 1.5653e-10)
(8.89833e-10 -4.69357e-10 1.90331e-10)
(9.55959e-10 -2.93793e-10 2.81157e-10)
(1.10758e-09 -1.88598e-10 6.28724e-10)
(1.78511e-09 -8.88411e-10 1.49064e-09)
(1.8263e-09 -1.81321e-09 2.18011e-09)
(1.47215e-10 3.27853e-10 9.34837e-11)
(4.26751e-10 1.84322e-10 1.03241e-10)
(5.34782e-10 5.04743e-11 9.78682e-11)
(5.34782e-10 5.04743e-11 9.78682e-11)
(6.02682e-10 -7.53196e-11 1.68811e-10)
(6.51938e-10 -2.09662e-10 2.7577e-10)
(7.02491e-10 -2.36598e-10 2.32806e-10)
(6.86952e-10 -1.51069e-10 6.53857e-10)
(5.66992e-10 -1.81483e-10 1.52511e-09)
(8.73069e-10 -1.45451e-10 2.77838e-09)
(1.34752e-10 2.32528e-10 1.14825e-10)
(3.47119e-10 2.1502e-10 1.15211e-10)
(5.01611e-10 1.47357e-10 1.7524e-10)
(6.02682e-10 -7.53196e-11 1.68811e-10)
(6.51938e-10 -2.09662e-10 2.7577e-10)
(6.51938e-10 -2.09662e-10 2.7577e-10)
(6.4032e-10 -3.89061e-11 3.90225e-10)
(7.68944e-10 2.47993e-10 6.13462e-10)
(-1.48098e-10 6.10338e-10 1.47365e-09)
(-6.78089e-10 2.05549e-09 3.07105e-09)
(7.2138e-11 1.09649e-10 1.44919e-10)
(2.62818e-10 5.93699e-11 2.10847e-10)
(3.65731e-10 1.63766e-11 2.36805e-10)
(4.15802e-10 -7.57228e-11 2.45461e-10)
(5.62348e-10 -1.52538e-10 3.38855e-10)
(6.4032e-10 -3.89061e-11 3.90225e-10)
(7.68944e-10 2.47993e-10 6.13462e-10)
(7.68944e-10 2.47993e-10 6.13462e-10)
(9.96861e-10 5.46326e-10 9.20488e-10)
(1.42972e-09 3.51938e-10 1.04681e-09)
(6.54061e-11 6.81542e-11 1.39799e-10)
(2.9145e-10 2.22176e-11 2.06385e-10)
(4.87114e-10 1.73955e-11 1.62533e-10)
(9.04962e-10 4.35503e-11 2.71094e-10)
(1.10698e-09 1.4798e-10 4.46039e-10)
(1.08597e-09 9.97822e-11 4.67614e-10)
(1.15225e-09 4.37723e-10 6.07282e-10)
(9.96861e-10 5.46326e-10 9.20488e-10)
)
;
    }
    procBoundary2to3
    {
        type            processor;
        value           nonuniform List<vector> 
12
(
(2.0777e-09 -3.41474e-09 1.56756e-09)
(1.46025e-09 -1.41367e-09 7.73057e-10)
(1.54694e-09 2.90665e-10 3.45101e-10)
(7.78213e-10 -3.12973e-10 2.43131e-10)
(2.09838e-09 -2.08647e-09 1.32943e-09)
(1.61538e-09 -9.05795e-10 6.48566e-10)
(1.38119e-09 -4.22248e-10 4.85742e-10)
(9.37433e-10 -1.19137e-10 3.29341e-10)
(2.02469e-09 -1.92976e-10 1.22175e-09)
(1.68375e-09 -3.18632e-10 6.53833e-10)
(1.47655e-09 -3.06931e-10 3.29974e-10)
(8.25045e-10 -3.16942e-10 2.14342e-10)
)
;
    }
    procBoundary2to6
    {
        type            processor;
        value           nonuniform List<vector> 
32
(
(1.53966e-09 3.28959e-10 3.88374e-10)
(9.64548e-10 1.11671e-10 2.9412e-10)
(1.26346e-09 -7.60468e-11 2.16501e-10)
(1.81805e-10 -3.10394e-11 9.24701e-11)
(4.38211e-10 1.99309e-11 1.63984e-10)
(3.46063e-10 -1.03188e-10 6.04876e-11)
(9.437e-11 -3.77724e-11 5.36212e-11)
(2.26967e-10 -9.81405e-11 1.02679e-10)
(3.01841e-10 -1.34593e-10 7.84684e-11)
(4.68332e-10 -1.11188e-10 1.33982e-10)
(7.2582e-10 -9.43593e-11 2.75198e-10)
(9.56163e-10 -1.99392e-11 1.52671e-10)
(1.06241e-09 1.08583e-10 1.93468e-10)
(1.53966e-09 3.28959e-10 3.88374e-10)
(9.64548e-10 1.11671e-10 2.9412e-10)
(1.26012e-09 6.60244e-11 2.67865e-10)
(6.86743e-11 1.97415e-11 -1.94062e-11)
(9.10502e-11 -3.40425e-11 4.5186e-11)
(1.6883e-10 -4.54573e-11 4.79858e-11)
(2.14541e-10 -8.03469e-11 8.90726e-11)
(3.10556e-10 -1.72333e-10 1.6013e-10)
(4.20833e-10 -9.31696e-11 1.50388e-10)
(9.64548e-10 1.11671e-10 2.9412e-10)
(1.81805e-10 -3.10394e-11 9.24701e-11)
(8.03629e-10 -7.01243e-11 2.14953e-10)
(1.67038e-11 -1.4697e-11 1.15618e-11)
(8.93748e-11 -4.51502e-11 2.24321e-11)
(5.08994e-11 -4.98772e-11 6.25174e-12)
(7.24244e-11 -7.26323e-11 3.04967e-11)
(9.3585e-11 -7.48252e-11 3.47393e-11)
(1.81805e-10 -3.10394e-11 9.24701e-11)
(1.48453e-10 -1.0684e-10 7.08775e-11)
)
;
    }
}


// ************************************************************************* //
