/*--------------------------------*- C++ -*----------------------------------*\
| =========                 |                                                 |
| \\      /  F ield         | OpenFOAM: The Open Source CFD Toolbox           |
|  \\    /   O peration     | Version:  4.x                                   |
|   \\  /    A nd           | Web:      www.OpenFOAM.org                      |
|    \\/     M anipulation  |                                                 |
\*---------------------------------------------------------------------------*/
FoamFile
{
    version     2.0;
    format      ascii;
    class       volScalarField;
    location    "9";
    object      KslNext;
}
// * * * * * * * * * * * * * * * * * * * * * * * * * * * * * * * * * * * * * //

dimensions      [1 -3 -1 0 0 0 0];

internalField   nonuniform List<scalar> 
132
(
3346.95
5866.21
3005.84
4280.57
2724.35
3596.66
2560.67
3308.83
2428.79
3376.64
6330.56
3146.78
4824.29
2905.32
4216.91
2799.83
4284.92
2880.81
3403.82
6581.38
3213.15
5201.81
3054.91
4859.65
3017.29
5876.43
3245.76
3411.36
6666.95
3199.24
3418.64
6934.03
3293.42
5967.82
3224.12
5415.13
3152.87
5003.89
2949.91
3442.79
7999.62
3493.1
7977.77
3605.71
8923.78
3661.65
10278.7
3581.03
3495.48
8598.5
3591.89
9426.57
3749.02
11873
3802.69
14932.5
3653.35
3529.63
8814.54
3647.5
10338.9
3872.52
3449.21
7518.97
3446.26
7076.71
3435.92
6751.67
3388.64
6236.33
3202.06
3500.08
9065.61
3674.48
11080
3852.96
15074.6
3933.84
19646.7
3843.99
3561.85
9936.18
3821.01
15611.6
4039.86
27740
4044.73
33841.5
3911.18
3584.89
10590.5
3894.07
18692.8
4096.51
36773.3
4088.31
3438.48
7309.59
3423.94
6819.14
3379.27
6477.46
3313.08
5923.78
3146.06
3505.99
9098.5
3692.69
11107.5
3782.26
13082.8
3807.47
14614.3
3730.16
3569.38
9568.19
3804.73
13536.7
3883.88
17968.6
3865.71
19685.1
3761.42
3554.75
10016
3853.13
15299.2
3917.1
19056.9
3890.05
18282.4
3819.8
)
;

boundaryField
{
    inlet
    {
        type            zeroGradient;
    }
    outlet
    {
        type            zeroGradient;
    }
    wall
    {
        type            zeroGradient;
    }
    procBoundary0to1
    {
        type            processor;
        value           uniform 0;
    }
    procBoundary0to2
    {
        type            processor;
        value           uniform 0;
    }
    procBoundary0to4
    {
        type            processor;
        value           uniform 0;
    }
    procBoundary0to6
    {
        type            processor;
        value           uniform 0;
    }
    procBoundary0to7
    {
        type            processor;
        value           uniform 0;
    }
}


// ************************************************************************* //
