/*--------------------------------*- C++ -*----------------------------------*\
| =========                 |                                                 |
| \\      /  F ield         | OpenFOAM: The Open Source CFD Toolbox           |
|  \\    /   O peration     | Version:  4.x                                   |
|   \\  /    A nd           | Web:      www.OpenFOAM.org                      |
|    \\/     M anipulation  |                                                 |
\*---------------------------------------------------------------------------*/
FoamFile
{
    version     2.0;
    format      ascii;
    class       volScalarField;
    location    "9";
    object      QPartFluidCoeff;
}
// * * * * * * * * * * * * * * * * * * * * * * * * * * * * * * * * * * * * * //

dimensions      [1 -1 -3 -1 0 0 0];

internalField   nonuniform List<scalar> 
132
(
-1.25761e+07
-1.18786e+07
-1.23746e+07
-1.01651e+07
-1.46674e+07
-1.58063e+07
-2.08009e+07
-1.36916e+07
-6.84334e+06
-1.5401e+07
-1.68987e+07
-1.88491e+07
-1.91541e+07
-1.30289e+07
-2.30414e+07
-1.71385e+07
-1.81933e+07
-1.8329e+07
-1.03081e+07
-1.97221e+07
-1.9233e+07
-1.74158e+07
-1.87251e+07
-1.6625e+07
-1.32013e+07
-1.544e+07
-2.84891e+07
-9.81371e+06
-1.52072e+07
-1.17088e+07
-1.40732e+07
-2.3375e+07
-2.86889e+07
-2.58895e+07
-2.57567e+07
-2.55469e+07
-2.6278e+07
-2.30866e+07
-2.43305e+07
-1.64836e+07
-3.15655e+07
-2.65721e+07
-2.8605e+07
-3.1948e+07
-2.87635e+07
-2.79256e+07
-3.03985e+07
-2.85498e+07
-1.75427e+07
-3.16636e+07
-2.79374e+07
-2.51623e+07
-2.71779e+07
-2.54047e+07
-3.43671e+07
-2.26969e+07
-2.05715e+07
-2.6376e+07
-2.35393e+07
-2.57384e+07
-1.76547e+07
-3.78284e+07
-1.8431e+07
-2.3233e+07
-2.68262e+07
-2.34053e+07
-2.45736e+07
-1.87354e+07
-2.64226e+07
-2.34215e+07
-1.79435e+07
-2.06673e+07
-2.75079e+07
-2.7633e+07
-2.11431e+07
-3.03117e+07
-2.1882e+07
-3.06186e+07
-3.29001e+07
-2.53703e+07
-2.22004e+07
-2.39543e+07
-2.661e+07
-3.05193e+07
-3.19301e+07
-2.62649e+07
-2.99789e+07
-2.10997e+07
-1.77946e+07
-2.28229e+07
-2.87678e+07
-3.13623e+07
-2.87299e+07
-3.30463e+07
-2.61717e+07
-2.85175e+07
-1.43331e+07
-1.6703e+07
-2.2304e+07
-1.7336e+07
-2.32981e+07
-2.72691e+07
-1.95135e+07
-1.47198e+07
-2.02729e+07
-1.69962e+07
-3.18952e+07
-2.99806e+07
-2.66713e+07
-2.36488e+07
-2.08704e+07
-3.43921e+07
-2.4405e+07
-2.31094e+07
-1.71523e+07
-1.87298e+07
-2.98287e+07
-2.05514e+07
-2.86375e+07
-2.86856e+07
-2.74237e+07
-1.73186e+07
-3.1453e+07
-1.59815e+07
-2.24065e+07
-3.18031e+07
-3.43511e+07
-1.783e+07
-3.30141e+07
-2.8348e+07
-1.9057e+07
-8.8609e+06
)
;

boundaryField
{
    inlet
    {
        type            calculated;
        value           uniform 0;
    }
    outlet
    {
        type            calculated;
        value           nonuniform 0();
    }
    wall
    {
        type            calculated;
        value           uniform 0;
    }
    procBoundary0to1
    {
        type            processor;
        value           nonuniform List<scalar> 
12
(
326.357
328.308
275.643
553.51
705.27
675.834
554.616
679.411
626.517
518.584
616.146
463.573
)
;
    }
    procBoundary0to2
    {
        type            processor;
        value           nonuniform List<scalar> 
44
(
549.151
423.302
231.154
441.534
204.053
216.97
436.771
528.788
549.151
464.896
549.151
423.302
732.124
904.594
483.404
838.811
355.581
603.368
724.595
692.577
732.124
677.526
732.124
904.594
596.172
686.129
514.815
434.1
504.972
516.208
502.145
578.552
596.172
733.775
596.172
686.129
367.031
715.504
769.295
539.751
582.289
506.325
568.535
598.759
)
;
    }
    procBoundary0to4
    {
        type            processor;
        value           nonuniform List<scalar> 
36
(
368.262
537.53
628.233
448.727
530.969
448.123
661.255
515.999
719.906
526.561
547.891
690.722
736.773
748.171
627.486
596.552
416.243
829.543
501.268
773.746
598.087
708.543
631.63
471.491
543.481
778.368
501.152
260.009
506.647
700.651
428.314
656.637
476.153
851.903
455.787
529.934
)
;
    }
    procBoundary0to6
    {
        type            processor;
        value           uniform 616.046;
    }
    procBoundary0to7
    {
        type            processor;
        value           uniform 800.282;
    }
}


// ************************************************************************* //
