/*--------------------------------*- C++ -*----------------------------------*\
| =========                 |                                                 |
| \\      /  F ield         | OpenFOAM: The Open Source CFD Toolbox           |
|  \\    /   O peration     | Version:  4.x                                   |
|   \\  /    A nd           | Web:      www.OpenFOAM.org                      |
|    \\/     M anipulation  |                                                 |
\*---------------------------------------------------------------------------*/
FoamFile
{
    version     2.0;
    format      ascii;
    class       volVectorField;
    location    "9";
    object      UsPrev;
}
// * * * * * * * * * * * * * * * * * * * * * * * * * * * * * * * * * * * * * //

dimensions      [0 1 -1 0 0 0 0];

internalField   nonuniform List<vector> 
132
(
(-3.53618e-08 -2.38656e-08 -9.5782e-09)
(-5.09994e-08 4.84103e-09 9.42519e-09)
(-6.75091e-08 3.37092e-08 8.26391e-09)
(-3.22665e-08 2.4465e-09 -5.20617e-09)
(-2.04263e-08 -1.26075e-08 -1.39477e-08)
(-3.28812e-08 -8.54669e-09 -2.26868e-08)
(-3.34793e-08 -1.10305e-08 -2.64333e-08)
(-2.72571e-08 -1.5225e-09 3.35606e-09)
(-2.69575e-08 1.01636e-09 2.20512e-08)
(-1.06066e-08 -2.75053e-08 1.97787e-09)
(-4.03283e-08 -5.99124e-09 3.08607e-09)
(-6.50551e-08 9.11586e-09 -3.34326e-09)
(-5.04446e-08 1.16251e-08 -2.11135e-08)
(-4.60668e-08 2.59113e-09 -4.04094e-08)
(-4.61949e-08 -1.19863e-08 -4.16347e-08)
(-3.11585e-08 -1.92088e-08 -2.19683e-08)
(-1.76383e-08 -1.64167e-08 1.78569e-08)
(-1.61901e-08 -4.57708e-09 6.36959e-08)
(-1.8662e-08 -1.41328e-08 -2.85727e-09)
(-2.68772e-08 -3.14101e-09 2.13146e-09)
(-3.98486e-08 7.24267e-09 -1.34395e-08)
(-4.22046e-08 7.97895e-09 -3.65195e-08)
(-4.39405e-08 7.38067e-09 -5.48273e-08)
(-3.62195e-08 -1.77698e-08 -4.65018e-08)
(-3.7283e-08 -2.18762e-08 -2.19395e-08)
(-3.05124e-09 -3.72723e-08 2.52675e-08)
(-4.72211e-09 -3.51914e-08 7.88194e-08)
(-1.06842e-09 -1.10588e-08 3.78629e-09)
(-1.55106e-08 4.14874e-09 7.38841e-10)
(-2.97275e-08 5.48926e-09 -9.1046e-09)
(-2.01394e-08 -1.03839e-08 -2.42119e-08)
(-3.45183e-08 4.0057e-10 4.2628e-09)
(-2.90852e-08 -5.82213e-10 5.02762e-09)
(-3.74245e-08 2.01879e-09 2.94776e-09)
(-3.33436e-08 -2.55689e-09 -1.41741e-08)
(-4.04949e-08 -1.41953e-08 -2.5003e-08)
(-4.24606e-08 1.48698e-09 -2.99411e-08)
(-5.64825e-08 -5.68469e-09 9.19713e-10)
(-4.76796e-08 -1.39075e-08 2.58994e-08)
(-9.14226e-09 -1.28324e-08 -2.91497e-09)
(-3.01764e-08 -3.81214e-09 -2.68288e-09)
(-4.10963e-08 2.6793e-09 -4.55886e-09)
(-3.97459e-08 6.12034e-09 -2.00317e-08)
(-4.88869e-08 -6.69844e-10 -3.7946e-08)
(-5.80414e-08 -1.10777e-08 -3.78369e-08)
(-7.08737e-08 -1.82146e-08 -2.75551e-08)
(-7.26004e-08 -1.90323e-08 1.22446e-08)
(-6.88496e-08 -8.54092e-09 4.55602e-08)
(-6.71315e-10 -8.00046e-09 -1.22286e-09)
(-2.16485e-08 -3.12045e-09 1.83288e-09)
(-2.90591e-08 4.59188e-09 -1.49165e-08)
(-3.86013e-08 9.34258e-09 -3.40559e-08)
(-5.08647e-08 3.05592e-09 -4.38808e-08)
(-6.00155e-08 -9.8661e-09 -4.54974e-08)
(-6.50236e-08 -2.59612e-08 -2.03858e-08)
(-7.81713e-08 -2.52082e-08 1.99036e-08)
(-7.72477e-08 -1.61799e-08 7.55394e-08)
(-2.39924e-09 -5.01157e-09 3.59496e-09)
(-1.05145e-08 -1.61007e-09 -1.12904e-09)
(-1.70691e-08 -1.54032e-09 -1.43092e-08)
(-3.02692e-08 5.91546e-09 -3.81724e-08)
(-4.07361e-08 -3.49595e-09 -4.33753e-08)
(-9.64948e-10 -1.91528e-09 -1.09674e-08)
(-5.61185e-09 -5.66663e-10 -2.05309e-09)
(-9.41646e-09 6.5322e-10 1.88576e-09)
(-2.09897e-08 -3.66343e-10 -9.21036e-09)
(-3.34913e-08 1.42339e-09 -1.32256e-08)
(-6.08029e-08 -1.06477e-08 -1.91364e-08)
(-7.18133e-08 -1.39838e-08 -2.30697e-08)
(-7.98809e-08 -6.20966e-09 5.36789e-10)
(-8.48205e-08 -1.13442e-08 6.75099e-09)
(-1.12186e-09 -2.80614e-09 -4.42899e-09)
(-6.07681e-09 -6.49818e-10 -1.35614e-09)
(-1.62322e-08 1.20451e-10 -7.30774e-09)
(-3.11427e-08 -8.63481e-10 -2.18139e-08)
(-4.85919e-08 1.54661e-10 -2.57872e-08)
(-7.26236e-08 -9.55037e-09 -3.19855e-08)
(-9.90988e-08 -2.41285e-08 -2.08017e-08)
(-1.18471e-07 -1.3576e-08 3.57583e-09)
(-1.27823e-07 -9.56974e-09 2.12638e-08)
(9.76921e-10 -1.95245e-09 9.84579e-11)
(-1.5917e-09 -2.46714e-10 -6.67916e-10)
(-1.54672e-08 -1.17142e-09 -1.18258e-08)
(-3.14036e-08 -2.69517e-09 -2.45956e-08)
(-5.87359e-08 -6.02925e-09 -3.13556e-08)
(-8.73394e-08 -1.39698e-08 -3.28306e-08)
(-1.15674e-07 -1.75214e-08 -1.87784e-08)
(-1.37355e-07 -1.72033e-08 1.1551e-08)
(-1.38213e-07 -1.30608e-08 3.31594e-08)
(9.54546e-10 -1.50569e-09 1.98551e-09)
(-1.50854e-09 -6.42467e-11 -1.68253e-09)
(-5.48059e-09 -7.56204e-10 -1.36466e-08)
(-2.28155e-08 1.77855e-09 -2.70638e-08)
(-5.57216e-08 -9.14407e-10 -3.81845e-08)
(-7.92542e-08 -8.77089e-09 -3.1343e-08)
(-1.13991e-07 -1.12228e-08 -1.38798e-08)
(2.34343e-09 -5.34778e-11 -4.59396e-09)
(1.86822e-09 2.93458e-09 -9.1203e-10)
(-3.46848e-09 1.39857e-09 1.23596e-10)
(-2.11511e-08 -2.14161e-09 -6.924e-09)
(-3.10606e-08 1.92615e-09 -9.35141e-09)
(-5.79892e-08 -7.98139e-09 -1.32738e-08)
(-7.1784e-08 -8.96382e-09 -1.04652e-08)
(-1.10484e-07 -1.07722e-09 -8.88137e-10)
(-1.17991e-07 -9.45929e-09 2.89375e-09)
(2.06655e-09 8.49457e-11 -2.74415e-09)
(1.0695e-09 1.52771e-09 -5.81873e-10)
(-6.58109e-09 -8.48831e-12 -2.10154e-09)
(-3.47821e-08 -2.26718e-09 -1.29781e-08)
(-5.77537e-08 -4.48678e-09 -1.88302e-08)
(-7.57944e-08 -8.89219e-09 -2.18116e-08)
(-1.09894e-07 -1.38963e-08 -7.55153e-09)
(-1.3507e-07 -8.22169e-09 5.59903e-09)
(-1.4624e-07 -1.52151e-08 1.23717e-08)
(5.83253e-09 1.24885e-09 -6.98647e-10)
(4.83061e-09 2.28914e-09 -8.44073e-10)
(-1.73508e-09 1.35779e-09 -7.01899e-09)
(-2.83773e-08 9.61539e-10 -1.17333e-08)
(-5.74769e-08 -1.30284e-08 -2.09277e-08)
(-9.45917e-08 -1.07218e-08 -2.45902e-08)
(-1.27798e-07 -1.59969e-08 -1.12348e-08)
(-1.47488e-07 -1.59712e-08 7.44086e-09)
(-1.61266e-07 -2.06489e-08 2.06286e-08)
(5.3239e-09 1.70585e-09 1.74443e-09)
(6.50308e-09 1.98909e-09 -7.75271e-10)
(-5.20437e-10 4.05714e-09 -7.90058e-09)
(-2.50199e-08 2.54658e-09 -2.10165e-08)
(-5.99362e-08 -8.16924e-09 -3.08912e-08)
(-1.00965e-07 -8.92437e-09 -2.45046e-08)
(-1.34176e-07 -1.32476e-08 -7.99981e-09)
(-1.46472e-07 -1.56355e-08 1.13756e-08)
(-1.54642e-07 -1.82697e-08 3.75094e-08)
)
;

boundaryField
{
    inlet
    {
        type            calculated;
        value           uniform (0 0 0);
    }
    outlet
    {
        type            calculated;
        value           nonuniform 0();
    }
    wall
    {
        type            calculated;
        value           uniform (0 0 0);
    }
    procBoundary0to1
    {
        type            processor;
        value           uniform (0 0 0);
    }
    procBoundary0to2
    {
        type            processor;
        value           uniform (0 0 0);
    }
    procBoundary0to4
    {
        type            processor;
        value           uniform (0 0 0);
    }
    procBoundary0to6
    {
        type            processor;
        value           uniform (0 0 0);
    }
    procBoundary0to7
    {
        type            processor;
        value           uniform (0 0 0);
    }
}


// ************************************************************************* //
