/*--------------------------------*- C++ -*----------------------------------*\
| =========                 |                                                 |
| \\      /  F ield         | OpenFOAM: The Open Source CFD Toolbox           |
|  \\    /   O peration     | Version:  4.x                                   |
|   \\  /    A nd           | Web:      www.OpenFOAM.org                      |
|    \\/     M anipulation  |                                                 |
\*---------------------------------------------------------------------------*/
FoamFile
{
    version     2.0;
    format      ascii;
    class       volScalarField;
    location    "55";
    object      SPartFluid;
}
// * * * * * * * * * * * * * * * * * * * * * * * * * * * * * * * * * * * * * //

dimensions      [1 -3 -1 0 0 0 0];

internalField   nonuniform List<scalar> 
132
(
9.92026e-65
7.82769e-65
6.43261e-65
6.74256e-65
1.06176e-64
1.03851e-64
7.98257e-65
5.65755e-65
8.37007e-65
7.67264e-65
9.45517e-65
7.2851e-65
6.89757e-65
8.29256e-65
5.65754e-65
7.51757e-65
6.43256e-65
7.9826e-65
4.80507e-65
7.44011e-65
6.12258e-65
7.13009e-65
7.44008e-65
8.06009e-65
7.51759e-65
7.20759e-65
8.60261e-65
6.5101e-65
6.5876e-65
8.68012e-65
5.50257e-65
7.28509e-65
6.74259e-65
7.90511e-65
5.89008e-65
4.34006e-65
6.43258e-65
7.36261e-65
6.43263e-65
6.89758e-65
8.60257e-65
8.44757e-65
7.36258e-65
3.95256e-65
8.52514e-65
7.4401e-65
7.5176e-65
8.13761e-65
7.05258e-65
5.73505e-65
7.67258e-65
5.73507e-65
5.50258e-65
8.21512e-65
6.9751e-65
6.04507e-65
7.36258e-65
8.6026e-65
8.9126e-65
7.05259e-65
7.98261e-65
6.7426e-65
7.90512e-65
5.96759e-65
7.20759e-65
7.36259e-65
6.20008e-65
6.58758e-65
7.98261e-65
5.34757e-65
5.03761e-65
5.81259e-65
7.36257e-65
6.04505e-65
5.81256e-65
8.06014e-65
7.36262e-65
6.82011e-65
5.19258e-65
8.52514e-65
7.0526e-65
7.13008e-65
8.7576e-65
7.51759e-65
7.05261e-65
7.36262e-65
7.51762e-65
6.9751e-65
7.98261e-65
7.5951e-65
7.6726e-65
7.05259e-65
7.75011e-65
5.58008e-65
6.3551e-65
7.05261e-65
6.8976e-65
6.12258e-65
5.27007e-65
7.5951e-65
7.0526e-65
5.81258e-65
5.50256e-65
6.43257e-65
6.12257e-65
6.89763e-65
5.8126e-65
7.67264e-65
7.44013e-65
5.19258e-65
3.87506e-65
6.89759e-65
6.66508e-65
5.42507e-65
5.9676e-65
6.0451e-65
6.0451e-65
6.2001e-65
6.8976e-65
6.35509e-65
7.20759e-65
6.43259e-65
7.2851e-65
6.04509e-65
7.44011e-65
5.65759e-65
5.81259e-65
6.5876e-65
6.51009e-65
6.51009e-65
6.35509e-65
4.10756e-65
)
;

boundaryField
{
    inlet
    {
        type            calculated;
        value           nonuniform 0();
    }
    outlet
    {
        type            calculated;
        value           uniform 0;
    }
    wall
    {
        type            calculated;
        value           uniform 0;
    }
    procBoundary7to0
    {
        type            processor;
        value           uniform 2.32505e-65;
    }
    procBoundary7to1
    {
        type            processor;
        value           uniform 5.73524e-65;
    }
    procBoundary7to3
    {
        type            processor;
        value           nonuniform List<scalar> 
36
(
7.67267e-65
9.0677e-65
8.75765e-65
8.5251e-65
6.12254e-65
6.27756e-65
8.52512e-65
7.13006e-65
7.43999e-65
9.06765e-65
5.03758e-65
7.75012e-65
4.34005e-65
4.65004e-65
7.9051e-65
7.28511e-65
8.83514e-65
6.12258e-65
5.11508e-65
8.13762e-65
8.21512e-65
5.81258e-65
6.82008e-65
7.98261e-65
6.66511e-65
7.20763e-65
5.50258e-65
8.52512e-65
4.03006e-65
5.42508e-65
6.12259e-65
5.58008e-65
7.13011e-65
6.20011e-65
7.90514e-65
8.52513e-65
)
;
    }
    procBoundary7to5
    {
        type            processor;
        value           nonuniform List<scalar> 
44
(
8.44779e-65
6.04509e-65
7.51755e-65
5.73502e-65
4.57252e-65
6.9751e-65
5.42507e-65
8.68008e-65
1.00752e-64
4.34006e-65
7.28506e-65
7.59508e-65
6.20008e-65
7.05255e-65
7.44002e-65
6.89754e-65
5.58005e-65
1.00752e-64
4.34006e-65
4.34006e-65
8.99015e-65
7.98264e-65
1.00752e-64
7.36258e-65
8.21505e-65
8.91256e-65
8.68008e-65
4.72761e-65
9.37768e-65
8.99015e-65
7.98264e-65
7.98264e-65
9.68768e-65
7.75011e-65
6.51007e-65
6.74257e-65
6.82008e-65
7.36266e-65
5.65762e-65
7.13015e-65
5.58012e-65
9.68768e-65
7.75011e-65
7.75011e-65
)
;
    }
    procBoundary7to6
    {
        type            processor;
        value           nonuniform List<scalar> 
12
(
6.74261e-65
7.1301e-65
4.96007e-65
8.52514e-65
7.59511e-65
7.51761e-65
7.90513e-65
7.75012e-65
5.65758e-65
3.79756e-65
7.82762e-65
6.04509e-65
)
;
    }
}


// ************************************************************************* //
