/*--------------------------------*- C++ -*----------------------------------*\
| =========                 |                                                 |
| \\      /  F ield         | OpenFOAM: The Open Source CFD Toolbox           |
|  \\    /   O peration     | Version:  4.x                                   |
|   \\  /    A nd           | Web:      www.OpenFOAM.org                      |
|    \\/     M anipulation  |                                                 |
\*---------------------------------------------------------------------------*/
FoamFile
{
    version     2.0;
    format      ascii;
    class       volVectorField;
    location    "55";
    object      Us;
}
// * * * * * * * * * * * * * * * * * * * * * * * * * * * * * * * * * * * * * //

dimensions      [0 1 -1 0 0 0 0];

internalField   nonuniform List<vector> 
132
(
(2.31796e-08 3.91753e-09 -1.35715e-07)
(2.52559e-08 -6.13239e-09 -1.48934e-07)
(-1.98987e-08 -1.00408e-08 -1.49864e-07)
(-5.97589e-08 -6.53827e-09 -1.08603e-07)
(-5.56076e-08 -9.22982e-09 -8.37116e-08)
(-3.03656e-08 -8.12596e-09 -4.97768e-08)
(-2.04564e-08 -1.66951e-08 -3.21192e-08)
(-1.00459e-08 -1.82032e-08 -1.74159e-08)
(-1.61126e-09 -1.41831e-08 -2.2149e-10)
(2.54234e-08 -7.89487e-09 -1.29288e-07)
(4.10674e-08 -1.37421e-08 -1.51706e-07)
(-1.19919e-08 3.02691e-09 -1.42668e-07)
(-5.30579e-08 -1.20221e-09 -1.15085e-07)
(-5.14264e-08 -1.06117e-08 -7.56322e-08)
(-4.05869e-08 -1.40564e-08 -5.88818e-08)
(-3.10431e-08 -1.4275e-08 -3.33402e-08)
(-1.77808e-08 -1.43629e-08 -9.98095e-09)
(-4.70597e-09 -8.08068e-09 -5.98109e-10)
(2.99404e-08 -4.36747e-09 -7.87222e-08)
(3.30199e-08 -8.47503e-09 -1.22199e-07)
(-1.97541e-08 -4.33382e-09 -1.29693e-07)
(-4.93718e-08 4.79265e-09 -9.29806e-08)
(-5.13637e-08 -7.98654e-09 -7.01705e-08)
(-4.01516e-08 -1.84595e-08 -4.83011e-08)
(-2.78199e-08 -1.01502e-08 -2.71651e-08)
(-1.85181e-08 -1.1533e-08 -1.03438e-08)
(5.69869e-09 9.43788e-11 -5.69423e-10)
(3.24149e-08 7.4897e-09 -2.73658e-08)
(2.12026e-08 -2.31216e-09 -4.87816e-08)
(-1.84683e-08 3.40271e-09 -6.70789e-08)
(-5.18498e-08 1.62077e-08 -4.4076e-08)
(-4.54054e-08 -6.17208e-09 -3.77275e-08)
(-3.56678e-08 -1.22524e-08 -3.03545e-08)
(-1.99711e-08 -9.05351e-09 -1.42461e-08)
(-9.56687e-09 -4.83045e-09 -4.12958e-09)
(4.82778e-09 1.06884e-10 -7.6654e-10)
(-2.66193e-08 -5.13812e-10 -8.82575e-08)
(-7.10556e-08 -5.20298e-09 -8.16283e-08)
(-5.89695e-08 1.33712e-10 -5.26458e-08)
(-4.65853e-08 -9.3286e-09 -4.05181e-08)
(-2.92304e-08 -8.52015e-09 -2.6731e-08)
(-1.52134e-08 -4.75179e-09 -1.48609e-08)
(-1.53033e-09 -5.39558e-09 -3.85069e-09)
(1.99239e-08 -2.83043e-08 -9.2703e-08)
(1.25667e-08 -1.59968e-08 -9.31027e-08)
(-2.20621e-08 1.78304e-09 -9.47084e-08)
(-4.88237e-08 3.13951e-09 -7.72429e-08)
(-4.68355e-08 -7.7927e-09 -5.35786e-08)
(-4.23567e-08 -1.36841e-08 -4.10569e-08)
(-3.10549e-08 -1.02163e-08 -2.53141e-08)
(-2.076e-08 -6.00451e-09 -1.07462e-08)
(-4.87107e-09 -5.02455e-09 -3.15502e-09)
(2.90819e-08 -2.53898e-08 -6.82884e-08)
(2.31051e-08 -3.32277e-08 -8.71213e-08)
(-1.70903e-08 -1.64912e-08 -8.91483e-08)
(-5.95124e-08 2.91081e-09 -6.87355e-08)
(-4.56361e-08 -9.30255e-09 -4.44105e-08)
(-4.54462e-08 -1.87708e-08 -3.56028e-08)
(-3.26386e-08 -1.1221e-08 -2.07947e-08)
(-1.60182e-08 -6.55363e-09 -6.8757e-09)
(1.5815e-08 5.45891e-09 -2.6265e-09)
(3.16522e-08 -1.0431e-09 -2.06593e-08)
(4.03934e-08 -7.87388e-09 -3.59057e-08)
(-3.61341e-09 -2.21233e-08 -7.19522e-08)
(-6.34791e-08 9.03385e-09 -3.04818e-08)
(-4.30365e-08 -3.73874e-09 -2.31456e-08)
(-3.22626e-08 -1.04589e-08 -2.43783e-08)
(-1.68077e-08 -5.3821e-09 -9.60445e-09)
(-8.73123e-09 -3.80775e-09 -3.53596e-09)
(6.59043e-09 7.06002e-10 -1.17766e-09)
(-6.30657e-08 -8.09136e-09 -4.04993e-08)
(-4.73296e-08 -8.26577e-09 -2.80464e-08)
(-2.96175e-08 -6.75251e-09 -1.9479e-08)
(-1.83457e-08 -4.29924e-09 -1.42448e-08)
(-4.64567e-09 -1.90366e-09 -3.72669e-09)
(1.66933e-08 -2.07722e-08 -5.02147e-08)
(9.10224e-09 -1.92347e-08 -5.91503e-08)
(-1.42201e-08 -1.26985e-08 -4.50011e-08)
(-5.30239e-08 -2.0768e-09 -5.03342e-08)
(-5.23459e-08 -7.68536e-09 -3.49039e-08)
(-4.28274e-08 -1.49324e-08 -2.57796e-08)
(-3.03068e-08 -6.78391e-09 -1.69105e-08)
(-1.99489e-08 -3.78151e-09 -9.88258e-09)
(-6.82467e-09 -3.90287e-09 -3.32743e-09)
(3.48379e-08 -1.75498e-08 -3.96753e-08)
(4.26912e-08 -2.17786e-08 -2.00168e-08)
(-9.99827e-09 -9.79815e-09 -2.21842e-08)
(-4.81638e-08 -6.68351e-09 -3.53123e-08)
(-4.45474e-08 -8.20663e-09 -2.98541e-08)
(-3.71526e-08 -1.12942e-08 -2.41457e-08)
(-2.41109e-08 -5.99334e-09 -1.55072e-08)
(-1.22725e-08 -4.69954e-09 -6.4886e-09)
(-4.83618e-09 -3.80271e-09 -3.20396e-09)
(2.97873e-08 -1.26632e-08 -1.89686e-08)
(3.54982e-08 -6.17039e-09 -1.85418e-08)
(-6.86281e-09 -2.18722e-09 -1.52544e-08)
(-5.17504e-08 -3.59303e-09 -2.18715e-08)
(-3.18236e-08 -3.67926e-09 -1.9197e-08)
(-1.8179e-08 -3.82577e-09 -1.42662e-08)
(-1.27702e-08 -4.33646e-09 -8.92374e-09)
(-3.90042e-09 -2.48934e-09 -2.71188e-09)
(-1.643e-09 -1.99136e-09 -1.23402e-09)
(-2.59384e-08 -5.08171e-09 -1.60527e-08)
(-1.97411e-08 -2.74601e-09 -9.2023e-09)
(-3.24353e-09 8.52499e-10 -8.45758e-10)
(9.7908e-09 -3.9181e-09 -2.27575e-08)
(1.18323e-08 4.3847e-09 -1.56503e-08)
(-9.69078e-09 -8.11999e-09 -9.199e-09)
(-4.45332e-08 -1.33002e-09 -1.41655e-08)
(-4.0093e-08 -1.10692e-08 -1.78019e-08)
(-3.8651e-08 -1.1591e-08 -1.46729e-08)
(-2.45547e-08 -3.52079e-09 -1.14267e-08)
(-1.43923e-08 -2.89485e-09 -3.93101e-09)
(-3.39009e-09 -1.36497e-09 -1.08138e-09)
(1.77222e-08 -8.19184e-09 -1.56638e-08)
(2.04613e-08 2.01283e-09 -6.47438e-09)
(-2.38753e-10 -4.86638e-09 -3.7191e-09)
(-3.0235e-08 -2.00803e-09 -8.6646e-09)
(-2.88893e-08 -8.42594e-09 -1.60939e-08)
(-2.22555e-08 -8.18331e-09 -1.18553e-08)
(-1.54342e-08 -5.20627e-09 -1.09518e-08)
(-7.7826e-09 -3.37109e-09 -3.98814e-09)
(-1.69045e-09 -5.53799e-10 -2.08544e-09)
(1.3662e-08 -1.1967e-08 -5.77572e-09)
(1.99131e-08 -1.27396e-09 -4.74473e-09)
(2.60931e-09 -5.01742e-10 -1.27995e-09)
(-2.45948e-08 -1.71434e-09 -1.01208e-08)
(-2.00569e-08 2.73881e-07 -1.05741e-08)
(-1.38921e-08 -4.01361e-09 -1.24593e-08)
(-8.93754e-09 -2.73313e-09 -4.3421e-09)
(-3.47484e-09 -2.19928e-09 -1.67856e-09)
(1.9169e-09 2.30301e-09 -2.26543e-10)
)
;

boundaryField
{
    inlet
    {
        type            zeroGradient;
    }
    outlet
    {
        type            zeroGradient;
    }
    wall
    {
        type            zeroGradient;
    }
    procBoundary7to0
    {
        type            processor;
        value           uniform (2.95987e-08 -5.46543e-09 -1.37023e-07);
    }
    procBoundary7to1
    {
        type            processor;
        value           uniform (3.44688e-08 1.90743e-08 -1.19615e-07);
    }
    procBoundary7to3
    {
        type            processor;
        value           nonuniform List<vector> 
36
(
(3.53328e-08 -4.75084e-09 -1.78782e-07)
(3.96864e-08 -2.09422e-08 -2.01029e-07)
(3.87192e-09 -2.98175e-08 -1.99272e-07)
(-7.72788e-08 -1.45552e-08 -1.38926e-07)
(-5.6821e-08 -2.07594e-08 -1.19665e-07)
(-2.18631e-08 -2.078e-08 -7.07606e-08)
(-1.27376e-08 -2.14175e-08 -3.80676e-08)
(3.08284e-09 -3.1874e-08 -1.33353e-08)
(6.55517e-09 -3.37388e-08 -3.1647e-10)
(3.5302e-08 -9.40195e-09 -1.61713e-07)
(5.14309e-08 -2.32302e-08 -1.94421e-07)
(1.7159e-08 -6.44849e-09 -1.92369e-07)
(-4.92683e-08 -1.29272e-08 -1.43048e-07)
(-4.3729e-08 -2.20547e-08 -1.03084e-07)
(-2.7611e-08 -1.8198e-08 -6.82929e-08)
(-1.39319e-08 -1.77185e-08 -3.30643e-08)
(-3.19876e-09 -1.93316e-08 -7.10644e-09)
(1.36058e-09 -1.33306e-08 4.84081e-09)
(5.1163e-08 -2.04501e-08 -1.35856e-07)
(5.6879e-08 -2.36069e-08 -1.63875e-07)
(-2.00402e-08 1.19845e-10 -1.60737e-07)
(-5.45739e-08 2.03852e-09 -1.09185e-07)
(-4.71545e-08 -9.44096e-09 -8.48732e-08)
(-2.77768e-08 -1.47891e-08 -5.62471e-08)
(-8.58069e-09 -1.53561e-08 -3.1792e-08)
(-2.63405e-09 -1.18497e-08 -6.41241e-09)
(2.35101e-09 -3.73193e-09 1.28979e-09)
(3.50857e-08 -1.4625e-08 -6.19862e-08)
(4.78045e-08 3.38051e-09 -7.43768e-08)
(2.83782e-09 3.8948e-09 -7.79445e-08)
(-4.63049e-08 4.19028e-09 -4.63137e-08)
(-4.23268e-08 -1.28765e-08 -5.55644e-08)
(-1.95298e-08 -9.93804e-09 -3.75213e-08)
(-4.29636e-09 -3.43928e-09 -1.16229e-08)
(-2.02137e-09 -4.92064e-09 -2.20378e-09)
(1.10888e-09 -2.35592e-09 -1.24808e-09)
)
;
    }
    procBoundary7to5
    {
        type            processor;
        value           nonuniform List<vector> 
44
(
(1.98481e-08 5.39427e-09 -1.44823e-07)
(-1.91444e-08 -1.88445e-08 -1.04666e-07)
(-5.71704e-08 -8.89221e-09 -9.00616e-08)
(-4.96615e-08 -5.73917e-09 -6.85956e-08)
(-3.95131e-08 -6.43385e-09 -4.47616e-08)
(-2.0448e-08 -1.34717e-08 -3.02974e-08)
(3.71037e-09 -2.38274e-08 -1.77224e-08)
(1.82738e-08 8.11788e-08 4.62406e-08)
(2.45824e-08 -1.66557e-08 -9.22029e-08)
(3.13822e-08 -4.73355e-09 -9.62882e-08)
(-1.97382e-08 -2.52758e-10 -7.33509e-08)
(-6.02597e-08 -5.92401e-09 -6.53282e-08)
(-6.01928e-08 -1.29596e-09 -4.61324e-08)
(-4.55535e-08 -1.74874e-09 -3.53941e-08)
(-2.53176e-08 -5.29615e-09 -2.51798e-08)
(-1.15769e-08 2.65459e-11 -1.2274e-08)
(-3.21363e-09 -6.4968e-09 6.97842e-09)
(2.45824e-08 -1.66557e-08 -9.22029e-08)
(3.13822e-08 -4.73355e-09 -9.62882e-08)
(3.13822e-08 -4.73355e-09 -9.62882e-08)
(-2.70437e-08 -1.91592e-10 -3.22438e-08)
(-7.83421e-08 9.26669e-09 -5.71091e-08)
(-6.12009e-08 3.51931e-09 -3.38391e-08)
(-4.7393e-08 4.09772e-11 -2.50237e-08)
(-2.85495e-08 -4.1893e-09 -1.71315e-08)
(-1.08474e-08 -2.87132e-09 -1.09729e-08)
(-4.76022e-09 -3.58404e-09 -2.25075e-09)
(9.1704e-09 -1.33246e-08 -2.5433e-08)
(2.47387e-08 -7.8537e-09 -4.41411e-08)
(-2.70437e-08 -1.91592e-10 -3.22438e-08)
(-7.83421e-08 9.26669e-09 -5.71091e-08)
(-7.83421e-08 9.26669e-09 -5.71091e-08)
(-5.75989e-08 -6.29441e-09 -1.95255e-08)
(-3.33658e-08 -8.0208e-09 -1.64929e-08)
(-2.28542e-08 -3.20272e-09 -9.56335e-09)
(-1.20799e-08 -1.22307e-09 -5.48821e-09)
(-4.08426e-09 5.75445e-10 -2.45531e-09)
(1.00729e-08 3.38859e-09 -1.38097e-08)
(2.55443e-08 1.17767e-08 -7.70928e-09)
(-2.92705e-08 -3.55176e-08 -6.04794e-09)
(-6.05288e-08 -9.69433e-09 -1.74032e-08)
(-5.75989e-08 -6.29441e-09 -1.95255e-08)
(-3.33658e-08 -8.0208e-09 -1.64929e-08)
(-3.33658e-08 -8.0208e-09 -1.64929e-08)
)
;
    }
    procBoundary7to6
    {
        type            processor;
        value           nonuniform List<vector> 
12
(
(2.54773e-08 -1.16339e-08 -1.0632e-07)
(3.18893e-08 -1.02314e-08 -8.26263e-08)
(5.58167e-09 -3.56452e-09 -3.19947e-08)
(2.43855e-08 -1.36636e-08 -7.83622e-08)
(2.75062e-08 -1.54345e-08 -5.8684e-08)
(1.95491e-08 -8.03765e-09 -2.65535e-08)
(2.06978e-08 -1.91061e-08 -5.18286e-08)
(2.73488e-08 -1.44232e-08 -4.60879e-08)
(2.35483e-08 -8.95418e-09 -2.0917e-08)
(1.45803e-08 9.64947e-09 -1.46395e-08)
(1.15389e-08 -2.45887e-09 -2.07408e-08)
(1.2422e-08 -5.3162e-09 -1.77243e-08)
)
;
    }
}


// ************************************************************************* //
