/*--------------------------------*- C++ -*----------------------------------*\
| =========                 |                                                 |
| \\      /  F ield         | OpenFOAM: The Open Source CFD Toolbox           |
|  \\    /   O peration     | Version:  4.x                                   |
|   \\  /    A nd           | Web:      www.OpenFOAM.org                      |
|    \\/     M anipulation  |                                                 |
\*---------------------------------------------------------------------------*/
FoamFile
{
    version     2.0;
    format      ascii;
    class       volVectorField;
    location    "55";
    object      UsPrev;
}
// * * * * * * * * * * * * * * * * * * * * * * * * * * * * * * * * * * * * * //

dimensions      [0 1 -1 0 0 0 0];

internalField   nonuniform List<vector> 
132
(
(2.25162e-08 4.0667e-09 -1.44437e-07)
(2.49026e-08 -6.18766e-09 -1.58032e-07)
(-2.06379e-08 -1.01413e-08 -1.58631e-07)
(-6.04477e-08 -6.77557e-09 -1.1571e-07)
(-5.6275e-08 -9.31525e-09 -8.91508e-08)
(-3.09397e-08 -8.06357e-09 -5.32597e-08)
(-2.09355e-08 -1.64286e-08 -3.41559e-08)
(-1.03029e-08 -1.77626e-08 -1.82813e-08)
(-1.5274e-09 -1.36767e-08 -5.88077e-10)
(2.49718e-08 -8.3445e-09 -1.37043e-07)
(4.08296e-08 -1.43675e-08 -1.60354e-07)
(-1.2369e-08 2.78212e-09 -1.50214e-07)
(-5.34285e-08 -1.3059e-09 -1.21485e-07)
(-5.21479e-08 -1.07521e-08 -8.02186e-08)
(-4.12911e-08 -1.40982e-08 -6.24298e-08)
(-3.15359e-08 -1.40839e-08 -3.56215e-08)
(-1.80514e-08 -1.40955e-08 -1.10776e-08)
(-4.7375e-09 -7.797e-09 -9.74193e-10)
(2.97577e-08 -4.79976e-09 -8.35931e-08)
(3.25525e-08 -9.16925e-09 -1.28596e-07)
(-2.03267e-08 -4.70213e-09 -1.35728e-07)
(-4.98285e-08 4.87587e-09 -9.76121e-08)
(-5.21427e-08 -8.162e-09 -7.39811e-08)
(-4.08993e-08 -1.88469e-08 -5.09516e-08)
(-2.82897e-08 -1.01058e-08 -2.88261e-08)
(-1.88679e-08 -1.14103e-08 -1.11475e-08)
(5.77865e-09 2.86638e-10 -7.24799e-10)
(3.2228e-08 7.93891e-09 -2.90625e-08)
(2.03211e-08 -2.61785e-09 -5.13704e-08)
(-1.92356e-08 3.30914e-09 -6.99973e-08)
(-5.24996e-08 1.64991e-08 -4.61767e-08)
(-4.59033e-08 -6.33177e-09 -3.96759e-08)
(-3.6322e-08 -1.2623e-08 -3.18864e-08)
(-2.03605e-08 -9.18201e-09 -1.50213e-08)
(-9.7663e-09 -4.76769e-09 -4.37959e-09)
(4.88824e-09 1.80657e-10 -8.16565e-10)
(-2.7634e-08 -3.64454e-10 -9.43208e-08)
(-7.25021e-08 -5.16044e-09 -8.6753e-08)
(-6.0207e-08 5.6209e-10 -5.60016e-08)
(-4.77241e-08 -9.26761e-09 -4.30867e-08)
(-2.99331e-08 -8.41215e-09 -2.82855e-08)
(-1.55746e-08 -4.58751e-09 -1.56235e-08)
(-1.69342e-09 -5.16472e-09 -4.10422e-09)
(1.96184e-08 -2.96657e-08 -9.84007e-08)
(1.21834e-08 -1.67605e-08 -9.89538e-08)
(-2.28588e-08 1.30911e-09 -1.00422e-07)
(-4.96301e-08 2.92993e-09 -8.15304e-08)
(-4.78047e-08 -7.97249e-09 -5.67649e-08)
(-4.36072e-08 -1.39572e-08 -4.3392e-08)
(-3.18478e-08 -1.03639e-08 -2.66961e-08)
(-2.11253e-08 -5.94797e-09 -1.14365e-08)
(-4.91288e-09 -4.88719e-09 -3.38238e-09)
(2.89957e-08 -2.66429e-08 -7.23381e-08)
(2.26209e-08 -3.46592e-08 -9.16225e-08)
(-1.78839e-08 -1.73149e-08 -9.3302e-08)
(-6.05584e-08 2.58907e-09 -7.21647e-08)
(-4.66284e-08 -9.75073e-09 -4.681e-08)
(-4.6945e-08 -1.93952e-08 -3.74466e-08)
(-3.35801e-08 -1.13885e-08 -2.19052e-08)
(-1.62931e-08 -6.47896e-09 -7.30911e-09)
(1.60941e-08 5.63134e-09 -2.76383e-09)
(3.13018e-08 -1.20546e-09 -2.17147e-08)
(4.00828e-08 -8.46677e-09 -3.76228e-08)
(-4.20552e-09 -2.29104e-08 -7.44965e-08)
(-6.45479e-08 8.96622e-09 -3.2116e-08)
(-4.39729e-08 -3.84138e-09 -2.43819e-08)
(-3.31694e-08 -1.08062e-08 -2.54932e-08)
(-1.7354e-08 -5.49738e-09 -1.01418e-08)
(-8.96708e-09 -3.77827e-09 -3.63644e-09)
(6.6482e-09 7.47707e-10 -1.19706e-09)
(-6.44556e-08 -7.9831e-09 -4.28098e-08)
(-4.82142e-08 -8.08063e-09 -2.95131e-08)
(-3.03984e-08 -6.64243e-09 -2.04007e-08)
(-1.89738e-08 -4.25361e-09 -1.47615e-08)
(-4.85252e-09 -1.81398e-09 -3.8855e-09)
(1.63999e-08 -2.20628e-08 -5.34789e-08)
(8.56974e-09 -2.0261e-08 -6.31646e-08)
(-1.4658e-08 -1.35655e-08 -4.86529e-08)
(-5.40534e-08 -2.31786e-09 -5.32157e-08)
(-5.36438e-08 -7.73405e-09 -3.6885e-08)
(-4.42625e-08 -1.51756e-08 -2.70252e-08)
(-3.12588e-08 -6.96243e-09 -1.76472e-08)
(-2.05183e-08 -3.80075e-09 -1.01594e-08)
(-7.05906e-09 -3.92228e-09 -3.50427e-09)
(3.50352e-08 -1.86698e-08 -4.17769e-08)
(4.264e-08 -2.26929e-08 -2.16878e-08)
(-1.05859e-08 -1.0514e-08 -2.40025e-08)
(-4.91652e-08 -7.49551e-09 -3.72205e-08)
(-4.57505e-08 -8.70671e-09 -3.14098e-08)
(-3.86728e-08 -1.16657e-08 -2.49397e-08)
(-2.49929e-08 -6.0644e-09 -1.59177e-08)
(-1.25268e-08 -4.65196e-09 -6.527e-09)
(-5.04175e-09 -3.85403e-09 -3.30643e-09)
(2.99304e-08 -1.3285e-08 -1.96977e-08)
(3.55737e-08 -6.74017e-09 -1.95824e-08)
(-7.14523e-09 -2.58237e-09 -1.61555e-08)
(-5.25561e-08 -3.99901e-09 -2.27879e-08)
(-3.24539e-08 -3.90437e-09 -2.01001e-08)
(-1.89173e-08 -3.87289e-09 -1.4655e-08)
(-1.32826e-08 -4.27359e-09 -9.18841e-09)
(-4.10255e-09 -2.41762e-09 -2.83052e-09)
(-1.86702e-09 -2.0487e-09 -1.28582e-09)
(-2.66891e-08 -4.9515e-09 -1.65999e-08)
(-2.04503e-08 -2.63501e-09 -9.52248e-09)
(-3.45591e-09 9.06187e-10 -9.17013e-10)
(9.51346e-09 -4.53649e-09 -2.4267e-08)
(1.15075e-08 4.23098e-09 -1.71127e-08)
(-1.00857e-08 -8.37008e-09 -1.04577e-08)
(-4.55397e-08 -1.28194e-09 -1.51873e-08)
(-4.10017e-08 -1.12861e-08 -1.89192e-08)
(-3.96775e-08 -1.15127e-08 -1.53138e-08)
(-2.53805e-08 -3.3803e-09 -1.16896e-08)
(-1.49935e-08 -2.78021e-09 -3.96931e-09)
(-3.6549e-09 -1.37921e-09 -1.15794e-09)
(1.765e-08 -9.06837e-09 -1.64231e-08)
(2.03569e-08 1.8533e-09 -7.1108e-09)
(-4.04139e-10 -5.03834e-09 -4.31872e-09)
(-3.08597e-08 -2.06366e-09 -9.31662e-09)
(-2.94568e-08 -8.81435e-09 -1.69728e-08)
(-2.28172e-08 -8.40183e-09 -1.22102e-08)
(-1.61136e-08 -5.31383e-09 -1.10129e-08)
(-8.60957e-09 -3.53837e-09 -3.86114e-09)
(-2.01715e-09 -5.95607e-10 -2.11002e-09)
(1.37278e-08 -1.26384e-08 -5.98126e-09)
(1.99576e-08 -1.52988e-09 -5.14139e-09)
(2.69679e-09 -6.52819e-10 -1.52454e-09)
(-2.49514e-08 -1.7803e-09 -1.02875e-08)
(-2.05782e-08 2.69838e-07 -1.10031e-08)
(-1.43253e-08 -4.23583e-09 -1.28405e-08)
(-9.47059e-09 -2.91124e-09 -4.40572e-09)
(-3.89771e-09 -2.46945e-09 -1.79393e-09)
(1.8865e-09 2.2756e-09 -2.48856e-10)
)
;

boundaryField
{
    inlet
    {
        type            calculated;
        value           nonuniform 0();
    }
    outlet
    {
        type            calculated;
        value           uniform (0 0 0);
    }
    wall
    {
        type            calculated;
        value           uniform (0 0 0);
    }
    procBoundary7to0
    {
        type            processor;
        value           uniform (0 0 0);
    }
    procBoundary7to1
    {
        type            processor;
        value           uniform (0 0 0);
    }
    procBoundary7to3
    {
        type            processor;
        value           uniform (0 0 0);
    }
    procBoundary7to5
    {
        type            processor;
        value           uniform (0 0 0);
    }
    procBoundary7to6
    {
        type            processor;
        value           uniform (0 0 0);
    }
}


// ************************************************************************* //
