/*--------------------------------*- C++ -*----------------------------------*\
  =========                 |
  \\      /  F ield         | OpenFOAM: The Open Source CFD Toolbox
   \\    /   O peration     | Website:  https://openfoam.org
    \\  /    A nd           | Version:  4.x
     \\/     M anipulation  |
\*---------------------------------------------------------------------------*/
FoamFile
{
    version     2.0;
    format      ascii;
    class       vectorField;
    location    0;
    object      v;
}
// * * * * * * * * * * * * * * * * * * * * * * * * * * * * * * * * * * * * * //

306
(
( -0.000602139 0.00100114 -0.000585231 )  
( -0.000916774 0.000352311 -0.001394 )  
( -0.000435972 0.000744266 -0.000688446 )  
( -0.000589137 0.00042355 -0.00118803 )  
( -0.000124137 0.000830557 -0.000188727 )  
( -0.000483242 0.000529428 -0.000909048 )  
( -0.0012047 0.000292923 -0.00147767 )  
( -0.000264314 0.00078082 -0.0006624 )  
( -0.000578962 0.000597938 -0.00112353 )  
( -0.00109851 6.49016e-05 -0.00135853 )  
( -0.000348179 0.000372718 -0.000978322 )  
( -0.000366551 0.00045691 -0.0005556 )  
( -0.0013996 0.000292968 -0.000203631 )  
( -0.000265667 0.000409784 -0.000708046 )  
( -0.000625564 0.000590276 -0.00148227 )  
( -0.001876 -0.000330656 -0.000539457 )  
( -0.000350221 6.68393e-05 0.000295506 )  
( -0.000236921 0.000231358 -0.000590066 )  
( -0.000342676 0.000502389 -0.000851725 )  
( -0.00158488 2.46881e-05 8.97868e-05 )  
( -0.00176404 -6.38963e-06 -0.000317889 )  
( -0.000983679 0.000384396 2.9132e-05 )  
( -0.000863483 0.000316354 -0.00150285 )  
( -0.00120464 -0.000259413 -0.000119833 )  
( -0.000578573 0.000287584 0.000148947 )  
( -0.000104169 7.10584e-05 0.00012885 )  
( -0.000319401 0.000131916 4.31614e-05 )  
( -0.00165266 0.000262133 -2.69155e-05 )  
( -0.00106187 5.80061e-06 0.000276354 )  
( -0.00121675 -0.00010485 -0.000458874 )  
( -0.000561632 0.00023394 -0.000807759 )  
( -0.00172321 0.00011691 -0.000382661 )  
( -0.000502559 0.000434603 -0.00101553 )  
( -0.00130059 -0.000186905 -0.000225408 )  
( -0.00102993 -0.000108381 3.75852e-06 )  
( 9.66108e-05 0.000269734 -0.000591722 )  
( -0.00103465 0.000260268 -0.000918644 )  
( -4.8029e-05 5.44882e-05 -0.000331779 )  
( 5.91165e-05 -6.7799e-05 -0.000235612 )  
( -0.000537782 0.000193687 -0.000624047 )  
( -0.0015738 -0.00012203 3.45398e-07 )  
( -0.00116302 -0.00016825 -0.000384966 )  
( -0.000957347 -7.54825e-05 -2.77555e-05 )  
( -0.000725202 7.30531e-05 -0.000739531 )  
( -0.00163868 -0.000140772 -0.00111527 )  
( -0.000147998 9.79843e-05 -0.000468471 )  
( -0.000275549 0.000181118 8.62035e-05 )  
( -0.000549035 0.000357975 -0.00105633 )  
( -0.000293565 0.000167918 -0.000662086 )  
( -0.000149059 -6.89395e-05 -0.000314006 )  
( -4.8678e-05 0.000250788 -0.000615659 )  
( -0.00233039 -0.000173624 -0.0010208 )  
( -0.000718345 -0.00035162 -3.9373e-05 )  
( -0.001017 -4.88094e-05 0.000170938 )  
( -0.000841713 -0.000202613 3.63205e-05 )  
( -0.00158211 -0.000133311 -0.00107998 )  
( -0.000374013 0.000605875 -0.000639342 )  
( -0.00180799 0.00043917 -0.00203899 )  
( -0.000168194 0.000717244 -0.000683821 )  
( -0.000396829 0.000153032 -4.06921e-05 )  
( -0.00247176 -0.000103217 -0.000996104 )  
( -0.0012661 -0.000229444 -0.000153858 )  
( -0.00215771 0.000170398 -0.00099149 )  
( -0.00108623 -0.000206729 -0.000389616 )  
( -0.000233299 7.77168e-05 8.56654e-05 )  
( -0.00207761 -3.41492e-05 -0.000220675 )  
( -0.000626982 4.02373e-05 0.000133884 )  
( -0.0020319 -0.000235784 -0.000710643 )  
( -0.00105699 0.000224756 -0.00135519 )  
( 1.7765e-05 0.000247024 -0.000607393 )  
( -0.0012203 7.21594e-05 -0.00138106 )  
( -0.000662054 0.000298809 -0.00112117 )  
( -0.000533806 0.000612595 -0.00131694 )  
( -0.00134594 -0.000123664 6.36707e-06 )  
( -0.00108389 -0.00017889 2.51873e-05 )  
( -0.00142759 -0.000350163 -0.00043533 )  
( -0.000878011 -0.000180207 -2.36199e-05 )  
( -0.000464325 0.000425073 -0.000623771 )  
( -1.72727e-05 -1.63576e-05 -0.000490655 )  
( -0.000792757 0.000267783 -7.18218e-05 )  
( -0.000839942 -0.000172136 -0.000185136 )  
( -0.00132414 0.000113601 5.90507e-05 )  
( -0.000349154 0.000116666 0.000216319 )  
( -0.000824225 0.000187357 -0.000774064 )  
( -0.000144419 0.00022574 9.81e-05 )  
( -0.000595402 0.000407995 -0.000956577 )  
( -0.00184769 0.000279893 -0.000422543 )  
( -0.00105411 -0.000129599 -0.000674947 )  
( -8.34952e-05 0.000118315 0.000114845 )  
( -0.000606729 0.000321117 0.000260505 )  
( -0.00078673 0.000208494 -0.000998011 )  
( -0.000733105 2.09351e-05 6.25043e-05 )  
( -0.000504092 1.99187e-05 -0.000321619 )  
( -0.00104539 0.000418541 -4.39708e-05 )  
( -0.00166755 -0.000375895 -0.000685633 )  
( -0.000371824 0.000486008 -0.00058456 )  
( 6.88841e-06 9.16367e-05 -0.000395083 )  
( -0.000215434 6.74529e-05 0.000275808 )  
( 7.73291e-05 8.05261e-05 -0.000642831 )  
( -0.000656701 -0.000205379 -5.35311e-05 )  
( -0.000481276 0.000237555 -0.00064928 )  
( -0.000132154 -1.92673e-05 -0.000162855 )  
( -0.000107938 0.000510046 -0.000477894 )  
( -0.000328626 0.000457983 -0.000467215 )  
( -0.000377966 0.00025888 -0.000870054 )  
( -0.000893652 0.000326533 -0.00137043 )  
( -0.00112436 5.30949e-05 0.000176992 )  
( -0.000118317 0.000582449 -0.000408663 )  
( -0.000368275 0.000258081 -0.000544059 )  
( -0.00213995 -3.16326e-06 -0.000491119 )  
( -0.000294781 -1.34535e-05 -0.000399138 )  
( -0.000745577 0.000278968 -0.00121005 )  
( -0.00066666 0.000282007 -0.000746168 )  
( -0.000553565 6.03259e-05 -7.22843e-05 )  
( 6.90878e-06 8.12799e-05 -0.000277801 )  
( -0.000893213 0.000193683 -0.00140458 )  
( -0.000151397 7.93149e-05 -0.000350235 )  
( -0.000694019 0.000387325 -0.0015423 )  
( -0.00128362 -0.000374627 -0.000122668 )  
( -0.00141874 0.000154789 -0.000215434 )  
( -0.000940607 0.000302956 0.000367575 )  
( -0.00152417 -0.000168398 -0.00019189 )  
( -0.000296748 0.000273686 8.0623e-05 )  
( -0.00030625 0.00076659 -0.000706981 )  
( -0.000716354 -0.000209986 -0.000158962 )  
( -0.00101245 0.000323389 -4.70459e-05 )  
( -0.000634061 3.27438e-05 -0.000675387 )  
( -0.000460666 9.89722e-05 -0.000697216 )  
( -0.000408948 0.000279099 0.000134919 )  
( -1.6044e-06 -1.25649e-05 -0.000110315 )  
( -0.000132368 0.000385121 -0.000746185 )  
( -0.00047435 4.77946e-05 0.000152532 )  
( -0.000133313 0.000456782 -0.000532749 )  
( -4.99878e-05 0.00097267 -0.000787741 )  
( -0.000566327 -0.000243148 5.69538e-06 )  
( -0.000435177 9.23288e-05 0.000221637 )  
( -0.000665413 0.000308994 -0.000126561 )  
( -5.26818e-06 0.000310308 -0.000758544 )  
( -0.000159725 8.12979e-05 0.000124078 )  
( 7.78618e-06 3.58701e-05 -0.000114603 )  
( -0.000344824 6.34308e-05 -0.000275281 )  
( -0.000264927 9.80326e-05 0.000130964 )  
( -0.0010239 0.000163541 -0.00109335 )  
( -0.00161705 1.6509e-05 -0.00123192 )  
( -0.000796485 0.00029877 0.000120688 )  
( -0.00104014 0.000347934 -0.00165432 )  
( -0.000328383 4.28967e-06 -0.000459508 )  
( -0.000442087 0.00039545 -0.00114504 )  
( -0.000326952 4.07308e-05 -0.000177036 )  
( -0.000705081 0.000127102 0.000143935 )  
( -0.000549186 -5.71985e-05 -0.000483856 )  
( -0.000622872 -6.18545e-05 -6.03251e-05 )  
( -0.000591796 -0.000137035 -0.000156943 )  
( -0.00040372 0.000237937 -0.000530744 )  
( -0.000722342 4.66065e-06 -0.000581325 )  
( -0.000387057 7.68021e-05 0.00022773 )  
( -0.000696089 -0.000169781 -0.00037878 )  
( -0.000639542 0.00014777 -0.000920575 )  
( -0.000639456 1.30818e-05 -0.000709268 )  
( -0.000315134 -5.04817e-05 -0.000275288 )  
( -0.000561331 -9.79366e-05 -0.000478034 )  
( -0.000631339 -3.07011e-05 -0.000700491 )  
( -0.000129091 8.19897e-05 0.000152937 )  
( -0.0008795 -7.36021e-05 -0.000779825 )  
( -8.68673e-05 2.22772e-05 7.06943e-05 )  
( -0.000156046 8.0676e-05 7.28414e-05 )  
( -0.000243404 -8.25837e-05 -2.73657e-05 )  
( -0.000465485 1.55053e-05 -0.000525828 )  
( -0.000380522 4.12276e-05 -0.000644419 )  
( -7.09095e-05 9.03206e-05 0.000148017 )  
( -0.000354672 0.000112905 0.00025844 )  
( -0.000188917 1.91371e-05 -9.91633e-06 )  
( -0.000742112 6.6224e-05 -0.000255726 )  
( -0.000337976 3.3775e-05 0.000186753 )  
( -0.000380458 0.000227595 -0.000621018 )  
( -0.000748012 -4.68921e-05 -0.000675533 )  
( -0.000360031 3.17428e-05 0.000174621 )  
( -3.30976e-05 2.9884e-05 5.36912e-05 )  
( -0.000698415 -7.86523e-05 -0.00032863 )  
( -1.87101e-05 1.12941e-06 -0.000469668 )  
( -0.00036183 -3.1699e-05 -0.000347154 )  
( -0.000629881 0.000136711 -0.00091877 )  
( -0.000187407 9.55613e-05 -0.00012867 )  
( -0.000838598 -0.000222606 -0.000359128 )  
( -0.000561721 6.33694e-05 0.000171386 )  
( -0.000168906 5.28879e-05 7.32046e-05 )  
( -0.000263391 9.51997e-05 0.00022779 )  
( -0.00063327 7.56558e-06 6.95201e-05 )  
( -0.00053952 -2.59492e-06 4.91456e-05 )  
( -0.000454291 7.84091e-05 0.000197089 )  
( -0.000842692 -0.000104018 -0.000142973 )  
( -0.000216421 -1.5109e-05 -0.000109133 )  
( -0.000303242 8.52644e-05 0.000175164 )  
( -0.000713191 -4.22226e-07 -0.00082958 )  
( -0.000265097 0.000221302 -0.00047404 )  
( -0.000736178 -4.94372e-05 -0.000826539 )  
( -0.000779376 -8.23337e-05 -0.000298068 )  
( -0.000414145 1.04313e-05 0.000137404 )  
( -0.000131916 3.77485e-05 9.27587e-05 )  
( -0.000334866 2.87369e-05 7.02135e-05 )  
( -0.000815267 6.70798e-05 -0.00122818 )  
( -0.000547786 0.000165021 -0.000715542 )  
( -0.000258107 -5.24336e-05 -0.000165002 )  
( -0.000247266 0.000188182 -0.000575288 )  
( -0.00115725 -0.000157148 -0.000476296 )  
( -0.000942769 -0.000109532 -0.000111383 )  
( -0.000548022 -0.000173548 -0.000206143 )  
( -0.000595393 0.000251327 -0.000953571 )  
( -0.000416729 0.000134779 0.000326349 )  
( -0.000398503 -6.04173e-05 -0.00039696 )  
( -0.000103637 3.25661e-05 9.96818e-05 )  
( -0.00151544 -0.000281498 -0.000128656 )  
( -0.000111483 0.000104197 6.47915e-05 )  
( -0.000207811 0.00017721 -0.000567952 )  
( -0.0008187 -6.99097e-05 -0.000641364 )  
( -0.000505867 4.08809e-05 0.000119682 )  
( -7.00865e-05 3.73209e-05 8.56083e-05 )  
( -2.91052e-05 7.78308e-06 3.87841e-05 )  
( -0.00127474 0.000129606 -0.000183943 )  
( 9.5343e-06 0.000475712 -0.000879882 )  
( -0.000338136 8.4618e-05 0.00018813 )  
( -0.00151632 0.000321775 -0.00166429 )  
( -0.000248941 0.000137748 7.98618e-05 )  
( -0.000122263 -4.24773e-05 -1.5449e-05 )  
( -0.00180714 -0.000109923 -0.000231852 )  
( -0.000484941 0.000736034 -0.000576489 )  
( -0.000427889 0.000478083 -0.000722564 )  
( -8.73378e-05 0.000132181 -0.000409233 )  
( -0.000299656 5.21157e-05 0.000216594 )  
( 7.37825e-05 0.000223795 -0.000415358 )  
( -0.00119426 -0.000280984 -9.18663e-05 )  
( -0.00141222 1.4503e-05 -0.00133503 )  
( -2.52457e-05 8.20169e-05 -8.90872e-05 )  
( -0.000954239 -6.06158e-05 -0.00101134 )  
( -0.000378465 -4.26128e-05 1.09291e-05 )  
( -0.0011898 -0.000144339 -0.000362695 )  
( -0.000539246 -4.0956e-05 -0.000624374 )  
( -0.000595235 -1.88389e-05 -0.000488146 )  
( -0.000780022 8.9959e-05 -0.00117224 )  
( -0.000385893 0.000201291 -0.000745876 )  
( -0.000389801 2.69066e-05 -0.000235274 )  
( -0.000561924 0.000230088 0.000116353 )  
( -0.000377974 0.000124183 0.000316191 )  
( -0.000517601 0.000269869 -0.00116817 )  
( -0.000483872 -0.000107745 -0.000435986 )  
( -0.000582204 7.37892e-05 -0.000660508 )  
( -0.000923307 -0.000220165 -0.000177238 )  
( -0.000556766 -7.80258e-05 0.000131969 )  
( -0.000368662 0.000188648 -0.000719281 )  
( -0.000313824 0.000171802 -0.000461883 )  
( -0.000810495 0.000134433 0.000124564 )  
( -0.000585013 0.000214732 0.000283346 )  
( -0.000258186 -4.992e-06 0.000144575 )  
( -0.00037227 0.000174711 0.000127363 )  
( -0.00112625 -0.000467196 -0.000143477 )  
( -0.000610446 0.000512071 -0.00113346 )  
( -0.00156043 0.000558634 -0.000166188 )  
( -0.000173959 -5.60715e-05 -9.82605e-05 )  
( -0.000351254 0.000189066 -0.000648258 )  
( -0.000653255 0.000292282 -0.00151799 )  
( -0.00213582 0.000383687 -0.000350616 )  
( -0.00234862 0.000133424 -0.000799295 )  
( -0.00232812 -5.92599e-05 -0.000778006 )  
( -0.00135687 1.66811e-05 -0.000122193 )  
( -0.00146107 -0.000301915 -0.000528916 )  
( -0.000177115 -4.41605e-05 -0.000149743 )  
( -0.000937207 0.000435197 0.000252075 )  
( -0.00121829 0.000303986 -0.00111191 )  
( -0.00192179 0.000156525 -0.000204512 )  
( -0.00106436 0.000132919 -1.56453e-05 )  
( -0.0010482 0.000758298 -0.00167197 )  
( -0.00155263 0.000298725 -9.56141e-05 )  
( -0.00035379 0.00012843 -8.58308e-05 )  
( -0.00271029 -0.000184346 -0.000993252 )  
( -0.000731031 -7.62026e-05 -0.000512638 )  
( -0.0022189 0.000149997 -0.00109162 )  
( -0.00295736 -0.000386201 -0.00122652 )  
( -0.000545804 0.000236004 -0.000919357 )  
( -0.000650385 0.000420944 -0.00157973 )  
( -0.000249683 0.000155332 1.47126e-05 )  
( -0.000217301 0.00106727 -0.000687127 )  
( -0.00330258 -0.00026524 -0.00107734 )  
( 6.44144e-05 0.00118423 -0.000666827 )  
( -0.00160079 0.00051484 -7.59409e-06 )  
( -0.000648444 0.00123245 -0.000666767 )  
( -0.000250462 0.000176876 8.37717e-05 )  
( -0.000987513 -0.000382567 -0.000158268 )  
( -0.00241903 0.000162176 -0.000609982 )  
( -0.00204966 0.000402709 -0.000291883 )  
( -0.00176795 -0.000713935 -0.000110489 )  
( -0.00122297 0.000473483 0.000117671 )  
( -0.000452197 0.000137172 -0.000766974 )  
( -0.00168119 -0.000246318 -0.000110143 )  
( -0.000831905 0.0010603 -0.00071852 )  
( -0.00282456 -0.000387071 -0.00104422 )  
( -0.000657788 5.50144e-05 -0.000370625 )  
( -0.000497932 0.000100156 -0.000347641 )  
( 0.000955338 1.85649e-05 -0.00065197 )  
( -0.000819011 0.00157092 -0.00161863 )  
( -0.000385177 0.000197621 -0.000131618 )  
( -0.000369162 0.000211164 0.000246308 )  
( 5.64619e-05 0.000265751 2.68694e-05 )  
( -0.00218726 0.00079372 -0.000614229 )  
( 5.50442e-05 0.00236421 -0.00120891 )  
( -0.00128032 0.000214755 -8.61051e-05 )  
( -0.00155896 -0.000506935 -0.000196884 )  
)
