/*--------------------------------*- C++ -*----------------------------------*\
| =========                 |                                                 |
| \\      /  F ield         | OpenFOAM: The Open Source CFD Toolbox           |
|  \\    /   O peration     | Version:  4.x                                   |
|   \\  /    A nd           | Web:      www.OpenFOAM.org                      |
|    \\/     M anipulation  |                                                 |
\*---------------------------------------------------------------------------*/
FoamFile
{
    version     2.0;
    format      ascii;
    class       volScalarField;
    location    "25";
    object      Deff;
}
// * * * * * * * * * * * * * * * * * * * * * * * * * * * * * * * * * * * * * //

dimensions      [0 2 -1 0 0 0 0];

internalField   nonuniform List<scalar> 
132
(
9.95191e-08
9.95221e-08
9.95628e-08
9.95459e-08
9.94545e-08
9.93619e-08
9.93314e-08
9.9429e-08
9.95441e-08
9.95267e-08
9.94408e-08
9.94108e-08
9.93442e-08
9.93671e-08
9.92094e-08
9.92351e-08
9.92227e-08
9.92718e-08
9.96125e-08
9.93766e-08
9.93254e-08
9.92438e-08
9.92249e-08
9.9203e-08
9.91987e-08
9.91346e-08
9.8992e-08
9.95304e-08
9.93656e-08
9.93265e-08
9.9343e-08
9.91044e-08
9.89565e-08
9.89451e-08
9.8911e-08
9.88747e-08
9.8907e-08
9.88974e-08
9.89331e-08
9.9208e-08
9.89849e-08
9.896e-08
9.8871e-08
9.88086e-08
9.87729e-08
9.87372e-08
9.87124e-08
9.87544e-08
9.91045e-08
9.89161e-08
9.88857e-08
9.88186e-08
9.86975e-08
9.87053e-08
9.85936e-08
9.8698e-08
9.86981e-08
9.89608e-08
9.89399e-08
9.88701e-08
9.87985e-08
9.85563e-08
9.90205e-08
9.88389e-08
9.8696e-08
9.86624e-08
9.86255e-08
9.86506e-08
9.85558e-08
9.85517e-08
9.86273e-08
9.88904e-08
9.87401e-08
9.86643e-08
9.86004e-08
9.85007e-08
9.85207e-08
9.84017e-08
9.83432e-08
9.83801e-08
9.87564e-08
9.87008e-08
9.85748e-08
9.84185e-08
9.83438e-08
9.83319e-08
9.83035e-08
9.83827e-08
9.8414e-08
9.86944e-08
9.86143e-08
9.84803e-08
9.83509e-08
9.82776e-08
9.82495e-08
9.82185e-08
9.89474e-08
9.87732e-08
9.86021e-08
9.85492e-08
9.84595e-08
9.83762e-08
9.84385e-08
9.84675e-08
9.83774e-08
9.8781e-08
9.85528e-08
9.84377e-08
9.83831e-08
9.83544e-08
9.83012e-08
9.81944e-08
9.82506e-08
9.82301e-08
9.87557e-08
9.85925e-08
9.83595e-08
9.82913e-08
9.81962e-08
9.81103e-08
9.81413e-08
9.82195e-08
9.81194e-08
9.86754e-08
9.85033e-08
9.82525e-08
9.81327e-08
9.82158e-08
9.80169e-08
9.80567e-08
9.81811e-08
9.82393e-08
)
;

boundaryField
{
    inlet
    {
        type            calculated;
        value           uniform 0;
    }
    outlet
    {
        type            calculated;
        value           nonuniform 0();
    }
    wall
    {
        type            calculated;
        value           uniform 0;
    }
    procBoundary0to1
    {
        type            processor;
        value           uniform 0;
    }
    procBoundary0to2
    {
        type            processor;
        value           uniform 0;
    }
    procBoundary0to4
    {
        type            processor;
        value           uniform 0;
    }
    procBoundary0to6
    {
        type            processor;
        value           uniform 0;
    }
    procBoundary0to7
    {
        type            processor;
        value           uniform 0;
    }
}


// ************************************************************************* //
