/*--------------------------------*- C++ -*----------------------------------*\
| =========                 |                                                 |
| \\      /  F ield         | OpenFOAM: The Open Source CFD Toolbox           |
|  \\    /   O peration     | Version:  4.x                                   |
|   \\  /    A nd           | Web:      www.OpenFOAM.org                      |
|    \\/     M anipulation  |                                                 |
\*---------------------------------------------------------------------------*/
FoamFile
{
    version     2.0;
    format      ascii;
    class       volVectorField;
    location    "25";
    object      GField;
}
// * * * * * * * * * * * * * * * * * * * * * * * * * * * * * * * * * * * * * //

dimensions      [1 -2 -1 0 0 0 0];

internalField   nonuniform List<vector> 
132
(
(103.943 -1.45024 -2.69456)
(44.3403 -1.11074 -2.1291)
(114.048 -1.57838 -2.34619)
(60.5152 -1.00229 -1.76706)
(122.498 -0.800168 -0.21317)
(74.344 -0.735114 -0.878387)
(129.215 -0.584763 2.62849)
(90.7256 -0.420798 -0.689785)
(137.033 -2.62972 3.66961)
(104.09 -2.98169 -3.45655)
(41.9565 -2.13102 -2.10983)
(111.087 -3.97847 -2.9724)
(54.547 -1.92208 -2.01026)
(117.706 -4.13262 -1.17452)
(65.783 -1.72122 -1.23183)
(123.523 -6.75146 1.41332)
(78.0733 -3.08303 -0.467555)
(131.849 -12.8598 4.47512)
(104.98 -2.07909 -3.62177)
(39.771 -1.42149 -1.79327)
(109.491 -2.42124 -2.70607)
(49.1603 -1.85214 -1.59529)
(113.389 -1.88761 -0.573939)
(56.468 -2.08094 -1.29017)
(117.165 -3.09596 4.28917)
(63.7359 -3.71605 -1.76852)
(121.526 -9.53858 7.19106)
(104.165 -1.24504 -4.31857)
(40.5625 -0.620069 -2.02367)
(109.345 -0.238937 -3.77275)
(102.093 -2.1401 -7.70604)
(39.3483 -1.07015 -4.68222)
(106.122 -2.11951 -8.8215)
(47.1723 -1.15772 -4.06461)
(109.675 -1.63601 -9.20854)
(55.7122 -0.949073 -3.08185)
(112.853 -1.64658 -13.5421)
(65.3873 -0.0323703 -2.12112)
(117.408 -1.64806 -21.617)
(101.544 -3.67439 -8.51826)
(35.0044 -1.64275 -4.50604)
(102.959 -4.13747 -9.34324)
(37.9965 -1.41665 -3.90524)
(103.034 -4.10477 -9.48339)
(40.3754 -1.56786 -2.89889)
(104.065 -4.63938 -12.4879)
(44.8909 -3.25474 -2.62274)
(107.196 -7.90624 -20.295)
(100.807 -2.74858 -9.19395)
(31.8567 -1.12452 -4.30198)
(100.949 -2.9777 -10.417)
(30.9777 -1.10932 -3.89578)
(98.7244 -2.44731 -11.5462)
(29.9078 -1.45656 -3.37357)
(95.3553 -2.70689 -23.0969)
(27.3856 -2.0416 -7.10049)
(89.0963 -6.49779 -77.2284)
(99.5939 -0.612028 -9.5185)
(32.1466 -0.634482 -4.7144)
(99.9737 -0.125725 -10.5015)
(31.1682 -0.790876 -3.96308)
(96.9066 1.07768 -10.1629)
(101.232 -2.32092 -4.82688)
(35.4107 -1.21468 -2.97959)
(102.695 -2.20056 -4.55557)
(37.8288 -1.29554 -2.69903)
(104.516 -1.43456 -2.88409)
(38.9248 -1.2467 -1.6441)
(106.84 -0.0478482 -1.87563)
(41.8186 -1.71901 0.0128119)
(113.378 -2.9361 -3.04329)
(100.237 -4.46789 -5.8035)
(30.4221 -1.97432 -3.15863)
(98.8932 -5.52881 -5.6289)
(26.7344 -2.03884 -1.99337)
(96.9534 -6.54739 -3.36496)
(20.8078 -2.30737 -1.05646)
(95.9365 -16.5324 -2.69489)
(16.2201 -6.77914 0.19435)
(100.666 -67.9918 -3.82114)
(99.4436 -3.15712 -5.38554)
(25.6452 -1.43648 -2.7049)
(95.4153 -3.43436 -4.9566)
(13.3039 -1.15355 -1.47754)
(90.814 -2.45997 -2.17742)
(-2.57784 -2.0306 -0.599232)
(84.3894 -5.40791 0.0416928)
(-52.1901 -8.97865 2.75636)
(57.6102 -24.1514 -6.88457)
(98.5071 -0.378965 -6.32025)
(25.328 -0.292862 -3.00124)
(93.821 0.00205704 -7.27084)
(14.0872 -0.206313 -0.297322)
(89.1431 0.542013 -3.63879)
(3.56552 0.179953 -0.419309)
(82.9758 6.97517 -2.75505)
(99.7916 -3.18261 -3.76474)
(38.5255 -1.70027 -2.5748)
(102.568 -3.453 -3.92574)
(43.7055 -1.24236 -2.24697)
(104.909 -2.58711 -2.84403)
(48.4654 -1.46776 -1.14812)
(107.464 -3.1336 -1.05795)
(54.1205 -1.57259 0.27847)
(111.054 -3.54166 3.19424)
(98.6368 -4.25955 -4.44309)
(31.2024 -1.91109 -2.49533)
(97.3425 -4.73259 -4.62037)
(28.4015 -1.58681 -1.70375)
(95.903 -4.04951 -3.15047)
(26.3392 -1.42789 -0.354402)
(95.3361 -3.4952 -3.314)
(25.1096 -1.54362 1.03785)
(96.85 -5.77766 -4.77952)
(97.9924 -3.31857 -4.24371)
(29.1856 -1.3636 -2.32253)
(94.3387 -4.75665 -3.74551)
(21.1319 -0.176388 -1.01043)
(91.7911 -3.04893 -1.88657)
(15.6525 -0.867927 1.01789)
(90.3855 -3.09282 3.86118)
(10.4859 -1.30787 6.99919)
(95.031 -11.4292 49.398)
(98.378 -0.767384 -4.06901)
(26.7836 -0.24726 -2.51521)
(94.2016 0.234594 -4.10035)
(18.9827 -0.264171 -1.29137)
(89.3953 1.04893 -2.88291)
(11.7586 -0.938668 0.269908)
(88.0394 1.25736 -2.06512)
(2.91382 -4.4663 3.92132)
(82.73 6.17678 2.95188)
)
;

boundaryField
{
    inlet
    {
        type            calculated;
        value           uniform (67 0 0);
    }
    outlet
    {
        type            calculated;
        value           nonuniform 0();
    }
    wall
    {
        type            calculated;
        value           uniform (0 0 0);
    }
    procBoundary0to1
    {
        type            processor;
        value           nonuniform List<vector> 
12
(
(120.718 -0.741815 -3.27802)
(97.507 -4.01214 -0.625723)
(106.711 -9.02625 -13.2421)
(78.9758 1.71168 -0.796732)
(55.6808 -13.2352 -0.9448)
(23.6721 -3.76734 2.58588)
(84.7203 -1.77024 2.21307)
(20.4778 0.20629 -0.484632)
(-300.606 -12.4355 -52.0429)
(59.7265 -2.49176 0.743549)
(29.0437 0.0827349 0.675511)
(-13.8431 -4.87188 -0.829374)
)
;
    }
    procBoundary0to2
    {
        type            processor;
        value           nonuniform List<vector> 
44
(
(50.8596 -0.855307 -1.72409)
(112.512 0.623607 -2.09954)
(59.2477 -0.531244 -1.23769)
(116.239 2.65286 1.41015)
(65.1249 2.70717 1.32403)
(121.753 10.4208 8.6551)
(102.316 0.532195 -2.8584)
(38.1882 0.139903 -1.782)
(50.8596 -0.855307 -1.72409)
(106.641 1.24485 -2.53732)
(50.8596 -0.855307 -1.72409)
(112.512 0.623607 -2.09954)
(27.332 -0.649399 -3.44583)
(95.2468 1.9929 -14.583)
(26.0554 0.791648 -7.39037)
(96.2216 7.04208 -37.9675)
(99.9288 1.31437 -8.35248)
(32.5574 0.129853 -4.14322)
(99.2621 1.82636 -10.1008)
(30.3028 0.362736 -3.47481)
(27.332 -0.649399 -3.44583)
(97.5359 2.13349 -11.5847)
(27.332 -0.649399 -3.44583)
(95.2468 1.9929 -14.583)
(-17.7754 5.86769 -0.446575)
(59.1943 59.8159 -8.75804)
(99.2264 1.86648 -5.54609)
(27.3507 0.417572 -2.50379)
(95.5558 1.73938 -4.66497)
(16.5934 0.64765 -1.45922)
(93.031 1.52824 -2.33187)
(5.04013 1.15013 -0.911316)
(-17.7754 5.86769 -0.446575)
(91.6445 3.09629 -1.03613)
(-17.7754 5.86769 -0.446575)
(59.1943 59.8159 -8.75804)
(97.3126 2.12405 -5.18638)
(28.8063 0.691776 -2.16892)
(93.4343 3.95767 -4.78206)
(22.4889 -0.322816 -1.47685)
(90.9378 2.93252 -5.52686)
(19.8075 0.707678 -0.645887)
(84.8826 3.7474 -25.36)
(17.8361 1.94794 1.88843)
)
;
    }
    procBoundary0to4
    {
        type            processor;
        value           nonuniform List<vector> 
36
(
(100.201 -3.09 -2.21971)
(35.9695 -1.62992 -1.41177)
(101.032 -3.23938 -2.59104)
(37.0545 -1.64327 -1.35773)
(102.418 -2.24361 -2.18159)
(37.0771 -1.28739 -0.192538)
(103.867 -2.87729 -2.54552)
(40.9105 -1.95728 1.58326)
(105.76 -10.0505 -0.940943)
(98.2176 -4.94455 -1.90311)
(28.7023 -2.13881 -1.04509)
(95.3003 -5.57382 -1.99486)
(19.5546 -1.4888 -0.991363)
(93.1711 -6.02722 -2.22414)
(10.8698 -0.726603 0.274067)
(92.806 -12.203 -2.68287)
(-0.562593 -0.249478 0.327446)
(93.6903 -22.5404 -1.8466)
(98.4148 -2.78898 -1.99406)
(24.9938 -1.60545 -1.05418)
(93.0408 -2.9825 -1.87912)
(11.6658 -1.23464 -0.149309)
(90.6948 -2.44405 -1.2288)
(-0.037556 -0.793141 0.628729)
(90.5077 -4.58842 -0.885759)
(-4.04041 -2.85227 3.25078)
(93.7164 -19.7826 4.65335)
(98.0968 -1.3902 -2.09701)
(26.0315 -0.240042 -1.23793)
(91.9092 -1.11447 -0.997943)
(13.8116 -0.57782 -1.6035)
(87.9288 -3.06643 -1.9276)
(2.50208 -0.334096 0.487153)
(84.9202 -22.1779 -2.15304)
(-18.6615 1.15574 4.11317)
(87.7944 34.6911 0.314016)
)
;
    }
    procBoundary0to6
    {
        type            processor;
        value           uniform (97.7589 12.3054 23.1626);
    }
    procBoundary0to7
    {
        type            processor;
        value           uniform (-30.6901 -7.66654 28.5173);
    }
}


// ************************************************************************* //
