/*--------------------------------*- C++ -*----------------------------------*\
| =========                 |                                                 |
| \\      /  F ield         | OpenFOAM: The Open Source CFD Toolbox           |
|  \\    /   O peration     | Version:  4.x                                   |
|   \\  /    A nd           | Web:      www.OpenFOAM.org                      |
|    \\/     M anipulation  |                                                 |
\*---------------------------------------------------------------------------*/
FoamFile
{
    version     2.0;
    format      ascii;
    class       volScalarField;
    location    "25";
    object      p;
}
// * * * * * * * * * * * * * * * * * * * * * * * * * * * * * * * * * * * * * //

dimensions      [1 -1 -2 0 0 0 0];

internalField   nonuniform List<scalar> 
132
(
5728.71
5712.83
5714.76
5708.26
5700.52
5689.07
5705.01
5655.98
5713.22
5730.99
5715.12
5715.57
5708.83
5700.85
5686.64
5700.13
5649.51
5715.09
5728.18
5716.08
5709.86
5713.64
5695.85
5691.68
5715.06
5657.97
5719.68
5730.07
5714.58
5712.51
3853.64
3833.67
3840.6
3827.52
3819.08
3813.25
3820.53
3771.86
3826.59
3855.26
3837.03
3840.27
3830.73
3824.31
3806.74
3815.77
3772.12
3826.16
3852.48
3837.62
3829.19
3842.84
3802.03
3831.9
3819.97
3772.26
3832.78
3853.26
3833.53
3830.79
3835.43
3830.3
1975.12
1956.64
1963.64
1947.48
1951.99
1929.33
1950.78
1918.19
1954.67
1977.43
1959.62
1963.57
1950.39
1954.15
1929.23
1947.12
1913.09
1948.28
1977.96
1971.37
1963.19
1955.94
1938.03
1936.2
1949.94
1935.56
1950.79
1975.1
1970.67
1951.04
1960.29
1942.4
1928.96
1949.37
99.8979
74.6674
90.6379
64.1517
82.1947
45.2555
74.6429
20.3489
62.7451
101.798
74.4641
86.8648
70.4365
84.7038
44.7978
71.8611
21.0542
65.1105
99.1974
90.1319
77.5707
84.4038
66.1897
54.0171
76.5363
21.3911
61.9058
88.849
80.4533
10.9787
133.466
75.1244
47.1612
77.521
18.5265
66.4858
)
;

boundaryField
{
    inlet
    {
        type            calculated;
        value           nonuniform List<scalar> 
16
(
5728.71
5730.99
5728.19
5730.07
3853.64
3855.26
3852.48
3853.26
1975.12
1977.43
1977.96
1975.11
99.898
101.799
99.1983
88.8498
)
;
    }
    outlet
    {
        type            calculated;
        value           nonuniform 0();
    }
    wall
    {
        type            calculated;
        value           nonuniform List<scalar> 
66
(
6667.67
6669.95
6667.13
6669.02
6651.78
6654.05
6655
6653.5
6653.71
6654.51
6648.79
6651.45
6647.2
6647.76
6652.53
6639.46
6639.79
6634.79
6628
6625.56
6630.59
6643.94
6639.06
6653.99
6594.89
6588.43
6596.89
6652.12
6654.06
6658.63
5728.71
3853.64
1975.12
99.8981
5712.83
3833.67
1956.63
74.6636
5714.76
3840.6
1963.65
90.6396
5708.25
3827.52
1947.49
64.1485
5700.51
3819.08
1951.98
82.1946
5689.06
3813.26
1929.32
45.255
5705.01
3820.53
1950.78
74.642
5655.98
3771.86
1918.19
20.3496
5713.22
3826.6
1954.67
62.7465
)
;
    }
    procBoundary0to1
    {
        type            processor;
        value           nonuniform List<scalar> 
12
(
5636.9
5638.39
5628.49
3739.71
3747.64
3723.57
1904.21
1905.17
1908.48
-6.84928
-4.90988
-14.0149
)
;
    }
    procBoundary0to2
    {
        type            processor;
        value           nonuniform List<scalar> 
44
(
5710.43
5707.7
5673.22
5719.99
5619.47
5745.48
5729.48
5710.85
5710.43
5718.36
5710.43
5707.7
3804.25
3824.34
3765.33
3833.98
3854.12
3832.83
3840.21
3823.08
3804.25
3826.85
3804.25
3824.34
1908.29
1956.91
1978.84
1967.03
1968.24
1942.3
1948
1923.37
1908.29
1959.01
1908.29
1956.91
99.3921
88.9605
80.0211
75.6924
74.6854
45.2139
82.0306
24.3644
)
;
    }
    procBoundary0to4
    {
        type            processor;
        value           nonuniform List<scalar> 
36
(
-1780.19
-1802.33
-1787.1
-1817.09
-1794.6
-1836.67
-1799.7
-1851.34
-1801.73
-1778.09
-1799.96
-1787.37
-1814.03
-1794.46
-1837.94
-1802.78
-1849.83
-1806.25
-1777.26
-1790.91
-1786.59
-1812.3
-1807.82
-1834.14
-1802.59
-1845.51
-1799.2
-1782.23
-1793.17
-1796.53
-1801.13
-1806.23
-1833.5
-1804.72
-1848.63
-1804.21
)
;
    }
    procBoundary0to6
    {
        type            processor;
        value           uniform 67.532;
    }
    procBoundary0to7
    {
        type            processor;
        value           uniform -1.79159;
    }
}


// ************************************************************************* //
