/*--------------------------------*- C++ -*----------------------------------*\
| =========                 |                                                 |
| \\      /  F ield         | OpenFOAM: The Open Source CFD Toolbox           |
|  \\    /   O peration     | Version:  4.x                                   |
|   \\  /    A nd           | Web:      www.OpenFOAM.org                      |
|    \\/     M anipulation  |                                                 |
\*---------------------------------------------------------------------------*/
FoamFile
{
    version     2.0;
    format      ascii;
    class       volScalarField;
    location    "25";
    object      particleRelTemp;
}
// * * * * * * * * * * * * * * * * * * * * * * * * * * * * * * * * * * * * * //

dimensions      [0 0 0 0 0 0 0];

internalField   nonuniform List<scalar> 
132
(
-1.5082e-07
-1.88916e-07
-2.00892e-07
-2.40172e-07
-1.49128e-07
-2.52095e-08
-2.49642e-08
4.14643e-07
1.36169e-06
-1.78862e-07
-2.76054e-07
-2.89383e-07
-3.36215e-07
-3.23979e-07
-2.87677e-08
5.98837e-08
1.96029e-07
-1.61262e-07
-2.55346e-07
-3.08773e-07
-3.60446e-07
-4.61917e-07
-4.40517e-07
1.39785e-07
1.02642e-07
4.00934e-08
-3.06714e-07
-1.76814e-07
-3.10454e-07
-3.29945e-07
-1.45291e-07
-2.06229e-07
-2.18308e-07
-2.57088e-07
-1.71043e-07
-1.38637e-08
4.63529e-08
1.76832e-07
6.5464e-07
-1.5169e-07
-2.59237e-07
-3.08972e-07
-4.0198e-07
-3.3257e-07
3.39484e-08
1.09241e-07
1.2789e-07
2.07205e-07
-1.67473e-07
-3.10133e-07
-3.75621e-07
-4.63429e-07
-3.59734e-07
3.86288e-07
1.20845e-07
8.11931e-08
-3.35186e-07
-1.91418e-07
-3.19413e-07
-3.92114e-07
-4.11728e-07
-3.47444e-07
-1.34019e-07
-1.87603e-07
-1.9843e-07
-1.91724e-07
-1.13069e-07
2.58376e-08
1.21068e-07
2.11177e-07
4.51632e-07
-1.56108e-07
-2.45466e-07
-2.70791e-07
-2.60524e-07
-1.64018e-07
8.58243e-08
1.78014e-07
3.04931e-07
8.02786e-07
-1.63128e-07
-3.19966e-07
-3.53019e-07
-2.88392e-07
-2.87355e-07
1.31276e-07
2.51994e-07
3.4955e-07
7.18442e-07
-1.88341e-07
-3.77812e-07
-4.34049e-07
-2.00666e-07
-1.59026e-07
-2.10406e-08
1.39439e-07
-1.15112e-07
-1.62642e-07
-1.66915e-07
-1.1214e-07
-4.07117e-08
3.43735e-08
1.57846e-07
2.38113e-07
4.07588e-07
-1.31072e-07
-2.07592e-07
-2.07633e-07
-1.42113e-07
-5.16785e-08
6.25577e-08
1.79245e-07
2.99104e-07
7.33128e-07
-2.26227e-07
-3.31986e-07
-3.90802e-07
-7.22921e-08
-9.64057e-09
1.0557e-07
2.01352e-07
2.83746e-07
7.54531e-07
-1.80008e-07
-3.97687e-07
-6.32629e-07
1.27685e-07
1.8794e-07
9.49092e-08
1.51665e-07
1.9854e-07
4.18686e-07
)
;

boundaryField
{
    inlet
    {
        type            calculated;
        value           nonuniform List<scalar> 
16
(
-1.5082e-07
-1.78862e-07
-2.55346e-07
-1.76814e-07
-1.45291e-07
-1.5169e-07
-1.67473e-07
-1.91418e-07
-1.34019e-07
-1.56108e-07
-1.63128e-07
-1.88341e-07
-1.15112e-07
-1.31072e-07
-2.26227e-07
-1.80008e-07
)
;
    }
    outlet
    {
        type            calculated;
        value           nonuniform 0();
    }
    wall
    {
        type            calculated;
        value           nonuniform List<scalar> 
66
(
-1.5082e-07
-1.78862e-07
-2.55346e-07
-1.76814e-07
-1.88916e-07
-2.76054e-07
-3.08773e-07
-3.10454e-07
-2.00892e-07
-2.89383e-07
-3.60446e-07
-3.29945e-07
-2.40172e-07
-3.36215e-07
-4.61917e-07
-1.49128e-07
-3.23979e-07
-4.40517e-07
-2.52095e-08
-2.87677e-08
1.39785e-07
-2.49642e-08
5.98837e-08
1.02642e-07
4.14643e-07
1.96029e-07
4.00934e-08
1.36169e-06
-1.61262e-07
-3.06714e-07
-1.5082e-07
-1.45291e-07
-1.34019e-07
-1.15112e-07
-1.88916e-07
-2.06229e-07
-1.87603e-07
-1.62642e-07
-2.00892e-07
-2.18308e-07
-1.9843e-07
-1.66915e-07
-2.40172e-07
-2.57088e-07
-1.91724e-07
-1.1214e-07
-1.49128e-07
-1.71043e-07
-1.13069e-07
-4.07117e-08
-2.52095e-08
-1.38637e-08
2.58376e-08
3.43735e-08
-2.49642e-08
4.63529e-08
1.21068e-07
1.57846e-07
4.14643e-07
1.76832e-07
2.11177e-07
2.38113e-07
1.36169e-06
6.5464e-07
4.51632e-07
4.07588e-07
)
;
    }
    procBoundary0to1
    {
        type            processor;
        value           nonuniform List<scalar> 
12
(
6.63604e-07
-1.08225e-06
-1.2868e-06
3.57323e-08
-3.04471e-07
-1.13748e-06
2.28074e-07
1.02688e-06
3.1902e-06
3.72081e-07
7.60752e-07
1.25803e-06
)
;
    }
    procBoundary0to2
    {
        type            processor;
        value           nonuniform List<scalar> 
44
(
-3.67206e-07
-3.2232e-07
1.41982e-08
5.00243e-08
3.66377e-07
8.21602e-07
-1.88987e-07
-2.83202e-07
-3.67206e-07
-3.14936e-07
-3.67206e-07
-3.2232e-07
2.04721e-08
1.34643e-07
5.20073e-08
2.24961e-07
-1.49193e-07
-2.78597e-07
-3.32752e-07
-3.11718e-07
2.04721e-08
-2.64129e-07
2.04721e-08
1.34643e-07
2.12654e-07
3.86235e-07
-1.67451e-07
-2.76335e-07
-3.29746e-07
-2.244e-07
-1.61848e-07
-4.75839e-08
2.12654e-07
1.69536e-08
2.12654e-07
3.86235e-07
-1.74367e-07
-3.27975e-07
-2.63279e-07
-8.07586e-09
6.19345e-08
2.22083e-08
6.53396e-08
1.21986e-07
)
;
    }
    procBoundary0to4
    {
        type            processor;
        value           nonuniform List<scalar> 
36
(
-9.6516e-08
-1.322e-07
-1.18641e-07
-7.36713e-08
-1.12372e-08
4.1267e-08
1.37685e-07
1.72761e-07
2.48098e-07
-1.06757e-07
-1.59491e-07
-1.51942e-07
-8.40129e-08
-1.20141e-08
5.15418e-08
1.46111e-07
1.84571e-07
3.61988e-07
-1.30815e-07
-2.4259e-07
-1.8807e-07
-4.57858e-08
5.09248e-08
6.29282e-08
1.42083e-07
1.97129e-07
3.37012e-07
-1.30233e-07
-2.51602e-07
-2.51786e-07
-9.41778e-09
1.0114e-07
1.02781e-07
1.13531e-07
1.27366e-07
2.90495e-07
)
;
    }
    procBoundary0to6
    {
        type            processor;
        value           uniform 2.11536e-07;
    }
    procBoundary0to7
    {
        type            processor;
        value           uniform 6.12295e-07;
    }
}


// ************************************************************************* //
