/*--------------------------------*- C++ -*----------------------------------*\
| =========                 |                                                 |
| \\      /  F ield         | OpenFOAM: The Open Source CFD Toolbox           |
|  \\    /   O peration     | Version:  4.x                                   |
|   \\  /    A nd           | Web:      www.OpenFOAM.org                      |
|    \\/     M anipulation  |                                                 |
\*---------------------------------------------------------------------------*/
FoamFile
{
    version     2.0;
    format      ascii;
    class       volScalarField;
    location    "25";
    object      QWallFluid;
}
// * * * * * * * * * * * * * * * * * * * * * * * * * * * * * * * * * * * * * //

dimensions      [1 -1 -3 0 0 0 0];

internalField   nonuniform List<scalar> 
132
(
1.75969e+09
8.90833e+08
1.89507e+09
1.14166e+09
2.00613e+09
1.34551e+09
2.09399e+09
1.57778e+09
2.19531e+09
8.81213e+08
4.26524e+08
9.28319e+08
5.25638e+08
9.72048e+08
6.10224e+08
1.01101e+09
6.99999e+08
1.06837e+09
0
4.08362e+08
9.17301e+08
4.83659e+08
9.43036e+08
5.4024e+08
9.68746e+08
5.95729e+08
1.00052e+09
8.81697e+08
4.14754e+08
9.16359e+08
8.69116e+08
4.06751e+08
8.96866e+08
4.68983e+08
9.20799e+08
5.34761e+08
9.44823e+08
6.0729e+08
9.82655e+08
0
0
0
0
0
0
0
0
0
0
0
0
0
0
0
0
0
0
0
0
0
0
0
8.62103e+08
3.72868e+08
8.71924e+08
3.9279e+08
8.83753e+08
4.01316e+08
8.99209e+08
4.24822e+08
9.43374e+08
0
0
0
0
0
0
0
0
0
0
0
0
0
0
0
0
0
0
0
0
0
0
0
0
0
8.52152e+08
3.98592e+08
8.71123e+08
4.40399e+08
8.86551e+08
4.77992e+08
9.03637e+08
5.21987e+08
9.28037e+08
0
0
0
0
0
0
0
0
0
0
0
0
0
0
0
0
0
0
0
0
0
0
0
0
0
0
0
)
;

boundaryField
{
    inlet
    {
        type            calculated;
        value           uniform 0;
    }
    outlet
    {
        type            calculated;
        value           nonuniform 0();
    }
    wall
    {
        type            calculated;
        value           uniform 0;
    }
    procBoundary0to1
    {
        type            processor;
        value           nonuniform List<scalar> 
12
(
1.98336e+09
8.36273e+08
9.06277e+08
7.06176e+08
0
0
7.47142e+08
0
0
5.65043e+08
0
0
)
;
    }
    procBoundary0to2
    {
        type            processor;
        value           nonuniform List<scalar> 
44
(
4.96782e+08
9.37225e+08
5.61107e+08
9.62089e+08
6.05603e+08
1.00309e+09
8.68789e+08
3.95132e+08
4.96782e+08
8.98009e+08
4.96782e+08
9.37225e+08
0
0
0
0
0
0
0
0
0
0
0
0
0
0
0
0
0
0
0
0
0
0
0
0
0
0
0
0
0
0
0
0
)
;
    }
    procBoundary0to4
    {
        type            processor;
        value           nonuniform List<scalar> 
36
(
8.54604e+08
3.76868e+08
8.60355e+08
3.85892e+08
8.69523e+08
3.8576e+08
8.79504e+08
4.17775e+08
8.95058e+08
0
0
0
0
0
0
0
0
0
0
0
0
0
0
0
0
0
0
0
0
0
0
0
0
0
0
0
)
;
    }
    procBoundary0to6
    {
        type            processor;
        value           uniform 0;
    }
    procBoundary0to7
    {
        type            processor;
        value           uniform 0;
    }
}


// ************************************************************************* //
