/*--------------------------------*- C++ -*----------------------------------*\
| =========                 |                                                 |
| \\      /  F ield         | OpenFOAM: The Open Source CFD Toolbox           |
|  \\    /   O peration     | Version:  4.x                                   |
|   \\  /    A nd           | Web:      www.OpenFOAM.org                      |
|    \\/     M anipulation  |                                                 |
\*---------------------------------------------------------------------------*/
FoamFile
{
    version     2.0;
    format      ascii;
    class       volScalarField;
    location    "25";
    object      Sm;
}
// * * * * * * * * * * * * * * * * * * * * * * * * * * * * * * * * * * * * * //

dimensions      [1 -3 -1 0 0 0 0];

internalField   nonuniform List<scalar> 
132
(
5.50207e-65
4.41722e-65
3.09979e-65
2.86724e-65
3.79707e-65
4.02965e-65
4.72734e-65
3.48656e-65
1.70505e-65
4.88215e-65
4.72718e-65
4.57225e-65
5.1147e-65
3.17711e-65
5.81248e-65
4.41713e-65
4.9583e-65
3.9521e-65
2.71238e-65
5.34722e-65
4.72718e-65
4.72676e-65
4.26127e-65
4.34131e-65
3.25537e-65
4.49308e-65
6.89817e-65
2.86729e-65
4.41731e-65
3.25476e-65
4.18473e-65
6.66473e-65
8.0597e-65
7.0521e-65
6.81952e-65
7.12995e-65
5.73501e-65
6.43214e-65
6.19971e-65
5.42466e-65
7.98216e-65
6.27719e-65
7.20706e-65
7.28396e-65
7.13101e-65
7.0528e-65
7.74936e-65
6.97277e-65
5.88956e-65
8.13714e-65
6.81935e-65
6.27587e-65
7.35635e-65
5.89343e-65
8.29469e-65
6.04482e-65
4.95934e-65
8.05939e-65
6.12222e-65
6.12217e-65
4.72701e-65
8.98798e-65
5.96715e-65
6.81975e-65
7.28473e-65
6.74229e-65
6.58726e-65
5.1924e-65
7.0524e-65
6.89735e-65
4.72668e-65
6.43211e-65
7.05224e-65
6.43225e-65
5.96724e-65
7.36213e-65
5.73516e-65
7.36258e-65
8.83444e-65
8.28715e-65
7.67194e-65
6.27723e-65
6.58717e-65
8.21437e-65
7.82578e-65
7.36391e-65
7.4403e-65
6.20006e-65
4.57153e-65
7.28447e-65
7.59461e-65
7.67198e-65
8.13726e-65
8.21497e-65
7.13046e-65
7.13003e-65
4.57224e-65
4.88238e-65
5.73484e-65
5.34739e-65
6.12242e-65
7.44e-65
4.80491e-65
4.10756e-65
4.96006e-65
5.5022e-65
8.13727e-65
7.2848e-65
6.7425e-65
5.81253e-65
5.96763e-65
8.37032e-65
6.58761e-65
5.50219e-65
4.57227e-65
4.95977e-65
7.28442e-65
5.73502e-65
7.28518e-65
8.06069e-65
6.7428e-65
5.11518e-65
8.06094e-65
5.26967e-65
5.88957e-65
7.98024e-65
9.06986e-65
4.49549e-65
9.14583e-65
7.13037e-65
5.42511e-65
2.32512e-65
)
;

boundaryField
{
    inlet
    {
        type            calculated;
        value           uniform 0;
    }
    outlet
    {
        type            calculated;
        value           nonuniform 0();
    }
    wall
    {
        type            calculated;
        value           uniform 0;
    }
    procBoundary0to1
    {
        type            processor;
        value           nonuniform List<scalar> 
12
(
3.69997e-65
3.64166e-65
3.48663e-65
6.65789e-65
7.20612e-65
8.13024e-65
7.05271e-65
5.57901e-65
7.9032e-65
6.58786e-65
7.05298e-65
5.73531e-65
)
;
    }
    procBoundary0to2
    {
        type            processor;
        value           nonuniform List<scalar> 
44
(
6.50932e-65
4.88182e-65
2.55783e-65
4.88082e-65
3.01929e-65
4.10322e-65
5.73458e-65
6.5097e-65
6.50932e-65
5.11466e-65
6.50932e-65
4.88182e-65
8.44921e-65
9.76427e-65
5.73312e-65
9.2207e-65
5.42464e-65
6.81971e-65
7.67206e-65
7.82667e-65
8.44921e-65
6.97517e-65
8.44921e-65
9.76427e-65
7.59476e-65
8.13701e-65
7.28449e-65
4.95979e-65
5.50224e-65
6.12199e-65
5.57997e-65
7.1302e-65
7.59476e-65
8.37008e-65
7.59476e-65
8.13701e-65
4.80474e-65
8.13719e-65
8.36968e-65
6.51036e-65
6.82014e-65
5.89018e-65
6.27764e-65
7.75013e-65
)
;
    }
    procBoundary0to4
    {
        type            processor;
        value           nonuniform List<scalar> 
36
(
5.19228e-65
7.36238e-65
7.51737e-65
5.57993e-65
5.96747e-65
5.65747e-65
7.59512e-65
6.7427e-65
8.91306e-65
7.74963e-65
6.35488e-65
7.36247e-65
8.60257e-65
8.21518e-65
7.51769e-65
6.35517e-65
5.42524e-65
9.06845e-65
6.97467e-65
8.75733e-65
6.66492e-65
8.44768e-65
6.66514e-65
5.96759e-65
6.12273e-65
9.68825e-65
5.65782e-65
4.33982e-65
5.73484e-65
7.5946e-65
5.19268e-65
7.36274e-65
6.35496e-65
9.22333e-65
5.96765e-65
5.96777e-65
)
;
    }
    procBoundary0to6
    {
        type            processor;
        value           uniform 6.74272e-65;
    }
    procBoundary0to7
    {
        type            processor;
        value           uniform 9.92134e-65;
    }
}


// ************************************************************************* //
