/*--------------------------------*- C++ -*----------------------------------*\
  =========                 |
  \\      /  F ield         | OpenFOAM: The Open Source CFD Toolbox
   \\    /   O peration     | Website:  https://openfoam.org
    \\  /    A nd           | Version:  4.x
     \\/     M anipulation  |
\*---------------------------------------------------------------------------*/
FoamFile
{
    version     2.0;
    format      ascii;
    class       Cloud<passiveParticle>;
    location    0;
    object      positions;
}
// * * * * * * * * * * * * * * * * * * * * * * * * * * * * * * * * * * * * * //

324
(
( 0.0389361 -0.0811704 0.0294885 ) 1
( 0.0915397 -0.0733619 0.0223622 ) 3
( 0.244857 -0.0296606 0.0296488 ) 26
( 0.104319 -0.0622632 0.0322895 ) 12
( 0.121618 -0.0409074 0.0239443 ) 22
( 0.0695432 -0.0265591 0.0234289 ) 20
( 0.0144647 -0.0313724 0.0342985 ) 18
( 0.00981708 -0.0204754 0.0185334 ) 18
( 0.230241 -0.015134 0.0288251 ) 26
( 0.0184427 -0.0623871 0.015989 ) 9
( 0.242161 -0.00397971 0.0176407 ) 35
( 0.205426 -0.0421793 0.0146633 ) 25
( 0.180277 -0.0292765 0.0209076 ) 24
( 0.247896 -0.0512641 0.0183528 ) 17
( 0.23971 -0.0713076 0.025389 ) 17
( 0.126816 -0.0522903 0.0392816 ) 13
( 0.118352 -0.0743638 0.0483566 ) 40
( 0.0666456 -0.0449663 0.0295674 ) 11
( 0.0819508 -0.0414624 0.0178194 ) 20
( 0.139209 -0.00760765 0.0335508 ) 32
( 0.122939 -0.0693101 0.0297173 ) 13
( 0.170254 -0.0153733 0.0308274 ) 24
( 0.211338 -0.00887282 0.0297314 ) 34
( 0.124437 -0.0215867 0.0208592 ) 22
( 0.0609465 -0.0900811 0.0331628 ) 2
( 0.202718 -0.0201595 0.0159313 ) 25
( 0.0346688 -0.0220563 0.0162366 ) 19
( 0.232376 -0.0461173 0.02976 ) 17
( 0.0979276 -0.0115819 0.0331896 ) 30
( 0.198261 -0.0680569 0.0275529 ) 16
( 0.124429 -0.0284688 0.0393248 ) 22
( 0.0773177 -0.00606682 0.0280139 ) 29
( 0.193911 -0.083632 0.0163242 ) 6
( 0.0538147 -0.0306977 0.0347468 ) 19
( 0.0765811 -0.0602471 0.0214397 ) 11
( 0.050723 -0.090028 0.0160806 ) 1
( 0.0600346 -0.0673925 0.030032 ) 11
( 0.153664 -0.0452409 0.0287263 ) 14
( 0.136943 -0.053059 0.0221334 ) 13
( 0.181278 -0.0681753 0.0173928 ) 15
( 0.0316516 -0.0621304 0.0306597 ) 10
( 0.0486553 -0.010827 0.0249243 ) 28
( 0.0294019 -0.0417686 0.0234953 ) 19
( 0.0877408 -0.0204247 0.0188185 ) 21
( 0.139775 -0.0768753 0.0223494 ) 5
( 0.184709 -0.0540385 0.0307882 ) 15
( 0.141335 -0.0318286 0.0210876 ) 23
( 0.113813 -0.0820126 0.0173417 ) 4
( 0.157839 -0.0837435 0.0270832 ) 5
( 0.0889539 -0.0435475 0.0384537 ) 12
( 0.0679496 -0.079104 0.0163322 ) 2
( 0.10656 -0.0145228 0.015621 ) 21
( 0.1516 -0.022732 0.0355038 ) 23
( 0.189968 -0.00730387 0.0363601 ) 33
( 0.212592 -0.0901653 0.0161191 ) 7
( 0.0965475 -0.054873 0.0156382 ) 12
( 0.136306 -0.00512215 0.0144059 ) 31
( 0.0098094 -0.0747328 0.0283225 ) 0
( 0.185508 -0.0100993 0.0172189 ) 33
( 0.00975418 -0.056889 0.0369901 ) 9
( 0.0817222 -0.0226118 0.0382377 ) 20
( 0.103827 -0.090112 0.0325872 ) 3
( 0.0284527 -0.0173732 0.0353801 ) 19
( 0.197064 -0.0316211 0.0310029 ) 25
( 0.047637 -0.0369605 0.0172382 ) 19
( 0.217354 -0.0774852 0.0306562 ) 7
( 0.217373 -0.0301151 0.0251035 ) 25
( 0.164869 -0.0590564 0.0369581 ) 14
( 0.226106 -0.0573764 0.0147794 ) 17
( 0.0841921 -0.0627897 0.0393483 ) 12
( 0.047893 -0.0508713 0.0310459 ) 10
( 0.11908 -0.0036828 0.0267043 ) 31
( 0.176433 -0.0902398 0.0228725 ) 6
( 0.109017 -0.0441597 0.038618 ) 12
( 0.0586398 -3.3705e-05 0.0382886 ) 29
( 0.154466 -0.0122003 0.0193184 ) 32
( 0.249693 -0.0871562 0.017696 ) 8
( 0.22886 0.00825149 0.0255851 ) 35
( 0.0660947 0.0126056 0.0236046 ) 29
( 0.18928 0.0101586 0.0260264 ) 33
( 0.0923565 0.00911928 0.0295858 ) 30
( 0.20438 0.0019695 0.0460556 ) 70
( 0.14996 0.00638659 0.0242447 ) 32
( 0.209207 0.0103429 0.0272994 ) 34
( 0.170853 0.00448473 0.0313904 ) 33
( 0.0353855 0.00431237 0.0405077 ) 28
( 0.212411 -0.0541425 0.0287951 ) 16
( 0.0194468 -0.0902685 0.0354894 ) 0
( 0.0995959 -0.0354385 0.0238802 ) 21
( 0.230982 -0.0903531 0.0233337 ) 8
( 0.0283592 -0.0900944 0.0153029 ) 1
( 0.0800786 -0.0877285 0.0289635 ) 2
( 0.158935 -0.0655039 0.019463 ) 14
( 0.00961873 -0.000933893 0.0156742 ) 27
( 0.00993498 -0.0452914 0.0211944 ) 9
( 0.116255 -0.0578374 0.0148806 ) 13
( 0.0258136 -0.0467189 0.0422876 ) 9
( 0.0289455 -0.00365493 0.0213357 ) 28
( 0.221999 0.0104977 0.0440127 ) 70
( 0.132043 -0.0558229 0.0577707 ) 49
( 0.141055 -0.0728793 0.0542509 ) 41
( 0.16894 -0.0901703 0.0421981 ) 6
( 0.155325 -0.00687799 0.0547117 ) 68
( 0.0335231 -0.0272079 0.0518842 ) 55
( 0.127784 -0.0900861 0.0562164 ) 40
( 0.0426631 -0.0769828 0.0597468 ) 37
( 0.168025 -0.0420782 0.0591352 ) 60
( 0.126077 -0.00920412 0.0691529 ) 67
( 0.231127 -0.0235076 0.0596475 ) 62
( 0.0467168 -0.0574564 0.0615562 ) 46
( 0.116386 -0.0443886 0.0604251 ) 49
( 0.0860622 -0.0775224 0.0621226 ) 39
( 0.242686 -0.0904319 0.0561176 ) 44
( 0.210552 -0.0331048 0.0605307 ) 61
( 0.246761 -0.0570128 0.0543993 ) 53
( 0.0743624 0.000191041 0.0625222 ) 65
( 0.0649947 -0.0380568 0.0655769 ) 56
( 0.203552 -0.0901115 0.0600698 ) 43
( 0.00990678 -0.0828489 0.0715205 ) 72
( 0.1687 0.0101059 0.0580266 ) 69
( 0.071994 -0.0639086 0.0605055 ) 47
( 0.187119 -0.0730857 0.0626653 ) 42
( 0.234651 -0.0726981 0.0540037 ) 44
( 0.148405 -0.090504 0.0574939 ) 41
( 0.0902563 -0.0189083 0.0612465 ) 57
( 0.229817 -0.047329 0.0515445 ) 53
( 0.20949 0.00979365 0.0654775 ) 70
( 0.175851 -0.00693929 0.0677083 ) 69
( 0.00969112 -0.0103961 0.062726 ) 63
( 0.0664419 -0.0173193 0.0680522 ) 56
( 0.0270424 -0.0604752 0.0716042 ) 81
( 0.195202 -0.0144968 0.054789 ) 61
( 0.149974 -0.0370629 0.0663554 ) 59
( 0.0639828 -0.0902022 0.0565727 ) 38
( 0.166606 -0.0655526 0.0620102 ) 50
( 0.188781 -0.0334914 0.0595033 ) 60
( 0.105048 -0.0726632 0.0653435 ) 39
( 0.223367 -0.0906858 0.0613676 ) 44
( 0.249818 -0.00223849 0.053546 ) 71
( 0.115622 -0.0247977 0.0589333 ) 58
( 0.0308752 0.00972136 0.0591217 ) 64
( 0.191147 0.00381229 0.061204 ) 69
( 0.0883083 0.0130017 0.0685553 ) 66
( 0.0879209 -0.0529257 0.0558552 ) 48
( 0.102397 -0.00182581 0.0563188 ) 66
( 0.118879 0.00799686 0.0612616 ) 67
( 0.211333 -0.0568068 0.05057 ) 52
( 0.016872 -0.0267419 0.0715639 ) 90
( 0.0296315 -0.0851673 0.0724812 ) 73
( 0.0266587 -0.0085985 0.0529423 ) 63
( 0.107821 -0.0899234 0.055463 ) 39
( 0.15137 -0.0560361 0.0552261 ) 50
( 0.20541 -0.0900957 0.0402737 ) 7
( 0.215361 -0.0756749 0.0525289 ) 43
( 0.142398 -0.0876134 0.0389253 ) 5
( 0.063082 -0.0213621 0.0492733 ) 56
( 0.0757103 0.00953132 0.0403074 ) 29
( 0.00964945 -0.0454648 0.063092 ) 45
( 0.0996856 -0.0310149 0.0493589 ) 57
( 0.182898 -0.0245126 0.0429647 ) 60
( 0.125582 -0.0733847 0.0667963 ) 40
( 0.0629605 -0.0553744 0.045567 ) 47
( 0.046786 -0.0303926 0.067914 ) 55
( 0.228002 -0.0893766 0.0425795 ) 8
( 0.0703006 -0.0756527 0.0447284 ) 38
( 0.194136 -0.0476634 0.0469147 ) 51
( 0.0179942 -0.0611693 0.0543603 ) 45
( 0.216066 -0.0074512 0.0592716 ) 70
( 0.159648 -0.0198655 0.0689565 ) 59
( 0.134664 -0.0120266 0.0519389 ) 67
( 0.211401 -0.0395253 0.0418852 ) 25
( 0.0856112 -0.00570959 0.0473812 ) 66
( 0.133949 -0.0314686 0.0563018 ) 58
( 0.106282 -0.0588819 0.0515063 ) 48
( 0.15116 -0.0736016 0.0713704 ) 41
( 0.0456822 -0.0902894 0.045697 ) 37
( 0.22888 -0.030432 0.0412941 ) 26
( 0.0827284 -0.0905444 0.0479328 ) 38
( 0.177774 -0.0901301 0.0599143 ) 42
( 0.226963 -0.0624592 0.0392385 ) 17
( 0.143842 -0.0622679 0.0379762 ) 14
( 0.164538 -0.0246188 0.0503263 ) 59
( 0.136645 0.00760709 0.0511317 ) 67
( 0.18017 -0.061455 0.0486164 ) 51
( 0.0804899 -0.0345595 0.0539515 ) 56
( 0.0102637 0.00460453 0.0491938 ) 63
( 0.0558253 -0.0039493 0.0578052 ) 65
( 0.181938 -0.0761748 0.0356053 ) 6
( 0.0461075 -0.0656483 0.0437846 ) 46
( 0.0443989 -0.068787 0.0774084 ) 82
( 0.0219721 -0.0904631 0.0552293 ) 36
( 0.00984541 -0.0130903 0.040418 ) 27
( 0.123694 -0.0900095 0.0327305 ) 4
( 0.231849 -0.00778003 0.04726 ) 71
( 0.231498 -0.00847005 0.0723025 ) 107
( 0.114453 -0.0119724 0.0440665 ) 67
( 0.117019 -0.0901294 0.073047 ) 76
( 0.145689 -0.00455277 0.0716233 ) 104
( 0.212147 -0.0205062 0.0453679 ) 61
( 0.028961 -0.0750187 0.0454528 ) 37
( 0.0456134 -0.0137224 0.0441406 ) 64
( 0.106961 -0.0129311 0.0715761 ) 102
( 0.183415 0.0119945 0.0448302 ) 69
( 0.00984923 -0.0283519 0.0531847 ) 54
( 0.17289 -0.0412791 0.0400995 ) 24
( 0.246928 -0.0901522 0.0368889 ) 8
( 0.0616967 -0.0554274 0.074649 ) 83
( 0.0806588 -0.048388 0.073428 ) 83
( 0.197595 -0.0705969 0.0466364 ) 52
( 0.226506 -0.04046 0.0695348 ) 62
( 0.0490881 -0.0901621 0.0791102 ) 73
( 0.204486 -0.0739176 0.0715914 ) 79
( 0.173975 -0.00614544 0.0479833 ) 69
( 0.0291284 -0.0437357 0.0613916 ) 46
( 0.248376 -0.0415584 0.0728328 ) 98
( 0.00946382 -0.0774339 0.0476089 ) 36
( 0.0402725 -0.0114846 0.0670948 ) 64
( 0.182185 -0.0238859 0.0756835 ) 96
( 0.0982052 -0.0349909 0.0700384 ) 57
( 0.0870589 -0.0665471 0.0783449 ) 84
( 0.117285 0.00829892 0.0420324 ) 31
( 0.156935 -0.0548149 0.0756353 ) 86
( 0.217314 -0.0591155 0.0692087 ) 52
( 0.080772 -0.0278174 0.0760852 ) 92
( 0.236715 -0.0590923 0.0712487 ) 53
( 0.0969632 -0.0766683 0.0454443 ) 39
( 0.149664 -0.03857 0.0467561 ) 59
( 0.0506463 -0.0408157 0.0514715 ) 55
( 0.156301 0.0141718 0.0728508 ) 104
( 0.132106 -0.0427944 0.0723793 ) 94
( 0.0409561 0.00857281 0.0760388 ) 100
( 0.0927417 0.0137986 0.0492846 ) 66
( 0.141342 -0.0900828 0.0766623 ) 77
( 0.198722 -0.0534051 0.0655972 ) 52
( 0.155258 0.00881275 0.0429685 ) 68
( 0.198846 -0.0347245 0.0762587 ) 97
( 0.0757537 -0.0900809 0.0750749 ) 74
( 0.222079 -0.0803539 0.0776159 ) 79
( 0.193499 0.00260147 0.0813814 ) 105
( 0.121128 -0.0259111 0.0778304 ) 94
( 0.0147039 -0.07119 0.0874182 ) 81
( 0.20277 -0.0127685 0.072985 ) 106
( 0.175154 -0.0722273 0.0777439 ) 78
( 0.0234858 -0.00781213 0.0766228 ) 99
( 0.066416 -0.037899 0.0852796 ) 92
( 0.109816 -0.0723907 0.0842782 ) 75
( 0.181599 -0.0476353 0.0736113 ) 87
( 0.0658006 -0.0020512 0.0804826 ) 101
( 0.194652 -0.0899851 0.0778528 ) 79
( 0.0403148 -0.0468042 0.0768748 ) 82
( 0.00979221 0.00628888 0.0807258 ) 99
( 0.00991653 -0.052352 0.0831426 ) 81
( 0.163409 -0.00315318 0.0825788 ) 104
( 0.224971 0.00934351 0.077179 ) 107
( 0.131344 0.00825439 0.0762606 ) 103
( 0.136986 -0.0612496 0.0774283 ) 85
( 0.143487 -0.0274384 0.0823446 ) 95
( 0.0613968 -0.0768597 0.0709299 ) 38
( 0.0776876 0.0130316 0.0852643 ) 101
( 0.161897 -0.0902581 0.0716906 ) 77
( 0.248622 -0.032036 0.0562694 ) 62
( 0.160399 -0.06818 0.0901564 ) 86
( 0.0971353 -0.0902095 0.072242 ) 75
( 0.245339 -0.0902273 0.0756086 ) 80
( 0.0580637 -0.0763659 0.0903024 ) 74
( 0.231855 -0.0177183 0.0901575 ) 98
( 0.106418 -0.0305637 0.0902377 ) 93
( 0.0358698 -0.0808051 0.0904911 ) 73
( 0.0733593 -0.0556683 0.0904243 ) 83
( 0.242927 0.0073228 0.0697716 ) 71
( 0.229129 -0.0672567 0.0903519 ) 89
( 0.0858672 -0.0402896 0.0904394 ) 93
( 0.0328258 -0.0245629 0.0829645 ) 91
( 0.208845 -0.0703403 0.0903532 ) 88
( 0.112099 0.00441658 0.0789991 ) 103
( 0.225631 -0.04821 0.0874671 ) 89
( 0.16589 -0.0363727 0.0777611 ) 95
( 0.126776 -0.0900023 0.0902324 ) 76
( 0.0882411 -0.00557944 0.0752411 ) 102
( 0.111475 -0.0463406 0.0793494 ) 85
( 0.0269468 0.0101826 0.090098 ) 99
( 0.185212 -0.0368335 0.0903216 ) 96
( 0.127095 -0.00534388 0.0901195 ) 103
( 0.206431 -0.0516905 0.0839777 ) 88
( 0.0521746 -0.0173179 0.0817741 ) 91
( 0.126683 -0.0392942 0.090677 ) 94
( 0.0542676 0.0104675 0.0904206 ) 100
( 0.00984778 -0.0304808 0.0897037 ) 90
( 0.219255 -0.0232886 0.0758062 ) 97
( 0.210331 -0.0901398 0.0901693 ) 79
( 0.0315703 -0.0613751 0.0905123 ) 82
( 0.146499 -0.00973382 0.0904797 ) 104
( 0.188402 -0.05648 0.0901177 ) 87
( 0.147276 -0.0453835 0.0901603 ) 86
( 0.248893 -0.0571899 0.0864101 ) 89
( 0.176217 -0.090448 0.0850294 ) 78
( 0.180834 -0.0096839 0.0901382 ) 105
( 0.143962 0.0115706 0.0905457 ) 104
( 0.0506411 -0.0559481 0.0907126 ) 82
( 0.142009 -0.0754306 0.0902617 ) 77
( 0.0947172 0.00434523 0.0905854 ) 102
( 0.0861756 -0.0824753 0.0901738 ) 75
( 0.122426 -0.0586166 0.0904018 ) 85
( 0.107927 -0.0106267 0.0906953 ) 102
( 0.247389 -0.0767772 0.0901097 ) 80
( 0.232762 -0.0900318 0.0906489 ) 80
( 0.0699891 -0.0188768 0.0902357 ) 92
( 0.169603 -0.0505479 0.090496 ) 87
( 0.0256788 -0.042403 0.0901445 ) 90
( 0.0098859 -0.0106613 0.0904633 ) 99
( 0.0982168 -0.055803 0.0903755 ) 84
( 0.155807 -0.089785 0.0903269 ) 77
( 0.104581 -0.0902087 0.0904377 ) 75
( 0.037857 -0.00679227 0.0902967 ) 100
( 0.217561 -0.00375861 0.090144 ) 106
( 0.0898774 -0.0181306 0.0904693 ) 93
( 0.188127 -0.0761825 0.0909658 ) 78
( 0.212263 -0.0340219 0.0905486 ) 97
( 0.0476733 -0.0351506 0.0905882 ) 91
( 0.00985068 -0.0901534 0.0900734 ) 72
( 0.242671 -0.0391731 0.0908721 ) 98
( 0.241941 0.0125675 0.0902321 ) 107
( 0.197402 -0.0207927 0.0902761 ) 97
( 0.164922 -0.0214166 0.0903657 ) 95
)
