/*--------------------------------*- C++ -*----------------------------------*\
  =========                 |
  \\      /  F ield         | OpenFOAM: The Open Source CFD Toolbox
   \\    /   O peration     | Website:  https://openfoam.org
    \\  /    A nd           | Version:  4.x
     \\/     M anipulation  |
\*---------------------------------------------------------------------------*/
FoamFile
{
    version     2.0;
    format      ascii;
    class       vectorField;
    location    0;
    object      v;
}
// * * * * * * * * * * * * * * * * * * * * * * * * * * * * * * * * * * * * * //

324
(
( -1.03457e-05 3.02723e-05 8.19988e-06 )  
( -0.000333604 0.000243943 -0.000233022 )  
( -0.000307736 0.00019909 -0.000634482 )  
( -0.000287266 0.000316384 -0.000434016 )  
( -0.000346915 0.000260874 -0.000558027 )  
( -0.000366204 0.000270792 -0.000177037 )  
( -7.05515e-05 2.91825e-05 5.66482e-05 )  
( -0.000112188 4.97103e-05 8.06944e-05 )  
( -0.00033273 0.000249638 -0.000555114 )  
( -7.62106e-05 2.80897e-06 7.17521e-05 )  
( -0.000218509 0.000335324 -0.000397396 )  
( -0.000214892 0.000296541 -0.000902382 )  
( -0.000157768 7.32396e-05 -0.00103076 )  
( -0.000308463 0.000219431 -0.000525003 )  
( -0.00100306 0.000566936 -0.000188647 )  
( -0.000239165 0.000269158 -0.000486093 )  
( -3.94062e-05 0.000123651 -0.000286595 )  
( -0.00024505 0.000225941 -0.00019127 )  
( -0.000432236 0.00031434 -0.000424435 )  
( -7.08622e-05 -1.45721e-05 -0.000856729 )  
( -0.000138319 0.000187283 -0.000354654 )  
( -7.42359e-05 5.30082e-05 -0.000881099 )  
( -0.000380596 0.000112839 -0.000710395 )  
( -0.000390051 0.0002453 -0.000651515 )  
( -3.40411e-05 6.35597e-08 -5.24552e-06 )  
( -0.000249613 0.000169202 -0.000957393 )  
( -0.000315145 8.61927e-05 6.26666e-05 )  
( -0.000292465 0.00023071 -0.000642068 )  
( -0.000247122 0.000195914 -0.000284247 )  
( -0.000259078 0.000390542 -0.000637365 )  
( -0.0002499 0.000115602 -0.000537394 )  
( -0.000327835 0.000160174 -0.000110382 )  
( -0.000151921 0.000260078 -0.000527138 )  
( -0.00021257 0.000171212 -1.6291e-05 )  
( -0.000333754 0.000207477 -0.000234833 )  
( 1.11421e-05 1.30065e-05 5.60354e-06 )  
( -0.000164533 0.000199306 -9.78385e-05 )  
( -0.000243047 0.000308256 -0.000728659 )  
( -0.000310567 0.000254179 -0.000620176 )  
( -0.000268701 0.000233286 -0.000680197 )  
( -9.66662e-05 6.47404e-05 5.60716e-05 )  
( -0.000335823 9.62353e-05 5.54591e-05 )  
( -0.000219446 0.000112681 9.62602e-05 )  
( -0.000434832 0.000319465 -0.000294085 )  
( 7.95466e-06 0.000318146 -0.000301657 )  
( -0.000361172 0.000333022 -0.000656169 )  
( -0.000334949 0.000222952 -0.000714609 )  
( -0.000235677 -1.10793e-05 -0.00012642 )  
( 3.41174e-05 0.000291708 -0.000323489 )  
( -0.000293864 0.000196678 -0.000241632 )  
( -0.000147955 0.000170313 -8.5057e-05 )  
( -0.00045199 0.000204166 -0.000386743 )  
( -6.49797e-06 0.000102105 -0.000678051 )  
( -0.000348709 0.000248614 -0.00111858 )  
( -6.79853e-05 3.78903e-05 -0.000264727 )  
( -0.000470529 0.000330127 -0.00047096 )  
( -0.00035274 -0.000102209 -0.000907482 )  
( -2.00515e-05 2.07475e-05 3.55425e-05 )  
( -0.000492962 0.000146718 -0.00108026 )  
( -4.12519e-05 2.38816e-05 4.90788e-05 )  
( -0.000254577 0.000144428 -0.000152888 )  
( -2.85598e-05 3.15884e-05 -7.92767e-06 )  
( -8.27926e-05 4.76338e-05 8.59198e-05 )  
( -0.000116142 7.00228e-05 -0.000847979 )  
( -0.000325148 0.000120535 1.66648e-05 )  
( -0.000206369 0.000125805 -0.00027521 )  
( -0.000240879 0.000206582 -0.000777543 )  
( -0.000177519 0.000321692 -0.000686869 )  
( -0.00029325 0.000306139 -0.000748876 )  
( -0.000157861 0.000177394 -0.000220586 )  
( -0.000195771 0.000173608 4.13632e-05 )  
( -0.000317321 0.000240422 -0.00041447 )  
( -9.21428e-05 0.000158983 -0.000352256 )  
( -0.000262257 0.000246348 -0.000413427 )  
( -0.000155468 0.000118241 -3.61439e-07 )  
( -0.000190353 1.03393e-05 -0.000892368 )  
( -0.00013039 0.000114625 -0.0002646 )  
( -0.000302916 0.000293056 -0.000431676 )  
( -0.000324165 6.36661e-05 -1.96164e-05 )  
( -0.000359017 9.1569e-05 -0.000711239 )  
( -0.000180813 2.76819e-05 -0.000107014 )  
( -0.000309842 8.36909e-05 -0.000890722 )  
( -0.000276696 -1.2494e-05 -0.000937076 )  
( -0.00037801 0.000106787 -0.000609374 )  
( -0.000186655 5.13042e-05 -0.000849096 )  
( -0.000126493 8.94733e-05 6.36779e-05 )  
( -0.000240227 0.000298441 -0.000707717 )  
( -8.19373e-07 1.15599e-05 7.37348e-06 )  
( -0.000416282 0.000288385 -0.000365815 )  
( -0.000108354 0.000158088 -0.000271304 )  
( -4.64152e-05 2.11643e-05 4.44116e-05 )  
( -0.000112972 0.000140491 -0.000111942 )  
( -9.7843e-05 0.000301422 -0.000728609 )  
( -0.00012175 3.62759e-05 8.75572e-05 )  
( -7.53198e-05 2.88641e-05 5.16296e-05 )  
( -0.000438633 0.00014766 -0.000441394 )  
( -0.00011358 0.000115795 8.09313e-05 )  
( -0.000219499 5.18885e-05 0.00012942 )  
( -0.00028375 0.00018782 -0.000393118 )  
( -0.000136029 0.000217082 -0.000416822 )  
( -0.00012518 0.000138028 -0.000367006 )  
( 2.62374e-05 7.22213e-05 -0.000154476 )  
( -1.92218e-05 0.00020765 -0.000397911 )  
( -5.8967e-05 8.27771e-05 8.50664e-05 )  
( -4.8809e-05 5.52677e-05 -0.00011998 )  
( 6.75795e-06 4.1956e-05 -3.36719e-06 )  
( 4.08698e-05 0.000208031 -0.000253655 )  
( -3.70572e-05 4.23268e-05 -0.00049501 )  
( -0.000388446 0.000322099 -0.000593961 )  
( 7.09253e-06 7.05239e-05 7.54689e-06 )  
( -0.000143685 0.00010735 -0.000262271 )  
( -3.59094e-05 9.49621e-05 -9.58968e-05 )  
( -0.000125512 4.35263e-05 -0.000121061 )  
( -0.000291183 0.000174934 -0.000371066 )  
( -0.000301739 0.000213577 -0.000333958 )  
( -3.84628e-06 5.30228e-05 -5.15584e-05 )  
( -4.54204e-05 7.92598e-05 -2.79491e-06 )  
( -2.57426e-05 8.71362e-06 -8.81264e-05 )  
( 1.55539e-05 -9.30908e-06 1.65087e-05 )  
( -0.000178335 -7.34821e-05 -0.000524419 )  
( -3.56888e-05 0.000119956 -0.000103102 )  
( -0.000114669 0.00020013 -0.000370956 )  
( -0.000267711 0.000148801 -0.000203638 )  
( -3.8504e-05 7.49341e-05 -0.000148476 )  
( -9.78073e-05 7.98806e-05 -0.000117518 )  
( -0.000279326 0.000277474 -0.00047944 )  
( -0.000286356 1.91084e-05 -0.000237911 )  
( -0.00033544 3.53065e-05 -0.000511197 )  
( -1.70361e-05 2.49702e-05 4.96987e-05 )  
( -5.68203e-05 7.06859e-05 2.79066e-06 )  
( 3.02171e-05 3.74723e-05 9.60069e-06 )  
( -0.000118177 0.000200335 -0.000498849 )  
( -9.42207e-05 0.000315143 -0.000407608 )  
( -1.57285e-05 5.06039e-05 -7.10809e-05 )  
( -0.000120797 0.000232137 -0.000252204 )  
( -7.77359e-05 0.000284458 -0.000455573 )  
( 4.37382e-05 -3.58463e-08 -0.000316624 )  
( -0.000119668 8.95796e-05 -0.000145699 )  
( -0.000360965 0.000184202 -0.00035439 )  
( -0.000180695 5.65183e-05 -0.000278794 )  
( -4.99511e-05 5.47408e-05 4.42423e-05 )  
( -0.000347502 0.000105343 -0.000407561 )  
( 1.87888e-05 6.38169e-05 -8.47067e-05 )  
( -3.65053e-05 0.000138865 -0.0001852 )  
( -1.79056e-05 0.000112055 -0.000195173 )  
( 2.57705e-05 0.000114582 -0.00020921 )  
( -0.000246976 0.000130483 -0.000406105 )  
( -8.41388e-06 2.95176e-05 3.66954e-05 )  
( 2.95993e-05 1.25099e-05 1.44604e-07 )  
( -5.76637e-05 6.34831e-05 6.77419e-05 )  
( -5.43332e-05 0.000128107 -7.15878e-05 )  
( -0.00015315 0.000176595 -0.00045646 )  
( -5.62582e-05 -8.92714e-06 -9.48956e-05 )  
( -0.000249517 8.52265e-05 -0.000307279 )  
( 3.81395e-05 0.00018639 -0.000242 )  
( -0.000118638 0.000113204 -8.45345e-06 )  
( -0.000138877 0.000105461 -6.01499e-05 )  
( -1.19629e-05 1.92754e-05 4.84385e-05 )  
( -0.000228108 0.000163408 -0.000267711 )  
( 8.40937e-06 0.000221111 -0.00072478 )  
( -0.000110893 8.77619e-05 -0.000178324 )  
( -3.71143e-05 0.000164475 -0.000112589 )  
( -2.73144e-05 9.56385e-05 9.97962e-06 )  
( -0.000166566 0.000126415 -0.000229653 )  
( -7.8947e-05 9.60916e-05 -0.000144364 )  
( -0.000239475 0.000234329 -0.000548124 )  
( -6.16714e-06 2.57911e-05 2.89922e-05 )  
( -0.000435159 2.872e-05 -0.000451837 )  
( 0.000133877 0.000286845 -0.000364051 )  
( -0.000207255 0.000175317 -0.000728551 )  
( -0.000207634 0.000154013 -0.000501922 )  
( -9.29309e-05 0.000107985 -0.000115906 )  
( -0.000216764 0.000132535 -0.000442383 )  
( -9.11074e-05 0.000136034 -0.000334387 )  
( -6.66087e-05 0.000117679 -0.000215328 )  
( 5.65079e-07 1.53941e-05 4.50443e-06 )  
( -0.000277606 0.000245846 -0.00060374 )  
( -2.71356e-05 6.35112e-05 -0.000105703 )  
( -0.000104944 0.000106809 -0.000118762 )  
( -0.000288961 0.000195984 -0.000446759 )  
( -0.000224377 0.000179834 -0.000525723 )  
( 0.000102715 0.000208175 -0.00049298 )  
( 5.13439e-05 0.000166455 -0.000428438 )  
( -0.000258145 0.000262129 -0.00044379 )  
( -0.000157259 0.00011679 -0.000109503 )  
( -3.13067e-05 2.14548e-05 4.95892e-05 )  
( -2.33269e-05 9.52382e-05 1.53959e-05 )  
( -0.000194368 0.000315375 -0.00055092 )  
( -5.11781e-05 0.000124285 -2.65704e-06 )  
( 1.37778e-05 3.79929e-05 -6.32807e-07 )  
( 5.44545e-06 6.80635e-06 1.23443e-05 )  
( -4.21426e-05 1.19911e-05 5.5702e-05 )  
( -1.40059e-06 6.72495e-05 -0.000177686 )  
( -0.000400988 0.000142915 -0.000457545 )  
( -0.000268434 0.000130413 -0.000341864 )  
( -0.000163602 9.4054e-05 -0.000363513 )  
( -6.55385e-06 3.37163e-05 -6.81959e-05 )  
( 0.00034972 0.000291453 -0.00013495 )  
( -0.000443114 0.000133605 -0.000588169 )  
( -6.13438e-06 3.36434e-05 2.48381e-05 )  
( -0.00010366 0.000107289 6.42376e-05 )  
( -2.9211e-05 5.03309e-05 -0.000153808 )  
( -0.000276368 6.90739e-05 -0.000612931 )  
( -2.44068e-05 2.3707e-05 4.70206e-05 )  
( -0.000189595 0.000282607 -0.000333213 )  
( -0.000100788 6.30844e-06 -0.000149911 )  
( -2.10249e-05 7.33087e-05 -3.61146e-05 )  
( 3.91549e-05 7.74144e-05 -7.5786e-05 )  
( -0.000222053 0.000230639 -0.000532127 )  
( -0.000200281 0.000128433 -0.000353768 )  
( 4.27744e-05 1.83428e-05 -1.5212e-05 )  
( -7.92796e-05 9.13751e-05 -0.000229475 )  
( -0.000178283 -8.08174e-06 -0.000768832 )  
( -2.75187e-05 7.01824e-05 6.47595e-05 )  
( -0.000371408 0.000289035 -0.000248592 )  
( -5.17532e-06 5.76317e-06 2.32007e-05 )  
( -1.75785e-05 0.0001252 3.05403e-05 )  
( -0.000188917 0.000137208 -0.000257715 )  
( -2.42409e-05 0.000140404 -0.000107224 )  
( 8.36151e-05 8.057e-05 -6.81701e-05 )  
( -1.81583e-05 0.000240112 -0.000298347 )  
( -0.000153588 8.40393e-05 -0.000116315 )  
( -0.000224098 0.000240625 -0.00026129 )  
( -3.52669e-05 6.93178e-05 -4.34376e-05 )  
( -0.000180485 0.000323053 -0.000259561 )  
( -5.74149e-05 0.00016429 -0.000113416 )  
( -0.000169933 0.000205004 -0.000533273 )  
( -4.31871e-05 0.000121166 -1.39849e-06 )  
( 0.000145348 2.15425e-05 -0.000196543 )  
( -5.91782e-05 0.000198482 -0.000273294 )  
( 3.53142e-05 7.9332e-05 -3.89667e-06 )  
( -4.78132e-05 9.90814e-05 -0.000144671 )  
( -1.33707e-05 4.18825e-05 -8.69659e-05 )  
( -0.000366813 -4.95078e-05 -0.000339791 )  
( -0.000244626 9.65737e-06 -0.000827669 )  
( -0.000206102 0.000111313 -0.000237594 )  
( 3.13993e-05 5.30698e-05 -6.36574e-05 )  
( -0.000117139 8.27062e-05 -6.17989e-05 )  
( -0.000289427 1.20323e-05 -0.000243781 )  
( 7.94794e-05 8.50993e-05 -0.000263503 )  
( 7.79825e-06 8.67382e-06 2.98796e-06 )  
( -0.000321729 -2.17134e-06 -0.000257031 )  
( -1.32614e-05 0.00019418 -0.000181848 )  
( -2.1593e-05 3.75279e-05 4.07755e-05 )  
( 9.63244e-06 5.15092e-05 -5.58098e-06 )  
( 7.74606e-05 1.89423e-05 -0.000227435 )  
( -0.000271252 -3.77207e-05 -0.000110973 )  
( 3.83478e-05 0.000100311 -2.03409e-06 )  
( -6.51422e-05 6.12545e-05 -0.000129709 )  
( 2.88873e-05 5.5648e-05 1.43766e-05 )  
( 6.25981e-06 9.23385e-06 1.82546e-05 )  
( 1.4885e-06 9.07366e-06 4.55997e-06 )  
( 8.09304e-06 0.000162939 -0.000220479 )  
( -0.000200055 0.00012578 -0.000167351 )  
( 5.32436e-05 -9.30729e-05 -0.00016784 )  
( -2.86613e-05 0.000122818 -0.000208728 )  
( 4.82451e-05 -0.000101042 0.000106503 )  
( 4.02388e-06 7.30449e-05 -6.69011e-05 )  
( 9.08036e-05 7.97613e-05 -2.5745e-05 )  
( -2.91131e-05 7.93812e-05 -9.19198e-05 )  
( -0.000395123 0.000151037 -0.00041043 )  
( -3.38558e-05 4.47376e-05 -6.09788e-05 )  
( -2.47058e-05 2.65753e-05 -6.65381e-05 )  
( -0.000125117 9.6157e-05 -9.27147e-05 )  
( 3.70185e-05 1.69449e-05 -2.25107e-05 )  
( -5.80845e-05 0.000145971 -8.33012e-05 )  
( 0.000108659 0.000168424 -5.68487e-05 )  
( 3.16216e-05 1.69001e-05 -6.15056e-06 )  
( 2.19209e-05 2.23145e-05 -4.64014e-05 )  
( -0.000230453 0.000114129 -0.000231526 )  
( -8.34738e-05 3.85858e-05 -3.66548e-05 )  
( -3.39602e-06 3.74472e-05 -1.9174e-05 )  
( 1.34284e-05 3.24942e-05 1.24523e-05 )  
( -0.000101967 7.09742e-05 -9.9812e-05 )  
( 6.28854e-05 -1.2039e-05 -0.000129953 )  
( -6.02376e-05 9.71543e-05 -0.000212827 )  
( -0.000161159 0.000166496 -0.000201022 )  
( 1.57714e-05 4.83044e-05 -3.30062e-05 )  
( 2.29582e-05 6.14876e-05 -6.74157e-05 )  
( 3.36651e-05 0.000170721 -0.000130161 )  
( 2.84793e-05 -4.2644e-07 1.71578e-05 )  
( -0.000119755 5.25249e-05 -0.000105368 )  
( 3.04608e-05 -0.000120504 -0.000120454 )  
( -0.000124301 9.96987e-05 -0.00012893 )  
( -1.82888e-05 8.18537e-05 1.77138e-05 )  
( -3.89747e-06 8.21468e-05 -0.000105415 )  
( 3.16507e-05 8.89988e-05 3.24595e-06 )  
( -9.86744e-07 3.63948e-06 1.84881e-05 )  
( -0.000178167 0.000107457 -0.000229131 )  
( -5.14409e-05 1.84862e-05 -6.43179e-05 )  
( 8.51751e-06 1.669e-05 1.425e-06 )  
( 0.000192005 0.000104851 -6.36754e-05 )  
( -6.48971e-05 9.18188e-05 -6.03059e-05 )  
( 1.90187e-05 1.70068e-05 3.77824e-05 )  
( -7.45207e-05 0.000227372 -0.00019266 )  
( 3.21565e-06 8.76954e-05 -0.000122414 )  
( -0.000106435 -1.09799e-05 -6.74085e-05 )  
( 5.1669e-05 -0.000179504 -5.94172e-05 )  
( 2.05354e-05 1.18758e-05 3.51101e-06 )  
( -3.68421e-05 5.28004e-05 -6.0443e-05 )  
( 4.10178e-05 2.41739e-05 -3.63386e-05 )  
( 2.40235e-05 5.69768e-05 -2.43568e-05 )  
( 3.25434e-06 8.78255e-05 -0.000121305 )  
( 4.1698e-06 -2.54665e-06 -6.35248e-05 )  
( -0.000119748 8.41995e-05 -1.26502e-05 )  
( -4.73882e-05 1.79468e-05 -3.76033e-05 )  
( -1.26827e-05 4.63915e-05 -8.15598e-07 )  
( -0.000145686 5.02389e-05 -7.63159e-05 )  
( -3.74925e-06 9.91059e-06 1.25019e-05 )  
( 3.00341e-06 4.23837e-06 1.60973e-05 )  
( 7.01335e-05 0.000135374 -5.40928e-05 )  
( 6.56071e-06 7.30562e-05 -5.7458e-05 )  
( -2.3881e-05 3.22976e-05 -4.48231e-05 )  
( -9.92099e-06 3.59548e-05 2.25218e-05 )  
( -6.39467e-05 0.000149014 6.11317e-07 )  
( -8.92966e-06 4.10072e-05 -3.89352e-05 )  
( 7.98976e-06 8.51219e-05 -9.95904e-05 )  
( -7.76336e-05 7.99124e-05 -0.000154787 )  
( 2.2322e-05 3.33814e-05 1.48515e-05 )  
( 1.58856e-06 3.42316e-06 5.70729e-06 )  
( -7.85101e-05 0.000272203 -8.86679e-05 )  
( -0.000213826 5.06334e-05 -2.8106e-05 )  
( -9.14357e-05 5.52749e-05 -8.58765e-05 )  
( -0.000123077 9.0434e-05 -6.14827e-05 )  
)
