/*--------------------------------*- C++ -*----------------------------------*\
| =========                 |                                                 |
| \\      /  F ield         | OpenFOAM: The Open Source CFD Toolbox           |
|  \\    /   O peration     | Version:  4.x                                   |
|   \\  /    A nd           | Web:      www.OpenFOAM.org                      |
|    \\/     M anipulation  |                                                 |
\*---------------------------------------------------------------------------*/
FoamFile
{
    version     2.0;
    format      ascii;
    class       volScalarField;
    location    "15.5";
    object      ddtVoidfraction;
}
// * * * * * * * * * * * * * * * * * * * * * * * * * * * * * * * * * * * * * //

dimensions      [0 0 -1 0 0 0 0];

internalField   nonuniform List<scalar> 
132
(
-0.0206987
-0.0169286
-0.0135376
-0.0106119
-0.00862704
-0.00708
-0.00589626
-0.00501881
-0.00468527
-0.0259936
-0.0202559
-0.0155968
-0.0120325
-0.00934382
-0.00738951
-0.00613243
-0.0053083
-0.00492165
-0.030152
-0.022922
-0.0171905
-0.0129243
-0.00982665
-0.00772685
-0.00644053
-0.00555512
-0.00518212
-0.0322396
-0.0244263
-0.0180622
-0.0134096
-0.0101391
-0.00792759
-0.00659015
-0.0056777
-0.00522531
-0.0110577
-0.00933144
-0.00772498
-0.00639432
-0.00529507
-0.00459961
-0.00434546
-0.018276
-0.0153436
-0.0125328
-0.0101921
-0.00819745
-0.00666001
-0.00548114
-0.00490209
-0.00451096
-0.0208796
-0.0171403
-0.0136786
-0.0108112
-0.00856846
-0.00697147
-0.00587894
-0.00511655
-0.00480745
-0.0222352
-0.018131
-0.0142494
-0.011195
-0.00886132
-0.00712381
-0.00595213
-0.00527931
-0.00489615
-0.0070723
-0.00580877
-0.00486308
-0.00424163
-0.00401532
-0.0135326
-0.0120095
-0.0103936
-0.00889095
-0.00745833
-0.00612669
-0.00516339
-0.00460537
-0.00430905
-0.0150618
-0.013249
-0.0112575
-0.00933417
-0.00772993
-0.0063986
-0.00544111
-0.00480411
-0.00453743
-0.0159403
-0.013882
-0.0116599
-0.00957933
-0.00786
-0.00650544
-0.00559315
-0.00496159
-0.00464514
-0.00466381
-0.00412219
-0.00392287
-0.0113252
-0.0106069
-0.00949546
-0.00832832
-0.00696074
-0.00582474
-0.00502698
-0.00443674
-0.00417657
-0.0123735
-0.011419
-0.0100228
-0.00855894
-0.00724249
-0.00608482
-0.00522287
-0.00466905
-0.00442479
-0.0129544
-0.0119048
-0.0103263
-0.00878474
-0.00738943
-0.00622442
-0.00536182
-0.00480341
-0.00440285
)
;

boundaryField
{
    inlet
    {
        type            calculated;
        value           nonuniform 0();
    }
    outlet
    {
        type            calculated;
        value           uniform 0;
    }
    wall
    {
        type            calculated;
        value           nonuniform List<scalar> 
66
(
-0.0113252
-0.0123735
-0.0129544
-0.0106069
-0.011419
-0.0119048
-0.00949546
-0.0100228
-0.0103263
-0.00832832
-0.00855894
-0.00878474
-0.00696074
-0.00724249
-0.00738943
-0.00582474
-0.00608482
-0.00622442
-0.00466381
-0.00502698
-0.00522287
-0.00536182
-0.00412219
-0.00443674
-0.00466905
-0.00480341
-0.00392287
-0.00417657
-0.00442479
-0.00440285
-0.0322396
-0.0222352
-0.0159403
-0.0129544
-0.0244263
-0.018131
-0.013882
-0.0119048
-0.0180622
-0.0142494
-0.0116599
-0.0103263
-0.0134096
-0.011195
-0.00957933
-0.00878474
-0.0101391
-0.00886132
-0.00786
-0.00738943
-0.00792759
-0.00712381
-0.00650544
-0.00622442
-0.00659015
-0.00595213
-0.00559315
-0.00536182
-0.0056777
-0.00527931
-0.00496159
-0.00480341
-0.00522531
-0.00489615
-0.00464514
-0.00440285
)
;
    }
    procBoundary7to0
    {
        type            processor;
        value           uniform -0.0243368;
    }
    procBoundary7to1
    {
        type            processor;
        value           uniform -0.0162072;
    }
    procBoundary7to3
    {
        type            processor;
        value           nonuniform List<scalar> 
36
(
-0.0279431
-0.0214359
-0.0162491
-0.0123325
-0.00959127
-0.00766378
-0.00630406
-0.00542461
-0.0048569
-0.0363074
-0.0261961
-0.0190005
-0.0139888
-0.0105106
-0.00816043
-0.00664655
-0.00568463
-0.0051641
-0.0429645
-0.0301668
-0.0213267
-0.0152686
-0.0111721
-0.00857796
-0.00691553
-0.00588647
-0.0053782
-0.045989
-0.0321546
-0.0224607
-0.0159606
-0.0115965
-0.00884215
-0.00704747
-0.00602235
-0.00547594
)
;
    }
    procBoundary7to5
    {
        type            processor;
        value           nonuniform List<scalar> 
44
(
-0.01394
-0.0115556
-0.00951219
-0.00789468
-0.00656746
-0.00551026
-0.00474127
-0.00433545
-0.0152977
-0.0132149
-0.00980931
-0.00844961
-0.00715134
-0.00598922
-0.00500208
-0.00434417
-0.00403491
-0.0152977
-0.0132149
-0.0132149
-0.00946883
-0.00822443
-0.00661196
-0.00549498
-0.00461291
-0.00406271
-0.0038185
-0.0116384
-0.0107244
-0.00946883
-0.00822443
-0.00822443
-0.00653622
-0.00541585
-0.00439273
-0.00387319
-0.00369323
-0.0100283
-0.00960429
-0.00877625
-0.0077037
-0.00653622
-0.00541585
-0.00541585
)
;
    }
    procBoundary7to6
    {
        type            processor;
        value           nonuniform List<scalar> 
12
(
-0.0321222
-0.038734
-0.0413024
-0.0207392
-0.0241737
-0.025802
-0.0142182
-0.0159974
-0.016974
-0.0110383
-0.0123792
-0.0130071
)
;
    }
}


// ************************************************************************* //
