/*--------------------------------*- C++ -*----------------------------------*\
| =========                 |                                                 |
| \\      /  F ield         | OpenFOAM: The Open Source CFD Toolbox           |
|  \\    /   O peration     | Version:  4.x                                   |
|   \\  /    A nd           | Web:      www.OpenFOAM.org                      |
|    \\/     M anipulation  |                                                 |
\*---------------------------------------------------------------------------*/
FoamFile
{
    version     2.0;
    format      ascii;
    class       volScalarField;
    location    "15.5";
    object      rho;
}
// * * * * * * * * * * * * * * * * * * * * * * * * * * * * * * * * * * * * * //

dimensions      [1 -3 0 0 0 0 0];

internalField   nonuniform List<scalar> 
132
(
6698.69
6698.49
6698.55
6698.88
6699.45
6700.15
6700.9
6701.57
6705.29
6698.85
6698.64
6698.71
6698.96
6699.48
6700.05
6700.75
6701.24
6704.31
6698.93
6698.65
6698.61
6698.7
6699.09
6699.38
6700.01
6699.97
6703.15
6699.58
6699.22
6698.79
6698.24
6697.79
6697.17
6697.2
6696.7
6696.34
6699.54
6700.12
6700.82
6701.49
6701.9
6702.03
6704.78
6699.19
6699.37
6699.76
6700.24
6700.83
6701.33
6701.8
6702.06
6706.03
6699.23
6699.2
6699.39
6699.69
6700.2
6700.54
6701.1
6701.03
6702.78
6699.6
6699.33
6699.02
6698.65
6698.36
6697.96
6697.89
6697.64
6697.09
6700.35
6700.93
6701.6
6701.57
6703.82
6699.32
6699.28
6699.36
6699.56
6699.89
6700.23
6700.69
6701.01
6702.64
6699.4
6699.33
6699.38
6699.54
6699.74
6699.9
6700.12
6700.06
6702.33
6699.72
6699.55
6699.38
6699.17
6699.01
6698.78
6698.8
6698.66
6704.75
6698.87
6698.93
6702.96
6699.54
6699.33
6699.12
6698.93
6698.83
6698.88
6699.14
6699.55
6701.45
6699.65
6699.49
6699.32
6699.13
6698.95
6698.79
6698.72
6698.69
6698.62
6699.77
6699.63
6699.45
6699.26
6699.07
6698.88
6698.73
6698.61
6694.6
)
;

boundaryField
{
    inlet
    {
        type            calculated;
        value           nonuniform 0();
    }
    outlet
    {
        type            calculated;
        value           uniform 6700;
    }
    wall
    {
        type            calculated;
        value           nonuniform List<scalar> 
66
(
6699.54
6699.65
6699.77
6699.33
6699.49
6699.63
6699.12
6699.32
6699.45
6698.93
6699.13
6699.26
6698.83
6698.95
6699.07
6698.88
6698.79
6698.88
6698.87
6699.14
6698.72
6698.73
6698.93
6699.55
6698.69
6698.61
6702.96
6701.45
6698.62
6694.6
6699.58
6699.6
6699.72
6699.77
6699.22
6699.33
6699.55
6699.63
6698.79
6699.02
6699.38
6699.45
6698.24
6698.65
6699.17
6699.26
6697.79
6698.36
6699.01
6699.07
6697.17
6697.96
6698.78
6698.88
6697.2
6697.89
6698.8
6698.73
6696.7
6697.64
6698.66
6698.61
6696.34
6697.09
6704.75
6694.6
)
;
    }
    procBoundary7to0
    {
        type            processor;
        value           uniform 6698.96;
    }
    procBoundary7to1
    {
        type            processor;
        value           uniform 6699.09;
    }
    procBoundary7to3
    {
        type            processor;
        value           nonuniform List<scalar> 
36
(
6697.76
6697.52
6697.76
6698.2
6698.98
6699.83
6700.7
6701.57
6703.64
6698
6697.53
6697.61
6697.9
6698.68
6699.46
6700.41
6701.05
6704.25
6698.03
6697.43
6697.31
6697.4
6698.1
6698.54
6699.46
6699.59
6710.25
6699.05
6698.41
6697.74
6697.02
6696.37
6695.71
6695.38
6695.01
6694.72
)
;
    }
    procBoundary7to5
    {
        type            processor;
        value           nonuniform List<scalar> 
44
(
6698.84
6698.81
6699.14
6699.75
6700.45
6701.24
6701.77
6705.4
6699.07
6699.17
6699.53
6700.07
6700.77
6701.38
6701.98
6701.95
6706.16
6699.07
6699.17
6699.17
6699.34
6699.74
6699.84
6700.13
6700.62
6700.68
6702.91
6699.18
6699.15
6699.34
6699.74
6699.74
6698.92
6698.83
6698.79
6698.75
6700.63
6699.52
6699.35
6699.19
6699.04
6698.92
6698.83
6698.83
)
;
    }
    procBoundary7to6
    {
        type            processor;
        value           nonuniform List<scalar> 
12
(
6699.15
6699.29
6699.85
6699.11
6699.38
6699.8
6699.45
6699.56
6699.85
6699.7
6699.79
6699.89
)
;
    }
}


// ************************************************************************* //
