/*--------------------------------*- C++ -*----------------------------------*\
| =========                 |                                                 |
| \\      /  F ield         | OpenFOAM: The Open Source CFD Toolbox           |
|  \\    /   O peration     | Version:  4.x                                   |
|   \\  /    A nd           | Web:      www.OpenFOAM.org                      |
|    \\/     M anipulation  |                                                 |
\*---------------------------------------------------------------------------*/
FoamFile
{
    version     2.0;
    format      ascii;
    class       volScalarField;
    location    "15.5";
    object      Sm;
}
// * * * * * * * * * * * * * * * * * * * * * * * * * * * * * * * * * * * * * //

dimensions      [1 -3 -1 0 0 0 0];

internalField   nonuniform List<scalar> 
132
(
9.91526e-65
7.82358e-65
6.4295e-65
6.74008e-65
1.03047e-64
1.03834e-64
7.98168e-65
5.65708e-65
8.36944e-65
7.67025e-65
9.45182e-65
7.28265e-65
6.89555e-65
8.29098e-65
5.65682e-65
7.82685e-65
6.35463e-65
8.05955e-65
5.5016e-65
7.3612e-65
6.19896e-65
7.12889e-65
7.43911e-65
8.05937e-65
7.20709e-65
7.20717e-65
8.60214e-65
5.26944e-65
7.12929e-65
8.75663e-65
5.50198e-65
7.28444e-65
6.74217e-65
7.90472e-65
5.88986e-65
4.33989e-65
6.43023e-65
7.36038e-65
6.74109e-65
6.89658e-65
8.6017e-65
8.44694e-65
7.36207e-65
3.95166e-65
8.52283e-65
7.43814e-65
7.51606e-65
8.13635e-65
7.05177e-65
5.65708e-65
7.74958e-65
5.7347e-65
5.81181e-65
8.52384e-65
6.97397e-65
6.04423e-65
7.05182e-65
8.60196e-65
8.91207e-65
7.05224e-65
7.9822e-65
5.81207e-65
8.29188e-65
5.967e-65
7.20698e-65
7.36204e-65
6.19976e-65
6.58729e-65
7.98232e-65
5.34737e-65
5.03674e-65
5.81195e-65
7.36202e-65
6.04468e-65
5.81221e-65
8.0589e-65
7.36118e-65
6.81891e-65
5.19187e-65
8.52414e-65
7.05197e-65
7.12964e-65
8.75713e-65
7.51717e-65
7.05194e-65
7.36184e-65
7.51676e-65
6.97442e-65
8.29191e-65
7.59468e-65
7.67223e-65
7.05231e-65
7.74978e-65
5.34732e-65
6.27717e-65
7.05211e-65
6.89716e-65
6.12225e-65
5.26989e-65
7.59485e-65
7.05241e-65
5.81241e-65
5.50224e-65
6.43227e-65
6.12231e-65
6.89681e-65
5.81192e-65
7.67161e-65
7.43935e-65
5.19218e-65
3.87484e-65
6.89724e-65
6.6648e-65
5.42484e-65
5.96724e-65
6.04469e-65
6.04464e-65
6.19968e-65
6.8972e-65
6.35483e-65
7.20732e-65
6.4324e-65
7.28488e-65
6.27738e-65
7.36233e-65
5.65732e-65
5.81235e-65
6.58734e-65
6.50992e-65
6.50992e-65
6.35496e-65
4.10749e-65
)
;

boundaryField
{
    inlet
    {
        type            calculated;
        value           nonuniform 0();
    }
    outlet
    {
        type            calculated;
        value           uniform 0;
    }
    wall
    {
        type            calculated;
        value           uniform 0;
    }
    procBoundary7to0
    {
        type            processor;
        value           uniform 2.32388e-65;
    }
    procBoundary7to1
    {
        type            processor;
        value           uniform 5.73094e-65;
    }
    procBoundary7to3
    {
        type            processor;
        value           nonuniform List<scalar> 
36
(
7.66862e-65
8.98473e-65
8.8302e-65
8.52149e-65
6.12087e-65
6.27654e-65
8.52411e-65
7.12949e-65
7.43951e-65
9.06429e-65
5.03567e-65
7.74735e-65
4.33878e-65
4.64922e-65
7.9041e-65
7.2844e-65
8.83449e-65
6.12217e-65
5.65649e-65
8.29098e-65
8.21347e-65
5.81149e-65
6.81919e-65
7.98191e-65
6.66465e-65
7.20719e-65
5.42481e-65
5.7342e-65
3.87466e-65
5.42457e-65
6.12202e-65
5.57962e-65
7.12971e-65
6.19983e-65
7.90482e-65
8.52478e-65
)
;
    }
    procBoundary7to5
    {
        type            processor;
        value           nonuniform List<scalar> 
44
(
8.44173e-65
6.04127e-65
7.51422e-65
5.73312e-65
4.57163e-65
7.28417e-65
5.42458e-65
8.67941e-65
9.91666e-65
4.41584e-65
7.28152e-65
7.59227e-65
6.19858e-65
7.05146e-65
7.12931e-65
6.89704e-65
5.57968e-65
9.91666e-65
4.41584e-65
4.41584e-65
8.98794e-65
7.98101e-65
1.01508e-64
7.36164e-65
8.2144e-65
8.91203e-65
8.67961e-65
4.80381e-65
9.37524e-65
8.98794e-65
7.98101e-65
7.98101e-65
9.68649e-65
7.7495e-65
6.50962e-65
6.74224e-65
6.81979e-65
7.36133e-65
5.65654e-65
7.12878e-65
5.5793e-65
9.68649e-65
7.7495e-65
7.7495e-65
)
;
    }
    procBoundary7to6
    {
        type            processor;
        value           nonuniform List<scalar> 
12
(
6.74066e-65
7.12891e-65
4.95954e-65
8.52337e-65
7.59425e-65
7.51708e-65
7.90396e-65
7.74942e-65
5.65735e-65
3.7973e-65
7.82722e-65
6.04493e-65
)
;
    }
}


// ************************************************************************* //
