/*--------------------------------*- C++ -*----------------------------------*\
| =========                 |                                                 |
| \\      /  F ield         | OpenFOAM: The Open Source CFD Toolbox           |
|  \\    /   O peration     | Version:  4.x                                   |
|   \\  /    A nd           | Web:      www.OpenFOAM.org                      |
|    \\/     M anipulation  |                                                 |
\*---------------------------------------------------------------------------*/
FoamFile
{
    version     2.0;
    format      ascii;
    class       volVectorField;
    location    "15.5";
    object      U;
}
// * * * * * * * * * * * * * * * * * * * * * * * * * * * * * * * * * * * * * //

dimensions      [0 1 -1 0 0 0 0];

internalField   nonuniform List<vector> 
132
(
(-0.000313267 -0.0016485 0.00154893)
(0.023775 -0.00150955 0.00270791)
(-0.000144948 -0.00100523 0.000780884)
(0.0251544 -0.00111707 0.00190511)
(-0.000289458 -0.00054455 0.000228974)
(0.0255349 -0.000247252 0.00126604)
(0.00116517 -0.000184877 -0.000649719)
(0.0253316 0.00027369 0.00203936)
(0.00357001 0.000275337 -0.00275164)
(0.00179045 -0.00102339 0.00251507)
(0.0255882 -0.000797799 0.00404077)
(0.00344593 -0.00025131 0.000997088)
(0.0282401 -0.000390189 0.00181862)
(0.00396823 0.000469764 -0.000376796)
(0.0297604 -0.000585453 0.00087651)
(0.00436877 0.00121605 -0.0018304)
(0.02868 -0.00111524 0.00122382)
(0.00580484 0.00199873 -0.00579659)
(0.00326269 -0.00100905 0.00271735)
(0.0258403 -0.000439679 0.00333644)
(0.00544869 -0.000519311 0.00102571)
(0.0286091 -0.000122352 0.00214019)
(0.00702854 0.00036009 -0.000475712)
(0.0304192 -0.000346354 0.00120922)
(0.00858656 0.0027099 -0.00251675)
(0.0296538 -0.00237882 0.00247343)
(0.0105986 0.013053 -0.0105686)
(0.0114832 0.000233093 0.00216281)
(0.0304861 7.47934e-05 0.00278129)
(0.0141007 0.000479806 0.000840641)
(0.0346559 -0.000328709 0.00242356)
(0.014968 0.00131816 9.82909e-05)
(0.040109 -0.00138897 0.00361037)
(0.0140433 0.00366974 -0.00105216)
(0.0491606 -0.0039039 0.00591803)
(0.00885875 0.0122196 -0.00501048)
(-0.0035835 -0.000949314 0.00121523)
(0.0214137 -0.000803688 0.00154162)
(-0.000735444 -0.00048489 0.000338783)
(0.0221876 0.000875355 0.000284837)
(0.00258966 -0.000273782 -0.000918879)
(0.0219572 0.000852612 0.00077568)
(0.0103579 3.83735e-05 -0.00637214)
(-0.00587783 -0.00125801 0.00235956)
(0.0200358 -0.00181331 0.00249959)
(-0.00165429 -0.000554388 0.000984572)
(0.0217389 -0.00145776 0.00134945)
(-0.000542587 -0.00025593 0.000337284)
(0.0222817 -0.000856057 0.00083569)
(0.00324251 0.000326364 -0.00119244)
(0.0215676 -0.000902019 0.00150738)
(0.00924366 2.51156e-05 -0.00534662)
(-0.000587417 -0.000630088 0.00218058)
(0.0215753 -0.00155446 0.00303282)
(-0.000603767 -0.000388881 0.00118461)
(0.0227488 -0.000330273 0.00207076)
(-0.000482335 -0.00013456 0.000516004)
(0.0223153 -0.000849374 0.00149932)
(-0.000211768 -4.37868e-05 0.000171285)
(0.0192225 -0.00143202 0.00193504)
(0.00373152 0.000353239 -0.00113913)
(0.00778509 0.000295295 0.00173102)
(0.0258825 0.000396106 0.00262452)
(0.008988 0.000373786 0.000605132)
(0.0275821 -0.000202877 0.00229158)
(0.00960107 0.000762866 -7.52775e-05)
(0.0282058 -0.000381198 0.00303647)
(0.0100542 0.00116987 -0.000637161)
(0.0266973 -0.00156711 0.00443091)
(0.011191 0.00137469 2.48375e-05)
(-0.000454603 -0.000563942 0.000683397)
(0.02244 -0.000165119 -0.000376696)
(-0.000310124 -0.000309553 0.000307125)
(0.0193329 0.00154989 -0.00239245)
(0.00360127 -0.000840627 -3.15797e-05)
(-0.00127853 -0.00056158 0.0016015)
(0.0237048 -0.000211739 0.000948606)
(-0.000735571 -0.000320178 0.00103857)
(0.0259212 -0.000182169 0.000814974)
(-0.000457227 -7.97553e-05 0.00063845)
(0.0273856 -0.00036698 -0.00124373)
(-0.000222897 8.66744e-05 0.00027482)
(0.0255419 -0.00155192 -0.00294509)
(0.00345119 0.00223108 -0.000137504)
(-0.000338226 -0.000267733 0.0018322)
(0.023772 0.000239393 0.00271302)
(0.00271159 -2.03956e-05 0.00132026)
(0.0265812 0.000157954 0.00146978)
(0.0056555 0.000771121 0.00113048)
(0.0289737 -0.000226835 0.000556289)
(0.00864627 0.00328525 0.00129966)
(0.0297589 -0.00266557 -0.00115415)
(0.0119796 0.0172433 0.00204113)
(0.00978648 0.00050836 0.00172222)
(0.0286772 0.000113942 0.00219024)
(0.0136381 0.000641753 0.00168386)
(0.0330875 -0.000489243 0.00207723)
(0.0158822 0.00137006 0.00211008)
(0.0389328 -0.0014211 0.00204622)
(0.0165775 0.00374318 0.00332134)
(0.0518921 -0.00335831 0.0014079)
(0.0121107 0.0140713 0.00423161)
(0.0118707 -0.00306197 0.000653855)
(0.0259279 0.00188926 0.00017729)
(0.0116578 -0.00503402 0.000567944)
(0.0049812 -0.000586307 0.000565111)
(0.0253103 -0.00075105 0.00118663)
(0.00689416 -0.000362247 -5.31336e-05)
(0.0269677 -0.000661247 0.000460946)
(0.00721278 -0.000128203 -0.000477724)
(0.0264386 -0.000712584 0.000543164)
(0.0058703 6.99528e-05 -0.00103654)
(0.022598 -0.00079683 0.0015208)
(0.00657766 0.000548158 -0.00215854)
(0.00908831 -0.000325875 0.000419661)
(0.0267044 -0.000196918 0.000650348)
(0.0125476 3.57791e-05 -0.000395115)
(0.0290215 0.000248021 -0.000125814)
(0.0138785 0.000489196 -0.00135575)
(0.0296539 0.00038187 -0.000518055)
(0.0135819 0.00193048 -0.00261923)
(0.0277848 -0.000572881 -5.13148e-05)
(0.0121869 0.00497748 -0.00366936)
(0.0114083 5.64033e-05 -0.000200645)
(0.0283072 -8.03864e-05 0.000315475)
(0.0144773 0.000326104 -0.000844037)
(0.0314566 -0.000204194 0.000170707)
(0.0171981 0.000847726 -0.0020168)
(0.0347721 -0.000370961 0.000688108)
(0.0198657 0.0022681 -0.0049436)
(0.0387378 -0.000907652 0.00221856)
(0.0212562 0.00585311 -0.0164238)
)
;

boundaryField
{
    inlet
    {
        type            fixedValue;
        value           nonuniform 0();
    }
    outlet
    {
        type            zeroGradient;
    }
    wall
    {
        type            fixedValue;
        value           uniform (0 0 0);
    }
    procBoundary7to0
    {
        type            processor;
        value           uniform (0.0203643 -0.00217281 0.00168931);
    }
    procBoundary7to1
    {
        type            processor;
        value           uniform (-0.000436735 -0.00201567 0.00122563);
    }
    procBoundary7to3
    {
        type            processor;
        value           nonuniform List<vector> 
36
(
(-0.0049946 -0.00259753 0.00239001)
(0.0224193 -0.00262151 0.00249409)
(-0.00263342 -0.00143822 0.00130846)
(0.0247333 -0.00139573 0.00158342)
(-0.000432862 -0.000595426 0.000410887)
(0.0258528 0.000646475 0.00089315)
(0.000381624 -0.000157154 -6.14254e-05)
(0.0249553 0.000699949 0.000319956)
(0.00306618 0.00109463 -0.00210285)
(0.00023724 -0.00208405 0.00290869)
(0.0237035 -0.00234596 0.00326191)
(-4.12169e-06 -0.00109501 0.001455)
(0.0256698 -0.0014811 0.0020494)
(0.00037038 -0.000522954 0.000510937)
(0.0277202 -0.000356367 0.00113599)
(0.00403957 0.0001306 -0.00134008)
(0.0295927 -0.000874102 0.000855391)
(0.00938101 0.00262743 -0.0128759)
(0.00113491 -0.00125517 0.0032724)
(0.0236866 -0.00109932 0.00375931)
(0.000763416 -0.000718213 0.00169618)
(0.0257842 -0.000150222 0.0027706)
(0.00111426 -0.000199504 0.000760379)
(0.0279901 -0.000615983 0.00213544)
(0.00390386 0.000420719 7.78414e-05)
(0.0314532 -0.00210145 0.00159997)
(0.0054975 0.00170004 -0.00295288)
(0.0130817 0.000143973 0.00289663)
(0.0296094 0.000286693 0.00281301)
(0.0141418 0.000109733 0.00168911)
(0.0318796 -2.86725e-08 0.00263757)
(0.0141937 0.000699771 0.00122761)
(0.034433 -0.000280555 0.00365361)
(0.0135963 0.0013837 0.000432187)
(0.0394363 -0.00138443 0.00615785)
(0.0111126 0.00246356 -0.00636323)
)
;
    }
    procBoundary7to5
    {
        type            processor;
        value           nonuniform List<vector> 
44
(
(0.0249955 -0.00213036 0.00269642)
(0.000570027 -0.00153964 0.000756384)
(0.0277795 -0.00125564 0.000994444)
(0.00223102 -0.0014786 -0.000215658)
(0.0291981 0.000247996 0.000147618)
(0.00180584 -0.00125662 -0.000735789)
(0.0278455 0.00213558 0.00097017)
(0.00251153 -0.00133529 -0.00180935)
(-0.00605641 -0.00140288 0.00192765)
(0.0201076 -0.00157648 0.00256746)
(-0.00167009 -0.00120273 0.000734821)
(0.0229322 -0.000433131 0.00106794)
(-0.000566446 -0.000861809 0.000255212)
(0.0226129 0.000863949 0.000668255)
(3.75405e-05 -0.000531428 2.88223e-05)
(0.0206152 0.00287284 0.000446327)
(0.0081312 -0.00143872 -0.00274247)
(-0.00605641 -0.00140288 0.00192765)
(0.0201076 -0.00157648 0.00256746)
(0.0201076 -0.00157648 0.00256746)
(-0.000668641 -0.000866885 0.00120184)
(0.02276 -0.000839111 0.00047648)
(0.00382451 -0.00196095 0.00168106)
(0.0290371 -7.15395e-05 -0.000195845)
(0.0049467 -0.00309548 0.00246206)
(0.0279184 0.00215733 -0.00397631)
(0.00631429 -0.0052821 0.00348581)
(-0.00123694 -0.00117496 0.00181303)
(0.0214919 -0.00140441 0.00187798)
(-0.000668641 -0.000866885 0.00120184)
(0.02276 -0.000839111 0.00047648)
(0.02276 -0.000839111 0.00047648)
(0.0116631 -0.00177059 0.000486785)
(0.0279754 -0.000229493 0.000375384)
(0.0126876 -0.00434119 -0.000539896)
(0.0325644 0.00146609 0.000474458)
(0.00942391 -0.00605335 -0.000209047)
(0.00675824 -0.00122421 0.000938513)
(0.0254149 -0.00116091 0.00144852)
(0.0102978 -0.00143093 0.000644513)
(0.0275895 -0.00099761 0.000707502)
(0.0116631 -0.00177059 0.000486785)
(0.0279754 -0.000229493 0.000375384)
(0.0279754 -0.000229493 0.000375384)
)
;
    }
    procBoundary7to6
    {
        type            processor;
        value           nonuniform List<vector> 
12
(
(0.0213345 -0.00150481 0.00499659)
(0.0213472 -0.000582671 0.00502231)
(0.0249668 0.000630135 0.0047668)
(0.0168876 -0.000486563 0.00358094)
(0.0188696 -0.000598268 0.00374087)
(0.0221689 0.00116249 0.00365977)
(0.0203924 -0.000773592 0.00313113)
(0.0205178 0.000481774 0.00382584)
(0.023729 0.00111288 0.00243711)
(0.0218845 -0.00110726 0.002109)
(0.0230593 -0.000868577 0.00163388)
(0.0246567 3.2575e-05 0.000368755)
)
;
    }
}


// ************************************************************************* //
