/*--------------------------------*- C++ -*----------------------------------*\
  =========                 |
  \\      /  F ield         | OpenFOAM: The Open Source CFD Toolbox
   \\    /   O peration     | Website:  https://openfoam.org
    \\  /    A nd           | Version:  4.x
     \\/     M anipulation  |
\*---------------------------------------------------------------------------*/
FoamFile
{
    version     2.0;
    format      ascii;
    class       vectorField;
    location    0;
    object      v;
}
// * * * * * * * * * * * * * * * * * * * * * * * * * * * * * * * * * * * * * //

235
(
( 3.2412e-09 -1.46622e-10 3.41072e-09 )  
( -1.43015e-09 1.37368e-09 1.8132e-08 )  
( -2.03043e-08 4.03674e-09 2.57739e-08 )  
( 1.3257e-09 2.12839e-09 8.86925e-09 )  
( 9.12172e-10 1.79485e-09 3.14397e-09 )  
( -2.5174e-09 8.32548e-10 1.51613e-09 )  
( 6.05898e-10 1.72723e-09 3.88642e-09 )  
( -1.31983e-09 2.02563e-09 4.7925e-09 )  
( 3.91751e-10 8.33543e-11 2.12231e-09 )  
( -1.62496e-11 -3.73981e-09 3.36307e-09 )  
( -1.40465e-09 6.70615e-10 3.54714e-10 )  
( 9.1096e-10 -1.2305e-09 -2.05885e-09 )  
( 1.20778e-08 9.48865e-09 1.19732e-08 )  
( -3.87984e-10 -5.84288e-09 -1.57772e-09 )  
( 2.01501e-09 2.22436e-11 2.03839e-09 )  
( 4.60094e-09 2.63043e-09 9.82844e-09 )  
( 1.40164e-09 -2.10481e-09 2.40725e-09 )  
( 6.19005e-10 -7.62355e-11 -7.4936e-10 )  
( 2.07215e-09 -7.77451e-10 -2.53631e-09 )  
( 2.01483e-09 -3.58572e-09 -6.95991e-09 )  
( 3.15022e-09 -3.59588e-09 1.10151e-08 )  
( 9.03517e-10 1.39032e-10 -1.4423e-09 )  
( 3.70365e-09 -1.39736e-10 -1.26747e-09 )  
( 4.38068e-09 -2.2644e-09 3.24246e-09 )  
( 5.61074e-09 -3.47411e-10 -3.93331e-09 )  
( 6.35214e-09 -1.53511e-09 2.17265e-08 )  
( 2.73019e-09 6.11641e-11 -2.85321e-10 )  
( -1.93907e-09 -1.94917e-09 1.50996e-09 )  
( -9.53305e-10 -2.03547e-09 3.64901e-09 )  
( 3.46152e-09 -1.10928e-09 -1.5627e-09 )  
( 2.24394e-09 -1.11573e-10 4.74633e-09 )  
( -5.68675e-09 3.59009e-09 2.12546e-08 )  
( 1.38685e-09 -9.5142e-10 -1.11872e-09 )  
( 1.44097e-09 -1.84948e-09 1.19871e-09 )  
( 3.37181e-09 -7.37981e-10 -3.41113e-09 )  
( 2.95652e-09 5.10916e-10 4.59388e-09 )  
( 5.45503e-09 -1.92737e-09 5.05377e-10 )  
( -1.35924e-09 -5.94335e-09 -1.96748e-09 )  
( -6.71543e-10 -2.6369e-09 4.64857e-10 )  
( 3.66299e-09 -1.55378e-10 -2.80198e-09 )  
( 2.29111e-09 -1.51592e-09 -3.5998e-09 )  
( -4.33481e-09 -2.27455e-09 -7.55359e-09 )  
( -4.79611e-09 -8.896e-09 6.44984e-09 )  
( 2.65518e-09 -2.461e-09 5.09814e-09 )  
( 1.36849e-09 -5.88609e-11 -2.47659e-09 )  
( 6.38288e-09 -2.41325e-09 -5.5243e-09 )  
( -1.02924e-09 -7.4646e-10 2.62084e-10 )  
( -8.69834e-09 2.06947e-08 1.53327e-07 )  
( 4.50988e-10 -4.9318e-11 -1.40366e-09 )  
( 3.49667e-09 -1.65097e-09 -3.93698e-09 )  
( 1.0738e-08 3.81203e-09 9.70061e-10 )  
( 4.72281e-09 -8.72948e-09 5.4453e-09 )  
( 1.41249e-09 -4.78972e-10 -2.25085e-09 )  
( -4.31339e-10 -1.45837e-10 -6.6889e-10 )  
( 6.78222e-09 7.97797e-11 -7.09726e-10 )  
( -1.12426e-08 7.392e-09 1.41119e-08 )  
( 5.82089e-10 -1.51585e-10 -1.71842e-09 )  
( 1.10082e-09 6.35242e-10 8.87582e-10 )  
( -1.76871e-08 -1.09521e-09 2.18092e-08 )  
( 2.03686e-10 -5.33371e-09 5.53072e-09 )  
( 8.38905e-10 -3.17869e-09 -3.94622e-09 )  
( 2.73495e-09 2.16938e-09 6.52944e-09 )  
( -4.82119e-09 -6.39242e-10 5.56775e-09 )  
( 2.11765e-09 -1.86904e-09 -4.11476e-09 )  
( 9.0147e-10 -1.80851e-09 1.61163e-11 )  
( 2.01956e-09 -3.897e-10 1.32496e-10 )  
( 3.66953e-09 -3.19906e-10 -1.80138e-09 )  
( 1.08493e-08 -6.04945e-09 -9.23272e-09 )  
( 2.92524e-09 1.60543e-09 1.74657e-08 )  
( 3.42421e-09 -2.00743e-09 -5.9261e-09 )  
( 1.22138e-08 9.37781e-09 1.28502e-08 )  
( 3.93879e-10 -1.52404e-09 -1.24918e-09 )  
( 2.69913e-09 -8.93169e-10 8.89333e-10 )  
( -7.06738e-10 1.78798e-09 5.14603e-09 )  
( -2.3394e-09 -8.11942e-09 -4.88513e-09 )  
( 7.57065e-09 -1.19145e-08 -2.84102e-08 )  
( 1.4152e-08 -6.73111e-09 -1.52718e-08 )  
( 2.56137e-09 -1.91645e-09 4.38984e-09 )  
( 1.10034e-09 1.04115e-09 -2.35101e-09 )  
( -1.03282e-08 -1.74635e-08 6.43085e-08 )  
( 2.2079e-09 -1.75425e-09 -2.30429e-10 )  
( 4.0098e-09 -1.25105e-08 7.76117e-09 )  
( -6.76386e-09 -6.20389e-11 1.50298e-09 )  
( 5.27733e-09 -1.87036e-09 1.36242e-09 )  
( -2.21194e-10 -7.58718e-09 -7.02582e-09 )  
( -4.70562e-09 -2.54655e-08 -7.44917e-09 )  
( 1.82803e-09 -3.52786e-09 -2.1728e-10 )  
( 4.66875e-09 -1.20839e-09 7.9172e-09 )  
( -2.25144e-08 7.71021e-09 4.55473e-08 )  
( 3.80678e-09 -6.16859e-10 -2.71188e-09 )  
( 7.71598e-09 4.53949e-09 2.75545e-08 )  
( 4.24981e-09 -9.86738e-10 -2.38686e-09 )  
( 5.04755e-09 -5.32173e-10 6.35092e-10 )  
( -4.73016e-11 -3.2469e-10 -1.1025e-09 )  
( 3.56804e-10 4.84815e-10 8.46558e-09 )  
( 1.51248e-08 6.2187e-09 2.91918e-08 )  
( 1.05391e-09 1.94762e-10 2.01911e-09 )  
( 7.11381e-10 -1.52e-09 -3.5996e-09 )  
( 2.42072e-09 -2.34915e-09 -3.61134e-09 )  
( 8.34879e-09 -1.12512e-09 6.1074e-09 )  
( 1.49387e-09 -1.31278e-09 -5.60317e-10 )  
( 2.33008e-09 -7.40652e-09 9.306e-08 )  
( 3.63835e-09 3.85217e-09 1.14527e-08 )  
( 2.4133e-08 3.3299e-08 1.06405e-07 )  
( 3.97925e-10 -5.46586e-10 2.76999e-10 )  
( 5.71149e-10 -6.26704e-10 -3.7601e-10 )  
( 3.77522e-09 -6.01482e-09 -6.23794e-09 )  
( 2.75931e-09 -4.80413e-10 -2.82248e-09 )  
( 5.85158e-10 -1.97937e-09 -2.57588e-10 )  
( -4.97945e-10 3.55075e-09 1.4062e-08 )  
( 2.5579e-09 -2.30265e-09 3.65645e-10 )  
( 3.13004e-09 -3.52806e-10 -2.25164e-09 )  
( 5.27794e-09 -9.78422e-10 -4.334e-09 )  
( 1.61681e-09 -1.96327e-09 3.71966e-09 )  
( 1.13475e-06 4.29901e-08 -5.63732e-08 )  
( -1.90141e-09 -5.07546e-10 -2.81684e-09 )  
( 5.33971e-09 -1.70585e-09 -2.20353e-09 )  
( 2.05565e-09 2.68289e-10 1.29552e-09 )  
( 8.79242e-10 -1.12976e-09 -2.62814e-09 )  
( -1.03421e-08 3.74888e-09 1.53563e-08 )  
( 4.38307e-09 -1.04666e-09 -2.3859e-09 )  
( -6.59695e-09 9.86284e-10 2.05385e-08 )  
( 6.57231e-09 -8.03856e-10 9.89615e-09 )  
( 7.50872e-10 -1.56162e-10 1.92289e-10 )  
( 7.17062e-09 -9.911e-09 1.61057e-08 )  
( 1.10233e-09 -1.36815e-09 -6.20937e-10 )  
( 7.41393e-09 -4.49404e-09 2.27476e-09 )  
( 1.81137e-09 -1.92396e-09 -3.50931e-09 )  
( 5.36563e-10 -3.72895e-09 1.23187e-08 )  
( 3.9169e-10 -3.32534e-09 5.33729e-09 )  
( 3.6421e-09 -1.54577e-09 -8.88941e-09 )  
( 1.28338e-09 -9.99454e-09 3.32516e-08 )  
( -2.12636e-08 -1.32008e-08 3.27462e-08 )  
( 1.60305e-08 -1.15291e-08 -5.70458e-09 )  
( 2.5903e-08 2.13717e-08 4.1237e-08 )  
( -6.76895e-09 2.48616e-09 7.67245e-10 )  
( 2.53499e-09 -3.10238e-10 -8.25601e-10 )  
( 4.1765e-10 -7.95571e-09 1.23818e-09 )  
( -4.14808e-09 3.0391e-09 -5.31373e-10 )  
( 3.92405e-09 -7.73347e-10 -1.09202e-09 )  
( -1.58821e-09 -4.19491e-10 -4.78223e-10 )  
( -2.55784e-11 -3.3491e-09 1.10044e-09 )  
( 2.82366e-09 -8.60686e-09 8.9068e-09 )  
( 2.23377e-09 4.16012e-10 -1.53355e-09 )  
( 8.88637e-10 5.65978e-12 -1.41241e-09 )  
( -2.94389e-09 -1.52798e-09 -4.36773e-09 )  
( 4.9727e-09 9.07972e-10 2.90233e-09 )  
( 3.75421e-09 2.69693e-09 5.57097e-09 )  
( 3.38138e-09 1.76711e-10 -3.40176e-10 )  
( 1.7986e-09 3.2774e-10 -1.22975e-09 )  
( 5.70035e-10 8.20468e-10 -8.39486e-12 )  
( 1.09201e-09 2.21906e-10 -1.44854e-09 )  
( 4.35212e-09 1.53648e-09 6.46723e-09 )  
( 1.43708e-09 -3.30188e-10 -2.79221e-09 )  
( 2.12135e-09 2.55827e-09 1.49391e-09 )  
( 2.54165e-09 2.9501e-10 -4.65348e-10 )  
( 9.15359e-10 1.87765e-09 6.32451e-09 )  
( 1.6095e-09 -1.40165e-10 1.06555e-09 )  
( 1.6951e-09 4.55546e-10 -1.51451e-09 )  
( 3.53999e-09 -1.32319e-09 6.66414e-10 )  
( 4.71192e-09 1.5845e-09 9.10419e-09 )  
( 1.00198e-09 3.50917e-10 -1.01181e-09 )  
( -4.4024e-10 -3.49519e-12 4.52437e-09 )  
( 2.32652e-09 1.95311e-09 7.4962e-09 )  
( 5.52313e-10 1.86765e-09 3.81304e-09 )  
( 4.13954e-09 3.32798e-10 2.54248e-09 )  
( -8.1253e-10 1.25477e-09 7.27228e-09 )  
( -8.62371e-10 3.34803e-09 1.01225e-08 )  
( 3.59507e-10 1.34106e-09 1.14286e-08 )  
( 2.61864e-09 3.30228e-10 -9.55942e-10 )  
( 8.1185e-10 1.10652e-09 8.02638e-10 )  
( 1.58252e-09 -2.08132e-10 1.47999e-10 )  
( 2.25978e-09 6.43878e-10 4.00706e-09 )  
( 2.63276e-09 6.07617e-11 -1.56362e-09 )  
( 1.79584e-09 1.06361e-10 -2.21581e-09 )  
( 1.58011e-09 1.8874e-10 1.19178e-09 )  
( 3.88163e-09 2.27212e-11 4.98318e-10 )  
( 1.68875e-09 2.05359e-09 7.81332e-09 )  
( 2.54764e-10 -1.06933e-09 -1.16362e-09 )  
( -1.43521e-09 -8.27072e-10 -1.49557e-09 )  
( 7.05839e-10 2.13367e-09 2.00925e-08 )  
( 1.5571e-09 -4.88124e-10 -4.05513e-09 )  
( 3.9881e-09 1.53337e-09 8.25086e-09 )  
( 4.46039e-09 -7.24285e-10 -9.92302e-10 )  
( -1.12461e-08 -2.22515e-08 -2.31697e-08 )  
( 1.18862e-09 -2.5221e-10 3.08854e-09 )  
( 3.73337e-10 -3.35709e-10 -6.50482e-10 )  
( 1.10709e-09 -6.84977e-11 -8.44167e-10 )  
( 1.72013e-09 -2.68464e-09 9.60976e-09 )  
( 6.41597e-09 -3.28418e-09 -6.10449e-09 )  
( 1.95785e-09 -3.27264e-09 -8.161e-09 )  
( -8.0043e-09 -3.91214e-09 2.83809e-09 )  
( -2.01911e-08 1.02586e-08 1.8207e-08 )  
( 2.59512e-09 -2.76162e-09 5.31497e-09 )  
( 4.36293e-11 -1.51035e-10 -1.04953e-09 )  
( 2.14782e-09 -8.92438e-10 1.72389e-09 )  
( 3.86498e-09 -5.49299e-09 -8.15066e-09 )  
( -2.50761e-10 1.00393e-09 -3.4381e-09 )  
( 6.03242e-10 9.2843e-11 -4.48502e-10 )  
( -1.92243e-11 2.16933e-09 5.71804e-09 )  
( 3.48511e-09 1.91033e-11 8.49905e-09 )  
( 2.75162e-09 -2.38321e-10 1.6371e-09 )  
( -6.63069e-09 1.54794e-09 6.02625e-09 )  
( 3.01082e-09 3.54937e-09 8.78333e-09 )  
( 1.98742e-09 3.85604e-09 7.11153e-09 )  
( 4.07677e-09 1.98112e-09 2.66181e-08 )  
( 2.49486e-09 2.0372e-09 6.20463e-09 )  
( -7.23078e-10 2.65127e-10 -3.77773e-09 )  
( 2.11584e-10 -8.20629e-12 -6.75217e-10 )  
( 4.43698e-09 1.00927e-09 5.38397e-09 )  
( 1.87818e-09 1.35194e-09 -1.92517e-09 )  
( 1.91755e-09 -4.10916e-11 1.31456e-09 )  
( 1.67086e-09 7.6746e-11 2.0574e-10 )  
( 1.27454e-08 -2.89235e-08 4.30098e-08 )  
( 1.58564e-08 1.45331e-09 1.29777e-08 )  
( -1.12672e-08 6.05943e-10 2.04491e-09 )  
( 2.23911e-09 -3.57616e-09 -5.66982e-09 )  
( -1.4827e-08 -3.15199e-08 -3.92375e-08 )  
( 3.00734e-09 -1.43967e-09 -3.79657e-10 )  
( -3.84583e-08 2.61653e-08 8.23619e-08 )  
( -2.87728e-09 -1.0655e-08 -9.67632e-09 )  
( 3.58814e-09 1.887e-10 -1.94412e-09 )  
( -1.05936e-09 -3.13981e-09 8.21178e-10 )  
( 1.30542e-09 -2.97209e-11 -2.24276e-09 )  
( 5.08566e-09 -9.76433e-09 1.11583e-08 )  
( 9.55312e-09 -1.0139e-08 1.53829e-08 )  
( -2.48551e-08 1.50716e-08 4.79284e-08 )  
( -8.62633e-10 -2.6855e-08 2.16126e-08 )  
( -2.49078e-08 -5.16739e-09 7.90488e-09 )  
( -1.79189e-07 5.40195e-06 3.96505e-07 )  
( -6.16675e-09 -1.10241e-09 8.24989e-10 )  
( -4.06445e-08 -1.72756e-08 1.33243e-08 )  
( -3.60899e-09 -2.75859e-09 1.08388e-09 )  
( 8.57953e-09 -1.65494e-08 1.0201e-08 )  
( 1.78301e-09 -1.28069e-08 5.81311e-09 )  
)
