/*--------------------------------*- C++ -*----------------------------------*\
| =========                 |                                                 |
| \\      /  F ield         | OpenFOAM: The Open Source CFD Toolbox           |
|  \\    /   O peration     | Version:  4.x                                   |
|   \\  /    A nd           | Web:      www.OpenFOAM.org                      |
|    \\/     M anipulation  |                                                 |
\*---------------------------------------------------------------------------*/
FoamFile
{
    version     2.0;
    format      ascii;
    class       volScalarField;
    location    "28";
    object      Cs;
}
// * * * * * * * * * * * * * * * * * * * * * * * * * * * * * * * * * * * * * //

dimensions      [1 -3 0 0 0 0 0];

internalField   nonuniform List<scalar> 
114
(
334.998
334.996
334.993
334.99
334.981
334.87
334.993
334.988
334.981
334.971
334.963
334.949
334.896
334.991
334.985
334.975
334.967
334.958
334.954
334.945
334.927
334.999
334.999
334.998
334.997
334.995
334.993
334.989
334.986
334.801
334.997
334.994
334.989
334.984
334.979
334.976
334.975
334.974
335.01
334.995
334.991
334.986
334.979
334.974
334.971
334.973
334.977
335.11
334.995
334.99
335
335
334.999
334.999
334.998
334.996
334.994
334.992
334.607
334.999
334.997
334.995
334.993
334.99
334.987
334.983
334.982
335.008
334.998
334.996
334.993
334.99
334.985
334.981
334.978
334.978
335.041
334.997
334.994
334.989
334.983
334.999
334.999
334.999
334.999
334.999
334.998
334.997
334.996
336.531
335
334.999
334.999
334.998
334.997
334.996
334.994
334.992
334.911
334.999
334.999
334.998
334.997
334.996
334.994
334.99
334.988
334.914
334.999
334.998
334.997
334.996
334.994
334.991
)
;

boundaryField
{
    inlet
    {
        type            calculated;
        value           nonuniform 0();
    }
    outlet
    {
        type            calculated;
        value           uniform 335;
    }
    wall
    {
        type            calculated;
        value           nonuniform List<scalar> 
66
(
334.999
335
334.999
334.999
334.999
334.999
334.999
334.998
334.999
334.999
334.998
334.997
334.999
334.998
334.997
334.996
334.999
334.997
334.996
334.994
334.998
334.996
334.994
334.991
334.997
334.994
334.99
334.996
334.992
334.988
336.531
334.911
334.914
334.999
335
334.999
334.999
335
334.999
334.998
334.999
334.999
334.998
334.997
334.999
334.999
334.996
334.995
334.998
334.999
334.993
334.993
334.996
334.998
334.99
334.989
334.994
334.997
334.981
334.986
334.992
334.996
334.87
334.801
334.607
336.531
)
;
    }
    procBoundary5to1
    {
        type            processor;
        value           nonuniform List<scalar> 
32
(
334.997
334.993
334.989
334.98
334.973
334.681
334.982
334.972
334.954
334.939
334.922
334.921
334.731
334.973
334.965
334.956
334.944
334.934
334.928
334.922
334.869
335
334.999
334.999
334.999
334.999
334.998
334.996
334.996
334.996
334.996
334.996
)
;
    }
    procBoundary5to4
    {
        type            processor;
        value           nonuniform List<scalar> 
12
(
335
334.999
334.998
334.997
335
334.999
334.999
334.998
335
335
335
335
)
;
    }
    procBoundary5to7
    {
        type            processor;
        value           nonuniform List<scalar> 
44
(
334.988
334.98
334.971
334.96
334.946
334.94
334.931
335.006
334.995
334.988
334.984
334.976
334.97
334.965
334.966
334.97
335.247
334.991
334.984
334.985
334.984
334.976
334.977
334.973
334.974
334.978
335.056
334.997
334.995
334.991
334.977
334.987
334.977
334.973
334.987
334.983
334.887
334.999
334.999
334.998
334.996
334.994
334.987
334.99
)
;
    }
}


// ************************************************************************* //
