/*--------------------------------*- C++ -*----------------------------------*\
| =========                 |                                                 |
| \\      /  F ield         | OpenFOAM: The Open Source CFD Toolbox           |
|  \\    /   O peration     | Version:  4.x                                   |
|   \\  /    A nd           | Web:      www.OpenFOAM.org                      |
|    \\/     M anipulation  |                                                 |
\*---------------------------------------------------------------------------*/
FoamFile
{
    version     2.0;
    format      ascii;
    class       volScalarField;
    location    "28";
    object      SPartFluid;
}
// * * * * * * * * * * * * * * * * * * * * * * * * * * * * * * * * * * * * * //

dimensions      [1 -3 -1 0 0 0 0];

internalField   nonuniform List<scalar> 
114
(
6.81999e-65
8.05999e-65
6.35501e-65
6.74252e-65
7.59503e-65
8.44754e-65
6.81996e-65
5.65747e-65
5.81248e-65
6.665e-65
8.21501e-65
8.52502e-65
7.90502e-65
8.44742e-65
6.04495e-65
7.51746e-65
5.73498e-65
4.57249e-65
7.285e-65
5.42501e-65
8.68002e-65
6.35499e-65
4.805e-65
6.97499e-65
5.425e-65
6.43251e-65
6.82002e-65
7.13003e-65
5.65753e-65
5.96753e-65
7.05247e-65
6.81998e-65
8.52497e-65
7.12998e-65
8.36999e-65
8.13751e-65
5.27001e-65
8.60253e-65
6.89752e-65
8.21496e-65
4.57248e-65
7.28496e-65
7.59497e-65
6.19999e-65
7.0525e-65
7.13001e-65
6.89752e-65
5.58002e-65
9.99745e-65
4.33998e-65
6.66501e-65
8.21502e-65
6.74251e-65
7.36252e-65
6.97502e-65
6.89754e-65
6.66504e-65
7.28505e-65
6.58754e-65
5.425e-65
8.36999e-65
6.045e-65
7.13001e-65
7.13001e-65
7.05252e-65
9.14504e-65
6.43253e-65
5.50253e-65
6.89748e-65
6.35499e-65
6.89749e-65
6.045e-65
1.0075e-64
7.36252e-65
8.21503e-65
8.91253e-65
8.68003e-65
4.80499e-65
9.37749e-65
8.98999e-65
7.9825e-65
2.63502e-65
6.89754e-65
4.57253e-65
7.13004e-65
6.04504e-65
4.96004e-65
6.97506e-65
6.27755e-65
6.04505e-65
6.35502e-65
6.58752e-65
4.34001e-65
5.65753e-65
7.44004e-65
6.51004e-65
4.57253e-65
7.05255e-65
6.04504e-65
6.12251e-65
6.43251e-65
8.52501e-65
6.97502e-65
5.89002e-65
8.06004e-65
6.51003e-65
6.74254e-65
6.82004e-65
7.36251e-65
5.65751e-65
7.13001e-65
5.58002e-65
9.68753e-65
7.75003e-65
)
;

boundaryField
{
    inlet
    {
        type            calculated;
        value           nonuniform 0();
    }
    outlet
    {
        type            calculated;
        value           uniform 0;
    }
    wall
    {
        type            calculated;
        value           uniform 0;
    }
    procBoundary5to1
    {
        type            processor;
        value           nonuniform List<scalar> 
32
(
7.98248e-65
5.735e-65
8.44751e-65
7.05252e-65
5.73503e-65
4.18502e-65
5.65746e-65
6.12247e-65
6.97498e-65
6.975e-65
6.58751e-65
7.20752e-65
4.41751e-65
6.35493e-65
5.11495e-65
9.06743e-65
8.29246e-65
8.75748e-65
6.82e-65
7.90501e-65
3.48751e-65
6.58747e-65
5.26999e-65
8.05997e-65
8.05997e-65
8.05997e-65
7.05245e-65
9.99743e-65
9.99743e-65
9.99743e-65
5.73494e-65
5.73494e-65
)
;
    }
    procBoundary5to4
    {
        type            processor;
        value           nonuniform List<scalar> 
12
(
8.9125e-65
9.06746e-65
5.65747e-65
5.96747e-65
8.21502e-65
8.1375e-65
6.81999e-65
6.81999e-65
7.20754e-65
7.59502e-65
6.27751e-65
6.35501e-65
)
;
    }
    procBoundary5to7
    {
        type            processor;
        value           nonuniform List<scalar> 
44
(
7.82743e-65
6.43245e-65
6.74246e-65
1.03075e-64
1.0385e-64
7.9825e-65
5.65751e-65
8.37001e-65
9.91991e-65
7.82743e-65
6.43247e-65
7.36247e-65
6.74249e-65
6.8975e-65
8.60251e-65
8.44752e-65
7.36252e-65
3.95248e-65
6.43247e-65
8.52497e-65
6.43247e-65
7.36247e-65
5.0375e-65
5.81251e-65
7.36252e-65
6.04502e-65
5.81252e-65
8.06e-65
7.36249e-65
6.82e-65
5.0375e-65
5.19251e-65
5.0375e-65
5.81251e-65
5.50253e-65
6.43254e-65
6.12253e-65
6.89752e-65
5.81252e-65
7.67252e-65
7.44003e-65
5.19252e-65
5.50253e-65
3.87502e-65
)
;
    }
}


// ************************************************************************* //
