/*--------------------------------*- C++ -*----------------------------------*\
| =========                 |                                                 |
| \\      /  F ield         | OpenFOAM: The Open Source CFD Toolbox           |
|  \\    /   O peration     | Version:  4.x                                   |
|   \\  /    A nd           | Web:      www.OpenFOAM.org                      |
|    \\/     M anipulation  |                                                 |
\*---------------------------------------------------------------------------*/
FoamFile
{
    version     2.0;
    format      ascii;
    class       volScalarField;
    location    "6.5";
    object      p_rgh;
}
// * * * * * * * * * * * * * * * * * * * * * * * * * * * * * * * * * * * * * //

dimensions      [1 -1 -2 0 0 0 0];

internalField   nonuniform List<scalar> 
114
(
77.2585
97.181
62.1879
91.5795
44.1594
81.8343
110.697
94.3225
103.233
77.7181
97.6409
63.1021
92.3184
45.2538
82.6849
109.611
93.5055
103.05
77.7828
97.9197
63.2409
93.0064
46.2949
84.2551
108.737
92.8659
102.145
77.0578
96.4087
61.9796
91.46
46.2539
85.2517
59.7881
88.0636
41.288
79.1296
111.79
94.7553
103.778
77.2407
96.2863
60.3586
88.5484
41.6798
79.5284
110.783
94.0667
103.572
77.1633
96.6607
60.624
89.4135
42.4528
80.5281
109.71
93.3331
102.517
76.5451
95.4724
60.1234
88.8978
43.3324
82.0779
41.3375
79.228
112.647
95.198
104.345
77.276
95.6476
59.4939
87.2324
41.1561
78.9603
111.853
94.8113
104.248
77.2754
96.0868
59.7128
88.0188
41.5682
79.5452
110.785
94.0277
103.176
76.7653
95.1682
59.5636
87.4594
42.0556
80.0291
113.043
95.5642
104.575
77.264
95.373
58.9728
86.7367
40.9301
112.472
95.2004
104.524
77.2969
95.8071
59.1611
87.1839
111.391
94.489
103.509
76.8985
94.9788
58.9485
)
;

boundaryField
{
    inlet
    {
        type            fixedFluxPressure;
        gradient        nonuniform List<scalar> 
12
(
-8.26067
-9.61777
-10.0292
-2.75913
-3.10245
-3.30429
-0.803185
-0.87925
-0.936511
-0.000134959
-0.000121744
-0.000121178
)
;
        value           nonuniform List<scalar> 
12
(
110.582
109.478
108.598
111.752
110.74
109.664
112.635
111.841
110.772
113.043
112.472
111.391
)
;
    }
    outlet
    {
        type            fixedValue;
        value           nonuniform 0();
    }
    wall
    {
        type            fixedFluxPressure;
        gradient        nonuniform List<scalar> 
66
(
2.7093e-05
-0.000241084
-0.000240312
-0.0007613
-0.000703396
-0.000319951
-0.000389386
-0.0010595
-9.51266e-05
-0.00107664
-0.00121191
-0.00196764
-0.000979969
-0.000593289
-0.000860874
-2.6216e-05
-0.00100056
-0.00372015
-0.00326147
-0.00238118
-0.00125558
-0.00101446
-0.00149354
-0.0010508
-7.25443e-05
-0.00231091
-0.00155554
-0.000970502
-0.000588393
0.000217052
6.18813e-05
0.000566782
0.000613337
4.03784e-05
9.41728e-05
2.59261e-05
4.40718e-05
0.000294904
0.000404704
0.000313497
0.000411586
0.00016613
0.000244009
0.000405435
0.000370669
0.00218206
0.000267582
0.000715197
0.000845124
0.00045113
0.000278533
0.000547309
0.000455923
0.000248453
0.000481307
0.000814012
0.000359344
-0.000948437
-9.6078e-05
0.000294222
0.000206627
-0.000366275
0.000104781
0.000973073
-0.000192444
-0.000263323
)
;
        value           nonuniform List<scalar> 
66
(
110.697
109.611
108.737
94.3225
93.5055
92.8659
103.233
103.05
102.145
77.2585
77.7181
77.7828
77.0578
97.181
97.6408
97.9197
96.4087
62.1879
63.1021
63.2408
61.9795
91.5795
92.3184
93.0063
91.46
44.1594
45.2538
46.2948
46.2539
81.8343
82.6849
84.2551
85.2517
108.737
109.71
110.785
111.391
92.8659
93.3331
94.0277
94.489
102.145
102.517
103.176
103.509
77.0579
76.5451
76.7653
76.8985
96.4087
95.4724
95.1682
94.9788
61.9796
60.1234
59.5636
58.9485
91.46
88.8978
87.4594
46.2539
43.3324
42.0556
85.2517
82.0779
80.0291
)
;
    }
    procBoundary2to0
    {
        type            processor;
        value           nonuniform List<scalar> 
44
(
74.0858
93.8947
60.1869
90.3948
44.123
82.0857
113.788
96.2608
103.757
103.757
77.18
96.1237
58.1501
86.9224
40.4899
78.7636
114.414
96.2178
104.557
77.18
96.1237
96.1237
59.2256
87.3366
40.5529
78.5212
114.591
96.5908
105.183
77.446
95.7327
59.2256
87.3366
87.3366
41.12
78.7745
114.19
96.552
105.301
77.5776
95.5577
59.0899
86.7278
41.12
)
;
    }
    procBoundary2to3
    {
        type            processor;
        value           nonuniform List<scalar> 
12
(
22.8807
23.8907
24.9916
27.9311
21.8268
22.1453
22.4359
25.1912
23.4645
22.8768
22.7167
23.949
)
;
    }
    procBoundary2to6
    {
        type            processor;
        value           nonuniform List<scalar> 
32
(
78.7215
41.0283
78.8674
86.5929
41.0409
78.7067
113.608
95.7542
105.121
77.8917
95.6997
59.5453
87.0855
78.7215
41.0283
42.0038
113.052
95.6287
104.999
77.9095
96.0281
59.6906
41.0283
86.5929
87.2256
112.013
94.9555
104.037
77.5536
95.3825
86.5929
59.42
)
;
    }
}


// ************************************************************************* //
