/*--------------------------------*- C++ -*----------------------------------*\
| =========                 |                                                 |
| \\      /  F ield         | OpenFOAM: The Open Source CFD Toolbox           |
|  \\    /   O peration     | Version:  4.x                                   |
|   \\  /    A nd           | Web:      www.OpenFOAM.org                      |
|    \\/     M anipulation  |                                                 |
\*---------------------------------------------------------------------------*/
FoamFile
{
    version     2.0;
    format      ascii;
    class       surfaceScalarField;
    location    "6.5";
    object      phi;
}
// * * * * * * * * * * * * * * * * * * * * * * * * * * * * * * * * * * * * * //

dimensions      [0 3 -1 0 0 0 0];

internalField   nonuniform List<scalar> 
259
(
1.00455e-05
1.47047e-07
9.26008e-06
2.65375e-07
8.73442e-06
1.8075e-07
2.02665e-07
7.51072e-06
2.77784e-07
7.38487e-07
7.1812e-06
1.48087e-07
1.10097e-07
3.04136e-07
2.37557e-07
9.04647e-06
2.89175e-07
-1.13304e-06
9.63326e-06
1.94754e-07
-7.02448e-07
1.04057e-05
4.11384e-07
-9.98223e-07
1.05689e-05
2.97231e-07
-3.13464e-07
1.01486e-05
5.25484e-07
1.60186e-07
9.71228e-06
3.75101e-07
2.42009e-07
8.72092e-06
5.73668e-07
6.95471e-07
8.34739e-06
3.32494e-07
1.89123e-07
5.34898e-07
2.11213e-07
9.27211e-06
3.52912e-07
-1.17258e-06
9.99284e-06
2.236e-07
-7.4958e-07
1.10253e-05
4.49488e-07
-1.07059e-06
1.13904e-05
3.11003e-07
-3.78825e-07
1.1323e-05
5.9548e-07
-2.60057e-09
1.10136e-05
4.54565e-07
2.29902e-07
1.00703e-05
7.77715e-07
7.39251e-07
9.52435e-06
5.67884e-07
3.1058e-07
8.47193e-07
4.71683e-07
9.56621e-06
-1.05003e-06
1.05505e-05
-7.6066e-07
1.20025e-05
-1.00257e-06
1.28299e-05
-5.16376e-07
1.36209e-05
-1.95473e-07
1.39023e-05
1.73125e-07
1.38762e-05
8.03814e-07
1.35954e-05
8.48658e-07
1.3344e-06
6.51218e-06
7.05741e-08
6.5383e-06
5.22231e-08
6.57053e-06
3.61993e-08
3.20037e-08
1.06669e-07
7.52048e-08
8.09313e-06
3.50372e-07
-1.31599e-06
7.99215e-06
1.7917e-07
-7.29897e-07
7.71707e-06
4.27901e-07
-1.00669e-06
7.54023e-06
2.10529e-07
-2.55325e-07
7.25278e-06
3.86835e-07
2.15819e-07
7.22104e-06
1.79213e-07
1.65109e-07
7.06178e-06
2.50505e-07
6.56448e-07
7.09391e-06
9.75754e-08
9.56158e-08
1.29013e-07
1.1872e-07
8.22904e-06
4.35445e-07
-1.32343e-06
8.17331e-06
2.54777e-07
-7.69455e-07
8.05144e-06
5.6019e-07
-1.081e-06
7.9274e-06
2.86061e-07
-3.30314e-07
7.68462e-06
5.7097e-07
5.60405e-08
7.63058e-06
3.21321e-07
1.41834e-07
7.31749e-06
5.70844e-07
7.31997e-07
7.25095e-06
3.07665e-07
1.67037e-07
4.22144e-07
4.03843e-07
8.77843e-06
-1.22975e-06
9.11833e-06
-8.4578e-07
9.77138e-06
-1.09544e-06
1.01009e-05
-5.59874e-07
1.06513e-05
-1.74823e-07
1.09879e-05
1.57847e-07
1.14352e-05
9.27282e-07
1.16995e-05
8.92095e-07
1.61413e-06
5.90238e-06
4.66955e-08
1.11079e-07
7.69351e-06
3.94363e-07
-1.08168e-06
7.41588e-06
1.84222e-07
-5.47739e-07
6.87377e-06
4.11857e-07
-7.17433e-07
6.70794e-06
1.51958e-07
-1.70153e-07
6.5238e-06
3.18885e-07
1.91045e-07
6.53352e-06
9.64064e-08
9.5927e-08
6.64227e-06
1.93444e-07
3.85478e-07
6.71156e-06
6.91176e-08
3.89899e-09
1.33952e-07
7.80283e-06
4.57297e-07
-1.02594e-06
7.52654e-06
2.52021e-07
-5.60964e-07
7.00326e-06
5.83388e-07
-7.29246e-07
6.79119e-06
2.53033e-07
-2.19326e-07
6.51622e-06
5.41297e-07
1.086e-07
6.46733e-06
2.1532e-07
7.18125e-08
6.31844e-06
4.59309e-07
6.15026e-07
6.3076e-06
1.87367e-07
2.91134e-07
8.36019e-06
-9.69377e-07
8.43164e-06
-6.65214e-07
8.73769e-06
-8.18096e-07
8.88689e-06
-4.56044e-07
9.38258e-06
-1.29212e-07
9.62175e-06
1.33999e-07
1.02293e-05
1.06151e-05
7.47751e-06
3.72457e-07
7.12303e-06
1.93237e-07
6.54816e-06
3.88497e-07
6.41377e-06
1.23634e-07
6.30614e-06
2.33308e-07
6.32906e-06
8.21129e-08
6.4069e-06
1.2344e-07
7.64817e-06
5.09506e-07
7.35674e-06
2.77266e-07
6.84193e-06
5.87503e-07
6.65227e-06
2.36872e-07
6.37056e-06
4.95137e-07
6.29096e-06
2.05363e-07
8.35085e-06
8.42558e-06
8.73517e-06
8.86729e-06
9.32806e-06
)
;

boundaryField
{
    inlet
    {
        type            calculated;
        value           nonuniform List<scalar> 
12
(
-8.16327e-06
-8.16327e-06
-8.16327e-06
-8.16327e-06
-8.16327e-06
-8.16327e-06
-8.16327e-06
-8.16327e-06
-8.16327e-06
-8.16327e-06
-8.16327e-06
-8.16327e-06
)
;
    }
    outlet
    {
        type            calculated;
        value           nonuniform 0();
    }
    wall
    {
        type            calculated;
        value           uniform 0;
    }
    procBoundary2to0
    {
        type            processor;
        value           nonuniform List<scalar> 
44
(
1.81464e-07
2.6428e-07
1.42251e-07
2.07428e-07
7.13357e-08
7.64472e-08
-3.93403e-08
-7.9098e-08
-1.01215e-05
-1.85558e-07
-2.52523e-07
2.55738e-07
6.06652e-08
3.5038e-08
9.65994e-09
-1.12762e-07
-9.72791e-08
-5.07438e-08
-1.44355e-07
-9.18256e-08
-6.56001e-06
-1.55017e-07
1.1926e-07
6.251e-07
3.24255e-08
1.01428e-08
-1.58918e-07
-8.8752e-08
-1.59003e-07
-7.12965e-08
-1.0997e-07
-3.69509e-08
-5.94003e-06
-3.12211e-08
-9.46544e-09
2.03903e-07
-5.08242e-08
-5.84929e-08
-1.01408e-07
-5.42339e-08
-7.2383e-08
-4.37545e-08
-2.5066e-08
-4.29498e-08
)
;
    }
    procBoundary2to3
    {
        type            processor;
        value           nonuniform List<scalar> 
12
(
6.56306e-06
7.90542e-06
8.74037e-06
1.31082e-05
6.73898e-06
7.16406e-06
7.02566e-06
1.18419e-05
5.65246e-06
6.79982e-06
6.23867e-06
1.11417e-05
)
;
    }
    procBoundary2to6
    {
        type            processor;
        value           nonuniform List<scalar> 
32
(
7.5926e-09
5.96269e-08
3.15593e-07
7.79073e-07
6.93657e-07
1.37866e-06
-7.17556e-07
-3.28008e-07
-4.29655e-07
-1.05158e-07
1.37748e-07
3.46463e-08
2.09263e-07
6.44357e-06
5.07559e-08
-4.05787e-08
-6.47893e-07
-3.5356e-07
-4.13444e-07
-1.429e-07
1.28478e-07
2.81616e-08
6.24246e-06
3.64164e-07
4.22809e-07
-6.47452e-07
-4.62682e-07
-5.40187e-07
-3.51294e-07
-9.48449e-08
9.60806e-06
5.93661e-08
)
;
    }
}


// ************************************************************************* //
