/*--------------------------------*- C++ -*----------------------------------*\
| =========                 |                                                 |
| \\      /  F ield         | OpenFOAM: The Open Source CFD Toolbox           |
|  \\    /   O peration     | Version:  4.x                                   |
|   \\  /    A nd           | Web:      www.OpenFOAM.org                      |
|    \\/     M anipulation  |                                                 |
\*---------------------------------------------------------------------------*/
FoamFile
{
    version     2.0;
    format      ascii;
    class       volScalarField;
    location    "6.5";
    object      Qsource;
}
// * * * * * * * * * * * * * * * * * * * * * * * * * * * * * * * * * * * * * //

dimensions      [1 -1 -3 0 0 0 0];

internalField   nonuniform List<scalar> 
114
(
7.70138e+09
6.37216e+09
3.38287e+09
6.42924e+09
2.80975e+09
3.58486e+09
6.62143e+09
7.5253e+09
7.07097e+09
5.12393e+09
8.24159e+09
5.44645e+09
8.01498e+09
6.63156e+09
5.02452e+09
4.70134e+09
6.82314e+09
4.43619e+09
6.5638e+09
6.09346e+09
6.64032e+09
4.31227e+09
5.80404e+09
4.52684e+09
5.62168e+09
5.18771e+09
6.39827e+09
6.23561e+09
6.11137e+09
5.93052e+09
5.21988e+09
6.55717e+09
6.01043e+09
9.4438e+09
1.18665e+10
6.23574e+09
1.0906e+10
4.70753e+09
7.97335e+09
9.5431e+09
9.06787e+09
8.8835e+09
6.98279e+09
1.09157e+10
8.53434e+09
6.20603e+09
5.83264e+09
1.00695e+10
1.06326e+10
9.24841e+09
9.30323e+09
8.93009e+09
9.06174e+09
8.298e+09
7.92752e+09
5.85775e+09
5.95569e+09
9.21972e+09
6.67428e+09
8.50037e+09
7.30598e+09
7.68909e+09
7.88259e+09
5.81942e+09
8.06088e+09
9.1567e+09
6.79982e+09
5.71839e+09
6.63887e+09
6.78585e+09
6.63779e+09
7.74437e+09
9.81314e+09
7.39273e+09
5.79894e+09
4.94798e+09
6.935e+09
8.93753e+09
1.03425e+10
8.99929e+09
6.97327e+09
9.39683e+09
8.60435e+09
1.03886e+10
5.76314e+09
8.05756e+09
7.70703e+09
7.9799e+09
5.57217e+09
7.41206e+09
1.05915e+10
6.23001e+09
1.09472e+10
4.84723e+09
9.41272e+09
1.01197e+10
7.08393e+09
7.69223e+09
6.74254e+09
7.5812e+09
8.04527e+09
5.82754e+09
7.85141e+09
1.03605e+10
6.46927e+09
8.92145e+09
7.51002e+09
1.02676e+10
5.02346e+09
6.77523e+09
8.22049e+09
7.75466e+09
7.49206e+09
7.14833e+09
)
;

boundaryField
{
    inlet
    {
        type            calculated;
        value           uniform 0;
    }
    outlet
    {
        type            calculated;
        value           nonuniform 0();
    }
    wall
    {
        type            calculated;
        value           uniform 0;
    }
    procBoundary2to0
    {
        type            processor;
        value           nonuniform List<scalar> 
44
(
5.7711e+09
6.44884e+09
5.26174e+09
4.70107e+09
4.61711e+09
9.02383e+09
2.95289e+09
5.06556e+09
4.41565e+09
4.41565e+09
5.1967e+09
1.12035e+10
7.44278e+09
1.00737e+10
6.65503e+09
6.05495e+09
7.91481e+09
7.0184e+09
7.65643e+09
5.1967e+09
1.12035e+10
1.12035e+10
7.92427e+09
8.65119e+09
6.53265e+09
5.38038e+09
6.83103e+09
8.5744e+09
9.34121e+09
8.57326e+09
9.92171e+09
7.92427e+09
8.65119e+09
8.65119e+09
5.79014e+09
2.6858e+09
4.78408e+09
6.68447e+09
9.49132e+09
1.02575e+10
5.34208e+09
9.99509e+09
8.56424e+09
5.79014e+09
)
;
    }
    procBoundary2to3
    {
        type            processor;
        value           nonuniform List<scalar> 
12
(
6.97742e+09
5.63323e+09
6.45054e+09
5.67884e+09
8.04089e+09
7.28974e+09
1.22644e+10
9.08927e+09
8.39503e+09
9.97608e+09
6.93055e+09
7.03511e+09
)
;
    }
    procBoundary2to6
    {
        type            processor;
        value           nonuniform List<scalar> 
32
(
8.20627e+09
6.73557e+09
8.96002e+09
6.56422e+09
7.01712e+09
6.64459e+09
9.86459e+09
8.88931e+09
5.9893e+09
7.96212e+09
1.09581e+10
6.26002e+09
8.68613e+09
8.20627e+09
6.73557e+09
6.76624e+09
6.23885e+09
9.18275e+09
8.03818e+09
9.73756e+09
9.05978e+09
8.71178e+09
6.73557e+09
6.56422e+09
8.66524e+09
5.41923e+09
8.07847e+09
6.69479e+09
6.68449e+09
9.43189e+09
6.56422e+09
1.01618e+10
)
;
    }
}


// ************************************************************************* //
