/*--------------------------------*- C++ -*----------------------------------*\
| =========                 |                                                 |
| \\      /  F ield         | OpenFOAM: The Open Source CFD Toolbox           |
|  \\    /   O peration     | Version:  4.x                                   |
|   \\  /    A nd           | Web:      www.OpenFOAM.org                      |
|    \\/     M anipulation  |                                                 |
\*---------------------------------------------------------------------------*/
FoamFile
{
    version     2.0;
    format      ascii;
    class       volScalarField;
    location    "6.5";
    object      SPartFluid;
}
// * * * * * * * * * * * * * * * * * * * * * * * * * * * * * * * * * * * * * //

dimensions      [1 -3 -1 0 0 0 0];

internalField   nonuniform List<scalar> 
114
(
6.50851e-65
4.88123e-65
2.55653e-65
4.8808e-65
2.24662e-65
2.63408e-65
5.73482e-65
6.50939e-65
5.11426e-65
3.79666e-65
6.19836e-65
4.41602e-65
6.19791e-65
6.12033e-65
3.95131e-65
4.02997e-65
5.65713e-65
2.78963e-65
5.26903e-65
3.87414e-65
5.19112e-65
2.78923e-65
4.64868e-65
3.09914e-65
4.41747e-65
4.26236e-65
3.87476e-65
4.57199e-65
3.33208e-65
3.79693e-65
2.71205e-65
4.49418e-65
3.0995e-65
8.44403e-65
9.76081e-65
5.73262e-65
9.37371e-65
5.42477e-65
6.81927e-65
7.67095e-65
7.74788e-65
7.05013e-65
6.27504e-65
8.9864e-65
7.59187e-65
5.19059e-65
6.04487e-65
8.60174e-65
8.29125e-65
7.59326e-65
7.36044e-65
7.36029e-65
7.05017e-65
7.12764e-65
6.27547e-65
5.8899e-65
5.19217e-65
6.97419e-65
5.81149e-65
6.89607e-65
5.8886e-65
5.88856e-65
6.50834e-65
4.26153e-65
7.59138e-65
7.97895e-65
7.28465e-65
4.9594e-65
5.5012e-65
6.12057e-65
5.57783e-65
7.12687e-65
8.36627e-65
6.58455e-65
4.88041e-65
5.34731e-65
6.04438e-65
7.12857e-65
9.06509e-65
7.28251e-65
6.43007e-65
7.51457e-65
7.43724e-65
8.36701e-65
5.34734e-65
7.51687e-65
6.0442e-65
6.97346e-65
4.64889e-65
6.50813e-65
8.29012e-65
4.95852e-65
8.91003e-65
4.8047e-65
8.13629e-65
8.368e-65
6.50792e-65
6.42993e-65
6.27463e-65
6.27453e-65
7.74639e-65
6.89727e-65
6.89669e-65
8.36843e-65
5.81091e-65
7.20495e-65
6.89474e-65
8.36672e-65
5.26986e-65
6.50943e-65
6.27651e-65
7.12842e-65
5.50099e-65
6.353e-65
)
;

boundaryField
{
    inlet
    {
        type            calculated;
        value           uniform 0;
    }
    outlet
    {
        type            calculated;
        value           nonuniform 0();
    }
    wall
    {
        type            calculated;
        value           uniform 0;
    }
    procBoundary2to0
    {
        type            processor;
        value           nonuniform List<scalar> 
44
(
4.72628e-65
4.26124e-65
4.33855e-65
3.25388e-65
4.18361e-65
7.2053e-65
2.86743e-65
4.41703e-65
3.25457e-65
3.25457e-65
4.57095e-65
9.1416e-65
6.58493e-65
8.28921e-65
6.04261e-65
4.9582e-65
8.0596e-65
6.12176e-65
6.12107e-65
4.57095e-65
9.1416e-65
9.1416e-65
7.12669e-65
7.12647e-65
6.19713e-65
4.5706e-65
7.28462e-65
7.59381e-65
7.67048e-65
7.97978e-65
8.36651e-65
7.12669e-65
7.12647e-65
7.12647e-65
5.42222e-65
2.32384e-65
5.26973e-65
5.88915e-65
7.82555e-65
9.21929e-65
4.41563e-65
9.21804e-65
7.12638e-65
5.42222e-65
)
;
    }
    procBoundary2to3
    {
        type            processor;
        value           nonuniform List<scalar> 
12
(
6.97263e-65
5.03592e-65
5.5011e-65
4.64924e-65
7.51474e-65
6.50769e-65
1.0382e-64
7.74818e-65
7.66939e-65
8.98647e-65
5.65574e-65
5.73355e-65
)
;
    }
    procBoundary2to6
    {
        type            processor;
        value           nonuniform List<scalar> 
32
(
6.73951e-65
6.04274e-65
7.12737e-65
5.11349e-65
5.81074e-65
4.95862e-65
1.03844e-64
7.59403e-65
4.9589e-65
7.43755e-65
9.37369e-65
6.11977e-65
7.35914e-65
6.73951e-65
6.04274e-65
6.50712e-65
5.8122e-65
7.90418e-65
6.43123e-65
8.5226e-65
7.36004e-65
7.82455e-65
6.04274e-65
5.11349e-65
7.04976e-65
4.95989e-65
7.20686e-65
5.42428e-65
6.12113e-65
7.59307e-65
5.11349e-65
8.75478e-65
)
;
    }
}


// ************************************************************************* //
