/*--------------------------------*- C++ -*----------------------------------*\
| =========                 |                                                 |
| \\      /  F ield         | OpenFOAM: The Open Source CFD Toolbox           |
|  \\    /   O peration     | Version:  4.x                                   |
|   \\  /    A nd           | Web:      www.OpenFOAM.org                      |
|    \\/     M anipulation  |                                                 |
\*---------------------------------------------------------------------------*/
FoamFile
{
    version     2.0;
    format      ascii;
    class       volScalarField;
    location    "6.5";
    object      magGField;
}
// * * * * * * * * * * * * * * * * * * * * * * * * * * * * * * * * * * * * * //

dimensions      [1 -2 -1 0 0 0 0];

internalField   nonuniform List<scalar> 
132
(
99.1835
60.594
116.297
85.4718
130.309
96.9513
134.561
94.5929
132.332
99.363
56.1534
111.713
73.4621
120.115
74.9211
117.256
60.4564
108.407
99.4737
53.5708
108.759
64.696
111.506
54.8994
104.683
33.5556
96.99
99.3631
51.24
107.454
96.8346
48.8514
101.904
58.0349
106.604
65.7776
112.963
72.0516
118.825
97.0919
41.5065
97.3101
39.8916
94.9449
33.6695
95.2157
28.4296
96.2249
95.7754
38.0203
94.2187
32.3967
91.2142
25.6727
91.8561
20.4318
92.9868
94.9415
35.6201
92.1817
26.6921
88.1246
94.0083
43.8909
95.3631
48.079
97.8188
54.8338
104.054
63.7605
112.363
93.9025
35.8293
90.6787
28.932
87.904
23.301
88.2374
20.8178
90.3047
92.3779
32.3362
87.5009
20.5979
84.5135
15.9772
85.7875
17.5313
87.679
91.5243
30.4849
85.6293
18.2907
83.1697
14.0838
83.9972
93.2512
44.9918
95.3504
50.1578
98.2598
56.5598
104.08
66.1738
112.776
92.8035
35.6765
89.5057
29.5148
87.6273
26.2196
87.808
23.9452
89.2357
91.7515
33.511
87.0108
23.5403
85.0307
18.759
85.5945
17.3388
87.1465
91.6286
31.6983
85.5849
20.6735
83.7959
18.2969
84.0308
19.4694
84.491
)
;

boundaryField
{
    inlet
    {
        type            calculated;
        value           uniform 67;
    }
    outlet
    {
        type            calculated;
        value           nonuniform 0();
    }
    wall
    {
        type            calculated;
        value           uniform 0;
    }
    procBoundary0to1
    {
        type            processor;
        value           nonuniform List<scalar> 
12
(
85.1495
44.4784
19.3441
74.3962
25.6972
14.0567
70.5603
19.189
14.8045
74.9254
21.5763
15.0451
)
;
    }
    procBoundary0to2
    {
        type            processor;
        value           nonuniform List<scalar> 
44
(
58.4581
106.757
44.5914
99.4552
23.2035
95.5038
96.7588
52.0542
58.4581
106.803
58.4581
106.757
19.0326
88.6207
18.159
90.4496
94.9535
39.1498
93.4986
33.5167
19.0326
90.7892
19.0326
88.6207
12.9121
84.7055
92.5158
34.604
88.1235
24.7016
85.8841
20.7253
12.9121
87.2091
12.9121
84.7055
91.3854
31.82
85.7975
21.5706
84.1679
18.8492
85.6222
18.9011
)
;
    }
    procBoundary0to4
    {
        type            processor;
        value           nonuniform List<scalar> 
36
(
92.3251
44.2713
92.8977
47.1554
94.2438
50.3561
96.792
54.8638
101.455
90.9325
32.6077
85.3781
19.1079
81.0031
11.6029
79.6364
8.27414
78.7468
90.574
31.7407
84.6474
19.6803
82.1991
13.5557
81.6415
6.51286
80.6116
90.1812
31.2475
82.8031
18.4379
79.2155
11.8749
76.9341
7.35877
75.8994
)
;
    }
    procBoundary0to6
    {
        type            processor;
        value           uniform 87.6199;
    }
    procBoundary0to7
    {
        type            processor;
        value           uniform 18.66;
    }
}


// ************************************************************************* //
