/*--------------------------------*- C++ -*----------------------------------*\
| =========                 |                                                 |
| \\      /  F ield         | OpenFOAM: The Open Source CFD Toolbox           |
|  \\    /   O peration     | Version:  4.x                                   |
|   \\  /    A nd           | Web:      www.OpenFOAM.org                      |
|    \\/     M anipulation  |                                                 |
\*---------------------------------------------------------------------------*/
FoamFile
{
    version     2.0;
    format      ascii;
    class       surfaceScalarField;
    location    "6.5";
    object      phi;
}
// * * * * * * * * * * * * * * * * * * * * * * * * * * * * * * * * * * * * * //

dimensions      [0 3 -1 0 0 0 0];

internalField   nonuniform List<scalar> 
308
(
9.56471e-06
-3.23445e-07
-1.078e-06
1.06316e-05
-2.6839e-07
-7.98522e-07
1.2197e-05
-5.17496e-07
-1.04786e-06
1.31009e-05
-3.48004e-07
-5.55899e-07
1.38705e-05
-6.10221e-07
-1.59367e-07
1.40572e-05
-4.64371e-07
2.77613e-07
1.3977e-05
-8.42416e-07
9.22675e-07
1.37288e-05
-7.22927e-07
9.71098e-07
-1.04629e-06
1.53829e-06
9.45278e-06
-4.04223e-07
-1.20874e-06
1.01933e-05
-2.50338e-07
-7.58618e-07
1.12901e-05
-5.31466e-07
-1.08273e-06
1.17553e-05
-3.55379e-07
-4.57858e-07
1.19065e-05
-6.18179e-07
-1.433e-07
1.16536e-05
-4.02649e-07
1.91211e-07
1.08367e-05
-7.23297e-07
6.97758e-07
1.01969e-05
-4.60602e-07
3.77477e-07
-7.26208e-07
5.44489e-07
9.24233e-06
-2.48462e-07
-1.23483e-06
9.84502e-06
-1.47995e-07
-7.0503e-07
1.0573e-05
-2.74973e-07
-9.84481e-07
1.07044e-05
-3.05294e-07
1.01674e-05
1.83039e-07
9.67671e-06
2.30339e-07
8.45634e-06
7.04501e-07
7.90212e-06
1.64957e-07
1.1123e-07
9.1532e-06
-1.27774e-06
9.62996e-06
-7.03854e-07
-9.5203e-07
8.80591e-06
-4.50921e-07
-1.26972e-06
9.09449e-06
-2.37376e-07
-8.49726e-07
9.71526e-06
-5.66414e-07
-1.10222e-06
9.98033e-06
-2.77503e-07
-5.43457e-07
1.05215e-05
-5.89657e-07
-1.10849e-07
1.08226e-05
-2.99968e-07
2.76417e-07
1.12509e-05
-5.87378e-07
1.08174e-06
1.14824e-05
-3.09877e-07
1.04952e-06
-5.21499e-07
1.83107e-06
8.35382e-06
-4.85614e-07
-1.3646e-06
8.35754e-06
-2.21474e-07
-7.78236e-07
8.32659e-06
-5.40961e-07
-1.07725e-06
8.17085e-06
-2.21136e-07
-3.58476e-07
7.85925e-06
-4.39818e-07
1.84581e-08
7.79579e-06
-1.80906e-07
1.35603e-07
7.55208e-06
-3.25961e-07
6.80052e-07
7.53142e-06
-1.15831e-07
2.04098e-07
-2.39025e-07
3.24574e-07
8.06394e-06
-2.70795e-07
-1.35032e-06
7.96474e-06
-1.18708e-07
-7.08595e-07
7.69199e-06
-2.74439e-07
-9.78257e-07
7.49717e-06
-9.89806e-08
-2.32627e-07
7.14926e-06
-1.54972e-07
2.46107e-07
7.10944e-06
1.49915e-07
6.87105e-06
6.51966e-07
6.86273e-06
6.71087e-08
5.69477e-08
7.86713e-06
-1.34968e-06
7.70096e-06
-7.07139e-07
7.23283e-06
-9.02694e-07
6.96695e-06
-1.77444e-07
3.52687e-07
8.35525e-06
-4.88445e-07
-9.73265e-07
8.41907e-06
-2.49662e-07
-6.63879e-07
8.72742e-06
-5.92113e-07
-8.18454e-07
8.84733e-06
-2.47251e-07
-4.16119e-07
9.32076e-06
-5.23853e-07
-6.04308e-08
9.61433e-06
-2.05398e-07
1.88254e-07
1.0206e-05
-4.01605e-07
8.91627e-07
1.05907e-05
-1.66848e-07
8.31741e-07
-2.5114e-07
1.59163e-06
7.84998e-06
-4.86168e-07
-1.05359e-06
7.64045e-06
-2.268e-07
-5.91568e-07
7.27961e-06
-5.2386e-07
-7.84667e-07
7.08266e-06
-1.69149e-07
-2.39627e-07
6.80075e-06
-3.50498e-07
1.27018e-07
6.74955e-06
-9.82269e-08
7.96326e-08
6.67524e-06
-1.95594e-07
5.48355e-07
6.72161e-06
-7.48874e-08
6.57619e-08
-1.16004e-07
1.92371e-07
7.54956e-06
-2.25569e-07
-9.97214e-07
7.24232e-06
-9.72896e-08
-5.30871e-07
6.58779e-06
-2.08454e-07
-6.39126e-07
6.3749e-06
-5.74421e-08
-1.31446e-07
6.15032e-06
-1.15936e-07
2.36121e-07
6.15765e-06
-4.02441e-08
8.46007e-08
6.32936e-06
-7.62714e-08
3.60937e-07
6.36321e-06
-9.1993e-09
2.5772e-08
7.39126e-06
-9.62164e-07
7.02303e-06
-5.24945e-07
6.34177e-06
-5.8889e-07
6.1539e-06
-1.18318e-07
5.9538e-06
3.2688e-07
5.93461e-06
6.12585e-08
5.12188e-07
8.3905e-06
-5.17158e-07
8.49468e-06
-2.81127e-07
8.85771e-06
-5.96315e-07
9.00255e-06
-2.39836e-07
9.45499e-06
-4.8121e-07
9.73495e-06
-1.95788e-07
1.03846e-05
-3.62997e-07
1.08065e-05
-1.1195e-07
-1.76952e-07
7.78964e-06
-4.87321e-07
7.56807e-06
-2.51569e-07
7.24503e-06
-5.27689e-07
7.10136e-06
-1.69324e-07
6.96267e-06
-3.21982e-07
6.90459e-06
-9.31539e-08
6.84284e-06
-1.12449e-07
6.84887e-06
-4.15878e-08
1.4365e-08
7.6037e-06
-2.75644e-07
7.29845e-06
-1.27763e-07
6.74281e-06
-2.48183e-07
6.58592e-06
-6.55969e-08
6.35208e-06
-8.70874e-08
6.3221e-06
-3.55265e-08
6.31069e-06
1.19663e-08
6.31928e-06
-2.68957e-08
8.12587e-08
7.49433e-06
7.10919e-06
6.48783e-06
6.33771e-06
6.25011e-06
6.19486e-06
6.34061e-06
6.28638e-06
)
;

boundaryField
{
    inlet
    {
        type            calculated;
        value           nonuniform List<scalar> 
16
(
-8.16327e-06
-8.16327e-06
-8.16327e-06
-8.16327e-06
-8.16327e-06
-8.16327e-06
-8.16327e-06
-8.16327e-06
-8.16327e-06
-8.16327e-06
-8.16327e-06
-8.16327e-06
-8.16327e-06
-8.16327e-06
-8.16327e-06
-8.16327e-06
)
;
    }
    outlet
    {
        type            calculated;
        value           nonuniform 0();
    }
    wall
    {
        type            calculated;
        value           nonuniform List<scalar> 
66
(
0
0
0
0
0
0
0
0
0
0
0
0
0
0
0
0
0
0
0
0
0
0
0
0
0
0
0
0
0
0
7.88861e-31
0
0
0
0
0
0
0
0
0
0
0
0
0
0
0
0
0
0
0
0
0
0
0
0
0
0
0
-1.57772e-30
0
0
0
0
0
0
0
)
;
    }
    procBoundary0to1
    {
        type            processor;
        value           nonuniform List<scalar> 
12
(
1.32368e-05
9.33236e-06
7.14113e-06
1.17111e-05
7.46886e-06
6.56522e-06
1.10812e-05
6.71868e-06
6.28852e-06
1.14175e-05
6.79646e-06
6.26681e-06
)
;
    }
    procBoundary0to2
    {
        type            processor;
        value           nonuniform List<scalar> 
44
(
-1.81464e-07
-2.6428e-07
-1.42251e-07
-2.07428e-07
-7.13357e-08
-7.64472e-08
3.93403e-08
7.9098e-08
1.01215e-05
1.85558e-07
2.52523e-07
-2.55738e-07
-6.06652e-08
-3.5038e-08
-9.65994e-09
1.12762e-07
9.72791e-08
5.07438e-08
1.44355e-07
9.18256e-08
6.56001e-06
1.55017e-07
-1.1926e-07
-6.251e-07
-3.24255e-08
-1.01428e-08
1.58918e-07
8.8752e-08
1.59003e-07
7.12965e-08
1.0997e-07
3.69509e-08
5.94003e-06
3.12211e-08
9.46544e-09
-2.03903e-07
5.08242e-08
5.84929e-08
1.01408e-07
5.42339e-08
7.2383e-08
4.37545e-08
2.5066e-08
4.29498e-08
)
;
    }
    procBoundary0to4
    {
        type            processor;
        value           nonuniform List<scalar> 
36
(
-6.83339e-07
-4.86931e-07
-5.85169e-07
-3.21123e-07
-3.16614e-08
1.04076e-07
6.04996e-07
5.21736e-07
1.15765e-06
-7.09798e-07
-3.9956e-07
-5.30255e-07
-1.66461e-07
1.0648e-07
3.50787e-08
3.59549e-07
-1.06247e-08
5.34609e-08
-6.49326e-07
-3.49431e-07
-3.62991e-07
-7.82813e-08
2.35064e-07
5.69559e-08
2.47935e-07
-3.24817e-08
1.13498e-08
-6.19701e-07
-3.26058e-07
-3.17122e-07
-8.80242e-08
2.55005e-07
3.72281e-08
3.5334e-07
-2.50781e-08
1.56307e-07
)
;
    }
    procBoundary0to6
    {
        type            processor;
        value           uniform 9.26585e-08;
    }
    procBoundary0to7
    {
        type            processor;
        value           uniform 6.32257e-06;
    }
}


// ************************************************************************* //
