/*--------------------------------*- C++ -*----------------------------------*\
| =========                 |                                                 |
| \\      /  F ield         | OpenFOAM: The Open Source CFD Toolbox           |
|  \\    /   O peration     | Version:  4.x                                   |
|   \\  /    A nd           | Web:      www.OpenFOAM.org                      |
|    \\/     M anipulation  |                                                 |
\*---------------------------------------------------------------------------*/
FoamFile
{
    version     2.0;
    format      ascii;
    class       volScalarField;
    location    "6.5";
    object      rho;
}
// * * * * * * * * * * * * * * * * * * * * * * * * * * * * * * * * * * * * * //

dimensions      [1 -3 0 0 0 0 0];

internalField   nonuniform List<scalar> 
132
(
6699.84
6699.31
6698.26
6696.69
6694.65
6692.47
6690.47
6689.01
6688.47
6699.86
6699.34
6698.2
6696.41
6694.08
6691.73
6690
6689.46
6690.56
6699.86
6699.28
6697.95
6695.78
6693.19
6691.04
6690.28
6691.24
6693.57
6699.87
6699.27
6697.86
6699.92
6699.59
6698.81
6697.55
6695.87
6694.15
6692.63
6691.69
6691.38
6699.93
6699.55
6698.62
6697.12
6695.38
6694.08
6693.5
6694.28
6695.95
6699.93
6699.49
6698.39
6696.66
6694.92
6694.19
6694.47
6696.01
6697.96
6699.93
6699.45
6698.26
6696.39
6694.59
6699.95
6699.74
6699.21
6698.35
6697.18
6695.99
6694.88
6694.21
6693.91
6699.96
6699.7
6699.07
6698.05
6696.91
6696.22
6696.06
6696.81
6698.05
6699.96
6699.66
6698.93
6697.8
6696.71
6696.36
6696.69
6697.77
6699.15
6699.96
6699.66
6698.89
6697.73
6696.58
6696.25
6696.49
6699.97
6699.85
6699.56
6699.09
6698.42
6697.72
6696.98
6696.5
6696.18
6699.97
6699.82
6699.44
6698.85
6698.16
6697.78
6697.73
6698.24
6699.1
6699.97
6699.79
6699.33
6698.64
6697.97
6697.74
6697.97
6698.7
6699.69
6699.97
6699.77
6699.26
6698.49
6697.75
6697.48
6697.6
6698.15
6698.97
)
;

boundaryField
{
    inlet
    {
        type            calculated;
        value           uniform 6700;
    }
    outlet
    {
        type            calculated;
        value           nonuniform 0();
    }
    wall
    {
        type            calculated;
        value           nonuniform List<scalar> 
66
(
6699.84
6699.86
6699.86
6699.87
6699.31
6699.34
6699.28
6699.27
6698.26
6698.2
6697.95
6697.86
6696.69
6696.41
6695.78
6694.65
6694.08
6693.19
6692.47
6691.73
6691.04
6690.47
6690
6690.28
6689.01
6689.46
6691.24
6688.47
6690.56
6693.57
6699.84
6699.92
6699.95
6699.97
6699.31
6699.59
6699.74
6699.85
6698.26
6698.81
6699.21
6699.56
6696.69
6697.55
6698.35
6699.09
6694.65
6695.87
6697.18
6698.42
6692.47
6694.15
6695.99
6697.72
6690.47
6692.63
6694.88
6696.98
6689.01
6691.69
6694.21
6696.5
6688.47
6691.38
6693.91
6696.18
)
;
    }
    procBoundary0to1
    {
        type            processor;
        value           nonuniform List<scalar> 
12
(
6688.77
6692.87
6696.56
6691.74
6698.23
6700.01
6694.17
6699.67
6700.65
6696.2
6700.24
6700.77
)
;
    }
    procBoundary0to2
    {
        type            processor;
        value           nonuniform List<scalar> 
44
(
6695.58
6692.92
6690.93
6690.59
6692.05
6694.53
6699.86
6699.29
6695.58
6697.96
6695.58
6692.92
6693.91
6694.21
6695.67
6697.54
6699.93
6699.52
6698.49
6696.78
6693.91
6694.91
6693.91
6694.21
6697.37
6698.49
6699.96
6699.71
6699.06
6697.99
6696.87
6696.43
6697.37
6696.61
6697.37
6698.49
6699.97
6699.82
6699.44
6698.85
6698.23
6697.97
6698.09
6698.67
)
;
    }
    procBoundary0to4
    {
        type            processor;
        value           nonuniform List<scalar> 
36
(
6699.98
6699.89
6699.68
6699.35
6698.9
6698.46
6698.04
6697.79
6697.65
6699.98
6699.86
6699.55
6699.06
6698.56
6698.36
6698.52
6699.13
6700.22
6699.98
6699.84
6699.5
6698.96
6698.45
6698.28
6698.52
6699.17
6700.04
6699.98
6699.84
6699.49
6698.93
6698.39
6698.2
6698.38
6699
6699.85
)
;
    }
    procBoundary0to6
    {
        type            processor;
        value           uniform 6699.52;
    }
    procBoundary0to7
    {
        type            processor;
        value           uniform 6699.87;
    }
}


// ************************************************************************* //
