/*--------------------------------*- C++ -*----------------------------------*\
| =========                 |                                                 |
| \\      /  F ield         | OpenFOAM: The Open Source CFD Toolbox           |
|  \\    /   O peration     | Version:  4.x                                   |
|   \\  /    A nd           | Web:      www.OpenFOAM.org                      |
|    \\/     M anipulation  |                                                 |
\*---------------------------------------------------------------------------*/
FoamFile
{
    version     2.0;
    format      ascii;
    class       volVectorField;
    location    "6.5";
    object      Us;
}
// * * * * * * * * * * * * * * * * * * * * * * * * * * * * * * * * * * * * * //

dimensions      [0 1 -1 0 0 0 0];

internalField   nonuniform List<vector> 
132
(
(7.46201e-08 2.4871e-08 2.19921e-08)
(6.97955e-08 6.20141e-09 2.74181e-08)
(6.0665e-08 -1.63846e-08 1.52234e-08)
(-1.89439e-07 -1.6406e-08 -3.16307e-08)
(-3.30816e-07 -6.44259e-08 4.4691e-08)
(-4.7142e-07 -3.38498e-08 4.0278e-08)
(-4.50573e-07 -6.73826e-08 8.54904e-09)
(-5.46327e-07 -3.53233e-08 1.08073e-07)
(-7.34058e-07 9.7182e-08 1.12397e-07)
(3.92283e-08 2.6821e-08 8.2929e-09)
(-8.69196e-09 4.01198e-08 3.43356e-08)
(-1.28519e-07 5.2839e-09 1.28478e-08)
(-2.96413e-07 -1.51359e-09 -8.1477e-09)
(-4.67534e-07 -4.55058e-08 4.29639e-08)
(-7.17168e-07 -8.98263e-08 9.6253e-08)
(-9.48273e-07 -9.15564e-08 1.31782e-07)
(-1.0751e-06 -1.03296e-08 1.74177e-07)
(-1.25765e-06 3.86439e-08 1.58569e-07)
(5.24671e-08 6.72638e-08 -8.2372e-09)
(-4.81235e-08 6.52806e-08 2.78909e-08)
(-1.73806e-07 4.37072e-08 2.60697e-08)
(-3.15872e-07 -1.5289e-08 3.98337e-08)
(-4.93e-07 -7.01324e-08 2.85891e-08)
(-8.94394e-07 -8.06004e-08 1.66747e-07)
(-1.05815e-06 -7.57437e-08 1.50828e-07)
(-1.25846e-06 -1.56911e-07 1.25006e-07)
(-1.45471e-06 -7.34706e-08 -6.63036e-09)
(4.1782e-08 3.32103e-08 2.40193e-08)
(-4.06719e-08 8.24794e-08 4.3716e-08)
(-1.29031e-07 6.9334e-08 4.50085e-08)
(8.74487e-08 1.46679e-08 4.81748e-08)
(4.28081e-08 7.63287e-09 4.27045e-08)
(-1.29376e-08 -2.52904e-08 6.55053e-09)
(-2.12939e-07 -2.85502e-08 -2.96004e-08)
(-3.58448e-07 -4.64004e-08 2.25973e-08)
(-4.80431e-07 -1.45879e-07 5.30778e-08)
(-5.3947e-07 -1.2265e-09 -1.21396e-08)
(-7.53376e-07 -1.91202e-08 1.186e-07)
(-6.78303e-07 -1.34357e-07 1.13213e-07)
(3.7507e-08 2.70906e-08 2.0519e-08)
(1.4344e-08 3.21545e-08 3.62911e-08)
(-7.65177e-08 -1.70194e-08 8.43987e-09)
(-2.62547e-07 -2.41967e-08 -1.16395e-08)
(-5.49178e-07 -7.97822e-08 6.9375e-08)
(-7.22968e-07 -1.34984e-07 1.16761e-07)
(-9.48229e-07 -9.30615e-08 1.09267e-07)
(-1.13494e-06 1.07373e-08 1.23355e-07)
(-1.27848e-06 2.04004e-08 1.67767e-07)
(6.67344e-08 3.22657e-08 3.46373e-08)
(-5.07822e-08 5.28759e-08 4.72356e-08)
(-1.73359e-07 2.63652e-08 2.96482e-08)
(-3.40771e-07 1.23265e-08 3.88999e-08)
(-6.06931e-07 -1.14215e-08 1.08561e-07)
(-8.77953e-07 -7.05989e-08 1.37352e-07)
(-1.12218e-06 -9.90113e-08 1.22905e-07)
(-1.27388e-06 -4.17818e-08 1.37515e-07)
(-1.39597e-06 3.82931e-08 6.3527e-08)
(2.15308e-08 2.89451e-08 3.82449e-08)
(-4.38408e-08 5.23384e-08 4.65365e-08)
(-1.16444e-07 2.58836e-08 4.49855e-08)
(-3.64552e-07 3.13159e-08 8.20618e-08)
(-5.25791e-07 -3.45942e-08 1.77098e-07)
(6.13791e-08 3.81674e-09 3.86553e-08)
(5.14569e-08 5.94478e-09 5.71208e-08)
(1.93441e-08 -2.51351e-08 2.22633e-08)
(-1.74803e-07 -3.70583e-08 -2.97717e-09)
(-3.19029e-07 -1.41458e-08 1.51168e-08)
(-5.71608e-07 -5.96138e-08 8.4494e-08)
(-6.55695e-07 -9.09414e-08 3.5716e-08)
(-7.51585e-07 -1.70046e-08 8.60534e-08)
(-7.78497e-07 -9.03231e-08 3.66327e-08)
(5.43278e-08 1.86998e-08 3.97689e-08)
(4.296e-08 2.64852e-08 6.91067e-08)
(-6.54154e-08 -2.07285e-08 4.30396e-08)
(-2.74628e-07 -4.25875e-08 -4.07177e-09)
(-5.3115e-07 -6.40072e-08 1.01595e-07)
(-7.87376e-07 -1.19735e-07 1.14257e-07)
(-9.78967e-07 -1.51108e-07 8.34107e-08)
(-1.1397e-06 -2.37161e-08 8.72389e-08)
(-1.27271e-06 -5.07965e-08 8.34705e-08)
(3.64438e-08 3.04462e-08 4.37685e-08)
(5.03959e-09 3.39744e-08 6.21685e-08)
(-1.48232e-07 -3.7439e-09 5.08355e-08)
(-3.41083e-07 -2.97371e-08 4.64351e-08)
(-6.33282e-07 -6.36337e-08 1.43496e-07)
(-9.15343e-07 -8.74876e-08 9.99924e-08)
(-1.05911e-06 -9.2769e-08 9.99726e-08)
(-1.32852e-06 -7.11589e-08 1.00991e-07)
(-1.42353e-06 -6.17898e-08 9.23007e-08)
(3.22291e-08 3.11495e-08 3.55301e-08)
(-2.94154e-08 7.61619e-08 4.84858e-08)
(-1.0686e-07 1.9158e-08 5.97818e-08)
(-3.08449e-07 4.34256e-08 7.33913e-08)
(-6.36459e-07 -1.09075e-08 1.52595e-07)
(-8.60407e-07 -6.00131e-08 1.75405e-07)
(-1.1488e-06 -8.44617e-08 1.08875e-07)
(4.51898e-08 9.31838e-09 2.28776e-08)
(6.03064e-08 2.40988e-08 3.92497e-08)
(3.14474e-08 -1.28563e-08 3.19439e-08)
(-1.54704e-07 -2.26088e-08 1.01774e-08)
(-2.54543e-07 -2.87886e-08 3.10731e-08)
(-4.95496e-07 -9.31057e-08 8.43801e-08)
(-5.95251e-07 -7.10051e-08 1.18911e-07)
(-9.11747e-07 -9.67526e-09 8.82609e-08)
(-9.33509e-07 -6.02963e-08 2.20782e-08)
(5.1815e-08 1.30358e-08 2.69896e-08)
(4.81451e-08 2.80242e-08 5.6584e-08)
(-3.77107e-09 8.06691e-09 6.30815e-08)
(-3.22939e-07 -4.7129e-08 7.94078e-08)
(-5.37458e-07 -6.89545e-08 1.04985e-07)
(-7.08133e-07 -9.02688e-08 9.97125e-08)
(-9.39592e-07 -9.44145e-08 1.2511e-07)
(-1.13486e-06 -3.98731e-08 9.85046e-08)
(-1.26154e-06 -8.90236e-08 2.29001e-08)
(6.50489e-08 4.77758e-08 4.07513e-08)
(4.64316e-08 5.12983e-08 6.81369e-08)
(-3.78193e-08 4.59611e-08 7.20177e-08)
(-2.72108e-07 2.29683e-08 1.34756e-07)
(-5.55283e-07 -1.12968e-07 1.47394e-07)
(-8.72048e-07 -8.37978e-08 8.27246e-08)
(-1.10802e-06 -1.0642e-07 1.03384e-07)
(-1.29832e-06 -8.98072e-08 8.47475e-08)
(-1.40392e-06 -1.30818e-07 3.21378e-08)
(6.74714e-08 4.60232e-08 3.45761e-08)
(2.94919e-08 7.3775e-08 5.67795e-08)
(-3.31536e-08 6.53444e-08 8.84624e-08)
(-2.72588e-07 1.71216e-08 7.24411e-08)
(-5.76234e-07 -7.39726e-08 7.94818e-08)
(-9.25494e-07 -6.21617e-08 1.16932e-07)
(-1.17227e-06 -9.55358e-08 9.84915e-08)
(-1.27355e-06 -1.03816e-07 1.03131e-07)
(-1.48732e-06 -1.10361e-07 6.25237e-08)
)
;

boundaryField
{
    inlet
    {
        type            zeroGradient;
    }
    outlet
    {
        type            zeroGradient;
    }
    wall
    {
        type            zeroGradient;
    }
    procBoundary0to1
    {
        type            processor;
        value           nonuniform List<vector> 
12
(
(-7.5042e-07 1.50455e-07 1.88993e-07)
(-1.4164e-06 1.33311e-08 5.97241e-09)
(-1.92729e-06 -9.55823e-08 4.59727e-08)
(-9.01538e-07 1.46667e-07 1.14939e-07)
(-1.32998e-06 4.28596e-08 7.87516e-08)
(-1.72417e-06 -3.50719e-08 8.50224e-08)
(-8.04671e-07 -8.13885e-09 7.48825e-08)
(-1.36728e-06 -5.51454e-08 4.96263e-08)
(-1.60383e-06 -3.31274e-08 5.95297e-08)
(-7.84558e-07 -3.50285e-08 2.03478e-08)
(-1.26877e-06 -4.56198e-08 3.25354e-10)
(-1.4988e-06 -1.30826e-07 -1.97888e-09)
)
;
    }
    procBoundary0to2
    {
        type            processor;
        value           nonuniform List<vector> 
44
(
(-2.68553e-07 4.08473e-08 9.05563e-08)
(-5.16841e-07 1.71066e-08 9.0403e-08)
(-9.4431e-07 -1.02287e-07 2.38773e-07)
(-1.16373e-06 -8.45472e-08 1.44711e-07)
(-1.39673e-06 -1.48e-07 7.8227e-08)
(-1.69635e-06 -1.514e-07 -3.02725e-08)
(7.41572e-07 -2.28354e-07 -3.89836e-09)
(-4.50769e-08 6.08813e-08 5.81627e-08)
(-2.68553e-07 4.08473e-08 9.05563e-08)
(-1.4517e-07 7.21476e-08 6.00081e-08)
(-2.68553e-07 4.08473e-08 9.05563e-08)
(-5.16841e-07 1.71066e-08 9.0403e-08)
(-8.92018e-07 -9.19352e-08 2.06628e-07)
(-1.12892e-06 -1.00896e-07 1.33909e-07)
(-1.415e-06 -1.23248e-07 1.0359e-07)
(-1.57178e-06 -1.04209e-07 2.0705e-08)
(1.76721e-08 2.18772e-08 3.59258e-08)
(-4.32644e-08 5.25891e-08 5.38162e-08)
(-1.39995e-07 5.8928e-08 5.93939e-08)
(-3.09388e-07 7.56143e-08 9.32202e-08)
(-8.92018e-07 -9.19352e-08 2.06628e-07)
(-4.54759e-07 5.22e-08 1.39333e-07)
(-8.92018e-07 -9.19352e-08 2.06628e-07)
(-1.12892e-06 -1.00896e-07 1.33909e-07)
(-1.3801e-06 -1.13839e-07 1.23115e-07)
(-1.54335e-06 -1.00866e-07 7.22996e-08)
(4.04405e-08 3.19336e-08 3.56058e-08)
(-1.79683e-09 4.98765e-08 5.1565e-08)
(-1.11684e-07 6.17461e-08 6.3183e-08)
(-3.19877e-07 8.07221e-08 5.28797e-08)
(-5.28347e-07 4.9498e-08 1.1185e-07)
(-8.66968e-07 -7.28134e-08 1.7284e-07)
(-1.3801e-06 -1.13839e-07 1.23115e-07)
(-1.04638e-06 -8.9085e-08 1.22961e-07)
(-1.3801e-06 -1.13839e-07 1.23115e-07)
(-1.54335e-06 -1.00866e-07 7.22996e-08)
(3.77918e-08 3.39062e-08 3.49301e-08)
(9.9097e-09 5.72168e-08 6.28243e-08)
(-7.36215e-08 6.18811e-08 7.27635e-08)
(-2.61389e-07 5.78951e-08 8.38366e-08)
(-4.91997e-07 1.34328e-08 1.03674e-07)
(-8.22392e-07 -1.2055e-08 1.4073e-07)
(-1.0557e-06 -7.00511e-08 1.06306e-07)
(-1.29339e-06 -1.09447e-07 6.73662e-08)
)
;
    }
    procBoundary0to4
    {
        type            processor;
        value           nonuniform List<vector> 
36
(
(3.3087e-08 4.38948e-09 1.40669e-08)
(4.4325e-08 8.9454e-09 2.21155e-08)
(3.60018e-08 -1.09221e-08 4.02798e-08)
(-7.74627e-08 -8.55133e-09 2.28554e-08)
(-1.52208e-07 -1.29144e-09 7.19887e-08)
(-2.96707e-07 -4.89681e-08 1.05474e-07)
(-4.7597e-07 -6.95083e-08 9.93728e-08)
(-6.532e-07 -4.94153e-08 9.09311e-08)
(-5.5611e-07 2.2144e-08 6.67248e-09)
(4.05461e-08 9.15902e-09 2.40264e-08)
(2.98536e-08 6.15277e-09 4.04209e-08)
(-1.43217e-08 2.99094e-08 6.41409e-08)
(-1.44411e-07 2.31477e-08 7.04388e-08)
(-3.20125e-07 -3.08763e-08 1.18914e-07)
(-5.38189e-07 -1.42353e-07 5.43155e-08)
(-7.83616e-07 -1.67405e-07 1.28131e-07)
(-8.93613e-07 -4.81501e-08 7.99544e-08)
(-1.13809e-06 -6.34451e-08 4.18744e-08)
(4.70965e-08 2.38458e-08 2.26196e-08)
(2.48643e-08 3.80242e-08 6.38401e-08)
(-6.39702e-08 4.86626e-08 8.61133e-08)
(-2.08073e-07 6.74508e-08 1.43785e-07)
(-4.0898e-07 -2.27194e-08 1.25657e-07)
(-7.34312e-07 -1.33921e-07 7.5032e-08)
(-9.66549e-07 -9.69841e-08 8.85655e-08)
(-1.13369e-06 -1.02603e-07 7.4614e-08)
(-1.30285e-06 -9.94938e-08 -2.34745e-08)
(3.85682e-08 2.95849e-08 3.03163e-08)
(3.54603e-08 4.96895e-08 5.06558e-08)
(-4.25686e-08 7.67748e-08 7.60236e-08)
(-1.73376e-07 6.56889e-08 1.07194e-07)
(-4.82181e-07 -1.89421e-08 1.12822e-07)
(-9.31053e-07 -9.41486e-08 1.1171e-07)
(-1.10719e-06 -8.85298e-08 6.28462e-08)
(-1.31502e-06 -1.29263e-07 9.95925e-08)
(-1.39705e-06 -7.36698e-08 1.78695e-08)
)
;
    }
    procBoundary0to6
    {
        type            processor;
        value           uniform (-1.38034e-06 -8.81557e-08 6.32043e-08);
    }
    procBoundary0to7
    {
        type            processor;
        value           uniform (-1.56242e-06 -9.85248e-08 1.72104e-08);
    }
}


// ************************************************************************* //
