/*--------------------------------*- C++ -*----------------------------------*\
| =========                 |                                                 |
| \\      /  F ield         | OpenFOAM: The Open Source CFD Toolbox           |
|  \\    /   O peration     | Version:  4.x                                   |
|   \\  /    A nd           | Web:      www.OpenFOAM.org                      |
|    \\/     M anipulation  |                                                 |
\*---------------------------------------------------------------------------*/
FoamFile
{
    version     2.0;
    format      ascii;
    class       volVectorField;
    location    "6.5";
    object      UsPrev;
}
// * * * * * * * * * * * * * * * * * * * * * * * * * * * * * * * * * * * * * //

dimensions      [0 1 -1 0 0 0 0];

internalField   nonuniform List<vector> 
132
(
(-8.42666e-10 -2.47955e-08 -8.98959e-09)
(-3.41909e-08 1.38807e-08 2.79046e-08)
(-5.44088e-08 -5.98728e-09 2.85163e-08)
(-1.99227e-07 5.72243e-09 -3.62249e-09)
(-2.92292e-07 -5.31135e-08 5.8399e-08)
(-4.45633e-07 -2.94486e-08 4.59119e-08)
(-4.39443e-07 -6.54515e-08 1.14144e-08)
(-5.42793e-07 -3.3576e-08 1.10977e-07)
(-7.26677e-07 1.00094e-07 1.1622e-07)
(1.63203e-08 -2.87004e-08 -2.30159e-09)
(-7.25752e-08 2.3201e-08 2.58597e-08)
(-2.06621e-07 2.41242e-08 2.34342e-08)
(-3.16423e-07 3.36383e-08 6.71488e-09)
(-4.61936e-07 -2.46383e-08 5.57072e-08)
(-7.02329e-07 -8.09279e-08 1.01855e-07)
(-9.41389e-07 -8.77248e-08 1.34619e-07)
(-1.07133e-06 -7.41122e-09 1.76546e-07)
(-1.25366e-06 4.18204e-08 1.61283e-07)
(1.85266e-08 3.00205e-08 -1.73353e-08)
(-8.09925e-08 4.93526e-08 2.84387e-08)
(-2.04879e-07 4.97978e-08 2.99233e-08)
(-3.28087e-07 3.39516e-09 4.37428e-08)
(-4.96683e-07 -4.99397e-08 3.40053e-08)
(-8.91011e-07 -7.27544e-08 1.7006e-07)
(-1.05394e-06 -7.14493e-08 1.53721e-07)
(-1.25675e-06 -1.5525e-07 1.266e-07)
(-1.45402e-06 -7.20215e-08 -5.12471e-09)
(3.62282e-08 8.25369e-09 2.20603e-08)
(-5.2657e-08 7.81749e-08 4.30165e-08)
(-1.4078e-07 6.99742e-08 4.55996e-08)
(3.93659e-08 -8.06435e-09 -1.4263e-08)
(-3.22675e-08 5.22502e-09 3.55404e-08)
(-6.31594e-08 -2.14942e-08 2.15016e-08)
(-2.37937e-07 -1.49727e-08 1.59716e-08)
(-3.52963e-07 -3.95986e-08 4.53847e-08)
(-4.69945e-07 -1.42941e-07 6.24793e-08)
(-5.29471e-07 9.50194e-10 -5.76665e-09)
(-7.49957e-07 -1.8308e-08 1.22535e-07)
(-6.73093e-07 -1.33944e-07 1.18379e-07)
(1.59234e-08 -2.18249e-09 1.29681e-09)
(-4.56979e-08 1.65527e-08 1.85618e-08)
(-1.39753e-07 -9.91984e-09 1.81804e-08)
(-2.90197e-07 -5.44534e-09 1.38655e-08)
(-5.46439e-07 -6.36545e-08 8.80937e-08)
(-7.1393e-07 -1.2776e-07 1.26648e-07)
(-9.41137e-07 -8.96184e-08 1.14992e-07)
(-1.13106e-06 1.28491e-08 1.27224e-07)
(-1.27406e-06 2.18876e-08 1.71189e-07)
(5.67302e-08 1.1733e-08 2.05819e-08)
(-8.3497e-08 3.68066e-08 4.53929e-08)
(-2.0299e-07 2.8691e-08 3.44386e-08)
(-3.59762e-07 2.47964e-08 4.6766e-08)
(-6.12642e-07 1.06492e-10 1.16603e-07)
(-8.7663e-07 -6.27345e-08 1.42705e-07)
(-1.11963e-06 -9.48542e-08 1.26414e-07)
(-1.27249e-06 -3.95283e-08 1.40226e-07)
(-1.39465e-06 3.94295e-08 6.56315e-08)
(1.44599e-08 1.51575e-08 3.44626e-08)
(-5.73352e-08 4.36162e-08 4.40314e-08)
(-1.3311e-07 2.5842e-08 4.64821e-08)
(-3.74266e-07 3.68426e-08 8.45534e-08)
(-5.32294e-07 -2.78112e-08 1.80121e-07)
(4.84515e-08 -1.75562e-09 7.30346e-09)
(2.61841e-08 2.15608e-09 4.14864e-08)
(-8.92438e-09 -2.36799e-08 3.00731e-08)
(-1.88942e-07 -3.51917e-08 1.40365e-08)
(-3.23645e-07 -1.17533e-08 3.00624e-08)
(-5.69586e-07 -5.85124e-08 9.26998e-08)
(-6.53115e-07 -9.01632e-08 4.07523e-08)
(-7.49395e-07 -1.65036e-08 8.94523e-08)
(-7.75798e-07 -9.02098e-08 3.96528e-08)
(4.21719e-08 6.97393e-09 2.0172e-08)
(1.61561e-08 1.79144e-08 5.50439e-08)
(-9.66144e-08 -2.03383e-08 4.6466e-08)
(-2.93341e-07 -3.77174e-08 8.52441e-09)
(-5.3801e-07 -5.83169e-08 1.16179e-07)
(-7.86841e-07 -1.1585e-07 1.23175e-07)
(-9.76368e-07 -1.48748e-07 8.95284e-08)
(-1.13776e-06 -2.27103e-08 9.1128e-08)
(-1.27062e-06 -5.02595e-08 8.63111e-08)
(3.0857e-08 2.07435e-08 3.42703e-08)
(-1.01274e-08 2.54677e-08 5.50019e-08)
(-1.68913e-07 -4.46832e-09 5.23751e-08)
(-3.53312e-07 -2.58405e-08 5.23352e-08)
(-6.40227e-07 -5.78771e-08 1.50891e-07)
(-9.17144e-07 -8.38221e-08 1.05077e-07)
(-1.05885e-06 -9.00155e-08 1.04284e-07)
(-1.32868e-06 -7.0042e-08 1.036e-07)
(-1.42314e-06 -6.09784e-08 9.43929e-08)
(2.8461e-08 2.41788e-08 3.11719e-08)
(-3.80936e-08 7.03974e-08 4.59409e-08)
(-1.18164e-07 1.78446e-08 6.01497e-08)
(-3.15834e-07 4.53206e-08 7.53784e-08)
(-6.42426e-07 -7.12684e-09 1.55821e-07)
(-8.63763e-07 -5.71003e-08 1.78472e-07)
(-1.15055e-06 -8.21568e-08 1.11618e-07)
(4.13668e-08 7.07711e-09 7.94026e-09)
(4.96146e-08 2.33177e-08 3.02638e-08)
(1.47406e-08 -1.32495e-08 3.23314e-08)
(-1.62316e-07 -2.20118e-08 1.53412e-08)
(-2.59792e-07 -2.76506e-08 3.86248e-08)
(-4.97334e-07 -9.23716e-08 9.06082e-08)
(-5.94971e-07 -7.04611e-08 1.24078e-07)
(-9.11064e-07 -9.42374e-09 9.15672e-08)
(-9.32418e-07 -6.0159e-08 2.45898e-08)
(4.64627e-08 9.20966e-09 1.48036e-08)
(3.55995e-08 2.46782e-08 4.72114e-08)
(-1.99539e-08 7.22267e-09 6.29547e-08)
(-3.35528e-07 -4.61292e-08 8.53904e-08)
(-5.44841e-07 -6.70594e-08 1.12643e-07)
(-7.10699e-07 -8.87628e-08 1.05435e-07)
(-9.40157e-07 -9.33821e-08 1.29952e-07)
(-1.13486e-06 -3.94694e-08 1.0164e-07)
(-1.26102e-06 -8.87561e-08 2.51136e-08)
(6.08901e-08 4.18109e-08 3.27641e-08)
(3.80746e-08 4.75264e-08 6.34619e-08)
(-4.93247e-08 4.43504e-08 7.12231e-08)
(-2.80525e-07 2.42951e-08 1.38372e-07)
(-5.61577e-07 -1.10958e-07 1.52234e-07)
(-8.74548e-07 -8.18622e-08 8.66539e-08)
(-1.10971e-06 -1.04806e-07 1.07046e-07)
(-1.29916e-06 -8.90442e-08 8.70579e-08)
(-1.40441e-06 -1.30384e-07 3.392e-08)
(6.5534e-08 4.26177e-08 3.14474e-08)
(2.40993e-08 6.97168e-08 5.38068e-08)
(-4.08353e-08 6.36583e-08 8.7722e-08)
(-2.78673e-07 1.76437e-08 7.37425e-08)
(-5.82003e-07 -7.23741e-08 8.20977e-08)
(-9.28736e-07 -6.0545e-08 1.19455e-07)
(-1.17467e-06 -9.41695e-08 1.01034e-07)
(-1.27526e-06 -1.03008e-07 1.05159e-07)
(-1.48877e-06 -1.10118e-07 6.41691e-08)
)
;

boundaryField
{
    inlet
    {
        type            calculated;
        value           uniform (0 0 0);
    }
    outlet
    {
        type            calculated;
        value           nonuniform 0();
    }
    wall
    {
        type            calculated;
        value           uniform (0 0 0);
    }
    procBoundary0to1
    {
        type            processor;
        value           uniform (0 0 0);
    }
    procBoundary0to2
    {
        type            processor;
        value           uniform (0 0 0);
    }
    procBoundary0to4
    {
        type            processor;
        value           uniform (0 0 0);
    }
    procBoundary0to6
    {
        type            processor;
        value           uniform (0 0 0);
    }
    procBoundary0to7
    {
        type            processor;
        value           uniform (0 0 0);
    }
}


// ************************************************************************* //
