/*--------------------------------*- C++ -*----------------------------------*\
  =========                 |
  \\      /  F ield         | OpenFOAM: The Open Source CFD Toolbox
   \\    /   O peration     | Website:  https://openfoam.org
    \\  /    A nd           | Version:  4.x
     \\/     M anipulation  |
\*---------------------------------------------------------------------------*/
FoamFile
{
    version     2.0;
    format      ascii;
    class       vectorField;
    location    0;
    object      v;
}
// * * * * * * * * * * * * * * * * * * * * * * * * * * * * * * * * * * * * * //

235
(
( 4.28124e-05 1.50382e-05 -1.11242e-05 )  
( 6.60046e-05 1.12235e-05 -6.89921e-06 )  
( 5.34158e-05 6.73344e-06 -7.82422e-06 )  
( 4.62629e-05 1.27642e-05 -1.15634e-05 )  
( 4.68288e-05 9.1709e-06 -1.27101e-05 )  
( 6.034e-05 9.91605e-06 -8.76648e-06 )  
( 4.0253e-05 9.72177e-06 -1.19493e-05 )  
( 4.83565e-05 2.51481e-06 -9.21327e-06 )  
( 2.64072e-05 2.11092e-06 -6.26221e-06 )  
( 2.53535e-05 3.73369e-06 -1.70014e-06 )  
( 7.57101e-06 7.71922e-08 6.2349e-07 )  
( 1.06286e-05 1.3892e-06 -2.14758e-06 )  
( 2.77466e-05 7.66654e-06 -4.44775e-06 )  
( 4.78298e-06 1.54076e-07 -6.22627e-07 )  
( 1.82585e-05 1.97818e-06 -2.07458e-06 )  
( 2.2732e-05 8.70688e-06 -8.45514e-06 )  
( 1.66719e-05 5.44717e-06 -4.04273e-06 )  
( 5.81956e-06 2.19788e-07 -6.76875e-07 )  
( 4.98299e-06 1.23916e-06 -1.10936e-06 )  
( 2.36639e-06 4.07537e-07 -1.66936e-07 )  
( 3.56646e-05 1.22419e-05 -9.28135e-06 )  
( 5.73473e-06 -1.97229e-07 -2.49397e-07 )  
( 3.1551e-06 1.31625e-06 -1.09539e-06 )  
( 2.72224e-05 5.04471e-06 -3.6648e-06 )  
( 5.01298e-06 1.24846e-06 -1.03224e-06 )  
( 3.48116e-05 8.96464e-06 -5.75601e-06 )  
( 8.04849e-06 2.36328e-06 1.24074e-07 )  
( 3.43439e-07 -2.58642e-07 -2.08691e-07 )  
( 2.53857e-05 1.99415e-06 -3.23076e-06 )  
( 7.47781e-06 2.05333e-06 -1.74507e-06 )  
( 2.14874e-05 4.42904e-06 -6.74861e-06 )  
( 4.97986e-05 9.28404e-06 -9.54496e-06 )  
( 1.3403e-06 2.43449e-07 -2.3765e-07 )  
( 1.56507e-05 4.4329e-06 -2.18543e-06 )  
( 6.52754e-06 1.4774e-06 -1.48737e-06 )  
( 1.68346e-05 4.21275e-06 -5.65633e-06 )  
( 9.07706e-07 6.16405e-07 3.83459e-08 )  
( 1.79782e-05 2.59416e-06 -8.24758e-07 )  
( 1.9911e-05 3.87756e-06 -1.81975e-06 )  
( 6.96847e-06 1.81665e-06 -2.65596e-06 )  
( 9.23212e-06 1.48438e-07 -2.26011e-07 )  
( 3.94466e-06 4.1722e-07 -5.96367e-07 )  
( 2.65206e-05 6.54292e-06 -1.45391e-06 )  
( 2.18704e-05 5.49271e-06 -4.54142e-06 )  
( 7.98386e-06 1.43889e-06 -1.02454e-06 )  
( 6.73787e-06 6.0847e-07 -2.1708e-07 )  
( 3.22355e-06 -5.83442e-07 -1.50239e-07 )  
( 2.03143e-05 9.73982e-06 8.68154e-07 )  
( 1.12195e-05 6.04145e-07 -1.36225e-06 )  
( 2.36857e-06 4.66756e-07 -4.80321e-07 )  
( -2.70464e-10 -4.7912e-08 9.50623e-08 )  
( 3.63626e-05 1.42513e-05 -6.21865e-06 )  
( 8.37777e-06 1.8869e-06 -1.58375e-06 )  
( 5.80658e-06 8.78329e-07 -4.92513e-07 )  
( 2.44135e-06 8.4982e-07 -5.45338e-07 )  
( 2.71262e-05 2.23129e-06 -3.65811e-06 )  
( 1.12986e-05 1.11104e-06 -1.67883e-06 )  
( 1.63654e-05 1.60015e-06 -2.75112e-06 )  
( 2.11347e-05 9.47707e-07 -1.42531e-06 )  
( 2.30529e-05 5.43153e-06 -1.65698e-06 )  
( 5.34948e-06 1.20378e-06 -6.71579e-07 )  
( 3.71214e-05 1.09694e-05 -1.01063e-05 )  
( 3.30544e-05 2.04848e-06 -8.22323e-06 )  
( 7.19273e-06 1.08333e-06 -5.679e-07 )  
( 1.76029e-05 3.14096e-07 -1.13618e-06 )  
( 1.14299e-05 2.45851e-06 -2.77132e-06 )  
( 7.2205e-06 1.64592e-06 -2.0001e-06 )  
( 4.0404e-06 3.83257e-07 -2.63907e-07 )  
( 3.77756e-05 3.33343e-06 -6.17568e-06 )  
( 1.06614e-06 3.23273e-08 -3.43666e-08 )  
( 2.04305e-05 2.90783e-06 -3.4839e-06 )  
( 1.3579e-05 1.31137e-06 -1.41698e-06 )  
( 1.40038e-05 3.86681e-06 -3.6427e-06 )  
( 1.53865e-05 2.44075e-06 -1.40463e-06 )  
( 3.40451e-06 5.19733e-07 -4.34911e-07 )  
( 1.98305e-06 -2.84884e-07 -1.99897e-07 )  
( 9.5605e-07 -3.13879e-07 -1.21239e-07 )  
( 3.64816e-05 1.33064e-05 -1.39675e-05 )  
( 1.07036e-05 2.29431e-06 -1.96847e-06 )  
( 4.76296e-05 8.61476e-06 -4.05394e-06 )  
( 1.10638e-05 2.16153e-06 -2.62284e-06 )  
( 2.73496e-05 1.24355e-05 -7.18495e-06 )  
( 1.91417e-05 1.56148e-06 -4.31643e-07 )  
( 1.50971e-05 3.15748e-06 -2.09943e-06 )  
( 2.93023e-06 5.99987e-07 -6.85301e-07 )  
( 3.4979e-07 -2.27291e-07 2.98441e-08 )  
( 1.26122e-05 2.21113e-06 -2.98143e-06 )  
( 2.96565e-05 8.1514e-06 -6.06034e-06 )  
( 5.00499e-05 8.92021e-06 -5.87708e-06 )  
( 5.44399e-06 2.10655e-06 -1.38104e-06 )  
( 3.36155e-05 6.6494e-06 -4.96828e-06 )  
( 3.59504e-06 1.19104e-07 1.23659e-07 )  
( 1.47776e-05 1.75476e-06 -1.31235e-06 )  
( 4.65819e-06 8.50792e-07 -1.21208e-08 )  
( 4.31103e-05 5.21512e-06 -7.84443e-06 )  
( 1.78245e-05 1.03004e-06 -2.78721e-06 )  
( 1.68802e-05 2.30903e-06 1.4037e-07 )  
( 3.75602e-06 -5.85685e-08 -8.85185e-07 )  
( 4.30049e-06 8.03933e-07 -8.06186e-07 )  
( 1.93511e-05 7.15947e-06 -5.58109e-06 )  
( 1.00152e-05 2.03129e-06 -1.04627e-06 )  
( 2.88774e-05 3.75852e-06 -3.08306e-06 )  
( 2.44239e-05 5.90209e-06 -6.62772e-06 )  
( 3.64296e-05 3.4135e-06 -3.55851e-06 )  
( 1.33074e-05 2.02194e-06 -2.20847e-06 )  
( 8.69108e-06 2.61084e-07 -7.98376e-07 )  
( 7.85211e-07 2.91956e-09 -1.16057e-07 )  
( 7.38214e-06 1.72427e-06 -2.1793e-06 )  
( 1.28925e-06 1.1858e-07 -1.69962e-07 )  
( 3.95774e-05 1.17842e-05 -9.58409e-06 )  
( -5.50922e-08 -1.10383e-07 -1.49963e-07 )  
( 4.70451e-06 1.29203e-06 -1.43812e-06 )  
( 3.74057e-06 9.76113e-07 -5.36778e-07 )  
( 1.76316e-05 5.87276e-06 -2.19063e-06 )  
( 1.11775e-05 2.23421e-07 -5.4091e-07 )  
( 2.30576e-06 -6.54004e-07 -2.96423e-07 )  
( 3.72141e-06 6.65241e-07 -9.70897e-08 )  
( 1.23503e-05 -2.19268e-07 -1.24011e-06 )  
( 8.6161e-06 9.89302e-07 5.41235e-08 )  
( 5.02687e-05 1.04816e-05 -1.18052e-05 )  
( 3.51492e-06 1.05028e-06 -8.60828e-07 )  
( 4.1349e-05 8.06215e-06 -7.36868e-06 )  
( 3.50592e-05 6.1057e-06 -7.28322e-06 )  
( 4.69613e-06 1.05637e-06 -7.44528e-07 )  
( 3.99084e-05 1.21002e-05 -9.31596e-06 )  
( 1.14231e-05 1.54054e-06 -1.65466e-06 )  
( 1.49929e-05 9.10702e-07 -1.82322e-06 )  
( 8.98007e-06 1.36678e-06 -1.1188e-06 )  
( 2.32026e-05 3.5974e-06 -4.8859e-06 )  
( 2.35357e-05 3.99765e-06 -3.72021e-06 )  
( 1.33104e-06 8.69364e-08 -1.25339e-07 )  
( 5.7269e-05 8.54872e-06 -4.81379e-06 )  
( 2.85188e-05 4.30062e-06 -4.9813e-06 )  
( 4.06643e-06 1.17515e-07 -3.02317e-07 )  
( 3.44963e-05 3.55049e-06 -5.977e-06 )  
( 1.63865e-05 1.22475e-06 -1.52738e-06 )  
( 9.29858e-06 1.98923e-06 -2.40035e-06 )  
( 1.95991e-05 -3.8064e-07 1.09697e-06 )  
( 8.13149e-06 9.09683e-07 3.98265e-07 )  
( -4.251e-08 -1.25615e-07 8.71984e-08 )  
( 2.1344e-06 4.70349e-07 -1.72162e-07 )  
( 1.61244e-05 4.57953e-06 -1.75463e-06 )  
( 2.72191e-05 8.89523e-06 -3.08266e-06 )  
( 2.75329e-06 7.57526e-07 -7.95573e-07 )  
( 1.0111e-05 -2.71247e-07 -1.64257e-06 )  
( 9.21559e-07 -3.26996e-07 -2.14929e-07 )  
( 1.81406e-05 5.09374e-06 -6.22926e-06 )  
( 3.682e-05 2.47913e-06 -6.9225e-06 )  
( 1.04373e-05 2.88542e-06 -4.17596e-06 )  
( 2.68139e-06 6.20454e-07 -9.16541e-07 )  
( 1.6107e-05 2.78823e-06 -2.2437e-06 )  
( 7.08604e-06 1.32158e-06 -1.55997e-06 )  
( 3.07586e-05 9.28002e-06 -9.85794e-06 )  
( 3.32905e-06 2.74699e-07 -8.19243e-07 )  
( 3.04799e-05 -7.58469e-07 -1.8149e-06 )  
( 1.00408e-05 1.87526e-06 -2.79695e-06 )  
( 4.67294e-05 7.0704e-06 -8.1752e-06 )  
( 1.44617e-05 2.45629e-06 -2.01393e-06 )  
( 3.65354e-06 1.00689e-06 -1.07985e-06 )  
( 1.6996e-05 1.31886e-06 -3.35818e-06 )  
( 2.87491e-05 6.47517e-06 -6.54154e-06 )  
( 9.60897e-06 3.56849e-07 -1.60998e-06 )  
( 2.05947e-05 3.43859e-06 -3.72139e-06 )  
( 4.20567e-05 5.54746e-06 -8.32463e-06 )  
( 4.5318e-05 7.30517e-06 -8.90894e-06 )  
( 1.46848e-05 4.46344e-06 -5.60871e-06 )  
( 4.70282e-05 3.01182e-06 -7.95936e-06 )  
( 4.21642e-05 2.81467e-06 -7.78104e-06 )  
( 1.48475e-05 8.83354e-06 -2.52936e-06 )  
( 7.97113e-06 1.23957e-06 -2.0569e-06 )  
( 1.84045e-05 2.19789e-06 -1.62968e-06 )  
( 1.29701e-05 2.57392e-06 -2.64756e-06 )  
( 4.01159e-05 8.92599e-06 -1.10195e-05 )  
( 4.19097e-06 8.30455e-07 -1.09053e-06 )  
( 6.4422e-06 8.0208e-07 -1.96369e-06 )  
( 1.78464e-05 1.93763e-06 -1.15471e-06 )  
( 1.2831e-05 3.76874e-06 -4.57215e-06 )  
( 4.2606e-05 9.91665e-06 -9.32703e-06 )  
( 9.4282e-06 2.29468e-06 -1.5067e-06 )  
( 5.83692e-06 8.11044e-07 -8.46807e-07 )  
( 3.91359e-05 3.65582e-06 -4.17496e-06 )  
( 6.43351e-06 5.77106e-07 -6.13121e-07 )  
( 3.40447e-05 5.84704e-06 -6.80376e-06 )  
( 4.81811e-06 1.23955e-06 -1.22949e-06 )  
( 3.00224e-07 -2.10797e-07 -1.44831e-07 )  
( 1.35595e-05 1.74784e-06 -1.90318e-06 )  
( 1.33523e-05 1.45974e-06 -2.65109e-06 )  
( 1.2076e-05 8.5561e-07 -2.25896e-06 )  
( 4.68779e-05 1.71747e-05 -8.28998e-06 )  
( 3.52258e-06 4.90514e-07 -4.13057e-07 )  
( 5.53666e-07 -1.13852e-07 -1.04594e-07 )  
( 2.47096e-05 1.94406e-06 -3.0329e-06 )  
( 3.17559e-05 -3.13928e-06 -2.47668e-06 )  
( 2.21738e-05 8.94316e-06 -3.79666e-06 )  
( 5.95512e-06 5.26276e-07 -1.45462e-06 )  
( 1.60493e-05 3.16013e-06 -4.13639e-06 )  
( 1.28431e-06 1.15991e-07 7.75644e-08 )  
( 1.50785e-06 4.46744e-08 1.2906e-07 )  
( 5.80292e-06 5.84723e-07 -9.41849e-07 )  
( 4.87117e-05 9.54601e-06 -9.46931e-06 )  
( 2.55813e-05 3.12212e-06 -3.80443e-06 )  
( 1.94963e-05 2.18773e-06 -3.43448e-06 )  
( 3.05357e-05 -4.14047e-06 -8.54468e-06 )  
( 3.16911e-05 9.26888e-06 -1.03592e-05 )  
( 3.28804e-05 1.11958e-06 -4.6819e-06 )  
( 2.94644e-05 2.22435e-06 -4.99039e-06 )  
( 4.06366e-05 6.62343e-06 -7.91052e-06 )  
( 4.07234e-06 -1.56876e-07 -5.9334e-08 )  
( 3.66945e-06 1.53765e-06 -7.26243e-07 )  
( 2.12646e-05 5.02414e-06 -5.84728e-06 )  
( 1.07354e-05 1.99235e-06 -2.06176e-06 )  
( 1.12504e-05 1.1178e-06 -1.67791e-06 )  
( 1.36065e-05 2.31292e-06 -3.18127e-06 )  
( 4.57251e-05 9.65564e-06 -6.35373e-06 )  
( 5.02846e-05 6.40555e-06 -2.04452e-06 )  
( 1.0087e-05 2.67862e-07 -1.38798e-06 )  
( 4.66483e-06 6.43037e-07 2.3202e-08 )  
( 8.52063e-08 -3.19959e-07 -1.53523e-07 )  
( 1.06249e-05 1.8367e-06 -1.1845e-06 )  
( 1.91903e-05 2.0789e-06 -1.19699e-07 )  
( 1.92975e-06 4.40917e-08 -1.27226e-07 )  
( 6.40874e-06 1.18616e-06 -1.1632e-06 )  
( 1.13136e-05 2.76455e-06 -1.60599e-06 )  
( 1.06424e-05 1.86409e-06 -1.54099e-06 )  
( 1.63669e-05 5.94772e-06 -1.83553e-06 )  
( 4.65251e-05 1.03496e-05 -1.30841e-06 )  
( 2.89382e-05 3.02496e-06 -3.02292e-06 )  
( 3.72861e-05 9.46339e-06 -2.74756e-06 )  
( 1.62545e-05 -2.76927e-07 -2.09152e-07 )  
( 2.63695e-05 3.53363e-05 -1.5431e-06 )  
( 8.68625e-06 2.78956e-06 7.6872e-07 )  
( 2.21937e-05 4.09665e-06 -1.12754e-06 )  
( 1.29045e-05 2.72847e-06 -1.35608e-07 )  
( 2.70667e-05 1.01973e-05 -4.34322e-06 )  
( 1.59718e-05 4.89784e-06 -4.05616e-06 )  
)
