/*--------------------------------*- C++ -*----------------------------------*\
| =========                 |                                                 |
| \\      /  F ield         | OpenFOAM: The Open Source CFD Toolbox           |
|  \\    /   O peration     | Version:  4.x                                   |
|   \\  /    A nd           | Web:      www.OpenFOAM.org                      |
|    \\/     M anipulation  |                                                 |
\*---------------------------------------------------------------------------*/
FoamFile
{
    version     2.0;
    format      ascii;
    class       volVectorField;
    location    "50";
    object      Us;
}
// * * * * * * * * * * * * * * * * * * * * * * * * * * * * * * * * * * * * * //

dimensions      [0 1 -1 0 0 0 0];

internalField   nonuniform List<vector> 
108
(
(2.13058e-09 -3.43133e-09 1.47987e-09)
(2.81954e-09 -5.1047e-09 1.82612e-09)
(4.03361e-09 -8.28188e-09 1.90785e-10)
(2.17302e-09 -2.43686e-09 -8.95976e-11)
(1.4475e-09 -1.05261e-09 -6.79486e-10)
(2.13633e-09 -3.5357e-10 -7.79227e-10)
(1.5059e-09 -3.785e-10 -4.33947e-10)
(-3.30789e-09 1.47598e-10 7.32896e-11)
(-1.14306e-08 -5.9596e-10 5.91209e-10)
(1.50692e-09 -1.41233e-09 6.54808e-10)
(1.3264e-09 -1.45602e-09 3.65645e-10)
(1.6032e-09 -1.50106e-09 -2.51972e-10)
(1.88134e-09 -7.4288e-10 -6.20486e-10)
(1.66997e-09 -5.13784e-10 -7.04238e-10)
(1.41032e-09 -2.0792e-10 -7.45354e-10)
(3.57294e-10 -1.92877e-10 -6.84406e-10)
(-2.64076e-09 3.28674e-10 -1.15773e-09)
(-1.89466e-08 2.32085e-10 -4.50332e-10)
(1.59271e-09 3.67316e-10 2.16655e-10)
(1.88538e-09 -9.78851e-10 2.03522e-10)
(1.11262e-09 1.07216e-10 -2.39048e-10)
(1.51383e-09 -8.63839e-11 -6.40942e-10)
(1.58327e-09 -2.67007e-10 -5.85519e-10)
(6.62336e-10 -1.39869e-10 -6.54877e-10)
(-1.39336e-10 2.03756e-10 -6.3048e-10)
(-3.87101e-09 -1.11414e-09 -2.33694e-09)
(-2.90406e-09 9.94181e-09 -4.15607e-09)
(8.18927e-10 -2.77549e-10 2.0413e-10)
(1.38595e-09 -7.32618e-10 -1.5575e-10)
(1.29775e-09 -1.76431e-09 -9.02542e-11)
(9.53689e-10 3.89102e-11 -1.9333e-10)
(1.37477e-09 7.23889e-11 -2.95218e-10)
(7.79485e-10 1.79889e-10 -7.12646e-10)
(4.21473e-09 1.45191e-09 -5.46643e-10)
(3.97407e-09 1.46475e-09 -2.49414e-09)
(-2.78063e-09 4.10938e-07 -1.6702e-08)
(2.1571e-09 -2.11102e-09 1.2314e-09)
(2.32639e-09 -9.95478e-10 1.20452e-09)
(2.12944e-09 -1.37181e-09 7.87929e-10)
(2.09545e-09 -7.3844e-10 8.18999e-11)
(2.16498e-09 -6.76181e-10 -6.66266e-10)
(2.086e-09 -4.16766e-10 -1.07773e-09)
(1.71407e-09 -2.14128e-10 -1.43379e-09)
(9.79436e-10 3.58802e-10 -1.02664e-10)
(-1.15469e-09 -6.26725e-10 2.91079e-10)
(1.65066e-09 -9.23568e-10 5.5566e-10)
(1.82689e-09 -9.96508e-10 2.13349e-10)
(1.9904e-09 -9.02692e-10 -2.87795e-10)
(2.01957e-09 -6.87215e-10 -7.98355e-10)
(2.02174e-09 -4.06936e-10 -7.42849e-10)
(1.66422e-09 -5.00617e-10 -9.9105e-10)
(1.03741e-09 -2.66335e-10 -1.01296e-09)
(1.41247e-10 1.53703e-10 -1.40819e-09)
(1.87118e-10 3.34295e-10 -1.16513e-09)
(1.42562e-09 -4.01711e-10 3.70957e-10)
(1.61413e-09 -5.25216e-10 8.16084e-11)
(1.65327e-09 -3.51067e-10 -3.50802e-10)
(1.43645e-09 -3.75983e-10 -6.33915e-10)
(1.39339e-09 -3.05871e-10 -5.13849e-10)
(1.02128e-09 -4.11517e-10 -5.12632e-10)
(-3.63123e-10 -2.97444e-10 -8.60748e-10)
(-1.19993e-09 3.12369e-11 -2.41167e-09)
(-1.1237e-09 9.02428e-11 -2.54646e-09)
(9.81992e-10 -9.80111e-11 2.81995e-10)
(1.33853e-09 -3.23812e-10 -5.10783e-11)
(8.88803e-10 -1.96119e-10 -1.60916e-10)
(9.7421e-10 -1.24667e-10 -2.28173e-10)
(9.90173e-10 -4.92073e-11 -2.66835e-10)
(1.23908e-09 -2.05077e-10 -3.16574e-10)
(9.35845e-10 3.37791e-10 -7.88541e-10)
(2.73758e-10 3.44314e-10 -2.73028e-09)
(-6.2595e-10 1.28067e-10 -9.92258e-09)
(2.02811e-09 -1.99003e-10 1.12981e-09)
(2.26248e-09 4.77639e-11 1.426e-09)
(2.19459e-09 1.04984e-09 1.91659e-09)
(2.4017e-09 -2.47096e-10 4.01914e-10)
(2.29311e-09 -4.18364e-10 -4.09514e-10)
(2.06773e-09 -5.85786e-11 -1.18702e-09)
(1.69653e-09 -7.97373e-11 -1.43475e-09)
(1.23816e-09 1.11964e-11 -9.85055e-10)
(8.91402e-10 -1.28786e-10 -4.18797e-10)
(1.70288e-09 -3.50084e-10 5.73232e-10)
(2.1007e-09 -4.27854e-10 2.68627e-10)
(2.4286e-09 -6.65202e-11 3.76246e-10)
(2.19414e-09 -1.75565e-10 -4.5588e-10)
(1.98949e-09 -2.52996e-10 -6.86656e-10)
(1.69892e-09 -7.65204e-11 -9.08241e-10)
(1.16447e-09 -5.63337e-11 -1.05495e-09)
(6.84762e-10 1.1756e-10 -1.1998e-09)
(2.58382e-10 -3.05502e-11 -4.68736e-10)
(1.49937e-09 -3.05639e-10 2.46384e-10)
(1.68087e-09 -3.86039e-10 4.64857e-11)
(1.75634e-09 1.0642e-12 -8.44029e-11)
(1.39487e-09 -1.38152e-10 -3.11623e-10)
(1.28197e-09 -9.06045e-11 -3.61806e-10)
(7.71223e-10 -2.49067e-13 -3.95206e-10)
(1.35154e-10 -1.04955e-10 -6.90162e-10)
(3.58401e-11 5.04736e-11 -1.93794e-09)
(-4.90756e-11 -3.34669e-10 -1.97639e-09)
(8.53677e-10 -2.93035e-10 1.69799e-10)
(9.54994e-10 -2.64984e-10 -1.01925e-11)
(1.04215e-09 -9.90115e-11 -6.84975e-11)
(6.85021e-10 1.57849e-10 -8.31281e-11)
(5.5654e-10 -6.19244e-11 -2.37e-10)
(2.35316e-10 3.51651e-11 -1.60231e-10)
(-3.58337e-10 4.4197e-11 -4.73046e-10)
(-6.46047e-10 -2.2053e-10 -1.79475e-09)
(-4.16561e-10 -1.08207e-09 -3.43252e-09)
)
;

boundaryField
{
    inlet
    {
        type            zeroGradient;
    }
    outlet
    {
        type            zeroGradient;
    }
    wall
    {
        type            zeroGradient;
    }
    procBoundary3to1
    {
        type            processor;
        value           nonuniform List<vector> 
27
(
(3.67326e-09 -6.2513e-09 4.50672e-09)
(1.84904e-09 -9.42896e-09 7.30677e-09)
(2.21766e-09 -5.70818e-09 4.00111e-09)
(4.55384e-10 -1.47298e-09 1.04283e-09)
(7.71914e-10 -1.22191e-09 -1.39305e-10)
(1.52074e-09 -3.22871e-10 -5.87877e-10)
(2.23094e-09 -4.0296e-10 -1.256e-09)
(1.72313e-09 -2.5903e-09 -3.42077e-09)
(3.13534e-09 -2.23002e-10 -1.32548e-09)
(1.37979e-09 -1.22089e-09 3.77959e-09)
(2.12885e-09 -1.57037e-09 6.58142e-09)
(2.28447e-09 -1.1511e-09 3.36463e-09)
(9.06737e-10 -1.58257e-09 1.37977e-09)
(1.22775e-09 -1.23709e-09 -3.867e-10)
(1.5223e-09 -6.31513e-10 -9.01581e-10)
(2.33051e-09 -3.13229e-10 -1.92249e-09)
(2.77048e-09 -6.22036e-10 -1.31473e-09)
(1.04597e-09 -1.729e-09 -2.70028e-09)
(1.11062e-09 7.78554e-10 3.14203e-09)
(2.09555e-09 1.28663e-09 4.21713e-09)
(2.61837e-09 1.46362e-09 4.84603e-09)
(2.31398e-09 2.32496e-10 1.63064e-09)
(1.83716e-09 -1.59559e-10 -1.80967e-11)
(1.68192e-09 -5.32093e-11 -7.66713e-10)
(1.52874e-09 -3.74493e-11 -1.30136e-09)
(1.23844e-09 1.35299e-11 -1.2048e-09)
(7.8618e-10 -8.13848e-10 -5.66292e-10)
)
;
    }
    procBoundary3to2
    {
        type            processor;
        value           nonuniform List<vector> 
12
(
(2.06073e-09 -1.98628e-09 1.34487e-09)
(1.45278e-09 -1.32908e-09 8.41317e-10)
(1.28176e-09 -8.87364e-10 6.74125e-10)
(8.94698e-10 -5.41562e-10 3.77132e-10)
(1.54879e-09 -9.27328e-10 1.2794e-09)
(1.48564e-09 -8.1019e-10 6.61909e-10)
(1.14753e-09 -5.5294e-10 4.46158e-10)
(5.17527e-10 -1.55997e-10 1.46244e-10)
(1.18561e-09 9.0357e-11 1.35489e-09)
(1.1424e-09 -1.57002e-10 4.66676e-10)
(1.03665e-09 -1.95386e-10 2.48305e-10)
(6.24036e-10 -9.01688e-11 1.67944e-10)
)
;
    }
    procBoundary3to7
    {
        type            processor;
        value           nonuniform List<vector> 
36
(
(2.02541e-09 3.87845e-10 1.23172e-09)
(2.2805e-09 4.27385e-10 1.13802e-09)
(2.5949e-09 8.10311e-10 1.45239e-09)
(2.59619e-09 5.26344e-10 2.63445e-10)
(2.26284e-09 3.4687e-10 -1.62693e-10)
(1.70504e-09 3.13812e-10 -8.94318e-10)
(1.05862e-09 3.49641e-10 -9.72581e-10)
(7.99595e-10 3.56627e-10 -1.01884e-09)
(3.07608e-10 5.58825e-11 -2.28005e-10)
(1.88186e-09 -4.98908e-11 4.37502e-10)
(2.25294e-09 1.69782e-10 4.16993e-10)
(2.44093e-09 2.97164e-10 3.99435e-10)
(2.62982e-09 4.41211e-10 -1.99241e-11)
(1.98357e-09 2.56349e-10 -2.25929e-10)
(1.52035e-09 2.77549e-10 -5.43971e-10)
(1.20411e-09 2.07352e-10 -6.32104e-10)
(7.38537e-10 2.96019e-10 -8.00542e-10)
(2.07603e-10 2.25548e-10 -2.6008e-10)
(1.46605e-09 1.15837e-10 1.45641e-10)
(1.85177e-09 -9.11373e-11 -3.69947e-11)
(1.82773e-09 2.39625e-10 2.16283e-10)
(1.67822e-09 3.86996e-10 9.09379e-11)
(1.39882e-09 2.06609e-10 -1.56495e-10)
(9.4475e-10 1.8984e-10 -1.25906e-10)
(5.89285e-10 1.93337e-10 -5.06734e-10)
(5.90508e-10 2.9666e-10 -1.06117e-09)
(-3.4296e-10 1.60676e-10 -4.81789e-10)
(6.95591e-10 -1.26548e-10 7.06234e-11)
(9.71138e-10 -1.68804e-10 6.29601e-11)
(9.13172e-10 1.15526e-10 1.20695e-10)
(8.74979e-10 1.90621e-10 1.61687e-10)
(6.80368e-10 1.31156e-10 9.50103e-11)
(4.06784e-10 1.41377e-10 1.55761e-10)
(1.90096e-10 6.64474e-11 -3.03227e-10)
(2.25904e-10 1.43028e-10 -8.68954e-10)
(-2.18298e-10 3.59353e-11 -6.63242e-11)
)
;
    }
}


// ************************************************************************* //
