/*--------------------------------*- C++ -*----------------------------------*\
  =========                 |
  \\      /  F ield         | OpenFOAM: The Open Source CFD Toolbox
   \\    /   O peration     | Website:  https://openfoam.org
    \\  /    A nd           | Version:  4.x
     \\/     M anipulation  |
\*---------------------------------------------------------------------------*/
FoamFile
{
    version     2.0;
    format      ascii;
    class       vectorField;
    location    0;
    object      v;
}
// * * * * * * * * * * * * * * * * * * * * * * * * * * * * * * * * * * * * * //

308
(
( -0.000239237 3.41593e-06 7.61344e-06 )  
( -0.000218647 -6.83907e-06 5.33813e-06 )  
( -0.00025552 1.05482e-05 1.72369e-05 )  
( -0.000246577 -1.40376e-07 1.36298e-05 )  
( -0.00027132 3.60042e-06 2.99224e-06 )  
( -0.000259764 -5.82008e-06 2.1293e-05 )  
( -0.000198689 -5.41098e-06 6.05317e-06 )  
( -0.00026664 1.07415e-05 2.30863e-05 )  
( -0.000247129 -1.08991e-05 1.04999e-05 )  
( -0.0001915 -2.34253e-05 3.26684e-06 )  
( -0.000259778 -5.09079e-06 2.28624e-05 )  
( -0.000270944 -1.02328e-05 2.36557e-05 )  
( -4.71562e-05 9.61494e-07 -9.54202e-06 )  
( -0.000256405 -6.94839e-06 1.8968e-05 )  
( -0.000221201 -7.75176e-06 1.42325e-05 )  
( -0.000102655 1.11315e-06 -1.47706e-06 )  
( -1.11644e-05 -1.8398e-06 -3.78508e-06 )  
( -0.000244116 -1.51704e-06 2.34866e-05 )  
( -0.000261289 -1.19832e-05 1.68142e-05 )  
( -7.92322e-05 4.79304e-06 -4.05186e-06 )  
( -6.37739e-05 4.2792e-06 -1.22204e-05 )  
( -3.53854e-05 2.51091e-06 -5.36198e-06 )  
( -0.000209498 -1.2202e-05 5.83203e-06 )  
( -0.000130974 9.43271e-06 2.68675e-05 )  
( -1.9782e-05 2.43629e-06 -4.60194e-06 )  
( -4.19729e-06 1.25224e-06 -2.41058e-06 )  
( -1.21946e-05 6.55519e-06 -1.92406e-06 )  
( -6.52456e-05 8.96461e-06 -4.86761e-06 )  
( -6.55339e-05 1.3079e-06 -5.68037e-07 )  
( -0.000149268 1.60162e-05 7.63596e-07 )  
( -0.000222212 -4.74591e-06 1.6346e-05 )  
( -5.47165e-05 1.6517e-06 -1.10922e-05 )  
( -0.000241468 -1.56375e-05 1.74851e-05 )  
( -8.42335e-05 -6.97861e-06 -1.18864e-05 )  
( -6.95401e-05 -2.0103e-07 -1.20666e-05 )  
( -0.000274072 -9.61618e-06 2.76467e-05 )  
( -0.000179272 -1.2219e-05 1.99472e-05 )  
( -0.000226985 4.72644e-06 1.80887e-05 )  
( -0.000252121 -7.66131e-06 8.43155e-06 )  
( -0.000198659 -2.28398e-06 1.54268e-05 )  
( -7.24814e-05 2.91845e-06 -1.25357e-05 )  
( -0.000144014 -4.33776e-06 1.3173e-05 )  
( -0.000114396 7.40548e-06 2.1038e-05 )  
( -0.00016677 -1.44675e-05 1.51257e-05 )  
( -0.000144901 4.52867e-06 -2.40827e-06 )  
( -0.000239874 -1.0029e-05 3.17168e-05 )  
( -8.89184e-06 3.88562e-06 -3.75916e-06 )  
( -0.00022821 -9.61372e-06 1.98426e-05 )  
( -0.000115064 1.50996e-05 -3.02192e-05 )  
( -0.000128147 -9.3405e-06 1.49999e-06 )  
( -0.000254319 -1.82153e-07 2.36569e-05 )  
( -0.000104511 2.09019e-06 -6.39041e-06 )  
( -6.82475e-05 -1.01706e-05 2.00809e-05 )  
( -7.04012e-05 2.23558e-07 -9.49507e-07 )  
( -6.52955e-05 -2.77028e-06 -1.06845e-05 )  
( -0.000134623 -5.80341e-06 -5.1666e-06 )  
( -0.000240312 -6.37045e-07 3.31769e-05 )  
( -0.000153819 -1.65044e-05 2.4084e-06 )  
( -0.000259036 -6.8124e-06 1.97104e-05 )  
( -1.67256e-05 7.49533e-07 -5.77676e-06 )  
( -9.71353e-05 6.75053e-06 -1.25658e-05 )  
( -9.45184e-05 3.92953e-06 -1.20555e-05 )  
( -0.000127045 -4.05784e-06 -1.29895e-05 )  
( -0.000111478 -5.32945e-06 1.00843e-05 )  
( -8.97914e-06 -1.04609e-06 -3.67396e-07 )  
( -0.000122309 8.87946e-06 -1.35079e-05 )  
( -2.93168e-05 2.72256e-06 -1.19863e-06 )  
( -9.85358e-05 3.05545e-06 -1.4822e-05 )  
( -0.000185281 -2.41684e-05 2.1604e-05 )  
( -0.00025868 -4.29726e-06 2.89041e-05 )  
( -0.000166654 -2.07449e-05 1.32011e-05 )  
( -0.000211388 -2.11225e-05 1.30541e-05 )  
( -0.000232776 -4.66631e-06 1.49759e-05 )  
( -8.09644e-05 -1.39854e-06 -6.43475e-06 )  
( -7.38885e-05 -9.42552e-07 -9.96042e-06 )  
( -0.000124269 2.3826e-06 7.99374e-06 )  
( -7.42952e-05 -2.26258e-06 -7.97911e-06 )  
( -0.00021843 2.07173e-06 2.83725e-05 )  
( -0.000255143 -3.09823e-06 3.49386e-05 )  
( -3.16559e-05 3.40786e-07 -8.57229e-06 )  
( -0.000104225 1.3411e-05 -2.43173e-06 )  
( -6.35529e-05 1.94866e-06 -2.57548e-06 )  
( -3.81458e-05 6.94532e-06 -3.12327e-06 )  
( -0.000176249 -9.51799e-06 1.52227e-05 )  
( -7.12884e-06 1.88525e-06 -1.84296e-06 )  
( -0.000218505 -2.00912e-05 1.03821e-05 )  
( -4.52714e-05 3.74739e-06 -1.07472e-05 )  
( -0.000138924 -5.09422e-06 8.78439e-06 )  
( -2.91078e-06 1.70464e-06 -1.3493e-06 )  
( -1.86427e-05 3.61927e-06 1.6432e-07 )  
( -0.00018267 -1.73684e-05 8.65041e-06 )  
( -2.57118e-05 7.02058e-06 -5.23971e-06 )  
( -8.86282e-05 1.28405e-05 8.11804e-06 )  
( -3.12213e-05 4.11342e-06 -6.78504e-06 )  
( -0.000117328 -2.60377e-06 -4.58294e-06 )  
( -0.000271749 -3.6649e-06 2.15438e-05 )  
( -0.000302054 9.47189e-06 3.11795e-05 )  
( -1.22108e-05 -2.0984e-06 5.36899e-07 )  
( -0.000279474 -1.0223e-05 3.5197e-05 )  
( -4.4867e-05 -5.83662e-06 -1.15421e-06 )  
( -0.000182553 3.05039e-06 2.03006e-05 )  
( -0.000144522 4.38958e-06 2.95166e-05 )  
( -0.000267956 1.11497e-06 2.62448e-05 )  
( -0.000280515 3.93833e-07 2.83012e-05 )  
( -0.00023731 -5.27926e-06 1.28278e-05 )  
( -0.000203519 -3.79847e-06 2.09516e-05 )  
( -5.86712e-05 2.58023e-06 1.20896e-07 )  
( -0.000280075 2.09397e-06 3.01485e-05 )  
( -0.000220215 6.85759e-06 2.53671e-05 )  
( -8.94637e-05 8.90565e-06 -1.9101e-05 )  
( -0.000164967 -5.20316e-06 9.76798e-06 )  
( -0.000208713 -1.57311e-05 2.46203e-05 )  
( -0.000195565 -9.15778e-06 1.95221e-05 )  
( -6.74673e-05 9.88407e-06 1.09998e-05 )  
( -0.00019514 9.59341e-06 2.00141e-05 )  
( -0.000174978 -2.49337e-05 6.71889e-06 )  
( -0.000114377 7.84625e-06 6.57942e-06 )  
( -0.00023091 -1.2828e-05 2.19277e-06 )  
( -8.02953e-05 7.80916e-06 2.04435e-05 )  
( -5.06056e-05 -2.49179e-06 -1.04019e-05 )  
( -5.00501e-05 9.37181e-06 2.38848e-06 )  
( -8.10623e-05 4.10243e-06 -1.22566e-05 )  
( -1.02537e-05 4.07147e-06 -1.9612e-06 )  
( -0.00025555 4.35238e-06 1.87205e-05 )  
( -8.62201e-05 1.66903e-05 1.165e-05 )  
( -4.56947e-05 3.66801e-06 -8.39929e-06 )  
( -0.000145559 -1.51113e-05 2.16549e-05 )  
( -0.000210492 -1.39157e-05 8.6045e-06 )  
( -1.19771e-05 2.28438e-06 -1.39345e-06 )  
( -0.000192081 -1.03381e-05 2.83807e-05 )  
( -0.000247958 -4.12899e-06 2.36478e-05 )  
( -4.30793e-05 4.37629e-06 -4.38735e-06 )  
( -0.000279498 -6.61854e-06 2.58068e-05 )  
( -0.000240756 2.04897e-06 1.60764e-05 )  
( -6.07023e-05 -1.99708e-06 2.11045e-05 )  
( -2.4929e-05 2.70812e-06 -2.61989e-06 )  
( -1.6247e-05 1.98665e-06 -3.9649e-06 )  
( -0.000273183 -5.02617e-06 2.52696e-05 )  
( -1.19266e-05 3.89937e-06 -3.04694e-06 )  
( -0.00024244 -6.98402e-06 1.32789e-05 )  
( -0.000104161 -1.25392e-06 3.11379e-06 )  
( -1.05755e-05 -4.89017e-07 -2.04409e-06 )  
( -0.000164855 -2.40499e-05 1.18155e-05 )  
( -0.000147253 -1.72282e-05 9.83965e-06 )  
( -2.79769e-05 8.14939e-06 -5.13067e-06 )  
( -0.000197106 -4.54855e-06 -1.39157e-06 )  
( -8.94566e-05 -2.07085e-05 8.03583e-06 )  
( -0.000239147 -1.65195e-05 5.88305e-06 )  
( -0.000105793 2.02705e-05 2.38558e-05 )  
( -3.65866e-05 5.93934e-06 -5.58538e-06 )  
( -0.000120855 -7.49915e-06 4.95703e-06 )  
( -7.06785e-05 -4.71309e-06 -1.97775e-05 )  
( -6.98918e-05 1.43604e-06 -5.13929e-06 )  
( -0.00024275 -1.78233e-05 2.19347e-05 )  
( -8.8835e-05 -1.08521e-05 6.40837e-06 )  
( -2.73665e-05 1.26182e-06 -2.87302e-06 )  
( -0.00010402 -1.22439e-05 5.59294e-06 )  
( -0.000194227 -2.63488e-05 1.25419e-05 )  
( -0.00017948 -2.27942e-05 1.3833e-05 )  
( -0.000223345 1.85425e-05 2.85856e-05 )  
( -0.000114891 -1.12413e-05 1.22253e-06 )  
( -0.0001681 -1.45967e-05 1.65493e-05 )  
( -1.67322e-05 5.83119e-06 -1.06772e-07 )  
( -0.000128769 -9.99099e-06 -6.22494e-06 )  
( -3.95303e-06 2.70108e-07 -2.55728e-06 )  
( -5.71679e-06 3.14818e-06 -1.21414e-06 )  
( -4.86273e-05 -1.17433e-06 -1.04524e-05 )  
( -0.000165347 -1.20952e-05 3.43866e-06 )  
( -0.000238495 -3.33617e-05 8.25085e-06 )  
( -1.06255e-05 9.06991e-06 -8.52229e-07 )  
( -2.1312e-05 -1.80293e-06 5.07393e-07 )  
( -3.42152e-05 -2.02949e-07 1.66344e-07 )  
( -4.69029e-05 7.73227e-06 -1.23968e-05 )  
( -3.77816e-05 2.08489e-06 -3.12248e-07 )  
( -0.000235021 -3.32317e-05 8.82405e-06 )  
( -0.000138412 -1.56145e-05 2.59398e-06 )  
( -5.32312e-05 4.10258e-06 -3.00823e-06 )  
( -3.42141e-06 1.22656e-07 -1.0015e-06 )  
( -0.000100062 -6.7954e-06 1.8974e-06 )  
( -0.000291352 2.30988e-05 4.91305e-05 )  
( -0.000138859 -1.94541e-05 -7.96841e-06 )  
( -0.000189092 -1.94402e-05 1.72788e-05 )  
( -8.71042e-05 1.22489e-05 -7.47133e-07 )  
( -7.27688e-05 -2.94416e-06 1.4225e-06 )  
( -6.47615e-05 4.19124e-06 -1.28572e-05 )  
( -9.40567e-06 -2.04332e-07 -3.11392e-06 )  
( -2.06546e-05 5.16601e-06 7.47854e-07 )  
( -4.69097e-05 3.21739e-06 -1.99204e-06 )  
( -7.39953e-05 8.19271e-06 6.80688e-06 )  
( -4.15764e-05 4.66425e-06 -3.86735e-06 )  
( -9.36345e-05 4.75212e-06 -5.5531e-06 )  
( -8.7338e-05 7.485e-06 -1.99229e-06 )  
( -1.87987e-05 1.56588e-07 -8.08646e-07 )  
( -0.00014207 -1.58805e-05 2.21335e-06 )  
( -0.000252129 -2.79925e-05 1.54004e-05 )  
( -0.000148886 -2.81142e-05 8.22704e-06 )  
( -0.000116244 -3.0094e-06 3.30479e-06 )  
( -6.11412e-05 2.58084e-06 6.85236e-06 )  
( -8.7628e-06 1.67828e-06 -2.34497e-06 )  
( -3.44466e-05 2.15305e-07 -4.41344e-06 )  
( -0.000218067 -3.00148e-05 9.95435e-06 )  
( -5.87265e-05 -1.74077e-06 -2.71915e-06 )  
( -0.000254012 -2.49107e-05 1.51275e-05 )  
( -0.000111013 1.7864e-06 -5.68476e-06 )  
( -6.76455e-05 1.45749e-06 -4.58904e-06 )  
( -8.32534e-05 -2.70882e-06 -5.55888e-06 )  
( -0.000204534 -2.51214e-05 1.81335e-05 )  
( -3.14709e-05 3.94774e-06 3.06907e-06 )  
( -0.000200329 -2.08149e-05 8.45991e-06 )  
( -7.48438e-06 -1.88965e-06 -1.22681e-06 )  
( -8.35827e-05 -5.0437e-06 -3.34152e-06 )  
( -4.27544e-06 7.01635e-07 -1.44478e-06 )  
( -0.000256402 -4.40413e-06 2.25459e-05 )  
( -0.000135106 -1.56393e-05 1.74727e-05 )  
( -2.8939e-05 6.15e-06 -5.37847e-06 )  
( -3.96456e-06 5.94264e-08 -7.16444e-07 )  
( -4.63955e-06 -4.50692e-07 -2.26158e-06 )  
( -5.53787e-05 1.67468e-06 -5.45208e-06 )  
( -0.000265295 7.30134e-07 1.49767e-05 )  
( -1.4891e-05 5.53573e-06 2.09016e-06 )  
( -0.00017402 -8.86397e-06 1.04262e-05 )  
( -8.09918e-06 4.26547e-06 -9.20464e-07 )  
( -0.000204158 1.34674e-05 4.69082e-06 )  
( -9.12071e-05 2.62331e-06 -1.16203e-05 )  
( -0.000265672 -8.9517e-07 1.83013e-05 )  
( -0.000252616 -1.42295e-05 2.15263e-05 )  
( -0.000282124 2.05912e-06 2.70039e-05 )  
( -2.04343e-05 1.02714e-05 -2.78204e-07 )  
( -0.00029667 2.31569e-06 2.83397e-05 )  
( -8.97767e-05 -4.95316e-06 -1.94781e-06 )  
( -0.000165889 -7.34073e-06 1.0032e-05 )  
( -0.000196801 6.09628e-06 -1.67718e-05 )  
( -0.000150858 -1.1808e-05 -3.64812e-06 )  
( -0.00028269 5.11926e-06 3.55919e-05 )  
( -3.62374e-05 -1.31323e-06 -1.28814e-05 )  
( -0.000106387 -1.28969e-06 3.36217e-06 )  
( -0.000134741 -1.87735e-05 7.50284e-06 )  
( -0.000175399 -1.39596e-05 1.67307e-05 )  
( -0.000164992 -2.56217e-05 4.96481e-06 )  
( -0.000214169 -2.16e-05 9.49759e-06 )  
( -8.71623e-05 9.72476e-06 -6.87165e-06 )  
( -2.61953e-05 5.45353e-06 -5.96225e-06 )  
( -2.04823e-05 1.92343e-06 -9.68931e-07 )  
( -0.000183964 -2.7151e-05 1.16362e-05 )  
( -0.000167372 -1.29121e-05 5.22745e-06 )  
( -0.000197858 -2.43328e-05 7.24481e-06 )  
( -7.56795e-05 -4.17381e-06 -1.35026e-05 )  
( -5.13245e-05 -5.56704e-06 -1.30658e-07 )  
( -0.000218591 -2.84889e-05 6.25212e-06 )  
( -0.000265401 -1.25245e-05 2.19568e-05 )  
( -4.86608e-05 5.13657e-06 -3.37591e-06 )  
( -3.64463e-05 6.24313e-06 7.13245e-07 )  
( -2.03691e-05 2.04511e-06 3.18384e-06 )  
( -1.3156e-05 1.53321e-06 -1.86022e-06 )  
( -6.3267e-05 -1.54418e-05 4.12096e-06 )  
( -0.000199663 -1.15947e-05 2.23197e-05 )  
( -3.93351e-05 7.57298e-06 -8.91358e-06 )  
( -0.000227859 -7.04401e-06 1.02929e-05 )  
( -0.000199464 5.9327e-06 3.72369e-05 )  
( -0.000209583 -3.60906e-06 5.64724e-06 )  
( -5.48463e-05 4.79528e-06 -8.27868e-06 )  
( -0.000106659 -8.02087e-06 -1.68913e-05 )  
( -5.99666e-05 -1.73575e-06 -1.25337e-05 )  
( -6.71538e-05 1.3751e-05 -4.20349e-06 )  
( -0.000154544 1.65585e-05 -1.65141e-06 )  
( -0.000213341 1.02504e-05 2.84454e-06 )  
( -2.63476e-05 6.1125e-06 -1.33352e-06 )  
( -0.000173027 4.04567e-06 1.2198e-05 )  
( -7.8213e-05 1.15606e-05 -1.58732e-05 )  
( -1.81885e-05 -2.43521e-06 -1.10953e-06 )  
( -0.000192172 4.69483e-06 9.55624e-06 )  
( -4.93725e-05 2.75524e-06 -4.08794e-06 )  
( -1.31998e-05 5.91165e-06 -7.65604e-06 )  
( -7.53192e-05 3.94538e-06 -2.31146e-05 )  
( -4.29376e-05 5.93137e-06 -1.85808e-05 )  
( -0.000123884 -1.02933e-05 -8.44278e-06 )  
( -0.000141064 -3.36981e-06 -3.98566e-06 )  
( -0.000181976 -4.77336e-06 2.52419e-05 )  
( -0.000215032 -6.09094e-06 7.58294e-06 )  
( -8.42773e-06 3.12881e-07 -2.27583e-06 )  
( -0.000265734 1.68113e-05 1.93422e-05 )  
( -7.47175e-05 1.68738e-06 -1.99858e-05 )  
( -0.000248429 4.10824e-06 1.51145e-05 )  
( -3.37006e-05 5.48062e-06 -6.16367e-06 )  
( -0.000262604 2.19237e-05 2.67246e-05 )  
( -8.66142e-06 1.97685e-06 -2.21957e-06 )  
( -0.000110307 1.96369e-05 6.04856e-06 )  
( -8.94253e-05 8.6483e-06 -1.54462e-05 )  
( -7.34554e-05 1.19121e-05 -1.43156e-05 )  
( -0.000133761 -2.38011e-06 -2.60768e-05 )  
( -1.85982e-05 -1.46051e-06 3.54181e-06 )  
( -0.000179243 -1.88515e-05 2.75302e-05 )  
( -0.000114329 2.38336e-05 -3.22158e-05 )  
( -0.000249707 1.33407e-05 2.58511e-05 )  
( -0.00010988 5.31555e-07 -1.4223e-06 )  
( -8.98999e-05 1.62669e-05 8.69322e-06 )  
( -2.5274e-05 7.89153e-06 -2.17521e-05 )  
( -0.000242404 -8.75212e-06 2.16834e-05 )  
( -0.000203747 2.68031e-05 1.35282e-05 )  
( -3.00376e-05 1.18416e-05 -5.6738e-06 )  
( -9.9758e-06 2.01992e-06 5.67551e-07 )  
( -4.63748e-05 1.52415e-05 -1.04365e-06 )  
( -4.34239e-05 7.98254e-06 -1.34872e-05 )  
( -0.00023202 -5.28596e-06 1.71706e-05 )  
( -9.24294e-06 8.17602e-07 -3.68853e-06 )  
( -0.000149934 7.85748e-05 -1.15603e-05 )  
( -7.75966e-05 8.11189e-06 -1.76358e-05 )  
( -0.000163752 9.25418e-06 1.35781e-06 )  
)
