/*--------------------------------*- C++ -*----------------------------------*\
| =========                 |                                                 |
| \\      /  F ield         | OpenFOAM: The Open Source CFD Toolbox           |
|  \\    /   O peration     | Version:  4.x                                   |
|   \\  /    A nd           | Web:      www.OpenFOAM.org                      |
|    \\/     M anipulation  |                                                 |
\*---------------------------------------------------------------------------*/
FoamFile
{
    version     2.0;
    format      ascii;
    class       volScalarField;
    location    "25";
    object      pSmooth;
}
// * * * * * * * * * * * * * * * * * * * * * * * * * * * * * * * * * * * * * //

dimensions      [1 -1 -2 0 0 0 0];

internalField   nonuniform List<scalar> 
108
(
34.1214
85.1382
23.3487
68.9267
11.7791
61.0715
6.80046
56.8824
0.1
35.1024
81.9752
22.3302
71.02
11.9429
61.7227
5.61739
57.9171
0.1
34.6376
83.871
20.8835
71.3081
12.2354
61.9536
4.20034
57.1056
0.1
34.492
81.9787
20.4854
71.3136
12.0539
62.6446
2.87901
60.1951
0.1
34.3744
83.2668
23.7069
71.4725
11.0782
62.7382
4.72208
55.3612
0.1
35.4412
81.6703
22.3452
72.1932
11.1334
63.9162
3.56587
58.3833
0.1
34.6556
82.1548
20.987
71.8997
11.4133
63.083
1.69439
56.7668
0.1
34.6221
81.2536
20.4892
71.7462
11.4972
63.8592
1.8929
61.4853
0.1
34.9516
103.475
19.2187
56.6797
11.342
55.9036
5.15266
46.2262
2.28911
32.4244
87.2348
21.3028
70.5369
11.1248
54.315
4.23878
50.9041
0.1
33.4792
91.8046
19.7544
69.376
11.2357
55.0313
5.01019
48.9558
3.38994
33.5198
84.5612
19.8391
70.9637
11.4332
59.2588
4.4769
54.0731
0.1
)
;

boundaryField
{
    inlet
    {
        type            zeroGradient;
    }
    outlet
    {
        type            fixedValue;
        value           uniform 0;
    }
    wall
    {
        type            zeroGradient;
    }
    procBoundary3to1
    {
        type            processor;
        value           nonuniform List<scalar> 
27
(
35.0421
81.1342
26.6881
71.15
11.1251
62.24
5.68372
56.6137
0.1
35.4864
82.6581
27.459
72.7373
10.4462
63.6798
4.22599
55.5846
0.1
32.3405
77.7999
24.521
69.7576
10.7871
55.9887
4.92851
49.3939
0.1
)
;
    }
    procBoundary3to2
    {
        type            processor;
        value           nonuniform List<scalar> 
12
(
92.5347
91.4708
91.8767
90.8311
91.4886
90.6396
90.8861
90.1244
97.7368
94.9716
95.0132
92.8709
)
;
    }
    procBoundary3to7
    {
        type            processor;
        value           nonuniform List<scalar> 
36
(
32.6829
87.4678
21.5642
70.4728
10.4795
62.2091
2.41599
47.8126
0.1
33.3543
82.1899
20.6948
72.0326
9.31932
62.9979
2.14307
54.7888
0.1
33.5844
82.6071
20.0519
71.5379
9.09467
62.0415
2.32944
54.2192
0.1
33.8654
81.4297
19.5712
71.7678
9.46984
63.3874
2.54649
58.8734
0.1
)
;
    }
}


// ************************************************************************* //
