/*--------------------------------*- C++ -*----------------------------------*\
| =========                 |                                                 |
| \\      /  F ield         | OpenFOAM: The Open Source CFD Toolbox           |
|  \\    /   O peration     | Version:  4.x                                   |
|   \\  /    A nd           | Web:      www.OpenFOAM.org                      |
|    \\/     M anipulation  |                                                 |
\*---------------------------------------------------------------------------*/
FoamFile
{
    version     2.0;
    format      ascii;
    class       volVectorField;
    location    "25";
    object      Us;
}
// * * * * * * * * * * * * * * * * * * * * * * * * * * * * * * * * * * * * * //

dimensions      [0 1 -1 0 0 0 0];

internalField   nonuniform List<vector> 
108
(
(-0.000715742 -0.000283899 2.92412e-05)
(-0.000651229 -0.000133603 4.26347e-05)
(-0.000635494 -7.0481e-05 8.90155e-06)
(-0.000582975 -7.16926e-05 6.27913e-05)
(-0.00053191 -4.09864e-06 0.000155856)
(-0.000420963 -3.56741e-05 0.00020201)
(-0.000337873 -1.45507e-05 0.000188787)
(-5.48161e-05 2.64036e-05 7.38097e-05)
(-5.86487e-05 5.97313e-06 5.34025e-05)
(-0.000665335 -0.000195518 -6.78257e-05)
(-0.000656509 -0.000175388 -5.53196e-05)
(-0.000594191 -0.000132125 -4.317e-05)
(-0.000490756 -8.09608e-05 6.59592e-05)
(-0.000446684 -6.86827e-05 0.00015815)
(-0.000365488 -7.87841e-05 0.00021147)
(-0.0003261 -6.31208e-05 0.000278392)
(-0.000291092 2.62793e-05 0.000190282)
(-0.000140387 -1.30996e-05 7.02315e-05)
(-0.000554689 -0.000104071 -6.84786e-05)
(-0.000531628 -0.000111779 -4.00727e-05)
(-0.000492754 -9.90636e-05 -2.18252e-05)
(-0.000419625 -7.84571e-05 1.81481e-05)
(-0.000360299 -6.14176e-05 0.000123669)
(-0.000267066 -0.000105991 0.000170663)
(-0.000294711 -0.000189556 0.000231382)
(-0.000258582 -0.000227979 0.000169153)
(-7.25101e-05 -0.000126174 3.75811e-05)
(-0.000303447 -8.69253e-05 -2.49053e-05)
(-0.000361982 -0.000110276 -2.03753e-05)
(-0.000280524 -0.000188736 1.97494e-05)
(-0.000201355 -4.43204e-05 -2.00108e-05)
(-0.000236082 -7.78734e-05 5.25681e-05)
(-0.000162566 -7.6004e-05 5.74084e-05)
(-9.42671e-05 -0.000172258 4.37203e-05)
(-7.34223e-05 -0.000105987 1.51901e-05)
(-4.4111e-05 -3.99563e-05 -2.15292e-05)
(-0.0006416 -0.000193008 3.89849e-05)
(-0.000586501 -0.000101303 2.17359e-05)
(-0.000577063 -6.64653e-05 1.49685e-05)
(-0.000550793 -4.03282e-05 8.37535e-05)
(-0.000473358 -1.68673e-05 0.000134793)
(-0.000396958 -4.65728e-05 0.000171085)
(-0.000273407 -4.20996e-05 0.000149345)
(-0.000148432 -2.23424e-05 7.02486e-05)
(-5.21581e-05 -3.68845e-06 4.71543e-05)
(-0.000605366 -0.000146225 -4.02959e-05)
(-0.000611575 -0.000115344 -5.4315e-05)
(-0.000569364 -9.00189e-05 -3.53702e-05)
(-0.000527249 -6.03177e-05 5.20286e-05)
(-0.00046207 -8.18893e-05 0.000130725)
(-0.000368604 -6.29475e-05 0.000153352)
(-0.000334662 -0.000133967 0.000191087)
(-0.000170194 -3.86441e-05 0.000103858)
(-4.93686e-05 -2.92921e-05 4.54819e-05)
(-0.000540741 -0.000160176 -6.919e-05)
(-0.000504327 -0.000100458 -4.36428e-05)
(-0.00049095 -7.83953e-05 -3.96522e-05)
(-0.000419812 -7.71359e-05 6.15098e-06)
(-0.000359537 -4.92164e-05 5.87757e-05)
(-0.000314884 -4.91533e-05 0.000100034)
(-0.000265866 -9.30617e-05 0.000160131)
(-0.000148403 -7.32544e-05 0.000116556)
(-5.91464e-05 -4.58079e-05 1.83766e-05)
(-0.000293745 -7.89105e-05 -5.25589e-05)
(-0.000393097 -9.41744e-05 -5.38066e-05)
(-0.000265762 -4.82706e-05 -2.71655e-05)
(-0.000245096 -5.99868e-05 -1.77642e-05)
(-0.00019788 -4.13297e-05 1.77648e-05)
(-0.000147683 -3.11209e-05 3.25299e-05)
(-0.000107029 -4.01994e-05 3.32604e-05)
(-8.6056e-05 -4.61404e-05 7.55671e-06)
(-2.74176e-05 -1.33718e-05 -1.37894e-05)
(-0.000468189 -7.85387e-05 3.77295e-05)
(-0.000481776 -4.90127e-05 4.05659e-05)
(-0.000477273 -1.77525e-05 1.04723e-05)
(-0.000440238 -2.69216e-05 4.45116e-05)
(-0.000379855 -3.34279e-05 6.62861e-05)
(-0.000263774 -3.65347e-05 9.16034e-05)
(-0.000205345 -1.72607e-05 8.61515e-05)
(-0.000113541 9.57959e-07 4.53572e-05)
(-5.92257e-05 2.59739e-06 2.59547e-05)
(-0.000475031 -7.86225e-05 -1.2369e-05)
(-0.000501717 -6.30364e-05 -2.43587e-05)
(-0.000453702 -5.24733e-05 -2.27537e-05)
(-0.000403753 -2.8625e-05 4.96586e-05)
(-0.000349886 -2.88038e-05 6.07453e-05)
(-0.000281617 -6.80539e-05 8.07019e-05)
(-0.000195065 -3.28534e-05 6.71365e-05)
(-0.000128995 -9.57056e-06 5.10336e-05)
(-6.04192e-05 -5.87659e-06 2.37264e-05)
(-0.000431033 -3.61358e-05 -5.29113e-05)
(-0.000419525 -4.12491e-05 -1.47988e-05)
(-0.000415221 -6.90144e-05 -3.97415e-05)
(-0.000335535 -7.97931e-05 2.65853e-06)
(-0.000272737 -5.2733e-05 4.6325e-05)
(-0.00025053 -5.69501e-05 4.57231e-05)
(-0.000226203 -4.86947e-05 8.28595e-05)
(-9.64007e-05 -8.76845e-06 4.38628e-05)
(-3.4271e-05 -7.17051e-06 8.15958e-06)
(-0.000270706 1.33654e-06 -6.93406e-05)
(-0.000265231 -1.1995e-05 -4.05796e-05)
(-0.000271228 -4.61937e-05 -3.03574e-05)
(-0.000178287 -3.7909e-05 -1.50048e-05)
(-0.000181103 -2.13341e-05 2.03883e-05)
(-0.000130725 -1.60338e-05 2.19818e-05)
(-0.000104677 -1.10413e-05 2.47103e-05)
(-5.39034e-05 -1.95252e-05 1.30892e-05)
(-2.13807e-05 -7.09884e-06 -3.24046e-06)
)
;

boundaryField
{
    inlet
    {
        type            zeroGradient;
    }
    outlet
    {
        type            zeroGradient;
    }
    wall
    {
        type            zeroGradient;
    }
    procBoundary3to1
    {
        type            processor;
        value           nonuniform List<vector> 
27
(
(-0.000565215 -0.000148946 6.02321e-05)
(-0.000643204 -3.25568e-05 5.51171e-05)
(-0.000684155 3.86295e-05 2.83659e-06)
(-0.000545367 4.32752e-05 4.3774e-05)
(-0.000474618 6.87459e-05 5.15164e-05)
(-0.000368233 5.60115e-05 0.000113207)
(-0.000297914 1.40881e-05 0.000153537)
(-0.000134691 6.08639e-05 8.78505e-05)
(-7.06453e-05 2.78435e-05 4.8039e-05)
(-0.00053365 -9.47055e-05 6.63942e-05)
(-0.000544658 -6.02862e-05 5.32614e-05)
(-0.000546218 -4.18858e-05 1.80237e-05)
(-0.000473524 2.06284e-05 2.17599e-05)
(-0.00044331 4.10297e-05 4.36766e-05)
(-0.000347327 2.7077e-05 7.62007e-05)
(-0.000239527 -4.37801e-06 0.000129007)
(-0.000156227 4.58212e-06 5.83846e-05)
(-5.30403e-05 7.91264e-06 4.31962e-05)
(-0.000418662 -6.00568e-05 5.855e-05)
(-0.00041975 -4.95907e-05 3.93535e-05)
(-0.000386903 -8.03567e-06 1.74577e-05)
(-0.000355317 -1.48546e-05 1.84155e-05)
(-0.000332478 3.16358e-06 2.8501e-05)
(-0.000241093 1.01175e-05 6.51725e-05)
(-0.000148562 -1.62759e-05 5.39146e-05)
(-0.000100421 7.73759e-07 3.5903e-05)
(-5.55747e-05 9.98904e-06 2.11294e-05)
)
;
    }
    procBoundary3to2
    {
        type            processor;
        value           nonuniform List<vector> 
12
(
(-0.000765612 -0.000234133 4.0066e-05)
(-0.000715105 -0.000186987 -2.88544e-05)
(-0.000633418 -0.000120631 -7.93834e-05)
(-0.000399714 -1.62983e-05 -5.11809e-05)
(-0.000596889 -0.000130069 5.66362e-05)
(-0.000613597 -0.000141334 -4.61614e-06)
(-0.000571813 -0.000132597 -6.29964e-05)
(-0.000210671 -3.26521e-05 -5.06258e-05)
(-0.00046688 -8.46425e-05 8.34421e-05)
(-0.000472102 -8.66962e-05 6.25015e-06)
(-0.000405869 -8.72513e-05 -6.6852e-05)
(-0.000235936 -7.27888e-05 -6.75002e-05)
)
;
    }
    procBoundary3to7
    {
        type            processor;
        value           nonuniform List<vector> 
36
(
(-0.000318318 -2.96089e-05 4.69743e-05)
(-0.000345857 -3.26061e-05 2.11447e-05)
(-0.000342572 -3.60168e-05 6.8184e-06)
(-0.000328506 -5.57406e-05 1.95244e-05)
(-0.000276955 -2.1222e-05 2.52607e-05)
(-0.000186794 -2.62048e-06 5.98911e-05)
(-0.000135749 -1.36617e-05 3.97834e-05)
(-8.78014e-05 -2.05814e-06 2.66695e-05)
(-3.04298e-05 6.3853e-06 8.90551e-06)
(-0.000314455 -8.17754e-06 -1.00802e-05)
(-0.000347756 -4.30916e-05 -1.90838e-05)
(-0.00032527 -3.16673e-05 -2.00428e-05)
(-0.000324965 -4.75909e-05 1.40672e-06)
(-0.000256832 -3.59699e-05 3.93893e-05)
(-0.000212381 -3.06364e-05 4.06189e-05)
(-0.000154195 -2.42133e-05 3.70371e-05)
(-0.000106339 -1.19741e-05 2.29156e-05)
(-4.63512e-05 2.47793e-06 1.01168e-05)
(-0.00023303 -3.4797e-06 -3.54841e-05)
(-0.000292374 -3.02966e-05 -4.25776e-05)
(-0.000274308 -3.28058e-05 -3.50011e-05)
(-0.000242666 -3.97399e-05 -1.85028e-05)
(-0.000220827 -2.82607e-05 3.23389e-05)
(-0.000172033 -3.40011e-05 1.67982e-05)
(-0.000141036 -1.87589e-05 7.77458e-06)
(-9.28768e-05 -1.72595e-05 1.71702e-05)
(-3.92155e-05 -6.36111e-06 4.50949e-06)
(-0.000168225 2.52465e-05 -1.91048e-05)
(-0.000200171 -7.71832e-06 -5.96562e-05)
(-0.000182459 -3.31217e-05 -2.62317e-05)
(-0.000151446 -1.60754e-05 -2.05702e-05)
(-0.000139027 -1.18082e-05 -5.21413e-06)
(-0.000109062 -9.962e-07 2.32902e-06)
(-8.06512e-05 -8.97957e-06 1.12774e-05)
(-4.87104e-05 -1.02152e-05 2.19172e-06)
(-1.617e-05 -2.84921e-06 -3.76199e-06)
)
;
    }
}


// ************************************************************************* //
