/*--------------------------------*- C++ -*----------------------------------*\
| =========                 |                                                 |
| \\      /  F ield         | OpenFOAM: The Open Source CFD Toolbox           |
|  \\    /   O peration     | Version:  4.x                                   |
|   \\  /    A nd           | Web:      www.OpenFOAM.org                      |
|    \\/     M anipulation  |                                                 |
\*---------------------------------------------------------------------------*/
FoamFile
{
    version     2.0;
    format      ascii;
    class       volScalarField;
    location    "10";
    object      Cs;
}
// * * * * * * * * * * * * * * * * * * * * * * * * * * * * * * * * * * * * * //

dimensions      [1 -3 0 0 0 0 0];

internalField   nonuniform List<scalar> 
114
(
334.781
334.795
334.809
334.866
334.889
335.26
335.005
335.042
335.089
335.101
335.136
335.117
335.23
334.987
335.034
335.082
335.125
335.158
335.175
335.175
335.219
334.901
334.882
334.876
334.872
334.888
334.901
334.942
334.968
335.042
334.984
335.028
335.08
335.105
335.14
335.126
335.143
335.107
335.166
334.978
335.019
335.061
335.097
335.132
335.149
335.155
335.136
335.184
334.971
335.01
334.931
334.921
334.918
334.916
334.925
334.93
334.952
334.959
335.4
334.972
335.004
335.038
335.054
335.07
335.056
335.071
335.047
335.185
334.964
334.99
335.019
335.041
335.068
335.08
335.109
335.102
335.208
334.959
334.99
335.031
335.061
334.931
334.923
334.917
334.914
334.915
334.915
334.924
334.926
338.075
334.933
334.929
334.928
334.929
334.933
334.938
334.947
334.953
335.181
334.931
334.925
334.923
334.923
334.928
334.935
334.952
334.966
335.264
334.929
334.926
334.927
334.931
334.941
334.953
)
;

boundaryField
{
    inlet
    {
        type            calculated;
        value           nonuniform 0();
    }
    outlet
    {
        type            calculated;
        value           uniform 335;
    }
    wall
    {
        type            calculated;
        value           nonuniform List<scalar> 
66
(
334.931
334.933
334.931
334.929
334.923
334.929
334.925
334.926
334.917
334.928
334.923
334.927
334.914
334.929
334.923
334.931
334.915
334.933
334.928
334.941
334.915
334.938
334.935
334.953
334.924
334.947
334.952
334.926
334.953
334.966
338.075
335.181
335.264
334.901
334.931
334.931
334.882
334.921
334.923
334.876
334.918
334.917
334.781
334.872
334.916
334.914
334.795
334.888
334.925
334.915
334.809
334.901
334.93
334.915
334.866
334.942
334.952
334.924
334.889
334.968
334.959
334.926
335.26
335.042
335.4
338.075
)
;
    }
    procBoundary5to1
    {
        type            processor;
        value           nonuniform List<scalar> 
32
(
334.687
334.715
334.741
334.819
334.857
335.786
334.975
335.037
335.095
335.12
335.16
335.145
335.34
334.967
335.035
335.098
335.152
335.188
335.206
335.203
335.269
334.844
334.811
334.793
334.793
334.793
334.922
334.958
334.958
334.958
334.945
334.945
)
;
    }
    procBoundary5to4
    {
        type            processor;
        value           nonuniform List<scalar> 
12
(
334.919
334.947
334.947
334.941
334.942
334.951
334.947
334.94
334.942
334.941
334.938
334.936
)
;
    }
    procBoundary5to7
    {
        type            processor;
        value           nonuniform List<scalar> 
44
(
334.954
334.995
335.039
335.081
335.115
335.124
335.113
335.083
334.918
334.954
335.051
335.093
335.129
335.126
335.086
335.056
335.051
334.992
335.051
335.028
335.051
335.093
335.097
335.117
335.141
335.132
335.23
334.967
334.989
335.016
335.097
335.04
335.097
335.117
334.975
334.993
335.62
334.925
334.922
334.929
334.948
334.979
334.975
335.01
)
;
    }
}


// ************************************************************************* //
