/*--------------------------------*- C++ -*----------------------------------*\
| =========                 |                                                 |
| \\      /  F ield         | OpenFOAM: The Open Source CFD Toolbox           |
|  \\    /   O peration     | Version:  4.x                                   |
|   \\  /    A nd           | Web:      www.OpenFOAM.org                      |
|    \\/     M anipulation  |                                                 |
\*---------------------------------------------------------------------------*/
FoamFile
{
    version     2.0;
    format      ascii;
    class       volVectorField;
    location    "10";
    object      GField;
}
// * * * * * * * * * * * * * * * * * * * * * * * * * * * * * * * * * * * * * //

dimensions      [1 -2 -1 0 0 0 0];

internalField   nonuniform List<vector> 
114
(
(121.204 3.17597 14.1238)
(65.2114 -2.07799 6.98072)
(137.643 7.62338 12.6415)
(58.9037 -11.1431 -3.8291)
(172.868 14.2082 8.25277)
(33.9151 -52.8346 -52.823)
(23.1722 -0.368138 -2.06124)
(96.2139 1.524 -3.00201)
(24.9397 -2.64963 -5.48753)
(98.4747 3.90602 -4.96587)
(27.0826 -11.8792 -10.6606)
(94.073 11.4112 -3.51637)
(27.6939 -63.1617 -29.0085)
(89.2575 0.12502 0.531847)
(14.803 -1.88566 -2.28193)
(90.8655 0.114369 -3.68541)
(13.4895 -3.30732 -4.22839)
(90.7831 0.743963 -5.67123)
(12.1481 -5.74297 -5.69229)
(82.5508 5.46379 -0.892234)
(15.7706 -12.6582 -9.39476)
(47.4516 -1.18089 2.27526)
(100.659 0.347609 6.95326)
(49.0073 -0.768184 4.44579)
(106.062 3.66938 9.66047)
(46.7099 -2.12427 4.14255)
(108.373 8.14465 9.54596)
(34.8831 -5.63938 1.11495)
(96.5574 13.851 6.7223)
(14.96 -7.00695 -7.08719)
(2.99133 -0.286836 -0.11206)
(82.7274 0.864373 -1.15385)
(0.831672 -0.118036 -0.131972)
(82.2436 3.05859 -2.31053)
(1.00299 -0.249235 -0.257882)
(77.2019 6.4569 -1.04712)
(4.45759 -2.15211 -1.46209)
(62.238 12.3945 1.20678)
(12.6282 -9.45129 -6.22036)
(1.62389 -0.265155 -0.0795363)
(79.5828 0.429878 -1.24821)
(0.828653 -0.206343 -0.138482)
(77.8832 0.843776 -3.34284)
(0.603669 -0.211663 -0.169588)
(74.2243 1.18224 -3.03955)
(3.49671 -1.50594 -1.03729)
(65.4232 6.44606 -2.0986)
(23.0401 -7.77344 -6.15623)
(-0.000213042 -2.02893e-05 6.64166e-05)
(75.0057 -0.0511176 -1.45299)
(54.9805 -1.73719 3.22426)
(106.103 -0.181808 5.98908)
(58.4148 -2.177 5.79522)
(115.974 3.02415 7.44739)
(59.9577 -5.16654 9.42768)
(131.1 7.05333 7.47889)
(54.5943 -14.2463 18.9399)
(158.004 14.8604 -0.625008)
(31.5434 -49.0391 39.4349)
(16 -0.570098 0.473063)
(86.4118 -0.149701 0.692386)
(12.7767 -0.957353 -0.12796)
(89.808 1.50651 -2.50912)
(12.7786 -2.38982 0.0660328)
(92.9394 5.02067 -4.03437)
(19.3689 -9.38769 3.16136)
(89.9231 13.0815 -7.27531)
(30.0353 -53.5001 15.9847)
(17.5957 -1.72968 1.55192)
(86.6533 -1.24568 0.437769)
(13.8666 -2.49333 1.25589)
(88.4847 0.337987 -2.69398)
(10.9984 -3.52482 1.44784)
(89.9968 0.551212 -6.00605)
(12.684 -7.77825 3.69654)
(84.2281 6.75475 -12.6392)
(18.6662 -16.8404 7.96623)
(7.1615 -0.257633 0.943293)
(76.1968 -0.366969 0.404671)
(-0.000139716 -2.70018e-05 4.33588e-05)
(72.2429 -0.2497 -2.94424)
(65.1934 -0.934949 0.331496)
(111.885 0.918745 1.80413)
(70.292 -1.20988 -0.397101)
(122.747 2.79568 1.17817)
(73.3282 -4.63225 -1.18517)
(144.11 5.30713 0.0773835)
(71.4654 -15.8283 0.486517)
(200.437 9.51024 -1.29786)
(48.9754 -72.6408 0.941115)
(58.7803 -1.27111 0.68412)
(104.516 -0.320788 1.31456)
(61.6556 -2.43708 -1.20376)
(109.127 0.353028 -1.86163)
(60.0681 -6.51143 -2.68088)
(113.139 1.25301 -3.90477)
(56.5337 -19.3546 -2.02634)
(115.707 8.18475 -4.60595)
(47.1409 -81.89 2.17397)
(53.94 -2.82719 0.298573)
(101.943 -1.93226 0.893459)
(55.6296 -5.2099 -0.83154)
(105.097 -2.1885 -0.914562)
(52.6989 -8.95936 -1.58726)
(105.618 -1.61457 -2.75369)
(42.5345 -14.5373 -1.47664)
(100.321 4.27541 -1.89092)
(25.7834 -19.0002 -1.19285)
(50.5835 -2.08683 2.20183)
(95.957 -2.63219 2.26549)
(50.081 -3.18315 1.5386)
(93.7393 -2.50712 -1.34715)
(43.0104 -4.71112 1.11168)
(87.4035 0.260131 -1.76778)
)
;

boundaryField
{
    inlet
    {
        type            calculated;
        value           nonuniform 0();
    }
    outlet
    {
        type            calculated;
        value           nonuniform List<vector> 
12
(
(74.3573 -115.837 -115.812)
(60.8452 -138.77 -63.7334)
(34.7841 -27.9191 -20.7213)
(32.8352 -15.3794 -15.5555)
(27.8638 -20.854 -13.725)
(50.9087 -17.176 -13.6026)
(69.3405 -107.8 86.688)
(66.1644 -117.855 35.2126)
(41.597 -37.5283 17.7525)
(106.541 -158.023 2.04731)
(103.738 -180.206 4.78401)
(57.0923 -42.0722 -2.64134)
)
;
    }
    wall
    {
        type            calculated;
        value           uniform (0 0 0);
    }
    procBoundary5to1
    {
        type            processor;
        value           nonuniform List<vector> 
32
(
(117.807 1.1347 18.2867)
(63.6551 -2.96994 13.5561)
(131.174 5.50321 17.5766)
(57.7695 -10.2754 10.743)
(170.729 11.0994 10.6133)
(38.2999 -55.3625 -25.967)
(17.4916 -1.75792 0.200054)
(92.8802 -0.468902 -1.21469)
(19.1758 -3.57938 -1.80072)
(94.4825 2.27823 -2.99011)
(24.5117 -12.3529 -3.63543)
(92.9142 9.37359 -3.75736)
(33.6322 -72.5154 -15.8455)
(85.493 0.348573 0.106479)
(2.29315 -0.203052 -0.167698)
(85.04 1.59648 -3.50189)
(-5.74914e-05 1.27297e-06 3.42806e-05)
(81.4258 1.05358 -4.35841)
(-3.47135e-05 -1.39087e-05 4.20752e-05)
(72.4488 2.38954 -5.64805)
(3.97348 -0.888481 -1.0055)
(58.7354 -1.17831 4.89346)
(111.472 -0.403755 10.7475)
(63.7394 -0.0433108 8.39071)
(63.7394 -0.0433108 8.39071)
(63.7394 -0.0433108 8.39071)
(22.1327 -0.312829 0.234877)
(91.934 -0.303809 0.420718)
(91.934 -0.303809 0.420718)
(91.934 -0.303809 0.420718)
(15.8244 -1.12499 -0.408831)
(15.8244 -1.12499 -0.408831)
)
;
    }
    procBoundary5to4
    {
        type            processor;
        value           nonuniform List<vector> 
12
(
(95.9242 -1.89058 2.76353)
(82.1609 -1.14103 1.22832)
(80.1556 -0.144812 1.41714)
(76.6635 0.170717 1.3324)
(100.253 -2.24957 4.21888)
(85.4853 -1.24854 3.87814)
(85.5825 -0.8948 3.71696)
(79.1249 -0.523601 3.73357)
(104.582 -0.886679 1.70689)
(99.8742 -0.898334 2.96179)
(97.6708 -1.172 2.21053)
(94.3823 -1.96183 3.29741)
)
;
    }
    procBoundary5to7
    {
        type            processor;
        value           nonuniform List<vector> 
44
(
(84.8149 0.139523 0.222121)
(16.8092 0.231266 -3.80718)
(82.058 0.344019 -3.80624)
(13.0849 0.313766 -5.82777)
(73.9753 1.12595 -4.63064)
(8.92352 0.818667 -6.336)
(56.1896 0.758579 3.40484)
(11.6554 2.39845 -10.9547)
(16.6709 -0.0680975 -1.04139)
(84.8149 0.139523 0.222121)
(-0.000147526 -2.2415e-05 8.00504e-05)
(71.4138 0.186427 -1.63267)
(-6.05321e-05 -1.54307e-06 1.33661e-05)
(65.1084 1.35815 -1.98004)
(-6.12037e-06 -1.80457e-06 -9.23403e-06)
(54.344 1.27834 3.11268)
(17.2175 0.97989 -7.53282)
(2.4255 0.29068 -0.216479)
(-0.000147526 -2.2415e-05 8.00504e-05)
(79.4509 -0.655074 -1.77697)
(-0.000147526 -2.2415e-05 8.00504e-05)
(71.4138 0.186427 -1.63267)
(-5.56534e-05 -1.51336e-05 1.43333e-05)
(67.5353 0.312506 -4.01766)
(-4.90028e-06 -1.07043e-05 -5.27461e-06)
(56.7493 3.49701 -6.02608)
(15.4568 -2.31934 -0.601091)
(11.8387 0.768677 0.48621)
(84.4834 1.05257 -1.7122)
(8.45187 1.02754 -0.0321896)
(-5.56534e-05 -1.51336e-05 1.43333e-05)
(86.5884 -0.982396 -4.92067)
(-5.56534e-05 -1.51336e-05 1.43333e-05)
(67.5353 0.312506 -4.01766)
(35.5112 -8.74086 2.41601)
(77.4319 7.71928 -2.19715)
(32.5602 -15.7134 -0.049739)
(36.2698 0.386846 -0.392694)
(90.8842 -0.586402 -0.867269)
(28.4481 0.59769 -1.53782)
(87.1885 -1.34227 -2.37633)
(16.3441 0.941311 -1.89069)
(35.5112 -8.74086 2.41601)
(80.2669 -2.10907 -1.80377)
)
;
    }
}


// ************************************************************************* //
