/*--------------------------------*- C++ -*----------------------------------*\
| =========                 |                                                 |
| \\      /  F ield         | OpenFOAM: The Open Source CFD Toolbox           |
|  \\    /   O peration     | Version:  4.x                                   |
|   \\  /    A nd           | Web:      www.OpenFOAM.org                      |
|    \\/     M anipulation  |                                                 |
\*---------------------------------------------------------------------------*/
FoamFile
{
    version     2.0;
    format      ascii;
    class       volVectorField;
    location    "10";
    object      Us;
}
// * * * * * * * * * * * * * * * * * * * * * * * * * * * * * * * * * * * * * //

dimensions      [0 1 -1 0 0 0 0];

internalField   nonuniform List<vector> 
114
(
(-3.59332e-08 3.94551e-09 1.23148e-08)
(-2.43958e-08 3.34226e-09 5.88309e-09)
(-1.94463e-08 4.39476e-10 8.55448e-09)
(-8.2682e-09 -7.32343e-10 8.46873e-09)
(-7.3512e-09 1.39987e-10 8.64673e-09)
(-1.29844e-08 1.17589e-08 3.84609e-11)
(-5.25004e-08 3.45143e-09 3.47544e-08)
(-4.56097e-08 4.1656e-09 2.52522e-08)
(-3.5591e-08 7.20505e-10 1.45517e-08)
(-2.21799e-08 8.60107e-10 7.75948e-09)
(-1.5174e-08 -1.80635e-09 1.10567e-08)
(-8.46268e-09 1.67766e-09 1.2958e-08)
(-6.06842e-09 6.95198e-09 9.8279e-09)
(-6.30197e-08 -5.97139e-09 3.98553e-08)
(-5.50122e-08 -7.22486e-10 3.59728e-08)
(-4.31421e-08 1.57214e-09 2.68754e-08)
(-3.66145e-08 5.69057e-10 1.38483e-08)
(-2.70416e-08 1.62725e-09 6.51241e-09)
(-1.7891e-08 -2.29804e-10 5.17141e-09)
(-1.04665e-08 3.50656e-09 1.10628e-08)
(-3.4238e-09 5.65741e-09 7.97154e-09)
(-5.22369e-08 3.24568e-09 4.36287e-09)
(-5.08047e-08 -6.16764e-09 4.8538e-09)
(-4.72085e-08 -5.47052e-09 1.03655e-08)
(-4.22651e-08 3.59245e-11 7.59676e-09)
(-2.96972e-08 2.47201e-11 1.37206e-10)
(-1.45374e-08 2.63313e-10 6.21078e-09)
(-8.91544e-09 7.01814e-10 5.35784e-09)
(-5.94604e-09 5.32383e-10 6.55957e-09)
(-2.42755e-09 2.09544e-09 7.1476e-09)
(-7.81652e-08 -1.63232e-08 8.80856e-09)
(-8.07356e-08 -2.8759e-08 1.42674e-08)
(-5.57558e-08 -9.73532e-09 2.1586e-08)
(-5.07481e-08 -1.648e-09 1.63049e-08)
(-3.62216e-08 -6.33076e-09 9.86955e-09)
(-2.19674e-08 -2.27761e-09 5.90895e-09)
(-1.79625e-08 1.40205e-09 6.77247e-09)
(-1.07727e-08 5.26706e-09 6.24736e-09)
(-6.31706e-09 3.28128e-09 5.47456e-09)
(-8.13774e-08 -1.17312e-08 1.45153e-08)
(-6.76469e-08 -9.30276e-09 2.57138e-08)
(-5.7246e-08 -1.03823e-08 2.88606e-08)
(-4.50226e-08 -2.09783e-09 2.11395e-08)
(-3.26368e-08 -1.8918e-09 1.00946e-08)
(-2.30282e-08 -1.80532e-09 5.01866e-09)
(-1.51362e-08 1.15889e-09 3.28947e-09)
(-6.49262e-09 2.83051e-09 9.6274e-10)
(-1.12078e-09 1.42511e-09 3.81389e-10)
(-7.95104e-08 -7.04272e-09 2.19265e-08)
(-7.28812e-08 -5.78531e-09 2.92275e-08)
(-4.94565e-08 1.99739e-09 6.96973e-09)
(-5.05042e-08 -4.37666e-09 4.27878e-09)
(-4.92866e-08 -7.4608e-09 8.69202e-09)
(-5.13338e-08 -1.20211e-08 1.79693e-08)
(-3.59868e-08 -3.09661e-09 1.00338e-09)
(-1.71672e-08 9.71372e-10 4.32384e-09)
(-5.9919e-09 -5.21376e-11 3.36559e-09)
(-1.61601e-09 -1.51121e-09 4.77093e-09)
(-5.28979e-09 1.27633e-09 1.44945e-08)
(-6.62354e-08 -9.4133e-10 1.47513e-09)
(-6.30868e-08 -8.66561e-09 4.65983e-09)
(-5.6625e-08 -1.29779e-08 1.67314e-08)
(-1.57446e-07 -5.04579e-08 1.38285e-08)
(-3.28955e-08 -5.13641e-09 4.78806e-09)
(-1.8506e-08 -3.64342e-09 5.87653e-09)
(-7.74658e-09 -1.53156e-09 4.05092e-09)
(-4.61806e-09 -2.75909e-09 3.65284e-09)
(-1.23266e-10 -4.39813e-09 1.78794e-09)
(-7.62132e-08 -7.48681e-09 6.50369e-09)
(-7.55906e-08 -1.31526e-08 1.06437e-08)
(-5.40123e-08 -1.50494e-08 2.07207e-08)
(-4.37936e-08 -9.50726e-09 1.64621e-08)
(-2.71624e-08 -4.89594e-09 6.9894e-09)
(-1.85439e-08 -4.78948e-09 2.34974e-09)
(-7.49783e-09 -2.58512e-09 -1.05245e-10)
(-2.43852e-09 -1.05552e-09 -2.55312e-09)
(-1.23145e-09 -2.2901e-09 -4.14296e-09)
(-7.4036e-08 -3.42142e-09 3.65656e-09)
(-6.77599e-08 -6.59945e-09 1.15397e-08)
(-5.64341e-08 -8.60259e-09 1.30282e-08)
(-4.11403e-08 -7.2847e-09 1.2249e-08)
(-2.45012e-08 5.63407e-09 3.88359e-09)
(-3.59361e-08 -7.60223e-10 2.03412e-09)
(-2.41343e-08 4.84671e-09 2.44319e-09)
(-3.2615e-08 -8.80531e-09 1.05715e-08)
(-2.61776e-08 -1.07631e-09 8.10456e-11)
(-8.89991e-09 9.34253e-11 2.86812e-09)
(-2.29222e-09 -7.73433e-10 1.22304e-09)
(5.54651e-10 -5.25163e-09 5.35296e-09)
(-3.15719e-09 -1.40268e-08 1.30987e-08)
(-5.27158e-08 7.20417e-09 2.69646e-09)
(-5.45959e-08 -2.85269e-09 -8.1992e-10)
(-1.14642e-07 1.73143e-08 2.65768e-08)
(-2.71381e-07 -7.76404e-08 1.10327e-08)
(-3.16892e-08 -3.7368e-09 4.55209e-09)
(-9.54989e-09 -1.31589e-09 2.132e-09)
(-4.59634e-09 -2.75975e-09 3.0778e-09)
(5.18853e-11 -9.20413e-09 9.0469e-10)
(-1.64276e-10 -2.22526e-08 -2.53659e-09)
(-5.60554e-08 3.72603e-10 8.70152e-10)
(-5.18723e-08 -7.41872e-09 5.56534e-09)
(-3.78114e-08 -4.51356e-10 7.55458e-09)
(-7.38232e-08 -7.76304e-09 1.0865e-08)
(-2.01678e-08 -7.29967e-09 2.00434e-09)
(-1.20352e-08 -3.73586e-09 2.93554e-10)
(-6.00914e-09 -3.17569e-09 -1.29982e-09)
(-2.17388e-09 -3.42484e-09 -2.58965e-09)
(1.15016e-09 -6.50908e-09 -4.96042e-09)
(-4.81658e-08 -7.97973e-09 3.92377e-09)
(-4.21919e-08 -1.12748e-08 3.55377e-09)
(-5.31501e-08 -1.15862e-08 2.90626e-09)
(-2.76832e-08 -1.19192e-09 5.74887e-09)
(-1.84323e-08 -5.05278e-09 2.16525e-09)
(-1.22746e-08 -4.90348e-09 -2.51405e-09)
)
;

boundaryField
{
    inlet
    {
        type            zeroGradient;
    }
    outlet
    {
        type            zeroGradient;
    }
    wall
    {
        type            zeroGradient;
    }
    procBoundary5to1
    {
        type            processor;
        value           nonuniform List<vector> 
32
(
(-1.39115e-08 2.46835e-09 1.60108e-08)
(-6.74021e-09 6.58849e-09 7.12388e-09)
(-7.78108e-09 6.28696e-10 8.86112e-09)
(-2.3748e-09 -3.02264e-09 9.82827e-09)
(8.8632e-09 -5.15506e-09 1.7925e-08)
(-4.58884e-09 -1.48334e-08 2.39293e-08)
(-4.17982e-08 1.86894e-09 5.14298e-08)
(-2.78868e-08 4.17168e-09 2.80373e-08)
(-1.48625e-08 2.08136e-09 4.4084e-09)
(-7.32258e-09 4.1259e-09 6.46386e-09)
(-9.8593e-09 -3.76011e-09 1.72521e-08)
(-6.53644e-09 7.26719e-09 2.67975e-08)
(-9.19198e-10 -2.82015e-09 2.2904e-08)
(-4.16805e-08 1.69854e-09 5.32951e-08)
(-3.83064e-08 4.08257e-09 6.12168e-08)
(-3.97437e-08 2.16245e-09 3.30459e-08)
(-2.82379e-08 1.59416e-09 1.2919e-08)
(-2.52213e-08 3.92169e-09 3.71807e-09)
(-1.78736e-08 -2.46017e-09 1.61374e-08)
(-1.13684e-08 3.46392e-09 2.09855e-08)
(-1.06756e-08 -2.968e-09 2.27475e-08)
(-4.6646e-08 -2.36389e-09 6.9493e-09)
(-3.6684e-08 -8.31289e-09 8.29911e-09)
(-3.22522e-08 -9.01443e-10 1.48318e-08)
(-3.22522e-08 -9.01443e-10 1.48318e-08)
(-3.22522e-08 -9.01443e-10 1.48318e-08)
(-7.05282e-08 -2.90399e-09 1.55754e-08)
(-6.22885e-08 -4.20796e-09 2.98057e-08)
(-6.22885e-08 -4.20796e-09 2.98057e-08)
(-6.22885e-08 -4.20796e-09 2.98057e-08)
(-7.61293e-08 -8.98096e-09 2.41434e-08)
(-7.61293e-08 -8.98096e-09 2.41434e-08)
)
;
    }
    procBoundary5to4
    {
        type            processor;
        value           nonuniform List<vector> 
12
(
(-4.16981e-08 1.28018e-09 -2.67366e-09)
(-6.87181e-08 -6.48232e-09 3.65561e-09)
(-7.49794e-08 -8.87704e-09 3.97574e-09)
(-7.78898e-08 -4.84269e-09 1.31494e-08)
(-3.93567e-08 -1.92133e-09 -5.76802e-11)
(-5.53073e-08 -6.6191e-09 3.92497e-09)
(-7.11102e-08 -1.09183e-08 -2.1093e-10)
(-6.97786e-08 -6.52449e-09 3.95002e-09)
(-2.20203e-08 -4.25392e-09 7.60108e-10)
(-3.75769e-08 -3.4958e-09 4.64909e-09)
(-4.73093e-08 -1.01642e-08 -1.83967e-09)
(-5.62656e-08 -6.31909e-09 1.91281e-09)
)
;
    }
    procBoundary5to7
    {
        type            processor;
        value           nonuniform List<vector> 
44
(
(-6.75428e-08 -5.76064e-09 4.25579e-08)
(-5.51414e-08 -1.54476e-09 4.55414e-08)
(-4.66673e-08 7.63211e-11 2.3732e-08)
(-3.50408e-08 1.66821e-09 1.45379e-08)
(-2.10534e-08 2.399e-09 7.54097e-09)
(-1.48255e-08 1.19312e-10 5.32629e-09)
(-6.3334e-09 1.68432e-09 7.13108e-09)
(5.72571e-10 3.40227e-09 9.39287e-09)
(-7.23821e-08 -7.30053e-09 3.43029e-08)
(-6.75428e-08 -5.76064e-09 4.25579e-08)
(-5.81087e-08 -7.73491e-09 2.81362e-08)
(-4.68752e-08 -3.1241e-09 1.96444e-08)
(-2.9222e-08 -8.46023e-10 7.86181e-09)
(-1.88694e-08 -2.01448e-09 4.25188e-09)
(-1.13771e-08 -1.12038e-09 1.18994e-09)
(-4.11909e-09 5.06248e-10 3.53583e-10)
(-3.28724e-10 -8.54963e-10 -1.24496e-09)
(-7.55425e-08 -5.61395e-10 2.42741e-08)
(-5.81087e-08 -7.73491e-09 2.81362e-08)
(-7.20553e-08 -1.27965e-09 2.77116e-08)
(-5.81087e-08 -7.73491e-09 2.81362e-08)
(-4.68752e-08 -3.1241e-09 1.96444e-08)
(-2.77553e-08 -4.3642e-09 3.74937e-09)
(-1.88729e-08 -4.12726e-09 4.8631e-11)
(-1.06524e-08 -2.48044e-09 -2.96446e-09)
(-5.63519e-09 -2.15474e-09 -6.29614e-09)
(-1.83824e-09 -2.01419e-09 -7.61644e-09)
(-6.59268e-08 -3.36188e-09 1.387e-08)
(-6.7883e-08 -4.1934e-10 2.2405e-08)
(-5.91158e-08 4.96113e-09 2.51532e-08)
(-2.77553e-08 -4.3642e-09 3.74937e-09)
(-3.90316e-08 -5.72015e-10 1.08349e-08)
(-2.77553e-08 -4.3642e-09 3.74937e-09)
(-1.88729e-08 -4.12726e-09 4.8631e-11)
(-9.95511e-09 -4.12058e-09 -4.58173e-09)
(-1.0023e-08 -2.00256e-09 -5.35963e-09)
(5.87106e-09 -6.78181e-10 -1.54623e-08)
(-4.20781e-08 -5.81425e-09 8.55115e-09)
(-4.15675e-08 -1.06528e-08 6.64846e-09)
(-3.47317e-08 -4.30846e-09 5.96252e-09)
(-2.31274e-08 -2.84413e-09 1.52698e-09)
(-1.58423e-08 -2.21513e-09 -8.40383e-10)
(-9.95511e-09 -4.12058e-09 -4.58173e-09)
(-1.28162e-08 -2.05339e-09 -3.22235e-10)
)
;
    }
}


// ************************************************************************* //
