/*--------------------------------*- C++ -*----------------------------------*\
| =========                 |                                                 |
| \\      /  F ield         | OpenFOAM: The Open Source CFD Toolbox           |
|  \\    /   O peration     | Version:  4.x                                   |
|   \\  /    A nd           | Web:      www.OpenFOAM.org                      |
|    \\/     M anipulation  |                                                 |
\*---------------------------------------------------------------------------*/
FoamFile
{
    version     2.0;
    format      ascii;
    class       volVectorField;
    location    "10";
    object      UsPrev;
}
// * * * * * * * * * * * * * * * * * * * * * * * * * * * * * * * * * * * * * //

dimensions      [0 1 -1 0 0 0 0];

internalField   nonuniform List<vector> 
114
(
(-3.56117e-08 4.00636e-09 1.25235e-08)
(-2.4386e-08 3.35507e-09 5.95141e-09)
(-1.94416e-08 4.09082e-10 8.76717e-09)
(-8.12319e-09 -8.09379e-10 8.56577e-09)
(-6.94117e-09 -2.46318e-10 8.77992e-09)
(-1.26155e-08 1.14463e-08 -3.76876e-11)
(-5.22764e-08 3.5493e-09 3.50153e-08)
(-4.53381e-08 4.24458e-09 2.54057e-08)
(-3.56504e-08 7.46433e-10 1.46274e-08)
(-2.22795e-08 8.43855e-10 8.00583e-09)
(-1.53468e-08 -1.87378e-09 1.13086e-08)
(-7.9835e-09 1.02399e-09 1.40941e-08)
(-5.07335e-09 6.52017e-09 1.06735e-08)
(-6.28174e-08 -5.67854e-09 4.0282e-08)
(-5.49366e-08 -6.13341e-10 3.61939e-08)
(-4.299e-08 1.62364e-09 2.69908e-08)
(-3.66955e-08 6.0198e-10 1.38971e-08)
(-2.71569e-08 1.6648e-09 6.70003e-09)
(-1.80429e-08 -1.97885e-10 5.54703e-09)
(-9.98578e-09 3.47187e-09 1.37053e-08)
(-3.09854e-09 5.5745e-09 1.01826e-08)
(-5.21995e-08 3.34601e-09 4.91491e-09)
(-5.07341e-08 -6.106e-09 5.2284e-09)
(-4.71191e-08 -5.42396e-09 1.06205e-08)
(-4.21045e-08 6.97238e-11 7.77315e-09)
(-2.96934e-08 2.40272e-11 2.12013e-10)
(-1.44792e-08 2.42529e-10 6.40975e-09)
(-8.74426e-09 6.80251e-10 5.47604e-09)
(-5.71432e-09 5.42166e-10 6.69644e-09)
(-2.26912e-09 2.12182e-09 7.15252e-09)
(-7.8231e-08 -1.60994e-08 9.4428e-09)
(-8.07002e-08 -2.86035e-08 1.47213e-08)
(-5.57354e-08 -9.65241e-09 2.18336e-08)
(-5.06306e-08 -1.59804e-09 1.6521e-08)
(-3.62447e-08 -6.33761e-09 9.9484e-09)
(-2.19032e-08 -2.30052e-09 6.15058e-09)
(-1.77988e-08 1.37673e-09 6.94427e-09)
(-1.03916e-08 5.28323e-09 6.69214e-09)
(-6.10641e-09 3.30428e-09 5.66235e-09)
(-8.16232e-08 -1.14406e-08 1.49646e-08)
(-6.77379e-08 -9.09375e-09 2.60673e-08)
(-5.72888e-08 -1.02979e-08 2.90728e-08)
(-4.49786e-08 -2.06344e-09 2.13361e-08)
(-3.2682e-08 -1.88546e-09 1.01226e-08)
(-2.2961e-08 -1.77815e-09 5.18884e-09)
(-1.49444e-08 1.15937e-09 3.4374e-09)
(-6.19569e-09 2.84038e-09 1.5599e-09)
(-9.21787e-10 1.3706e-09 5.63796e-10)
(-7.98255e-08 -6.75743e-09 2.22527e-08)
(-7.31259e-08 -5.58712e-09 2.94931e-08)
(-4.97043e-08 2.08613e-09 7.41313e-09)
(-5.06328e-08 -4.31763e-09 4.5316e-09)
(-4.93403e-08 -7.41006e-09 8.88191e-09)
(-5.12431e-08 -1.19816e-08 1.81145e-08)
(-3.59658e-08 -3.0897e-09 1.09753e-09)
(-1.71094e-08 9.71294e-10 4.45248e-09)
(-5.8402e-09 -5.53966e-11 3.44369e-09)
(-1.43114e-09 -1.49964e-09 4.85834e-09)
(-5.15659e-09 1.26182e-09 1.45195e-08)
(-6.6586e-08 -7.66755e-10 1.86072e-09)
(-6.33054e-08 -8.51389e-09 4.9917e-09)
(-5.66955e-08 -1.28863e-08 1.69311e-08)
(-1.5745e-07 -5.0383e-08 1.40583e-08)
(-3.29051e-08 -5.13827e-09 4.93211e-09)
(-1.84096e-08 -3.64322e-09 6.10145e-09)
(-7.52795e-09 -1.52274e-09 4.17256e-09)
(-4.36871e-09 -2.73802e-09 3.76474e-09)
(2.11252e-11 -4.39555e-09 1.77723e-09)
(-7.67166e-08 -7.21961e-09 6.85852e-09)
(-7.59065e-08 -1.29563e-08 1.09134e-08)
(-5.41091e-08 -1.49769e-08 2.09051e-08)
(-4.38392e-08 -9.50567e-09 1.6665e-08)
(-2.72459e-08 -4.89244e-09 7.14766e-09)
(-1.8398e-08 -4.76882e-09 2.57343e-09)
(-7.28154e-09 -2.57856e-09 -4.81123e-11)
(-2.23455e-09 -1.04815e-09 -2.47573e-09)
(-1.10488e-09 -2.30819e-09 -4.17943e-09)
(-7.45563e-08 -3.16353e-09 3.91904e-09)
(-6.82094e-08 -6.40235e-09 1.17308e-08)
(-5.66296e-08 -8.53556e-09 1.31271e-08)
(-4.12196e-08 -7.29376e-09 1.23974e-08)
(-2.47239e-08 5.68778e-09 3.96176e-09)
(-3.60847e-08 -7.30702e-10 2.11764e-09)
(-2.42108e-08 4.87323e-09 2.50625e-09)
(-3.25553e-08 -8.76479e-09 1.06397e-08)
(-2.61643e-08 -1.05057e-09 1.19733e-10)
(-8.8655e-09 1.27257e-10 2.92469e-09)
(-2.20537e-09 -7.66619e-10 1.24991e-09)
(6.9888e-10 -5.2367e-09 5.38936e-09)
(-3.0791e-09 -1.40349e-08 1.31027e-08)
(-5.31638e-08 7.32866e-09 2.86986e-09)
(-5.48613e-08 -2.75371e-09 -6.93763e-10)
(-1.14762e-07 1.74124e-08 2.66849e-08)
(-2.7144e-07 -7.75857e-08 1.11508e-08)
(-3.1704e-08 -3.67517e-09 4.63698e-09)
(-9.5341e-09 -1.25296e-09 2.2446e-09)
(-4.47724e-09 -2.73376e-09 3.13972e-09)
(1.81244e-10 -9.18565e-09 9.46896e-10)
(-6.65896e-11 -2.22653e-08 -2.52958e-09)
(-5.64802e-08 5.47262e-10 1.02478e-09)
(-5.21588e-08 -7.28571e-09 5.65837e-09)
(-3.78704e-08 -3.84006e-10 7.62885e-09)
(-7.38043e-08 -7.74442e-09 1.09773e-08)
(-2.01984e-08 -7.28434e-09 2.19458e-09)
(-1.20604e-08 -3.70945e-09 4.67966e-10)
(-5.95422e-09 -3.15623e-09 -1.25201e-09)
(-2.08373e-09 -3.41339e-09 -2.57746e-09)
(1.23002e-09 -6.52071e-09 -4.96965e-09)
(-4.8624e-08 -7.81344e-09 4.01875e-09)
(-4.25729e-08 -1.11371e-08 3.63489e-09)
(-5.33082e-08 -1.1528e-08 2.98048e-09)
(-2.77187e-08 -1.23632e-09 5.905e-09)
(-1.84455e-08 -5.13468e-09 2.2429e-09)
(-1.22529e-08 -4.94449e-09 -2.4452e-09)
)
;

boundaryField
{
    inlet
    {
        type            calculated;
        value           nonuniform 0();
    }
    outlet
    {
        type            calculated;
        value           uniform (0 0 0);
    }
    wall
    {
        type            calculated;
        value           uniform (0 0 0);
    }
    procBoundary5to1
    {
        type            processor;
        value           uniform (0 0 0);
    }
    procBoundary5to4
    {
        type            processor;
        value           uniform (0 0 0);
    }
    procBoundary5to7
    {
        type            processor;
        value           uniform (0 0 0);
    }
}


// ************************************************************************* //
