/*--------------------------------*- C++ -*----------------------------------*\
| =========                 |                                                 |
| \\      /  F ield         | OpenFOAM: The Open Source CFD Toolbox           |
|  \\    /   O peration     | Version:  4.x                                   |
|   \\  /    A nd           | Web:      www.OpenFOAM.org                      |
|    \\/     M anipulation  |                                                 |
\*---------------------------------------------------------------------------*/
FoamFile
{
    version     2.0;
    format      ascii;
    class       volVectorField;
    location    "7.5";
    object      ddtUrel;
}
// * * * * * * * * * * * * * * * * * * * * * * * * * * * * * * * * * * * * * //

dimensions      [0 1 -2 0 0 0 0];

internalField   nonuniform List<vector> 
87
(
(5.00656e-06 2.01107e-07 -2.9056e-06)
(3.4099e-06 2.80529e-07 -2.6021e-06)
(2.14437e-06 7.96629e-08 -1.99575e-06)
(-4.7419e-06 -1.90056e-07 -1.78026e-06)
(-1.3971e-05 -7.62041e-08 -2.29118e-06)
(-2.43061e-05 1.07391e-07 -1.85005e-06)
(-4.91033e-05 1.70489e-07 -1.91629e-06)
(-5.98696e-05 6.48622e-07 -2.5027e-06)
(-5.33486e-05 1.11849e-06 -3.5117e-06)
(6.5103e-06 2.82392e-07 -2.6443e-06)
(3.45662e-06 2.79436e-07 -2.55953e-06)
(9.96225e-07 -7.03893e-08 -2.01359e-06)
(-4.63019e-06 -2.91106e-07 -1.717e-06)
(-1.37115e-05 -1.0818e-07 -1.86374e-06)
(-2.77259e-05 2.57742e-08 -1.90641e-06)
(-5.318e-05 2.46527e-07 -2.00358e-06)
(-6.72361e-05 1.33552e-06 -2.00974e-06)
(-5.62674e-05 1.85949e-06 -2.97589e-06)
(7.82115e-06 2.54827e-07 -2.44598e-06)
(4.73588e-06 1.60691e-07 -2.38384e-06)
(1.06888e-06 -9.15234e-08 -2.19447e-06)
(-5.01057e-06 -1.70664e-07 -1.86887e-06)
(-1.57922e-05 -4.07339e-08 -2.06137e-06)
(-2.89934e-05 1.42421e-07 -1.89836e-06)
(-5.54893e-05 4.89277e-07 -1.99127e-06)
(-6.96314e-05 1.46126e-06 -1.80312e-06)
(-5.54733e-05 2.16248e-06 -2.80742e-06)
(4.56367e-06 1.52909e-07 -2.71467e-06)
(3.00282e-06 3.07353e-08 -2.27701e-06)
(7.31091e-07 -1.07462e-07 -2.06985e-06)
(-6.18151e-06 -2.64964e-07 -2.00289e-06)
(-1.61141e-05 -1.60531e-07 -2.15698e-06)
(-2.80533e-05 1.62847e-07 -2.34622e-06)
(-5.34396e-05 2.00844e-07 -2.47575e-06)
(-6.46255e-05 3.31275e-07 -2.61614e-06)
(-5.62286e-05 6.53567e-07 -3.29714e-06)
(5.52323e-06 1.86462e-07 -2.619e-06)
(3.24842e-06 1.62638e-07 -2.50557e-06)
(3.51504e-08 -6.66968e-08 -2.18466e-06)
(-6.30975e-06 -2.6159e-07 -2.04234e-06)
(-1.60468e-05 -8.16979e-08 -2.20866e-06)
(-3.03303e-05 1.04787e-07 -2.32743e-06)
(-5.83728e-05 4.04529e-07 -2.34102e-06)
(-7.12907e-05 1.20691e-06 -2.26581e-06)
(-5.97162e-05 1.23924e-06 -3.17902e-06)
(6.23083e-06 1.46007e-07 -2.50839e-06)
(3.68411e-06 4.19005e-08 -2.54003e-06)
(1.11743e-07 -8.25633e-08 -2.42422e-06)
(-6.50298e-06 -1.29764e-07 -2.22682e-06)
(-1.65968e-05 1.65197e-08 -2.32632e-06)
(-3.13957e-05 2.08831e-07 -2.38828e-06)
(-6.02774e-05 5.90478e-07 -2.32654e-06)
(-7.43772e-05 1.21266e-06 -2.08069e-06)
(-6.11679e-05 1.49391e-06 -3.06254e-06)
(3.61746e-06 -9.47677e-08 -2.78891e-06)
(2.88809e-06 -3.5886e-07 -2.54822e-06)
(1.20011e-06 -2.9432e-07 -2.48115e-06)
(-5.22119e-06 -9.6114e-08 -2.51059e-06)
(-1.69062e-05 -3.19244e-08 -2.71458e-06)
(-3.04203e-05 3.0025e-07 -2.84587e-06)
(-5.68005e-05 5.94659e-07 -3.07848e-06)
(-6.92736e-05 7.70943e-07 -3.08782e-06)
(-5.85705e-05 6.9945e-07 -3.22529e-06)
(5.03281e-06 7.09457e-08 -2.90718e-06)
(2.77898e-06 -1.33611e-07 -2.83181e-06)
(-6.31139e-07 -3.40832e-07 -2.7479e-06)
(-6.89093e-06 -1.7224e-07 -2.6619e-06)
(-1.71668e-05 2.10392e-08 -2.74686e-06)
(-3.22537e-05 1.1191e-07 -2.92781e-06)
(-6.07346e-05 7.64744e-07 -3.11988e-06)
(-7.38475e-05 1.286e-06 -2.85397e-06)
(-6.10871e-05 9.21436e-07 -2.93897e-06)
(5.23179e-06 -2.91187e-08 -2.99162e-06)
(3.42767e-06 -1.65054e-08 -2.98437e-06)
(-7.62246e-07 -2.67121e-08 -2.95575e-06)
(-7.76838e-06 -7.19924e-08 -2.92197e-06)
(-1.73791e-05 -2.28846e-08 -2.94346e-06)
(-3.26946e-05 6.18953e-08 -3.0263e-06)
(-6.2484e-05 4.30475e-07 -3.09276e-06)
(-7.5608e-05 8.0484e-07 -2.64397e-06)
(-6.20255e-05 7.17472e-07 -2.75439e-06)
(4.19743e-06 -1.46415e-07 -3.32934e-06)
(3.93742e-06 -3.56305e-07 -3.39198e-06)
(6.54382e-07 -3.30001e-07 -3.23818e-06)
(5.20832e-06 -6.85239e-08 -3.50827e-06)
(3.1251e-06 -2.15098e-07 -3.49253e-06)
(5.03075e-06 -1.34625e-08 -3.69938e-06)
)
;

boundaryField
{
    inlet
    {
        type            calculated;
        value           nonuniform 0();
    }
    outlet
    {
        type            calculated;
        value           nonuniform List<vector> 9((1.71037e-06 2.20741e-06 -7.9727e-06) (8.62685e-06 7.74441e-06 -4.81064e-06) (3.05921e-05 1.01957e-05 -7.36629e-06) (-4.20156e-06 -2.03166e-06 -6.01786e-06) (-6.53947e-06 8.4893e-07 -8.25081e-06) (-1.4401e-05 3.19582e-06 -9.1732e-06) (-5.97153e-06 -1.89918e-06 -6.02563e-06) (9.71496e-07 4.60974e-07 -5.89954e-06) (-4.22548e-06 -9.95802e-07 -4.59465e-06));
    }
    wall
    {
        type            calculated;
        value           nonuniform List<vector> 
57
(
(6.16837e-08 -6.13286e-07 -4.26816e-06)
(2.81558e-05 -2.71559e-08 -2.31193e-06)
(2.84232e-05 -1.68353e-06 -1.69579e-06)
(-1.42338e-05 1.74643e-06 -8.37286e-06)
(-6.49368e-06 2.60545e-06 -5.35218e-06)
(1.29806e-05 7.15146e-08 -3.988e-06)
(3.47887e-05 5.17703e-07 -1.96853e-06)
(1.87288e-05 -1.16769e-06 2.34139e-07)
(1.65537e-05 -1.08421e-06 -2.20558e-06)
(5.41193e-06 -2.56816e-06 -3.33328e-07)
(2.24858e-05 -3.37947e-06 1.64978e-06)
(1.84946e-05 -9.54497e-07 9.9782e-07)
(-1.2014e-05 -8.35364e-07 -7.99613e-06)
(3.43481e-05 4.21088e-07 2.29896e-06)
(-3.55036e-05 -1.30336e-06 -3.05646e-06)
(5.94779e-05 9.26181e-07 2.27194e-06)
(2.05846e-05 -2.37494e-06 -7.24534e-08)
(2.75485e-05 -1.13467e-06 1.59138e-06)
(-5.57092e-05 -7.96946e-07 2.08796e-07)
(-6.97397e-05 -5.71335e-06 -1.29928e-06)
(-7.30248e-05 -1.92263e-06 -7.18915e-07)
(-6.89009e-05 2.81785e-06 -3.33592e-06)
(-0.00013788 7.43349e-06 4.06165e-06)
(-0.000136426 5.04796e-06 5.96206e-06)
(-2.22654e-06 2.48903e-06 -7.18359e-06)
(-1.13857e-05 1.17036e-05 -2.62924e-06)
(4.31266e-05 9.79626e-06 2.07751e-06)
(2.7756e-05 -5.87202e-07 -3.78899e-06)
(9.44036e-06 1.09201e-06 -1.93441e-06)
(-8.8486e-06 -4.72113e-07 -2.73363e-07)
(-4.19961e-06 2.72288e-07 -2.5919e-06)
(3.29454e-05 1.86706e-06 -2.11255e-06)
(2.83495e-06 5.27483e-08 1.21538e-06)
(2.74602e-06 -3.27655e-06 1.01318e-06)
(3.56281e-05 -1.67559e-06 -4.38534e-06)
(5.50638e-05 1.69034e-06 2.24971e-06)
(2.46619e-05 -2.8194e-07 4.68767e-07)
(4.06015e-05 -7.60885e-07 1.48168e-07)
(3.37615e-05 -5.88881e-07 -2.83276e-06)
(1.34031e-05 -7.42859e-07 1.58613e-06)
(-3.43972e-06 -1.87333e-06 -6.91366e-07)
(4.47755e-05 1.80904e-06 -9.94139e-07)
(6.50936e-06 3.10006e-07 -6.61782e-06)
(-2.01166e-05 -1.76553e-06 2.24485e-07)
(-1.87024e-05 -6.83009e-08 -3.33697e-06)
(6.59894e-05 1.45207e-06 9.57868e-07)
(2.87047e-05 1.32608e-06 -2.24046e-06)
(2.93238e-05 4.0269e-06 -3.23127e-06)
(-6.92278e-05 -1.86178e-06 1.38088e-06)
(-9.41358e-05 -1.97155e-06 -1.9757e-06)
(-9.99868e-05 1.52797e-06 -3.90039e-06)
(-7.77177e-05 -1.32232e-06 -2.01464e-06)
(-0.000116894 -6.79059e-06 -6.20467e-07)
(-0.000163601 5.68816e-07 -4.96298e-06)
(-1.78349e-05 3.00897e-06 -9.27362e-06)
(-1.86609e-05 -4.60953e-06 -4.23445e-06)
(-2.87226e-05 -5.00018e-06 -6.387e-06)
)
;
    }
    procBoundary1to0
    {
        type            processor;
        value           nonuniform List<vector> 
12
(
(3.19215e-06 3.48852e-07 -3.32022e-06)
(6.47099e-06 5.37299e-07 -2.95083e-06)
(9.09878e-06 1.75483e-07 -2.70551e-06)
(5.30172e-06 1.36862e-07 -3.26049e-06)
(6.56742e-06 1.56951e-07 -2.98354e-06)
(7.63704e-06 7.5452e-08 -2.72844e-06)
(5.07116e-06 -1.68766e-08 -3.21814e-06)
(6.53395e-06 -1.61421e-08 -3.25728e-06)
(6.81095e-06 -3.79219e-08 -3.34306e-06)
(5.64921e-06 -5.80092e-08 -3.49118e-06)
(6.83519e-06 -6.79713e-08 -3.64791e-06)
(6.77086e-06 1.15445e-08 -3.85024e-06)
)
;
    }
    procBoundary1to3
    {
        type            processor;
        value           nonuniform List<vector> 
27
(
(8.44388e-06 9.26442e-07 -2.45898e-06)
(4.82976e-06 3.76353e-07 -2.52411e-06)
(1.12621e-06 1.18746e-07 -2.36721e-06)
(-4.11179e-06 -1.09535e-07 -1.94886e-06)
(-1.29354e-05 -1.2344e-07 -1.99842e-06)
(-2.85658e-05 1.79491e-07 -2.17137e-06)
(-5.67118e-05 4.79789e-07 -2.0854e-06)
(-6.97693e-05 9.18652e-07 -1.8297e-06)
(-5.55607e-05 8.32058e-07 -2.33921e-06)
(6.14801e-06 4.01897e-07 -2.65214e-06)
(3.53694e-06 1.35145e-07 -2.62648e-06)
(-2.5009e-07 4.89866e-08 -2.46028e-06)
(-6.26022e-06 3.19791e-09 -2.3359e-06)
(-1.57702e-05 1.21007e-08 -2.4635e-06)
(-3.11698e-05 1.50548e-07 -2.67868e-06)
(-6.0664e-05 3.85828e-07 -2.41904e-06)
(-7.29741e-05 7.7547e-07 -2.14355e-06)
(-5.87484e-05 9.90869e-07 -3.16746e-06)
(4.96076e-06 1.36634e-07 -3.18987e-06)
(2.80134e-06 9.9618e-08 -3.09962e-06)
(-1.04895e-06 2.49476e-07 -3.02147e-06)
(-7.56705e-06 1.23268e-07 -3.11844e-06)
(-1.71853e-05 6.48934e-09 -3.16301e-06)
(-3.26045e-05 7.41249e-08 -3.17746e-06)
(-6.29093e-05 8.36182e-08 -3.2416e-06)
(-7.52524e-05 2.68625e-07 -2.79529e-06)
(-6.13413e-05 3.84822e-07 -2.88755e-06)
)
;
    }
    procBoundary1to5
    {
        type            processor;
        value           nonuniform List<vector> 
32
(
(-6.55291e-06 -3.44076e-07 -3.0953e-06)
(-1.61189e-05 -2.18992e-07 -3.09079e-06)
(-3.14318e-05 -6.51642e-08 -3.2917e-06)
(-5.46705e-05 5.38708e-07 -3.48584e-06)
(-6.69566e-05 1.00205e-06 -3.25874e-06)
(-5.76975e-05 8.12083e-07 -2.80776e-06)
(-6.72867e-07 -2.81228e-07 -3.33898e-06)
(-7.54658e-06 -2.34801e-07 -3.34271e-06)
(-1.74266e-05 -1.43174e-07 -3.35146e-06)
(-3.27192e-05 -1.00163e-07 -3.47858e-06)
(-6.0811e-05 6.59171e-07 -3.69147e-06)
(-7.33023e-05 1.14225e-06 -3.19875e-06)
(-6.02376e-05 7.65443e-07 -2.73787e-06)
(2.87664e-06 1.52207e-08 -3.56893e-06)
(-1.2518e-06 2.0733e-08 -3.41661e-06)
(-7.87098e-06 -3.78006e-08 -3.5034e-06)
(-1.77427e-05 -6.85362e-08 -3.52914e-06)
(-3.31909e-05 -8.02533e-09 -3.53141e-06)
(-6.27105e-05 3.65677e-07 -3.61995e-06)
(-7.54714e-05 6.6153e-07 -3.07278e-06)
(-6.07089e-05 4.76712e-07 -2.63295e-06)
(4.39899e-06 -2.1431e-07 -3.86458e-06)
(3.62689e-06 -3.68294e-07 -3.90766e-06)
(-6.55291e-06 -3.44076e-07 -3.0953e-06)
(-6.72867e-07 -2.81228e-07 -3.33898e-06)
(-2.22837e-07 -3.30102e-07 -3.7757e-06)
(5.0603e-06 -5.78218e-08 -4.00864e-06)
(-6.72867e-07 -2.81228e-07 -3.33898e-06)
(2.87664e-06 1.52207e-08 -3.56893e-06)
(3.12812e-06 -2.59748e-07 -3.94146e-06)
(2.87664e-06 1.52207e-08 -3.56893e-06)
(5.0263e-06 -8.14798e-09 -4.10777e-06)
)
;
    }
    procBoundary1to7
    {
        type            processor;
        value           uniform (4.78498e-06 1.74389e-07 -3.77294e-06);
    }
}


// ************************************************************************* //
