/*--------------------------------*- C++ -*----------------------------------*\
| =========                 |                                                 |
| \\      /  F ield         | OpenFOAM: The Open Source CFD Toolbox           |
|  \\    /   O peration     | Version:  4.x                                   |
|   \\  /    A nd           | Web:      www.OpenFOAM.org                      |
|    \\/     M anipulation  |                                                 |
\*---------------------------------------------------------------------------*/
FoamFile
{
    version     2.0;
    format      ascii;
    class       volScalarField;
    location    "7.5";
    object      rho;
}
// * * * * * * * * * * * * * * * * * * * * * * * * * * * * * * * * * * * * * //

dimensions      [1 -3 0 0 0 0 0];

internalField   nonuniform List<scalar> 
87
(
6689.18
6689.53
6690.56
6692.21
6694.05
6695.53
6697.14
6697.83
6807.14
6691.48
6693.81
6696.54
6699.23
6701.26
6702.52
6703.03
6702.59
6704.26
6694.75
6697.63
6700.23
6702.21
6703.46
6703.93
6703.69
6703.09
6703.89
6691.56
6691.85
6692.76
6693.93
6695.61
6696.93
6698.68
6699.48
6754.65
6696.73
6698.88
6700.78
6702.33
6703.51
6704.14
6704.32
6703.64
6707.4
6698.74
6700.69
6702.35
6703.61
6704.37
6704.66
6704.53
6704.04
6706.11
6693.9
6694.02
6694.66
6695.41
6696.59
6697.61
6699.1
6699.86
6730.17
6698.73
6700.27
6701.73
6702.69
6703.65
6703.91
6704.26
6703.78
6708.19
6699.79
6701.19
6702.53
6703.57
6704.23
6704.44
6704.33
6703.96
6706.42
6696.1
6696.01
6696.26
6699.57
6700.67
6700.14
)
;

boundaryField
{
    inlet
    {
        type            calculated;
        value           nonuniform 0();
    }
    outlet
    {
        type            calculated;
        value           uniform 6700;
    }
    wall
    {
        type            calculated;
        value           nonuniform List<scalar> 
57
(
6689.18
6691.48
6694.75
6689.53
6693.81
6697.63
6690.56
6696.54
6700.23
6692.21
6699.23
6702.21
6694.05
6701.26
6703.46
6695.53
6702.52
6703.93
6697.14
6703.03
6703.69
6697.83
6702.59
6703.09
6807.14
6704.26
6703.89
6689.18
6691.56
6693.9
6696.1
6689.53
6691.85
6694.02
6696.01
6690.56
6692.76
6694.66
6696.26
6692.21
6693.93
6695.41
6694.05
6695.61
6696.59
6695.53
6696.93
6697.61
6697.14
6698.68
6699.1
6697.83
6699.48
6699.86
6807.14
6754.65
6730.17
)
;
    }
    procBoundary1to0
    {
        type            processor;
        value           nonuniform List<scalar> 
12
(
6689.8
6690.34
6692.24
6691.87
6694.8
6696.7
6694.11
6697.31
6698.38
6696.35
6698.6
6699.14
)
;
    }
    procBoundary1to3
    {
        type            processor;
        value           nonuniform List<scalar> 
27
(
6695.69
6698.39
6700.73
6702.45
6703.49
6703.98
6704.04
6703.87
6716.8
6698.28
6700.12
6701.77
6703.11
6703.98
6704.45
6704.49
6704.24
6706.73
6699
6700.11
6701.09
6702.18
6703.08
6703.76
6703.87
6703.63
6702.9
)
;
    }
    procBoundary1to5
    {
        type            processor;
        value           nonuniform List<scalar> 
32
(
6696.62
6697.3
6697.9
6699.05
6699.6
6710.24
6701.74
6702.39
6703.22
6703.25
6703.6
6703.21
6704.24
6701.19
6702.23
6703.1
6703.74
6704.02
6703.83
6703.44
6703.1
6697.68
6697.72
6696.62
6701.74
6698.03
6700.9
6701.74
6701.19
6701.93
6701.19
6700.53
)
;
    }
    procBoundary1to7
    {
        type            processor;
        value           uniform 6699.35;
    }
}


// ************************************************************************* //
