/*--------------------------------*- C++ -*----------------------------------*\
| =========                 |                                                 |
| \\      /  F ield         | OpenFOAM: The Open Source CFD Toolbox           |
|  \\    /   O peration     | Version:  4.x                                   |
|   \\  /    A nd           | Web:      www.OpenFOAM.org                      |
|    \\/     M anipulation  |                                                 |
\*---------------------------------------------------------------------------*/
FoamFile
{
    version     2.0;
    format      ascii;
    class       volScalarField;
    location    "7.5";
    object      Sm;
}
// * * * * * * * * * * * * * * * * * * * * * * * * * * * * * * * * * * * * * //

dimensions      [1 -3 -1 0 0 0 0];

internalField   nonuniform List<scalar> 
87
(
3.7195e-65
5.88939e-65
3.7971e-65
5.1145e-65
3.25468e-65
4.88186e-65
4.41673e-65
5.0364e-65
4.80382e-65
3.64184e-65
3.25453e-65
4.64925e-65
4.18433e-65
3.71928e-65
5.03652e-65
6.58573e-65
4.57105e-65
3.95115e-65
3.48673e-65
5.50139e-65
5.50135e-65
7.43843e-65
5.50115e-65
4.33897e-65
4.95835e-65
4.57081e-65
4.49313e-65
6.43144e-65
5.65666e-65
5.34672e-65
6.19913e-65
5.81155e-65
6.58619e-65
8.36795e-65
7.28289e-65
6.35295e-65
7.51598e-65
5.03644e-65
6.43125e-65
6.97359e-65
6.97345e-65
5.65597e-65
7.51517e-65
7.59193e-65
5.49981e-65
8.13535e-65
6.58593e-65
6.19855e-65
5.26872e-65
5.26854e-65
7.36004e-65
8.05698e-65
1.03028e-64
4.87987e-65
7.0512e-65
5.81152e-65
7.67119e-65
7.90363e-65
5.81137e-65
8.44546e-65
7.05053e-65
5.73323e-65
4.18337e-65
7.67059e-65
7.05092e-65
5.6563e-65
6.12114e-65
6.97316e-65
6.97293e-65
6.58497e-65
7.20434e-65
4.41512e-65
7.90272e-65
6.35329e-65
5.11367e-65
9.06506e-65
8.28997e-65
8.75433e-65
6.81695e-65
7.90101e-65
3.48544e-65
6.58618e-65
5.26912e-65
8.05862e-65
7.05075e-65
9.99516e-65
5.73328e-65
)
;

boundaryField
{
    inlet
    {
        type            calculated;
        value           nonuniform 0();
    }
    outlet
    {
        type            calculated;
        value           uniform 0;
    }
    wall
    {
        type            calculated;
        value           uniform 0;
    }
    procBoundary1to0
    {
        type            processor;
        value           nonuniform List<scalar> 
12
(
1.7047e-65
4.26165e-65
7.20595e-65
6.19895e-65
6.74093e-65
4.95871e-65
4.72657e-65
6.27592e-65
4.57115e-65
4.959e-65
5.50099e-65
8.05751e-65
)
;
    }
    procBoundary1to3
    {
        type            processor;
        value           nonuniform List<scalar> 
27
(
6.97321e-65
3.25425e-65
5.81116e-65
2.55699e-65
4.1065e-65
3.02175e-65
4.72596e-65
3.87366e-65
4.57066e-65
7.51538e-65
6.27572e-65
8.98764e-65
8.52278e-65
7.59278e-65
6.27549e-65
6.04257e-65
6.42946e-65
9.06292e-65
7.67015e-65
8.98735e-65
8.83248e-65
8.52256e-65
6.12053e-65
6.19771e-65
8.59878e-65
6.8164e-65
7.7456e-65
)
;
    }
    procBoundary1to5
    {
        type            processor;
        value           nonuniform List<scalar> 
32
(
6.81882e-65
8.05843e-65
6.3536e-65
6.74066e-65
7.59272e-65
8.44448e-65
6.81844e-65
5.6562e-65
5.81102e-65
6.66296e-65
8.21198e-65
8.52141e-65
7.9012e-65
8.44511e-65
6.0434e-65
7.4379e-65
5.81073e-65
4.5709e-65
6.97205e-65
5.73216e-65
8.67502e-65
6.27633e-65
4.88175e-65
6.81882e-65
6.81844e-65
6.97378e-65
7.12836e-65
6.81844e-65
8.44511e-65
6.81856e-65
8.44511e-65
8.21277e-65
)
;
    }
    procBoundary1to7
    {
        type            processor;
        value           uniform 9.9169e-65;
    }
}


// ************************************************************************* //
