/*--------------------------------*- C++ -*----------------------------------*\
| =========                 |                                                 |
| \\      /  F ield         | OpenFOAM: The Open Source CFD Toolbox           |
|  \\    /   O peration     | Version:  4.x                                   |
|   \\  /    A nd           | Web:      www.OpenFOAM.org                      |
|    \\/     M anipulation  |                                                 |
\*---------------------------------------------------------------------------*/
FoamFile
{
    version     2.0;
    format      ascii;
    class       volVectorField;
    location    "26";
    object      DDtUrel;
}
// * * * * * * * * * * * * * * * * * * * * * * * * * * * * * * * * * * * * * //

dimensions      [0 1 -2 0 0 0 0];

internalField   nonuniform List<vector> 
132
(
(0.000361375 2.31957e-05 3.9794e-05)
(0.00045604 -9.23646e-06 -5.62793e-05)
(-0.000250188 -4.48422e-05 -6.26959e-05)
(-0.000459023 -1.76189e-05 -1.14004e-05)
(-0.000448743 -2.55526e-06 -1.49382e-07)
(-0.000592754 -6.26053e-06 -5.60694e-05)
(-0.000978166 -2.24419e-05 -0.000135302)
(-0.00142174 2.48094e-05 -0.00030648)
(-0.00183208 7.69491e-05 -0.00041742)
(0.000281012 3.48999e-05 1.27487e-05)
(0.000231998 -4.21876e-05 -5.36752e-05)
(-8.93684e-05 -9.2398e-05 -7.11845e-05)
(-0.00026024 -2.36247e-05 -3.47965e-05)
(-0.000382993 2.67872e-05 -3.4329e-05)
(-0.000581029 6.48934e-05 -8.33947e-05)
(-0.000911553 9.81224e-05 -0.000141269)
(-0.00138727 0.000297002 -0.00034875)
(-0.00192029 0.000498967 -0.000504451)
(0.000249642 9.01916e-06 9.61673e-06)
(0.000180024 -3.82541e-05 -4.0187e-05)
(1.4732e-05 -6.16482e-05 -5.59458e-05)
(-0.000136106 -1.5007e-05 -4.58267e-05)
(-0.000273788 2.92328e-05 -6.18201e-05)
(-0.00052189 0.0001328 -0.000100439)
(-0.000833099 0.00020608 -0.000145497)
(-0.00149108 0.000552453 -0.000368136)
(-0.00222184 0.000846342 -0.000579554)
(0.000263473 7.53605e-06 -3.2764e-06)
(0.000202403 -3.05602e-05 -3.32247e-05)
(0.000108304 -7.03493e-05 -4.57057e-05)
(-6.43507e-05 -1.75351e-05 -5.60046e-05)
(-0.000155933 3.0225e-05 -6.11643e-05)
(-0.000477771 0.000158025 -0.000125711)
(-0.000715113 0.000252968 -0.000151662)
(-0.00165363 0.000607927 -0.000389068)
(-0.00277353 0.000909262 -0.000697376)
(-0.000200745 -2.43427e-05 -9.97409e-05)
(-0.000194308 -2.33655e-05 -6.4558e-05)
(-0.000334839 -1.69019e-05 -1.78377e-05)
(-0.000530126 -5.32032e-05 -2.05043e-05)
(-0.000939093 -0.000104568 -3.45846e-05)
(-0.00130419 -8.92508e-05 -6.03698e-05)
(-0.00169987 -8.46195e-05 -6.60911e-05)
(0.000145507 4.19094e-06 1.15931e-06)
(8.82047e-05 -2.41462e-05 -3.55219e-05)
(-7.42122e-05 -4.3412e-05 -5.35434e-05)
(-0.000161695 -1.74011e-05 -4.46934e-05)
(-0.000313429 4.52866e-06 -3.76932e-05)
(-0.000542388 3.2701e-05 -4.74823e-05)
(-0.00085823 8.65137e-05 -7.26521e-05)
(-0.00125265 0.000184853 -0.000121046)
(-0.0017378 0.000292803 -0.000154049)
(0.000151551 1.29356e-05 2.61695e-07)
(0.000105033 -1.48351e-05 -2.87474e-05)
(-3.00326e-05 -3.87656e-05 -4.80713e-05)
(-0.000124458 -8.97676e-06 -4.47738e-05)
(-0.000268157 2.16214e-05 -4.65647e-05)
(-0.000463377 9.26422e-05 -6.11615e-05)
(-0.000800112 0.000189054 -8.73434e-05)
(-0.001356 0.000416552 -0.000128365)
(-0.00188072 0.000631309 -0.000157478)
(0.000167257 1.6357e-05 -7.39982e-06)
(0.000137991 -1.88051e-05 -3.01398e-05)
(3.41262e-05 -7.28098e-05 -4.02457e-05)
(-9.21214e-05 -1.64057e-05 -4.60907e-05)
(-0.000216523 3.0599e-05 -4.70675e-05)
(-0.000453159 0.00011859 -6.69855e-05)
(-0.0007313 0.000218398 -8.44587e-05)
(-0.00144339 0.000489252 -0.000109722)
(-0.00224063 0.000735725 -0.000173888)
(-0.000282452 -3.57694e-05 -1.66907e-05)
(-0.000472469 -6.5678e-05 4.66538e-06)
(-0.000817846 -0.000113586 2.14796e-05)
(-0.00127838 -0.000176801 0.000121057)
(-0.00173264 -0.000242585 0.000211964)
(9.31191e-05 1.27343e-05 5.27666e-06)
(5.77444e-05 -1.39102e-05 -3.11291e-05)
(-4.06255e-05 -4.01741e-05 -6.16565e-05)
(-0.000137987 -1.53632e-05 -4.90268e-05)
(-0.000271533 -3.73423e-06 -5.7302e-05)
(-0.000475018 1.9236e-05 -2.85955e-05)
(-0.000785813 3.19383e-05 -1.83104e-05)
(-0.00123167 0.00019737 3.16471e-05)
(-0.00176346 0.000372409 0.000120469)
(0.00012702 2.13122e-06 3.04685e-06)
(9.4594e-05 -1.25992e-05 -3.297e-05)
(1.04688e-05 -2.38193e-05 -7.95818e-05)
(-9.85266e-05 3.62918e-06 -5.48145e-05)
(-0.000192951 2.05328e-05 -5.66967e-05)
(-0.000410304 0.00010001 -4.20533e-05)
(-0.00064881 0.000150888 -6.35428e-05)
(-0.00133074 0.000489374 2.98646e-05)
(-0.0020852 0.000765323 0.000147633)
(0.000159584 1.50017e-07 -1.08576e-05)
(0.000123065 -1.34124e-05 -3.23975e-05)
(6.89353e-05 -3.09665e-05 -5.75018e-05)
(-5.08464e-05 2.84355e-06 -5.15114e-05)
(-0.000102294 2.8005e-05 -6.0152e-05)
(-0.000353375 0.000118945 -5.90195e-05)
(-0.000460241 0.00018769 -7.06012e-05)
(-0.00144609 0.00053252 3.77578e-06)
(-0.00265244 0.000780342 9.12878e-05)
(-0.000755948 -0.000146273 1.28386e-05)
(-0.00126612 -0.000263021 0.000115205)
(-0.00186728 -0.000411851 0.000215623)
(8.67735e-05 -5.11286e-07 -1.31553e-05)
(5.76044e-05 -1.67333e-05 -3.52047e-05)
(-3.80719e-05 -2.82894e-05 -4.72774e-05)
(-0.000144941 -1.55494e-05 -4.40681e-05)
(-0.00029136 -1.35282e-05 -3.25973e-05)
(-0.000488672 -9.31602e-08 -3.13969e-05)
(-0.000797996 8.28149e-06 -1.39015e-05)
(-0.00121111 5.84734e-05 9.64394e-06)
(-0.00176678 0.0001071 2.84973e-05)
(0.000114473 1.33369e-07 -2.04909e-05)
(9.33802e-05 -6.7503e-06 -4.932e-05)
(2.69116e-06 -1.31901e-05 -5.66619e-05)
(-0.000116925 6.19902e-06 -6.378e-05)
(-0.000239983 2.35556e-05 -5.33702e-05)
(-0.000449074 7.94934e-05 -7.45085e-05)
(-0.000734304 0.000124579 -6.30389e-05)
(-0.00127614 0.000277974 -9.54926e-05)
(-0.00197468 0.000414291 -0.000160522)
(0.000144552 -1.50011e-06 -2.75357e-05)
(0.00011014 -6.94742e-06 -4.99412e-05)
(4.15643e-05 -1.78564e-05 -5.51857e-05)
(-7.06192e-05 9.15291e-06 -7.55558e-05)
(-0.000173856 3.53232e-05 -6.31576e-05)
(-0.000397092 0.00010514 -0.000119626)
(-0.000682166 0.000177272 -9.19217e-05)
(-0.00133919 0.000352756 -0.000286291)
(-0.0022174 0.000513211 -0.000420283)
)
;

boundaryField
{
    inlet
    {
        type            calculated;
        value           nonuniform 0();
    }
    outlet
    {
        type            calculated;
        value           nonuniform List<vector> 
16
(
(-0.00224572 0.000828055 -0.000564971)
(-0.00257567 0.00212379 -0.001009)
(-0.00428931 0.00320585 -0.00117102)
(-0.00919019 0.00175504 -0.00158985)
(-0.00203567 0.00021068 -0.000291916)
(-0.00235037 -0.000113782 -0.00028739)
(-0.00124534 0.000975786 0.000146413)
(-0.00303292 0.00118692 0.00035932)
(-0.0020834 -0.000308964 0.000697099)
(-0.0026636 0.00267576 0.0011673)
(-0.00474335 0.00430218 0.00266312)
(-0.0108917 0.00258352 0.00258077)
(-0.00354724 -0.00108228 0.000603238)
(-0.00263237 0.000101196 -0.00018588)
(-0.00379312 0.000418837 -0.0010983)
(-0.00447477 0.000517893 -0.00321657)
)
;
    }
    wall
    {
        type            calculated;
        value           nonuniform List<vector> 
66
(
(-1.49151e-05 5.67345e-05 -4.17821e-05)
(0.000110586 3.20526e-05 -9.05911e-06)
(0.00027766 1.55673e-05 -4.37502e-05)
(7.46098e-05 -5.35775e-05 -5.21967e-05)
(0.000373015 4.11677e-05 -0.000210611)
(0.000232672 3.00488e-05 -0.000160978)
(-0.000114278 -0.000129202 2.50607e-05)
(7.86621e-05 -3.89848e-06 -2.03342e-05)
(0.000218854 -0.000115002 5.25169e-06)
(-0.000118518 1.46745e-05 -1.95927e-05)
(-0.000218017 7.82065e-05 -0.000172562)
(-1.88697e-05 4.05153e-05 -0.000291305)
(-0.000402654 -9.54035e-05 4.67417e-05)
(-0.000149891 -1.44119e-05 2.55252e-05)
(0.000198209 -4.72838e-05 0.000120645)
(-0.000348599 2.55312e-05 -8.95208e-05)
(-0.000359197 0.0002167 -0.000273434)
(-0.000172009 0.000133306 -0.000716481)
(0.000120357 -4.41083e-06 -0.000495112)
(-0.000822754 -8.27585e-05 4.87668e-05)
(-0.000129691 -0.000111897 1.83847e-05)
(2.96629e-06 -2.83805e-05 0.000473698)
(-0.000622358 -0.000295597 5.28268e-05)
(-0.000317186 -4.9104e-05 -4.4163e-05)
(-0.000607803 0.000129308 -0.000111318)
(-0.000488083 8.01835e-05 -0.0019546)
(-0.00354724 -0.00108228 0.000603238)
(-0.00263237 0.000101196 -0.00018588)
(-0.00379312 0.000418837 -0.0010983)
(-0.00447477 0.000517893 -0.00321657)
(0.000608465 3.66173e-05 3.06705e-05)
(5.83589e-05 0.0002565 2.08122e-05)
(0.00041727 8.29886e-07 4.86952e-05)
(0.00027766 1.55673e-05 -4.37502e-05)
(0.000261738 5.76385e-05 -0.000156354)
(0.000328801 5.00026e-05 -5.90049e-05)
(0.000259903 -6.53292e-06 2.76336e-05)
(0.000232672 3.00488e-05 -0.000160978)
(0.0008026 -0.000172149 -0.000170654)
(-2.9835e-05 -0.000670384 3.91604e-05)
(0.000650393 -0.00013106 -0.000150564)
(0.000218854 -0.000115002 5.25169e-06)
(-2.81276e-05 8.1259e-05 -0.000208112)
(-0.000210205 -6.44006e-05 -1.8767e-05)
(6.0663e-05 6.79531e-05 6.30143e-05)
(-1.88697e-05 4.05153e-05 -0.000291305)
(0.00119682 -0.000202632 7.3106e-05)
(-0.000229317 -6.57407e-05 9.60782e-05)
(0.0013897 -0.000192415 -0.000133159)
(0.000198209 -4.72838e-05 0.000120645)
(-0.000456671 0.000334579 -0.000355243)
(-0.000517864 3.76256e-05 6.28005e-05)
(-0.000206352 0.000292535 0.000140366)
(-0.000172009 0.000133306 -0.000716481)
(0.00219462 -0.000634061 0.000867838)
(6.73671e-06 -0.000257517 0.000113138)
(0.00447489 -0.000656525 -0.000263389)
(2.96629e-06 -2.83805e-05 0.000473698)
(-0.00173192 0.000885405 0.00019729)
(-0.000782351 0.000294916 0.00058109)
(-0.00142152 0.00166223 0.00111753)
(-0.000488083 8.01835e-05 -0.0019546)
(-0.00919019 0.00175504 -0.00158985)
(-0.00303292 0.00118692 0.00035932)
(-0.0108917 0.00258352 0.00258077)
(-0.00447477 0.000517893 -0.00321657)
)
;
    }
    procBoundary7to0
    {
        type            processor;
        value           uniform (0.000303464 2.04376e-05 4.31685e-05);
    }
    procBoundary7to1
    {
        type            processor;
        value           uniform (0.000227475 -1.63322e-06 -6.8331e-05);
    }
    procBoundary7to3
    {
        type            processor;
        value           nonuniform List<vector> 
36
(
(0.000631521 2.95586e-05 1.87128e-05)
(0.00149172 -7.03551e-05 1.7915e-06)
(-0.000198391 -0.000117826 9.13637e-07)
(-0.00119265 -1.5523e-05 -1.53985e-05)
(-0.000552354 2.24811e-06 -1.81622e-05)
(-0.000713115 9.25519e-06 -0.000104924)
(-0.000964913 1.38882e-05 -0.000219412)
(-0.00158019 7.02335e-05 -0.000573641)
(-0.00210331 0.000135413 -0.000841802)
(0.00042125 4.5032e-05 7.38513e-06)
(0.000537736 -5.92853e-05 -1.49985e-06)
(-8.14764e-05 -8.71994e-05 7.47611e-06)
(-0.000377167 -7.82072e-06 -2.19952e-06)
(-0.000409157 4.61403e-05 -2.07677e-05)
(-0.000677723 8.89488e-05 -0.000127084)
(-0.000948847 0.00013431 -0.000246347)
(-0.00154407 0.000304302 -0.000589506)
(-0.00223869 0.000463074 -0.000866857)
(0.000368394 1.5789e-05 1.13405e-06)
(0.000282063 -6.69531e-05 -1.10123e-05)
(-3.40723e-05 -0.000112642 6.25834e-06)
(-0.000113921 -5.11941e-05 -1.10623e-05)
(-0.000277464 3.56888e-05 -3.94396e-05)
(-0.000634487 0.000153418 -0.000149838)
(-0.000936621 0.000278952 -0.000300624)
(-0.00163093 0.000591904 -0.000649158)
(-0.00241053 0.000886357 -0.000989477)
(0.000349992 2.87351e-05 1.54614e-06)
(0.000304864 -6.17394e-05 -7.53277e-06)
(0.000132933 -0.000141011 -2.32257e-06)
(-6.21667e-05 -4.80582e-05 -3.17037e-05)
(-0.000174983 2.21522e-05 -5.55263e-05)
(-0.000554369 0.000199576 -0.000175585)
(-0.000789599 0.000349129 -0.000334247)
(-0.00180892 0.000748319 -0.000805737)
(-0.00294785 0.00118802 -0.00137347)
)
;
    }
    procBoundary7to5
    {
        type            processor;
        value           nonuniform List<vector> 
44
(
(0.000236641 -2.30976e-05 -5.38912e-05)
(-0.00011786 9.69365e-06 -1.01987e-05)
(-0.00031016 -1.48214e-05 1.38738e-06)
(-0.000384176 -3.66192e-05 -5.17394e-06)
(-0.000508793 -7.00909e-05 -2.25681e-05)
(-0.000935534 -0.000139355 -6.9827e-05)
(-0.00149022 -0.000315295 -0.000226559)
(-0.00190522 -0.000431904 -0.000326314)
(0.000215794 -1.09253e-05 6.05177e-06)
(9.83269e-05 -2.54185e-05 -6.32197e-05)
(-0.000125915 -8.82643e-06 -4.53155e-05)
(-0.00019539 -2.42382e-05 -1.17591e-05)
(-0.000297111 -4.99768e-05 9.5338e-06)
(-0.000274886 -7.83171e-05 1.62078e-05)
(-0.000843322 -0.000181036 4.36315e-05)
(-0.00156101 -0.000413554 9.24353e-05)
(-0.00180588 -0.0005572 0.000162653)
(0.000215794 -1.09253e-05 6.05177e-06)
(9.83269e-05 -2.54185e-05 -6.32197e-05)
(9.83269e-05 -2.54185e-05 -6.32197e-05)
(-7.71286e-05 -2.04578e-05 -7.23804e-05)
(-0.000146411 -2.72613e-05 -3.76071e-05)
(-0.000200121 -7.51005e-05 3.12233e-05)
(-0.000372586 -0.000162281 3.75034e-05)
(-0.000755295 -0.000243827 2.41339e-05)
(-0.00141295 -0.000563343 0.000262797)
(-0.00196592 -0.000893965 0.000515417)
(0.000104015 -7.41907e-06 -1.70055e-06)
(6.46463e-05 -1.54213e-05 -3.66474e-05)
(-7.71286e-05 -2.04578e-05 -7.23804e-05)
(-0.000146411 -2.72613e-05 -3.76071e-05)
(-0.000146411 -2.72613e-05 -3.76071e-05)
(-0.000272032 -4.56984e-05 -2.07171e-06)
(-0.00047002 -0.000101904 1.07766e-05)
(-0.000701584 -0.000303413 9.07745e-05)
(-0.00142316 -0.000626474 0.000237395)
(-0.00219054 -0.00103865 0.000386029)
(0.000106251 -1.37708e-05 8.42196e-06)
(8.67124e-05 -2.25019e-05 -3.0197e-05)
(-3.96904e-05 -2.44426e-05 -6.31925e-05)
(-0.000146804 -3.61458e-05 -3.60671e-05)
(-0.000272032 -4.56984e-05 -2.07171e-06)
(-0.00047002 -0.000101904 1.07766e-05)
(-0.00047002 -0.000101904 1.07766e-05)
)
;
    }
    procBoundary7to6
    {
        type            processor;
        value           nonuniform List<vector> 
12
(
(0.000246691 2.22646e-05 2.0971e-05)
(0.00022553 7.81892e-06 1.17192e-05)
(0.000239557 6.4119e-06 3.58487e-06)
(0.000118066 7.04326e-07 1.76701e-06)
(0.000148829 -6.72363e-07 4.61812e-06)
(0.0001617 4.19632e-06 -1.0982e-06)
(0.000102011 8.63861e-07 -6.23515e-06)
(0.000125058 -9.77039e-07 -3.17419e-06)
(0.000154567 -2.08028e-06 -8.30193e-06)
(9.55184e-05 -3.04363e-06 -1.37578e-05)
(0.000122592 -2.53575e-06 -1.78887e-05)
(0.000151797 -4.35789e-06 -2.27286e-05)
)
;
    }
}


// ************************************************************************* //
