/*--------------------------------*- C++ -*----------------------------------*\
| =========                 |                                                 |
| \\      /  F ield         | OpenFOAM: The Open Source CFD Toolbox           |
|  \\    /   O peration     | Version:  4.x                                   |
|   \\  /    A nd           | Web:      www.OpenFOAM.org                      |
|    \\/     M anipulation  |                                                 |
\*---------------------------------------------------------------------------*/
FoamFile
{
    version     2.0;
    format      ascii;
    class       volScalarField;
    location    "26";
    object      Ksl;
}
// * * * * * * * * * * * * * * * * * * * * * * * * * * * * * * * * * * * * * //

dimensions      [1 -3 -1 0 0 0 0];

internalField   nonuniform List<scalar> 
132
(
19346.2
3431.42
16912.3
3609.82
43488
3717.19
83174.6
4012.73
15546.4
28496.1
3576.45
32792.9
3675.35
174259
3765.26
31936
3977.27
8184.14
19060.6
3446.44
17008.4
3302.17
19267.5
3183.43
16751
2847.62
8609.33
6692.44
2992.09
6712.21
2806.99
6756.05
2641.56
7669.26
2416.33
15183.2
63730.9
3968.46
1e+10
4028.08
1.06355e+07
5274.96
16981.9
98241.3
3897.4
1e+10
3878.9
1e+10
3768.9
5.09039e+06
3763.89
30852.5
2.42613e+06
3816.69
1e+10
4037.69
1e+10
4401.1
131188
5113.46
18346.7
9729.43
3353.21
10185.3
3299.29
14962.9
3324.8
21332.3
3259.33
13810.1
1e+10
3567.76
119317
3882.99
15078.8
79629.8
3653.13
1e+10
3606.81
1e+10
3619.24
52666.7
3765.98
9110.88
17024.8
3424.53
16616.8
3234.59
17233.1
2952.03
12437.5
2484.68
5808.67
6481.09
2976.77
6473.64
2820.22
6387.43
2561.68
6515.37
2049.56
9219.66
13962.2
3065.25
12670.3
10048.7
3327.1
11502.9
3349.55
14916.9
3470.61
22151.9
3835.71
32707.6
7391.31
3133.15
7422.33
3077.9
8523.88
2990.69
9455.59
2904.74
14002.2
5201.61
2839.17
5336.93
2806.76
5488.19
2700.12
5141.29
2702.05
4627.55
)
;

boundaryField
{
    inlet
    {
        type            zeroGradient;
    }
    outlet
    {
        type            zeroGradient;
    }
    wall
    {
        type            zeroGradient;
    }
    procBoundary7to0
    {
        type            processor;
        value           uniform 3594.59;
    }
    procBoundary7to1
    {
        type            processor;
        value           uniform 39452.6;
    }
    procBoundary7to3
    {
        type            processor;
        value           nonuniform List<scalar> 
36
(
898569
13657.4
5658.3
4776.77
74511.4
4208.6
36061.7
3885.1
8572.5
17005.8
3667.26
31590
3623.64
137161
3585.29
83222.3
3283.88
21653.3
191374
3494.93
525221
4023.64
1e+10
3931.39
485372
4157.74
12819.5
7758.32
3118.55
6509.54
2928.58
7724.39
2814.75
8739.26
2424.68
8693.8
)
;
    }
    procBoundary7to5
    {
        type            processor;
        value           nonuniform List<scalar> 
44
(
3838.79
54879
3907.63
90405.9
3866.63
139111
4264.61
9308.13
86462.1
3378.33
1e+10
4229.9
3.52222e+06
4540.99
10666.2
4954.98
18145
86462.1
3378.33
3378.33
1e+10
3570.47
23132.5
3484.52
16375.8
3459.63
6799.75
96549.8
3564.33
1e+10
3570.47
3570.47
11579.8
3103.21
8726.15
2622.4
9822.68
9445.62
3247.98
8754.49
3156.43
11579.8
3103.21
3103.21
)
;
    }
    procBoundary7to6
    {
        type            processor;
        value           nonuniform List<scalar> 
12
(
3631.03
3557.94
3115.2
3919.02
3789.58
3379.33
3697.99
3562.75
3126.89
3356.86
3221.6
2944.33
)
;
    }
}


// ************************************************************************* //
