/*--------------------------------*- C++ -*----------------------------------*\
| =========                 |                                                 |
| \\      /  F ield         | OpenFOAM: The Open Source CFD Toolbox           |
|  \\    /   O peration     | Version:  4.x                                   |
|   \\  /    A nd           | Web:      www.OpenFOAM.org                      |
|    \\/     M anipulation  |                                                 |
\*---------------------------------------------------------------------------*/
FoamFile
{
    version     2.0;
    format      ascii;
    class       volScalarField;
    location    "26";
    object      p;
}
// * * * * * * * * * * * * * * * * * * * * * * * * * * * * * * * * * * * * * //

dimensions      [1 -1 -2 0 0 0 0];

internalField   nonuniform List<scalar> 
132
(
18.2156
72.9562
-1.13207
70.1413
-16.2571
64.2641
-34.6977
59.7512
-52.9327
18.785
74.1516
0.963526
69.0799
-17.0443
63.1177
-35.0867
57.8419
-51.1625
17.7216
73.916
-1.59262
69.0104
-21.3782
64.118
-42.3395
61.2329
-63.6345
17.7716
74.1403
-1.76344
68.8972
-21.9206
64.4748
-43.0621
62.3796
-64.0357
-1874.96
-1809.65
-1892.95
-1812.74
-1910.39
-1819.29
-1926.68
-1856.69
-1804.39
-1874.33
-1808.45
-1892.95
-1813.57
-1912.09
-1818.76
-1929.41
-1858.49
-1804.56
-1876.62
-1809.55
-1894.67
-1813.42
-1912.39
-1819.83
-1927.16
-1858.94
-1803.95
-1877.88
-1808.74
-1897.05
-1813.7
-1916.89
-1818.84
-1935.56
-3775.3
-3692.16
-3793.89
-3696.44
-3810.88
-3736.22
-3681.56
-3754.93
-3686.95
-3773.42
-3692.75
-3791.53
-3698.47
-3807.85
-3737.28
-3681.71
-3756.87
-3687.09
-3776.95
-3692.17
-3798.66
-3695.14
-3822.29
-3737.19
-3681.6
-3756.49
-3687.09
-3776.48
-3691.82
-3797.85
-3694.25
-3822.71
-5673.81
-5573.7
-5693.41
-5614.04
-5559.36
-5632.56
-5564.61
-5651.12
-5569.92
-5668.97
-5575.14
-5685.18
-5614.78
-5559.65
-5633.57
-5564.85
-5652.87
-5569.64
-5672.42
-5573.68
-5692.31
-5614.61
-5559.5
-5633.5
-5564.85
-5652.69
-5569.97
-5671.94
-5574.35
-5689.8
)
;

boundaryField
{
    inlet
    {
        type            calculated;
        value           nonuniform 0();
    }
    outlet
    {
        type            calculated;
        value           nonuniform List<scalar> 
16
(
0
0
0
0
-1877.91
-1877.91
-1877.91
-1877.91
-3755.83
-3755.83
-3755.83
-3755.83
-5633.74
-5633.74
-5633.74
-5633.74
)
;
    }
    wall
    {
        type            calculated;
        value           nonuniform List<scalar> 
66
(
-6552.99
-6553.74
-6553.57
-6498.31
-6498.61
-6498.45
-6571.51
-6572.52
-6572.46
-6503.55
-6503.8
-6503.8
-6590.05
-6591.81
-6591.65
-6508.83
-6508.57
-6508.92
-6612.72
-6607.86
-6611.34
-6610.89
-6512.58
-6514.02
-6512.59
-6513.28
-6632.03
-6623.85
-6630.75
-6627.91
17.7716
-1858.94
-3737.19
-5614.61
74.1403
-1803.95
-3681.6
-5559.5
-1.76344
-1877.88
-3756.49
-5633.5
68.8972
-1808.74
-3687.09
-5564.85
-21.9206
-1897.05
-3776.48
-5652.69
64.4748
-1813.7
-3691.82
-5569.97
-43.0621
-1916.89
-3797.85
-5671.94
62.3796
-1818.84
-3694.25
-5574.35
-64.0357
-1935.56
-3822.71
-5689.8
)
;
    }
    procBoundary7to0
    {
        type            processor;
        value           uniform 80.1164;
    }
    procBoundary7to1
    {
        type            processor;
        value           uniform 19.2216;
    }
    procBoundary7to3
    {
        type            processor;
        value           nonuniform List<scalar> 
36
(
1898.52
1948.44
1868.69
1945.9
1854.86
1944.26
1837.7
1938.05
1823.3
1896.81
1950.95
1877.39
1948.67
1859.33
1942.57
1840.08
1937.63
1821.89
1895.87
1950.84
1877.63
1945.87
1858.34
1943.16
1839.3
1937.21
1823.72
1895.73
1951.35
1876.42
1947.12
1856.43
1942.88
1834.32
1939.69
1809.89
)
;
    }
    procBoundary7to5
    {
        type            processor;
        value           nonuniform List<scalar> 
44
(
73.5808
1.29602
69.7768
-15.9999
63.3963
-33.1409
56.8615
-48.449
-1858.48
-1805
-1871.97
-1808.72
-1892.24
-1816.7
-1913.08
-1817.18
-1930.84
-1858.48
-1805
-1805
-3756.02
-3686.72
-3774.51
-3692.77
-3793.29
-3697.86
-3810.56
-3737.11
-3681.94
-3756.02
-3686.72
-3686.72
-5653.62
-5569.47
-5674.17
-5573.14
-5696.92
-5615.05
-5559.87
-5634.18
-5564.71
-5653.62
-5569.47
-5569.47
)
;
    }
    procBoundary7to6
    {
        type            processor;
        value           nonuniform List<scalar> 
12
(
80.4936
80.4681
80.382
-1797.93
-1797.46
-1797.51
-3674.85
-3675.09
-3675.24
-5553.08
-5553.18
-5553.24
)
;
    }
}


// ************************************************************************* //
