/*--------------------------------*- C++ -*----------------------------------*\
  =========                 |
  \\      /  F ield         | OpenFOAM: The Open Source CFD Toolbox
   \\    /   O peration     | Website:  https://openfoam.org
    \\  /    A nd           | Version:  4.x
     \\/     M anipulation  |
\*---------------------------------------------------------------------------*/
FoamFile
{
    version     2.0;
    format      ascii;
    class       vectorField;
    location    0;
    object      v;
}
// * * * * * * * * * * * * * * * * * * * * * * * * * * * * * * * * * * * * * //

407
(
( 6.54461e-09 -3.54297e-10 2.31521e-09 )  
( 5.35593e-09 -1.27788e-09 4.84049e-10 )  
( 1.92057e-09 -4.28257e-10 2.81586e-10 )  
( 5.14163e-09 -3.02315e-10 3.66963e-10 )  
( 3.88778e-10 -1.43479e-09 4.21265e-10 )  
( 5.5766e-09 -1.04223e-09 1.79754e-09 )  
( 6.97216e-09 3.73074e-10 2.50354e-09 )  
( 6.85601e-09 7.60781e-11 1.39485e-09 )  
( 2.59527e-09 -7.65743e-10 -4.20992e-09 )  
( 5.20082e-09 2.7123e-10 -8.28029e-10 )  
( 3.00278e-09 -3.04711e-10 -3.73477e-09 )  
( 4.5827e-09 5.80074e-10 -1.34435e-09 )  
( 3.89009e-09 -8.67036e-10 -2.90094e-09 )  
( 4.93856e-09 -9.01731e-10 -2.64598e-09 )  
( 4.40609e-09 -1.58059e-10 -2.31395e-09 )  
( 7.66402e-09 1.03859e-09 3.43515e-09 )  
( 9.14517e-10 3.43143e-10 -3.01437e-09 )  
( 7.42512e-09 -1.05363e-10 1.04759e-09 )  
( 1.39097e-09 -4.25811e-10 -1.29755e-09 )  
( 5.80185e-09 8.12203e-10 2.40511e-10 )  
( 5.55734e-10 -1.56589e-10 -1.29372e-09 )  
( 6.86573e-09 -2.80513e-10 -2.42413e-11 )  
( 2.03455e-09 9.87576e-10 -1.91052e-09 )  
( 7.0078e-09 7.25267e-10 4.60578e-09 )  
( 2.65413e-09 4.28726e-10 -2.58063e-09 )  
( 2.08705e-09 9.14671e-10 -3.78873e-09 )  
( 6.35781e-09 -6.39765e-10 -7.01696e-10 )  
( 5.82774e-09 -6.5136e-10 1.75963e-09 )  
( 1.05607e-09 -1.09409e-09 5.88017e-10 )  
( -1.1755e-09 1.65923e-10 -4.79755e-10 )  
( 2.69602e-09 3.31191e-10 7.99738e-10 )  
( 7.52576e-10 5.98665e-10 -4.92494e-09 )  
( 3.75856e-09 1.12015e-09 -7.11618e-10 )  
( 3.50348e-09 -1.05993e-11 1.46974e-10 )  
( 4.98192e-09 -1.22681e-09 -2.24818e-10 )  
( 7.15197e-09 4.99146e-10 1.41505e-10 )  
( 7.9649e-09 1.58465e-11 1.09088e-09 )  
( 2.14228e-09 4.01724e-10 1.41061e-09 )  
( 7.54835e-09 -1.07172e-09 1.03882e-09 )  
( 8.3015e-09 2.3051e-10 1.54845e-09 )  
( 1.46106e-09 8.4046e-10 1.48377e-09 )  
( 3.37997e-09 -2.57336e-10 -2.64443e-09 )  
( 2.21841e-09 1.07955e-09 -2.52275e-09 )  
( 4.22181e-09 -2.61338e-10 -2.28851e-09 )  
( 6.41697e-09 1.65262e-10 -4.40061e-10 )  
( 2.3424e-09 2.31361e-10 -5.64585e-10 )  
( 5.52328e-09 -8.99729e-10 8.09011e-10 )  
( 8.32493e-09 -5.14813e-10 8.28837e-10 )  
( 7.09054e-09 -5.15144e-10 1.33479e-09 )  
( 6.66969e-10 -1.02987e-09 6.42222e-10 )  
( -2.48514e-10 -4.38885e-10 -2.97853e-09 )  
( 6.44095e-09 -6.24442e-10 1.17068e-09 )  
( 1.97219e-09 3.86872e-10 8.6506e-10 )  
( 6.4131e-09 1.49755e-09 5.87335e-10 )  
( 2.68795e-09 -1.48202e-10 -2.35129e-09 )  
( 1.48885e-09 2.79085e-10 4.28412e-10 )  
( 5.75996e-09 1.59354e-10 5.92631e-10 )  
( 3.10775e-09 -2.10217e-10 -7.14387e-10 )  
( 5.58902e-09 -3.78846e-10 7.33205e-10 )  
( 7.51966e-09 7.43288e-10 3.56278e-10 )  
( -4.46239e-10 -1.74976e-11 -1.53698e-09 )  
( 5.76222e-09 -1.0832e-09 2.80742e-10 )  
( 4.50859e-09 4.80925e-10 -5.58667e-10 )  
( 4.62374e-09 -5.40355e-11 2.06037e-09 )  
( -7.77276e-10 1.47601e-09 -2.46213e-09 )  
( 2.09773e-09 -4.57355e-10 -4.4124e-09 )  
( 3.76859e-09 4.90923e-11 1.58171e-09 )  
( 4.27895e-10 -4.02728e-10 -1.69686e-09 )  
( -3.89053e-10 -7.02853e-11 -1.89161e-09 )  
( 7.5239e-09 -6.0152e-10 1.11913e-09 )  
( 5.34296e-09 -1.77762e-09 9.58566e-10 )  
( 2.3168e-09 -8.43693e-10 -3.8449e-09 )  
( 1.46618e-09 1.02352e-09 1.01138e-09 )  
( 1.60402e-10 5.89321e-11 5.88644e-10 )  
( 1.01833e-09 2.9127e-10 -2.90277e-09 )  
( 4.85721e-09 -2.70074e-10 -9.59495e-10 )  
( 6.04586e-09 -3.77506e-10 9.40409e-10 )  
( 7.20537e-09 -8.53187e-10 -7.19197e-10 )  
( 1.6429e-09 1.42151e-09 -3.35016e-09 )  
( 3.35526e-09 -5.19249e-10 1.5516e-10 )  
( 4.39221e-09 -1.48862e-09 -5.99886e-10 )  
( 4.29111e-09 1.05124e-09 -3.35849e-10 )  
( 3.59042e-10 1.85883e-10 -7.78291e-10 )  
( 3.16729e-09 -8.45457e-10 4.55199e-10 )  
( 6.71661e-09 -6.94859e-10 1.70393e-09 )  
( 1.17844e-09 -6.35851e-11 7.86567e-10 )  
( 3.2467e-09 -2.76138e-10 -2.15428e-09 )  
( 4.06822e-09 -1.69684e-10 -2.24368e-09 )  
( 4.87223e-09 -2.92367e-11 1.44751e-09 )  
( 6.14857e-10 3.69283e-10 3.22859e-10 )  
( 1.71337e-09 5.03527e-10 -2.54403e-09 )  
( 1.93187e-09 2.26618e-11 -2.86028e-09 )  
( 5.30759e-09 -7.41793e-10 9.98366e-11 )  
( 7.9233e-09 -9.17715e-10 1.32093e-09 )  
( 4.70573e-09 -1.72571e-10 -1.62306e-09 )  
( 1.61315e-09 -2.75029e-10 5.67715e-10 )  
( 2.50204e-10 1.62629e-10 2.0971e-10 )  
( 7.7154e-09 -4.279e-10 -7.3351e-10 )  
( 4.01682e-09 1.53073e-09 9.08518e-10 )  
( 3.52986e-09 1.56247e-09 -3.8436e-10 )  
( 2.07354e-09 -2.46536e-10 -4.12132e-09 )  
( -4.10203e-10 5.24549e-10 6.44822e-10 )  
( 2.84529e-09 9.65289e-10 -1.84263e-09 )  
( 2.16541e-09 -1.57034e-10 -2.12415e-09 )  
( -2.35607e-10 4.37487e-10 -6.62495e-10 )  
( 4.15105e-09 -3.72443e-10 5.34566e-10 )  
( 1.48678e-09 -8.41657e-10 -1.6958e-09 )  
( 1.64608e-09 1.40925e-09 1.51201e-09 )  
( 8.83207e-10 4.03892e-10 -2.51227e-09 )  
( 6.14864e-09 -3.65816e-11 -5.9423e-10 )  
( 4.93477e-09 -6.38334e-10 -3.24782e-09 )  
( 2.13724e-09 -1.58678e-10 5.97514e-11 )  
( 6.3369e-09 -5.29731e-10 1.05237e-09 )  
( 5.72163e-09 -9.03132e-10 6.94111e-10 )  
( 1.72228e-09 2.62672e-10 7.22748e-10 )  
( 4.83004e-09 5.38196e-10 3.7381e-10 )  
( 6.75337e-09 8.52139e-10 7.17149e-10 )  
( 6.00165e-10 6.97917e-10 -2.85745e-09 )  
( 2.92547e-09 3.29362e-10 1.14902e-09 )  
( 3.62961e-09 -6.28649e-10 9.53885e-11 )  
( 7.66805e-09 -2.86353e-10 9.40657e-10 )  
( 5.42875e-09 -2.16894e-10 3.92191e-10 )  
( 6.78445e-09 -1.27981e-09 1.30288e-09 )  
( 2.48608e-09 -1.04305e-09 -9.58462e-11 )  
( 4.16778e-09 1.91439e-09 -6.25886e-10 )  
( -3.0118e-10 -2.82216e-10 -2.01464e-09 )  
( 7.2778e-09 6.72368e-10 4.24227e-10 )  
( 1.03576e-09 -7.20432e-11 -1.93899e-09 )  
( 7.43248e-09 -1.15568e-09 -2.75234e-09 )  
( 2.74218e-09 1.05129e-10 -3.8635e-09 )  
( 4.16637e-09 2.58765e-09 5.29936e-10 )  
( -1.06182e-09 -3.03079e-11 -4.92724e-10 )  
( 6.07518e-09 -1.53733e-09 1.40873e-09 )  
( 4.11739e-10 1.3164e-10 1.19911e-09 )  
( 8.25294e-10 -2.24424e-10 -1.16358e-09 )  
( 2.85378e-10 -1.79315e-10 2.15632e-10 )  
( -2.70881e-08 -1.26987e-08 3.16525e-10 )  
( 3.80536e-09 3.23398e-10 -5.67464e-10 )  
( 5.33033e-09 7.72757e-10 3.58111e-10 )  
( 6.72088e-10 -2.80319e-10 5.77352e-10 )  
( 7.07903e-09 -8.71985e-10 2.58506e-10 )  
( 4.83718e-09 9.11642e-10 -3.96931e-10 )  
( 1.26221e-09 -7.75513e-10 4.22379e-10 )  
( 5.10089e-09 1.26574e-09 1.15564e-09 )  
( 6.68961e-10 -2.19824e-10 -3.78771e-09 )  
( 4.34459e-10 9.67609e-11 -2.7782e-09 )  
( 2.64818e-09 3.51244e-10 -3.20652e-09 )  
( 7.18885e-09 -7.95401e-11 2.09745e-09 )  
( 2.29453e-09 1.16498e-09 -3.46962e-09 )  
( 6.95963e-09 -5.93179e-10 9.20646e-10 )  
( -1.21722e-09 1.47115e-09 3.49171e-10 )  
( 2.85867e-09 -1.41767e-10 -3.91852e-09 )  
( 6.96081e-11 -5.50219e-10 -9.56919e-10 )  
( 6.13225e-09 7.06027e-10 1.62714e-10 )  
( 3.96265e-09 -3.27942e-10 3.55831e-10 )  
( 1.53845e-09 -6.16616e-10 2.93795e-10 )  
( 1.23057e-09 2.51156e-10 8.82036e-10 )  
( 7.09894e-09 -4.30529e-10 2.62745e-09 )  
( 4.15133e-10 5.73208e-10 -1.4085e-09 )  
( 1.45801e-09 1.47864e-09 7.1046e-10 )  
( 8.93996e-10 7.67064e-11 8.1728e-10 )  
( -4.50346e-10 -9.27602e-11 5.00418e-10 )  
( 6.60271e-09 -9.73105e-10 2.75159e-09 )  
( 5.6894e-09 -1.49529e-10 3.93329e-09 )  
( 2.44328e-09 -3.33027e-10 1.89904e-09 )  
( 6.15876e-09 7.81084e-10 6.30014e-10 )  
( 7.29189e-09 1.58129e-10 9.82569e-10 )  
( 2.57591e-09 2.9403e-10 6.78891e-10 )  
( -2.22573e-10 3.90022e-11 -3.82892e-09 )  
( 6.5826e-09 -9.11244e-10 1.19589e-09 )  
( 2.45255e-10 6.79255e-10 -4.21556e-10 )  
( 6.84244e-09 -8.88024e-10 1.406e-09 )  
( 2.54816e-09 3.6926e-10 -1.48422e-09 )  
( 5.42481e-09 -2.87045e-11 2.64692e-10 )  
( 6.63251e-09 -9.90326e-11 -6.68275e-10 )  
( 4.83929e-09 5.26749e-10 1.48696e-09 )  
( 3.57204e-09 1.1944e-10 -7.75856e-11 )  
( 4.69169e-09 -6.88468e-10 6.44897e-10 )  
( -2.35101e-11 7.81518e-10 -1.05172e-09 )  
( 5.65001e-09 3.26949e-10 1.0011e-09 )  
( 1.04464e-09 -3.19414e-10 6.03336e-10 )  
( 6.14916e-09 2.7696e-09 1.22553e-09 )  
( 4.68722e-09 -7.81657e-11 1.03079e-09 )  
( 4.01891e-10 6.87706e-10 -5.17869e-10 )  
( -1.08207e-10 8.45645e-10 -2.16795e-09 )  
( 1.7749e-09 8.57585e-10 -1.83974e-10 )  
( 5.89314e-09 1.33536e-09 9.6009e-10 )  
( 6.66361e-09 9.36273e-10 5.54046e-10 )  
( 1.17596e-09 -1.25018e-10 4.95384e-10 )  
( 1.26387e-11 1.03908e-09 -3.73884e-10 )  
( 4.79672e-09 -5.62973e-10 4.17602e-10 )  
( 2.78609e-09 8.58368e-10 -5.3447e-10 )  
( 1.60665e-09 6.60533e-10 -1.21921e-09 )  
( 2.68411e-10 5.22745e-10 -1.43591e-09 )  
( 2.58536e-09 1.86694e-10 -1.96583e-09 )  
( 4.98591e-09 1.34122e-09 5.59361e-10 )  
( 5.95348e-09 1.73749e-09 -9.4772e-10 )  
( 5.42524e-09 -5.2718e-10 6.54623e-11 )  
( 6.22499e-09 -8.96051e-10 2.19436e-09 )  
( 8.26321e-09 1.59249e-09 1.0129e-09 )  
( 5.29564e-09 -4.14246e-11 8.21675e-10 )  
( 4.52132e-09 -3.97636e-10 3.01464e-10 )  
( 3.7083e-09 1.47802e-09 -1.35226e-09 )  
( 4.75289e-09 1.04646e-09 -7.93724e-11 )  
( 9.41544e-10 3.96801e-10 -3.33868e-10 )  
( 1.76256e-09 4.26866e-10 -7.37565e-10 )  
( 4.42802e-09 6.08518e-10 -9.86891e-10 )  
( 4.5368e-09 1.5558e-09 -2.85757e-10 )  
( 1.9469e-09 -1.40696e-09 3.64731e-10 )  
( 3.86813e-09 1.33653e-09 -1.13003e-09 )  
( 4.90698e-09 1.3279e-09 7.04307e-10 )  
( 2.88106e-09 1.24056e-09 -1.24946e-10 )  
( 2.26905e-09 4.71795e-10 5.12621e-10 )  
( 5.12561e-09 5.89043e-11 2.71584e-10 )  
( 4.2856e-09 1.20738e-09 4.63207e-10 )  
( 2.79871e-09 -4.3446e-10 4.06587e-10 )  
( 2.78368e-09 4.64931e-10 -7.18203e-10 )  
( 4.13926e-09 1.76214e-09 8.56431e-11 )  
( -3.02239e-10 8.8816e-10 -8.91024e-10 )  
( 2.43551e-09 -6.41753e-10 4.69879e-10 )  
( 6.2513e-10 3.9421e-10 -1.78744e-09 )  
( 4.51776e-09 7.45774e-11 2.09813e-10 )  
( 7.63945e-09 1.03084e-08 9.12051e-10 )  
( 1.17033e-10 8.26338e-10 -9.71919e-10 )  
( 7.65623e-09 3.41649e-09 3.06707e-10 )  
( 1.95192e-09 4.63746e-10 -2.01298e-11 )  
( 8.13371e-09 1.55972e-09 8.20525e-10 )  
( 2.74698e-09 -1.32695e-09 -7.23494e-10 )  
( 3.78057e-09 1.48856e-09 -1.13646e-09 )  
( 4.51512e-09 1.19202e-09 -1.07635e-10 )  
( 1.1093e-09 9.51427e-10 -3.93446e-10 )  
( 2.94541e-09 1.23546e-09 -1.41276e-09 )  
( 2.55364e-09 -6.61088e-10 2.50933e-10 )  
( 5.6192e-09 7.78006e-10 -2.42018e-11 )  
( 5.68433e-09 -8.30573e-11 7.88015e-10 )  
( 4.8463e-10 -5.14254e-10 3.63962e-10 )  
( 4.18596e-09 6.16085e-10 2.01164e-10 )  
( 5.24532e-09 -5.35706e-10 6.63928e-10 )  
( 9.44278e-10 -3.3185e-10 -7.64461e-10 )  
( 3.07151e-09 3.86347e-10 -2.32133e-09 )  
( 5.09221e-09 1.27207e-09 2.76063e-11 )  
( 2.21684e-09 1.49233e-09 -2.30062e-09 )  
( 2.17283e-09 -6.69858e-10 8.00916e-10 )  
( 6.15452e-09 3.1486e-09 -5.04783e-10 )  
( 5.16514e-09 1.88886e-10 8.57532e-10 )  
( 3.86414e-09 1.23733e-09 3.24823e-10 )  
( 2.40511e-09 3.3879e-10 4.25017e-10 )  
( -2.28159e-10 7.74294e-10 -3.18101e-10 )  
( 3.75893e-10 3.84565e-10 -4.27948e-10 )  
( 1.33422e-09 1.31284e-11 -1.37284e-09 )  
( 3.01312e-09 1.68689e-09 -1.32278e-09 )  
( 3.13845e-09 1.44191e-09 -1.08483e-09 )  
( 3.52996e-09 8.22029e-10 -6.96216e-10 )  
( 4.86688e-09 3.34111e-10 -4.14962e-10 )  
( 4.82099e-09 1.68364e-09 -7.79813e-10 )  
( 3.10404e-10 3.04553e-10 -2.05976e-09 )  
( 1.75353e-09 8.61737e-10 -2.48522e-09 )  
( 4.52198e-09 1.83205e-09 3.27981e-10 )  
( 6.29665e-10 1.12247e-09 -1.20764e-09 )  
( 4.41997e-09 4.52058e-10 8.37519e-10 )  
( 5.64257e-09 -1.1059e-10 8.28679e-10 )  
( 5.73356e-09 3.37144e-10 3.48078e-10 )  
( 6.1907e-09 2.04108e-09 3.80764e-10 )  
( 2.70794e-09 -2.80135e-10 5.03394e-10 )  
( 4.75792e-09 1.20365e-09 9.89498e-10 )  
( -2.48218e-10 1.12011e-09 4.27964e-10 )  
( 5.26644e-09 8.69161e-10 9.27483e-10 )  
( 1.22946e-09 6.31384e-10 -1.28811e-09 )  
( 2.41748e-09 -6.86178e-10 6.06688e-10 )  
( 4.3004e-09 -5.94907e-10 -1.83853e-09 )  
( 1.33368e-09 -4.25367e-10 8.06713e-10 )  
( -1.17993e-10 6.52246e-10 -3.64964e-10 )  
( 1.31989e-09 -5.35644e-10 2.13859e-10 )  
( 3.71526e-09 -3.00806e-10 2.02942e-10 )  
( 5.21814e-09 7.36727e-10 7.20253e-10 )  
( 4.53899e-09 1.10397e-09 1.24325e-09 )  
( 5.09914e-09 2.19136e-09 2.00034e-09 )  
( 2.46359e-09 -1.88035e-10 -3.24698e-10 )  
( 1.60721e-10 5.59669e-10 -1.65743e-09 )  
( 6.31016e-09 3.96592e-09 2.43247e-10 )  
( -4.08577e-10 6.60253e-10 -1.35922e-09 )  
( 2.131e-09 5.94282e-10 -1.95887e-09 )  
( 3.38379e-09 1.26415e-09 4.23239e-10 )  
( 5.43681e-09 3.91645e-09 1.114e-09 )  
( 2.83559e-09 -4.23646e-10 4.64208e-10 )  
( 5.33277e-09 1.31598e-09 5.1129e-10 )  
( 1.51414e-09 9.56937e-10 -1.61797e-09 )  
( 2.14488e-09 1.62716e-09 -1.85626e-09 )  
( -5.44299e-10 2.06888e-11 1.00047e-09 )  
( 5.96085e-09 2.60051e-10 1.00195e-09 )  
( 1.11302e-09 8.51164e-10 -1.28625e-09 )  
( 6.7553e-09 7.27937e-10 9.18334e-10 )  
( 2.6626e-09 2.27139e-09 -9.58606e-10 )  
( -3.11892e-10 7.26319e-10 -2.49766e-10 )  
( 9.9046e-10 -1.33155e-09 5.10721e-10 )  
( 5.06705e-09 6.33625e-10 9.15483e-10 )  
( 8.26587e-10 -8.48623e-10 -7.32774e-10 )  
( 4.68673e-09 2.41199e-09 -7.39187e-10 )  
( 4.01869e-09 1.20787e-09 1.88513e-09 )  
( 3.18103e-09 7.96297e-10 7.17786e-10 )  
( 4.61781e-09 6.047e-10 7.15652e-10 )  
( 3.73533e-09 1.2231e-09 -1.30159e-09 )  
( 4.0663e-09 -2.44606e-10 7.13245e-10 )  
( 1.43365e-10 5.98835e-10 -1.31445e-09 )  
( 1.8723e-09 -2.34839e-10 1.29723e-10 )  
( 6.06921e-09 1.31874e-09 1.47941e-09 )  
( 2.86421e-09 9.83709e-10 1.17534e-09 )  
( 3.123e-09 1.07911e-09 1.79945e-10 )  
( 2.73177e-09 4.53072e-10 5.8634e-10 )  
( 3.24664e-09 9.88296e-10 -2.98398e-10 )  
( 4.92913e-09 1.86046e-09 -3.42217e-10 )  
( 4.76246e-09 5.36136e-10 7.3702e-10 )  
( 5.73366e-09 1.14303e-09 -3.74158e-09 )  
( 1.16706e-09 1.07685e-09 -1.49041e-10 )  
( 5.77666e-09 -5.49806e-10 7.40354e-10 )  
( 5.90943e-09 1.143e-09 3.21501e-10 )  
( 1.87299e-09 -8.39007e-10 2.06956e-10 )  
( 2.50419e-09 7.08593e-10 -1.66908e-10 )  
( 2.48149e-09 7.21473e-10 -8.89712e-10 )  
( 4.19223e-09 6.99355e-10 2.97205e-10 )  
( -7.55044e-10 7.48995e-10 -1.36811e-09 )  
( 1.636e-09 8.32662e-10 -4.05791e-10 )  
( 4.60767e-09 7.013e-10 9.00271e-10 )  
( 5.60656e-09 5.92917e-10 3.77839e-10 )  
( 3.68352e-09 4.07967e-10 -7.8666e-11 )  
( 3.55914e-09 3.87806e-10 1.75316e-11 )  
( 5.37574e-09 -7.19223e-10 6.43531e-10 )  
( -8.51772e-10 1.15967e-09 -3.43861e-10 )  
( 2.66301e-09 -7.56355e-11 1.08865e-10 )  
( 2.83089e-09 1.78141e-10 -1.6159e-10 )  
( 3.22648e-09 -1.61151e-11 1.9418e-10 )  
( 2.84713e-09 -3.02348e-11 4.70269e-10 )  
( 2.77726e-09 1.28688e-09 -4.95999e-10 )  
( -6.34355e-11 2.36653e-09 -1.07462e-09 )  
( 4.82398e-10 1.55458e-09 -1.16548e-09 )  
( 3.07487e-09 5.2363e-10 4.18323e-11 )  
( 2.29905e-09 -2.00359e-10 3.40397e-10 )  
( -1.45907e-10 7.37243e-10 -1.25033e-09 )  
( -1.19359e-09 1.77332e-09 -7.82805e-10 )  
( 4.84377e-09 9.07843e-10 1.22342e-10 )  
( 4.05977e-09 5.09228e-10 -6.83474e-10 )  
( 3.121e-09 2.42534e-10 9.93885e-10 )  
( 3.92253e-09 5.8162e-10 8.84183e-10 )  
( 1.24157e-09 7.99015e-10 -6.17441e-10 )  
( 2.68649e-09 1.15544e-09 -1.89875e-10 )  
( 1.33941e-09 -4.74125e-10 -4.81604e-11 )  
( 1.73053e-09 2.3699e-11 1.70834e-10 )  
( 2.97163e-09 1.05843e-09 -3.4399e-10 )  
( 3.39724e-09 9.60774e-10 1.06279e-09 )  
( 4.07342e-10 3.48579e-09 -1.10367e-12 )  
( -1.36481e-09 -5.82877e-11 -2.46847e-10 )  
( 3.50694e-09 8.21092e-10 -1.95829e-10 )  
( -7.64412e-10 1.56097e-09 -5.64603e-10 )  
( 4.04264e-09 1.54916e-10 8.06438e-11 )  
( 2.61842e-09 1.04299e-09 3.19217e-10 )  
( 2.63641e-09 3.15909e-10 3.42325e-10 )  
( 3.23985e-09 1.09382e-09 1.59498e-09 )  
( 2.26391e-09 6.75816e-12 1.401e-10 )  
( 3.86382e-09 1.40746e-09 6.90745e-11 )  
( 3.87325e-10 3.43941e-09 -4.46692e-10 )  
( 2.34471e-09 6.43837e-10 -7.27268e-10 )  
( 1.34194e-09 2.85979e-10 -4.55583e-10 )  
( 1.16225e-09 4.13251e-10 -5.72317e-11 )  
( 3.36911e-09 1.12663e-09 3.37957e-10 )  
( 2.65196e-09 7.15456e-10 1.1739e-10 )  
( -3.50845e-10 6.20683e-10 -8.34163e-10 )  
( 9.1237e-09 3.70545e-09 -1.07162e-09 )  
( 1.03212e-09 -7.52378e-10 4.99872e-11 )  
( -4.67215e-09 -1.25011e-10 2.83066e-10 )  
( 3.71274e-09 2.15562e-09 2.80964e-10 )  
( 6.8315e-10 1.59934e-09 -1.78246e-09 )  
( 1.3781e-09 7.80269e-10 -5.81605e-10 )  
( -4.9541e-10 -3.38693e-10 2.55675e-10 )  
( 5.35994e-10 -7.13251e-10 6.70793e-12 )  
( 1.69644e-09 6.86044e-10 -1.0011e-09 )  
( 1.09237e-09 4.31447e-10 -5.10112e-11 )  
( 3.0201e-09 1.54834e-10 -2.95094e-10 )  
( 7.16292e-11 3.57153e-09 -1.29644e-10 )  
( 1.63406e-09 7.53874e-10 -2.96944e-10 )  
( 1.959e-09 2.62805e-10 -6.69751e-10 )  
( 1.38324e-09 -8.22462e-11 2.2733e-10 )  
( 1.38814e-09 4.32066e-12 -3.65561e-11 )  
( 2.06182e-09 1.45873e-10 -3.97353e-10 )  
( 1.50427e-09 1.2216e-10 2.26334e-10 )  
( 1.34517e-09 4.66209e-10 -5.39166e-10 )  
( 7.28579e-09 1.72736e-09 2.9443e-10 )  
( 1.77611e-09 5.33936e-10 -3.18015e-10 )  
( 2.63927e-10 -4.66524e-10 -1.71457e-10 )  
( 1.57946e-09 1.29768e-10 -4.03151e-11 )  
( -1.64903e-09 -1.00371e-10 3.02283e-10 )  
( 1.86015e-09 1.46981e-08 -3.10777e-10 )  
( 7.57869e-10 -1.7846e-10 6.12083e-11 )  
( 2.70718e-09 6.07715e-10 4.9106e-10 )  
( -6.12314e-10 6.95905e-10 -3.44938e-10 )  
( 2.07701e-09 2.7739e-10 -1.15148e-10 )  
( -1.52605e-09 3.2177e-09 -7.98551e-10 )  
( 9.41671e-10 7.29046e-10 -1.57984e-10 )  
( 1.36477e-09 1.72757e-10 2.6574e-10 )  
( -1.35346e-09 2.83592e-11 1.4865e-10 )  
( 2.01931e-09 5.16192e-10 4.65068e-10 )  
( 4.21746e-09 -6.0411e-08 -8.47201e-10 )  
( 1.38303e-09 1.20936e-11 1.85583e-10 )  
( 4.01753e-09 1.00073e-10 -1.35379e-10 )  
( 7.18968e-10 2.73235e-11 -2.99344e-10 )  
( 2.15617e-09 1.78391e-10 3.19714e-11 )  
( 1.65627e-09 3.86704e-10 -1.06636e-10 )  
( 1.5002e-09 4.97903e-10 -3.28233e-10 )  
)
