/*--------------------------------*- C++ -*----------------------------------*\
| =========                 |                                                 |
| \\      /  F ield         | OpenFOAM: The Open Source CFD Toolbox           |
|  \\    /   O peration     | Version:  4.x                                   |
|   \\  /    A nd           | Web:      www.OpenFOAM.org                      |
|    \\/     M anipulation  |                                                 |
\*---------------------------------------------------------------------------*/
FoamFile
{
    version     2.0;
    format      ascii;
    class       volScalarField;
    location    "45";
    object      magGField;
}
// * * * * * * * * * * * * * * * * * * * * * * * * * * * * * * * * * * * * * //

dimensions      [1 -2 -1 0 0 0 0];

internalField   nonuniform List<scalar> 
132
(
100.345
49.0229
110.685
65.4345
120.036
77.542
127.719
86.713
136.107
100.75
46.4311
108.126
58.8845
115.654
68.5067
121.816
75.8123
127.702
101.476
44.498
106.416
54.4025
111.325
61.6326
115.761
65.7561
117.627
100.961
44.9855
106.847
99.3343
42.2227
102.861
48.6161
106.483
53.5389
109.89
56.7017
112.898
99.0106
37.4779
99.9918
38.1699
100.242
36.7209
100.901
34.0112
101.973
98.2757
33.7925
97.706
30.3691
96.0576
24.4856
94.7552
16.5585
94.8797
97.106
35.0631
97.4639
32.3551
96.1887
97.3936
41.0553
99.8926
45.7007
103.058
49.8885
106.333
52.5361
110.07
96.8199
35.7892
96.7162
33.9631
96.4318
31.3558
97.0597
28.4033
99.0447
95.6888
31.7769
93.5132
23.4968
91.1826
16.641
90.6167
12.6727
91.2853
95.1204
30.6214
92.5813
22.0015
91.0784
16.4101
91.5184
97.2418
40.4048
98.9714
43.5297
100.364
44.5766
101.311
43.641
101.241
96.2305
32.8906
94.0139
26.7328
92.3243
20.3784
90.825
12.7603
90.3401
95.4097
28.8602
90.4829
15.6186
86.6819
4.4459
84.0543
3.61424e-05
81.3298
95.2223
29.9598
90.8976
18.6996
89.2807
11.3452
88.5623
6.93466
88.2241
)
;

boundaryField
{
    inlet
    {
        type            calculated;
        value           uniform 67;
    }
    outlet
    {
        type            calculated;
        value           nonuniform 0();
    }
    wall
    {
        type            calculated;
        value           uniform 0;
    }
    procBoundary0to1
    {
        type            processor;
        value           nonuniform List<scalar> 
12
(
93.2149
80.4322
66.137
57.9641
30.8808
8.08246
53.5666
27.8546
8.50408
37.681
5.46942
3.72401e-05
)
;
    }
    procBoundary0to2
    {
        type            processor;
        value           nonuniform List<scalar> 
44
(
55.4619
111.882
64.1091
117.336
69.7653
122.707
99.2672
41.85
55.4619
103.687
55.4619
111.882
27.2429
96.0002
23.6352
98.188
97.8441
34.0954
96.7802
28.8943
27.2429
95.1436
27.2429
96.0002
14.1
92.591
95.6242
31.516
92.5118
21.6259
89.7999
11.8936
14.1
87.6841
14.1
92.591
94.9975
29.0435
90.6734
18.9004
88.6182
11.0203
87.7401
4.15077
)
;
    }
    procBoundary0to4
    {
        type            processor;
        value           nonuniform List<scalar> 
36
(
96.1933
41.0146
97.5611
43.737
99.379
45.5803
100.991
46.0407
102.833
94.5343
33.568
92.3738
26.5237
91.041
21.7336
91.2603
17.1377
91.636
94.2062
30.0045
89.8045
19.5941
87.899
12.2504
87.5159
4.70945
87.5265
94.4455
29.7804
89.1226
17.7643
86.2715
7.31137
84.6471
0.161041
84.2007
)
;
    }
    procBoundary0to6
    {
        type            processor;
        value           uniform 87.7124;
    }
    procBoundary0to7
    {
        type            processor;
        value           uniform 2.4564;
    }
}


// ************************************************************************* //
