/*--------------------------------*- C++ -*----------------------------------*\
| =========                 |                                                 |
| \\      /  F ield         | OpenFOAM: The Open Source CFD Toolbox           |
|  \\    /   O peration     | Version:  4.x                                   |
|   \\  /    A nd           | Web:      www.OpenFOAM.org                      |
|    \\/     M anipulation  |                                                 |
\*---------------------------------------------------------------------------*/
FoamFile
{
    version     2.0;
    format      ascii;
    class       volScalarField;
    location    "45";
    object      QWallFluid;
}
// * * * * * * * * * * * * * * * * * * * * * * * * * * * * * * * * * * * * * //

dimensions      [1 -1 -3 0 0 0 0];

internalField   nonuniform List<scalar> 
132
(
1.71019e+09
9.64202e+08
1.84978e+09
1.21477e+09
1.97377e+09
1.39148e+09
2.07421e+09
1.52165e+09
2.1825e+09
8.57854e+08
4.616e+08
9.07744e+08
5.58238e+08
9.57957e+08
6.30094e+08
9.98581e+08
6.83298e+08
1.037e+09
0
4.4616e+08
8.96241e+08
5.23979e+08
9.29164e+08
5.78984e+08
9.58665e+08
6.09772e+08
9.71014e+08
8.59291e+08
4.50067e+08
8.99145e+08
8.48199e+08
4.27814e+08
8.72206e+08
4.78897e+08
8.96694e+08
5.17314e+08
9.19573e+08
5.41621e+08
9.39652e+08
0
0
0
0
0
0
0
0
0
0
0
0
0
0
0
0
0
0
0
0
0
0
0
8.34917e+08
4.18325e+08
8.52011e+08
4.55782e+08
8.73546e+08
4.88899e+08
8.95681e+08
5.09548e+08
9.20773e+08
0
0
0
0
0
0
0
0
0
0
0
0
0
0
0
0
0
0
0
0
0
0
0
0
0
8.33875e+08
4.13014e+08
8.4572e+08
4.38376e+08
8.55223e+08
4.4679e+08
8.61679e+08
4.39273e+08
8.61202e+08
0
0
0
0
0
0
0
0
0
0
0
0
0
0
0
0
0
0
0
0
0
0
0
0
0
0
0
)
;

boundaryField
{
    inlet
    {
        type            calculated;
        value           uniform 0;
    }
    outlet
    {
        type            calculated;
        value           nonuniform 0();
    }
    wall
    {
        type            calculated;
        value           uniform 0;
    }
    procBoundary0to1
    {
        type            processor;
        value           nonuniform List<scalar> 
12
(
1.61227e+09
7.16412e+08
6.12596e+08
5.51247e+08
0
0
5.17528e+08
0
0
3.90586e+08
0
0
)
;
    }
    procBoundary0to2
    {
        type            processor;
        value           nonuniform List<scalar> 
44
(
5.32126e+08
9.32879e+08
5.97523e+08
9.69088e+08
6.39338e+08
1.00441e+09
8.47741e+08
4.24791e+08
5.32126e+08
8.77804e+08
5.32126e+08
9.32879e+08
0
0
0
0
0
0
0
0
0
0
0
0
0
0
0
0
0
0
0
0
0
0
0
0
0
0
0
0
0
0
0
0
)
;
    }
    procBoundary0to4
    {
        type            processor;
        value           nonuniform List<scalar> 
36
(
8.26675e+08
4.17993e+08
8.36065e+08
4.40046e+08
8.48505e+08
4.54821e+08
8.59495e+08
4.58493e+08
8.72014e+08
0
0
0
0
0
0
0
0
0
0
0
0
0
0
0
0
0
0
0
0
0
0
0
0
0
0
0
)
;
    }
    procBoundary0to6
    {
        type            processor;
        value           uniform 0;
    }
    procBoundary0to7
    {
        type            processor;
        value           uniform 0;
    }
}


// ************************************************************************* //
