/*--------------------------------*- C++ -*----------------------------------*\
| =========                 |                                                 |
| \\      /  F ield         | OpenFOAM: The Open Source CFD Toolbox           |
|  \\    /   O peration     | Version:  4.x                                   |
|   \\  /    A nd           | Web:      www.OpenFOAM.org                      |
|    \\/     M anipulation  |                                                 |
\*---------------------------------------------------------------------------*/
FoamFile
{
    version     2.0;
    format      ascii;
    class       volVectorField;
    location    "45";
    object      Us;
}
// * * * * * * * * * * * * * * * * * * * * * * * * * * * * * * * * * * * * * //

dimensions      [0 1 -1 0 0 0 0];

internalField   nonuniform List<vector> 
132
(
(-3.90585e-10 2.66159e-10 2.98802e-10)
(-4.35471e-10 5.29208e-10 6.69371e-10)
(3.85312e-09 3.82852e-09 1.51348e-09)
(1.77024e-09 -6.9731e-10 -6.94606e-10)
(-1.01907e-09 -1.34137e-10 -2.4909e-10)
(-6.66547e-10 -7.41945e-11 2.57077e-10)
(-6.80955e-10 2.19169e-10 8.4405e-10)
(-4.56985e-10 3.47581e-10 7.50442e-11)
(-5.29675e-11 -1.17568e-10 4.9758e-10)
(-5.62644e-11 4.18742e-10 2.99293e-10)
(3.39916e-10 7.87143e-10 5.90563e-10)
(2.14332e-09 1.05995e-09 5.54339e-10)
(1.46093e-09 -1.20326e-09 6.20989e-11)
(5.36941e-10 -8.05951e-10 5.80445e-11)
(1.16396e-10 -3.19877e-10 4.3835e-10)
(9.54623e-10 -3.07491e-10 9.02893e-10)
(2.04343e-09 -5.02837e-10 1.68202e-09)
(3.35949e-09 -2.66506e-09 3.84916e-09)
(3.04608e-10 4.60925e-10 3.15472e-10)
(5.71694e-10 4.60336e-10 4.65442e-10)
(1.04175e-09 5.32714e-10 4.92829e-10)
(8.14329e-10 -3.93878e-10 4.94009e-10)
(7.54515e-10 -5.73847e-10 4.87988e-10)
(1.01926e-09 -4.91622e-10 4.88711e-10)
(1.24944e-09 -4.8318e-10 8.48655e-10)
(2.1797e-09 -1.3229e-09 1.63982e-09)
(2.42268e-09 -2.33931e-09 2.31355e-09)
(1.70026e-10 3.20885e-10 2.06094e-10)
(4.81586e-10 1.21694e-10 3.84079e-10)
(4.2894e-10 -4.30432e-11 4.34843e-10)
(-1.95991e-10 1.93569e-10 5.40595e-10)
(1.8175e-10 3.65354e-10 1.07212e-09)
(1.22993e-09 3.11864e-10 1.36309e-09)
(1.79095e-09 -3.46296e-10 -1.13804e-09)
(2.31041e-10 -2.05265e-10 -5.42284e-10)
(-2.17246e-10 -1.15471e-10 1.16548e-10)
(-4.1745e-10 -1.84188e-10 5.84879e-10)
(3.60464e-10 2.66331e-11 -4.70059e-10)
(-1.40624e-09 -1.30882e-09 3.22015e-09)
(4.22498e-11 3.17486e-10 3.80902e-10)
(4.60876e-10 6.19369e-10 8.03326e-10)
(1.37422e-09 4.07396e-10 9.0995e-10)
(1.40982e-09 -4.06384e-10 -7.63258e-11)
(4.93088e-10 -5.95794e-10 -1.33716e-10)
(7.20326e-11 -3.1767e-10 2.96109e-10)
(3.94123e-11 -2.20366e-10 7.59076e-10)
(3.75704e-10 -4.29638e-10 1.5629e-09)
(-2.48006e-10 7.1846e-11 4.65249e-09)
(1.06017e-10 2.92494e-10 2.54561e-10)
(4.87838e-10 4.71565e-10 5.07968e-10)
(7.98349e-10 2.32682e-10 4.98448e-10)
(8.7623e-10 -2.45585e-10 4.02404e-10)
(7.20416e-10 -4.24553e-10 3.66567e-10)
(7.47236e-10 -4.73157e-10 4.59358e-10)
(9.69885e-10 -4.49413e-10 8.53935e-10)
(1.02032e-09 -7.01438e-10 1.63434e-09)
(1.56058e-09 -7.98937e-10 2.86859e-09)
(1.6055e-10 2.34644e-10 2.27884e-10)
(3.24401e-10 1.95409e-10 3.6304e-10)
(3.68039e-10 1.15288e-10 5.482e-10)
(5.38133e-10 -2.29981e-10 5.33334e-10)
(5.6567e-10 -4.29396e-10 6.70025e-10)
(6.02823e-11 8.38659e-11 4.14836e-10)
(2.39907e-10 9.66087e-11 6.22459e-10)
(6.0067e-10 5.34741e-11 6.19958e-10)
(5.94202e-10 -3.06387e-11 -3.15742e-11)
(3.36839e-10 -4.54848e-11 -1.50159e-10)
(2.576e-11 6.06412e-11 3.49971e-10)
(-2.63056e-10 -6.27607e-11 7.49801e-10)
(3.25405e-11 -3.62906e-11 5.63176e-10)
(-1.34793e-09 -7.24515e-10 4.20124e-09)
(1.01321e-10 1.43059e-10 4.12341e-10)
(3.35689e-10 1.81751e-10 6.50736e-10)
(6.70828e-10 4.63708e-11 6.71021e-10)
(8.66148e-10 -1.54868e-11 4.39366e-10)
(4.83252e-10 -1.48482e-10 9.58744e-11)
(2.85967e-10 -2.13976e-10 4.40838e-10)
(1.29101e-10 -2.53714e-10 7.99591e-10)
(2.75934e-11 -4.04296e-10 1.42825e-09)
(-1.70148e-09 1.52231e-09 4.69954e-09)
(9.04701e-11 1.72539e-10 2.73446e-10)
(3.07397e-10 2.19184e-10 4.75398e-10)
(6.11858e-10 9.5136e-11 5.37392e-10)
(6.75424e-10 -6.77948e-11 4.90194e-10)
(7.61826e-10 -1.45147e-10 4.60455e-10)
(9.69215e-10 -1.7766e-10 6.73834e-10)
(5.18279e-10 -2.41173e-10 7.51471e-10)
(5.44339e-10 1.77441e-10 1.59178e-09)
(7.47379e-11 1.5985e-09 3.10077e-09)
(5.03697e-11 6.84672e-11 2.63615e-10)
(3.48143e-10 -9.92313e-11 4.53572e-10)
(4.28415e-10 -1.32397e-10 5.94319e-10)
(6.24092e-10 -2.68741e-10 6.55822e-10)
(8.18912e-10 -4.47814e-10 7.72797e-10)
(1.09564e-09 -3.01985e-10 7.14417e-10)
(1.51413e-09 -7.54791e-11 7.3532e-10)
(6.1519e-11 6.20748e-11 2.53043e-10)
(2.01498e-10 5.21566e-11 3.37914e-10)
(3.2173e-10 -9.72263e-12 3.29284e-10)
(3.24953e-10 4.41808e-11 1.99202e-10)
(2.82007e-10 8.41901e-12 1.04485e-10)
(1.15513e-10 5.72763e-11 3.36447e-10)
(-3.99155e-11 9.65463e-11 4.98514e-10)
(1.12046e-10 -9.77275e-11 1.21316e-09)
(-9.26919e-12 -3.21452e-10 2.92039e-09)
(7.63992e-11 5.35129e-11 2.68105e-10)
(2.57705e-10 1.06139e-10 4.00763e-10)
(4.10414e-10 7.29474e-11 4.26336e-10)
(6.77612e-10 1.07626e-10 3.7727e-10)
(5.87303e-10 1.52273e-10 2.78489e-10)
(4.56897e-10 1.14992e-10 5.0785e-10)
(3.63473e-10 1.01124e-10 6.56337e-10)
(2.70043e-10 2.90304e-11 1.20529e-09)
(-5.83137e-11 3.48607e-10 1.91347e-09)
(1.8999e-10 1.84057e-10 3.16885e-10)
(3.65386e-10 1.25062e-10 3.6986e-10)
(5.97409e-10 1.31008e-10 4.33655e-10)
(8.87851e-10 1.05804e-10 4.09308e-10)
(1.09322e-09 2.35208e-10 5.01639e-10)
(1.27097e-09 1.31777e-10 6.60089e-10)
(1.35856e-09 2.65475e-10 6.76208e-10)
(1.20882e-09 3.2529e-10 1.35772e-09)
(1.0113e-09 7.69771e-10 1.99746e-09)
(7.41026e-11 6.35706e-11 2.30996e-10)
(4.67093e-10 -8.02695e-11 3.71758e-10)
(7.20183e-10 -7.41659e-11 2.98686e-10)
(1.50245e-09 -8.47324e-12 5.1766e-10)
(1.86899e-09 1.71683e-10 6.70732e-10)
(2.02135e-09 -3.55988e-11 7.30821e-10)
(2.26387e-09 2.47633e-10 7.07553e-10)
(2.23159e-09 2.41541e-10 9.59443e-10)
(2.92976e-09 -2.51508e-10 1.06399e-09)
)
;

boundaryField
{
    inlet
    {
        type            zeroGradient;
    }
    outlet
    {
        type            zeroGradient;
    }
    wall
    {
        type            zeroGradient;
    }
    procBoundary0to1
    {
        type            processor;
        value           nonuniform List<vector> 
12
(
(1.02869e-08 7.12722e-09 2.59635e-08)
(4.25865e-09 -5.63623e-09 1.14703e-08)
(5.47666e-09 -7.22333e-09 4.25392e-09)
(-5.2471e-09 4.59378e-09 1.75734e-08)
(-2.44281e-09 3.52476e-10 1.21034e-08)
(2.83674e-09 -1.9774e-09 3.53279e-09)
(-6.30415e-10 8.38321e-11 3.444e-09)
(-1.90556e-10 6.16988e-10 4.86443e-09)
(2.40046e-09 1.9615e-11 3.20625e-09)
(3.73616e-10 1.96421e-10 2.19246e-09)
(8.0552e-10 4.88622e-10 2.21576e-09)
(2.29415e-09 1.15875e-10 1.82313e-09)
)
;
    }
    procBoundary0to2
    {
        type            processor;
        value           nonuniform List<vector> 
44
(
(6.0798e-10 -2.71363e-10 4.7002e-10)
(7.13164e-10 -4.11357e-10 6.9948e-10)
(1.21867e-09 -6.67439e-10 5.75002e-10)
(1.55525e-09 -6.99704e-10 8.41264e-10)
(2.56264e-09 -1.82518e-09 1.40571e-09)
(3.00735e-09 -2.70849e-09 1.6201e-09)
(2.64822e-10 7.17196e-12 1.21533e-10)
(2.55903e-10 -7.98935e-11 3.02356e-10)
(6.0798e-10 -2.71363e-10 4.7002e-10)
(3.16937e-10 -2.61269e-10 4.29314e-10)
(6.0798e-10 -2.71363e-10 4.7002e-10)
(7.13164e-10 -4.11357e-10 6.9948e-10)
(9.62478e-10 -5.00679e-10 6.10238e-10)
(1.26433e-09 -4.88554e-10 8.85681e-10)
(2.05151e-09 -1.10407e-09 1.14882e-09)
(2.60625e-09 -1.61608e-09 1.45872e-09)
(8.73948e-11 9.76271e-12 3.73487e-11)
(1.87526e-10 -4.62762e-11 2.09876e-10)
(1.93967e-10 -1.42494e-10 3.59309e-10)
(2.4961e-10 -2.88746e-10 4.42323e-10)
(9.62478e-10 -5.00679e-10 6.10238e-10)
(2.92892e-10 -5.67456e-10 4.65621e-10)
(9.62478e-10 -5.00679e-10 6.10238e-10)
(1.26433e-09 -4.88554e-10 8.85681e-10)
(2.06926e-09 -2.43774e-10 1.0963e-09)
(2.54899e-09 -4.76285e-10 1.36214e-09)
(9.27458e-11 -6.29923e-11 1.58029e-10)
(1.17333e-10 -1.36887e-10 2.93873e-10)
(1.78276e-10 -1.90084e-10 4.28263e-10)
(2.15356e-10 -3.02547e-10 6.00014e-10)
(2.69815e-10 -5.12843e-10 6.51386e-10)
(6.68182e-10 -3.33565e-10 4.81611e-10)
(2.06926e-09 -2.43774e-10 1.0963e-09)
(9.4455e-10 -4.87631e-10 5.83832e-10)
(2.06926e-09 -2.43774e-10 1.0963e-09)
(2.54899e-09 -4.76285e-10 1.36214e-09)
(9.2554e-11 -2.42337e-11 1.26986e-10)
(3.15285e-10 -1.81989e-10 2.90378e-10)
(4.56642e-10 -3.07757e-10 4.3676e-10)
(5.83864e-10 -2.60333e-10 4.47797e-10)
(8.01405e-10 -2.11525e-10 5.97073e-10)
(1.35293e-09 -2.12968e-10 3.82719e-10)
(1.65748e-09 -1.585e-10 5.44965e-10)
(2.4925e-09 -1.90582e-10 4.44381e-10)
)
;
    }
    procBoundary0to4
    {
        type            processor;
        value           nonuniform List<vector> 
36
(
(4.32676e-11 2.61669e-11 1.3023e-10)
(1.4647e-10 4.71464e-11 1.29186e-10)
(2.33571e-10 3.53879e-11 1.26053e-10)
(2.9821e-10 5.88423e-11 1.55305e-10)
(3.25926e-10 1.11721e-10 1.14021e-10)
(2.39675e-10 9.16513e-11 1.9401e-10)
(2.39714e-10 2.72023e-11 3.68914e-10)
(2.00691e-10 1.26846e-10 5.96298e-10)
(-8.09405e-12 -5.27364e-11 9.26041e-10)
(7.01072e-11 1.59239e-11 1.51351e-10)
(2.73141e-10 -1.79048e-11 1.50075e-10)
(3.85255e-10 2.0623e-11 2.16889e-10)
(4.87114e-10 2.42137e-11 2.62333e-10)
(6.03396e-10 9.38328e-11 2.82236e-10)
(6.64012e-10 9.4312e-11 3.86033e-10)
(5.61446e-10 7.92056e-11 5.64388e-10)
(4.23053e-10 1.84352e-10 8.63055e-10)
(6.65759e-10 1.17338e-10 1.22672e-09)
(1.02225e-10 4.28517e-11 1.50747e-10)
(3.46187e-10 7.88945e-11 2.41318e-10)
(5.88444e-10 6.22146e-11 2.9143e-10)
(8.48548e-10 6.14208e-12 2.74687e-10)
(1.04276e-09 1.20016e-10 3.85415e-10)
(1.35723e-09 1.55511e-10 4.41815e-10)
(1.36765e-09 1.61798e-10 5.16677e-10)
(1.24808e-09 2.89517e-10 8.0593e-10)
(2.31322e-09 -7.17691e-11 8.07031e-10)
(1.10712e-10 1.3425e-11 1.246e-10)
(3.73789e-10 -8.22413e-11 1.55476e-10)
(6.73738e-10 -1.70697e-10 5.98759e-11)
(9.85796e-10 -1.30123e-10 8.35329e-11)
(1.49235e-09 1.49814e-11 3.15173e-10)
(2.02417e-09 8.60648e-11 4.69275e-10)
(2.32174e-09 1.27159e-10 4.25425e-10)
(2.7817e-09 6.23764e-11 2.78369e-10)
(3.14494e-09 -3.65259e-11 4.71985e-10)
)
;
    }
    procBoundary0to6
    {
        type            processor;
        value           uniform (2.77643e-09 -6.66155e-11 2.59268e-10);
    }
    procBoundary0to7
    {
        type            processor;
        value           uniform (3.8826e-09 -2.98631e-10 1.09044e-09);
    }
}


// ************************************************************************* //
