/*--------------------------------*- C++ -*----------------------------------*\
| =========                 |                                                 |
| \\      /  F ield         | OpenFOAM: The Open Source CFD Toolbox           |
|  \\    /   O peration     | Version:  4.x                                   |
|   \\  /    A nd           | Web:      www.OpenFOAM.org                      |
|    \\/     M anipulation  |                                                 |
\*---------------------------------------------------------------------------*/
FoamFile
{
    version     2.0;
    format      ascii;
    class       volScalarField;
    location    "19.5";
    object      Cs;
}
// * * * * * * * * * * * * * * * * * * * * * * * * * * * * * * * * * * * * * //

dimensions      [1 -3 0 0 0 0 0];

internalField   nonuniform List<scalar> 
87
(
334.98
334.992
334.984
334.999
334.998
334.995
335
335
335
334.999
334.998
334.996
334.99
334.979
334.968
335
335
335
334.999
334.999
334.997
334.995
334.99
334.983
335
335
335
334.999
334.999
334.999
334.998
334.997
334.995
335
335
335
335
334.999
334.998
334.996
334.992
334.986
335
335
335
335
334.999
334.999
334.998
334.995
334.99
335
335
335
335
334.999
334.999
334.999
334.998
334.996
335
335
335
335
334.999
334.999
334.998
334.997
334.994
335
335
335
335
334.999
334.999
334.998
334.997
334.996
335
335
335
335
335
334.999
334.999
334.999
334.998
)
;

boundaryField
{
    inlet
    {
        type            calculated;
        value           uniform 335;
    }
    outlet
    {
        type            calculated;
        value           nonuniform 0();
    }
    wall
    {
        type            calculated;
        value           nonuniform List<scalar> 
57
(
335
335
335
335
335
335
335
335
335
335
335
335
334.999
334.999
335
334.999
334.999
334.999
334.998
334.998
334.999
334.997
334.997
334.999
334.994
334.996
334.998
335
335
335
335
335
335
335
335
335
334.999
335
335
334.999
334.999
335
334.999
334.999
334.999
334.999
334.998
334.999
334.999
334.998
334.997
334.998
334.999
334.995
334.995
334.996
334.998
)
;
    }
    procBoundary6to0
    {
        type            processor;
        value           uniform 334.974;
    }
    procBoundary6to2
    {
        type            processor;
        value           nonuniform List<scalar> 
32
(
334.971
334.991
334.976
334.998
334.998
334.994
335
335
335
334.999
334.999
334.998
334.995
334.989
334.989
334.989
335
335
335
334.999
334.999
334.998
334.996
334.996
334.996
335
335
335
334.999
334.999
334.999
334.999
)
;
    }
    procBoundary6to4
    {
        type            processor;
        value           nonuniform List<scalar> 
27
(
335
335
335
334.999
334.999
334.997
334.994
334.987
334.977
335
335
335
335
334.999
334.998
334.996
334.991
334.984
335
335
335
335
334.999
334.999
334.998
334.996
334.993
)
;
    }
    procBoundary6to7
    {
        type            processor;
        value           nonuniform List<scalar> 
12
(
334.968
334.973
334.992
334.959
334.974
334.991
334.979
334.984
334.994
334.99
334.993
334.996
)
;
    }
}


// ************************************************************************* //
