/*--------------------------------*- C++ -*----------------------------------*\
| =========                 |                                                 |
| \\      /  F ield         | OpenFOAM: The Open Source CFD Toolbox           |
|  \\    /   O peration     | Version:  4.x                                   |
|   \\  /    A nd           | Web:      www.OpenFOAM.org                      |
|    \\/     M anipulation  |                                                 |
\*---------------------------------------------------------------------------*/
FoamFile
{
    version     2.0;
    format      ascii;
    class       volVectorField;
    location    "19.5";
    object      ddtUrel;
}
// * * * * * * * * * * * * * * * * * * * * * * * * * * * * * * * * * * * * * //

dimensions      [0 1 -2 0 0 0 0];

internalField   nonuniform List<vector> 
87
(
(6.70299e-07 -1.03457e-07 -3.75417e-07)
(6.56785e-07 -6.03123e-08 -3.84848e-07)
(9.25092e-07 -1.55986e-07 -6.74456e-07)
(5.02726e-07 -3.81109e-08 -2.7191e-07)
(7.7839e-07 -9.41196e-08 -5.17948e-07)
(1.29396e-06 -2.26052e-07 -1.09035e-06)
(9.06924e-08 1.06357e-08 -1.28526e-08)
(1.1789e-07 1.43401e-08 -1.75086e-08)
(1.68599e-07 2.08186e-08 -2.63309e-08)
(2.22614e-07 2.09107e-08 -4.32276e-08)
(2.83565e-07 2.12788e-08 -6.96833e-08)
(3.44081e-07 1.70387e-08 -1.00901e-07)
(3.9221e-07 2.17719e-09 -1.42812e-07)
(4.79169e-07 -2.29096e-08 -2.28655e-07)
(5.95308e-07 -9.55808e-08 -3.46333e-07)
(8.95378e-08 7.65695e-09 -1.31547e-08)
(1.163e-07 8.87413e-09 -1.79643e-08)
(1.64677e-07 1.08609e-08 -2.88065e-08)
(2.24239e-07 1.23387e-08 -5.05896e-08)
(2.78226e-07 7.86346e-09 -8.2958e-08)
(3.5098e-07 -5.07204e-10 -1.29339e-07)
(4.32362e-07 -1.57439e-08 -2.04806e-07)
(5.77668e-07 -5.84076e-08 -3.63046e-07)
(8.1874e-07 -1.73463e-07 -6.05949e-07)
(8.18777e-08 4.74975e-09 -1.05693e-08)
(1.11375e-07 6.05235e-09 -1.70368e-08)
(1.58354e-07 6.61715e-09 -3.0662e-08)
(2.09976e-07 5.58657e-09 -5.48856e-08)
(2.62514e-07 -2.97772e-11 -9.14237e-08)
(3.42127e-07 -9.21984e-09 -1.48667e-07)
(4.551e-07 -3.14523e-08 -2.61327e-07)
(6.75094e-07 -9.13986e-08 -4.9901e-07)
(1.15086e-06 -2.50159e-07 -9.51013e-07)
(7.5136e-08 1.80961e-08 -1.58348e-08)
(9.77531e-08 2.00187e-08 -2.0746e-08)
(1.37599e-07 2.49295e-08 -2.88533e-08)
(1.85343e-07 2.63884e-08 -4.19167e-08)
(2.38317e-07 2.3093e-08 -6.22011e-08)
(2.96553e-07 2.04126e-08 -9.20433e-08)
(3.41668e-07 9.51773e-09 -1.35735e-07)
(4.07456e-07 -1.31338e-08 -2.11582e-07)
(4.87746e-07 -6.11333e-08 -3.04266e-07)
(7.0997e-08 1.17287e-08 -1.61521e-08)
(9.40152e-08 1.30063e-08 -2.09257e-08)
(1.33607e-07 1.54535e-08 -2.99474e-08)
(1.81044e-07 1.68467e-08 -4.83723e-08)
(2.36114e-07 1.20723e-08 -7.47822e-08)
(3.03747e-07 4.5808e-09 -1.16916e-07)
(3.61762e-07 -8.7683e-09 -1.90267e-07)
(4.54086e-07 -4.31034e-08 -3.31443e-07)
(6.12665e-07 -1.10169e-07 -5.41688e-07)
(6.09007e-08 7.54602e-09 -1.40507e-08)
(8.67379e-08 8.60384e-09 -1.94341e-08)
(1.25124e-07 1.09208e-08 -3.24111e-08)
(1.73153e-07 9.84731e-09 -5.16176e-08)
(2.26323e-07 3.82224e-09 -8.20533e-08)
(2.9342e-07 -5.46551e-09 -1.35105e-07)
(3.60729e-07 -2.36436e-08 -2.37559e-07)
(4.72253e-07 -7.14483e-08 -4.56962e-07)
(6.47938e-07 -1.76151e-07 -9.20198e-07)
(6.65102e-08 2.60006e-08 -1.68697e-08)
(8.16913e-08 2.5246e-08 -2.01088e-08)
(1.16974e-07 2.96654e-08 -2.83041e-08)
(1.62523e-07 2.89518e-08 -4.11196e-08)
(2.1307e-07 2.40372e-08 -6.06564e-08)
(2.63516e-07 2.31377e-08 -8.81747e-08)
(3.03417e-07 1.62938e-08 -1.29447e-07)
(3.56281e-07 -5.89866e-09 -1.93279e-07)
(4.27868e-07 -2.58608e-08 -2.66832e-07)
(5.2771e-08 1.52812e-08 -1.79252e-08)
(7.76826e-08 1.63242e-08 -2.24913e-08)
(1.13833e-07 1.73788e-08 -3.05111e-08)
(1.5684e-07 1.8236e-08 -4.5953e-08)
(2.11784e-07 1.37008e-08 -7.07901e-08)
(2.66103e-07 7.07361e-09 -1.10981e-07)
(3.0665e-07 -4.36381e-09 -1.76767e-07)
(3.81566e-07 -3.57398e-08 -2.9155e-07)
(5.07925e-07 -5.01593e-08 -4.54809e-07)
(3.91589e-08 6.10711e-09 -1.79247e-08)
(7.53286e-08 1.01236e-08 -2.15444e-08)
(1.10061e-07 1.26693e-08 -3.16656e-08)
(1.53668e-07 1.10955e-08 -4.91297e-08)
(2.01203e-07 7.09111e-09 -7.64122e-08)
(2.57444e-07 -1.95427e-09 -1.24473e-07)
(3.03439e-07 -1.99286e-08 -2.11907e-07)
(3.66416e-07 -5.41655e-08 -3.82713e-07)
(4.334e-07 -1.06617e-07 -6.59999e-07)
)
;

boundaryField
{
    inlet
    {
        type            calculated;
        value           nonuniform List<vector> 9((2.61671e-08 -1.00855e-09 5.42041e-10) (4.26467e-08 1.34248e-08 5.43646e-09) (1.17689e-08 2.18155e-09 5.00284e-09) (-1.59731e-08 2.57256e-08 -1.46032e-08) (1.66535e-09 4.10592e-09 -1.0173e-08) (-9.59069e-08 9.98699e-10 1.34502e-08) (9.41026e-09 6.00025e-08 -1.6562e-08) (-1.43558e-07 8.90824e-09 -5.06279e-09) (-3.97405e-07 -4.63798e-08 -6.75516e-09));
    }
    outlet
    {
        type            calculated;
        value           nonuniform 0();
    }
    wall
    {
        type            calculated;
        value           nonuniform List<vector> 
57
(
(3.51297e-08 6.11242e-08 -1.91177e-08)
(-6.18537e-08 1.42774e-08 -4.97959e-09)
(-1.76382e-07 -3.88359e-08 -4.23117e-09)
(2.16446e-08 2.33345e-08 -6.83391e-09)
(1.42241e-08 1.58563e-08 -9.20057e-09)
(1.27352e-08 2.52899e-09 -3.35097e-09)
(9.57309e-08 6.37338e-08 -9.65318e-09)
(3.19646e-08 2.3612e-09 -5.21375e-09)
(4.52351e-08 3.29833e-09 -6.88638e-09)
(1.19306e-07 4.7726e-08 -7.61007e-09)
(9.27617e-08 2.57847e-08 -8.56863e-09)
(6.43375e-08 8.76697e-09 -1.48219e-09)
(2.11016e-07 3.43125e-08 -1.8714e-08)
(1.67086e-07 1.12883e-08 -1.66111e-08)
(3.53178e-08 1.30035e-08 -3.8258e-09)
(2.76573e-07 7.30466e-08 -1.11635e-08)
(2.3968e-07 1.47269e-08 -2.07353e-08)
(1.44236e-07 2.45514e-09 -1.12484e-08)
(1.78646e-07 1.33354e-07 2.06428e-09)
(-2.03778e-08 5.69881e-08 5.80074e-10)
(1.15167e-08 1.16153e-08 -4.89435e-09)
(1.87126e-07 9.37918e-08 -6.99704e-09)
(1.16344e-07 -1.08286e-07 -6.16284e-08)
(-1.07826e-07 2.69095e-08 -3.82717e-08)
(-5.90729e-08 2.4652e-07 5.74464e-08)
(8.17466e-07 3.21013e-07 -4.18765e-08)
(-8.98639e-08 5.16296e-08 -1.81215e-09)
(9.56626e-09 2.32367e-09 3.28571e-09)
(-5.55823e-08 2.66439e-09 1.33939e-08)
(-1.22695e-07 -3.73123e-08 -3.39731e-09)
(7.34667e-08 -6.33449e-09 3.74239e-09)
(9.28445e-09 -7.91242e-09 1.27931e-08)
(6.68787e-09 2.48492e-09 -3.03934e-09)
(7.39049e-08 -2.93668e-09 -1.86838e-08)
(5.11329e-08 5.70557e-09 -1.42866e-08)
(3.76021e-08 3.33069e-09 -6.38589e-09)
(1.94607e-07 -9.35102e-09 -1.61099e-08)
(8.88137e-08 3.67757e-09 -1.14215e-08)
(6.14022e-08 9.40714e-09 -1.33482e-09)
(2.06579e-07 -8.45129e-10 -2.40411e-08)
(1.42026e-07 3.04459e-09 -1.23014e-08)
(3.69139e-08 1.40497e-08 -4.25754e-09)
(2.84008e-07 -9.52314e-11 -3.70007e-08)
(2.15858e-07 2.02263e-09 -2.09296e-08)
(1.42589e-07 4.00291e-09 -1.04917e-08)
(2.73512e-07 -4.17703e-09 -8.52488e-08)
(1.97209e-07 3.93709e-08 -6.18671e-08)
(-5.49408e-09 2.23479e-08 -2.27155e-08)
(-1.40625e-09 1.15998e-08 -3.47665e-09)
(6.60242e-07 5.16454e-08 -1.04397e-07)
(3.35947e-07 8.67019e-08 -2.74231e-07)
(-5.79282e-08 1.36495e-08 -1.52022e-07)
(-1.23277e-07 2.58906e-08 -3.82173e-08)
(1.30053e-06 2.50364e-07 -9.10411e-07)
(2.15222e-06 -2.02619e-07 -3.73878e-07)
(-2.82143e-08 -2.12169e-07 -2.7292e-06)
(-4.21895e-07 5.7434e-08 -5.24468e-09)
)
;
    }
    procBoundary6to0
    {
        type            processor;
        value           uniform (5.0809e-07 -7.48076e-08 -2.11484e-07);
    }
    procBoundary6to2
    {
        type            processor;
        value           nonuniform List<vector> 
32
(
(6.73596e-07 -1.10306e-07 -3.39573e-07)
(6.46988e-07 -7.3885e-08 -3.57012e-07)
(8.30991e-07 -1.32535e-07 -5.55017e-07)
(5.15593e-07 -5.93521e-08 -2.63468e-07)
(7.01196e-07 -9.46411e-08 -4.56875e-07)
(9.30705e-07 -1.22176e-07 -8.31544e-07)
(1.11915e-07 9.46465e-09 -9.13462e-09)
(1.45049e-07 1.04391e-08 -1.22039e-08)
(1.95147e-07 1.44802e-08 -2.18136e-08)
(2.59648e-07 1.7573e-08 -4.33033e-08)
(3.21709e-07 1.75241e-08 -7.43916e-08)
(3.81594e-07 6.98312e-09 -1.05551e-07)
(4.59909e-07 -1.24268e-08 -1.54084e-07)
(5.63704e-07 -4.10408e-08 -2.44283e-07)
(5.63704e-07 -4.10408e-08 -2.44283e-07)
(5.63704e-07 -4.10408e-08 -2.44283e-07)
(1.05427e-07 5.30999e-09 -1.03397e-08)
(1.39592e-07 5.67726e-09 -1.48982e-08)
(1.90107e-07 6.85329e-09 -2.55946e-08)
(2.49304e-07 7.60714e-09 -4.91816e-08)
(3.12244e-07 3.94105e-10 -9.04649e-08)
(3.86278e-07 -1.10027e-08 -1.39282e-07)
(4.97408e-07 -2.80094e-08 -2.21397e-07)
(4.97408e-07 -2.80094e-08 -2.21397e-07)
(4.97408e-07 -2.80094e-08 -2.21397e-07)
(1.02861e-07 2.59195e-09 -1.09699e-08)
(1.33825e-07 3.16576e-09 -1.55408e-08)
(1.81068e-07 4.80939e-09 -2.95421e-08)
(2.34221e-07 3.16829e-09 -5.5467e-08)
(3.04084e-07 -6.4808e-09 -9.74177e-08)
(3.93535e-07 -2.21064e-08 -1.5562e-07)
(3.93535e-07 -2.21064e-08 -1.5562e-07)
)
;
    }
    procBoundary6to4
    {
        type            processor;
        value           nonuniform List<vector> 
27
(
(9.05302e-08 1.48736e-08 -1.256e-08)
(1.16878e-07 1.89761e-08 -1.30391e-08)
(1.60328e-07 2.38897e-08 -2.0644e-08)
(2.12708e-07 2.71184e-08 -3.25079e-08)
(2.7405e-07 2.74138e-08 -4.93943e-08)
(3.41153e-07 2.62737e-08 -7.3853e-08)
(3.75384e-07 1.09139e-08 -9.17342e-08)
(4.11912e-07 -1.26235e-08 -1.29444e-07)
(4.68353e-07 -6.93028e-08 -1.96252e-07)
(7.53559e-08 2.27616e-08 -1.20035e-08)
(9.57689e-08 2.69853e-08 -1.59692e-08)
(1.33289e-07 3.06559e-08 -2.3544e-08)
(1.7781e-07 3.33114e-08 -3.273e-08)
(2.26727e-07 3.33111e-08 -4.76144e-08)
(2.87435e-07 3.06998e-08 -6.84909e-08)
(3.21246e-07 1.83602e-08 -9.27029e-08)
(3.49772e-07 -6.53112e-09 -1.26096e-07)
(3.86714e-07 -4.38388e-08 -1.77412e-07)
(7.02289e-08 3.50712e-08 -1.27381e-08)
(8.68467e-08 3.41377e-08 -1.71344e-08)
(1.17405e-07 3.70862e-08 -2.43396e-08)
(1.55077e-07 3.76894e-08 -3.33886e-08)
(2.02847e-07 3.29811e-08 -4.7103e-08)
(2.52985e-07 2.9227e-08 -6.41115e-08)
(2.86832e-07 2.19314e-08 -8.95727e-08)
(3.16215e-07 -1.16453e-09 -1.24516e-07)
(3.49832e-07 -2.56659e-08 -1.5915e-07)
)
;
    }
    procBoundary6to7
    {
        type            processor;
        value           nonuniform List<vector> 
12
(
(7.72684e-07 -1.91533e-07 -5.07502e-07)
(1.19697e-06 -3.66302e-07 -1.18087e-06)
(2.47803e-06 -6.66717e-07 -2.5045e-06)
(7.05985e-07 -1.93168e-07 -4.48531e-07)
(1.09333e-06 -3.51331e-07 -9.12697e-07)
(2.01875e-06 -5.85919e-07 -1.80908e-06)
(5.72005e-07 -1.44465e-07 -3.91608e-07)
(7.51602e-07 -2.50253e-07 -7.70922e-07)
(8.29251e-07 -3.31554e-07 -1.39597e-06)
(4.9158e-07 -8.81846e-08 -3.44939e-07)
(5.94271e-07 -1.04972e-07 -6.56599e-07)
(4.27237e-07 -1.94041e-07 -1.0828e-06)
)
;
    }
}


// ************************************************************************* //
