/*--------------------------------*- C++ -*----------------------------------*\
| =========                 |                                                 |
| \\      /  F ield         | OpenFOAM: The Open Source CFD Toolbox           |
|  \\    /   O peration     | Version:  4.x                                   |
|   \\  /    A nd           | Web:      www.OpenFOAM.org                      |
|    \\/     M anipulation  |                                                 |
\*---------------------------------------------------------------------------*/
FoamFile
{
    version     2.0;
    format      ascii;
    class       volScalarField;
    location    "19.5";
    object      Deff;
}
// * * * * * * * * * * * * * * * * * * * * * * * * * * * * * * * * * * * * * //

dimensions      [0 2 -1 0 0 0 0];

internalField   nonuniform List<scalar> 
87
(
9.80825e-08
9.81493e-08
9.81057e-08
9.82871e-08
9.82893e-08
9.82637e-08
9.82411e-08
9.82525e-08
9.82541e-08
9.80606e-08
9.79324e-08
9.80056e-08
9.79348e-08
9.79589e-08
9.78771e-08
9.84987e-08
9.83092e-08
9.82542e-08
9.80562e-08
9.80284e-08
9.79777e-08
9.79722e-08
9.79301e-08
9.7925e-08
9.86801e-08
9.8438e-08
9.83932e-08
9.82153e-08
9.80704e-08
9.79779e-08
9.80775e-08
9.80776e-08
9.80137e-08
9.83146e-08
9.82321e-08
9.81342e-08
9.80069e-08
9.80206e-08
9.79461e-08
9.79154e-08
9.79408e-08
9.78535e-08
9.85163e-08
9.83307e-08
9.82259e-08
9.80933e-08
9.80616e-08
9.80428e-08
9.79592e-08
9.8017e-08
9.79003e-08
9.86728e-08
9.84474e-08
9.83558e-08
9.81333e-08
9.80601e-08
9.8061e-08
9.80728e-08
9.81148e-08
9.80705e-08
9.85017e-08
9.84005e-08
9.82318e-08
9.80569e-08
9.79827e-08
9.79241e-08
9.78401e-08
9.78677e-08
9.80388e-08
9.85803e-08
9.8467e-08
9.82732e-08
9.81645e-08
9.79725e-08
9.80045e-08
9.80267e-08
9.80584e-08
9.79436e-08
9.87547e-08
9.85167e-08
9.83608e-08
9.82106e-08
9.81601e-08
9.80001e-08
9.81818e-08
9.81938e-08
9.8086e-08
)
;

boundaryField
{
    inlet
    {
        type            calculated;
        value           uniform 0;
    }
    outlet
    {
        type            calculated;
        value           nonuniform 0();
    }
    wall
    {
        type            calculated;
        value           uniform 0;
    }
    procBoundary6to0
    {
        type            processor;
        value           uniform 0;
    }
    procBoundary6to2
    {
        type            processor;
        value           uniform 0;
    }
    procBoundary6to4
    {
        type            processor;
        value           uniform 0;
    }
    procBoundary6to7
    {
        type            processor;
        value           uniform 0;
    }
}


// ************************************************************************* //
