/*--------------------------------*- C++ -*----------------------------------*\
| =========                 |                                                 |
| \\      /  F ield         | OpenFOAM: The Open Source CFD Toolbox           |
|  \\    /   O peration     | Version:  4.x                                   |
|   \\  /    A nd           | Web:      www.OpenFOAM.org                      |
|    \\/     M anipulation  |                                                 |
\*---------------------------------------------------------------------------*/
FoamFile
{
    version     2.0;
    format      ascii;
    class       volVectorField;
    location    "19.5";
    object      GField;
}
// * * * * * * * * * * * * * * * * * * * * * * * * * * * * * * * * * * * * * //

dimensions      [1 -2 -1 0 0 0 0];

internalField   nonuniform List<vector> 
87
(
(87.9852 1.85283 0.620152)
(22.7267 0.33561 -1.81982)
(89.3168 1.76599 -1.02798)
(100.04 2.40015 -3.40266)
(49.9481 1.19823 -3.68855)
(102.772 1.79463 -3.00646)
(89.9111 1.3414 -2.58964)
(29.9871 0.899954 -1.19607)
(85.3127 1.70226 -2.60231)
(16.7951 0.460228 -1.01976)
(81.8457 1.25457 -2.0718)
(6.27873 0.197157 -0.510879)
(80.2972 0.554805 -1.27356)
(-9.93984e-05 -1.24913e-05 -1.24189e-05)
(78.4632 0.251534 -0.0262098)
(91.6127 4.63483 -1.9625)
(33.8278 1.63918 -1.24813)
(88.1578 4.26245 -2.15274)
(25.5906 1.14793 -1.36021)
(85.5804 2.89629 -1.92685)
(18.5701 0.718637 -1.19638)
(83.9435 2.05932 -1.79218)
(11.3356 0.511112 -0.946301)
(82.579 0.22451 -0.946005)
(93.7342 3.13723 -2.17996)
(41.9238 1.64076 -1.60428)
(94.0805 3.17523 -2.61547)
(42.4107 1.25995 -2.34033)
(93.3572 2.30673 -2.72474)
(40.5457 1.02001 -2.47731)
(93.2174 2.53134 -2.51892)
(39.5248 1.01819 -2.87889)
(92.9929 1.97962 -1.97855)
(90.127 2.23978 2.55379)
(34.4262 1.07258 0.688811)
(87.1264 2.50398 2.38415)
(26.6122 0.892195 0.557025)
(85.593 1.87905 1.9926)
(20.5893 0.466592 0.18617)
(84.7587 1.08116 1.34869)
(15.0262 0.262745 0.458606)
(84.6915 0.670106 0.668513)
(91.9994 4.17988 2.04954)
(37.8434 1.758 0.747074)
(90.0288 3.59454 2.0913)
(33.6573 1.09474 0.354551)
(88.8119 2.52609 1.74646)
(29.8798 1.03348 0.147221)
(87.6735 2.20218 1.86642)
(25.076 0.90003 0.00507647)
(87.1592 2.13396 1.98118)
(93.4338 2.9914 1.40349)
(44.437 1.72035 0.429481)
(95.5477 2.99798 1.49341)
(47.1616 1.3788 0.43149)
(96.3038 2.37457 1.49383)
(48.129 1.37194 -0.0102379)
(97.5778 2.33594 0.944245)
(48.87 1.45844 -0.484794)
(99.5197 2.20799 0.418484)
(92.256 2.51589 1.56157)
(41.54 1.0487 0.51496)
(91.9411 2.28266 0.804226)
(39.5321 0.830391 0.0892852)
(91.186 1.39417 0.265981)
(37.0813 0.315203 0.0203122)
(90.3681 0.337221 0.306725)
(34.1485 0.0529323 0.252857)
(91.1741 0.199256 0.82603)
(92.9034 3.49854 1.3643)
(44.282 1.67599 0.595941)
(94.3452 3.52459 1.0265)
(46.4162 1.54533 0.193092)
(94.9705 2.6858 0.511415)
(46.8453 1.31609 0.18159)
(95.4897 2.22314 0.612473)
(46.4383 0.497988 -0.163789)
(95.7554 1.05324 0.583953)
(94.0551 2.45787 0.824583)
(47.7203 1.37343 0.170837)
(98.0542 2.5741 0.556342)
(55.0393 1.51599 0.143849)
(102.353 2.26258 0.245139)
(60.6246 1.21965 -0.264163)
(105.628 1.95385 -0.0185728)
(64.3429 1.06066 -1.0508)
(107.06 1.07947 -0.98245)
)
;

boundaryField
{
    inlet
    {
        type            calculated;
        value           uniform (67 0 0);
    }
    outlet
    {
        type            calculated;
        value           nonuniform 0();
    }
    wall
    {
        type            calculated;
        value           uniform (0 0 0);
    }
    procBoundary6to0
    {
        type            processor;
        value           uniform (84.0458 0.351642 -0.908034);
    }
    procBoundary6to2
    {
        type            processor;
        value           nonuniform List<vector> 
32
(
(86.3174 -0.584569 -0.794669)
(15.0855 0.394564 -1.13151)
(87.3953 1.58291 -0.739012)
(100.315 2.86145 -3.63618)
(50.3225 1.07035 -3.11666)
(102.389 2.29296 -2.99286)
(91.8953 1.58612 -5.63914)
(33.8971 0.984673 -2.64952)
(88.5466 2.16303 -5.08387)
(26.808 0.808599 -2.18538)
(87.5596 1.6574 -3.79191)
(21.7742 0.759377 -1.53731)
(87.5642 1.25716 -2.0334)
(16.9529 0.768585 -1.50657)
(16.9529 0.768585 -1.50657)
(16.9529 0.768585 -1.50657)
(92.0054 3.61221 -4.75234)
(36.1176 1.62449 -2.52979)
(89.6434 3.25319 -4.25645)
(30.7466 0.928263 -2.28491)
(88.606 2.47658 -3.44837)
(26.2793 0.540228 -1.82833)
(88.4631 2.13592 -2.2893)
(88.4631 2.13592 -2.2893)
(88.4631 2.13592 -2.2893)
(93.7444 3.15428 -4.46602)
(43.1727 1.74699 -2.96108)
(95.5825 3.21328 -4.80462)
(45.7057 1.5057 -3.50585)
(97.6198 2.77314 -4.66459)
(47.8898 1.41227 -3.00247)
(47.8898 1.41227 -3.00247)
)
;
    }
    procBoundary6to4
    {
        type            processor;
        value           nonuniform List<vector> 
27
(
(91.9098 -1.47399 -2.6686)
(32.9187 -0.237331 -1.29461)
(86.4506 -1.17955 -2.42078)
(22.2908 -0.464601 -1.27129)
(83.3873 -1.16836 -2.06618)
(13.0087 -0.2559 -0.674254)
(81.4185 -0.0942917 -1.41654)
(5.15765 -0.116452 -0.262963)
(80.9501 1.05698 0.65141)
(91.0168 -1.19572 0.89835)
(33.7021 -0.0974462 0.820525)
(86.8077 -0.414987 1.60852)
(23.9615 -0.175753 0.391348)
(83.6451 -0.394587 1.76387)
(16.0959 -0.410579 0.442543)
(82.1603 -0.674224 2.29444)
(9.86089 -0.360514 0.254407)
(81.9278 -1.02587 2.4438)
(91.1055 -0.638369 1.10509)
(39.0175 -0.326195 0.755126)
(90.4218 -1.10076 1.35053)
(35.6269 -0.668363 0.573783)
(89.6037 -1.14987 1.14356)
(33.7516 -0.836248 0.618742)
(90.2409 -1.17919 1.53058)
(34.5515 -0.829608 0.426386)
(90.8767 -1.06033 1.36297)
)
;
    }
    procBoundary6to7
    {
        type            processor;
        value           nonuniform List<vector> 
12
(
(13.2183 1.43849 -1.2301)
(21.3732 0.538195 -1.83981)
(50.8048 1.37811 -4.37816)
(-0.000137481 3.1771e-06 -2.22517e-05)
(5.13366 0.379812 -0.467678)
(36.7488 1.07198 -3.11447)
(9.56119 0.449331 0.519656)
(20.5227 0.960328 0.200348)
(50.5455 1.7612 -0.707273)
(31.9786 0.207741 -0.136873)
(46.5086 0.69098 -0.483431)
(64.2917 0.7544 -2.16912)
)
;
    }
}


// ************************************************************************* //
