/*--------------------------------*- C++ -*----------------------------------*\
| =========                 |                                                 |
| \\      /  F ield         | OpenFOAM: The Open Source CFD Toolbox           |
|  \\    /   O peration     | Version:  4.x                                   |
|   \\  /    A nd           | Web:      www.OpenFOAM.org                      |
|    \\/     M anipulation  |                                                 |
\*---------------------------------------------------------------------------*/
FoamFile
{
    version     2.0;
    format      ascii;
    class       volScalarField;
    location    "19.5";
    object      KslPrev;
}
// * * * * * * * * * * * * * * * * * * * * * * * * * * * * * * * * * * * * * //

dimensions      [1 -3 -1 0 0 0 0];

internalField   nonuniform List<scalar> 
87
(
3746.46
14495.9
3714.96
3301.82
6554.55
3197.57
3642.77
11046.3
3922.09
19658.6
4051.54
51966.1
4085.59
1e+10
4112.74
3567.79
9715.34
3776.45
12874.4
3879.34
17602.1
3918.93
28394.6
3938.17
3438.38
7698.27
3465.63
7643.96
3502.23
7982.9
3489.91
8096.38
3470.08
3605.9
9519.6
3798.37
12276.7
3833.83
15746.5
3841.17
21229.9
3776.1
3513.08
8613.83
3659.52
9687
3699.1
10866
3726.17
12822
3700.98
3425.72
7181.13
3371.77
6785.36
3344.5
6654.65
3305.2
6543.1
3223.22
3490.9
7753.04
3541.01
8121.21
3523.7
8588.08
3540.17
9202.35
3474
3430.96
7226.19
3414.13
6905.55
3373.98
6805.29
3363.56
6841.06
3308.26
3374.18
6617.99
3247.07
5742.51
3099.53
5211
3029.93
4939.95
2968.53
)
;

boundaryField
{
    inlet
    {
        type            zeroGradient;
    }
    outlet
    {
        type            zeroGradient;
    }
    wall
    {
        type            zeroGradient;
    }
    procBoundary6to0
    {
        type            processor;
        value           uniform 0;
    }
    procBoundary6to2
    {
        type            processor;
        value           uniform 0;
    }
    procBoundary6to4
    {
        type            processor;
        value           uniform 0;
    }
    procBoundary6to7
    {
        type            processor;
        value           uniform 0;
    }
}


// ************************************************************************* //
