/*--------------------------------*- C++ -*----------------------------------*\
| =========                 |                                                 |
| \\      /  F ield         | OpenFOAM: The Open Source CFD Toolbox           |
|  \\    /   O peration     | Version:  4.x                                   |
|   \\  /    A nd           | Web:      www.OpenFOAM.org                      |
|    \\/     M anipulation  |                                                 |
\*---------------------------------------------------------------------------*/
FoamFile
{
    version     2.0;
    format      ascii;
    class       volScalarField;
    location    "53";
    object      KslNext;
}
// * * * * * * * * * * * * * * * * * * * * * * * * * * * * * * * * * * * * * //

dimensions      [1 -3 -1 0 0 0 0];

internalField   nonuniform List<scalar> 
87
(
3794.48
12130.6
3478.54
3219.06
6574.23
3124.4
3574.22
12717
3864.36
29077.3
4005.69
219598
4052.62
1e+10
4044.39
3483.45
10805.4
3683.82
15907.9
3787.86
27209.4
3825.66
74693.7
3819.7
3368.97
8177.32
3395.01
8059.03
3435.6
8547.57
3440.49
9478.88
3471.85
3517.53
10618
3706.33
14959.3
3757.71
22893.6
3792.13
43294.8
3765.26
3441.76
9081.36
3562.99
10000.6
3589.72
11043.2
3608.76
12737.4
3553.86
3360.76
7529.69
3299.92
6918.35
3263.96
6612
3221.04
6456.37
3157.82
3428
8084.78
3458.74
8061.41
3419.02
8075.33
3414.6
8455.26
3343.19
3369.56
7560.8
3342.69
7046.52
3289.64
6748.96
3256.36
6659.34
3178.29
3316.03
6974.3
3198.79
6022.76
3068.82
5496.66
3020.24
5256.84
2971.78
)
;

boundaryField
{
    inlet
    {
        type            zeroGradient;
    }
    outlet
    {
        type            zeroGradient;
    }
    wall
    {
        type            zeroGradient;
    }
    procBoundary6to0
    {
        type            processor;
        value           uniform 0;
    }
    procBoundary6to2
    {
        type            processor;
        value           uniform 0;
    }
    procBoundary6to4
    {
        type            processor;
        value           uniform 0;
    }
    procBoundary6to7
    {
        type            processor;
        value           uniform 0;
    }
}


// ************************************************************************* //
