/*--------------------------------*- C++ -*----------------------------------*\
| =========                 |                                                 |
| \\      /  F ield         | OpenFOAM: The Open Source CFD Toolbox           |
|  \\    /   O peration     | Version:  4.x                                   |
|   \\  /    A nd           | Web:      www.OpenFOAM.org                      |
|    \\/     M anipulation  |                                                 |
\*---------------------------------------------------------------------------*/
FoamFile
{
    version     2.0;
    format      ascii;
    class       surfaceScalarField;
    location    "53";
    object      phi;
}
// * * * * * * * * * * * * * * * * * * * * * * * * * * * * * * * * * * * * * //

dimensions      [0 3 -1 0 0 0 0];

internalField   nonuniform List<scalar> 
192
(
2.86477e-07
-6.28821e-08
7.47634e-06
8.4518e-08
-1.24699e-07
1.54488e-07
-1.31059e-07
9.39826e-06
-2.67585e-07
9.47538e-06
-3.07305e-07
-2.57407e-07
7.21642e-06
3.64954e-07
7.58415e-08
6.87509e-06
1.46394e-07
2.66134e-08
6.01637e-06
3.43467e-07
1.18495e-07
5.73688e-06
9.26659e-08
3.70273e-08
5.19212e-06
1.78031e-07
1.04139e-07
5.02329e-06
5.21778e-08
3.68743e-08
4.98882e-06
-2.08968e-08
7.75054e-09
4.89339e-06
2.28131e-08
3.74267e-08
-1.62788e-07
-2.64436e-08
7.6149e-06
4.83353e-07
4.4413e-08
7.37324e-06
1.9081e-07
1.43687e-09
6.81994e-06
4.67867e-07
7.79e-08
6.6109e-06
1.35872e-07
-1.74293e-08
6.1409e-06
2.85472e-07
7.61666e-08
5.98224e-06
8.08259e-08
-1.01927e-08
5.59325e-06
1.07222e-07
5.4693e-08
5.46498e-06
2.59036e-08
4.86821e-10
-1.25262e-07
2.03546e-08
8.28975e-06
-9.64413e-09
8.28455e-06
-3.53516e-08
8.37342e-06
3.08191e-09
8.2792e-06
-6.51887e-08
8.19919e-06
9.43273e-09
8.10311e-06
-8.30528e-08
7.9386e-06
4.15585e-09
7.75984e-06
-1.02644e-07
3.47834e-08
7.56375e-06
4.35967e-07
3.15307e-07
7.34608e-06
1.87463e-07
1.15446e-07
6.83452e-06
4.49537e-07
3.2108e-07
6.67764e-06
1.32305e-07
9.58233e-08
6.27021e-06
3.47524e-07
2.62339e-07
6.12885e-06
9.40941e-08
7.44013e-08
5.7935e-06
2.46348e-07
1.37092e-07
5.66568e-06
6.31734e-08
8.26784e-08
1.68393e-07
9.33215e-08
7.96148e-06
4.49107e-07
2.33056e-07
7.84714e-06
2.06206e-07
9.70316e-08
7.68816e-06
4.35257e-07
2.51169e-07
7.59479e-06
1.47545e-07
6.06927e-08
7.46439e-06
3.37862e-07
2.16233e-07
7.35328e-06
1.34961e-07
6.00496e-08
7.18562e-06
2.71597e-07
1.97104e-07
7.13191e-06
9.25164e-08
2.48533e-08
1.77587e-07
1.07017e-07
8.44959e-06
1.53141e-07
8.57043e-06
5.00133e-08
8.85148e-06
1.57286e-07
8.88037e-06
5.34693e-08
9.08291e-06
1.44755e-07
9.12046e-06
1.43582e-08
9.27917e-06
1.17041e-07
9.29296e-06
-2.39141e-08
7.92802e-08
8.21754e-06
3.55296e-07
8.20681e-06
1.51571e-07
8.25207e-06
3.18473e-07
8.21205e-06
1.22175e-07
8.25729e-06
1.94953e-07
8.19518e-06
6.59768e-08
8.14446e-06
8.47138e-08
8.1376e-06
-2.00002e-08
-7.66951e-09
8.4076e-06
3.44013e-07
8.49402e-06
1.62188e-07
8.734e-06
3.29657e-07
8.76807e-06
1.48806e-07
8.94624e-06
2.33012e-07
8.97559e-06
9.66793e-08
9.09772e-06
1.59683e-07
9.09127e-06
1.13056e-08
2.35336e-08
8.66042e-06
8.87262e-06
9.35956e-06
9.56184e-06
9.93961e-06
1.00506e-05
1.03274e-05
1.03148e-05
)
;

boundaryField
{
    inlet
    {
        type            calculated;
        value           uniform -8.16327e-06;
    }
    outlet
    {
        type            calculated;
        value           nonuniform 0();
    }
    wall
    {
        type            calculated;
        value           nonuniform List<scalar> 
57
(
0
0
0
0
0
0
0
0
0
0
0
0
0
0
0
0
0
0
0
0
0
0
0
0
0
0
0
0
0
0
0
3.08149e-33
0
0
0
0
0
0
0
0
0
0
0
0
0
0
0
0
0
0
0
0
0
0
0
0
0
)
;
    }
    procBoundary6to0
    {
        type            processor;
        value           uniform -1.02765e-07;
    }
    procBoundary6to2
    {
        type            processor;
        value           nonuniform List<scalar> 
32
(
2.71313e-08
1.28584e-07
8.28623e-08
3.10478e-07
3.14704e-07
2.62687e-07
4.39328e-07
1.68368e-07
3.37409e-07
1.14413e-07
1.81263e-07
5.1435e-08
2.2951e-08
-5.54045e-06
-1.35569e-07
2.60064e-08
3.8555e-07
1.95811e-07
3.51002e-07
1.83265e-07
2.86393e-07
1.40201e-07
-7.42917e-06
-2.91567e-07
2.06175e-07
3.66516e-07
2.31362e-07
3.75915e-07
2.95275e-07
3.5605e-07
-9.14959e-06
2.59956e-07
)
;
    }
    procBoundary6to4
    {
        type            processor;
        value           nonuniform List<scalar> 
27
(
6.67218e-08
-4.96779e-11
5.93568e-08
3.53746e-08
8.13307e-08
2.83391e-08
2.46664e-08
9.18379e-09
7.62201e-08
-7.59203e-08
-5.86225e-08
-1.40558e-07
-3.42261e-08
-9.8291e-08
9.7335e-09
-4.03341e-08
1.93956e-08
-1.26218e-08
-9.42658e-08
-2.53973e-08
-4.26462e-08
1.36664e-08
2.21428e-08
7.05359e-08
1.03104e-07
1.0953e-07
1.31196e-07
)
;
    }
    procBoundary6to7
    {
        type            processor;
        value           nonuniform List<scalar> 
12
(
5.39249e-06
7.65653e-06
9.62459e-06
4.94352e-06
5.27604e-06
7.34239e-06
5.39014e-06
7.03606e-06
9.42605e-06
8.1074e-06
9.16708e-06
1.04176e-05
)
;
    }
}


// ************************************************************************* //
