/*--------------------------------*- C++ -*----------------------------------*\
| =========                 |                                                 |
| \\      /  F ield         | OpenFOAM: The Open Source CFD Toolbox           |
|  \\    /   O peration     | Version:  4.x                                   |
|   \\  /    A nd           | Web:      www.OpenFOAM.org                      |
|    \\/     M anipulation  |                                                 |
\*---------------------------------------------------------------------------*/
FoamFile
{
    version     2.0;
    format      ascii;
    class       volVectorField;
    location    "53";
    object      UsPrev;
}
// * * * * * * * * * * * * * * * * * * * * * * * * * * * * * * * * * * * * * //

dimensions      [0 1 -1 0 0 0 0];

internalField   nonuniform List<vector> 
87
(
(1.07115e-09 4.20831e-10 3.39032e-10)
(6.43051e-10 1.87697e-10 1.68016e-10)
(8.60102e-10 1.16584e-10 1.31288e-10)
(1.00773e-10 -6.3166e-12 2.32089e-11)
(2.95403e-10 5.09505e-11 7.45534e-11)
(2.39592e-10 -2.73892e-11 8.05227e-12)
(4.49893e-11 -8.58764e-11 -2.36128e-11)
(8.42001e-11 -1.3645e-10 -1.65623e-11)
(1.06492e-10 -1.19041e-10 -2.79996e-11)
(2.32308e-10 -5.92389e-11 1.92759e-11)
(3.95724e-10 2.41135e-12 1.25995e-10)
(5.83628e-10 8.37081e-11 6.44043e-11)
(6.47242e-10 2.27535e-10 1.08147e-10)
(8.28877e-10 2.16428e-10 1.63132e-10)
(1.13679e-09 3.92364e-10 2.56262e-10)
(1.59028e-11 -2.34257e-11 -2.61017e-11)
(1.92494e-11 -5.30263e-11 9.08022e-12)
(5.96039e-11 -4.61239e-11 -1.19055e-12)
(6.43803e-11 -4.06791e-11 8.35728e-12)
(1.1912e-10 -6.65641e-11 6.35557e-11)
(2.14909e-10 9.17231e-12 5.80357e-11)
(4.88318e-10 8.73112e-11 1.41179e-10)
(6.53538e-10 1.9918e-10 2.29147e-10)
(8.65143e-10 1.17074e-10 1.67227e-10)
(-3.30142e-12 -1.65571e-11 -3.50134e-12)
(-1.46492e-11 -5.23008e-11 -1.15359e-11)
(-5.19194e-12 -3.27568e-11 -1.18544e-11)
(-2.33762e-12 -5.41106e-11 -1.13228e-11)
(-5.82309e-12 -4.48456e-11 2.28238e-13)
(3.36991e-11 -3.51421e-11 2.32497e-11)
(6.17039e-11 -2.35816e-11 1.82448e-11)
(-5.15762e-12 -6.93227e-11 -7.41866e-11)
(2.4387e-10 -4.20239e-11 4.81658e-11)
(1.16066e-11 -5.21244e-11 -1.66375e-11)
(5.04572e-11 -5.98692e-11 -1.8906e-11)
(9.0132e-11 -8.98553e-11 -4.47956e-11)
(1.37271e-10 -6.1802e-11 -1.0063e-11)
(2.11237e-10 -3.03116e-11 2.89805e-11)
(4.34769e-10 -8.14459e-12 9.99927e-12)
(5.67893e-10 1.31698e-10 4.11116e-11)
(6.55395e-10 1.30582e-10 8.61607e-11)
(8.47691e-10 3.3602e-10 2.20465e-10)
(2.19794e-11 -2.88015e-11 -1.55053e-11)
(4.07683e-11 -3.533e-11 1.61949e-11)
(4.01746e-11 -6.93007e-11 3.93355e-11)
(9.08865e-11 -4.91875e-11 1.16844e-11)
(1.21471e-10 -1.98415e-11 5.13095e-11)
(2.66956e-10 -2.35746e-11 2.52204e-12)
(4.23794e-10 8.21385e-11 9.9944e-11)
(5.76437e-10 3.84686e-10 2.13351e-10)
(9.01605e-10 2.96848e-10 4.78642e-11)
(1.32699e-11 -3.71337e-11 1.02243e-11)
(-5.32167e-11 -8.78869e-11 8.42484e-12)
(2.8084e-11 -1.33815e-10 1.2605e-10)
(7.54031e-12 -3.78473e-11 5.93933e-12)
(1.93497e-11 -4.29476e-11 2.84306e-11)
(4.36268e-11 -4.46043e-11 1.11669e-11)
(1.11315e-10 -4.26993e-11 3.8688e-11)
(1.94427e-10 1.04171e-11 1.21764e-10)
(4.30058e-10 7.75347e-11 -7.93173e-11)
(2.18516e-11 -4.01086e-11 -1.41797e-11)
(2.07236e-12 -4.69549e-11 -1.42672e-11)
(2.65994e-11 -5.29476e-11 -3.81882e-11)
(6.59201e-11 -4.21013e-11 -2.09638e-11)
(1.37618e-10 -3.14051e-11 -2.48488e-11)
(1.9881e-10 -5.19202e-11 -2.52447e-11)
(3.72399e-10 9.55012e-11 -4.03372e-12)
(2.81902e-10 6.6236e-11 9.7526e-12)
(2.98516e-10 1.7847e-10 3.80683e-11)
(-2.73677e-11 -4.72068e-11 -2.12401e-11)
(1.37279e-11 -2.21622e-11 -1.31733e-11)
(-1.17526e-11 -3.47472e-11 -8.20708e-12)
(2.49456e-11 -2.87051e-11 -6.62678e-12)
(8.97491e-11 -8.20812e-12 -1.62569e-11)
(1.34241e-10 -2.01503e-11 -1.72288e-11)
(4.14341e-10 2.28969e-10 4.94494e-11)
(3.22451e-10 7.04897e-10 8.96866e-11)
(4.48601e-10 4.34013e-10 -3.37447e-11)
(-7.32424e-11 -9.12662e-11 4.31559e-13)
(-2.17786e-11 -2.72847e-11 -3.85875e-12)
(-1.13562e-11 -7.40786e-11 5.18069e-11)
(-1.88353e-11 -2.98991e-11 -1.27883e-11)
(2.06696e-13 -2.28973e-11 6.40829e-12)
(3.75525e-11 -3.40126e-11 1.09849e-12)
(4.3507e-11 -2.0412e-11 8.00577e-12)
(3.65371e-11 5.71035e-11 6.77676e-11)
(2.63297e-10 1.19212e-10 -9.52964e-11)
)
;

boundaryField
{
    inlet
    {
        type            calculated;
        value           uniform (0 0 0);
    }
    outlet
    {
        type            calculated;
        value           nonuniform 0();
    }
    wall
    {
        type            calculated;
        value           uniform (0 0 0);
    }
    procBoundary6to0
    {
        type            processor;
        value           uniform (0 0 0);
    }
    procBoundary6to2
    {
        type            processor;
        value           uniform (0 0 0);
    }
    procBoundary6to4
    {
        type            processor;
        value           uniform (0 0 0);
    }
    procBoundary6to7
    {
        type            processor;
        value           uniform (0 0 0);
    }
}


// ************************************************************************* //
