/*--------------------------------*- C++ -*----------------------------------*\
| =========                 |                                                 |
| \\      /  F ield         | OpenFOAM: The Open Source CFD Toolbox           |
|  \\    /   O peration     | Version:  4.x                                   |
|   \\  /    A nd           | Web:      www.OpenFOAM.org                      |
|    \\/     M anipulation  |                                                 |
\*---------------------------------------------------------------------------*/
FoamFile
{
    version     2.0;
    format      ascii;
    class       volVectorField;
    location    "33.5";
    object      Urel;
}
// * * * * * * * * * * * * * * * * * * * * * * * * * * * * * * * * * * * * * //

dimensions      [0 1 -1 0 0 0 0];

internalField   nonuniform List<vector> 
114
(
(-0.0218893 7.94065e-05 0.00107937)
(-0.023292 7.0906e-05 0.00103876)
(-0.0223067 5.79841e-05 0.000871026)
(-0.0237169 5.10679e-05 0.000794134)
(-0.0227082 2.48613e-05 0.000634445)
(-0.024105 8.8166e-06 0.00056068)
(-0.0236612 -0.000137836 0.00128857)
(-0.0218324 -0.000131692 0.00119381)
(-0.0230161 -0.000150266 0.00120086)
(-0.0218682 -0.000141051 0.00105425)
(-0.0232896 -0.000137041 0.00100571)
(-0.0222775 -0.000105863 0.000848286)
(-0.0237261 -9.02544e-05 0.000773966)
(-0.022683 -6.84204e-05 0.000621265)
(-0.0241311 -6.99253e-05 0.000547044)
(-0.0237866 -0.000374198 0.00126021)
(-0.0220482 -0.000334003 0.00117019)
(-0.0233067 -0.000360998 0.00117353)
(-0.0223032 -0.000321472 0.0010341)
(-0.0237768 -0.000322953 0.000982157)
(-0.0229253 -0.000256957 0.000833899)
(-0.0243976 -0.000238173 0.000762662)
(-0.0235183 -0.000169769 0.000624578)
(-0.0249707 -0.000162091 0.000558672)
(-0.0239171 -0.000433163 0.00122421)
(-0.0223214 -0.000398428 0.00114605)
(-0.0236521 -0.000414295 0.00114224)
(-0.022862 -0.000373239 0.00102287)
(-0.0243914 -0.000366335 0.000967036)
(-0.0237802 -0.000298835 0.00083712)
(-0.0252725 -0.000271478 0.000761592)
(-0.0246445 -0.000192495 0.000640864)
(-0.026061 -0.000168991 0.000576886)
(-0.0205555 4.25263e-05 0.000823174)
(-0.0220943 3.18385e-05 0.000753616)
(-0.0205019 1.45676e-05 0.000592065)
(-0.0221665 -8.88347e-06 0.000508078)
(-0.0234203 -0.000173713 0.00134978)
(-0.0213676 -0.000152315 0.00121361)
(-0.0224004 -0.000174174 0.00123773)
(-0.020822 -0.000157903 0.00104438)
(-0.0222031 -0.000165785 0.00100416)
(-0.020699 -0.000121396 0.000818487)
(-0.0222544 -0.000108484 0.000750477)
(-0.0206817 -7.74703e-05 0.000597197)
(-0.0223636 -7.65123e-05 0.000524905)
(-0.0235654 -0.000412614 0.00132456)
(-0.0216149 -0.000363703 0.00120121)
(-0.0227248 -0.000399457 0.0012279)
(-0.0213225 -0.000339669 0.001049)
(-0.0227505 -0.000351944 0.00101284)
(-0.0214509 -0.000268426 0.000839985)
(-0.0229922 -0.000259627 0.000782742)
(-0.0216279 -0.000175154 0.000635611)
(-0.0232592 -0.000167221 0.000572435)
(-0.0237198 -0.00047431 0.00129016)
(-0.0219539 -0.00043181 0.00118485)
(-0.0231448 -0.000454868 0.00120159)
(-0.0220527 -0.000396864 0.00105846)
(-0.0234919 -0.000395248 0.00101387)
(-0.0225555 -0.000313835 0.000875462)
(-0.024015 -0.000293874 0.000803239)
(-0.0230586 -0.000204379 0.000683401)
(-0.0245134 -0.000182088 0.000619361)
(-0.0187105 2.64322e-05 0.000481467)
(-0.0204976 2.44705e-05 0.00039171)
(-0.0231519 -0.000212822 0.00121124)
(-0.0209406 -0.000182265 0.00108084)
(-0.0218029 -0.000203187 0.00108212)
(-0.0199311 -0.000168702 0.000903263)
(-0.0212187 -0.000170869 0.000853176)
(-0.0194028 -0.000122262 0.000692804)
(-0.0209577 -9.64506e-05 0.000624728)
(-0.0190847 -7.56369e-05 0.000506711)
(-0.0208194 -5.17079e-05 0.000425643)
(-0.0233216 -0.000449667 0.0011813)
(-0.0212166 -0.000390994 0.00106447)
(-0.0221705 -0.000427205 0.00106863)
(-0.0204743 -0.000352328 0.000914626)
(-0.021806 -0.000361071 0.000866533)
(-0.0201802 -0.000269658 0.00072135)
(-0.0217134 -0.000257009 0.000652376)
(-0.0200078 -0.000179394 0.000546242)
(-0.0217126 -0.0001605 0.000471284)
(-0.0235012 -0.000514125 0.00115839)
(-0.0215918 -0.000468023 0.00106206)
(-0.0226371 -0.000497216 0.00107028)
(-0.021289 -0.000425646 0.000948697)
(-0.0226091 -0.000424735 0.00090013)
(-0.0214086 -0.000332378 0.000779249)
(-0.0227947 -0.000318434 0.00070853)
(-0.0215736 -0.000228454 0.000632952)
(-0.0230132 -0.000199012 0.000565377)
(-0.0229623 -0.000237087 0.000920161)
(-0.0206545 -0.000213406 0.000809507)
(-0.021422 -0.000239612 0.000803307)
(-0.0193734 -0.000192662 0.000670718)
(-0.0206007 -0.000198726 0.000627798)
(-0.0186223 -0.000148508 0.000506636)
(-0.0201415 -0.000132444 0.000454204)
(-0.0181578 -9.68209e-05 0.000369262)
(-0.0231538 -0.000495826 0.000893855)
(-0.0209932 -0.000428573 0.000802618)
(-0.0218441 -0.000461844 0.000798583)
(-0.0200404 -0.000371679 0.000693993)
(-0.0212759 -0.000381551 0.000654637)
(-0.019557 -0.000290333 0.000549231)
(-0.0210131 -0.000280394 0.000497971)
(-0.0233609 -0.000548795 0.000882047)
(-0.0214063 -0.0004922 0.000812674)
(-0.0223483 -0.000510248 0.000818391)
(-0.0208854 -0.000432338 0.000741555)
(-0.0221004 -0.000423993 0.000705875)
(-0.0207717 -0.000340538 0.000611119)
)
;

boundaryField
{
    inlet
    {
        type            calculated;
        value           nonuniform List<vector> 
12
(
(-0.01 -1.02495e-09 2.07388e-11)
(-0.01 -8.9901e-11 1.58453e-10)
(-0.01 -8.79627e-11 1.19924e-10)
(-0.01 -1.39858e-10 2.80165e-10)
(-0.01 -7.65649e-11 4.74649e-10)
(-0.01 -1.24273e-11 2.33693e-10)
(-0.01 -4.51555e-10 2.50116e-10)
(-0.01 -1.39308e-10 2.65794e-10)
(-0.01 -3.21607e-11 1.87664e-10)
(-0.01 -2.27843e-10 2.07631e-10)
(-0.01 -9.55026e-11 1.34229e-10)
(-0.01 -2.90246e-11 9.70498e-11)
)
;
    }
    outlet
    {
        type            calculated;
        value           nonuniform 0();
    }
    wall
    {
        type            calculated;
        value           nonuniform List<vector> 
66
(
(1.99102e-09 -1.02495e-09 2.07388e-11)
(-2.80219e-10 -8.9901e-11 1.58453e-10)
(6.46623e-10 -8.79627e-11 1.19924e-10)
(-1.08872e-09 -3.24331e-10 6.57504e-10)
(-1.01685e-09 -2.82926e-10 4.93558e-10)
(-5.60995e-10 -2.44363e-10 2.30058e-10)
(-1.58265e-09 -6.2543e-10 1.19634e-09)
(-1.69437e-09 -5.93997e-10 8.34667e-10)
(-7.23362e-10 -3.79176e-10 -1.79603e-10)
(-2.29819e-09 -1.20623e-09 1.97502e-09)
(-2.46967e-09 -1.16e-09 2.03212e-09)
(-3.05266e-09 -6.0365e-10 1.02001e-09)
(-1.78786e-09 4.94622e-10 7.43462e-10)
(-3.25254e-09 -1.57474e-09 2.14521e-09)
(-4.00645e-09 -1.54302e-09 2.47626e-09)
(-4.08264e-09 -6.85032e-10 1.61869e-09)
(-2.93955e-09 -6.40053e-10 1.77111e-09)
(-6.2607e-09 -2.31384e-09 4.62867e-09)
(-6.6401e-09 -2.10354e-09 4.19632e-09)
(-6.38738e-09 -1.54336e-09 3.15765e-09)
(-3.79868e-09 -5.40082e-10 1.66248e-09)
(-7.48901e-09 -2.97945e-09 5.76243e-09)
(-8.81692e-09 -2.99825e-09 4.98808e-09)
(-8.46448e-09 -3.09174e-09 3.4493e-09)
(-6.00877e-09 -2.17379e-09 1.12928e-09)
(4.43825e-08 4.93749e-08 6.71482e-08)
(-1.11039e-08 -5.57619e-09 5.0404e-09)
(-1.1778e-08 -2.29859e-09 3.63071e-09)
(-7.74568e-09 -5.17673e-10 2.08057e-09)
(6.44442e-08 7.34873e-08 8.93039e-08)
(-1.24617e-08 -4.04326e-09 6.1776e-09)
(-1.11972e-08 -3.27348e-09 4.06145e-09)
(-8.27508e-09 -1.33169e-09 2.11797e-09)
(6.46623e-10 -8.79627e-11 1.19924e-10)
(-1.73864e-10 -1.24273e-11 2.33693e-10)
(-1.45077e-10 -3.21607e-11 1.87664e-10)
(-1.57229e-10 -2.90246e-11 9.70498e-11)
(-5.60995e-10 -2.44363e-10 2.30058e-10)
(-4.96685e-10 -7.38278e-11 3.68774e-10)
(-5.91035e-10 -2.41916e-11 4.08146e-10)
(-5.58191e-10 8.57817e-11 3.89326e-10)
(-7.23362e-10 -3.79176e-10 -1.79603e-10)
(-8.8419e-10 -1.56697e-10 6.31991e-10)
(-7.14875e-10 -1.46988e-10 5.21811e-10)
(-9.02457e-10 -3.78318e-11 5.16463e-10)
(-1.78786e-09 4.94622e-10 7.43462e-10)
(-1.66749e-09 -3.97517e-10 8.57094e-10)
(-1.82738e-09 -4.77894e-10 8.35975e-10)
(-1.03422e-09 -1.43862e-11 4.98953e-10)
(-2.93955e-09 -6.40053e-10 1.77111e-09)
(-2.31235e-09 -2.6272e-10 1.95238e-09)
(-2.10194e-09 1.26228e-11 1.1507e-09)
(-1.62677e-09 -6.3204e-11 7.98835e-10)
(-3.79868e-09 -5.40082e-10 1.66248e-09)
(-3.046e-09 -5.10418e-10 1.52367e-09)
(-2.59828e-09 -1.64483e-10 1.23808e-09)
(-2.20806e-09 -2.738e-10 8.82926e-10)
(-6.00877e-09 -2.17379e-09 1.12928e-09)
(-4.35418e-09 -7.89656e-10 1.01511e-09)
(-3.63068e-09 9.79113e-11 1.83575e-09)
(-7.74568e-09 -5.17673e-10 2.08057e-09)
(-5.9439e-09 -4.18258e-10 1.45506e-09)
(-4.80644e-09 4.65436e-10 1.53782e-09)
(-8.27508e-09 -1.33169e-09 2.11797e-09)
(-4.53063e-09 -4.59537e-10 1.03326e-09)
(-6.06587e-09 -5.70067e-10 2.49073e-09)
)
;
    }
    procBoundary2to0
    {
        type            processor;
        value           nonuniform List<vector> 
44
(
(-0.0220745 0.000278701 0.00108753)
(-0.0235157 0.000258873 0.00104568)
(-0.0225829 0.000200954 0.000887709)
(-0.024013 0.000185979 0.000821992)
(-0.0230392 0.000132215 0.000666318)
(-0.0244241 0.000108279 0.000605849)
(-0.0236551 0.000131127 0.00133191)
(-0.0218346 0.000104538 0.00121759)
(-0.0230154 0.000101325 0.00122466)
(-0.0230154 0.000101325 0.00122466)
(-0.0207358 6.60915e-05 0.00106488)
(-0.0220944 5.38006e-05 0.001029)
(-0.0208679 0.000194928 0.000824111)
(-0.0224087 0.000177645 0.00075668)
(-0.0208476 0.000114666 0.000593271)
(-0.0224983 9.38742e-05 0.000516771)
(-0.0233776 0.000112449 0.00139883)
(-0.0213099 9.52822e-05 0.00124553)
(-0.0223273 9.14125e-05 0.00127462)
(-0.0207358 6.60915e-05 0.00106488)
(-0.0220944 5.38006e-05 0.001029)
(-0.0220944 5.38006e-05 0.001029)
(-0.019041 4.47888e-05 0.000681892)
(-0.0206639 4.3854e-05 0.000613681)
(-0.0191533 0.000123833 0.000504856)
(-0.0209126 9.58742e-05 0.000408171)
(-0.0230827 0.000102605 0.00123048)
(-0.0208076 8.66959e-05 0.00110109)
(-0.0216581 8.12846e-05 0.00110727)
(-0.0196711 6.22108e-05 0.0009063)
(-0.0209895 5.39871e-05 0.000855109)
(-0.019041 4.47888e-05 0.000681892)
(-0.0206639 4.3854e-05 0.000613681)
(-0.0206639 4.3854e-05 0.000613681)
(-0.0177587 1.78233e-05 0.000333352)
(-0.0195256 1.43535e-05 0.000273019)
(-0.0228949 0.000102343 0.000904248)
(-0.0205513 7.76533e-05 0.000810967)
(-0.0212745 6.59606e-05 0.000792691)
(-0.0191328 4.85927e-05 0.000656694)
(-0.0203489 3.40126e-05 0.000608084)
(-0.0182661 3.01302e-05 0.000484468)
(-0.0198244 2.2575e-05 0.000437155)
(-0.0177587 1.78233e-05 0.000333352)
)
;
    }
    procBoundary2to3
    {
        type            processor;
        value           nonuniform List<vector> 
12
(
(-0.0230163 -1.39037e-05 0.000440509)
(-0.0230253 -6.87674e-05 0.000426757)
(-0.024029 -0.000127515 0.00044421)
(-0.0253722 -0.00010074 0.000483806)
(-0.0204847 -2.57658e-05 0.000408257)
(-0.0207286 -6.93738e-05 0.000415489)
(-0.0218114 -0.000115582 0.000467244)
(-0.0235027 -0.000100914 0.000537089)
(-0.0185349 -1.95082e-06 0.000307951)
(-0.0188927 -5.8226e-05 0.000341815)
(-0.0199235 -0.000114769 0.000408326)
(-0.0217539 -0.000131797 0.000536518)
)
;
    }
    procBoundary2to6
    {
        type            processor;
        value           nonuniform List<vector> 
32
(
(-0.0198708 -7.41296e-05 0.000302901)
(-0.0192749 -0.000200808 0.000433548)
(-0.0208897 -0.000170325 0.000379917)
(-0.0220824 -0.000313514 0.000561208)
(-0.0207611 -0.000226114 0.000522051)
(-0.0221285 -0.000181623 0.00047666)
(-0.0229147 -0.000235802 0.000502111)
(-0.0205784 -0.000212403 0.000449911)
(-0.0213069 -0.000224665 0.000431009)
(-0.0192007 -0.000177375 0.000372088)
(-0.0204337 -0.000170174 0.000339122)
(-0.0183577 -0.000124101 0.000283355)
(-0.0199102 -9.89768e-05 0.000260998)
(-0.0198708 -7.41296e-05 0.000302901)
(-0.0192749 -0.000200808 0.000433548)
(-0.0178478 -6.59221e-05 0.000217625)
(-0.0231197 -0.000515705 0.000492247)
(-0.0209238 -0.000432801 0.000456343)
(-0.0217522 -0.000462772 0.000439701)
(-0.0198763 -0.000362977 0.000400658)
(-0.0211139 -0.000359688 0.000366643)
(-0.0192732 -0.000272336 0.000326955)
(-0.0192749 -0.000200808 0.000433548)
(-0.0220824 -0.000313514 0.000561208)
(-0.020745 -0.000251529 0.000299809)
(-0.0233375 -0.000563449 0.000505313)
(-0.0213659 -0.000499291 0.000477555)
(-0.0222751 -0.000515176 0.000472537)
(-0.020769 -0.000426052 0.000446925)
(-0.0219427 -0.000412631 0.000418969)
(-0.0220824 -0.000313514 0.000561208)
(-0.0205175 -0.000329881 0.00038739)
)
;
    }
}


// ************************************************************************* //
