/*--------------------------------*- C++ -*----------------------------------*\
| =========                 |                                                 |
| \\      /  F ield         | OpenFOAM: The Open Source CFD Toolbox           |
|  \\    /   O peration     | Version:  4.x                                   |
|   \\  /    A nd           | Web:      www.OpenFOAM.org                      |
|    \\/     M anipulation  |                                                 |
\*---------------------------------------------------------------------------*/
FoamFile
{
    version     2.0;
    format      ascii;
    class       volScalarField;
    location    "58";
    object      p_rgh;
}
// * * * * * * * * * * * * * * * * * * * * * * * * * * * * * * * * * * * * * //

dimensions      [1 -1 -2 0 0 0 0];

internalField   nonuniform List<scalar> 
114
(
69.1708
-16.2444
62.4384
-33.1869
55.8186
-46.7676
1.30104
68.5124
-17.2748
62.2974
-35.3855
56.4972
-51.0071
75.066
4.95145
68.4183
-12.4261
61.6284
-29.2608
53.6631
-44.4621
19.4849
74.8299
0.297435
68.6547
-19.8907
63.4527
-41.4969
60.3736
-65.2452
19.6089
74.932
0.607629
68.4181
-18.8338
62.5912
-38.1956
58.2999
-56.0119
21.0962
74.8128
2.86686
68.2942
-15.7783
62.1683
-34.4456
57.1133
-52.0214
21.3699
74.7647
20.251
75.0817
1.26519
68.6173
-18.2238
62.6471
-38.2507
57.7795
-58.3301
20.0114
75.0438
0.754126
68.4693
-18.9677
62.4179
-39.1921
57.6402
-59.3096
20.924
75.0164
2.44123
68.2355
-15.9964
61.3445
-33.8123
54.3784
-49.4855
20.4271
74.857
1.36116
68.0597
19.958
74.7136
0.664706
68.5686
-19.9771
63.5812
-43.2452
61.9777
-81.0177
19.8762
74.7464
0.519239
68.5491
-19.7867
63.2909
-41.7011
60.5548
-68.6929
20.7222
74.879
1.79501
68.33
-17.9168
62.4373
-38.9408
58.3813
-66.4617
20.3535
74.8023
1.23369
68.4213
-18.71
62.7659
)
;

boundaryField
{
    inlet
    {
        type            fixedFluxPressure;
        gradient        nonuniform 0();
        value           nonuniform 0();
    }
    outlet
    {
        type            fixedValue;
        value           uniform 0;
    }
    wall
    {
        type            fixedFluxPressure;
        gradient        nonuniform List<scalar> 
66
(
-1.33365e-07
-1.79234e-06
-1.10169e-06
-9.14483e-08
2.44363e-06
3.61513e-06
3.66964e-06
3.28938e-06
9.38583e-06
2.56568e-05
2.24503e-05
1.61067e-05
7.91248e-06
1.01322e-05
2.95354e-06
3.82107e-06
-1.96507e-06
3.34063e-06
-9.64682e-07
-7.65682e-08
-9.45941e-08
-6.60047e-07
1.58654e-07
-4.03303e-07
-1.69133e-06
-4.89554e-06
-2.14768e-07
-5.27737e-06
-1.68699e-06
9.29527e-07
-4.43642e-05
-3.14362e-06
7.51605e-06
8.09116e-07
4.38495e-06
-7.65291e-07
9.48185e-07
2.67265e-06
7.65678e-07
1.37849e-05
1.71219e-05
-3.17578e-06
1.17656e-06
3.03278e-06
1.36378e-05
5.75802e-06
-6.09812e-06
2.30545e-06
2.84511e-06
-3.03442e-06
-5.84154e-07
2.67893e-08
-4.72772e-07
-2.72568e-09
-2.29903
-1.51453e-06
-1.87189e-06
-2.64215e-06
-1.52433e-06
-3.48475e-07
-2.72304e-06
-5.53157e-06
1.25364e-05
-4.23323e-06
-7.75497e-06
-4.47759e-05
)
;
        value           nonuniform List<scalar> 
66
(
19.958
19.8762
20.7222
20.3535
74.7136
74.7464
74.879
74.8023
0.664706
0.519239
1.79501
1.23369
68.5686
68.5491
68.33
68.4213
-19.9771
-19.7867
-17.9168
-18.71
63.5812
63.2909
62.4373
62.7659
-43.2452
-41.7011
-38.9408
61.9777
60.5548
58.3813
-81.0177
-68.6929
-66.4617
19.4849
20.251
19.958
74.8299
75.0817
74.7136
0.297435
1.26519
0.664706
69.1708
68.6547
68.6173
68.5686
-16.2444
-19.8907
-18.2238
-19.9771
62.4384
63.4527
62.6471
63.5812
-33.2198
-41.4969
-38.2507
-43.2452
55.8186
60.3736
57.7795
61.9777
-46.7676
-65.2452
-58.3301
-81.0177
)
;
    }
    procBoundary5to1
    {
        type            processor;
        value           nonuniform List<scalar> 
32
(
68.8845
-21.2382
64.1513
-43.1906
61.8843
-65.5109
-1.26635
68.6584
-21.9006
63.6683
-43.6044
61.2089
-65.6728
74.8485
1.33221
68.4334
-17.7616
62.6259
-36.9256
57.9176
-54.1515
20.4083
75.5369
2.03144
2.03144
2.03144
20.1742
75.1758
75.1758
75.1758
22.4882
22.4882
)
;
    }
    procBoundary5to4
    {
        type            processor;
        value           nonuniform List<scalar> 
12
(
81.4875
81.7661
81.8178
81.796
81.8424
81.9085
82.1529
81.8635
81.3184
81.4764
81.6934
81.598
)
;
    }
    procBoundary5to7
    {
        type            processor;
        value           nonuniform List<scalar> 
44
(
74.8498
1.79328
68.4209
-17.0086
62.6069
-35.731
57.8666
-52.0318
20.6243
74.8498
3.37685
68.2754
-14.844
62.4842
-32.787
56.8084
-49.216
23.017
3.37685
75.0468
3.37685
68.2754
-18.0341
62.0362
-37.2711
57.3389
-55.2905
21.4151
74.8975
2.96401
-18.0341
68.1758
-18.0341
62.0362
-39.8318
59.1001
-66.0622
21.4034
75.0903
2.93224
68.5211
-15.6854
-39.8318
62.2665
)
;
    }
}


// ************************************************************************* //
