/*--------------------------------*- C++ -*----------------------------------*\
| =========                 |                                                 |
| \\      /  F ield         | OpenFOAM: The Open Source CFD Toolbox           |
|  \\    /   O peration     | Version:  4.x                                   |
|   \\  /    A nd           | Web:      www.OpenFOAM.org                      |
|    \\/     M anipulation  |                                                 |
\*---------------------------------------------------------------------------*/
FoamFile
{
    version     2.0;
    format      ascii;
    class       volScalarField;
    location    "28";
    object      alpha.iron;
}
// * * * * * * * * * * * * * * * * * * * * * * * * * * * * * * * * * * * * * //

dimensions      [0 0 0 0 0 0 0];

internalField   nonuniform List<scalar> 
108
(
1
1
1
1
1
1
1
0.999999
0.999999
1
1
1
1
1
1
0.999999
0.999998
0.999996
1
1
1
1
1
0.999999
0.999999
0.999997
0.999994
1
1
1
1
1
0.999999
0.999998
0.999997
0.999992
1
1
1
1
1
1
1
1
1
1
1
1
1
1
1
0.999999
0.999999
0.999998
1
1
1
1
1
1
0.999999
0.999999
0.999997
1
1
1
1
1
1
0.999999
0.999998
0.999995
1
1
1
1
1
1
0.999999
0.999999
0.999999
1
1
1
1
1
1
1
1
1
1
1
1
1
1
1
1
0.999999
0.999999
1
1
1
1
1
1
1
0.999999
0.999999
)
;

boundaryField
{
    inlet
    {
        type            fixedValue;
        value           uniform 1;
    }
    outlet
    {
        type            fixedValue;
        value           nonuniform 0();
    }
    wall
    {
        type            zeroGradient;
    }
    procBoundary4to0
    {
        type            processor;
        value           nonuniform List<scalar> 
36
(
1
1
1
1
1
1
1
0.999999
0.999999
1
1
1
1
1
1
0.999999
0.999998
0.999997
1
1
1
1
1
1
0.999999
0.999998
0.999994
1
1
1
1
1
0.999999
0.999999
0.999997
0.999993
)
;
    }
    procBoundary4to5
    {
        type            processor;
        value           nonuniform List<scalar> 
12
(
0.999998
0.999991
0.999987
0.999984
0.999999
0.999996
0.999994
0.99999
0.999998
0.999999
0.999998
0.999998
)
;
    }
    procBoundary4to6
    {
        type            processor;
        value           nonuniform List<scalar> 
27
(
1
1
1
1
1
0.999999
0.999998
0.999994
0.999986
1
1
1
1
1
1
0.999999
0.999998
0.999996
1
1
1
1
1
1
1
0.999999
0.999999
)
;
    }
}


// ************************************************************************* //
