/*--------------------------------*- C++ -*----------------------------------*\
| =========                 |                                                 |
| \\      /  F ield         | OpenFOAM: The Open Source CFD Toolbox           |
|  \\    /   O peration     | Version:  4.x                                   |
|   \\  /    A nd           | Web:      www.OpenFOAM.org                      |
|    \\/     M anipulation  |                                                 |
\*---------------------------------------------------------------------------*/
FoamFile
{
    version     2.0;
    format      ascii;
    class       volScalarField;
    location    "28";
    object      p_rgh;
}
// * * * * * * * * * * * * * * * * * * * * * * * * * * * * * * * * * * * * * //

dimensions      [1 -1 -2 0 0 0 0];

internalField   nonuniform List<scalar> 
108
(
111.353
93.9648
104.207
76.0775
96.7472
57.8489
89.3366
39.3495
82.1424
112.01
94.2628
104.84
76.2902
97.2387
57.9011
89.711
39.4356
82.3925
112.506
94.5857
105.198
76.6391
97.475
58.386
89.834
40.1383
82.2991
112.642
94.8504
105.397
76.9809
97.6895
58.8808
89.9279
40.7123
82.4327
111.311
94.0287
104.192
76.3442
96.7169
58.1466
89.3912
39.9024
82.1719
111.837
94.2475
104.616
76.4803
97.1024
58.2606
89.693
39.8431
82.3608
112.231
94.6171
105.003
76.7329
97.3798
58.4859
89.8119
40.221
82.4669
112.567
94.6554
105.248
76.8611
97.5257
58.4835
89.8426
39.9152
82.4336
111.082
93.8301
103.946
76.3356
96.6118
58.1892
89.1595
39.7007
81.8342
111.572
94.0651
104.3
76.3743
96.8625
58.16
89.3576
39.713
82.0869
111.961
94.3282
104.633
76.5287
97.0642
58.3776
89.5252
40.0695
82.2533
112.251
94.3589
104.874
76.6351
97.1932
58.2415
89.5249
39.9239
82.3022
)
;

boundaryField
{
    inlet
    {
        type            fixedFluxPressure;
        gradient        nonuniform List<scalar> 
12
(
0.00267075
0.0026513
0.00264865
0.00261186
0.00472069
0.00461435
0.00454645
0.00447423
0.0068233
0.0066757
0.00656934
0.00643511
)
;
        value           nonuniform List<scalar> 
12
(
111.353
112.01
112.506
112.642
111.311
111.837
112.231
112.567
111.083
111.572
111.962
112.251
)
;
    }
    outlet
    {
        type            fixedValue;
        value           nonuniform 0();
    }
    wall
    {
        type            fixedFluxPressure;
        gradient        nonuniform List<scalar> 
63
(
3.21894e-06
6.88774e-06
-7.03765e-07
-3.24242e-06
-6.97037e-06
-1.38258e-05
-1.54143e-05
-1.01135e-05
-4.31924e-06
-1.01418e-05
-1.06471e-05
-1.18534e-05
-1.5367e-05
-2.29889e-05
-3.40755e-05
-4.57483e-05
-8.60057e-06
-1.96473e-05
-2.74185e-05
-2.44864e-05
-1.97004e-05
-3.09387e-05
-6.55077e-05
-4.72792e-05
-1.87398e-05
-1.46356e-05
-2.35606e-05
-1.58687e-05
-2.63447e-05
-4.81914e-05
-5.5356e-05
-4.61057e-05
-7.3314e-06
-2.16262e-05
-1.87977e-05
-1.85742e-05
1.27692e-07
-2.60352e-06
-1.52833e-06
-2.88815e-07
-9.77743e-06
-5.21082e-06
6.05493e-07
-2.72333e-06
-2.77981e-06
7.48261e-06
-4.64487e-06
-4.98305e-06
1.3683e-05
1.86472e-06
-4.89616e-06
-1.49907e-05
-6.37269e-06
-9.98625e-06
5.48258e-06
-3.9575e-06
-7.60078e-06
1.22447e-05
-4.66503e-06
-4.41842e-06
-2.29372e-05
-9.97037e-06
-6.19686e-06
)
;
        value           nonuniform List<scalar> 
63
(
111.082
111.572
111.961
112.251
93.8301
94.0651
94.3282
94.3589
103.946
104.3
104.633
104.874
76.3356
76.3743
76.5287
76.6351
96.6118
96.8625
97.0642
97.1932
58.1892
58.16
58.3776
58.2415
89.1595
89.3576
89.5252
89.5249
39.7007
39.713
40.0695
39.9239
81.8342
82.0869
82.2533
82.3022
111.353
111.311
111.082
93.9648
94.0287
93.8301
104.207
104.192
103.946
76.0775
76.3442
76.3356
96.7472
96.7169
96.6118
57.8489
58.1466
58.1892
89.3366
89.3912
89.1595
39.3495
39.9024
39.7007
82.1424
82.1719
81.8342
)
;
    }
    procBoundary4to0
    {
        type            processor;
        value           nonuniform List<scalar> 
36
(
111.001
93.805
103.862
75.9688
96.4786
57.78
89.1517
39.528
82.2345
111.576
94.0754
104.345
76.1017
96.8405
57.9241
89.4777
39.4775
82.412
111.967
94.4252
104.783
76.6109
97.259
58.6559
89.7369
40.8613
82.5895
112.158
94.528
104.949
76.6119
97.2434
58.7073
89.5738
40.7008
82.427
)
;
    }
    procBoundary4to5
    {
        type            processor;
        value           nonuniform List<scalar> 
12
(
20.4678
20.6003
21.9244
23.0055
21.1776
20.9403
21.8607
21.5459
20.7967
20.8682
21.695
21.4594
)
;
    }
    procBoundary4to6
    {
        type            processor;
        value           nonuniform List<scalar> 
27
(
112.701
94.4882
105.31
76.8642
97.5964
58.6661
89.9643
40.5398
82.2988
112.492
94.4899
105.076
76.7102
97.468
58.6761
89.9564
40.4438
82.6995
112.046
94.3332
104.762
76.6491
97.2176
58.5902
89.7377
40.226
82.5183
)
;
    }
}


// ************************************************************************* //
