/*--------------------------------*- C++ -*----------------------------------*\
| =========                 |                                                 |
| \\      /  F ield         | OpenFOAM: The Open Source CFD Toolbox           |
|  \\    /   O peration     | Version:  4.x                                   |
|   \\  /    A nd           | Web:      www.OpenFOAM.org                      |
|    \\/     M anipulation  |                                                 |
\*---------------------------------------------------------------------------*/
FoamFile
{
    version     2.0;
    format      ascii;
    class       volScalarField;
    location    "28";
    object      particleRelTemp;
}
// * * * * * * * * * * * * * * * * * * * * * * * * * * * * * * * * * * * * * //

dimensions      [0 0 0 0 0 0 0];

internalField   nonuniform List<scalar> 
108
(
-1.17856e-08
-1.01938e-08
-8.13122e-09
-5.9414e-09
-4.08059e-09
-2.1725e-09
9.21302e-10
3.52587e-09
4.80298e-09
-1.15578e-08
-9.79349e-09
-7.15357e-09
-4.72986e-09
-2.01378e-09
3.33122e-10
2.95422e-09
5.88015e-09
8.15678e-09
-1.14738e-08
-9.12915e-09
-6.01669e-09
-3.47644e-09
-5.48827e-10
1.9297e-09
5.11102e-09
8.16043e-09
9.08619e-09
-1.1455e-08
-9.28464e-09
-6.35678e-09
-3.63856e-09
-2.01394e-13
2.81512e-09
5.81243e-09
7.57651e-09
1.0217e-08
-1.17874e-08
-1.05326e-08
-8.82881e-09
-7.1112e-09
-5.76658e-09
-4.33986e-09
-2.72855e-09
2.91921e-10
1.20788e-09
-1.15791e-08
-1.00466e-08
-8.27347e-09
-5.92378e-09
-3.97102e-09
-2.21986e-09
2.77703e-10
1.56533e-09
3.42323e-09
-1.19802e-08
-9.78681e-09
-7.56168e-09
-5.45774e-09
-2.73061e-09
-2.26995e-10
2.17422e-09
3.86425e-09
5.00423e-09
-1.16298e-08
-9.88032e-09
-7.23803e-09
-5.27837e-09
-2.42439e-09
1.6939e-10
2.13264e-09
4.02327e-09
5.17772e-09
-1.23494e-08
-1.09222e-08
-9.66235e-09
-8.19174e-09
-7.24673e-09
-5.68469e-09
-4.22061e-09
-2.68136e-09
-2.20979e-09
-1.20318e-08
-1.06501e-08
-8.63275e-09
-7.51341e-09
-5.78012e-09
-4.03857e-09
-2.56323e-09
-1.06393e-09
6.55895e-11
-1.19278e-08
-1.01736e-08
-8.22322e-09
-6.50428e-09
-4.79081e-09
-2.16402e-09
-9.85045e-10
7.0052e-10
1.70736e-09
-1.17325e-08
-1.0249e-08
-8.415e-09
-6.06344e-09
-4.2677e-09
-2.32656e-09
-5.67685e-10
1.02149e-09
1.7536e-09
)
;

boundaryField
{
    inlet
    {
        type            calculated;
        value           nonuniform List<scalar> 
12
(
-1.17856e-08
-1.15578e-08
-1.14738e-08
-1.1455e-08
-1.17874e-08
-1.15791e-08
-1.19802e-08
-1.16298e-08
-1.23494e-08
-1.20318e-08
-1.19278e-08
-1.17325e-08
)
;
    }
    outlet
    {
        type            calculated;
        value           nonuniform 0();
    }
    wall
    {
        type            calculated;
        value           nonuniform List<scalar> 
63
(
-1.23494e-08
-1.20318e-08
-1.19278e-08
-1.17325e-08
-1.09222e-08
-1.06501e-08
-1.01736e-08
-1.0249e-08
-9.66235e-09
-8.63275e-09
-8.22322e-09
-8.415e-09
-8.19174e-09
-7.51341e-09
-6.50428e-09
-6.06344e-09
-7.24673e-09
-5.78012e-09
-4.79081e-09
-4.2677e-09
-5.68469e-09
-4.03857e-09
-2.16402e-09
-2.32656e-09
-4.22061e-09
-2.56323e-09
-9.85045e-10
-5.67685e-10
-2.68136e-09
-1.06393e-09
7.0052e-10
1.02149e-09
-2.20979e-09
6.55895e-11
1.70736e-09
1.7536e-09
-1.17856e-08
-1.17874e-08
-1.23494e-08
-1.01938e-08
-1.05326e-08
-1.09222e-08
-8.13122e-09
-8.82881e-09
-9.66235e-09
-5.9414e-09
-7.1112e-09
-8.19174e-09
-4.08059e-09
-5.76658e-09
-7.24673e-09
-2.1725e-09
-4.33986e-09
-5.68469e-09
9.21302e-10
-2.72855e-09
-4.22061e-09
3.52587e-09
2.91921e-10
-2.68136e-09
4.80298e-09
1.20788e-09
-2.20979e-09
)
;
    }
    procBoundary4to0
    {
        type            processor;
        value           nonuniform List<scalar> 
36
(
-1.19039e-08
-9.39504e-09
-7.38522e-09
-4.98722e-09
-2.45081e-09
3.73756e-10
2.22914e-09
6.16157e-09
7.45771e-09
-1.15044e-08
-9.30433e-09
-6.76835e-09
-3.52301e-09
-6.28785e-10
2.58835e-09
5.77677e-09
8.34541e-09
1.14353e-08
-1.05441e-08
-8.42577e-09
-6.0101e-09
-1.92291e-09
8.44752e-10
4.82177e-09
8.42375e-09
1.20443e-08
1.29022e-08
-1.11686e-08
-8.76238e-09
-5.73705e-09
-2.11872e-09
8.82869e-10
4.49979e-09
9.02521e-09
1.11569e-08
1.38963e-08
)
;
    }
    procBoundary4to5
    {
        type            processor;
        value           nonuniform List<scalar> 
12
(
5.91602e-09
7.93279e-09
1.00587e-08
9.82401e-09
2.74233e-09
4.56133e-09
6.43816e-09
4.90433e-09
-1.37727e-09
7.55785e-10
2.3107e-09
2.1131e-09
)
;
    }
    procBoundary4to6
    {
        type            processor;
        value           nonuniform List<scalar> 
27
(
-1.12212e-08
-9.07941e-09
-6.37465e-09
-3.40327e-09
-3.95389e-10
1.66437e-09
3.77178e-09
5.21519e-09
7.12706e-09
-1.16705e-08
-9.60194e-09
-7.6746e-09
-5.36383e-09
-3.37921e-09
-1.14659e-09
5.04705e-10
2.31579e-09
3.56378e-09
-1.18908e-08
-1.04953e-08
-8.622e-09
-6.69337e-09
-5.05442e-09
-2.93134e-09
-1.39818e-09
-5.21466e-10
-6.57667e-10
)
;
    }
}


// ************************************************************************* //
