/*--------------------------------*- C++ -*----------------------------------*\
| =========                 |                                                 |
| \\      /  F ield         | OpenFOAM: The Open Source CFD Toolbox           |
|  \\    /   O peration     | Version:  4.x                                   |
|   \\  /    A nd           | Web:      www.OpenFOAM.org                      |
|    \\/     M anipulation  |                                                 |
\*---------------------------------------------------------------------------*/
FoamFile
{
    version     2.0;
    format      ascii;
    class       volScalarField;
    location    "39.5";
    object      Ksl;
}
// * * * * * * * * * * * * * * * * * * * * * * * * * * * * * * * * * * * * * //

dimensions      [1 -3 -1 0 0 0 0];

internalField   nonuniform List<scalar> 
87
(
3826.92
2547.11
3753.34
2392.38
3760.74
2107.44
4110.92
1681.61
5459.04
4486.42
2698.09
4435.85
2561.81
4570.66
2314.5
5187.6
1968.4
6277.56
5351.54
2948.01
5450.26
2838.57
5701.73
2610.64
6065.69
2175.9
6320.4
6042.87
3027.4
6087.51
2945.52
6387.52
2760.65
7540.53
2517.45
10560.1
11304.3
3391.68
12668.1
3286.65
15251.8
3060.52
16031.8
2818.16
10277.5
37412.6
3711.54
198314
3696.01
1e+10
3794.23
64565.1
4058.24
7967.77
6311.5
3004.03
6571.18
2893.15
7086.72
2678.83
7983.86
2467.45
8175.72
12947.5
3358.07
13113.1
3203.88
12968
2992.06
11212.8
2726.85
7653.75
32198.6
3679.24
38178.1
3637.67
33817.8
3593.55
19131.5
3675.68
7998.87
8595.56
3334.51
12051
66399.6
3727.16
1e+10
)
;

boundaryField
{
    inlet
    {
        type            zeroGradient;
    }
    outlet
    {
        type            zeroGradient;
    }
    wall
    {
        type            zeroGradient;
    }
    procBoundary1to0
    {
        type            processor;
        value           nonuniform List<scalar> 
12
(
2612.99
2820.34
3029.37
3110.47
3478.46
3702.97
3105.98
3489.22
3700.44
3308.54
3727.86
4071.11
)
;
    }
    procBoundary1to3
    {
        type            processor;
        value           nonuniform List<scalar> 
27
(
4938.02
2760.18
4801.48
2596.96
4944.01
2406.12
5734.55
2127.96
6318.68
17878.7
3452.05
22039.8
3319.04
27050.7
3153.46
26059.1
2925.26
9660.17
44575.4
3675.13
66266.3
3647.87
56733.6
3648.97
31698.7
3819.82
9391.13
)
;
    }
    procBoundary1to5
    {
        type            processor;
        value           nonuniform List<scalar> 
32
(
3580.11
30171
4093.83
1e+10
5758.92
107497
1e+10
3758.46
1e+10
3882.67
125675
4309.13
14571.6
4142.15
1e+10
4183.45
1e+10
4276.41
1e+10
4756.88
14038.9
7189.18
3064.28
3580.11
1e+10
7421.53
31755.1
1e+10
4142.15
3541.65
4142.15
599461
)
;
    }
    procBoundary1to7
    {
        type            processor;
        value           uniform 1e+10;
    }
}


// ************************************************************************* //
