/*--------------------------------*- C++ -*----------------------------------*\
| =========                 |                                                 |
| \\      /  F ield         | OpenFOAM: The Open Source CFD Toolbox           |
|  \\    /   O peration     | Version:  4.x                                   |
|   \\  /    A nd           | Web:      www.OpenFOAM.org                      |
|    \\/     M anipulation  |                                                 |
\*---------------------------------------------------------------------------*/
FoamFile
{
    version     2.0;
    format      ascii;
    class       volScalarField;
    location    "39.5";
    object      p;
}
// * * * * * * * * * * * * * * * * * * * * * * * * * * * * * * * * * * * * * //

dimensions      [1 -1 -2 0 0 0 0];

internalField   nonuniform List<scalar> 
87
(
5652.53
5708.49
5632.76
5702.96
5611.42
5699.14
5586.59
5699.63
5551.48
5652.04
5708.51
5632.29
5702.88
5610.84
5698.96
5586.71
5698.7
5556.8
5652.78
5708.71
5633.49
5702.71
5612.9
5697.83
5591
5695.29
5564.71
3774.83
3830.87
3755.78
3824.94
3735.82
3819.76
3714.34
3816.15
3692.17
3774.52
3830.91
3755.19
3824.8
3734.56
3819.46
3713.6
3815.91
3692.72
3775.26
3831.14
3756.33
3824.47
3737.26
3818.23
3719.04
3811.9
3703.59
1896.65
1952.71
1877.11
1946.88
1856.21
1942.28
1833.85
1940.34
1810.46
1896.21
1952.66
1876.48
1946.57
1855.79
1941.59
1834.31
1939.18
1812.4
1897.45
1952.69
1878.54
1946.41
1859.22
1940.92
1840.18
1936.64
1822.84
20.2746
75.5455
1.90164
20.1241
75.2654
22.2723
)
;

boundaryField
{
    inlet
    {
        type            calculated;
        value           nonuniform 0();
    }
    outlet
    {
        type            calculated;
        value           nonuniform List<scalar> 9(5633.74 5633.74 5633.74 3755.83 3755.83 3755.83 1877.91 1877.91 1877.91);
    }
    wall
    {
        type            calculated;
        value           nonuniform List<scalar> 
57
(
6591.49
6590.99
6591.74
6647.45
6647.46
6647.67
6571.72
6571.24
6572.44
6641.92
6641.83
6641.67
6550.37
6549.79
6551.86
6638.1
6637.92
6636.79
6525.55
6525.67
6529.95
6638.59
6637.66
6634.24
6489.36
6494.82
6503.33
5652.53
3774.83
1896.65
20.2746
5708.49
3830.87
1952.71
75.5455
5632.76
3755.78
1877.11
1.90164
5702.96
3824.94
1946.88
5611.42
3735.82
1856.21
5699.14
3819.76
1942.28
5586.59
3714.34
1833.85
5699.63
3816.15
1940.34
5551.48
3692.17
1810.46
)
;
    }
    procBoundary1to0
    {
        type            processor;
        value           nonuniform List<scalar> 
12
(
5714.73
5714.77
5715.16
3837.3
3837.45
3837.88
1959.13
1959.26
1959.54
82.0327
82.184
81.9502
)
;
    }
    procBoundary1to3
    {
        type            processor;
        value           nonuniform List<scalar> 
27
(
5651.77
5708.34
5631.7
5702.55
5610.81
5698.48
5588.07
5697.29
5561.99
3773.79
3830.73
3753.96
3824.49
3733.47
3819.27
3712.97
3816.01
3692.64
1896.82
1952.64
1877.56
1946.19
1858.3
1940.89
1839.58
1936.72
1822.94
)
;
    }
    procBoundary1to5
    {
        type            processor;
        value           nonuniform List<scalar> 
32
(
69.2648
-16.3426
62.7018
-33.2458
55.9271
-46.6203
1.3331
68.6309
-17.0654
62.3854
-34.8184
56.2766
-50.0501
75.0884
4.70607
68.475
-12.6751
61.7661
-29.4456
53.7909
-44.5397
-1858.63
-1803.09
69.2648
1.3331
-1877.84
-1858.39
1.3331
75.0884
-1802.97
75.0884
-1857.1
)
;
    }
    procBoundary1to7
    {
        type            processor;
        value           uniform 20.9578;
    }
}


// ************************************************************************* //
