/*--------------------------------*- C++ -*----------------------------------*\
| =========                 |                                                 |
| \\      /  F ield         | OpenFOAM: The Open Source CFD Toolbox           |
|  \\    /   O peration     | Version:  4.x                                   |
|   \\  /    A nd           | Web:      www.OpenFOAM.org                      |
|    \\/     M anipulation  |                                                 |
\*---------------------------------------------------------------------------*/
FoamFile
{
    version     2.0;
    format      ascii;
    class       surfaceScalarField;
    location    "39.5";
    object      phi;
}
// * * * * * * * * * * * * * * * * * * * * * * * * * * * * * * * * * * * * * //

dimensions      [0 3 -1 0 0 0 0];

internalField   nonuniform List<scalar> 
192
(
1.42311e-05
-8.30644e-09
-2.02778e-07
1.44937e-05
-4.99632e-08
-2.12636e-07
1.48724e-05
-4.46428e-08
-3.3414e-07
1.49525e-05
3.83233e-08
-1.18344e-07
1.57436e-05
-1.82951e-07
-6.08136e-07
1.52983e-05
2.26322e-07
2.18964e-07
1.73817e-05
-6.69686e-07
-1.4137e-06
1.52979e-05
8.36429e-07
1.24728e-06
-2.53826e-06
-3.59516e-06
1.29707e-05
-8.85552e-08
-1.96099e-07
1.31754e-05
-6.70151e-08
-1.87564e-07
1.34701e-05
-8.64226e-08
-2.52951e-07
1.34403e-05
5.97646e-08
8.31191e-09
1.39819e-05
-2.82482e-07
-4.41998e-07
1.34209e-05
2.48363e-07
5.38889e-07
1.46249e-05
-8.86915e-07
-9.86749e-07
1.2943e-05
8.79475e-07
1.63888e-06
-2.58261e-06
-2.67812e-06
1.13931e-05
-1.81285e-07
1.14414e-05
-1.27844e-07
1.15489e-05
-2.24675e-07
1.15012e-05
8.77026e-08
1.18821e-05
-4.15014e-07
1.16837e-05
5.2372e-07
1.28097e-05
-9.83519e-07
1.17598e-05
1.67656e-06
-3.9942e-06
1.05545e-05
1.0153e-08
-2.92864e-07
1.06757e-05
-5.27173e-08
-2.81154e-07
1.07314e-05
4.04866e-08
-4.30264e-07
1.06846e-05
1.40525e-07
-2.12143e-07
1.08086e-05
1.043e-08
-7.4251e-07
1.04048e-05
4.55762e-07
1.67032e-07
1.07074e-05
-2.21704e-07
-1.49465e-06
9.55131e-06
1.10751e-06
1.29588e-06
-1.28212e-06
-3.15354e-06
8.23535e-06
-3.79009e-08
-1.97005e-07
8.16441e-06
-3.84577e-08
-1.30877e-07
8.23566e-06
-6.43068e-08
-2.19408e-07
8.09777e-06
1.57328e-07
1.29397e-07
8.24854e-06
-1.46552e-07
-4.35786e-07
8.28153e-06
3.88987e-07
5.72673e-07
8.38353e-06
-3.39046e-07
-9.7141e-07
8.46163e-06
1.01906e-06
1.64924e-06
-1.30096e-06
-2.43688e-06
6.30556e-06
-1.47558e-07
5.97936e-06
6.37319e-08
5.82237e-06
-1.63655e-07
5.83218e-06
1.38401e-07
5.49421e-06
-2.36218e-07
5.93529e-06
4.46426e-07
5.18373e-06
-5.8482e-07
6.72829e-06
1.30065e-06
-2.67289e-06
1.01307e-05
-2.77835e-08
-3.66334e-07
1.01243e-05
2.25364e-08
-2.97305e-07
1.02129e-05
-3.29587e-08
-4.85881e-07
1.00581e-05
1.75913e-07
1.0246e-05
-2.09673e-07
9.86704e-06
4.33959e-07
1.01114e-05
-6.43929e-07
9.38092e-06
1.02e-06
-1.8116e-06
7.77743e-06
-1.24301e-07
-2.08927e-07
7.88072e-06
-2.78906e-08
-1.8374e-07
8.02876e-06
-1.86488e-07
8.13613e-06
1.3588e-07
8.26421e-06
-3.88746e-07
8.43612e-06
3.78816e-07
8.60232e-06
-9.76031e-07
8.5355e-06
1.24408e-06
-2.95524e-06
6.21588e-06
-1.2625e-07
6.23539e-06
6.12065e-06
6.30275e-06
6.09156e-06
6.56893e-06
6.02374e-06
7.06883e-06
8.30565e-06
-3.25299e-08
7.74298e-06
1.84885e-07
5.68235e-06
-4.37839e-08
)
;

boundaryField
{
    inlet
    {
        type            calculated;
        value           nonuniform 0();
    }
    outlet
    {
        type            calculated;
        value           nonuniform List<scalar> 9(2.14314e-05 1.56655e-05 1.62619e-05 1.03918e-05 8.23922e-06 4.2973e-06 9.96194e-06 9.44046e-06 4.40153e-06);
    }
    wall
    {
        type            calculated;
        value           nonuniform List<scalar> 
57
(
0
0
0
0
0
0
0
0
0
-2.46519e-32
0
0
0
0
0
0
0
0
0
0
0
0
0
0
0
0
0
0
0
0
0
0
0
0
0
0
0
0
0
0
0
0
0
0
0
0
0
0
0
0
0
0
-4.93038e-32
0
0
0
0
)
;
    }
    procBoundary1to0
    {
        type            processor;
        value           nonuniform List<scalar> 
12
(
-1.402e-05
-1.26944e-05
-1.12819e-05
-1.04746e-05
-8.18639e-06
-6.42068e-06
-1.00294e-05
-7.66899e-06
-6.295e-06
-8.57804e-06
-5.86216e-06
-4.99758e-06
)
;
    }
    procBoundary1to3
    {
        type            processor;
        value           nonuniform List<scalar> 
27
(
-1.83788e-08
1.24677e-08
3.07385e-08
1.9819e-08
-2.48423e-07
-7.69003e-08
-1.02939e-06
2.52781e-07
-3.09046e-06
4.34891e-08
9.61657e-08
3.16631e-08
9.68283e-08
1.26213e-08
2.51953e-08
1.38204e-08
-1.49591e-07
-1.91286e-07
-6.64875e-08
-1.22793e-08
-7.69354e-08
3.26838e-08
-1.74651e-07
6.3719e-08
-5.28806e-07
6.68251e-07
-1.98926e-06
)
;
    }
    procBoundary1to5
    {
        type            processor;
        value           nonuniform List<scalar> 
32
(
-2.33314e-07
-7.20668e-07
1.11994e-07
-1.09512e-06
1.0064e-06
-1.92296e-06
-2.13911e-07
6.20535e-08
-3.84791e-07
4.55903e-07
-8.05508e-07
1.49198e-06
-2.1982e-06
2.86095e-08
-1.58471e-07
5.94989e-08
-2.39126e-07
2.84161e-07
-4.86861e-07
8.31381e-07
-9.71568e-07
-6.14115e-08
8.04822e-08
7.1484e-06
6.89473e-08
3.97516e-08
-1.78714e-08
5.47677e-06
2.13472e-07
-6.73753e-09
4.82338e-06
4.16861e-09
)
;
    }
    procBoundary1to7
    {
        type            processor;
        value           uniform 7.94482e-13;
    }
}


// ************************************************************************* //
