/*--------------------------------*- C++ -*----------------------------------*\
| =========                 |                                                 |
| \\      /  F ield         | OpenFOAM: The Open Source CFD Toolbox           |
|  \\    /   O peration     | Version:  4.x                                   |
|   \\  /    A nd           | Web:      www.OpenFOAM.org                      |
|    \\/     M anipulation  |                                                 |
\*---------------------------------------------------------------------------*/
FoamFile
{
    version     2.0;
    format      ascii;
    class       volScalarField;
    location    "39.5";
    object      pSmooth;
}
// * * * * * * * * * * * * * * * * * * * * * * * * * * * * * * * * * * * * * //

dimensions      [1 -1 -2 0 0 0 0];

internalField   nonuniform List<scalar> 
87
(
18.8379
74.6978
0.1
69.0941
0.1
65.2793
0.1
65.8139
0.1
18.3188
74.6965
0.1
69.0482
0.1
65.131
0.1
64.8147
0.1
19.0295
74.8863
0.1
68.8897
0.1
64.0638
0.1
61.5723
0.1
19.1174
75.0064
0.1
68.9748
0.1
63.8122
0.1
60.302
0.1
18.658
75.0069
0.1
68.9254
0.1
63.6074
0.1
60.0212
0.1
19.417
75.246
0.487028
68.6313
0.1
62.4574
0.1
56.1786
0.1
18.7688
74.7486
0.1
68.852
0.1
64.2535
0.1
62.3633
0.1
18.3221
74.6928
0.1
68.5878
0.1
63.6041
0.1
61.1796
0.1
19.4801
74.7078
0.572668
68.4593
0.1
63.0265
0.1
58.8416
0.1
20.2895
75.4777
1.90396
20.1591
75.2062
22.2389
)
;

boundaryField
{
    inlet
    {
        type            zeroGradient;
    }
    outlet
    {
        type            fixedValue;
        value           uniform 0;
    }
    wall
    {
        type            zeroGradient;
    }
    procBoundary1to0
    {
        type            processor;
        value           nonuniform List<scalar> 
12
(
81.0042
81.0278
81.3741
81.4805
81.5905
82.0007
81.2035
81.3309
81.575
81.9852
82.1382
81.891
)
;
    }
    procBoundary1to3
    {
        type            processor;
        value           nonuniform List<scalar> 
27
(
18.0628
74.566
0.1
68.7909
0.1
64.6598
0.1
63.3665
0.1
17.9968
74.8635
0.1
68.6425
0.1
63.4202
0.1
60.1127
0.1
18.9826
74.6708
0.1
68.2612
0.1
63.0078
0.1
58.8176
0.1
)
;
    }
    procBoundary1to5
    {
        type            processor;
        value           nonuniform List<scalar> 
32
(
69.1931
0.1
62.6872
0.1
55.8891
0.1
1.38814
68.5674
0.1
62.3739
0.1
56.2064
0.1
75.0232
4.67136
68.4141
0.1
61.7379
0.1
53.7405
0.1
19.2816
74.7599
69.1931
1.38814
0.1
19.5129
1.38814
75.0232
74.8754
75.0232
20.799
)
;
    }
    procBoundary1to7
    {
        type            processor;
        value           uniform 21.1378;
    }
}


// ************************************************************************* //
