/*--------------------------------*- C++ -*----------------------------------*\
| =========                 |                                                 |
| \\      /  F ield         | OpenFOAM: The Open Source CFD Toolbox           |
|  \\    /   O peration     | Version:  4.x                                   |
|   \\  /    A nd           | Web:      www.OpenFOAM.org                      |
|    \\/     M anipulation  |                                                 |
\*---------------------------------------------------------------------------*/
FoamFile
{
    version     2.0;
    format      ascii;
    class       volScalarField;
    location    "39.5";
    object      QPartFluidCoeff;
}
// * * * * * * * * * * * * * * * * * * * * * * * * * * * * * * * * * * * * * //

dimensions      [1 -1 -3 -1 0 0 0];

internalField   nonuniform List<scalar> 
87
(
-1.43244e+07
-2.3531e+07
-1.39932e+07
-2.18653e+07
-1.45736e+07
-1.62861e+07
-1.7492e+07
-2.19826e+07
-1.34002e+07
-1.51079e+07
-1.4772e+07
-1.94575e+07
-1.91613e+07
-1.46354e+07
-2.21916e+07
-2.54195e+07
-2.23344e+07
-1.32552e+07
-1.31544e+07
-2.36614e+07
-2.07565e+07
-2.98599e+07
-2.09783e+07
-1.94085e+07
-1.91782e+07
-2.09989e+07
-1.42642e+07
-2.47549e+07
-2.19813e+07
-2.04787e+07
-2.5303e+07
-2.12515e+07
-2.62417e+07
-3.03436e+07
-3.01108e+07
-1.80749e+07
-3.00837e+07
-2.24228e+07
-2.52664e+07
-3.14395e+07
-3.072e+07
-2.57599e+07
-3.14211e+07
-3.5215e+07
-1.56746e+07
-2.64608e+07
-2.83096e+07
-2.39653e+07
-2.27094e+07
-1.92851e+07
-3.09742e+07
-3.13173e+07
-4.37944e+07
-1.46746e+07
-2.37462e+07
-2.33868e+07
-2.74507e+07
-3.21282e+07
-2.03569e+07
-3.23075e+07
-2.54958e+07
-2.49475e+07
-1.06797e+07
-2.15962e+07
-2.95418e+07
-2.16081e+07
-2.70196e+07
-2.72605e+07
-3.02892e+07
-2.5435e+07
-3.14806e+07
-1.23222e+07
-3.17379e+07
-2.6313e+07
-1.83808e+07
-3.71737e+07
-2.96256e+07
-3.56197e+07
-2.49069e+07
-3.21944e+07
-1.1211e+07
-2.16006e+07
-1.84695e+07
-2.54228e+07
-2.6182e+07
-4.06776e+07
-1.96224e+07
)
;

boundaryField
{
    inlet
    {
        type            calculated;
        value           nonuniform 0();
    }
    outlet
    {
        type            calculated;
        value           uniform 0;
    }
    wall
    {
        type            calculated;
        value           uniform 0;
    }
    procBoundary1to0
    {
        type            processor;
        value           nonuniform List<scalar> 
12
(
152.503
396.43
643.238
548.777
678.791
479.97
409.567
767.29
407.956
456.789
524.066
705.406
)
;
    }
    procBoundary1to3
    {
        type            processor;
        value           nonuniform List<scalar> 
27
(
640.73
291.231
507.93
244.479
377.586
286.605
423.909
398.522
219.134
644.319
610.872
773.38
803.156
639.696
601.508
514.501
644.073
574.406
618.284
830.129
692.306
780.27
495.928
589.192
686.083
635.567
523.211
)
;
    }
    procBoundary1to5
    {
        type            processor;
        value           nonuniform List<scalar> 
32
(
594.513
549.488
531.14
430.728
592.7
438.964
548.641
532.117
444.521
621.7
636.433
761.144
489.933
752.028
464.091
658.352
444.299
401.197
562.135
471.443
503.694
502.526
430.862
594.513
548.641
572.099
613.406
548.641
752.028
623.26
752.028
644.137
)
;
    }
    procBoundary1to7
    {
        type            processor;
        value           uniform 755.001;
    }
}


// ************************************************************************* //
