/*--------------------------------*- C++ -*----------------------------------*\
  =========                 |
  \\      /  F ield         | OpenFOAM: The Open Source CFD Toolbox
   \\    /   O peration     | Website:  https://openfoam.org
    \\  /    A nd           | Version:  4.x
     \\/     M anipulation  |
\*---------------------------------------------------------------------------*/
FoamFile
{
    version     2.0;
    format      ascii;
    class       vectorField;
    location    0;
    object      v;
}
// * * * * * * * * * * * * * * * * * * * * * * * * * * * * * * * * * * * * * //

348
(
( -1.21549e-07 -1.6045e-08 2.47729e-08 )  
( -1.26118e-07 -1.47524e-08 3.2336e-08 )  
( -1.15485e-07 -1.34734e-08 3.92041e-08 )  
( -2.3204e-08 -8.14882e-09 2.38958e-08 )  
( -8.4272e-08 -1.61153e-08 4.4494e-08 )  
( -1.42522e-08 -1.70333e-09 1.71769e-08 )  
( -1.4972e-08 4.96952e-09 1.84191e-08 )  
( -8.22269e-09 4.56451e-10 4.95075e-09 )  
( -7.90653e-08 7.67215e-10 3.33419e-08 )  
( -1.6628e-08 6.41993e-09 1.36135e-08 )  
( -1.7271e-08 3.18694e-09 5.28222e-09 )  
( -9.35757e-10 7.73051e-09 2.12748e-08 )  
( -4.09462e-08 3.08987e-09 1.53165e-08 )  
( -2.5814e-08 -1.4656e-09 1.38272e-08 )  
( -1.63129e-08 3.88618e-10 2.00047e-08 )  
( -9.09398e-08 -1.0158e-08 8.32809e-08 )  
( -5.34079e-08 2.62333e-09 2.31332e-08 )  
( -2.82499e-08 -8.84743e-10 1.74915e-08 )  
( -8.44626e-08 -6.97544e-09 6.78401e-08 )  
( -5.2346e-08 1.80349e-09 5.90726e-08 )  
( -4.44309e-08 6.61705e-09 1.25123e-08 )  
( -1.02515e-07 -1.30178e-08 6.17942e-08 )  
( -6.65576e-08 8.56826e-09 7.70237e-08 )  
( -6.95813e-08 3.93643e-09 3.86708e-08 )  
( -5.66794e-08 6.1854e-09 5.02002e-09 )  
( -4.98623e-08 3.47411e-09 4.12983e-08 )  
( -2.96545e-09 1.98321e-09 1.48457e-10 )  
( -8.01062e-09 6.37186e-10 9.64227e-09 )  
( -2.32629e-08 1.11511e-07 2.16714e-08 )  
( -5.55678e-08 -3.10396e-09 3.67509e-08 )  
( -3.04135e-08 3.72901e-09 1.56436e-08 )  
( -1.61295e-08 3.77877e-10 2.01307e-08 )  
( -8.32749e-08 -9.5742e-09 2.82117e-08 )  
( -1.73795e-08 9.23641e-10 5.98869e-09 )  
( -7.62193e-08 5.7236e-09 2.96352e-08 )  
( -2.56315e-08 -2.32942e-09 1.16144e-08 )  
( -3.1845e-08 -2.22244e-09 1.82679e-08 )  
( -2.14788e-08 -1.57806e-09 1.65932e-08 )  
( -8.04768e-08 -1.84084e-08 3.84025e-08 )  
( -2.83139e-08 -5.81895e-09 1.28039e-08 )  
( -2.16268e-08 8.63686e-09 1.00568e-08 )  
( -7.97898e-09 3.90842e-09 3.60194e-08 )  
( -3.5483e-08 -2.49502e-09 1.44086e-08 )  
( -6.59415e-08 4.84439e-09 6.12323e-08 )  
( -8.3945e-08 -7.5289e-09 6.65747e-08 )  
( -4.63508e-08 8.75156e-09 1.17347e-08 )  
( -7.98033e-08 4.51514e-09 5.26517e-08 )  
( -4.49201e-08 -6.88725e-09 1.7218e-08 )  
( -4.07019e-08 -5.50861e-09 1.64048e-08 )  
( -2.43976e-07 -1.52102e-07 3.99854e-08 )  
( -7.32847e-08 8.08178e-09 8.10186e-08 )  
( -3.39178e-08 -5.04371e-09 1.18112e-08 )  
( -5.87463e-08 -5.97022e-10 1.26061e-08 )  
( -7.43185e-09 1.19111e-09 8.41129e-11 )  
( -3.99841e-08 1.15223e-09 1.82531e-08 )  
( -9.0976e-08 5.597e-09 -1.3214e-09 )  
( -7.15252e-09 2.72434e-11 1.14672e-08 )  
( -2.6097e-08 -1.79262e-10 8.41575e-09 )  
( -5.82656e-08 2.39188e-09 5.06372e-08 )  
( 2.47817e-09 4.52054e-09 8.49445e-09 )  
( -1.56221e-08 -6.9905e-11 2.3203e-08 )  
( -6.83373e-09 -4.73019e-09 1.2864e-08 )  
( -4.66005e-09 3.14143e-09 8.01764e-09 )  
( -2.04259e-09 1.56068e-10 1.0139e-08 )  
( -1.41477e-08 -3.48247e-09 1.27159e-08 )  
( -1.8458e-08 4.51017e-09 8.82079e-09 )  
( -2.31748e-08 -2.75593e-10 9.73283e-09 )  
( -3.04924e-08 -2.38794e-09 1.22674e-08 )  
( -5.55971e-08 5.52713e-09 4.59503e-08 )  
( -7.46751e-08 -3.2553e-10 5.65676e-08 )  
( -4.37086e-08 -1.28093e-09 2.66994e-08 )  
( -1.21068e-07 -1.47387e-08 3.48562e-08 )  
( -1.94619e-08 5.82586e-09 1.71737e-08 )  
( -5.25714e-08 4.9999e-09 4.06892e-08 )  
( -1.10318e-07 -2.15414e-08 2.27104e-08 )  
( -4.14187e-08 -6.97396e-09 1.81997e-08 )  
( -1.47726e-08 1.99944e-09 1.00632e-08 )  
( -3.22633e-08 -6.51484e-09 1.37594e-08 )  
( -8.09499e-08 -9.49049e-09 7.24382e-08 )  
( -8.29341e-08 -1.41924e-08 6.05127e-08 )  
( -1.4463e-08 -3.24828e-09 2.04322e-08 )  
( -5.36965e-08 -1.75979e-08 2.81563e-08 )  
( -7.17228e-08 -1.47674e-08 3.12147e-08 )  
( -8.04481e-08 8.35974e-09 6.41581e-08 )  
( -7.41988e-09 -3.72684e-11 3.47441e-08 )  
( 1.41512e-09 6.80963e-09 2.02072e-09 )  
( -1.02722e-09 6.86987e-09 1.81209e-08 )  
( -8.28488e-08 -1.90715e-08 4.82704e-08 )  
( -6.58497e-08 7.96401e-09 3.75318e-08 )  
( -5.90598e-09 -3.77024e-10 2.88311e-08 )  
( -5.74783e-08 7.59995e-09 5.43026e-09 )  
( -7.04502e-08 -5.31253e-09 2.02291e-08 )  
( -1.48623e-08 8.87585e-09 8.34306e-09 )  
( -9.30437e-08 -1.03981e-08 1.68942e-08 )  
( -6.16802e-08 1.69643e-09 6.10987e-08 )  
( -7.30505e-09 7.53795e-11 -2.60451e-09 )  
( -2.57514e-09 1.35955e-09 1.50936e-08 )  
( -8.50528e-08 -1.81468e-08 6.07041e-08 )  
( -1.25203e-08 1.77971e-09 1.34717e-08 )  
( -3.38104e-08 5.54751e-10 1.4777e-08 )  
( -2.12683e-08 -2.77543e-09 2.10656e-08 )  
( -8.02919e-09 7.78479e-09 1.64403e-08 )  
( -4.0351e-08 -7.65836e-11 1.51803e-08 )  
( -4.52597e-08 -9.38135e-09 4.87678e-10 )  
( -7.62192e-09 4.03905e-09 4.31385e-09 )  
( -7.44826e-08 -9.78145e-09 4.98806e-08 )  
( -1.49561e-08 1.57163e-09 1.90761e-08 )  
( -5.03883e-08 -2.49266e-09 2.43284e-08 )  
( -6.91411e-08 2.14072e-09 5.69432e-09 )  
( -2.82806e-08 -2.82412e-09 -2.11539e-08 )  
( -2.01073e-08 -6.89952e-09 1.83787e-08 )  
( -6.13521e-08 -8.9448e-09 8.87027e-09 )  
( -2.76373e-08 5.17122e-09 1.15663e-08 )  
( -7.51594e-08 -2.13241e-08 3.07917e-08 )  
( -2.74474e-08 -3.56027e-09 1.3237e-08 )  
( -2.00636e-08 -4.50513e-09 2.03335e-08 )  
( -5.04562e-08 -7.67951e-09 1.6731e-08 )  
( -9.52522e-09 -2.08885e-09 9.91852e-09 )  
( -1.06325e-08 8.08451e-09 -9.00497e-10 )  
( -1.1244e-07 -1.39695e-08 4.85583e-08 )  
( -1.63342e-09 1.98225e-09 7.57214e-09 )  
( -2.09383e-08 2.48143e-09 8.68049e-09 )  
( -2.32985e-09 5.87916e-09 -7.24592e-09 )  
( -7.00364e-08 -2.64578e-08 3.34054e-08 )  
( -8.65915e-08 -1.97006e-08 3.54622e-08 )  
( -1.16321e-07 -2.22464e-08 1.58754e-08 )  
( -6.03075e-08 1.35917e-08 8.05484e-09 )  
( -3.53636e-08 -9.81123e-09 1.71386e-08 )  
( -3.06626e-08 -1.19631e-09 8.44914e-09 )  
( -9.11872e-09 -5.95202e-09 5.71651e-09 )  
( -8.98668e-08 -2.96148e-08 2.08699e-08 )  
( -6.48292e-08 6.95071e-09 8.71709e-09 )  
( -3.3191e-09 2.45956e-08 2.47497e-08 )  
( -1.08098e-07 -2.21695e-09 4.23477e-08 )  
( -1.1688e-07 -2.69509e-08 2.55855e-08 )  
( -8.01516e-08 -2.32539e-08 3.55873e-08 )  
( -2.29722e-10 -2.90687e-09 -1.17624e-08 )  
( -1.0153e-07 1.37895e-08 7.05568e-09 )  
( -4.77783e-08 -1.19724e-08 6.94169e-09 )  
( -1.16229e-08 -3.05847e-09 1.0447e-08 )  
( -9.48567e-08 -1.06025e-08 -2.75167e-09 )  
( -6.02335e-09 7.28034e-10 6.59976e-09 )  
( 3.84512e-11 8.24652e-10 -1.13691e-08 )  
( -5.97959e-09 -2.11586e-08 2.52641e-08 )  
( -8.48898e-08 -2.8358e-08 3.84384e-08 )  
( -9.1323e-08 -2.11202e-08 1.34071e-08 )  
( -4.64181e-08 -8.16199e-09 2.59357e-08 )  
( -4.69487e-08 -2.95582e-09 -3.58416e-09 )  
( -1.35616e-08 -2.65624e-09 9.35714e-09 )  
( -3.79364e-08 -1.18988e-08 1.28017e-08 )  
( -1.37253e-08 -2.90302e-09 7.53867e-09 )  
( -6.80054e-08 -6.21585e-09 2.13234e-09 )  
( 7.80005e-09 -1.02915e-08 -5.82515e-09 )  
( -9.40763e-08 -1.86432e-08 2.80441e-08 )  
( -5.05255e-08 -1.21549e-08 2.09693e-08 )  
( -6.3869e-09 -6.57192e-09 4.64981e-09 )  
( -5.4407e-09 -7.96562e-09 1.09952e-08 )  
( -7.20564e-09 1.05787e-10 4.90212e-09 )  
( -6.69252e-08 -2.25367e-08 3.2178e-08 )  
( 1.823e-09 -9.9689e-09 -6.91137e-10 )  
( -1.22695e-07 -2.17847e-08 1.82333e-08 )  
( -3.17825e-08 -1.42128e-08 1.06803e-08 )  
( -3.64416e-08 -9.44835e-09 1.67999e-08 )  
( -7.33097e-08 -9.90368e-09 3.18396e-08 )  
( -9.61918e-08 -2.0296e-08 1.51641e-08 )  
( -6.37971e-08 -1.50343e-08 3.89687e-09 )  
( -4.7829e-09 -6.06872e-09 -2.0445e-09 )  
( -9.33459e-08 -1.99094e-08 4.1853e-08 )  
( -6.62686e-08 -3.01304e-08 1.20986e-08 )  
( -3.8117e-08 -9.29979e-09 9.2149e-09 )  
( -1.24229e-07 -2.30078e-08 1.49317e-08 )  
( -1.1838e-07 -2.4883e-08 6.30126e-09 )  
( -1.19332e-07 -9.06317e-09 3.50489e-09 )  
( -2.62577e-08 -8.30868e-09 8.96007e-09 )  
( -5.45125e-09 -1.23381e-09 4.70995e-09 )  
( -9.84704e-09 -3.47259e-09 6.11399e-09 )  
( -9.5377e-08 -1.37175e-08 2.07129e-08 )  
( -7.78042e-08 -1.03089e-08 8.67408e-09 )  
( -2.0546e-08 -5.67507e-09 1.02626e-08 )  
( -8.8518e-08 -1.16163e-08 2.29633e-08 )  
( -5.78641e-08 -8.17505e-09 2.64499e-08 )  
( -1.05044e-08 7.35496e-09 1.7571e-08 )  
( -9.31248e-08 -7.75151e-09 1.21385e-08 )  
( -6.22476e-08 -1.47482e-08 1.16559e-08 )  
( -9.90466e-08 -2.23014e-08 2.48661e-08 )  
( -1.16782e-07 -1.01466e-07 1.00404e-07 )  
( -7.16136e-09 -3.16493e-09 1.06161e-08 )  
( -1.17817e-07 -7.65984e-09 3.0572e-08 )  
( -9.43498e-08 -1.25979e-08 6.09837e-08 )  
( -7.86984e-08 4.26604e-09 9.47467e-09 )  
( -3.76384e-09 -1.58068e-09 -5.06847e-09 )  
( -4.33049e-08 -4.30877e-09 1.58165e-08 )  
( -2.31325e-08 -5.42879e-09 1.63041e-08 )  
( -3.00889e-08 -8.12253e-09 1.00748e-08 )  
( -2.23634e-08 2.49411e-09 1.04414e-08 )  
( -1.01327e-07 4.70343e-10 7.21748e-09 )  
( -9.38757e-08 -2.78752e-08 3.05014e-08 )  
( 3.79494e-10 -3.10938e-09 -1.44401e-08 )  
( -9.30306e-08 -1.793e-08 2.29605e-08 )  
( -2.78431e-09 5.89704e-09 2.20754e-08 )  
( -4.12336e-08 -5.87695e-09 -6.25622e-09 )  
( 3.01418e-09 -1.62434e-09 -1.38687e-09 )  
( -6.79652e-08 -1.35777e-08 3.33588e-08 )  
( -9.31001e-10 -8.89545e-10 -5.71918e-09 )  
( -6.236e-08 -1.05966e-08 3.60432e-08 )  
( -7.34789e-08 -2.7855e-08 4.65491e-08 )  
( -1.00394e-07 -4.47099e-09 1.18669e-08 )  
( -5.28582e-08 -6.11582e-11 1.16809e-08 )  
( -1.18221e-07 -3.30619e-08 1.93758e-08 )  
( -1.94324e-08 4.28344e-09 6.81598e-09 )  
( -1.54611e-08 -4.66893e-09 1.60552e-08 )  
( -6.34849e-08 -5.31119e-09 3.46178e-08 )  
( -4.10143e-08 -5.09127e-09 1.31183e-08 )  
( -3.76286e-08 -1.0159e-08 1.3697e-08 )  
( -7.09451e-08 -2.3103e-09 5.55698e-09 )  
( -1.67694e-08 8.7798e-09 3.57263e-08 )  
( -9.25718e-08 -5.02268e-09 -6.898e-09 )  
( -6.09128e-08 -1.62161e-08 1.31411e-09 )  
( -1.16828e-07 -1.06958e-08 5.3744e-08 )  
( -2.05688e-08 -8.58766e-09 8.11962e-10 )  
( -6.31141e-08 1.07753e-08 8.06344e-09 )  
( -3.08875e-08 5.38102e-09 1.15955e-08 )  
( -8.47192e-09 1.53702e-09 7.37325e-09 )  
( -8.08085e-10 -9.6803e-09 -3.57891e-09 )  
( -1.52306e-06 -5.25528e-07 5.0608e-08 )  
( -2.959e-08 -7.44441e-09 1.58074e-08 )  
( -2.01271e-09 -2.87735e-09 9.85019e-09 )  
( -2.31797e-08 -9.6447e-09 -1.54701e-09 )  
( -1.01323e-07 -9.20623e-09 5.6082e-08 )  
( -7.57005e-08 -2.63025e-08 2.9692e-08 )  
( -9.09076e-08 -1.84831e-08 7.92686e-09 )  
( -3.50496e-08 -8.23547e-09 1.34107e-08 )  
( -1.08458e-07 -2.20436e-08 6.35724e-09 )  
( -3.91247e-08 -2.37522e-08 3.80173e-09 )  
( -1.0295e-07 -2.07306e-08 1.20298e-09 )  
( -2.96593e-08 -1.06743e-08 1.10203e-08 )  
( -2.85829e-08 -5.53121e-09 1.27064e-08 )  
( -1.28084e-09 -4.95664e-09 -5.30771e-09 )  
( -6.74996e-09 2.25151e-09 -2.81787e-09 )  
( -8.3393e-08 -4.77792e-09 2.72017e-08 )  
( -8.65121e-08 -1.78798e-10 2.37506e-08 )  
( -8.909e-08 -2.1356e-08 2.39409e-08 )  
( -1.31165e-07 -1.64053e-08 3.13874e-08 )  
( -1.11086e-07 -3.76628e-09 -1.30241e-09 )  
( -6.9029e-08 -1.29623e-08 5.88767e-09 )  
( -3.06282e-09 -8.37888e-09 9.54624e-09 )  
( -4.73629e-08 -1.68409e-08 6.2294e-09 )  
( 8.39317e-10 -1.01441e-08 2.17587e-08 )  
( -8.03697e-10 -1.18734e-08 4.02807e-09 )  
( -5.77481e-08 -2.54681e-09 5.62218e-09 )  
( -8.50344e-08 -1.81862e-08 1.95436e-08 )  
( -3.21266e-09 -7.04791e-09 2.64658e-10 )  
( -8.05637e-08 -2.87075e-08 2.27797e-08 )  
( -1.89557e-08 -6.40761e-09 7.90914e-09 )  
( 8.30789e-10 -6.42392e-09 9.64497e-09 )  
( -5.92948e-08 -1.23261e-08 3.01781e-08 )  
( -9.05207e-09 -4.89301e-09 6.3368e-09 )  
( -6.09949e-08 -3.16365e-09 3.53456e-09 )  
( -1.89372e-08 -9.73999e-09 3.44148e-09 )  
( -2.5794e-08 -9.22556e-09 3.42899e-09 )  
( -3.80508e-08 -1.50686e-08 1.56484e-08 )  
( -9.51985e-08 -9.54412e-09 1.08201e-08 )  
( -6.63734e-08 -2.88188e-08 1.38307e-08 )  
( -9.90022e-08 -2.25799e-08 2.22722e-11 )  
( 2.84066e-09 -2.03879e-08 -5.97971e-09 )  
( -2.417e-08 -8.72552e-09 5.11955e-09 )  
( -3.10654e-08 -1.00109e-08 1.01147e-08 )  
( -1.08783e-07 -2.16572e-09 8.97494e-09 )  
( -5.26264e-09 -7.19234e-10 1.31746e-09 )  
( -7.21006e-08 -2.64874e-08 4.71366e-08 )  
( -1.12551e-07 6.45545e-09 1.14706e-08 )  
( -1.10505e-08 -7.95709e-09 -3.15733e-09 )  
( -9.19776e-08 -1.16419e-08 1.04386e-08 )  
( 6.51424e-09 -1.37146e-08 -1.25488e-08 )  
( -1.02201e-07 -1.58844e-08 2.55906e-08 )  
( -3.34487e-08 -1.01777e-08 6.55447e-09 )  
( -6.11268e-08 -8.22363e-09 3.86622e-08 )  
( -1.32376e-08 1.65664e-09 3.49625e-09 )  
( -2.75677e-08 -8.82495e-09 4.00931e-09 )  
( -3.05196e-08 4.92205e-08 2.4186e-08 )  
( -1.13094e-07 -4.27277e-09 -2.59772e-09 )  
( -2.10121e-08 -7.72562e-09 4.48238e-09 )  
( -1.04344e-07 -1.21083e-08 8.95316e-09 )  
( -3.46215e-08 -8.40898e-09 8.39864e-09 )  
( -9.64376e-08 1.7799e-08 5.0195e-09 )  
( -2.57516e-08 4.43586e-09 1.13243e-08 )  
( -4.03236e-08 1.18392e-08 1.60344e-09 )  
( -4.25573e-09 -7.12029e-09 6.63968e-09 )  
( -8.34793e-09 -2.99891e-09 7.04921e-09 )  
( -4.03569e-08 6.51901e-09 7.82325e-09 )  
( -4.59839e-08 -3.12333e-09 1.00791e-09 )  
( -8.38136e-08 2.27995e-08 -8.97549e-09 )  
( -5.82621e-08 -4.87393e-08 2.40136e-09 )  
( -2.8419e-08 7.05357e-09 1.5584e-08 )  
( 7.28211e-09 -8.50106e-09 1.3169e-08 )  
( -1.3867e-08 -6.90022e-09 -6.58852e-09 )  
( -1.56198e-09 -5.6555e-09 1.42272e-09 )  
( -6.03811e-08 -2.69055e-08 6.51403e-09 )  
( -1.52417e-08 -5.53981e-09 3.26052e-09 )  
( -3.16428e-09 -3.41759e-08 2.95523e-08 )  
( -4.43676e-08 2.69957e-10 3.2178e-09 )  
( -2.08858e-08 -9.01537e-09 1.4398e-09 )  
( -9.56159e-09 -1.68698e-09 8.73483e-09 )  
( -3.64829e-08 -7.41013e-09 9.22143e-09 )  
( -1.35542e-07 2.24892e-08 1.98442e-08 )  
( -7.48908e-08 7.32143e-10 1.06171e-09 )  
( -1.73986e-08 -2.2211e-09 6.12941e-09 )  
( -8.22995e-09 -6.75142e-09 -7.31179e-09 )  
( 1.30583e-09 -2.53512e-09 2.35989e-09 )  
( -5.56415e-08 -2.05497e-08 -2.07336e-09 )  
( -9.10234e-08 -1.88143e-08 1.77579e-08 )  
( 2.07546e-09 -1.53898e-08 -5.15262e-09 )  
( 7.72671e-09 -1.02638e-07 -1.44692e-08 )  
( -3.24503e-08 2.47376e-09 5.6858e-09 )  
( -6.74646e-08 2.53073e-08 8.86514e-09 )  
( -1.04755e-07 -1.14859e-08 3.77211e-09 )  
( -7.71877e-08 -4.96879e-10 -7.68641e-10 )  
( -1.19957e-09 -2.35091e-08 -3.22162e-09 )  
( -1.75232e-08 -6.59745e-09 1.0065e-10 )  
( -1.65415e-08 -5.57686e-09 4.21469e-09 )  
( -6.66322e-09 -2.53803e-09 2.20388e-09 )  
( -1.04535e-07 -2.03151e-08 9.79091e-09 )  
( -6.45466e-08 -1.33067e-09 5.30936e-09 )  
( -2.82151e-07 5.6542e-08 6.85198e-08 )  
( -2.78354e-08 1.3398e-08 2.86457e-09 )  
( -1.48695e-08 -7.36128e-09 -8.93355e-10 )  
( 2.14505e-09 -2.86205e-09 4.18323e-09 )  
( -1.33422e-07 -5.65197e-08 -6.46408e-09 )  
( -3.98033e-08 -2.14843e-09 -4.97283e-10 )  
( -3.29988e-08 5.50671e-09 -2.38292e-09 )  
( 1.963e-09 -4.39413e-09 3.84318e-09 )  
( -4.80543e-10 -7.75532e-09 -2.14639e-09 )  
( -3.13827e-09 -4.16579e-09 5.24575e-10 )  
( -9.99202e-08 1.10752e-08 4.09654e-09 )  
( -1.53941e-08 1.4e-08 1.50123e-08 )  
( -8.64516e-09 -3.54277e-09 -7.5097e-10 )  
( -3.29596e-08 -4.01195e-10 -5.28463e-09 )  
( 2.88848e-09 -7.99432e-09 -1.19051e-08 )  
( 6.16987e-10 -4.415e-09 -7.06241e-09 )  
( -6.50919e-08 -1.60702e-08 2.64175e-08 )  
( -5.04331e-08 -5.78211e-09 9.01005e-09 )  
( -7.60229e-09 -1.23817e-09 3.95153e-09 )  
( -4.68882e-09 -2.56181e-08 1.66619e-08 )  
( -6.87863e-08 7.4695e-10 2.87299e-09 )  
( 9.2073e-11 -7.28993e-09 4.6464e-09 )  
( -6.68905e-08 -1.55702e-08 -2.00255e-09 )  
( -4.28598e-08 4.92984e-09 4.90828e-09 )  
( -2.74809e-08 -4.94667e-09 8.85685e-10 )  
)
