/*--------------------------------*- C++ -*----------------------------------*\
| =========                 |                                                 |
| \\      /  F ield         | OpenFOAM: The Open Source CFD Toolbox           |
|  \\    /   O peration     | Version:  4.x                                   |
|   \\  /    A nd           | Web:      www.OpenFOAM.org                      |
|    \\/     M anipulation  |                                                 |
\*---------------------------------------------------------------------------*/
FoamFile
{
    version     2.0;
    format      ascii;
    class       volScalarField;
    location    "47";
    object      Cs;
}
// * * * * * * * * * * * * * * * * * * * * * * * * * * * * * * * * * * * * * //

dimensions      [1 -3 0 0 0 0 0];

internalField   nonuniform List<scalar> 
87
(
335
335
335
335
335
335
335
335
333.664
335
335
335
335
335
335
335
335
334.727
335
335
335
335
335
335
335
335
334.865
335
335
335
335
335
335
335
335
334.89
335
335
335
335
335
335
335
335
334.939
335
335
335
335
335
334.999
334.999
334.999
334.974
335
335
335
335
335
335
335
335
334.947
335
335
335
335
335
335
334.999
334.999
334.957
335
335
335
335
334.999
334.999
334.998
334.997
334.973
335
335
335
335
335
335
)
;

boundaryField
{
    inlet
    {
        type            calculated;
        value           nonuniform 0();
    }
    outlet
    {
        type            calculated;
        value           uniform 335;
    }
    wall
    {
        type            calculated;
        value           nonuniform List<scalar> 
57
(
335
335
335
335
335
335
335
335
335
335
335
335
335
335
335
335
335
335
335
335
335
335
335
335
333.664
334.727
334.865
335
335
335
335
335
335
335
335
335
335
335
335
335
335
335
335
335
335
335
335
335
335
335
335
335
335
335
333.664
334.89
334.947
)
;
    }
    procBoundary1to0
    {
        type            processor;
        value           nonuniform List<scalar> 
12
(
335
335
335
335
335
335
335
335
335
335
335
335
)
;
    }
    procBoundary1to3
    {
        type            processor;
        value           nonuniform List<scalar> 
27
(
335
335
335
335
335
335
335
335
334.94
335
335
335
335
335
335
334.999
334.999
334.957
335
335
335
335
334.999
334.999
334.997
334.996
334.981
)
;
    }
    procBoundary1to5
    {
        type            processor;
        value           nonuniform List<scalar> 
32
(
335
335
335
335
335
334.998
335
335
335
335
334.999
334.999
334.988
335
335
335
334.999
334.999
334.997
334.995
334.958
335
335
335
335
335
335
335
335
335
335
335
)
;
    }
    procBoundary1to7
    {
        type            processor;
        value           uniform 335;
    }
}


// ************************************************************************* //
