/*--------------------------------*- C++ -*----------------------------------*\
| =========                 |                                                 |
| \\      /  F ield         | OpenFOAM: The Open Source CFD Toolbox           |
|  \\    /   O peration     | Version:  4.x                                   |
|   \\  /    A nd           | Web:      www.OpenFOAM.org                      |
|    \\/     M anipulation  |                                                 |
\*---------------------------------------------------------------------------*/
FoamFile
{
    version     2.0;
    format      ascii;
    class       volScalarField;
    location    "47";
    object      Ksl;
}
// * * * * * * * * * * * * * * * * * * * * * * * * * * * * * * * * * * * * * //

dimensions      [1 -3 -1 0 0 0 0];

internalField   nonuniform List<scalar> 
87
(
3827.86
2559.57
3761.87
2400.65
3771.47
2115.17
4121.53
1684.78
5775.3
4465.2
2694.27
4409.17
2553.08
4527.06
2298.13
5090.45
1941.01
5932.79
5383.91
2963.1
5502.17
2864.17
5777.28
2641.64
6135.62
2199.18
6363.73
6049.22
3038.62
6115.05
2966.95
6477.47
2810.14
7809.14
2639.17
11616.7
11495.1
3399.63
12968.4
3288.91
15719.9
3052.08
16671.2
2802.73
10080.9
43643.3
3728.62
358033
3726.28
9.77426e+09
3847.56
51235.6
4115.13
7345.92
6342.81
3020.89
6642.47
2920.66
7263.61
2723
8451.01
2536.34
8815.77
12199.9
3349.04
12138.8
3193.99
12068.3
2981.81
10976.7
2701.49
7613.49
44093.6
3738.78
56987.3
3699.83
46035.3
3643.74
21278.4
3704.29
8033.57
8801.34
3356.74
12727.4
60065.3
3729.41
1e+10
)
;

boundaryField
{
    inlet
    {
        type            zeroGradient;
    }
    outlet
    {
        type            zeroGradient;
    }
    wall
    {
        type            zeroGradient;
    }
    procBoundary1to0
    {
        type            processor;
        value           nonuniform List<scalar> 
12
(
2615.95
2817.89
3037.56
3116.42
3486.7
3714.73
3116.64
3483.13
3749.03
3322.41
3733.34
4094.47
)
;
    }
    procBoundary1to3
    {
        type            processor;
        value           nonuniform List<scalar> 
27
(
4876.66
2747
4721.94
2576.26
4835.41
2374.34
5584.66
2084.38
6464.09
16289.9
3440.82
19265.9
3286.27
22073
3078.61
21235.9
2798.84
8653.84
28503.4
3636.59
34929.8
3579.28
30922.4
3567.23
21368.3
3727.61
8178.44
)
;
    }
    procBoundary1to5
    {
        type            processor;
        value           nonuniform List<scalar> 
32
(
3611.41
35673.6
4120.54
1e+10
5653.54
65340.1
610055
3720.53
277055
3787.44
57300
4139.36
11814.6
4163.33
1e+10
4206.63
1e+10
4296.29
9.97801e+09
4830.04
15172.9
7171.01
3071.13
3611.41
610055
7371.56
32454.1
610055
4163.33
3552.25
4163.33
4.35139e+08
)
;
    }
    procBoundary1to7
    {
        type            processor;
        value           uniform 90274;
    }
}


// ************************************************************************* //
