/*--------------------------------*- C++ -*----------------------------------*\
| =========                 |                                                 |
| \\      /  F ield         | OpenFOAM: The Open Source CFD Toolbox           |
|  \\    /   O peration     | Version:  4.x                                   |
|   \\  /    A nd           | Web:      www.OpenFOAM.org                      |
|    \\/     M anipulation  |                                                 |
\*---------------------------------------------------------------------------*/
FoamFile
{
    version     2.0;
    format      ascii;
    class       volScalarField;
    location    "47";
    object      KslPrev;
}
// * * * * * * * * * * * * * * * * * * * * * * * * * * * * * * * * * * * * * //

dimensions      [1 -3 -1 0 0 0 0];

internalField   nonuniform List<scalar> 
87
(
3827.86
2559.56
3761.86
2400.64
3771.46
2115.16
4121.54
1684.77
5775.28
4465.21
2694.28
4409.17
2553.06
4527.05
2298.12
5090.45
1941
5932.77
5383.93
2963.12
5502.17
2864.15
5777.28
2641.64
6135.62
2199.16
6363.67
6049.24
3038.62
6115.04
2966.94
6477.42
2810.12
7809.14
2639.16
11618.3
11495.1
3399.63
12968.4
3288.89
15720
3052.08
16671
2802.71
10081
43644.6
3728.62
358087
3726.26
1e+10
3847.64
51240.5
4115.02
7345.89
6342.82
3020.89
6642.45
2920.64
7263.51
2722.95
8450.44
2536.28
8823.87
12199.9
3349.03
12138.8
3193.97
12068.3
2981.79
10976.5
2701.51
7612.82
44093.1
3738.77
56985.8
3699.82
46036.5
3643.74
21280.3
3704.29
8033.61
8801.34
3356.73
12727.3
60066.2
3729.39
1e+10
)
;

boundaryField
{
    inlet
    {
        type            zeroGradient;
    }
    outlet
    {
        type            zeroGradient;
    }
    wall
    {
        type            zeroGradient;
    }
    procBoundary1to0
    {
        type            processor;
        value           uniform 0;
    }
    procBoundary1to3
    {
        type            processor;
        value           uniform 0;
    }
    procBoundary1to5
    {
        type            processor;
        value           uniform 0;
    }
    procBoundary1to7
    {
        type            processor;
        value           uniform 0;
    }
}


// ************************************************************************* //
