/*--------------------------------*- C++ -*----------------------------------*\
| =========                 |                                                 |
| \\      /  F ield         | OpenFOAM: The Open Source CFD Toolbox           |
|  \\    /   O peration     | Version:  4.x                                   |
|   \\  /    A nd           | Web:      www.OpenFOAM.org                      |
|    \\/     M anipulation  |                                                 |
\*---------------------------------------------------------------------------*/
FoamFile
{
    version     2.0;
    format      ascii;
    class       volScalarField;
    location    "47";
    object      magGField;
}
// * * * * * * * * * * * * * * * * * * * * * * * * * * * * * * * * * * * * * //

dimensions      [1 -2 -1 0 0 0 0];

internalField   nonuniform List<scalar> 
87
(
93.2068
141.539
95.1543
150.289
93.8831
166.477
84.4602
205.31
56.8747
80.4854
134.551
81.7707
142.349
79.0748
155.238
68.7504
181.363
56.0876
66.1466
121.296
64.5686
125.181
61.1853
134.244
56.4906
157.308
51.7819
57.9554
116.147
57.5372
119.176
53.6427
122.967
43.4838
127.915
27.7523
30.8303
104.882
27.2917
108.836
22.3974
115.125
20.6505
122.578
32.2753
8.00814
94.9777
0.977547
94.6016
4.25888e-05
90.2479
6.63171
82.1665
44.0887
53.4564
113.503
51.1047
117.025
46.1424
122.236
38.6937
128.703
35.5366
28.0598
103.005
28.1593
108.05
28.0335
113.4
30.0589
121.667
41.3901
7.65838
91.512
5.93716
92.0132
7.25226
91.8099
15.3486
87.5964
39.1063
37.5342
98.5189
25.6494
5.53549
89.4937
3.47192e-05
)
;

boundaryField
{
    inlet
    {
        type            calculated;
        value           nonuniform 0();
    }
    outlet
    {
        type            calculated;
        value           nonuniform List<scalar> 9(118.303 116.075 107.538 58.5558 68.0418 93.3302 75.7273 88.4545 83.8832);
    }
    wall
    {
        type            calculated;
        value           uniform 0;
    }
    procBoundary1to0
    {
        type            processor;
        value           nonuniform List<scalar> 
12
(
136.095
127.731
117.617
112.896
101.974
94.8936
110.001
99.073
91.0678
101.207
90.3627
81.282
)
;
    }
    procBoundary1to3
    {
        type            processor;
        value           nonuniform List<scalar> 
27
(
72.5852
129.074
74.7022
137.4
72.6095
147.273
61.2289
160.966
50.0886
21.3152
102.093
17.9614
106.125
15.5731
111.874
15.8103
119.045
36.7856
11.7664
93.3213
9.57247
94.2781
10.7482
93.344
15.134
86.022
37.9018
)
;
    }
    procBoundary1to5
    {
        type            processor;
        value           nonuniform List<scalar> 
32
(
91.0569
9.00852
78.0108
2.95157e-05
54.8262
4.57746
0.539687
89.1562
1.17311
85.9125
5.51388
75.7107
25.5893
79.4795
3.95357e-05
78.0148
3.76899e-05
75.1702
3.68883e-05
64.5115
19.7981
45.431
106.532
91.0569
0.539687
43.8388
10.0923
0.539687
79.4795
92.4367
79.4795
0.000748222
)
;
    }
    procBoundary1to7
    {
        type            processor;
        value           uniform 3.60135;
    }
}


// ************************************************************************* //
