/*--------------------------------*- C++ -*----------------------------------*\
| =========                 |                                                 |
| \\      /  F ield         | OpenFOAM: The Open Source CFD Toolbox           |
|  \\    /   O peration     | Version:  4.x                                   |
|   \\  /    A nd           | Web:      www.OpenFOAM.org                      |
|    \\/     M anipulation  |                                                 |
\*---------------------------------------------------------------------------*/
FoamFile
{
    version     2.0;
    format      ascii;
    class       volVectorField;
    location    "51.5";
    object      impParticleForces;
}
// * * * * * * * * * * * * * * * * * * * * * * * * * * * * * * * * * * * * * //

dimensions      [1 1 -2 0 0 0 0];

internalField   nonuniform List<vector> 
114
(
(0.00240186 -3.90396e-07 -8.50728e-05)
(0.00243803 1.89471e-06 -7.94333e-05)
(0.00243601 5.33639e-06 -7.09834e-05)
(0.00247118 9.66563e-06 -6.35894e-05)
(0.00244853 1.58194e-05 -5.42186e-05)
(0.00246226 2.30161e-05 -4.64622e-05)
(0.00231049 5.78772e-06 -8.93375e-05)
(0.00233736 6.70702e-06 -9.03601e-05)
(0.00238111 7.84988e-06 -8.93017e-05)
(0.00239771 8.84934e-06 -8.43943e-05)
(0.00244203 1.014e-05 -7.92489e-05)
(0.00243532 1.12645e-05 -7.07391e-05)
(0.00247066 1.31937e-05 -6.34469e-05)
(0.00245369 1.56088e-05 -5.43369e-05)
(0.00245584 1.87936e-05 -4.64392e-05)
(0.00228436 1.3445e-05 -8.67809e-05)
(0.00231656 1.44665e-05 -8.81257e-05)
(0.00235981 1.55799e-05 -8.71924e-05)
(0.00237968 1.5946e-05 -8.25103e-05)
(0.00242498 1.6772e-05 -7.74494e-05)
(0.0024224 1.62729e-05 -6.95761e-05)
(0.00245972 1.69769e-05 -6.2456e-05)
(0.00245166 1.69237e-05 -5.40097e-05)
(0.00246869 1.76733e-05 -4.69367e-05)
(0.00224701 1.59646e-05 -8.3848e-05)
(0.00226801 1.67598e-05 -8.43235e-05)
(0.00232112 1.78269e-05 -8.38416e-05)
(0.00233312 1.77889e-05 -7.92828e-05)
(0.00236646 1.79097e-05 -7.42152e-05)
(0.00237332 1.72226e-05 -6.71189e-05)
(0.00239076 1.69228e-05 -6.01526e-05)
(0.00240903 1.62674e-05 -5.29788e-05)
(0.002426 1.58553e-05 -4.6255e-05)
(0.0025001 4.17283e-06 -7.17092e-05)
(0.00253718 8.11535e-06 -6.41531e-05)
(0.00248212 1.37273e-05 -5.35751e-05)
(0.00250496 1.98969e-05 -4.59746e-05)
(0.00233768 6.5119e-06 -8.87838e-05)
(0.00238481 7.50458e-06 -9.12276e-05)
(0.00244944 8.95397e-06 -9.19787e-05)
(0.00245867 9.79206e-06 -8.60005e-05)
(0.00249375 1.0942e-05 -8.01488e-05)
(0.00247578 1.14076e-05 -7.06443e-05)
(0.00252022 1.30448e-05 -6.36245e-05)
(0.00248227 1.48426e-05 -5.38946e-05)
(0.00248277 1.73771e-05 -4.58121e-05)
(0.00232191 1.49831e-05 -8.72152e-05)
(0.00237475 1.66422e-05 -8.99869e-05)
(0.00244597 1.87618e-05 -9.11448e-05)
(0.00244746 1.81216e-05 -8.47392e-05)
(0.00247592 1.83399e-05 -7.86897e-05)
(0.00247179 1.74352e-05 -7.03346e-05)
(0.00250253 1.76453e-05 -6.32106e-05)
(0.0024828 1.68888e-05 -5.45865e-05)
(0.00249479 1.70404e-05 -4.71951e-05)
(0.00227308 1.72883e-05 -8.33286e-05)
(0.00231125 1.85502e-05 -8.48537e-05)
(0.00238337 2.02978e-05 -8.60676e-05)
(0.00237899 1.95935e-05 -8.01293e-05)
(0.00240272 1.92029e-05 -7.45214e-05)
(0.0024132 1.82604e-05 -6.75734e-05)
(0.00243452 1.7646e-05 -6.06103e-05)
(0.00243102 1.6339e-05 -5.32348e-05)
(0.00243462 1.53969e-05 -4.63108e-05)
(0.00245254 1.07035e-05 -4.84501e-05)
(0.00245943 1.55159e-05 -4.13381e-05)
(0.00236335 7.18449e-06 -8.2774e-05)
(0.00239354 8.05333e-06 -8.37225e-05)
(0.00244928 9.35557e-06 -8.36744e-05)
(0.00245241 9.83419e-06 -7.80875e-05)
(0.00247461 1.03993e-05 -7.19972e-05)
(0.0024605 1.07551e-05 -6.37241e-05)
(0.00248838 1.1843e-05 -5.67467e-05)
(0.00245113 1.31085e-05 -4.84658e-05)
(0.00245293 1.48708e-05 -4.14665e-05)
(0.00233261 1.57486e-05 -8.02569e-05)
(0.00237703 1.73566e-05 -8.21749e-05)
(0.00245014 1.9714e-05 -8.32425e-05)
(0.00245456 1.90623e-05 -7.81191e-05)
(0.0024731 1.88721e-05 -7.17371e-05)
(0.00245176 1.7123e-05 -6.35189e-05)
(0.00248941 1.7006e-05 -5.71568e-05)
(0.00245951 1.57095e-05 -4.95782e-05)
(0.00247866 1.51854e-05 -4.33467e-05)
(0.00229212 1.84294e-05 -7.75438e-05)
(0.00233122 1.99966e-05 -7.90407e-05)
(0.00238861 2.14514e-05 -7.91361e-05)
(0.00239554 2.08181e-05 -7.47341e-05)
(0.0023975 1.9653e-05 -6.82427e-05)
(0.00241097 1.85181e-05 -6.20783e-05)
(0.00244649 1.7795e-05 -5.61663e-05)
(0.00241714 1.57032e-05 -4.90613e-05)
(0.00243532 1.4362e-05 -4.33068e-05)
(0.00236716 7.83969e-06 -7.04135e-05)
(0.00241511 8.89027e-06 -7.1536e-05)
(0.00246633 1.03211e-05 -7.11222e-05)
(0.00244627 1.00532e-05 -6.55103e-05)
(0.0024655 1.04818e-05 -6.03138e-05)
(0.00243599 1.02358e-05 -5.32756e-05)
(0.00245538 1.09033e-05 -4.71809e-05)
(0.00241652 1.13966e-05 -4.08075e-05)
(0.00233955 1.66124e-05 -6.87737e-05)
(0.00238557 1.83855e-05 -7.01745e-05)
(0.0024535 2.06115e-05 -7.0472e-05)
(0.00243549 1.88029e-05 -6.53952e-05)
(0.00246666 1.88925e-05 -6.08994e-05)
(0.00243881 1.67268e-05 -5.40966e-05)
(0.00246424 1.59307e-05 -4.86124e-05)
(0.00228703 1.89191e-05 -6.64069e-05)
(0.00232744 2.04601e-05 -6.76346e-05)
(0.00239207 2.20858e-05 -6.80009e-05)
(0.00239091 2.08597e-05 -6.40493e-05)
(0.00241708 2.00629e-05 -5.9605e-05)
(0.00240034 1.79585e-05 -5.34762e-05)
)
;

boundaryField
{
    inlet
    {
        type            zeroGradient;
    }
    outlet
    {
        type            zeroGradient;
    }
    wall
    {
        type            zeroGradient;
    }
    procBoundary2to0
    {
        type            processor;
        value           nonuniform List<vector> 
44
(
(0.0023935 -8.76618e-06 -8.43531e-05)
(0.00244337 -5.32749e-06 -7.94993e-05)
(0.00243815 4.32435e-07 -7.08992e-05)
(0.00245638 7.82507e-06 -6.29711e-05)
(0.00245476 1.85897e-05 -5.43772e-05)
(0.00249007 3.26616e-05 -4.72612e-05)
(0.00230348 -3.79838e-06 -8.97176e-05)
(0.00232443 -3.26815e-06 -9.00672e-05)
(0.0023619 -2.17386e-06 -8.86745e-05)
(0.0023619 -2.17386e-06 -8.86745e-05)
(0.00244818 -1.05338e-06 -8.54519e-05)
(0.0025125 1.1071e-06 -8.12848e-05)
(0.00248596 -1.70146e-06 -7.06899e-05)
(0.00252628 4.9566e-06 -6.33678e-05)
(0.00248077 1.47162e-05 -5.34403e-05)
(0.00249439 2.63062e-05 -4.55889e-05)
(0.00236045 -4.14933e-06 -9.12685e-05)
(0.00238502 -3.80439e-06 -9.18388e-05)
(0.00244031 -2.96744e-06 -9.18903e-05)
(0.00244818 -1.05338e-06 -8.54519e-05)
(0.0025125 1.1071e-06 -8.12848e-05)
(0.0025125 1.1071e-06 -8.12848e-05)
(0.00248076 2.94886e-06 -6.47045e-05)
(0.00249995 6.10665e-06 -5.71717e-05)
(0.00245141 9.89204e-06 -4.84358e-05)
(0.00245526 1.83295e-05 -4.11471e-05)
(0.00237526 -4.41742e-06 -8.41018e-05)
(0.00240971 -4.25521e-06 -8.55779e-05)
(0.00246951 -3.63653e-06 -8.55711e-05)
(0.00246795 -1.83954e-06 -7.92786e-05)
(0.0025018 1.97514e-08 -7.35178e-05)
(0.00248076 2.94886e-06 -6.47045e-05)
(0.00249995 6.10665e-06 -5.71717e-05)
(0.00249995 6.10665e-06 -5.71717e-05)
(0.0024087 8.22582e-06 -4.03666e-05)
(0.00240334 1.15552e-05 -3.43221e-05)
(0.00236159 -4.39647e-06 -7.04164e-05)
(0.00240652 -4.2116e-06 -7.16633e-05)
(0.00247293 -3.54375e-06 -7.15576e-05)
(0.00246304 -1.9647e-06 -6.63113e-05)
(0.002466 -6.17883e-08 -6.03773e-05)
(0.00245402 2.21468e-06 -5.37794e-05)
(0.00246521 4.92209e-06 -4.75556e-05)
(0.0024087 8.22582e-06 -4.03666e-05)
)
;
    }
    procBoundary2to3
    {
        type            processor;
        value           nonuniform List<vector> 
12
(
(0.00249521 3.03531e-05 -3.97081e-05)
(0.00248388 2.16228e-05 -3.97055e-05)
(0.00248252 1.81349e-05 -4.0466e-05)
(0.00241949 1.52325e-05 -3.99515e-05)
(0.00249831 2.59666e-05 -3.8692e-05)
(0.00249577 1.97612e-05 -3.9072e-05)
(0.00252684 1.72778e-05 -4.15332e-05)
(0.00246076 1.44355e-05 -4.11786e-05)
(0.0024594 1.97936e-05 -3.49775e-05)
(0.00245845 1.63702e-05 -3.55447e-05)
(0.00246572 1.45638e-05 -3.75487e-05)
(0.00243621 1.29515e-05 -3.84247e-05)
)
;
    }
    procBoundary2to6
    {
        type            processor;
        value           nonuniform List<vector> 
32
(
(0.00243189 1.2563e-05 -3.53563e-05)
(0.00242747 1.42789e-05 -4.2469e-05)
(0.00244995 1.35609e-05 -3.73851e-05)
(0.00240852 1.63352e-05 -4.78913e-05)
(0.00239449 1.4334e-05 -4.25959e-05)
(0.00240524 1.25095e-05 -3.78893e-05)
(0.00238878 8.28746e-06 -5.56924e-05)
(0.00241359 8.61886e-06 -5.51544e-05)
(0.00243737 9.26279e-06 -5.33472e-05)
(0.00243338 9.08895e-06 -5.00254e-05)
(0.00246079 9.33614e-06 -4.64186e-05)
(0.00242087 8.93047e-06 -4.14195e-05)
(0.00244051 9.02249e-06 -3.69769e-05)
(0.00243189 1.2563e-05 -3.53563e-05)
(0.00242747 1.42789e-05 -4.2469e-05)
(0.00239748 9.1031e-06 -3.24171e-05)
(0.00235377 1.75851e-05 -5.49206e-05)
(0.00238945 1.87032e-05 -5.48855e-05)
(0.00242918 1.97201e-05 -5.36146e-05)
(0.00243173 1.8339e-05 -5.06904e-05)
(0.00245465 1.7603e-05 -4.73213e-05)
(0.00242902 1.54781e-05 -4.27619e-05)
(0.00242747 1.42789e-05 -4.2469e-05)
(0.00240852 1.63352e-05 -4.78913e-05)
(0.00244581 1.40049e-05 -3.8426e-05)
(0.00229791 1.9611e-05 -5.39772e-05)
(0.00233072 2.08643e-05 -5.42433e-05)
(0.0023613 2.11254e-05 -5.31145e-05)
(0.00237353 2.0114e-05 -5.0687e-05)
(0.00241391 1.94987e-05 -4.74715e-05)
(0.00240852 1.63352e-05 -4.78913e-05)
(0.00240632 1.74903e-05 -4.35214e-05)
)
;
    }
}


// ************************************************************************* //
