/*--------------------------------*- C++ -*----------------------------------*\
| =========                 |                                                 |
| \\      /  F ield         | OpenFOAM: The Open Source CFD Toolbox           |
|  \\    /   O peration     | Version:  4.x                                   |
|   \\  /    A nd           | Web:      www.OpenFOAM.org                      |
|    \\/     M anipulation  |                                                 |
\*---------------------------------------------------------------------------*/
FoamFile
{
    version     2.0;
    format      ascii;
    class       surfaceScalarField;
    location    "51.5";
    object      phi;
}
// * * * * * * * * * * * * * * * * * * * * * * * * * * * * * * * * * * * * * //

dimensions      [0 3 -1 0 0 0 0];

internalField   nonuniform List<scalar> 
259
(
1.01531e-05
-2.40492e-08
1.07453e-05
-6.16684e-08
1.10065e-05
-6.94822e-08
-2.6145e-07
1.14435e-05
-1.02865e-07
-4.58704e-07
1.1675e-05
-8.6471e-08
-1.69814e-07
-8.89387e-08
-2.75343e-07
8.59879e-06
2.12703e-07
-7.33433e-07
8.83618e-06
1.04714e-07
-3.7299e-07
9.35395e-06
2.42999e-07
-8.05795e-07
9.50831e-06
1.37073e-07
-3.15484e-07
9.86777e-06
2.15453e-07
-6.36582e-07
9.96571e-06
7.93027e-08
-2.46729e-07
1.01695e-05
1.42023e-07
-4.48686e-07
1.022e-05
9.86575e-09
-1.46793e-07
1.00471e-07
-1.89166e-07
8.80813e-06
2.9443e-07
-7.26588e-07
9.15291e-06
1.45119e-07
-3.85185e-07
9.87204e-06
2.9795e-07
-7.74082e-07
1.01741e-05
1.60086e-07
-3.25102e-07
1.0717e-05
2.77712e-07
-6.0515e-07
1.09394e-05
1.10793e-07
-2.53824e-07
1.13399e-05
2.02655e-07
-4.61197e-07
1.15223e-05
1.86927e-08
-1.91196e-07
1.17023e-07
-3.1211e-07
9.10233e-06
-6.44634e-07
9.62468e-06
-3.77232e-07
1.05923e-05
-6.69698e-07
1.11137e-05
-3.61325e-07
1.1939e-05
-5.4751e-07
1.23803e-05
-3.30498e-07
1.30084e-05
-4.25538e-07
1.32729e-05
-2.45808e-07
-3.20935e-07
7.46994e-06
1.73226e-08
7.34448e-06
3.27739e-08
7.38536e-06
6.10012e-09
-1.80034e-07
3.94274e-08
-2.51741e-07
8.02277e-06
3.13539e-07
-8.72042e-07
7.92807e-06
1.35601e-07
-4.14736e-07
7.65565e-06
3.60083e-07
-8.5648e-07
7.51138e-06
1.55674e-07
-2.89855e-07
7.18099e-06
3.76514e-07
-5.96308e-07
7.02866e-06
1.13427e-07
-1.90505e-07
6.63967e-06
2.99417e-07
-3.26342e-07
6.54257e-06
5.85923e-08
-1.02181e-07
2.27779e-07
-3.47012e-08
8.21168e-06
3.7231e-07
-8.33769e-07
8.20595e-06
1.81462e-07
-4.25319e-07
8.217e-06
4.10942e-07
-8.35989e-07
8.21839e-06
1.63893e-07
-3.34714e-07
8.23831e-06
3.75736e-07
-6.24288e-07
8.24078e-06
1.12546e-07
-2.55417e-07
8.21682e-06
3.04112e-07
-4.41937e-07
8.25964e-06
2.9745e-08
-2.05162e-07
1.93262e-07
-2.68238e-07
8.66531e-06
-7.74366e-07
8.92035e-06
-4.5081e-07
9.44395e-06
-7.82356e-07
9.68942e-06
-4.42902e-07
1.01429e-05
-6.2529e-07
1.03393e-05
-4.14302e-07
1.06807e-05
-4.62851e-07
1.0833e-05
-3.68379e-07
-3.50592e-07
6.46305e-06
-6.64272e-08
-1.03566e-07
7.71044e-06
3.13283e-07
-7.28161e-07
7.48017e-06
1.11974e-07
-3.22032e-07
6.88614e-06
2.96348e-07
-6.1924e-07
6.66412e-06
8.99727e-08
-1.96654e-07
6.1011e-06
2.09052e-07
-3.59189e-07
5.89354e-06
4.09582e-08
-9.56217e-08
5.42998e-06
3.78341e-08
-9.7369e-08
5.26465e-06
2.96946e-08
-3.29689e-08
-1.09445e-07
7.90294e-06
3.79841e-07
-6.40005e-07
7.7269e-06
1.74854e-07
-3.12155e-07
7.31786e-06
4.38913e-07
-5.69518e-07
7.15327e-06
1.58928e-07
-2.39075e-07
6.76737e-06
3.73748e-07
-4.03084e-07
6.62548e-06
8.78893e-08
-1.60461e-07
6.1897e-06
2.46958e-07
-2.15284e-07
6.09495e-06
4.87537e-08
2.39195e-08
8.36694e-06
-5.98198e-07
8.44529e-06
-3.5431e-07
8.69145e-06
-5.89598e-07
8.77857e-06
-3.71099e-07
9.01184e-06
-4.84812e-07
8.98338e-06
-2.97954e-07
9.07702e-06
9.07213e-06
7.54887e-06
4.07369e-07
7.25555e-06
2.04439e-07
6.68108e-06
4.76178e-07
6.50688e-06
1.56887e-07
6.09366e-06
4.1136e-07
5.96719e-06
1.37118e-07
5.63624e-06
3.39686e-07
7.86973e-06
4.46598e-07
7.74348e-06
2.14369e-07
7.54162e-06
4.59567e-07
7.47898e-06
1.63738e-07
7.39101e-06
3.82894e-07
7.37693e-06
1.31155e-07
8.37753e-06
8.46848e-06
8.71328e-06
8.80059e-06
9.05321e-06
)
;

boundaryField
{
    inlet
    {
        type            calculated;
        value           nonuniform List<scalar> 
12
(
-8.16327e-06
-8.16327e-06
-8.16327e-06
-8.16327e-06
-8.16327e-06
-8.16327e-06
-8.16327e-06
-8.16327e-06
-8.16327e-06
-8.16327e-06
-8.16327e-06
-8.16327e-06
)
;
    }
    outlet
    {
        type            calculated;
        value           nonuniform 0();
    }
    wall
    {
        type            calculated;
        value           uniform 0;
    }
    procBoundary2to0
    {
        type            processor;
        value           nonuniform List<scalar> 
44
(
1.11349e-07
1.47374e-07
6.97238e-08
1.24617e-07
2.47934e-08
7.92649e-08
8.52008e-08
3.08878e-08
-9.89644e-06
4.50318e-08
-3.43998e-07
-6.77895e-07
8.99445e-10
2.40985e-08
-3.67592e-08
-3.26689e-08
-3.44323e-08
8.41517e-10
-3.69781e-08
-3.70335e-08
-7.54567e-06
-8.63941e-08
-2.03934e-07
-3.90125e-07
7.9308e-08
7.28566e-08
-4.34066e-09
2.55957e-08
6.04394e-08
3.88517e-08
1.16846e-07
7.17173e-08
-6.4877e-06
1.96751e-07
-1.68268e-07
-1.7856e-07
-8.2772e-08
-6.52843e-08
-1.84485e-07
-6.50722e-08
-1.7649e-07
-5.47638e-08
-8.3165e-08
-4.6848e-08
)
;
    }
    procBoundary2to3
    {
        type            processor;
        value           nonuniform List<scalar> 
12
(
1.196e-05
1.02197e-05
1.18178e-05
1.37109e-05
7.355e-06
6.19975e-06
8.25028e-06
1.10559e-05
6.42058e-06
5.26116e-06
5.77608e-06
9.00607e-06
)
;
    }
    procBoundary2to6
    {
        type            processor;
        value           nonuniform List<scalar> 
32
(
-2.53344e-08
-1.2947e-07
-8.27333e-08
-3.09531e-07
-3.14731e-07
-2.60619e-07
-4.38362e-07
-1.67869e-07
-3.36462e-07
-1.14267e-07
-1.8084e-07
-5.15098e-08
-2.29364e-08
5.54188e-06
1.34199e-07
-2.5965e-08
-3.85696e-07
-1.95834e-07
-3.51053e-07
-1.83284e-07
-2.86642e-07
-1.40421e-07
7.4161e-06
2.9204e-07
-2.06811e-07
-3.6587e-07
-2.30889e-07
-3.74826e-07
-2.9467e-07
-3.54537e-07
9.14568e-06
-2.5927e-07
)
;
    }
}


// ************************************************************************* //
