/*--------------------------------*- C++ -*----------------------------------*\
| =========                 |                                                 |
| \\      /  F ield         | OpenFOAM: The Open Source CFD Toolbox           |
|  \\    /   O peration     | Version:  4.x                                   |
|   \\  /    A nd           | Web:      www.OpenFOAM.org                      |
|    \\/     M anipulation  |                                                 |
\*---------------------------------------------------------------------------*/
FoamFile
{
    version     2.0;
    format      ascii;
    class       volVectorField;
    location    "46.5";
    object      ddtUrel;
}
// * * * * * * * * * * * * * * * * * * * * * * * * * * * * * * * * * * * * * //

dimensions      [0 1 -2 0 0 0 0];

internalField   nonuniform List<vector> 
132
(
(-8.09767e-11 5.16507e-10 1.54923e-10)
(-3.23659e-11 6.44227e-10 1.64003e-10)
(8.32785e-11 9.03434e-10 1.29785e-10)
(-1.87655e-10 1.17207e-09 -1.94041e-10)
(-1.0771e-09 2.09829e-09 -2.58575e-10)
(-2.28375e-09 3.71437e-09 -2.58336e-10)
(-4.78084e-09 6.30221e-09 -2.52425e-10)
(-1.03346e-08 1.03022e-08 -2.34895e-10)
(-2.45901e-08 1.628e-08 -1.15233e-10)
(-4.62546e-11 5.234e-10 1.08146e-10)
(1.53804e-11 6.51061e-10 9.52658e-11)
(1.00434e-10 8.99089e-10 2.46667e-11)
(-1.62857e-10 1.1618e-09 -1.53964e-10)
(-8.18479e-10 2.11351e-09 -2.39993e-10)
(-1.82933e-09 3.8353e-09 -2.63245e-10)
(-3.73119e-09 6.62132e-09 -2.88981e-10)
(-7.50897e-09 1.0968e-08 -3.27198e-10)
(-1.56072e-08 1.7574e-08 -3.5517e-10)
(-3.83548e-11 5.08139e-10 6.19554e-11)
(-3.86592e-13 6.10935e-10 3.11786e-11)
(-1.17749e-11 8.6479e-10 -3.74051e-11)
(-1.92771e-10 1.257e-09 -1.3303e-10)
(-6.0975e-10 2.25702e-09 -2.11047e-10)
(-1.25011e-09 4.12756e-09 -2.72013e-10)
(-2.42255e-09 7.23429e-09 -3.41172e-10)
(-4.39531e-09 1.21901e-08 -4.44899e-10)
(-7.9153e-09 1.98707e-08 -6.0614e-10)
(-6.0889e-11 4.68368e-10 1.24067e-11)
(-4.74163e-11 5.6721e-10 -1.69806e-11)
(-9.4018e-11 8.18449e-10 -7.11603e-11)
(-1.89255e-11 4.66366e-10 1.75122e-10)
(4.1429e-11 5.779e-10 1.84758e-10)
(1.08848e-10 8.34248e-10 1.12907e-10)
(-8.32876e-11 1.25535e-09 -2.25932e-10)
(-7.33726e-10 2.21598e-09 -2.95493e-10)
(-1.70998e-09 3.91421e-09 -2.89347e-10)
(-3.50561e-09 6.67584e-09 -3.02018e-10)
(-7.14287e-09 1.10131e-08 -3.30014e-10)
(-1.46729e-08 1.76082e-08 -3.6246e-10)
(2.01967e-12 4.83329e-10 1.28356e-10)
(6.02714e-11 5.98971e-10 1.15311e-10)
(1.12614e-10 8.55083e-10 3.52844e-11)
(-7.58962e-11 1.27579e-09 -1.67537e-10)
(-5.8621e-10 2.25948e-09 -2.63844e-10)
(-1.37961e-09 4.06177e-09 -2.93086e-10)
(-2.75215e-09 7.04239e-09 -3.32707e-10)
(-5.26577e-09 1.17755e-08 -4.04611e-10)
(-9.88471e-09 1.90787e-08 -5.24735e-10)
(1.88271e-12 4.71266e-10 6.57808e-11)
(3.76932e-11 5.8684e-10 3.7116e-11)
(3.78961e-11 8.57896e-10 -3.40884e-11)
(-9.57815e-11 1.37104e-09 -1.40885e-10)
(-4.16581e-10 2.43966e-09 -2.27141e-10)
(-9.2252e-10 4.38185e-09 -2.91298e-10)
(-1.74829e-09 7.73667e-09 -3.73861e-10)
(-3.06363e-09 1.31802e-08 -5.06326e-10)
(-5.11399e-09 2.17623e-08 -7.32181e-10)
(-1.46814e-11 4.4041e-10 1.26435e-11)
(-2.41802e-12 5.69223e-10 -1.85251e-11)
(-2.08677e-11 8.71678e-10 -7.32816e-11)
(-1.01567e-10 1.46523e-09 -1.43883e-10)
(-2.70599e-10 2.64726e-09 -2.16773e-10)
(2.76793e-11 4.30258e-10 1.44726e-10)
(6.19111e-11 5.41507e-10 1.25463e-10)
(7.5832e-11 8.27194e-10 4.87455e-11)
(-7.93583e-11 1.38494e-09 -1.461e-10)
(-4.54259e-10 2.44869e-09 -2.49584e-10)
(-1.07081e-09 4.3135e-09 -2.9174e-10)
(-2.10667e-09 7.39869e-09 -3.45889e-10)
(-3.9381e-09 1.23344e-08 -4.39379e-10)
(-7.04467e-09 2.00008e-08 -6.05227e-10)
(3.22869e-11 4.35709e-10 1.13034e-10)
(6.58369e-11 5.54199e-10 8.623e-11)
(7.61534e-11 8.48039e-10 8.22247e-12)
(-5.20466e-11 1.41939e-09 -1.35894e-10)
(-3.57514e-10 2.53245e-09 -2.43145e-10)
(-8.53569e-10 4.52276e-09 -3.00901e-10)
(-1.6447e-09 7.86597e-09 -3.74707e-10)
(-2.918e-09 1.32874e-08 -4.994e-10)
(-4.85873e-09 2.18487e-08 -7.22249e-10)
(2.47379e-11 4.3503e-10 5.69811e-11)
(4.55043e-11 5.64256e-10 2.64849e-11)
(4.29738e-11 8.83072e-10 -4.05979e-11)
(-4.76353e-11 1.51906e-09 -1.35525e-10)
(-2.4113e-10 2.74591e-09 -2.24835e-10)
(-5.45466e-10 4.96204e-09 -3.03367e-10)
(-9.85546e-10 8.75754e-09 -4.10978e-10)
(-1.58388e-09 1.50323e-08 -5.88439e-10)
(-2.2841e-09 2.52652e-08 -9.01316e-10)
(1.10225e-11 4.20181e-10 8.07535e-12)
(1.84921e-11 5.70929e-10 -2.10372e-11)
(8.53313e-12 9.27541e-10 -7.1973e-11)
(-4.20884e-11 1.64869e-09 -1.40246e-10)
(-1.31066e-10 3.03391e-09 -2.18869e-10)
(-2.5325e-10 5.50929e-09 -3.13105e-10)
(-3.77868e-10 9.86177e-09 -4.51686e-10)
(3.61438e-11 3.9193e-10 1.01881e-10)
(5.62179e-11 5.2652e-10 7.59882e-11)
(5.47805e-11 8.5682e-10 3.15876e-12)
(-4.10224e-11 1.50446e-09 -1.10539e-10)
(-2.30743e-10 2.69885e-09 -2.06749e-10)
(-5.34691e-10 4.78679e-09 -2.83533e-10)
(-1.00237e-09 8.28924e-09 -3.80797e-10)
(-1.67513e-09 1.39911e-08 -5.34944e-10)
(-2.56762e-09 2.30204e-08 -7.99967e-10)
(3.94531e-11 3.93653e-10 8.06146e-11)
(6.01889e-11 5.33893e-10 5.4937e-11)
(6.03022e-11 8.76909e-10 -1.64347e-11)
(-9.16143e-12 1.55493e-09 -1.16031e-10)
(-1.60035e-10 2.8229e-09 -2.09076e-10)
(-3.91243e-10 5.06811e-09 -2.91946e-10)
(-7.13757e-10 8.89005e-09 -4.05506e-10)
(-1.12216e-09 1.52079e-08 -5.8938e-10)
(-1.52969e-09 2.53998e-08 -9.0659e-10)
(3.16978e-11 4.02021e-10 4.38412e-11)
(4.82153e-11 5.53044e-10 1.55667e-11)
(4.88759e-11 9.27455e-10 -4.31456e-11)
(6.08142e-12 1.67473e-09 -1.2108e-10)
(-7.91577e-11 3.08435e-09 -2.07815e-10)
(-1.92945e-10 5.61991e-09 -3.02953e-10)
(-2.99721e-10 1.00225e-08 -4.45436e-10)
(-3.25592e-10 1.74762e-08 -6.82636e-10)
(-9.41684e-11 2.98419e-08 -1.09128e-09)
(2.42621e-11 4.03494e-10 1.01235e-11)
(3.29596e-11 5.75386e-10 -1.38654e-11)
(3.33084e-11 9.89455e-10 -5.98673e-11)
(1.33771e-11 1.82623e-09 -1.24292e-10)
(-2.00074e-12 3.42297e-09 -2.07938e-10)
(6.0579e-12 6.33367e-09 -3.22346e-10)
(1.18314e-10 1.14918e-08 -4.97478e-10)
(4.57103e-10 2.03995e-08 -7.96914e-10)
(1.28799e-09 3.56803e-08 -1.32902e-09)
)
;

boundaryField
{
    inlet
    {
        type            calculated;
        value           nonuniform List<vector> 
16
(
(-5.58866e-10 2.35339e-10 2.07741e-10)
(-3.50881e-10 4.11979e-10 1.54073e-10)
(-3.72634e-10 4.57418e-10 1.18721e-10)
(-1.25364e-10 3.51446e-10 5.46374e-11)
(-1.98957e-10 1.5824e-10 4.68561e-10)
(-4.88758e-11 3.14361e-10 2.81611e-10)
(-4.71099e-11 2.65231e-10 1.3292e-10)
(9.53378e-12 2.34361e-10 5.08603e-11)
(2.55613e-11 6.82185e-11 3.36658e-10)
(1.10597e-11 1.72146e-10 2.64195e-10)
(7.29759e-14 1.50137e-10 1.03751e-10)
(4.05958e-11 1.34463e-10 1.13158e-11)
(-1.04709e-12 4.68425e-11 2.05604e-10)
(2.94312e-11 6.83246e-11 1.84476e-10)
(-1.47549e-10 8.43938e-11 1.18743e-10)
(-6.30409e-11 4.69065e-11 2.22296e-11)
)
;
    }
    outlet
    {
        type            calculated;
        value           nonuniform 0();
    }
    wall
    {
        type            calculated;
        value           nonuniform List<vector> 
66
(
(-6.06894e-10 2.35639e-10 2.08611e-10)
(-4.13822e-10 4.12923e-10 1.54452e-10)
(-3.66505e-10 4.55858e-10 1.12254e-10)
(-1.8311e-10 3.52494e-10 5.4397e-11)
(-6.47364e-10 4.8328e-10 4.81477e-10)
(-8.89066e-11 8.11936e-10 2.79422e-10)
(2.17965e-12 4.98765e-10 6.35829e-11)
(-1.30852e-10 2.1712e-10 -1.71593e-11)
(9.4387e-10 1.08635e-09 1.39822e-09)
(1.23746e-09 1.0936e-09 1.69985e-10)
(-1.30866e-10 5.71193e-10 1.47843e-11)
(-6.15846e-10 1.32964e-10 -3.99771e-11)
(1.23918e-09 -8.75495e-10 -9.75805e-10)
(7.7891e-10 -1.15907e-09 -3.68668e-10)
(-4.12436e-11 -3.6916e-10 -9.89432e-11)
(-2.20575e-09 -5.37814e-10 -5.06335e-10)
(-7.33836e-10 -7.46714e-10 -4.01618e-10)
(-9.81004e-10 -6.08221e-10 -1.41671e-10)
(-1.61992e-09 -2.0014e-10 -1.7843e-10)
(-1.16399e-09 -3.49252e-10 -1.86249e-10)
(-6.99103e-10 -3.30871e-10 -1.46009e-10)
(-3.20868e-09 -7.12644e-11 5.63918e-12)
(-2.68182e-09 -5.1823e-11 -5.60764e-11)
(-2.37536e-09 -1.19799e-10 -8.06591e-11)
(-6.0945e-10 -2.494e-12 -9.1076e-12)
(-2.90816e-09 5.38447e-11 1.62076e-12)
(-2.44069e-09 -2.78451e-11 -6.45851e-11)
(-1.38154e-09 -2.28572e-11 2.27434e-11)
(-1.09232e-08 2.7503e-10 2.53291e-10)
(-6.21688e-09 7.75026e-11 6.65469e-11)
(-5.49247e-10 2.34937e-10 2.06969e-10)
(-2.25293e-10 1.58495e-10 4.70344e-10)
(2.97071e-11 6.79418e-11 3.362e-10)
(2.90245e-12 4.63299e-11 2.0516e-10)
(-5.85135e-10 4.82046e-10 4.78448e-10)
(1.50067e-10 3.19988e-10 8.83645e-10)
(2.11168e-10 7.1887e-11 4.43013e-10)
(1.40166e-10 1.19159e-11 2.0163e-10)
(-1.38476e-09 1.08683e-09 1.50582e-09)
(1.09441e-09 2.2742e-10 1.16226e-09)
(6.07468e-10 5.25737e-11 4.06813e-10)
(3.82339e-10 1.72587e-11 1.36153e-10)
(1.33661e-09 -8.77013e-10 -9.79443e-10)
(1.6656e-09 -4.07888e-10 -1.44312e-09)
(4.88755e-10 -2.43695e-11 -3.68697e-10)
(1.5223e-10 -1.521e-11 -8.49787e-11)
(-2.26501e-09 -5.4098e-10 -5.0468e-10)
(5.84703e-11 -2.70565e-10 -8.61991e-10)
(2.21289e-10 -7.96711e-11 -4.82398e-10)
(1.12387e-10 -2.81766e-11 -2.20214e-10)
(-1.31845e-09 -2.00506e-10 -1.88506e-10)
(-2.1481e-10 -1.21584e-10 -3.5176e-10)
(-6.71253e-11 -4.7932e-11 -2.85879e-10)
(3.11362e-11 -2.04659e-11 -2.098e-10)
(-2.38556e-09 -7.50378e-11 -2.3762e-11)
(-4.00516e-11 -7.64207e-11 -2.0126e-10)
(6.52299e-11 -2.9815e-11 -1.81614e-10)
(-2.34147e-10 -2.47916e-11 -1.90646e-10)
(-9.06581e-10 -1.02253e-11 8.84236e-13)
(-2.87009e-10 -8.42559e-12 -6.15331e-11)
(-9.99128e-12 -9.73297e-12 -8.87673e-11)
(1.39306e-10 -4.54226e-12 -1.43406e-10)
(-6.7179e-10 -2.01796e-11 -1.51233e-12)
(3.55692e-09 3.69859e-11 -9.8404e-11)
(1.87832e-09 3.93709e-11 -1.62962e-10)
(7.0401e-10 2.15969e-11 -1.92283e-10)
)
;
    }
    procBoundary0to1
    {
        type            processor;
        value           nonuniform List<vector> 
12
(
(-6.41008e-08 2.48489e-08 4.21614e-10)
(-3.11134e-08 2.7247e-08 -3.4893e-10)
(-1.27543e-08 3.13982e-08 -8.86827e-10)
(-2.96742e-08 2.72669e-08 -3.48613e-10)
(-1.70102e-08 2.9964e-08 -7.20113e-10)
(-7.4523e-09 3.48763e-08 -1.11326e-09)
(-1.16958e-08 3.14996e-08 -8.72886e-10)
(-7.15524e-09 3.49527e-08 -1.09329e-09)
(-2.63635e-09 4.13673e-08 -1.42498e-09)
(-3.39023e-09 3.69091e-08 -1.23748e-09)
(-1.52509e-09 4.14344e-08 -1.43134e-09)
(8.40097e-10 4.99686e-08 -1.77615e-09)
)
;
    }
    procBoundary0to2
    {
        type            processor;
        value           nonuniform List<vector> 
44
(
(-1.94201e-10 1.39523e-09 -1.32237e-10)
(-4.34255e-10 2.54454e-09 -1.98335e-10)
(-7.44661e-10 4.65691e-09 -2.83886e-10)
(-1.31755e-09 8.16576e-09 -3.93917e-10)
(-2.10155e-09 1.3877e-08 -5.65194e-10)
(-3.22076e-09 2.28847e-08 -8.33354e-10)
(-1.37769e-10 4.76582e-10 -2.54949e-11)
(-8.86154e-11 5.96529e-10 -4.90461e-11)
(-1.94201e-10 1.39523e-09 -1.32237e-10)
(-1.17996e-10 9.39506e-10 -9.09158e-11)
(-1.94201e-10 1.39523e-09 -1.32237e-10)
(-4.34255e-10 2.54454e-09 -1.98335e-10)
(-5.10636e-10 4.87748e-09 -2.97441e-10)
(-8.67643e-10 8.72022e-09 -4.19308e-10)
(-1.30834e-09 1.50891e-08 -6.16803e-10)
(-1.79252e-09 2.52724e-08 -9.38382e-10)
(-4.75509e-11 4.51363e-10 -2.75717e-11)
(-3.51416e-11 5.93892e-10 -5.19782e-11)
(-4.62792e-11 9.64271e-10 -9.35902e-11)
(-7.18461e-11 1.71141e-09 -1.45771e-10)
(-5.10636e-10 4.87748e-09 -2.97441e-10)
(-1.26135e-10 3.10988e-09 -2.13476e-10)
(-5.10636e-10 4.87748e-09 -2.97441e-10)
(-8.67643e-10 8.72022e-09 -4.19308e-10)
(-4.10169e-10 1.73143e-08 -6.96304e-10)
(-1.84732e-10 2.97362e-08 -1.10944e-09)
(-8.74609e-12 4.46339e-10 -2.41711e-11)
(-1.20134e-12 6.10658e-10 -5.02319e-11)
(-5.71305e-12 1.02936e-09 -9.13971e-11)
(-1.6114e-11 1.87144e-09 -1.46407e-10)
(-2.20314e-11 3.45324e-09 -2.20801e-10)
(7.74251e-12 6.30899e-09 -3.2866e-10)
(-4.10169e-10 1.73143e-08 -6.96304e-10)
(1.37128e-10 1.13227e-08 -5.04081e-10)
(-4.10169e-10 1.73143e-08 -6.96304e-10)
(-1.84732e-10 2.97362e-08 -1.10944e-09)
(1.32398e-11 4.44206e-10 -1.49534e-11)
(2.11265e-11 6.34185e-10 -3.62598e-11)
(2.52503e-11 1.1084e-09 -7.74311e-11)
(3.62186e-11 2.06118e-09 -1.35731e-10)
(7.80768e-11 3.87328e-09 -2.21394e-10)
(1.97452e-10 7.19494e-09 -3.45924e-10)
(4.93819e-10 1.31435e-08 -5.58629e-10)
(1.1362e-09 2.3634e-08 -9.24453e-10)
)
;
    }
    procBoundary0to4
    {
        type            processor;
        value           nonuniform List<vector> 
36
(
(3.47717e-11 4.11112e-10 5.88803e-11)
(4.8008e-11 5.63129e-10 3.38979e-11)
(4.8037e-11 9.428e-10 -2.05069e-11)
(1.39752e-11 1.67987e-09 -9.71475e-11)
(-5.59798e-11 3.01736e-09 -1.81492e-10)
(-1.41881e-10 5.34675e-09 -2.72792e-10)
(-2.34305e-10 9.27778e-09 -4.02088e-10)
(-2.70098e-10 1.57494e-08 -6.0678e-10)
(-1.1756e-10 2.61524e-08 -9.4632e-10)
(3.87769e-11 4.14108e-10 4.92688e-11)
(5.45731e-11 5.72683e-10 2.33246e-11)
(6.24685e-11 9.67125e-10 -2.9665e-11)
(4.00872e-11 1.7437e-09 -1.03554e-10)
(3.30986e-13 3.17105e-09 -1.87572e-10)
(-4.48211e-11 5.69071e-09 -2.8557e-10)
(-4.95862e-11 1.00066e-08 -4.31155e-10)
(6.67258e-11 1.72355e-08 -6.64954e-10)
(4.83947e-10 2.90962e-08 -1.061e-09)
(3.69306e-11 4.27157e-10 2.79262e-11)
(5.39956e-11 6.00335e-10 3.47569e-12)
(6.78793e-11 1.03039e-09 -4.4664e-11)
(6.32318e-11 1.88746e-09 -1.09316e-10)
(6.89061e-11 3.48687e-09 -1.94943e-10)
(9.9233e-11 6.3585e-09 -3.06238e-10)
(2.42167e-10 1.13882e-08 -4.81654e-10)
(6.05075e-10 2.00333e-08 -7.71635e-10)
(1.43867e-09 3.46576e-08 -1.27181e-09)
(3.37776e-11 4.37435e-10 7.55787e-12)
(4.86961e-11 6.30624e-10 -1.20103e-11)
(6.50043e-11 1.10864e-09 -5.29558e-11)
(8.27365e-11 2.06782e-09 -1.13445e-10)
(1.34875e-10 3.88734e-09 -2.04714e-10)
(2.53081e-10 7.21672e-09 -3.3508e-10)
(5.60113e-10 1.31816e-08 -5.4663e-10)
(1.20169e-09 2.37084e-08 -9.10563e-10)
(2.51534e-09 4.20975e-08 -1.56193e-09)
)
;
    }
    procBoundary0to6
    {
        type            processor;
        value           uniform (2.45951e-09 4.20761e-08 -1.57997e-09);
    }
    procBoundary0to7
    {
        type            processor;
        value           uniform (3.09269e-09 6.13818e-08 -2.24148e-09);
    }
}


// ************************************************************************* //
