/*--------------------------------*- C++ -*----------------------------------*\
| =========                 |                                                 |
| \\      /  F ield         | OpenFOAM: The Open Source CFD Toolbox           |
|  \\    /   O peration     | Version:  4.x                                   |
|   \\  /    A nd           | Web:      www.OpenFOAM.org                      |
|    \\/     M anipulation  |                                                 |
\*---------------------------------------------------------------------------*/
FoamFile
{
    version     2.0;
    format      ascii;
    class       volScalarField;
    location    "46.5";
    object      pSmooth;
}
// * * * * * * * * * * * * * * * * * * * * * * * * * * * * * * * * * * * * * //

dimensions      [1 -1 -2 0 0 0 0];

internalField   nonuniform List<scalar> 
132
(
108.028
91.4325
101.442
74.1111
94.6814
56.1266
87.74
37.5644
81.1142
108.254
91.5725
101.653
74.0793
94.8014
56.0113
87.8123
37.394
81.096
108.674
91.9556
102.083
74.3704
95.21
56.2541
88.266
37.9433
81.5256
108.64
91.817
102.008
108.861
92.0352
102.196
74.4228
95.3216
56.323
88.3268
37.8567
81.5886
109.202
92.1417
102.492
74.4889
95.57
56.2535
88.5152
37.6401
81.6605
109.73
92.4892
103.024
74.776
96.1005
56.5465
89.0452
37.9977
82.1386
109.687
92.2665
102.871
74.6044
95.8305
109.417
92.2667
102.505
74.5697
95.3616
56.3891
88.215
37.7474
81.3119
109.853
92.4347
102.893
74.6749
95.7012
56.3455
88.4771
37.5604
81.385
110.437
92.8302
103.516
75.0787
96.2063
56.7271
88.8201
38.2208
81.7284
110.572
92.8647
103.562
74.9894
96.1587
56.5476
88.7127
110.111
92.8916
103.232
75.1438
96.124
57.0206
88.925
38.7669
82.0951
110.641
93.1166
103.669
75.2253
96.4475
57.0971
89.2306
38.6273
82.1775
111.239
93.6334
104.348
75.7963
96.9983
57.7675
89.3202
39.8711
82.0007
111.192
93.4925
104.15
75.4393
96.6219
57.2353
89.078
38.7522
81.9418
)
;

boundaryField
{
    inlet
    {
        type            zeroGradient;
    }
    outlet
    {
        type            fixedValue;
        value           nonuniform 0();
    }
    wall
    {
        type            zeroGradient;
    }
    procBoundary0to1
    {
        type            processor;
        value           nonuniform List<scalar> 
12
(
19.054
18.5058
19.2426
19.3084
18.8537
19.5527
19.0359
18.5127
19.9785
20.4689
20.2848
22.4319
)
;
    }
    procBoundary0to2
    {
        type            processor;
        value           nonuniform List<scalar> 
44
(
74.2614
94.9827
55.9889
87.9834
37.2957
81.2289
109.001
92.0083
74.2614
102.286
74.2614
94.9827
56.1754
88.5742
37.2797
81.6213
109.86
92.5576
103.133
74.7338
56.1754
96.1194
56.1754
88.5742
37.8346
81.5933
110.681
93.0208
103.796
75.3756
96.5222
57.3971
37.8346
89.1317
37.8346
81.5933
111.34
93.539
104.231
75.5196
96.8241
57.3446
89.3924
39.0721
)
;
    }
    procBoundary0to4
    {
        type            processor;
        value           nonuniform List<scalar> 
36
(
110.328
92.9612
103.245
75.1675
95.9049
57.0027
88.6042
38.4768
81.491
110.933
93.2221
103.808
75.358
96.3101
57.0481
88.9103
38.5861
81.7932
111.528
93.6615
104.296
75.8003
96.6806
57.5989
89.1862
39.3192
81.8096
111.609
93.8202
104.453
75.9664
96.8931
57.8212
89.2245
39.5402
81.6645
)
;
    }
    procBoundary0to6
    {
        type            processor;
        value           uniform 82.0872;
    }
    procBoundary0to7
    {
        type            processor;
        value           uniform 20.8227;
    }
}


// ************************************************************************* //
