/*--------------------------------*- C++ -*----------------------------------*\
| =========                 |                                                 |
| \\      /  F ield         | OpenFOAM: The Open Source CFD Toolbox           |
|  \\    /   O peration     | Version:  4.x                                   |
|   \\  /    A nd           | Web:      www.OpenFOAM.org                      |
|    \\/     M anipulation  |                                                 |
\*---------------------------------------------------------------------------*/
FoamFile
{
    version     2.0;
    format      ascii;
    class       volVectorField;
    location    "46";
    object      ddtUrel;
}
// * * * * * * * * * * * * * * * * * * * * * * * * * * * * * * * * * * * * * //

dimensions      [0 1 -2 0 0 0 0];

internalField   nonuniform List<vector> 
87
(
(-1.24013e-09 3.1139e-11 -5.40536e-11)
(-7.11809e-10 1.59547e-11 -5.98324e-11)
(-8.86886e-10 5.05395e-11 -5.04439e-11)
(-4.70738e-10 -1.79125e-12 -5.21297e-11)
(-6.04439e-10 2.41502e-11 -5.11121e-11)
(-7.47241e-10 5.98275e-11 -4.1842e-11)
(-1.80033e-11 4.5122e-12 -8.08266e-12)
(-1.93682e-11 -4.24697e-12 -1.55447e-11)
(-3.98354e-11 -1.86826e-11 -2.97545e-11)
(-9.35088e-11 -3.55401e-11 -4.29676e-11)
(-1.79417e-10 -4.33031e-11 -5.45091e-11)
(-3.12603e-10 -4.36338e-11 -5.51003e-11)
(-4.72128e-10 -3.2407e-11 -5.58896e-11)
(-6.61744e-10 -1.1951e-11 -4.44864e-11)
(-8.51167e-10 2.28926e-11 -4.09829e-11)
(-3.08487e-11 -4.42371e-13 -1.59994e-11)
(-3.76852e-11 -6.26795e-12 -2.1774e-11)
(-6.08805e-11 -1.63171e-11 -3.12286e-11)
(-1.0893e-10 -2.71516e-11 -4.02945e-11)
(-1.80949e-10 -3.10596e-11 -4.63586e-11)
(-2.79424e-10 -2.76874e-11 -4.55863e-11)
(-3.9671e-10 -1.42577e-11 -4.20749e-11)
(-5.31317e-10 1.00805e-11 -3.7759e-11)
(-6.552e-10 4.40282e-11 -3.32683e-11)
(-4.21375e-11 -2.3327e-12 -2.09094e-11)
(-5.24332e-11 -7.08184e-12 -2.42395e-11)
(-8.25047e-11 -1.35374e-11 -3.00788e-11)
(-1.2396e-10 -1.91597e-11 -3.57698e-11)
(-1.92231e-10 -2.13265e-11 -3.95638e-11)
(-2.71e-10 -1.77922e-11 -3.73894e-11)
(-3.75764e-10 -4.35013e-12 -3.25632e-11)
(-4.71584e-10 2.01842e-11 -2.72404e-11)
(-5.87156e-10 5.16974e-11 -2.4005e-11)
(-8.07436e-12 -4.07186e-12 -5.65582e-12)
(-8.27873e-12 -1.13402e-11 -1.20812e-11)
(-2.12841e-11 -2.04189e-11 -2.06432e-11)
(-6.00271e-11 -2.94531e-11 -3.0566e-11)
(-1.20648e-10 -3.35801e-11 -3.94493e-11)
(-2.17774e-10 -3.55856e-11 -4.34606e-11)
(-3.33372e-10 -2.75989e-11 -4.45133e-11)
(-4.75389e-10 -1.23004e-11 -3.61287e-11)
(-6.04135e-10 1.17449e-11 -2.90811e-11)
(-2.0211e-11 -6.30235e-12 -1.1553e-11)
(-2.45478e-11 -1.09803e-11 -1.57301e-11)
(-4.30792e-11 -1.77327e-11 -2.20398e-11)
(-7.74487e-11 -2.43456e-11 -2.84267e-11)
(-1.30514e-10 -2.50602e-11 -3.25394e-11)
(-2.07093e-10 -2.32113e-11 -3.31867e-11)
(-2.99372e-10 -1.09761e-11 -3.33723e-11)
(-4.05835e-10 1.38679e-11 -2.89805e-11)
(-5.02059e-10 2.99819e-11 -2.06523e-11)
(-2.7582e-11 -7.08992e-12 -1.66178e-11)
(-3.93629e-11 -1.08767e-11 -1.90943e-11)
(-7.40607e-11 -1.4948e-11 -2.3292e-11)
(-9.5012e-11 -1.90178e-11 -2.65231e-11)
(-1.47444e-10 -1.90358e-11 -2.86776e-11)
(-2.118e-10 -1.4939e-11 -2.75376e-11)
(-2.96835e-10 -4.03102e-12 -2.58242e-11)
(-3.73325e-10 1.48664e-11 -2.23812e-11)
(-4.49657e-10 3.5617e-11 -1.37152e-11)
(-4.74853e-12 -7.68794e-12 -4.54839e-12)
(-4.46665e-12 -1.37286e-11 -9.08238e-12)
(-1.44592e-11 -2.00063e-11 -1.59142e-11)
(-4.59347e-11 -2.54393e-11 -2.32165e-11)
(-9.6841e-11 -2.85197e-11 -3.01401e-11)
(-1.72236e-10 -3.05208e-11 -3.368e-11)
(-2.60148e-10 -2.41119e-11 -3.52646e-11)
(-3.8099e-10 -1.22527e-11 -2.87635e-11)
(-4.81025e-10 5.07441e-12 -2.36419e-11)
(-1.78316e-11 -9.5427e-12 -9.17387e-12)
(-1.81174e-11 -1.22673e-11 -1.20832e-11)
(-3.07371e-11 -1.67386e-11 -1.68731e-11)
(-6.11677e-11 -2.07675e-11 -2.10577e-11)
(-1.0717e-10 -2.12098e-11 -2.48606e-11)
(-1.68713e-10 -1.82166e-11 -2.5954e-11)
(-2.34726e-10 -4.43819e-12 -2.66895e-11)
(-3.40001e-10 1.71418e-11 -2.00553e-11)
(-4.35117e-10 2.3297e-11 -1.34239e-11)
(-2.51111e-11 -1.04743e-11 -1.19623e-11)
(-3.00194e-11 -1.1524e-11 -1.38297e-11)
(-4.69847e-11 -1.4286e-11 -1.75415e-11)
(-7.69259e-11 -1.71754e-11 -1.99072e-11)
(-1.19528e-10 -1.70154e-11 -2.23484e-11)
(-1.76794e-10 -1.30015e-11 -2.16523e-11)
(-2.42986e-10 -2.9036e-12 -2.09566e-11)
(-3.11087e-10 1.24873e-11 -1.65008e-11)
(-4.00262e-10 2.81415e-11 -9.02482e-12)
)
;

boundaryField
{
    inlet
    {
        type            calculated;
        value           nonuniform List<vector> 9((-1.63543e-10 9.66859e-12 7.80967e-12) (-4.92591e-11 -4.69957e-12 1.10179e-11) (-4.48065e-11 2.37072e-12 -9.9609e-12) (-4.35986e-11 2.89793e-13 3.44899e-12) (-4.40376e-11 -6.42295e-12 4.73619e-12) (8.52299e-11 9.16698e-13 -2.34514e-11) (-5.91556e-11 -5.17526e-12 5.22041e-12) (-5.30263e-11 -1.44787e-11 1.8122e-12) (1.17743e-10 -1.59794e-11 2.46909e-12));
    }
    outlet
    {
        type            calculated;
        value           nonuniform 0();
    }
    wall
    {
        type            calculated;
        value           nonuniform List<vector> 
57
(
(1.77011e-11 -2.83632e-12 7.55719e-12)
(-5.41948e-11 -1.41706e-11 1.93091e-12)
(-3.60021e-11 -2.0452e-11 -7.32911e-14)
(4.49855e-11 -3.14062e-11 -6.49337e-14)
(3.49132e-11 -7.98727e-12 1.74104e-12)
(2.10487e-12 -5.59825e-12 3.04159e-12)
(6.52809e-11 -3.3536e-11 -6.0835e-12)
(8.82628e-11 -1.14421e-11 -3.46902e-12)
(1.89874e-10 -1.57118e-12 -5.49624e-12)
(4.73176e-11 -2.8752e-11 -6.8593e-12)
(4.55314e-11 -1.74975e-11 3.5888e-12)
(-5.09546e-11 -1.06759e-11 4.1949e-12)
(3.78698e-11 -2.25289e-11 -1.75082e-11)
(7.32748e-12 -1.10415e-11 -1.48808e-12)
(-2.38366e-12 -1.0205e-11 -5.3265e-12)
(2.52801e-11 -5.22547e-11 -1.41762e-11)
(-7.77177e-12 -1.61165e-11 5.74919e-12)
(-6.58382e-11 -1.0751e-11 9.62244e-12)
(2.04099e-10 -5.09801e-11 -3.55251e-11)
(3.77799e-10 4.85561e-11 -2.02226e-11)
(-7.29907e-11 -1.15202e-11 -6.07625e-13)
(-9.50847e-11 -7.13303e-11 -7.8792e-12)
(-1.37779e-10 1.81891e-10 2.30601e-11)
(1.5112e-10 -1.01597e-11 7.08492e-13)
(2.60416e-10 -5.04473e-11 -5.10066e-11)
(-5.5809e-10 -7.82071e-12 2.47762e-11)
(-6.03947e-10 -5.56695e-13 2.56069e-11)
(-6.27893e-11 2.30766e-12 -9.67198e-12)
(-1.00366e-11 -1.88283e-12 -2.52883e-11)
(-9.53376e-11 -2.11501e-11 -5.74012e-13)
(-5.7192e-11 -8.32509e-12 -1.31672e-12)
(-1.49254e-11 -1.94099e-11 -2.39834e-11)
(-2.48584e-11 -5.93106e-12 2.97335e-12)
(-1.69759e-10 -1.09908e-11 -5.14067e-14)
(-5.83019e-10 -1.61271e-11 -3.04711e-11)
(-1.43265e-10 -5.89626e-12 -7.22595e-12)
(-1.55166e-10 -9.99646e-12 -4.87277e-12)
(-6.2275e-11 -2.14703e-11 -1.63701e-11)
(-7.00085e-11 -1.07646e-11 4.0945e-12)
(-3.16939e-10 -1.84194e-11 -1.57437e-11)
(-2.50362e-10 -1.39176e-11 -1.5071e-11)
(-9.21843e-11 -1.09146e-11 -5.56047e-12)
(-2.5547e-10 -3.38044e-11 9.2416e-12)
(-1.98289e-10 -1.00471e-11 -1.94918e-13)
(-1.4219e-10 -1.06101e-11 1.01568e-11)
(-3.07511e-10 -1.50054e-12 -1.24434e-11)
(-5.57993e-10 -2.45715e-11 3.90374e-11)
(-4.65675e-10 -1.21611e-11 -4.4269e-12)
(-2.15103e-10 -1.20018e-11 -7.81539e-13)
(-2.67093e-10 2.36787e-11 -7.33268e-11)
(-3.49189e-10 3.21428e-11 8.32967e-11)
(-2.93245e-10 2.69113e-12 -2.24919e-11)
(-2.75104e-11 -9.16697e-12 3.49778e-12)
(-7.94235e-10 4.03706e-11 -5.07861e-11)
(-1.16319e-09 6.42036e-11 8.00781e-12)
(-1.15273e-10 -7.11681e-13 4.30752e-11)
(-1.70675e-10 -2.15621e-12 2.17033e-11)
)
;
    }
    procBoundary6to0
    {
        type            processor;
        value           uniform (-1.83513e-09 1.99776e-11 -4.79399e-11);
    }
    procBoundary6to2
    {
        type            processor;
        value           nonuniform List<vector> 
32
(
(-1.73702e-09 4.58064e-11 -6.27992e-11)
(-9.01016e-10 2.00178e-11 -7.88318e-11)
(-1.14477e-09 6.08246e-11 -6.33581e-11)
(-5.93805e-10 -7.36332e-13 -6.89084e-11)
(-7.57073e-10 2.68476e-11 -6.64144e-11)
(-9.40997e-10 6.58817e-11 -5.66854e-11)
(-2.90466e-11 1.94489e-11 -1.44849e-11)
(-3.69762e-11 8.22317e-12 -2.60706e-11)
(-7.1174e-11 -1.13564e-11 -4.67453e-11)
(-1.45475e-10 -3.55654e-11 -6.4556e-11)
(-2.65732e-10 -4.85412e-11 -7.97327e-11)
(-4.43122e-10 -4.72001e-11 -8.11459e-11)
(-6.71796e-10 -3.12532e-11 -8.00661e-11)
(-9.46737e-10 -6.26927e-12 -6.83591e-11)
(-9.46737e-10 -6.26927e-12 -6.83591e-11)
(-9.46737e-10 -6.26927e-12 -6.83591e-11)
(-4.66603e-11 8.99612e-12 -2.56927e-11)
(-5.86838e-11 1.6812e-12 -3.47234e-11)
(-9.28711e-11 -1.18949e-11 -4.84331e-11)
(-1.53864e-10 -2.57749e-11 -5.9764e-11)
(-2.49063e-10 -3.2993e-11 -6.74654e-11)
(-3.72292e-10 -2.80946e-11 -6.80413e-11)
(-5.30163e-10 -1.21633e-11 -6.48149e-11)
(-5.30163e-10 -1.21633e-11 -6.48149e-11)
(-5.30163e-10 -1.21633e-11 -6.48149e-11)
(-6.47085e-11 3.86836e-12 -2.98602e-11)
(-7.46215e-11 -2.2011e-12 -3.61804e-11)
(-1.10971e-10 -1.17869e-11 -4.49249e-11)
(-1.63569e-10 -1.83599e-11 -5.13757e-11)
(-2.54082e-10 -2.17743e-11 -5.65924e-11)
(-3.45408e-10 -1.64256e-11 -5.5118e-11)
(-3.45408e-10 -1.64256e-11 -5.5118e-11)
)
;
    }
    procBoundary6to4
    {
        type            processor;
        value           nonuniform List<vector> 
27
(
(2.36384e-14 1.01104e-11 7.84708e-12)
(2.30855e-12 2.7549e-13 -1.37456e-12)
(-1.33054e-11 -1.82548e-11 -1.97227e-11)
(-7.22642e-11 -4.02701e-11 -3.77399e-11)
(-1.73581e-10 -5.27973e-11 -5.97411e-11)
(-3.47481e-10 -5.71213e-11 -6.96331e-11)
(-5.63025e-10 -4.50655e-11 -6.89878e-11)
(-8.48206e-10 -2.4778e-11 -5.29474e-11)
(-1.15179e-09 3.23629e-12 -3.48904e-11)
(4.52587e-12 -1.04528e-12 5.02097e-12)
(7.36689e-12 -8.6309e-12 -2.13804e-12)
(-1.35777e-12 -1.98679e-11 -1.53037e-11)
(-4.26143e-11 -3.14766e-11 -2.97145e-11)
(-1.11853e-10 -3.93229e-11 -4.36262e-11)
(-2.32351e-10 -4.5213e-11 -5.31956e-11)
(-3.80605e-10 -3.92609e-11 -5.31287e-11)
(-5.68908e-10 -2.27664e-11 -4.58156e-11)
(-7.5272e-10 -3.13849e-12 -3.0784e-11)
(3.89508e-12 -4.64008e-12 2.32634e-12)
(6.33385e-12 -1.15416e-11 -3.24118e-12)
(-2.16751e-13 -1.92455e-11 -1.2673e-11)
(-3.16479e-11 -2.73822e-11 -2.35764e-11)
(-8.80947e-11 -3.37652e-11 -3.36818e-11)
(-1.8168e-10 -3.95475e-11 -3.98946e-11)
(-2.94353e-10 -3.77404e-11 -4.19018e-11)
(-4.32194e-10 -2.82676e-11 -3.51988e-11)
(-5.60089e-10 -6.89793e-12 -2.42326e-11)
)
;
    }
    procBoundary6to7
    {
        type            processor;
        value           nonuniform List<vector> 
12
(
(-1.46814e-09 8.16106e-11 -2.56252e-11)
(-1.00494e-09 1.10715e-10 -2.74009e-11)
(-8.24522e-10 1.14282e-10 -2.14508e-11)
(-1.00521e-09 6.20173e-11 -1.63062e-11)
(-7.38449e-10 8.80461e-11 -1.79688e-11)
(-6.28852e-10 9.35719e-11 -1.20239e-11)
(-7.23581e-10 3.77544e-11 -1.7873e-11)
(-5.72385e-10 5.92588e-11 -1.5035e-11)
(-5.07342e-10 6.51098e-11 -1.09857e-11)
(-5.79703e-10 2.67117e-11 -1.1864e-11)
(-4.84676e-10 4.59289e-11 -6.46786e-12)
(-4.49723e-10 5.07857e-11 -2.72107e-12)
)
;
    }
}


// ************************************************************************* //
