/*--------------------------------*- C++ -*----------------------------------*\
| =========                 |                                                 |
| \\      /  F ield         | OpenFOAM: The Open Source CFD Toolbox           |
|  \\    /   O peration     | Version:  4.x                                   |
|   \\  /    A nd           | Web:      www.OpenFOAM.org                      |
|    \\/     M anipulation  |                                                 |
\*---------------------------------------------------------------------------*/
FoamFile
{
    version     2.0;
    format      ascii;
    class       volScalarField;
    location    "46";
    object      p_rgh;
}
// * * * * * * * * * * * * * * * * * * * * * * * * * * * * * * * * * * * * * //

dimensions      [1 -1 -2 0 0 0 0];

internalField   nonuniform List<scalar> 
87
(
81.7783
37.742
81.2728
88.3018
38.0417
81.2883
111.742
93.5291
104.424
75.9769
96.6984
57.9467
88.8158
40.144
81.4932
111.139
93.2976
103.998
75.5033
96.5387
57.2704
89.0701
39.0191
81.7029
110.524
93.0117
103.437
75.395
96.1343
57.2088
88.7307
39.0833
81.7793
111.53
93.4786
104.214
75.633
96.6687
57.5399
89.1555
39.2519
81.8611
110.898
93.2033
103.641
75.4227
96.1594
57.2753
88.7559
38.9134
81.5377
110.373
92.9444
103.238
75.3097
95.8586
57.134
88.5208
38.8725
81.4208
111.033
93.2976
103.777
75.5789
96.2355
57.4855
88.7401
39.0744
81.5191
110.592
93.0858
103.409
75.4308
95.9713
57.2113
88.5669
38.9964
81.4084
110.182
92.942
103.085
75.3234
95.763
57.2586
88.4138
39.1467
81.4262
)
;

boundaryField
{
    inlet
    {
        type            fixedFluxPressure;
        gradient        nonuniform List<scalar> 9(-4.40135e-07 -1.07468e-07 -2.11732e-08 -1.61726e-07 -8.46974e-08 2.44498e-07 -2.22625e-07 3.57644e-08 6.16157e-07);
        value           nonuniform List<scalar> 9(111.742 111.139 110.524 111.53 110.898 110.373 111.033 110.592 110.182);
    }
    outlet
    {
        type            fixedValue;
        value           nonuniform 0();
    }
    wall
    {
        type            fixedFluxPressure;
        gradient        nonuniform List<scalar> 
57
(
1.79561e-07
-1.00635e-07
-3.49893e-08
6.7734e-07
3.83162e-07
2.72976e-07
3.49093e-08
2.12566e-07
9.75117e-07
3.43418e-07
5.20578e-07
-2.61533e-07
-9.95076e-08
-1.2139e-08
1.12033e-07
3.24386e-07
1.45622e-07
1.57441e-07
5.05385e-07
9.57896e-07
1.28914e-07
1.15797e-06
3.39011e-07
1.75799e-06
1.10852e-06
-1.13464e-06
-1.56873e-06
-1.74714e-07
-1.95148e-07
-5.67045e-07
-1.20232e-06
-4.29256e-07
-6.15697e-07
-6.49839e-07
-1.9061e-06
-1.01032e-06
-2.40334e-06
-1.20033e-06
-8.2708e-07
-1.08816e-06
-8.59033e-07
-4.10931e-07
-4.2403e-06
-2.37756e-06
-1.3367e-06
-6.00504e-07
-1.8156e-06
-1.33068e-06
-6.77728e-07
-1.08504e-06
-6.76137e-06
-2.48539e-06
-1.02253e-06
-1.49904e-06
-3.54074e-06
-2.43075e-07
4.61326e-07
)
;
        value           nonuniform List<scalar> 
57
(
111.033
110.592
110.182
93.2976
93.0858
92.942
103.777
103.409
103.085
75.5789
75.4308
75.3234
96.2355
95.9713
95.763
57.4855
57.2113
57.2586
88.7401
88.5669
88.4138
39.0744
38.9964
39.1467
81.5191
81.4084
81.4262
110.524
110.373
110.182
93.0117
92.9444
92.942
103.437
103.238
103.085
75.395
75.3097
75.3234
96.1343
95.8586
95.763
57.2088
57.134
57.2586
88.3018
88.7307
88.5208
88.4138
38.0417
39.0833
38.8725
39.1467
81.2883
81.7793
81.4208
81.4262
)
;
    }
    procBoundary6to0
    {
        type            processor;
        value           uniform 81.627;
    }
    procBoundary6to2
    {
        type            processor;
        value           nonuniform List<scalar> 
32
(
81.4361
38.1872
81.6077
88.3765
38.2608
81.4648
111.126
93.3145
103.987
75.2578
96.5383
57.0523
89.0838
38.778
38.778
38.778
110.52
92.8643
103.347
74.8243
95.8912
56.4653
88.4493
88.4493
88.4493
109.983
92.6193
102.927
74.7296
95.593
56.484
56.484
)
;
    }
    procBoundary6to4
    {
        type            processor;
        value           nonuniform List<scalar> 
27
(
111.407
93.6058
104.219
75.7042
96.612
57.5158
88.9188
39.2181
81.3625
111.45
93.4987
104.168
75.6657
96.5118
57.2702
88.9172
38.706
81.5952
111.101
93.1903
103.73
75.4511
96.0778
57.044
88.4522
38.7112
81.2986
)
;
    }
    procBoundary6to7
    {
        type            processor;
        value           nonuniform List<scalar> 
12
(
20.5884
18.8216
19.3738
22.4845
20.8139
20.9024
21.012
20.3642
20.5
20.913
20.5507
20.8779
)
;
    }
}


// ************************************************************************* //
