/*--------------------------------*- C++ -*----------------------------------*\
| =========                 |                                                 |
| \\      /  F ield         | OpenFOAM: The Open Source CFD Toolbox           |
|  \\    /   O peration     | Version:  4.x                                   |
|   \\  /    A nd           | Web:      www.OpenFOAM.org                      |
|    \\/     M anipulation  |                                                 |
\*---------------------------------------------------------------------------*/
FoamFile
{
    version     2.0;
    format      ascii;
    class       volVectorField;
    location    "46";
    object      Urel;
}
// * * * * * * * * * * * * * * * * * * * * * * * * * * * * * * * * * * * * * //

dimensions      [0 1 -1 0 0 0 0];

internalField   nonuniform List<vector> 
87
(
(-0.0199189 -4.06001e-05 0.000268423)
(-0.0193633 -0.000146003 0.000397913)
(-0.0209646 -0.000107768 0.000346466)
(-0.0220731 -0.000219347 0.000518626)
(-0.020751 -0.000115363 0.000477704)
(-0.0221046 -4.99107e-05 0.000434561)
(-0.0229151 -0.000205687 0.00048638)
(-0.0205624 -0.000182302 0.000433527)
(-0.0212888 -0.000188101 0.000408053)
(-0.0191561 -0.00014115 0.000349084)
(-0.0204031 -0.000127047 0.00030561)
(-0.0183094 -8.24855e-05 0.000250884)
(-0.0198885 -5.00143e-05 0.000214503)
(-0.0178562 -1.95948e-05 0.000177859)
(-0.0196165 2.78416e-05 0.000156935)
(-0.023117 -0.000497125 0.000486075)
(-0.0209148 -0.000411678 0.00044799)
(-0.0217377 -0.000440058 0.000431683)
(-0.0198494 -0.000333227 0.000387572)
(-0.0210848 -0.000320728 0.000353051)
(-0.0192302 -0.000224967 0.000305265)
(-0.0207059 -0.000178831 0.000277729)
(-0.0188119 -0.000102141 0.000240635)
(-0.0204812 -2.77293e-05 0.000225834)
(-0.0233332 -0.000525633 0.000494965)
(-0.0213548 -0.000460536 0.0004656)
(-0.0222572 -0.000469602 0.000458094)
(-0.0207388 -0.000377121 0.000429464)
(-0.0219019 -0.000353433 0.000397047)
(-0.0204545 -0.000262401 0.000361609)
(-0.021712 -0.00022251 0.000327624)
(-0.0202341 -0.00011959 0.000315497)
(-0.0215624 -4.07464e-05 0.000285344)
(-0.0230401 -0.000234586 8.93789e-05)
(-0.0208278 -0.000196606 0.000110523)
(-0.0216052 -0.00021118 5.85129e-05)
(-0.0196884 -0.000151346 7.58339e-05)
(-0.0208939 -0.00014258 3.02579e-05)
(-0.0190246 -8.10948e-05 4.71411e-05)
(-0.0204869 -5.81304e-05 2.89311e-05)
(-0.0185924 -8.40313e-06 3.32104e-05)
(-0.0202528 2.06674e-05 3.71108e-05)
(-0.0232294 -0.000493315 0.000110352)
(-0.0211733 -0.000412832 0.00012973)
(-0.0220313 -0.000436257 8.6517e-05)
(-0.0203691 -0.000332335 0.000108088)
(-0.0215533 -0.000328427 6.15533e-05)
(-0.019953 -0.000231548 8.25097e-05)
(-0.0212793 -0.000205752 4.8208e-05)
(-0.0196424 -0.000110813 7.68754e-05)
(-0.0211157 -6.84899e-05 6.56167e-05)
(-0.0234197 -0.000510585 0.000145139)
(-0.0215496 -0.000450105 0.00015988)
(-0.0224968 -0.000448741 0.00012902)
(-0.0211259 -0.000366604 0.000138718)
(-0.0222953 -0.000339028 0.000104554)
(-0.0210077 -0.000259379 0.000121331)
(-0.0222108 -0.000216058 9.47679e-05)
(-0.0209079 -0.000124372 0.000119601)
(-0.0221509 -5.86567e-05 0.000100913)
(-0.0232051 -0.000232925 -5.21793e-05)
(-0.0212137 -0.000188033 -2.52177e-05)
(-0.0220434 -0.00019006 -6.30678e-05)
(-0.0204766 -0.000136776 -3.58057e-05)
(-0.0216097 -0.000113121 -7.58101e-05)
(-0.020151 -5.72146e-05 -5.06519e-05)
(-0.0214035 -1.74189e-05 -8.11707e-05)
(-0.0199403 2.97738e-05 -5.09124e-05)
(-0.0212923 6.69476e-05 -5.70331e-05)
(-0.0233728 -0.000458649 -1.65256e-05)
(-0.0214975 -0.00039071 7.34875e-06)
(-0.0224128 -0.000402089 -1.52711e-05)
(-0.0210262 -0.000318024 6.98006e-06)
(-0.0221864 -0.000294832 -1.75247e-05)
(-0.0208902 -0.000213034 -2.21843e-06)
(-0.0220866 -0.000170815 -1.83101e-05)
(-0.0207803 -7.73852e-05 1.71288e-05)
(-0.0220372 -2.34872e-05 2.21806e-05)
(-0.0235285 -0.000481085 1.98562e-05)
(-0.0217762 -0.000426096 4.11608e-05)
(-0.0227838 -0.000421205 2.39531e-05)
(-0.0215922 -0.000351144 3.84145e-05)
(-0.0227929 -0.000314802 2.45963e-05)
(-0.0216942 -0.000234583 4.39403e-05)
(-0.0228533 -0.000186505 3.38696e-05)
(-0.0217311 -9.41294e-05 7.38304e-05)
(-0.0228797 -2.57617e-05 8.30459e-05)
)
;

boundaryField
{
    inlet
    {
        type            calculated;
        value           nonuniform List<vector> 9((-0.01 -1.23295e-10 1.07916e-10) (-0.01 -2.92873e-11 -2.10989e-11) (-0.01 -2.92559e-11 4.79057e-11) (-0.01 -8.43966e-11 6.21145e-11) (-0.01 -7.5125e-11 -5.637e-12) (-0.01 -2.51737e-11 1.17557e-10) (-0.01 -6.66052e-11 1.69864e-11) (-0.01 -6.35706e-11 -1.73556e-11) (-0.01 -6.11702e-11 -4.76472e-12));
    }
    outlet
    {
        type            calculated;
        value           nonuniform 0();
    }
    wall
    {
        type            calculated;
        value           nonuniform List<vector> 
57
(
(5.77317e-11 -6.66052e-11 1.69864e-11)
(1.68458e-11 -6.35706e-11 -1.73556e-11)
(-1.48449e-10 -6.11702e-11 -4.76472e-12)
(9.67337e-11 -1.02253e-10 4.0162e-11)
(8.78092e-11 -6.60389e-11 2.23336e-11)
(-3.62497e-12 -3.64763e-11 1.54037e-11)
(2.26337e-10 -1.08627e-10 1.11887e-11)
(7.8606e-11 -1.02598e-10 3.35347e-11)
(5.28474e-11 -1.44994e-10 1.49776e-10)
(3.23334e-10 -1.06889e-10 2.68628e-11)
(2.08101e-10 -9.43853e-11 3.11196e-11)
(4.45957e-11 -5.45659e-11 -2.47203e-11)
(4.86144e-10 -1.38133e-10 3.39581e-12)
(3.61566e-10 -1.32588e-10 -1.65444e-12)
(6.92686e-11 -5.2331e-11 2.22643e-11)
(7.26166e-10 -2.01519e-10 3.29646e-11)
(4.77824e-10 -1.84148e-10 3.23692e-12)
(1.69505e-10 -1.02051e-10 3.51928e-12)
(1.07084e-09 -9.68019e-12 1.06677e-10)
(7.47872e-10 -8.9273e-11 1.60617e-10)
(2.0126e-10 -9.35822e-11 2.04547e-11)
(1.25159e-09 -3.91601e-11 7.41944e-11)
(1.52747e-09 -5.47398e-10 -7.352e-15)
(2.04502e-10 -8.01548e-11 1.54519e-10)
(1.4839e-09 1.09925e-10 2.16933e-10)
(1.31748e-09 3.18355e-10 -1.82903e-10)
(6.40332e-10 7.57239e-11 -2.66349e-10)
(1.25026e-11 -2.92559e-11 4.79057e-11)
(-6.75691e-11 -2.51737e-11 1.17557e-10)
(-1.48449e-10 -6.11702e-11 -4.76472e-12)
(6.88215e-11 -6.33247e-11 1.06694e-10)
(6.76167e-11 -7.16821e-12 1.74708e-10)
(-3.62497e-12 -3.64763e-11 1.54037e-11)
(7.05739e-12 -8.49229e-11 4.93614e-11)
(1.13919e-10 -2.66623e-10 3.82201e-10)
(5.28474e-11 -1.44994e-10 1.49776e-10)
(5.92085e-11 -1.33044e-10 1.03151e-10)
(1.0396e-10 -5.96751e-11 1.06673e-10)
(4.45957e-11 -5.45659e-11 -2.47203e-11)
(6.65835e-11 -1.3474e-10 1.08134e-10)
(1.14642e-10 -1.11441e-10 1.23794e-10)
(6.92686e-11 -5.2331e-11 2.22643e-11)
(1.78926e-10 -2.02794e-10 1.45467e-10)
(1.69323e-10 -1.58281e-10 7.2301e-11)
(1.69505e-10 -1.02051e-10 3.51928e-12)
(2.39203e-10 -8.61609e-11 1.87187e-10)
(1.61853e-10 -2.29845e-10 9.46283e-11)
(3.08969e-10 -1.83522e-10 1.25428e-10)
(2.0126e-10 -9.35822e-11 2.04547e-11)
(6.28317e-10 -9.46167e-11 3.2493e-10)
(-1.55394e-10 -3.85099e-10 -1.54248e-10)
(4.3884e-10 -1.80107e-10 3.05638e-10)
(2.04502e-10 -8.01548e-11 1.54519e-10)
(5.9135e-10 -2.58264e-10 1.32736e-10)
(1.53389e-10 -5.37703e-10 -2.02855e-12)
(7.65293e-10 -3.23622e-11 -1.53578e-10)
(6.40332e-10 7.57239e-11 -2.66349e-10)
)
;
    }
    procBoundary6to0
    {
        type            processor;
        value           uniform (-0.0196977 4.00998e-05 0.000261822);
    }
    procBoundary6to2
    {
        type            processor;
        value           nonuniform List<vector> 
32
(
(-0.0206678 9.77598e-06 0.000364372)
(-0.0199053 -0.000123254 0.000492486)
(-0.0216056 -7.44826e-05 0.000421566)
(-0.0226886 -0.000226914 0.000651617)
(-0.0214301 -0.000126249 0.000568147)
(-0.0228393 -6.7905e-05 0.000497859)
(-0.0229729 -0.000213121 0.000903792)
(-0.0206498 -0.000187423 0.000791004)
(-0.0214285 -0.000211233 0.000779348)
(-0.0193627 -0.000158618 0.000643279)
(-0.0206118 -0.000163662 0.000587245)
(-0.0186102 -0.000106038 0.00046634)
(-0.0201654 -9.37861e-05 0.000391349)
(-0.0181455 -4.91851e-05 0.000324195)
(-0.0181455 -4.91851e-05 0.000324195)
(-0.0181455 -4.91851e-05 0.000324195)
(-0.0231589 -0.000480409 0.000880968)
(-0.0210025 -0.000410221 0.000788022)
(-0.0218571 -0.000445722 0.000782203)
(-0.0200674 -0.000346973 0.000673182)
(-0.0213015 -0.000357044 0.000629171)
(-0.0196091 -0.000253511 0.000518458)
(-0.0210582 -0.000239916 0.0004609)
(-0.0210582 -0.000239916 0.0004609)
(-0.0210582 -0.000239916 0.0004609)
(-0.0233616 -0.000506127 0.000866294)
(-0.0214039 -0.000448486 0.000795101)
(-0.0223474 -0.000457076 0.000796686)
(-0.0208839 -0.000375937 0.000716092)
(-0.0220971 -0.000354967 0.000673818)
(-0.0207695 -0.000263568 0.000574677)
(-0.0207695 -0.000263568 0.000574677)
)
;
    }
    procBoundary6to4
    {
        type            processor;
        value           nonuniform List<vector> 
27
(
(-0.022888 0.000139373 0.000496316)
(-0.0205457 0.000106438 0.00043872)
(-0.0212467 0.000116679 0.000408054)
(-0.0191173 9.40513e-05 0.000345654)
(-0.0203194 9.86028e-05 0.000297247)
(-0.0182289 7.36826e-05 0.000237938)
(-0.0197842 6.08668e-05 0.000201937)
(-0.0176919 5.67165e-05 0.000155123)
(-0.0194785 5.64013e-05 0.000120874)
(-0.022994 0.000114034 0.000125186)
(-0.0207579 8.73844e-05 0.000114995)
(-0.0215083 8.76292e-05 6.33664e-05)
(-0.0195528 7.88746e-05 7.1039e-05)
(-0.0207537 7.8971e-05 1.42141e-05)
(-0.018861 7.61804e-05 2.46073e-05)
(-0.0203491 7.42377e-05 -1.86224e-05)
(-0.0184494 7.90094e-05 3.42593e-06)
(-0.0201404 8.63464e-05 -4.36836e-06)
(-0.0231367 9.90853e-05 -3.54498e-05)
(-0.0211013 8.90244e-05 -3.12822e-05)
(-0.0219146 9.84388e-05 -7.79702e-05)
(-0.0202933 9.25797e-05 -5.97708e-05)
(-0.0214516 9.8164e-05 -0.000104649)
(-0.0199762 9.94222e-05 -8.66691e-05)
(-0.0212843 0.000109271 -0.000127047)
(-0.0198689 0.000119605 -8.81094e-05)
(-0.0212586 0.000142713 -0.00010388)
)
;
    }
    procBoundary6to7
    {
        type            processor;
        value           nonuniform List<vector> 
12
(
(-0.0179139 -5.82783e-08 0.000225683)
(-0.0192741 -5.04481e-05 0.000330004)
(-0.0207356 4.05344e-05 0.000436904)
(-0.017645 3.45324e-05 0.000132121)
(-0.0185562 1.5384e-05 0.000199032)
(-0.0199779 3.748e-05 0.000293668)
(-0.0183151 5.40878e-05 4.31282e-05)
(-0.01943 6.85845e-06 8.87055e-05)
(-0.0208004 3.13068e-05 0.000128129)
(-0.0198019 0.000107137 -1.32584e-05)
(-0.0206895 4.31837e-05 7.17143e-05)
(-0.0216953 6.17246e-05 0.000132234)
)
;
    }
}


// ************************************************************************* //
