/*--------------------------------*- C++ -*----------------------------------*\
| =========                 |                                                 |
| \\      /  F ield         | OpenFOAM: The Open Source CFD Toolbox           |
|  \\    /   O peration     | Version:  4.x                                   |
|   \\  /    A nd           | Web:      www.OpenFOAM.org                      |
|    \\/     M anipulation  |                                                 |
\*---------------------------------------------------------------------------*/
FoamFile
{
    version     2.0;
    format      ascii;
    class       volScalarField;
    location    "14";
    object      Deff;
}
// * * * * * * * * * * * * * * * * * * * * * * * * * * * * * * * * * * * * * //

dimensions      [0 2 -1 0 0 0 0];

internalField   nonuniform List<scalar> 
108
(
9.88101e-08
9.85815e-08
9.8417e-08
9.84019e-08
9.83445e-08
9.8315e-08
9.82038e-08
9.81441e-08
9.79645e-08
9.85932e-08
9.84889e-08
9.8324e-08
9.81803e-08
9.81506e-08
9.81528e-08
9.81416e-08
9.81055e-08
9.79188e-08
9.85537e-08
9.83526e-08
9.82543e-08
9.80977e-08
9.80954e-08
9.80955e-08
9.80467e-08
9.79218e-08
9.79965e-08
9.85784e-08
9.84069e-08
9.82175e-08
9.81514e-08
9.80257e-08
9.80032e-08
9.7872e-08
9.79986e-08
9.79932e-08
9.8781e-08
9.86262e-08
9.84089e-08
9.82572e-08
9.82339e-08
9.82611e-08
9.82334e-08
9.80161e-08
9.78829e-08
9.86561e-08
9.84732e-08
9.83601e-08
9.82264e-08
9.81813e-08
9.81418e-08
9.80739e-08
9.79425e-08
9.78595e-08
9.86124e-08
9.83779e-08
9.81841e-08
9.80684e-08
9.80059e-08
9.7987e-08
9.79664e-08
9.79223e-08
9.79101e-08
9.84259e-08
9.82941e-08
9.81972e-08
9.7977e-08
9.79057e-08
9.79081e-08
9.78e-08
9.78767e-08
9.79061e-08
9.87794e-08
9.85605e-08
9.85445e-08
9.83192e-08
9.8249e-08
9.80671e-08
9.80846e-08
9.8002e-08
9.79735e-08
9.86467e-08
9.83551e-08
9.83789e-08
9.8291e-08
9.81877e-08
9.80554e-08
9.80547e-08
9.80155e-08
9.79147e-08
9.85472e-08
9.83065e-08
9.81874e-08
9.80892e-08
9.80838e-08
9.79897e-08
9.79957e-08
9.79331e-08
9.7949e-08
9.83799e-08
9.82938e-08
9.8221e-08
9.80064e-08
9.79452e-08
9.78279e-08
9.80026e-08
9.80173e-08
9.79696e-08
)
;

boundaryField
{
    inlet
    {
        type            calculated;
        value           uniform 0;
    }
    outlet
    {
        type            calculated;
        value           nonuniform 0();
    }
    wall
    {
        type            calculated;
        value           uniform 0;
    }
    procBoundary4to0
    {
        type            processor;
        value           uniform 0;
    }
    procBoundary4to5
    {
        type            processor;
        value           uniform 0;
    }
    procBoundary4to6
    {
        type            processor;
        value           uniform 0;
    }
}


// ************************************************************************* //
