/*--------------------------------*- C++ -*----------------------------------*\
| =========                 |                                                 |
| \\      /  F ield         | OpenFOAM: The Open Source CFD Toolbox           |
|  \\    /   O peration     | Version:  4.x                                   |
|   \\  /    A nd           | Web:      www.OpenFOAM.org                      |
|    \\/     M anipulation  |                                                 |
\*---------------------------------------------------------------------------*/
FoamFile
{
    version     2.0;
    format      ascii;
    class       volScalarField;
    location    "14";
    object      QPartFluid;
}
// * * * * * * * * * * * * * * * * * * * * * * * * * * * * * * * * * * * * * //

dimensions      [1 -1 -3 0 0 0 0];

internalField   nonuniform List<scalar> 
108
(
4.85185e+09
7.16416e+09
8.3089e+09
5.98896e+09
7.03814e+09
5.99525e+09
8.785e+09
6.88811e+09
9.55737e+09
6.96866e+09
7.3606e+09
9.27942e+09
1.00776e+10
1.00667e+10
8.60254e+09
7.9927e+09
5.81375e+09
1.10971e+10
6.61983e+09
1.03536e+10
8.26007e+09
9.54622e+09
8.12981e+09
6.53543e+09
7.39346e+09
1.08163e+10
6.73659e+09
3.45559e+09
6.78548e+09
9.33789e+09
5.83846e+09
8.82086e+09
6.94091e+09
1.10183e+10
6.21977e+09
7.01116e+09
4.99514e+09
5.52303e+09
7.94616e+09
8.32225e+09
8.40744e+09
5.51334e+09
5.43048e+09
7.69609e+09
9.50418e+09
6.1628e+09
7.6605e+09
7.4529e+09
7.62307e+09
7.64356e+09
6.86449e+09
8.41615e+09
9.30555e+09
1.0417e+10
4.13643e+09
7.41105e+09
9.93276e+09
8.43643e+09
9.62228e+09
8.44286e+09
8.20457e+09
7.49712e+09
8.59724e+09
6.15667e+09
8.63033e+09
7.47701e+09
9.79638e+09
1.04409e+10
7.6944e+09
1.17412e+10
8.62205e+09
8.09624e+09
4.48727e+09
6.36587e+09
4.38698e+09
6.03382e+09
6.20123e+09
7.89859e+09
7.33278e+09
6.8707e+09
8.00901e+09
4.81946e+09
9.06981e+09
7.01451e+09
5.86111e+09
7.33471e+09
7.65345e+09
7.22403e+09
6.20333e+09
8.47906e+09
5.16453e+09
7.57861e+09
8.3704e+09
7.16701e+09
6.71451e+09
6.98414e+09
7.30666e+09
8.0555e+09
7.02344e+09
7.15978e+09
7.09992e+09
6.62229e+09
8.07096e+09
8.32721e+09
9.59462e+09
4.92217e+09
5.20818e+09
7.06486e+09
)
;

boundaryField
{
    inlet
    {
        type            calculated;
        value           uniform 0;
    }
    outlet
    {
        type            calculated;
        value           nonuniform 0();
    }
    wall
    {
        type            calculated;
        value           uniform 0;
    }
    procBoundary4to0
    {
        type            processor;
        value           nonuniform List<scalar> 
36
(
4.27243e+09
5.04609e+09
6.66126e+09
5.22875e+09
6.95404e+09
7.79338e+09
5.80085e+09
4.4399e+09
6.0654e+09
5.07458e+09
9.64415e+09
9.02945e+09
8.10324e+09
7.1738e+09
6.82263e+09
1.039e+10
7.56287e+09
6.88059e+09
5.14072e+09
5.7097e+09
9.01556e+09
6.38091e+09
8.76359e+09
8.92185e+09
8.26494e+09
5.31451e+09
9.43379e+09
4.79893e+09
6.81879e+09
9.61879e+09
1.05518e+10
5.48997e+09
1.0095e+10
8.50891e+09
5.79708e+09
2.60289e+09
)
;
    }
    procBoundary4to5
    {
        type            processor;
        value           nonuniform List<scalar> 
12
(
6.72385e+09
7.96749e+09
8.41731e+09
1.00642e+10
7.4548e+09
6.22717e+09
7.6953e+09
5.37845e+09
2.46887e+09
6.67993e+09
6.31107e+09
7.3868e+09
)
;
    }
    procBoundary4to6
    {
        type            processor;
        value           nonuniform List<scalar> 
27
(
9.8645e+09
8.98799e+09
5.99374e+09
8.11057e+09
1.08386e+10
5.94142e+09
8.19271e+09
6.30036e+09
9.6167e+09
7.27292e+09
9.08226e+09
9.59456e+09
8.82691e+09
6.62971e+09
8.08375e+09
7.89208e+09
6.42037e+09
9.47725e+09
4.84864e+09
5.48982e+09
7.32918e+09
7.06419e+09
7.09689e+09
6.56189e+09
1.02905e+10
9.0142e+09
4.50824e+09
)
;
    }
}


// ************************************************************************* //
