/*--------------------------------*- C++ -*----------------------------------*\
| =========                 |                                                 |
| \\      /  F ield         | OpenFOAM: The Open Source CFD Toolbox           |
|  \\    /   O peration     | Version:  4.x                                   |
|   \\  /    A nd           | Web:      www.OpenFOAM.org                      |
|    \\/     M anipulation  |                                                 |
\*---------------------------------------------------------------------------*/
FoamFile
{
    version     2.0;
    format      ascii;
    class       volVectorField;
    location    "14";
    object      Urel;
}
// * * * * * * * * * * * * * * * * * * * * * * * * * * * * * * * * * * * * * //

dimensions      [0 1 -1 0 0 0 0];

internalField   nonuniform List<vector> 
108
(
(-0.0228721 0.000591368 0.000724715)
(-0.021215 0.000536815 0.000680211)
(-0.0220031 0.00055937 0.000670957)
(-0.0207342 0.000484859 0.000582268)
(-0.0217559 0.000508268 0.000507941)
(-0.0206146 0.000474502 0.000397598)
(-0.0217862 0.000504466 0.000262874)
(-0.0207221 0.000434598 9.5169e-05)
(-0.0219778 0.000430685 -0.000109166)
(-0.0227018 0.000575032 0.000710835)
(-0.0208513 0.000509103 0.000657687)
(-0.0215495 0.000535909 0.000637863)
(-0.0199463 0.00044596 0.00053623)
(-0.0210164 0.000471351 0.000451691)
(-0.0194527 0.000424321 0.000312803)
(-0.0207826 0.000458355 0.000170039)
(-0.0192325 0.000342932 1.76382e-05)
(-0.020709 0.00032073 -0.000150932)
(-0.0225309 0.000381028 0.000702661)
(-0.020563 0.000339879 0.000641439)
(-0.0211588 0.000348602 0.000606376)
(-0.0193676 0.000300695 0.00049261)
(-0.0204136 0.000311467 0.000392955)
(-0.0186854 0.000315603 0.000246875)
(-0.020072 0.00036034 8.84195e-05)
(-0.0184595 0.000198971 -3.77674e-05)
(-0.019788 0.000140048 -0.000194309)
(-0.0224513 0.000117116 0.000703138)
(-0.0204399 9.59371e-05 0.000633505)
(-0.0209759 9.73178e-05 0.000597573)
(-0.0191161 0.000125284 0.00048744)
(-0.0200625 0.000172781 0.000389067)
(-0.0182323 0.000251 0.000239753)
(-0.0193936 0.000400302 9.09594e-05)
(-0.0175179 -4.84758e-05 -8.84076e-06)
(-0.0190856 -0.000301489 -0.000162067)
(-0.0229234 0.000575489 0.000370711)
(-0.0213349 0.000523556 0.00035944)
(-0.022147 0.000531501 0.000328393)
(-0.0209626 0.000466459 0.000314451)
(-0.0219997 0.00048518 0.000234025)
(-0.0209441 0.000454416 0.000160062)
(-0.0220918 0.000465826 1.32727e-05)
(-0.0211174 0.000410931 -8.56197e-05)
(-0.0223838 0.000407228 -0.000245982)
(-0.0227735 0.000551854 0.000340047)
(-0.021031 0.00049271 0.000328871)
(-0.0217573 0.000502851 0.000271631)
(-0.0203238 0.000421078 0.000255566)
(-0.0213628 0.000434635 0.000153564)
(-0.0200004 0.000390443 8.30044e-05)
(-0.0212377 0.000394029 -8.81948e-05)
(-0.0199019 0.000327442 -0.000143427)
(-0.0213106 0.000331321 -0.0002998)
(-0.0226114 0.000382844 0.000314283)
(-0.0207636 0.000334389 0.00029946)
(-0.0214 0.000344165 0.000232942)
(-0.0197963 0.000291091 0.000202617)
(-0.0208105 0.000297876 8.92188e-05)
(-0.019289 0.000280823 1.02663e-05)
(-0.0205617 0.000283212 -0.000162253)
(-0.019096 0.000217598 -0.000170217)
(-0.0204943 0.000199769 -0.000278356)
(-0.0225282 0.000104006 0.0003095)
(-0.0206156 7.91098e-05 0.0002849)
(-0.0211993 7.88099e-05 0.000220552)
(-0.0194947 8.26099e-05 0.000184046)
(-0.0204686 9.95456e-05 6.55417e-05)
(-0.0188167 0.000132048 -3.2879e-05)
(-0.020035 0.00015167 -0.000204485)
(-0.0183871 4.59626e-05 -0.000130126)
(-0.0198499 1.49696e-05 -0.000219475)
(-0.0230209 0.000555375 0.000244231)
(-0.0215194 0.000506158 0.00023894)
(-0.0223746 0.000498051 0.00022089)
(-0.0213212 0.000430353 0.000216734)
(-0.0223335 0.000432766 0.000160364)
(-0.0214232 0.000410262 8.33737e-05)
(-0.0225536 0.000411074 -3.08699e-05)
(-0.0217568 0.000384093 -0.000120182)
(-0.0230044 0.000381817 -0.00022245)
(-0.0228896 0.000538659 0.000217864)
(-0.021269 0.000482259 0.000211693)
(-0.0220495 0.000481748 0.000174363)
(-0.0208412 0.000399484 0.000160848)
(-0.0218563 0.000400591 8.573e-05)
(-0.0207989 0.000369517 1.19086e-05)
(-0.0219567 0.000365181 -0.00011353)
(-0.0210287 0.000326456 -0.000171078)
(-0.0222865 0.000338256 -0.000265308)
(-0.0227303 0.000369834 0.000203388)
(-0.021021 0.000324555 0.00019203)
(-0.0217221 0.000333053 0.000151393)
(-0.0203676 0.000282527 0.000128077)
(-0.0213657 0.00028239 4.93824e-05)
(-0.0201843 0.000269233 -2.67568e-05)
(-0.0213787 0.000262292 -0.000144981)
(-0.0203616 0.00023979 -0.000182365)
(-0.0215657 0.00025435 -0.000252218)
(-0.0226517 8.57804e-05 0.000176443)
(-0.020901 7.85551e-05 0.000168895)
(-0.021551 8.84161e-05 0.000124557)
(-0.0201241 9.3896e-05 0.000100512)
(-0.021089 0.000122429 1.05919e-05)
(-0.0198161 0.000147463 -7.16431e-05)
(-0.0209885 0.000172677 -0.000196599)
(-0.0198787 9.49356e-05 -0.000176451)
(-0.021044 9.44742e-05 -0.000212029)
)
;

boundaryField
{
    inlet
    {
        type            calculated;
        value           nonuniform List<vector> 
12
(
(-0.00999752 1.53544e-06 -2.97432e-06)
(-0.00999844 7.23824e-06 4.25577e-07)
(-0.0100001 -6.72746e-07 4.75893e-06)
(-0.0099978 -1.87336e-06 6.18126e-06)
(-0.00999897 1.07843e-07 -1.39172e-06)
(-0.00999978 -2.60086e-06 2.13754e-07)
(-0.0100028 -1.6776e-06 6.79241e-06)
(-0.00999817 -5.63954e-06 -2.57685e-06)
(-0.00999945 -1.48172e-06 -4.07256e-07)
(-0.00999929 -4.5596e-06 -5.93932e-07)
(-0.0100047 -1.5589e-05 1.31854e-05)
(-0.0100035 -2.89923e-05 -7.13762e-06)
)
;
    }
    outlet
    {
        type            calculated;
        value           nonuniform 0();
    }
    wall
    {
        type            calculated;
        value           nonuniform List<vector> 
63
(
(5.5268e-07 -1.48172e-06 -4.07256e-07)
(7.14473e-07 -4.5596e-06 -5.93932e-07)
(-4.66472e-06 -1.5589e-05 1.31854e-05)
(-3.48828e-06 -2.89923e-05 -7.13762e-06)
(7.54956e-07 -3.58845e-06 2.17282e-07)
(9.01782e-07 -6.9711e-06 5.01456e-07)
(-2.3945e-06 -1.1657e-05 4.25189e-06)
(-2.26266e-06 -1.56579e-05 4.6111e-07)
(-5.22178e-07 -1.9326e-06 9.4306e-08)
(-1.63128e-07 -6.87955e-06 -2.03257e-07)
(-4.87304e-08 -1.01415e-05 5.87599e-07)
(-1.36474e-06 -1.56046e-05 2.92076e-06)
(-2.53409e-06 -7.19678e-07 -1.02098e-07)
(-1.67248e-06 -4.99182e-06 -5.55984e-07)
(-3.53139e-06 -1.07757e-05 -1.3071e-06)
(-8.88476e-07 -1.99014e-05 4.31615e-07)
(-1.75411e-06 -3.6538e-07 -1.04169e-07)
(-2.42967e-06 -1.66534e-06 -4.11029e-07)
(-1.39905e-05 -5.63754e-06 -4.14436e-06)
(-3.03716e-07 -1.23909e-05 1.10505e-06)
(-2.36487e-06 -7.30445e-07 -1.11284e-07)
(-1.03435e-05 -1.03689e-06 7.92083e-07)
(-1.79169e-05 -2.23923e-06 6.20064e-07)
(-4.56666e-06 -6.221e-06 -3.70107e-06)
(-3.35111e-06 4.00814e-07 3.94395e-07)
(-5.97023e-06 9.20688e-07 4.59685e-07)
(-6.81306e-06 3.92307e-07 9.76959e-07)
(-3.83997e-06 -3.71256e-06 2.76169e-08)
(-2.99866e-06 1.46246e-06 -1.54066e-07)
(-4.88015e-06 1.62995e-06 1.09925e-06)
(-7.25308e-06 -1.16075e-07 -2.4497e-06)
(2.74881e-06 -1.106e-05 -2.343e-06)
(-4.50537e-06 -1.14817e-07 -3.3238e-07)
(-6.31676e-06 -3.79689e-07 2.03639e-06)
(-5.61418e-06 1.88038e-07 -2.03306e-06)
(1.61414e-06 -2.75831e-06 -1.97078e-08)
(2.47606e-06 1.53544e-06 -2.97432e-06)
(1.02739e-06 1.07843e-07 -1.39172e-06)
(5.5268e-07 -1.48172e-06 -4.07256e-07)
(4.99606e-07 -1.12342e-06 1.17504e-06)
(5.37875e-07 -1.36787e-06 -2.09021e-07)
(7.54956e-07 -3.58845e-06 2.17282e-07)
(-2.14852e-06 -2.63487e-06 -3.8365e-06)
(-3.75011e-08 -2.52457e-06 -2.00652e-06)
(-5.22178e-07 -1.9326e-06 9.4306e-08)
(-1.22251e-06 -2.5468e-06 -3.80907e-06)
(-1.82025e-06 -2.48639e-06 -9.32542e-07)
(-2.53409e-06 -7.19678e-07 -1.02098e-07)
(-3.64011e-06 -4.0577e-06 5.2871e-07)
(-1.81533e-06 -1.7626e-06 -2.91763e-07)
(-1.75411e-06 -3.6538e-07 -1.04169e-07)
(-5.63816e-06 6.71631e-07 1.87312e-06)
(-2.3016e-06 -1.28451e-07 8.44177e-08)
(-2.36487e-06 -7.30445e-07 -1.11284e-07)
(-1.16315e-05 8.70015e-07 9.7108e-06)
(-4.46906e-06 2.40808e-06 5.99805e-07)
(-3.35111e-06 4.00814e-07 3.94395e-07)
(-1.287e-05 -2.58901e-07 1.17725e-06)
(-7.45093e-06 2.69246e-06 -2.00851e-07)
(-2.99866e-06 1.46246e-06 -1.54066e-07)
(-9.01577e-06 1.24721e-06 -5.28387e-06)
(-6.83411e-06 1.77546e-06 1.5169e-06)
(-4.50537e-06 -1.14817e-07 -3.3238e-07)
)
;
    }
    procBoundary4to0
    {
        type            processor;
        value           nonuniform List<vector> 
36
(
(-0.0229072 0.000574575 0.0010732)
(-0.0212837 0.000522985 0.00100314)
(-0.0221103 0.000540353 0.000998972)
(-0.0209127 0.000468538 0.00086945)
(-0.0219353 0.000495712 0.000787671)
(-0.0208758 0.000480551 0.000623065)
(-0.022078 0.000504096 0.000458041)
(-0.0210829 0.000436005 0.000233916)
(-0.0223444 0.000418164 -3.39889e-05)
(-0.0227488 0.000547623 0.00108204)
(-0.0209437 0.00048812 0.000995262)
(-0.0216865 0.000514364 0.000986986)
(-0.0201908 0.000427939 0.000826735)
(-0.0212493 0.000456298 0.000730872)
(-0.0198138 0.000426352 0.000539205)
(-0.0210791 0.000453476 0.000361502)
(-0.0196552 0.000373665 0.000138679)
(-0.0210493 0.000368883 -7.42367e-05)
(-0.0225799 0.000370196 0.00108254)
(-0.020672 0.000329283 0.000989635)
(-0.0213095 0.000346671 0.000963642)
(-0.0196097 0.000285427 0.000793354)
(-0.0206408 0.00029856 0.000678846)
(-0.0189759 0.000287542 0.000479628)
(-0.0202629 0.000302459 0.00027306)
(-0.0186064 0.000226274 5.72422e-05)
(-0.0200286 0.000188395 -0.000191108)
(-0.0225149 9.63945e-05 0.00107816)
(-0.0205481 7.61052e-05 0.000985726)
(-0.0211421 6.97967e-05 0.000954321)
(-0.0193464 6.61756e-05 0.000789342)
(-0.0203447 7.3209e-05 0.000670811)
(-0.0185941 0.000108128 0.000489408)
(-0.0198104 0.000119858 0.000240368)
(-0.0180388 2.00769e-05 3.89173e-05)
(-0.0195177 -6.49152e-05 -0.000185651)
)
;
    }
    procBoundary4to5
    {
        type            processor;
        value           nonuniform List<vector> 
12
(
(-0.0208939 0.000347502 -0.000256535)
(-0.0190303 0.000272734 -0.00022635)
(-0.0179861 0.000152985 -0.000218914)
(-0.0173697 -7.0854e-05 -0.00015688)
(-0.0214322 0.000356681 -0.000290345)
(-0.0199494 0.000299204 -0.000260811)
(-0.0190149 0.000231469 -0.000238841)
(-0.0183062 6.71866e-05 -0.000165656)
(-0.0222752 0.000363477 -0.000244684)
(-0.0214381 0.000341007 -0.000241662)
(-0.0205774 0.000302315 -0.000214476)
(-0.0199706 0.000148812 -0.000188341)
)
;
    }
    procBoundary4to6
    {
        type            processor;
        value           nonuniform List<vector> 
27
(
(-0.0224517 -0.000216146 0.000702668)
(-0.0204538 -0.000197956 0.000635681)
(-0.0209449 -0.000213157 0.000605832)
(-0.0191021 -0.000166543 0.000498744)
(-0.0198746 -0.000162959 0.000409952)
(-0.0178985 -0.00012615 0.000267728)
(-0.0185825 -0.000153699 0.000150358)
(-0.0160654 -0.000213475 0.0001288)
(-0.0186835 -0.000173138 -7.74884e-05)
(-0.0225613 -0.00022907 0.000276736)
(-0.0206818 -0.000200736 0.00027443)
(-0.0212803 -0.000219055 0.000215354)
(-0.0196326 -0.000170218 0.000152229)
(-0.0205835 -0.000164344 1.55519e-05)
(-0.0189741 -0.000119617 -0.000156955)
(-0.0200849 -0.000123532 -0.000417677)
(-0.0184086 -0.000104426 3.88194e-06)
(-0.0199081 -7.94449e-05 0.000144394)
(-0.0227087 -0.00023454 0.000168446)
(-0.0209917 -0.000196754 0.000182939)
(-0.021654 -0.000206466 0.000159394)
(-0.020249 -0.000158893 0.000137664)
(-0.0212136 -0.00014177 7.03978e-05)
(-0.0199197 -9.084e-05 -3.79589e-05)
(-0.0211657 -7.44722e-05 -0.000169529)
(-0.0200729 -5.13063e-05 -9.67016e-05)
(-0.0210832 -3.86728e-05 -0.000109721)
)
;
    }
}


// ************************************************************************* //
