/*--------------------------------*- C++ -*----------------------------------*\
| =========                 |                                                 |
| \\      /  F ield         | OpenFOAM: The Open Source CFD Toolbox           |
|  \\    /   O peration     | Version:  4.x                                   |
|   \\  /    A nd           | Web:      www.OpenFOAM.org                      |
|    \\/     M anipulation  |                                                 |
\*---------------------------------------------------------------------------*/
FoamFile
{
    version     2.0;
    format      ascii;
    class       volVectorField;
    location    "14";
    object      UsPrev;
}
// * * * * * * * * * * * * * * * * * * * * * * * * * * * * * * * * * * * * * //

dimensions      [0 1 -1 0 0 0 0];

internalField   nonuniform List<vector> 
108
(
(-8.78564e-07 -1.92309e-07 -9.28171e-07)
(-2.53518e-06 -1.87288e-06 -3.17296e-06)
(-6.10555e-06 -2.08049e-06 -5.13195e-06)
(-9.3912e-06 -1.44186e-06 -3.51262e-06)
(-1.3224e-05 -1.44525e-06 -4.77898e-06)
(-1.71653e-05 -9.61637e-07 2.96969e-06)
(-1.38083e-05 -1.55006e-06 -1.99499e-05)
(-3.67116e-05 -1.83312e-05 -3.14305e-05)
(-8.41133e-05 -2.66381e-05 1.36223e-05)
(-2.12719e-06 2.89835e-07 -1.84599e-06)
(-5.3493e-06 -1.694e-06 -5.71986e-06)
(-9.29979e-06 2.43896e-07 -5.16668e-06)
(-1.22859e-05 -1.52543e-06 -5.46571e-07)
(-1.3347e-05 9.77859e-07 -3.76021e-06)
(-1.52518e-05 8.27832e-06 -1.89467e-05)
(-9.78326e-06 2.55787e-06 -5.43101e-05)
(-4.22138e-05 -1.16796e-05 -2.80343e-05)
(-0.000109941 -2.38322e-05 -1.66401e-05)
(-2.29417e-06 -8.87841e-07 -1.30981e-06)
(-3.44667e-06 -1.38066e-06 -3.85725e-06)
(-5.62067e-06 -6.89768e-08 -3.44034e-06)
(-9.69845e-06 -3.29004e-06 -1.02055e-06)
(-8.35733e-06 -4.98544e-06 -1.33933e-06)
(-7.07153e-06 6.60236e-07 -6.78965e-06)
(-1.77952e-05 -1.06505e-05 -1.23311e-05)
(-2.4389e-05 -1.38961e-05 -2.90487e-05)
(-5.78374e-05 -2.16308e-06 -1.724e-05)
(-1.64095e-06 -1.1089e-06 -1.49585e-06)
(-4.39563e-06 -2.45953e-06 -2.3894e-06)
(-6.11475e-06 -2.29908e-06 -3.08668e-06)
(-9.80174e-06 -3.26603e-06 -2.82483e-06)
(-9.45475e-06 -8.91079e-06 -1.92423e-06)
(-6.8552e-06 -6.14427e-06 -4.15474e-06)
(-1.80557e-05 -1.07644e-05 1.85414e-06)
(-2.91867e-05 -5.5548e-06 -1.27474e-05)
(-5.02771e-05 -8.11081e-06 2.5271e-06)
(-1.86488e-06 -8.80877e-08 -1.36681e-06)
(-4.37874e-06 4.57907e-08 -3.49814e-06)
(-8.23247e-06 -2.74644e-06 -6.50754e-06)
(-1.13769e-05 -2.86906e-06 -4.2763e-06)
(-1.5105e-05 2.04142e-08 -4.29433e-06)
(-2.03034e-05 -2.71099e-06 -8.34375e-06)
(-1.74303e-05 -1.00102e-06 -2.14212e-05)
(-5.2212e-05 -6.30132e-06 -1.86395e-05)
(-8.40722e-05 -4.4891e-06 -3.749e-06)
(-1.97287e-06 -1.01841e-06 -1.96926e-06)
(-6.46126e-06 -1.35034e-06 -4.71934e-06)
(-9.57792e-06 -2.90394e-06 -5.78751e-06)
(-1.32667e-05 -6.71104e-06 -7.95976e-07)
(-2.36514e-05 -3.69778e-07 -3.43605e-06)
(-3.27411e-05 -3.52599e-06 -2.3645e-05)
(-4.03173e-05 2.00294e-06 -3.77096e-05)
(-5.81696e-05 1.50547e-05 -2.38518e-05)
(-9.86341e-05 3.38945e-06 -3.45079e-05)
(-1.74174e-06 -1.46302e-06 -7.15938e-07)
(-7.25197e-06 -1.49869e-06 -4.76357e-06)
(-8.14232e-06 -2.01352e-06 -2.64688e-06)
(-1.22556e-05 -4.28777e-06 1.28194e-06)
(-1.82085e-05 -1.30504e-06 9.86548e-07)
(-2.25513e-05 -3.5145e-06 -5.30477e-06)
(-3.12415e-05 -6.80172e-06 -1.48632e-05)
(-4.10323e-05 2.02741e-06 -1.72966e-05)
(-6.93119e-05 -2.87209e-06 -2.3153e-05)
(-4.28011e-06 -1.70502e-06 -1.94585e-06)
(-7.07442e-06 -1.95772e-06 -2.9071e-06)
(-9.33766e-06 -1.5867e-06 -4.24752e-06)
(-1.46967e-05 -5.75183e-06 -2.1725e-06)
(-2.20144e-05 -5.45482e-06 -3.78761e-06)
(-2.54896e-05 -4.14735e-06 -3.31085e-06)
(-3.08911e-05 -1.22066e-06 -1.87974e-07)
(-4.18343e-05 -6.31329e-06 -3.69033e-06)
(-4.91574e-05 -9.74054e-06 -7.48495e-06)
(-1.28861e-06 -2.9732e-07 -1.15355e-07)
(-4.32644e-06 -1.23474e-06 -1.05615e-06)
(-4.20279e-06 2.02684e-07 -3.74461e-06)
(-4.24007e-06 -1.70772e-06 -1.01363e-06)
(-5.18945e-06 -1.28769e-07 -1.22969e-06)
(-9.94934e-06 3.82984e-06 -5.8342e-06)
(-1.83434e-05 8.50197e-06 -1.78995e-05)
(-3.84654e-05 6.77595e-07 -1.2831e-05)
(-4.78749e-05 1.30855e-06 2.20955e-07)
(-1.51621e-06 -1.17062e-06 6.59419e-07)
(-5.02373e-06 -9.88722e-07 -1.48675e-06)
(-6.96307e-06 -1.02863e-06 -1.71034e-06)
(-9.69202e-06 -1.31048e-06 7.51377e-08)
(-1.51908e-05 3.13677e-06 -3.17077e-06)
(-1.86646e-05 4.28848e-07 -1.00962e-05)
(-2.7354e-05 2.71793e-06 -8.63046e-06)
(-4.71428e-05 8.57501e-06 -1.58909e-05)
(-4.25986e-05 -7.47531e-07 -1.04395e-05)
(-1.44228e-06 -1.75105e-06 1.26285e-07)
(-6.44136e-06 -2.22383e-06 -8.36015e-07)
(-8.01864e-06 -5.67351e-07 -6.54208e-07)
(-9.63331e-06 -1.53639e-06 2.52875e-06)
(-1.46436e-05 1.79118e-06 1.12853e-07)
(-1.97238e-05 -4.49703e-06 4.93764e-07)
(-2.42433e-05 -9.08254e-06 -5.57798e-06)
(-2.9409e-05 -1.01982e-05 -1.16348e-05)
(-3.90639e-05 -7.8526e-07 -8.08156e-06)
(-2.4658e-06 -1.99043e-06 -9.94809e-07)
(-4.88003e-06 -1.00342e-06 -8.8919e-07)
(-6.23368e-06 1.30962e-06 -2.06725e-06)
(-1.13612e-05 -1.80123e-06 -2.96658e-07)
(-1.74847e-05 -2.2383e-06 -2.07149e-06)
(-2.19022e-05 -4.78516e-06 -4.00603e-06)
(-2.41227e-05 4.44419e-07 2.11893e-07)
(-3.71653e-05 4.28924e-06 6.18731e-06)
(-4.51769e-05 4.71988e-06 -6.485e-07)
)
;

boundaryField
{
    inlet
    {
        type            calculated;
        value           uniform (0 0 0);
    }
    outlet
    {
        type            calculated;
        value           nonuniform 0();
    }
    wall
    {
        type            calculated;
        value           uniform (0 0 0);
    }
    procBoundary4to0
    {
        type            processor;
        value           uniform (0 0 0);
    }
    procBoundary4to5
    {
        type            processor;
        value           uniform (0 0 0);
    }
    procBoundary4to6
    {
        type            processor;
        value           uniform (0 0 0);
    }
}


// ************************************************************************* //
