/*--------------------------------*- C++ -*----------------------------------*\
| =========                 |                                                 |
| \\      /  F ield         | OpenFOAM: The Open Source CFD Toolbox           |
|  \\    /   O peration     | Version:  4.x                                   |
|   \\  /    A nd           | Web:      www.OpenFOAM.org                      |
|    \\/     M anipulation  |                                                 |
\*---------------------------------------------------------------------------*/
FoamFile
{
    version     2.0;
    format      ascii;
    class       volVectorField;
    location    "26";
    object      GField;
}
// * * * * * * * * * * * * * * * * * * * * * * * * * * * * * * * * * * * * * //

dimensions      [1 -2 -1 0 0 0 0];

internalField   nonuniform List<vector> 
87
(
(92.5661 0.554184 -0.603325)
(142.187 1.69723 -1.36992)
(92.1078 3.01353 -0.765961)
(147.887 3.06755 -0.159816)
(89.1222 4.60956 -0.783113)
(156.974 4.19923 2.6039)
(77.8849 6.69662 -1.21283)
(176.987 5.19549 9.3578)
(37.9429 4.67741 -21.6164)
(81.7909 -1.49257 0.192778)
(137.572 -0.91791 -2.7046)
(83.6967 -2.82286 -1.22241)
(143.47 -1.2981 -0.512991)
(80.2967 -6.02532 -0.0828269)
(153.586 -0.869006 4.163)
(67.2437 -14.7228 -1.21886)
(175.524 8.32449 11.1395)
(31.9326 -33.587 -5.72693)
(71.81 -2.70207 -4.75487)
(123.666 -2.84327 -2.41436)
(63.0793 1.31398 -1.65423)
(122.179 2.74166 -0.393377)
(52.5611 -0.290252 -1.29628)
(117.86 1.6905 5.00222)
(36.0931 -5.05433 -3.09137)
(106.734 5.93391 10.8343)
(14.1428 -12.7268 -8.48303)
(61.5959 1.45017 -2.76615)
(120.168 0.514828 -1.35605)
(58.6835 2.24217 -2.60309)
(124.808 2.29229 -1.50893)
(55.8708 3.93586 -3.89914)
(133.123 4.34441 2.01634)
(48.2375 4.41602 -7.38161)
(153.498 4.83216 14.0599)
(27.0257 -2.6199 -31.0737)
(38.7029 -2.32218 -4.9435)
(110.358 0.598401 2.91266)
(41.2893 -2.1025 -0.460917)
(116.88 -0.79621 1.389)
(36.1846 -4.78792 -2.0876)
(125.937 2.28398 8.12507)
(33.2883 -12.8139 -5.4491)
(139.936 12.1642 19.7009)
(22.745 -41.752 -17.7687)
(2.67307 -0.0524506 -0.281999)
(97.8539 -3.84983 8.48715)
(6.81084 0.555799 0.897437)
(99.4469 4.18842 5.06236)
(-0.000950959 -0.000187642 -0.000287396)
(94.4158 3.49041 5.93543)
(1.27656 -0.0997454 -0.462389)
(81.4769 9.59712 18.6758)
(14.4225 -4.46855 -5.06995)
(53.9371 -4.63939 -2.40034)
(113.265 3.62574 -1.87409)
(44.9943 3.09548 -3.06411)
(109.335 3.35491 -1.6338)
(33.897 2.19927 -5.35723)
(109.44 5.28222 0.380176)
(25.6963 2.34911 -10.0324)
(111.007 4.5414 9.91165)
(13.8973 1.67102 -14.4111)
(4.23876 -0.516456 -0.544841)
(107.212 3.3294 -3.43213)
(30.3939 2.8357 -3.5839)
(99.3035 3.78171 -0.0418417)
(8.90096 -2.18326 -2.24548)
(102.996 -0.277856 4.51868)
(16.4788 -9.4845 -7.15961)
(107.016 12.0696 12.9198)
(16.873 -18.8838 -18.7643)
(-21.6253 -24.1714 -8.93936)
(70.9376 -15.8295 -4.24781)
(-4.81143 15.2874 -3.04037)
(85.6477 20.2618 2.33075)
(1.64737 0.258949 -0.448668)
(86.9106 1.63418 2.80608)
(6.22634 -1.46851 -2.00434)
(78.8811 8.33273 12.2183)
(29.4709 -18.9915 -6.42201)
(47.5692 -0.195608 -1.23552)
(107.403 -0.705735 -1.42514)
(43.1571 0.484321 -1.93866)
(16.3586 -0.575238 -0.346516)
(95.4913 0.648747 -6.64724)
(8.2188 0.0883989 -1.33889)
)
;

boundaryField
{
    inlet
    {
        type            calculated;
        value           nonuniform 0();
    }
    outlet
    {
        type            calculated;
        value           nonuniform List<vector> 9((77.8818 9.60088 -44.3699) (66.1679 -69.596 -11.8668) (29.3712 -26.4305 -17.6172) (57.1383 -5.53906 -65.6967) (47.9905 -88.094 -37.4909) (30.5412 -9.46266 -10.7362) (29.6447 3.56449 -30.7406) (36.0762 -40.3756 -40.1199) (63.2241 -40.7425 -13.7772));
    }
    wall
    {
        type            calculated;
        value           uniform (0 0 0);
    }
    procBoundary1to0
    {
        type            processor;
        value           nonuniform List<vector> 
12
(
(135.894 -0.840974 -2.51324)
(127.653 -2.84783 -1.968)
(118.282 -2.46203 -8.0811)
(115.502 -0.0173916 -2.97545)
(106.082 -6.08864 -6.10932)
(94.9883 -1.0175 -8.26267)
(107.726 -5.92893 -2.08977)
(90.7 -7.61923 -2.33725)
(68.4692 -0.109472 -0.854255)
(106.634 -0.557783 -1.54544)
(94.3577 -1.21873 1.23105)
(92.9637 1.22994 5.20129)
)
;
    }
    procBoundary1to3
    {
        type            processor;
        value           nonuniform List<vector> 
27
(
(62.2884 0.113835 -1.48915)
(129.43 -0.423847 -11.438)
(83.6174 2.02662 -5.11868)
(139.123 1.92017 -1.50129)
(74.9062 2.78765 0.78547)
(141.31 1.7138 4.88463)
(59.6451 3.82684 0.578117)
(141.78 -2.5238 13.0117)
(24.0438 3.55992 -4.56284)
(24.3592 0.987492 -11.4645)
(93.7604 -4.11811 -16.7279)
(1.25 0.0939962 0.467897)
(101.11 1.49684 11.6848)
(5.891 0.979514 0.499891)
(108.765 0.745615 9.85514)
(8.05704 2.54689 -2.26453)
(117.608 -6.18689 24.115)
(18.3364 18.7837 -28.0657)
(0.367204 -0.0176184 -0.0414612)
(24.1344 0.200728 1.50464)
(-56.7414 -3.77255 -9.52358)
(69.1104 -0.308969 -0.964891)
(-1.23408 0.26996 -4.20713)
(77.8927 0.573955 3.28271)
(5.68916 1.4471 -6.63803)
(80.5997 -6.80546 12.0154)
(27.2953 7.08158 -22.106)
)
;
    }
    procBoundary1to5
    {
        type            processor;
        value           nonuniform List<vector> 
32
(
(106.628 1.2539 -0.0654514)
(34.4987 0.674342 -0.973322)
(101.671 2.30481 2.1164)
(23.1256 1.89808 1.76641)
(83.5274 2.11655 5.6033)
(15.2059 3.40495 9.79077)
(11.5102 -1.59957 -1.99594)
(94.18 0.806837 3.84862)
(5.90801 -2.1925 -0.813702)
(95.3973 2.7511 0.638184)
(5.75673 -2.84501 -2.00893)
(91.5431 12.6619 11.5083)
(10.1828 -4.9205 -3.90698)
(85.4524 -2.40043 -8.02613)
(2.76804 0.723018 -5.1844)
(83.251 3.79039 -0.382696)
(3.32224 -0.790755 -0.954708)
(82.7077 0.826844 -2.65997)
(2.04015 -0.919615 0.0164265)
(71.4865 6.13488 10.1431)
(31.1706 -7.51583 1.53877)
(40.8798 -1.18303 -0.393186)
(103.489 -0.506568 0.443376)
(106.628 1.2539 -0.0654514)
(11.5102 -1.59957 -1.99594)
(36.4761 -2.55551 1.28834)
(6.75137 -1.40919 0.0312354)
(11.5102 -1.59957 -1.99594)
(85.4524 -2.40043 -8.02613)
(90.7195 1.25991 0.952186)
(85.4524 -2.40043 -8.02613)
(3.86486 -0.388127 0.0455128)
)
;
    }
    procBoundary1to7
    {
        type            processor;
        value           uniform (16.4296 0.124161 3.60798);
    }
}


// ************************************************************************* //
