/*--------------------------------*- C++ -*----------------------------------*\
| =========                 |                                                 |
| \\      /  F ield         | OpenFOAM: The Open Source CFD Toolbox           |
|  \\    /   O peration     | Version:  4.x                                   |
|   \\  /    A nd           | Web:      www.OpenFOAM.org                      |
|    \\/     M anipulation  |                                                 |
\*---------------------------------------------------------------------------*/
FoamFile
{
    version     2.0;
    format      ascii;
    class       volScalarField;
    location    "26";
    object      p;
}
// * * * * * * * * * * * * * * * * * * * * * * * * * * * * * * * * * * * * * //

dimensions      [1 -1 -2 0 0 0 0];

internalField   nonuniform List<scalar> 
87
(
5650.75
5707.32
5631.07
5702.9
5610.47
5699.46
5587.56
5699.21
5559.11
5650.15
5706.81
5630.85
5702.59
5609.55
5699.37
5586.09
5699.26
5557.29
5650.82
5707.7
5632.21
5703.4
5612.27
5698.65
5592.43
5694.89
5573.37
3772.87
3829.86
3753.75
3824.92
3733.04
3820.78
3710.86
3818.65
3685.24
3772.31
3829.7
3752.78
3824.67
3731.81
3820.39
3709.58
3818.5
3685.75
3773
3829.61
3754.46
3824.83
3735.38
3819.71
3717.53
3814.5
3703.1
1895.11
1951.59
1876.2
1947.67
1855.91
1942.64
1835.04
1939.42
1814.82
1894.79
1949.62
1876.09
1947.09
1855.37
1942.21
1834.34
1939.23
1814.55
1896.01
1951.68
1876.05
1949.61
1859.17
1941.75
1841.98
1936.66
1825.31
18.0816
74.211
-0.847726
18.133
74.2278
19.2216
)
;

boundaryField
{
    inlet
    {
        type            calculated;
        value           nonuniform 0();
    }
    outlet
    {
        type            calculated;
        value           nonuniform List<scalar> 9(5633.74 5633.74 5633.74 3755.83 3755.83 3755.83 1877.91 1877.91 1877.91);
    }
    wall
    {
        type            calculated;
        value           nonuniform List<scalar> 
57
(
6589.67
6589.11
6589.77
6646.24
6645.77
6646.65
6569.99
6569.8
6571.16
6641.82
6641.54
6642.35
6549.39
6548.49
6551.2
6638.39
6638.3
6637.57
6526.49
6525
6531.31
6638.12
6638.17
6633.73
6506.84
6494.32
6511.95
5650.75
3772.87
1895.11
18.0816
5707.32
3829.86
1951.59
74.211
5631.07
3753.75
1876.2
-0.847719
5702.9
3824.92
1947.67
5610.47
3733.04
1855.91
5699.46
3820.78
1942.64
5587.56
3710.86
1835.04
5699.21
3818.65
1939.42
5559.11
3685.24
1814.82
)
;
    }
    procBoundary1to0
    {
        type            processor;
        value           nonuniform List<scalar> 
12
(
5712.91
5713.02
5712.74
3835.73
3835.74
3836.56
1956.81
1957.78
1954.67
80.3995
80.5268
80.6571
)
;
    }
    procBoundary1to3
    {
        type            processor;
        value           nonuniform List<scalar> 
27
(
5650.15
5706.15
5629.72
5702.11
5609.65
5699.25
5588.52
5697.83
5567.23
3772.33
3830.28
3751.78
3824.4
3730.53
3819.92
3710.82
3816.94
3690.62
1898.52
1948.44
1868.69
1945.9
1854.86
1944.26
1837.7
1938.05
1823.3
)
;
    }
    procBoundary1to5
    {
        type            processor;
        value           nonuniform List<scalar> 
32
(
69.3377
-20.1457
64.4423
-38.7763
59.6364
-55.292
-0.944353
69.1778
-20.1114
64.1067
-39.4572
60.2756
-56.8751
73.5808
1.29602
69.7768
-15.9999
63.3963
-33.1409
56.8615
-48.449
-1860.17
-1804.15
69.3377
-0.944353
-1880.07
-1859.91
-0.944353
73.5808
-1805.4
73.5808
-1856.78
)
;
    }
    procBoundary1to7
    {
        type            processor;
        value           uniform 18.2156;
    }
}


// ************************************************************************* //
