/*--------------------------------*- C++ -*----------------------------------*\
| =========                 |                                                 |
| \\      /  F ield         | OpenFOAM: The Open Source CFD Toolbox           |
|  \\    /   O peration     | Version:  4.x                                   |
|   \\  /    A nd           | Web:      www.OpenFOAM.org                      |
|    \\/     M anipulation  |                                                 |
\*---------------------------------------------------------------------------*/
FoamFile
{
    version     2.0;
    format      ascii;
    class       volVectorField;
    location    "26";
    object      UsNext;
}
// * * * * * * * * * * * * * * * * * * * * * * * * * * * * * * * * * * * * * //

dimensions      [0 1 -1 0 0 0 0];

internalField   nonuniform List<vector> 
87
(
(-6.18352e-08 -2.20156e-08 -3.45962e-08)
(4.85087e-07 4.96846e-07 4.51218e-08)
(-3.62515e-07 -1.43845e-07 -5.66153e-08)
(-4.41256e-07 -2.81456e-08 -1.37458e-07)
(-2.35864e-07 3.4263e-08 3.54077e-08)
(-1.30917e-07 -6.11168e-08 1.31165e-08)
(-7.22171e-08 -4.35703e-08 -2.20372e-08)
(7.94562e-07 -5.85082e-10 -8.79256e-08)
(4.33398e-07 -3.34908e-08 -1.1362e-07)
(1.80991e-08 -4.63207e-09 -1.94016e-08)
(-4.39612e-08 -5.56058e-08 -2.99195e-08)
(-5.7631e-07 -1.70993e-07 -7.09034e-08)
(-6.07899e-07 -5.45801e-08 -1.57227e-07)
(-4.87956e-07 1.39212e-08 -1.40605e-07)
(-2.4963e-07 -4.39586e-08 -2.04102e-09)
(-1.84726e-07 -2.04067e-08 -5.30061e-08)
(-7.3434e-08 -3.08028e-08 -7.6374e-08)
(-3.70758e-08 -4.83576e-08 -9.60658e-08)
(6.66686e-09 -8.75339e-09 1.81971e-08)
(-7.21878e-08 -2.63234e-08 -3.90492e-08)
(-4.00398e-07 -5.89068e-08 -9.75674e-08)
(-5.50065e-07 -4.17892e-08 -1.51451e-07)
(-4.22924e-07 -5.4076e-08 -9.60603e-08)
(-3.04252e-07 -1.83638e-08 -5.59285e-08)
(-2.31897e-07 -4.08491e-08 -2.32415e-08)
(-6.31405e-08 9.84585e-09 -7.97954e-08)
(7.01874e-09 1.39275e-08 -6.23861e-08)
(-5.36568e-08 5.38984e-09 -2.73129e-08)
(-1.08484e-07 -5.23139e-08 4.41228e-08)
(-1.94124e-07 -1.04444e-07 -3.18472e-08)
(-2.49485e-07 -1.28258e-08 -5.48968e-08)
(-1.65963e-07 1.98578e-09 2.68418e-10)
(-7.66894e-08 -1.99054e-08 1.02157e-09)
(-6.24914e-08 -5.32593e-09 -1.35053e-08)
(-2.89752e-08 -1.16514e-08 -5.12218e-08)
(-8.63196e-09 -8.20909e-09 -5.44571e-08)
(3.4274e-08 8.49807e-09 -7.37896e-09)
(4.33779e-09 -1.75817e-08 1.63918e-08)
(-3.2272e-07 -1.05445e-07 -3.82325e-08)
(-4.83741e-07 -6.31341e-08 -1.40626e-07)
(-3.28586e-07 -4.96558e-08 -1.1365e-07)
(-2.30114e-07 -6.26504e-08 -4.9548e-08)
(-1.71405e-07 -1.477e-08 -3.24501e-08)
(-7.36766e-08 -1.70317e-08 -8.85502e-08)
(8.69368e-09 -2.05186e-08 -7.64035e-08)
(1.92916e-07 4.26701e-10 9.6858e-09)
(6.58031e-08 -9.35045e-09 -3.27468e-08)
(-1.40828e-07 -1.13605e-07 -6.47086e-08)
(-3.65311e-07 -9.39345e-08 -1.16265e-07)
(-3.10625e-07 -6.1485e-08 -8.89824e-08)
(-2.42224e-07 -5.96118e-08 -6.54297e-08)
(-1.66447e-07 -3.50292e-08 -3.5236e-08)
(-1.08721e-07 -2.34935e-08 -1.02303e-07)
(-1.80666e-08 -1.4359e-08 -5.3995e-08)
(-3.83269e-08 1.40829e-08 -3.18636e-08)
(-3.75233e-08 -1.66117e-08 1.62214e-08)
(-1.16565e-07 -6.56175e-08 1.69322e-09)
(-1.65454e-07 -3.5311e-09 6.02358e-09)
(-1.22354e-07 3.95565e-09 2.07345e-08)
(-7.43383e-08 -4.13871e-09 1.9113e-08)
(-4.77425e-08 8.8e-10 -3.50389e-09)
(-2.56402e-08 -4.37924e-09 -3.15683e-08)
(5.86652e-09 2.75239e-09 -4.10115e-08)
(1.16312e-07 -1.0396e-09 -4.08006e-08)
(1.29704e-08 -4.23993e-08 3.10828e-08)
(-9.98931e-08 -9.73255e-08 7.47198e-09)
(-1.59779e-07 -1.36622e-07 -2.40263e-08)
(-1.11546e-07 -4.37926e-08 2.99163e-08)
(-9.12571e-08 -3.55727e-08 3.87059e-08)
(-6.7429e-08 -2.91342e-09 -1.69162e-08)
(-3.5442e-08 -1.72893e-08 -6.19687e-08)
(8.58296e-09 -1.77063e-08 -5.1288e-08)
(2.24618e-07 -6.98414e-09 -6.65675e-08)
(2.30224e-07 3.86674e-08 2.95147e-08)
(8.17643e-08 -1.23328e-07 -1.51384e-08)
(-2.3007e-08 -1.47878e-07 -1.16484e-08)
(-6.482e-08 -7.38049e-08 -3.46207e-09)
(-7.85385e-08 -4.92684e-08 3.15389e-10)
(-5.82766e-08 -9.62841e-09 -3.65969e-08)
(-9.7215e-09 -1.64149e-08 -7.31541e-08)
(1.38644e-08 -3.03226e-08 -5.1496e-08)
(-1.30108e-08 6.35437e-09 -3.03516e-08)
(-1.69692e-09 -5.84437e-09 1.04978e-08)
(-5.99978e-08 -2.90755e-08 3.16447e-08)
(3.83457e-08 -1.12652e-08 -3.98418e-08)
(1.84627e-08 -5.37301e-09 3.61915e-08)
(1.38607e-07 -1.93746e-08 -9.28172e-08)
)
;

boundaryField
{
    inlet
    {
        type            calculated;
        value           nonuniform 0();
    }
    outlet
    {
        type            calculated;
        value           nonuniform List<vector> 9((4.33398e-07 -3.34908e-08 -1.1362e-07) (-3.70758e-08 -4.83576e-08 -9.60658e-08) (7.01874e-09 1.39275e-08 -6.23861e-08) (-8.63196e-09 -8.20909e-09 -5.44571e-08) (8.69368e-09 -2.05186e-08 -7.64035e-08) (-1.80666e-08 -1.4359e-08 -5.3995e-08) (5.86652e-09 2.75239e-09 -4.10115e-08) (8.58296e-09 -1.77063e-08 -5.1288e-08) (1.38644e-08 -3.03226e-08 -5.1496e-08));
    }
    wall
    {
        type            calculated;
        value           nonuniform List<vector> 
57
(
(-6.18352e-08 -2.20156e-08 -3.45962e-08)
(1.80991e-08 -4.63207e-09 -1.94016e-08)
(6.66686e-09 -8.75339e-09 1.81971e-08)
(4.85087e-07 4.96846e-07 4.51218e-08)
(-4.39612e-08 -5.56058e-08 -2.99195e-08)
(-7.21878e-08 -2.63234e-08 -3.90492e-08)
(-3.62515e-07 -1.43845e-07 -5.66153e-08)
(-5.7631e-07 -1.70993e-07 -7.09034e-08)
(-4.00398e-07 -5.89068e-08 -9.75674e-08)
(-4.41256e-07 -2.81456e-08 -1.37458e-07)
(-6.07899e-07 -5.45801e-08 -1.57227e-07)
(-5.50065e-07 -4.17892e-08 -1.51451e-07)
(-2.35864e-07 3.4263e-08 3.54077e-08)
(-4.87956e-07 1.39212e-08 -1.40605e-07)
(-4.22924e-07 -5.4076e-08 -9.60603e-08)
(-1.30917e-07 -6.11168e-08 1.31165e-08)
(-2.4963e-07 -4.39586e-08 -2.04102e-09)
(-3.04252e-07 -1.83638e-08 -5.59285e-08)
(-7.22171e-08 -4.35703e-08 -2.20372e-08)
(-1.84726e-07 -2.04067e-08 -5.30061e-08)
(-2.31897e-07 -4.08491e-08 -2.32415e-08)
(7.94562e-07 -5.85082e-10 -8.79256e-08)
(-7.3434e-08 -3.08028e-08 -7.6374e-08)
(-6.31405e-08 9.84585e-09 -7.97954e-08)
(4.33398e-07 -3.34908e-08 -1.1362e-07)
(-3.70758e-08 -4.83576e-08 -9.60658e-08)
(7.01874e-09 1.39275e-08 -6.23861e-08)
(-6.18352e-08 -2.20156e-08 -3.45962e-08)
(-5.36568e-08 5.38984e-09 -2.73129e-08)
(-3.83269e-08 1.40829e-08 -3.18636e-08)
(-1.30108e-08 6.35437e-09 -3.03516e-08)
(4.85087e-07 4.96846e-07 4.51218e-08)
(-1.08484e-07 -5.23139e-08 4.41228e-08)
(-3.75233e-08 -1.66117e-08 1.62214e-08)
(-1.69692e-09 -5.84437e-09 1.04978e-08)
(-3.62515e-07 -1.43845e-07 -5.66153e-08)
(-1.94124e-07 -1.04444e-07 -3.18472e-08)
(-1.16565e-07 -6.56175e-08 1.69322e-09)
(-5.99978e-08 -2.90755e-08 3.16447e-08)
(-4.41256e-07 -2.81456e-08 -1.37458e-07)
(-2.49485e-07 -1.28258e-08 -5.48968e-08)
(-1.65454e-07 -3.5311e-09 6.02358e-09)
(-2.35864e-07 3.4263e-08 3.54077e-08)
(-1.65963e-07 1.98578e-09 2.68418e-10)
(-1.22354e-07 3.95565e-09 2.07345e-08)
(-1.30917e-07 -6.11168e-08 1.31165e-08)
(-7.66894e-08 -1.99054e-08 1.02157e-09)
(-7.43383e-08 -4.13871e-09 1.9113e-08)
(-7.22171e-08 -4.35703e-08 -2.20372e-08)
(-6.24914e-08 -5.32593e-09 -1.35053e-08)
(-4.77425e-08 8.8e-10 -3.50389e-09)
(7.94562e-07 -5.85082e-10 -8.79256e-08)
(-2.89752e-08 -1.16514e-08 -5.12218e-08)
(-2.56402e-08 -4.37924e-09 -3.15683e-08)
(4.33398e-07 -3.34908e-08 -1.1362e-07)
(-8.63196e-09 -8.20909e-09 -5.44571e-08)
(5.86652e-09 2.75239e-09 -4.10115e-08)
)
;
    }
    procBoundary1to0
    {
        type            processor;
        value           nonuniform List<vector> 
12
(
(-1.44829e-08 -3.3647e-08 -1.21521e-07)
(6.43912e-08 -7.75905e-08 -9.87956e-08)
(1.44609e-07 -7.30079e-08 -5.51887e-08)
(-3.4487e-08 -1.70801e-08 -6.00936e-08)
(1.41611e-07 -2.43289e-08 -8.10087e-08)
(1.73531e-07 -8.80894e-08 -3.18624e-08)
(1.38785e-08 9.155e-09 -6.47744e-08)
(1.526e-07 3.73336e-08 -8.33815e-08)
(1.71982e-07 -8.45078e-09 -8.40933e-08)
(2.27365e-08 4.15663e-09 -7.63716e-08)
(9.47131e-08 2.62654e-09 -1.08456e-07)
(9.84275e-08 -2.05951e-08 -1.2815e-07)
)
;
    }
    procBoundary1to3
    {
        type            processor;
        value           nonuniform List<vector> 
27
(
(1.59937e-07 -1.1428e-07 5.63044e-08)
(-1.73564e-08 -3.7844e-08 3.41869e-08)
(-3.52686e-07 8.74108e-08 -7.50612e-08)
(-3.17246e-07 -9.90459e-10 -9.00128e-08)
(-3.81895e-07 -1.24662e-09 -7.31402e-08)
(-3.16735e-07 1.28387e-09 -1.23026e-07)
(-2.53569e-07 -3.76683e-08 -4.67871e-08)
(-3.36426e-08 4.01338e-09 -7.14926e-08)
(-3.51902e-08 5.61685e-09 -7.66816e-08)
(1.57979e-07 -9.3805e-08 4.55292e-08)
(1.37288e-07 -5.46943e-08 9.79819e-08)
(-2.48839e-08 -7.67863e-08 -8.35998e-08)
(-1.62732e-07 -8.1398e-10 -6.00833e-08)
(-2.27755e-07 -1.73533e-08 -7.10154e-08)
(-2.19185e-07 -2.41372e-08 -1.03378e-07)
(-1.80652e-07 -1.17766e-08 -5.3063e-08)
(-1.01523e-07 -1.56382e-08 -9.47335e-08)
(-3.28928e-08 -1.99403e-08 -7.38251e-08)
(2.27972e-07 -9.03617e-08 -4.67883e-08)
(2.59138e-07 -2.7429e-08 1.59015e-08)
(1.52493e-07 -3.2687e-08 -1.54997e-08)
(7.18023e-09 5.26894e-09 -4.96311e-08)
(-7.04328e-08 -8.93656e-09 -3.8886e-08)
(-7.96773e-08 -9.4473e-09 -1.29398e-08)
(-6.68203e-08 -7.10924e-09 -3.48288e-08)
(-1.62124e-08 -4.02148e-09 -7.38625e-08)
(1.12085e-08 -1.89715e-08 -6.24843e-08)
)
;
    }
    procBoundary1to5
    {
        type            processor;
        value           nonuniform List<vector> 
32
(
(-1.05965e-07 -2.03501e-08 2.48314e-08)
(-6.5524e-08 3.64305e-09 2.18097e-08)
(-5.531e-08 1.20505e-08 2.59641e-08)
(-2.21773e-08 2.54744e-09 -3.30294e-09)
(-2.57614e-09 -9.69743e-09 -2.40078e-08)
(6.49372e-08 -4.33892e-08 -1.58893e-08)
(-5.64753e-08 -7.64845e-08 3.37534e-08)
(-8.16201e-08 -6.1652e-08 3.7119e-08)
(-5.2948e-08 -3.05393e-08 4.35813e-08)
(-1.50843e-08 6.09652e-09 3.10051e-08)
(-5.51242e-10 4.20554e-10 1.01025e-08)
(7.57994e-09 -1.57756e-08 -4.25509e-08)
(2.41703e-08 -3.31331e-08 -4.23078e-08)
(1.48358e-07 1.73587e-08 2.01736e-08)
(4.77842e-08 -5.10975e-08 4.14429e-08)
(-3.84025e-08 -4.92244e-08 5.50388e-08)
(-2.77932e-08 -2.5201e-08 4.9104e-08)
(7.4663e-09 -5.6216e-09 4.00676e-08)
(2.76554e-08 7.18251e-09 -1.6536e-09)
(3.7071e-08 -6.76211e-09 -5.012e-08)
(2.81415e-08 1.87539e-09 -3.08485e-08)
(-5.78888e-09 -4.71487e-09 -1.3342e-08)
(6.67217e-09 2.91799e-09 1.42573e-09)
(-1.05965e-07 -2.03501e-08 2.48314e-08)
(-5.64753e-08 -7.64845e-08 3.37534e-08)
(-6.1201e-08 -3.81635e-08 2.3813e-08)
(4.67743e-09 -6.13809e-09 -3.54847e-08)
(-5.64753e-08 -7.64845e-08 3.37534e-08)
(1.48358e-07 1.73587e-08 2.01736e-08)
(3.98102e-08 3.02824e-08 5.81759e-10)
(1.48358e-07 1.73587e-08 2.01736e-08)
(-3.34016e-08 -2.45464e-08 -5.13577e-08)
)
;
    }
    procBoundary1to7
    {
        type            processor;
        value           uniform (9.7907e-08 -4.53172e-08 -8.30506e-08);
    }
}


// ************************************************************************* //
