/*--------------------------------*- C++ -*----------------------------------*\
  =========                 |
  \\      /  F ield         | OpenFOAM: The Open Source CFD Toolbox
   \\    /   O peration     | Website:  https://openfoam.org
    \\  /    A nd           | Version:  4.x
     \\/     M anipulation  |
\*---------------------------------------------------------------------------*/
FoamFile
{
    version     2.0;
    format      ascii;
    class       vectorField;
    location    0;
    object      v;
}
// * * * * * * * * * * * * * * * * * * * * * * * * * * * * * * * * * * * * * //

325
(
( 2.50202e-10 1.54059e-10 1.80386e-10 )  
( 4.19541e-10 3.00794e-10 1.02795e-10 )  
( 2.46282e-09 -9.06935e-11 2.49883e-09 )  
( 4.95103e-10 2.87343e-10 -4.80097e-11 )  
( 1.18875e-09 5.47413e-10 2.93704e-10 )  
( 1.45203e-09 4.90183e-10 4.06929e-10 )  
( 2.6416e-10 1.05285e-10 1.85608e-10 )  
( 2.34084e-10 1.80786e-10 1.34595e-10 )  
( 3.58124e-09 -2.07376e-10 1.74902e-09 )  
( 1.28485e-10 -1.09136e-11 1.51777e-10 )  
( 4.16062e-09 5.63856e-10 1.85216e-09 )  
( 2.92182e-10 6.9709e-10 2.35559e-09 )  
( 2.04816e-09 6.74594e-10 9.72881e-10 )  
( 1.91984e-10 -3.91225e-10 2.74308e-09 )  
( -5.59684e-09 3.17257e-09 6.41186e-09 )  
( 7.95468e-10 2.93447e-10 1.52672e-10 )  
( 3.58731e-10 2.46586e-10 1.73757e-10 )  
( 8.06239e-10 2.45456e-10 2.12675e-10 )  
( 9.53255e-10 3.44812e-10 4.15583e-10 )  
( 3.45134e-09 7.02402e-10 4.02756e-10 )  
( 2.94175e-10 4.1137e-10 8.94515e-11 )  
( 2.44582e-09 5.70618e-10 5.78377e-10 )  
( 3.30308e-09 1.93844e-10 4.03444e-10 )  
( 2.48971e-09 7.50367e-10 4.86905e-10 )  
( 3.3182e-10 5.68912e-11 1.16298e-10 )  
( 2.38075e-09 6.74771e-10 1.78082e-09 )  
( 8.78243e-10 4.99819e-10 1.75293e-10 )  
( 3.40822e-10 -1.96614e-10 2.53315e-09 )  
( 1.77549e-09 4.07703e-10 -1.93776e-10 )  
( -3.48716e-10 1.70427e-10 1.12611e-09 )  
( 1.06644e-09 3.74836e-10 3.05124e-10 )  
( 2.11331e-09 2.35473e-10 -6.67715e-10 )  
( -2.59751e-10 1.93502e-10 7.5746e-10 )  
( 1.00562e-09 4.47686e-10 2.80488e-10 )  
( 7.08256e-10 2.29856e-10 5.15022e-11 )  
( 1.78765e-10 9.11053e-11 1.20529e-10 )  
( 5.71915e-10 9.01978e-11 9.93432e-11 )  
( 1.08927e-09 5.56612e-10 3.63369e-10 )  
( 9.95451e-10 5.01298e-10 1.44546e-10 )  
( -1.63367e-10 2.70065e-10 9.81132e-10 )  
( 3.30997e-10 5.21543e-11 2.02111e-11 )  
( 1.03349e-09 3.74397e-10 -1.70202e-10 )  
( 4.37638e-10 3.78055e-10 1.91419e-10 )  
( 1.86988e-09 5.95496e-10 7.91183e-11 )  
( -1.60323e-10 1.23038e-10 1.8681e-11 )  
( 3.18894e-10 3.11491e-10 9.12439e-10 )  
( 1.99425e-09 1.02725e-09 6.63104e-10 )  
( 2.45762e-10 3.99792e-10 2.20848e-10 )  
( -2.80522e-10 1.69593e-10 3.90638e-10 )  
( 6.0765e-10 3.34756e-10 -3.7742e-12 )  
( 7.22445e-10 1.94424e-10 1.09313e-10 )  
( 2.61149e-09 9.09732e-10 -2.79764e-10 )  
( 2.32294e-09 3.60075e-10 3.88073e-10 )  
( 2.38527e-09 2.24335e-10 1.49253e-09 )  
( -3.47541e-10 3.66835e-11 1.46421e-09 )  
( 6.37502e-10 3.07911e-10 1.40615e-10 )  
( 5.01521e-09 7.14634e-10 5.79598e-10 )  
( 6.34483e-11 2.86872e-11 1.83528e-10 )  
( 4.3599e-09 1.08734e-09 9.70674e-10 )  
( 1.38132e-10 4.48624e-11 1.1865e-10 )  
( 1.19613e-09 9.9278e-11 2.22662e-10 )  
( 6.46426e-11 6.27816e-11 6.48979e-11 )  
( 3.9322e-10 1.17789e-10 4.74687e-11 )  
( 1.39097e-09 4.51176e-10 1.32197e-09 )  
( 8.40399e-10 5.87347e-10 2.94568e-10 )  
( -1.4737e-09 1.98627e-10 1.59929e-09 )  
( 1.42194e-09 1.38896e-10 2.12381e-09 )  
( 4.78713e-10 4.12548e-10 4.77357e-10 )  
( -1.0255e-09 5.35645e-10 2.89961e-09 )  
( 3.8972e-10 1.43223e-10 -2.68873e-11 )  
( 4.40688e-10 2.14115e-10 1.46709e-11 )  
( 2.19594e-09 4.02628e-10 1.78827e-10 )  
( -1.75604e-10 8.4324e-11 5.49134e-10 )  
( 8.16927e-10 3.15486e-10 1.14565e-10 )  
( 1.10611e-09 -3.41717e-10 -4.12319e-10 )  
( 3.66651e-09 5.93077e-10 2.0373e-10 )  
( -9.68047e-10 -1.82548e-10 1.90717e-09 )  
( 4.14459e-09 2.35451e-10 1.29205e-09 )  
( 1.29377e-09 1.1164e-10 -1.6627e-10 )  
( 3.98233e-09 3.62671e-10 4.59129e-10 )  
( 1.42476e-09 2.30949e-10 -1.05795e-09 )  
( 2.09446e-09 4.32196e-10 1.25288e-09 )  
( 4.12194e-09 4.70534e-10 5.83279e-10 )  
( 4.10404e-09 1.20049e-10 1.09406e-10 )  
( 2.79268e-09 4.90305e-10 6.18903e-10 )  
( 3.50108e-10 -2.23483e-10 -1.89137e-10 )  
( -6.22221e-10 6.211e-10 1.99093e-09 )  
( 1.18487e-10 4.92017e-11 2.75781e-10 )  
( 1.05363e-09 3.97382e-10 5.42659e-11 )  
( -1.06417e-09 -4.89406e-10 2.20441e-09 )  
( 7.49433e-11 1.31303e-10 1.03994e-10 )  
( 3.93354e-10 1.95915e-10 1.83429e-10 )  
( 2.15761e-10 2.08482e-10 3.72928e-10 )  
( 2.47423e-10 1.00168e-10 2.2997e-11 )  
( 1.73055e-10 2.48235e-11 9.66922e-11 )  
( 6.02211e-10 5.04671e-10 1.00031e-10 )  
( 2.47548e-10 1.37641e-10 1.72366e-10 )  
( 4.94324e-10 1.01548e-10 2.36141e-11 )  
( 2.2786e-09 4.4994e-10 6.56711e-10 )  
( 4.7545e-10 1.29528e-10 1.21144e-10 )  
( 1.39986e-10 5.35447e-11 1.46359e-10 )  
( -2.81027e-10 6.03059e-11 3.67302e-10 )  
( 8.88239e-10 2.62732e-10 2.1313e-10 )  
( 2.00228e-10 2.19314e-10 5.61724e-11 )  
( 3.2851e-10 1.19998e-10 8.19963e-11 )  
( 6.28642e-11 1.72282e-10 4.75772e-11 )  
( 6.76096e-10 1.98028e-10 6.42677e-10 )  
( 4.49628e-10 8.06302e-11 -2.00301e-10 )  
( 1.22011e-09 1.249e-10 1.73992e-09 )  
( -2.19853e-12 2.66754e-10 -1.21845e-11 )  
( 6.03215e-10 2.29149e-10 7.89688e-11 )  
( 9.75102e-11 6.90382e-11 8.56285e-11 )  
( 1.40826e-10 -1.16693e-10 5.68579e-10 )  
( 1.06967e-09 6.16954e-10 1.00004e-09 )  
( 5.57175e-10 -5.86067e-10 2.07468e-09 )  
( 6.30648e-10 2.89935e-11 -1.5507e-10 )  
( 4.76452e-10 4.23003e-10 2.27751e-10 )  
( -3.45247e-10 -1.93231e-10 5.78783e-10 )  
( 1.91252e-11 3.49511e-11 1.44864e-11 )  
( 1.89252e-09 1.26925e-09 -1.98502e-10 )  
( 3.01057e-10 1.34908e-10 2.25522e-11 )  
( -7.58214e-11 -8.17702e-12 5.35572e-10 )  
( -2.9501e-11 -1.96845e-10 1.04243e-09 )  
( -3.59315e-11 1.2045e-12 9.65543e-11 )  
( 6.48608e-10 1.48731e-10 1.76223e-10 )  
( 7.66588e-10 -1.0346e-10 1.73663e-09 )  
( 1.70158e-09 3.09051e-10 8.72938e-10 )  
( 1.20573e-09 6.74577e-10 5.07466e-10 )  
( 7.69967e-11 5.98519e-11 -5.88453e-11 )  
( 5.40455e-10 1.93858e-10 8.53422e-11 )  
( 1.75777e-10 1.69272e-10 1.30171e-11 )  
( 1.00836e-09 3.37782e-10 1.19036e-09 )  
( 6.04892e-10 1.61e-10 3.41184e-10 )  
( 3.15866e-10 6.30608e-11 5.09571e-11 )  
( 6.2519e-11 9.87484e-11 3.86935e-10 )  
( 9.99528e-10 4.79298e-10 9.30761e-10 )  
( -6.15965e-11 3.61784e-10 2.02711e-10 )  
( -3.71057e-10 -2.20672e-11 7.80293e-10 )  
( 2.08585e-09 -3.48027e-10 2.55008e-09 )  
( 7.7902e-10 1.53297e-10 8.32708e-11 )  
( 5.21166e-11 -1.05311e-10 -5.66886e-11 )  
( 1.50768e-09 5.92852e-10 7.38589e-10 )  
( 5.75e-10 1.24856e-11 -2.97186e-11 )  
( 2.28118e-10 2.47958e-10 -8.22636e-11 )  
( 6.82667e-10 7.99171e-11 1.05114e-11 )  
( 8.00724e-10 2.0697e-11 8.15159e-11 )  
( 1.35129e-11 2.62716e-10 1.33777e-09 )  
( 1.21241e-10 1.57038e-10 6.56605e-11 )  
( 2.87041e-11 1.29054e-10 -1.49245e-11 )  
( 1.32629e-10 1.03977e-10 -1.26458e-10 )  
( 7.50163e-11 1.01788e-10 9.64846e-11 )  
( 1.57503e-10 9.08823e-11 3.22965e-10 )  
( -1.63495e-09 4.49424e-10 9.15342e-10 )  
( -2.29e-10 1.05191e-10 1.01985e-09 )  
( -3.1879e-10 3.39983e-10 2.83957e-10 )  
( 8.72991e-10 3.99033e-10 1.30423e-10 )  
( 1.13854e-09 -1.80078e-10 -4.31549e-10 )  
( 8.38301e-11 6.62509e-11 4.8187e-11 )  
( 6.19362e-10 1.31588e-10 2.14494e-10 )  
( 1.26618e-09 3.47764e-10 1.06586e-09 )  
( 2.64287e-10 9.02385e-11 1.77977e-10 )  
( 3.54071e-10 1.4034e-10 2.96534e-11 )  
( 2.54149e-10 3.31984e-10 1.57341e-10 )  
( -1.96796e-10 -1.12439e-09 1.61077e-09 )  
( 3.7896e-10 9.81097e-11 4.9071e-11 )  
( 3.06283e-10 4.0347e-10 1.18987e-09 )  
( 2.29689e-10 1.24926e-10 9.97632e-11 )  
( 1.12324e-09 1.70826e-10 1.30334e-09 )  
( 4.57348e-10 2.19311e-10 4.02622e-10 )  
( 1.50217e-09 2.50368e-10 1.41809e-10 )  
( 7.3728e-10 4.23571e-10 1.56261e-09 )  
( 1.04939e-09 1.64399e-11 -2.36708e-10 )  
( 8.85536e-10 2.6282e-10 2.4484e-10 )  
( 2.81952e-10 2.67853e-10 5.36322e-11 )  
( 6.31293e-11 -9.03426e-11 5.19724e-11 )  
( 6.2437e-11 1.01255e-10 2.23674e-11 )  
( 1.68015e-09 -3.00172e-10 2.11045e-09 )  
( 1.33214e-10 5.82586e-11 9.60759e-11 )  
( 8.29891e-11 1.73144e-12 7.61376e-11 )  
( -3.68205e-10 -7.07213e-15 1.5128e-09 )  
( 6.05216e-10 1.91023e-10 1.43942e-10 )  
( 1.23669e-09 2.68974e-10 7.90724e-10 )  
( 1.15662e-09 3.52399e-11 5.28178e-10 )  
( 1.96636e-10 3.87935e-10 7.58562e-10 )  
( 5.84639e-10 3.69047e-10 2.6392e-10 )  
( 1.40807e-10 -3.35833e-11 2.38312e-11 )  
( 5.79406e-10 2.16395e-11 -1.82557e-10 )  
( -2.33018e-10 1.26394e-10 8.24626e-10 )  
( 2.51141e-10 1.41558e-10 1.84421e-11 )  
( 6.83514e-11 1.35821e-10 -3.69611e-11 )  
( 8.37694e-11 7.80204e-11 9.07014e-11 )  
( 1.68259e-10 4.39425e-11 -3.49983e-11 )  
( 1.00087e-10 4.40268e-10 1.90971e-10 )  
( 1.79329e-09 -1.1238e-10 2.17387e-09 )  
( 1.39562e-09 3.29675e-10 1.15495e-09 )  
( 1.21497e-09 3.91899e-10 1.55772e-10 )  
( 1.27851e-10 2.69302e-11 9.0809e-11 )  
( 3.25028e-10 -1.13993e-10 -1.18214e-10 )  
( 1.81718e-09 5.76801e-10 9.36757e-10 )  
( 1.79112e-10 1.07966e-10 8.14669e-11 )  
( 6.09662e-10 -3.36066e-11 -1.05725e-10 )  
( 4.76164e-10 7.05755e-11 -1.36971e-11 )  
( 2.71272e-09 3.85101e-10 2.9301e-10 )  
( 1.51115e-10 1.21606e-10 1.29635e-10 )  
( 7.58912e-10 5.55208e-10 7.88493e-10 )  
( -5.94026e-10 4.55376e-10 1.10506e-09 )  
( 2.71479e-10 2.52091e-10 -1.0708e-11 )  
( 3.09213e-10 1.79496e-10 2.52007e-11 )  
( -1.20115e-10 1.52105e-10 8.70703e-10 )  
( 8.96716e-10 2.81979e-10 1.21986e-09 )  
( 8.18647e-11 5.4964e-11 -1.86981e-11 )  
( -2.72901e-10 -1.086e-10 6.28826e-10 )  
( 1.56719e-09 5.10059e-10 5.92884e-10 )  
( 3.08541e-10 -6.10551e-12 7.55951e-10 )  
( 1.07455e-10 2.28285e-10 1.00364e-10 )  
( 1.55473e-09 -1.35161e-10 1.18349e-09 )  
( 9.36053e-11 4.69843e-11 8.42455e-11 )  
( 2.67984e-10 3.20475e-10 -1.12745e-10 )  
( 1.55495e-09 8.32671e-10 6.26782e-10 )  
( 6.37341e-10 4.20437e-10 3.08915e-10 )  
( 1.16964e-10 1.43916e-10 2.70427e-12 )  
( 1.23707e-09 -6.99795e-12 1.02114e-10 )  
( -3.1961e-10 -4.94126e-11 1.31511e-10 )  
( -7.66344e-11 -3.8032e-10 9.86149e-10 )  
( 4.06704e-10 1.49746e-10 1.00931e-10 )  
( -2.03601e-10 -7.2024e-10 1.24309e-09 )  
( 1.5577e-10 7.79725e-11 8.8468e-11 )  
( 8.06755e-10 2.64031e-10 3.96935e-10 )  
( 4.22285e-10 4.07709e-10 1.91852e-10 )  
( 1.46448e-09 6.50435e-10 -1.51395e-10 )  
( 6.26576e-10 9.28251e-11 1.62882e-10 )  
( 1.19745e-10 -2.88252e-10 -1.02907e-10 )  
( 7.70901e-10 -6.9919e-11 6.98697e-11 )  
( 7.51534e-12 -3.20989e-11 2.21372e-11 )  
( 3.15136e-10 7.30898e-10 1.02629e-09 )  
( 1.89761e-09 3.46366e-10 7.11512e-10 )  
( 1.09194e-09 4.00567e-10 5.91508e-10 )  
( 2.08237e-10 7.31471e-11 1.15698e-11 )  
( -1.57504e-10 -7.04114e-11 3.91803e-10 )  
( 1.44758e-09 6.78896e-10 9.15605e-10 )  
( 7.98432e-10 9.97103e-11 4.34887e-11 )  
( 6.37497e-11 1.44286e-11 -7.90918e-11 )  
( 8.26838e-10 3.86881e-10 9.53097e-10 )  
( -1.0317e-10 -1.09872e-10 3.08923e-10 )  
( 1.53488e-10 2.39529e-10 -7.99764e-11 )  
( 2.97718e-10 1.5778e-10 1.02619e-10 )  
( 5.56994e-11 1.4254e-10 1.18992e-10 )  
( 5.61126e-10 8.57994e-10 5.60028e-10 )  
( 5.52829e-10 1.92201e-10 -1.16199e-11 )  
( -8.51358e-11 -6.79323e-11 5.48542e-10 )  
( 9.91435e-11 2.46411e-10 4.2424e-11 )  
( 7.05694e-11 -6.35056e-11 -3.01374e-11 )  
( 9.02201e-11 4.86303e-11 -3.68571e-11 )  
( 3.16286e-10 2.38966e-10 4.90949e-11 )  
( 2.17618e-09 5.49913e-10 6.54667e-10 )  
( 6.42489e-10 -1.32972e-10 6.17326e-11 )  
( 3.0671e-10 2.3891e-11 9.38263e-11 )  
( 2.07681e-10 1.44306e-10 1.02468e-11 )  
( 2.34901e-10 1.24972e-10 2.71693e-11 )  
( 4.81994e-10 1.58453e-10 -4.62984e-11 )  
( 3.21302e-11 -4.52108e-11 4.69639e-11 )  
( 1.32389e-09 7.61138e-10 2.19958e-09 )  
( -5.24431e-12 5.41775e-11 8.55054e-11 )  
( 1.63928e-11 4.22882e-11 6.15606e-11 )  
( 2.22291e-10 -1.41905e-10 3.88244e-10 )  
( 1.07217e-10 6.16137e-11 4.09186e-12 )  
( 4.48622e-10 2.28317e-10 4.08392e-10 )  
( 4.63601e-10 8.3331e-11 2.85334e-11 )  
( 4.53961e-11 7.99058e-11 -2.49912e-11 )  
( 2.23246e-10 9.59734e-11 -8.35945e-12 )  
( 2.1896e-09 -6.52627e-11 8.2741e-10 )  
( 2.26279e-10 8.17378e-11 6.19194e-11 )  
( 1.83772e-10 7.3209e-11 3.47186e-11 )  
( 2.25513e-10 2.12929e-10 -1.59068e-11 )  
( -1.42055e-10 -8.19219e-12 3.28361e-10 )  
( 5.12537e-10 2.51352e-11 2.27969e-11 )  
( 2.98034e-10 9.41176e-11 5.94327e-10 )  
( 3.59918e-10 3.10856e-10 4.24273e-10 )  
( 2.46193e-10 -4.51368e-11 3.35714e-11 )  
( 3.26197e-10 1.10731e-10 -1.41198e-12 )  
( 4.61649e-10 1.78463e-10 9.80732e-11 )  
( 1.08064e-10 -9.76398e-11 -4.87335e-11 )  
( 6.26273e-10 3.22561e-10 1.81113e-10 )  
( 2.6645e-10 -1.33661e-10 -2.43712e-11 )  
( 1.64632e-10 1.20535e-10 4.26679e-10 )  
( 2.31727e-10 4.088e-10 -2.61729e-11 )  
( 4.04554e-10 5.53405e-11 8.77451e-11 )  
( 1.39505e-10 3.7158e-12 -9.63667e-11 )  
( 9.13931e-11 4.43619e-11 3.6744e-11 )  
( 8.97402e-10 4.49201e-10 8.09044e-10 )  
( 2.62644e-11 8.86964e-11 2.88475e-10 )  
( 4.61873e-11 6.92856e-11 8.55177e-13 )  
( 1.27778e-10 -2.50271e-11 -4.94285e-11 )  
( 1.19584e-10 1.37146e-10 8.58829e-11 )  
( -3.22819e-10 9.52323e-11 1.8395e-11 )  
( -6.78388e-12 -4.2446e-10 8.35886e-10 )  
( -1.93764e-11 -7.30671e-11 2.28918e-10 )  
( 3.8084e-10 5.62217e-10 1.41383e-10 )  
( 3.95936e-10 -5.76906e-10 7.46721e-11 )  
( 6.22879e-11 1.13609e-10 -2.91648e-11 )  
( 3.82303e-11 -9.07747e-12 4.54013e-11 )  
( 1.97361e-10 -1.67461e-11 9.42654e-12 )  
( 7.97966e-11 8.19274e-11 4.85811e-12 )  
( 2.88081e-10 3.64378e-11 1.79716e-11 )  
( 1.5785e-10 5.33282e-11 -7.8233e-12 )  
( 2.6209e-10 -1.83483e-10 2.44584e-10 )  
( 1.32579e-10 -5.9883e-12 1.77753e-10 )  
( 2.37202e-10 1.29773e-10 2.67367e-11 )  
( 8.87435e-11 2.25175e-10 1.68196e-10 )  
( 7.25141e-11 4.04043e-11 3.08368e-11 )  
( 5.09853e-11 -3.64249e-11 -3.68805e-11 )  
( 1.70924e-10 1.21153e-10 -4.74193e-11 )  
( 5.38887e-11 -3.77743e-11 -1.455e-11 )  
( 6.07248e-11 4.05309e-11 2.15486e-12 )  
( 5.44229e-11 2.56377e-10 -3.24932e-11 )  
( -3.4633e-09 3.2792e-09 1.00768e-11 )  
( 1.57965e-10 8.40033e-11 2.69812e-11 )  
( -3.12702e-11 -4.64582e-11 9.60388e-11 )  
( 4.76371e-10 1.33402e-10 4.71248e-10 )  
( 1.50115e-10 1.37168e-10 2.72011e-11 )  
( 7.06093e-11 1.43155e-11 3.75929e-11 )  
( 5.52129e-10 -5.68342e-10 5.15843e-10 )  
( 2.29539e-09 2.04115e-10 2.61694e-10 )  
( 5.87321e-10 2.57629e-10 3.3539e-10 )  
( 2.4081e-10 2.76495e-10 5.89704e-11 )  
)
