/*--------------------------------*- C++ -*----------------------------------*\
| =========                 |                                                 |
| \\      /  F ield         | OpenFOAM: The Open Source CFD Toolbox           |
|  \\    /   O peration     | Version:  4.x                                   |
|   \\  /    A nd           | Web:      www.OpenFOAM.org                      |
|    \\/     M anipulation  |                                                 |
\*---------------------------------------------------------------------------*/
FoamFile
{
    version     2.0;
    format      ascii;
    class       volScalarField;
    location    "36";
    object      Cs;
}
// * * * * * * * * * * * * * * * * * * * * * * * * * * * * * * * * * * * * * //

dimensions      [1 -3 0 0 0 0 0];

internalField   nonuniform List<scalar> 
132
(
334.999
334.999
334.997
334.994
334.99
334.983
334.975
334.965
334.911
335
334.999
334.998
334.996
334.994
334.989
334.984
334.979
334.885
335
335
334.999
334.999
334.997
334.996
334.992
334.989
334.824
335
335
335
335
335
334.999
334.998
334.998
334.818
334.997
334.995
334.992
334.987
334.981
334.976
334.964
334.999
334.998
334.996
334.993
334.989
334.984
334.979
334.975
334.942
335
334.999
334.998
334.997
334.994
334.99
334.986
334.984
334.954
335
335
335
335
334.999
334.999
334.998
334.997
334.888
334.996
334.993
334.989
334.987
334.974
335
334.999
334.999
334.998
334.996
334.993
334.99
334.988
334.958
335
335
335
334.999
334.999
334.998
334.996
334.996
334.871
335
335
335
335
335
335
335
334.999
333.801
334.998
334.997
334.852
335
335
335
335
334.999
334.999
334.998
334.997
334.848
335
335
335
335
335
335
334.999
334.999
334.667
335
335
335
335
335
335
335
335
334.82
)
;

boundaryField
{
    inlet
    {
        type            calculated;
        value           nonuniform 0();
    }
    outlet
    {
        type            calculated;
        value           uniform 335;
    }
    wall
    {
        type            calculated;
        value           nonuniform List<scalar> 
66
(
335
335
335
335
335
335
335
335
335
335
335
335
334.999
335
335
334.999
335
335
334.998
334.998
334.999
335
334.997
334.997
334.999
335
334.852
334.848
334.667
334.82
335
335
335
335
335
335
335
335
335
335
335
335
335
335
335
335
335
334.999
335
335
334.999
334.999
335
335
334.998
334.998
335
335
334.998
334.997
334.999
335
334.818
334.888
333.801
334.82
)
;
    }
    procBoundary7to0
    {
        type            processor;
        value           uniform 335;
    }
    procBoundary7to1
    {
        type            processor;
        value           uniform 335;
    }
    procBoundary7to3
    {
        type            processor;
        value           nonuniform List<scalar> 
36
(
334.999
334.997
334.993
334.987
334.978
334.971
334.959
334.959
334.889
335
334.999
334.998
334.996
334.992
334.987
334.979
334.974
334.876
335
334.999
334.999
334.997
334.995
334.992
334.987
334.985
334.88
335
335
335
335
334.999
334.999
334.998
334.997
334.748
)
;
    }
    procBoundary7to5
    {
        type            processor;
        value           nonuniform List<scalar> 
44
(
334.999
334.998
334.995
334.992
334.986
334.98
334.971
334.872
334.999
334.999
334.998
334.996
334.993
334.99
334.985
334.982
334.966
334.999
334.999
334.999
334.999
334.998
334.997
334.995
334.992
334.991
334.976
335
334.999
334.999
334.998
334.998
334.999
334.999
334.998
334.998
334.861
335
335
335
335
334.999
334.999
334.999
)
;
    }
    procBoundary7to6
    {
        type            processor;
        value           nonuniform List<scalar> 
12
(
335
335
335
335
335
335
335
335
335
335
335
335
)
;
    }
}


// ************************************************************************* //
