/*--------------------------------*- C++ -*----------------------------------*\
| =========                 |                                                 |
| \\      /  F ield         | OpenFOAM: The Open Source CFD Toolbox           |
|  \\    /   O peration     | Version:  4.x                                   |
|   \\  /    A nd           | Web:      www.OpenFOAM.org                      |
|    \\/     M anipulation  |                                                 |
\*---------------------------------------------------------------------------*/
FoamFile
{
    version     2.0;
    format      ascii;
    class       volScalarField;
    location    "36";
    object      KslNext;
}
// * * * * * * * * * * * * * * * * * * * * * * * * * * * * * * * * * * * * * //

dimensions      [1 -3 -1 0 0 0 0];

internalField   nonuniform List<scalar> 
132
(
1e+10
3857.1
1e+10
3802.01
1e+10
3803.55
1e+10
4135.5
19147
393942
3863.01
1.90794e+06
3851.93
50562.8
3897.82
15125.7
4066.13
6554.26
17272.6
3494.49
18189
3348.32
16986.5
3159.94
13186.2
2802.98
10056.8
6829.34
3087.75
7089.03
2987.94
7819.56
2897.38
9209.04
2685.63
11732.8
1e+10
3748.72
1e+10
3750.65
1e+10
4065.09
14258.2
1e+10
3889.75
1e+10
3795.73
1e+10
3720.55
1e+10
3679.29
30361.5
466195
3783.88
1e+10
3846.63
1e+10
4118.81
1e+10
4933.08
18060.2
8761.59
3304.59
10521.3
3301.52
13858
3315.89
17736.2
3346.01
25079.7
30865.4
3423.16
16169.9
3510.49
6350.58
9.51638e+06
3755.4
1e+10
3754.9
1e+10
3875.33
66851.8
4159.35
8650.17
15281
3461.75
16672
3276.64
16226.9
2987.25
13782.8
2537.09
9637.95
6404.52
3068.95
6619.8
3017.52
7253.61
2920.54
8797.49
2665.75
14609.3
8380.57
2379.77
8505.71
9516.14
3293.02
11164.2
3245.83
12884.1
3143.06
13615.4
2938.31
14069.3
6653.55
3081.4
7051.11
3062.27
8074.22
2940.84
9896.86
2783.61
15691.4
5079.73
2866.73
5227.24
2885.8
5651.65
2884.15
6102.35
3120.53
5945.77
)
;

boundaryField
{
    inlet
    {
        type            zeroGradient;
    }
    outlet
    {
        type            zeroGradient;
    }
    wall
    {
        type            zeroGradient;
    }
    procBoundary7to0
    {
        type            processor;
        value           uniform 0;
    }
    procBoundary7to1
    {
        type            processor;
        value           uniform 0;
    }
    procBoundary7to3
    {
        type            processor;
        value           uniform 0;
    }
    procBoundary7to5
    {
        type            processor;
        value           uniform 0;
    }
    procBoundary7to6
    {
        type            processor;
        value           uniform 0;
    }
}


// ************************************************************************* //
