/*--------------------------------*- C++ -*----------------------------------*\
| =========                 |                                                 |
| \\      /  F ield         | OpenFOAM: The Open Source CFD Toolbox           |
|  \\    /   O peration     | Version:  4.x                                   |
|   \\  /    A nd           | Web:      www.OpenFOAM.org                      |
|    \\/     M anipulation  |                                                 |
\*---------------------------------------------------------------------------*/
FoamFile
{
    version     2.0;
    format      ascii;
    class       volVectorField;
    location    "36";
    object      UsNext;
}
// * * * * * * * * * * * * * * * * * * * * * * * * * * * * * * * * * * * * * //

dimensions      [0 1 -1 0 0 0 0];

internalField   nonuniform List<vector> 
132
(
(1.82311e-09 -2.29688e-09 1.74081e-09)
(2.23033e-09 -2.28922e-09 1.99937e-09)
(2.02918e-09 -1.65241e-09 1.73866e-09)
(8.95232e-10 -1.346e-09 -1.74212e-09)
(1.24159e-09 -2.87646e-10 -3.71941e-09)
(1.2062e-10 8.51069e-10 -7.87722e-09)
(-2.09244e-09 1.70757e-09 -8.82751e-09)
(-1.76007e-09 3.55586e-09 -8.43948e-09)
(-1.13433e-09 1.32408e-09 -7.10348e-09)
(-5.64617e-10 -3.13453e-09 3.05927e-09)
(2.57912e-10 -2.88657e-09 1.63548e-09)
(9.67709e-11 -3.89317e-09 2.11522e-09)
(-1.43051e-11 -2.42248e-09 -8.0922e-10)
(-5.4884e-10 -9.28056e-10 -4.31235e-09)
(-8.24685e-10 -2.64534e-10 -7.33718e-09)
(-1.03492e-09 1.35482e-09 -9.63344e-09)
(-2.26613e-09 2.47315e-09 -1.36417e-08)
(-2.85884e-09 9.18839e-10 -9.77606e-09)
(7.40975e-11 -3.9099e-09 6.88312e-10)
(2.16444e-10 -2.67967e-09 1.25307e-09)
(-6.72772e-10 -3.10155e-09 9.9671e-11)
(-1.20199e-09 -2.3495e-09 -1.61189e-09)
(-8.14821e-10 -1.38225e-09 -4.25228e-09)
(-1.52457e-09 -1.33628e-09 -6.06008e-09)
(-2.12916e-09 3.28734e-10 -7.12331e-09)
(-2.23175e-09 8.47799e-10 -8.6353e-09)
(-1.48913e-09 6.98572e-12 -6.23471e-09)
(-4.78551e-10 -3.57434e-09 2.75342e-11)
(-3.10951e-10 -1.67471e-09 1.27489e-10)
(-4.69767e-10 -1.80941e-09 1.37093e-10)
(-1.44464e-09 -1.55549e-09 -8.58589e-10)
(-1.33781e-09 -1.31013e-09 -2.22214e-09)
(-2.08542e-09 -1.05374e-09 -3.36821e-09)
(-2.79114e-09 -6.75804e-10 -3.93297e-09)
(-2.28246e-09 1.10265e-09 -3.29896e-09)
(-1.17853e-09 -2.1786e-10 -1.39837e-09)
(1.47127e-09 -2.25164e-09 -4.82852e-10)
(1.3354e-09 -1.01772e-09 -1.01482e-09)
(7.6049e-10 -9.80348e-11 -2.21531e-09)
(1.15087e-10 5.46233e-10 -4.57249e-09)
(-1.34574e-09 9.15829e-10 -5.66599e-09)
(-1.17136e-09 2.86453e-09 -6.39122e-09)
(-1.06641e-09 1.36626e-09 -5.54071e-09)
(4.39585e-10 -2.31939e-09 1.77569e-09)
(6.33387e-10 -1.98053e-09 1.45111e-09)
(8.44388e-10 -2.9711e-09 7.03721e-10)
(8.35516e-10 -1.74699e-09 -5.96553e-10)
(1.10721e-10 -6.1484e-10 -2.69373e-09)
(-9.47802e-10 -2.65614e-10 -4.95785e-09)
(-1.87457e-09 3.7333e-10 -5.96156e-09)
(-1.57769e-09 2.3105e-09 -8.76154e-09)
(-1.08779e-09 1.70895e-09 -4.58582e-09)
(-7.96316e-10 -2.50647e-09 7.97596e-10)
(-1.05993e-09 -2.13069e-09 6.57939e-10)
(-1.15389e-09 -2.90578e-09 -9.83395e-10)
(-1.01368e-09 -1.87578e-09 -1.23481e-09)
(-2.30122e-09 -1.47662e-09 -2.18976e-09)
(-3.47994e-09 -2.53965e-09 -4.46999e-09)
(-3.03896e-09 -6.44499e-10 -5.1638e-09)
(-2.30029e-09 1.38827e-09 -4.71597e-09)
(-4.83271e-10 1.39217e-09 -2.75126e-09)
(-1.77907e-09 -1.67701e-09 2.25431e-10)
(-2.3647e-09 -1.84433e-09 1.17144e-10)
(-3.04658e-09 -2.72118e-09 -6.77134e-10)
(-2.61388e-09 -8.64799e-10 -7.31656e-10)
(-3.08289e-09 -6.96128e-10 -1.00224e-09)
(-3.62431e-09 -1.52094e-09 -2.81752e-09)
(-3.97491e-09 -1.1001e-09 -2.34124e-09)
(-2.88444e-09 8.82256e-10 -2.0185e-09)
(-1.3178e-09 2.5287e-10 -6.75655e-10)
(1.0821e-09 -2.09429e-10 -1.0456e-09)
(8.72299e-10 2.22169e-10 -2.31307e-09)
(-2.72973e-10 8.38613e-10 -4.09734e-09)
(-5.91657e-10 1.15998e-09 -4.5125e-09)
(-3.36983e-10 8.70905e-10 -3.18039e-09)
(1.0675e-09 -1.65629e-09 1.47073e-09)
(9.03913e-10 -1.61288e-09 1.34628e-09)
(5.23717e-10 -1.15348e-09 1.66326e-09)
(1.0946e-09 -1.18569e-09 5.51533e-11)
(1.20851e-09 -5.39222e-10 -1.15866e-09)
(1.1737e-09 -1.38114e-10 -3.04212e-09)
(5.87076e-10 6.95441e-10 -4.91916e-09)
(1.12998e-10 1.46772e-09 -5.66066e-09)
(-2.97992e-10 1.2648e-09 -3.5974e-09)
(-1.2525e-09 -1.82845e-09 1.04902e-09)
(-9.89744e-10 -1.85794e-09 8.65159e-10)
(-1.46816e-09 -1.61699e-09 1.16484e-09)
(-1.62136e-09 -1.55256e-09 -6.79515e-10)
(-1.60179e-09 -1.08426e-09 -1.19265e-09)
(-1.64185e-09 -8.03751e-10 -2.90751e-09)
(-2.34206e-09 -3.49328e-10 -3.20885e-09)
(-1.08409e-09 1.55728e-09 -2.72555e-09)
(-5.22194e-10 1.43765e-09 -2.18702e-09)
(-1.33808e-09 -7.71764e-10 6.34475e-10)
(-1.83355e-09 -9.51041e-10 3.82963e-10)
(-2.32897e-09 -7.41738e-10 2.84999e-10)
(-2.93468e-09 -6.48791e-10 -3.22386e-10)
(-2.03612e-09 -4.9662e-10 -7.40261e-10)
(-3.23043e-09 -5.18608e-10 -1.86768e-09)
(-3.34495e-09 -5.88192e-10 -1.8402e-09)
(-1.05977e-09 5.22966e-10 -1.49815e-09)
(-7.70722e-10 6.51601e-10 -1.07656e-09)
(1.32198e-10 1.04039e-09 -2.08268e-09)
(-5.44218e-10 6.46518e-10 -3.04548e-09)
(8.07219e-10 1.85215e-10 -2.14186e-09)
(1.89857e-09 -9.83774e-10 7.84176e-10)
(2.04081e-09 -1.14272e-09 1.03087e-09)
(1.77321e-09 -9.03741e-10 6.04683e-10)
(1.63305e-09 -3.70651e-10 2.24174e-10)
(2.12583e-09 -1.08079e-10 -7.21696e-10)
(3.09211e-09 6.38091e-10 -1.7545e-09)
(1.83237e-09 6.7685e-10 -1.66006e-09)
(1.45728e-09 1.29516e-09 -2.55495e-09)
(7.94628e-10 1.50539e-09 -2.62277e-09)
(-5.4191e-10 -1.89004e-09 3.21479e-10)
(-1.66205e-10 -1.36724e-09 3.52367e-10)
(2.3579e-11 -1.44201e-09 2.66115e-10)
(2.86245e-11 -8.25549e-10 1.24148e-11)
(-3.00213e-11 -4.95909e-10 -7.17493e-10)
(4.9124e-10 -5.16892e-11 -1.18331e-09)
(4.53624e-10 1.38564e-10 -9.7303e-10)
(4.94019e-10 1.30373e-09 -1.30139e-09)
(2.10594e-10 2.30697e-09 -9.48046e-10)
(-4.95573e-10 -7.46146e-10 1.64316e-10)
(-7.54574e-10 -6.89693e-10 2.47121e-10)
(-8.1986e-10 -6.31918e-10 -8.795e-11)
(-8.15709e-10 -3.38702e-10 -1.37604e-10)
(-1.71307e-09 -2.04182e-08 -4.39541e-10)
(-1.01038e-09 -2.86364e-10 -9.61504e-10)
(-1.1151e-09 -1.63332e-10 -5.99065e-10)
(-1.06021e-09 1.83048e-10 -7.88402e-10)
(-4.78004e-10 8.6555e-10 -1.09173e-09)
)
;

boundaryField
{
    inlet
    {
        type            calculated;
        value           nonuniform 0();
    }
    outlet
    {
        type            calculated;
        value           nonuniform List<vector> 
16
(
(-1.13433e-09 1.32408e-09 -7.10348e-09)
(-2.85884e-09 9.18839e-10 -9.77606e-09)
(-1.48913e-09 6.98572e-12 -6.23471e-09)
(-1.17853e-09 -2.1786e-10 -1.39837e-09)
(-1.06641e-09 1.36626e-09 -5.54071e-09)
(-1.08779e-09 1.70895e-09 -4.58582e-09)
(-4.83271e-10 1.39217e-09 -2.75126e-09)
(-1.3178e-09 2.5287e-10 -6.75655e-10)
(-3.36983e-10 8.70905e-10 -3.18039e-09)
(-2.97992e-10 1.2648e-09 -3.5974e-09)
(-5.22194e-10 1.43765e-09 -2.18702e-09)
(-7.70722e-10 6.51601e-10 -1.07656e-09)
(8.07219e-10 1.85215e-10 -2.14186e-09)
(7.94628e-10 1.50539e-09 -2.62277e-09)
(2.10594e-10 2.30697e-09 -9.48046e-10)
(-4.78004e-10 8.6555e-10 -1.09173e-09)
)
;
    }
    wall
    {
        type            calculated;
        value           nonuniform List<vector> 
66
(
(1.89857e-09 -9.83774e-10 7.84176e-10)
(-5.4191e-10 -1.89004e-09 3.21479e-10)
(-4.95573e-10 -7.46146e-10 1.64316e-10)
(2.04081e-09 -1.14272e-09 1.03087e-09)
(-1.66205e-10 -1.36724e-09 3.52367e-10)
(-7.54574e-10 -6.89693e-10 2.47121e-10)
(1.77321e-09 -9.03741e-10 6.04683e-10)
(2.3579e-11 -1.44201e-09 2.66115e-10)
(-8.1986e-10 -6.31918e-10 -8.795e-11)
(1.63305e-09 -3.70651e-10 2.24174e-10)
(2.86245e-11 -8.25549e-10 1.24148e-11)
(-8.15709e-10 -3.38702e-10 -1.37604e-10)
(2.12583e-09 -1.08079e-10 -7.21696e-10)
(-3.00213e-11 -4.95909e-10 -7.17493e-10)
(-1.71307e-09 -2.04182e-08 -4.39541e-10)
(3.09211e-09 6.38091e-10 -1.7545e-09)
(4.9124e-10 -5.16892e-11 -1.18331e-09)
(-1.01038e-09 -2.86364e-10 -9.61504e-10)
(1.32198e-10 1.04039e-09 -2.08268e-09)
(1.83237e-09 6.7685e-10 -1.66006e-09)
(4.53624e-10 1.38564e-10 -9.7303e-10)
(-1.1151e-09 -1.63332e-10 -5.99065e-10)
(-5.44218e-10 6.46518e-10 -3.04548e-09)
(1.45728e-09 1.29516e-09 -2.55495e-09)
(4.94019e-10 1.30373e-09 -1.30139e-09)
(-1.06021e-09 1.83048e-10 -7.88402e-10)
(8.07219e-10 1.85215e-10 -2.14186e-09)
(7.94628e-10 1.50539e-09 -2.62277e-09)
(2.10594e-10 2.30697e-09 -9.48046e-10)
(-4.78004e-10 8.6555e-10 -1.09173e-09)
(-4.78551e-10 -3.57434e-09 2.75342e-11)
(-1.77907e-09 -1.67701e-09 2.25431e-10)
(-1.33808e-09 -7.71764e-10 6.34475e-10)
(-4.95573e-10 -7.46146e-10 1.64316e-10)
(-3.10951e-10 -1.67471e-09 1.27489e-10)
(-2.3647e-09 -1.84433e-09 1.17144e-10)
(-1.83355e-09 -9.51041e-10 3.82963e-10)
(-7.54574e-10 -6.89693e-10 2.47121e-10)
(-4.69767e-10 -1.80941e-09 1.37093e-10)
(-3.04658e-09 -2.72118e-09 -6.77134e-10)
(-2.32897e-09 -7.41738e-10 2.84999e-10)
(-8.1986e-10 -6.31918e-10 -8.795e-11)
(-1.44464e-09 -1.55549e-09 -8.58589e-10)
(-2.61388e-09 -8.64799e-10 -7.31656e-10)
(-2.93468e-09 -6.48791e-10 -3.22386e-10)
(-8.15709e-10 -3.38702e-10 -1.37604e-10)
(-1.33781e-09 -1.31013e-09 -2.22214e-09)
(-3.08289e-09 -6.96128e-10 -1.00224e-09)
(-2.03612e-09 -4.9662e-10 -7.40261e-10)
(-1.71307e-09 -2.04182e-08 -4.39541e-10)
(-2.08542e-09 -1.05374e-09 -3.36821e-09)
(-3.62431e-09 -1.52094e-09 -2.81752e-09)
(-3.23043e-09 -5.18608e-10 -1.86768e-09)
(-1.01038e-09 -2.86364e-10 -9.61504e-10)
(-2.79114e-09 -6.75804e-10 -3.93297e-09)
(-3.97491e-09 -1.1001e-09 -2.34124e-09)
(-3.34495e-09 -5.88192e-10 -1.8402e-09)
(-1.1151e-09 -1.63332e-10 -5.99065e-10)
(-2.28246e-09 1.10265e-09 -3.29896e-09)
(-2.88444e-09 8.82256e-10 -2.0185e-09)
(-1.05977e-09 5.22966e-10 -1.49815e-09)
(-1.06021e-09 1.83048e-10 -7.88402e-10)
(-1.17853e-09 -2.1786e-10 -1.39837e-09)
(-1.3178e-09 2.5287e-10 -6.75655e-10)
(-7.70722e-10 6.51601e-10 -1.07656e-09)
(-4.78004e-10 8.6555e-10 -1.09173e-09)
)
;
    }
    procBoundary7to0
    {
        type            processor;
        value           uniform (3.78478e-10 -2.13747e-09 3.09794e-09);
    }
    procBoundary7to1
    {
        type            processor;
        value           uniform (1.49077e-09 -7.51299e-10 2.92701e-09);
    }
    procBoundary7to3
    {
        type            processor;
        value           nonuniform List<vector> 
36
(
(1.49233e-09 -4.92365e-09 3.47825e-09)
(2.54597e-09 -2.36119e-09 3.53139e-09)
(2.14524e-09 -3.42496e-09 3.59798e-09)
(1.14348e-09 -1.76334e-09 -1.53475e-09)
(2.87268e-09 -1.82685e-09 -5.7838e-09)
(3.79241e-09 7.83329e-10 -9.74495e-09)
(2.79207e-09 1.93873e-09 -1.52349e-08)
(6.08784e-09 3.04372e-09 -1.71347e-08)
(4.57399e-09 2.73329e-09 -1.20099e-08)
(-2.47621e-09 -5.06369e-09 4.00896e-09)
(-3.76888e-09 -4.26339e-09 3.16036e-09)
(-3.18294e-09 -6.0305e-09 2.75932e-09)
(-2.21971e-10 -2.27125e-09 -1.53494e-09)
(-6.76901e-10 -1.35387e-09 -6.00552e-09)
(-3.02894e-10 8.45641e-10 -9.70707e-09)
(1.55068e-10 3.29088e-09 -1.58401e-08)
(-2.96415e-10 3.95951e-09 -2.07171e-08)
(-2.57887e-09 3.91799e-09 -1.82331e-08)
(-1.88624e-09 -1.98368e-09 2.79904e-09)
(-1.70225e-09 -2.58073e-09 2.5487e-09)
(-7.71305e-10 6.57956e-10 2.76502e-09)
(-1.66643e-09 -1.36885e-09 -1.32648e-09)
(-6.49553e-10 -9.55636e-10 -5.50204e-09)
(2.2627e-10 2.65137e-10 -8.06544e-09)
(1.35098e-09 4.14751e-09 -1.12519e-08)
(2.14073e-09 3.43346e-09 -1.51474e-08)
(6.56693e-10 -6.41061e-10 -1.39774e-08)
(-6.52276e-10 -1.48075e-09 1.44673e-09)
(-1.34087e-09 -1.80041e-09 9.20239e-10)
(-1.58909e-09 -3.73309e-09 1.12936e-09)
(-1.77934e-09 -1.65185e-09 -9.46487e-10)
(-1.33739e-09 -1.2284e-09 -4.31745e-09)
(-5.73362e-10 -9.55012e-10 -4.99268e-09)
(1.12405e-10 6.23715e-10 -5.96151e-09)
(6.1198e-10 3.18341e-10 -7.17907e-09)
(2.00533e-10 -1.7671e-09 -6.93878e-09)
)
;
    }
    procBoundary7to5
    {
        type            processor;
        value           nonuniform List<vector> 
44
(
(2.16028e-09 -1.00671e-09 3.56282e-09)
(2.64391e-09 6.18053e-10 2.68848e-09)
(2.46691e-09 2.6707e-10 -6.77857e-10)
(1.77801e-09 -8.87332e-11 -2.86363e-09)
(7.84606e-10 2.81365e-10 -4.89362e-09)
(-5.74514e-10 1.47618e-09 -6.49403e-09)
(-5.57244e-10 2.26478e-09 -8.79625e-09)
(-1.25046e-09 1.2895e-09 -5.70099e-09)
(1.18575e-09 -1.54092e-09 4.58085e-10)
(1.19983e-09 -1.68261e-09 7.1747e-10)
(1.88288e-09 -2.4438e-10 2.19565e-09)
(1.69606e-09 4.86804e-10 3.94618e-11)
(1.27024e-09 4.68261e-10 -2.13966e-09)
(5.69036e-10 8.31895e-10 -3.58311e-09)
(-4.51017e-10 1.242e-09 -5.32166e-09)
(-7.86031e-10 1.93148e-09 -5.69177e-09)
(-1.09979e-09 1.23132e-09 -3.72686e-09)
(1.18575e-09 -1.54092e-09 4.58085e-10)
(1.19983e-09 -1.68261e-09 7.1747e-10)
(1.19983e-09 -1.68261e-09 7.1747e-10)
(2.00533e-09 -7.2472e-10 1.67696e-10)
(1.34711e-09 -1.93737e-10 -5.36152e-10)
(1.25336e-09 4.61288e-10 -1.10975e-09)
(6.60448e-10 7.05407e-10 -2.28492e-09)
(-7.54522e-10 1.31778e-09 -3.41227e-09)
(-7.45073e-10 1.16714e-09 -3.8991e-09)
(-3.70993e-10 7.84653e-10 -3.22288e-09)
(2.27599e-09 -8.57365e-10 8.98192e-10)
(2.16405e-09 -9.10558e-10 9.47691e-10)
(2.00533e-09 -7.2472e-10 1.67696e-10)
(1.34711e-09 -1.93737e-10 -5.36152e-10)
(1.34711e-09 -1.93737e-10 -5.36152e-10)
(1.37284e-09 1.01449e-11 -4.92564e-10)
(1.08075e-09 2.38821e-10 -8.87433e-10)
(-1.42345e-10 8.98366e-10 -1.54871e-09)
(-6.7852e-10 9.27455e-10 -1.90125e-09)
(8.60251e-11 6.6079e-10 -1.547e-09)
(2.07985e-09 -1.19708e-10 4.34965e-10)
(1.52707e-09 -3.35486e-10 5.64247e-10)
(1.53509e-09 -2.11689e-10 2.15684e-10)
(1.15508e-09 -8.78992e-11 -1.27204e-10)
(1.37284e-09 1.01449e-11 -4.92564e-10)
(1.08075e-09 2.38821e-10 -8.87433e-10)
(1.08075e-09 2.38821e-10 -8.87433e-10)
)
;
    }
    procBoundary7to6
    {
        type            processor;
        value           nonuniform List<vector> 
12
(
(-5.10278e-10 -1.55842e-09 1.87322e-09)
(-1.89882e-10 -2.14176e-09 1.44555e-09)
(1.64239e-10 -7.04749e-10 7.31461e-10)
(2.62582e-11 -1.79261e-09 1.69311e-09)
(-3.82054e-10 -1.59483e-09 7.85092e-10)
(-1.13539e-09 -8.37617e-10 1.45717e-10)
(1.06185e-09 -1.65207e-09 1.0318e-09)
(-2.05248e-10 -1.52101e-09 6.39167e-10)
(-8.48051e-10 -5.96036e-10 2.80199e-10)
(1.85727e-09 -1.19392e-09 7.59741e-10)
(2.96467e-10 -1.4841e-09 2.09638e-10)
(-1.68607e-10 -4.40971e-10 2.25023e-10)
)
;
    }
}


// ************************************************************************* //
