/*--------------------------------*- C++ -*----------------------------------*\
| =========                 |                                                 |
| \\      /  F ield         | OpenFOAM: The Open Source CFD Toolbox           |
|  \\    /   O peration     | Version:  4.x                                   |
|   \\  /    A nd           | Web:      www.OpenFOAM.org                      |
|    \\/     M anipulation  |                                                 |
\*---------------------------------------------------------------------------*/
FoamFile
{
    version     2.0;
    format      ascii;
    class       volVectorField;
    location    "11";
    object      GField;
}
// * * * * * * * * * * * * * * * * * * * * * * * * * * * * * * * * * * * * * //

dimensions      [1 -2 -1 0 0 0 0];

internalField   nonuniform List<vector> 
87
(
(110.128 -3.14003 4.7083)
(146.241 -4.59692 7.69484)
(103.482 -6.3479 9.24691)
(143.03 -6.38757 11.1737)
(88.9417 -10.1466 12.4927)
(139.292 -5.92693 10.9329)
(69.84 -16.2149 17.1186)
(140.259 -0.930631 6.10194)
(45.8293 -40.6309 -47.9282)
(81.1128 -5.03103 4.52956)
(122.328 -9.07956 7.02056)
(63.2243 -6.7885 5.1705)
(113.051 -9.86007 5.17052)
(45.6359 -8.01232 3.16899)
(104.824 -7.7086 1.27791)
(34.2095 -12.0561 2.70192)
(92.2832 1.36501 -1.37052)
(32.3076 -29.27 2.37541)
(52.2523 -2.71559 3.89641)
(105.784 -2.54325 6.52727)
(27.8056 -1.29736 1.86207)
(99.6798 -0.411816 1.23926)
(12.1199 -0.375473 -0.103674)
(96.3456 0.567569 -5.39986)
(9.48613 0.793863 -0.2896)
(83.347 -1.85282 -9.57562)
(21.9376 13.5946 -0.107034)
(71.918 -2.90665 3.968)
(122.195 -3.36467 10.6643)
(75.2834 -4.23435 9.46729)
(130.038 -2.5102 17.4577)
(73.3312 -6.6073 12.3075)
(142.315 0.770224 19.3059)
(64.1604 -15.1315 13.5291)
(177.93 7.08175 15.7712)
(39.4366 -65.9169 -57.3444)
(32.4504 -2.25253 2.26389)
(99.6048 -4.81142 7.21659)
(31.0115 -2.31776 1.60835)
(102.419 -3.87849 4.47066)
(29.6172 -4.30519 -1.73295)
(103.361 -2.59838 1.1026)
(29.3251 -12.8729 -3.71135)
(97.6704 6.24159 0.960736)
(31.9966 -70.8551 -12.2901)
(18.6877 -0.864538 0.63605)
(95.6858 -0.434104 5.04882)
(16.2054 -0.565998 -1.4677)
(97.1212 1.16818 -0.403269)
(12.0954 -0.686302 -3.78193)
(94.3099 1.48946 -4.79975)
(2.55866 -0.334593 -1.2747)
(81.0972 2.83654 -4.22413)
(8.79168e-06 -4.318e-05 0.000124735)
(54.5556 -1.71424 4.20903)
(107.745 -1.52217 10.3233)
(59.1572 -1.80579 10.0233)
(115.756 0.581663 17.0513)
(61.4626 -3.39129 13.6152)
(130.266 5.03348 19.1187)
(57.3833 -10.5021 12.1059)
(171.446 10.9656 14.2745)
(38.6995 -54.8886 -20.3757)
(14.0192 -1.22198 1.02259)
(88.892 -2.91655 3.5425)
(16.3381 -1.78666 0.907587)
(92.1786 -0.950339 0.51291)
(19.3584 -3.77028 -0.995732)
(94.3753 1.84806 -1.97748)
(25.6416 -12.8199 -3.12414)
(93.2562 9.44517 -3.13834)
(34.455 -72.9838 -15.1371)
(1.40384 -0.142224 0.113294)
(84.8481 0.213561 1.50572)
(1.11898e-05 3.80409e-06 0.000180288)
(84.2605 1.57072 -2.35559)
(2.67206e-05 5.41309e-06 5.62026e-05)
(80.9907 1.23242 -3.98278)
(5.88733e-06 -1.86869e-05 3.09519e-05)
(71.3447 2.67224 -5.4681)
(2.92589 -0.599119 -0.998404)
(56.2051 -1.263 3.16648)
(109.658 -0.500085 8.35623)
(59.9847 -0.350062 6.95719)
(21.7826 -0.33459 0.399531)
(91.7687 -0.695955 1.1248)
(15.5523 -1.16277 -0.115309)
)
;

boundaryField
{
    inlet
    {
        type            calculated;
        value           nonuniform 0();
    }
    outlet
    {
        type            calculated;
        value           nonuniform List<vector> 9((92.4782 -81.9885 -96.7137) (66.7605 -60.4837 4.90855) (45.5227 28.2102 -0.222107) (82.9406 -138.632 -120.603) (67.3802 -149.211 -25.8813) (1.86026e-05 -9.13658e-05 0.000263931) (82.3119 -116.745 -43.3381) (73.5618 -155.821 -32.3179) (6.27268 -1.28442 -2.14043));
    }
    wall
    {
        type            calculated;
        value           uniform (0 0 0);
    }
    procBoundary1to0
    {
        type            processor;
        value           nonuniform List<vector> 
12
(
(144.933 -3.10084 1.47873)
(127.546 -6.50261 2.76708)
(113.734 -3.53013 5.23552)
(114.89 -3.21487 1.33652)
(96.3632 -4.41471 3.48305)
(92.4269 -1.39535 5.51147)
(102.386 -2.59871 2.67716)
(86.8562 -3.3196 3.56117)
(83.6494 -0.738333 4.26341)
(103.524 -2.05151 1.96144)
(89.0377 -1.75195 2.19138)
(87.4653 -0.753447 3.02413)
)
;
    }
    procBoundary1to3
    {
        type            processor;
        value           nonuniform List<vector> 
27
(
(50.7176 0.490958 3.9107)
(105.106 2.36971 5.48963)
(34.9035 1.46806 1.61045)
(104.531 2.90891 1.1639)
(31.3741 2.08985 -0.782424)
(112.269 2.23435 -1.93943)
(36.1617 6.01548 -5.11741)
(134.663 -0.968373 -1.95552)
(35.6672 23.0041 -37.6995)
(18.4685 0.0794927 0.501376)
(92.9538 0.730074 4.69641)
(20.1022 0.381406 -1.66798)
(95.5395 1.46548 0.0977139)
(22.9798 1.25263 -5.4978)
(96.5919 2.83466 -2.90695)
(24.3715 3.60325 -10.6907)
(92.912 2.21125 -0.327537)
(28.2442 14.4537 -51.4346)
(2.96609 0.0394796 0.0768553)
(83.6657 0.763372 1.76432)
(5.48049 0.205036 -0.441163)
(86.0311 0.473041 -1.78896)
(8.94982 0.635061 -2.38496)
(86.1837 0.943325 -3.40758)
(10.7385 2.20811 -4.95332)
(80.0963 0.433601 -1.52614)
(13.1487 8.3847 -14.0517)
)
;
    }
    procBoundary1to5
    {
        type            processor;
        value           nonuniform List<vector> 
32
(
(118.785 2.74694 13.0649)
(61.5533 -2.30593 7.11903)
(135.574 7.23278 13.7541)
(56.553 -10.8931 -2.31998)
(171.248 14.1374 10.9498)
(33.8662 -51.5046 -49.9585)
(23.4204 -0.484565 -1.4177)
(96.4004 1.05281 -1.94412)
(25.9704 -2.84063 -4.89072)
(99.0251 3.64241 -4.21838)
(28.0292 -12.0655 -10.2463)
(94.6258 11.4932 -2.83248)
(28.3603 -62.2512 -28.6333)
(89.1696 -0.135788 1.39166)
(14.6218 -1.9209 -1.78953)
(90.6998 0.0322273 -2.99682)
(12.9969 -3.18737 -3.59974)
(90.2606 1.11129 -5.24627)
(11.1518 -5.16665 -5.00148)
(81.3827 5.99098 -0.532732)
(15.2742 -11.8369 -9.26757)
(45.4426 -1.2811 1.30848)
(99.3585 0.0860465 5.63144)
(118.785 2.74694 13.0649)
(23.4204 -0.484565 -1.4177)
(46.0452 -1.06597 3.68715)
(2.89683 -0.284544 -0.0734159)
(23.4204 -0.484565 -1.4177)
(89.1696 -0.135788 1.39166)
(82.6859 0.54099 -0.461643)
(89.1696 -0.135788 1.39166)
(0.574558 -0.103668 -0.0205695)
)
;
    }
    procBoundary1to7
    {
        type            processor;
        value           uniform (15.5566 -0.0880904 -0.844489);
    }
}


// ************************************************************************* //
