/*--------------------------------*- C++ -*----------------------------------*\
| =========                 |                                                 |
| \\      /  F ield         | OpenFOAM: The Open Source CFD Toolbox           |
|  \\    /   O peration     | Version:  4.x                                   |
|   \\  /    A nd           | Web:      www.OpenFOAM.org                      |
|    \\/     M anipulation  |                                                 |
\*---------------------------------------------------------------------------*/
FoamFile
{
    version     2.0;
    format      ascii;
    class       volVectorField;
    location    "11";
    object      impParticleForces;
}
// * * * * * * * * * * * * * * * * * * * * * * * * * * * * * * * * * * * * * //

dimensions      [1 1 -2 0 0 0 0];

internalField   nonuniform List<vector> 
87
(
(0.00239999 3.48009e-06 1.12875e-05)
(0.00243729 5.03439e-05 2.06525e-05)
(0.00241837 -4.81526e-06 1.64582e-05)
(0.00244717 -3.1662e-05 8.80794e-06)
(0.00239723 -4.82055e-05 -1.09505e-05)
(0.00239382 -6.69306e-05 -3.39724e-05)
(0.00237174 -9.15122e-05 -6.27841e-05)
(0.00234963 -0.000118699 -0.000101057)
(0.00226514 -0.000149198 -0.000135548)
(0.00241877 -8.60844e-06 1.06826e-05)
(0.00243171 -1.15149e-06 1.55226e-05)
(0.00242441 -1.53626e-05 1.04719e-05)
(0.00244152 -2.95273e-05 -1.15692e-06)
(0.00239835 -4.11973e-05 -2.20024e-05)
(0.00239183 -5.5532e-05 -4.69872e-05)
(0.00235581 -7.38897e-05 -7.56438e-05)
(0.00233213 -9.41486e-05 -0.000107928)
(0.00225031 -0.000118007 -0.000129318)
(0.0024028 -7.36499e-06 8.22295e-06)
(0.00242248 -6.53767e-06 1.03501e-05)
(0.00239637 -1.05705e-05 8.46759e-07)
(0.00241651 -1.67942e-05 -1.4685e-05)
(0.00237125 -2.32047e-05 -3.69883e-05)
(0.00236768 -3.05778e-05 -6.40308e-05)
(0.0023212 -3.95749e-05 -9.22713e-05)
(0.0023011 -4.96189e-05 -0.000123039)
(0.00222982 -5.69116e-05 -0.000139912)
(0.00242697 -1.15683e-05 1.21167e-05)
(0.00244499 -3.76729e-06 1.97156e-05)
(0.00245434 -1.85414e-05 1.85976e-05)
(0.00248656 -3.35168e-05 1.17118e-05)
(0.00245562 -4.8139e-05 -7.89992e-06)
(0.00246778 -6.68808e-05 -2.98114e-05)
(0.00245118 -9.50207e-05 -6.05361e-05)
(0.00244482 -0.000130072 -0.000101079)
(0.00231878 -0.000173494 -0.000145615)
(0.0024619 -1.52293e-05 1.16246e-05)
(0.00246473 -1.30498e-05 1.56217e-05)
(0.00245911 -2.00288e-05 1.02224e-05)
(0.00249642 -3.0926e-05 -2.96453e-07)
(0.00246412 -4.1383e-05 -2.17516e-05)
(0.00246409 -5.59413e-05 -4.66581e-05)
(0.00243381 -7.81743e-05 -7.58765e-05)
(0.00241906 -0.00010521 -0.000109986)
(0.00229637 -0.000140996 -0.000135401)
(0.00243306 -9.7436e-06 8.01943e-06)
(0.00245862 -9.65939e-06 9.33809e-06)
(0.00243331 -1.24228e-05 -1.14681e-06)
(0.00245226 -1.74231e-05 -1.71339e-05)
(0.0024159 -2.33277e-05 -3.9797e-05)
(0.00242832 -3.08479e-05 -6.70064e-05)
(0.00238668 -4.12234e-05 -9.54551e-05)
(0.00237821 -5.2475e-05 -0.000127455)
(0.00226601 -6.42763e-05 -0.000144001)
(0.00240005 -1.73872e-05 9.51916e-06)
(0.0024402 -1.69357e-05 1.67878e-05)
(0.00245947 -2.2739e-05 1.57537e-05)
(0.00250587 -3.14835e-05 9.98125e-06)
(0.00247752 -4.38205e-05 -1.01121e-05)
(0.0025079 -6.19593e-05 -3.04982e-05)
(0.00248206 -8.9606e-05 -5.88753e-05)
(0.00248524 -0.000120142 -9.16277e-05)
(0.0023361 -0.00016132 -0.000126238)
(0.00243274 -1.71486e-05 8.1057e-06)
(0.00246366 -1.73675e-05 1.14192e-05)
(0.00245162 -2.08172e-05 5.44993e-06)
(0.00249616 -2.78016e-05 -5.82894e-06)
(0.0024764 -3.7917e-05 -2.50156e-05)
(0.00249604 -5.24551e-05 -4.81886e-05)
(0.00245051 -7.53948e-05 -7.60312e-05)
(0.00243446 -0.000104514 -0.000107259)
(0.00231351 -0.000140152 -0.000129541)
(0.00240674 -1.09239e-05 3.85175e-06)
(0.00244561 -1.11813e-05 3.27078e-06)
(0.0024259 -1.32744e-05 -6.61474e-06)
(0.00247374 -1.70438e-05 -2.31798e-05)
(0.0024374 -2.30569e-05 -4.33718e-05)
(0.00245202 -3.06817e-05 -6.90238e-05)
(0.00239525 -4.20285e-05 -9.3875e-05)
(0.00237244 -5.50646e-05 -0.000121314)
(0.00227349 -6.89018e-05 -0.000136024)
(0.00237805 -1.92687e-05 5.66478e-06)
(0.00240627 -1.95287e-05 9.44872e-06)
(0.0024331 -2.29253e-05 7.91593e-06)
(0.00240852 -1.75785e-05 3.88966e-06)
(0.00246077 -1.8317e-05 5.38879e-06)
(0.00238364 -1.19172e-05 -2.50323e-07)
)
;

boundaryField
{
    inlet
    {
        type            zeroGradient;
    }
    outlet
    {
        type            zeroGradient;
    }
    wall
    {
        type            zeroGradient;
    }
    procBoundary1to0
    {
        type            processor;
        value           nonuniform List<vector> 
12
(
(0.00237941 -1.23548e-05 -3.02934e-06)
(0.0024287 -1.54007e-05 -1.23269e-06)
(0.00242923 -1.07361e-05 -1.44342e-07)
(0.00242104 -1.78991e-05 -1.94205e-06)
(0.00245708 -1.82046e-05 -5.04839e-07)
(0.00243298 -1.12857e-05 -3.90427e-07)
(0.00239056 -1.97983e-05 -2.34913e-06)
(0.00242119 -1.84419e-05 -1.77536e-06)
(0.00239605 -1.15847e-05 -2.63159e-06)
(0.00238081 -2.06505e-05 -2.77792e-06)
(0.00240309 -1.84798e-05 -2.65952e-06)
(0.00238587 -1.22612e-05 -3.72809e-06)
)
;
    }
    procBoundary1to3
    {
        type            processor;
        value           nonuniform List<vector> 
27
(
(0.00240823 6.72527e-07 7.82944e-06)
(0.00240016 1.03125e-06 6.62507e-06)
(0.00238966 -1.1654e-07 -3.62516e-06)
(0.00238411 -2.31785e-06 -2.09215e-05)
(0.00236337 -4.0818e-06 -4.44919e-05)
(0.00235917 -5.44906e-06 -7.32755e-05)
(0.00232908 -5.15546e-06 -0.000106355)
(0.00229921 -4.14784e-06 -0.000142194)
(0.00224358 -1.14532e-06 -0.000167878)
(0.00242801 -5.802e-07 6.5503e-06)
(0.0024533 -2.60133e-07 5.8027e-06)
(0.00243816 -1.23571e-06 -6.34969e-06)
(0.00245417 -2.65639e-06 -2.47149e-05)
(0.00242059 -4.25248e-06 -4.91783e-05)
(0.00242567 -5.02614e-06 -7.78753e-05)
(0.00238466 -4.86532e-06 -0.000110735)
(0.00237261 -2.018e-06 -0.000147878)
(0.0022946 4.0037e-06 -0.000182362)
(0.00240744 -2.18171e-06 1.82926e-06)
(0.00245192 -2.28942e-06 -2.3846e-07)
(0.00243347 -3.32135e-06 -1.24023e-05)
(0.00246071 -4.51694e-06 -3.05609e-05)
(0.00242757 -6.05196e-06 -5.28243e-05)
(0.00244529 -6.7142e-06 -8.04366e-05)
(0.00239867 -6.91223e-06 -0.000109669)
(0.00237062 -5.37037e-06 -0.000140079)
(0.00229236 -1.83881e-06 -0.000163449)
)
;
    }
    procBoundary1to5
    {
        type            processor;
        value           nonuniform List<vector> 
32
(
(0.00247842 -2.87179e-05 1.73837e-06)
(0.00245872 -4.01733e-05 -1.53478e-05)
(0.00249104 -5.55435e-05 -3.25936e-05)
(0.00244533 -8.41274e-05 -6.00433e-05)
(0.00245805 -0.000115791 -8.68567e-05)
(0.00233436 -0.000162708 -0.000119673)
(0.00243926 -2.05748e-05 -1.44444e-06)
(0.00247218 -2.57849e-05 -1.22428e-05)
(0.00244973 -3.5315e-05 -2.97482e-05)
(0.0024821 -4.83383e-05 -5.00651e-05)
(0.0024366 -7.3705e-05 -7.49514e-05)
(0.00243199 -0.000102888 -0.000100467)
(0.00232485 -0.000141304 -0.000121806)
(0.00243212 -1.2557e-05 -2.36117e-06)
(0.00240828 -1.45761e-05 -1.22515e-05)
(0.00244319 -1.80608e-05 -2.74044e-05)
(0.00241508 -2.40297e-05 -4.5182e-05)
(0.00241793 -3.19002e-05 -6.63934e-05)
(0.00237426 -4.49312e-05 -8.84921e-05)
(0.00234485 -5.97926e-05 -0.000110035)
(0.00227094 -7.76313e-05 -0.000125799)
(0.0023653 -2.02759e-05 2.92587e-06)
(0.00239309 -2.08477e-05 4.67904e-06)
(0.00247842 -2.87179e-05 1.73837e-06)
(0.00243926 -2.05748e-05 -1.44444e-06)
(0.0024129 -2.37894e-05 1.68866e-06)
(0.00238788 -1.83495e-05 1.20686e-06)
(0.00243926 -2.05748e-05 -1.44444e-06)
(0.00243212 -1.2557e-05 -2.36117e-06)
(0.00241747 -1.90875e-05 3.61894e-07)
(0.00243212 -1.2557e-05 -2.36117e-06)
(0.0023651 -1.32816e-05 -2.36789e-06)
)
;
    }
    procBoundary1to7
    {
        type            processor;
        value           uniform (0.00238342 -4.14983e-06 -3.03661e-06);
    }
}


// ************************************************************************* //
