/*--------------------------------*- C++ -*----------------------------------*\
| =========                 |                                                 |
| \\      /  F ield         | OpenFOAM: The Open Source CFD Toolbox           |
|  \\    /   O peration     | Version:  4.x                                   |
|   \\  /    A nd           | Web:      www.OpenFOAM.org                      |
|    \\/     M anipulation  |                                                 |
\*---------------------------------------------------------------------------*/
FoamFile
{
    version     2.0;
    format      ascii;
    class       volScalarField;
    location    "11";
    object      p;
}
// * * * * * * * * * * * * * * * * * * * * * * * * * * * * * * * * * * * * * //

dimensions      [1 -1 -2 0 0 0 0];

internalField   nonuniform List<scalar> 
87
(
5654.6
5703.41
5636.26
5697.24
5616.97
5691.99
5596.42
5688.58
5574.76
5654.9
5703.87
5637.14
5697.69
5619.06
5691.91
5600.76
5686.49
5584.34
5655.32
5704.88
5637.17
5698.77
5619.07
5693.02
5601.21
5687.33
5585.39
3777.34
3826.38
3759.13
3820.21
3739.06
3815.09
3715.89
3812.97
3683.84
3777.83
3826.77
3760.01
3820.18
3740.69
3813.87
3721.35
3808.77
3703.47
3778.26
3827.4
3760.18
3821
3741.09
3815.38
3722.35
3810.45
3705.2
1900.97
1949.4
1883.05
1942.66
1863.53
1936.71
1841.11
1933.36
1810.33
1901.32
1949.59
1883.52
1942.3
1864.76
1935.04
1845.72
1929.02
1828.39
1902.12
1950.05
1884.6
1942.94
1866.45
1936.22
1848.81
1930.26
1832.92
23.159
71.9302
4.56755
23.408
71.9345
23.3154
)
;

boundaryField
{
    inlet
    {
        type            calculated;
        value           nonuniform 0();
    }
    outlet
    {
        type            calculated;
        value           nonuniform List<scalar> 9(5633.74 5633.74 5633.74 3755.83 3755.83 3755.83 1877.91 1877.91 1877.91);
    }
    wall
    {
        type            calculated;
        value           nonuniform List<scalar> 
57
(
6592.89
6593.01
6593.34
6641.51
6641.84
6642.89
6574.2
6575.07
6575.38
6635.07
6635.74
6637.29
6554.78
6557.36
6557.94
6629.86
6630.51
6632.18
6534.48
6539.66
6540.55
6626.75
6625.61
6626.75
6538.89
6524.12
6525.24
5654.6
3777.34
1900.97
23.1591
5703.41
3826.38
1949.4
71.9302
5636.26
3759.13
1883.05
4.56755
5697.24
3820.21
1942.66
5616.97
3739.06
1863.53
5691.99
3815.09
1936.71
5596.42
3715.89
1841.11
5688.58
3812.97
1933.36
5574.76
3683.84
1810.33
)
;
    }
    procBoundary1to0
    {
        type            processor;
        value           nonuniform List<scalar> 
12
(
5709.9
5710.33
5711.22
3832.94
3833.48
3834.09
1956.31
1956.79
1957.24
78.9763
79.3776
79.5675
)
;
    }
    procBoundary1to3
    {
        type            processor;
        value           nonuniform List<scalar> 
27
(
5655.8
5704.39
5637.78
5697.74
5619.34
5691.82
5599.91
5687.15
5577.24
3778.72
3827.03
3760.66
3820.03
3741.75
3813.61
3723.05
3808.06
3704.84
1902.88
1949.75
1885.02
1942.06
1866.58
1934.86
1848.18
1928.47
1830.79
)
;
    }
    procBoundary1to5
    {
        type            processor;
        value           nonuniform List<scalar> 
32
(
65.2196
-15.9149
59.5285
-40.1653
57.358
-71.3979
4.68464
64.5329
-14.7044
57.5342
-34.5227
52.0969
-52.1455
72.2012
4.92601
65.0731
-14.0248
58.6877
-32.737
53.7698
-49.7914
-1853.63
-1805.55
65.2196
4.68464
-1871.56
-1853.25
4.68464
72.2012
-1805.63
72.2012
-1852.17
)
;
    }
    procBoundary1to7
    {
        type            processor;
        value           uniform 24.6844;
    }
}


// ************************************************************************* //
