/*--------------------------------*- C++ -*----------------------------------*\
| =========                 |                                                 |
| \\      /  F ield         | OpenFOAM: The Open Source CFD Toolbox           |
|  \\    /   O peration     | Version:  4.x                                   |
|   \\  /    A nd           | Web:      www.OpenFOAM.org                      |
|    \\/     M anipulation  |                                                 |
\*---------------------------------------------------------------------------*/
FoamFile
{
    version     2.0;
    format      ascii;
    class       volScalarField;
    location    "11";
    object      p_rgh;
}
// * * * * * * * * * * * * * * * * * * * * * * * * * * * * * * * * * * * * * //

dimensions      [1 -1 -2 0 0 0 0];

internalField   nonuniform List<scalar> 
87
(
24.8717
74.7914
8.63907
70.2556
-9.91208
64.758
-31.9438
59.5647
-209.984
26.2332
76.0854
9.56038
69.3864
-10.7426
60.2705
-32.6663
51.8241
-54.3695
27.1936
76.7646
7.89262
67.6023
-14.1683
58.0514
-34.7829
50.7656
-53.701
24.3672
73.9797
7.17511
68.5204
-12.7023
63.2102
-36.8469
59.8658
-82.9261
24.9775
73.7764
6.38226
65.6773
-14.8807
57.3972
-35.8663
51.4689
-56.0852
24.9431
73.5069
5.30472
65.1165
-15.6948
57.885
-35.6253
52.3234
-53.257
24.2326
72.9053
6.72237
66.4761
-12.7051
60.4249
-35.5536
56.5309
-70.8665
24.2911
72.3762
5.97356
64.4092
-13.4706
56.6412
-32.9338
50.4442
-51.2909
24.8673
72.5013
6.68387
64.6559
-12.1571
57.3785
-30.1878
51.2392
-46.4055
23.159
71.9302
4.56755
23.408
71.9345
23.3154
)
;

boundaryField
{
    inlet
    {
        type            fixedFluxPressure;
        gradient        nonuniform 0();
        value           nonuniform 0();
    }
    outlet
    {
        type            fixedValue;
        value           uniform 0;
    }
    wall
    {
        type            fixedFluxPressure;
        gradient        nonuniform List<scalar> 
57
(
-0.000363418
-0.000404632
-0.000731962
-0.000779944
-0.000523578
-0.000465903
-0.000515797
-0.00086202
-0.00191681
-0.000304463
-0.000374437
-0.00030382
-0.000168766
-0.000570209
-0.000136539
-6.68692e-05
3.6807e-05
0.000148941
-0.000147556
-8.20393e-06
0.00131699
-0.000562345
-0.000369821
-0.000401714
-0.00138881
-0.0013159
-0.0013769
-9.85024e-05
-2.03123e-05
1.53649e-06
1.8312e-05
-0.00799431
-7.1962e-05
-1.49073e-05
2.89714e-05
-0.000184714
-0.000184663
-3.25914e-05
9.78703e-06
-3.11918e-05
-3.75021e-05
2.68038e-07
-7.27607e-05
-0.000130341
-6.2468e-05
-0.000490675
-4.23731e-05
-2.08466e-06
-0.000500705
-3.28895e-05
2.11092e-05
0.000336192
1.88765e-05
2.30327e-05
-3.83727e-05
4.40877e-05
0.000151041
)
;
        value           nonuniform List<scalar> 
57
(
24.8717
26.2332
27.1936
74.7914
76.0854
76.7646
8.63906
9.56037
7.89259
70.2556
69.3864
67.6023
-9.91208
-10.7427
-14.1683
64.758
60.2705
58.0514
-31.9438
-32.6663
-34.7829
59.5647
51.8241
50.7656
-209.984
-54.3695
-53.701
24.8717
24.3672
24.2326
23.1591
74.7913
73.9797
72.9053
71.9302
8.63907
7.17511
6.72237
4.56755
70.2556
68.5204
66.4761
-9.91208
-12.7023
-12.7051
64.758
63.2102
60.4249
-31.9438
-36.8469
-35.5536
59.5647
59.8658
56.5309
-209.984
-82.9261
-70.8665
)
;
    }
    procBoundary1to0
    {
        type            processor;
        value           nonuniform List<scalar> 
12
(
79.1225
80.4549
82.1602
79.3379
80.387
80.9846
79.3083
79.8251
80.1782
78.9763
79.3776
79.5675
)
;
    }
    procBoundary1to3
    {
        type            processor;
        value           nonuniform List<scalar> 
27
(
27.6358
75.9356
8.06142
66.2888
-13.8691
57.1986
-35.7671
50.8579
-90.6511
25.5455
73.2672
6.02294
64.4767
-14.6209
56.5274
-34.5365
50.1155
-54.699
25.7254
72.3611
7.34648
64.085
-11.6654
56.3494
-30.5185
49.6177
-48.2757
)
;
    }
    procBoundary1to5
    {
        type            processor;
        value           nonuniform List<scalar> 
32
(
65.2196
-15.9149
59.5285
-40.1653
57.358
-71.3979
4.68464
64.5329
-14.7044
57.5342
-34.5227
52.0969
-52.1455
72.2012
4.92601
65.0731
-14.0248
58.6877
-32.737
53.7698
-49.7914
23.8058
71.7643
65.2196
4.68464
5.67957
24.4804
4.68464
72.2012
72.3258
72.2012
25.546
)
;
    }
    procBoundary1to7
    {
        type            processor;
        value           uniform 24.6844;
    }
}


// ************************************************************************* //
