/*--------------------------------*- C++ -*----------------------------------*\
| =========                 |                                                 |
| \\      /  F ield         | OpenFOAM: The Open Source CFD Toolbox           |
|  \\    /   O peration     | Version:  4.x                                   |
|   \\  /    A nd           | Web:      www.OpenFOAM.org                      |
|    \\/     M anipulation  |                                                 |
\*---------------------------------------------------------------------------*/
FoamFile
{
    version     2.0;
    format      ascii;
    class       volScalarField;
    location    "11";
    object      Sm;
}
// * * * * * * * * * * * * * * * * * * * * * * * * * * * * * * * * * * * * * //

dimensions      [1 -3 -1 0 0 0 0];

internalField   nonuniform List<scalar> 
87
(
3.71992e-65
5.88988e-65
3.79742e-65
5.11489e-65
3.25493e-65
4.88236e-65
4.41734e-65
5.03728e-65
4.80477e-65
3.64237e-65
3.2549e-65
4.64982e-65
4.18483e-65
3.71981e-65
5.03726e-65
6.5871e-65
4.57219e-65
3.95223e-65
3.48734e-65
5.50225e-65
5.50221e-65
7.43957e-65
5.50213e-65
4.33973e-65
4.9596e-65
4.57214e-65
4.49461e-65
6.43228e-65
5.6573e-65
5.3473e-65
6.19977e-65
5.81225e-65
6.58719e-65
8.36954e-65
7.28456e-65
6.35458e-65
7.51717e-65
5.03724e-65
6.43216e-65
6.97461e-65
6.97458e-65
5.65711e-65
7.51695e-65
7.59433e-65
5.50194e-65
8.13701e-65
6.58711e-65
6.1996e-65
5.26963e-65
5.26959e-65
7.36186e-65
8.05927e-65
1.03064e-64
4.88194e-65
7.0522e-65
5.81225e-65
7.67213e-65
7.90461e-65
5.81219e-65
8.44698e-65
7.05203e-65
5.73462e-65
4.18465e-65
7.67206e-65
7.05209e-65
5.65716e-65
6.1221e-65
6.97448e-65
6.97445e-65
6.5869e-65
7.20679e-65
4.41699e-65
7.90446e-65
6.35453e-65
5.11461e-65
9.06677e-65
8.29176e-65
8.75665e-65
6.81926e-65
7.90408e-65
3.48706e-65
6.58719e-65
5.26976e-65
8.0596e-65
7.05207e-65
9.99686e-65
5.73458e-65
)
;

boundaryField
{
    inlet
    {
        type            calculated;
        value           nonuniform 0();
    }
    outlet
    {
        type            calculated;
        value           uniform 0;
    }
    wall
    {
        type            calculated;
        value           uniform 0;
    }
    procBoundary1to0
    {
        type            processor;
        value           nonuniform List<scalar> 
12
(
1.70495e-65
4.26235e-65
7.20723e-65
6.1998e-65
6.74219e-65
4.95975e-65
4.72731e-65
6.27717e-65
4.57222e-65
4.9598e-65
5.50218e-65
8.05945e-65
)
;
    }
    procBoundary1to3
    {
        type            processor;
        value           nonuniform List<scalar> 
27
(
6.97466e-65
3.25483e-65
5.81217e-65
2.55736e-65
4.10723e-65
3.02231e-65
4.72713e-65
3.87471e-65
4.57211e-65
7.51705e-65
6.27706e-65
8.98938e-65
8.52437e-65
7.59437e-65
6.27697e-65
6.0444e-65
6.43181e-65
9.0665e-65
7.67195e-65
8.98932e-65
8.83428e-65
8.52429e-65
6.12193e-65
6.27687e-65
8.52408e-65
6.81918e-65
7.74903e-65
)
;
    }
    procBoundary1to5
    {
        type            processor;
        value           nonuniform List<scalar> 
32
(
6.81965e-65
8.05954e-65
6.35462e-65
6.74204e-65
7.59448e-65
8.44684e-65
6.81953e-65
5.65711e-65
5.81206e-65
6.66445e-65
8.21424e-65
8.52418e-65
7.90416e-65
8.44685e-65
6.04452e-65
7.43936e-65
5.81198e-65
4.57206e-65
6.97426e-65
5.73435e-65
8.6789e-65
6.27721e-65
4.8823e-65
6.81965e-65
6.81953e-65
6.97464e-65
7.12959e-65
6.81953e-65
8.44685e-65
6.8196e-65
8.44685e-65
8.21444e-65
)
;
    }
    procBoundary1to7
    {
        type            processor;
        value           uniform 9.91924e-65;
    }
}


// ************************************************************************* //
