/*--------------------------------*- C++ -*----------------------------------*\
| =========                 |                                                 |
| \\      /  F ield         | OpenFOAM: The Open Source CFD Toolbox           |
|  \\    /   O peration     | Version:  4.x                                   |
|   \\  /    A nd           | Web:      www.OpenFOAM.org                      |
|    \\/     M anipulation  |                                                 |
\*---------------------------------------------------------------------------*/
FoamFile
{
    version     2.0;
    format      ascii;
    class       volScalarField;
    location    "9";
    object      magGField;
}
// * * * * * * * * * * * * * * * * * * * * * * * * * * * * * * * * * * * * * //

dimensions      [1 -2 -1 0 0 0 0];

internalField   nonuniform List<scalar> 
132
(
17.5311
84.8353
18.2514
81.7777
15.4896
73.07
10.5225
54.4421
13.9956
17.6741
89.818
19.2776
92.4883
21.5943
93.7427
27.681
89.0105
40.1166
18.8581
90.5719
21.2143
94.9199
25.5008
98.0124
35.2691
97.5483
84.6792
60.7948
112.369
65.5474
123.174
66.6276
138.233
61.4915
172.649
91.4129
0.000387505
70.4031
0.000202333
62.4158
9.07671e-05
50.8476
16.2181
3.76544
79.9144
4.82579
78.6419
7.71119
74.4389
14.6164
63.6426
27.2831
6.35896
81.1497
4.51569
81.0059
2.92288
76.7446
5.06035
65.346
15.5273
49.9609
99.6483
50.5767
103.156
47.9626
103.812
41.2815
95.935
37.4792
0.000183828
67.2489
7.28456e-05
57.0092
16.5078
12.0746
84.677
8.66563
86.8265
6.05522
86.4501
4.46757
76.0756
13.935
15.3817
84.4978
14.9618
87.6805
15.9207
90.539
23.2747
87.754
62.3709
60.2207
107.968
63.6309
115.758
64.3476
129.534
59.9835
162.552
58.5814
36.5978
78.2457
36.303
35.9443
90.6527
26.4449
86.4794
13.4189
79.5432
4.35922
65.6311
17.1365
53.8913
99.0511
50.9039
97.1472
42.5915
91.6235
32.9835
78.3033
31.9479
63.9072
108.027
68.0879
113.701
71.13
120.022
72.9024
126.977
84.7812
)
;

boundaryField
{
    inlet
    {
        type            calculated;
        value           nonuniform 0();
    }
    outlet
    {
        type            calculated;
        value           nonuniform List<scalar> 
16
(
31.0317
88.835
187.122
198.676
36.0563
60.4546
34.481
82.0997
36.564
30.9803
138.487
128.325
80.0016
37.7509
70.5259
184.351
)
;
    }
    wall
    {
        type            calculated;
        value           uniform 0;
    }
    procBoundary7to0
    {
        type            processor;
        value           uniform 85.6708;
    }
    procBoundary7to1
    {
        type            processor;
        value           uniform 15.8905;
    }
    procBoundary7to3
    {
        type            processor;
        value           nonuniform List<scalar> 
36
(
8.8299
84.6997
9.0202
85.7644
10.7494
85.1937
10.5608
76.3422
16.2362
15.4582
89.863
15.4079
92.3788
15.3106
94.4925
16.9331
96.7115
35.3848
13.244
89.7566
13.7877
95.0748
17.1842
104.631
23.9374
126.749
62.5836
61.3562
113.913
67.7553
122.42
66.5221
133.275
56.4782
164.978
48.0992
)
;
    }
    procBoundary7to5
    {
        type            processor;
        value           nonuniform List<scalar> 
44
(
89.2231
14.7618
90.8368
14.6899
91.5643
15.927
84.1852
23.3666
0.000473066
75.0819
2.69066
78.3333
3.13926
74.7562
5.90098
65.8976
25.1993
0.000473066
75.0819
75.0819
0.000348798
71.7334
10.6303
90.0352
14.3044
85.1619
26.0946
7.67202
75.5771
0.000348798
71.7334
71.7334
44.1862
87.8137
44.3153
99.3605
30.8332
53.2338
97.0962
52.1912
94.5655
44.1862
87.8137
87.8137
)
;
    }
    procBoundary7to6
    {
        type            processor;
        value           nonuniform List<scalar> 
12
(
87.3705
86.9109
104.374
79.7178
80.7888
96.158
83.2787
83.574
102.293
91.8878
97.4263
103.918
)
;
    }
}


// ************************************************************************* //
