/*--------------------------------*- C++ -*----------------------------------*\
| =========                 |                                                 |
| \\      /  F ield         | OpenFOAM: The Open Source CFD Toolbox           |
|  \\    /   O peration     | Version:  4.x                                   |
|   \\  /    A nd           | Web:      www.OpenFOAM.org                      |
|    \\/     M anipulation  |                                                 |
\*---------------------------------------------------------------------------*/
FoamFile
{
    version     2.0;
    format      ascii;
    class       volScalarField;
    location    "9";
    object      QWallFluid;
}
// * * * * * * * * * * * * * * * * * * * * * * * * * * * * * * * * * * * * * //

dimensions      [1 -1 -3 0 0 0 0];

internalField   nonuniform List<scalar> 
132
(
0
0
0
0
0
0
0
0
0
0
0
0
0
0
0
0
0
0
0
0
0
0
0
0
0
0
0
5.72679e+08
9.36129e+08
6.08224e+08
1.00748e+09
6.16229e+08
1.10486e+09
5.77924e+08
1.31992e+09
7.93642e+08
0
0
0
0
0
0
0
0
0
0
0
0
0
0
0
0
0
0
0
0
0
0
0
0
0
4.89466e+08
8.50344e+08
4.94287e+08
8.74208e+08
4.73741e+08
8.78654e+08
4.20168e+08
8.24898e+08
3.88911e+08
0
0
0
0
0
0
0
0
0
0
0
0
0
0
0
0
0
0
0
0
0
0
0
5.68349e+08
9.06678e+08
5.93955e+08
9.58646e+08
5.993e+08
1.04888e+09
5.66557e+08
1.2578e+09
5.55938e+08
3.81577e+08
7.00789e+08
3.79117e+08
3.76117e+08
7.88357e+08
2.94233e+08
7.59187e+08
1.70999e+08
7.1007e+08
6.95578e+07
6.08844e+08
2.07948e+08
5.20036e+08
8.46264e+08
4.96843e+08
8.33226e+08
4.30801e+08
7.95104e+08
3.5112e+08
7.01202e+08
3.42273e+08
1.19203e+09
1.81415e+09
1.25402e+09
1.89e+09
1.29865e+09
1.97359e+09
1.32447e+09
2.06456e+09
1.49447e+09
)
;

boundaryField
{
    inlet
    {
        type            calculated;
        value           nonuniform 0();
    }
    outlet
    {
        type            calculated;
        value           uniform 0;
    }
    wall
    {
        type            calculated;
        value           uniform 0;
    }
    procBoundary7to0
    {
        type            processor;
        value           uniform 0;
    }
    procBoundary7to1
    {
        type            processor;
        value           uniform 0;
    }
    procBoundary7to3
    {
        type            processor;
        value           nonuniform List<scalar> 
36
(
0
0
0
0
0
0
0
0
0
0
0
0
0
0
0
0
0
0
0
0
0
0
0
0
0
0
0
5.76906e+08
9.46405e+08
6.24559e+08
1.00253e+09
6.15448e+08
1.07304e+09
5.39912e+08
1.27279e+09
4.7482e+08
)
;
    }
    procBoundary7to5
    {
        type            processor;
        value           nonuniform List<scalar> 
44
(
0
0
0
0
0
0
0
0
0
0
0
0
0
0
0
0
0
0
0
0
0
0
0
0
0
0
0
0
0
0
0
0
4.43658e+08
7.68544e+08
4.44695e+08
8.48378e+08
3.32685e+08
5.14954e+08
8.32876e+08
5.0687e+08
8.15464e+08
4.43658e+08
7.68544e+08
7.68544e+08
)
;
    }
    procBoundary7to6
    {
        type            processor;
        value           nonuniform List<scalar> 
12
(
0
0
8.82457e+08
0
0
8.26431e+08
0
0
8.68349e+08
7.96939e+08
8.3514e+08
1.75874e+09
)
;
    }
}


// ************************************************************************* //
