/*--------------------------------*- C++ -*----------------------------------*\
| =========                 |                                                 |
| \\      /  F ield         | OpenFOAM: The Open Source CFD Toolbox           |
|  \\    /   O peration     | Version:  4.x                                   |
|   \\  /    A nd           | Web:      www.OpenFOAM.org                      |
|    \\/     M anipulation  |                                                 |
\*---------------------------------------------------------------------------*/
FoamFile
{
    version     2.0;
    format      ascii;
    class       volVectorField;
    location    "9";
    object      UsNext;
}
// * * * * * * * * * * * * * * * * * * * * * * * * * * * * * * * * * * * * * //

dimensions      [0 1 -1 0 0 0 0];

internalField   nonuniform List<vector> 
132
(
(-1.57087e-07 -1.56407e-08 4.20042e-08)
(-1.53043e-07 -1.31321e-08 4.41615e-08)
(-1.38018e-07 -6.02602e-09 4.1934e-08)
(-1.2621e-07 -4.63051e-09 1.45566e-08)
(-9.81459e-08 3.82819e-09 4.89533e-09)
(-6.25401e-08 8.55144e-09 4.92457e-09)
(-4.64035e-08 4.66362e-09 1.49689e-09)
(-2.77692e-08 8.07598e-09 8.17851e-09)
(-9.37866e-09 8.67511e-09 1.17055e-08)
(-1.57736e-07 -9.25987e-09 3.98562e-08)
(-1.5393e-07 -9.53635e-09 4.48325e-08)
(-1.41891e-07 -1.07471e-08 3.50633e-08)
(-1.29208e-07 -5.85768e-09 1.92518e-08)
(-8.50081e-08 -1.08302e-09 -3.55071e-09)
(-6.17636e-08 -3.24566e-09 -6.53158e-09)
(-4.84482e-08 -7.93789e-10 -4.14645e-09)
(-3.6467e-08 -2.1101e-09 1.23846e-08)
(-2.20357e-08 6.49245e-09 1.90794e-08)
(-1.54272e-07 -1.11338e-08 2.4441e-08)
(-1.49362e-07 -6.29008e-09 3.69912e-08)
(-1.34907e-07 -4.88972e-09 2.78446e-08)
(-1.16506e-07 -6.77257e-09 1.52425e-08)
(-8.17425e-08 -5.70023e-09 -1.39611e-09)
(-5.8579e-08 -7.09425e-09 -4.8647e-09)
(-4.59026e-08 -4.33661e-09 -1.29951e-09)
(-3.69467e-08 -1.15077e-08 1.86448e-08)
(-4.88173e-08 -2.11613e-08 1.75935e-08)
(-1.29202e-07 2.53262e-09 5.97458e-09)
(-1.11782e-07 -1.1438e-09 5.35325e-09)
(-8.72961e-08 -1.09601e-08 1.3766e-08)
(-8.15002e-08 -7.63528e-09 9.10906e-09)
(-6.04989e-08 -4.87981e-09 4.19424e-09)
(-4.58995e-08 -2.08152e-09 1.08419e-09)
(-3.04172e-08 -8.21543e-09 2.47162e-09)
(-2.37535e-08 -3.14018e-09 1.45737e-08)
(-2.95151e-08 -1.25959e-08 5.38886e-09)
(-1.33901e-07 -1.3991e-08 2.53433e-08)
(-1.17981e-07 -9.5954e-09 1.31689e-08)
(-7.5927e-08 1.02209e-10 9.34862e-10)
(-5.64842e-08 -2.70627e-09 -2.70726e-09)
(-3.76608e-08 -3.3481e-12 -3.72025e-09)
(-2.16643e-08 4.21638e-09 -1.44306e-09)
(-1.05912e-08 1.3011e-09 -2.13294e-09)
(-1.54921e-07 -6.67609e-09 2.91567e-08)
(-1.49951e-07 -5.1355e-09 3.05128e-08)
(-1.35981e-07 -5.24984e-09 2.59868e-08)
(-1.22268e-07 -4.31683e-09 1.13207e-08)
(-8.91122e-08 -4.27109e-09 -9.70655e-09)
(-5.02293e-08 -6.22739e-09 -3.8325e-09)
(-3.49277e-08 -7.69151e-10 -5.15786e-09)
(-2.34651e-08 -3.89485e-09 3.39966e-10)
(-1.0394e-08 -1.03662e-09 1.82026e-09)
(-1.52601e-07 -8.00003e-09 2.49129e-08)
(-1.46692e-07 7.90349e-09 2.90922e-08)
(-1.35987e-07 -2.93741e-09 2.12145e-08)
(-1.18899e-07 2.89267e-09 1.11049e-08)
(-8.52064e-08 -7.25976e-09 -4.22561e-09)
(-5.45434e-08 -1.21773e-08 -4.82262e-09)
(-4.25966e-08 -3.76926e-09 1.60861e-09)
(-2.38534e-08 -4.85669e-09 5.42651e-09)
(-8.11712e-08 -3.73487e-08 2.16594e-09)
(-1.31558e-07 -8.85888e-09 1.47159e-08)
(-1.30924e-07 4.83057e-09 4.23682e-09)
(-1.17854e-07 -1.23366e-08 9.43519e-09)
(-9.27785e-08 2.24461e-09 1.03253e-08)
(-6.35288e-08 -8.06314e-09 3.39434e-09)
(-3.98961e-08 -7.05783e-09 -2.702e-09)
(-2.42135e-08 -2.45358e-09 5.07007e-09)
(-1.46936e-08 -4.11217e-10 5.67005e-09)
(-3.41418e-08 -1.76613e-08 7.76225e-10)
(-6.89649e-08 -8.99261e-09 -4.84714e-09)
(-4.91234e-08 -7.1646e-09 -7.29208e-09)
(-3.15569e-08 -2.28686e-09 -7.97268e-09)
(-2.12043e-08 -1.17256e-09 -1.06258e-08)
(-9.54311e-09 -1.53606e-09 -9.47641e-09)
(-1.33936e-07 -1.04362e-08 1.70477e-08)
(-1.40067e-07 -4.48103e-09 2.70519e-08)
(-1.21685e-07 5.19436e-09 3.0237e-08)
(-8.78847e-08 -3.30225e-09 6.21239e-09)
(-6.79638e-08 -8.97497e-09 -7.85553e-09)
(-4.41299e-08 -8.57895e-09 -6.14551e-09)
(-2.99636e-08 -1.49033e-09 -6.4702e-09)
(-2.07356e-08 -9.45253e-10 -4.75735e-09)
(-1.05856e-08 -3.08368e-09 -3.47166e-09)
(-1.30329e-07 -7.83233e-09 2.06854e-08)
(-1.18184e-07 6.34669e-09 9.33807e-09)
(-1.11766e-07 -2.07942e-09 3.24842e-08)
(-9.47069e-08 1.29018e-09 3.81493e-09)
(-6.21238e-08 -8.16012e-09 -8.0292e-09)
(-4.49406e-08 -8.40729e-09 -4.62081e-09)
(-2.49963e-08 -2.02292e-09 -1.88392e-09)
(-1.52311e-08 -1.36431e-09 -4.21556e-09)
(-8.65316e-09 -3.4693e-09 -2.48142e-09)
(-8.50122e-08 -3.085e-09 1.47448e-08)
(-9.61594e-08 -8.91554e-09 6.72521e-10)
(-1.04693e-07 3.19806e-09 8.88602e-09)
(-9.11064e-08 -4.43213e-09 6.93401e-10)
(-4.69979e-08 -3.49194e-09 -3.45051e-09)
(-3.16326e-08 -5.13967e-10 -5.40573e-09)
(-1.59036e-08 -4.87578e-09 8.3034e-10)
(-6.6032e-09 -2.98317e-10 2.99784e-10)
(-4.25514e-09 -2.98883e-09 -8.69969e-10)
(-2.62224e-08 -5.8408e-09 -1.02156e-08)
(-2.46539e-08 -1.46995e-09 -8.5719e-09)
(5.24505e-11 -1.3937e-09 -1.85625e-08)
(-8.73564e-08 -1.38635e-08 1.19341e-08)
(-8.80298e-08 -2.10034e-08 5.60381e-09)
(-7.37207e-08 -9.47431e-09 4.8592e-09)
(-5.43373e-08 -6.8782e-09 -2.66191e-09)
(-4.00881e-08 -7.07837e-09 -6.51773e-09)
(-3.64144e-08 -7.24288e-09 -4.46404e-09)
(-2.18486e-08 -2.23869e-09 -8.77732e-09)
(-1.76541e-08 5.17174e-10 -3.5115e-09)
(-4.38698e-09 2.85289e-09 -5.75714e-09)
(-5.74721e-08 -1.51834e-08 6.68674e-09)
(-5.84167e-08 -1.51839e-08 1.97799e-09)
(-6.61585e-08 -1.16178e-08 8.21551e-09)
(-5.42073e-08 -8.73438e-10 -2.67909e-09)
(-3.67711e-08 -4.53835e-09 -6.12899e-09)
(-2.31743e-08 -3.83879e-09 -3.8598e-09)
(-1.31297e-08 -2.46172e-09 -5.59622e-09)
(-9.05241e-09 -9.97554e-10 -2.91724e-09)
(-3.60196e-09 -3.76327e-09 -3.54551e-09)
(-3.99717e-08 4.22914e-09 5.24095e-09)
(-4.33425e-08 -2.97688e-09 -4.83663e-10)
(-5.40751e-08 3.42125e-10 3.14514e-09)
(-5.13123e-08 2.61194e-09 1.96937e-10)
(-3.49231e-08 1.08001e-09 -2.6196e-09)
(-1.81964e-08 -3.1422e-09 -7.05116e-09)
(-1.02649e-08 -1.79775e-09 -1.26338e-09)
(-1.02271e-08 -1.22962e-09 -9.52937e-10)
(9.58756e-09 -1.79385e-08 -7.19397e-09)
)
;

boundaryField
{
    inlet
    {
        type            calculated;
        value           nonuniform 0();
    }
    outlet
    {
        type            calculated;
        value           nonuniform List<vector> 
16
(
(-9.37866e-09 8.67511e-09 1.17055e-08)
(-2.20357e-08 6.49245e-09 1.90794e-08)
(-4.88173e-08 -2.11613e-08 1.75935e-08)
(-2.95151e-08 -1.25959e-08 5.38886e-09)
(-1.05912e-08 1.3011e-09 -2.13294e-09)
(-1.0394e-08 -1.03662e-09 1.82026e-09)
(-8.11712e-08 -3.73487e-08 2.16594e-09)
(-3.41418e-08 -1.76613e-08 7.76225e-10)
(-9.54311e-09 -1.53606e-09 -9.47641e-09)
(-1.05856e-08 -3.08368e-09 -3.47166e-09)
(-8.65316e-09 -3.4693e-09 -2.48142e-09)
(-4.25514e-09 -2.98883e-09 -8.69969e-10)
(5.24505e-11 -1.3937e-09 -1.85625e-08)
(-4.38698e-09 2.85289e-09 -5.75714e-09)
(-3.60196e-09 -3.76327e-09 -3.54551e-09)
(9.58756e-09 -1.79385e-08 -7.19397e-09)
)
;
    }
    wall
    {
        type            calculated;
        value           nonuniform List<vector> 
66
(
(-8.73564e-08 -1.38635e-08 1.19341e-08)
(-5.74721e-08 -1.51834e-08 6.68674e-09)
(-3.99717e-08 4.22914e-09 5.24095e-09)
(-8.80298e-08 -2.10034e-08 5.60381e-09)
(-5.84167e-08 -1.51839e-08 1.97799e-09)
(-4.33425e-08 -2.97688e-09 -4.83663e-10)
(-7.37207e-08 -9.47431e-09 4.8592e-09)
(-6.61585e-08 -1.16178e-08 8.21551e-09)
(-5.40751e-08 3.42125e-10 3.14514e-09)
(-5.43373e-08 -6.8782e-09 -2.66191e-09)
(-5.42073e-08 -8.73438e-10 -2.67909e-09)
(-5.13123e-08 2.61194e-09 1.96937e-10)
(-4.00881e-08 -7.07837e-09 -6.51773e-09)
(-3.67711e-08 -4.53835e-09 -6.12899e-09)
(-3.49231e-08 1.08001e-09 -2.6196e-09)
(-3.64144e-08 -7.24288e-09 -4.46404e-09)
(-2.31743e-08 -3.83879e-09 -3.8598e-09)
(-1.81964e-08 -3.1422e-09 -7.05116e-09)
(-2.62224e-08 -5.8408e-09 -1.02156e-08)
(-2.18486e-08 -2.23869e-09 -8.77732e-09)
(-1.31297e-08 -2.46172e-09 -5.59622e-09)
(-1.02649e-08 -1.79775e-09 -1.26338e-09)
(-2.46539e-08 -1.46995e-09 -8.5719e-09)
(-1.76541e-08 5.17174e-10 -3.5115e-09)
(-9.05241e-09 -9.97554e-10 -2.91724e-09)
(-1.02271e-08 -1.22962e-09 -9.52937e-10)
(5.24505e-11 -1.3937e-09 -1.85625e-08)
(-4.38698e-09 2.85289e-09 -5.75714e-09)
(-3.60196e-09 -3.76327e-09 -3.54551e-09)
(9.58756e-09 -1.79385e-08 -7.19397e-09)
(-1.29202e-07 2.53262e-09 5.97458e-09)
(-1.31558e-07 -8.85888e-09 1.47159e-08)
(-8.50122e-08 -3.085e-09 1.47448e-08)
(-3.99717e-08 4.22914e-09 5.24095e-09)
(-1.11782e-07 -1.1438e-09 5.35325e-09)
(-1.30924e-07 4.83057e-09 4.23682e-09)
(-9.61594e-08 -8.91554e-09 6.72521e-10)
(-4.33425e-08 -2.97688e-09 -4.83663e-10)
(-8.72961e-08 -1.09601e-08 1.3766e-08)
(-1.17854e-07 -1.23366e-08 9.43519e-09)
(-1.04693e-07 3.19806e-09 8.88602e-09)
(-5.40751e-08 3.42125e-10 3.14514e-09)
(-8.15002e-08 -7.63528e-09 9.10906e-09)
(-9.27785e-08 2.24461e-09 1.03253e-08)
(-9.11064e-08 -4.43213e-09 6.93401e-10)
(-5.13123e-08 2.61194e-09 1.96937e-10)
(-6.04989e-08 -4.87981e-09 4.19424e-09)
(-6.35288e-08 -8.06314e-09 3.39434e-09)
(-4.69979e-08 -3.49194e-09 -3.45051e-09)
(-3.49231e-08 1.08001e-09 -2.6196e-09)
(-4.58995e-08 -2.08152e-09 1.08419e-09)
(-3.98961e-08 -7.05783e-09 -2.702e-09)
(-3.16326e-08 -5.13967e-10 -5.40573e-09)
(-1.81964e-08 -3.1422e-09 -7.05116e-09)
(-3.04172e-08 -8.21543e-09 2.47162e-09)
(-2.42135e-08 -2.45358e-09 5.07007e-09)
(-1.59036e-08 -4.87578e-09 8.3034e-10)
(-1.02649e-08 -1.79775e-09 -1.26338e-09)
(-2.37535e-08 -3.14018e-09 1.45737e-08)
(-1.46936e-08 -4.11217e-10 5.67005e-09)
(-6.6032e-09 -2.98317e-10 2.99784e-10)
(-1.02271e-08 -1.22962e-09 -9.52937e-10)
(-2.95151e-08 -1.25959e-08 5.38886e-09)
(-3.41418e-08 -1.76613e-08 7.76225e-10)
(-4.25514e-09 -2.98883e-09 -8.69969e-10)
(9.58756e-09 -1.79385e-08 -7.19397e-09)
)
;
    }
    procBoundary7to0
    {
        type            processor;
        value           uniform (-1.53974e-07 -1.87974e-08 3.84346e-08);
    }
    procBoundary7to1
    {
        type            processor;
        value           uniform (-1.59873e-07 -1.99701e-08 2.96497e-08);
    }
    procBoundary7to3
    {
        type            processor;
        value           nonuniform List<vector> 
36
(
(-1.43304e-07 -1.82251e-08 5.50476e-08)
(-1.35437e-07 -1.80629e-08 5.76708e-08)
(-1.28996e-07 -9.17601e-09 5.30376e-08)
(-1.25434e-07 -1.07281e-08 2.04833e-08)
(-1.01402e-07 1.38312e-09 -4.88319e-09)
(-6.72755e-08 7.21498e-09 -1.22734e-08)
(-5.35516e-08 6.74355e-09 -1.94357e-09)
(-4.13469e-08 1.07386e-08 2.90503e-08)
(-2.13363e-08 -1.73338e-09 4.88247e-08)
(-1.44862e-07 -2.00233e-08 5.22392e-08)
(-1.33985e-07 -2.01999e-08 5.75598e-08)
(-1.54683e-07 -2.11703e-08 4.61198e-08)
(-1.12849e-07 -5.78491e-09 2.48048e-08)
(-8.48326e-08 -1.66457e-09 2.39083e-09)
(-6.73009e-08 1.87674e-09 -1.63504e-08)
(-4.48827e-08 5.17716e-09 -4.19955e-09)
(-2.97992e-08 9.61393e-09 1.78339e-08)
(-9.13402e-09 5.40693e-09 5.69225e-08)
(-1.35435e-07 -9.60889e-09 3.70739e-08)
(-1.26923e-07 -1.5782e-08 4.37599e-08)
(-1.3174e-07 -1.33155e-08 3.54766e-08)
(-1.09872e-07 -9.82762e-09 2.40716e-08)
(-7.26364e-08 -2.48271e-09 -2.4695e-09)
(-5.54948e-08 -2.5218e-09 -9.83281e-09)
(-3.49978e-08 4.77179e-09 -1.0606e-08)
(-3.63858e-08 -5.58155e-11 3.20532e-08)
(-1.65728e-08 1.61102e-08 5.97083e-08)
(-9.60415e-08 1.02708e-08 1.60171e-08)
(-8.42307e-08 -8.31207e-09 9.27973e-09)
(-7.16538e-08 -1.62453e-08 1.91052e-08)
(-6.73681e-08 -1.4917e-08 9.15468e-09)
(-5.41925e-08 -3.22701e-09 3.48571e-09)
(-3.76515e-08 -2.56699e-09 8.62802e-10)
(-1.36503e-08 1.38172e-09 -5.50059e-11)
(-1.62892e-08 6.587e-09 3.84373e-08)
(-1.14415e-08 2.65748e-08 7.67129e-08)
)
;
    }
    procBoundary7to5
    {
        type            processor;
        value           nonuniform List<vector> 
44
(
(-1.42876e-07 -1.23995e-08 4.15186e-08)
(-1.31896e-07 -3.10376e-09 3.25006e-08)
(-1.13588e-07 2.19066e-09 1.97937e-08)
(-9.51165e-08 3.44448e-09 5.17534e-09)
(-7.02208e-08 7.48055e-09 -2.03428e-09)
(-4.83433e-08 4.95383e-09 1.32651e-10)
(-3.18694e-08 1.27802e-08 1.48772e-08)
(-1.83116e-08 5.20352e-09 8.85364e-09)
(-1.62298e-07 -1.4675e-08 2.50181e-08)
(-1.52796e-07 -1.10758e-08 3.05674e-08)
(-1.28656e-07 -1.50225e-08 2.65581e-08)
(-1.09456e-07 -3.49735e-09 1.58533e-08)
(-8.1732e-08 -2.51955e-10 4.37796e-09)
(-5.97336e-08 1.07502e-09 -2.64532e-09)
(-4.19498e-08 5.7251e-09 -1.42337e-09)
(-2.35484e-08 8.61087e-09 -7.94415e-10)
(-9.10008e-09 4.78898e-09 3.29798e-10)
(-1.62298e-07 -1.4675e-08 2.50181e-08)
(-1.52796e-07 -1.10758e-08 3.05674e-08)
(-1.52796e-07 -1.10758e-08 3.05674e-08)
(-1.23702e-07 -1.53002e-08 9.11513e-09)
(-9.62702e-08 -1.25793e-08 7.3572e-09)
(-6.72069e-08 -5.13983e-09 1.84504e-09)
(-4.75052e-08 -5.59502e-09 -4.35903e-09)
(-2.67036e-08 -1.61639e-09 -5.31437e-09)
(-1.46224e-08 1.61449e-09 -5.78246e-09)
(-9.46848e-09 -7.49944e-10 -5.45194e-09)
(-1.51117e-07 -9.68513e-09 -2.37925e-09)
(-1.41332e-07 -1.34887e-08 8.32453e-09)
(-1.23702e-07 -1.53002e-08 9.11513e-09)
(-9.62702e-08 -1.25793e-08 7.3572e-09)
(-9.62702e-08 -1.25793e-08 7.3572e-09)
(-4.62804e-08 -9.94433e-09 -1.80644e-09)
(-3.1326e-08 -8.57728e-09 -8.56694e-09)
(-1.93415e-08 -4.12792e-09 -4.73828e-09)
(-1.05035e-08 -3.19644e-09 -4.23598e-09)
(-3.88402e-09 -6.98029e-09 -6.44238e-09)
(-9.73728e-08 -1.67901e-08 4.62353e-09)
(-8.71257e-08 -2.10508e-08 2.30671e-09)
(-1.03819e-07 -2.52501e-08 9.23177e-10)
(-6.33273e-08 -4.54683e-10 3.97972e-09)
(-4.62804e-08 -9.94433e-09 -1.80644e-09)
(-3.1326e-08 -8.57728e-09 -8.56694e-09)
(-3.1326e-08 -8.57728e-09 -8.56694e-09)
)
;
    }
    procBoundary7to6
    {
        type            processor;
        value           nonuniform List<vector> 
12
(
(-1.52346e-07 -1.17457e-08 2.77949e-08)
(-1.431e-07 -7.70829e-09 1.93961e-08)
(-5.7142e-08 -1.13767e-09 9.40266e-10)
(-1.53948e-07 -8.66876e-09 2.21472e-08)
(-1.44209e-07 -2.55783e-09 1.6821e-08)
(-1.01264e-07 1.64963e-09 -1.7044e-10)
(-1.34748e-07 -1.0312e-08 1.36972e-08)
(-1.37846e-07 -9.85303e-09 2.22522e-08)
(-9.43517e-08 -3.77657e-09 2.34657e-08)
(-1.08525e-07 -2.22288e-08 -1.01992e-08)
(-9.31905e-08 -1.16803e-08 1.17888e-08)
(-5.02476e-08 -1.04102e-08 1.7736e-08)
)
;
    }
}


// ************************************************************************* //
