/*--------------------------------*- C++ -*----------------------------------*\
| =========                 |                                                 |
| \\      /  F ield         | OpenFOAM: The Open Source CFD Toolbox           |
|  \\    /   O peration     | Version:  4.x                                   |
|   \\  /    A nd           | Web:      www.OpenFOAM.org                      |
|    \\/     M anipulation  |                                                 |
\*---------------------------------------------------------------------------*/
FoamFile
{
    version     2.0;
    format      ascii;
    class       volScalarField;
    location    "24.5";
    object      Sm;
}
// * * * * * * * * * * * * * * * * * * * * * * * * * * * * * * * * * * * * * //

dimensions      [1 -3 -1 0 0 0 0];

internalField   nonuniform List<scalar> 
114
(
6.82002e-65
8.06001e-65
6.35501e-65
6.7425e-65
7.595e-65
8.44748e-65
6.82e-65
5.6575e-65
5.81249e-65
6.66498e-65
8.21497e-65
8.52497e-65
7.90496e-65
8.44749e-65
6.04499e-65
7.51748e-65
5.73498e-65
4.57248e-65
7.28496e-65
5.42497e-65
8.67994e-65
6.35503e-65
4.80502e-65
6.97502e-65
5.42501e-65
6.43251e-65
6.82001e-65
7.13e-65
5.65751e-65
5.9675e-65
7.05252e-65
6.82001e-65
8.525e-65
7.13e-65
8.36999e-65
8.13748e-65
5.26999e-65
8.60247e-65
6.89747e-65
8.21501e-65
4.5725e-65
7.28499e-65
7.59498e-65
6.19998e-65
7.05247e-65
7.12997e-65
6.89746e-65
5.57997e-65
9.9975e-65
4.33999e-65
6.66504e-65
8.21504e-65
6.74253e-65
7.36253e-65
6.97502e-65
6.89753e-65
6.66502e-65
7.28503e-65
6.58751e-65
5.42502e-65
8.37002e-65
6.04501e-65
7.13001e-65
7.13001e-65
7.0525e-65
9.145e-65
6.4325e-65
5.5025e-65
6.89751e-65
6.35501e-65
6.8975e-65
6.045e-65
1.0075e-64
7.36249e-65
8.21498e-65
8.91247e-65
8.67997e-65
4.80501e-65
9.3775e-65
8.99e-65
7.98249e-65
2.63502e-65
6.89755e-65
4.57253e-65
7.13005e-65
6.04504e-65
4.96003e-65
6.97504e-65
6.27754e-65
6.04503e-65
6.35503e-65
6.58754e-65
4.34002e-65
5.65752e-65
7.44003e-65
6.51002e-65
4.57251e-65
7.05252e-65
6.04501e-65
6.12252e-65
6.43252e-65
8.52502e-65
6.97502e-65
5.89001e-65
8.06e-65
6.51e-65
6.7425e-65
6.81999e-65
7.36253e-65
5.65751e-65
7.13001e-65
5.58001e-65
9.68749e-65
7.75e-65
)
;

boundaryField
{
    inlet
    {
        type            calculated;
        value           nonuniform 0();
    }
    outlet
    {
        type            calculated;
        value           uniform 0;
    }
    wall
    {
        type            calculated;
        value           uniform 0;
    }
    procBoundary5to1
    {
        type            processor;
        value           nonuniform List<scalar> 
32
(
7.98252e-65
5.73501e-65
8.44751e-65
7.0525e-65
5.735e-65
4.18499e-65
5.65751e-65
6.1225e-65
6.97499e-65
6.97499e-65
6.58748e-65
7.20748e-65
4.41748e-65
6.355e-65
5.115e-65
9.06748e-65
8.29248e-65
8.75747e-65
6.81997e-65
7.90496e-65
3.48748e-65
6.58753e-65
5.27002e-65
8.06002e-65
8.06002e-65
8.06002e-65
7.05252e-65
9.99751e-65
9.99751e-65
9.99751e-65
5.735e-65
5.735e-65
)
;
    }
    procBoundary5to4
    {
        type            processor;
        value           nonuniform List<scalar> 
12
(
8.91255e-65
9.06753e-65
5.65751e-65
5.96751e-65
8.21505e-65
8.13754e-65
6.82002e-65
6.82002e-65
7.20756e-65
7.59505e-65
6.27753e-65
6.35503e-65
)
;
    }
    procBoundary5to7
    {
        type            processor;
        value           nonuniform List<scalar> 
44
(
7.82749e-65
6.43248e-65
6.74247e-65
1.03075e-64
1.03849e-64
7.98245e-65
5.65746e-65
8.36994e-65
9.92e-65
7.82749e-65
6.43248e-65
7.36247e-65
6.74247e-65
6.89747e-65
8.60245e-65
8.44745e-65
7.36245e-65
3.9525e-65
6.43248e-65
8.52499e-65
6.43248e-65
7.36247e-65
5.03748e-65
5.81248e-65
7.36247e-65
6.04497e-65
5.81247e-65
8.06002e-65
7.3625e-65
6.82e-65
5.03748e-65
5.19249e-65
5.03748e-65
5.81248e-65
5.50249e-65
6.43249e-65
6.12249e-65
6.89753e-65
5.81252e-65
7.67251e-65
7.44001e-65
5.1925e-65
5.50249e-65
3.875e-65
)
;
    }
}


// ************************************************************************* //
