/*--------------------------------*- C++ -*----------------------------------*\
| =========                 |                                                 |
| \\      /  F ield         | OpenFOAM: The Open Source CFD Toolbox           |
|  \\    /   O peration     | Version:  4.x                                   |
|   \\  /    A nd           | Web:      www.OpenFOAM.org                      |
|    \\/     M anipulation  |                                                 |
\*---------------------------------------------------------------------------*/
FoamFile
{
    version     2.0;
    format      ascii;
    class       volVectorField;
    location    "49";
    object      Urel;
}
// * * * * * * * * * * * * * * * * * * * * * * * * * * * * * * * * * * * * * //

dimensions      [0 1 -1 0 0 0 0];

internalField   nonuniform List<vector> 
87
(
(-0.02546 7.03897e-09 0.000611824)
(-0.0268396 -4.45381e-05 0.000581799)
(-0.0259454 -0.000101576 0.000606827)
(-0.0273656 -0.000106629 0.000582403)
(-0.0261083 -9.90355e-05 0.000752619)
(-0.0276481 -3.40056e-05 0.000701426)
(-0.0254611 0.000149847 0.00129256)
(-0.0270552 0.000336301 0.00118005)
(-0.0216796 0.00106695 0.00288119)
(-0.0244202 0.000128826 0.000578937)
(-0.0258626 8.73617e-05 0.000534105)
(-0.0247968 6.99219e-05 0.000530358)
(-0.0262993 3.7816e-05 0.000479822)
(-0.0248614 0.000137722 0.000608149)
(-0.0264686 9.63192e-05 0.00052178)
(-0.0241821 0.000464266 0.00106367)
(-0.0257232 0.000365925 0.000989387)
(-0.0208324 0.00158114 0.00271568)
(-0.0232811 6.70046e-05 0.000508718)
(-0.0247305 2.9844e-05 0.000450047)
(-0.0234828 9.6715e-06 0.000414704)
(-0.0249782 1.38288e-05 0.000331476)
(-0.0234092 9.27957e-05 0.000448018)
(-0.0249282 0.000139582 0.000332526)
(-0.0227229 0.00039525 0.000875704)
(-0.0241186 0.000451314 0.000791017)
(-0.0198945 0.00123229 0.00261529)
(-0.0234428 1.73406e-05 0.00050884)
(-0.0249055 -3.38748e-05 0.000466224)
(-0.0236629 -9.90662e-05 0.000461942)
(-0.0251426 -0.000116038 0.000422861)
(-0.0235606 -0.000122671 0.000521224)
(-0.0250143 -7.82097e-05 0.000458312)
(-0.022684 6.10912e-05 0.000890071)
(-0.0237913 0.000230483 0.000771786)
(-0.0196024 0.000653064 0.00216076)
(-0.0220627 0.000107678 0.000463381)
(-0.0237459 6.35648e-05 0.000402603)
(-0.0221708 2.78151e-05 0.000374201)
(-0.0239502 -2.71722e-05 0.0003053)
(-0.0220609 5.24289e-05 0.000385289)
(-0.023865 -2.61316e-05 0.000280061)
(-0.0214184 0.0002726 0.00069397)
(-0.0228439 0.000135556 0.000623651)
(-0.0190554 0.00113847 0.00214484)
(-0.0207053 5.84425e-05 0.000410188)
(-0.0225566 2.03646e-05 0.000325993)
(-0.0206606 1.8225e-05 0.000291478)
(-0.0226115 -2.20677e-06 0.000199988)
(-0.0205347 6.12889e-05 0.000254636)
(-0.0223454 8.70758e-05 0.000159231)
(-0.0200359 0.000235063 0.000539059)
(-0.0212735 0.000336485 0.000576043)
(-0.0184849 0.000746244 0.00228587)
(-0.021924 2.84447e-05 0.000513056)
(-0.02337 -3.58431e-05 0.000466387)
(-0.0218814 -9.66273e-05 0.00047704)
(-0.0233711 -0.000128837 0.00041219)
(-0.0215124 -9.09278e-05 0.000524007)
(-0.0230082 -7.80023e-05 0.000351925)
(-0.0205102 0.000113645 0.000747007)
(-0.021693 0.000196405 0.00044359)
(-0.0179816 0.000640677 0.00169698)
(-0.020478 0.00012012 0.000436809)
(-0.0221996 4.95384e-05 0.000368332)
(-0.0204685 4.84689e-05 0.000357148)
(-0.0222607 -2.7079e-05 0.000259148)
(-0.0202863 9.32023e-05 0.000366278)
(-0.0220411 -1.03377e-05 0.000197577)
(-0.0196359 0.000330981 0.000580714)
(-0.0210205 0.000142672 0.000351408)
(-0.0176911 0.00117076 0.00164219)
(-0.019103 7.69072e-05 0.000349484)
(-0.0209794 3.6229e-05 0.000262134)
(-0.0190366 3.40466e-05 0.000255591)
(-0.0209706 -3.59307e-06 0.000173441)
(-0.0189055 7.12098e-05 0.000226666)
(-0.0206966 4.54007e-05 0.000123101)
(-0.0184509 0.000259999 0.000424141)
(-0.0196842 0.000192657 0.000340895)
(-0.0172683 0.000990307 0.00144226)
(-0.0206423 6.36425e-05 0.000292909)
(-0.0220285 -2.39196e-05 0.000220502)
(-0.0202319 -6.33106e-05 0.000184392)
(-0.0191003 9.45968e-05 0.000253569)
(-0.020882 -1.40361e-06 0.00020191)
(-0.017982 5.42596e-05 0.000209534)
)
;

boundaryField
{
    inlet
    {
        type            calculated;
        value           nonuniform 0();
    }
    outlet
    {
        type            calculated;
        value           nonuniform List<vector> 9((-0.0132333 0.00312516 0.0111053) (-0.0106934 0.00951562 0.00985881) (-0.0103857 0.00415564 0.0115566) (-0.00628674 -0.00069128 0.00592574) (-0.00557838 0.00562036 0.00638388) (-0.00912694 -0.000274218 0.0106858) (-0.00628351 0.000368675 0.0092847) (-0.00631104 0.00796265 0.00839798) (-0.00883924 0.00707283 0.00536257));
    }
    wall
    {
        type            calculated;
        value           nonuniform List<vector> 
57
(
(9.61415e-09 7.22054e-09 2.56738e-08)
(3.20781e-09 -5.04337e-09 1.14662e-08)
(3.60286e-09 -6.38322e-09 4.83662e-09)
(-4.27906e-08 1.05192e-06 1.02307e-07)
(1.58701e-09 -8.59163e-09 2.18705e-08)
(1.75607e-09 -9.78765e-09 7.70899e-09)
(-1.20448e-08 1.138e-09 1.66293e-08)
(-1.28177e-08 -7.14661e-09 7.89698e-09)
(1.53471e-09 -5.72007e-09 4.36088e-09)
(-6.65371e-09 -6.47537e-10 1.68133e-09)
(-2.78705e-09 -2.35059e-09 8.73506e-10)
(1.79205e-10 -2.0344e-09 1.27513e-09)
(-2.59747e-09 2.02289e-10 1.21174e-10)
(4.53232e-10 -3.61697e-09 1.58594e-10)
(8.05316e-10 -1.69251e-09 -2.60919e-11)
(-7.72332e-11 -1.17477e-09 -9.5852e-10)
(1.14655e-09 -4.8226e-10 -1.52031e-09)
(1.89436e-09 -1.05384e-09 -6.07446e-10)
(3.18909e-09 -1.81443e-09 -2.15403e-09)
(1.61056e-09 -1.7449e-09 -3.515e-09)
(2.73674e-09 -1.00326e-09 -1.68348e-09)
(2.20293e-07 3.23215e-09 -1.44674e-08)
(2.7841e-10 -5.19879e-09 -5.14282e-09)
(1.61678e-09 -3.31942e-09 -5.0954e-09)
(1.13679e-07 -7.95432e-09 -2.24214e-08)
(-3.29666e-09 -1.41856e-08 -1.10968e-08)
(3.17136e-09 -8.2327e-10 -2.86625e-09)
(9.61415e-09 7.22054e-09 2.56738e-08)
(-5.9212e-09 4.86577e-09 1.7448e-08)
(-1.26882e-09 1.9125e-10 3.48413e-09)
(-1.70239e-10 2.35939e-10 2.20984e-09)
(-4.27906e-08 1.05192e-06 1.02307e-07)
(4.14772e-10 3.07223e-09 4.03347e-08)
(3.96912e-11 1.64052e-09 5.07948e-09)
(7.37833e-10 8.86555e-10 7.69361e-10)
(-1.20448e-08 1.138e-09 1.66293e-08)
(2.54159e-09 1.68114e-09 1.48959e-08)
(1.93352e-10 1.43635e-09 6.79455e-09)
(8.73585e-10 5.45641e-10 1.72464e-09)
(-6.65371e-09 -6.47537e-10 1.68133e-09)
(1.98433e-09 -1.20746e-09 9.90169e-10)
(1.72032e-09 -3.57387e-10 1.20992e-09)
(-2.59747e-09 2.02289e-10 1.21174e-10)
(4.73718e-10 1.07264e-10 5.21985e-10)
(1.20572e-09 -1.38516e-10 3.58185e-10)
(-7.72332e-11 -1.17477e-09 -9.5852e-10)
(5.02897e-10 -5.85326e-11 -6.78887e-10)
(8.08987e-10 -1.78493e-10 -6.31276e-10)
(3.18909e-09 -1.81443e-09 -2.15403e-09)
(1.40343e-09 -4.45906e-10 -1.6387e-09)
(6.06098e-10 3.01551e-11 -8.33813e-10)
(2.20293e-07 3.23215e-09 -1.44674e-08)
(1.10963e-09 -1.48036e-09 -3.89738e-09)
(-4.71542e-10 -1.64245e-10 -1.23882e-09)
(1.13679e-07 -7.95432e-09 -2.24214e-08)
(1.07187e-10 -3.05928e-09 -7.36423e-09)
(3.04342e-10 -3.7728e-10 -2.91212e-09)
)
;
    }
    procBoundary1to0
    {
        type            processor;
        value           nonuniform List<vector> 
12
(
(-0.0261719 0.000106953 0.000691727)
(-0.0253099 0.000211281 0.000666406)
(-0.0243616 0.000123716 0.000608847)
(-0.0245144 0.00011921 0.00059347)
(-0.0234671 0.000194411 0.00055771)
(-0.0224335 9.99577e-05 0.000498917)
(-0.0231996 0.000128984 0.00056539)
(-0.0220759 0.000185014 0.000502394)
(-0.0209698 0.000118042 0.000395509)
(-0.0221734 0.000144199 0.000365867)
(-0.0209987 0.000141435 0.000333163)
(-0.0199367 7.34661e-05 0.000266272)
)
;
    }
    procBoundary1to3
    {
        type            processor;
        value           nonuniform List<vector> 
27
(
(-0.0230348 7.50614e-05 0.000427797)
(-0.0244946 6.8846e-05 0.000362541)
(-0.0232304 8.29131e-05 0.000289066)
(-0.0247041 0.000125821 0.000193378)
(-0.0230414 0.000221909 0.000220701)
(-0.0244622 0.000277292 0.000113152)
(-0.0219999 0.000508376 0.000517922)
(-0.0232428 0.000436512 0.000530372)
(-0.0190008 0.00124189 0.00185463)
(-0.0205347 3.90468e-05 0.000397516)
(-0.0223555 2.46292e-05 0.000315275)
(-0.0205265 3.59421e-05 0.000267389)
(-0.0224411 5.30328e-05 0.000141844)
(-0.0203522 8.85617e-05 0.000201457)
(-0.0221911 0.000135826 3.13923e-05)
(-0.0196809 0.000188773 0.000443693)
(-0.0211361 0.000267538 0.000341469)
(-0.0178301 0.000391236 0.00200648)
(-0.0187874 5.99871e-05 0.000339721)
(-0.0206751 4.65696e-05 0.000249944)
(-0.018718 6.10282e-05 0.00023679)
(-0.0206515 6.73026e-05 0.000132102)
(-0.0185682 0.000104837 0.000190076)
(-0.0203403 0.000101537 3.86115e-05)
(-0.018033 0.000169776 0.00034814)
(-0.0192478 8.20102e-05 0.00022249)
(-0.0168215 0.000387428 0.00146803)
)
;
    }
    procBoundary1to5
    {
        type            processor;
        value           nonuniform List<vector> 
32
(
(-0.0216291 -0.000127439 9.29948e-05)
(-0.0194758 -4.11244e-05 7.58876e-05)
(-0.0208019 -1.05069e-05 -6.34957e-05)
(-0.0183552 0.000185573 -1.74038e-05)
(-0.0191189 0.000330601 -0.000167945)
(-0.0165369 0.000656443 0.000136793)
(-0.0188522 -3.09054e-06 0.000144628)
(-0.0206963 -8.32082e-05 6.40734e-05)
(-0.0185419 1.32101e-05 4.77002e-05)
(-0.0202295 -1.68085e-05 -0.000103214)
(-0.0178931 0.000204771 6.70233e-06)
(-0.0189985 0.000175972 -0.000204322)
(-0.0166434 0.000783873 0.000443162)
(-0.0198184 -6.52083e-06 0.000155356)
(-0.0178632 1.26007e-05 0.000118772)
(-0.0196958 -9.53444e-06 4.64714e-05)
(-0.0176641 4.33621e-05 2.59825e-05)
(-0.0193253 7.81256e-05 -7.95758e-05)
(-0.0171193 0.000182636 -1.65572e-05)
(-0.0182619 0.000297253 -9.23657e-05)
(-0.0162667 0.000515126 0.000258306)
(-0.020647 0.000135864 6.41714e-05)
(-0.0220794 8.38326e-05 -2.61682e-05)
(-0.0216291 -0.000127439 9.29948e-05)
(-0.0188522 -3.09054e-06 0.000144628)
(-0.020479 5.18263e-05 -8.71103e-05)
(-0.019057 0.000138901 7.20717e-05)
(-0.0188522 -3.09054e-06 0.000144628)
(-0.0198184 -6.52083e-06 0.000155356)
(-0.0208318 7.36126e-05 1.53181e-05)
(-0.0198184 -6.52083e-06 0.000155356)
(-0.0178801 8.18188e-05 8.13141e-05)
)
;
    }
    procBoundary1to7
    {
        type            processor;
        value           uniform (-0.0177306 2.6357e-05 0.000219985);
    }
}


// ************************************************************************* //
