/*--------------------------------*- C++ -*----------------------------------*\
| =========                 |                                                 |
| \\      /  F ield         | OpenFOAM: The Open Source CFD Toolbox           |
|  \\    /   O peration     | Version:  4.x                                   |
|   \\  /    A nd           | Web:      www.OpenFOAM.org                      |
|    \\/     M anipulation  |                                                 |
\*---------------------------------------------------------------------------*/
FoamFile
{
    version     2.0;
    format      ascii;
    class       volVectorField;
    location    "49";
    object      UsNext;
}
// * * * * * * * * * * * * * * * * * * * * * * * * * * * * * * * * * * * * * //

dimensions      [0 1 -1 0 0 0 0];

internalField   nonuniform List<vector> 
87
(
(9.29929e-09 7.20917e-09 2.55885e-08)
(-4.54946e-08 1.04576e-06 1.02144e-07)
(-1.23832e-08 1.17462e-09 1.65732e-08)
(-6.98146e-09 -6.00012e-10 1.74842e-09)
(-2.85754e-09 2.61771e-10 2.23593e-10)
(-2.889e-10 -1.18623e-09 -8.27299e-10)
(2.89677e-09 -1.762e-09 -1.9018e-09)
(2.02444e-07 3.01042e-09 -1.31072e-08)
(1.04532e-07 -7.44137e-09 -2.04072e-08)
(2.75137e-09 -4.89501e-09 1.14551e-08)
(8.9822e-10 -8.32942e-09 2.18267e-08)
(-1.33539e-08 -7.06511e-09 8.04895e-09)
(-3.29671e-09 -2.19956e-09 1.02084e-09)
(-1.65954e-10 -3.40328e-09 2.38768e-10)
(6.76149e-10 -3.74447e-10 -1.32336e-09)
(1.35843e-09 -1.57594e-09 -3.08137e-09)
(4.14573e-10 -4.86812e-09 -4.41222e-09)
(-2.7547e-09 -1.32491e-08 -9.67722e-09)
(3.00239e-09 -6.12252e-09 4.98111e-09)
(9.45087e-10 -9.36975e-09 7.84963e-09)
(7.09909e-10 -5.3578e-09 4.59621e-09)
(-4.07682e-10 -1.72062e-09 1.42284e-09)
(9.62666e-11 -1.54332e-09 7.39813e-11)
(1.14697e-09 -6.42483e-10 -4.74459e-10)
(2.16416e-09 -6.8075e-10 -1.34386e-09)
(1.88891e-09 -3.12602e-09 -4.13506e-09)
(3.484e-09 -6.65448e-10 -2.01635e-09)
(-6.19408e-09 4.91223e-09 1.74012e-08)
(9.40306e-11 3.07518e-09 4.01983e-08)
(2.20495e-09 1.69101e-09 1.48939e-08)
(1.71047e-09 -1.15161e-09 1.07604e-09)
(1.86218e-10 1.47073e-10 5.9051e-10)
(3.27422e-10 -1.22922e-10 -5.41603e-10)
(1.25542e-09 -4.66168e-10 -1.42401e-09)
(1.13375e-09 -1.43428e-09 -3.43181e-09)
(2.23761e-10 -2.87589e-09 -6.63207e-09)
(-3.8132e-09 8.88511e-10 1.22434e-08)
(-1.96732e-09 -2.91636e-09 2.00558e-08)
(2.43389e-09 1.45148e-09 1.03972e-08)
(-1.63798e-10 -1.86011e-09 1.62527e-09)
(1.23708e-10 -1.13057e-09 2.42991e-11)
(6.69031e-10 -5.39009e-10 -1.09796e-09)
(1.43609e-09 -9.96314e-10 -2.35932e-09)
(1.71814e-09 -1.55289e-09 -3.24687e-09)
(4.49242e-09 -3.47123e-09 -6.55042e-09)
(8.31956e-10 -1.12474e-09 4.16872e-09)
(1.42367e-09 -1.5512e-09 7.06772e-09)
(1.50757e-09 -1.23827e-09 3.83264e-09)
(2.10414e-10 -1.84871e-09 1.70558e-09)
(8.09987e-10 -1.62113e-09 -1.70912e-10)
(1.3747e-09 -9.62553e-10 -8.78578e-10)
(2.45616e-09 -5.53882e-10 -2.08244e-09)
(3.05187e-09 -8.39538e-10 -1.68522e-09)
(1.28684e-09 -1.89646e-09 -3.23939e-09)
(-1.45582e-09 2.17894e-10 3.4625e-09)
(-2.25993e-10 1.66806e-09 5.1079e-09)
(-9.64673e-11 1.45172e-09 6.84067e-09)
(1.43465e-09 -2.90104e-10 1.28093e-09)
(9.1094e-10 -7.57255e-11 4.52509e-10)
(5.66001e-10 -1.6e-10 -4.53842e-10)
(4.85226e-10 2.42846e-13 -6.56867e-10)
(-3.69575e-10 -1.89979e-10 -9.98024e-10)
(3.70134e-10 -3.83796e-10 -2.57538e-09)
(-1.55225e-09 1.01853e-09 5.0645e-09)
(1.15647e-09 6.09849e-10 6.69476e-09)
(1.78311e-09 5.60343e-10 7.83858e-09)
(8.54088e-10 -6.58335e-10 2.29744e-09)
(1.09929e-09 -3.38689e-10 3.09368e-10)
(9.78934e-10 1.31566e-10 -7.40975e-10)
(1.1217e-09 -9.37001e-11 -1.42638e-09)
(9.23847e-10 -6.16488e-10 -1.98696e-09)
(3.2291e-10 -6.87183e-10 -1.21274e-09)
(7.27706e-10 8.03803e-10 3.39487e-09)
(1.59533e-09 1.27239e-09 4.64381e-09)
(2.11641e-09 1.4112e-09 5.23896e-09)
(1.90182e-09 3.89119e-11 1.93287e-09)
(1.63452e-09 -4.06121e-10 1.29982e-10)
(1.74487e-09 -3.01398e-10 -7.44899e-10)
(1.81535e-09 -1.92807e-10 -1.49431e-09)
(1.56414e-09 -1.26853e-10 -1.45788e-09)
(1.12907e-09 -9.29388e-10 -8.39982e-10)
(-3.15923e-10 2.49584e-10 2.17072e-09)
(6.07315e-10 8.7429e-10 7.82895e-10)
(6.74132e-10 5.92661e-10 1.74691e-09)
(-4.44721e-10 6.75091e-10 2.43811e-09)
(1.03736e-09 1.07668e-09 3.94821e-09)
(6.88797e-10 6.71563e-10 2.05994e-09)
)
;

boundaryField
{
    inlet
    {
        type            calculated;
        value           nonuniform 0();
    }
    outlet
    {
        type            calculated;
        value           nonuniform List<vector> 9((1.04532e-07 -7.44137e-09 -2.04072e-08) (-2.7547e-09 -1.32491e-08 -9.67722e-09) (3.484e-09 -6.65448e-10 -2.01635e-09) (2.23761e-10 -2.87589e-09 -6.63207e-09) (4.49242e-09 -3.47123e-09 -6.55042e-09) (1.28684e-09 -1.89646e-09 -3.23939e-09) (3.70134e-10 -3.83796e-10 -2.57538e-09) (3.2291e-10 -6.87183e-10 -1.21274e-09) (1.12907e-09 -9.29388e-10 -8.39982e-10));
    }
    wall
    {
        type            calculated;
        value           nonuniform List<vector> 
57
(
(9.29929e-09 7.20917e-09 2.55885e-08)
(2.75137e-09 -4.89501e-09 1.14551e-08)
(3.00239e-09 -6.12252e-09 4.98111e-09)
(-4.54946e-08 1.04576e-06 1.02144e-07)
(8.9822e-10 -8.32942e-09 2.18267e-08)
(9.45087e-10 -9.36975e-09 7.84963e-09)
(-1.23832e-08 1.17462e-09 1.65732e-08)
(-1.33539e-08 -7.06511e-09 8.04895e-09)
(7.09909e-10 -5.3578e-09 4.59621e-09)
(-6.98146e-09 -6.00012e-10 1.74842e-09)
(-3.29671e-09 -2.19956e-09 1.02084e-09)
(-4.07682e-10 -1.72062e-09 1.42284e-09)
(-2.85754e-09 2.61771e-10 2.23593e-10)
(-1.65954e-10 -3.40328e-09 2.38768e-10)
(9.62666e-11 -1.54332e-09 7.39813e-11)
(-2.889e-10 -1.18623e-09 -8.27299e-10)
(6.76149e-10 -3.74447e-10 -1.32336e-09)
(1.14697e-09 -6.42483e-10 -4.74459e-10)
(2.89677e-09 -1.762e-09 -1.9018e-09)
(1.35843e-09 -1.57594e-09 -3.08137e-09)
(2.16416e-09 -6.8075e-10 -1.34386e-09)
(2.02444e-07 3.01042e-09 -1.31072e-08)
(4.14573e-10 -4.86812e-09 -4.41222e-09)
(1.88891e-09 -3.12602e-09 -4.13506e-09)
(1.04532e-07 -7.44137e-09 -2.04072e-08)
(-2.7547e-09 -1.32491e-08 -9.67722e-09)
(3.484e-09 -6.65448e-10 -2.01635e-09)
(9.29929e-09 7.20917e-09 2.55885e-08)
(-6.19408e-09 4.91223e-09 1.74012e-08)
(-1.45582e-09 2.17894e-10 3.4625e-09)
(-3.15923e-10 2.49584e-10 2.17072e-09)
(-4.54946e-08 1.04576e-06 1.02144e-07)
(9.40306e-11 3.07518e-09 4.01983e-08)
(-2.25993e-10 1.66806e-09 5.1079e-09)
(6.07315e-10 8.7429e-10 7.82895e-10)
(-1.23832e-08 1.17462e-09 1.65732e-08)
(2.20495e-09 1.69101e-09 1.48939e-08)
(-9.64673e-11 1.45172e-09 6.84067e-09)
(6.74132e-10 5.92661e-10 1.74691e-09)
(-6.98146e-09 -6.00012e-10 1.74842e-09)
(1.71047e-09 -1.15161e-09 1.07604e-09)
(1.43465e-09 -2.90104e-10 1.28093e-09)
(-2.85754e-09 2.61771e-10 2.23593e-10)
(1.86218e-10 1.47073e-10 5.9051e-10)
(9.1094e-10 -7.57255e-11 4.52509e-10)
(-2.889e-10 -1.18623e-09 -8.27299e-10)
(3.27422e-10 -1.22922e-10 -5.41603e-10)
(5.66001e-10 -1.6e-10 -4.53842e-10)
(2.89677e-09 -1.762e-09 -1.9018e-09)
(1.25542e-09 -4.66168e-10 -1.42401e-09)
(4.85226e-10 2.42846e-13 -6.56867e-10)
(2.02444e-07 3.01042e-09 -1.31072e-08)
(1.13375e-09 -1.43428e-09 -3.43181e-09)
(-3.69575e-10 -1.89979e-10 -9.98024e-10)
(1.04532e-07 -7.44137e-09 -2.04072e-08)
(2.23761e-10 -2.87589e-09 -6.63207e-09)
(3.70134e-10 -3.83796e-10 -2.57538e-09)
)
;
    }
    procBoundary1to0
    {
        type            processor;
        value           nonuniform List<vector> 
12
(
(-4.89149e-10 1.71034e-10 3.58202e-10)
(2.36701e-09 -2.08557e-09 3.82806e-09)
(1.81721e-09 -1.73479e-09 2.271e-09)
(-1.9864e-09 -1.3321e-09 3.13787e-09)
(-1.13324e-09 5.80444e-10 4.62626e-09)
(7.49497e-10 -6.71333e-11 2.87444e-09)
(-1.91123e-09 -6.30043e-10 4.09543e-09)
(-2.55792e-09 1.98602e-09 4.64931e-09)
(-8.61191e-10 2.09691e-09 3.14547e-09)
(-5.2703e-10 -1.95226e-10 2.82319e-09)
(-8.80691e-10 6.45583e-10 1.91711e-09)
(-1.5049e-10 1.10088e-09 2.12898e-09)
)
;
    }
    procBoundary1to3
    {
        type            processor;
        value           nonuniform List<vector> 
27
(
(1.83151e-09 -3.24225e-09 1.79076e-09)
(2.21513e-09 -5.06248e-09 2.3273e-09)
(1.83298e-09 -4.97209e-09 9.8435e-10)
(1.04284e-09 -2.12096e-09 4.16616e-10)
(6.12052e-10 -1.44133e-09 -3.02577e-10)
(1.38552e-09 -6.98482e-10 -5.98046e-10)
(1.14509e-09 -6.67222e-10 -4.1998e-10)
(-3.32411e-09 -3.72012e-10 -1.62622e-10)
(-3.68254e-09 -7.27456e-10 1.59397e-10)
(1.80087e-09 -1.93111e-09 1.59738e-09)
(1.78489e-09 -1.09508e-09 1.71819e-09)
(1.40911e-09 -1.55223e-09 1.32056e-09)
(1.44099e-09 -1.22084e-09 4.71643e-10)
(1.62684e-09 -1.13977e-09 -3.6905e-10)
(1.60013e-09 -8.15201e-10 -9.28576e-10)
(1.60112e-09 -3.98525e-10 -1.56003e-09)
(1.20684e-09 1.41615e-10 -3.98726e-10)
(9.47943e-10 -6.97748e-10 -1.76305e-10)
(1.78618e-09 -1.13363e-10 1.48018e-09)
(1.84488e-09 5.43458e-12 1.90951e-09)
(1.65846e-09 9.10251e-10 2.47241e-09)
(1.98831e-09 -6.8466e-10 7.75783e-10)
(2.0384e-09 -8.60158e-10 -1.57519e-10)
(2.05372e-09 -3.81149e-10 -1.07454e-09)
(1.79741e-09 -2.67839e-10 -1.52973e-09)
(1.55004e-09 -1.17886e-10 -1.20249e-09)
(1.21694e-09 -2.17602e-10 -5.63054e-10)
)
;
    }
    procBoundary1to5
    {
        type            processor;
        value           nonuniform List<vector> 
32
(
(1.25622e-09 -1.84095e-10 1.27742e-09)
(9.39439e-10 -1.48829e-10 2.49579e-10)
(9.51884e-10 -1.2271e-10 -2.91307e-10)
(4.92052e-10 3.20992e-12 -4.94548e-10)
(5.98617e-10 -1.30164e-10 -6.14426e-10)
(2.38232e-09 -1.92888e-10 -7.29831e-10)
(2.50091e-09 9.07225e-10 4.77251e-09)
(2.20033e-09 -1.6569e-11 2.01267e-09)
(1.7924e-09 -2.48981e-10 3.62954e-10)
(1.38597e-09 -1.22979e-11 -4.10948e-10)
(1.07748e-09 1.85553e-10 -1.02875e-09)
(7.59375e-10 8.45817e-11 -1.18277e-09)
(4.47e-10 -2.35055e-11 -9.09529e-10)
(1.73317e-09 6.12931e-10 3.02477e-09)
(2.38946e-09 9.82846e-10 2.723e-09)
(2.63197e-09 4.00464e-10 1.35428e-09)
(2.10173e-09 9.72601e-11 3.29135e-10)
(1.71053e-09 4.92023e-11 -3.62224e-10)
(1.27073e-09 1.89678e-10 -8.41755e-10)
(1.05174e-09 8.58961e-11 -1.26335e-09)
(5.33529e-10 6.27614e-11 -5.41949e-10)
(-9.08781e-12 3.0113e-10 5.18094e-10)
(7.02798e-10 3.39927e-10 7.52129e-10)
(1.25622e-09 -1.84095e-10 1.27742e-09)
(2.50091e-09 9.07225e-10 4.77251e-09)
(8.8745e-10 1.31869e-11 1.04848e-09)
(1.04382e-09 5.87407e-10 9.77276e-10)
(2.50091e-09 9.07225e-10 4.77251e-09)
(1.73317e-09 6.12931e-10 3.02477e-09)
(2.40135e-09 8.78545e-10 1.01715e-09)
(1.73317e-09 6.12931e-10 3.02477e-09)
(1.08763e-09 5.82681e-10 1.49334e-09)
)
;
    }
    procBoundary1to7
    {
        type            processor;
        value           uniform (1.91113e-09 4.06498e-10 1.47828e-09);
    }
}


// ************************************************************************* //
