/*--------------------------------*- C++ -*----------------------------------*\
| =========                 |                                                 |
| \\      /  F ield         | OpenFOAM: The Open Source CFD Toolbox           |
|  \\    /   O peration     | Version:  4.x                                   |
|   \\  /    A nd           | Web:      www.OpenFOAM.org                      |
|    \\/     M anipulation  |                                                 |
\*---------------------------------------------------------------------------*/
FoamFile
{
    version     2.0;
    format      ascii;
    class       volScalarField;
    location    "13";
    object      ddtVoidfraction;
}
// * * * * * * * * * * * * * * * * * * * * * * * * * * * * * * * * * * * * * //

dimensions      [0 0 -1 0 0 0 0];

internalField   nonuniform List<scalar> 
87
(
0.00197728
0.00247108
0.00303936
0.00391605
0.0047017
0.00388218
-0.00067635
-0.010024
-0.0204452
0.00220266
0.00260199
0.00324057
0.00476014
0.00654048
0.00657224
0.00199876
-0.0103607
-0.0291333
0.0025526
0.00288081
0.00359078
0.00595746
0.0092933
0.0110979
0.00798363
-0.00733755
-0.0471066
0.00220899
0.00252854
0.00306014
0.00423612
0.00559028
0.00522674
0.000822523
-0.00943606
-0.0237127
0.00255101
0.00275303
0.00344709
0.00545379
0.0082233
0.00928671
0.00596017
-0.00751692
-0.0405946
0.00317745
0.00318945
0.00403239
0.00724719
0.0125778
0.0174218
0.0216868
0.0112439
-0.0903277
0.00256298
0.00266066
0.00305336
0.0043904
0.00635443
0.00628871
0.00234272
-0.00720764
-0.0259919
0.0028339
0.00293107
0.00349815
0.00599603
0.00986722
0.0117067
0.011257
0.00205109
-0.0565349
0.00317509
0.00344319
0.00405577
0.00828668
0.0163841
0.0251018
0.0461832
0.079291
-0.191337
0.00237816
0.00251275
0.00246656
0.00275094
0.00281354
0.00335242
)
;

boundaryField
{
    inlet
    {
        type            calculated;
        value           nonuniform 0();
    }
    outlet
    {
        type            calculated;
        value           uniform 0;
    }
    wall
    {
        type            calculated;
        value           nonuniform List<scalar> 
57
(
0.00197728
0.00220266
0.0025526
0.00247108
0.00260199
0.00288081
0.00303936
0.00324057
0.00359078
0.00391605
0.00476014
0.00595746
0.0047017
0.00654048
0.0092933
0.00388218
0.00657224
0.0110979
-0.00067635
0.00199876
0.00798363
-0.010024
-0.0103607
-0.00733755
-0.0204452
-0.0291333
-0.0471066
0.00197728
0.00220899
0.00256298
0.00237816
0.00247108
0.00252854
0.00266066
0.00251275
0.00303936
0.00306014
0.00305336
0.00246656
0.00391605
0.00423612
0.0043904
0.0047017
0.00559028
0.00635443
0.00388218
0.00522674
0.00628871
-0.00067635
0.000822523
0.00234272
-0.010024
-0.00943606
-0.00720764
-0.0204452
-0.0237127
-0.0259919
)
;
    }
    procBoundary1to0
    {
        type            processor;
        value           nonuniform List<scalar> 
12
(
0.00160504
0.00176983
0.00190923
0.00196402
0.00226182
0.00273279
0.00222225
0.00246489
0.00265515
0.00213877
0.00250259
0.0024527
)
;
    }
    procBoundary1to3
    {
        type            processor;
        value           nonuniform List<scalar> 
27
(
0.00250131
0.00304058
0.0040744
0.00674338
0.0111865
0.0153481
0.0151619
-0.00141806
-0.0714739
0.00323424
0.00336744
0.00435333
0.00786264
0.0147289
0.0264115
0.0498739
0.0762256
-0.195883
0.00329431
0.00375682
0.00427566
0.00854149
0.0184254
0.0428723
0.140781
0.605356
-0.836363
)
;
    }
    procBoundary1to5
    {
        type            processor;
        value           nonuniform List<scalar> 
32
(
0.0036124
0.00546078
0.0052357
0.000266569
-0.00991193
-0.0223581
0.00317091
0.00484814
0.00749253
0.00857074
0.0058733
-0.00531614
-0.0369012
0.00367582
0.00339533
0.00608752
0.0109459
0.0154585
0.0214208
0.0132894
-0.0859177
0.00223105
0.0023017
0.0036124
0.00317091
0.00233644
0.00257428
0.00317091
0.00367582
0.00258957
0.00367582
0.00267178
)
;
    }
    procBoundary1to7
    {
        type            processor;
        value           uniform 0.00284343;
    }
}


// ************************************************************************* //
