/*--------------------------------*- C++ -*----------------------------------*\
| =========                 |                                                 |
| \\      /  F ield         | OpenFOAM: The Open Source CFD Toolbox           |
|  \\    /   O peration     | Version:  4.x                                   |
|   \\  /    A nd           | Web:      www.OpenFOAM.org                      |
|    \\/     M anipulation  |                                                 |
\*---------------------------------------------------------------------------*/
FoamFile
{
    version     2.0;
    format      ascii;
    class       volScalarField;
    location    "13";
    object      Ksl;
}
// * * * * * * * * * * * * * * * * * * * * * * * * * * * * * * * * * * * * * //

dimensions      [1 -3 -1 0 0 0 0];

internalField   nonuniform List<scalar> 
87
(
3083.1
2392.66
2897.26
2269.41
3012.1
2333.31
3874.49
2321.85
3486.84
3511.96
2659.95
3842.09
2516.17
4480.34
3124.5
6847.48
3023.39
5185.4
5208.21
3082.84
5468.88
2890.71
6353.92
3472.1
14443.5
3669.91
18990.5
4685.87
2943.56
4563.19
2706.63
3629.12
2426.72
4458.17
2123.51
3613.58
8009.17
3468.94
8294.06
3254.7
7393.01
3014.6
7970.61
3185.35
3951.67
24565.8
4143.08
22281.9
5979.36
2029.28
6326.62
2990.37
8147.74
20259.2
5805.69
3147.88
4329.92
2969.22
4654.2
2695.15
5459.13
2228.28
6732.63
11773.7
3522.12
12704.1
3510.77
11209.7
3154.33
8964.02
3070.59
5000.2
28571.6
4956.18
2358.96
3795.49
4810.91
3581.22
44659.5
3613.43
13714
5444.23
3056.38
5173.01
11832.7
3578.85
18051.6
)
;

boundaryField
{
    inlet
    {
        type            zeroGradient;
    }
    outlet
    {
        type            zeroGradient;
    }
    wall
    {
        type            zeroGradient;
    }
    procBoundary1to0
    {
        type            processor;
        value           nonuniform List<scalar> 
12
(
2513.99
2740.22
3018.91
3092.04
3588.7
3967.53
3322.54
3857.2
4269.94
3266.2
3731.75
3721.9
)
;
    }
    procBoundary1to3
    {
        type            processor;
        value           nonuniform List<scalar> 
27
(
4197.65
2939
5453.79
2948.87
6491.82
2929.05
6817.7
2543.83
4951.95
13413.5
3529.5
11608.6
3195.92
10206.2
3286.28
9026.08
3244.84
5016.02
4346.33
3582.16
21249.5
3682.11
38822
3539.54
34121.7
3575.23
17235.9
)
;
    }
    procBoundary1to5
    {
        type            processor;
        value           nonuniform List<scalar> 
32
(
2895.96
4776.33
2595.11
5274.09
2077.4
4713.19
10761.6
3390.77
8745.52
3223.81
7933.79
3128.64
4350.08
3334.92
22380.1
3461.96
9966.63
3496.39
17961
3769.29
12444.6
6095.94
3306.72
2895.96
10761.6
5769.71
48752.4
10761.6
3334.92
3957.49
3334.92
46250.8
)
;
    }
    procBoundary1to7
    {
        type            processor;
        value           uniform 18960.2;
    }
}


// ************************************************************************* //
