/*--------------------------------*- C++ -*----------------------------------*\
| =========                 |                                                 |
| \\      /  F ield         | OpenFOAM: The Open Source CFD Toolbox           |
|  \\    /   O peration     | Version:  4.x                                   |
|   \\  /    A nd           | Web:      www.OpenFOAM.org                      |
|    \\/     M anipulation  |                                                 |
\*---------------------------------------------------------------------------*/
FoamFile
{
    version     2.0;
    format      ascii;
    class       volScalarField;
    location    "13";
    object      nu;
}
// * * * * * * * * * * * * * * * * * * * * * * * * * * * * * * * * * * * * * //

dimensions      [0 2 -1 0 0 0 0];

internalField   nonuniform List<scalar> 
87
(
1.00033e-06
1.00046e-06
1.00061e-06
1.00077e-06
1.00094e-06
1.00101e-06
1.00101e-06
1.00088e-06
9.73146e-07
1.00047e-06
1.00064e-06
1.00081e-06
1.00091e-06
1.00091e-06
1.00077e-06
1.0005e-06
1.00021e-06
9.9944e-07
1.00062e-06
1.00079e-06
1.00087e-06
1.00078e-06
1.00054e-06
1.00021e-06
9.99893e-07
9.99671e-07
9.99233e-07
1.00045e-06
1.00059e-06
1.00072e-06
1.00083e-06
1.00091e-06
1.00098e-06
1.00085e-06
1.00078e-06
9.99242e-07
1.00063e-06
1.00071e-06
1.00071e-06
1.00061e-06
1.00045e-06
1.00026e-06
9.99948e-07
9.99788e-07
9.99659e-07
1.00065e-06
1.00064e-06
1.00047e-06
1.00021e-06
9.99958e-07
9.99757e-07
9.99589e-07
9.99725e-07
9.99865e-07
1.0004e-06
1.00052e-06
1.00064e-06
1.00075e-06
1.00083e-06
1.00089e-06
1.00081e-06
1.00075e-06
9.99373e-07
1.00046e-06
1.00046e-06
1.00038e-06
1.00027e-06
1.00009e-06
1.00001e-06
9.99825e-07
9.99836e-07
9.9878e-07
1.00041e-06
1.00031e-06
1.00012e-06
9.99991e-07
9.99795e-07
9.99683e-07
9.99575e-07
9.99603e-07
9.99118e-07
1.00024e-06
1.00033e-06
1.00042e-06
1.00026e-06
1.00025e-06
1.00025e-06
)
;

boundaryField
{
    inlet
    {
        type            calculated;
        value           nonuniform 0();
    }
    outlet
    {
        type            calculated;
        value           uniform 1e-06;
    }
    wall
    {
        type            calculated;
        value           nonuniform List<scalar> 
57
(
1.00033e-06
1.00047e-06
1.00062e-06
1.00046e-06
1.00064e-06
1.00079e-06
1.00061e-06
1.00081e-06
1.00087e-06
1.00077e-06
1.00091e-06
1.00078e-06
1.00094e-06
1.00091e-06
1.00054e-06
1.00101e-06
1.00077e-06
1.00021e-06
1.00101e-06
1.0005e-06
9.99893e-07
1.00088e-06
1.00021e-06
9.99671e-07
9.73146e-07
9.9944e-07
9.99233e-07
1.00033e-06
1.00045e-06
1.0004e-06
1.00024e-06
1.00046e-06
1.00059e-06
1.00052e-06
1.00033e-06
1.00061e-06
1.00072e-06
1.00064e-06
1.00042e-06
1.00077e-06
1.00083e-06
1.00075e-06
1.00094e-06
1.00091e-06
1.00083e-06
1.00101e-06
1.00098e-06
1.00089e-06
1.00101e-06
1.00085e-06
1.00081e-06
1.00088e-06
1.00078e-06
1.00075e-06
9.73146e-07
9.99242e-07
9.99373e-07
)
;
    }
    procBoundary1to0
    {
        type            processor;
        value           nonuniform List<scalar> 
12
(
1.00023e-06
1.00033e-06
1.00043e-06
1.00032e-06
1.00049e-06
1.00057e-06
1.00028e-06
1.0004e-06
1.00043e-06
1.00016e-06
1.00023e-06
1.00025e-06
)
;
    }
    procBoundary1to3
    {
        type            processor;
        value           nonuniform List<scalar> 
27
(
1.00064e-06
1.00079e-06
1.00084e-06
1.00076e-06
1.00055e-06
1.0003e-06
1.00004e-06
9.99811e-07
9.93765e-07
1.0007e-06
1.00068e-06
1.00056e-06
1.00038e-06
1.00017e-06
9.99973e-07
9.99801e-07
9.99701e-07
9.99231e-07
1.00045e-06
1.00039e-06
1.00026e-06
1.00013e-06
1.00001e-06
9.99892e-07
9.99877e-07
1.00028e-06
9.98499e-07
)
;
    }
    procBoundary1to5
    {
        type            processor;
        value           nonuniform List<scalar> 
32
(
1.00053e-06
1.0006e-06
1.00066e-06
1.00059e-06
1.00057e-06
9.99988e-07
1.00019e-06
1.00011e-06
1e-06
9.99957e-07
9.99828e-07
9.99842e-07
9.99248e-07
1.00021e-06
1.00011e-06
9.99999e-07
9.99877e-07
9.9976e-07
9.99655e-07
9.99595e-07
9.99083e-07
1.00016e-06
1.00022e-06
1.00053e-06
1.00019e-06
1.00028e-06
1.00015e-06
1.00019e-06
1.00021e-06
1.00008e-06
1.00021e-06
1.00015e-06
)
;
    }
    procBoundary1to7
    {
        type            processor;
        value           uniform 1.00029e-06;
    }
}


// ************************************************************************* //
