/*--------------------------------*- C++ -*----------------------------------*\
| =========                 |                                                 |
| \\      /  F ield         | OpenFOAM: The Open Source CFD Toolbox           |
|  \\    /   O peration     | Version:  4.x                                   |
|   \\  /    A nd           | Web:      www.OpenFOAM.org                      |
|    \\/     M anipulation  |                                                 |
\*---------------------------------------------------------------------------*/
FoamFile
{
    version     2.0;
    format      ascii;
    class       volScalarField;
    location    "13";
    object      p_rgh;
}
// * * * * * * * * * * * * * * * * * * * * * * * * * * * * * * * * * * * * * //

dimensions      [1 -1 -2 0 0 0 0];

internalField   nonuniform List<scalar> 
87
(
-5674.9
-5346.37
-5044.07
-4335.06
-3444.68
-2619.78
-1994.5
-950.926
-336.911
-5706.22
-5378.57
-5126
-4258.92
-2906.63
-2565.82
-2164.12
-1076.32
-8.27878
-5743.15
-5430.24
-5158.87
-4500.99
-3749.18
-3144.2
-2544.5
-1323.19
-12.1522
-5769.98
-5433.26
-5178.57
-4780.94
-4235.24
-3368.59
-2319.07
-993.541
-222.461
-5776.61
-5463.87
-5244.9
-4957.97
-4749.82
-3649.03
-2580.77
-1222.58
-30.3701
-5807.69
-5539.36
-5318.72
-5027.6
-4740.31
-3954.56
-3116.81
-1772.01
99.181
-5843.05
-5609.07
-5375.06
-4915.91
-4550.56
-3600.29
-2635.92
-1284.23
-249.948
-5848.57
-5627.08
-5416.19
-5124.03
-4912.13
-3940.62
-2951.97
-1594.33
-49.9685
-5855.23
-5609.75
-5432.93
-5096.24
-4933.68
-4225.08
-3626.53
-2513.29
221.856
-5834.5
-5515.29
-5201.82
-5830.37
-5525.14
-5838.54
)
;

boundaryField
{
    inlet
    {
        type            fixedFluxPressure;
        gradient        nonuniform 0();
        value           nonuniform 0();
    }
    outlet
    {
        type            fixedValue;
        value           uniform 0;
    }
    wall
    {
        type            fixedFluxPressure;
        gradient        nonuniform List<scalar> 
57
(
-0.0398791
-0.013748
0.0803178
-0.344434
-0.212938
-0.194617
-0.588137
-0.491121
-0.593526
0.264942
0.123553
0.287538
0.918123
-0.00860203
-0.614242
0.10163
-0.255415
-0.414404
0.452193
0.449554
-2.14342
-0.01455
-0.308309
-0.496074
-0.331939
-1.08673
-1.72706
0.0152028
0.576123
0.164157
-0.0342993
-0.292919
0.106988
0.0725051
-1.09812
-0.421124
-0.37966
-0.344875
-0.343343
-0.157237
0.247652
0.206777
0.142474
0.227914
0.491083
-0.124167
-0.116262
0.106639
0.113532
0.094216
0.374974
-0.078331
0.0194652
0.110057
-0.327883
0.00684442
0.212864
)
;
        value           nonuniform List<scalar> 
57
(
-5674.9
-5706.22
-5743.15
-5346.37
-5378.57
-5430.25
-5044.08
-5126.01
-5158.88
-4335.05
-4258.92
-4500.99
-3444.66
-2906.63
-3749.18
-2619.78
-2565.83
-3144.2
-1994.5
-2164.12
-2544.53
-950.926
-1076.32
-1323.2
-336.916
-8.29431
-12.1769
-5674.9
-5769.98
-5843.05
-5834.5
-5346.37
-5433.25
-5609.07
-5515.31
-5044.08
-5178.57
-5375.06
-5201.82
-4335.06
-4780.94
-4915.9
-3444.68
-4235.23
-4550.56
-2619.78
-3368.59
-3600.29
-1994.5
-2319.07
-2635.91
-950.927
-993.54
-1284.23
-336.915
-222.461
-249.945
)
;
    }
    procBoundary1to0
    {
        type            processor;
        value           nonuniform List<scalar> 
12
(
-5898.78
-5915.67
-5937.59
-5943.38
-5953.4
-5965.57
-5988.66
-5992.81
-5997.72
-5988.41
-5998.13
-6002.99
)
;
    }
    procBoundary1to3
    {
        type            processor;
        value           nonuniform List<scalar> 
27
(
-5789.43
-5501.04
-5237.11
-4775.91
-4333.15
-3673.65
-2925.42
-1568.47
-204.809
-5832.08
-5551.34
-5337.18
-4957.9
-4658.21
-4146.69
-3583.32
-2442.65
222.719
-5850.09
-5574.99
-5375.13
-5087.34
-4867.52
-4505.36
-4491.71
-4606.45
987.798
)
;
    }
    procBoundary1to5
    {
        type            processor;
        value           nonuniform List<scalar> 
32
(
-4695.46
-4208.33
-3364.14
-2445.2
-1181.69
-225.549
-5230.97
-4785.5
-4357.35
-3580.25
-2670.48
-1401.06
-71.952
-5540.61
-5267.29
-4852.09
-4486.31
-3836.59
-3121.39
-1853.45
8.46012
-5745.02
-5391.53
-4695.46
-5230.97
-5048.32
-5760.91
-5230.97
-5540.61
-5403.86
-5540.61
-5760.28
)
;
    }
    procBoundary1to7
    {
        type            processor;
        value           uniform -5817.69;
    }
}


// ************************************************************************* //
