/*--------------------------------*- C++ -*----------------------------------*\
| =========                 |                                                 |
| \\      /  F ield         | OpenFOAM: The Open Source CFD Toolbox           |
|  \\    /   O peration     | Version:  4.x                                   |
|   \\  /    A nd           | Web:      www.OpenFOAM.org                      |
|    \\/     M anipulation  |                                                 |
\*---------------------------------------------------------------------------*/
FoamFile
{
    version     2.0;
    format      ascii;
    class       surfaceScalarField;
    location    "13";
    object      phi;
}
// * * * * * * * * * * * * * * * * * * * * * * * * * * * * * * * * * * * * * //

dimensions      [0 3 -1 0 0 0 0];

internalField   nonuniform List<scalar> 
192
(
1.50874e-05
-2.99489e-07
-2.09092e-08
1.55044e-05
-6.49586e-07
1.76604e-07
1.54956e-05
-4.89875e-07
4.29755e-07
1.48942e-05
-5.02319e-07
1.01486e-06
1.43783e-05
-9.14329e-07
1.32363e-06
1.28774e-05
-2.72659e-07
1.6856e-06
1.22598e-05
-9.48443e-07
1.58131e-06
1.06649e-05
3.72145e-07
1.45005e-06
-4.91711e-06
-6.9191e-06
1.3424e-05
-4.5247e-07
1.32024e-07
1.28787e-05
-6.84198e-07
5.20911e-07
1.25458e-05
-5.80244e-07
3.49791e-07
1.10536e-05
-4.27802e-07
1.30982e-06
1.0323e-05
-5.27524e-07
1.95475e-07
8.65416e-06
2.27996e-07
1.01913e-06
7.99778e-06
-4.37322e-07
9.99305e-08
7.83103e-06
5.8021e-07
1.9362e-07
-2.04786e-06
-1.23803e-06
1.03552e-05
-1.16302e-07
1.00378e-05
-1.06501e-06
9.42213e-06
-1.87024e-07
8.67062e-06
-3.72817e-07
7.9581e-06
6.58541e-08
6.28901e-06
1.49859e-06
5.10922e-06
6.16587e-08
4.51324e-06
1.17538e-06
-8.26419e-07
1.09861e-05
-3.23258e-07
1.35623e-07
1.11594e-05
-5.07605e-07
4.53589e-07
1.15476e-05
-7.74028e-07
7.4616e-07
1.24407e-05
-2.01458e-06
2.04025e-06
1.27903e-05
-5.53698e-07
1.40097e-06
1.14023e-05
7.18199e-07
2.23694e-06
1.21643e-05
-9.90134e-07
1.7907e-06
1.05651e-05
1.62711e-06
1.63618e-06
-7.75062e-06
-2.9086e-06
8.13417e-06
-3.42214e-07
1.60731e-07
7.98356e-06
-4.71401e-07
5.72884e-07
7.79714e-06
-6.88294e-07
3.72318e-07
8.10359e-06
-1.95246e-06
8.17579e-07
7.9849e-06
-2.14935e-07
-2.11065e-07
7.82448e-06
1.22517e-06
4.62002e-07
6.84422e-06
-1.75218e-07
1.30124e-07
6.05413e-06
2.21157e-06
5.69702e-07
-4.45856e-06
-1.11554e-06
5.27935e-06
2.49635e-08
3.69152e-06
-6.7986e-07
1.88178e-06
3.79608e-07
-6.61341e-06
3.55992e-06
-7.10462e-06
-4.95662e-07
-4.08858e-06
-3.19784e-07
-5.27365e-06
-1.15728e-07
-3.94256e-07
-1.28672e-06
-4.10087e-07
9.52873e-06
-2.78722e-07
1.59773e-07
1.06594e-05
-1.55583e-06
8.18378e-07
1.07893e-05
-5.39852e-08
6.01038e-07
1.05117e-05
9.68971e-07
1.05857e-05
2.57741e-07
9.85894e-06
1.55276e-06
1.09531e-05
-3.05046e-07
9.84716e-06
1.69208e-06
-4.42153e-06
6.7862e-06
-2.29612e-07
5.03278e-08
6.6618e-06
-1.08586e-06
1.60844e-07
6.8551e-06
-1.62414e-08
7.10536e-06
1.35097e-06
6.92458e-06
2.12887e-07
7.34824e-06
1.6473e-06
7.09135e-06
4.32433e-07
7.53299e-06
1.9581e-06
-2.46293e-06
2.97255e-06
2.92724e-07
-4.30242e-06
-3.68966e-06
4.06615e-07
6.8093e-07
5.07056e-06
4.29584e-06
3.52508e-06
9.62574e-06
-1.17763e-07
9.79757e-06
-8.34305e-08
6.8732e-06
-1.24627e-07
)
;

boundaryField
{
    inlet
    {
        type            calculated;
        value           nonuniform 0();
    }
    outlet
    {
        type            calculated;
        value           nonuniform List<scalar> 9(2.29648e-05 6.86043e-06 2.23216e-06 1.48429e-05 3.56009e-06 -4.80728e-06 1.3498e-05 7.51254e-06 5.71325e-06);
    }
    wall
    {
        type            calculated;
        value           uniform 0;
    }
    procBoundary1to0
    {
        type            processor;
        value           nonuniform List<scalar> 
12
(
-1.48119e-05
-1.3453e-05
-1.07245e-05
-1.08694e-05
-8.20176e-06
-5.86863e-06
-9.33228e-06
-6.78917e-06
-3.88824e-06
-9.5054e-06
-6.84512e-06
-6.11244e-06
)
;
    }
    procBoundary1to3
    {
        type            processor;
        value           nonuniform List<scalar> 
27
(
-2.47048e-08
6.32796e-07
1.41067e-07
5.61441e-07
-9.15945e-08
1.46838e-07
4.99779e-07
1.67187e-07
2.12782e-06
3.37425e-08
6.5896e-07
4.63381e-07
2.44566e-06
5.52574e-07
-3.67547e-07
6.9548e-07
-4.60688e-07
1.58639e-06
3.46316e-07
2.86938e-06
-2.71828e-07
-3.61303e-07
-1.21088e-07
-7.27066e-07
8.15826e-07
2.18547e-06
-4.64802e-07
)
;
    }
    procBoundary1to5
    {
        type            processor;
        value           nonuniform List<scalar> 
32
(
1.2493e-06
9.25177e-07
1.26832e-06
9.48445e-07
1.2135e-06
-1.54854e-06
6.1952e-08
4.93541e-08
-2.09178e-07
-3.21659e-07
-6.05722e-07
-1.84472e-07
-1.77173e-06
2.5618e-06
-6.95362e-08
9.88015e-07
-8.07524e-07
-2.90425e-06
-7.71636e-07
-2.54131e-06
-2.57673e-07
1.0327e-07
6.73001e-07
1.00509e-05
-3.57059e-08
3.27516e-07
-3.32727e-08
7.04552e-06
-1.07216e-07
-5.14848e-08
6.13856e-06
2.05886e-07
)
;
    }
    procBoundary1to7
    {
        type            processor;
        value           uniform -1.39934e-07;
    }
}


// ************************************************************************* //
