/*--------------------------------*- C++ -*----------------------------------*\
| =========                 |                                                 |
| \\      /  F ield         | OpenFOAM: The Open Source CFD Toolbox           |
|  \\    /   O peration     | Version:  4.x                                   |
|   \\  /    A nd           | Web:      www.OpenFOAM.org                      |
|    \\/     M anipulation  |                                                 |
\*---------------------------------------------------------------------------*/
FoamFile
{
    version     2.0;
    format      ascii;
    class       volScalarField;
    location    "13";
    object      Sm;
}
// * * * * * * * * * * * * * * * * * * * * * * * * * * * * * * * * * * * * * //

dimensions      [1 -3 -1 0 0 0 0];

internalField   nonuniform List<scalar> 
87
(
3.7197e-65
5.88978e-65
3.79748e-65
5.11475e-65
3.95012e-65
4.18477e-65
4.41735e-65
5.03745e-65
4.80458e-65
3.64233e-65
3.25491e-65
4.65015e-65
4.18467e-65
3.40951e-65
5.03706e-65
6.58702e-65
4.57229e-65
3.95212e-65
3.48743e-65
5.50231e-65
5.50375e-65
7.43778e-65
5.50116e-65
4.33937e-65
4.95983e-65
4.57218e-65
4.4945e-65
6.6635e-65
5.65699e-65
5.34767e-65
6.20023e-65
5.81185e-65
6.58682e-65
8.36942e-65
7.13031e-65
6.50881e-65
7.43899e-65
5.03717e-65
6.43258e-65
6.97462e-65
7.283e-65
5.65675e-65
7.5171e-65
7.43977e-65
5.65635e-65
8.13651e-65
6.58677e-65
6.20075e-65
5.26874e-65
5.26861e-65
7.36194e-65
8.05959e-65
1.03071e-64
4.88205e-65
6.9755e-65
5.81226e-65
7.67252e-65
7.90485e-65
5.81195e-65
8.44706e-65
7.05231e-65
5.73487e-65
4.18463e-65
7.59464e-65
7.05228e-65
5.65764e-65
6.12248e-65
6.97411e-65
6.97453e-65
6.58737e-65
7.20731e-65
4.417e-65
7.90389e-65
6.35452e-65
5.11499e-65
9.06643e-65
8.29118e-65
8.75674e-65
6.81985e-65
7.90449e-65
3.48719e-65
6.58786e-65
5.26996e-65
8.0598e-65
7.05188e-65
9.99689e-65
5.73423e-65
)
;

boundaryField
{
    inlet
    {
        type            calculated;
        value           nonuniform 0();
    }
    outlet
    {
        type            calculated;
        value           uniform 0;
    }
    wall
    {
        type            calculated;
        value           uniform 0;
    }
    procBoundary1to0
    {
        type            processor;
        value           nonuniform List<scalar> 
12
(
1.70509e-65
4.26251e-65
7.20706e-65
6.19973e-65
6.74212e-65
4.95983e-65
4.7274e-65
6.27722e-65
4.57206e-65
4.95999e-65
5.50229e-65
8.05928e-65
)
;
    }
    procBoundary1to3
    {
        type            processor;
        value           nonuniform List<scalar> 
27
(
6.97514e-65
3.25467e-65
5.81241e-65
2.55728e-65
4.10707e-65
3.0223e-65
4.72726e-65
3.87473e-65
4.57224e-65
7.51693e-65
6.27679e-65
8.98965e-65
8.52389e-65
7.59469e-65
6.27716e-65
6.04489e-65
6.4323e-65
9.06735e-65
7.67175e-65
8.98911e-65
8.8338e-65
8.52487e-65
6.12214e-65
6.27645e-65
8.52517e-65
6.81847e-65
7.75011e-65
)
;
    }
    procBoundary1to5
    {
        type            processor;
        value           nonuniform List<scalar> 
32
(
6.81971e-65
8.05945e-65
6.35473e-65
6.74231e-65
7.59481e-65
8.44702e-65
6.81982e-65
5.65736e-65
5.81214e-65
6.66475e-65
8.21487e-65
8.52477e-65
7.90459e-65
8.44697e-65
6.04461e-65
7.43996e-65
5.81214e-65
4.57226e-65
6.97479e-65
5.73474e-65
8.67952e-65
6.27716e-65
4.88227e-65
6.81971e-65
6.81982e-65
6.97469e-65
7.12994e-65
6.81982e-65
8.44697e-65
6.81954e-65
8.44697e-65
8.21448e-65
)
;
    }
    procBoundary1to7
    {
        type            processor;
        value           uniform 9.91878e-65;
    }
}


// ************************************************************************* //
