/*--------------------------------*- C++ -*----------------------------------*\
| =========                 |                                                 |
| \\      /  F ield         | OpenFOAM: The Open Source CFD Toolbox           |
|  \\    /   O peration     | Version:  4.x                                   |
|   \\  /    A nd           | Web:      www.OpenFOAM.org                      |
|    \\/     M anipulation  |                                                 |
\*---------------------------------------------------------------------------*/
FoamFile
{
    version     2.0;
    format      ascii;
    class       volScalarField;
    location    "13";
    object      T;
}
// * * * * * * * * * * * * * * * * * * * * * * * * * * * * * * * * * * * * * //

dimensions      [0 0 0 1 0 0 0];

internalField   nonuniform List<scalar> 
87
(
299.999
299.999
299.999
299.999
299.997
299.999
300
300.003
300.006
299.999
299.999
299.999
299.998
299.998
299.998
299.999
300.003
300.009
299.999
299.999
299.999
299.998
299.997
299.996
299.997
300.002
300.014
299.999
299.999
299.999
299.999
299.998
299.998
300
300.003
300.007
299.999
299.999
299.999
299.998
299.997
299.997
299.998
300.002
300.012
299.999
299.999
299.999
299.997
299.996
299.994
299.993
299.996
300.028
299.999
299.999
299.999
299.999
299.998
299.998
299.999
300.002
300.008
299.999
299.999
299.999
299.998
299.997
299.996
299.996
299.999
300.018
299.999
299.999
299.999
299.997
299.994
299.992
299.985
299.974
300.061
299.999
299.999
299.999
299.999
299.999
299.999
)
;

boundaryField
{
    inlet
    {
        type            fixedValue;
        value           nonuniform 0();
    }
    outlet
    {
        type            zeroGradient;
    }
    wall
    {
        type            zeroGradient;
    }
    procBoundary1to0
    {
        type            processor;
        value           nonuniform List<scalar> 
12
(
300
300
299.999
299.999
299.999
299.999
299.999
299.999
299.999
299.999
299.999
299.999
)
;
    }
    procBoundary1to3
    {
        type            processor;
        value           nonuniform List<scalar> 
27
(
299.999
299.999
299.999
299.998
299.996
299.995
299.995
300
300.022
299.999
299.999
299.999
299.997
299.995
299.991
299.984
299.976
300.063
299.999
299.999
299.998
299.997
299.994
299.986
299.954
299.802
300.272
)
;
    }
    procBoundary1to5
    {
        type            processor;
        value           nonuniform List<scalar> 
32
(
299.999
299.998
299.998
300
300.003
300.007
299.999
299.998
299.997
299.997
299.998
300.002
300.012
299.999
299.999
299.998
299.996
299.995
299.993
299.996
300.028
299.999
299.999
299.999
299.999
299.999
299.999
299.999
299.999
299.999
299.999
299.999
)
;
    }
    procBoundary1to7
    {
        type            processor;
        value           uniform 299.999;
    }
}


// ************************************************************************* //
