/*--------------------------------*- C++ -*----------------------------------*\
| =========                 |                                                 |
| \\      /  F ield         | OpenFOAM: The Open Source CFD Toolbox           |
|  \\    /   O peration     | Version:  4.x                                   |
|   \\  /    A nd           | Web:      www.OpenFOAM.org                      |
|    \\/     M anipulation  |                                                 |
\*---------------------------------------------------------------------------*/
FoamFile
{
    version     2.0;
    format      ascii;
    class       volVectorField;
    location    "13";
    object      Us;
}
// * * * * * * * * * * * * * * * * * * * * * * * * * * * * * * * * * * * * * //

dimensions      [0 1 -1 0 0 0 0];

internalField   nonuniform List<vector> 
87
(
(0.000210017 -2.44062e-06 6.40211e-06)
(0.000308785 5.99562e-05 7.05004e-05)
(0.000344361 7.1172e-05 9.9398e-05)
(0.000318138 3.36922e-05 -5.67707e-05)
(0.000201983 -2.30007e-05 -0.000148219)
(0.000101015 2.57249e-05 -2.10558e-05)
(0.000106318 -1.40801e-05 -5.60805e-05)
(0.000138503 1.62114e-05 3.01126e-06)
(2.8766e-05 4.5377e-05 4.59384e-05)
(0.00042035 -3.02682e-05 1.92709e-06)
(0.00044235 -4.15919e-05 3.92714e-05)
(0.000349458 6.12993e-05 6.22492e-05)
(0.000425311 -8.81509e-06 -2.38218e-05)
(0.000406285 -2.55222e-05 9.31176e-07)
(0.000203617 9.14477e-05 3.93479e-05)
(0.000209729 4.8602e-06 -3.13421e-05)
(0.000167742 1.22456e-05 4.89679e-05)
(9.48569e-05 5.981e-05 0.000101313)
(0.000565822 -2.00628e-05 -7.51847e-06)
(0.000533867 -2.0852e-05 3.0586e-05)
(0.000429848 6.59197e-05 5.22922e-05)
(0.000428777 -5.25982e-05 -4.7663e-05)
(0.000429947 -3.06331e-05 4.64905e-05)
(0.000321027 1.8653e-05 5.74228e-05)
(0.000252633 4.96758e-05 7.10135e-05)
(0.0001104 2.95496e-05 6.47779e-05)
(3.33337e-05 2.97579e-05 4.37789e-05)
(0.000243489 -5.92545e-05 2.61639e-06)
(0.000237279 -1.74976e-05 3.50414e-05)
(0.000211336 3.99035e-05 4.6499e-05)
(0.000130116 -4.3576e-05 -6.02179e-05)
(0.000111959 -2.9833e-05 -0.000110861)
(3.06486e-05 2.25858e-05 -3.41189e-05)
(1.43255e-05 -9.88466e-06 -4.15769e-05)
(-5.491e-06 -4.30991e-06 6.43763e-06)
(-4.60321e-06 -8.97401e-07 1.49713e-05)
(0.000326662 -2.77717e-05 8.85341e-06)
(0.000347078 -4.88703e-05 2.3594e-05)
(0.00028148 1.98527e-05 2.74859e-05)
(0.000284068 -4.48162e-06 -4.86452e-05)
(0.0003324 8.74478e-06 -1.82612e-05)
(0.000284321 5.68496e-05 1.91389e-06)
(0.000173923 -3.204e-05 -2.72562e-05)
(7.49186e-05 -1.53782e-05 4.30758e-05)
(2.19319e-05 1.20109e-05 5.65592e-05)
(0.000376482 -2.23557e-05 -5.22875e-06)
(0.000421734 -2.33149e-05 4.98397e-05)
(0.000382677 2.73247e-05 3.30167e-05)
(0.000385788 1.89803e-05 -3.15764e-05)
(0.000336412 3.53453e-05 2.03693e-05)
(0.000279862 3.43051e-05 3.67935e-05)
(0.000218091 -3.19538e-05 4.287e-05)
(0.000139942 -9.22412e-06 4.18634e-05)
(3.52874e-05 2.42994e-05 -9.05048e-07)
(0.000225455 -1.336e-05 1.29149e-05)
(0.000208724 -1.08641e-05 -1.21217e-05)
(0.000101472 3.7216e-05 -2.9674e-05)
(0.000124748 -3.23742e-05 -6.61353e-05)
(0.00013418 -4.90711e-05 -0.000127185)
(0.000158 -1.82304e-05 -9.62337e-05)
(4.44706e-05 -3.16851e-05 -4.05653e-05)
(-3.19347e-06 -2.29482e-05 -3.92015e-06)
(-2.21121e-05 -1.48352e-05 -1.08113e-05)
(0.000306168 3.36677e-05 2.94666e-05)
(0.000303415 4.53256e-05 5.0964e-05)
(0.000256654 5.70008e-05 -1.15379e-07)
(0.000243959 -2.56762e-06 -6.22221e-05)
(0.000265443 -3.2907e-05 -0.000111252)
(0.000242018 -1.61567e-05 -5.85746e-05)
(0.000113794 -4.72728e-05 -2.64456e-05)
(4.99503e-05 -3.45388e-05 1.05812e-05)
(1.82151e-05 -1.34541e-05 -1.43839e-05)
(0.000338879 -1.99199e-06 2.65912e-05)
(0.000402506 -9.04126e-06 6.93108e-05)
(0.000388227 9.26608e-06 2.71299e-05)
(0.000415368 1.26387e-05 -9.64877e-06)
(0.000390909 3.85156e-05 4.04952e-06)
(0.000289522 3.62052e-05 -1.74503e-05)
(0.000169063 -1.95017e-05 -1.81361e-05)
(0.000124109 -2.57916e-05 -4.02215e-05)
(4.25151e-05 -2.42749e-06 -1.55516e-05)
(0.000197169 2.93836e-06 2.13893e-05)
(0.000176799 0.000167141 -9.18063e-05)
(9.25769e-05 3.05275e-05 -5.56941e-05)
(0.000326312 3.75353e-05 3.83314e-05)
(0.000335786 8.99522e-05 7.25703e-05)
(0.00038233 4.0347e-05 8.87779e-05)
)
;

boundaryField
{
    inlet
    {
        type            zeroGradient;
    }
    outlet
    {
        type            zeroGradient;
    }
    wall
    {
        type            zeroGradient;
    }
    procBoundary1to0
    {
        type            processor;
        value           nonuniform List<vector> 
12
(
(0.000256253 -3.46645e-06 -1.0718e-05)
(0.000403787 6.06457e-05 -3.08599e-05)
(0.000356063 5.65532e-05 1.65023e-05)
(0.000192161 6.62071e-05 1.41633e-05)
(0.000321125 1.74718e-06 -3.45983e-05)
(0.000294041 2.7678e-05 1.41731e-05)
(0.000186825 3.23613e-05 -2.07754e-06)
(0.000283275 1.7918e-05 7.13651e-07)
(0.000293907 6.77072e-07 3.72395e-05)
(0.000281957 -2.37511e-05 -1.17664e-05)
(0.000320818 -1.37272e-05 2.66305e-05)
(0.000343147 -8.07441e-06 6.77576e-05)
)
;
    }
    procBoundary1to3
    {
        type            processor;
        value           nonuniform List<vector> 
27
(
(0.000325637 2.93998e-05 2.33222e-05)
(0.000466362 9.24182e-06 4.80105e-05)
(0.000377058 5.42984e-05 8.94552e-05)
(0.000303024 1.85397e-05 1.40192e-05)
(0.000293829 -1.04752e-05 -6.80542e-05)
(0.000230013 4.30174e-05 -3.71702e-05)
(0.000177095 3.98528e-05 5.19657e-05)
(2.45922e-05 1.18924e-05 4.20265e-05)
(3.7188e-05 2.99707e-05 -7.20449e-07)
(0.00032747 -1.0562e-05 1.43622e-05)
(0.000343425 -2.22301e-05 3.3278e-05)
(0.00033969 -1.33706e-06 6.39496e-05)
(0.000325535 6.30556e-08 -2.26677e-05)
(0.000269197 1.86869e-05 -4.46811e-05)
(0.000220424 3.76703e-05 -4.16802e-05)
(0.000155473 -1.56638e-05 7.9165e-06)
(6.00144e-05 8.73494e-06 3.08095e-05)
(3.40337e-05 4.34904e-05 -9.0514e-06)
(0.000362177 1.88616e-05 5.12796e-05)
(0.000369276 -3.14528e-05 5.94927e-05)
(0.00037312 -2.50635e-05 3.5924e-05)
(0.000362007 -9.58174e-06 -6.06207e-06)
(0.000316488 3.99417e-05 -4.40486e-06)
(0.000246392 -1.79954e-05 -3.41486e-05)
(0.000227818 -3.29212e-05 -6.47611e-05)
(0.000125391 -1.56847e-05 -3.53749e-05)
(4.47325e-05 1.29016e-05 -2.67507e-05)
)
;
    }
    procBoundary1to5
    {
        type            processor;
        value           nonuniform List<vector> 
32
(
(0.000150856 -2.95423e-05 -5.66676e-05)
(0.000157492 -4.06293e-05 -8.19296e-05)
(0.000142972 -4.30138e-05 -0.000130605)
(4.05044e-05 -3.38318e-05 -5.14631e-05)
(2.74987e-05 -3.84626e-05 -1.82944e-05)
(6.89597e-06 -2.18528e-05 1.44528e-05)
(0.000352422 -5.17555e-06 3.35996e-05)
(0.000273979 -3.04043e-05 -5.27113e-05)
(0.000272964 -3.14761e-05 -5.56654e-05)
(0.000247537 -3.36745e-05 -8.85492e-05)
(0.000188147 -3.18552e-05 -7.71064e-05)
(8.45786e-05 -7.05677e-05 -2.69803e-05)
(3.77118e-05 -6.20163e-05 -7.97481e-06)
(0.000445825 3.13478e-05 0.000106428)
(0.000487678 3.43713e-05 0.000121859)
(0.000434016 -1.15645e-05 1.1704e-05)
(0.000415545 -1.36783e-06 -6.80805e-06)
(0.000386115 -7.29824e-06 -3.69137e-05)
(0.000303981 -2.68844e-07 -6.05295e-05)
(0.000165153 -5.58733e-05 -3.68274e-05)
(3.92822e-05 -4.10842e-05 -1.26815e-05)
(0.000151015 -5.51586e-06 -8.15602e-05)
(0.000176814 6.07321e-05 -3.93046e-05)
(0.000150856 -2.95423e-05 -5.66676e-05)
(0.000352422 -5.17555e-06 3.35996e-05)
(8.13435e-05 -9.2875e-06 -1.20337e-05)
(0.000353234 5.63265e-06 -1.08039e-05)
(0.000352422 -5.17555e-06 3.35996e-05)
(0.000445825 3.13478e-05 0.000106428)
(0.000442456 4.02108e-06 6.50473e-05)
(0.000445825 3.13478e-05 0.000106428)
(0.000427511 3.571e-05 8.70204e-05)
)
;
    }
    procBoundary1to7
    {
        type            processor;
        value           uniform (0.000427625 2.35585e-05 8.16244e-05);
    }
}


// ************************************************************************* //
