/*--------------------------------*- C++ -*----------------------------------*\
| =========                 |                                                 |
| \\      /  F ield         | OpenFOAM: The Open Source CFD Toolbox           |
|  \\    /   O peration     | Version:  4.x                                   |
|   \\  /    A nd           | Web:      www.OpenFOAM.org                      |
|    \\/     M anipulation  |                                                 |
\*---------------------------------------------------------------------------*/
FoamFile
{
    version     2.0;
    format      ascii;
    class       volVectorField;
    location    "50";
    object      UsNext;
}
// * * * * * * * * * * * * * * * * * * * * * * * * * * * * * * * * * * * * * //

dimensions      [0 1 -1 0 0 0 0];

internalField   nonuniform List<vector> 
114
(
(6.44429e-10 -1.22655e-10 1.40926e-10)
(8.14186e-10 -2.32349e-10 3.31611e-10)
(1.06659e-09 -3.67816e-10 2.99434e-10)
(1.30992e-09 -3.4838e-10 5.28805e-10)
(1.82678e-09 -1.27201e-09 1.12606e-09)
(2.06073e-09 -1.98628e-09 1.34487e-09)
(-1.54791e-10 2.05328e-10 1.59367e-11)
(2.418e-10 1.99867e-11 3.40014e-11)
(3.98879e-10 -8.25968e-11 8.80313e-11)
(5.11476e-10 -1.71689e-10 1.14572e-10)
(6.33307e-10 -3.60678e-10 1.82254e-10)
(9.93784e-10 -4.49032e-10 1.71134e-10)
(1.36601e-09 -7.27273e-10 3.0919e-10)
(1.5245e-09 -1.1117e-09 4.8169e-10)
(1.45278e-09 -1.32908e-09 8.41317e-10)
(4.52108e-11 2.74069e-11 6.39858e-12)
(1.80069e-10 7.44761e-12 1.22842e-11)
(3.28475e-10 -8.87833e-12 1.34822e-10)
(5.00818e-10 -1.02602e-10 1.74387e-10)
(6.1755e-10 -2.89882e-10 2.2332e-10)
(7.95211e-10 -4.10619e-10 1.26826e-10)
(9.63943e-10 -3.7939e-10 3.27998e-10)
(1.32807e-09 -8.62983e-10 5.06039e-10)
(1.28176e-09 -8.87364e-10 6.74125e-10)
(-7.45856e-11 -1.51404e-11 2.64797e-11)
(7.57057e-11 -1.55976e-11 4.1055e-11)
(1.58929e-10 -1.52409e-11 2.27952e-10)
(3.71035e-10 -5.84685e-10 3.02774e-11)
(4.03651e-10 -2.98962e-10 -2.8578e-11)
(4.69179e-10 -1.78559e-10 -8.2594e-11)
(6.30521e-10 -2.85712e-10 2.44403e-10)
(8.49416e-10 -6.84044e-10 2.60818e-10)
(8.94698e-10 -5.41562e-10 3.77132e-10)
(7.62419e-10 -2.29254e-10 3.15886e-10)
(8.8766e-10 -1.11956e-10 5.4526e-10)
(1.32019e-09 -6.32975e-10 9.39078e-10)
(1.54879e-09 -9.27328e-10 1.2794e-09)
(6.46519e-11 7.09117e-11 -2.1592e-11)
(2.19482e-10 7.10729e-11 1.84833e-11)
(3.4655e-10 -1.2335e-11 5.39909e-11)
(4.00488e-10 -1.15029e-10 1.16138e-10)
(4.55083e-10 -2.67674e-10 1.52362e-10)
(7.24407e-10 -2.48378e-10 9.62472e-11)
(1.01417e-09 -3.0703e-10 2.66773e-10)
(1.198e-09 -5.30126e-10 4.32746e-10)
(1.48564e-09 -8.1019e-10 6.61909e-10)
(5.00004e-11 2.19354e-11 -4.48971e-11)
(1.52436e-10 7.5546e-12 -2.75022e-11)
(2.50307e-10 -3.86491e-11 1.52931e-11)
(3.34191e-10 -7.01607e-11 9.05068e-11)
(4.0753e-10 -2.06548e-10 7.03041e-12)
(5.47673e-10 -2.78354e-10 1.05313e-10)
(7.29269e-10 -3.4392e-10 2.19546e-10)
(8.99848e-10 -4.06345e-10 4.21847e-10)
(1.14753e-09 -5.5294e-10 4.46158e-10)
(1.60339e-11 -1.46484e-11 -1.7988e-11)
(8.33374e-11 -2.65929e-11 -6.44333e-12)
(1.42475e-10 -5.45862e-11 -2.4717e-11)
(2.26738e-10 -3.98157e-11 -1.12402e-11)
(3.07977e-10 -1.08204e-10 -1.76886e-10)
(3.17846e-10 -1.74593e-10 2.10838e-11)
(4.11532e-10 -2.09202e-10 1.49534e-10)
(5.63035e-10 -2.24784e-10 1.56829e-10)
(5.17527e-10 -1.55997e-10 1.46244e-10)
(9.62894e-10 1.87004e-10 9.79931e-10)
(1.18561e-09 9.0357e-11 1.35489e-09)
(7.32365e-11 3.30977e-11 6.07691e-11)
(1.43269e-10 -3.72749e-12 1.05337e-10)
(2.31043e-10 -4.7549e-11 1.22182e-10)
(2.24891e-10 -9.97046e-11 1.92423e-10)
(3.01168e-10 -1.97504e-10 2.44436e-10)
(4.74132e-10 -6.18408e-11 2.19572e-10)
(6.12942e-10 -7.31583e-11 3.69708e-10)
(9.16814e-10 -6.29216e-12 4.70796e-10)
(1.1424e-09 -1.57002e-10 4.66676e-10)
(3.7891e-11 4.13086e-11 2.71048e-11)
(7.1767e-11 -1.15868e-11 1.09862e-10)
(1.01698e-10 -9.35917e-12 1.04321e-10)
(1.0709e-10 -2.0649e-11 1.49776e-10)
(1.95341e-10 -1.13649e-10 1.57562e-10)
(3.26647e-10 -1.32747e-10 1.54158e-10)
(4.51183e-10 -2.33517e-10 2.68383e-10)
(7.07559e-10 -6.99747e-11 3.64142e-10)
(1.03665e-09 -1.95386e-10 2.48305e-10)
(2.01265e-11 -2.90098e-11 5.88004e-12)
(5.75683e-11 -3.04233e-11 2.8463e-11)
(4.78952e-11 -5.27688e-11 2.39358e-11)
(1.12242e-10 -6.01368e-11 2.45831e-11)
(1.94981e-10 -8.15678e-11 5.30359e-12)
(1.95574e-10 -1.06989e-10 6.97559e-11)
(2.75139e-10 -1.25748e-10 1.25544e-10)
(4.16643e-10 -1.74562e-10 2.0553e-10)
(6.24036e-10 -9.01688e-11 1.67944e-10)
(7.12532e-11 2.69768e-11 7.09579e-11)
(2.08643e-10 -5.29473e-11 1.50722e-10)
(2.76646e-10 -1.1529e-10 1.72978e-10)
(3.14175e-10 -1.16367e-10 1.70147e-10)
(4.21022e-10 -5.78613e-11 2.3671e-10)
(6.35101e-10 -4.04268e-11 2.39915e-10)
(8.31941e-10 1.17694e-10 3.51741e-10)
(1.34283e-09 1.87669e-10 3.7465e-10)
(2.0973e-11 3.91099e-11 3.02049e-11)
(1.50895e-10 -3.52362e-11 1.2918e-10)
(1.40891e-10 -3.58199e-11 1.4254e-10)
(2.04884e-10 -5.69948e-11 1.42844e-10)
(2.58587e-10 -1.31014e-10 1.69568e-10)
(4.02013e-10 -4.86668e-11 1.93415e-10)
(5.20413e-10 -9.92112e-11 2.78867e-10)
(8.16363e-12 -3.90186e-11 1.48858e-11)
(5.19617e-11 -4.54144e-11 3.38176e-11)
(6.30705e-11 -4.09719e-11 7.23845e-11)
(7.59788e-11 -6.93367e-11 5.26552e-11)
(1.54488e-10 -9.19498e-11 7.75167e-11)
(1.74241e-10 -7.58517e-11 7.01539e-11)
)
;

boundaryField
{
    inlet
    {
        type            calculated;
        value           nonuniform List<vector> 
12
(
(-1.54791e-10 2.05328e-10 1.59367e-11)
(4.52108e-11 2.74069e-11 6.39858e-12)
(-7.45856e-11 -1.51404e-11 2.64797e-11)
(6.46519e-11 7.09117e-11 -2.1592e-11)
(5.00004e-11 2.19354e-11 -4.48971e-11)
(1.60339e-11 -1.46484e-11 -1.7988e-11)
(7.32365e-11 3.30977e-11 6.07691e-11)
(3.7891e-11 4.13086e-11 2.71048e-11)
(2.01265e-11 -2.90098e-11 5.88004e-12)
(7.12532e-11 2.69768e-11 7.09579e-11)
(2.0973e-11 3.91099e-11 3.02049e-11)
(8.16363e-12 -3.90186e-11 1.48858e-11)
)
;
    }
    outlet
    {
        type            calculated;
        value           nonuniform 0();
    }
    wall
    {
        type            calculated;
        value           nonuniform List<vector> 
66
(
(-1.54791e-10 2.05328e-10 1.59367e-11)
(4.52108e-11 2.74069e-11 6.39858e-12)
(-7.45856e-11 -1.51404e-11 2.64797e-11)
(2.418e-10 1.99867e-11 3.40014e-11)
(1.80069e-10 7.44761e-12 1.22842e-11)
(7.57057e-11 -1.55976e-11 4.1055e-11)
(3.98879e-10 -8.25968e-11 8.80313e-11)
(3.28475e-10 -8.87833e-12 1.34822e-10)
(1.58929e-10 -1.52409e-11 2.27952e-10)
(6.44429e-10 -1.22655e-10 1.40926e-10)
(5.11476e-10 -1.71689e-10 1.14572e-10)
(5.00818e-10 -1.02602e-10 1.74387e-10)
(3.71035e-10 -5.84685e-10 3.02774e-11)
(8.14186e-10 -2.32349e-10 3.31611e-10)
(6.33307e-10 -3.60678e-10 1.82254e-10)
(6.1755e-10 -2.89882e-10 2.2332e-10)
(4.03651e-10 -2.98962e-10 -2.8578e-11)
(1.06659e-09 -3.67816e-10 2.99434e-10)
(9.93784e-10 -4.49032e-10 1.71134e-10)
(7.95211e-10 -4.10619e-10 1.26826e-10)
(4.69179e-10 -1.78559e-10 -8.2594e-11)
(1.30992e-09 -3.4838e-10 5.28805e-10)
(1.36601e-09 -7.27273e-10 3.0919e-10)
(9.63943e-10 -3.7939e-10 3.27998e-10)
(6.30521e-10 -2.85712e-10 2.44403e-10)
(1.82678e-09 -1.27201e-09 1.12606e-09)
(1.5245e-09 -1.1117e-09 4.8169e-10)
(1.32807e-09 -8.62983e-10 5.06039e-10)
(8.49416e-10 -6.84044e-10 2.60818e-10)
(2.06073e-09 -1.98628e-09 1.34487e-09)
(1.45278e-09 -1.32908e-09 8.41317e-10)
(1.28176e-09 -8.87364e-10 6.74125e-10)
(8.94698e-10 -5.41562e-10 3.77132e-10)
(-7.45856e-11 -1.51404e-11 2.64797e-11)
(1.60339e-11 -1.46484e-11 -1.7988e-11)
(2.01265e-11 -2.90098e-11 5.88004e-12)
(8.16363e-12 -3.90186e-11 1.48858e-11)
(7.57057e-11 -1.55976e-11 4.1055e-11)
(8.33374e-11 -2.65929e-11 -6.44333e-12)
(5.75683e-11 -3.04233e-11 2.8463e-11)
(5.19617e-11 -4.54144e-11 3.38176e-11)
(1.58929e-10 -1.52409e-11 2.27952e-10)
(1.42475e-10 -5.45862e-11 -2.4717e-11)
(4.78952e-11 -5.27688e-11 2.39358e-11)
(6.30705e-11 -4.09719e-11 7.23845e-11)
(3.71035e-10 -5.84685e-10 3.02774e-11)
(2.26738e-10 -3.98157e-11 -1.12402e-11)
(1.12242e-10 -6.01368e-11 2.45831e-11)
(7.59788e-11 -6.93367e-11 5.26552e-11)
(4.03651e-10 -2.98962e-10 -2.8578e-11)
(3.07977e-10 -1.08204e-10 -1.76886e-10)
(1.94981e-10 -8.15678e-11 5.30359e-12)
(1.54488e-10 -9.19498e-11 7.75167e-11)
(4.69179e-10 -1.78559e-10 -8.2594e-11)
(3.17846e-10 -1.74593e-10 2.10838e-11)
(1.95574e-10 -1.06989e-10 6.97559e-11)
(1.74241e-10 -7.58517e-11 7.01539e-11)
(6.30521e-10 -2.85712e-10 2.44403e-10)
(4.11532e-10 -2.09202e-10 1.49534e-10)
(2.75139e-10 -1.25748e-10 1.25544e-10)
(8.49416e-10 -6.84044e-10 2.60818e-10)
(5.63035e-10 -2.24784e-10 1.56829e-10)
(4.16643e-10 -1.74562e-10 2.0553e-10)
(8.94698e-10 -5.41562e-10 3.77132e-10)
(5.17527e-10 -1.55997e-10 1.46244e-10)
(6.24036e-10 -9.01688e-11 1.67944e-10)
)
;
    }
    procBoundary2to0
    {
        type            processor;
        value           nonuniform List<vector> 
44
(
(9.12339e-10 -3.05862e-10 1.69421e-10)
(8.68243e-10 -4.94879e-10 1.98117e-10)
(9.67859e-10 -3.28728e-10 2.73435e-10)
(1.11689e-09 -2.06921e-10 6.09051e-10)
(1.8106e-09 -9.17186e-10 1.45312e-09)
(1.85504e-09 -1.82653e-09 2.12258e-09)
(1.37814e-10 3.20679e-10 9.52753e-11)
(4.1533e-10 1.65637e-10 1.09842e-10)
(4.96738e-10 3.80404e-11 1.10031e-10)
(4.96738e-10 3.80404e-11 1.10031e-10)
(5.81382e-10 -1.00418e-10 1.80447e-10)
(6.23134e-10 -2.30623e-10 2.71764e-10)
(7.09109e-10 -2.60672e-10 2.31194e-10)
(7.03289e-10 -1.70476e-10 6.31564e-10)
(6.00974e-10 -1.9747e-10 1.48899e-09)
(9.18251e-10 -1.53373e-10 2.72445e-09)
(1.27345e-10 2.24906e-10 1.18188e-10)
(3.33446e-10 2.00801e-10 1.25159e-10)
(4.82166e-10 1.32029e-10 1.85627e-10)
(5.81382e-10 -1.00418e-10 1.80447e-10)
(6.23134e-10 -2.30623e-10 2.71764e-10)
(6.23134e-10 -2.30623e-10 2.71764e-10)
(6.29532e-10 -5.43809e-11 3.74234e-10)
(7.51145e-10 2.41363e-10 5.79058e-10)
(-1.20856e-10 6.12646e-10 1.43448e-09)
(-6.34879e-10 2.05833e-09 3.01985e-09)
(6.6471e-11 1.04664e-10 1.49141e-10)
(2.50678e-10 5.31266e-11 2.17362e-10)
(3.45552e-10 6.44913e-12 2.41714e-10)
(4.00665e-10 -8.79376e-11 2.47496e-10)
(5.47677e-10 -1.66964e-10 3.28518e-10)
(6.29532e-10 -5.43809e-11 3.74234e-10)
(7.51145e-10 2.41363e-10 5.79058e-10)
(7.51145e-10 2.41363e-10 5.79058e-10)
(9.60032e-10 5.47334e-10 8.81266e-10)
(1.40544e-09 3.48201e-10 9.91496e-10)
(6.10341e-11 6.34359e-11 1.45001e-10)
(2.83283e-10 1.59617e-11 2.13229e-10)
(4.6201e-10 4.73962e-12 1.69615e-10)
(8.7458e-10 2.88659e-11 2.71608e-10)
(1.06534e-09 1.29091e-10 4.37306e-10)
(1.05377e-09 8.89139e-11 4.46365e-10)
(1.1111e-09 4.31914e-10 5.70538e-10)
(9.60032e-10 5.47334e-10 8.81266e-10)
)
;
    }
    procBoundary2to3
    {
        type            processor;
        value           nonuniform List<vector> 
12
(
(2.13058e-09 -3.43133e-09 1.47987e-09)
(1.50692e-09 -1.41233e-09 6.54808e-10)
(1.59271e-09 3.67316e-10 2.16655e-10)
(8.18927e-10 -2.77549e-10 2.0413e-10)
(2.1571e-09 -2.11102e-09 1.2314e-09)
(1.65066e-09 -9.23568e-10 5.5566e-10)
(1.42562e-09 -4.01711e-10 3.70957e-10)
(9.81992e-10 -9.80111e-11 2.81995e-10)
(2.02811e-09 -1.99003e-10 1.12981e-09)
(1.70288e-09 -3.50084e-10 5.73232e-10)
(1.49937e-09 -3.05639e-10 2.46384e-10)
(8.53677e-10 -2.93035e-10 1.69799e-10)
)
;
    }
    procBoundary2to6
    {
        type            processor;
        value           nonuniform List<vector> 
32
(
(1.50687e-09 3.29296e-10 3.442e-10)
(9.39317e-10 1.01219e-10 2.67959e-10)
(1.24758e-09 -6.29036e-11 1.69148e-10)
(1.74795e-10 -3.76196e-11 8.28513e-11)
(4.28766e-10 1.43095e-11 1.47823e-10)
(3.39096e-10 -9.54856e-11 4.19844e-11)
(9.0455e-11 -3.95434e-11 5.69039e-11)
(2.23995e-10 -1.00001e-10 1.06164e-10)
(2.9374e-10 -1.39494e-10 8.09571e-11)
(4.61998e-10 -1.20575e-10 1.34428e-10)
(7.03696e-10 -1.0178e-10 2.66578e-10)
(9.33385e-10 -2.4215e-11 1.44445e-10)
(1.03625e-09 1.07137e-10 1.74806e-10)
(1.50687e-09 3.29296e-10 3.442e-10)
(9.39317e-10 1.01219e-10 2.67959e-10)
(1.22821e-09 6.80939e-11 2.37778e-10)
(6.36535e-11 1.60311e-11 -1.27877e-11)
(9.15812e-11 -3.71701e-11 5.36361e-11)
(1.53562e-10 -5.13116e-11 5.85163e-11)
(2.0984e-10 -9.02357e-11 9.44789e-11)
(2.93207e-10 -1.76989e-10 1.59385e-10)
(4.08463e-10 -9.57211e-11 1.44379e-10)
(9.39317e-10 1.01219e-10 2.67959e-10)
(1.74795e-10 -3.76196e-11 8.28513e-11)
(7.73829e-10 -6.61423e-11 2.00295e-10)
(1.50683e-11 -1.60309e-11 1.51506e-11)
(1.04826e-10 -3.99471e-11 3.20432e-11)
(4.5634e-11 -5.16956e-11 1.00796e-11)
(6.92129e-11 -7.26343e-11 3.67762e-11)
(8.84656e-11 -7.48803e-11 3.58348e-11)
(1.74795e-10 -3.76196e-11 8.28513e-11)
(1.47255e-10 -1.04644e-10 6.90455e-11)
)
;
    }
}


// ************************************************************************* //
