/*--------------------------------*- C++ -*----------------------------------*\
| =========                 |                                                 |
| \\      /  F ield         | OpenFOAM: The Open Source CFD Toolbox           |
|  \\    /   O peration     | Version:  4.x                                   |
|   \\  /    A nd           | Web:      www.OpenFOAM.org                      |
|    \\/     M anipulation  |                                                 |
\*---------------------------------------------------------------------------*/
FoamFile
{
    version     2.0;
    format      ascii;
    class       volScalarField;
    location    "55";
    object      KslNext;
}
// * * * * * * * * * * * * * * * * * * * * * * * * * * * * * * * * * * * * * //

dimensions      [1 -3 -1 0 0 0 0];

internalField   nonuniform List<scalar> 
108
(
3395.83
7879.82
3401.67
7531.4
3383.79
7239.52
3321.14
7091.73
3197.42
3488.25
9769
3665.88
12434.1
3717.47
15037.1
3695.42
18671.8
3621.44
3525.22
11067.5
3784.52
17023.2
3847.05
27355.8
3829.95
69607.7
3787.66
3500.75
10923.5
3785.56
17194.8
3864.61
33821.5
3888.77
116965
3850.18
3376.56
7792.52
3367.39
7499.3
3373.9
7241.69
3312.48
7331.94
3271.04
3458.85
8917.15
3552.93
9846.17
3589.46
10899.9
3578.54
12751.8
3547.41
3475.17
10121.1
3698.36
13885.8
3781.6
19984.9
3762.78
33940.1
3726.74
3507.35
10395.2
3717.56
14775.9
3790.75
22032.8
3762.9
34187.4
3662.39
3331.55
6913.21
3178.81
5930.64
3113.46
5512.32
3039.32
5202.03
2911.18
3383.79
7656.45
3364.92
7026.46
3297.45
6619.22
3203.52
6310.48
3084.93
3436.61
8210.01
3466.73
8076.28
3438.77
7798.8
3339.67
7425.03
3231.52
3477.08
8399.18
3503.51
8507.82
3464.5
8122.89
3328.4
7457.43
3199.92
)
;

boundaryField
{
    inlet
    {
        type            zeroGradient;
    }
    outlet
    {
        type            zeroGradient;
    }
    wall
    {
        type            zeroGradient;
    }
    procBoundary4to0
    {
        type            processor;
        value           uniform 0;
    }
    procBoundary4to5
    {
        type            processor;
        value           uniform 0;
    }
    procBoundary4to6
    {
        type            processor;
        value           uniform 0;
    }
}


// ************************************************************************* //
