/*--------------------------------*- C++ -*----------------------------------*\
| =========                 |                                                 |
| \\      /  F ield         | OpenFOAM: The Open Source CFD Toolbox           |
|  \\    /   O peration     | Version:  4.x                                   |
|   \\  /    A nd           | Web:      www.OpenFOAM.org                      |
|    \\/     M anipulation  |                                                 |
\*---------------------------------------------------------------------------*/
FoamFile
{
    version     2.0;
    format      ascii;
    class       volScalarField;
    location    "55";
    object      magGField;
}
// * * * * * * * * * * * * * * * * * * * * * * * * * * * * * * * * * * * * * //

dimensions      [1 -2 -1 0 0 0 0];

internalField   nonuniform List<scalar> 
108
(
95.888
41.3153
97.262
44.0571
99.0881
45.9164
100.698
46.3734
102.566
94.2406
33.9686
92.1281
26.9837
90.8293
22.2224
91.0772
17.6965
91.5201
93.9246
30.1794
89.4311
19.6481
87.4527
12.1287
86.9232
4.69261
86.7281
94.2274
30.5718
89.2261
19.4195
86.6496
9.7622
85.14
2.78317
84.8215
95.7611
41.6097
97.3781
43.7314
98.5186
45.3995
100.014
44.5276
99.9017
94.9163
36.8898
94.1083
33.7427
93.4129
30.3706
93.0131
25.7433
93.0071
94.5534
32.645
90.6998
23.8911
88.4048
16.4808
87.7616
9.57585
87.8122
93.382
31.8028
89.9859
22.3621
87.7759
14.8916
87.4275
9.45058
88.6037
96.1654
46.0637
101.381
54.1586
104.736
58.5371
107.171
62.1032
111.152
95.4421
42.0546
97.4997
46.4162
99.9068
49.1946
102.048
51.3593
104.896
94.2917
39.3569
94.4974
40.2388
95.7227
41.6409
97.49
43.3272
99.6353
93.147
38.5323
93.7545
38.2142
94.6924
39.7263
97.4202
43.0694
100.335
)
;

boundaryField
{
    inlet
    {
        type            calculated;
        value           uniform 67;
    }
    outlet
    {
        type            calculated;
        value           nonuniform 0();
    }
    wall
    {
        type            calculated;
        value           uniform 0;
    }
    procBoundary4to0
    {
        type            processor;
        value           nonuniform List<scalar> 
36
(
96.8784
40.7279
98.6077
43.8226
100.015
44.7778
100.98
43.6497
100.911
95.8547
33.2308
93.6218
26.9431
91.9404
20.4184
90.5331
12.8321
90.2756
95.021
29.0866
89.9627
15.7273
86.0487
4.79152
83.3152
0.387045
81.1609
94.7993
30.9972
90.8377
20.9253
89.6295
14.9412
89.265
11.2869
89.1397
)
;
    }
    procBoundary4to5
    {
        type            processor;
        value           nonuniform List<scalar> 
12
(
45.5523
11.3004
0.673935
0.000354214
42.2927
22.0046
3.41009
6.36531
66.5425
53.0963
43.8682
43.9444
)
;
    }
    procBoundary4to6
    {
        type            processor;
        value           nonuniform List<scalar> 
27
(
91.8062
26.5089
86.652
11.8064
82.861
2.35078
81.3662
0.000233772
80.6967
92.7238
31.3706
89.6382
22.3107
87.8209
14.5818
86.565
7.81782
85.9205
94.3452
40.426
94.6386
40.5102
94.776
40.1503
94.8678
37.989
96.1624
)
;
    }
}


// ************************************************************************* //
