/*--------------------------------*- C++ -*----------------------------------*\
| =========                 |                                                 |
| \\      /  F ield         | OpenFOAM: The Open Source CFD Toolbox           |
|  \\    /   O peration     | Version:  4.x                                   |
|   \\  /    A nd           | Web:      www.OpenFOAM.org                      |
|    \\/     M anipulation  |                                                 |
\*---------------------------------------------------------------------------*/
FoamFile
{
    version     2.0;
    format      ascii;
    class       volScalarField;
    location    "55";
    object      Sm;
}
// * * * * * * * * * * * * * * * * * * * * * * * * * * * * * * * * * * * * * //

dimensions      [1 -3 -1 0 0 0 0];

internalField   nonuniform List<scalar> 
108
(
5.19256e-65
7.36257e-65
7.51758e-65
5.58006e-65
5.96757e-65
5.65756e-65
7.59508e-65
6.74258e-65
8.91263e-65
7.75009e-65
6.35507e-65
7.36258e-65
8.6026e-65
8.2151e-65
7.51759e-65
6.35508e-65
5.42508e-65
9.06766e-65
6.97508e-65
8.75759e-65
6.66508e-65
8.4476e-65
6.66509e-65
5.96758e-65
6.12259e-65
9.68765e-65
5.65761e-65
4.34005e-65
5.73506e-65
7.59509e-65
5.19257e-65
7.3626e-65
6.35509e-65
9.22263e-65
5.96759e-65
5.96761e-65
5.34756e-65
5.11505e-65
7.05258e-65
7.67259e-65
6.97508e-65
5.27006e-65
4.49506e-65
6.9751e-65
8.21514e-65
5.65756e-65
6.51007e-65
5.81257e-65
6.43258e-65
5.96757e-65
5.96758e-65
6.66509e-65
7.90512e-65
8.13765e-65
4.41755e-65
6.27757e-65
7.82759e-65
7.20759e-65
7.6726e-65
7.2851e-65
6.6651e-65
6.66511e-65
6.82013e-65
6.66508e-65
7.20758e-65
5.96757e-65
8.52511e-65
8.44761e-65
6.74259e-65
9.61014e-65
7.90513e-65
6.82013e-65
4.96006e-65
6.66507e-65
4.41755e-65
6.74258e-65
5.73507e-65
8.0601e-65
7.2076e-65
6.27759e-65
7.20762e-65
5.34756e-65
8.7576e-65
5.81257e-65
5.50257e-65
6.20008e-65
7.20759e-65
6.35509e-65
5.65759e-65
7.59514e-65
5.42506e-65
7.36258e-65
7.44009e-65
7.36259e-65
5.65757e-65
6.58759e-65
6.43259e-65
7.51762e-65
6.27762e-65
7.44009e-65
7.05258e-65
5.81257e-65
7.6726e-65
6.97509e-65
9.22263e-65
4.49507e-65
4.88258e-65
6.35511e-65
)
;

boundaryField
{
    inlet
    {
        type            calculated;
        value           uniform 0;
    }
    outlet
    {
        type            calculated;
        value           nonuniform 0();
    }
    wall
    {
        type            calculated;
        value           uniform 0;
    }
    procBoundary4to0
    {
        type            processor;
        value           nonuniform List<scalar> 
36
(
4.57255e-65
4.88255e-65
5.73506e-65
5.34755e-65
6.12255e-65
7.44004e-65
4.80501e-65
4.1075e-65
4.96002e-65
5.50256e-65
8.13758e-65
7.28507e-65
6.74257e-65
5.81256e-65
5.96755e-65
8.37006e-65
6.58756e-65
5.50258e-65
4.57255e-65
4.96005e-65
7.28508e-65
5.73507e-65
7.28508e-65
8.06009e-65
6.74258e-65
5.11507e-65
8.06018e-65
5.27006e-65
5.89006e-65
7.98259e-65
9.06761e-65
4.49506e-65
9.14512e-65
7.13009e-65
5.42508e-65
2.32505e-65
)
;
    }
    procBoundary4to5
    {
        type            processor;
        value           nonuniform List<scalar> 
12
(
6.3551e-65
7.13013e-65
8.21517e-65
1.00752e-64
6.66512e-65
5.34761e-65
6.89765e-65
4.72761e-65
2.63505e-65
6.35514e-65
6.12264e-65
7.36266e-65
)
;
    }
    procBoundary4to6
    {
        type            processor;
        value           nonuniform List<scalar> 
27
(
1.03851e-64
7.59509e-65
4.96006e-65
7.4401e-65
9.37763e-65
6.12258e-65
7.3626e-65
6.51009e-65
8.52514e-65
7.67259e-65
7.67259e-65
7.75009e-65
7.6726e-65
5.34757e-65
7.0526e-65
6.27759e-65
5.89009e-65
7.90513e-65
5.03756e-65
5.27006e-65
6.12258e-65
6.89759e-65
6.51009e-65
6.43259e-65
8.68012e-65
8.75763e-65
3.79756e-65
)
;
    }
}


// ************************************************************************* //
