/*--------------------------------*- C++ -*----------------------------------*\
  =========                 |
  \\      /  F ield         | OpenFOAM: The Open Source CFD Toolbox
   \\    /   O peration     | Website:  https://openfoam.org
    \\  /    A nd           | Version:  4.x
     \\/     M anipulation  |
\*---------------------------------------------------------------------------*/
FoamFile
{
    version     2.0;
    format      ascii;
    class       Cloud<passiveParticle>;
    location    0;
    object      positions;
}
// * * * * * * * * * * * * * * * * * * * * * * * * * * * * * * * * * * * * * //

312
(
( 0.211583 -0.00559679 -0.0726894 ) 4
( 0.187073 -0.00943872 -0.0457033 ) 34
( 0.223452 -0.0130653 -0.0586198 ) 36
( 0.203031 -0.0136576 -0.03531 ) 64
( 0.23555 -0.00378901 -0.071306 ) 36
( 0.220391 -0.00513286 -0.0324523 ) 64
( 0.176601 -0.00934755 -0.0624319 ) 34
( 0.235984 -0.00904816 -0.0438624 ) 36
( 0.205713 -0.00152255 -0.0507276 ) 35
( 0.167566 -0.0112885 -0.0447194 ) 34
( 0.226259 -0.0111309 -0.0146987 ) 65
( 0.225221 0.0300887 -0.0273279 ) 74
( 0.0457609 0.0271862 -0.0469737 ) 38
( 0.215115 0.0376288 -0.0425446 ) 73
( 0.185333 0.0222856 -0.0700758 ) 43
( 0.113521 0.0388543 -0.0534807 ) 41
( 0.032375 0.0742176 -0.0323205 ) 85
( 0.201776 0.0640971 -0.0450473 ) 53
( 0.21236 0.0179985 -0.0410187 ) 73
( 0.0749102 0.0448108 -0.0509451 ) 48
( 0.069751 0.021497 -0.0471339 ) 39
( 0.0322708 0.0515538 -0.0611033 ) 47
( 0.173432 0.0183928 -0.05467 ) 43
( 0.125903 0.0707915 -0.0484769 ) 50
( 0.0266204 0.0590276 -0.0436108 ) 46
( 0.023804 0.0902936 -0.0398974 ) 84
( 0.0432996 0.0901349 -0.0543221 ) 56
( 0.0625174 0.050168 -0.0659058 ) 48
( 0.078234 0.0721615 -0.0575112 ) 57
( 0.137992 0.0576339 -0.057181 ) 50
( 0.180621 0.0552 -0.0492506 ) 52
( 0.0592325 0.0312552 -0.0609004 ) 39
( 0.203196 0.00505207 -0.0291667 ) 64
( 0.100151 0.0434116 -0.0349109 ) 78
( 0.0790105 0.0455051 -0.0254531 ) 77
( 0.239194 0.0524721 -0.0724286 ) 23
( 0.156902 0.0557949 -0.0682843 ) 51
( 0.215911 0.0777227 -0.0409684 ) 91
( 0.244063 0.0825878 -0.039665 ) 92
( 0.168056 0.0665591 -0.0389287 ) 81
( 0.0925392 0.0600445 -0.0672859 ) 49
( 0.145274 0.0711029 -0.0444574 ) 51
( 0.110911 0.0824318 -0.0427374 ) 87
( 0.154384 0.0565501 -0.0289536 ) 80
( 0.136335 0.0382227 -0.0531526 ) 41
( 0.210398 0.0742544 -0.059697 ) 62
( 0.0254405 0.0819935 -0.0577856 ) 55
( 0.186198 0.038957 -0.0592758 ) 43
( 0.185116 0.089011 -0.0709165 ) 61
( 0.168795 0.0901218 -0.037506 ) 90
( 0.223317 0.0641719 -0.0707444 ) 54
( 0.118317 0.021812 -0.0623754 ) 41
( 0.113976 0.0888644 -0.0613115 ) 59
( 0.0724407 0.0629146 -0.0321037 ) 77
( 0.09252 0.077264 -0.0356243 ) 87
( 0.133721 0.0243616 -0.0392048 ) 70
( 0.196285 0.0526659 -0.0696211 ) 53
( 0.144851 0.00353951 -0.0699961 ) 33
( 0.21839 0.0258928 -0.0582954 ) 44
( 0.027087 0.024792 -0.0326778 ) 66
( 0.0995889 0.0176937 -0.067529 ) 40
( 0.0900615 0.0248271 -0.0214965 ) 69
( 0.125502 0.0399832 -0.0697473 ) 41
( 0.12407 0.063535 -0.0278322 ) 79
( 0.00983287 0.017775 -0.0395036 ) 66
( 0.106531 0.0460344 -0.070786 ) 49
( 0.0581417 0.0798816 -0.0461351 ) 57
( 0.0999938 0.0251781 -0.0491514 ) 40
( 0.154431 0.0242517 -0.0524835 ) 42
( 0.225744 0.0635934 -0.0509117 ) 54
( 0.157027 0.0053652 -0.0468756 ) 33
( 0.181699 0.0316023 -0.0414059 ) 72
( 0.202632 0.0124754 -0.0703727 ) 35
( 0.0881657 0.0572346 -0.0427362 ) 78
( 0.0977515 0.0749212 -0.0553205 ) 58
( 0.124663 0.0517379 -0.0436856 ) 50
( 0.0899675 0.061987 -0.0230661 ) 78
( 0.191199 0.0711665 -0.0642264 ) 52
( 0.23142 0.0689537 -0.0325913 ) 83
( 0.0349031 0.0416921 -0.0389765 ) 67
( 0.144524 0.0731589 -0.067823 ) 60
( 0.0618856 0.0465872 -0.0360537 ) 77
( 0.0762078 0.0886077 -0.0352376 ) 86
( 0.155501 0.0545381 -0.0485441 ) 51
( 0.00998432 0.072675 -0.0468367 ) 55
( 0.192982 0.0220084 -0.0284422 ) 72
( 0.0379238 0.0181545 -0.0645003 ) 38
( 0.135947 0.0455806 -0.0287231 ) 79
( 0.00989931 0.0813171 -0.0289936 ) 84
( 0.0108115 0.0545522 -0.0549507 ) 46
( 0.169309 0.0438945 -0.0320608 ) 81
( 0.0567085 0.0722491 -0.0644572 ) 57
( 0.15098 0.0900399 -0.0594607 ) 60
( 0.0282646 0.0328976 -0.0554506 ) 38
( 0.114652 0.0289959 -0.0362498 ) 70
( 0.229964 0.0121092 -0.0340712 ) 65
( 0.248705 0.0608325 -0.0242462 ) 83
( 0.0279832 0.0556728 -0.0187455 ) 76
( 0.241965 0.0555983 -0.0424919 ) 83
( 0.0959761 0.0900503 -0.0694515 ) 58
( 0.165065 0.0708706 -0.0580472 ) 51
( 0.188443 0.0902916 -0.034747 ) 90
( 0.231991 0.0279868 -0.0742402 ) 14
( 0.23904 0.0160767 -0.0599873 ) 45
( 0.196659 0.0449591 -0.0434795 ) 53
( 0.164425 0.0285301 -0.0691607 ) 42
( 0.063724 0.0612409 -0.0495714 ) 48
( 0.247496 0.0106263 -0.0428811 ) 36
( 0.18487 0.074353 -0.0457381 ) 61
( 0.0835412 0.027019 -0.0603202 ) 40
( 0.171142 0.0773794 -0.022612 ) 90
( 0.16743 0.0393775 -0.0527715 ) 43
( 0.176683 0.0581581 -0.0684979 ) 52
( 0.114068 0.0902967 -0.0250227 ) 88
( 0.227013 0.0901942 -0.0298603 ) 92
( 0.165848 0.0204108 -0.0366329 ) 71
( 0.204974 0.0901385 -0.0701991 ) 62
( 0.188863 0.00641398 -0.0574738 ) 34
( 0.120845 0.0661747 -0.067126 ) 50
( 0.0586016 0.0274768 -0.0318594 ) 68
( 0.047265 0.0567747 -0.0272645 ) 76
( 0.0843614 0.0320264 -0.0390031 ) 69
( 0.00990985 0.0284625 -0.0677838 ) 37
( 0.222359 0.0110264 -0.0709182 ) 36
( 0.1328 0.0897551 -0.0675461 ) 59
( 0.0490276 0.0481997 -0.0510636 ) 47
( 0.163262 0.0825321 -0.0740363 ) 29
( 0.18537 0.0613859 -0.0307921 ) 81
( 0.00970038 0.035679 -0.0493274 ) 37
( 0.207143 0.0900398 -0.028222 ) 91
( 0.211282 0.0510856 -0.0566085 ) 53
( 0.0854095 0.090165 -0.0526866 ) 58
( 0.233283 0.028175 -0.0453174 ) 45
( 0.202796 0.0329488 -0.0684594 ) 44
( 0.128707 0.0902645 -0.0480724 ) 59
( 0.0548802 0.0732229 -0.0190685 ) 85
( 0.0355299 0.069365 -0.0693059 ) 47
( 0.231317 0.0450619 -0.0556326 ) 54
( 0.0282551 0.090153 -0.0195194 ) 85
( 0.22871 0.0901197 -0.0497521 ) 63
( 0.149082 0.090184 -0.0396947 ) 89
( 0.0104481 0.0351153 -0.0297391 ) 66
( 0.151422 0.0373519 -0.0379294 ) 71
( 0.143454 0.0277943 -0.0686207 ) 42
( 0.0433535 0.0673032 -0.0504231 ) 47
( 0.167722 0.00693948 -0.0699082 ) 34
( 0.17076 0.090074 -0.0572141 ) 61
( 0.196772 0.0238259 -0.0518164 ) 44
( 0.137109 0.0900846 -0.0227442 ) 88
( 0.0527638 0.0273162 -0.00503067 ) 94
( 0.135472 0.0700978 8.28752e-05 ) 105
( 0.08327 0.0549757 -0.00355896 ) 103
( 0.0894405 0.0423313 0.0105544 ) 96
( 0.217796 0.0166332 0.011267 ) 100
( 0.114788 0.0250148 0.00872567 ) 97
( 0.0430252 0.0347497 0.0105562 ) 94
( 0.110137 0.0412269 -0.00204515 ) 96
( 0.175576 0.0361726 -0.0120131 ) 99
( 0.168801 0.0486504 0.00179454 ) 107
( 0.191112 0.0822236 -0.0167478 ) 90
( 0.124988 0.0510657 0.00638055 ) 105
( 0.153844 0.039419 0.0108615 ) 98
( 0.0490063 0.0902087 0.00758532 ) 109
( 0.125183 0.0234403 -0.00779477 ) 97
( 0.00985187 0.0488415 0.00689912 ) 101
( 0.0110337 0.065992 -0.0165121 ) 75
( 0.103365 0.090101 -0.00349938 ) 111
( 0.158937 0.0681914 -0.00998633 ) 106
( 0.193268 0.0595636 -0.012748 ) 107
( 0.0293281 0.0881171 0.00606007 ) 109
( 0.0272545 0.0433884 -0.0030872 ) 101
( 0.0907247 0.0902236 0.0119059 ) 111
( 0.0756031 0.0182178 0.00723609 ) 95
( 0.0628339 0.0800397 -0.00214527 ) 110
( 0.20704 0.02724 -0.00114093 ) 100
( 0.13388 0.0427972 -0.00903478 ) 97
( 0.0581664 0.0697158 0.0138865 ) 103
( 0.00990486 0.0682298 0.00299469 ) 101
( 0.124235 0.077635 -0.0140455 ) 112
( 0.232234 0.0781291 -0.0151591 ) 92
( 0.162136 0.0798761 0.00558999 ) 113
( 0.163604 0.0259524 0.000292644 ) 98
( 0.145118 0.0901257 0.00641256 ) 113
( 0.0952495 0.0239282 0.00531797 ) 96
( 0.0643302 0.0605349 -0.0057251 ) 103
( 0.0201266 0.0274245 -0.0143912 ) 66
( 0.0466215 0.0898396 -0.0119399 ) 109
( 0.066299 0.0371182 0.00536061 ) 95
( 0.0927645 0.0732023 -0.00373738 ) 111
( 0.05319 0.0515883 0.00797652 ) 102
( 0.105694 0.0730611 -0.0187518 ) 87
( 0.153628 0.0900488 -0.0115651 ) 113
( 0.0292202 0.0233356 0.00247265 ) 94
( 0.142446 0.0276187 0.000303877 ) 98
( 0.220998 0.0370539 0.0087094 ) 100
( 0.153124 0.0467099 -0.0119384 ) 106
( 0.116922 0.0594641 -0.00963958 ) 105
( 0.0769832 0.0702063 0.0078124 ) 103
( 0.0110885 0.086858 -0.0099677 ) 108
( 0.0803592 0.0891326 -0.00479283 ) 110
( 0.191275 0.0389437 -0.000702731 ) 99
( 0.125001 0.0903329 0.000717091 ) 112
( 0.211628 0.0529855 -0.0156638 ) 82
( 0.108907 0.0286642 -0.0172517 ) 69
( 0.0823957 0.0340586 -0.00582009 ) 95
( 0.101091 0.0573509 0.00492244 ) 104
( 0.182648 0.0210116 -0.000691633 ) 99
( 0.0360837 0.0604798 0.00214277 ) 102
( 0.178855 0.0712654 -0.00556081 ) 107
( 0.00975518 0.0442727 -0.0122831 ) 101
( 0.107782 0.0577687 -0.0547145 ) 49
( 0.00985062 0.0901751 -0.0670866 ) 55
( 0.216632 0.0558587 -0.0346395 ) 82
( 0.139856 0.0605884 -0.0164171 ) 80
( 0.0517663 0.0144456 0.0101152 ) 94
( 0.00983677 0.0296276 0.00234278 ) 93
( 0.00990886 0.0901401 0.00952094 ) 108
( 0.0701957 0.0230234 -0.0165182 ) 68
( 0.220897 0.0444529 -0.0726895 ) 22
( 0.0499443 0.0901442 -0.0313939 ) 85
( 0.158578 -0.0107626 -0.0703357 ) 33
( 0.00983033 0.0560999 -0.0336284 ) 75
( 0.228038 0.0901096 -0.0696131 ) 63
( 0.0942139 0.0431384 -0.0554096 ) 49
( 0.22419 0.00562765 -0.0518663 ) 36
( 0.217584 0.0137565 -0.0187251 ) 64
( 0.230852 0.058223 -0.015977 ) 83
( 0.067162 0.0900605 -0.0606721 ) 57
( 0.240817 0.0425569 -0.0230081 ) 74
( 0.105885 0.0625512 -0.0355474 ) 78
( 0.145659 -0.00926823 -0.0541483 ) 33
( 0.202566 0.0901143 -0.0486937 ) 62
( 0.139565 0.0278555 -0.0206227 ) 71
( 0.2493 -0.00447313 -0.0301067 ) 65
( 0.092824 0.0900499 -0.02036 ) 87
( 0.116492 0.0456702 -0.023908 ) 79
( 0.150082 0.0575903 0.00405013 ) 106
( 0.150643 0.0758986 -0.0260583 ) 89
( 0.159245 0.030486 -0.0211022 ) 71
( 0.188306 0.042432 -0.0257204 ) 72
( 0.11428 0.0737681 0.00388825 ) 112
( 0.0407274 0.0312916 -0.0200943 ) 67
( 0.0358758 0.0730621 -0.0129427 ) 109
( 0.173135 0.0166713 -0.017639 ) 72
( 0.175228 0.0641274 0.0124424 ) 107
( 0.172964 0.0556139 -0.0163536 ) 81
( 0.0960789 0.0446744 -0.0154394 ) 78
( 0.0755206 0.0734869 -0.0158084 ) 86
( 0.205337 0.0345772 -0.019369 ) 73
( 0.203724 0.0703629 -0.0264162 ) 82
( 0.0636783 0.0415572 -0.0137054 ) 95
( 0.0453232 0.0476456 -0.00975295 ) 102
( 0.0653472 0.0902181 -0.0188509 ) 86
( 0.0117265 0.0704843 -0.0666197 ) 46
( 0.109954 0.0787642 -0.0780782 ) 27
( 0.178173 0.040369 -0.0774346 ) 12
( 0.029043 0.0316757 -0.0760813 ) 7
( 0.237925 0.0776561 -0.0814795 ) 32
( 0.198905 0.0750681 -0.0821306 ) 31
( 0.178341 -0.0141511 -0.0817048 ) 3
( 0.0516049 0.0238122 -0.0777142 ) 7
( 0.112266 0.0290256 -0.0799446 ) 10
( 0.0684922 0.0163305 -0.0702955 ) 39
( 0.0746357 0.0625918 -0.0755124 ) 17
( 0.138878 0.0535176 -0.0765748 ) 19
( 0.218233 0.0794135 -0.0833217 ) 31
( 0.0165792 0.0466595 -0.0722075 ) 15
( 0.153429 0.040523 -0.0806101 ) 11
( 0.0809176 0.0442289 -0.0700935 ) 48
( 0.0503541 0.0601694 -0.0789278 ) 16
( 0.1546 0.0164536 -0.0816022 ) 11
( 0.0456011 0.0419991 -0.0722795 ) 7
( 0.0457556 0.0859897 -0.0736865 ) 25
( 0.0851898 0.00826037 -0.0774013 ) 0
( 0.0787511 0.0820185 -0.0751026 ) 26
( 0.129607 0.0192563 -0.0800346 ) 10
( 0.133532 -0.00672282 -0.0828028 ) 1
( 0.160801 0.0660058 -0.0849323 ) 20
( 0.186077 0.00360834 -0.0770384 ) 3
( 0.0267347 0.0900586 -0.0774469 ) 24
( 0.234346 0.0125911 -0.0867521 ) 5
( 0.0881427 -0.010208 -0.0842374 ) 0
( 0.21422 0.0249314 -0.0826829 ) 13
( 0.0184159 0.0161394 -0.0825181 ) 6
( 0.209825 0.0570482 -0.0835732 ) 22
( 0.010494 0.0799887 -0.0841576 ) 24
( 0.130417 0.0758769 -0.0816766 ) 28
( 0.0925338 0.0315238 -0.0799361 ) 9
( 0.0656944 0.0374836 -0.0809759 ) 8
( 0.120103 0.0539774 -0.0830831 ) 19
( 0.0314962 0.0548321 -0.0825632 ) 16
( 0.179132 0.0731216 -0.0814057 ) 30
( 0.10187 0.0617672 -0.0847587 ) 18
( 0.196434 0.0407347 -0.0856319 ) 13
( 0.108491 0.00600884 -0.0809761 ) 0
( 0.146641 0.0900865 -0.0818212 ) 29
( 0.0626135 0.0901271 -0.0832866 ) 26
( 0.233152 0.0420492 -0.0882844 ) 14
( 0.173226 0.0222276 -0.0859072 ) 12
( 0.09137 0.0891983 -0.0888086 ) 27
( 0.00991219 0.060099 -0.0851986 ) 15
( 0.0108317 0.034321 -0.0868042 ) 6
( 0.0374624 0.0144099 -0.0881053 ) 7
( 0.19533 0.0203721 -0.0871908 ) 13
( 0.0314838 0.0739831 -0.0882497 ) 25
( 0.0851985 0.0513532 -0.0881932 ) 18
( 0.076832 0.0226538 -0.0884026 ) 8
( 0.13488 0.0371089 -0.0871623 ) 10
( 0.115018 -0.0111463 -0.0887738 ) 1
( 0.229279 0.0615902 -0.0895728 ) 23
( 0.0632603 0.0711736 -0.0894292 ) 17
( 0.183463 0.0554054 -0.0894169 ) 21
)
