/*--------------------------------*- C++ -*----------------------------------*\
| =========                 |                                                 |
| \\      /  F ield         | OpenFOAM: The Open Source CFD Toolbox           |
|  \\    /   O peration     | Version:  4.x                                   |
|   \\  /    A nd           | Web:      www.OpenFOAM.org                      |
|    \\/     M anipulation  |                                                 |
\*---------------------------------------------------------------------------*/
FoamFile
{
    version     2.0;
    format      ascii;
    class       volVectorField;
    location    "16";
    object      impParticleForces;
}
// * * * * * * * * * * * * * * * * * * * * * * * * * * * * * * * * * * * * * //

dimensions      [1 1 -2 0 0 0 0];

internalField   nonuniform List<vector> 
108
(
(0.00251692 9.61187e-07 -1.72526e-05)
(0.00249528 5.031e-06 -1.7907e-06)
(0.00248102 7.21884e-06 9.99152e-06)
(0.00245637 7.95789e-06 1.63143e-05)
(0.00242174 9.961e-06 1.45935e-05)
(0.00239379 1.27444e-05 4.36574e-06)
(0.0023422 1.83102e-05 -1.84104e-05)
(0.00229494 2.48585e-05 -5.17689e-05)
(0.00221383 2.57027e-05 -7.95651e-05)
(0.0025171 5.65493e-06 -1.79674e-05)
(0.00252456 9.45772e-06 -2.79707e-06)
(0.00248619 1.36329e-05 8.87261e-06)
(0.00246701 1.84879e-05 1.60456e-05)
(0.00243888 2.49184e-05 1.60385e-05)
(0.00242992 3.37464e-05 6.94673e-06)
(0.00236736 4.64598e-05 -1.55198e-05)
(0.00232099 6.07793e-05 -4.99125e-05)
(0.00223784 6.78709e-05 -8.12922e-05)
(0.002506 1.12723e-05 -1.9513e-05)
(0.00250773 1.52751e-05 -4.86948e-06)
(0.00248679 2.04673e-05 7.251e-06)
(0.00248167 2.80673e-05 1.5425e-05)
(0.00245548 3.82772e-05 1.68772e-05)
(0.00244427 5.21442e-05 1.01642e-05)
(0.00237774 6.99725e-05 -1.27368e-05)
(0.00233544 9.11878e-05 -4.95605e-05)
(0.00225876 0.000110243 -8.44717e-05)
(0.00243463 1.38239e-05 -1.97162e-05)
(0.00244589 1.79038e-05 -6.39996e-06)
(0.00245787 2.40356e-05 5.34239e-06)
(0.00246275 3.274e-05 1.30582e-05)
(0.00244174 4.49972e-05 1.49813e-05)
(0.00242585 6.08803e-05 7.78434e-06)
(0.00236648 8.40331e-05 -1.41644e-05)
(0.00232034 0.000110647 -5.74854e-05)
(0.00227325 0.000152694 -0.00011237)
(0.00251614 -6.11995e-07 -1.49681e-05)
(0.00252711 2.87363e-06 6.2901e-07)
(0.00250029 5.30229e-06 1.13298e-05)
(0.00250258 6.95791e-06 1.84236e-05)
(0.00245145 9.57806e-06 1.601e-05)
(0.00244243 1.35712e-05 7.75147e-06)
(0.002381 2.03405e-05 -1.3586e-05)
(0.00235485 3.41856e-05 -4.43748e-05)
(0.0022555 4.08275e-05 -8.85172e-05)
(0.00252437 5.61161e-06 -1.62639e-05)
(0.00253977 8.95039e-06 -9.83501e-07)
(0.00250174 1.28992e-05 9.82027e-06)
(0.00250362 1.78786e-05 1.72883e-05)
(0.00246401 2.44974e-05 1.61737e-05)
(0.00247644 3.40394e-05 9.69794e-06)
(0.00242034 4.80006e-05 -1.32496e-05)
(0.00241065 6.74547e-05 -4.69773e-05)
(0.00229625 8.05561e-05 -9.21608e-05)
(0.00254751 1.23755e-05 -1.8726e-05)
(0.00254744 1.607e-05 -3.6393e-06)
(0.00251416 2.05155e-05 8.03038e-06)
(0.00253768 2.82243e-05 1.72029e-05)
(0.00249555 3.77361e-05 1.75269e-05)
(0.00250944 5.18691e-05 1.30315e-05)
(0.00244189 6.96629e-05 -1.02068e-05)
(0.00242145 9.49756e-05 -4.6595e-05)
(0.00232064 0.000123211 -8.9885e-05)
(0.00247386 1.51738e-05 -1.92913e-05)
(0.00248706 1.87765e-05 -6.18826e-06)
(0.0024725 2.40837e-05 4.90336e-06)
(0.00250738 3.23824e-05 1.32811e-05)
(0.0024877 4.43719e-05 1.52355e-05)
(0.00250716 5.86148e-05 1.10381e-05)
(0.00242752 8.19469e-05 -1.27625e-05)
(0.00242367 0.00011049 -4.99075e-05)
(0.00231692 0.000161003 -0.000114872)
(0.00247223 -2.46734e-06 -1.0374e-05)
(0.00250006 -4.82866e-07 3.27577e-06)
(0.00246251 1.76058e-06 1.14118e-05)
(0.00247731 3.34205e-06 1.68859e-05)
(0.00243125 5.24309e-06 1.46244e-05)
(0.00244156 8.53559e-06 7.95134e-06)
(0.0023811 1.15935e-05 -7.05158e-06)
(0.00234953 1.66237e-05 -2.8553e-05)
(0.00225829 1.80456e-05 -5.51907e-05)
(0.00248058 5.16657e-06 -1.13708e-05)
(0.00249188 7.44653e-06 1.7742e-06)
(0.00245834 1.07784e-05 9.62512e-06)
(0.00244972 1.47406e-05 1.41294e-05)
(0.00242269 2.02693e-05 1.21587e-05)
(0.00245872 2.90163e-05 5.87571e-06)
(0.00241002 3.94427e-05 -1.26103e-05)
(0.00241097 5.45749e-05 -3.98186e-05)
(0.00229768 6.59864e-05 -7.40207e-05)
(0.00248044 1.23021e-05 -1.3392e-05)
(0.00250686 1.54118e-05 -3.71618e-07)
(0.00246938 1.8629e-05 7.96724e-06)
(0.00247284 2.44114e-05 1.36499e-05)
(0.00245081 3.22887e-05 1.22671e-05)
(0.00248714 4.43962e-05 6.70588e-06)
(0.00244274 5.97977e-05 -1.18296e-05)
(0.00242976 8.09845e-05 -4.09276e-05)
(0.00231576 0.000104278 -7.47855e-05)
(0.0024455 1.56391e-05 -1.50256e-05)
(0.00244703 1.82149e-05 -3.21521e-06)
(0.00243132 2.21886e-05 5.37374e-06)
(0.00244916 2.86316e-05 1.14396e-05)
(0.00244966 3.84938e-05 1.15304e-05)
(0.00247525 5.12169e-05 7.13586e-06)
(0.00242291 7.0497e-05 -1.2894e-05)
(0.00242933 9.50452e-05 -3.9707e-05)
(0.00232353 0.000128573 -8.23998e-05)
)
;

boundaryField
{
    inlet
    {
        type            zeroGradient;
    }
    outlet
    {
        type            zeroGradient;
    }
    wall
    {
        type            zeroGradient;
    }
    procBoundary3to1
    {
        type            processor;
        value           nonuniform List<vector> 
27
(
(0.00249372 4.36462e-08 -1.58731e-05)
(0.00251772 4.89171e-06 -4.1559e-07)
(0.00248656 1.6059e-06 1.1541e-05)
(0.00249584 -4.19733e-06 1.96342e-05)
(0.00243061 -1.08722e-05 1.68966e-05)
(0.00240644 -1.76473e-05 7.34619e-06)
(0.00233364 -2.70939e-05 -1.45868e-05)
(0.00229272 -3.7126e-05 -4.61155e-05)
(0.00220013 -4.96162e-05 -6.77335e-05)
(0.0025095 -4.69754e-06 -1.3892e-05)
(0.00252978 -1.46711e-06 2.09715e-06)
(0.00249529 -2.45701e-06 1.31411e-05)
(0.00250242 -6.46799e-06 2.11866e-05)
(0.00244864 -1.1581e-05 1.94803e-05)
(0.0024431 -1.78956e-05 1.32278e-05)
(0.00237597 -2.84371e-05 -5.06826e-06)
(0.00232461 -3.89541e-05 -2.96948e-05)
(0.00221046 -5.50217e-05 -5.9107e-05)
(0.00246524 -8.64346e-06 -1.04087e-05)
(0.00249262 -6.55719e-06 4.06652e-06)
(0.00245927 -6.67477e-06 1.32007e-05)
(0.00249628 -9.27868e-06 2.05245e-05)
(0.00244686 -1.354e-05 1.95953e-05)
(0.00245302 -1.9154e-05 1.5389e-05)
(0.00238143 -2.82725e-05 4.56889e-06)
(0.00234511 -3.86395e-05 -7.97732e-06)
(0.00223866 -5.31786e-05 -3.15735e-05)
)
;
    }
    procBoundary3to2
    {
        type            processor;
        value           nonuniform List<vector> 
12
(
(0.00248722 -2.87389e-06 -3.35122e-05)
(0.00249531 2.67776e-06 -3.437e-05)
(0.00250479 8.48932e-06 -3.54538e-05)
(0.00245285 1.13695e-05 -3.48333e-05)
(0.00253356 -4.61938e-06 -3.22813e-05)
(0.00252209 2.69659e-06 -3.28574e-05)
(0.00252902 9.70822e-06 -3.43281e-05)
(0.00245952 1.25862e-05 -3.35894e-05)
(0.00248269 -5.31645e-06 -2.57433e-05)
(0.00248562 3.05664e-06 -2.61793e-05)
(0.00250497 1.09253e-05 -2.78708e-05)
(0.00245361 1.38911e-05 -2.85922e-05)
)
;
    }
    procBoundary3to7
    {
        type            processor;
        value           nonuniform List<vector> 
36
(
(0.00243409 -3.85196e-06 -5.82257e-06)
(0.00245662 -2.46728e-06 5.42164e-06)
(0.00241717 -1.3179e-06 1.09594e-05)
(0.00243725 -3.45836e-07 1.46518e-05)
(0.00242077 8.11034e-07 1.28581e-05)
(0.00243288 2.49419e-06 7.71611e-06)
(0.00235843 2.0886e-06 -3.83306e-06)
(0.00232569 2.51424e-06 -1.87152e-05)
(0.00224605 -2.94233e-08 -3.66809e-05)
(0.00243346 4.84986e-06 -6.36797e-06)
(0.002475 6.79074e-06 4.98806e-06)
(0.0024238 8.65276e-06 9.27497e-06)
(0.00243597 1.17385e-05 1.2125e-05)
(0.00241233 1.6103e-05 9.02757e-06)
(0.00243117 2.17987e-05 2.93935e-06)
(0.00237593 2.94164e-05 -1.23083e-05)
(0.00236231 3.791e-05 -3.08867e-05)
(0.0022743 4.81452e-05 -5.56337e-05)
(0.00242681 1.15156e-05 -8.64604e-06)
(0.00246519 1.4094e-05 2.03913e-06)
(0.00242797 1.63905e-05 7.19199e-06)
(0.0024461 2.12145e-05 1.07082e-05)
(0.00243112 2.76728e-05 7.70724e-06)
(0.00246695 3.70469e-05 2.3566e-06)
(0.0024136 5.02763e-05 -1.40391e-05)
(0.00239269 6.55535e-05 -3.40206e-05)
(0.00229646 9.06513e-05 -6.46639e-05)
(0.00240563 1.4964e-05 -1.06364e-05)
(0.00241788 1.70285e-05 -8.41594e-07)
(0.00240491 2.02622e-05 4.93661e-06)
(0.00240762 2.51239e-05 8.55583e-06)
(0.00241839 3.33592e-05 6.95847e-06)
(0.0024399 4.27069e-05 3.11387e-06)
(0.00239979 5.93427e-05 -1.31052e-05)
(0.00240275 7.39537e-05 -2.74573e-05)
(0.00228782 0.00010049 -5.83051e-05)
)
;
    }
}


// ************************************************************************* //
