/*--------------------------------*- C++ -*----------------------------------*\
| =========                 |                                                 |
| \\      /  F ield         | OpenFOAM: The Open Source CFD Toolbox           |
|  \\    /   O peration     | Version:  4.x                                   |
|   \\  /    A nd           | Web:      www.OpenFOAM.org                      |
|    \\/     M anipulation  |                                                 |
\*---------------------------------------------------------------------------*/
FoamFile
{
    version     2.0;
    format      ascii;
    class       volScalarField;
    location    "16";
    object      KslPrev;
}
// * * * * * * * * * * * * * * * * * * * * * * * * * * * * * * * * * * * * * //

dimensions      [1 -3 -1 0 0 0 0];

internalField   nonuniform List<scalar> 
108
(
4829.03
2852.3
5005.82
2793.55
5805.53
2711.04
7029.28
2291.11
4822.42
5093.51
2931.36
5385.29
2841.54
6387.14
2839.99
8436.04
2702.02
7517.21
4639.25
2853.86
4858.02
2885.19
6132.48
3180.48
11767.5
4350.93
90797.9
3903.25
2549.09
3766.53
2438.83
3761.44
2303.44
3933
2153.64
3609.42
17967.5
3747.5
24200.4
3571.44
20151.3
3343.76
9590.2
3178.4
3081.57
15448.5
3575
21024.1
3302.46
26646.5
2940.5
28455.1
2279.23
5000.1
11561.6
3607.32
14799
3484.94
17511.6
3339.43
15059.3
3493.54
7078.65
5413.69
2920.21
5408.74
2747.19
5499.2
2385.08
5295.11
1671.97
2897.33
621942
3964.97
2.31213e+09
3859.56
139758
3738.01
229323
3832.69
25366.2
43211.2
3865.92
1.07647e+06
3693.49
8.12947e+08
3544.3
36753.9
3295.38
6365.35
33203.8
3928.57
198460
3772.41
8.52554e+07
3630.8
42893.6
3270.15
11622.1
7209.35
3225.85
7422.75
3086.23
7859.24
2854.83
8643.97
2263.66
9683.58
)
;

boundaryField
{
    inlet
    {
        type            zeroGradient;
    }
    outlet
    {
        type            zeroGradient;
    }
    wall
    {
        type            zeroGradient;
    }
    procBoundary3to1
    {
        type            processor;
        value           uniform 0;
    }
    procBoundary3to2
    {
        type            processor;
        value           uniform 0;
    }
    procBoundary3to7
    {
        type            processor;
        value           uniform 0;
    }
}


// ************************************************************************* //
