/*--------------------------------*- C++ -*----------------------------------*\
| =========                 |                                                 |
| \\      /  F ield         | OpenFOAM: The Open Source CFD Toolbox           |
|  \\    /   O peration     | Version:  4.x                                   |
|   \\  /    A nd           | Web:      www.OpenFOAM.org                      |
|    \\/     M anipulation  |                                                 |
\*---------------------------------------------------------------------------*/
FoamFile
{
    version     2.0;
    format      ascii;
    class       volScalarField;
    location    "16";
    object      Sm;
}
// * * * * * * * * * * * * * * * * * * * * * * * * * * * * * * * * * * * * * //

dimensions      [1 -3 -1 0 0 0 0];

internalField   nonuniform List<scalar> 
108
(
6.97253e-65
3.25395e-65
5.73348e-65
2.55702e-65
4.10679e-65
3.02216e-65
4.727e-65
4.26211e-65
4.18466e-65
5.19078e-65
7.43826e-65
4.10673e-65
4.64927e-65
5.42428e-65
3.87468e-65
5.5021e-65
5.11461e-65
5.26964e-65
5.50073e-65
5.50114e-65
6.19882e-65
3.71955e-65
4.88203e-65
3.71984e-65
5.73479e-65
5.26977e-65
4.0298e-65
4.6486e-65
3.56412e-65
4.10687e-65
5.88941e-65
4.80468e-65
4.64993e-65
3.1775e-65
5.34743e-65
4.41736e-65
7.51444e-65
6.27481e-65
9.06425e-65
8.5226e-65
7.59323e-65
6.27648e-65
6.04422e-65
6.5868e-65
8.91168e-65
6.66261e-65
6.19815e-65
7.51565e-65
7.2835e-65
6.81889e-65
6.27669e-65
8.60166e-65
7.05188e-65
6.97443e-65
1.03814e-64
7.51534e-65
7.4384e-65
8.44613e-65
6.81928e-65
7.36193e-65
6.58709e-65
7.20708e-65
7.9045e-65
7.74699e-65
5.65585e-65
6.35374e-65
6.50917e-65
8.05932e-65
5.65724e-65
6.74228e-65
6.8198e-65
5.65727e-65
7.66917e-65
9.06327e-65
8.75373e-65
8.52216e-65
6.12097e-65
6.27635e-65
8.52379e-65
7.1292e-65
7.43927e-65
9.06429e-65
5.0359e-65
7.74769e-65
4.33893e-65
4.64917e-65
7.90388e-65
7.28416e-65
8.83418e-65
6.122e-65
5.11314e-65
8.13513e-65
8.21328e-65
5.81142e-65
6.81904e-65
7.98167e-65
6.66446e-65
7.20697e-65
5.42466e-65
8.52048e-65
4.02842e-65
5.42391e-65
6.12173e-65
5.57946e-65
7.12953e-65
6.1997e-65
7.90464e-65
8.52455e-65
)
;

boundaryField
{
    inlet
    {
        type            calculated;
        value           nonuniform 0();
    }
    outlet
    {
        type            calculated;
        value           uniform 0;
    }
    wall
    {
        type            calculated;
        value           uniform 0;
    }
    procBoundary3to1
    {
        type            processor;
        value           nonuniform List<scalar> 
27
(
3.48609e-65
5.50033e-65
5.81049e-65
7.12796e-65
5.50118e-65
4.33924e-65
4.95945e-65
4.57216e-65
4.4947e-65
8.13321e-65
6.58416e-65
6.19716e-65
5.26802e-65
5.26859e-65
7.36115e-65
8.05889e-65
1.03064e-64
4.88206e-65
7.9004e-65
6.35133e-65
5.11223e-65
9.06363e-65
8.28997e-65
8.75564e-65
6.81899e-65
7.904e-65
3.48714e-65
)
;
    }
    procBoundary3to2
    {
        type            processor;
        value           nonuniform List<scalar> 
12
(
2.63397e-65
3.95076e-65
5.2673e-65
3.09885e-65
9.21827e-65
5.19004e-65
5.96476e-65
4.26145e-65
8.13366e-65
4.88049e-65
8.3673e-65
6.66407e-65
)
;
    }
    procBoundary3to7
    {
        type            processor;
        value           nonuniform List<scalar> 
36
(
9.91603e-65
7.82439e-65
6.43013e-65
6.74042e-65
1.03048e-64
1.03831e-64
7.9814e-65
5.6569e-65
8.36922e-65
7.67041e-65
9.45229e-65
7.28304e-65
6.89572e-65
8.29086e-65
5.65665e-65
7.51664e-65
6.35445e-65
8.05937e-65
4.80368e-65
7.43842e-65
6.12152e-65
7.12882e-65
7.43886e-65
8.05903e-65
7.51673e-65
7.20692e-65
8.60192e-65
6.50659e-65
6.58602e-65
8.67876e-65
5.50185e-65
7.28421e-65
6.74192e-65
7.90446e-65
5.88969e-65
4.33978e-65
)
;
    }
}


// ************************************************************************* //
