/*--------------------------------*- C++ -*----------------------------------*\
| =========                 |                                                 |
| \\      /  F ield         | OpenFOAM: The Open Source CFD Toolbox           |
|  \\    /   O peration     | Version:  4.x                                   |
|   \\  /    A nd           | Web:      www.OpenFOAM.org                      |
|    \\/     M anipulation  |                                                 |
\*---------------------------------------------------------------------------*/
FoamFile
{
    version     2.0;
    format      ascii;
    class       volVectorField;
    location    "16";
    object      Urel;
}
// * * * * * * * * * * * * * * * * * * * * * * * * * * * * * * * * * * * * * //

dimensions      [0 1 -1 0 0 0 0];

internalField   nonuniform List<vector> 
108
(
(-0.0234447 8.84352e-05 3.55585e-05)
(-0.0244369 2.11655e-05 -0.00025641)
(-0.0229581 -3.92582e-05 -0.000428874)
(-0.0238829 -0.000100942 -0.000562624)
(-0.0219445 -0.000142837 -0.000444069)
(-0.0229434 -0.00024866 -0.000234554)
(-0.0205882 -0.00035463 0.000448245)
(-0.0216946 -0.000500636 0.00135162)
(-0.0182715 -0.000938128 0.0032906)
(-0.0236462 -3.51094e-05 2.60645e-05)
(-0.0246785 -7.92852e-05 -0.000256564)
(-0.0232337 -0.000150552 -0.000473031)
(-0.0242252 -0.000214701 -0.000626683)
(-0.0223107 -0.000302963 -0.00061167)
(-0.0233229 -0.000413588 -0.000390343)
(-0.0209103 -0.000508566 0.000128268)
(-0.0219033 -0.000745773 0.00124828)
(-0.0186218 -0.000683468 0.00292227)
(-0.0245097 -0.000184498 8.0875e-05)
(-0.025525 -0.000243338 -0.000207175)
(-0.0242754 -0.000315849 -0.000469462)
(-0.0251602 -0.000472624 -0.000699423)
(-0.0233487 -0.000643493 -0.000782437)
(-0.0240555 -0.000863084 -0.000694259)
(-0.0215296 -0.00117247 -0.000187845)
(-0.0218225 -0.00142689 0.000895132)
(-0.0187103 -0.00213524 0.00233645)
(-0.0255656 -0.000253232 0.0001605)
(-0.0266881 -0.000315073 -0.000100147)
(-0.025776 -0.000431503 -0.000409498)
(-0.0267763 -0.000605307 -0.00065815)
(-0.0253987 -0.000923655 -0.000890913)
(-0.0262264 -0.00119704 -0.000861011)
(-0.0240255 -0.00188322 -0.00060959)
(-0.0245275 -0.00222633 0.000995128)
(-0.0207033 -0.0040452 0.00406117)
(-0.0207425 7.99094e-05 3.0584e-05)
(-0.0222118 3.3731e-05 -0.000262606)
(-0.0204494 -1.79373e-05 -0.000341032)
(-0.02201 -7.57703e-05 -0.000527096)
(-0.0200344 -0.000130842 -0.000294813)
(-0.0215132 -0.000226489 -0.000168391)
(-0.0192251 -0.000442726 0.000526833)
(-0.0202524 -0.000654207 0.00114791)
(-0.0172985 -0.00146073 0.00332725)
(-0.0211349 -5.01051e-05 4.28636e-05)
(-0.0226176 -7.24576e-05 -0.000265538)
(-0.0208855 -0.000139502 -0.000342516)
(-0.0225254 -0.000191884 -0.000538377)
(-0.0205407 -0.000309447 -0.000359611)
(-0.0222602 -0.000417361 -0.00031143)
(-0.0198743 -0.000663806 0.000386668)
(-0.0215294 -0.000899204 0.00111731)
(-0.0181765 -0.00154965 0.00354271)
(-0.0221424 -0.000195273 0.000112377)
(-0.0235115 -0.000232918 -0.000192004)
(-0.0219834 -0.000286386 -0.000338105)
(-0.0234765 -0.000404836 -0.000593864)
(-0.021678 -0.000560414 -0.000512677)
(-0.0232053 -0.000757069 -0.000549878)
(-0.0209901 -0.00116668 6.82327e-05)
(-0.0221262 -0.00142118 0.000834781)
(-0.0189656 -0.00297358 0.00256719)
(-0.0237002 -0.000289074 0.000237104)
(-0.0249417 -0.000315404 -3.97785e-05)
(-0.023833 -0.000408686 -0.00024461)
(-0.0251883 -0.000511331 -0.000536326)
(-0.0237778 -0.000797683 -0.000572125)
(-0.0253343 -0.000968153 -0.000704445)
(-0.0232777 -0.00171862 -0.000124912)
(-0.0251534 -0.0019856 0.000856037)
(-0.0204491 -0.00437535 0.0043756)
(-0.0186293 9.13005e-05 -4.49507e-05)
(-0.0204487 4.79231e-05 -0.000256052)
(-0.0184654 3.79432e-05 -0.000271993)
(-0.02041 4.88007e-05 -0.000341147)
(-0.0184401 -1.33005e-05 -0.000181632)
(-0.0201624 -9.60894e-05 -3.83238e-05)
(-0.0178997 -0.000126855 0.000387415)
(-0.0191182 -0.000230036 0.000826607)
(-0.0164951 -0.000353313 0.00185661)
(-0.0192062 -5.56401e-05 -4.65638e-05)
(-0.0208708 -6.48023e-05 -0.000262147)
(-0.0190529 -9.67946e-05 -0.000269106)
(-0.0208629 -9.4124e-05 -0.00036208)
(-0.0189377 -0.000216357 -0.000200734)
(-0.0207757 -0.000316562 -7.90111e-05)
(-0.0186692 -0.000514226 0.000462198)
(-0.0201168 -0.000666394 0.0010219)
(-0.0174579 -0.00126881 0.00266271)
(-0.020156 -0.000195812 2.39173e-05)
(-0.0217437 -0.000190598 -0.000215276)
(-0.0200877 -0.000222425 -0.000265907)
(-0.0218307 -0.000291275 -0.000431808)
(-0.020057 -0.000406286 -0.000306124)
(-0.0218831 -0.000529542 -0.000267663)
(-0.0198824 -0.000881557 0.000270591)
(-0.0213594 -0.00107683 0.00082114)
(-0.0182951 -0.00220089 0.00224235)
(-0.0218916 -0.000310232 0.000147507)
(-0.0231853 -0.000291741 -9.99785e-05)
(-0.0219744 -0.000318903 -0.000245665)
(-0.0234111 -0.000370123 -0.000479538)
(-0.0220298 -0.000553739 -0.000448173)
(-0.0236205 -0.000669822 -0.00053514)
(-0.0217745 -0.00116857 3.39318e-05)
(-0.0233394 -0.00141846 0.000506517)
(-0.0195235 -0.0027614 0.00253865)
)
;

boundaryField
{
    inlet
    {
        type            calculated;
        value           nonuniform 0();
    }
    outlet
    {
        type            calculated;
        value           nonuniform List<vector> 
12
(
(-0.0116648 -0.00754992 0.013599)
(-0.0101566 0.00739868 0.00711277)
(-0.00200417 -0.000457487 -0.000776334)
(-0.0151997 -0.0147764 0.0183168)
(-0.00946416 -0.0170159 0.0189797)
(-0.00841929 -0.00307913 0.0196431)
(-0.00944141 -0.013004 0.00135568)
(-0.0118027 -0.0223649 0.0279029)
(-0.00344389 -0.00101902 0.00254655)
(-0.00870618 -0.00301501 0.0111828)
(-0.00601219 -0.00390092 0.00373988)
(-0.0096227 -0.00361124 0.00612754)
)
;
    }
    wall
    {
        type            calculated;
        value           nonuniform List<vector> 
63
(
(-1.16908e-05 5.24568e-06 3.72029e-06)
(-1.58858e-05 9.06902e-06 7.94176e-06)
(-2.25665e-05 8.05774e-06 1.30773e-05)
(-1.38557e-05 4.87585e-06 1.39077e-05)
(-1.34459e-05 6.82992e-06 5.4978e-06)
(-1.78107e-05 1.46295e-05 1.14205e-05)
(-2.8824e-05 1.75005e-05 1.75649e-05)
(-3.42386e-05 1.76763e-05 2.90559e-05)
(-1.62847e-05 8.36785e-06 4.84469e-06)
(-2.11852e-05 1.24549e-05 1.18375e-05)
(-2.83533e-05 1.49397e-05 1.69526e-05)
(-3.38443e-05 -6.08758e-06 2.39344e-05)
(-1.63112e-05 5.64219e-06 4.79993e-06)
(-1.85505e-05 6.66718e-06 8.13804e-06)
(-2.24667e-05 5.17572e-06 8.69813e-06)
(-1.80826e-05 1.2893e-06 6.22057e-06)
(-1.47587e-05 9.26109e-07 4.06717e-06)
(-1.49249e-05 -2.25293e-06 3.21243e-06)
(-4.06285e-05 3.25676e-06 1.21761e-05)
(-9.91045e-05 2.3286e-05 3.56711e-05)
(-1.16394e-05 -1.44143e-06 2.2107e-06)
(-1.32591e-05 -1.69674e-06 2.79554e-06)
(-1.35447e-05 -4.67484e-06 6.53779e-06)
(-3.34223e-05 1.97751e-06 1.16947e-05)
(-9.70748e-06 -7.4082e-07 4.96556e-06)
(-9.03308e-06 4.27659e-07 8.56866e-06)
(-1.0276e-05 7.05679e-07 1.10837e-05)
(-5.43455e-06 9.78875e-06 4.34583e-06)
(-2.30542e-05 -2.91929e-07 6.11692e-06)
(-1.033e-05 7.66918e-07 7.35607e-06)
(-4.79682e-06 -2.65878e-06 5.21657e-06)
(-4.09059e-06 -2.45995e-07 2.96287e-06)
(-4.87283e-06 4.69535e-07 5.1899e-06)
(-9.45497e-07 -6.91556e-07 4.14945e-06)
(-1.43856e-06 -5.48403e-06 3.83102e-06)
(-1.22441e-06 2.8103e-06 9.37774e-07)
(-1.38557e-05 4.87585e-06 1.39077e-05)
(-2.17768e-05 -7.393e-07 3.52136e-05)
(-1.40935e-05 -1.48579e-06 9.82379e-05)
(-3.42386e-05 1.76763e-05 2.90559e-05)
(-5.0208e-05 1.61496e-06 4.49975e-05)
(-6.38501e-05 1.20352e-05 6.08181e-05)
(-3.38443e-05 -6.08758e-06 2.39344e-05)
(-2.0862e-05 7.9518e-06 1.56838e-05)
(-3.06005e-05 1.195e-05 1.71387e-05)
(-1.80826e-05 1.2893e-06 6.22057e-06)
(-1.75823e-05 2.47665e-06 7.30078e-06)
(-1.66621e-05 3.76506e-06 6.00924e-06)
(-9.91045e-05 2.3286e-05 3.56711e-05)
(-1.65335e-05 4.32542e-07 4.19944e-06)
(-1.45927e-05 -2.04301e-06 4.03991e-06)
(-3.34223e-05 1.97751e-06 1.16947e-05)
(-1.58361e-05 -9.0997e-07 1.09792e-06)
(-9.51893e-06 4.15923e-07 -7.96472e-08)
(-5.43455e-06 9.78875e-06 4.34583e-06)
(-1.0547e-05 -1.64463e-07 -2.42253e-06)
(-7.33046e-06 -1.72873e-07 4.72862e-08)
(-4.09059e-06 -2.45995e-07 2.96287e-06)
(-6.69796e-06 4.49707e-07 3.56787e-07)
(-4.86844e-06 -8.28908e-07 -7.56893e-07)
(-1.22441e-06 2.8103e-06 9.37774e-07)
(-1.91001e-06 4.88366e-08 2.18161e-08)
(-9.4495e-07 2.27007e-07 -3.4871e-07)
)
;
    }
    procBoundary3to1
    {
        type            processor;
        value           nonuniform List<vector> 
27
(
(-0.0237328 0.000291741 5.70048e-05)
(-0.0247582 0.000255568 -0.000245965)
(-0.0231958 0.000260094 -0.000437525)
(-0.0240989 0.000264765 -0.000562661)
(-0.0219217 0.000360418 -0.00046742)
(-0.0227847 0.000365298 -0.00024117)
(-0.0200289 0.000557255 0.000351153)
(-0.0206251 0.000593347 0.00128496)
(-0.0174171 0.00102584 0.0023074)
(-0.020981 0.000271452 2.65071e-05)
(-0.0225163 0.000231972 -0.000289349)
(-0.0205983 0.000210544 -0.000386688)
(-0.0221886 0.000195554 -0.000598154)
(-0.0198976 0.00027146 -0.000396785)
(-0.0213898 0.000278994 -0.00030678)
(-0.0185873 0.000512284 0.000228344)
(-0.0192744 0.000598611 0.000718685)
(-0.0156869 0.00122344 0.00181387)
(-0.0190437 0.000259406 -4.39763e-05)
(-0.0208242 0.000201181 -0.000290821)
(-0.0188165 0.000198469 -0.000330595)
(-0.0207816 0.000159842 -0.000444564)
(-0.0187705 0.000259529 -0.000290509)
(-0.0204812 0.000292645 -0.000163895)
(-0.0181175 0.000521449 0.000119278)
(-0.0191707 0.000620136 0.000382225)
(-0.0164817 0.00136229 0.000934049)
)
;
    }
    procBoundary3to2
    {
        type            processor;
        value           nonuniform List<vector> 
12
(
(-0.024488 0.000146241 0.000340324)
(-0.0246479 2.1723e-05 0.000334664)
(-0.0253261 -0.000153832 0.000361656)
(-0.0261494 -0.000234725 0.000407565)
(-0.0223393 0.000124349 0.000279286)
(-0.0226625 -1.82728e-05 0.000293366)
(-0.0234358 -0.00021416 0.000361611)
(-0.0245702 -0.000303265 0.000449684)
(-0.0205661 0.00015953 0.000100799)
(-0.0210015 -2.27008e-05 7.89331e-05)
(-0.021766 -0.000248577 0.000159118)
(-0.0229457 -0.000371694 0.000288336)
)
;
    }
    procBoundary3to7
    {
        type            processor;
        value           nonuniform List<vector> 
36
(
(-0.0181582 7.76958e-05 -6.77005e-05)
(-0.0198318 7.95827e-05 -0.000248706)
(-0.0179823 6.80595e-05 -0.000184793)
(-0.0197581 6.95455e-05 -0.000209111)
(-0.0178308 3.97845e-05 -5.8781e-05)
(-0.0194819 -1.54117e-05 2.83746e-05)
(-0.0173648 1.65414e-06 0.00037118)
(-0.0185712 -4.47037e-05 0.000595203)
(-0.0162227 4.13564e-05 0.00136692)
(-0.0185758 -8.79615e-05 -0.000103851)
(-0.0202325 -7.5213e-05 -0.000271333)
(-0.018508 -0.000102931 -0.000174486)
(-0.0202523 -0.000110365 -0.000209352)
(-0.0184088 -0.000204286 -2.02862e-05)
(-0.0201277 -0.000243384 6.93868e-05)
(-0.0180655 -0.000457251 0.000531661)
(-0.0193313 -0.000500372 0.000815449)
(-0.0169078 -0.00103881 0.00196317)
(-0.0195061 -0.000181342 7.24732e-06)
(-0.0210858 -0.000180108 -0.000160245)
(-0.0195261 -0.000193396 -0.00014068)
(-0.0212129 -0.000240986 -0.000248008)
(-0.0195761 -0.000352912 -7.06159e-05)
(-0.0212614 -0.000435631 -4.06973e-05)
(-0.019366 -0.000849072 0.0004791)
(-0.0205817 -0.00096818 0.000715534)
(-0.0179979 -0.00243335 0.00221536)
(-0.0209922 -0.000275945 0.000157592)
(-0.0223706 -0.00025085 -6.43198e-05)
(-0.021117 -0.000280981 -0.00011993)
(-0.0226576 -0.000280573 -0.000323381)
(-0.0212555 -0.00046365 -0.000213362)
(-0.0229916 -0.000487622 -0.000342894)
(-0.0210649 -0.00105962 0.000226787)
(-0.0228079 -0.0011404 0.000331796)
(-0.0190261 -0.00285148 0.00197665)
)
;
    }
}


// ************************************************************************* //
