/*--------------------------------*- C++ -*----------------------------------*\
| =========                 |                                                 |
| \\      /  F ield         | OpenFOAM: The Open Source CFD Toolbox           |
|  \\    /   O peration     | Version:  4.x                                   |
|   \\  /    A nd           | Web:      www.OpenFOAM.org                      |
|    \\/     M anipulation  |                                                 |
\*---------------------------------------------------------------------------*/
FoamFile
{
    version     2.0;
    format      ascii;
    class       volVectorField;
    location    "16";
    object      Us;
}
// * * * * * * * * * * * * * * * * * * * * * * * * * * * * * * * * * * * * * //

dimensions      [0 1 -1 0 0 0 0];

internalField   nonuniform List<vector> 
108
(
(-1.57251e-06 -2.353e-08 2.71659e-07)
(-1.81624e-06 9.99018e-08 4.12664e-07)
(-2.18936e-06 6.56622e-07 4.63753e-07)
(-2.05551e-06 1.75619e-07 3.69485e-07)
(-2.04795e-06 1.34216e-07 2.8175e-07)
(-2.24149e-06 -4.47425e-08 1.3371e-07)
(-1.62676e-06 -4.7125e-08 2.67718e-07)
(-9.89917e-07 -1.22773e-07 8.28228e-08)
(-2.68012e-07 3.21388e-09 6.4005e-08)
(-1.54661e-06 -6.72743e-08 1.80039e-07)
(-1.81967e-06 -1.38421e-08 3.2143e-07)
(-1.81098e-06 1.25046e-07 3.1923e-07)
(-2.06643e-06 -7.85844e-08 3.11428e-07)
(-2.18003e-06 3.53334e-08 2.23188e-07)
(-2.3447e-06 -9.11149e-08 4.32714e-08)
(-1.74725e-06 -8.98957e-08 2.38512e-07)
(-1.29452e-06 -4.37153e-08 2.9175e-07)
(-5.51479e-07 -4.2455e-10 1.45516e-07)
(-1.31407e-06 1.90623e-08 8.59081e-08)
(-1.44928e-06 1.35279e-08 2.25311e-07)
(-1.57681e-06 1.83119e-07 2.55942e-07)
(-1.62593e-06 -9.67681e-08 2.05633e-07)
(-2.40442e-06 8.94202e-08 4.44493e-07)
(-2.17124e-06 -9.10232e-08 1.22734e-08)
(-1.94748e-06 -2.64781e-07 1.10875e-08)
(-1.23919e-06 -5.18491e-07 1.86837e-07)
(-2.29893e-07 -1.13616e-07 -5.61719e-08)
(-6.72736e-07 -1.19123e-07 2.76397e-08)
(-1.00518e-06 -5.50788e-08 1.19809e-07)
(-9.87718e-07 1.05864e-06 9.49322e-08)
(-8.84318e-07 -5.85347e-08 3.98238e-08)
(-2.80636e-06 2.97224e-07 8.65271e-07)
(-1.91365e-06 -3.16106e-08 2.04339e-07)
(-5.6681e-07 -2.39504e-07 -1.52614e-07)
(-2.51059e-07 -1.84082e-07 2.57838e-08)
(-1.86215e-07 3.1188e-06 -2.11427e-07)
(-1.59423e-06 5.71422e-08 3.21926e-07)
(-1.72026e-06 1.00931e-07 3.78104e-07)
(-1.83541e-06 1.54429e-07 3.95147e-07)
(-1.86833e-06 9.98271e-08 3.34913e-07)
(-1.85563e-06 8.86969e-08 2.61156e-07)
(-1.86147e-06 -1.7307e-08 1.28078e-07)
(-1.31758e-06 -2.42977e-09 7.92116e-08)
(-6.68234e-07 -5.34128e-08 -4.05924e-08)
(-2.00633e-07 -3.8997e-08 1.75615e-08)
(-1.46375e-06 -2.72019e-08 2.02683e-07)
(-1.70611e-06 1.21067e-07 3.06991e-07)
(-1.76745e-06 1.53639e-07 3.19156e-07)
(-1.83633e-06 4.63791e-08 3.32206e-07)
(-1.92609e-06 -3.92352e-08 2.15792e-07)
(-1.98969e-06 -8.15911e-08 2.10441e-08)
(-1.58606e-06 -2.37218e-07 1.00435e-07)
(-8.403e-07 -6.93437e-08 6.6641e-08)
(-2.37368e-07 -7.76195e-08 5.43253e-09)
(-1.28957e-06 -1.17449e-07 7.81085e-08)
(-1.39035e-06 1.12465e-07 2.15528e-07)
(-1.45103e-06 1.89243e-07 2.12066e-07)
(-1.46081e-06 -2.62449e-08 1.9465e-07)
(-1.71507e-06 2.90074e-08 1.93045e-07)
(-2.0646e-06 6.09736e-09 4.25461e-08)
(-1.457e-06 -1.38088e-07 4.48173e-09)
(-7.20242e-07 -1.09142e-07 8.17467e-08)
(-2.81658e-07 -1.02891e-07 -6.50648e-08)
(-8.17171e-07 -6.74744e-08 -4.34562e-08)
(-1.15221e-06 3.91507e-08 4.24201e-08)
(-8.03293e-07 9.49757e-08 6.84958e-08)
(-8.2689e-07 -6.52231e-10 4.08817e-08)
(-9.03946e-07 -7.61939e-09 6.36083e-08)
(-1.03203e-06 -3.43191e-08 1.65102e-08)
(-6.39596e-07 -1.16165e-07 -7.71555e-08)
(-3.38461e-07 -1.12148e-07 -3.55277e-08)
(-1.35033e-07 -3.422e-08 -1.40473e-07)
(-1.4295e-06 7.96616e-08 2.62232e-07)
(-1.55048e-06 1.36637e-07 3.38141e-07)
(-1.62346e-06 1.7039e-07 2.95648e-07)
(-1.65427e-06 9.14762e-08 2.61119e-07)
(-1.6247e-06 8.81454e-09 1.76593e-07)
(-1.56879e-06 -3.64772e-08 6.32206e-08)
(-1.13563e-06 1.71242e-08 -5.95081e-10)
(-5.614e-07 3.07794e-08 -8.69214e-08)
(-2.76007e-07 1.09666e-08 -6.43056e-08)
(-1.36903e-06 7.47293e-08 1.81971e-07)
(-1.53082e-06 1.68512e-07 2.94477e-07)
(-1.54638e-06 1.56075e-07 2.33314e-07)
(-1.59384e-06 6.11964e-08 2.30741e-07)
(-1.60749e-06 2.79415e-08 1.63163e-07)
(-1.5896e-06 -1.3091e-07 -2.33201e-08)
(-1.1417e-06 -2.08776e-08 -6.52382e-08)
(-7.42144e-07 -2.08226e-08 -7.26821e-08)
(-3.78563e-07 1.38997e-08 -7.92089e-08)
(-1.24558e-06 1.29947e-07 1.36942e-07)
(-1.29304e-06 2.05707e-07 2.44926e-07)
(-1.3494e-06 1.48898e-07 1.7772e-07)
(-1.34988e-06 8.96319e-08 1.70722e-07)
(-1.44567e-06 1.47832e-08 1.53867e-07)
(-1.52024e-06 -1.59903e-07 4.14898e-09)
(-1.33197e-06 -1.10993e-07 -7.88567e-08)
(-5.6948e-07 8.72144e-09 -5.56431e-08)
(-2.06341e-07 -2.49565e-08 -3.42031e-08)
(-7.97824e-07 1.15575e-07 -5.90055e-08)
(-8.39319e-07 1.13248e-07 3.70742e-09)
(-8.66276e-07 1.31571e-07 4.72942e-08)
(-7.93965e-07 -5.72074e-09 1.96601e-08)
(-9.9213e-07 4.56619e-08 6.94199e-08)
(-9.4859e-07 -7.29688e-08 -1.41369e-08)
(-6.50508e-07 -5.89114e-08 -1.23448e-07)
(-2.94468e-07 -1.18572e-07 5.87068e-09)
(-1.01355e-07 -4.21784e-08 -5.77233e-08)
)
;

boundaryField
{
    inlet
    {
        type            zeroGradient;
    }
    outlet
    {
        type            zeroGradient;
    }
    wall
    {
        type            zeroGradient;
    }
    procBoundary3to1
    {
        type            processor;
        value           nonuniform List<vector> 
27
(
(-1.77028e-06 1.23522e-07 4.17717e-07)
(-2.03333e-06 2.56173e-07 4.3843e-07)
(-2.40042e-06 6.48039e-07 3.12584e-07)
(-1.90648e-06 2.30121e-07 2.30166e-07)
(-1.89522e-06 2.11066e-07 1.68648e-07)
(-1.82755e-06 1.0584e-07 2.09139e-07)
(-1.31807e-06 6.90608e-08 2.49519e-07)
(-4.46739e-07 2.80888e-07 4.39411e-08)
(-1.33928e-07 1.15388e-07 4.82004e-10)
(-1.57792e-06 9.51124e-08 3.58576e-07)
(-1.74518e-06 1.5299e-07 3.79858e-07)
(-1.76941e-06 1.40948e-07 2.80117e-07)
(-1.69468e-06 1.62838e-07 1.763e-07)
(-1.80328e-06 2.12487e-07 1.42629e-07)
(-1.59776e-06 1.64446e-07 5.27959e-08)
(-1.0716e-06 7.78223e-08 7.97707e-08)
(-6.1331e-07 6.50607e-08 -1.05933e-07)
(-1.37642e-07 9.52142e-09 7.83127e-09)
(-1.39155e-06 6.7773e-08 2.90817e-07)
(-1.47772e-06 1.03424e-07 2.92244e-07)
(-1.43177e-06 1.89494e-07 2.14805e-07)
(-1.42143e-06 1.06448e-07 1.8353e-07)
(-1.54383e-06 1.3562e-07 1.52025e-07)
(-1.48594e-06 1.05908e-07 5.95428e-08)
(-8.04312e-07 4.51508e-08 -9.86637e-08)
(-5.30208e-07 2.5539e-08 -1.24945e-07)
(-2.37983e-07 -2.21658e-08 -2.95494e-08)
)
;
    }
    procBoundary3to2
    {
        type            processor;
        value           nonuniform List<vector> 
12
(
(-1.43117e-06 -1.77896e-07 1.61968e-07)
(-1.34326e-06 -1.95719e-07 8.48777e-08)
(-1.13336e-06 -1.39179e-07 -5.42515e-08)
(-7.72991e-07 3.60566e-08 -4.86365e-08)
(-1.32178e-06 -1.00093e-07 1.89256e-07)
(-1.3489e-06 -1.35076e-07 1.22014e-07)
(-1.16382e-06 -1.15983e-07 -1.58031e-08)
(-4.93354e-07 -2.09242e-08 -8.44603e-08)
(-1.27292e-06 -8.65961e-08 1.84335e-07)
(-1.18721e-06 -1.13156e-07 1.16884e-07)
(-1.05159e-06 -8.17865e-08 2.70543e-08)
(-6.33774e-07 -9.03954e-08 -6.0886e-08)
)
;
    }
    procBoundary3to7
    {
        type            processor;
        value           nonuniform List<vector> 
36
(
(-1.18328e-06 3.2411e-08 1.93264e-07)
(-1.32299e-06 9.63755e-08 2.29147e-07)
(-1.3568e-06 1.02999e-07 2.3582e-07)
(-1.4028e-06 5.05561e-08 1.97169e-07)
(-1.3986e-06 6.02547e-08 1.20848e-07)
(-1.50877e-06 8.81888e-08 6.86736e-08)
(-9.66458e-07 1.45841e-08 -6.25316e-08)
(-5.84682e-07 2.73338e-08 -8.45806e-08)
(-2.05234e-07 4.4736e-08 -9.3997e-08)
(-1.13972e-06 1.08973e-07 1.5071e-07)
(-1.297e-06 1.22428e-07 2.13504e-07)
(-1.31443e-06 1.33815e-07 1.76266e-07)
(-1.38442e-06 5.48358e-08 1.77391e-07)
(-1.35231e-06 5.00275e-08 9.88208e-08)
(-1.35171e-06 -1.44545e-08 7.73873e-09)
(-1.0437e-06 -6.55595e-08 -6.04774e-08)
(-7.15313e-07 -3.54879e-08 -1.0079e-07)
(-3.40038e-07 1.94515e-08 -9.38688e-08)
(-9.48229e-07 -2.18943e-08 8.83952e-08)
(-1.15255e-06 1.36511e-07 1.59619e-07)
(-1.1398e-06 1.01348e-07 1.35355e-07)
(-1.14575e-06 6.58483e-08 1.20978e-07)
(-1.23389e-06 6.28795e-08 8.73446e-08)
(-1.17236e-06 -1.24008e-07 -4.3793e-08)
(-1.00014e-06 -8.34549e-08 -1.60364e-07)
(-6.51037e-07 -1.14934e-07 -5.77123e-08)
(-1.20798e-06 -4.65344e-07 -5.75299e-08)
(-6.68621e-07 -1.72111e-08 -1.37744e-08)
(-7.88158e-07 1.07745e-07 -6.41609e-08)
(-7.03866e-07 1.23466e-08 4.39133e-08)
(-7.47638e-07 6.36011e-08 3.16118e-08)
(-7.83964e-07 4.51839e-08 1.92114e-08)
(-9.16447e-07 3.04525e-08 -1.14242e-07)
(-6.22832e-07 -1.00473e-07 -7.39486e-08)
(-3.41913e-07 -7.16189e-08 -1.9338e-08)
(-5.7075e-07 -2.08228e-07 -5.92785e-08)
)
;
    }
}


// ************************************************************************* //
