/*--------------------------------*- C++ -*----------------------------------*\
| =========                 |                                                 |
| \\      /  F ield         | OpenFOAM: The Open Source CFD Toolbox           |
|  \\    /   O peration     | Version:  4.x                                   |
|   \\  /    A nd           | Web:      www.OpenFOAM.org                      |
|    \\/     M anipulation  |                                                 |
\*---------------------------------------------------------------------------*/
FoamFile
{
    version     2.0;
    format      ascii;
    class       volScalarField;
    location    "35";
    object      particleRelTemp;
}
// * * * * * * * * * * * * * * * * * * * * * * * * * * * * * * * * * * * * * //

dimensions      [0 0 0 0 0 0 0];

internalField   nonuniform List<scalar> 
87
(
-3.35363e-10
-3.2241e-10
-2.12989e-10
-1.95798e-10
-1.94233e-10
-1.7399e-11
-7.3304e-12
5.02047e-11
1.72764e-10
-1.5259e-10
-1.12916e-10
-7.29132e-11
3.55165e-11
5.63872e-11
1.22169e-10
2.09759e-10
2.47013e-10
3.2596e-10
-6.70677e-12
2.4874e-11
8.93765e-11
2.12271e-10
2.69186e-10
3.0634e-10
4.03966e-10
4.18868e-10
5.42608e-10
-1.92399e-10
-1.11633e-10
-5.11931e-11
2.18892e-11
1.26914e-10
2.18806e-10
2.65865e-10
3.65995e-10
4.18564e-10
-9.53989e-11
3.81203e-11
1.41989e-10
1.80456e-10
3.28992e-10
4.76272e-10
4.7268e-10
6.2158e-10
7.79769e-10
1.65056e-10
1.82788e-10
2.92735e-10
3.65682e-10
5.19507e-10
6.04462e-10
6.68756e-10
8.28807e-10
9.55412e-10
-3.96419e-11
2.00844e-11
1.7988e-10
2.82567e-10
3.83111e-10
5.15857e-10
6.07256e-10
6.24083e-10
7.0868e-10
1.49193e-10
2.43369e-10
3.46163e-10
4.53906e-10
5.99124e-10
6.93729e-10
8.19205e-10
9.10641e-10
1.03702e-09
2.60768e-10
4.50555e-10
5.12318e-10
6.85661e-10
7.98551e-10
9.21716e-10
1.02856e-09
1.15179e-09
1.1925e-09
3.23518e-11
1.31008e-10
2.50644e-10
2.10253e-10
3.58348e-10
3.6711e-10
)
;

boundaryField
{
    inlet
    {
        type            calculated;
        value           nonuniform 0();
    }
    outlet
    {
        type            calculated;
        value           nonuniform List<scalar> 9(1.72764e-10 3.2596e-10 5.42608e-10 4.18564e-10 7.79769e-10 9.55412e-10 7.0868e-10 1.03702e-09 1.1925e-09);
    }
    wall
    {
        type            calculated;
        value           nonuniform List<scalar> 
57
(
-3.35363e-10
-1.5259e-10
-6.70677e-12
-3.2241e-10
-1.12916e-10
2.4874e-11
-2.12989e-10
-7.29132e-11
8.93765e-11
-1.95798e-10
3.55165e-11
2.12271e-10
-1.94233e-10
5.63872e-11
2.69186e-10
-1.7399e-11
1.22169e-10
3.0634e-10
-7.3304e-12
2.09759e-10
4.03966e-10
5.02047e-11
2.47013e-10
4.18868e-10
1.72764e-10
3.2596e-10
5.42608e-10
-3.35363e-10
-1.92399e-10
-3.96419e-11
3.23518e-11
-3.2241e-10
-1.11633e-10
2.00844e-11
1.31008e-10
-2.12989e-10
-5.11931e-11
1.7988e-10
2.50644e-10
-1.95798e-10
2.18892e-11
2.82567e-10
-1.94233e-10
1.26914e-10
3.83111e-10
-1.7399e-11
2.18806e-10
5.15857e-10
-7.3304e-12
2.65865e-10
6.07256e-10
5.02047e-11
3.65995e-10
6.24083e-10
1.72764e-10
4.18564e-10
7.0868e-10
)
;
    }
    procBoundary1to0
    {
        type            processor;
        value           nonuniform List<scalar> 
12
(
-4.40711e-10
-2.38038e-10
-1.62214e-10
-2.82039e-10
-1.11264e-10
1.25887e-11
-1.3804e-10
1.67908e-11
1.35297e-10
-7.38606e-11
1.02782e-10
2.15488e-10
)
;
    }
    procBoundary1to3
    {
        type            processor;
        value           nonuniform List<scalar> 
27
(
-1.99379e-11
6.5192e-11
1.71515e-10
2.59197e-10
3.07701e-10
4.17722e-10
4.9306e-10
5.76302e-10
7.12209e-10
1.50011e-10
3.31619e-10
3.62546e-10
4.89465e-10
5.7979e-10
6.29155e-10
7.85173e-10
8.83713e-10
9.38395e-10
3.69998e-10
4.75788e-10
6.29985e-10
6.93102e-10
8.05396e-10
9.48511e-10
1.0411e-09
1.20505e-09
1.24275e-09
)
;
    }
    procBoundary1to5
    {
        type            processor;
        value           nonuniform List<scalar> 
32
(
3.66487e-10
4.78071e-10
5.59404e-10
6.77599e-10
7.52986e-10
8.53014e-10
4.93578e-10
5.61375e-10
7.25346e-10
8.2589e-10
9.28632e-10
9.97866e-10
1.11691e-09
5.14272e-10
6.72167e-10
7.98777e-10
8.88083e-10
9.92814e-10
1.12292e-09
1.21002e-09
1.33398e-09
4.00258e-11
9.34298e-11
3.66487e-10
4.93578e-10
2.53797e-10
1.67642e-10
4.93578e-10
5.14272e-10
2.86026e-10
5.14272e-10
3.52858e-10
)
;
    }
    procBoundary1to7
    {
        type            processor;
        value           uniform 4.51151e-10;
    }
}


// ************************************************************************* //
