/*--------------------------------*- C++ -*----------------------------------*\
| =========                 |                                                 |
| \\      /  F ield         | OpenFOAM: The Open Source CFD Toolbox           |
|  \\    /   O peration     | Version:  4.x                                   |
|   \\  /    A nd           | Web:      www.OpenFOAM.org                      |
|    \\/     M anipulation  |                                                 |
\*---------------------------------------------------------------------------*/
FoamFile
{
    version     2.0;
    format      ascii;
    class       volScalarField;
    location    "35";
    object      QPartFluidCoeff;
}
// * * * * * * * * * * * * * * * * * * * * * * * * * * * * * * * * * * * * * //

dimensions      [1 -1 -3 -1 0 0 0];

internalField   nonuniform List<scalar> 
87
(
-1.43332e+07
-2.35327e+07
-1.3997e+07
-2.18582e+07
-1.45644e+07
-1.6288e+07
-1.747e+07
-2.19252e+07
-1.33977e+07
-1.51236e+07
-1.47774e+07
-1.94529e+07
-1.91622e+07
-1.4612e+07
-2.21046e+07
-2.53184e+07
-2.21108e+07
-1.29543e+07
-1.31654e+07
-2.36954e+07
-2.0796e+07
-2.98436e+07
-2.09522e+07
-1.9367e+07
-1.90203e+07
-2.08578e+07
-1.40797e+07
-2.47643e+07
-2.19832e+07
-2.04984e+07
-2.53194e+07
-2.12723e+07
-2.631e+07
-3.04539e+07
-3.03529e+07
-1.82591e+07
-3.0128e+07
-2.24405e+07
-2.53966e+07
-3.14478e+07
-3.07889e+07
-2.57674e+07
-3.15227e+07
-3.51867e+07
-1.56055e+07
-2.65618e+07
-2.83675e+07
-2.39928e+07
-2.27463e+07
-1.91945e+07
-3.0832e+07
-3.10086e+07
-4.35564e+07
-1.44513e+07
-2.37012e+07
-2.33522e+07
-2.73817e+07
-3.20679e+07
-2.03172e+07
-3.22677e+07
-2.54796e+07
-2.49957e+07
-1.06895e+07
-2.15137e+07
-2.94639e+07
-2.14537e+07
-2.69005e+07
-2.70955e+07
-3.01798e+07
-2.53488e+07
-3.1403e+07
-1.22591e+07
-3.15382e+07
-2.62901e+07
-1.83419e+07
-3.71307e+07
-2.95706e+07
-3.55058e+07
-2.48733e+07
-3.21966e+07
-1.1235e+07
-2.16808e+07
-1.85219e+07
-2.56718e+07
-2.62059e+07
-4.06229e+07
-1.95454e+07
)
;

boundaryField
{
    inlet
    {
        type            calculated;
        value           nonuniform 0();
    }
    outlet
    {
        type            calculated;
        value           uniform 0;
    }
    wall
    {
        type            calculated;
        value           uniform 0;
    }
    procBoundary1to0
    {
        type            processor;
        value           nonuniform List<scalar> 
12
(
152.57
396.876
644.524
548.916
679.625
480.579
409.191
766.463
406.959
457.201
523.765
704.72
)
;
    }
    procBoundary1to3
    {
        type            processor;
        value           nonuniform List<scalar> 
27
(
638.692
290.783
505.731
244.441
373.459
285.305
417.142
393.059
213.985
642.089
608.491
768.491
799.077
632.338
595.294
507.819
630.336
558.865
613.722
823.319
682.814
773.122
489.712
580.295
675.038
628.613
513.328
)
;
    }
    procBoundary1to5
    {
        type            processor;
        value           nonuniform List<scalar> 
32
(
597.08
556.086
535.313
433.374
597.746
441.275
548.115
531.018
444.793
620.374
632.726
759.047
487.638
751.359
463.124
658.298
443.426
400.843
563.493
472.224
508.836
502.685
431.04
597.08
548.115
572.645
613.023
548.115
751.359
623.373
751.359
643.416
)
;
    }
    procBoundary1to7
    {
        type            processor;
        value           uniform 752.636;
    }
}


// ************************************************************************* //
