/*--------------------------------*- C++ -*----------------------------------*\
| =========                 |                                                 |
| \\      /  F ield         | OpenFOAM: The Open Source CFD Toolbox           |
|  \\    /   O peration     | Version:  4.x                                   |
|   \\  /    A nd           | Web:      www.OpenFOAM.org                      |
|    \\/     M anipulation  |                                                 |
\*---------------------------------------------------------------------------*/
FoamFile
{
    version     2.0;
    format      ascii;
    class       volVectorField;
    location    "58";
    object      impParticleForces;
}
// * * * * * * * * * * * * * * * * * * * * * * * * * * * * * * * * * * * * * //

dimensions      [1 1 -2 0 0 0 0];

internalField   nonuniform List<vector> 
87
(
(0.00241737 -7.48173e-06 -4.26483e-05)
(0.00246026 -4.31859e-06 -3.83467e-05)
(0.00246385 -1.79277e-06 -3.44836e-05)
(0.00250875 2.6714e-07 -3.24491e-05)
(0.00246458 6.8324e-07 -3.15564e-05)
(0.00246492 -2.23208e-07 -3.18457e-05)
(0.00245393 -2.51891e-06 -3.79499e-05)
(0.0024388 -6.89725e-06 -4.13109e-05)
(0.00231481 -1.63552e-05 -5.7683e-05)
(0.00246719 -7.81372e-06 -4.33436e-05)
(0.00249382 -5.04495e-06 -3.82764e-05)
(0.00250281 -2.99336e-06 -3.43951e-05)
(0.00253503 -9.79989e-07 -3.12538e-05)
(0.00249969 -1.27219e-06 -3.00294e-05)
(0.0025116 -1.08544e-06 -2.96101e-05)
(0.00248582 -4.71312e-06 -3.60105e-05)
(0.00248674 -4.64762e-06 -3.95168e-05)
(0.00233566 -2.05209e-05 -6.30046e-05)
(0.00247556 -5.81366e-06 -4.24458e-05)
(0.00251222 -3.52877e-06 -3.71731e-05)
(0.00249803 -1.95829e-06 -3.22283e-05)
(0.00253248 -8.18903e-07 -2.84564e-05)
(0.00249079 -1.10347e-06 -2.67013e-05)
(0.00249946 -1.54171e-06 -2.64204e-05)
(0.00245801 -4.20245e-06 -3.41631e-05)
(0.00245118 -5.00196e-06 -3.88909e-05)
(0.00232362 -1.29519e-05 -6.35753e-05)
(0.00245684 -7.50535e-06 -4.21442e-05)
(0.00247238 -4.20989e-06 -3.6948e-05)
(0.00247868 -1.22701e-06 -3.27555e-05)
(0.00251171 7.17879e-07 -2.96295e-05)
(0.0024764 1.33442e-06 -2.7776e-05)
(0.00248391 7.11598e-07 -2.72486e-05)
(0.00245868 -1.52529e-06 -3.12603e-05)
(0.00243137 -6.1997e-06 -3.41718e-05)
(0.00230381 -1.41501e-05 -4.95603e-05)
(0.00250496 -7.93956e-06 -4.2522e-05)
(0.0025135 -4.8023e-06 -3.66578e-05)
(0.00251034 -2.30898e-06 -3.20347e-05)
(0.00255554 -1.5666e-07 -2.86108e-05)
(0.00252416 1.84689e-07 -2.61981e-05)
(0.00252682 7.94348e-07 -2.45458e-05)
(0.00249638 -2.55928e-06 -2.95272e-05)
(0.00248629 -3.1262e-06 -3.33788e-05)
(0.00232581 -1.69536e-05 -5.45219e-05)
(0.0024957 -5.89581e-06 -4.1181e-05)
(0.00252675 -3.54483e-06 -3.51733e-05)
(0.00250458 -1.95266e-06 -3.02198e-05)
(0.0025281 -6.74418e-07 -2.59496e-05)
(0.00249053 -7.1564e-07 -2.34061e-05)
(0.00251254 -1.19466e-06 -2.2377e-05)
(0.00247466 -3.04866e-06 -2.74871e-05)
(0.00247205 -5.65581e-06 -3.28523e-05)
(0.00232791 -1.05834e-05 -5.796e-05)
(0.00242767 -7.41962e-06 -3.84687e-05)
(0.00245759 -3.9811e-06 -3.37333e-05)
(0.0024576 -1.06469e-06 -2.94247e-05)
(0.00248872 1.06678e-06 -2.5822e-05)
(0.00244026 7.97233e-07 -2.19185e-05)
(0.00244799 2.31501e-07 -1.9772e-05)
(0.0023992 -2.75025e-06 -2.10382e-05)
(0.00237783 -6.35418e-06 -1.82883e-05)
(0.00226147 -1.44375e-05 -2.86316e-05)
(0.00246288 -7.73012e-06 -3.83812e-05)
(0.00249354 -4.52832e-06 -3.31957e-05)
(0.00247189 -2.28425e-06 -2.82134e-05)
(0.00251035 -1.44713e-08 -2.38998e-05)
(0.00247422 -2.87085e-07 -2.10654e-05)
(0.00248453 3.12562e-07 -1.80799e-05)
(0.0024274 -3.34695e-06 -1.99208e-05)
(0.00241292 -4.33178e-06 -2.04672e-05)
(0.00228295 -1.58751e-05 -3.39762e-05)
(0.0024554 -6.0631e-06 -3.7079e-05)
(0.00248908 -3.75938e-06 -3.13084e-05)
(0.00246127 -2.11724e-06 -2.64771e-05)
(0.00250604 -4.69372e-07 -2.22357e-05)
(0.00246173 -6.77624e-07 -1.93267e-05)
(0.00247705 -4.36448e-07 -1.6855e-05)
(0.00241632 -2.24616e-06 -1.87584e-05)
(0.00239782 -2.65469e-06 -2.1839e-05)
(0.00228662 -1.04254e-05 -3.69641e-05)
(0.00239921 -8.09888e-06 -3.09118e-05)
(0.00240703 -4.70084e-06 -2.55117e-05)
(0.00240376 -2.06489e-06 -2.09106e-05)
(0.00243336 -7.77672e-06 -3.11306e-05)
(0.00246823 -4.30042e-06 -2.61595e-05)
(0.00241648 -5.99848e-06 -3.05245e-05)
)
;

boundaryField
{
    inlet
    {
        type            zeroGradient;
    }
    outlet
    {
        type            zeroGradient;
    }
    wall
    {
        type            zeroGradient;
    }
    procBoundary1to0
    {
        type            processor;
        value           nonuniform List<vector> 
12
(
(0.00243119 -1.1001e-05 -4.90393e-05)
(0.00247801 -1.10978e-05 -5.00521e-05)
(0.00249231 -8.19632e-06 -4.97536e-05)
(0.00246465 -1.13482e-05 -4.82084e-05)
(0.00251233 -1.15768e-05 -4.91094e-05)
(0.00249685 -8.24296e-06 -4.78593e-05)
(0.00243795 -1.14522e-05 -4.41141e-05)
(0.0024864 -1.14425e-05 -4.49512e-05)
(0.00245574 -8.34126e-06 -4.30398e-05)
(0.00242375 -1.18273e-05 -3.65879e-05)
(0.00245167 -1.10766e-05 -3.69421e-05)
(0.0024339 -8.2148e-06 -3.59321e-05)
)
;
    }
    procBoundary1to3
    {
        type            processor;
        value           nonuniform List<vector> 
27
(
(0.0024958 -3.78253e-06 -4.18595e-05)
(0.00248917 -2.35837e-06 -3.55577e-05)
(0.00249243 -1.57922e-06 -3.03939e-05)
(0.00248448 -8.41471e-07 -2.60822e-05)
(0.00246904 -1.25374e-06 -2.39974e-05)
(0.00245551 -3.46108e-07 -2.38093e-05)
(0.00242074 -1.38337e-06 -3.06861e-05)
(0.00237704 1.15353e-06 -3.98243e-05)
(0.00229361 3.12987e-07 -5.84379e-05)
(0.00249986 -3.49521e-06 -4.07463e-05)
(0.00252736 -2.1817e-06 -3.46789e-05)
(0.00251162 -1.37972e-06 -2.95916e-05)
(0.00252924 -7.50257e-07 -2.47459e-05)
(0.0024868 -3.96265e-07 -2.20497e-05)
(0.00248909 2.17655e-08 -2.01952e-05)
(0.00243702 6.65573e-07 -2.61259e-05)
(0.00242542 6.9127e-07 -3.19935e-05)
(0.00232434 7.11576e-07 -5.93981e-05)
(0.00245977 -3.60218e-06 -3.68241e-05)
(0.00250102 -2.60393e-06 -3.14225e-05)
(0.00246987 -1.72278e-06 -2.66031e-05)
(0.00249423 -1.00678e-06 -2.19617e-05)
(0.00244905 -2.51192e-07 -1.88649e-05)
(0.00246216 5.73452e-07 -1.60939e-05)
(0.00240545 1.51955e-06 -1.99121e-05)
(0.00237793 3.85379e-06 -2.4611e-05)
(0.00229402 2.3633e-06 -4.286e-05)
)
;
    }
    procBoundary1to5
    {
        type            processor;
        value           nonuniform List<vector> 
32
(
(0.00242471 7.80793e-08 -1.58331e-05)
(0.0023837 -6.69689e-07 -1.14099e-05)
(0.0023855 -1.9153e-06 -6.71375e-06)
(0.00232933 -5.95838e-06 -4.176e-06)
(0.00230726 -1.1105e-05 -1.26474e-06)
(0.00222541 -1.89695e-05 -2.98623e-06)
(0.0024273 -2.38077e-06 -2.0799e-05)
(0.00244474 -3.25827e-07 -1.59507e-05)
(0.00240502 -8.95833e-07 -1.14707e-05)
(0.0024196 -9.86509e-07 -6.28553e-06)
(0.00236221 -5.10039e-06 -4.98297e-06)
(0.00234552 -8.68988e-06 -2.18517e-06)
(0.00225382 -1.8341e-05 -7.37321e-06)
(0.00245076 -3.56374e-06 -2.55472e-05)
(0.00241451 -2.40352e-06 -2.06697e-05)
(0.00243985 -1.17293e-06 -1.60554e-05)
(0.00240229 -1.19655e-06 -1.2062e-05)
(0.0024014 -1.39454e-06 -8.00643e-06)
(0.00235175 -3.20968e-06 -6.61083e-06)
(0.00232258 -5.64693e-06 -6.5894e-06)
(0.00224856 -1.07181e-05 -1.15639e-05)
(0.00239271 -9.54978e-06 -2.24637e-05)
(0.00239973 -6.68587e-06 -1.72708e-05)
(0.00242471 7.80793e-08 -1.58331e-05)
(0.0024273 -2.38077e-06 -2.0799e-05)
(0.00239294 -4.34265e-06 -1.22954e-05)
(0.0024208 -9.1771e-06 -2.27665e-05)
(0.0024273 -2.38077e-06 -2.0799e-05)
(0.00245076 -3.56374e-06 -2.55472e-05)
(0.00243256 -6.4085e-06 -1.79588e-05)
(0.00245076 -3.56374e-06 -2.55472e-05)
(0.0023996 -7.06723e-06 -2.33004e-05)
)
;
    }
    procBoundary1to7
    {
        type            processor;
        value           uniform (0.00241855 -3.52827e-06 -3.09868e-05);
    }
}


// ************************************************************************* //
