/*--------------------------------*- C++ -*----------------------------------*\
| =========                 |                                                 |
| \\      /  F ield         | OpenFOAM: The Open Source CFD Toolbox           |
|  \\    /   O peration     | Version:  4.x                                   |
|   \\  /    A nd           | Web:      www.OpenFOAM.org                      |
|    \\/     M anipulation  |                                                 |
\*---------------------------------------------------------------------------*/
FoamFile
{
    version     2.0;
    format      ascii;
    class       volScalarField;
    location    "58";
    object      KslPrev;
}
// * * * * * * * * * * * * * * * * * * * * * * * * * * * * * * * * * * * * * //

dimensions      [1 -3 -1 0 0 0 0];

internalField   nonuniform List<scalar> 
87
(
3798.96
2511.91
3716.28
2392.35
3748.84
2113.31
4112.47
1685.21
6046.54
4458.28
2686.15
4396.95
2549.19
4512.55
2294.79
5065.46
1937.35
5841.08
5385
2968.35
5507.5
2870.85
5758.35
2646.93
6126.14
2197.08
6230.07
6031.24
3031.62
6111.11
2974.11
6506.11
2838.96
7947.44
2714.55
12326.5
11528
3395.78
12986.6
3284.14
15698.7
3043.5
16681.7
2791.52
9916.38
41635.7
3735.84
212783
3741.98
3.36233e+06
3837.1
41321.7
4076.26
6796.66
6394.65
3033.11
6748.7
2942.32
7480.44
2761.95
8934.98
2602.74
9352.01
12139.3
3351.58
12196.4
3196.42
12266.1
2983.19
11295.8
2708.9
7787.94
56741.2
3761.55
80314.8
3726.53
54090.3
3663.41
21632.8
3718.41
8092.54
8924.47
3367.61
13260.4
56782.4
3718.47
1e+10
)
;

boundaryField
{
    inlet
    {
        type            zeroGradient;
    }
    outlet
    {
        type            zeroGradient;
    }
    wall
    {
        type            zeroGradient;
    }
    procBoundary1to0
    {
        type            processor;
        value           uniform 0;
    }
    procBoundary1to3
    {
        type            processor;
        value           uniform 0;
    }
    procBoundary1to5
    {
        type            processor;
        value           uniform 0;
    }
    procBoundary1to7
    {
        type            processor;
        value           uniform 0;
    }
}


// ************************************************************************* //
