/*--------------------------------*- C++ -*----------------------------------*\
| =========                 |                                                 |
| \\      /  F ield         | OpenFOAM: The Open Source CFD Toolbox           |
|  \\    /   O peration     | Version:  4.x                                   |
|   \\  /    A nd           | Web:      www.OpenFOAM.org                      |
|    \\/     M anipulation  |                                                 |
\*---------------------------------------------------------------------------*/
FoamFile
{
    version     2.0;
    format      ascii;
    class       volScalarField;
    location    "58";
    object      QWallFluidCoeff;
}
// * * * * * * * * * * * * * * * * * * * * * * * * * * * * * * * * * * * * * //

dimensions      [1 -1 -3 -1 0 0 0];

internalField   nonuniform List<scalar> 
87
(
-5.39142e+06
-7.52813e+06
-5.5025e+06
-7.89442e+06
-5.43354e+06
-8.55984e+06
-4.98024e+06
-1.01165e+07
-3.48784e+06
-2.39049e+06
-3.60598e+06
-2.42343e+06
-3.77574e+06
-2.36374e+06
-4.05104e+06
-2.11815e+06
-4.59239e+06
-1.81652e+06
-2.04191e+06
-3.31201e+06
-2.00197e+06
-3.39785e+06
-1.92602e+06
-3.59776e+06
-1.80619e+06
-4.09787e+06
-1.71254e+06
-1.84019e+06
-3.20325e+06
-1.82588e+06
-3.26391e+06
-1.72143e+06
-3.32763e+06
-1.44037e+06
-3.38507e+06
-973197
0
0
0
0
0
0
0
0
0
0
0
0
0
0
0
0
0
0
-1.71114e+06
-3.13444e+06
-1.64017e+06
-3.2046e+06
-1.49592e+06
-3.30063e+06
-1.27272e+06
-3.4078e+06
-1.18622e+06
0
0
0
0
0
0
0
0
0
0
0
0
0
0
0
0
0
0
-1.28441e+06
-2.80319e+06
-926830
0
0
0
)
;

boundaryField
{
    inlet
    {
        type            calculated;
        value           nonuniform 0();
    }
    outlet
    {
        type            calculated;
        value           uniform 0;
    }
    wall
    {
        type            calculated;
        value           uniform 0;
    }
    procBoundary1to0
    {
        type            processor;
        value           uniform 0;
    }
    procBoundary1to3
    {
        type            processor;
        value           uniform 0;
    }
    procBoundary1to5
    {
        type            processor;
        value           uniform 0;
    }
    procBoundary1to7
    {
        type            processor;
        value           uniform 0;
    }
}


// ************************************************************************* //
