/*--------------------------------*- C++ -*----------------------------------*\
| =========                 |                                                 |
| \\      /  F ield         | OpenFOAM: The Open Source CFD Toolbox           |
|  \\    /   O peration     | Version:  4.x                                   |
|   \\  /    A nd           | Web:      www.OpenFOAM.org                      |
|    \\/     M anipulation  |                                                 |
\*---------------------------------------------------------------------------*/
FoamFile
{
    version     2.0;
    format      ascii;
    class       volVectorField;
    location    "13.5";
    object      GField;
}
// * * * * * * * * * * * * * * * * * * * * * * * * * * * * * * * * * * * * * //

dimensions      [1 -2 -1 0 0 0 0];

internalField   nonuniform List<vector> 
114
(
(111.952 2.22977 6.36322)
(57.019 -3.0024 4.49215)
(126.772 5.40035 11.5588)
(51.9515 -10.0242 -0.127153)
(158.876 12.6167 14.5755)
(32.0552 -45.2925 -37.0973)
(26.3901 -1.56894 -0.457324)
(94.2945 -0.841426 0.338424)
(30.9306 -3.55594 -3.32735)
(98.9771 3.53088 -1.60548)
(33.5829 -10.5079 -8.07654)
(97.4367 12.4511 -0.944623)
(34.6185 -52.4785 -25.2712)
(86.1338 -0.251847 10.8421)
(13.4619 -1.47223 -1.57566)
(91.1019 0.0363595 -10.4626)
(23.5424 -4.01301 -6.68702)
(89.8603 2.04895 -6.23557)
(12.9605 -5.13408 -5.75742)
(79.8851 7.61213 -1.23302)
(16.912 -11.3797 -11.0755)
(46.6087 -1.74675 0.00923384)
(96.1505 -0.422583 2.48663)
(46.4 -1.66589 2.40948)
(99.1426 1.96837 6.30254)
(41.4275 -2.46558 4.04114)
(100.78 6.02964 9.55372)
(31.1766 -4.95538 3.70248)
(90.5065 13.065 8.8073)
(15.08 -5.12506 -1.45528)
(4.68877 -0.355137 -0.0142195)
(79.5899 -0.889038 0.330802)
(3.6277 -0.458998 -0.247593)
(80.1377 2.8146 -0.527788)
(3.67594 -0.624633 -0.47814)
(76.0185 6.94293 0.36274)
(4.46943 -1.56722 -0.828344)
(62.1203 13.8283 1.82837)
(11.6949 -5.61084 -3.63273)
(5.89411 -0.674436 0.0526385)
(79.4168 -1.42396 2.69768)
(9.98663 -1.57249 -0.178861)
(77.7485 0.861104 -0.291831)
(2.12392 -0.555874 -0.172976)
(71.4109 3.22813 -2.49995)
(4.62549 -1.4285 -0.776157)
(63.1441 7.85412 -4.0025)
(23.092 -3.8668 -6.29843)
(5.56022 2.01469 0.0619669)
(75.2318 2.1107 1.0513)
(52.5936 -1.46163 1.44654)
(100.842 -0.179831 2.74593)
(53.6016 -2.36301 3.62562)
(109.181 1.91982 4.38104)
(54.599 -4.84061 8.293)
(123.802 5.71688 6.45344)
(51.0962 -12.4206 19.7009)
(150.511 13.581 1.22953)
(30.3053 -45.2678 42.6995)
(22.2159 -0.709088 1.06159)
(87.3117 -1.2353 1.82539)
(20.3552 -1.1372 0.891881)
(89.8022 0.271601 -0.769421)
(21.7184 -2.87652 1.27505)
(92.8092 4.07041 -2.07808)
(25.7585 -9.47948 5.18935)
(91.8477 12.9161 -5.84421)
(33.4968 -48.0981 19.1528)
(20.6863 -1.83332 1.09108)
(86.4775 -0.661866 1.75945)
(20.5221 -2.78023 1.67391)
(88.288 -1.8225 -2.01838)
(17.9736 -4.65452 1.50794)
(89.1858 1.45832 -5.392)
(17.404 -7.97442 4.07974)
(83.8641 7.6672 -12.0504)
(20.9545 -15.8839 8.86977)
(11.6619 -0.488928 1.14201)
(76.6174 -1.40279 2.50888)
(9.50461 -0.571552 0.837667)
(74.0754 -0.255673 -1.67284)
(63.4682 -1.58806 -0.110163)
(107.447 -0.330862 0.949387)
(66.9827 -2.01944 -0.532856)
(116.724 1.63235 0.772134)
(68.1099 -4.62403 -0.667024)
(136.397 4.5313 0.524063)
(65.9067 -14.321 1.45174)
(190.461 9.37387 0.000500056)
(46.4104 -66.7637 -0.393878)
(58.2452 -1.52693 0.206678)
(101.016 -1.51695 0.851385)
(60.64 -2.33103 -0.325305)
(106.002 0.033312 -0.39679)
(60.5201 -5.44453 -1.34852)
(111.083 1.85392 -2.08936)
(58.5225 -16.8939 -1.51106)
(115.468 8.52915 -3.13448)
(51.605 -74.3774 2.91111)
(52.246 -2.89472 0.10819)
(97.4045 -2 1.14249)
(53.1839 -4.53602 -0.46073)
(100.735 -1.63359 0.627525)
(51.601 -7.5436 -1.3819)
(102.699 -0.163439 -1.18001)
(45.0727 -12.4079 -1.79867)
(100.586 4.53745 -1.76763)
(30.4916 -18.0939 -0.526629)
(49.116 -0.803815 1.31904)
(92.8486 -1.48332 0.882751)
(49.0593 -2.48923 1.08044)
(92.1812 -1.99357 1.48703)
(46.1 -4.90822 1.51526)
(88.2971 -0.6595 -0.704153)
)
;

boundaryField
{
    inlet
    {
        type            calculated;
        value           nonuniform 0();
    }
    outlet
    {
        type            calculated;
        value           nonuniform List<vector> 
12
(
(70.3591 -99.4142 -81.4261)
(76.0717 -115.318 -55.5317)
(37.3019 -25.0997 -24.4287)
(33.1192 -11.2558 -3.19614)
(25.8117 -12.3837 -8.01779)
(51.0239 -8.54404 -13.9169)
(66.669 -99.5852 93.9353)
(73.8134 -105.989 42.205)
(46.7163 -35.4118 19.7745)
(100.919 -145.178 -0.856488)
(113.64 -163.787 6.41056)
(67.577 -40.1006 -1.16714)
)
;
    }
    wall
    {
        type            calculated;
        value           uniform (0 0 0);
    }
    procBoundary5to1
    {
        type            processor;
        value           nonuniform List<vector> 
32
(
(110.545 -1.21135 11.4669)
(58.9757 -3.82822 10.0644)
(122.284 3.00373 16.1717)
(53.7175 -9.85474 12.7623)
(155.918 11.3126 17.2399)
(30.9014 -39.6987 -2.13727)
(21.3094 -0.547918 1.87555)
(92.113 7.89594 4.23454)
(24.3379 -0.384597 0.776007)
(95.7665 5.70319 2.40244)
(32.8898 -8.27332 -0.485217)
(96.9435 12.5381 0.932648)
(44.3146 -52.3038 -9.7274)
(76.8762 -0.0758325 3.8614)
(-33.8689 -2.84643 4.47435)
(79.9233 1.12785 14.036)
(1.35874 -0.183099 -0.204499)
(84.9343 0.789092 -13.9425)
(12.605 -2.04963 -3.40852)
(75.8331 3.57541 -10.2105)
(20.5277 -3.41213 -7.21716)
(54.3046 -1.30284 0.254273)
(104.574 0.192138 3.14352)
(55.6094 -0.53827 2.53085)
(55.6094 -0.53827 2.53085)
(55.6094 -0.53827 2.53085)
(24.6873 -1.00682 -0.075727)
(89.2363 -2.09477 1.61229)
(89.2363 -2.09477 1.61229)
(89.2363 -2.09477 1.61229)
(16.3085 -1.4522 1.16808)
(16.3085 -1.4522 1.16808)
)
;
    }
    procBoundary5to4
    {
        type            processor;
        value           nonuniform List<vector> 
12
(
(93.6026 -2.95963 -0.616606)
(80.0826 -0.751439 0.519184)
(80.0049 -1.40687 1.60381)
(76.6451 20.748 1.75051)
(96.927 -2.0765 2.22493)
(85.4965 -2.09239 4.45286)
(85.0335 -0.7686 2.31724)
(78.6105 -0.91142 4.7491)
(101.439 -1.3444 0.864419)
(96.8602 -1.85494 2.06238)
(95.2802 -1.86766 1.80048)
(91.8048 -0.271474 1.52237)
)
;
    }
    procBoundary5to7
    {
        type            processor;
        value           nonuniform List<vector> 
44
(
(82.4694 0.0521845 -0.898289)
(14.3449 0.140479 -1.86095)
(81.4636 0.95727 -0.571465)
(13.4532 0.301296 -3.30113)
(75.4065 0.219171 -0.586851)
(14.049 0.259374 -6.19607)
(64.7977 -1.1515 2.158)
(22.4245 1.99368 -14.1227)
(15.6105 -0.393538 -0.887159)
(82.4694 0.0521845 -0.898289)
(-0.00730374 -0.000134957 -0.000581697)
(71.9931 0.194202 -2.20194)
(1.34475 -0.0237456 -0.304894)
(69.5754 1.03873 -1.95701)
(6.97409 -0.396538 -2.15248)
(62.8258 2.97799 0.425221)
(25.1907 -0.31038 -9.3782)
(-8.5873 0.353074 -0.352892)
(-0.00730374 -0.000134957 -0.000581697)
(68.3484 -0.451881 -0.194159)
(-0.00730374 -0.000134957 -0.000581697)
(71.9931 0.194202 -2.20194)
(0.377686 -0.0478825 0.0432136)
(68.8066 0.665793 -4.03341)
(-0.00471217 6.10105e-05 -0.000546684)
(56.7168 3.85699 -7.48777)
(14.5287 -2.58724 -0.116685)
(16.7366 0.62139 -6.09154)
(81.7939 -0.0657462 -2.91863)
(10.0439 0.702994 -0.859943)
(0.377686 -0.0478825 0.0432136)
(83.4437 1.83709 -3.86564)
(0.377686 -0.0478825 0.0432136)
(68.8066 0.665793 -4.03341)
(40.8357 -9.56076 1.53722)
(79.8393 6.60522 -2.55187)
(35.8966 -15.4885 1.36975)
(38.7689 0.163496 0.460147)
(88.4665 -0.368609 1.58155)
(33.3961 0.0345736 -0.848726)
(86.6826 -0.884425 -0.149846)
(25.1024 0.257691 -1.87148)
(40.8357 -9.56076 1.53722)
(81.4085 -1.8783 -0.995573)
)
;
    }
}


// ************************************************************************* //
