/*--------------------------------*- C++ -*----------------------------------*\
| =========                 |                                                 |
| \\      /  F ield         | OpenFOAM: The Open Source CFD Toolbox           |
|  \\    /   O peration     | Version:  4.x                                   |
|   \\  /    A nd           | Web:      www.OpenFOAM.org                      |
|    \\/     M anipulation  |                                                 |
\*---------------------------------------------------------------------------*/
FoamFile
{
    version     2.0;
    format      ascii;
    class       volScalarField;
    location    "13.5";
    object      KslNext;
}
// * * * * * * * * * * * * * * * * * * * * * * * * * * * * * * * * * * * * * //

dimensions      [1 -3 -1 0 0 0 0];

internalField   nonuniform List<scalar> 
114
(
2976.13
5747.2
2612.73
6166.31
2043.82
4674.96
12470.7
3541.24
10537.7
3359.23
9012.02
3301.98
4603.68
3779.37
23827.4
3573.73
13077.1
3606.5
21066.2
3927.01
13124.7
6935.05
3391.49
6991.81
3296.29
7784.43
3226.08
10111.4
3483.91
19281.8
68952.7
4107.25
88232.2
4090.3
85869.2
4271.25
66467.9
4990.74
22826
53916.9
4072.98
31640.8
4150.39
144073
4461.72
63625.1
4858.32
12442.3
53445.1
4257.58
6111.41
3207.4
6008.6
2970.77
5841.52
2630.83
5744.79
2155.96
4499.85
14523.2
3740.9
15881.4
3631.97
14728.6
3505.78
11503.6
3456.1
5017.3
15375.8
3729.61
15391.1
3635.79
17029.7
3568.21
15933.5
3640.36
10817.2
27054
4168.23
32924.1
4282.05
5020.05
2968.18
4767.03
2743.93
4693.7
2379.77
4774.26
1720.93
3880.19
5484.93
3195.74
5303.16
3042.59
5269
2895.78
5269.87
2766.11
3420.36
6047.23
3277.26
5917.67
3152.38
6046.28
3070.19
6652.42
3064.34
8472.6
6385.54
3409.74
6368.14
3414.39
6687.72
3497.65
)
;

boundaryField
{
    inlet
    {
        type            zeroGradient;
    }
    outlet
    {
        type            zeroGradient;
    }
    wall
    {
        type            zeroGradient;
    }
    procBoundary5to1
    {
        type            processor;
        value           uniform 0;
    }
    procBoundary5to4
    {
        type            processor;
        value           uniform 0;
    }
    procBoundary5to7
    {
        type            processor;
        value           uniform 0;
    }
}


// ************************************************************************* //
