/*--------------------------------*- C++ -*----------------------------------*\
| =========                 |                                                 |
| \\      /  F ield         | OpenFOAM: The Open Source CFD Toolbox           |
|  \\    /   O peration     | Version:  4.x                                   |
|   \\  /    A nd           | Web:      www.OpenFOAM.org                      |
|    \\/     M anipulation  |                                                 |
\*---------------------------------------------------------------------------*/
FoamFile
{
    version     2.0;
    format      ascii;
    class       volScalarField;
    location    "13.5";
    object      thCond;
}
// * * * * * * * * * * * * * * * * * * * * * * * * * * * * * * * * * * * * * //

dimensions      [1 1 -3 -1 0 0 0];

internalField   nonuniform List<scalar> 
114
(
190.191
189.998
189.993
189.913
189.88
189.896
190.196
190.214
190.086
189.928
189.738
189.697
189.83
190.053
190.14
189.933
189.936
189.932
189.736
189.82
189.701
190.343
190.384
190.065
190.057
189.841
189.733
189.705
189.819
189.879
190.138
190.052
189.82
189.801
189.594
189.535
189.66
189.495
189.691
189.974
190.124
189.809
189.648
189.609
189.515
189.451
189.48
189.64
189.784
189.985
190.229
189.991
190.011
189.817
189.717
189.678
189.63
189.65
189.792
190.176
189.881
189.924
189.729
189.53
189.486
189.364
189.545
189.742
190.017
189.901
189.689
189.62
189.244
189.336
189.259
189.254
189.355
190.027
189.606
189.433
189.465
190.706
190.247
190.342
189.93
189.876
189.94
189.745
189.774
189.874
190.278
190.09
190.215
189.92
189.622
189.653
189.785
189.642
189.776
190.119
189.964
189.636
189.625
189.498
189.352
189.513
189.504
189.558
189.979
189.921
189.588
189.609
189.257
189.398
)
;

boundaryField
{
    inlet
    {
        type            zeroGradient;
    }
    outlet
    {
        type            zeroGradient;
    }
    wall
    {
        type            zeroGradient;
    }
    procBoundary5to1
    {
        type            processor;
        value           nonuniform List<scalar> 
32
(
190.589
190.599
190.272
190.312
190.561
190.918
190.83
190.636
190.459
190.31
190.263
190.336
190.813
190.638
190.647
190.244
190.199
190.081
190.118
190.15
190.676
190.713
190.624
190.225
190.225
190.225
190.439
190.084
190.084
190.084
190.333
190.333
)
;
    }
    procBoundary5to4
    {
        type            processor;
        value           nonuniform List<scalar> 
12
(
190.166
190.078
190.229
190.222
190.008
189.963
190.061
190.053
190.184
190.07
190.136
190.176
)
;
    }
    procBoundary5to7
    {
        type            processor;
        value           nonuniform List<scalar> 
44
(
189.895
189.951
189.811
189.455
189.39
189.502
189.725
189.548
189.947
189.895
189.751
189.571
189.489
189.414
189.266
189.315
189.455
190.155
189.751
189.689
189.751
189.571
189.522
189.485
189.352
189.441
189.555
189.862
189.694
189.619
189.522
189.673
189.522
189.485
189.594
189.579
189.672
190.026
189.933
189.628
189.603
189.686
189.594
189.818
)
;
    }
}


// ************************************************************************* //
