/*--------------------------------*- C++ -*----------------------------------*\
| =========                 |                                                 |
| \\      /  F ield         | OpenFOAM: The Open Source CFD Toolbox           |
|  \\    /   O peration     | Version:  4.x                                   |
|   \\  /    A nd           | Web:      www.OpenFOAM.org                      |
|    \\/     M anipulation  |                                                 |
\*---------------------------------------------------------------------------*/
FoamFile
{
    version     2.0;
    format      ascii;
    class       volVectorField;
    location    "13.5";
    object      U;
}
// * * * * * * * * * * * * * * * * * * * * * * * * * * * * * * * * * * * * * //

dimensions      [0 1 -1 0 0 0 0];

internalField   nonuniform List<vector> 
114
(
(0.0363725 0.000723859 0.00206784)
(0.0186301 -0.000981212 0.00146739)
(0.0414331 0.00176497 0.00377749)
(0.0170169 -0.00328406 -4.23286e-05)
(0.0520971 0.00413758 0.00477971)
(0.0105013 -0.0148378 -0.0121532)
(0.00856974 -0.000509386 -0.000147625)
(0.0306039 -0.000272231 0.000110598)
(0.0100752 -0.00115837 -0.00108427)
(0.0323895 0.0011551 -0.000525845)
(0.0110497 -0.00345819 -0.00265801)
(0.0321012 0.00410096 -0.000311024)
(0.0113533 -0.0172115 -0.00828837)
(0.0280899 -8.22241e-05 0.00353014)
(0.00437943 -0.000478897 -0.000510672)
(0.0298091 1.18046e-05 -0.00341654)
(0.00770069 -0.00131304 -0.00218869)
(0.0293971 0.000670042 -0.00204042)
(0.00426328 -0.00168931 -0.00189445)
(0.0262157 0.00249808 -0.000404402)
(0.00556805 -0.00374655 -0.00364645)
(0.0150696 -0.000564803 3.33899e-06)
(0.0310546 -0.000136697 0.000803165)
(0.0151256 -0.000543145 0.000785516)
(0.0323319 0.000642143 0.00205487)
(0.0135967 -0.000809374 0.00132594)
(0.0331849 0.00198563 0.00314557)
(0.0102736 -0.00163319 0.00121971)
(0.029724 0.0042909 0.002893)
(0.00494303 -0.00168003 -0.00047703)
(0.00152464 -0.000115427 -4.10922e-06)
(0.0259529 -0.000290056 0.00010835)
(0.00119037 -0.000150574 -8.07151e-05)
(0.0263216 0.000923176 -0.000173114)
(0.00121445 -0.000206407 -0.000157965)
(0.0251658 0.00229791 0.000119847)
(0.00147352 -0.000516791 -0.000273354)
(0.0205895 0.00458321 0.000605979)
(0.00385219 -0.00184835 -0.0011968)
(0.00192547 -0.000220277 1.76171e-05)
(0.0258418 -0.000463511 0.000877639)
(0.00327787 -0.000516239 -5.83892e-05)
(0.0256539 0.000283921 -9.73399e-05)
(0.000702133 -0.000183458 -5.76678e-05)
(0.0236522 0.00106926 -0.000828128)
(0.00153449 -0.000473906 -0.000257816)
(0.0209348 0.00260398 -0.00132583)
(0.00761501 -0.0012755 -0.00207716)
(0.00182752 0.000661597 2.05702e-05)
(0.0245806 0.000684236 0.00034374)
(0.0170603 -0.000474255 0.00046949)
(0.0329433 -5.88471e-05 0.000897242)
(0.0175003 -0.000771543 0.00118386)
(0.0358541 0.000630304 0.00143915)
(0.0179831 -0.00159447 0.00273142)
(0.0408273 0.00188523 0.00212832)
(0.0168735 -0.00410212 0.00650595)
(0.0496746 0.0044824 0.000405992)
(0.00995084 -0.0148635 0.0140202)
(0.00721785 -0.000230395 0.000345223)
(0.0286151 -0.000404817 0.00059877)
(0.00666259 -0.000372212 0.000292154)
(0.0295622 8.9454e-05 -0.000252831)
(0.00719201 -0.000952624 0.000422172)
(0.0307738 0.00134936 -0.000689024)
(0.00857219 -0.00315504 0.00172688)
(0.0304006 0.00427461 -0.0019343)
(0.0110168 -0.0158194 0.00629923)
(0.00675206 -0.000598264 0.000356696)
(0.0283253 -0.000216898 0.000576556)
(0.00676418 -0.000916274 0.000552276)
(0.0291592 -0.000601759 -0.000665021)
(0.00600371 -0.00155486 0.000504226)
(0.0297071 0.000485809 -0.00179557)
(0.00580999 -0.00266243 0.00136233)
(0.0280021 0.00256009 -0.00402366)
(0.00697238 -0.00528547 0.00295134)
(0.00380502 -0.000159544 0.00037296)
(0.0253185 -0.000463915 0.000829707)
(0.00315596 -0.000189981 0.000278488)
(0.0245785 -8.51861e-05 -0.000554407)
(0.0203075 -0.000508097 -3.52503e-05)
(0.0348384 -0.000107254 0.000307678)
(0.0216584 -0.000652989 -0.00017243)
(0.0382021 0.000534267 0.000252356)
(0.0223272 -0.00151599 -0.000218899)
(0.0446297 0.00148269 0.00017132)
(0.0216903 -0.00471339 0.000477671)
(0.0626274 0.00308234 2.53439e-07)
(0.0150629 -0.0216685 -0.000127837)
(0.0188665 -0.000494825 6.71293e-05)
(0.0329039 -0.000494332 0.000277341)
(0.0196797 -0.000756764 -0.000105614)
(0.0347034 1.05865e-05 -0.000130025)
(0.0199898 -0.00179868 -0.000445653)
(0.0366582 0.000611552 -0.000689501)
(0.0192362 -0.00555346 -0.000496668)
(0.0381171 0.00281534 -0.00103463)
(0.0169612 -0.024446 0.000956838)
(0.0170019 -0.000942007 3.51357e-05)
(0.0318458 -0.000653928 0.000373152)
(0.0175582 -0.00149758 -0.00015238)
(0.0332711 -0.00053949 0.000206573)
(0.0171082 -0.002501 -0.00045845)
(0.0342021 -5.43514e-05 -0.000393113)
(0.0149369 -0.0041121 -0.000596076)
(0.0333426 0.00150414 -0.000585643)
(0.0100861 -0.00598528 -0.000174126)
(0.0160497 -0.000263035 0.000431083)
(0.0303951 -0.000486501 0.000289035)
(0.0162205 -0.000823198 0.000357141)
(0.0304602 -0.000658896 0.00049111)
(0.0153969 -0.00163927 0.000506046)
(0.0293639 -0.000219255 -0.000234233)
)
;

boundaryField
{
    inlet
    {
        type            fixedValue;
        value           nonuniform 0();
    }
    outlet
    {
        type            zeroGradient;
    }
    wall
    {
        type            fixedValue;
        value           uniform (0 0 0);
    }
    procBoundary5to1
    {
        type            processor;
        value           nonuniform List<vector> 
32
(
(0.0355124 -0.000388742 0.00368257)
(0.0189418 -0.00122922 0.00323169)
(0.0396498 0.000974541 0.00524285)
(0.0173955 -0.00319168 0.00413207)
(0.050133 0.0036372 0.00554411)
(0.00982449 -0.0126218 -0.000680518)
(0.00679587 -0.000176522 0.000599355)
(0.029541 0.00252488 0.00135952)
(0.00784442 -0.000123414 0.000248874)
(0.0309917 0.00184554 0.000776588)
(0.0106554 -0.00268154 -0.000157804)
(0.0313428 0.00405335 0.000301306)
(0.0141197 -0.0166677 -0.00310053)
(0.0246532 -2.4478e-05 0.00123856)
(-0.0108323 -0.000911814 0.00143519)
(0.0259183 0.000365582 0.00455213)
(0.000445973 -5.93345e-05 -7.26869e-05)
(0.02766 0.000257182 -0.0045413)
(0.00409848 -0.000666985 -0.00110911)
(0.0246415 0.00116178 -0.00331298)
(0.00656712 -0.00109226 -0.00230838)
(0.0173742 -0.000416877 8.18333e-05)
(0.0335468 6.13204e-05 0.00100773)
(0.0180469 -0.000174995 0.000821691)
(0.0180469 -0.000174995 0.000821691)
(0.0180469 -0.000174995 0.000821691)
(0.00796052 -0.000324436 -2.37764e-05)
(0.0290754 -0.000682338 0.000525748)
(0.0290754 -0.000682338 0.000525748)
(0.0290754 -0.000682338 0.000525748)
(0.00527477 -0.000469327 0.000377574)
(0.00527477 -0.000469327 0.000377574)
)
;
    }
    procBoundary5to4
    {
        type            processor;
        value           nonuniform List<vector> 
12
(
(0.0304204 -0.000961932 -0.000199936)
(0.0260955 -0.00024511 0.000169705)
(0.0259557 -0.000456408 0.000520609)
(0.0248705 0.00672937 0.000568224)
(0.0316464 -0.000677965 0.0007267)
(0.0279529 -0.000683921 0.00145612)
(0.0277213 -0.000250523 0.000756007)
(0.0256338 -0.000297268 0.00154889)
(0.0329489 -0.000436765 0.000280884)
(0.0315672 -0.000604482 0.000672164)
(0.0309919 -0.000607419 0.000585626)
(0.0298268 -8.85954e-05 0.000494677)
)
;
    }
    procBoundary5to7
    {
        type            processor;
        value           nonuniform List<vector> 
44
(
(0.0270209 1.70342e-05 -0.000293629)
(0.00469166 4.60738e-05 -0.000607677)
(0.0267542 0.000313389 -0.000187214)
(0.00446508 9.9656e-05 -0.00109628)
(0.0250742 7.29713e-05 -0.000195836)
(0.00465471 8.59437e-05 -0.00205347)
(0.0213252 -0.000377947 0.000710156)
(0.00741739 0.000659557 -0.00467212)
(0.00510634 -0.000128242 -0.000289765)
(0.0270209 1.70342e-05 -0.000293629)
(-2.41336e-06 -2.57892e-08 -8.33006e-08)
(0.0238091 6.43329e-05 -0.000727728)
(0.000445656 -7.7699e-06 -0.000101036)
(0.0231151 0.000345442 -0.000650194)
(0.00232743 -0.000132133 -0.000718551)
(0.0209352 0.000992387 0.00014137)
(0.00835664 -0.000102889 -0.00311155)
(-0.00277075 0.000114671 -0.000114317)
(-2.41336e-06 -2.57892e-08 -8.33006e-08)
(0.0225273 -0.000148913 -6.42385e-05)
(-2.41336e-06 -2.57892e-08 -8.33006e-08)
(0.0238091 6.43329e-05 -0.000727728)
(0.00012498 -1.57823e-05 1.42413e-05)
(0.0228128 0.000220757 -0.00133725)
(-1.56852e-06 2.81343e-08 -1.88494e-07)
(0.0188281 0.00128055 -0.00248569)
(0.00480418 -0.000855721 -3.86493e-05)
(0.00548839 0.000203834 -0.00199609)
(0.0269573 -2.14909e-05 -0.000957314)
(0.00331762 0.000232118 -0.000283808)
(0.00012498 -1.57823e-05 1.42413e-05)
(0.0275154 0.000605538 -0.0012734)
(0.00012498 -1.57823e-05 1.42413e-05)
(0.0228128 0.000220757 -0.00133725)
(0.0134995 -0.00316056 0.000508377)
(0.0264044 0.00218436 -0.000843843)
(0.0118271 -0.00510316 0.000451551)
(0.0126503 5.3379e-05 0.000149905)
(0.0289509 -0.000120602 0.0005166)
(0.0110293 1.13691e-05 -0.00028028)
(0.0286493 -0.000292385 -5.00479e-05)
(0.00827622 8.49175e-05 -0.00061695)
(0.0134995 -0.00316056 0.000508377)
(0.026732 -0.000616841 -0.00032695)
)
;
    }
}


// ************************************************************************* //
