/*--------------------------------*- C++ -*----------------------------------*\
| =========                 |                                                 |
| \\      /  F ield         | OpenFOAM: The Open Source CFD Toolbox           |
|  \\    /   O peration     | Version:  4.x                                   |
|   \\  /    A nd           | Web:      www.OpenFOAM.org                      |
|    \\/     M anipulation  |                                                 |
\*---------------------------------------------------------------------------*/
FoamFile
{
    version     2.0;
    format      ascii;
    class       volVectorField;
    location    "57";
    object      Urel;
}
// * * * * * * * * * * * * * * * * * * * * * * * * * * * * * * * * * * * * * //

dimensions      [0 1 -1 0 0 0 0];

internalField   nonuniform List<vector> 
132
(
(-0.0239275 0.000462061 0.00125977)
(-0.0223424 0.000433032 0.00118665)
(-0.0236998 0.000430609 0.00118812)
(-0.0229495 0.000370306 0.00106449)
(-0.0245088 0.000338249 0.00101396)
(-0.0239141 0.000266789 0.00088307)
(-0.0253955 0.000231298 0.000834006)
(-0.0247577 0.000158663 0.000733535)
(-0.0261543 0.000109598 0.000692754)
(-0.0238281 0.00048744 0.00128984)
(-0.0221346 0.000452757 0.00119727)
(-0.0234203 0.000471893 0.00120289)
(-0.0224991 0.000401728 0.00107287)
(-0.0240074 0.000387673 0.00102891)
(-0.023235 0.000309489 0.000883934)
(-0.0247076 0.000300641 0.00083352)
(-0.0238933 0.000242626 0.000710288)
(-0.0253043 0.000217519 0.000664603)
(-0.0237111 0.000345289 0.00131664)
(-0.021918 0.000313328 0.00120556)
(-0.0231287 0.000322275 0.00121522)
(-0.0220457 0.000274939 0.00107162)
(-0.0234776 0.000253685 0.0010321)
(-0.0225338 0.000201452 0.000871496)
(-0.0239579 0.000188252 0.000809801)
(-0.0229736 0.000143491 0.000656484)
(-0.0243622 0.000128473 0.000603063)
(-0.0236441 0.000144906 0.00130892)
(-0.0218318 0.000119405 0.00119409)
(-0.0230054 0.000121547 0.00119882)
(-0.0237237 0.000499425 0.00129361)
(-0.0219489 0.000454271 0.00118636)
(-0.0231707 0.000457503 0.00119074)
(-0.022075 0.000393653 0.00103528)
(-0.0235446 0.000369378 0.000975513)
(-0.0225878 0.000288087 0.000829365)
(-0.0240582 0.000254168 0.000769325)
(-0.0230637 0.000166025 0.000657068)
(-0.024506 0.00011666 0.000600405)
(-0.0235967 0.000526838 0.00132925)
(-0.0216728 0.00046683 0.00119738)
(-0.0228174 0.000495837 0.00120881)
(-0.0214857 0.000410386 0.00103427)
(-0.0229233 0.000409865 0.000983201)
(-0.0216804 0.000311712 0.000814065)
(-0.0232023 0.000304698 0.000757507)
(-0.0218897 0.000213937 0.000620317)
(-0.023466 0.000194601 0.00056065)
(-0.0234457 0.0003622 0.00136279)
(-0.0213933 0.000314822 0.00121025)
(-0.0224599 0.0003264 0.0012318)
(-0.0209091 0.000267345 0.00103262)
(-0.0223055 0.000254191 0.000985143)
(-0.0208053 0.000192592 0.000792073)
(-0.0223537 0.000171575 0.000720298)
(-0.0207597 0.000123795 0.000571434)
(-0.022437 0.000101117 0.000500005)
(-0.0233696 0.000121602 0.00137187)
(-0.0213083 0.00010609 0.00121815)
(-0.0223216 0.00010582 0.00123815)
(-0.0207362 8.26227e-05 0.00103113)
(-0.0220911 7.79567e-05 0.000986823)
(-0.0235072 0.000546187 0.00115231)
(-0.0216269 0.000491959 0.00105767)
(-0.022701 0.000497935 0.00106286)
(-0.021403 0.000423292 0.000927354)
(-0.0227447 0.00040021 0.000877427)
(-0.0215816 0.00030979 0.000755041)
(-0.0229781 0.000273411 0.000700046)
(-0.0217874 0.00017848 0.00062063)
(-0.0231919 0.000121662 0.000568825)
(-0.0233493 0.000575984 0.00117988)
(-0.021298 0.000504824 0.00106513)
(-0.0222862 0.000542025 0.00107114)
(-0.0207055 0.000438744 0.000906363)
(-0.0220301 0.000437976 0.000857488)
(-0.020534 0.000325576 0.000714785)
(-0.0220185 0.000306051 0.000661368)
(-0.0204774 0.000217573 0.000556192)
(-0.0220758 0.000182778 0.000502841)
(-0.0231675 0.000400428 0.00119832)
(-0.0209624 0.000346907 0.0010717)
(-0.021854 0.000366783 0.00107827)
(-0.0199948 0.000287705 0.000886883)
(-0.02131 0.000280088 0.000832611)
(-0.0195035 0.000207079 0.000666635)
(-0.0210748 0.000187786 0.000586769)
(-0.0192496 0.000138223 0.000485305)
(-0.0209667 0.000117742 0.000396154)
(-0.0230852 0.000128664 0.00119414)
(-0.0208418 0.000111894 0.00106692)
(-0.0216928 0.000119474 0.00106441)
(-0.0197697 9.52505e-05 0.000868325)
(-0.0210708 0.000102983 0.0008089)
(-0.019218 8.77465e-05 0.000648114)
(-0.0207941 9.65856e-05 0.000578459)
(-0.0233761 0.000585131 0.000871964)
(-0.0214318 0.000523301 0.000803515)
(-0.0224154 0.000526834 0.00079996)
(-0.0209767 0.000439555 0.000699061)
(-0.0222183 0.000411848 0.000650375)
(-0.0208873 0.000323453 0.000560099)
(-0.0222013 0.000284695 0.000506917)
(-0.0208247 0.000190892 0.000439968)
(-0.0221719 0.000132883 0.000367317)
(-0.0231915 0.000607093 0.000885471)
(-0.0210436 0.000529922 0.000798796)
(-0.0219359 0.000562876 0.000794874)
(-0.0201501 0.000445744 0.000667167)
(-0.0214156 0.000439034 0.000619394)
(-0.0196903 0.000325351 0.000509985)
(-0.0211673 0.000285839 0.000463845)
(-0.0193723 0.000205062 0.000380782)
(-0.0210083 0.000136932 0.00033448)
(-0.0229937 0.000396273 0.000888423)
(-0.0206899 0.000344896 0.00079117)
(-0.0214772 0.000350436 0.000773813)
(-0.0194073 0.000274031 0.00063304)
(-0.0206708 0.000249748 0.000579591)
(-0.0186413 0.000189455 0.000461462)
(-0.0202236 0.000147693 0.00041685)
(-0.0182205 0.000117247 0.00032431)
(-0.0199499 7.45071e-05 0.000271104)
(-0.0229213 0.000110932 0.000884615)
(-0.0206055 8.82872e-05 0.000791396)
(-0.0213538 7.56484e-05 0.000776171)
(-0.0192754 6.23987e-05 0.000638391)
(-0.0205054 4.97e-05 0.000593222)
(-0.0185116 4.82167e-05 0.000471701)
(-0.0200507 4.97753e-05 0.000424754)
(-0.0180706 3.68785e-05 0.00033721)
(-0.0197696 3.51873e-05 0.000283397)
)
;

boundaryField
{
    inlet
    {
        type            calculated;
        value           nonuniform List<vector> 
16
(
(-0.01 -6.59717e-09 1.97904e-09)
(-0.01 -2.32224e-08 -4.55155e-09)
(-0.0100001 1.89267e-08 -2.09695e-08)
(-0.01 1.09764e-08 9.88449e-09)
(-0.01 -2.36999e-09 2.70112e-09)
(-0.01 -3.69461e-09 -1.42467e-10)
(-0.01 5.48333e-09 7.89772e-09)
(-0.01 1.15328e-08 9.46115e-09)
(-0.01 -1.43922e-09 3.58653e-09)
(-0.01 -2.78547e-09 4.85549e-09)
(-0.01 2.96904e-09 8.60794e-09)
(-0.01 6.13987e-09 7.55956e-09)
(-0.01 -2.334e-09 2.57147e-09)
(-0.01 -1.6703e-09 3.87373e-09)
(-0.01 5.82796e-09 8.77313e-09)
(-0.01 6.43927e-09 7.8145e-09)
)
;
    }
    outlet
    {
        type            calculated;
        value           nonuniform 0();
    }
    wall
    {
        type            calculated;
        value           nonuniform List<vector> 
66
(
(-4.51202e-09 -6.59717e-09 1.97904e-09)
(-2.93356e-08 -2.32224e-08 -4.55155e-09)
(-1.06684e-07 1.89267e-08 -2.09695e-08)
(-2.13924e-08 1.09764e-08 9.88449e-09)
(-1.85413e-08 1.28137e-09 5.69428e-09)
(-1.21277e-07 3.53364e-08 -6.93027e-09)
(-1.4551e-07 3.88423e-08 -9.10508e-09)
(-1.14083e-07 3.89876e-08 -1.37479e-09)
(-9.19262e-08 -1.05096e-08 1.40986e-08)
(-2.27278e-07 2.85642e-08 -2.97632e-08)
(-2.10057e-07 5.31542e-08 -3.33395e-08)
(-1.63261e-07 6.00055e-08 -1.56049e-08)
(-1.84168e-07 -3.88403e-09 -5.08666e-08)
(-3.2472e-07 5.89322e-08 -5.87403e-08)
(-2.71578e-07 5.58465e-08 -7.25617e-08)
(-3.84895e-07 3.25015e-08 -8.84933e-08)
(-4.43357e-07 6.468e-08 -1.20625e-07)
(-3.85006e-07 9.10246e-08 -2.0401e-07)
(-6.77392e-07 -1.34904e-08 -3.3649e-07)
(-8.27522e-07 5.54049e-08 -3.83649e-07)
(-9.0153e-07 2.07111e-07 -2.94164e-07)
(-8.18837e-07 -3.38276e-07 -5.19645e-07)
(-1.54787e-06 -1.16675e-07 -8.18232e-07)
(-1.12005e-06 1.3275e-07 -7.98657e-07)
(-9.4396e-07 -3.98238e-07 -4.51729e-07)
(-1.3381e-06 -5.90514e-07 -8.30141e-07)
(-1.31637e-06 1.49141e-07 -1.2492e-06)
(-2.83328e-06 1.29345e-08 -9.47455e-07)
(-1.2946e-06 -9.04496e-07 -4.41011e-07)
(-1.06058e-06 -7.8515e-07 -1.73094e-06)
(-4.51202e-09 -6.59717e-09 1.97904e-09)
(-6.3163e-09 -2.36999e-09 2.70112e-09)
(-4.29522e-09 -1.43922e-09 3.58653e-09)
(-2.62595e-09 -2.334e-09 2.57147e-09)
(-1.85413e-08 1.28137e-09 5.69428e-09)
(-2.75786e-08 -2.68613e-09 7.87803e-09)
(-1.43171e-08 -1.96163e-10 1.18134e-08)
(-9.56893e-09 5.22602e-10 7.86139e-09)
(-9.19262e-08 -1.05096e-08 1.40986e-08)
(-6.1417e-08 -1.2237e-08 6.52809e-09)
(-3.10914e-08 -4.6836e-09 3.37984e-09)
(-2.15361e-08 7.55926e-10 4.41808e-09)
(-1.84168e-07 -3.88403e-09 -5.08666e-08)
(-1.80958e-07 5.15806e-09 -4.40641e-08)
(-9.59873e-08 3.6173e-09 -1.64969e-08)
(-5.74447e-08 4.57375e-09 -4.3999e-09)
(-3.84895e-07 3.25015e-08 -8.84933e-08)
(-2.55458e-07 6.10634e-09 -6.97955e-08)
(-1.63259e-07 2.24647e-08 -4.51317e-08)
(-9.00382e-08 -1.75028e-10 -2.19636e-08)
(-6.77392e-07 -1.34904e-08 -3.3649e-07)
(-3.83841e-07 -3.31664e-09 -2.19305e-07)
(-3.28455e-07 -6.62231e-08 -1.19412e-07)
(-2.05146e-07 -2.71337e-08 -7.66081e-08)
(-8.18837e-07 -3.38276e-07 -5.19645e-07)
(-5.57013e-07 5.29352e-08 -4.37019e-07)
(-4.29833e-07 -1.36475e-08 -2.44412e-07)
(-2.57999e-07 8.07588e-09 -1.67156e-07)
(-9.4396e-07 -3.98238e-07 -4.51729e-07)
(-1.20364e-06 -1.19716e-07 -2.80329e-07)
(-5.74087e-07 6.01798e-08 -2.68285e-07)
(-5.80102e-07 2.7876e-07 -7.01283e-07)
(-2.83328e-06 1.29345e-08 -9.47455e-07)
(-9.58527e-07 -2.14182e-07 2.93178e-07)
(-7.83655e-07 3.6604e-07 -9.10166e-07)
(-4.71205e-07 3.07742e-08 -1.18054e-06)
)
;
    }
    procBoundary0to1
    {
        type            processor;
        value           nonuniform List<vector> 
12
(
(-0.0254372 7.75496e-06 0.000622025)
(-0.0244078 0.000141517 0.000581408)
(-0.0232783 7.51925e-05 0.000505212)
(-0.0234269 1.5558e-05 0.000524221)
(-0.022057 0.000109945 0.000470752)
(-0.0207152 6.02473e-05 0.000413044)
(-0.0219052 2.15403e-05 0.000520981)
(-0.0204749 0.000118734 0.000440352)
(-0.0190917 7.5747e-05 0.000349465)
(-0.0206335 5.2145e-05 0.000296289)
(-0.0191136 9.15697e-05 0.000256371)
(-0.017999 5.34967e-05 0.000214609)
)
;
    }
    procBoundary0to2
    {
        type            processor;
        value           nonuniform List<vector> 
44
(
(-0.021884 0.000101164 0.00105201)
(-0.0232797 0.000100913 0.00100969)
(-0.0222986 9.13592e-05 0.000841615)
(-0.0237071 9.68028e-05 0.000764634)
(-0.0227059 8.05086e-05 0.000606878)
(-0.0241102 8.41334e-05 0.000535214)
(-0.0236499 -0.000112395 0.00126109)
(-0.0218122 -0.000105062 0.00116499)
(-0.021884 0.000101164 0.00105201)
(-0.022988 -0.000116731 0.00117005)
(-0.021884 0.000101164 0.00105201)
(-0.0232797 0.000100913 0.00100969)
(-0.0205604 6.90861e-05 0.000787442)
(-0.0220988 7.0756e-05 0.000715801)
(-0.020519 5.67401e-05 0.000562535)
(-0.0221931 5.0099e-05 0.000487995)
(-0.0234106 -0.00015205 0.00133662)
(-0.0213443 -0.000128933 0.00119713)
(-0.0223703 -0.000146313 0.0012221)
(-0.0207602 -0.000126669 0.00102234)
(-0.0205604 6.90861e-05 0.000787442)
(-0.0221345 -0.000128839 0.000980585)
(-0.0205604 6.90861e-05 0.000787442)
(-0.0220988 7.0756e-05 0.000715801)
(-0.0189488 7.63353e-05 0.000469368)
(-0.020673 6.10945e-05 0.000403501)
(-0.0231401 -0.000173277 0.00118291)
(-0.020907 -0.000143119 0.00104913)
(-0.0217607 -0.000147908 0.00104299)
(-0.0198406 -0.000118749 0.000858168)
(-0.0211334 -0.000101814 0.000797449)
(-0.019239 -6.48418e-05 0.000632783)
(-0.0189488 7.63353e-05 0.000469368)
(-0.0208217 -2.30198e-05 0.000552806)
(-0.0189488 7.63353e-05 0.000469368)
(-0.020673 6.10945e-05 0.000403501)
(-0.0229677 -0.000206887 0.000897097)
(-0.0206535 -0.000181274 0.000784742)
(-0.0214289 -0.000202135 0.000771732)
(-0.0193744 -0.000150954 0.000637036)
(-0.0206186 -0.000153167 0.000579302)
(-0.0186339 -9.85554e-05 0.000462844)
(-0.0201805 -8.58982e-05 0.000390082)
(-0.0181853 -4.47481e-05 0.000329053)
)
;
    }
    procBoundary0to4
    {
        type            processor;
        value           nonuniform List<vector> 
36
(
(-0.0233559 0.000602743 0.000509505)
(-0.0214288 0.000536834 0.000473366)
(-0.0223709 0.000541652 0.000457869)
(-0.0209222 0.000450256 0.000410177)
(-0.0221266 0.000420717 0.000358936)
(-0.0207989 0.000327781 0.000312951)
(-0.0220936 0.000294365 0.000260915)
(-0.0207495 0.00021934 0.00021435)
(-0.0221098 0.000186845 0.000125336)
(-0.0231652 0.000624101 0.000494769)
(-0.0210386 0.000541403 0.000452412)
(-0.0218888 0.000567958 0.000426354)
(-0.0201075 0.000450296 0.000373025)
(-0.0213482 0.000440711 0.000320279)
(-0.0196451 0.000330621 0.000272302)
(-0.0210917 0.000308416 0.000221308)
(-0.0193464 0.000226532 0.00018041)
(-0.0209582 0.000189692 0.000112538)
(-0.022975 0.000418488 0.000483755)
(-0.0206898 0.000364955 0.000435378)
(-0.0214422 0.000377435 0.000398196)
(-0.0194134 0.000299186 0.000338041)
(-0.0206396 0.00029412 0.000284253)
(-0.0186698 0.000216386 0.000235905)
(-0.0201937 0.000193814 0.000204923)
(-0.0181783 0.000139888 0.000155841)
(-0.0199335 0.000108795 0.000126333)
(-0.0228914 0.000142031 0.00049511)
(-0.0205646 0.000108956 0.000437709)
(-0.0212693 0.000120491 0.000411028)
(-0.0191668 9.73461e-05 0.000347515)
(-0.0203638 0.000101593 0.000303953)
(-0.0183081 7.78516e-05 0.000242858)
(-0.0198427 6.37287e-05 0.00021028)
(-0.0177787 6.2702e-05 0.000163543)
(-0.0195342 6.25633e-05 0.000128805)
)
;
    }
    procBoundary0to6
    {
        type            processor;
        value           uniform (-0.0199426 -4.00371e-05 0.000283727);
    }
    procBoundary0to7
    {
        type            processor;
        value           uniform (-0.0177982 2.1223e-05 0.000233464);
    }
}


// ************************************************************************* //
