/*--------------------------------*- C++ -*----------------------------------*\
| =========                 |                                                 |
| \\      /  F ield         | OpenFOAM: The Open Source CFD Toolbox           |
|  \\    /   O peration     | Version:  4.x                                   |
|   \\  /    A nd           | Web:      www.OpenFOAM.org                      |
|    \\/     M anipulation  |                                                 |
\*---------------------------------------------------------------------------*/
FoamFile
{
    version     2.0;
    format      ascii;
    class       volScalarField;
    location    "3";
    object      Deff;
}
// * * * * * * * * * * * * * * * * * * * * * * * * * * * * * * * * * * * * * //

dimensions      [0 2 -1 0 0 0 0];

internalField   nonuniform List<scalar> 
87
(
9.81366e-08
9.82136e-08
9.81692e-08
9.83592e-08
9.83651e-08
9.83577e-08
9.82918e-08
9.8307e-08
9.8312e-08
9.81236e-08
9.79928e-08
9.80804e-08
9.79576e-08
9.7997e-08
9.792e-08
9.8553e-08
9.83653e-08
9.83138e-08
9.81259e-08
9.80768e-08
9.80442e-08
9.80125e-08
9.79746e-08
9.79748e-08
9.87363e-08
9.8495e-08
9.84521e-08
9.82758e-08
9.81278e-08
9.80389e-08
9.81399e-08
9.81276e-08
9.80875e-08
9.83474e-08
9.82781e-08
9.81806e-08
9.80722e-08
9.80694e-08
9.80003e-08
9.79534e-08
9.79755e-08
9.78929e-08
9.85625e-08
9.83791e-08
9.82741e-08
9.81346e-08
9.81114e-08
9.81005e-08
9.80044e-08
9.80463e-08
9.79402e-08
9.8722e-08
9.84969e-08
9.84059e-08
9.81828e-08
9.81119e-08
9.81164e-08
9.81275e-08
9.81509e-08
9.8121e-08
9.85629e-08
9.84511e-08
9.82876e-08
9.81075e-08
9.80304e-08
9.79751e-08
9.7874e-08
9.78977e-08
9.80733e-08
9.86302e-08
9.85153e-08
9.8322e-08
9.82126e-08
9.80272e-08
9.80851e-08
9.80425e-08
9.8075e-08
9.79751e-08
9.88026e-08
9.85641e-08
9.84085e-08
9.82589e-08
9.8212e-08
9.80555e-08
9.82219e-08
9.82304e-08
9.8122e-08
)
;

boundaryField
{
    inlet
    {
        type            calculated;
        value           uniform 0;
    }
    outlet
    {
        type            calculated;
        value           nonuniform 0();
    }
    wall
    {
        type            calculated;
        value           uniform 0;
    }
    procBoundary6to0
    {
        type            processor;
        value           uniform 0;
    }
    procBoundary6to2
    {
        type            processor;
        value           uniform 0;
    }
    procBoundary6to4
    {
        type            processor;
        value           uniform 0;
    }
    procBoundary6to7
    {
        type            processor;
        value           uniform 0;
    }
}


// ************************************************************************* //
