/*--------------------------------*- C++ -*----------------------------------*\
| =========                 |                                                 |
| \\      /  F ield         | OpenFOAM: The Open Source CFD Toolbox           |
|  \\    /   O peration     | Version:  4.x                                   |
|   \\  /    A nd           | Web:      www.OpenFOAM.org                      |
|    \\/     M anipulation  |                                                 |
\*---------------------------------------------------------------------------*/
FoamFile
{
    version     2.0;
    format      ascii;
    class       volScalarField;
    location    "3";
    object      KslNext;
}
// * * * * * * * * * * * * * * * * * * * * * * * * * * * * * * * * * * * * * //

dimensions      [1 -3 -1 0 0 0 0];

internalField   nonuniform List<scalar> 
87
(
4145.93
111010
6318.37
3204.4
4701.36
2986.72
4167.51
17954.2
4813.19
81414.8
5335.06
171609
5669.72
1.96744e+06
5759.92
3813.26
14177.7
4091.61
25675.6
4352.35
50570.1
4494.34
50885.2
4316.73
3686.45
8416.8
3596.34
6548.85
3472.61
5666.95
3272.64
5084.49
3067.75
3930.96
13348.1
4199.57
24298.9
4447.77
54194.5
4457.74
95189.4
3993.06
3765.61
13157.3
4020.57
21699.9
4401
63981.1
4896.03
778431
4959.26
3691.5
8514.88
3602.48
6610.14
3482.43
5433.74
3294.11
4755.18
3025.84
3791.66
8924.71
3745.56
7613.35
3669.16
7649.59
3826.65
10512.7
4439.53
3702.79
8956.72
3667.97
7215.26
3581.26
6225.27
3513.39
6118.53
3403.34
3671.06
8792.59
3613.45
7063.89
3463.26
5710.15
3282.09
4783.81
2985.23
)
;

boundaryField
{
    inlet
    {
        type            zeroGradient;
    }
    outlet
    {
        type            zeroGradient;
    }
    wall
    {
        type            zeroGradient;
    }
    procBoundary6to0
    {
        type            processor;
        value           uniform 0;
    }
    procBoundary6to2
    {
        type            processor;
        value           uniform 0;
    }
    procBoundary6to4
    {
        type            processor;
        value           uniform 0;
    }
    procBoundary6to7
    {
        type            processor;
        value           uniform 0;
    }
}


// ************************************************************************* //
