/*--------------------------------*- C++ -*----------------------------------*\
| =========                 |                                                 |
| \\      /  F ield         | OpenFOAM: The Open Source CFD Toolbox           |
|  \\    /   O peration     | Version:  4.x                                   |
|   \\  /    A nd           | Web:      www.OpenFOAM.org                      |
|    \\/     M anipulation  |                                                 |
\*---------------------------------------------------------------------------*/
FoamFile
{
    version     2.0;
    format      ascii;
    class       volScalarField;
    location    "3";
    object      p;
}
// * * * * * * * * * * * * * * * * * * * * * * * * * * * * * * * * * * * * * //

dimensions      [1 -1 -2 0 0 0 0];

internalField   nonuniform List<scalar> 
87
(
56.2411
12.4878
53.2839
59.1982
10.9331
58.9986
-1799.47
-1818.74
-1808.14
-1837.03
-1817.11
-1854.41
-1823.4
-1869.4
-1822.57
-1799.87
-1818.87
-1807.72
-1837.46
-1815.07
-1854.83
-1819.82
-1869.28
-1820.09
-1800.34
-1818.98
-1808.35
-1837.11
-1815.04
-1853.82
-1818.92
-1867.85
-1818.47
-3677.56
-3697.13
-3685.92
-3716.7
-3694.12
-3735.12
-3700.34
-3751.21
-3702.38
-3677.25
-3696.24
-3685.26
-3714.97
-3692.84
-3732.35
-3699.28
-3747.1
-3704.56
-3677.81
-3696.45
-3685.92
-3714.76
-3692.96
-3731.64
-3697.59
-3746.05
-3698.43
-5555.71
-5574.78
-5564.36
-5594.06
-5572.36
-5611.82
-5577.99
-5626.33
-5579.4
-5555.51
-5574.18
-5563.86
-5592.88
-5571.34
-5610.41
-5576.57
-5625.01
-5577.56
-5555.6
-5574.02
-5563.82
-5592.4
-5570.88
-5609.3
-5575.45
-5623.65
-5575.56
)
;

boundaryField
{
    inlet
    {
        type            calculated;
        value           nonuniform List<scalar> 9(-1799.47 -1799.87 -1800.34 -3677.56 -3677.25 -3677.81 -5555.71 -5555.51 -5555.6);
    }
    outlet
    {
        type            calculated;
        value           nonuniform 0();
    }
    wall
    {
        type            calculated;
        value           nonuniform List<scalar> 
57
(
-6494.63
-6494.43
-6494.52
-6513.62
-6513.02
-6512.87
-6503.12
-6502.63
-6502.59
-6532.77
-6531.6
-6531.12
-6511.04
-6510.03
-6509.57
-6550.5
-6549.1
-6547.98
-6516.68
-6515.28
-6514.12
-6565.06
-6563.72
-6562.33
-6518.19
-6516.28
-6514.25
-1800.34
-3677.81
-5555.6
-1818.98
-3696.45
-5574.02
-1808.35
-3685.92
-5563.82
-1837.11
-3714.76
-5592.4
-1815.04
-3692.96
-5570.88
-1853.82
-3731.64
-5609.3
59.1981
-1818.92
-3697.59
-5575.45
10.9329
-1867.85
-3746.05
-5623.65
58.9985
-1818.47
-3698.43
-5575.56
)
;
    }
    procBoundary6to0
    {
        type            processor;
        value           uniform 45.6813;
    }
    procBoundary6to2
    {
        type            processor;
        value           nonuniform List<scalar> 
32
(
1933.98
1886.79
1936.45
1937.39
1887.41
1937.99
77.438
58.2931
69.5659
39.313
61.5157
21.2065
56.0314
5.60522
5.60522
5.60522
77.826
59.1521
70.1205
40.911
63.1502
25.0506
57.5103
57.5103
57.5103
77.2097
58.8568
69.4312
40.5514
62.8639
24.3915
24.3915
)
;
    }
    procBoundary6to4
    {
        type            processor;
        value           nonuniform List<scalar> 
27
(
-1801.14
-1820.12
-1809.7
-1839.6
-1818.65
-1858.39
-1826.3
-1875.71
-1830.8
-3678.52
-3697.92
-3687.38
-3717.79
-3696.63
-3737.04
-3705.31
-3753.63
-3710.89
-5556.61
-5575.87
-5565.8
-5595.74
-5575.1
-5615.2
-5582.74
-5632.29
-5586.26
)
;
    }
    procBoundary6to7
    {
        type            processor;
        value           nonuniform List<scalar> 
12
(
-6.37296
3.22295
-1.38222
-1886.8
-1879.68
-1880.48
-3766.08
-3759.6
-3758.16
-5636.74
-5637.01
-5636.1
)
;
    }
}


// ************************************************************************* //
