/*--------------------------------*- C++ -*----------------------------------*\
| =========                 |                                                 |
| \\      /  F ield         | OpenFOAM: The Open Source CFD Toolbox           |
|  \\    /   O peration     | Version:  4.x                                   |
|   \\  /    A nd           | Web:      www.OpenFOAM.org                      |
|    \\/     M anipulation  |                                                 |
\*---------------------------------------------------------------------------*/
FoamFile
{
    version     2.0;
    format      ascii;
    class       volScalarField;
    location    "3";
    object      particleRelTemp;
}
// * * * * * * * * * * * * * * * * * * * * * * * * * * * * * * * * * * * * * //

dimensions      [0 0 0 0 0 0 0];

internalField   nonuniform List<scalar> 
87
(
-1.06492e-06
-3.54184e-07
-1.2661e-06
-1.55361e-08
-6.1494e-07
-1.21625e-06
-8.669e-07
8.70531e-08
1.05315e-06
1.64394e-06
1.73765e-06
1.44253e-06
9.37393e-07
2.73934e-08
-9.78635e-07
-9.09488e-07
-2.37816e-07
6.34242e-07
1.15172e-06
1.21916e-06
1.0378e-06
4.88739e-07
-5.31393e-08
-9.67853e-07
-1.19369e-06
-4.14124e-07
1.41753e-07
7.04667e-07
7.3883e-07
6.38929e-07
1.8729e-07
-3.50566e-07
-1.04259e-06
-1.0295e-06
-4.51798e-08
6.56166e-07
1.21319e-06
1.31472e-06
1.17409e-06
7.48302e-07
1.84114e-07
-7.22786e-07
-1.09896e-06
-3.4353e-07
3.16125e-07
8.92231e-07
9.19939e-07
8.52244e-07
4.63283e-07
4.26532e-08
-8.25773e-07
-1.23321e-06
-5.52305e-07
4.7751e-08
3.93668e-07
5.32818e-07
3.96053e-07
7.83982e-08
-2.7464e-07
-9.63804e-07
-1.10778e-06
-3.8734e-07
3.30868e-07
8.24229e-07
9.88515e-07
8.29735e-07
5.11149e-07
-6.58648e-08
-6.23437e-07
-1.15299e-06
-6.20086e-07
6.62255e-10
4.25043e-07
6.18439e-07
5.05336e-07
3.15436e-07
-2.21167e-07
-8.64282e-07
-1.38867e-06
-6.46076e-07
-2.52747e-07
1.04656e-07
2.01736e-07
1.70235e-07
-9.09267e-08
-4.6849e-07
-1.01797e-06
)
;

boundaryField
{
    inlet
    {
        type            calculated;
        value           nonuniform List<scalar> 9(-8.669e-07 -9.09488e-07 -1.19369e-06 -1.0295e-06 -1.09896e-06 -1.23321e-06 -1.10778e-06 -1.15299e-06 -1.38867e-06);
    }
    outlet
    {
        type            calculated;
        value           nonuniform 0();
    }
    wall
    {
        type            calculated;
        value           nonuniform List<scalar> 
57
(
-1.10778e-06
-1.15299e-06
-1.38867e-06
-3.8734e-07
-6.20086e-07
-6.46076e-07
3.30868e-07
6.62255e-10
-2.52747e-07
8.24229e-07
4.25043e-07
1.04656e-07
9.88515e-07
6.18439e-07
2.01736e-07
8.29735e-07
5.05336e-07
1.70235e-07
5.11149e-07
3.15436e-07
-9.09267e-08
-6.58648e-08
-2.21167e-07
-4.6849e-07
-6.23437e-07
-8.64282e-07
-1.01797e-06
-1.19369e-06
-1.23321e-06
-1.38867e-06
-4.14124e-07
-5.52305e-07
-6.46076e-07
1.41753e-07
4.7751e-08
-2.52747e-07
7.04667e-07
3.93668e-07
1.04656e-07
7.3883e-07
5.32818e-07
2.01736e-07
6.38929e-07
3.96053e-07
1.70235e-07
-1.55361e-08
1.8729e-07
7.83982e-08
-9.09267e-08
-6.1494e-07
-3.50566e-07
-2.7464e-07
-4.6849e-07
-1.21625e-06
-1.04259e-06
-9.63804e-07
-1.01797e-06
)
;
    }
    procBoundary6to0
    {
        type            processor;
        value           uniform -1.40917e-06;
    }
    procBoundary6to2
    {
        type            processor;
        value           nonuniform List<scalar> 
32
(
-1.41563e-06
-6.6088e-07
-1.4405e-06
-1.63311e-07
-7.4163e-07
-1.23448e-06
-9.16423e-07
2.15074e-07
1.04685e-06
1.55535e-06
1.71699e-06
1.35953e-06
5.64438e-07
-4.52639e-07
-4.52639e-07
-4.52639e-07
-1.16581e-06
-1.16468e-07
5.52566e-07
1.26894e-06
1.27935e-06
9.56257e-07
3.53358e-07
3.53358e-07
3.53358e-07
-1.28287e-06
-4.74895e-07
2.76786e-07
6.71826e-07
7.86289e-07
5.12223e-07
5.12223e-07
)
;
    }
    procBoundary6to4
    {
        type            processor;
        value           nonuniform List<scalar> 
27
(
-1.00016e-06
-2.4168e-08
1.03227e-06
1.64785e-06
1.85583e-06
1.62495e-06
8.11825e-07
-4.83762e-10
-8.82926e-07
-1.02424e-06
-2.0939e-07
7.90728e-07
1.287e-06
1.56548e-06
1.27102e-06
8.1732e-07
2.41321e-08
-8.29798e-07
-1.0461e-06
-3.17847e-07
3.81319e-07
9.77148e-07
1.11998e-06
9.59792e-07
4.21756e-07
-1.5263e-07
-6.69823e-07
)
;
    }
    procBoundary6to7
    {
        type            processor;
        value           nonuniform List<scalar> 
12
(
-2.09863e-06
-1.87715e-06
-1.86465e-06
-1.91305e-06
-1.72186e-06
-1.60644e-06
-1.47483e-06
-1.48271e-06
-1.48552e-06
-1.27391e-06
-1.37996e-06
-1.39572e-06
)
;
    }
}


// ************************************************************************* //
