/*--------------------------------*- C++ -*----------------------------------*\
| =========                 |                                                 |
| \\      /  F ield         | OpenFOAM: The Open Source CFD Toolbox           |
|  \\    /   O peration     | Version:  4.x                                   |
|   \\  /    A nd           | Web:      www.OpenFOAM.org                      |
|    \\/     M anipulation  |                                                 |
\*---------------------------------------------------------------------------*/
FoamFile
{
    version     2.0;
    format      ascii;
    class       volScalarField;
    location    "3";
    object      QWallFluidCoeff;
}
// * * * * * * * * * * * * * * * * * * * * * * * * * * * * * * * * * * * * * //

dimensions      [1 -1 -3 -1 0 0 0];

internalField   nonuniform List<scalar> 
87
(
0
0
0
-3.38983e+06
-2.48861e+06
-3.57732e+06
0
0
0
0
0
0
0
0
0
0
0
0
0
0
0
0
0
0
-2.84133e+06
-1.47618e+06
-2.96504e+06
-1.85237e+06
-3.1383e+06
-2.1359e+06
-3.34957e+06
-2.34063e+06
-3.53545e+06
0
0
0
0
0
0
0
0
0
0
0
0
0
0
0
0
0
0
-2.83285e+06
-1.45477e+06
-2.94648e+06
-1.82782e+06
-3.11231e+06
-2.2008e+06
-3.33853e+06
-2.49111e+06
-3.60141e+06
-2.78505e+06
-1.41073e+06
-2.88e+06
-1.63682e+06
-2.97639e+06
-1.66173e+06
-2.92674e+06
-1.29035e+06
-2.57956e+06
-2.81971e+06
-1.40136e+06
-2.90791e+06
-1.70791e+06
-3.03447e+06
-1.96854e+06
-3.15232e+06
-2.01889e+06
-3.22705e+06
-5.667e+06
-2.81992e+06
-5.84217e+06
-3.44436e+06
-6.20118e+06
-4.2057e+06
-6.68202e+06
-4.96204e+06
-7.27375e+06
)
;

boundaryField
{
    inlet
    {
        type            calculated;
        value           uniform 0;
    }
    outlet
    {
        type            calculated;
        value           nonuniform 0();
    }
    wall
    {
        type            calculated;
        value           uniform 0;
    }
    procBoundary6to0
    {
        type            processor;
        value           uniform 0;
    }
    procBoundary6to2
    {
        type            processor;
        value           uniform 0;
    }
    procBoundary6to4
    {
        type            processor;
        value           uniform 0;
    }
    procBoundary6to7
    {
        type            processor;
        value           uniform 0;
    }
}


// ************************************************************************* //
