/*--------------------------------*- C++ -*----------------------------------*\
| =========                 |                                                 |
| \\      /  F ield         | OpenFOAM: The Open Source CFD Toolbox           |
|  \\    /   O peration     | Version:  4.x                                   |
|   \\  /    A nd           | Web:      www.OpenFOAM.org                      |
|    \\/     M anipulation  |                                                 |
\*---------------------------------------------------------------------------*/
FoamFile
{
    version     2.0;
    format      ascii;
    class       volScalarField;
    location    "3";
    object      thCond;
}
// * * * * * * * * * * * * * * * * * * * * * * * * * * * * * * * * * * * * * //

dimensions      [1 1 -3 -1 0 0 0];

internalField   nonuniform List<scalar> 
87
(
190.501
190.65
190.564
190.932
190.944
190.93
190.802
190.831
190.841
190.475
190.221
190.391
190.153
190.229
190.08
191.309
190.944
190.844
190.48
190.384
190.321
190.259
190.186
190.186
191.665
191.196
191.113
190.771
190.483
190.311
190.507
190.483
190.405
190.91
190.775
190.586
190.375
190.37
190.236
190.145
190.188
190.027
191.327
190.971
190.767
190.497
190.452
190.43
190.244
190.325
190.119
191.637
191.2
191.023
190.59
190.453
190.461
190.483
190.528
190.47
191.328
191.111
190.794
190.444
190.294
190.187
189.991
190.037
190.378
191.459
191.236
190.86
190.648
190.288
190.401
190.318
190.381
190.187
191.793
191.33
191.028
190.738
190.647
190.343
190.666
190.683
190.472
)
;

boundaryField
{
    inlet
    {
        type            zeroGradient;
    }
    outlet
    {
        type            zeroGradient;
    }
    wall
    {
        type            zeroGradient;
    }
    procBoundary6to0
    {
        type            processor;
        value           uniform 190.82;
    }
    procBoundary6to2
    {
        type            processor;
        value           nonuniform List<scalar> 
32
(
191.009
190.995
190.887
191.155
191.407
191.209
191.54
191.118
190.852
190.806
190.733
190.631
190.521
190.482
190.482
190.482
191.534
191.241
190.921
190.903
190.757
190.671
190.512
190.512
190.512
191.836
191.443
191.238
191.01
191.036
190.875
190.875
)
;
    }
    procBoundary6to4
    {
        type            processor;
        value           nonuniform List<scalar> 
27
(
191.41
191.082
190.72
190.591
190.348
190.333
190.014
190.269
190.274
191.101
190.853
190.669
190.243
190.087
190.139
189.895
190.041
190.115
190.996
190.85
190.713
190.283
190.163
189.952
190.287
190.313
190.228
)
;
    }
    procBoundary6to7
    {
        type            processor;
        value           nonuniform List<scalar> 
12
(
190.186
190.544
190.776
190.221
190.274
190.45
189.934
190.089
190.395
190.085
190.204
190.309
)
;
    }
}


// ************************************************************************* //
