/*--------------------------------*- C++ -*----------------------------------*\
| =========                 |                                                 |
| \\      /  F ield         | OpenFOAM: The Open Source CFD Toolbox           |
|  \\    /   O peration     | Version:  4.x                                   |
|   \\  /    A nd           | Web:      www.OpenFOAM.org                      |
|    \\/     M anipulation  |                                                 |
\*---------------------------------------------------------------------------*/
FoamFile
{
    version     2.0;
    format      ascii;
    class       volScalarField;
    location    "39.5";
    object      p;
}
// * * * * * * * * * * * * * * * * * * * * * * * * * * * * * * * * * * * * * //

dimensions      [1 -1 -2 0 0 0 0];

internalField   nonuniform List<scalar> 
132
(
5742.6
5726.45
5737.23
5705.92
5727.33
5689.24
5721.19
5671
5714.73
5742.64
5726.02
5736
5707.36
5728.05
5689.29
5721.35
5670.85
5714.77
5742.79
5726.01
5735.99
5708
5728.72
5689.7
5721.8
5671.43
5715.16
5742.66
5725.75
5735.91
3865.31
3848.56
3858.61
3829.78
3850.63
3811.7
3843.92
3793.41
3837.3
3865.54
3848.45
3858.65
3830.12
3851.13
3811.72
3844.18
3793.2
3837.45
3865.86
3848.57
3858.98
3830.53
3851.75
3812.15
3844.69
3793.64
3837.88
3865.76
3848.29
3858.86
3830.4
3851.69
1987.69
1970.48
1980.59
1952.36
1973.07
1933.99
1965.96
1915.37
1959.13
1988.09
1970.6
1980.98
1952.5
1973.51
1934
1966.3
1915.23
1959.26
1988.51
1970.85
1981.47
1952.87
1973.98
1934.34
1966.57
1915.76
1959.54
1988.63
1970.87
1981.58
1952.83
1974.1
1934.25
1966.62
110.328
93.0552
103.333
75.1148
96.0665
56.8495
88.8331
38.5713
82.0327
110.857
93.28
103.793
75.2065
96.433
56.9473
89.1895
38.4554
82.184
111.363
93.7234
104.395
75.7618
96.9551
57.6388
89.2787
39.7121
81.9502
111.386
93.6483
104.347
75.5139
96.7559
57.2681
89.1289
38.8224
81.9086
)
;

boundaryField
{
    inlet
    {
        type            calculated;
        value           nonuniform List<scalar> 
16
(
5742.6
5742.64
5742.79
5742.66
3865.31
3865.54
3865.86
3865.76
1987.69
1988.09
1988.51
1988.63
110.328
110.857
111.363
111.386
)
;
    }
    outlet
    {
        type            calculated;
        value           nonuniform 0();
    }
    wall
    {
        type            calculated;
        value           nonuniform List<scalar> 
66
(
6681.56
6681.6
6681.75
6681.62
6665.41
6664.98
6664.97
6664.7
6676.19
6674.96
6674.95
6674.87
6644.87
6646.31
6646.96
6666.29
6667.01
6667.68
6628.2
6628.25
6628.65
6660.15
6660.31
6660.76
6609.95
6609.81
6610.39
6653.69
6653.73
6654.11
5742.6
3865.31
1987.69
110.328
5726.45
3848.56
1970.48
93.0552
5737.23
3858.61
1980.59
103.333
5705.92
3829.78
1952.36
75.1148
5727.33
3850.63
1973.07
96.0665
5689.24
3811.7
1933.99
56.8495
5721.19
3843.92
1965.96
88.8331
5671
3793.41
1915.37
38.5713
5714.73
3837.3
1959.13
82.0327
)
;
    }
    procBoundary0to1
    {
        type            processor;
        value           nonuniform List<scalar> 
12
(
5652.53
5652.04
5652.78
3774.83
3774.52
3775.26
1896.65
1896.21
1897.45
20.2746
20.1241
22.2723
)
;
    }
    procBoundary0to2
    {
        type            processor;
        value           nonuniform List<scalar> 
44
(
5707.96
5728.71
5689.53
5721.67
5670.79
5714.95
5742.75
5725.75
5707.96
5735.99
5707.96
5728.71
3811.82
3844.4
3792.88
3837.47
3865.75
3848.41
3858.97
3830.53
3811.82
3851.87
3811.82
3844.4
1915.49
1959.5
1988.57
1970.88
1981.63
1953.13
1974.29
1935.02
1915.49
1966.94
1915.49
1959.5
111.401
93.5823
104.271
75.5132
96.8252
57.3076
89.3697
39.0603
)
;
    }
    procBoundary0to4
    {
        type            processor;
        value           nonuniform List<scalar> 
36
(
-1767.48
-1784.89
-1774.62
-1802.79
-1782.04
-1821.06
-1789.37
-1839.63
-1796.47
-1766.87
-1784.62
-1774.04
-1802.59
-1781.61
-1821
-1789.05
-1839.5
-1796.16
-1766.35
-1784.24
-1773.62
-1802.2
-1781.29
-1820.49
-1788.8
-1838.8
-1796.17
-1766.23
-1784.04
-1773.41
-1801.95
-1781.01
-1820.14
-1788.71
-1838.45
-1796.25
)
;
    }
    procBoundary0to6
    {
        type            processor;
        value           uniform 82.0494;
    }
    procBoundary0to7
    {
        type            processor;
        value           uniform 20.9578;
    }
}


// ************************************************************************* //
