/*--------------------------------*- C++ -*----------------------------------*\
| =========                 |                                                 |
| \\      /  F ield         | OpenFOAM: The Open Source CFD Toolbox           |
|  \\    /   O peration     | Version:  4.x                                   |
|   \\  /    A nd           | Web:      www.OpenFOAM.org                      |
|    \\/     M anipulation  |                                                 |
\*---------------------------------------------------------------------------*/
FoamFile
{
    version     2.0;
    format      ascii;
    class       volVectorField;
    location    "39.5";
    object      Urel;
}
// * * * * * * * * * * * * * * * * * * * * * * * * * * * * * * * * * * * * * //

dimensions      [0 1 -1 0 0 0 0];

internalField   nonuniform List<vector> 
132
(
(-0.0239409 0.00048239 0.00127465)
(-0.0223495 0.000453386 0.00120174)
(-0.0237129 0.000455599 0.0012047)
(-0.0229612 0.000394847 0.00108256)
(-0.0245282 0.000367182 0.00103346)
(-0.0239329 0.000294508 0.000904363)
(-0.0254212 0.000261246 0.000854787)
(-0.0247771 0.000186349 0.000754153)
(-0.0261774 0.00012925 0.000702116)
(-0.0238419 0.000491412 0.00130601)
(-0.0221394 0.000457231 0.00121329)
(-0.0234317 0.000474646 0.00122053)
(-0.0225063 0.000406666 0.00109105)
(-0.0240215 0.000390678 0.00104837)
(-0.0232454 0.000314967 0.000903811)
(-0.0247211 0.000302682 0.000853089)
(-0.0239005 0.000244978 0.000728157)
(-0.0253095 0.000207513 0.000677118)
(-0.0237217 0.000352422 0.00133486)
(-0.0219247 0.000320094 0.00122391)
(-0.023139 0.000331412 0.00123519)
(-0.0220554 0.000282638 0.00109261)
(-0.023492 0.000263112 0.00105437)
(-0.022548 0.000207892 0.000895194)
(-0.0239747 0.000193868 0.000834091)
(-0.0229894 0.000142956 0.000682066)
(-0.0243771 0.000120637 0.000628447)
(-0.0236571 0.000142325 0.00133425)
(-0.0218321 0.000116413 0.00121861)
(-0.0230118 0.000116811 0.00122814)
(-0.0237363 0.000520377 0.00130438)
(-0.0219561 0.000474731 0.00119769)
(-0.0231835 0.000482516 0.00120339)
(-0.0220869 0.000416881 0.00104941)
(-0.0235629 0.000396873 0.000991275)
(-0.0226059 0.000312642 0.000845834)
(-0.0240805 0.000281467 0.000785147)
(-0.0230843 0.000189344 0.000669728)
(-0.0245287 0.000138803 0.00060095)
(-0.0236103 0.000531825 0.00134139)
(-0.0216788 0.000472433 0.00120978)
(-0.0228303 0.000499805 0.00122318)
(-0.0214968 0.000416655 0.00104946)
(-0.0229404 0.000413985 0.00100051)
(-0.021698 0.000318393 0.000831129)
(-0.0232205 0.000308281 0.000774915)
(-0.0219098 0.000218323 0.000633886)
(-0.0234802 0.000193602 0.000568367)
(-0.0234563 0.000372657 0.00137173)
(-0.0214021 0.000324097 0.00122055)
(-0.0224723 0.000339986 0.00124213)
(-0.0209258 0.000277137 0.00104509)
(-0.022324 0.000267839 0.000998012)
(-0.0208327 0.000199851 0.000805392)
(-0.0223757 0.000180734 0.000733661)
(-0.0207944 0.000123923 0.000581789)
(-0.0224565 9.97141e-05 0.000508328)
(-0.0233828 0.000121319 0.00138583)
(-0.0213054 0.000104932 0.00123174)
(-0.0223269 0.00010361 0.0012551)
(-0.0207272 7.95837e-05 0.00104649)
(-0.0220912 7.19481e-05 0.00100583)
(-0.0235182 0.000568198 0.0011663)
(-0.021631 0.000513355 0.00107198)
(-0.0227106 0.000524444 0.00107948)
(-0.0214088 0.000447787 0.00094511)
(-0.022757 0.000429893 0.000897201)
(-0.0215905 0.000336629 0.00077517)
(-0.022993 0.000304834 0.000719571)
(-0.0218007 0.000206752 0.000636947)
(-0.0232136 0.000152388 0.00057693)
(-0.0233608 0.000577689 0.00119552)
(-0.0212978 0.000507583 0.00108035)
(-0.0222931 0.000542171 0.0010889)
(-0.0207024 0.000441398 0.000924114)
(-0.022035 0.000438103 0.000877379)
(-0.0205259 0.000327354 0.000733636)
(-0.0220172 0.000305794 0.000680914)
(-0.0204579 0.000215498 0.00057098)
(-0.0220664 0.000179043 0.000514541)
(-0.0231772 0.000407028 0.0012134)
(-0.0209695 0.000353187 0.00108747)
(-0.0218648 0.000376258 0.00109754)
(-0.0200061 0.000294235 0.000906306)
(-0.0213238 0.000289433 0.000856904)
(-0.0195182 0.000210787 0.000687407)
(-0.02109 0.000192271 0.000612268)
(-0.0192701 0.000136756 0.00050155)
(-0.0209856 0.000114468 0.000406581)
(-0.0230951 0.00011956 0.00121905)
(-0.0208308 0.000103312 0.00108969)
(-0.0216875 0.000105409 0.00109628)
(-0.0197307 8.43108e-05 0.000893056)
(-0.0210449 8.66784e-05 0.000841341)
(-0.0191399 7.48432e-05 0.000668102)
(-0.0207427 8.457e-05 0.000598138)
(-0.0233837 0.00060899 0.000884407)
(-0.0214334 0.000546367 0.000816295)
(-0.0224204 0.000554547 0.000814542)
(-0.020979 0.000465179 0.0007148)
(-0.0222249 0.000441906 0.000667372)
(-0.0208944 0.000351149 0.000578079)
(-0.0222118 0.000317352 0.000524216)
(-0.0208439 0.000221247 0.000457129)
(-0.0221937 0.000168447 0.000380963)
(-0.0231992 0.000613786 0.000897821)
(-0.0210435 0.00053771 0.000811186)
(-0.0219402 0.000570876 0.000808065)
(-0.0201535 0.000456118 0.000681492)
(-0.0214189 0.000450909 0.000632901)
(-0.0196974 0.000337834 0.000524464)
(-0.0211644 0.000301204 0.000474585)
(-0.0193702 0.000215395 0.000391034)
(-0.0209928 0.000144808 0.000338444)
(-0.022997 0.000415625 0.000901818)
(-0.020688 0.000362118 0.000804405)
(-0.0214728 0.000378631 0.000789532)
(-0.0193973 0.00029296 0.000647129)
(-0.0206542 0.000278898 0.000595665)
(-0.0186129 0.000203232 0.000472464)
(-0.0201925 0.000163588 0.000427604)
(-0.0181664 0.000120303 0.000325821)
(-0.0199148 6.39109e-05 0.00027061)
(-0.0229169 0.00011098 0.000899064)
(-0.0205576 8.72173e-05 0.000803217)
(-0.0213022 7.58994e-05 0.000787979)
(-0.019144 6.13648e-05 0.000645068)
(-0.0203968 4.88523e-05 0.0005984)
(-0.0182918 4.80687e-05 0.0004666)
(-0.0198981 4.78672e-05 0.000416798)
(-0.0178075 4.02637e-05 0.000313632)
(-0.0196091 3.8334e-05 0.000252548)
)
;

boundaryField
{
    inlet
    {
        type            calculated;
        value           nonuniform List<vector> 
16
(
(-0.01 5.34132e-11 2.10325e-11)
(-0.01 -3.81187e-11 6.8179e-12)
(-0.01 2.17097e-10 2.21008e-10)
(-0.01 -6.03618e-11 2.92472e-10)
(-0.01 6.58884e-11 8.7589e-11)
(-0.01 2.00743e-11 1.18351e-10)
(-0.01 6.71604e-11 2.4766e-10)
(-0.01 -1.57861e-11 4.0588e-10)
(-0.01 3.84653e-11 1.3207e-10)
(-0.01 1.7028e-11 1.91124e-10)
(-0.01 7.06558e-11 2.32698e-10)
(-0.01 -1.16513e-10 3.44105e-10)
(-0.01 1.89465e-11 8.0539e-11)
(-0.01 -4.14538e-12 7.05422e-11)
(-0.01 1.60857e-10 2.20857e-10)
(-0.01 -9.16703e-13 1.99155e-10)
)
;
    }
    outlet
    {
        type            calculated;
        value           nonuniform 0();
    }
    wall
    {
        type            calculated;
        value           nonuniform List<vector> 
66
(
(7.31431e-11 5.34132e-11 2.10325e-11)
(1.1035e-10 -3.81187e-11 6.8179e-12)
(3.31241e-10 2.17097e-10 2.21008e-10)
(3.01134e-10 -6.03618e-11 2.92472e-10)
(1.58964e-11 1.47381e-10 1.33752e-10)
(-3.10334e-11 1.31487e-10 3.58929e-10)
(2.75062e-10 1.0883e-10 6.02963e-10)
(5.26124e-10 1.01425e-12 7.02996e-10)
(5.67112e-10 5.90924e-09 2.89319e-10)
(2.9787e-10 -1.61981e-10 3.28185e-10)
(4.06162e-10 1.55329e-11 9.10404e-10)
(6.57882e-10 -2.71816e-10 8.57954e-10)
(8.53185e-11 4.65119e-10 5.72445e-10)
(1.04027e-10 -4.26959e-11 8.1192e-10)
(3.37607e-10 5.64976e-11 1.10997e-09)
(7.2007e-11 8.40041e-10 6.68493e-10)
(1.18134e-10 -3.0281e-10 1.21018e-09)
(4.69784e-10 -1.78085e-10 1.4318e-09)
(-1.72426e-10 2.4383e-10 9.00255e-10)
(-2.40926e-10 -6.46832e-11 1.4636e-09)
(-3.56238e-10 1.39846e-10 2.04279e-09)
(-4.90748e-10 4.97766e-10 1.27165e-09)
(2.62295e-10 -2.78772e-10 2.09197e-09)
(3.12629e-10 -4.6903e-10 2.45992e-09)
(-1.14572e-09 3.02751e-10 1.85828e-10)
(3.60077e-10 -3.9233e-10 2.63006e-09)
(-1.67324e-10 -1.18629e-09 3.09552e-09)
(-1.23144e-09 1.61343e-11 4.99567e-10)
(1.09546e-09 -2.99352e-09 4.50114e-09)
(5.37972e-10 -2.16149e-09 3.41886e-09)
(7.31431e-11 5.34132e-11 2.10325e-11)
(1.22556e-10 6.58884e-11 8.7589e-11)
(5.00005e-11 3.84653e-11 1.3207e-10)
(6.06205e-11 1.89465e-11 8.0539e-11)
(1.58964e-11 1.47381e-10 1.33752e-10)
(-1.50595e-10 1.10977e-10 2.3729e-10)
(-8.47926e-11 1.10582e-10 2.4101e-10)
(-3.35596e-11 9.93804e-11 1.44811e-10)
(5.67112e-10 5.90924e-09 2.89319e-10)
(9.76016e-11 1.72094e-10 3.42229e-10)
(8.83018e-11 1.6553e-11 3.33321e-10)
(1.86774e-10 -6.30162e-12 2.22915e-10)
(8.53185e-11 4.65119e-10 5.72445e-10)
(2.17332e-11 1.80347e-10 6.34699e-10)
(6.64666e-11 4.87257e-11 5.99772e-10)
(7.42436e-11 1.31391e-10 4.11636e-10)
(7.2007e-11 8.40041e-10 6.68493e-10)
(4.20896e-11 6.0044e-11 7.73562e-10)
(1.80163e-10 3.52313e-11 6.26628e-10)
(1.68387e-10 3.12326e-11 4.54321e-10)
(-1.72426e-10 2.4383e-10 9.00255e-10)
(-1.11068e-10 -5.22062e-11 9.9662e-10)
(1.18e-10 1.91286e-10 1.05319e-09)
(-2.97326e-11 1.60963e-10 7.98746e-10)
(-4.90748e-10 4.97766e-10 1.27165e-09)
(-3.67695e-10 -1.30012e-10 1.21766e-09)
(-1.54318e-10 -6.76808e-12 1.31178e-09)
(-7.31946e-11 1.56516e-10 1.07316e-09)
(-1.14572e-09 3.02751e-10 1.85828e-10)
(-3.84107e-10 2.22042e-11 -1.65905e-10)
(-8.91724e-11 -2.39905e-12 9.43854e-10)
(-1.67237e-10 -1.47557e-10 1.69038e-09)
(-1.23144e-09 1.61343e-11 4.99567e-10)
(-2.43721e-09 -1.75936e-09 3.81618e-09)
(-1.58408e-09 -9.15764e-10 5.03378e-09)
(-2.11875e-10 -4.29204e-10 3.6988e-09)
)
;
    }
    procBoundary0to1
    {
        type            processor;
        value           nonuniform List<vector> 
12
(
(-0.0254642 2.41057e-05 0.000622964)
(-0.0244151 0.000127976 0.000590085)
(-0.0232987 6.00171e-05 0.000533721)
(-0.0234588 3.63459e-05 0.000513358)
(-0.0220814 0.000110129 0.000472146)
(-0.0207449 5.10506e-05 0.00042041)
(-0.0219391 5.11371e-05 0.000524341)
(-0.0204471 0.000110386 0.000446347)
(-0.0191359 7.06224e-05 0.000363929)
(-0.0206765 8.52081e-05 0.000310363)
(-0.0190842 9.58614e-05 0.000259471)
(-0.0179536 5.0782e-05 0.000210607)
)
;
    }
    procBoundary0to2
    {
        type            processor;
        value           nonuniform List<vector> 
44
(
(-0.0218809 9.62884e-05 0.00107989)
(-0.0232827 9.30641e-05 0.00104161)
(-0.0222911 8.27778e-05 0.000871422)
(-0.0237033 8.30111e-05 0.000797401)
(-0.0226904 6.25985e-05 0.000637737)
(-0.0240967 5.63615e-05 0.000568494)
(-0.0236585 -0.000122877 0.00128689)
(-0.0218191 -0.000115822 0.00119066)
(-0.0218809 9.62884e-05 0.00107989)
(-0.0229974 -0.000131465 0.00119886)
(-0.0218809 9.62884e-05 0.00107989)
(-0.0232827 9.30641e-05 0.00104161)
(-0.0205443 6.22144e-05 0.000803009)
(-0.0220906 5.86595e-05 0.000733695)
(-0.0204876 4.31736e-05 0.000575518)
(-0.0221685 2.92126e-05 0.000500493)
(-0.0234197 -0.000161293 0.00134108)
(-0.0213524 -0.000138631 0.00120366)
(-0.0223829 -0.000159184 0.00122521)
(-0.0207821 -0.000139451 0.00103089)
(-0.0205443 6.22144e-05 0.000803009)
(-0.0221605 -0.000145788 0.000987961)
(-0.0205443 6.22144e-05 0.000803009)
(-0.0220906 5.86595e-05 0.000733695)
(-0.0188292 6.29802e-05 0.000475108)
(-0.0205922 6.30501e-05 0.000392589)
(-0.0231522 -0.000191895 0.00119935)
(-0.0209326 -0.000161117 0.00106752)
(-0.0217905 -0.000175744 0.001067)
(-0.0199031 -0.000141126 0.000883721)
(-0.0211866 -0.000136894 0.000830273)
(-0.0193396 -8.81706e-05 0.000663878)
(-0.0188292 6.29802e-05 0.000475108)
(-0.0208916 -5.94642e-05 0.00059057)
(-0.0188292 6.29802e-05 0.000475108)
(-0.0205922 6.30501e-05 0.000392589)
(-0.0229718 -0.000224005 0.000910002)
(-0.0206479 -0.000198361 0.000797343)
(-0.021422 -0.000225621 0.000788893)
(-0.0193536 -0.000171747 0.000651868)
(-0.0205948 -0.000179139 0.000601459)
(-0.0185893 -0.00011917 0.000476773)
(-0.0201337 -0.000104584 0.00040801)
(-0.0181107 -5.98155e-05 0.000331589)
)
;
    }
    procBoundary0to4
    {
        type            processor;
        value           nonuniform List<vector> 
36
(
(-0.0233611 0.000624588 0.000517659)
(-0.021426 0.000558104 0.00048184)
(-0.0223708 0.000566653 0.000467436)
(-0.0209158 0.000473915 0.000420476)
(-0.0221238 0.000447321 0.000370308)
(-0.0207907 0.000352968 0.00032484)
(-0.0220893 0.0003212 0.000273447)
(-0.0207412 0.000245156 0.000226742)
(-0.0221054 0.000212318 0.000138863)
(-0.0231697 0.000627473 0.000500502)
(-0.0210322 0.000545914 0.00045864)
(-0.0218856 0.000571367 0.000432302)
(-0.0200945 0.000456348 0.000380321)
(-0.021339 0.000445913 0.000326721)
(-0.0196269 0.000337706 0.00027967)
(-0.0210764 0.00031403 0.000226231)
(-0.019322 0.000231839 0.000185567)
(-0.020935 0.000191804 0.000114402)
(-0.0229761 0.000427967 0.000490347)
(-0.0206825 0.000374247 0.000441364)
(-0.021434 0.000389637 0.00040459)
(-0.0193945 0.000310204 0.000342624)
(-0.0206198 0.000306224 0.000287214)
(-0.0186402 0.000225996 0.00023742)
(-0.0201658 0.000199636 0.000201884)
(-0.0181495 0.000142174 0.000154324)
(-0.0199063 9.82896e-05 0.000126117)
(-0.0228845 0.0001322 0.000489434)
(-0.0205349 9.98432e-05 0.000433004)
(-0.0212323 0.000107619 0.000396666)
(-0.0190922 8.72049e-05 0.000338895)
(-0.0202937 9.0995e-05 0.000285196)
(-0.0181927 6.83343e-05 0.000233234)
(-0.0197548 5.88373e-05 0.000196479)
(-0.0176552 5.2663e-05 0.000155874)
(-0.0194543 5.19962e-05 0.000129994)
)
;
    }
    procBoundary0to6
    {
        type            processor;
        value           uniform (-0.0198687 -4.16243e-05 0.000265743);
    }
    procBoundary0to7
    {
        type            processor;
        value           uniform (-0.0175858 2.4394e-05 0.000201192);
    }
}


// ************************************************************************* //
