/*--------------------------------*- C++ -*----------------------------------*\
| =========                 |                                                 |
| \\      /  F ield         | OpenFOAM: The Open Source CFD Toolbox           |
|  \\    /   O peration     | Version:  4.x                                   |
|   \\  /    A nd           | Web:      www.OpenFOAM.org                      |
|    \\/     M anipulation  |                                                 |
\*---------------------------------------------------------------------------*/
FoamFile
{
    version     2.0;
    format      ascii;
    class       volScalarField;
    location    "1.5";
    object      Deff;
}
// * * * * * * * * * * * * * * * * * * * * * * * * * * * * * * * * * * * * * //

dimensions      [0 2 -1 0 0 0 0];

internalField   nonuniform List<scalar> 
132
(
9.98915e-08
9.98141e-08
9.97625e-08
9.97226e-08
9.95635e-08
9.94675e-08
9.94254e-08
9.95355e-08
9.96499e-08
9.97554e-08
9.96485e-08
9.95846e-08
9.95118e-08
9.95078e-08
9.9339e-08
9.9377e-08
9.93654e-08
9.93778e-08
9.97871e-08
9.95467e-08
9.94964e-08
9.94306e-08
9.94171e-08
9.93565e-08
9.93692e-08
9.93021e-08
9.91517e-08
9.96875e-08
9.95293e-08
9.951e-08
9.95617e-08
9.92968e-08
9.91192e-08
9.91002e-08
9.9012e-08
9.89713e-08
9.89771e-08
9.89874e-08
9.90317e-08
9.93857e-08
9.91538e-08
9.91141e-08
9.90226e-08
9.89409e-08
9.88884e-08
9.88762e-08
9.88311e-08
9.88704e-08
9.9255e-08
9.90623e-08
9.90372e-08
9.89831e-08
9.88774e-08
9.88142e-08
9.87754e-08
9.87891e-08
9.88141e-08
9.91015e-08
9.90854e-08
9.90279e-08
9.89776e-08
9.8725e-08
9.91704e-08
9.89797e-08
9.88252e-08
9.87801e-08
9.87273e-08
9.87317e-08
9.86348e-08
9.86374e-08
9.87205e-08
9.90279e-08
9.88736e-08
9.87933e-08
9.87311e-08
9.86394e-08
9.85947e-08
9.84984e-08
9.84465e-08
9.85428e-08
9.88833e-08
9.88275e-08
9.87034e-08
9.85502e-08
9.84714e-08
9.84378e-08
9.84212e-08
9.84915e-08
9.85041e-08
9.88177e-08
9.87399e-08
9.86134e-08
9.84925e-08
9.83997e-08
9.8366e-08
9.83297e-08
9.9064e-08
9.88861e-08
9.87099e-08
9.86524e-08
9.85392e-08
9.84346e-08
9.85063e-08
9.85374e-08
9.84464e-08
9.88935e-08
9.86633e-08
9.85466e-08
9.8489e-08
9.84519e-08
9.83924e-08
9.82713e-08
9.83265e-08
9.83135e-08
9.88648e-08
9.87022e-08
9.84714e-08
9.84016e-08
9.82986e-08
9.82078e-08
9.82169e-08
9.82884e-08
9.81839e-08
9.87826e-08
9.86132e-08
9.83705e-08
9.82393e-08
9.83268e-08
9.81052e-08
9.81362e-08
9.82604e-08
9.83187e-08
)
;

boundaryField
{
    inlet
    {
        type            calculated;
        value           uniform 0;
    }
    outlet
    {
        type            calculated;
        value           nonuniform 0();
    }
    wall
    {
        type            calculated;
        value           uniform 0;
    }
    procBoundary0to1
    {
        type            processor;
        value           uniform 0;
    }
    procBoundary0to2
    {
        type            processor;
        value           uniform 0;
    }
    procBoundary0to4
    {
        type            processor;
        value           uniform 0;
    }
    procBoundary0to6
    {
        type            processor;
        value           uniform 0;
    }
    procBoundary0to7
    {
        type            processor;
        value           uniform 0;
    }
}


// ************************************************************************* //
