/*--------------------------------*- C++ -*----------------------------------*\
| =========                 |                                                 |
| \\      /  F ield         | OpenFOAM: The Open Source CFD Toolbox           |
|  \\    /   O peration     | Version:  4.x                                   |
|   \\  /    A nd           | Web:      www.OpenFOAM.org                      |
|    \\/     M anipulation  |                                                 |
\*---------------------------------------------------------------------------*/
FoamFile
{
    version     2.0;
    format      ascii;
    class       volScalarField;
    location    "1.5";
    object      magGField;
}
// * * * * * * * * * * * * * * * * * * * * * * * * * * * * * * * * * * * * * //

dimensions      [1 -2 -1 0 0 0 0];

internalField   nonuniform List<scalar> 
132
(
113.093
51.5742
122.045
55.2571
127.647
59.6117
132.926
53.9439
142.942
105.634
51.5069
108.085
48.4618
100.355
26.3393
88.3379
14.964
83.5568
93.1982
33.5889
78.0981
12.2856
61.9165
1.90564
52.9133
1.99784
44.43
90.3541
27.8632
75.015
102.334
51.1008
114.821
60.3858
123.08
59.6107
128.391
48.9848
130.818
93.6576
37.7664
87.0154
30.2838
78.6225
19.8953
69.7168
11.1993
64.7064
78.8704
26.8212
62.1561
9.90091
50.7062
5.9618
43.6606
1.57048
38.2294
82.1368
24.5843
69.4101
8.13735
65.0335
99.7845
50.4035
117.214
73.023
133.185
79.2009
141.527
76.205
147.266
94.127
39.3178
92.8564
30.1145
84.5195
15.4452
79.2318
8.0437
75.4685
80.6028
29.0794
67.9081
9.23381
59.3202
3.65903
56.0221
0.470598
54.3471
83.5585
27.2019
76.3732
8.82479
75.7267
5.89554
77.7869
98.9699
52.9347
118.087
81.7436
141.929
99.4467
157.846
105.95
171.925
94.2287
39.5342
93.1936
33.0444
86.1378
12.5284
77.7542
1.98672
74.4865
84.8438
30.4734
70.8417
9.21823
57.4176
5.05489
53.4856
0.363455
54.5477
89.453
28.2328
84.8199
12.5775
82.6774
6.63774
84.5059
0.369456
88.2555
)
;

boundaryField
{
    inlet
    {
        type            calculated;
        value           uniform 67;
    }
    outlet
    {
        type            calculated;
        value           nonuniform 0();
    }
    wall
    {
        type            calculated;
        value           uniform 0;
    }
    procBoundary0to1
    {
        type            processor;
        value           nonuniform List<scalar> 
12
(
86.0343
34.5084
50.9649
58.4468
38.5375
46.9517
87.1535
22.6578
6.81101
119.946
1.24416
1.55774
)
;
    }
    procBoundary0to2
    {
        type            processor;
        value           nonuniform List<scalar> 
44
(
8.81223
68.3227
5.40929
66.0576
0.404168
62.6842
96.2561
39.2609
8.81223
86.1394
8.81223
68.3227
5.47057
63.3331
2.3079
63.6721
83.3527
31.1206
71.4258
11.2549
5.47057
62.3321
5.47057
63.3331
3.38759
81.5072
85.0094
27.9256
77.3402
11.8191
70.2214
4.12436
3.38759
68.1536
3.38759
81.5072
83.5805
20.5057
69.9826
6.77464
62.0397
0.815347
60.8784
0.642413
)
;
    }
    procBoundary0to4
    {
        type            processor;
        value           nonuniform List<scalar> 
36
(
100.56
51.8565
116.825
80.9007
138.774
98.9747
155.176
107.92
170.849
92.659
33.0953
86.9655
16.1966
78.4829
6.2244
71.8307
1.15656
67.8908
84.9145
31.7856
69.5514
8.98142
54.8892
1.96932
50.8901
0.799755
51.3235
92.6069
29.6535
83.8891
17.0898
74.421
5.007
70.5997
0.336926
71.5002
)
;
    }
    procBoundary0to6
    {
        type            processor;
        value           uniform 62.3178;
    }
    procBoundary0to7
    {
        type            processor;
        value           uniform 5.93789;
    }
}


// ************************************************************************* //
