/*--------------------------------*- C++ -*----------------------------------*\
| =========                 |                                                 |
| \\      /  F ield         | OpenFOAM: The Open Source CFD Toolbox           |
|  \\    /   O peration     | Version:  4.x                                   |
|   \\  /    A nd           | Web:      www.OpenFOAM.org                      |
|    \\/     M anipulation  |                                                 |
\*---------------------------------------------------------------------------*/
FoamFile
{
    version     2.0;
    format      ascii;
    class       volScalarField;
    location    "1.5";
    object      p;
}
// * * * * * * * * * * * * * * * * * * * * * * * * * * * * * * * * * * * * * //

dimensions      [1 -1 -2 0 0 0 0];

internalField   nonuniform List<scalar> 
132
(
3891.19
3967.26
4100.49
4257.53
4473.93
4707.24
5113.32
5539.25
6209.54
3903.42
3925.15
4055.06
4179.33
4383.69
4584.06
4926.3
5260.47
5787.68
3881.27
3878.93
3978.78
4070.09
4230.06
4369.57
4603.33
4801.24
5071.72
3809.79
3824.61
3891.79
2048.51
2093.95
2219.81
2355.29
2583.53
2820.95
3226.66
3654.27
4350.63
2036.05
2064.47
2177.91
2293.86
2497.35
2698.17
3039.26
3369.16
3909.97
2000.63
2014.86
2105.34
2192.23
2349.73
2486.78
2715.01
2899.68
3175.5
1937.15
1946.46
2016.98
2067.3
2175.12
192.007
224.772
342.098
465.869
693.966
921.437
1328.55
1742.83
2434.45
168.276
194.152
303.818
409.752
612.918
799.015
1146.59
1469.4
1996.66
123.088
140.62
235.126
315.555
470.877
594.772
821.387
997.233
1260.58
62.5739
70.5383
145.725
192.212
301.102
349.066
466.489
-1668.29
-1641.23
-1533.91
-1417.87
-1203.12
-989.483
-596.02
-222.976
436.204
-1694.06
-1672.85
-1568.6
-1470.87
-1278.96
-1108.13
-760.701
-478.896
51.3398
-1743.07
-1726.91
-1634.36
-1557.03
-1412.94
-1297.23
-1078.3
-884.045
-628.399
-1803.49
-1797.54
-1721.93
-1677.96
-1573.61
-1529.92
-1419.34
-1472.36
-1312.99
)
;

boundaryField
{
    inlet
    {
        type            calculated;
        value           nonuniform List<scalar> 
16
(
3891.19
3903.42
3881.27
3809.79
2048.51
2036.05
2000.63
1937.15
192.007
168.276
123.088
62.5743
-1668.29
-1694.06
-1743.07
-1803.49
)
;
    }
    outlet
    {
        type            calculated;
        value           nonuniform 0();
    }
    wall
    {
        type            calculated;
        value           nonuniform List<scalar> 
66
(
4829.08
4841.45
4819.32
4747.9
4904.3
4862.28
4815.94
4761.73
5037.2
4991.78
4915.65
4828.81
5194.34
5116.18
5007.22
5411
5320.98
5167.7
5644.5
5521.67
5307.46
6050.77
5864.25
5541.55
6476.96
6198.97
5739.95
7147.61
6726.67
6010.94
3891.19
2048.51
192.007
-1668.29
3967.26
2093.95
224.772
-1641.23
4100.5
2219.81
342.098
-1533.91
4257.53
2355.29
465.869
-1417.87
4473.93
2583.53
693.966
-1203.12
4707.24
2820.95
921.438
-989.482
5113.32
3226.66
1328.55
-596.019
5539.25
3654.27
1742.83
-222.977
6209.53
4350.63
2434.45
436.203
)
;
    }
    procBoundary0to1
    {
        type            processor;
        value           nonuniform List<scalar> 
12
(
6946.27
6292.96
5254.7
5123.34
4452.27
3312.39
3228.42
2549.43
1361.05
1113.28
496.47
-549.714
)
;
    }
    procBoundary0to2
    {
        type            processor;
        value           nonuniform List<scalar> 
44
(
3942.44
4051.4
4116.57
4236.09
4271.46
4337.67
3751.71
3753.07
3942.44
3804.37
3942.44
4051.4
2238.98
2352.39
2375.64
2442.13
1879.24
1878.28
1930.24
1947.56
2238.98
2009.44
2238.98
2352.39
462.774
539.472
6.46372
4.96192
58.7802
75.2658
138.53
124.256
462.774
158.531
462.774
539.472
-1859.44
-1859.89
-1807.4
-1790.42
-1733.32
-1747.25
-1714.89
-1834.72
)
;
    }
    procBoundary0to4
    {
        type            processor;
        value           nonuniform List<scalar> 
36
(
-3534.19
-3514.77
-3405.14
-3300.53
-3094.97
-2895.63
-2532.39
-2189.86
-1635.6
-3550.11
-3539.54
-3439.83
-3355.4
-3167.43
-3004.26
-2690.82
-2423.24
-1978.17
-3599.9
-3602.58
-3501.15
-3440.72
-3294
-3179.49
-2964.49
-2790.56
-2552.75
-3661.29
-3663.64
-3589.62
-3552.57
-3446.66
-3395.76
-3285.88
-3267.78
-3151.41
)
;
    }
    procBoundary0to6
    {
        type            processor;
        value           uniform -1822.39;
    }
    procBoundary0to7
    {
        type            processor;
        value           uniform -1471.33;
    }
}


// ************************************************************************* //
