/*--------------------------------*- C++ -*----------------------------------*\
| =========                 |                                                 |
| \\      /  F ield         | OpenFOAM: The Open Source CFD Toolbox           |
|  \\    /   O peration     | Version:  4.x                                   |
|   \\  /    A nd           | Web:      www.OpenFOAM.org                      |
|    \\/     M anipulation  |                                                 |
\*---------------------------------------------------------------------------*/
FoamFile
{
    version     2.0;
    format      ascii;
    class       volScalarField;
    location    "1.5";
    object      p_rgh;
}
// * * * * * * * * * * * * * * * * * * * * * * * * * * * * * * * * * * * * * //

dimensions      [1 -1 -2 0 0 0 0];

internalField   nonuniform List<scalar> 
132
(
-1736.16
-1654.98
-1519.73
-1363.31
-1148.5
-916.289
-511.331
-86.9891
581.099
-1724.77
-1697.59
-1565.3
-1441.73
-1240.05
-1041.57
-701.438
-370.58
153.771
-1747.01
-1743.13
-1642.47
-1552.61
-1395.77
-1257.91
-1025.99
-831.232
-563.619
-1818.92
-1798.1
-1730.31
-1705.22
-1657.57
-1530.6
-1395.25
-1167.58
-930.797
-525.704
-98.9204
596.41
-1717.81
-1687.34
-1573.26
-1457.84
-1255.29
-1055.42
-715.461
-386.909
152.611
-1753.24
-1736.73
-1645.94
-1559.93
-1403.55
-1267.64
-1040.62
-857.041
-582.385
-1816.76
-1805.13
-1734.27
-1684.86
-1577.45
-1685.32
-1651.87
-1534.16
-1410.36
-1182.4
-955.137
-548.249
-134.256
557.02
-1709.03
-1682.54
-1572.68
-1466.89
-1264.03
-1078.28
-731.121
-408.794
117.989
-1754.26
-1736.05
-1641.39
-1561.2
-1406.16
-1282.64
-1056.57
-881.223
-618.335
-1814.78
-1806.11
-1730.74
-1684.55
-1576.03
-1528.35
-1411.26
-1668.29
-1641.23
-1533.91
-1417.87
-1203.12
-989.483
-596.02
-222.976
436.204
-1694.06
-1672.85
-1568.6
-1470.87
-1278.96
-1108.13
-760.701
-478.896
51.3398
-1743.07
-1726.91
-1634.36
-1557.03
-1412.94
-1297.23
-1078.3
-884.045
-628.399
-1803.49
-1797.54
-1721.93
-1677.96
-1573.61
-1529.92
-1419.34
-1472.36
-1312.99
)
;

boundaryField
{
    inlet
    {
        type            fixedFluxPressure;
        gradient        nonuniform List<scalar> 
16
(
-459.906
-400.375
-392.934
-362.424
-151.119
-141.24
-140.666
-137.856
-42.0943
-43.9714
-41.0569
-40.2946
0.00897103
0.00681828
0.0219944
0.0153821
)
;
        value           nonuniform List<scalar> 
16
(
-1742.55
-1730.33
-1752.47
-1823.96
-1707.32
-1719.77
-1755.2
-1818.68
-1685.91
-1709.64
-1754.83
-1815.34
-1668.29
-1694.06
-1743.07
-1803.49
)
;
    }
    outlet
    {
        type            fixedValue;
        value           nonuniform 0();
    }
    wall
    {
        type            fixedFluxPressure;
        gradient        nonuniform List<scalar> 
66
(
0.00648751
0.0169287
0.0632859
0.00317159
0.0388813
0.0651636
0.163033
0.192784
0.00327117
0.0427148
0.0952893
0.0875244
0.0906172
0.145985
0.491236
-0.00755001
0.0651114
0.154884
0.121668
0.178252
-1.46
0.0440232
-0.0677629
-0.0588731
-0.0750681
-0.494569
-2.44513
0.0173711
-0.0553219
-0.0687975
0.013503
0.00712662
0.00779116
0.00402444
0.0438382
0.0331682
0.0124557
0.00744938
0.0365955
0.0233191
0.0309315
0.00791532
0.0169781
-0.0185822
-0.017366
-0.000886778
0.0119703
-0.01988
-0.0149575
0.0142709
-0.0233078
0.0531528
0.0843721
0.0708208
-0.0454193
-0.0631702
0.0968952
0.0586028
-0.105674
0.0140708
0.138664
-0.049667
-0.228815
-0.0343036
-0.0373194
-0.0365396
)
;
        value           nonuniform List<scalar> 
66
(
-1736.16
-1724.77
-1747.01
-1818.92
-1654.98
-1697.59
-1743.13
-1798.1
-1519.73
-1565.3
-1642.46
-1730.31
-1363.31
-1441.73
-1552.6
-1148.5
-1240.05
-1395.76
-916.287
-1041.56
-1257.93
-511.33
-701.439
-1025.99
-86.9901
-370.588
-831.266
581.099
153.77
-563.62
-1736.16
-1705.22
-1685.32
-1668.29
-1654.98
-1657.57
-1651.87
-1641.23
-1519.73
-1530.6
-1534.16
-1533.91
-1363.31
-1395.25
-1410.36
-1417.87
-1148.5
-1167.58
-1182.4
-1203.12
-916.289
-930.796
-955.136
-989.482
-511.331
-525.705
-548.248
-596.019
-86.9906
-98.9202
-134.254
-222.977
581.095
596.41
557.02
436.203
)
;
    }
    procBoundary0to1
    {
        type            processor;
        value           nonuniform List<scalar> 
12
(
1316.17
656.978
-382.661
1368.14
693.819
-446.274
1350.64
670.332
-518.223
1113.28
496.47
-549.714
)
;
    }
    procBoundary0to2
    {
        type            processor;
        value           nonuniform List<scalar> 
44
(
-1680.92
-1574.53
-1511.39
-1394.1
-1361.29
-1297.22
-1876.39
-1869.27
-1680.92
-1815.63
-1680.92
-1574.53
-1514.98
-1402.53
-1380.2
-1314.58
-1874.67
-1873.35
-1820.73
-1804.57
-1514.98
-1743.65
-1514.98
-1402.53
-1415.33
-1338.8
-1870.92
-1871.79
-1817.7
-1801.51
-1738.62
-1753.23
-1415.33
-1719.32
-1415.33
-1338.8
-1859.44
-1859.89
-1807.4
-1790.42
-1733.32
-1747.25
-1714.89
-1834.72
)
;
    }
    procBoundary0to4
    {
        type            processor;
        value           nonuniform List<scalar> 
36
(
-1656.5
-1637.33
-1527.87
-1423.31
-1217.74
-1018.33
-654.998
-312.34
242.074
-1672.46
-1662.13
-1562.52
-1478.05
-1289.96
-1126.56
-812.852
-545.061
-99.6766
-1722.25
-1725.22
-1623.91
-1563.42
-1416.53
-1301.78
-1086.47
-912.25
-674.146
-1783.65
-1786.29
-1712.39
-1675.28
-1569.22
-1518.08
-1407.95
-1389.56
-1272.98
)
;
    }
    procBoundary0to6
    {
        type            processor;
        value           uniform -1822.39;
    }
    procBoundary0to7
    {
        type            processor;
        value           uniform -1471.33;
    }
}


// ************************************************************************* //
