/*--------------------------------*- C++ -*----------------------------------*\
| =========                 |                                                 |
| \\      /  F ield         | OpenFOAM: The Open Source CFD Toolbox           |
|  \\    /   O peration     | Version:  4.x                                   |
|   \\  /    A nd           | Web:      www.OpenFOAM.org                      |
|    \\/     M anipulation  |                                                 |
\*---------------------------------------------------------------------------*/
FoamFile
{
    version     2.0;
    format      ascii;
    class       volScalarField;
    location    "1.5";
    object      pSmooth;
}
// * * * * * * * * * * * * * * * * * * * * * * * * * * * * * * * * * * * * * //

dimensions      [1 -1 -2 0 0 0 0];

internalField   nonuniform List<scalar> 
132
(
1025.25
998.955
992.784
928.172
913.349
820.031
804.961
676.903
668.18
1025.55
999.675
994.485
932.916
917.207
824.254
808.4
680.33
671.348
1028.96
1002.57
996.765
936.712
917.185
832.063
814.551
688.502
683.731
1028.43
1001.51
996.297
1024.61
994.825
989.113
924.704
910.657
813.364
801.64
671.422
667.198
1028.29
998.516
992.186
929.249
914.971
819.251
804.315
676.826
669.89
1031.27
1001.13
994.229
934.174
918.039
828.874
811.734
681.925
679.853
1031.08
1000.11
995.752
934.492
919.987
1019.62
987.062
982.847
918.224
906.452
807.581
793.684
662.613
659.31
1024.04
991.568
987.789
923.712
911.306
813.701
799.774
667.91
663.571
1025.46
993.786
988.054
928.25
913.769
823.345
807.019
678.201
671.924
1025.43
993.397
990.786
930.604
918.142
822.34
807.761
1019.85
985.342
978.741
915.77
903.7
806.805
791.41
659.348
654.436
1024.67
990.032
985.296
921.989
910.113
812.713
795.758
662.325
656.881
1023.28
991.595
986.117
930.693
912.377
822.676
805.78
675.405
666.377
1024.31
991.242
988.124
929.322
917.014
822.907
804.634
668.293
661.272
)
;

boundaryField
{
    inlet
    {
        type            zeroGradient;
    }
    outlet
    {
        type            fixedValue;
        value           nonuniform 0();
    }
    wall
    {
        type            zeroGradient;
    }
    procBoundary0to1
    {
        type            processor;
        value           nonuniform List<scalar> 
12
(
501.368
498.885
512.409
498.949
498.851
513.045
493.512
493.95
508.231
486.726
488.617
501.632
)
;
    }
    procBoundary0to2
    {
        type            processor;
        value           nonuniform List<scalar> 
44
(
936.601
920.501
830.73
814.359
687.694
680.375
1026.67
999.44
936.601
994.258
936.601
920.501
827.046
811.185
681.486
675.373
1028.36
998.047
992.337
932.768
827.046
919.934
827.046
811.185
673.552
667.764
1023.71
991.241
987.717
930.174
918.138
828.092
673.552
812.858
673.552
667.764
1023.7
991.432
986.44
930.454
918.052
827.791
809.187
677.804
)
;
    }
    procBoundary0to4
    {
        type            processor;
        value           nonuniform List<scalar> 
36
(
1013.1
975.169
971.906
909.621
899.418
800.035
788.958
654.074
653.142
1017.3
982.298
979.698
916.337
904.935
806.561
792.799
658.777
655.163
1019.08
984.746
980.125
923.449
908.793
815.599
801.458
670.647
663.122
1019.35
984.793
983.945
923.063
913.173
818.649
800.668
668.045
657.601
)
;
    }
    procBoundary0to6
    {
        type            processor;
        value           uniform 666.139;
    }
    procBoundary0to7
    {
        type            processor;
        value           uniform 486.126;
    }
}


// ************************************************************************* //
