/*--------------------------------*- C++ -*----------------------------------*\
| =========                 |                                                 |
| \\      /  F ield         | OpenFOAM: The Open Source CFD Toolbox           |
|  \\    /   O peration     | Version:  4.x                                   |
|   \\  /    A nd           | Web:      www.OpenFOAM.org                      |
|    \\/     M anipulation  |                                                 |
\*---------------------------------------------------------------------------*/
FoamFile
{
    version     2.0;
    format      ascii;
    class       volScalarField;
    location    "1.5";
    object      rho;
}
// * * * * * * * * * * * * * * * * * * * * * * * * * * * * * * * * * * * * * //

dimensions      [1 -3 0 0 0 0 0];

internalField   nonuniform List<scalar> 
132
(
6692.4
6686.32
6683.93
6684.66
6686.55
6687.85
6689.19
6691.08
6693.69
6693.39
6686.91
6684.08
6684.92
6688.11
6690.35
6692.85
6696.8
6700.2
6693.51
6686.11
6685.13
6686.87
6690.58
6692.55
6694.75
6698.48
6701.9
6694.01
6686.88
6686.16
6696.26
6692.31
6690.34
6690.57
6691.57
6692.72
6693.82
6695.29
6697.13
6696.5
6692.84
6691.69
6692.64
6694.32
6696
6698.02
6700.43
6702.73
6696.51
6692.44
6691.87
6693.46
6695.45
6697.48
6699.65
6701.6
6703.66
6696.58
6692.45
6691.82
6693.46
6694.19
6697.91
6695.47
6694.08
6694
6694.46
6695.22
6696.01
6697.03
6698.27
6697.82
6695.64
6694.93
6695.45
6696.55
6697.8
6699.28
6701
6702.69
6697.96
6695.58
6695.02
6695.87
6696.85
6698.22
6700.15
6701.93
6703.56
6698
6695.5
6694.84
6695.9
6697.19
6698.24
6699.41
6698.88
6697.49
6696.55
6696.43
6696.6
6696.97
6697.43
6698.03
6698.78
6698.8
6697.49
6696.89
6697.33
6697.98
6698.86
6700.02
6701.23
6702.38
6698.72
6697.23
6696.71
6697.56
6698.03
6698.99
6700.41
6701.86
6702.89
6698.62
6696.9
6696.47
6697.15
6698.05
6698.27
6699.72
6700.86
6701.88
)
;

boundaryField
{
    inlet
    {
        type            calculated;
        value           uniform 6700;
    }
    outlet
    {
        type            calculated;
        value           nonuniform 0();
    }
    wall
    {
        type            calculated;
        value           nonuniform List<scalar> 
66
(
6692.4
6693.39
6693.51
6694.01
6686.32
6686.91
6686.11
6686.88
6683.93
6684.08
6685.13
6686.16
6684.66
6684.92
6686.87
6686.55
6688.11
6690.58
6687.85
6690.35
6692.55
6689.19
6692.85
6694.75
6691.08
6696.8
6698.48
6693.69
6700.2
6701.9
6692.4
6696.26
6697.91
6698.88
6686.32
6692.31
6695.47
6697.49
6683.93
6690.34
6694.08
6696.55
6684.66
6690.57
6694
6696.43
6686.55
6691.57
6694.46
6696.6
6687.85
6692.72
6695.22
6696.97
6689.19
6693.82
6696.01
6697.43
6691.08
6695.29
6697.03
6698.03
6693.69
6697.13
6698.27
6698.78
)
;
    }
    procBoundary0to1
    {
        type            processor;
        value           nonuniform List<scalar> 
12
(
6695.67
6702.66
6704.3
6698.87
6704.67
6705.07
6699.54
6704.21
6704.84
6699.6
6703.48
6703.85
)
;
    }
    procBoundary0to2
    {
        type            processor;
        value           nonuniform List<scalar> 
44
(
6687.65
6690.71
6693.13
6695.77
6698.82
6701.36
6693.28
6686.43
6687.65
6683.66
6687.65
6690.71
6696.67
6698.38
6700.02
6701.58
6696.58
6692.52
6691.32
6693.41
6696.67
6695.12
6696.67
6698.38
6700.66
6701.27
6698.12
6695.87
6694.9
6695.96
6697.28
6698.46
6700.66
6699.77
6700.66
6701.27
6698.89
6698.03
6697.3
6697.58
6698.27
6698.65
6700.32
6701.5
)
;
    }
    procBoundary0to4
    {
        type            processor;
        value           nonuniform List<scalar> 
36
(
6699.2
6698.3
6697.69
6697.52
6697.58
6697.81
6698.14
6698.58
6699.13
6699.07
6698.21
6697.82
6697.95
6698.4
6699.21
6700.19
6700.94
6702.07
6699.05
6698.02
6697.58
6697.83
6698.43
6699.25
6700.39
6701.41
6702.45
6699.04
6697.99
6697.57
6697.78
6698.3
6699.14
6700.06
6701.11
6701.85
)
;
    }
    procBoundary0to6
    {
        type            processor;
        value           uniform 6701.79;
    }
    procBoundary0to7
    {
        type            processor;
        value           uniform 6702.22;
    }
}


// ************************************************************************* //
