/*--------------------------------*- C++ -*----------------------------------*\
| =========                 |                                                 |
| \\      /  F ield         | OpenFOAM: The Open Source CFD Toolbox           |
|  \\    /   O peration     | Version:  4.x                                   |
|   \\  /    A nd           | Web:      www.OpenFOAM.org                      |
|    \\/     M anipulation  |                                                 |
\*---------------------------------------------------------------------------*/
FoamFile
{
    version     2.0;
    format      ascii;
    class       volScalarField;
    location    "1.5";
    object      T;
}
// * * * * * * * * * * * * * * * * * * * * * * * * * * * * * * * * * * * * * //

dimensions      [0 0 0 1 0 0 0];

internalField   nonuniform List<scalar> 
132
(
299.997
299.995
299.994
299.994
299.997
299.998
300.001
300.004
300.008
299.997
299.994
299.994
299.994
299.995
299.998
300.002
300.005
300.008
299.996
299.994
299.994
299.993
299.995
299.998
300.002
300.006
300.007
299.998
299.995
299.995
299.998
299.995
299.994
299.994
299.995
299.998
300
300.004
300.007
299.997
299.994
299.992
299.993
299.994
299.997
300.001
300.005
300.009
299.997
299.993
299.992
299.992
299.993
299.996
300.001
300.004
300.008
299.996
299.993
299.991
299.991
299.993
299.997
299.994
299.993
299.993
299.994
299.996
299.999
300.003
300.006
299.996
299.993
299.991
299.991
299.992
299.995
299.999
300.003
300.007
299.996
299.992
299.99
299.99
299.991
299.994
299.998
300.002
300.005
299.996
299.992
299.989
299.989
299.99
299.992
299.997
299.997
299.994
299.993
299.992
299.994
299.995
299.997
300.001
300.004
299.996
299.993
299.99
299.99
299.991
299.993
299.997
300
300.005
299.994
299.991
299.989
299.988
299.989
299.992
299.995
300
300.003
299.995
299.991
299.988
299.987
299.987
299.991
299.995
299.998
300.002
)
;

boundaryField
{
    inlet
    {
        type            fixedValue;
        value           uniform 300;
    }
    outlet
    {
        type            zeroGradient;
    }
    wall
    {
        type            zeroGradient;
    }
    procBoundary0to1
    {
        type            processor;
        value           nonuniform List<scalar> 
12
(
300.01
300.011
300.008
300.012
300.012
300.009
300.012
300.012
300.007
300.01
300.009
300.006
)
;
    }
    procBoundary0to2
    {
        type            processor;
        value           nonuniform List<scalar> 
44
(
299.993
299.996
299.998
300.001
300.005
300.006
299.997
299.995
299.993
299.994
299.993
299.996
299.996
299.999
300.004
300.005
299.997
299.994
299.992
299.992
299.996
299.993
299.996
299.999
300.001
300.004
299.996
299.993
299.99
299.989
299.99
299.993
300.001
299.996
300.001
300.004
299.995
299.99
299.988
299.988
299.988
299.99
299.994
299.997
)
;
    }
    procBoundary0to4
    {
        type            processor;
        value           nonuniform List<scalar> 
36
(
299.997
299.994
299.992
299.992
299.993
299.994
299.997
300
300.003
299.996
299.992
299.989
299.989
299.99
299.992
299.995
299.998
300.003
299.995
299.991
299.988
299.987
299.988
299.99
299.994
299.998
300
299.995
299.991
299.987
299.986
299.987
299.989
299.993
299.996
299.999
)
;
    }
    procBoundary0to6
    {
        type            processor;
        value           uniform 299.999;
    }
    procBoundary0to7
    {
        type            processor;
        value           uniform 300.003;
    }
}


// ************************************************************************* //
