/*--------------------------------*- C++ -*----------------------------------*\
| =========                 |                                                 |
| \\      /  F ield         | OpenFOAM: The Open Source CFD Toolbox           |
|  \\    /   O peration     | Version:  4.x                                   |
|   \\  /    A nd           | Web:      www.OpenFOAM.org                      |
|    \\/     M anipulation  |                                                 |
\*---------------------------------------------------------------------------*/
FoamFile
{
    version     2.0;
    format      ascii;
    class       volVectorField;
    location    "1.5";
    object      UsNext;
}
// * * * * * * * * * * * * * * * * * * * * * * * * * * * * * * * * * * * * * //

dimensions      [0 1 -1 0 0 0 0];

internalField   nonuniform List<vector> 
132
(
(-4.21136e-06 -1.43861e-06 -6.91183e-07)
(-7.57118e-06 -2.09684e-06 -1.85975e-06)
(-1.33556e-05 -4.01311e-06 -3.5872e-07)
(-2.66231e-05 -8.22694e-07 -4.39096e-06)
(-4.3819e-05 -1.29174e-06 8.14737e-07)
(-6.27679e-05 1.14989e-06 -6.00249e-06)
(-6.7072e-05 4.89275e-06 -4.74236e-06)
(-9.00343e-05 4.70389e-06 3.34152e-06)
(-0.000108728 2.7431e-05 -2.0825e-06)
(-7.44772e-06 -3.99203e-06 -1.67989e-06)
(-2.04117e-05 -3.8808e-07 -3.09868e-06)
(-3.26541e-05 1.25333e-06 -4.14112e-06)
(-4.34422e-05 2.18472e-06 -6.20493e-06)
(-5.40645e-05 1.72074e-06 -5.57549e-06)
(-6.89805e-05 -1.73435e-06 -3.93221e-06)
(-0.000104655 4.95579e-06 4.9462e-06)
(-0.000124025 8.70132e-06 6.25355e-06)
(-0.000135116 1.64044e-05 3.9018e-06)
(-1.96668e-05 1.29321e-07 -5.56176e-06)
(-2.61005e-05 1.42022e-06 -5.0758e-06)
(-3.6466e-05 2.80155e-06 -6.72863e-06)
(-4.54694e-05 1.42678e-06 -5.39404e-06)
(-5.8627e-05 7.88834e-07 -8.27677e-06)
(-7.98969e-05 -2.26442e-06 2.65929e-06)
(-0.000100163 2.47328e-06 2.62723e-06)
(-0.000110506 1.50364e-06 4.52321e-06)
(-0.000126074 8.99488e-06 2.61993e-06)
(-6.5855e-06 2.32582e-09 -2.69356e-07)
(-2.50498e-05 2.25358e-06 -4.99218e-06)
(-3.46442e-05 3.34654e-06 -5.96286e-06)
(-3.43262e-06 -6.74473e-07 -2.55608e-07)
(-9.1485e-06 -1.52854e-06 -7.5752e-07)
(-1.29e-05 -2.32708e-06 -4.80509e-07)
(-2.69735e-05 9.47838e-07 -4.10476e-06)
(-4.19406e-05 1.99245e-06 -1.11751e-06)
(-4.71098e-05 -2.52992e-06 -4.48995e-06)
(-7.8286e-05 6.34368e-06 1.51026e-06)
(-0.000111911 -5.46984e-07 7.71647e-06)
(-0.000128403 3.58136e-06 -2.33109e-06)
(-7.18131e-06 -1.29194e-06 -6.91849e-07)
(-1.62116e-05 -3.80906e-07 -3.56507e-06)
(-2.76221e-05 -2.50561e-06 -3.78497e-06)
(-4.0361e-05 5.04583e-07 -7.03768e-06)
(-5.67273e-05 1.44223e-06 -2.91595e-06)
(-7.28601e-05 -3.40752e-06 -1.15547e-07)
(-0.000107701 5.43519e-06 3.23852e-06)
(-0.000130447 6.32204e-06 6.57666e-06)
(-0.000135456 1.23351e-05 5.00735e-06)
(-9.21483e-06 -6.91408e-07 -4.08841e-08)
(-2.30593e-05 1.07087e-06 -3.94271e-06)
(-3.52609e-05 1.40996e-06 -5.9328e-06)
(-4.88795e-05 2.68255e-06 -4.03782e-06)
(-6.72825e-05 1.45141e-06 -3.26381e-07)
(-8.62894e-05 -4.34984e-06 1.19441e-06)
(-0.000107566 2.99261e-06 -3.15428e-06)
(-0.000121401 4.83293e-06 3.80623e-06)
(-0.000132351 1.32315e-05 6.91311e-06)
(-9.19022e-06 -3.82994e-08 -8.99811e-07)
(-2.18816e-05 1.07398e-06 -5.11064e-06)
(-2.92575e-05 -2.9996e-06 -5.09536e-06)
(-5.24347e-05 1.62418e-06 -2.03854e-06)
(-6.25058e-05 -2.37234e-06 5.19054e-07)
(-1.96557e-06 -7.07965e-07 3.32874e-07)
(-5.57513e-06 -5.56531e-07 1.65226e-06)
(-1.22217e-05 -3.08158e-06 -9.37399e-07)
(-2.31043e-05 1.04494e-06 -4.02074e-06)
(-3.85318e-05 1.58027e-06 -1.42896e-06)
(-6.13717e-05 -5.19116e-06 -2.71947e-06)
(-8.27025e-05 -1.03835e-05 8.34631e-06)
(-9.9837e-05 -8.04408e-06 7.99541e-06)
(-0.000131916 4.21084e-06 -3.12193e-06)
(-3.11671e-06 -1.80478e-06 4.42714e-09)
(-9.58664e-06 -1.72726e-06 4.66163e-08)
(-2.25581e-05 -4.24218e-06 -1.70715e-06)
(-3.61435e-05 -4.19692e-06 -7.53845e-06)
(-5.41252e-05 9.78537e-07 1.42989e-06)
(-7.6029e-05 -4.57971e-06 9.6723e-07)
(-0.000104488 -7.6879e-06 4.60623e-06)
(-0.000125916 3.6913e-06 2.88957e-06)
(-0.000139932 8.08892e-06 2.32222e-06)
(-4.37488e-06 -7.99526e-07 2.42698e-07)
(-1.28586e-05 -6.00061e-07 -2.5741e-06)
(-3.33387e-05 -4.6469e-06 -2.09451e-06)
(-4.74992e-05 -6.88071e-06 -2.81006e-06)
(-6.73166e-05 -2.37087e-06 1.89607e-06)
(-8.25293e-05 -6.57706e-06 2.72649e-06)
(-0.000105437 -2.75893e-06 3.16112e-06)
(-0.000129721 1.81609e-06 4.69393e-06)
(-0.000139011 4.16082e-06 1.12756e-05)
(-4.44512e-06 5.07671e-08 -7.58951e-07)
(-1.73832e-05 2.76127e-06 -4.50923e-06)
(-2.69557e-05 -3.79802e-06 -3.88477e-06)
(-4.31931e-05 -4.57449e-06 5.85049e-07)
(-6.70617e-05 -2.03026e-06 8.72735e-07)
(-8.09227e-05 -6.68833e-06 4.24056e-06)
(-0.000105072 -6.2233e-06 4.52778e-06)
(-1.64681e-06 -3.59966e-07 4.09358e-08)
(-4.37285e-06 -3.46333e-07 1.29286e-07)
(-1.04786e-05 -7.83834e-07 -8.5518e-07)
(-2.31808e-05 5.88413e-08 -5.31099e-06)
(-3.37051e-05 -1.56945e-06 -1.68146e-06)
(-5.54047e-05 -5.29291e-06 -4.37854e-06)
(-7.66866e-05 -6.80149e-06 -3.59473e-06)
(-0.000117154 3.87591e-06 6.09026e-06)
(-0.000143907 4.58063e-06 -3.43923e-06)
(-1.19179e-06 -6.00841e-07 2.9205e-07)
(-5.58003e-06 -1.09042e-06 1.78804e-07)
(-1.67804e-05 7.04777e-07 -1.0726e-07)
(-4.12023e-05 -9.52444e-07 -2.39121e-06)
(-5.4829e-05 -3.4698e-06 -5.27067e-07)
(-6.60253e-05 -3.84023e-06 -1.11701e-06)
(-9.93931e-05 -8.67386e-06 2.44787e-06)
(-0.000132715 8.34114e-06 3.41991e-06)
(-0.000142027 3.98683e-06 5.54511e-06)
(-3.46955e-06 -5.37803e-08 -1.91327e-06)
(-6.75731e-06 1.73575e-06 -1.30715e-06)
(-2.29773e-05 7.99608e-07 -1.16298e-06)
(-3.94321e-05 -2.92988e-06 1.55486e-06)
(-6.03172e-05 -6.72324e-06 1.71403e-06)
(-7.88237e-05 -4.94682e-06 1.55697e-06)
(-0.000103102 -7.12777e-06 4.81424e-06)
(-0.000125256 -2.47801e-06 2.6908e-06)
(-0.000135278 -4.65285e-06 1.12398e-05)
(-2.57222e-06 1.27123e-07 -8.85184e-07)
(-1.07705e-05 2.27353e-06 -2.10709e-06)
(-2.41418e-05 6.02101e-07 3.3464e-07)
(-3.95756e-05 -2.53123e-06 -2.93984e-06)
(-5.65929e-05 -6.94315e-06 -3.01871e-06)
(-8.20745e-05 -8.73976e-06 1.92509e-06)
(-0.000106298 -8.26899e-06 4.14424e-06)
(-0.000116242 -7.89872e-06 7.89847e-06)
(-0.000129904 -2.1446e-06 1.44964e-05)
)
;

boundaryField
{
    inlet
    {
        type            calculated;
        value           nonuniform List<vector> 
16
(
(-4.21136e-06 -1.43861e-06 -6.91183e-07)
(-7.44772e-06 -3.99203e-06 -1.67989e-06)
(-1.96668e-05 1.29321e-07 -5.56176e-06)
(-6.5855e-06 2.32582e-09 -2.69356e-07)
(-3.43262e-06 -6.74473e-07 -2.55608e-07)
(-7.18131e-06 -1.29194e-06 -6.91849e-07)
(-9.21483e-06 -6.91408e-07 -4.08841e-08)
(-9.19022e-06 -3.82994e-08 -8.99811e-07)
(-1.96557e-06 -7.07965e-07 3.32874e-07)
(-3.11671e-06 -1.80478e-06 4.42714e-09)
(-4.37488e-06 -7.99526e-07 2.42698e-07)
(-4.44512e-06 5.07671e-08 -7.58951e-07)
(-1.64681e-06 -3.59966e-07 4.09358e-08)
(-1.19179e-06 -6.00841e-07 2.9205e-07)
(-3.46955e-06 -5.37803e-08 -1.91327e-06)
(-2.57222e-06 1.27123e-07 -8.85184e-07)
)
;
    }
    outlet
    {
        type            calculated;
        value           nonuniform 0();
    }
    wall
    {
        type            calculated;
        value           nonuniform List<vector> 
66
(
(-4.21136e-06 -1.43861e-06 -6.91183e-07)
(-7.44772e-06 -3.99203e-06 -1.67989e-06)
(-1.96668e-05 1.29321e-07 -5.56176e-06)
(-6.5855e-06 2.32582e-09 -2.69356e-07)
(-7.57118e-06 -2.09684e-06 -1.85975e-06)
(-2.04117e-05 -3.8808e-07 -3.09868e-06)
(-2.61005e-05 1.42022e-06 -5.0758e-06)
(-2.50498e-05 2.25358e-06 -4.99218e-06)
(-1.33556e-05 -4.01311e-06 -3.5872e-07)
(-3.26541e-05 1.25333e-06 -4.14112e-06)
(-3.6466e-05 2.80155e-06 -6.72863e-06)
(-3.46442e-05 3.34654e-06 -5.96286e-06)
(-2.66231e-05 -8.22694e-07 -4.39096e-06)
(-4.34422e-05 2.18472e-06 -6.20493e-06)
(-4.54694e-05 1.42678e-06 -5.39404e-06)
(-4.3819e-05 -1.29174e-06 8.14737e-07)
(-5.40645e-05 1.72074e-06 -5.57549e-06)
(-5.8627e-05 7.88834e-07 -8.27677e-06)
(-6.27679e-05 1.14989e-06 -6.00249e-06)
(-6.89805e-05 -1.73435e-06 -3.93221e-06)
(-7.98969e-05 -2.26442e-06 2.65929e-06)
(-6.7072e-05 4.89275e-06 -4.74236e-06)
(-0.000104655 4.95579e-06 4.9462e-06)
(-0.000100163 2.47328e-06 2.62723e-06)
(-9.00343e-05 4.70389e-06 3.34152e-06)
(-0.000124025 8.70132e-06 6.25355e-06)
(-0.000110506 1.50364e-06 4.52321e-06)
(-0.000108728 2.7431e-05 -2.0825e-06)
(-0.000135116 1.64044e-05 3.9018e-06)
(-0.000126074 8.99488e-06 2.61993e-06)
(-4.21136e-06 -1.43861e-06 -6.91183e-07)
(-3.43262e-06 -6.74473e-07 -2.55608e-07)
(-1.96557e-06 -7.07965e-07 3.32874e-07)
(-1.64681e-06 -3.59966e-07 4.09358e-08)
(-7.57118e-06 -2.09684e-06 -1.85975e-06)
(-9.1485e-06 -1.52854e-06 -7.5752e-07)
(-5.57513e-06 -5.56531e-07 1.65226e-06)
(-4.37285e-06 -3.46333e-07 1.29286e-07)
(-1.33556e-05 -4.01311e-06 -3.5872e-07)
(-1.29e-05 -2.32708e-06 -4.80509e-07)
(-1.22217e-05 -3.08158e-06 -9.37399e-07)
(-1.04786e-05 -7.83834e-07 -8.5518e-07)
(-2.66231e-05 -8.22694e-07 -4.39096e-06)
(-2.69735e-05 9.47838e-07 -4.10476e-06)
(-2.31043e-05 1.04494e-06 -4.02074e-06)
(-2.31808e-05 5.88413e-08 -5.31099e-06)
(-4.3819e-05 -1.29174e-06 8.14737e-07)
(-4.19406e-05 1.99245e-06 -1.11751e-06)
(-3.85318e-05 1.58027e-06 -1.42896e-06)
(-3.37051e-05 -1.56945e-06 -1.68146e-06)
(-6.27679e-05 1.14989e-06 -6.00249e-06)
(-4.71098e-05 -2.52992e-06 -4.48995e-06)
(-6.13717e-05 -5.19116e-06 -2.71947e-06)
(-5.54047e-05 -5.29291e-06 -4.37854e-06)
(-6.7072e-05 4.89275e-06 -4.74236e-06)
(-7.8286e-05 6.34368e-06 1.51026e-06)
(-8.27025e-05 -1.03835e-05 8.34631e-06)
(-7.66866e-05 -6.80149e-06 -3.59473e-06)
(-9.00343e-05 4.70389e-06 3.34152e-06)
(-0.000111911 -5.46984e-07 7.71647e-06)
(-9.9837e-05 -8.04408e-06 7.99541e-06)
(-0.000117154 3.87591e-06 6.09026e-06)
(-0.000108728 2.7431e-05 -2.0825e-06)
(-0.000128403 3.58136e-06 -2.33109e-06)
(-0.000131916 4.21084e-06 -3.12193e-06)
(-0.000143907 4.58063e-06 -3.43923e-06)
)
;
    }
    procBoundary0to1
    {
        type            processor;
        value           nonuniform List<vector> 
12
(
(-0.000157052 4.01252e-05 -2.34677e-05)
(-0.000137784 1.20486e-05 6.21107e-06)
(-0.000146568 6.51551e-06 1.62803e-05)
(-0.000131167 1.09321e-05 6.37068e-07)
(-0.000141053 7.34801e-06 9.92058e-06)
(-0.000144792 6.75641e-06 1.58212e-05)
(-0.000131364 3.60258e-06 2.35789e-06)
(-0.000137936 5.53442e-06 1.14239e-05)
(-0.000141661 3.48793e-06 1.41689e-05)
(-9.26452e-05 1.30972e-06 2.03913e-06)
(-0.000136892 3.5166e-06 1.1672e-05)
(-0.000136752 2.01438e-06 1.32624e-05)
)
;
    }
    procBoundary0to2
    {
        type            processor;
        value           nonuniform List<vector> 
44
(
(-4.20367e-05 1.17342e-06 -8.19614e-06)
(-6.63138e-05 -1.27333e-06 -1.72236e-06)
(-8.75995e-05 -3.19003e-06 2.93175e-06)
(-0.000105408 -2.39967e-06 2.91944e-06)
(-0.000119669 7.70343e-07 5.30806e-06)
(-0.000132939 5.54518e-06 7.2218e-06)
(-1.85884e-05 4.71584e-06 -1.99141e-06)
(-2.35859e-05 3.03142e-06 -4.78494e-06)
(-4.20367e-05 1.17342e-06 -8.19614e-06)
(-3.67831e-05 4.41652e-06 -7.71192e-06)
(-4.20367e-05 1.17342e-06 -8.19614e-06)
(-6.63138e-05 -1.27333e-06 -1.72236e-06)
(-8.42242e-05 -6.68963e-06 4.34056e-06)
(-0.000104568 -5.43618e-06 1.86531e-06)
(-0.000123349 -1.90689e-06 6.41903e-06)
(-0.000133835 2.43629e-06 9.68255e-06)
(-7.29953e-06 1.45171e-06 -1.22434e-06)
(-2.12248e-05 1.5067e-06 -4.44643e-06)
(-3.27541e-05 1.48756e-06 -6.0012e-06)
(-4.78689e-05 2.69679e-06 -6.90891e-06)
(-8.42242e-05 -6.68963e-06 4.34056e-06)
(-5.92041e-05 1.54031e-07 -2.5695e-06)
(-8.42242e-05 -6.68963e-06 4.34056e-06)
(-0.000104568 -5.43618e-06 1.86531e-06)
(-0.000124619 -4.3067e-06 8.93859e-06)
(-0.000135073 -1.22553e-07 1.32351e-05)
(-5.55732e-06 -1.66442e-07 -1.30229e-06)
(-1.50933e-05 1.20106e-06 -3.63751e-06)
(-2.94232e-05 4.95957e-07 -4.39458e-06)
(-4.6221e-05 6.32994e-07 -5.4515e-06)
(-6.34231e-05 -2.33838e-06 -1.64257e-06)
(-8.17557e-05 -1.06818e-05 2.63971e-06)
(-0.000124619 -4.3067e-06 8.93859e-06)
(-0.00010012 -1.13493e-05 5.3328e-06)
(-0.000124619 -4.3067e-06 8.93859e-06)
(-0.000135073 -1.22553e-07 1.32351e-05)
(-4.627e-06 -1.662e-07 -5.39551e-07)
(-1.40856e-05 1.68092e-06 -1.78505e-06)
(-2.54286e-05 2.19764e-06 -3.00946e-06)
(-3.98696e-05 -1.32363e-06 -7.19255e-07)
(-5.76565e-05 -5.54563e-06 3.34213e-07)
(-8.19628e-05 -8.4312e-06 5.51607e-06)
(-0.000101388 -1.31803e-05 7.08551e-06)
(-0.00012083 -1.31727e-05 7.54067e-06)
)
;
    }
    procBoundary0to4
    {
        type            processor;
        value           nonuniform List<vector> 
36
(
(-1.49602e-06 -5.67667e-07 4.45969e-07)
(-3.17905e-06 -1.19611e-06 5.76103e-09)
(-8.25863e-06 -2.74853e-06 6.10958e-07)
(-2.65767e-05 -1.5841e-06 -4.17544e-06)
(-4.21587e-05 2.85254e-06 -7.45458e-06)
(-4.6433e-05 -7.7708e-06 -2.23018e-06)
(-8.76929e-05 -1.18973e-06 8.65329e-06)
(-0.00018837 4.35041e-06 2.23341e-05)
(-8.69679e-05 1.99391e-06 -8.17788e-06)
(-1.01419e-06 -1.87618e-06 -3.13462e-07)
(-5.6799e-06 -1.24205e-06 1.80164e-07)
(-1.40079e-05 2.37065e-06 2.95494e-07)
(-2.89753e-05 -1.46162e-08 -1.32862e-06)
(-4.61765e-05 -8.30001e-06 -2.56531e-07)
(-6.26652e-05 -1.01724e-05 -5.0488e-07)
(-0.000107818 -5.36489e-06 7.18973e-06)
(-0.000124588 1.4644e-06 7.47593e-06)
(-0.000138538 -1.86776e-05 1.11716e-05)
(-1.41088e-06 -1.0676e-06 -8.32732e-07)
(-8.57506e-06 -2.00613e-06 -4.21044e-07)
(-2.02506e-05 2.38749e-06 1.1045e-06)
(-3.1869e-05 3.56535e-06 2.47367e-06)
(-4.83643e-05 -4.64087e-06 -9.08501e-08)
(-7.12041e-05 -1.10833e-05 3.57714e-07)
(-9.55041e-05 -6.12798e-06 7.42964e-06)
(-0.000110983 -8.12309e-06 2.55064e-06)
(-0.000122318 -1.72557e-05 -1.82778e-06)
(-1.39191e-06 -1.08559e-06 -3.90305e-07)
(-7.23446e-06 -6.08023e-07 -1.00552e-06)
(-2.23196e-05 4.25907e-06 -9.71336e-07)
(-3.39268e-05 1.41077e-06 7.68096e-07)
(-5.10101e-05 -6.1276e-06 4.61589e-07)
(-8.134e-05 -1.01708e-05 3.77949e-06)
(-0.000100041 -9.07029e-06 5.55731e-06)
(-0.000116931 -1.36348e-05 8.34978e-06)
(-0.000120295 -9.37679e-07 7.739e-06)
)
;
    }
    procBoundary0to6
    {
        type            processor;
        value           uniform (-0.000127219 -2.01355e-06 1.2907e-05);
    }
    procBoundary0to7
    {
        type            processor;
        value           uniform (-0.000128317 1.32281e-06 1.77572e-05);
    }
}


// ************************************************************************* //
