/*--------------------------------*- C++ -*----------------------------------*\
| =========                 |                                                 |
| \\      /  F ield         | OpenFOAM: The Open Source CFD Toolbox           |
|  \\    /   O peration     | Version:  4.x                                   |
|   \\  /    A nd           | Web:      www.OpenFOAM.org                      |
|    \\/     M anipulation  |                                                 |
\*---------------------------------------------------------------------------*/
FoamFile
{
    version     2.0;
    format      ascii;
    class       volScalarField;
    location    "1.5";
    object      voidfraction;
}
// * * * * * * * * * * * * * * * * * * * * * * * * * * * * * * * * * * * * * //

dimensions      [0 0 0 0 0 0 0];

internalField   nonuniform List<scalar> 
132
(
0.507411
0.505556
0.504318
0.503356
0.49951
0.497177
0.496149
0.498831
0.501602
0.504146
0.501569
0.500023
0.498254
0.498158
0.494037
0.494967
0.494682
0.494986
0.504909
0.499103
0.497881
0.496275
0.495947
0.494465
0.494776
0.493129
0.489425
0.502511
0.498679
0.498211
0.499467
0.493001
0.488622
0.488153
0.485964
0.484951
0.485095
0.485351
0.486452
0.495179
0.489478
0.488496
0.486227
0.484193
0.482881
0.482577
0.481448
0.482432
0.491972
0.487211
0.486589
0.485244
0.482607
0.481023
0.48005
0.480393
0.48102
0.488184
0.487786
0.486358
0.485106
0.478782
0.489889
0.485161
0.481298
0.480167
0.478839
0.478951
0.476505
0.476569
0.478668
0.486357
0.48251
0.480499
0.478936
0.476621
0.475491
0.473047
0.471723
0.474173
0.482753
0.481358
0.478237
0.474361
0.472359
0.4715
0.471079
0.47287
0.47319
0.481111
0.479156
0.475963
0.472895
0.470529
0.469667
0.468739
0.487254
0.482824
0.478401
0.476949
0.474083
0.471419
0.473247
0.474036
0.471721
0.483009
0.477224
0.47427
0.472806
0.471861
0.470342
0.467239
0.468655
0.468323
0.482291
0.478206
0.472359
0.470576
0.467939
0.465605
0.465839
0.467679
0.464988
0.480229
0.475959
0.469783
0.466415
0.468663
0.462955
0.463756
0.466959
0.468455
)
;

boundaryField
{
    inlet
    {
        type            fixedValue;
        value           uniform 1;
    }
    outlet
    {
        type            fixedValue;
        value           nonuniform 0();
    }
    wall
    {
        type            zeroGradient;
    }
    procBoundary0to1
    {
        type            processor;
        value           nonuniform List<scalar> 
12
(
0.497348
0.494674
0.491163
0.484137
0.480705
0.477012
0.474062
0.470294
0.467871
0.467721
0.464075
0.462758
)
;
    }
    procBoundary0to2
    {
        type            processor;
        value           nonuniform List<scalar> 
44
(
0.494059
0.495167
0.494893
0.491458
0.494148
0.49244
0.497196
0.494291
0.494059
0.495156
0.494059
0.495167
0.477451
0.475169
0.479288
0.475934
0.489912
0.486455
0.483736
0.482294
0.477451
0.48039
0.477451
0.475169
0.469709
0.468784
0.481916
0.48134
0.478103
0.475467
0.473711
0.470856
0.469709
0.467891
0.469709
0.468784
0.478394
0.472915
0.469518
0.468656
0.467675
0.466176
0.464493
0.464208
)
;
    }
    procBoundary0to4
    {
        type            processor;
        value           nonuniform List<scalar> 
36
(
0.482378
0.476624
0.472436
0.4721
0.469978
0.469083
0.466336
0.46485
0.460187
0.476943
0.474331
0.470228
0.466505
0.465272
0.4652
0.464805
0.463847
0.458954
0.475991
0.470935
0.468688
0.464316
0.464024
0.463858
0.462305
0.458995
0.460932
0.476603
0.472327
0.467594
0.465956
0.463163
0.461415
0.457503
0.460934
0.461038
)
;
    }
    procBoundary0to6
    {
        type            processor;
        value           uniform 0.464219;
    }
    procBoundary0to7
    {
        type            processor;
        value           uniform 0.457838;
    }
}


// ************************************************************************* //
