/*--------------------------------*- C++ -*----------------------------------*\
  =========                 |
  \\      /  F ield         | OpenFOAM: The Open Source CFD Toolbox
   \\    /   O peration     | Website:  https://openfoam.org
    \\  /    A nd           | Version:  4.x
     \\/     M anipulation  |
\*---------------------------------------------------------------------------*/
FoamFile
{
    version     2.0;
    format      ascii;
    class       vectorField;
    location    0;
    object      v;
}
// * * * * * * * * * * * * * * * * * * * * * * * * * * * * * * * * * * * * * //

354
(
( -3.69143e-07 -1.2481e-07 1.18683e-07 )  
( -1.0481e-06 -1.45124e-07 2.27493e-07 )  
( -3.8806e-07 1.63348e-07 1.98489e-07 )  
( -1.98195e-06 1.42233e-07 8.71836e-09 )  
( -7.7177e-08 -6.4377e-08 2.96348e-07 )  
( -4.25049e-06 -3.52062e-07 3.96838e-07 )  
( -1.85241e-06 4.26224e-08 4.14652e-07 )  
( -9.32012e-08 -1.16933e-07 3.45915e-07 )  
( -2.52879e-07 -2.74849e-08 3.45173e-07 )  
( 6.87635e-08 4.25933e-08 1.20627e-07 )  
( -2.526e-06 7.93424e-08 2.74135e-07 )  
( -3.95731e-06 -1.70349e-07 2.20404e-07 )  
( -4.63323e-06 -8.8207e-08 2.52038e-07 )  
( -1.03688e-06 2.49872e-08 2.29788e-07 )  
( -2.34253e-06 -1.8626e-07 -2.50407e-07 )  
( -3.89264e-06 -5.61234e-07 3.28495e-07 )  
( -4.37634e-06 -5.54983e-07 1.898e-07 )  
( -1.63182e-06 -4.81996e-08 3.91879e-07 )  
( -4.32832e-06 -4.06612e-08 5.57579e-07 )  
( -5.17139e-06 2.44364e-07 -1.96347e-07 )  
( -3.6963e-06 -2.46607e-07 1.06537e-07 )  
( -9.18321e-07 -1.67664e-07 3.25479e-07 )  
( -2.28293e-06 -2.90502e-07 6.74654e-07 )  
( -4.08846e-06 -5.77446e-08 3.84794e-07 )  
( -9.86936e-07 -1.44276e-07 -1.90694e-08 )  
( -4.37263e-07 -6.33638e-08 1.78504e-07 )  
( -3.95067e-06 2.7207e-07 2.08053e-07 )  
( -4.906e-08 1.7525e-07 2.51377e-07 )  
( -2.97688e-07 -1.80086e-07 5.78779e-08 )  
( -2.89544e-06 -5.13175e-08 2.71095e-07 )  
( -1.88934e-06 4.24364e-08 4.55761e-07 )  
( -4.5248e-06 2.2758e-07 3.31988e-07 )  
( -9.09009e-09 1.36009e-07 2.76742e-07 )  
( -2.12961e-06 -2.93874e-07 5.05111e-07 )  
( 2.12529e-07 3.52361e-08 2.37788e-07 )  
( -2.79716e-06 -4.42954e-07 5.65308e-07 )  
( 6.21324e-08 -4.87368e-09 1.85152e-07 )  
( -9.23989e-07 -1.75857e-07 1.32276e-07 )  
( 3.83864e-08 -1.40518e-07 1.20252e-07 )  
( -9.8636e-07 -1.19569e-07 9.66309e-08 )  
( -2.50751e-06 -4.8584e-07 4.59868e-07 )  
( -2.73679e-06 -5.46115e-07 4.68061e-07 )  
( -4.72002e-06 3.04209e-07 -3.07769e-07 )  
( -3.70802e-06 -2.75096e-07 4.70137e-07 )  
( -8.14494e-07 -1.38317e-08 1.67425e-09 )  
( -3.10403e-06 -6.86631e-07 4.6202e-07 )  
( 1.17216e-08 5.36442e-08 1.39275e-07 )  
( -3.15358e-06 -2.30893e-07 5.63064e-07 )  
( -1.10786e-06 -6.03781e-08 4.581e-08 )  
( -1.19603e-06 -5.62097e-08 3.36446e-07 )  
( -1.30038e-06 -3.00284e-07 8.21009e-08 )  
( -3.45772e-06 -5.37299e-07 2.59945e-07 )  
( -2.78506e-06 -2.55043e-07 7.77502e-07 )  
( -1.09278e-06 9.22122e-10 2.53721e-07 )  
( -1.97351e-06 -6.79755e-08 5.18754e-07 )  
( -1.05105e-06 -1.08235e-07 8.06308e-08 )  
( -3.14618e-06 -3.83084e-07 5.95204e-07 )  
( -1.89528e-07 6.60744e-08 2.55603e-07 )  
( -5.761e-07 1.66269e-08 2.75371e-07 )  
( 3.1287e-09 7.57404e-08 2.51423e-07 )  
( -1.70379e-06 -6.18214e-07 2.15962e-07 )  
( 2.9839e-07 4.1499e-08 1.41502e-07 )  
( -6.89959e-07 -1.20067e-07 1.22965e-07 )  
( -1.68895e-06 -7.02728e-08 3.08536e-07 )  
( 1.27314e-08 7.12124e-08 1.50644e-07 )  
( -5.00118e-06 -2.48414e-07 1.09356e-07 )  
( -2.62903e-06 -5.58867e-07 4.58038e-07 )  
( -2.87455e-06 -4.78582e-07 3.01849e-07 )  
( -2.37766e-06 -2.12341e-07 3.90593e-07 )  
( -3.5274e-06 -3.44914e-07 3.4321e-07 )  
( -3.9818e-06 -2.63331e-07 3.87195e-07 )  
( -2.14127e-06 -1.60638e-07 6.96868e-07 )  
( -2.32232e-06 -1.93176e-07 3.9932e-08 )  
( 4.00607e-08 3.4688e-08 2.47506e-07 )  
( -1.83548e-07 6.17489e-08 2.17226e-07 )  
( 9.41233e-08 6.42252e-08 1.36772e-07 )  
( -9.74382e-07 -9.32059e-08 1.62436e-07 )  
( -3.55168e-06 -1.98917e-07 4.3058e-07 )  
( -2.98967e-06 -3.46024e-07 5.97765e-07 )  
( -2.34563e-07 -1.79673e-07 8.31292e-08 )  
( -2.46707e-07 1.24094e-07 2.83582e-07 )  
( -4.68594e-07 3.39913e-07 2.31816e-07 )  
( -1.2867e-06 -7.89885e-08 2.57657e-07 )  
( 8.84566e-08 6.42852e-08 1.60425e-07 )  
( -3.84985e-07 -1.99659e-07 1.5037e-07 )  
( -4.55325e-07 6.34576e-08 2.41193e-07 )  
( -3.93011e-06 -4.92914e-07 3.56715e-07 )  
( 1.74144e-07 1.13842e-08 1.05294e-07 )  
( 1.59823e-07 8.07924e-09 9.83675e-08 )  
( -4.165e-06 -3.0396e-07 2.80439e-07 )  
( -2.02103e-06 -2.60239e-07 4.01442e-07 )  
( -1.4798e-06 7.62263e-09 -4.51161e-08 )  
( -1.79937e-06 -3.4531e-07 1.90051e-07 )  
( -1.57235e-06 -3.04658e-07 3.75701e-07 )  
( -6.68964e-07 9.69579e-08 2.50376e-07 )  
( 6.67782e-08 4.51924e-08 5.32672e-08 )  
( -1.37585e-06 -1.60585e-07 1.00596e-07 )  
( -3.54185e-06 2.00825e-07 2.71641e-07 )  
( -3.35367e-06 -5.88297e-07 3.55037e-07 )  
( -4.79951e-06 -1.79092e-07 2.24489e-07 )  
( -4.5437e-06 -2.88093e-07 4.4323e-07 )  
( 7.75237e-08 -2.28444e-08 2.90659e-07 )  
( -2.32966e-06 2.54908e-08 3.58563e-07 )  
( -1.75197e-06 -4.37039e-07 1.42029e-07 )  
( 1.88777e-07 6.75893e-08 2.21668e-07 )  
( -1.42501e-06 -3.9216e-09 2.9371e-07 )  
( -3.26844e-06 -1.67178e-07 3.83257e-07 )  
( -1.88636e-06 -3.9884e-07 2.51569e-07 )  
( -2.13046e-06 -6.96388e-08 1.12604e-07 )  
( -1.39951e-06 -2.28441e-07 4.47406e-08 )  
( -1.63356e-06 -9.87003e-07 1.73999e-07 )  
( -3.55445e-06 -1.86578e-07 4.11537e-07 )  
( -3.18503e-06 -6.54798e-07 3.69219e-07 )  
( -5.35727e-07 -1.59979e-07 2.05401e-07 )  
( -3.68507e-06 3.64171e-08 5.99722e-07 )  
( -1.54969e-06 -2.03712e-07 2.31707e-07 )  
( -3.84157e-06 -2.41823e-07 3.68154e-07 )  
( -4.7679e-06 -4.98062e-08 2.742e-07 )  
( -3.20576e-06 -5.79095e-07 5.12381e-07 )  
( -2.69685e-09 -6.39646e-08 6.63917e-08 )  
( -2.27219e-06 -7.75717e-08 2.86194e-07 )  
( -1.06896e-06 -5.65505e-08 2.15878e-07 )  
( -2.98155e-06 -3.09579e-07 3.87835e-07 )  
( -1.99148e-07 8.55242e-08 1.21523e-07 )  
( 9.52277e-08 5.64762e-08 1.18776e-07 )  
( -2.74893e-06 -4.38112e-07 5.89001e-07 )  
( -2.32382e-06 -4.01536e-08 3.92681e-07 )  
( -2.42951e-06 -3.36795e-07 6.31474e-07 )  
( -1.31245e-06 -9.30444e-08 7.11424e-08 )  
( -4.38844e-06 -2.4617e-07 2.5527e-07 )  
( 9.2754e-08 1.66838e-08 1.67777e-07 )  
( -1.60833e-06 -1.3488e-07 3.89249e-07 )  
( 1.07028e-07 2.8052e-08 8.79156e-08 )  
( -4.28054e-07 -1.34442e-07 1.87576e-08 )  
( -2.63485e-08 5.57435e-08 1.51051e-07 )  
( -1.22797e-07 -8.95472e-08 7.62084e-08 )  
( -4.95006e-07 3.20039e-08 2.13832e-07 )  
( -3.91915e-08 -8.08382e-08 8.45606e-08 )  
( -1.82798e-06 -2.12026e-07 4.6694e-07 )  
( 7.71821e-08 8.67297e-08 1.89087e-07 )  
( -2.21907e-06 -1.11319e-07 7.08735e-07 )  
( 2.70954e-07 1.58124e-08 1.62878e-07 )  
( -4.3269e-06 -1.7979e-07 3.80063e-07 )  
( 1.3667e-08 3.54869e-08 1.19404e-07 )  
( -1.73937e-06 -2.87041e-07 6.11084e-07 )  
( -1.80315e-06 -2.23335e-07 6.76231e-07 )  
( -2.19908e-06 -4.59908e-07 4.51113e-07 )  
( -2.35863e-06 -2.80503e-07 5.99485e-07 )  
( 2.03407e-07 6.62368e-08 1.93362e-07 )  
( -1.27037e-07 2.74453e-07 2.73487e-07 )  
( -4.5351e-06 -5.36089e-07 1.32084e-07 )  
( -2.01986e-06 -2.53118e-07 4.87573e-07 )  
( 2.02126e-07 1.9581e-07 2.00037e-07 )  
( -4.57677e-06 -3.83922e-07 2.62081e-07 )  
( -2.02438e-06 -2.85852e-07 3.25476e-07 )  
( -4.03106e-06 -4.45884e-07 4.08157e-07 )  
( -2.00699e-07 1.46767e-07 4.30021e-07 )  
( 1.67316e-07 1.33757e-07 1.71557e-07 )  
( -3.52247e-06 -3.06113e-07 2.23074e-07 )  
( -3.41645e-07 1.4259e-07 4.65868e-07 )  
( -2.10104e-06 -3.62223e-07 4.54262e-07 )  
( 1.13719e-07 -1.3099e-08 2.40207e-07 )  
( -1.27785e-06 -1.5552e-07 7.14161e-07 )  
( -2.84175e-06 -2.16747e-07 2.58819e-07 )  
( -4.0282e-06 -2.69165e-07 -5.6938e-09 )  
( -7.72472e-07 1.73568e-07 3.28035e-07 )  
( -3.32696e-06 -5.27127e-08 3.50926e-07 )  
( -4.09693e-06 -2.48081e-07 2.81194e-07 )  
( -2.8943e-06 -2.56171e-07 5.65981e-07 )  
( -2.12875e-06 -3.72484e-07 3.50346e-07 )  
( -1.27515e-06 -4.89066e-07 2.88941e-07 )  
( -3.09788e-06 -4.96584e-07 4.54355e-07 )  
( -3.17668e-06 -1.213e-10 1.28903e-07 )  
( 2.10326e-07 8.76168e-08 1.50075e-07 )  
( -4.47334e-06 -4.60016e-07 -8.46067e-09 )  
( -3.87203e-06 -2.8009e-07 2.15063e-07 )  
( 9.33205e-08 1.00319e-07 2.91347e-07 )  
( -3.78556e-06 -2.1661e-07 2.80867e-07 )  
( -7.78862e-08 1.63952e-07 3.80373e-07 )  
( -2.03247e-06 -3.12714e-07 2.94021e-07 )  
( 1.61384e-07 6.07451e-08 1.57419e-07 )  
( -4.5866e-06 -2.56208e-07 2.95467e-07 )  
( -8.11573e-07 2.00283e-07 6.16007e-07 )  
( -3.57068e-06 -4.48128e-07 2.50738e-07 )  
( -1.0191e-06 -4.37121e-07 2.14237e-07 )  
( -2.38824e-06 -4.5274e-07 4.36107e-07 )  
( -4.02953e-08 1.13874e-07 3.71779e-07 )  
( -3.49506e-06 -2.64244e-07 -1.04345e-07 )  
( -2.84933e-06 -2.75491e-07 3.40258e-07 )  
( -7.6292e-09 -1.38172e-07 1.06385e-07 )  
( -4.42427e-06 -3.34742e-07 2.02206e-07 )  
( 1.33384e-07 -6.63394e-08 1.1703e-07 )  
( -4.22346e-06 -3.81703e-07 3.22636e-07 )  
( -1.89226e-06 -5.94921e-07 6.78019e-07 )  
( -3.56092e-06 1.51117e-07 2.9336e-07 )  
( -2.5354e-06 -6.53212e-07 3.77327e-07 )  
( -3.92929e-07 3.08916e-08 8.71356e-08 )  
( -2.5447e-07 -2.27662e-07 1.83082e-07 )  
( -1.33164e-06 -2.54726e-07 3.17531e-07 )  
( -5.09607e-07 -2.30317e-07 -9.21438e-09 )  
( -2.79881e-06 -3.30186e-07 4.207e-07 )  
( 1.44715e-07 -2.03155e-09 7.90323e-08 )  
( 1.27125e-07 3.24324e-08 7.09736e-08 )  
( -3.31898e-06 -1.28131e-07 5.62912e-07 )  
( -3.70661e-06 -5.22896e-07 5.47636e-07 )  
( -4.76551e-06 -3.58004e-07 -8.87438e-08 )  
( -2.84084e-06 -5.09635e-07 5.39889e-07 )  
( 1.5921e-07 -3.80544e-09 8.18156e-08 )  
( -1.99477e-06 -3.9345e-07 4.57371e-07 )  
( -5.51169e-07 9.31496e-08 2.44643e-07 )  
( -1.6832e-07 2.42668e-07 4.02573e-07 )  
( 1.15886e-07 1.22609e-08 1.57928e-07 )  
( -3.18135e-08 6.8524e-08 3.09068e-07 )  
( 1.14587e-07 5.17823e-08 1.92582e-07 )  
( 1.83499e-07 1.6787e-07 1.47791e-07 )  
( -4.2985e-06 -3.5326e-07 1.75778e-07 )  
( -3.24179e-07 1.41887e-07 3.19575e-07 )  
( -3.4857e-06 -3.53525e-07 3.94189e-07 )  
( -4.20864e-06 -3.40596e-07 2.13939e-07 )  
( -2.19479e-06 -1.04732e-07 4.64669e-07 )  
( -2.23224e-06 -5.54935e-07 6.18775e-07 )  
( 1.0463e-07 2.10588e-07 2.30558e-07 )  
( -1.34758e-06 -5.93066e-08 3.34495e-07 )  
( -3.79949e-06 -4.27369e-07 3.48806e-07 )  
( -8.98915e-07 9.328e-08 4.15458e-07 )  
( -2.00376e-06 -3.6496e-07 7.46871e-07 )  
( -2.73794e-07 1.40976e-07 2.63734e-07 )  
( 1.1157e-07 9.38044e-08 9.8385e-08 )  
( -5.54278e-07 5.43479e-08 3.35323e-07 )  
( -1.9526e-06 -3.47811e-07 6.55296e-07 )  
( -2.99704e-06 -2.57954e-07 7.65451e-07 )  
( -1.26054e-07 1.37267e-07 2.17017e-07 )  
( -1.72243e-06 6.6389e-09 7.01235e-07 )  
( -4.37775e-07 6.95958e-08 2.58491e-07 )  
( -1.64107e-06 2.44913e-09 5.02847e-07 )  
( -3.88674e-06 -3.97429e-07 2.17618e-07 )  
( 1.85836e-07 9.4023e-08 1.21261e-07 )  
( -6.29292e-07 1.06468e-07 2.84482e-07 )  
( -1.42678e-07 2.53551e-07 2.69918e-07 )  
( -4.39917e-06 -4.40189e-07 2.24584e-07 )  
( -2.90247e-07 1.37849e-07 3.14889e-07 )  
( -6.51069e-07 1.63766e-07 3.87927e-07 )  
( -2.86854e-06 -2.24266e-07 4.96083e-07 )  
( -1.66667e-06 -1.22498e-07 2.60769e-07 )  
( -3.23344e-06 -2.32194e-07 5.89686e-07 )  
( -3.68884e-06 -3.7475e-07 1.37545e-07 )  
( 8.67082e-08 2.01624e-07 2.65042e-07 )  
( -2.04576e-06 -5.15465e-07 3.46408e-07 )  
( -5.62216e-07 3.25918e-08 2.98714e-07 )  
( 1.86461e-07 -2.19791e-08 8.44019e-08 )  
( 1.07437e-07 1.26904e-07 3.18302e-07 )  
( -7.4957e-07 -5.94124e-08 2.83351e-07 )  
( -5.74498e-07 -1.3409e-07 3.06448e-07 )  
( 5.1576e-08 7.81711e-09 1.31478e-07 )  
( -5.12176e-06 -3.92558e-07 6.58351e-08 )  
( -3.21217e-06 -4.08572e-07 5.12346e-07 )  
( -1.17359e-06 -1.76637e-07 1.54687e-07 )  
( -2.59877e-07 1.28112e-07 1.98636e-07 )  
( -8.23386e-07 -4.73343e-08 9.66785e-08 )  
( 3.04342e-08 5.5416e-08 1.78206e-07 )  
( -8.50715e-07 -1.80009e-07 4.52226e-08 )  
( -6.17025e-07 -3.39821e-09 2.66563e-07 )  
( -1.7287e-06 1.87245e-07 4.18211e-07 )  
( -1.16889e-07 1.57669e-07 1.92335e-07 )  
( -3.74939e-08 4.20237e-08 3.3045e-07 )  
( -5.07825e-06 -8.12392e-09 1.72214e-07 )  
( -1.2567e-06 7.6698e-08 3.17253e-07 )  
( -7.11299e-07 -4.87637e-08 -2.14404e-08 )  
( -2.87789e-06 -4.09698e-07 4.05107e-07 )  
( -3.92048e-06 -3.41767e-07 2.18216e-07 )  
( -4.41e-06 2.24589e-07 2.83359e-07 )  
( -4.11593e-06 -3.97696e-07 4.06416e-07 )  
( -4.69383e-06 -4.72828e-07 9.09985e-08 )  
( -2.6392e-06 -1.82759e-07 7.63199e-07 )  
( -1.32745e-06 -4.27295e-07 2.68621e-07 )  
( 5.70981e-08 -5.31554e-08 1.71973e-07 )  
( -3.63685e-06 3.02054e-07 1.90848e-07 )  
( -4.31511e-06 -3.3265e-07 4.19857e-07 )  
( -2.22877e-06 -2.05648e-07 4.29055e-07 )  
( -5.36168e-07 -9.08557e-08 3.84515e-07 )  
( 1.60554e-07 -2.84075e-08 1.47113e-07 )  
( -3.04632e-06 -4.6126e-07 1.66968e-07 )  
( -2.30004e-06 1.0916e-08 4.52009e-07 )  
( -1.54959e-06 -2.27958e-07 4.88342e-07 )  
( -1.21154e-06 -3.1448e-07 4.5261e-07 )  
( -3.34315e-06 -3.45749e-07 2.73689e-07 )  
( -2.36388e-06 -5.23351e-07 4.9294e-07 )  
( 1.28284e-07 -5.14492e-09 8.30408e-08 )  
( -8.32381e-08 3.35673e-08 4.45189e-07 )  
( 1.13573e-07 1.4777e-07 2.46614e-07 )  
( -3.23629e-06 -3.95479e-07 2.64211e-07 )  
( -2.76623e-06 -1.88602e-07 6.41058e-07 )  
( -1.90973e-06 -5.72909e-07 -1.48358e-07 )  
( -1.53139e-06 -2.82229e-07 1.7651e-07 )  
( -7.36836e-07 -2.40599e-08 3.46298e-07 )  
( -4.89692e-06 -3.96102e-07 1.45032e-07 )  
( 8.31235e-08 1.06952e-07 2.49742e-07 )  
( 1.31803e-07 5.34877e-08 1.09438e-07 )  
( -1.82595e-06 -2.09637e-07 3.3434e-07 )  
( -4.16261e-06 -4.09822e-07 4.1203e-07 )  
( -4.9798e-07 -8.20645e-08 4.37347e-08 )  
( 1.02986e-07 6.09253e-08 2.26747e-07 )  
( -2.23133e-06 -5.84311e-07 3.63644e-07 )  
( -3.49697e-06 -2.92508e-07 5.66389e-07 )  
( -6.92995e-07 -1.84528e-07 4.70978e-09 )  
( 6.13206e-08 3.72464e-08 -3.64176e-09 )  
( -3.18859e-08 3.56854e-08 2.0726e-07 )  
( -1.82006e-07 -4.02269e-08 1.9265e-07 )  
( -5.42347e-07 8.76115e-08 2.04175e-07 )  
( 9.79069e-08 -4.19812e-09 1.1729e-07 )  
( -1.50142e-06 -3.24948e-07 3.05687e-07 )  
( -4.91746e-06 1.54105e-07 9.52923e-08 )  
( -5.22443e-06 -3.03272e-07 5.34782e-08 )  
( -9.36435e-07 6.77221e-09 1.95977e-07 )  
( -2.5698e-06 3.46511e-07 2.4238e-07 )  
( 1.92282e-07 5.20997e-08 8.52411e-08 )  
( -1.00274e-06 -1.30012e-07 2.33902e-07 )  
( -1.45971e-06 -1.87757e-07 2.0298e-07 )  
( -4.28986e-06 -1.93676e-07 4.68221e-07 )  
( -3.09804e-06 -4.96559e-07 2.93404e-07 )  
( -1.52725e-06 7.77807e-08 2.33993e-08 )  
( -1.88329e-06 -5.09259e-07 1.5228e-07 )  
( -4.23006e-07 1.61867e-07 2.7258e-07 )  
( -1.41382e-06 -4.09916e-07 2.50717e-07 )  
( -9.28064e-08 4.4999e-08 1.08152e-08 )  
( -1.26425e-06 3.18092e-09 1.85292e-07 )  
( 1.89445e-07 -1.39515e-07 8.95456e-08 )  
( 5.34004e-08 1.79805e-07 4.46602e-09 )  
( -6.11405e-07 -8.98363e-08 -1.16656e-07 )  
( -1.56544e-06 -6.3932e-07 9.96492e-08 )  
( -2.63905e-06 1.10571e-07 1.61894e-07 )  
( -4.7825e-06 -8.26402e-07 1.63846e-07 )  
( -3.66404e-06 -2.79421e-07 6.50198e-07 )  
( -5.4131e-07 -3.73916e-08 8.91881e-08 )  
( 6.16658e-08 2.15291e-08 6.84248e-08 )  
( -6.26452e-07 1.83782e-07 2.14821e-07 )  
( -1.77436e-07 1.88847e-07 1.98891e-07 )  
( -6.17015e-07 2.05784e-07 2.74718e-07 )  
( -4.02636e-06 1.81312e-07 5.19293e-07 )  
( -6.73607e-07 1.78696e-07 1.93443e-07 )  
( -2.88753e-06 -5.22432e-07 5.37774e-07 )  
( -5.99765e-06 -3.11033e-07 -9.57198e-07 )  
( 1.87953e-07 4.00157e-08 6.87823e-08 )  
( -1.17723e-06 8.65504e-08 -1.49008e-08 )  
( -5.2057e-06 -4.77394e-07 2.40263e-07 )  
( -6.10736e-07 1.76665e-07 2.64879e-07 )  
( 2.04404e-07 1.73352e-08 1.36163e-07 )  
( -1.28061e-06 -5.09146e-08 1.81671e-07 )  
( -4.30847e-07 1.64712e-07 2.48882e-07 )  
( 1.12458e-07 7.05178e-08 8.62393e-08 )  
( -4.17906e-06 -3.54624e-07 5.04828e-07 )  
( 2.79798e-08 2.32529e-07 1.49536e-07 )  
( 1.03569e-07 -1.51565e-08 2.72488e-08 )  
( -1.19279e-06 -1.23028e-07 3.81405e-07 )  
)
