/*--------------------------------*- C++ -*----------------------------------*\
| =========                 |                                                 |
| \\      /  F ield         | OpenFOAM: The Open Source CFD Toolbox           |
|  \\    /   O peration     | Version:  4.x                                   |
|   \\  /    A nd           | Web:      www.OpenFOAM.org                      |
|    \\/     M anipulation  |                                                 |
\*---------------------------------------------------------------------------*/
FoamFile
{
    version     2.0;
    format      ascii;
    class       volScalarField;
    location    "51";
    object      Ksl;
}
// * * * * * * * * * * * * * * * * * * * * * * * * * * * * * * * * * * * * * //

dimensions      [1 -3 -1 0 0 0 0];

internalField   nonuniform List<scalar> 
87
(
3831.15
2566.44
3768.36
2404.21
3777.44
2118.3
4127.47
1686.3
5906.88
4463.41
2694.71
4406.23
2552.47
4520.1
2296.42
5074.53
1937.67
5876.17
5377.84
2965.42
5494.17
2867.89
5767.57
2646.07
6132.62
2201.44
6313.84
6052.2
3041.7
6123.73
2972.86
6496.7
2824.46
7865.93
2676.8
11983.7
11496.2
3399.51
12967
3287.66
15709.3
3049.06
16681.2
2797.6
10018.8
42970.6
3731.78
326271
3734.66
9.79586e+09
3858.22
47985.1
4114.33
7111.12
6365.55
3027.7
6688.25
2931.5
7359.08
2740.41
8664.61
2565.19
9065.12
12133.2
3350.67
12108.8
3195.5
12094
2981.5
11072.3
2700.04
7672.28
53099
3755.47
71104.2
3717.14
50662.4
3655.77
21503.9
3708.92
8033.41
8862.74
3363.21
12957.3
58148
3725.35
1e+10
)
;

boundaryField
{
    inlet
    {
        type            zeroGradient;
    }
    outlet
    {
        type            zeroGradient;
    }
    wall
    {
        type            zeroGradient;
    }
    procBoundary1to0
    {
        type            processor;
        value           nonuniform List<scalar> 
12
(
2617.56
2818.15
3038.81
3117.64
3487.1
3714.58
3120.88
3483.87
3762.54
3326.1
3732.52
4102.87
)
;
    }
    procBoundary1to3
    {
        type            processor;
        value           nonuniform List<scalar> 
27
(
4876.28
2747.16
4722.78
2576.03
4835.23
2373.22
5582.9
2082.74
6455.3
16118.1
3438.41
18819.7
3280.24
21226.3
3065.24
20374.9
2777.08
8434.18
27567.3
3633.06
32943.5
3568
28589.6
3548.46
20282.7
3702.71
7966.15
)
;
    }
    procBoundary1to5
    {
        type            processor;
        value           nonuniform List<scalar> 
32
(
3619.59
37635.9
4122.85
1e+10
5621.74
58102.4
313793
3710.18
186557
3775.53
56563.5
4126.43
11858.9
4171.81
1e+10
4214.86
1e+10
4301.11
1e+10
4822.89
15074.1
7168.91
3074.33
3619.59
313793
7367.69
31130.9
313793
4171.81
3548.71
4171.81
1e+10
)
;
    }
    procBoundary1to7
    {
        type            processor;
        value           uniform 64059.4;
    }
}


// ************************************************************************* //
