/*--------------------------------*- C++ -*----------------------------------*\
| =========                 |                                                 |
| \\      /  F ield         | OpenFOAM: The Open Source CFD Toolbox           |
|  \\    /   O peration     | Version:  4.x                                   |
|   \\  /    A nd           | Web:      www.OpenFOAM.org                      |
|    \\/     M anipulation  |                                                 |
\*---------------------------------------------------------------------------*/
FoamFile
{
    version     2.0;
    format      ascii;
    class       volScalarField;
    location    "51";
    object      particleRelTemp;
}
// * * * * * * * * * * * * * * * * * * * * * * * * * * * * * * * * * * * * * //

dimensions      [0 0 0 0 0 0 0];

internalField   nonuniform List<scalar> 
87
(
-9.25621e-13
-8.05661e-13
-5.45823e-13
-4.24936e-13
-2.84428e-13
2.46785e-13
4.34915e-13
6.90837e-13
1.08344e-12
-6.50752e-13
-5.02622e-13
-3.23123e-13
1.83583e-14
1.80762e-13
5.01191e-13
9.19305e-13
1.16883e-12
1.4242e-12
-4.27968e-13
-2.97902e-13
-6.79174e-14
3.43671e-13
6.4212e-13
8.91726e-13
1.35995e-12
1.58997e-12
1.98906e-12
-7.2288e-13
-4.82285e-13
-2.90659e-13
-2.58111e-14
3.61019e-13
7.71513e-13
1.05691e-12
1.48437e-12
1.72623e-12
-5.75508e-13
-2.77943e-13
2.30321e-14
2.75291e-13
7.80229e-13
1.31346e-12
1.51688e-12
2.0947e-12
2.62238e-12
-2.04257e-13
-6.03803e-14
2.90238e-13
6.22793e-13
1.18319e-12
1.56585e-12
1.93108e-12
2.55656e-12
3.0479e-12
-5.03464e-13
-2.98702e-13
1.12213e-13
4.67127e-13
8.87094e-13
1.42808e-12
1.84623e-12
2.10177e-12
2.43075e-12
-2.37858e-13
4.50958e-14
3.6603e-13
7.6966e-13
1.32534e-12
1.78282e-12
2.36595e-12
2.78499e-12
3.25136e-12
-1.16803e-13
3.83461e-13
6.44857e-13
1.17236e-12
1.68951e-12
2.27828e-12
2.862e-12
3.33717e-12
3.62084e-12
-4.08641e-13
-1.11413e-13
2.20889e-13
-1.54361e-13
2.43879e-13
1.12003e-14
)
;

boundaryField
{
    inlet
    {
        type            calculated;
        value           nonuniform 0();
    }
    outlet
    {
        type            calculated;
        value           nonuniform List<scalar> 9(1.08344e-12 1.4242e-12 1.98906e-12 1.72623e-12 2.62238e-12 3.0479e-12 2.43075e-12 3.25136e-12 3.62084e-12);
    }
    wall
    {
        type            calculated;
        value           nonuniform List<scalar> 
57
(
-9.25621e-13
-6.50752e-13
-4.27968e-13
-8.05661e-13
-5.02622e-13
-2.97902e-13
-5.45823e-13
-3.23123e-13
-6.79174e-14
-4.24936e-13
1.83583e-14
3.43671e-13
-2.84428e-13
1.80762e-13
6.4212e-13
2.46785e-13
5.01191e-13
8.91726e-13
4.34915e-13
9.19305e-13
1.35995e-12
6.90837e-13
1.16883e-12
1.58997e-12
1.08344e-12
1.4242e-12
1.98906e-12
-9.25621e-13
-7.2288e-13
-5.03464e-13
-4.08641e-13
-8.05661e-13
-4.82285e-13
-2.98702e-13
-1.11413e-13
-5.45823e-13
-2.90659e-13
1.12213e-13
2.20889e-13
-4.24936e-13
-2.58111e-14
4.67127e-13
-2.84428e-13
3.61019e-13
8.87094e-13
2.46785e-13
7.71513e-13
1.42808e-12
4.34915e-13
1.05691e-12
1.84623e-12
6.90837e-13
1.48437e-12
2.10177e-12
1.08344e-12
1.72623e-12
2.43075e-12
)
;
    }
    procBoundary1to0
    {
        type            processor;
        value           nonuniform List<scalar> 
12
(
-1.12087e-12
-8.44651e-13
-7.63765e-13
-8.9981e-13
-6.81153e-13
-5.25191e-13
-7.22964e-13
-5.20602e-13
-3.93104e-13
-6.55047e-13
-4.27505e-13
-2.8468e-13
)
;
    }
    procBoundary1to3
    {
        type            processor;
        value           nonuniform List<scalar> 
27
(
-5.15296e-13
-2.70154e-13
7.97492e-14
3.89104e-13
6.665e-13
1.14613e-12
1.52446e-12
2.06017e-12
2.47437e-12
-2.46111e-13
1.75794e-13
3.86746e-13
8.53999e-13
1.2695e-12
1.58951e-12
2.22826e-12
2.75274e-12
3.02281e-12
6.82963e-14
3.72598e-13
8.54967e-13
1.19952e-12
1.72471e-12
2.3161e-12
2.82019e-12
3.52193e-12
3.73478e-12
)
;
    }
    procBoundary1to5
    {
        type            processor;
        value           nonuniform List<scalar> 
32
(
6.1673e-13
1.09034e-12
1.46774e-12
1.99445e-12
2.36384e-12
2.74078e-12
6.69531e-13
9.90718e-13
1.54437e-12
2.04805e-12
2.51479e-12
2.97215e-12
3.38888e-12
4.16641e-13
9.42969e-13
1.46113e-12
1.87107e-12
2.39538e-12
3.00403e-12
3.48172e-12
3.9518e-12
-3.82661e-13
-2.02278e-13
6.1673e-13
6.69531e-13
2.32721e-13
-2.22658e-13
6.69531e-13
4.16641e-13
8.53072e-14
4.16641e-13
4.0043e-14
)
;
    }
    procBoundary1to7
    {
        type            processor;
        value           uniform 1.73815e-13;
    }
}


// ************************************************************************* //
