/*--------------------------------*- C++ -*----------------------------------*\
| =========                 |                                                 |
| \\      /  F ield         | OpenFOAM: The Open Source CFD Toolbox           |
|  \\    /   O peration     | Version:  4.x                                   |
|   \\  /    A nd           | Web:      www.OpenFOAM.org                      |
|    \\/     M anipulation  |                                                 |
\*---------------------------------------------------------------------------*/
FoamFile
{
    version     2.0;
    format      ascii;
    class       surfaceScalarField;
    location    "51";
    object      phi;
}
// * * * * * * * * * * * * * * * * * * * * * * * * * * * * * * * * * * * * * //

dimensions      [0 3 -1 0 0 0 0];

internalField   nonuniform List<scalar> 
192
(
1.4218e-05
4.2687e-09
-2.04471e-07
1.44683e-05
-3.96722e-08
-2.1058e-07
1.48442e-05
-2.55436e-08
-3.50339e-07
1.49218e-05
4.82055e-08
-1.25828e-07
1.57183e-05
-1.43353e-07
-6.53139e-07
1.52674e-05
2.46667e-07
2.0423e-07
1.73857e-05
-5.88081e-07
-1.53019e-06
1.52293e-05
8.72293e-07
1.28406e-06
-2.39503e-06
-3.15524e-06
1.30319e-05
-9.12358e-08
-1.9708e-07
1.32494e-05
-7.20021e-08
-1.85247e-07
1.35739e-05
-9.04407e-08
-2.59556e-07
1.35686e-05
5.13125e-08
2.13985e-09
1.41694e-05
-2.87129e-07
-4.5698e-07
1.36484e-05
2.42511e-07
5.25198e-07
1.49781e-05
-8.94178e-07
-1.02361e-06
1.33111e-05
8.80654e-07
1.65862e-06
-2.621e-06
-3.17551e-06
1.13528e-05
-1.63981e-07
1.13941e-05
-1.03769e-07
1.14773e-05
-1.88644e-07
1.14246e-05
1.31681e-07
1.17892e-05
-3.77794e-07
1.16055e-05
5.65368e-07
1.27593e-05
-9.99702e-07
1.17298e-05
1.64178e-06
-4.30256e-06
1.05355e-05
2.47611e-08
-3.00544e-07
1.06429e-05
-3.22088e-08
-2.85742e-07
1.06685e-05
6.79321e-08
-4.43895e-07
1.05849e-05
1.68429e-07
-2.10661e-07
1.061e-05
6.83007e-08
-7.46566e-07
1.01306e-05
4.79194e-07
2.04501e-07
1.01138e-05
-7.98483e-08
-1.43362e-06
8.96726e-06
1.05253e-06
1.3781e-06
-8.49591e-07
-2.75426e-06
8.20381e-06
-3.1596e-08
-1.98002e-07
8.12677e-06
-2.12978e-08
-1.19116e-07
8.21827e-06
-5.40008e-08
-2.29122e-07
8.07961e-06
1.67191e-07
1.42028e-07
8.26933e-06
-1.28412e-07
-4.49978e-07
8.29823e-06
3.80548e-07
5.94942e-07
8.43665e-06
-2.7915e-07
-9.62737e-07
8.56335e-06
9.12123e-07
1.67233e-06
-9.61208e-07
-2.81035e-06
6.21299e-06
-1.10882e-07
5.91722e-06
7.36216e-08
5.74153e-06
-9.43376e-08
5.79206e-06
1.59309e-07
5.43213e-06
-1.62299e-07
5.97241e-06
4.43056e-07
5.25193e-06
-5.89408e-07
6.84824e-06
1.23148e-06
-3.06906e-06
1.00661e-05
-4.13395e-08
-3.44056e-07
1.00339e-05
2.39182e-08
-2.77518e-07
1.00897e-05
-4.94587e-08
-4.50211e-07
9.88954e-06
1.81483e-07
1.00107e-05
-2.12976e-07
9.57541e-06
4.47825e-07
9.68242e-06
-5.68496e-07
9.04053e-06
1.00778e-06
-1.47403e-06
7.91378e-06
-1.49089e-07
-2.104e-07
8.04e-06
-4.55821e-08
-1.7584e-07
8.20014e-06
-2.11669e-07
8.29107e-06
1.42687e-07
8.43565e-06
-3.95588e-07
8.53868e-06
4.32176e-07
8.76111e-06
-9.0905e-07
8.67093e-06
1.29946e-06
-2.74386e-06
5.86871e-06
-8.07525e-08
5.89535e-06
5.78294e-06
6.02303e-06
5.85031e-06
6.42936e-06
5.94777e-06
7.08424e-06
8.20099e-06
-2.32996e-08
7.59313e-06
2.16307e-07
5.74194e-06
-5.02416e-08
)
;

boundaryField
{
    inlet
    {
        type            calculated;
        value           nonuniform 0();
    }
    outlet
    {
        type            calculated;
        value           nonuniform List<scalar> 9(2.07796e-05 1.67126e-05 1.64017e-05 9.41587e-06 8.3098e-06 4.7207e-06 9.47809e-06 9.66483e-06 4.46527e-06);
    }
    wall
    {
        type            calculated;
        value           uniform 0;
    }
    procBoundary1to0
    {
        type            processor;
        value           nonuniform List<scalar> 
12
(
-1.40178e-05
-1.27393e-05
-1.1254e-05
-1.04642e-05
-8.14653e-06
-6.33476e-06
-9.98121e-06
-7.79363e-06
-5.96376e-06
-8.4873e-06
-5.90641e-06
-4.96953e-06
)
;
    }
    procBoundary1to3
    {
        type            processor;
        value           nonuniform List<scalar> 
27
(
-2.6123e-08
-9.4911e-09
1.49878e-08
-2.76607e-08
-2.73956e-07
-1.39118e-07
-1.0483e-06
2.68394e-07
-2.99037e-06
3.70725e-08
9.70815e-08
2.73764e-08
8.90407e-08
1.60241e-08
-3.74199e-08
3.10361e-08
-2.73884e-07
-6.71705e-08
-8.41726e-08
-4.27269e-08
-1.04317e-07
-4.49047e-09
-2.20554e-07
5.29127e-08
-5.76586e-07
7.15643e-07
-2.04851e-06
)
;
    }
    procBoundary1to5
    {
        type            processor;
        value           nonuniform List<scalar> 
32
(
-1.91983e-07
-6.54741e-07
1.91953e-07
-9.72132e-07
1.01221e-06
-1.7178e-06
-2.27053e-07
8.98971e-08
-4.1195e-07
5.07569e-07
-8.44617e-07
1.47083e-06
-2.53442e-06
4.41341e-08
-8.9282e-08
6.63948e-08
-1.64609e-07
2.43266e-07
-4.40278e-07
6.78821e-07
-1.14545e-06
-3.44443e-08
1.14038e-07
6.9934e-06
6.78553e-08
8.16582e-08
-1.89912e-08
5.58834e-06
2.13754e-07
-1.96835e-08
4.80392e-06
1.37475e-12
)
;
    }
    procBoundary1to7
    {
        type            processor;
        value           uniform 3.46171e-08;
    }
}


// ************************************************************************* //
