/*--------------------------------*- C++ -*----------------------------------*\
| =========                 |                                                 |
| \\      /  F ield         | OpenFOAM: The Open Source CFD Toolbox           |
|  \\    /   O peration     | Version:  4.x                                   |
|   \\  /    A nd           | Web:      www.OpenFOAM.org                      |
|    \\/     M anipulation  |                                                 |
\*---------------------------------------------------------------------------*/
FoamFile
{
    version     2.0;
    format      ascii;
    class       volScalarField;
    location    "30";
    object      KslNext;
}
// * * * * * * * * * * * * * * * * * * * * * * * * * * * * * * * * * * * * * //

dimensions      [1 -3 -1 0 0 0 0];

internalField   nonuniform List<scalar> 
132
(
3326.38
6802.77
3094.91
5239.31
2911.9
4517.79
2797.37
4078.1
2624.08
3344.75
7285.36
3205.65
5878.7
3060.62
5151.55
2944.61
4678.24
2836.62
3357.37
7621.99
3265.44
6352.22
3188.55
5682.81
3073.01
5323.74
3027.6
3370.95
7586.14
3240.87
3380.59
7807.48
3301.63
6901.84
3257.13
6355.06
3204.91
5986.88
3093.56
3410.45
8876.03
3468.88
8726.77
3523.18
8943.23
3507.36
9223.86
3440.45
3448.57
9742.56
3550.57
10690.7
3643.84
12659.3
3693.15
16586
3647.6
3490.36
9570.57
3571.57
10474.1
3665.29
3402.57
8127.52
3387.95
7481.61
3344.66
7013.55
3282.73
6710.17
3166.09
3456.29
9570.49
3566.49
10499.7
3643.9
11933.8
3658.61
14180.1
3573.44
3500.29
11012.1
3703.57
16848.6
3843.18
31047.6
3859.23
62422.4
3783.04
3528.72
11770.6
3770.28
20752.5
3891.08
50352.1
3905.32
3404.08
8016.17
3401.42
7496.85
3366.11
7274.82
3333.54
7144.55
3265.45
3476.95
9885.31
3637.58
11728
3693.08
13863.7
3728.35
17752.7
3693.61
3539.81
10914.8
3789.15
17177.6
3922.85
33854.5
4012.62
112133
4023.93
3533.98
11174.4
3825.99
18562.8
3925.11
33341.5
3952.4
69208.6
3892.04
)
;

boundaryField
{
    inlet
    {
        type            zeroGradient;
    }
    outlet
    {
        type            zeroGradient;
    }
    wall
    {
        type            zeroGradient;
    }
    procBoundary0to1
    {
        type            processor;
        value           uniform 0;
    }
    procBoundary0to2
    {
        type            processor;
        value           uniform 0;
    }
    procBoundary0to4
    {
        type            processor;
        value           uniform 0;
    }
    procBoundary0to6
    {
        type            processor;
        value           uniform 0;
    }
    procBoundary0to7
    {
        type            processor;
        value           uniform 0;
    }
}


// ************************************************************************* //
