/*--------------------------------*- C++ -*----------------------------------*\
| =========                 |                                                 |
| \\      /  F ield         | OpenFOAM: The Open Source CFD Toolbox           |
|  \\    /   O peration     | Version:  4.x                                   |
|   \\  /    A nd           | Web:      www.OpenFOAM.org                      |
|    \\/     M anipulation  |                                                 |
\*---------------------------------------------------------------------------*/
FoamFile
{
    version     2.0;
    format      ascii;
    class       volScalarField;
    location    "30";
    object      p;
}
// * * * * * * * * * * * * * * * * * * * * * * * * * * * * * * * * * * * * * //

dimensions      [1 -1 -2 0 0 0 0];

internalField   nonuniform List<scalar> 
132
(
5743.11
5726.97
5737.65
5706.53
5727.71
5689.86
5721.46
5671.64
5714.89
5743.2
5726.59
5736.48
5707.98
5728.47
5689.97
5721.65
5671.59
5714.94
5743.3
5726.53
5736.41
5708.51
5729.05
5690.19
5722.02
5671.86
5715.23
5743.31
5726.43
5736.45
3865.74
3849.03
3858.94
3830.33
3850.88
3812.29
3844.07
3794.01
3837.36
3866.01
3848.96
3859.02
3830.7
3851.39
3812.35
3844.33
3793.86
3837.47
3866.26
3849
3859.27
3830.98
3851.94
3812.57
3844.8
3793.95
3837.91
3866.29
3848.84
3859.3
3831.01
3852.04
1988.27
1971.08
1981.15
1953.01
1973.58
1934.69
1966.38
1916.18
1959.44
1988.71
1971.25
1981.59
1953.19
1974.08
1934.77
1966.78
1916.13
1959.61
1989.1
1971.44
1982.06
1953.47
1974.51
1934.95
1966.97
1916.39
1959.75
1989.33
1971.58
1982.3
1953.61
1974.74
1935.17
1967.08
110.754
93.5405
103.642
75.7035
96.2666
57.5215
88.9304
39.3003
82.0059
111.319
93.803
104.12
75.8293
96.6309
57.6488
89.2732
39.232
82.2042
111.738
94.1752
104.619
76.3457
97.1081
58.346
89.5171
40.505
82.1132
111.917
94.2718
104.75
76.3658
97.0769
58.4328
89.4119
40.328
82.1583
)
;

boundaryField
{
    inlet
    {
        type            calculated;
        value           nonuniform List<scalar> 
16
(
5743.11
5743.2
5743.3
5743.31
3865.74
3866.01
3866.26
3866.29
1988.27
1988.71
1989.1
1989.33
110.754
111.319
111.738
111.917
)
;
    }
    outlet
    {
        type            calculated;
        value           nonuniform 0();
    }
    wall
    {
        type            calculated;
        value           nonuniform List<scalar> 
66
(
6682.07
6682.15
6682.26
6682.27
6665.93
6665.55
6665.49
6665.38
6676.6
6675.44
6675.37
6675.41
6645.48
6646.94
6647.47
6666.67
6667.42
6668.01
6628.81
6628.93
6629.14
6660.42
6660.61
6660.97
6610.59
6610.55
6610.82
6653.84
6653.89
6654.19
5743.11
3865.74
1988.27
110.754
5726.97
3849.03
1971.08
93.5405
5737.65
3858.94
1981.15
103.642
5706.53
3830.33
1953.01
75.7035
5727.71
3850.88
1973.58
96.2666
5689.86
3812.29
1934.69
57.5215
5721.46
3844.07
1966.38
88.9304
5671.64
3794.01
1916.18
39.3003
5714.89
3837.36
1959.44
82.0059
)
;
    }
    procBoundary0to1
    {
        type            processor;
        value           nonuniform List<scalar> 
12
(
5653.21
5652.89
5653.13
3775.49
3775.12
3775.4
1897.6
1897.31
1898.13
21.0235
20.9626
22.9475
)
;
    }
    procBoundary0to2
    {
        type            processor;
        value           nonuniform List<scalar> 
44
(
5708.62
5729.17
5690.23
5722.03
5671.61
5715.19
5743.25
5726.33
5708.62
5736.43
5708.62
5729.17
3812.48
3844.69
3793.64
3837.72
3866.2
3848.92
3859.3
3831.03
3812.48
3852.05
3812.48
3844.69
1916.68
1959.71
1989.05
1971.37
1982.02
1953.58
1974.57
1935.36
1916.68
1967.1
1916.68
1959.71
111.825
94.0571
104.568
76.0762
97.0169
57.9492
89.4851
39.79
)
;
    }
    procBoundary0to4
    {
        type            processor;
        value           nonuniform List<scalar> 
36
(
-1766.91
-1784.29
-1774.07
-1802.14
-1781.54
-1820.34
-1788.94
-1838.81
-1796.11
-1766.27
-1783.99
-1773.45
-1801.92
-1781.06
-1820.27
-1788.57
-1838.71
-1795.81
-1765.8
-1783.68
-1773.08
-1801.59
-1780.8
-1819.81
-1788.4
-1838.03
-1795.89
-1765.64
-1783.4
-1772.87
-1801.22
-1780.55
-1819.26
-1788.31
-1837.37
-1795.91
)
;
    }
    procBoundary0to6
    {
        type            processor;
        value           uniform 82.1443;
    }
    procBoundary0to7
    {
        type            processor;
        value           uniform 22.8537;
    }
}


// ************************************************************************* //
