/*--------------------------------*- C++ -*----------------------------------*\
| =========                 |                                                 |
| \\      /  F ield         | OpenFOAM: The Open Source CFD Toolbox           |
|  \\    /   O peration     | Version:  4.x                                   |
|   \\  /    A nd           | Web:      www.OpenFOAM.org                      |
|    \\/     M anipulation  |                                                 |
\*---------------------------------------------------------------------------*/
FoamFile
{
    version     2.0;
    format      ascii;
    class       volScalarField;
    location    "30";
    object      particleRelTemp;
}
// * * * * * * * * * * * * * * * * * * * * * * * * * * * * * * * * * * * * * //

dimensions      [0 0 0 0 0 0 0];

internalField   nonuniform List<scalar> 
132
(
-5.83492e-09
-5.4263e-09
-4.99199e-09
-4.14117e-09
-3.75301e-09
-3.13557e-09
-2.49218e-09
-1.85071e-09
-1.42312e-09
-5.76481e-09
-5.08977e-09
-4.40924e-09
-3.88026e-09
-2.97779e-09
-2.22233e-09
-9.74822e-10
-4.60779e-10
3.72932e-10
-5.56056e-09
-4.97822e-09
-4.2518e-09
-3.37169e-09
-2.49206e-09
-1.46236e-09
-3.32016e-10
6.23942e-10
1.12015e-09
-5.968e-09
-5.08121e-09
-4.72235e-09
-5.89016e-09
-5.18128e-09
-4.47335e-09
-3.72059e-09
-2.95118e-09
-2.02803e-09
-1.611e-09
-6.51054e-10
-7.31896e-11
-5.79626e-09
-5.03795e-09
-3.98747e-09
-3.14547e-09
-2.34524e-09
-1.41903e-09
-2.53096e-10
8.10987e-10
1.48578e-09
-5.74055e-09
-4.83408e-09
-3.81749e-09
-2.88965e-09
-1.71492e-09
-8.90361e-10
5.85022e-10
1.73508e-09
2.60597e-09
-5.67083e-09
-4.82813e-09
-3.79162e-09
-2.55243e-09
-1.64579e-09
-5.75958e-09
-5.15735e-09
-4.23296e-09
-3.22739e-09
-2.32939e-09
-1.15303e-09
-3.33989e-10
4.60856e-10
1.1617e-09
-5.66196e-09
-4.84923e-09
-3.85714e-09
-2.88611e-09
-1.66511e-09
-4.33925e-10
6.25391e-10
1.747e-09
2.52352e-09
-5.6613e-09
-4.80289e-09
-3.61982e-09
-2.41271e-09
-1.13989e-09
4.73575e-10
1.82364e-09
3.26495e-09
3.6436e-09
-5.61843e-09
-4.5967e-09
-3.50258e-09
-2.42611e-09
-9.78576e-10
1.94449e-10
2.28794e-09
-5.8757e-09
-5.02891e-09
-4.2946e-09
-3.27525e-09
-2.21311e-09
-1.04159e-09
-2.95344e-10
1.03055e-09
1.60913e-09
-5.74156e-09
-4.98098e-09
-4.03099e-09
-2.74212e-09
-1.48364e-09
-1.01249e-10
1.20675e-09
2.11293e-09
3.15374e-09
-5.41257e-09
-4.67188e-09
-3.76757e-09
-2.11001e-09
-9.2405e-10
8.84867e-10
2.29923e-09
3.57797e-09
4.04318e-09
-5.61673e-09
-4.79386e-09
-3.62363e-09
-2.14039e-09
-8.58652e-10
7.55099e-10
2.66096e-09
3.58413e-09
4.50988e-09
)
;

boundaryField
{
    inlet
    {
        type            calculated;
        value           nonuniform List<scalar> 
16
(
-5.83492e-09
-5.76481e-09
-5.56056e-09
-5.968e-09
-5.89016e-09
-5.79626e-09
-5.74055e-09
-5.67083e-09
-5.75958e-09
-5.66196e-09
-5.6613e-09
-5.61843e-09
-5.8757e-09
-5.74156e-09
-5.41257e-09
-5.61673e-09
)
;
    }
    outlet
    {
        type            calculated;
        value           nonuniform 0();
    }
    wall
    {
        type            calculated;
        value           nonuniform List<scalar> 
66
(
-5.83492e-09
-5.76481e-09
-5.56056e-09
-5.968e-09
-5.4263e-09
-5.08977e-09
-4.97822e-09
-5.08121e-09
-4.99199e-09
-4.40924e-09
-4.2518e-09
-4.72235e-09
-4.14117e-09
-3.88026e-09
-3.37169e-09
-3.75301e-09
-2.97779e-09
-2.49206e-09
-3.13557e-09
-2.22233e-09
-1.46236e-09
-2.49218e-09
-9.74822e-10
-3.32016e-10
-1.85071e-09
-4.60779e-10
6.23942e-10
-1.42312e-09
3.72932e-10
1.12015e-09
-5.83492e-09
-5.89016e-09
-5.75958e-09
-5.8757e-09
-5.4263e-09
-5.18128e-09
-5.15735e-09
-5.02891e-09
-4.99199e-09
-4.47335e-09
-4.23296e-09
-4.2946e-09
-4.14117e-09
-3.72059e-09
-3.22739e-09
-3.27525e-09
-3.75301e-09
-2.95118e-09
-2.32939e-09
-2.21311e-09
-3.13557e-09
-2.02803e-09
-1.15303e-09
-1.04159e-09
-2.49218e-09
-1.611e-09
-3.33989e-10
-2.95344e-10
-1.85071e-09
-6.51054e-10
4.60856e-10
1.03055e-09
-1.42312e-09
-7.31896e-11
1.1617e-09
1.60913e-09
)
;
    }
    procBoundary0to1
    {
        type            processor;
        value           nonuniform List<scalar> 
12
(
-6.98926e-10
8.34222e-10
1.96731e-09
4.84461e-10
1.28646e-09
3.41225e-09
1.63747e-09
3.19965e-09
4.27464e-09
2.09832e-09
3.45409e-09
4.87501e-09
)
;
    }
    procBoundary0to2
    {
        type            processor;
        value           nonuniform List<scalar> 
44
(
-3.51682e-09
-2.61364e-09
-1.05908e-09
-1.28863e-10
1.0333e-09
1.14941e-09
-5.81624e-09
-5.19061e-09
-3.51682e-09
-4.49115e-09
-3.51682e-09
-2.61364e-09
-4.56401e-10
9.1987e-10
1.91915e-09
2.66314e-09
-5.85867e-09
-5.13811e-09
-4.14899e-09
-3.09842e-09
-4.56401e-10
-2.11182e-09
-4.56401e-10
9.1987e-10
3.3262e-09
4.02871e-09
-5.66279e-09
-4.96534e-09
-3.86171e-09
-2.68345e-09
-1.37759e-09
9.79133e-11
3.3262e-09
1.24928e-09
3.3262e-09
4.02871e-09
-5.63141e-09
-4.64534e-09
-3.62082e-09
-2.56411e-09
-1.2099e-09
2.72533e-10
1.66159e-09
3.16439e-09
)
;
    }
    procBoundary0to4
    {
        type            processor;
        value           nonuniform List<scalar> 
36
(
-5.8131e-09
-5.26466e-09
-4.45368e-09
-3.50378e-09
-2.67483e-09
-1.75736e-09
-4.53035e-10
6.03882e-10
1.14692e-09
-5.73228e-09
-5.08997e-09
-4.06839e-09
-3.03799e-09
-1.81729e-09
-6.84256e-10
5.00018e-10
1.70081e-09
2.56741e-09
-5.69944e-09
-4.85704e-09
-3.62457e-09
-2.55162e-09
-1.17958e-09
7.32106e-11
1.54152e-09
2.7538e-09
3.48291e-09
-5.69294e-09
-4.89047e-09
-3.69333e-09
-2.52443e-09
-8.79779e-10
4.76241e-10
1.97224e-09
3.00065e-09
4.05562e-09
)
;
    }
    procBoundary0to6
    {
        type            processor;
        value           uniform 3.77813e-09;
    }
    procBoundary0to7
    {
        type            processor;
        value           uniform 5.17432e-09;
    }
}


// ************************************************************************* //
