/*--------------------------------*- C++ -*----------------------------------*\
| =========                 |                                                 |
| \\      /  F ield         | OpenFOAM: The Open Source CFD Toolbox           |
|  \\    /   O peration     | Version:  4.x                                   |
|   \\  /    A nd           | Web:      www.OpenFOAM.org                      |
|    \\/     M anipulation  |                                                 |
\*---------------------------------------------------------------------------*/
FoamFile
{
    version     2.0;
    format      ascii;
    class       volVectorField;
    location    "30";
    object      UsNext;
}
// * * * * * * * * * * * * * * * * * * * * * * * * * * * * * * * * * * * * * //

dimensions      [0 1 -1 0 0 0 0];

internalField   nonuniform List<vector> 
132
(
(-4.14812e-10 2.74121e-10 -2.77268e-10)
(-5.71604e-10 5.29562e-10 -1.65792e-10)
(4.25757e-09 -3.73722e-10 6.75544e-10)
(2.22389e-09 -8.53355e-10 -1.27209e-09)
(-2.01292e-10 -1.17803e-09 -6.90678e-10)
(-1.25735e-09 -1.13867e-09 -8.18809e-10)
(-1.0677e-09 -5.01066e-10 -1.12224e-09)
(-3.93087e-09 -3.15038e-10 -2.20511e-09)
(-6.21321e-09 9.48514e-10 -2.0279e-09)
(-1.19325e-10 5.05747e-10 -7.3011e-10)
(-5.93508e-11 1.12126e-09 -7.74674e-10)
(1.89781e-09 9.19572e-10 -1.01751e-09)
(1.07797e-09 -1.11283e-09 -8.88371e-10)
(7.71826e-10 -1.629e-09 -2.98259e-10)
(-8.88051e-10 -1.71465e-09 -6.68461e-10)
(8.25645e-10 -7.54852e-10 -9.20442e-10)
(-1.74536e-09 2.93359e-12 -4.78496e-11)
(-4.42803e-09 -2.09629e-09 4.20066e-09)
(2.46083e-10 8.58398e-10 -5.46435e-10)
(4.81461e-10 7.26454e-10 -6.80102e-10)
(1.52414e-09 5.89488e-10 -6.36821e-10)
(1.54729e-09 -8.20607e-10 -8.45921e-10)
(2.06288e-09 -1.91986e-09 -7.1486e-10)
(5.57486e-10 -1.73202e-09 -8.34877e-11)
(8.67069e-10 -1.39835e-09 5.98784e-11)
(-2.89331e-11 -3.28748e-09 1.81516e-09)
(-2.39892e-09 -2.33474e-09 2.88809e-09)
(3.14395e-10 3.41148e-10 -2.01824e-11)
(4.81815e-10 4.18826e-10 -4.84753e-10)
(7.72968e-10 1.43094e-10 -7.4349e-10)
(1.22288e-10 1.79558e-10 2.29775e-10)
(4.48947e-11 3.79306e-10 4.96249e-10)
(1.36241e-09 2.17144e-10 9.23508e-10)
(1.86576e-09 -4.86205e-10 -1.62597e-09)
(6.83974e-10 -7.63173e-10 -8.2352e-10)
(1.40744e-10 -9.55057e-10 -8.58357e-10)
(-4.20731e-10 -4.17876e-10 -1.10238e-09)
(-2.52487e-09 -9.01457e-10 -2.54183e-09)
(-6.82415e-09 -2.9417e-09 2.53521e-09)
(3.38007e-10 4.24661e-10 5.95275e-11)
(7.31762e-10 6.45221e-10 2.97868e-10)
(2.33773e-09 2.00822e-10 3.82472e-10)
(1.81138e-09 -5.02754e-10 -8.17932e-10)
(1.23548e-09 -1.2561e-09 -3.73479e-10)
(6.7793e-10 -1.17082e-09 -7.86148e-10)
(-4.63936e-10 -4.29576e-10 -2.66346e-10)
(-1.74838e-09 -1.5617e-10 -2.11161e-10)
(-4.8703e-09 1.0113e-09 4.69602e-09)
(5.70867e-10 2.9532e-10 -5.45381e-13)
(9.93766e-10 4.80187e-10 -1.41317e-10)
(2.08076e-09 1.08399e-10 -3.49239e-10)
(2.40513e-09 -6.31439e-10 -4.20712e-10)
(2.50561e-09 -1.47948e-09 -6.72728e-10)
(1.46187e-09 -1.7413e-09 -2.22933e-10)
(5.58778e-10 -1.69022e-09 5.14715e-10)
(-5.84307e-10 -1.28585e-09 2.11672e-09)
(-2.04289e-09 -9.00681e-11 3.53565e-09)
(4.43843e-10 1.84903e-10 1.46831e-10)
(8.46996e-10 1.98949e-10 2.70501e-13)
(1.81565e-09 3.28033e-11 -4.60899e-10)
(1.98491e-09 -7.93173e-10 -8.83153e-12)
(1.87772e-09 -7.0716e-10 -7.30025e-10)
(1.04488e-10 9.19125e-11 8.62497e-11)
(2.65027e-10 1.20297e-10 -1.3363e-10)
(7.27483e-10 8.5857e-11 2.9826e-11)
(4.55542e-10 -1.03519e-10 -8.25649e-10)
(9.63382e-10 -4.42022e-10 -9.30924e-10)
(1.14486e-09 -5.96212e-10 -1.47513e-09)
(1.14924e-09 -5.46302e-10 -1.3836e-09)
(-4.07353e-10 -3.95318e-10 -1.21011e-09)
(-4.21078e-09 -9.5584e-10 3.66659e-09)
(1.11326e-10 2.98413e-10 -1.20982e-10)
(5.12049e-10 3.65291e-10 -3.18105e-10)
(1.38532e-09 2.50221e-10 -4.58182e-10)
(1.17659e-09 -3.9004e-10 -1.00147e-09)
(1.73384e-09 -7.31799e-10 -1.09637e-09)
(1.41381e-09 -4.93427e-10 -1.13043e-09)
(1.42493e-09 -4.98813e-10 -8.03508e-10)
(3.4131e-11 5.76421e-10 -5.41944e-10)
(-4.39528e-09 3.25363e-09 4.2912e-09)
(3.46094e-10 1.06319e-10 -3.56078e-10)
(1.01425e-09 2.72638e-10 -5.043e-10)
(2.01982e-09 1.04667e-10 -7.23676e-10)
(2.30648e-09 -2.20539e-10 -1.07335e-09)
(2.69046e-09 -1.00853e-09 -1.52377e-09)
(1.28206e-09 -2.80222e-10 -1.44455e-09)
(2.85313e-09 -4.78536e-10 9.96491e-11)
(-1.18696e-09 3.74131e-10 9.84608e-10)
(-2.59669e-09 3.04304e-09 3.3475e-09)
(2.64369e-10 -1.06308e-11 -3.46842e-10)
(1.098e-09 -4.42238e-10 -6.63319e-10)
(2.11063e-09 -4.46608e-10 -1.10854e-09)
(2.20913e-09 -8.38674e-10 -8.70269e-10)
(2.20249e-09 -8.7418e-10 -1.26044e-09)
(9.31219e-10 -1.04352e-09 -5.79795e-10)
(2.74018e-10 -1.02343e-09 1.27296e-10)
(1.04045e-10 6.91429e-11 9.21913e-11)
(-1.81711e-10 -1.26611e-10 -1.58608e-10)
(3.40757e-10 1.66344e-10 -2.83157e-10)
(-9.9522e-11 -2.53494e-10 -7.37516e-10)
(2.84657e-10 -2.61123e-10 -1.00707e-09)
(4.83322e-10 -1.92624e-10 -1.37425e-09)
(2.79712e-10 -1.63268e-10 -7.46906e-10)
(-1.2766e-09 4.58634e-10 -7.0897e-10)
(-2.77219e-09 3.57728e-10 1.92018e-09)
(7.50312e-11 -1.02499e-11 -8.30285e-11)
(-1.56403e-10 -2.66755e-10 -3.58055e-10)
(1.54542e-10 -7.86898e-10 -7.31706e-10)
(-5.50886e-11 -6.77854e-10 -1.03885e-09)
(2.84054e-10 -1.1335e-09 -1.1675e-09)
(-5.80335e-10 -6.09966e-10 -1.62603e-09)
(-1.3265e-09 -3.13805e-11 -4.69966e-10)
(-2.39826e-09 3.39879e-10 -6.40466e-10)
(-3.59969e-09 2.30912e-09 9.98402e-10)
(-1.22e-10 -2.0734e-11 -5.33564e-10)
(-2.08562e-10 -9.14015e-11 -7.03777e-10)
(2.21217e-10 -3.30466e-10 -7.46567e-10)
(-1.73753e-09 -3.26125e-10 -1.54221e-09)
(-2.72128e-10 -7.77749e-10 -1.64138e-09)
(-2.1891e-09 -3.08044e-10 -1.89247e-09)
(-1.63442e-09 -1.54407e-10 -4.52681e-10)
(-2.63834e-09 -1.50676e-10 -3.66598e-11)
(-3.17173e-09 2.59628e-09 1.3195e-09)
(-5.36862e-11 1.0953e-11 -5.81892e-10)
(-2.1848e-10 1.01635e-10 -1.0377e-09)
(-4.99106e-10 2.12355e-10 -9.18427e-10)
(-2.65728e-09 -7.90178e-11 -1.68645e-09)
(-2.39251e-09 -5.33049e-10 -2.55173e-09)
(-2.61721e-09 -6.19656e-10 -1.07687e-09)
(-2.16693e-09 -4.02564e-10 6.72993e-11)
(-3.16091e-09 -7.45848e-10 7.21628e-10)
(-4.04444e-09 -1.22251e-09 2.16604e-09)
)
;

boundaryField
{
    inlet
    {
        type            calculated;
        value           nonuniform List<vector> 
16
(
(-4.14812e-10 2.74121e-10 -2.77268e-10)
(-1.19325e-10 5.05747e-10 -7.3011e-10)
(2.46083e-10 8.58398e-10 -5.46435e-10)
(3.14395e-10 3.41148e-10 -2.01824e-11)
(1.22288e-10 1.79558e-10 2.29775e-10)
(3.38007e-10 4.24661e-10 5.95275e-11)
(5.70867e-10 2.9532e-10 -5.45381e-13)
(4.43843e-10 1.84903e-10 1.46831e-10)
(1.04488e-10 9.19125e-11 8.62497e-11)
(1.11326e-10 2.98413e-10 -1.20982e-10)
(3.46094e-10 1.06319e-10 -3.56078e-10)
(2.64369e-10 -1.06308e-11 -3.46842e-10)
(1.04045e-10 6.91429e-11 9.21913e-11)
(7.50312e-11 -1.02499e-11 -8.30285e-11)
(-1.22e-10 -2.0734e-11 -5.33564e-10)
(-5.36862e-11 1.0953e-11 -5.81892e-10)
)
;
    }
    outlet
    {
        type            calculated;
        value           nonuniform 0();
    }
    wall
    {
        type            calculated;
        value           nonuniform List<vector> 
66
(
(-4.14812e-10 2.74121e-10 -2.77268e-10)
(-1.19325e-10 5.05747e-10 -7.3011e-10)
(2.46083e-10 8.58398e-10 -5.46435e-10)
(3.14395e-10 3.41148e-10 -2.01824e-11)
(-5.71604e-10 5.29562e-10 -1.65792e-10)
(-5.93508e-11 1.12126e-09 -7.74674e-10)
(4.81461e-10 7.26454e-10 -6.80102e-10)
(4.81815e-10 4.18826e-10 -4.84753e-10)
(4.25757e-09 -3.73722e-10 6.75544e-10)
(1.89781e-09 9.19572e-10 -1.01751e-09)
(1.52414e-09 5.89488e-10 -6.36821e-10)
(7.72968e-10 1.43094e-10 -7.4349e-10)
(2.22389e-09 -8.53355e-10 -1.27209e-09)
(1.07797e-09 -1.11283e-09 -8.88371e-10)
(1.54729e-09 -8.20607e-10 -8.45921e-10)
(-2.01292e-10 -1.17803e-09 -6.90678e-10)
(7.71826e-10 -1.629e-09 -2.98259e-10)
(2.06288e-09 -1.91986e-09 -7.1486e-10)
(-1.25735e-09 -1.13867e-09 -8.18809e-10)
(-8.88051e-10 -1.71465e-09 -6.68461e-10)
(5.57486e-10 -1.73202e-09 -8.34877e-11)
(-1.0677e-09 -5.01066e-10 -1.12224e-09)
(8.25645e-10 -7.54852e-10 -9.20442e-10)
(8.67069e-10 -1.39835e-09 5.98784e-11)
(-3.93087e-09 -3.15038e-10 -2.20511e-09)
(-1.74536e-09 2.93359e-12 -4.78496e-11)
(-2.89331e-11 -3.28748e-09 1.81516e-09)
(-6.21321e-09 9.48514e-10 -2.0279e-09)
(-4.42803e-09 -2.09629e-09 4.20066e-09)
(-2.39892e-09 -2.33474e-09 2.88809e-09)
(-4.14812e-10 2.74121e-10 -2.77268e-10)
(1.22288e-10 1.79558e-10 2.29775e-10)
(1.04488e-10 9.19125e-11 8.62497e-11)
(1.04045e-10 6.91429e-11 9.21913e-11)
(-5.71604e-10 5.29562e-10 -1.65792e-10)
(4.48947e-11 3.79306e-10 4.96249e-10)
(2.65027e-10 1.20297e-10 -1.3363e-10)
(-1.81711e-10 -1.26611e-10 -1.58608e-10)
(4.25757e-09 -3.73722e-10 6.75544e-10)
(1.36241e-09 2.17144e-10 9.23508e-10)
(7.27483e-10 8.5857e-11 2.9826e-11)
(3.40757e-10 1.66344e-10 -2.83157e-10)
(2.22389e-09 -8.53355e-10 -1.27209e-09)
(1.86576e-09 -4.86205e-10 -1.62597e-09)
(4.55542e-10 -1.03519e-10 -8.25649e-10)
(-9.9522e-11 -2.53494e-10 -7.37516e-10)
(-2.01292e-10 -1.17803e-09 -6.90678e-10)
(6.83974e-10 -7.63173e-10 -8.2352e-10)
(9.63382e-10 -4.42022e-10 -9.30924e-10)
(2.84657e-10 -2.61123e-10 -1.00707e-09)
(-1.25735e-09 -1.13867e-09 -8.18809e-10)
(1.40744e-10 -9.55057e-10 -8.58357e-10)
(1.14486e-09 -5.96212e-10 -1.47513e-09)
(4.83322e-10 -1.92624e-10 -1.37425e-09)
(-1.0677e-09 -5.01066e-10 -1.12224e-09)
(-4.20731e-10 -4.17876e-10 -1.10238e-09)
(1.14924e-09 -5.46302e-10 -1.3836e-09)
(2.79712e-10 -1.63268e-10 -7.46906e-10)
(-3.93087e-09 -3.15038e-10 -2.20511e-09)
(-2.52487e-09 -9.01457e-10 -2.54183e-09)
(-4.07353e-10 -3.95318e-10 -1.21011e-09)
(-1.2766e-09 4.58634e-10 -7.0897e-10)
(-6.21321e-09 9.48514e-10 -2.0279e-09)
(-6.82415e-09 -2.9417e-09 2.53521e-09)
(-4.21078e-09 -9.5584e-10 3.66659e-09)
(-2.77219e-09 3.57728e-10 1.92018e-09)
)
;
    }
    procBoundary0to1
    {
        type            processor;
        value           nonuniform List<vector> 
12
(
(3.53466e-09 7.63652e-09 2.64827e-08)
(-4.71093e-09 -4.62577e-09 1.15919e-08)
(-3.8928e-09 -4.89415e-09 5.63066e-09)
(-1.13414e-08 5.24969e-09 1.80283e-08)
(-1.02114e-08 2.15801e-09 1.29455e-08)
(-2.2825e-09 -3.85039e-10 5.37048e-09)
(-3.5153e-09 9.84033e-10 2.21037e-09)
(-3.90257e-09 3.2272e-09 4.35861e-09)
(-6.92835e-10 1.90972e-09 2.81409e-09)
(-2.80266e-09 1.16066e-09 1.016e-09)
(-4.33e-09 2.71014e-09 9.38133e-10)
(-2.63009e-09 2.56905e-09 2.84495e-10)
)
;
    }
    procBoundary0to2
    {
        type            processor;
        value           nonuniform List<vector> 
44
(
(6.37232e-10 -4.9222e-10 -4.06326e-10)
(1.40173e-09 -1.22522e-09 -6.55306e-10)
(-1.56743e-10 -1.87512e-09 7.87055e-10)
(-7.81044e-10 -1.93888e-09 8.28698e-10)
(-2.94668e-09 -3.22903e-09 1.86411e-09)
(-4.79836e-09 -3.20756e-09 1.93208e-09)
(4.96123e-09 -1.73489e-09 -6.04504e-10)
(8.83666e-13 1.32709e-10 -4.11541e-10)
(6.37232e-10 -4.9222e-10 -4.06326e-10)
(4.57562e-10 1.16857e-10 -5.55975e-10)
(6.37232e-10 -4.9222e-10 -4.06326e-10)
(1.40173e-09 -1.22522e-09 -6.55306e-10)
(1.44263e-09 -1.59727e-09 5.07151e-10)
(-2.78724e-10 -2.06062e-09 9.59267e-10)
(-2.77472e-09 -2.14414e-09 2.44539e-09)
(-3.49717e-09 -2.09814e-09 2.3825e-09)
(8.70514e-11 3.76576e-11 -1.22602e-10)
(1.94166e-10 4.71753e-11 -1.91155e-10)
(4.91158e-10 6.99906e-11 -4.04668e-10)
(7.50618e-10 -3.55731e-10 -3.40004e-10)
(1.44263e-09 -1.59727e-09 5.07151e-10)
(9.01374e-10 -7.952e-11 -3.671e-10)
(1.44263e-09 -1.59727e-09 5.07151e-10)
(-2.78724e-10 -2.06062e-09 9.59267e-10)
(-1.99646e-09 -1.57642e-09 1.8074e-09)
(-3.32176e-09 -1.24419e-09 2.56295e-09)
(1.64331e-12 -7.4639e-11 -4.52451e-10)
(3.04128e-11 9.20965e-11 -7.10682e-10)
(4.59435e-10 6.24946e-11 -9.32687e-10)
(3.59254e-10 -2.21597e-10 -1.10687e-09)
(1.03823e-09 -3.96662e-10 -9.05431e-10)
(-1.27412e-10 -1.21231e-09 1.44678e-10)
(-1.99646e-09 -1.57642e-09 1.8074e-09)
(-3.45827e-10 -7.57144e-10 3.82906e-10)
(-1.99646e-09 -1.57642e-09 1.8074e-09)
(-3.32176e-09 -1.24419e-09 2.56295e-09)
(-9.0597e-11 1.81148e-10 -4.58372e-10)
(-5.8236e-10 5.44795e-10 -1.02043e-09)
(-5.10706e-10 6.4567e-10 -1.2158e-09)
(-1.00516e-09 3.58384e-10 -1.07999e-09)
(-1.01815e-09 -1.3626e-10 -1.02377e-09)
(-1.85692e-09 -3.35441e-10 -5.10384e-10)
(-1.62671e-09 -3.70456e-10 4.98415e-10)
(-3.39673e-09 -1.66257e-09 1.52112e-10)
)
;
    }
    procBoundary0to4
    {
        type            processor;
        value           nonuniform List<vector> 
36
(
(-3.5845e-11 -6.00532e-11 7.19323e-11)
(-1.91764e-10 -1.05092e-10 3.11424e-11)
(-2.47026e-10 -1.47829e-10 -4.67577e-11)
(7.70899e-11 -2.40649e-10 -2.00295e-10)
(5.69608e-10 -2.85251e-10 -4.04433e-10)
(8.48748e-10 7.68904e-11 -1.09178e-09)
(2.5835e-10 -2.64947e-10 -4.55819e-10)
(1.39365e-10 -1.05221e-10 -7.51599e-10)
(-1.84423e-09 4.41847e-10 3.63025e-10)
(-7.21074e-11 -8.44141e-11 -4.98936e-11)
(-4.47237e-10 -1.99994e-10 -4.39925e-11)
(-5.27788e-10 -5.58124e-10 -1.85964e-10)
(-6.90191e-10 -5.22322e-10 -5.49408e-10)
(-8.72002e-10 -8.95921e-10 -8.35575e-10)
(-5.42823e-10 -3.23321e-10 -1.52324e-09)
(-1.06293e-09 -5.53372e-10 -3.69333e-10)
(-1.99069e-09 4.10186e-10 -5.10898e-10)
(-3.58026e-09 1.55603e-09 5.60525e-10)
(-1.78595e-10 -6.46479e-11 -1.55897e-10)
(-7.07396e-10 -2.47226e-10 -4.24655e-10)
(-1.37041e-09 -5.62331e-10 -4.30125e-10)
(-2.17397e-09 -2.36301e-10 -1.04679e-09)
(-2.80928e-09 -1.09023e-09 -1.19016e-09)
(-3.3646e-09 -5.7614e-10 -1.15296e-09)
(-3.53735e-09 -7.54612e-11 -5.13655e-10)
(-3.40426e-09 -4.40422e-10 -1.00001e-09)
(-3.13205e-09 1.21913e-09 -1.20678e-09)
(-2.10762e-10 -4.70793e-12 -3.2737e-10)
(-9.35545e-10 -5.22949e-11 -3.4155e-10)
(-1.97813e-09 -1.80454e-11 -4.13087e-12)
(-3.29692e-09 -2.69738e-12 -4.494e-10)
(-4.06071e-09 -5.99941e-10 -6.93288e-10)
(-4.88512e-09 -4.23992e-10 -9.24869e-10)
(-4.2349e-09 5.34326e-10 5.65466e-10)
(-4.64455e-09 -9.34175e-10 -5.89179e-10)
(-3.57454e-09 -2.49362e-10 -1.06262e-09)
)
;
    }
    procBoundary0to6
    {
        type            processor;
        value           uniform (-3.65327e-09 -1.26825e-09 8.20016e-10);
    }
    procBoundary0to7
    {
        type            processor;
        value           uniform (-3.36216e-09 6.41797e-10 7.71856e-10);
    }
}


// ************************************************************************* //
