/*--------------------------------*- C++ -*----------------------------------*\
| =========                 |                                                 |
| \\      /  F ield         | OpenFOAM: The Open Source CFD Toolbox           |
|  \\    /   O peration     | Version:  4.x                                   |
|   \\  /    A nd           | Web:      www.OpenFOAM.org                      |
|    \\/     M anipulation  |                                                 |
\*---------------------------------------------------------------------------*/
FoamFile
{
    version     2.0;
    format      ascii;
    class       volScalarField;
    location    "32";
    object      Ksl;
}
// * * * * * * * * * * * * * * * * * * * * * * * * * * * * * * * * * * * * * //

dimensions      [1 -3 -1 0 0 0 0];

internalField   nonuniform List<scalar> 
132
(
3320.7
6826.73
3090.26
5254.26
2907.52
4529.15
2792.37
4086.5
2617.45
3339.26
7318.9
3201.84
5909.39
3058.22
5184.28
2943.32
4717.57
2836.84
3351.99
7638.51
3259.19
6353.47
3180.69
5673.38
3062
5302.15
3011.61
3365.87
7610.58
3236.46
3374.23
7862.18
3297.68
6950.37
3254.97
6402.69
3204.18
6041.46
3093.91
3404.37
8970.7
3467.08
8869.95
3525.84
9165.13
3515.31
9572.27
3454.41
3442.53
9837.53
3547.6
10804.7
3643.14
12747.8
3692.89
16518.8
3643.23
3485.29
9682.11
3572.1
10680.3
3670.95
3398.73
8129.42
3380.08
7453.94
3331.48
6959.79
3262.95
6624.41
3137.53
3453.33
9571.68
3559.9
10438.4
3632.15
11750.8
3640.83
13689.2
3548.72
3494.59
10866.6
3683.87
15804.1
3808.78
25665.7
3812.11
40305.8
3726.44
3523.07
11619.5
3751.78
19296.4
3861.75
38509.3
3873.4
3394.63
8084.12
3394.78
7570.02
3363.34
7364.87
3335.56
7285.51
3273.55
3466.99
10003.9
3629.56
11996.7
3689.24
14439.3
3731.18
19302.1
3705.82
3525.76
11182.7
3778.32
18638
3913.06
44234.2
3999.82
454723
4009.74
3523.29
11453.8
3821.1
20413.2
3926.96
45355.2
3963.39
180973
3913.47
)
;

boundaryField
{
    inlet
    {
        type            zeroGradient;
    }
    outlet
    {
        type            zeroGradient;
    }
    wall
    {
        type            zeroGradient;
    }
    procBoundary0to1
    {
        type            processor;
        value           nonuniform List<scalar> 
12
(
3826.6
4485.15
5248.23
5912.68
10070.4
26697.2
6514.21
15143.1
67529.9
7821.5
33016
1e+10
)
;
    }
    procBoundary0to2
    {
        type            processor;
        value           nonuniform List<scalar> 
44
(
6324.39
3163.76
5599.78
3064.17
5204.03
2931.21
3403.23
8015.92
6324.39
3327.69
6324.39
3163.76
12845.9
3703.27
15232.6
3610.28
3448.28
9784.84
3591.83
11357
12845.9
3678.96
12845.9
3703.27
75886.6
3816.17
3495.1
10362.6
3680.41
13785.1
3757.88
19096.7
75886.6
3764.36
75886.6
3816.17
3516.91
11314.2
3764.64
16939.1
3840.27
26633.8
3861.53
48607.6
)
;
    }
    procBoundary0to4
    {
        type            processor;
        value           nonuniform List<scalar> 
36
(
3381.6
7950.05
3390.41
7619.75
3375.29
7347.33
3314.83
7237.41
3195.67
3472.71
9969.54
3656.59
13047.6
3713.24
16511.2
3695.03
21965.9
3627.23
3508.7
11218.5
3766.94
17785.9
3830.74
30227.8
3808.19
85330.8
3739.65
3497.39
11226.7
3805.62
18732.7
3905.07
42452.7
3929.55
438580
3862.07
)
;
    }
    procBoundary0to6
    {
        type            processor;
        value           uniform 3870.19;
    }
    procBoundary0to7
    {
        type            processor;
        value           uniform 1e+10;
    }
}


// ************************************************************************* //
