/*--------------------------------*- C++ -*----------------------------------*\
| =========                 |                                                 |
| \\      /  F ield         | OpenFOAM: The Open Source CFD Toolbox           |
|  \\    /   O peration     | Version:  4.x                                   |
|   \\  /    A nd           | Web:      www.OpenFOAM.org                      |
|    \\/     M anipulation  |                                                 |
\*---------------------------------------------------------------------------*/
FoamFile
{
    version     2.0;
    format      ascii;
    class       volScalarField;
    location    "32";
    object      p_rgh;
}
// * * * * * * * * * * * * * * * * * * * * * * * * * * * * * * * * * * * * * //

dimensions      [1 -1 -2 0 0 0 0];

internalField   nonuniform List<scalar> 
132
(
109.069
92.9107
103.667
72.3837
93.7403
55.6951
87.5602
37.4312
81.0421
109.157
92.5299
102.491
73.8706
94.5136
55.8232
87.7725
37.4106
81.1409
109.239
92.4469
102.388
74.394
95.0758
56.0389
88.1062
37.6942
81.404
109.255
92.3396
102.444
109.648
92.9016
102.896
74.1444
94.8712
56.0605
88.1153
37.7432
81.4617
109.917
92.8328
102.982
74.5251
95.4015
56.1391
88.4074
37.6131
81.6085
110.16
92.8682
103.212
74.8083
95.93
56.3674
88.8308
37.7535
82.0014
110.201
92.7256
103.263
74.8631
96.0577
110.023
92.8093
102.928
74.6834
95.4006
56.3172
88.2561
37.7277
81.3814
110.467
92.9754
103.373
74.8836
95.9003
56.4121
88.6564
37.7155
81.5732
110.823
93.1443
103.803
75.1248
96.2976
56.5381
88.8342
37.8842
81.7253
111.067
93.2979
104.053
75.2854
96.5468
56.7995
88.9793
110.49
93.2376
103.438
75.3374
96.1171
57.0946
88.8307
38.8164
81.9591
111.058
93.5042
103.923
75.4719
96.4907
57.236
89.1848
38.7608
82.1688
111.486
93.875
104.445
75.963
96.9821
57.8721
89.386
39.9309
81.9507
111.669
93.9861
104.574
76.0345
96.9523
58.094
89.2907
40.0787
81.9345
)
;

boundaryField
{
    inlet
    {
        type            fixedFluxPressure;
        gradient        nonuniform List<scalar> 
16
(
-0.000920413
-0.000829787
-0.000757261
-0.0007126
-0.000478206
-0.000450746
-0.000421958
-0.000393451
-0.000191407
-0.000184377
-0.000175022
-0.000168083
-6.97984e-07
-5.16394e-07
3.99152e-07
1.21102e-07
)
;
        value           nonuniform List<scalar> 
16
(
109.069
109.157
109.239
109.255
109.648
109.917
110.16
110.201
110.023
110.467
110.823
111.067
110.49
111.058
111.486
111.669
)
;
    }
    outlet
    {
        type            fixedValue;
        value           nonuniform 0();
    }
    wall
    {
        type            fixedFluxPressure;
        gradient        nonuniform List<scalar> 
66
(
-7.42475e-07
2.5965e-07
-1.64939e-06
-4.23205e-06
-8.60869e-06
-1.01801e-05
-1.19562e-05
-1.35328e-05
-1.0277e-05
-2.55025e-06
-8.11539e-06
-7.31397e-06
-1.27539e-07
-1.12548e-05
-2.19684e-05
-7.21732e-06
-1.41381e-05
-1.36687e-05
-1.70151e-05
-3.38291e-05
-5.2349e-05
-1.19725e-05
-2.75768e-05
-3.6378e-05
-9.39337e-06
-5.5841e-05
-7.68063e-05
-6.67814e-06
-4.76801e-05
-3.96703e-05
-1.73971e-07
2.43973e-07
7.21725e-07
1.08395e-06
-5.67758e-06
-8.08399e-07
5.9339e-07
4.32652e-06
1.12625e-05
9.47054e-07
2.96983e-06
2.9345e-06
6.16909e-06
7.39004e-06
7.52242e-06
5.77078e-06
1.70181e-06
5.11473e-06
3.67222e-06
3.50307e-06
4.51945e-06
1.96947e-05
1.21101e-05
9.35082e-06
-1.69855e-07
4.50878e-06
6.37551e-06
3.01886e-06
3.53381e-06
9.5636e-06
6.18572e-06
1.29084e-05
-3.55413e-06
2.77686e-05
1.64378e-05
6.88805e-06
)
;
        value           nonuniform List<scalar> 
66
(
109.069
109.157
109.239
109.255
92.9107
92.5299
92.4469
92.3396
103.667
102.491
102.388
102.444
72.3837
73.8706
74.394
93.7403
94.5136
95.0758
55.6951
55.8232
56.0389
87.5602
87.7725
88.1062
37.4312
37.4106
37.6942
81.0421
81.1409
81.404
109.069
109.648
110.023
110.49
92.9107
92.9016
92.8093
93.2376
103.667
102.896
102.928
103.438
72.3837
74.1444
74.6834
75.3374
93.7403
94.8712
95.4006
96.1171
55.6951
56.0605
56.3172
57.0946
87.5602
88.1153
88.2561
88.8307
37.4312
37.7432
37.7277
38.8164
81.0421
81.4617
81.3814
81.9591
)
;
    }
    procBoundary0to1
    {
        type            processor;
        value           nonuniform List<scalar> 
12
(
18.924
18.6926
18.9318
19.1821
18.8362
19.2573
19.0665
18.826
19.5404
20.4973
20.4734
22.3606
)
;
    }
    procBoundary0to2
    {
        type            processor;
        value           nonuniform List<scalar> 
44
(
74.5166
95.2228
56.1088
88.1619
37.4739
81.4076
109.194
92.2375
74.5166
102.413
74.5166
95.2228
56.3159
88.7584
37.4642
81.836
110.091
92.7738
103.24
74.8563
56.3159
96.046
56.3159
88.7584
38.2684
81.7611
110.799
93.0963
103.811
75.2714
96.4171
57.0288
38.2684
89.0202
38.2684
81.7611
111.559
93.7566
104.364
75.7225
96.8638
57.5576
89.3728
39.3864
)
;
    }
    procBoundary0to4
    {
        type            processor;
        value           nonuniform List<scalar> 
36
(
110.672
93.2681
103.542
75.3687
96.1164
57.1141
88.7625
38.5623
81.6324
111.315
93.5638
104.158
75.5921
96.5818
57.1886
89.1216
38.6889
81.9586
111.78
93.8802
104.532
75.9288
96.8597
57.6597
89.3142
39.3781
81.8954
111.96
94.1618
104.77
76.2992
97.1359
58.1911
89.4101
39.9808
81.834
)
;
    }
    procBoundary0to6
    {
        type            processor;
        value           uniform 82.0645;
    }
    procBoundary0to7
    {
        type            processor;
        value           uniform 22.6544;
    }
}


// ************************************************************************* //
