/*--------------------------------*- C++ -*----------------------------------*\
| =========                 |                                                 |
| \\      /  F ield         | OpenFOAM: The Open Source CFD Toolbox           |
|  \\    /   O peration     | Version:  4.x                                   |
|   \\  /    A nd           | Web:      www.OpenFOAM.org                      |
|    \\/     M anipulation  |                                                 |
\*---------------------------------------------------------------------------*/
FoamFile
{
    version     2.0;
    format      ascii;
    class       surfaceScalarField;
    location    "32";
    object      phi;
}
// * * * * * * * * * * * * * * * * * * * * * * * * * * * * * * * * * * * * * //

dimensions      [0 3 -1 0 0 0 0];

internalField   nonuniform List<scalar> 
308
(
9.09581e-06
-2.68858e-07
-6.63691e-07
9.69596e-06
-1.86417e-07
-4.13723e-07
1.07304e-05
-3.30715e-07
-7.0376e-07
1.126e-05
-1.56799e-07
-3.72813e-07
1.20642e-05
-2.56837e-07
-5.47352e-07
1.24576e-05
-9.67902e-08
-2.96529e-07
1.31031e-05
-2.04944e-07
-4.40572e-07
1.35088e-05
-1.18325e-07
-2.87428e-07
-1.59028e-07
-3.45801e-07
8.94946e-06
-3.02758e-07
-7.52296e-07
9.36215e-06
-2.01916e-07
-3.97191e-07
1.01605e-05
-3.6875e-07
-7.60329e-07
1.05623e-05
-1.92012e-07
-3.66582e-07
1.12128e-05
-2.8413e-07
-6.23225e-07
1.15034e-05
-1.10875e-07
-2.76526e-07
1.20328e-05
-2.35219e-07
-4.99075e-07
1.22718e-05
-1.31289e-07
-2.26037e-07
-2.05724e-07
-3.46269e-07
8.89229e-06
-2.11654e-07
-8.20129e-07
9.17337e-06
-1.02349e-07
-3.80643e-07
9.83228e-06
-2.01674e-07
-8.25991e-07
1.00978e-05
-3.45913e-07
1.06266e-05
-6.66448e-07
1.08436e-05
-2.57893e-07
1.12122e-05
-4.8156e-07
1.12502e-05
-1.44843e-07
-2.97937e-07
8.87044e-06
-8.64165e-07
9.18632e-06
-4.11621e-07
-8.69525e-07
8.61953e-06
-3.53025e-07
-7.66929e-07
8.81762e-06
-1.59067e-07
-4.52747e-07
9.26577e-06
-3.7061e-07
-7.81301e-07
9.45432e-06
-1.45763e-07
-4.15596e-07
9.83572e-06
-3.26e-07
-6.02755e-07
9.98721e-06
-8.92052e-08
-3.58812e-07
1.02838e-05
-2.65339e-07
-4.71787e-07
1.03877e-05
-2.96016e-08
-3.61806e-07
-1.71529e-07
-3.73609e-07
8.30802e-06
-3.8443e-07
-8.65644e-07
8.35124e-06
-1.58263e-07
-4.41216e-07
8.47213e-06
-4.0024e-07
-8.51592e-07
8.45909e-06
-1.39327e-07
-3.59972e-07
8.4859e-06
-3.42167e-07
-6.33868e-07
8.47461e-06
-7.6858e-08
-2.77581e-07
8.46225e-06
-2.56711e-07
-4.95349e-07
8.45421e-06
-2.03052e-08
-2.27291e-07
-1.86965e-07
-3.41607e-07
8.06808e-06
-1.99156e-07
-9.10215e-07
8.03506e-06
-7.62809e-08
-4.29604e-07
7.93078e-06
-1.96385e-07
-9.25568e-07
7.82182e-06
-5.62239e-08
-3.20057e-07
7.60404e-06
-1.29303e-07
-6.61532e-07
7.48906e-06
-1.97346e-07
7.19123e-06
-3.80218e-07
7.12837e-06
-1.23146e-07
-1.07899e-07
8.03224e-06
-9.61408e-07
8.02556e-06
-4.77172e-07
7.90861e-06
-9.83718e-07
7.7814e-06
-3.20049e-07
-6.79939e-07
8.41445e-06
-4.12597e-07
-6.05513e-07
8.52891e-06
-1.86942e-07
-3.80265e-07
8.84045e-06
-4.62524e-07
-6.30321e-07
8.97398e-06
-1.71606e-07
-3.77517e-07
9.27564e-06
-3.92793e-07
-5.11623e-07
9.38605e-06
-1.03741e-07
-3.65487e-07
9.60592e-06
-2.74718e-07
-4.16933e-07
9.71226e-06
-6.27261e-08
-4.05424e-07
-1.51742e-07
-3.57176e-07
8.03151e-06
-4.65013e-07
-6.8147e-07
7.97549e-06
-2.07973e-07
-3.6417e-07
7.87241e-06
-5.33097e-07
-6.77934e-07
7.78702e-06
-1.60299e-07
-2.85893e-07
7.64109e-06
-4.06182e-07
-4.74546e-07
7.57486e-06
-8.07797e-08
-2.34313e-07
7.39512e-06
-2.29394e-07
-3.60929e-07
7.3743e-06
-5.39885e-08
-2.15212e-07
-1.33947e-07
-3.10937e-07
7.71798e-06
-2.32245e-07
-6.97697e-07
7.54562e-06
-1.03206e-07
-3.62017e-07
7.01323e-06
-2.49469e-07
-6.76799e-07
6.82993e-06
-6.83153e-08
-2.28741e-07
6.38693e-06
-1.75052e-07
-4.49662e-07
6.29089e-06
-4.31533e-08
-1.38936e-07
6.07429e-06
-1.07942e-07
-2.85073e-07
6.01789e-06
-9.03792e-08
-5.37863e-08
7.56104e-06
-6.77566e-07
7.32503e-06
-3.71086e-07
6.67558e-06
-6.71562e-07
6.48132e-06
-2.13469e-07
6.00599e-06
-4.38135e-07
5.89164e-06
-1.26261e-07
-2.79806e-07
8.38781e-06
-4.5976e-07
8.47365e-06
-2.24927e-07
8.71554e-06
-4.87283e-07
8.76707e-06
-1.80219e-07
8.9194e-06
-3.80404e-07
8.92984e-06
-1.52445e-07
9.03719e-06
-2.83069e-07
8.98735e-06
-1.13845e-07
-9.52249e-08
7.86858e-06
-4.69156e-07
7.71428e-06
-2.3518e-07
7.43766e-06
-5.2387e-07
7.31278e-06
-1.77287e-07
7.07916e-06
-3.86144e-07
6.93973e-06
-1.32279e-07
6.65401e-06
-2.03289e-07
6.52774e-06
-9.8929e-08
1.95205e-08
7.60905e-06
-2.24773e-07
7.30076e-06
-9.48053e-08
6.61538e-06
-1.96964e-07
6.35354e-06
-4.37398e-08
5.77325e-06
-8.85856e-08
5.55707e-06
-1.88558e-08
5.2235e-06
-1.36589e-08
5.03155e-06
5.61137e-10
3.59394e-08
7.54677e-06
7.18958e-06
6.44834e-06
6.22152e-06
5.72528e-06
5.55098e-06
5.29738e-06
5.1898e-06
)
;

boundaryField
{
    inlet
    {
        type            calculated;
        value           nonuniform List<scalar> 
16
(
-8.16327e-06
-8.16327e-06
-8.16327e-06
-8.16327e-06
-8.16327e-06
-8.16327e-06
-8.16327e-06
-8.16327e-06
-8.16327e-06
-8.16327e-06
-8.16327e-06
-8.16327e-06
-8.16327e-06
-8.16327e-06
-8.16327e-06
-8.16327e-06
)
;
    }
    outlet
    {
        type            calculated;
        value           nonuniform 0();
    }
    wall
    {
        type            calculated;
        value           uniform 0;
    }
    procBoundary0to1
    {
        type            processor;
        value           nonuniform List<scalar> 
12
(
1.40136e-05
1.26648e-05
1.14156e-05
1.05871e-05
8.46498e-06
6.74349e-06
9.84757e-06
7.32583e-06
5.91528e-06
8.86226e-06
6.18841e-06
5.06112e-06
)
;
    }
    procBoundary0to2
    {
        type            processor;
        value           nonuniform List<scalar> 
44
(
-1.11569e-07
-1.46561e-07
-6.9909e-08
-1.22318e-07
-2.44432e-08
-7.31466e-08
-5.46674e-08
-6.6036e-09
9.84814e-06
6.0255e-09
3.56589e-07
7.14899e-07
-2.24289e-08
-6.02208e-08
2.08561e-08
7.87619e-09
2.91136e-08
-4.04947e-09
3.47591e-08
3.44417e-08
7.52572e-06
9.14189e-08
2.06795e-07
4.13696e-07
-3.03536e-08
-8.54456e-08
8.61399e-08
2.67215e-08
8.78204e-08
1.93707e-08
5.84715e-08
-9.33699e-09
5.70663e-06
-5.68281e-08
6.94267e-08
7.87318e-08
7.82339e-08
7.08197e-08
1.71343e-07
7.84578e-08
1.6818e-07
6.94448e-08
9.60414e-08
5.07576e-08
)
;
    }
    procBoundary0to4
    {
        type            processor;
        value           nonuniform List<scalar> 
36
(
-3.70302e-07
-2.41174e-07
-3.84929e-07
-2.48825e-07
-2.83555e-07
-2.23477e-07
-2.41214e-07
-2.4174e-07
-1.36859e-07
-3.77387e-07
-1.99614e-07
-3.6473e-07
-1.63943e-07
-2.35186e-07
-1.15054e-07
-1.54988e-07
-1.0386e-07
-8.63479e-08
-3.87866e-07
-1.94096e-07
-3.18329e-07
-1.00444e-07
-1.66932e-07
-3.61791e-08
-1.41132e-07
2.08061e-09
-9.97742e-08
-3.64079e-07
-1.79522e-07
-2.98631e-07
-1.08847e-07
-1.98653e-07
-4.02674e-08
-1.35902e-07
-1.20423e-08
-3.57163e-08
)
;
    }
    procBoundary0to6
    {
        type            processor;
        value           uniform 2.82918e-08;
    }
    procBoundary0to7
    {
        type            processor;
        value           uniform 5.15443e-06;
    }
}


// ************************************************************************* //
