/*--------------------------------*- C++ -*----------------------------------*\
| =========                 |                                                 |
| \\      /  F ield         | OpenFOAM: The Open Source CFD Toolbox           |
|  \\    /   O peration     | Version:  4.x                                   |
|   \\  /    A nd           | Web:      www.OpenFOAM.org                      |
|    \\/     M anipulation  |                                                 |
\*---------------------------------------------------------------------------*/
FoamFile
{
    version     2.0;
    format      ascii;
    class       volScalarField;
    location    "15.5";
    object      Deff;
}
// * * * * * * * * * * * * * * * * * * * * * * * * * * * * * * * * * * * * * //

dimensions      [0 2 -1 0 0 0 0];

internalField   nonuniform List<scalar> 
132
(
9.95338e-08
9.95378e-08
9.95806e-08
9.95662e-08
9.94773e-08
9.93863e-08
9.93598e-08
9.94611e-08
9.95683e-08
9.95421e-08
9.94574e-08
9.943e-08
9.93669e-08
9.93936e-08
9.92361e-08
9.92705e-08
9.92751e-08
9.92932e-08
9.96291e-08
9.93948e-08
9.93471e-08
9.92711e-08
9.92594e-08
9.92325e-08
9.9243e-08
9.91984e-08
9.90542e-08
9.95483e-08
9.93854e-08
9.93506e-08
9.93571e-08
9.91193e-08
9.89731e-08
9.8964e-08
9.89321e-08
9.88958e-08
9.89309e-08
9.89231e-08
9.89558e-08
9.92227e-08
9.90006e-08
9.89781e-08
9.88929e-08
9.88353e-08
9.87927e-08
9.87636e-08
9.87442e-08
9.87808e-08
9.91202e-08
9.89333e-08
9.89065e-08
9.88474e-08
9.87519e-08
9.87055e-08
9.86227e-08
9.87388e-08
9.87381e-08
9.89775e-08
9.89586e-08
9.88926e-08
9.88268e-08
9.85907e-08
9.90336e-08
9.88526e-08
9.8711e-08
9.8679e-08
9.86434e-08
9.8669e-08
9.85754e-08
9.85722e-08
9.86466e-08
9.8904e-08
9.87545e-08
9.86804e-08
9.86185e-08
9.85209e-08
9.85395e-08
9.84228e-08
9.83661e-08
9.84019e-08
9.87709e-08
9.87165e-08
9.85927e-08
9.84393e-08
9.83692e-08
9.83502e-08
9.83272e-08
9.84106e-08
9.84423e-08
9.87098e-08
9.86313e-08
9.85003e-08
9.83724e-08
9.83024e-08
9.82748e-08
9.82485e-08
9.89595e-08
9.87856e-08
9.86153e-08
9.85634e-08
9.84744e-08
9.83916e-08
9.84547e-08
9.84841e-08
9.83934e-08
9.87934e-08
9.85657e-08
9.84515e-08
9.83978e-08
9.83702e-08
9.83172e-08
9.82113e-08
9.82683e-08
9.82473e-08
9.87688e-08
9.86065e-08
9.83751e-08
9.83064e-08
9.82132e-08
9.81273e-08
9.81601e-08
9.82396e-08
9.81392e-08
9.86892e-08
9.85188e-08
9.8274e-08
9.8143e-08
9.8233e-08
9.80361e-08
9.80781e-08
9.82038e-08
9.82625e-08
)
;

boundaryField
{
    inlet
    {
        type            calculated;
        value           uniform 0;
    }
    outlet
    {
        type            calculated;
        value           nonuniform 0();
    }
    wall
    {
        type            calculated;
        value           uniform 0;
    }
    procBoundary0to1
    {
        type            processor;
        value           uniform 0;
    }
    procBoundary0to2
    {
        type            processor;
        value           uniform 0;
    }
    procBoundary0to4
    {
        type            processor;
        value           uniform 0;
    }
    procBoundary0to6
    {
        type            processor;
        value           uniform 0;
    }
    procBoundary0to7
    {
        type            processor;
        value           uniform 0;
    }
}


// ************************************************************************* //
