/*--------------------------------*- C++ -*----------------------------------*\
| =========                 |                                                 |
| \\      /  F ield         | OpenFOAM: The Open Source CFD Toolbox           |
|  \\    /   O peration     | Version:  4.x                                   |
|   \\  /    A nd           | Web:      www.OpenFOAM.org                      |
|    \\/     M anipulation  |                                                 |
\*---------------------------------------------------------------------------*/
FoamFile
{
    version     2.0;
    format      ascii;
    class       volScalarField;
    location    "15.5";
    object      KslPrev;
}
// * * * * * * * * * * * * * * * * * * * * * * * * * * * * * * * * * * * * * //

dimensions      [1 -3 -1 0 0 0 0];

internalField   nonuniform List<scalar> 
132
(
3424.59
6972.81
3185.82
5162.04
2945.01
4176.62
2831.05
3895.59
2669.65
3451.8
7466.86
3316.95
5812.1
3066.37
4686.8
2983.06
4286.98
2875.13
3477.52
7820.29
3419.25
6734.62
3158.01
6097.47
3246.26
5106.22
3111.3
3486.9
7711.57
3419.5
3487.36
7876.45
3390.76
6820.79
3293.34
6013.04
3278.32
5705.82
3159.9
3527.98
8988.83
3596.69
9063.68
3610.82
9591.31
3686.05
9219.88
3625.89
3607.89
9237.76
3736.33
9305.82
3694.84
9029.4
3811.49
12458
3868.55
3645.47
9007.31
3774.47
9014.44
3687.83
3515.33
8450.31
3529.23
8741.5
3508.88
10472.5
3566.02
7731.27
3397.76
3602.79
9689.33
3778
11261.5
3899.91
11725
3976.4
13691.9
4023.86
3676.29
10017.9
3920.77
12044.9
4040.2
13728.8
4163.97
162053
4191.24
3715.58
10054.1
3988.83
12027
4057.56
14386.2
4281.23
3506.42
7986.86
3499.37
7445.62
3441.12
7800.12
3397.64
7032.95
3255.5
3587.43
9849.69
3767.5
11690.9
3819.43
12468.8
3838.9
15419.1
3747.93
3675.11
9734.83
3885.69
11517.9
3917.61
12291.9
3925.77
14737
3764.66
3674.75
9758.26
3950.74
11172.2
3961.07
11835.3
4033.93
14920.8
3883.05
)
;

boundaryField
{
    inlet
    {
        type            zeroGradient;
    }
    outlet
    {
        type            zeroGradient;
    }
    wall
    {
        type            zeroGradient;
    }
    procBoundary0to1
    {
        type            processor;
        value           uniform 0;
    }
    procBoundary0to2
    {
        type            processor;
        value           uniform 0;
    }
    procBoundary0to4
    {
        type            processor;
        value           uniform 0;
    }
    procBoundary0to6
    {
        type            processor;
        value           uniform 0;
    }
    procBoundary0to7
    {
        type            processor;
        value           uniform 0;
    }
}


// ************************************************************************* //
