/*--------------------------------*- C++ -*----------------------------------*\
| =========                 |                                                 |
| \\      /  F ield         | OpenFOAM: The Open Source CFD Toolbox           |
|  \\    /   O peration     | Version:  4.x                                   |
|   \\  /    A nd           | Web:      www.OpenFOAM.org                      |
|    \\/     M anipulation  |                                                 |
\*---------------------------------------------------------------------------*/
FoamFile
{
    version     2.0;
    format      ascii;
    class       volScalarField;
    location    "15.5";
    object      magGField;
}
// * * * * * * * * * * * * * * * * * * * * * * * * * * * * * * * * * * * * * //

dimensions      [1 -2 -1 0 0 0 0];

internalField   nonuniform List<scalar> 
132
(
99.4512
49.2409
109.461
66.8821
119.768
84.5742
127.784
92.5532
135.677
99.8052
46.8198
106.85
59.9076
116.235
75.4284
121.698
84.9998
127.735
100.446
45.5096
105.098
51.9008
113.192
56.1367
112.199
72.0007
117.498
100.141
46.7349
106.885
98.0423
43.5053
101.87
50.1722
106.424
57.6014
109.019
61.9262
112.909
97.6629
39.0106
98.7152
38.2097
99.1236
35.8151
97.9904
38.8217
99.6509
96.0736
38.4993
96.3153
37.6111
96.7643
37.5356
94.8288
28.9717
92.8367
95.3878
39.8415
96.8428
39.3565
96.2533
96.0175
40.0496
97.129
38.518
98.3232
31.9931
97.3778
44.2937
101.801
94.7918
35.7158
92.8314
30.3695
90.2072
28.7994
88.5995
25.1699
86.6111
93.2697
34.9652
90.5029
28.5478
87.7189
24.1481
84.5722
2.54533
82.57
92.8188
35.2266
89.9532
28.8855
87.0456
22.0762
81.9523
95.4354
42.1341
97.288
45.0375
99.057
42.8577
100.675
47.8947
104.069
94.3785
34.8262
92.0823
29.0769
90.6505
26.7892
89.8877
21.7666
90.8608
93.0593
35.539
90.1396
29.6946
88.8009
27.1647
87.8165
22.7205
89.6232
92.9395
35.7279
89.1411
30.8312
87.8643
27.789
85.0924
22.4471
86.6299
)
;

boundaryField
{
    inlet
    {
        type            calculated;
        value           uniform 67;
    }
    outlet
    {
        type            calculated;
        value           nonuniform 0();
    }
    wall
    {
        type            calculated;
        value           uniform 0;
    }
    procBoundary0to1
    {
        type            processor;
        value           nonuniform List<scalar> 
12
(
100.355
90.0608
74.5652
66.9118
40.2912
16.9809
48.6925
24.8125
1.52645
52.8982
16.2265
16.8682
)
;
    }
    procBoundary0to2
    {
        type            processor;
        value           nonuniform List<scalar> 
44
(
52.3689
115.924
64.7019
108.93
76.202
118.295
98.1713
44.4698
52.3689
107.769
52.3689
115.924
41.3993
91.3613
33.44
89.7196
95.8186
40.4917
97.84
39.3323
41.3993
96.7749
41.3993
91.3613
2.99211
79.8104
93.9416
37.9432
92.0254
33.0645
90.3294
35.2661
2.99211
85.1227
2.99211
79.8104
92.6876
36.4663
90.0878
33.6117
90.9016
32.864
87.4783
25.657
)
;
    }
    procBoundary0to4
    {
        type            processor;
        value           nonuniform List<scalar> 
36
(
94.663
41.7005
95.2181
42.9721
96.0023
41.157
96.2046
41.172
97.1209
92.6762
34.1786
89.2643
24.1956
86.4223
23.2049
85.9344
17.8318
85.3029
92.1926
33.1363
87.5848
24.3424
85.2847
24.87
83.6291
18.8566
81.3025
92.3299
34.2997
87.169
27.7526
83.9168
23.2226
80.2104
17.5929
78.1167
)
;
    }
    procBoundary0to6
    {
        type            processor;
        value           uniform 88.1339;
    }
    procBoundary0to7
    {
        type            processor;
        value           uniform 16.0895;
    }
}


// ************************************************************************* //
