/*--------------------------------*- C++ -*----------------------------------*\
| =========                 |                                                 |
| \\      /  F ield         | OpenFOAM: The Open Source CFD Toolbox           |
|  \\    /   O peration     | Version:  4.x                                   |
|   \\  /    A nd           | Web:      www.OpenFOAM.org                      |
|    \\/     M anipulation  |                                                 |
\*---------------------------------------------------------------------------*/
FoamFile
{
    version     2.0;
    format      ascii;
    class       volScalarField;
    location    "15.5";
    object      Qsource;
}
// * * * * * * * * * * * * * * * * * * * * * * * * * * * * * * * * * * * * * //

dimensions      [1 -1 -3 0 0 0 0];

internalField   nonuniform List<scalar> 
132
(
6.86925e+09
5.21693e+09
5.51645e+09
4.19975e+09
6.28647e+09
6.05972e+09
7.95894e+09
5.5951e+09
4.20762e+09
5.49182e+09
5.56337e+09
6.40558e+09
6.15912e+09
4.80754e+09
7.45211e+09
6.33114e+09
6.26215e+09
6.6869e+09
3.11275e+09
6.34238e+09
6.62418e+09
5.54341e+09
6.52915e+09
5.39101e+09
4.92845e+09
5.90998e+09
9.50688e+09
3.82392e+09
5.02101e+09
4.4204e+09
5.08952e+09
7.39863e+09
9.44019e+09
8.05031e+09
8.57379e+09
8.08575e+09
7.98931e+09
7.38065e+09
8.18538e+09
4.96916e+09
9.45053e+09
7.97262e+09
8.45542e+09
9.56144e+09
8.56428e+09
9.1218e+09
9.23425e+09
8.95732e+09
5.29182e+09
9.51185e+09
8.41857e+09
7.57564e+09
8.27553e+09
7.79992e+09
1.05031e+10
6.97378e+09
6.29646e+09
7.96112e+09
7.13006e+09
7.82773e+09
5.60668e+09
1.1513e+10
6.3875e+09
7.33874e+09
8.88017e+09
7.17409e+09
8.18456e+09
5.74864e+09
8.68652e+09
7.32547e+09
6.18851e+09
6.22562e+09
8.26459e+09
7.93936e+09
6.82996e+09
9.16437e+09
6.65765e+09
9.23187e+09
9.99894e+09
1.00025e+10
6.70392e+09
7.25787e+09
8.10162e+09
9.42852e+09
9.84487e+09
8.28041e+09
9.11419e+09
6.10521e+09
5.30667e+09
6.90308e+09
8.79249e+09
9.63089e+09
9.26843e+09
1.01439e+10
8.32616e+09
8.67057e+09
5.15259e+09
5.42175e+09
7.54926e+09
5.62034e+09
7.86055e+09
8.0773e+09
6.70347e+09
4.8082e+09
6.91729e+09
5.11778e+09
9.59704e+09
9.05456e+09
8.05625e+09
7.17579e+09
6.73974e+09
1.04367e+10
7.33507e+09
6.93591e+09
5.18432e+09
5.68182e+09
9.10306e+09
6.37707e+09
8.86041e+09
9.03736e+09
8.393e+09
5.29807e+09
9.50138e+09
4.8355e+09
6.83488e+09
9.74625e+09
1.07589e+10
5.60471e+09
1.03575e+10
8.63839e+09
5.8462e+09
2.64474e+09
)
;

boundaryField
{
    inlet
    {
        type            calculated;
        value           uniform 0;
    }
    outlet
    {
        type            calculated;
        value           nonuniform 0();
    }
    wall
    {
        type            calculated;
        value           uniform 0;
    }
    procBoundary0to1
    {
        type            processor;
        value           nonuniform List<scalar> 
12
(
6.07373e+09
5.42339e+09
4.64809e+09
8.13515e+09
9.1354e+09
9.05709e+09
7.5141e+09
6.42355e+09
8.01945e+09
7.1723e+09
7.97754e+09
6.08564e+09
)
;
    }
    procBoundary0to2
    {
        type            processor;
        value           nonuniform List<scalar> 
44
(
7.65258e+09
6.60641e+09
3.72392e+09
6.86466e+09
3.53713e+09
4.02266e+09
6.65448e+09
7.4403e+09
7.65258e+09
7.10404e+09
7.65258e+09
6.60641e+09
1.01585e+10
1.22327e+10
6.73264e+09
1.13603e+10
4.72916e+09
8.04842e+09
9.7002e+09
9.29084e+09
1.01585e+10
9.21984e+09
1.01585e+10
1.22327e+10
7.74866e+09
8.98188e+09
6.87755e+09
5.83607e+09
6.83996e+09
7.04194e+09
6.9708e+09
8.28714e+09
7.74866e+09
1.00749e+10
7.74866e+09
8.98188e+09
4.90049e+09
9.62902e+09
1.04398e+10
7.5906e+09
8.49847e+09
6.68253e+09
7.74047e+09
8.27363e+09
)
;
    }
    procBoundary0to4
    {
        type            processor;
        value           nonuniform List<scalar> 
36
(
5.71749e+09
7.52716e+09
9.17209e+09
6.35959e+09
7.8873e+09
6.29172e+09
9.63241e+09
7.18257e+09
1.03393e+10
6.99721e+09
7.28473e+09
9.30136e+09
9.92647e+09
1.00492e+10
8.57717e+09
8.02704e+09
5.79338e+09
1.10526e+10
6.66808e+09
1.03311e+10
8.30603e+09
9.52846e+09
8.18381e+09
6.60559e+09
7.40996e+09
1.07898e+10
6.74336e+09
3.46677e+09
6.77884e+09
9.42889e+09
5.8669e+09
8.9493e+09
7.06389e+09
1.11635e+10
6.37221e+09
7.10185e+09
)
;
    }
    procBoundary0to6
    {
        type            processor;
        value           uniform 8.23571e+09;
    }
    procBoundary0to7
    {
        type            processor;
        value           uniform 1.04622e+10;
    }
}


// ************************************************************************* //
