/*--------------------------------*- C++ -*----------------------------------*\
| =========                 |                                                 |
| \\      /  F ield         | OpenFOAM: The Open Source CFD Toolbox           |
|  \\    /   O peration     | Version:  4.x                                   |
|   \\  /    A nd           | Web:      www.OpenFOAM.org                      |
|    \\/     M anipulation  |                                                 |
\*---------------------------------------------------------------------------*/
FoamFile
{
    version     2.0;
    format      ascii;
    class       volScalarField;
    location    "15.5";
    object      Sm;
}
// * * * * * * * * * * * * * * * * * * * * * * * * * * * * * * * * * * * * * //

dimensions      [1 -3 -1 0 0 0 0];

internalField   nonuniform List<scalar> 
132
(
5.5022e-65
4.41709e-65
3.09967e-65
2.8672e-65
3.79714e-65
4.02938e-65
4.7266e-65
3.48651e-65
1.70449e-65
4.8822e-65
4.72696e-65
4.57191e-65
5.11429e-65
3.17697e-65
5.81132e-65
4.41624e-65
4.64833e-65
4.26031e-65
2.71229e-65
5.34688e-65
4.72686e-65
4.72671e-65
4.26164e-65
4.33892e-65
3.25388e-65
4.49319e-65
6.89448e-65
2.86739e-65
4.41706e-65
3.25464e-65
4.18477e-65
6.66426e-65
8.059e-65
7.0516e-65
6.81897e-65
7.12855e-65
5.73342e-65
6.42975e-65
6.19671e-65
5.42466e-65
7.98159e-65
6.27663e-65
7.20631e-65
7.28358e-65
7.1283e-65
7.04994e-65
7.74611e-65
6.97056e-65
5.88971e-65
8.13658e-65
6.81896e-65
6.27626e-65
6.66342e-65
6.58567e-65
8.28926e-65
6.04207e-65
4.95705e-65
8.05949e-65
6.12189e-65
6.12152e-65
4.72627e-65
8.98603e-65
5.9672e-65
6.81941e-65
7.28418e-65
6.7416e-65
6.58654e-65
5.19128e-65
7.05009e-65
6.89407e-65
4.72463e-65
6.43219e-65
7.05189e-65
6.43168e-65
5.96662e-65
7.36114e-65
5.73352e-65
7.3597e-65
8.83036e-65
8.28685e-65
7.67216e-65
6.27696e-65
6.58662e-65
8.21355e-65
7.82572e-65
7.36037e-65
7.4371e-65
6.19636e-65
4.56931e-65
7.28468e-65
7.59426e-65
7.67133e-65
8.13572e-65
8.21242e-65
7.12777e-65
7.12704e-65
4.57239e-65
4.88214e-65
5.73448e-65
5.34696e-65
6.12168e-65
7.43856e-65
4.80373e-65
4.10554e-65
4.95732e-65
5.50231e-65
8.1369e-65
7.28426e-65
6.74166e-65
5.81157e-65
5.96613e-65
8.36723e-65
6.58422e-65
5.49895e-65
4.57232e-65
4.9596e-65
7.28423e-65
5.73419e-65
7.28366e-65
8.05789e-65
6.74019e-65
5.11244e-65
8.05505e-65
5.26984e-65
5.88957e-65
7.82666e-65
9.22112e-65
4.49422e-65
9.14271e-65
7.1277e-65
5.42302e-65
2.32388e-65
)
;

boundaryField
{
    inlet
    {
        type            calculated;
        value           uniform 0;
    }
    outlet
    {
        type            calculated;
        value           nonuniform 0();
    }
    wall
    {
        type            calculated;
        value           uniform 0;
    }
    procBoundary0to1
    {
        type            processor;
        value           nonuniform List<scalar> 
12
(
3.71851e-65
3.64037e-65
3.48558e-65
6.66082e-65
7.20244e-65
8.1319e-65
7.04724e-65
5.57524e-65
7.89889e-65
6.58281e-65
7.04712e-65
5.73094e-65
)
;
    }
    procBoundary0to2
    {
        type            processor;
        value           nonuniform List<scalar> 
44
(
6.50818e-65
4.88095e-65
2.55562e-65
4.88061e-65
2.24659e-65
2.63409e-65
5.73478e-65
6.5092e-65
6.50818e-65
5.11415e-65
6.50818e-65
4.88095e-65
8.44361e-65
9.7606e-65
5.73248e-65
9.37334e-65
5.42478e-65
6.81925e-65
7.67066e-65
7.74578e-65
8.44361e-65
7.04577e-65
8.44361e-65
9.7606e-65
7.59145e-65
7.97852e-65
7.28466e-65
4.95961e-65
5.50165e-65
6.04333e-65
5.57766e-65
7.12683e-65
7.59145e-65
8.36646e-65
7.59145e-65
7.97852e-65
4.80481e-65
8.13689e-65
8.36907e-65
6.58652e-65
6.81861e-65
5.88874e-65
6.27567e-65
7.74795e-65
)
;
    }
    procBoundary0to4
    {
        type            processor;
        value           nonuniform List<scalar> 
36
(
5.19239e-65
7.36214e-65
7.51702e-65
5.5796e-65
5.96688e-65
5.65674e-65
7.59331e-65
6.74017e-65
8.90855e-65
7.74979e-65
6.35468e-65
7.36192e-65
8.60168e-65
8.21398e-65
7.51629e-65
6.35346e-65
5.42298e-65
9.06295e-65
6.97478e-65
8.75697e-65
6.66445e-65
8.44666e-65
6.66414e-65
5.96654e-65
6.12103e-65
9.68419e-65
5.65512e-65
4.33988e-65
5.7347e-65
7.59443e-65
5.19207e-65
7.36155e-65
6.35404e-65
9.22058e-65
5.96613e-65
5.96554e-65
)
;
    }
    procBoundary0to6
    {
        type            processor;
        value           uniform 6.74066e-65;
    }
    procBoundary0to7
    {
        type            processor;
        value           uniform 9.91526e-65;
    }
}


// ************************************************************************* //
