/*--------------------------------*- C++ -*----------------------------------*\
| =========                 |                                                 |
| \\      /  F ield         | OpenFOAM: The Open Source CFD Toolbox           |
|  \\    /   O peration     | Version:  4.x                                   |
|   \\  /    A nd           | Web:      www.OpenFOAM.org                      |
|    \\/     M anipulation  |                                                 |
\*---------------------------------------------------------------------------*/
FoamFile
{
    version     2.0;
    format      ascii;
    class       volScalarField;
    location    "15.5";
    object      T;
}
// * * * * * * * * * * * * * * * * * * * * * * * * * * * * * * * * * * * * * //

dimensions      [0 0 0 1 0 0 0];

internalField   nonuniform List<scalar> 
132
(
299.989
299.99
299.991
299.993
299.996
300
300.003
300.005
300.005
299.988
299.988
299.988
299.99
299.995
300.001
300.006
300.007
300.006
299.984
299.983
299.982
299.983
299.99
300.006
300.012
300.012
300.01
299.978
299.975
299.97
299.99
299.99
299.991
299.993
299.996
300
300.003
300.004
300.004
299.988
299.988
299.989
299.991
299.995
300.001
300.004
300.006
300.006
299.985
299.985
299.984
299.985
299.992
300.004
300.009
300.01
300.009
299.98
299.978
299.975
299.974
299.982
299.991
299.991
299.992
299.994
299.997
299.999
300.002
300.003
300.003
299.99
299.99
299.991
299.993
299.996
300
300.003
300.004
300.004
299.987
299.987
299.987
299.989
299.994
300.001
300.006
300.007
300.007
299.984
299.983
299.982
299.983
299.99
300.005
300.012
299.992
299.993
299.994
299.995
299.997
299.999
300.001
300.002
300.003
299.992
299.992
299.993
299.994
299.997
299.999
300.002
300.003
300.003
299.99
299.99
299.99
299.992
299.996
300
300.003
300.005
300.005
299.987
299.987
299.987
299.989
299.994
300.002
300.006
300.008
300.007
)
;

boundaryField
{
    inlet
    {
        type            fixedValue;
        value           uniform 300;
    }
    outlet
    {
        type            zeroGradient;
    }
    wall
    {
        type            zeroGradient;
    }
    procBoundary0to1
    {
        type            processor;
        value           nonuniform List<scalar> 
12
(
300.004
300.005
300.008
300.004
300.005
300.007
300.003
300.004
300.005
300.002
300.003
300.004
)
;
    }
    procBoundary0to2
    {
        type            processor;
        value           nonuniform List<scalar> 
44
(
299.964
299.972
300.023
300.03
300.024
300.017
299.971
299.964
299.964
299.948
299.964
299.972
300.013
300.021
300.019
300.015
299.975
299.97
299.961
299.949
300.013
299.95
300.013
300.021
300.013
300.011
299.98
299.978
299.974
299.973
299.981
300.014
300.013
300.022
300.013
300.011
299.985
299.984
299.983
299.985
299.991
300.004
300.01
300.011
)
;
    }
    procBoundary0to4
    {
        type            processor;
        value           nonuniform List<scalar> 
36
(
299.994
299.994
299.995
299.996
299.997
299.999
300.001
300.002
300.002
299.993
299.993
299.994
299.995
299.997
299.999
300.001
300.002
300.002
299.992
299.992
299.993
299.994
299.997
300
300.002
300.003
300.003
299.99
299.99
299.991
299.993
299.996
300
300.003
300.005
300.005
)
;
    }
    procBoundary0to6
    {
        type            processor;
        value           uniform 300.01;
    }
    procBoundary0to7
    {
        type            processor;
        value           uniform 300.006;
    }
}


// ************************************************************************* //
