/*--------------------------------*- C++ -*----------------------------------*\
| =========                 |                                                 |
| \\      /  F ield         | OpenFOAM: The Open Source CFD Toolbox           |
|  \\    /   O peration     | Version:  4.x                                   |
|   \\  /    A nd           | Web:      www.OpenFOAM.org                      |
|    \\/     M anipulation  |                                                 |
\*---------------------------------------------------------------------------*/
FoamFile
{
    version     2.0;
    format      ascii;
    class       volScalarField;
    location    "2.5";
    object      Ksl;
}
// * * * * * * * * * * * * * * * * * * * * * * * * * * * * * * * * * * * * * //

dimensions      [1 -3 -1 0 0 0 0];

internalField   nonuniform List<scalar> 
132
(
3582.45
7243.31
3295.66
6219.78
3332.11
5955.01
3350.85
5432.65
3175.73
3654.66
8108.26
3546.51
8368.5
3770.66
11636.6
4107.32
13366.3
4362.66
3823.39
10889.4
4132.74
21634.5
4761.74
60260.6
5200.49
83627.9
5096.99
3901.66
12697.6
4346.24
3817.31
9069.04
3641.79
7139.4
3551.24
6461.67
3528.52
5888.02
3386.38
3919.63
12806.1
4159.83
15695.7
4449.46
23389.6
4712.55
29016.7
4645.4
4235.18
17572.4
4877.7
42450.8
5431.85
168103
5427.34
47643.5
3888.89
4250.01
19037
4899.02
51762.8
5550.65
3893.42
9802.52
3740.43
6973.95
3509.07
5725.58
3365.32
5159.62
3185.52
3976.49
13761.5
4148.18
16086.5
4351.99
25672.9
4520.71
37616.5
4365.69
4263.87
19330
4780.44
60005.8
5176.3
42860.5
5408.15
86780.6
5167.02
4181.32
20116.3
4510.51
36816.3
4530.63
50388.8
4217.4
3902.68
9270.43
3737.36
6491.48
3464.42
5182.47
3252.76
4214.6
3011.41
3996.91
13804.4
4215.27
17101.6
4443.22
31648.4
4691.17
76198.9
4532.1
4243.47
17558.8
4723.92
47079.1
5025.5
153823
5252.81
42422
4875.76
4111.61
19151.1
4533.83
44421.1
4716.85
81833.6
4684.32
135265
4116.21
)
;

boundaryField
{
    inlet
    {
        type            zeroGradient;
    }
    outlet
    {
        type            zeroGradient;
    }
    wall
    {
        type            zeroGradient;
    }
    procBoundary0to1
    {
        type            processor;
        value           nonuniform List<scalar> 
12
(
4548.48
8844.16
9748.36
5417.59
8014.37
53309.6
4487.15
19182.7
13557.6
3783.96
30537.6
774529
)
;
    }
    procBoundary0to2
    {
        type            processor;
        value           nonuniform List<scalar> 
44
(
35095.5
5023.97
114512
5471.27
48065
5075.7
3859.48
10150.4
35095.5
4034.85
35095.5
5023.97
69244.9
6357.9
6694.08
11546
4126.6
15405.8
4612.52
30082.5
69244.9
5001.56
69244.9
6357.9
24804.6
2940.31
4135.95
17853.2
4515.24
33913.3
4708.5
64279.4
24804.6
4711.93
24804.6
2940.31
4211.57
22787.6
4750.57
65021.4
4996.75
151717
5013.97
75759.3
)
;
    }
    procBoundary0to4
    {
        type            processor;
        value           nonuniform List<scalar> 
36
(
3891.96
9255.58
3771.7
6833.14
3577.88
5668.43
3384.18
4869.2
3020.95
4043.59
16022.2
4385.52
34420.8
4774.32
554717
5204.43
14871.2
6266.83
4292.15
17593.3
4893.32
81919.4
5410.2
268753
5397.47
34604.8
4700.85
4099.32
17862
4574.35
42695
4868.77
217073
4880.11
18748
3977.15
)
;
    }
    procBoundary0to6
    {
        type            processor;
        value           uniform 4169.21;
    }
    procBoundary0to7
    {
        type            processor;
        value           uniform 8646.7;
    }
}


// ************************************************************************* //
