/*--------------------------------*- C++ -*----------------------------------*\
| =========                 |                                                 |
| \\      /  F ield         | OpenFOAM: The Open Source CFD Toolbox           |
|  \\    /   O peration     | Version:  4.x                                   |
|   \\  /    A nd           | Web:      www.OpenFOAM.org                      |
|    \\/     M anipulation  |                                                 |
\*---------------------------------------------------------------------------*/
FoamFile
{
    version     2.0;
    format      ascii;
    class       volScalarField;
    location    "2.5";
    object      thCond;
}
// * * * * * * * * * * * * * * * * * * * * * * * * * * * * * * * * * * * * * //

dimensions      [1 1 -3 -1 0 0 0];

internalField   nonuniform List<scalar> 
132
(
193.829
193.671
193.553
193.443
193.23
193.029
192.947
193.169
193.385
193.565
193.348
193.208
193.044
193.07
192.756
192.838
192.838
192.858
193.626
193.151
193.027
192.853
192.81
192.753
192.784
192.721
192.382
193.433
193.114
193.04
193.193
192.672
192.314
192.249
192.16
192.071
192.077
192.119
192.196
192.851
192.39
192.305
192.109
191.977
191.892
191.872
191.818
191.88
192.6
192.224
192.154
192.021
191.814
191.721
191.572
191.804
191.772
192.301
192.263
192.132
192.003
191.492
192.44
192.066
191.76
191.666
191.584
191.619
191.43
191.44
191.6
192.164
191.86
191.697
191.563
191.354
191.388
191.164
191.071
191.258
191.884
191.772
191.522
191.214
191.059
191.024
190.982
191.124
191.201
191.755
191.602
191.347
191.102
190.919
190.873
190.813
192.238
191.891
191.546
191.43
191.241
191.048
191.188
191.249
191.072
191.908
191.459
191.23
191.115
191.052
190.965
190.73
190.838
190.814
191.852
191.535
191.083
190.943
190.743
190.599
190.616
190.758
190.563
191.692
191.362
190.886
190.627
190.795
190.393
190.459
190.702
190.819
)
;

boundaryField
{
    inlet
    {
        type            zeroGradient;
    }
    outlet
    {
        type            zeroGradient;
    }
    wall
    {
        type            zeroGradient;
    }
    procBoundary0to1
    {
        type            processor;
        value           nonuniform List<scalar> 
12
(
193.024
192.82
192.472
192.011
191.717
191.417
191.244
190.957
190.751
190.766
190.491
190.387
)
;
    }
    procBoundary0to2
    {
        type            processor;
        value           nonuniform List<scalar> 
44
(
192.608
192.56
192.736
192.516
192.765
192.572
193.01
192.771
192.608
192.82
192.608
192.56
191.429
191.267
191.628
191.353
192.436
192.162
191.937
191.81
191.429
191.657
191.429
191.267
190.904
190.836
191.81
191.775
191.513
191.305
191.169
190.967
190.904
190.759
190.904
190.836
191.548
191.128
190.865
190.799
190.729
190.628
190.518
190.481
)
;
    }
    procBoundary0to4
    {
        type            processor;
        value           nonuniform List<scalar> 
36
(
191.86
191.416
191.096
191.065
190.949
190.886
190.671
190.555
190.206
191.442
191.24
190.927
190.643
190.578
190.583
190.554
190.48
190.114
191.369
190.982
190.81
190.48
190.456
190.479
190.366
190.119
190.263
191.416
191.088
190.725
190.594
190.35
190.326
190.01
190.267
190.273
)
;
    }
    procBoundary0to6
    {
        type            processor;
        value           uniform 190.5;
    }
    procBoundary0to7
    {
        type            processor;
        value           uniform 190.015;
    }
}


// ************************************************************************* //
