/*--------------------------------*- C++ -*----------------------------------*\
| =========                 |                                                 |
| \\      /  F ield         | OpenFOAM: The Open Source CFD Toolbox           |
|  \\    /   O peration     | Version:  4.x                                   |
|   \\  /    A nd           | Web:      www.OpenFOAM.org                      |
|    \\/     M anipulation  |                                                 |
\*---------------------------------------------------------------------------*/
FoamFile
{
    version     2.0;
    format      ascii;
    class       volVectorField;
    location    "2.5";
    object      UsNext;
}
// * * * * * * * * * * * * * * * * * * * * * * * * * * * * * * * * * * * * * //

dimensions      [0 1 -1 0 0 0 0];

internalField   nonuniform List<vector> 
132
(
(2.41371e-06 -9.10048e-06 -1.03302e-05)
(3.35757e-06 -2.05486e-05 -3.76886e-05)
(3.14192e-05 -1.80827e-05 -3.16023e-05)
(3.99389e-05 -4.49211e-05 -3.12496e-05)
(4.37716e-05 -5.65875e-05 -2.83638e-05)
(3.82315e-05 -4.44346e-05 -3.10692e-05)
(2.62947e-05 -4.85683e-05 -6.00125e-05)
(3.9982e-05 -2.43994e-05 -7.80858e-05)
(5.88652e-05 -4.55641e-05 -9.35035e-05)
(9.22898e-06 -1.24972e-05 -2.83135e-05)
(4.37348e-05 -4.43846e-05 -7.17192e-05)
(7.0734e-05 -6.64727e-05 -9.14784e-05)
(7.24484e-05 -9.21437e-05 -9.09807e-05)
(8.4592e-05 -9.28333e-05 -9.64139e-05)
(9.27456e-05 -8.42345e-05 -8.36585e-05)
(0.000111504 -8.36699e-05 -0.000117145)
(9.68286e-05 -5.92453e-05 -0.000131048)
(0.000112197 -4.86157e-05 -0.000198866)
(3.32019e-05 -3.62658e-05 -2.49981e-05)
(4.76006e-05 -4.70853e-05 -8.54236e-05)
(7.70935e-05 -6.3764e-05 -0.000122158)
(0.000103141 -7.52513e-05 -0.000153375)
(0.000125579 -7.85323e-05 -0.000136333)
(0.000156477 -0.000108114 -0.000124946)
(0.000131914 -0.000102785 -0.000125931)
(0.000150447 -8.00081e-05 -0.000144757)
(6.83215e-05 -9.94061e-06 -0.000212521)
(-4.67171e-06 -2.0562e-05 -3.32719e-05)
(2.87213e-05 -4.98197e-05 -9.58337e-05)
(8.17486e-05 -6.29872e-05 -0.000138368)
(6.23219e-06 -5.1981e-06 -1.09586e-05)
(2.69357e-05 -4.98834e-06 -3.42926e-05)
(2.339e-05 -1.01528e-05 -2.88804e-05)
(3.8109e-05 -2.36968e-05 -3.41269e-05)
(4.69198e-05 -2.78187e-05 -3.3202e-05)
(4.96794e-05 -2.2213e-05 -3.63135e-05)
(5.6016e-05 -2.81082e-05 -5.92039e-05)
(6.65346e-05 -2.33295e-05 -8.02027e-05)
(6.32217e-05 7.55686e-06 -8.88011e-05)
(1.51982e-05 -1.04504e-05 -2.42634e-05)
(4.19414e-05 -2.11799e-05 -5.24796e-05)
(6.23596e-05 -2.53063e-05 -8.3401e-05)
(6.74666e-05 -3.97556e-05 -9.46423e-05)
(8.5727e-05 -5.19157e-05 -9.00043e-05)
(8.8751e-05 -4.6915e-05 -8.05733e-05)
(0.000100898 -5.91359e-05 -9.65381e-05)
(0.000112547 -6.05907e-05 -0.000119964)
(0.000116827 -4.74983e-05 -0.000166118)
(2.10732e-05 -1.72939e-05 -3.59899e-05)
(5.43026e-05 -3.45337e-05 -8.34046e-05)
(8.22122e-05 -4.13155e-05 -0.000121586)
(0.000102581 -5.57007e-05 -0.000141805)
(0.0001146 -6.56442e-05 -0.000124664)
(0.000123338 -8.69508e-05 -0.000113454)
(0.000129458 -9.64323e-05 -0.000128046)
(0.000120479 -7.91576e-05 -0.000134489)
(0.00011559 -3.85889e-05 -0.00018983)
(1.82563e-05 -1.85209e-05 -4.60717e-05)
(5.28568e-05 -3.37001e-05 -9.97465e-05)
(7.93812e-05 -3.94184e-05 -0.000132525)
(0.000120901 -5.19114e-05 -0.000155674)
(0.000138799 -6.54018e-05 -0.000129975)
(7.54209e-06 1.41407e-06 -1.12238e-05)
(2.59093e-05 -3.28282e-06 -3.0093e-05)
(2.27235e-05 4.68707e-06 -2.45198e-05)
(3.28397e-05 -1.95588e-06 -3.21593e-05)
(4.33889e-05 -1.24798e-05 -3.30516e-05)
(6.28218e-05 -2.12074e-05 -4.66675e-05)
(6.38363e-05 -2.22777e-05 -5.51505e-05)
(5.61159e-05 -1.53879e-05 -5.93162e-05)
(5.15042e-05 5.93694e-06 -8.51889e-05)
(1.29843e-05 -3.33205e-06 -2.64589e-05)
(3.74795e-05 -1.46703e-05 -5.02522e-05)
(6.33663e-05 -2.01994e-06 -7.66091e-05)
(7.25165e-05 -8.46423e-06 -7.44791e-05)
(8.49224e-05 -1.89008e-05 -7.3307e-05)
(9.60952e-05 -2.85681e-05 -7.53474e-05)
(9.84969e-05 -3.80065e-05 -8.30307e-05)
(0.000100376 -4.94118e-05 -9.24125e-05)
(0.000105826 -4.16496e-05 -0.000114182)
(2.24032e-05 -1.31354e-05 -3.80521e-05)
(5.60543e-05 -1.43935e-05 -7.25871e-05)
(8.97474e-05 -1.76127e-05 -0.000107028)
(9.8257e-05 -2.59825e-05 -0.000112041)
(9.37604e-05 -4.87094e-05 -0.000104205)
(0.000100684 -6.90286e-05 -9.06766e-05)
(9.49592e-05 -5.68488e-05 -8.04358e-05)
(9.79917e-05 -6.54789e-05 -0.00010677)
(9.83007e-05 -7.05666e-05 -0.000123249)
(2.4509e-05 -9.88819e-06 -4.258e-05)
(5.76013e-05 -2.87833e-05 -8.7978e-05)
(8.32164e-05 -2.57956e-05 -0.00012008)
(0.000101904 -3.24381e-05 -0.000143383)
(0.000105427 -5.71494e-05 -0.000116054)
(0.000102997 -6.77378e-05 -9.18297e-05)
(8.81121e-05 -6.22601e-05 -9.26315e-05)
(3.842e-06 5.96766e-06 -8.14447e-06)
(1.27682e-05 8.10432e-07 -2.28862e-05)
(2.36663e-05 6.66721e-06 -2.27507e-05)
(2.69345e-05 -3.0293e-06 -2.55987e-05)
(3.55352e-05 7.31745e-07 -2.43187e-05)
(5.06212e-05 -6.21568e-06 -3.96083e-05)
(5.33208e-05 -1.18708e-05 -4.14334e-05)
(5.63208e-05 -1.32503e-05 -5.70685e-05)
(4.85138e-05 -3.45769e-06 -7.0079e-05)
(9.05442e-06 5.54409e-06 -1.5986e-05)
(3.83026e-05 -1.69226e-06 -3.65931e-05)
(4.84165e-05 1.8128e-07 -5.46302e-05)
(6.92397e-05 4.6262e-07 -6.15552e-05)
(7.2372e-05 -1.19422e-05 -5.71593e-05)
(7.07202e-05 -2.40769e-05 -5.52817e-05)
(7.1377e-05 -3.04429e-05 -5.46301e-05)
(6.64013e-05 -2.97248e-05 -6.689e-05)
(7.54611e-05 -3.10865e-05 -7.44508e-05)
(2.80972e-05 -1.47787e-05 -4.32387e-05)
(4.92726e-05 -9.05714e-06 -6.45763e-05)
(8.25751e-05 -1.34356e-05 -8.81586e-05)
(9.14071e-05 -1.4498e-05 -7.6683e-05)
(8.26429e-05 -2.77119e-05 -7.58562e-05)
(7.18499e-05 -3.87686e-05 -7.05648e-05)
(7.34392e-05 -4.99606e-05 -7.76242e-05)
(7.58755e-05 -5.77995e-05 -8.79863e-05)
(6.06877e-05 -4.89482e-05 -9.14054e-05)
(1.90703e-05 -1.33134e-05 -3.98107e-05)
(4.71025e-05 -2.24943e-05 -6.83269e-05)
(7.90938e-05 -1.91535e-05 -9.8842e-05)
(8.34777e-05 -2.22268e-05 -9.4083e-05)
(8.34868e-05 -2.63075e-05 -8.16303e-05)
(6.73199e-05 -4.31219e-05 -7.82344e-05)
(6.14676e-05 -5.6265e-05 -7.77014e-05)
(5.93783e-05 -5.85934e-05 -7.52257e-05)
(6.02053e-05 -6.51539e-05 -9.05445e-05)
)
;

boundaryField
{
    inlet
    {
        type            calculated;
        value           nonuniform List<vector> 
16
(
(2.41371e-06 -9.10048e-06 -1.03302e-05)
(9.22898e-06 -1.24972e-05 -2.83135e-05)
(3.32019e-05 -3.62658e-05 -2.49981e-05)
(-4.67171e-06 -2.0562e-05 -3.32719e-05)
(6.23219e-06 -5.1981e-06 -1.09586e-05)
(1.51982e-05 -1.04504e-05 -2.42634e-05)
(2.10732e-05 -1.72939e-05 -3.59899e-05)
(1.82563e-05 -1.85209e-05 -4.60717e-05)
(7.54209e-06 1.41407e-06 -1.12238e-05)
(1.29843e-05 -3.33205e-06 -2.64589e-05)
(2.24032e-05 -1.31354e-05 -3.80521e-05)
(2.4509e-05 -9.88819e-06 -4.258e-05)
(3.842e-06 5.96766e-06 -8.14447e-06)
(9.05442e-06 5.54409e-06 -1.5986e-05)
(2.80972e-05 -1.47787e-05 -4.32387e-05)
(1.90703e-05 -1.33134e-05 -3.98107e-05)
)
;
    }
    outlet
    {
        type            calculated;
        value           nonuniform 0();
    }
    wall
    {
        type            calculated;
        value           nonuniform List<vector> 
66
(
(2.41371e-06 -9.10048e-06 -1.03302e-05)
(9.22898e-06 -1.24972e-05 -2.83135e-05)
(3.32019e-05 -3.62658e-05 -2.49981e-05)
(-4.67171e-06 -2.0562e-05 -3.32719e-05)
(3.35757e-06 -2.05486e-05 -3.76886e-05)
(4.37348e-05 -4.43846e-05 -7.17192e-05)
(4.76006e-05 -4.70853e-05 -8.54236e-05)
(2.87213e-05 -4.98197e-05 -9.58337e-05)
(3.14192e-05 -1.80827e-05 -3.16023e-05)
(7.0734e-05 -6.64727e-05 -9.14784e-05)
(7.70935e-05 -6.3764e-05 -0.000122158)
(8.17486e-05 -6.29872e-05 -0.000138368)
(3.99389e-05 -4.49211e-05 -3.12496e-05)
(7.24484e-05 -9.21437e-05 -9.09807e-05)
(0.000103141 -7.52513e-05 -0.000153375)
(4.37716e-05 -5.65875e-05 -2.83638e-05)
(8.4592e-05 -9.28333e-05 -9.64139e-05)
(0.000125579 -7.85323e-05 -0.000136333)
(3.82315e-05 -4.44346e-05 -3.10692e-05)
(9.27456e-05 -8.42345e-05 -8.36585e-05)
(0.000156477 -0.000108114 -0.000124946)
(2.62947e-05 -4.85683e-05 -6.00125e-05)
(0.000111504 -8.36699e-05 -0.000117145)
(0.000131914 -0.000102785 -0.000125931)
(3.9982e-05 -2.43994e-05 -7.80858e-05)
(9.68286e-05 -5.92453e-05 -0.000131048)
(0.000150447 -8.00081e-05 -0.000144757)
(5.88652e-05 -4.55641e-05 -9.35035e-05)
(0.000112197 -4.86157e-05 -0.000198866)
(6.83215e-05 -9.94061e-06 -0.000212521)
(2.41371e-06 -9.10048e-06 -1.03302e-05)
(6.23219e-06 -5.1981e-06 -1.09586e-05)
(7.54209e-06 1.41407e-06 -1.12238e-05)
(3.842e-06 5.96766e-06 -8.14447e-06)
(3.35757e-06 -2.05486e-05 -3.76886e-05)
(2.69357e-05 -4.98834e-06 -3.42926e-05)
(2.59093e-05 -3.28282e-06 -3.0093e-05)
(1.27682e-05 8.10432e-07 -2.28862e-05)
(3.14192e-05 -1.80827e-05 -3.16023e-05)
(2.339e-05 -1.01528e-05 -2.88804e-05)
(2.27235e-05 4.68707e-06 -2.45198e-05)
(2.36663e-05 6.66721e-06 -2.27507e-05)
(3.99389e-05 -4.49211e-05 -3.12496e-05)
(3.8109e-05 -2.36968e-05 -3.41269e-05)
(3.28397e-05 -1.95588e-06 -3.21593e-05)
(2.69345e-05 -3.0293e-06 -2.55987e-05)
(4.37716e-05 -5.65875e-05 -2.83638e-05)
(4.69198e-05 -2.78187e-05 -3.3202e-05)
(4.33889e-05 -1.24798e-05 -3.30516e-05)
(3.55352e-05 7.31745e-07 -2.43187e-05)
(3.82315e-05 -4.44346e-05 -3.10692e-05)
(4.96794e-05 -2.2213e-05 -3.63135e-05)
(6.28218e-05 -2.12074e-05 -4.66675e-05)
(5.06212e-05 -6.21568e-06 -3.96083e-05)
(2.62947e-05 -4.85683e-05 -6.00125e-05)
(5.6016e-05 -2.81082e-05 -5.92039e-05)
(6.38363e-05 -2.22777e-05 -5.51505e-05)
(5.33208e-05 -1.18708e-05 -4.14334e-05)
(3.9982e-05 -2.43994e-05 -7.80858e-05)
(6.65346e-05 -2.33295e-05 -8.02027e-05)
(5.61159e-05 -1.53879e-05 -5.93162e-05)
(5.63208e-05 -1.32503e-05 -5.70685e-05)
(5.88652e-05 -4.55641e-05 -9.35035e-05)
(6.32217e-05 7.55686e-06 -8.88011e-05)
(5.15042e-05 5.93694e-06 -8.51889e-05)
(4.85138e-05 -3.45769e-06 -7.0079e-05)
)
;
    }
    procBoundary0to1
    {
        type            processor;
        value           nonuniform List<vector> 
12
(
(5.0038e-05 -9.15936e-05 -0.00014234)
(0.000129867 -6.36942e-05 -0.000244084)
(0.000188353 -2.72082e-05 -0.000265977)
(6.91438e-05 -4.50377e-05 -0.000129536)
(0.000122363 -4.94611e-05 -0.00021024)
(0.000132385 -4.71971e-05 -0.000229166)
(3.37836e-05 -1.52619e-05 -6.57475e-05)
(9.02717e-05 -4.08061e-05 -0.000157314)
(8.23088e-05 -4.85226e-05 -0.000169265)
(3.00056e-05 -6.08895e-06 -5.74175e-05)
(5.34836e-05 -2.78599e-05 -8.60006e-05)
(4.2343e-05 -3.97744e-05 -9.70171e-05)
)
;
    }
    procBoundary0to2
    {
        type            processor;
        value           nonuniform List<vector> 
44
(
(0.000120294 -6.12331e-05 -0.00015941)
(0.00017374 -7.74712e-05 -0.00014294)
(0.000162674 -0.000100939 -0.000107819)
(0.000149924 -8.14273e-05 -0.000100388)
(0.000133616 -6.77248e-05 -0.00012947)
(0.000123133 -3.08996e-05 -0.000128804)
(-2.63007e-06 -4.12498e-05 -4.595e-05)
(3.56612e-05 -4.29558e-05 -0.000120953)
(0.000120294 -6.12331e-05 -0.00015941)
(9.98819e-05 -5.4992e-05 -0.000167681)
(0.000120294 -6.12331e-05 -0.00015941)
(0.00017374 -7.74712e-05 -0.00014294)
(0.000138029 -9.20371e-05 -0.000103443)
(0.000129819 -9.16821e-05 -0.000104277)
(0.000125018 -7.36816e-05 -0.000116947)
(0.000113256 -6.05159e-05 -0.000139547)
(1.62829e-05 -1.6397e-05 -3.94551e-05)
(5.30822e-05 -3.29224e-05 -0.000111802)
(8.62734e-05 -3.20104e-05 -0.000162191)
(0.00012114 -3.97663e-05 -0.000159196)
(0.000138029 -9.20371e-05 -0.000103443)
(0.000147884 -5.3848e-05 -0.000132761)
(0.000138029 -9.20371e-05 -0.000103443)
(0.000129819 -9.16821e-05 -0.000104277)
(9.26548e-05 -7.02535e-05 -9.72019e-05)
(9.55708e-05 -6.29477e-05 -0.000129264)
(2.02595e-05 -5.03252e-06 -3.71469e-05)
(5.28581e-05 -2.76999e-05 -8.52191e-05)
(7.86931e-05 -3.10234e-05 -0.000133039)
(8.01289e-05 -2.80845e-05 -0.00013346)
(0.000102505 -5.21655e-05 -0.000124024)
(8.88017e-05 -5.25657e-05 -7.99371e-05)
(9.26548e-05 -7.02535e-05 -9.72019e-05)
(8.41295e-05 -4.56527e-05 -6.40138e-05)
(9.26548e-05 -7.02535e-05 -9.72019e-05)
(9.55708e-05 -6.29477e-05 -0.000129264)
(1.81715e-05 -7.30941e-06 -2.94679e-05)
(4.62831e-05 -2.10754e-05 -6.70608e-05)
(6.56772e-05 -2.93366e-05 -9.93176e-05)
(5.46163e-05 -2.86404e-05 -0.000100456)
(5.7935e-05 -3.36616e-05 -9.28933e-05)
(4.55594e-05 -4.00174e-05 -6.8199e-05)
(4.77225e-05 -4.0907e-05 -5.32137e-05)
(1.29115e-05 -4.44467e-05 -5.54802e-05)
)
;
    }
    procBoundary0to4
    {
        type            processor;
        value           nonuniform List<vector> 
36
(
(7.30923e-06 2.0318e-06 -8.58635e-06)
(1.73757e-05 5.29069e-06 -1.33864e-05)
(2.63538e-05 2.15784e-06 -1.52687e-05)
(3.14641e-05 2.2148e-06 -1.32279e-05)
(3.21503e-05 4.61705e-06 -1.30267e-05)
(4.35546e-05 4.61737e-06 -2.24501e-05)
(3.32685e-05 -5.66711e-06 -2.89198e-05)
(3.06664e-05 -6.9756e-06 -2.34799e-05)
(7.23423e-06 6.29136e-06 -1.9284e-05)
(1.30611e-05 3.13444e-06 -1.59412e-05)
(3.13154e-05 1.47741e-05 -2.6048e-05)
(4.7747e-05 2.08893e-06 -3.70457e-05)
(5.36837e-05 -1.2393e-06 -4.4845e-05)
(5.92837e-05 -9.97e-06 -3.35718e-05)
(5.72953e-05 -1.48562e-05 -3.95333e-05)
(4.61359e-05 -1.33355e-05 -4.01134e-05)
(4.96484e-05 -2.08776e-05 -4.2249e-05)
(1.53644e-05 -9.99409e-07 -3.68059e-05)
(1.34021e-05 -4.47044e-06 -2.29441e-05)
(4.48239e-05 -8.96685e-07 -4.86848e-05)
(6.52389e-05 -4.42492e-06 -6.3771e-05)
(7.05524e-05 -5.66316e-06 -6.32416e-05)
(6.94717e-05 -9.62833e-06 -5.45109e-05)
(5.77723e-05 -2.54982e-05 -4.97896e-05)
(5.01619e-05 -3.25997e-05 -5.45981e-05)
(4.3395e-05 -3.39046e-05 -5.40762e-05)
(1.05477e-06 -2.00231e-05 -4.86381e-05)
(1.3714e-05 -8.986e-06 -2.94342e-05)
(3.71339e-05 -1.36077e-05 -4.7653e-05)
(6.42185e-05 -1.92498e-05 -7.00862e-05)
(6.89976e-05 -1.05011e-05 -5.40663e-05)
(6.56199e-05 -1.72767e-05 -5.47837e-05)
(4.04274e-05 -4.11184e-05 -6.34824e-05)
(1.92567e-05 -4.02654e-05 -5.75415e-05)
(1.86065e-06 -3.35339e-05 -5.1428e-05)
(-7.73058e-06 -3.52107e-05 -5.79085e-05)
)
;
    }
    procBoundary0to6
    {
        type            processor;
        value           uniform (1.29217e-05 -4.86725e-05 -6.60094e-05);
    }
    procBoundary0to7
    {
        type            processor;
        value           uniform (6.50847e-06 -3.90513e-05 -9.81111e-05);
    }
}


// ************************************************************************* //
