/*--------------------------------*- C++ -*----------------------------------*\
  =========                 |
  \\      /  F ield         | OpenFOAM: The Open Source CFD Toolbox
   \\    /   O peration     | Website:  https://openfoam.org
    \\  /    A nd           | Version:  4.x
     \\/     M anipulation  |
\*---------------------------------------------------------------------------*/
FoamFile
{
    version     2.0;
    format      ascii;
    class       Cloud<passiveParticle>;
    location    0;
    object      positions;
}
// * * * * * * * * * * * * * * * * * * * * * * * * * * * * * * * * * * * * * //

312
(
( 0.211653 -0.00560218 -0.0726829 ) 4
( 0.187156 -0.00943517 -0.045692 ) 34
( 0.223535 -0.0130735 -0.0586267 ) 36
( 0.203121 -0.0136591 -0.0353114 ) 64
( 0.235636 -0.00379967 -0.0713127 ) 36
( 0.220481 -0.00514118 -0.0324667 ) 64
( 0.176667 -0.00935394 -0.062412 ) 34
( 0.236075 -0.00905524 -0.0438709 ) 36
( 0.205797 -0.00152376 -0.0507299 ) 35
( 0.167651 -0.0112968 -0.0446941 ) 34
( 0.226367 -0.011147 -0.01473 ) 65
( 0.225302 0.0300879 -0.0273408 ) 74
( 0.0457828 0.0271822 -0.0469702 ) 38
( 0.215201 0.0376293 -0.0425677 ) 73
( 0.185416 0.0222824 -0.0700911 ) 43
( 0.113556 0.0388425 -0.0534853 ) 41
( 0.0323575 0.0742123 -0.0323325 ) 85
( 0.201852 0.0640945 -0.0450725 ) 53
( 0.212441 0.0180013 -0.0410333 ) 73
( 0.0749422 0.0448013 -0.0509478 ) 48
( 0.0697792 0.0214907 -0.0471363 ) 39
( 0.0322925 0.0515468 -0.0611114 ) 47
( 0.173517 0.0184009 -0.0546802 ) 43
( 0.125948 0.0707816 -0.048495 ) 50
( 0.0266264 0.0590196 -0.0436266 ) 46
( 0.0238019 0.0902937 -0.0399101 ) 84
( 0.0433061 0.0901319 -0.0543292 ) 56
( 0.0625452 0.0501573 -0.0659117 ) 48
( 0.0782648 0.0721553 -0.0575167 ) 57
( 0.138041 0.0576177 -0.0571883 ) 50
( 0.180687 0.0551955 -0.0492631 ) 52
( 0.0592542 0.0312456 -0.060899 ) 39
( 0.203275 0.00506243 -0.0291738 ) 64
( 0.100184 0.0434076 -0.0349118 ) 78
( 0.0790373 0.045497 -0.0254556 ) 77
( 0.239293 0.0524599 -0.0724548 ) 23
( 0.156965 0.0557678 -0.0682904 ) 51
( 0.215954 0.0776942 -0.0409984 ) 91
( 0.244071 0.082615 -0.039885 ) 92
( 0.168117 0.0665511 -0.0389412 ) 81
( 0.0925653 0.0600395 -0.0672815 ) 49
( 0.14532 0.0710919 -0.0444701 ) 51
( 0.11096 0.08243 -0.0427553 ) 87
( 0.154438 0.056545 -0.0289665 ) 80
( 0.136369 0.0382053 -0.0531608 ) 41
( 0.210465 0.0742431 -0.0597344 ) 62
( 0.0254472 0.0819923 -0.0577977 ) 55
( 0.186276 0.0389647 -0.0593002 ) 43
( 0.185164 0.0889714 -0.0709383 ) 61
( 0.168836 0.0901216 -0.0375139 ) 90
( 0.223406 0.0641625 -0.0707733 ) 54
( 0.118349 0.0217944 -0.062374 ) 41
( 0.114008 0.088863 -0.0613302 ) 59
( 0.0724693 0.0629105 -0.0321105 ) 77
( 0.0925455 0.0772599 -0.0356242 ) 87
( 0.133763 0.0243449 -0.0392091 ) 70
( 0.196371 0.0526693 -0.0696446 ) 53
( 0.144913 0.00353505 -0.0699939 ) 33
( 0.218475 0.0258896 -0.0583129 ) 44
( 0.0270899 0.0248024 -0.0326841 ) 66
( 0.0996214 0.0176718 -0.0675174 ) 40
( 0.0901041 0.0248084 -0.0214945 ) 69
( 0.125535 0.0399718 -0.0697546 ) 41
( 0.124111 0.0635288 -0.0278463 ) 79
( 0.00983528 0.017786 -0.0395169 ) 66
( 0.106562 0.0460209 -0.0707859 ) 49
( 0.0581536 0.0798799 -0.0461408 ) 57
( 0.100028 0.0251652 -0.0491447 ) 40
( 0.154513 0.0242448 -0.0525033 ) 42
( 0.225826 0.0635877 -0.0509575 ) 54
( 0.157111 0.00535698 -0.0468836 ) 33
( 0.181769 0.031609 -0.0414284 ) 72
( 0.202715 0.0124677 -0.0703792 ) 35
( 0.0881972 0.0572266 -0.0427391 ) 78
( 0.0977831 0.074917 -0.0553194 ) 58
( 0.124706 0.0517265 -0.0436971 ) 50
( 0.0899942 0.0619822 -0.0230653 ) 78
( 0.191262 0.0711506 -0.0642487 ) 52
( 0.231507 0.0689531 -0.0326501 ) 83
( 0.0349199 0.0416908 -0.0389856 ) 67
( 0.144562 0.0731491 -0.0678268 ) 60
( 0.0619163 0.0465801 -0.0360588 ) 77
( 0.0762264 0.0886045 -0.0352407 ) 86
( 0.155556 0.0545317 -0.0485527 ) 51
( 0.0099801 0.0726702 -0.0468486 ) 55
( 0.19305 0.0220145 -0.0284542 ) 72
( 0.0379378 0.01815 -0.0644964 ) 38
( 0.135995 0.0455672 -0.0287342 ) 79
( 0.00989742 0.0813173 -0.0290064 ) 84
( 0.0108187 0.0545504 -0.0549654 ) 46
( 0.16937 0.0438961 -0.03208 ) 81
( 0.0567234 0.0722463 -0.0644605 ) 57
( 0.151019 0.0900362 -0.0594753 ) 60
( 0.0282691 0.0328981 -0.0554547 ) 38
( 0.114694 0.0289821 -0.0362514 ) 70
( 0.230049 0.0120987 -0.0340884 ) 65
( 0.248856 0.0608087 -0.0242589 ) 83
( 0.0279796 0.0556783 -0.0187657 ) 76
( 0.242066 0.0555989 -0.0425366 ) 83
( 0.0959985 0.09005 -0.0694556 ) 58
( 0.165128 0.0708467 -0.0580622 ) 51
( 0.188487 0.0902878 -0.0347624 ) 90
( 0.23208 0.0279732 -0.0742579 ) 14
( 0.239128 0.0160673 -0.0600005 ) 45
( 0.196738 0.0449541 -0.0434938 ) 53
( 0.164502 0.0285288 -0.069181 ) 42
( 0.0637501 0.0612366 -0.0495788 ) 48
( 0.247584 0.0106245 -0.0428892 ) 36
( 0.184933 0.0743429 -0.0457562 ) 61
( 0.0835761 0.0270072 -0.0603151 ) 40
( 0.171192 0.0773763 -0.0226274 ) 90
( 0.167498 0.0393819 -0.052794 ) 43
( 0.176752 0.0581182 -0.0685222 ) 52
( 0.114096 0.0902924 -0.0250351 ) 88
( 0.2271 0.0901933 -0.0298892 ) 92
( 0.165919 0.0204034 -0.036647 ) 71
( 0.20502 0.0901349 -0.0702217 ) 62
( 0.188946 0.00641584 -0.0574749 ) 34
( 0.120872 0.0661649 -0.0671382 ) 50
( 0.0586301 0.0274651 -0.0318618 ) 68
( 0.047298 0.0567682 -0.0272727 ) 76
( 0.0843961 0.0320157 -0.0390006 ) 69
( 0.249937 0.0885695 -0.0220356 ) 92
( 0.00990943 0.0284608 -0.0677877 ) 37
( 0.222442 0.0110164 -0.0709313 ) 36
( 0.132842 0.0897461 -0.0675611 ) 59
( 0.0490515 0.0481949 -0.0510666 ) 47
( 0.163326 0.0824959 -0.0740591 ) 29
( 0.185438 0.0613796 -0.0308076 ) 81
( 0.00970141 0.0356809 -0.0493348 ) 37
( 0.207205 0.0900318 -0.0282474 ) 91
( 0.211363 0.0510788 -0.0566332 ) 53
( 0.0854307 0.0901598 -0.0526879 ) 58
( 0.23337 0.0281692 -0.0453294 ) 45
( 0.202874 0.0329494 -0.0684937 ) 44
( 0.128731 0.0902619 -0.0480868 ) 59
( 0.0548968 0.0732219 -0.0190717 ) 85
( 0.0355431 0.0693592 -0.0693122 ) 47
( 0.231417 0.0450496 -0.0556619 ) 54
( 0.0282657 0.0901543 -0.0195238 ) 85
( 0.228669 0.0900983 -0.0498572 ) 63
( 0.149124 0.0901836 -0.0397105 ) 89
( 0.0104499 0.035128 -0.02975 ) 66
( 0.151482 0.0373413 -0.0379435 ) 71
( 0.143505 0.0277767 -0.068624 ) 42
( 0.0433658 0.0672973 -0.0504299 ) 47
( 0.167799 0.00692896 -0.0699021 ) 34
( 0.170804 0.090066 -0.0572296 ) 61
( 0.196852 0.0238379 -0.0518341 ) 44
( 0.137149 0.0900801 -0.0227608 ) 88
( 0.0527759 0.02731 -0.005045 ) 94
( 0.135518 0.070092 6.74702e-05 ) 105
( 0.083296 0.0549771 -0.00356465 ) 103
( 0.0894718 0.0423324 0.0105404 ) 96
( 0.217857 0.0165919 0.0113019 ) 100
( 0.114836 0.0250178 0.00870663 ) 97
( 0.0430367 0.0347596 0.010536 ) 94
( 0.11018 0.041237 -0.0020623 ) 96
( 0.175645 0.0361687 -0.0120291 ) 99
( 0.16886 0.0486506 0.00177746 ) 107
( 0.191184 0.0822125 -0.0167671 ) 90
( 0.125027 0.0510729 0.0063644 ) 105
( 0.153904 0.0394072 0.0108421 ) 98
( 0.0490148 0.0902071 0.00758234 ) 109
( 0.125244 0.0234263 -0.00779962 ) 97
( 0.00985407 0.0488468 0.00689181 ) 101
( 0.0110352 0.0659951 -0.0165236 ) 75
( 0.103379 0.090106 -0.00350256 ) 111
( 0.158986 0.0681868 -0.0100019 ) 106
( 0.193352 0.0595672 -0.0127669 ) 107
( 0.0293348 0.0881105 0.00604724 ) 109
( 0.0272659 0.0434056 -0.00310145 ) 101
( 0.0907359 0.0902245 0.0119009 ) 111
( 0.0756357 0.0182149 0.00723401 ) 95
( 0.0628531 0.0800431 -0.00215097 ) 110
( 0.207105 0.0272381 -0.00111311 ) 100
( 0.133935 0.0427791 -0.00903745 ) 97
( 0.0581976 0.0697157 0.0138793 ) 103
( 0.00990079 0.0682364 0.0029844 ) 101
( 0.124275 0.0776343 -0.0140575 ) 112
( 0.232387 0.0780947 -0.015225 ) 92
( 0.162176 0.0798752 0.00557764 ) 113
( 0.163667 0.0259426 0.000286901 ) 98
( 0.145146 0.0901221 0.00640545 ) 113
( 0.0952957 0.0239141 0.00530427 ) 96
( 0.0643576 0.0605397 -0.00573192 ) 103
( 0.0201221 0.0274341 -0.0144047 ) 66
( 0.0466328 0.0898374 -0.0119435 ) 109
( 0.0663237 0.037113 0.00534868 ) 95
( 0.0927998 0.0732031 -0.00374048 ) 111
( 0.0532134 0.0515908 0.00796246 ) 102
( 0.105729 0.0730539 -0.0187559 ) 87
( 0.153657 0.090047 -0.0115703 ) 113
( 0.0292348 0.0233585 0.00244762 ) 94
( 0.142519 0.0275914 0.000290596 ) 98
( 0.221083 0.0370463 0.00871763 ) 100
( 0.153177 0.0467031 -0.0119555 ) 106
( 0.116975 0.0594664 -0.00965636 ) 105
( 0.0770127 0.0702107 0.0078017 ) 103
( 0.0110907 0.0868669 -0.00998297 ) 108
( 0.0803748 0.0891366 -0.00479883 ) 110
( 0.19135 0.0389626 -0.000728358 ) 99
( 0.125024 0.0903331 0.000710616 ) 112
( 0.211724 0.0529926 -0.0156879 ) 82
( 0.108958 0.0286543 -0.0172523 ) 69
( 0.082426 0.0340379 -0.00582523 ) 95
( 0.101121 0.0573518 0.00491411 ) 104
( 0.182718 0.0210196 -0.00069495 ) 99
( 0.0361147 0.0604869 0.00212451 ) 102
( 0.178915 0.0712659 -0.00557969 ) 107
( 0.00975523 0.044284 -0.012291 ) 101
( 0.107812 0.0577604 -0.0547158 ) 49
( 0.00985355 0.0901743 -0.0670957 ) 55
( 0.216724 0.0558496 -0.0346672 ) 82
( 0.139902 0.0605795 -0.0164338 ) 80
( 0.0518134 0.0144494 0.0101084 ) 94
( 0.00983938 0.0296376 0.00233518 ) 93
( 0.00991172 0.0901395 0.00950779 ) 108
( 0.0702262 0.0230055 -0.0165267 ) 68
( 0.22099 0.0444421 -0.0727118 ) 22
( 0.0499519 0.0901406 -0.0313985 ) 85
( 0.158643 -0.0107669 -0.0703185 ) 33
( 0.00983367 0.0560954 -0.0336377 ) 75
( 0.228053 0.090125 -0.0697161 ) 63
( 0.0942476 0.0431268 -0.0554083 ) 49
( 0.224279 0.00561961 -0.0518803 ) 36
( 0.217676 0.013789 -0.0187536 ) 64
( 0.230966 0.0582155 -0.0160017 ) 83
( 0.0671806 0.0900587 -0.0606755 ) 57
( 0.240936 0.0425506 -0.0230172 ) 74
( 0.105917 0.0625456 -0.0355522 ) 78
( 0.145726 -0.009277 -0.0541407 ) 33
( 0.202603 0.0901047 -0.0486992 ) 62
( 0.139627 0.0278421 -0.0206317 ) 71
( 0.249391 -0.0044739 -0.0301132 ) 65
( 0.0928397 0.0900508 -0.0203623 ) 87
( 0.11653 0.0456651 -0.023917 ) 79
( 0.150125 0.0575794 0.00402904 ) 106
( 0.150701 0.0758987 -0.026077 ) 89
( 0.159309 0.0304781 -0.0211144 ) 71
( 0.188378 0.0424277 -0.0257336 ) 72
( 0.11432 0.0737645 0.0038766 ) 112
( 0.0407317 0.0312928 -0.0201005 ) 67
( 0.0358895 0.0730603 -0.0129636 ) 109
( 0.173185 0.016651 -0.0176214 ) 72
( 0.175272 0.064135 0.0124235 ) 107
( 0.173025 0.0556126 -0.0163686 ) 81
( 0.0961039 0.0446667 -0.0154391 ) 78
( 0.0755431 0.0734903 -0.0158169 ) 86
( 0.205412 0.0345739 -0.0193631 ) 73
( 0.203826 0.0703802 -0.026446 ) 82
( 0.0636994 0.0415423 -0.013716 ) 95
( 0.0453436 0.0476413 -0.00976504 ) 102
( 0.0653571 0.0902177 -0.0188582 ) 86
( 0.0117378 0.0704818 -0.0666339 ) 46
( 0.109973 0.0787536 -0.0780838 ) 27
( 0.178263 0.0403524 -0.0774862 ) 12
( 0.0290623 0.0316654 -0.0760834 ) 7
( 0.238007 0.07763 -0.0814894 ) 32
( 0.198982 0.0749983 -0.0821608 ) 31
( 0.178408 -0.014168 -0.0816821 ) 3
( 0.0516271 0.0237965 -0.0777094 ) 7
( 0.112297 0.0290064 -0.07994 ) 10
( 0.0685177 0.0163188 -0.0702913 ) 39
( 0.0746673 0.0625818 -0.0755172 ) 17
( 0.138924 0.0534923 -0.0765787 ) 20
( 0.218315 0.0793198 -0.0833878 ) 31
( 0.0166003 0.0466521 -0.0722152 ) 15
( 0.153482 0.04051 -0.0806229 ) 11
( 0.0809476 0.0442148 -0.0700923 ) 48
( 0.0503762 0.0601643 -0.0789312 ) 16
( 0.154682 0.016433 -0.081606 ) 11
( 0.0456241 0.0419911 -0.0722843 ) 7
( 0.0457615 0.0859827 -0.0736905 ) 25
( 0.0852187 0.00825229 -0.0773946 ) 0
( 0.0787676 0.0820161 -0.0750935 ) 26
( 0.129642 0.0192403 -0.0800213 ) 10
( 0.133582 -0.00673256 -0.0827878 ) 1
( 0.160866 0.0659622 -0.0849451 ) 20
( 0.186153 0.00359448 -0.0770318 ) 3
( 0.0267403 0.0900566 -0.0774551 ) 24
( 0.234431 0.0125738 -0.0867651 ) 5
( 0.088194 -0.0102111 -0.0842265 ) 0
( 0.214306 0.024916 -0.0827062 ) 13
( 0.0184331 0.016126 -0.0825176 ) 6
( 0.209916 0.0570293 -0.0836033 ) 22
( 0.0104562 0.079983 -0.0841651 ) 24
( 0.130458 0.0758616 -0.0816855 ) 28
( 0.0925649 0.0315027 -0.0799314 ) 9
( 0.0657228 0.0374643 -0.0809733 ) 8
( 0.120138 0.0539557 -0.0830802 ) 19
( 0.0315182 0.0548247 -0.0825725 ) 16
( 0.179203 0.0730605 -0.0814478 ) 30
( 0.101896 0.061749 -0.0847536 ) 18
( 0.196486 0.0407947 -0.0856642 ) 13
( 0.108528 0.00598601 -0.0809633 ) 0
( 0.1467 0.090081 -0.0818328 ) 29
( 0.062626 0.0901225 -0.0832815 ) 26
( 0.233241 0.0420339 -0.0883044 ) 14
( 0.173306 0.0222063 -0.0859207 ) 12
( 0.0913752 0.0891977 -0.0888083 ) 27
( 0.00991183 0.0600906 -0.0851967 ) 15
( 0.0108224 0.0343226 -0.0868073 ) 6
( 0.0374816 0.0143961 -0.0881002 ) 7
( 0.195413 0.0203457 -0.0872068 ) 13
( 0.0314968 0.0739788 -0.088256 ) 25
( 0.0852291 0.0513193 -0.0881997 ) 18
( 0.0768606 0.0226397 -0.0884013 ) 8
( 0.134927 0.0370823 -0.0871638 ) 10
( 0.115071 -0.0111591 -0.0887703 ) 1
( 0.229362 0.0615729 -0.0896046 ) 23
( 0.0632847 0.0711695 -0.0894299 ) 17
)
