/*--------------------------------*- C++ -*----------------------------------*\
| =========                 |                                                 |
| \\      /  F ield         | OpenFOAM: The Open Source CFD Toolbox           |
|  \\    /   O peration     | Version:  4.x                                   |
|   \\  /    A nd           | Web:      www.OpenFOAM.org                      |
|    \\/     M anipulation  |                                                 |
\*---------------------------------------------------------------------------*/
FoamFile
{
    version     2.0;
    format      ascii;
    class       volScalarField;
    location    "3";
    object      Deff;
}
// * * * * * * * * * * * * * * * * * * * * * * * * * * * * * * * * * * * * * //

dimensions      [0 2 -1 0 0 0 0];

internalField   nonuniform List<scalar> 
87
(
9.94372e-08
9.92324e-08
9.92324e-08
9.908e-08
9.90896e-08
9.88802e-08
9.87887e-08
9.87955e-08
9.88771e-08
9.9332e-08
9.92798e-08
9.91504e-08
9.90374e-08
9.89998e-08
9.88351e-08
9.86743e-08
9.87835e-08
9.89123e-08
9.91522e-08
9.90699e-08
9.90553e-08
9.88217e-08
9.8848e-08
9.88362e-08
9.87256e-08
9.87407e-08
9.88286e-08
9.89149e-08
9.88896e-08
9.88277e-08
9.86535e-08
9.86106e-08
9.84476e-08
9.82953e-08
9.83895e-08
9.85309e-08
9.8763e-08
9.88267e-08
9.87263e-08
9.85789e-08
9.85161e-08
9.84463e-08
9.82896e-08
9.83309e-08
9.85441e-08
9.86067e-08
9.86356e-08
9.86177e-08
9.85019e-08
9.84777e-08
9.83437e-08
9.82286e-08
9.81703e-08
9.84684e-08
9.85202e-08
9.84837e-08
9.83143e-08
9.82099e-08
9.8211e-08
9.80348e-08
9.8051e-08
9.81766e-08
9.83545e-08
9.83719e-08
9.83457e-08
9.83498e-08
9.82365e-08
9.81404e-08
9.80554e-08
9.80266e-08
9.80613e-08
9.83008e-08
9.82653e-08
9.82562e-08
9.82663e-08
9.80325e-08
9.80034e-08
9.79375e-08
9.7952e-08
9.79669e-08
9.823e-08
9.82739e-08
9.82255e-08
9.80204e-08
9.8132e-08
9.79501e-08
9.80781e-08
)
;

boundaryField
{
    inlet
    {
        type            calculated;
        value           nonuniform 0();
    }
    outlet
    {
        type            calculated;
        value           uniform 0;
    }
    wall
    {
        type            calculated;
        value           uniform 0;
    }
    procBoundary1to0
    {
        type            processor;
        value           uniform 0;
    }
    procBoundary1to3
    {
        type            processor;
        value           uniform 0;
    }
    procBoundary1to5
    {
        type            processor;
        value           uniform 0;
    }
    procBoundary1to7
    {
        type            processor;
        value           uniform 0;
    }
}


// ************************************************************************* //
