/*--------------------------------*- C++ -*----------------------------------*\
| =========                 |                                                 |
| \\      /  F ield         | OpenFOAM: The Open Source CFD Toolbox           |
|  \\    /   O peration     | Version:  4.x                                   |
|   \\  /    A nd           | Web:      www.OpenFOAM.org                      |
|    \\/     M anipulation  |                                                 |
\*---------------------------------------------------------------------------*/
FoamFile
{
    version     2.0;
    format      ascii;
    class       volVectorField;
    location    "3";
    object      impParticleForces;
}
// * * * * * * * * * * * * * * * * * * * * * * * * * * * * * * * * * * * * * //

dimensions      [1 1 -2 0 0 0 0];

internalField   nonuniform List<vector> 
87
(
(0.00263265 -3.864e-05 9.07112e-06)
(0.00264022 -3.67663e-05 -1.13348e-05)
(0.00257309 -4.7201e-05 -3.07814e-05)
(0.00255516 -6.22314e-05 -4.65654e-05)
(0.00243948 -7.47459e-05 -6.13268e-05)
(0.00237126 -9.18741e-05 -7.11307e-05)
(0.00229312 -0.000117262 -7.281e-05)
(0.00222468 -0.000144287 -7.0042e-05)
(0.00209991 -0.000188694 -6.96987e-05)
(0.00261258 -3.24852e-05 -9.33898e-07)
(0.00259633 -3.1524e-05 -2.31865e-05)
(0.00254032 -3.68837e-05 -4.18178e-05)
(0.00250741 -4.62795e-05 -5.98152e-05)
(0.00239964 -5.52612e-05 -7.78694e-05)
(0.00233214 -6.97498e-05 -9.35754e-05)
(0.00223675 -8.84915e-05 -0.000102539)
(0.00216444 -0.00011252 -0.000105511)
(0.00205493 -0.000149855 -0.000108412)
(0.00256933 -1.71419e-05 -1.44109e-05)
(0.00255847 -1.25563e-05 -3.69312e-05)
(0.0024923 -1.5464e-05 -5.60261e-05)
(0.0024564 -1.88243e-05 -7.73074e-05)
(0.00235143 -2.14741e-05 -0.00010028)
(0.00227899 -2.76013e-05 -0.000124481)
(0.00217317 -3.6058e-05 -0.000144612)
(0.00210069 -4.87302e-05 -0.000159477)
(0.0020026 -6.26752e-05 -0.000166991)
(0.00272539 -4.07393e-05 1.20383e-05)
(0.00270334 -4.14421e-05 -1.13675e-05)
(0.00265185 -4.92132e-05 -3.02572e-05)
(0.00263499 -6.32108e-05 -4.65771e-05)
(0.00252538 -8.16693e-05 -6.2635e-05)
(0.00247211 -0.000108333 -7.29726e-05)
(0.00239543 -0.00014403 -7.33512e-05)
(0.00234371 -0.000185925 -6.61661e-05)
(0.00218178 -0.000251748 -6.81336e-05)
(0.00271705 -3.43311e-05 -8.48881e-07)
(0.00268236 -3.26652e-05 -2.5611e-05)
(0.00261916 -3.83906e-05 -4.36887e-05)
(0.00259742 -4.99296e-05 -6.2194e-05)
(0.00248964 -6.41262e-05 -8.18663e-05)
(0.00242201 -8.68508e-05 -0.000101566)
(0.00233346 -0.000116719 -0.000110536)
(0.00227307 -0.000155465 -0.000114391)
(0.00211741 -0.00021022 -0.000113157)
(0.00264997 -1.76259e-05 -1.89415e-05)
(0.00263762 -1.06602e-05 -4.31601e-05)
(0.00256151 -1.6842e-05 -6.03738e-05)
(0.00252093 -2.23252e-05 -8.20659e-05)
(0.00241099 -2.85389e-05 -0.000107325)
(0.00234533 -4.18296e-05 -0.000138194)
(0.00223841 -5.97227e-05 -0.000162673)
(0.00217522 -8.41031e-05 -0.000184748)
(0.00203397 -0.000104882 -0.000188147)
(0.0028001 -4.01188e-05 1.43149e-05)
(0.00279685 -4.27387e-05 -8.55952e-06)
(0.00275219 -5.00384e-05 -2.7141e-05)
(0.00273459 -6.52708e-05 -4.29289e-05)
(0.00261592 -9.32628e-05 -6.39597e-05)
(0.00258165 -0.00013786 -7.98625e-05)
(0.00250094 -0.000197484 -8.44559e-05)
(0.00247324 -0.00026588 -8.80191e-05)
(0.00225951 -0.000347228 -0.000110585)
(0.00279015 -3.33627e-05 -7.29309e-07)
(0.00277511 -3.44303e-05 -2.77726e-05)
(0.00269442 -4.08386e-05 -4.41298e-05)
(0.00266973 -5.38279e-05 -6.25253e-05)
(0.00256142 -7.76815e-05 -8.55282e-05)
(0.00250958 -0.000118355 -0.0001126)
(0.00240381 -0.00017149 -0.000129021)
(0.00235783 -0.000241414 -0.000144032)
(0.00216765 -0.000315905 -0.000151826)
(0.00272422 -1.94422e-05 -1.76656e-05)
(0.00271242 -1.83766e-05 -4.66942e-05)
(0.00262594 -2.18841e-05 -6.30573e-05)
(0.00260057 -3.06429e-05 -8.63681e-05)
(0.00247407 -4.21049e-05 -0.000114992)
(0.00239802 -6.85021e-05 -0.00015631)
(0.00225469 -0.000102903 -0.000189062)
(0.00216681 -0.000144761 -0.000225058)
(0.0020063 -0.000182723 -0.000230672)
(0.00285756 -4.24243e-05 1.5928e-05)
(0.00283152 -4.48609e-05 -7.86894e-06)
(0.00280322 -5.14158e-05 -2.41523e-05)
(0.00283677 -3.47005e-05 2.60126e-07)
(0.0028345 -3.86062e-05 -2.91564e-05)
(0.00277492 -2.18216e-05 -1.40445e-05)
)
;

boundaryField
{
    inlet
    {
        type            zeroGradient;
    }
    outlet
    {
        type            zeroGradient;
    }
    wall
    {
        type            zeroGradient;
    }
    procBoundary1to0
    {
        type            processor;
        value           nonuniform List<vector> 
12
(
(0.00263632 -4.03333e-05 3.20104e-05)
(0.00264509 -3.6406e-05 2.32946e-05)
(0.00261412 -2.49329e-05 1.09615e-05)
(0.00274849 -4.24545e-05 3.78988e-05)
(0.00273911 -3.74863e-05 2.53579e-05)
(0.0026788 -2.50781e-05 1.02386e-05)
(0.00281554 -4.03944e-05 4.06285e-05)
(0.00280897 -3.37417e-05 2.77586e-05)
(0.00274444 -2.10046e-05 1.37136e-05)
(0.00289584 -4.18141e-05 4.32904e-05)
(0.00286779 -3.25911e-05 2.73882e-05)
(0.00281424 -2.06229e-05 1.44901e-05)
)
;
    }
    procBoundary1to3
    {
        type            processor;
        value           nonuniform List<vector> 
27
(
(0.00255182 1.71427e-06 -2.4029e-05)
(0.00253277 4.05539e-06 -4.7047e-05)
(0.0024829 8.41981e-06 -6.75988e-05)
(0.00242195 1.50336e-05 -9.17076e-05)
(0.0023337 2.36467e-05 -0.000120222)
(0.00226061 3.33867e-05 -0.000153366)
(0.00216107 4.30263e-05 -0.000185126)
(0.00207652 5.09871e-05 -0.00021269)
(0.00199337 5.63163e-05 -0.000227926)
(0.00261901 -4.37428e-07 -3.48002e-05)
(0.00261505 1.82614e-06 -6.00823e-05)
(0.00255533 6.76071e-06 -7.44032e-05)
(0.00250187 1.28961e-05 -9.85012e-05)
(0.00239223 2.13211e-05 -0.000129719)
(0.00231599 3.08146e-05 -0.000170415)
(0.00220074 3.84447e-05 -0.000208037)
(0.00211779 4.4163e-05 -0.000246373)
(0.0020099 4.75887e-05 -0.000262656)
(0.00271117 -4.48836e-06 -3.11262e-05)
(0.00269595 -3.06121e-06 -6.57665e-05)
(0.00261121 3.60189e-06 -7.83993e-05)
(0.00255724 9.51066e-06 -0.000101831)
(0.00242975 1.58288e-05 -0.00013776)
(0.00234279 2.44145e-05 -0.000193254)
(0.00218723 2.78316e-05 -0.00024487)
(0.00206695 2.90153e-05 -0.00030005)
(0.0019244 2.52826e-05 -0.000326089)
)
;
    }
    procBoundary1to5
    {
        type            processor;
        value           nonuniform List<vector> 
32
(
(0.00278322 -6.80686e-05 -3.87365e-05)
(0.00267479 -0.000106783 -6.14519e-05)
(0.00264746 -0.000168755 -8.1301e-05)
(0.00254048 -0.000258432 -9.91723e-05)
(0.00254319 -0.000373859 -0.000123988)
(0.00233416 -0.000512098 -0.000174939)
(0.00273847 -4.536e-05 -4.19127e-05)
(0.00270421 -6.08066e-05 -5.63511e-05)
(0.00259142 -9.41917e-05 -8.18181e-05)
(0.00254917 -0.000152063 -0.000114226)
(0.00242337 -0.000237868 -0.000139516)
(0.0023877 -0.000355613 -0.000170504)
(0.0021901 -0.000487043 -0.000201148)
(0.00277094 -2.46542e-05 -4.28524e-05)
(0.0026637 -2.93363e-05 -6.10098e-05)
(0.00261093 -3.99563e-05 -8.32206e-05)
(0.00248145 -5.80832e-05 -0.000109427)
(0.00237082 -9.70248e-05 -0.000149449)
(0.00218935 -0.000157449 -0.000191388)
(0.00203654 -0.000223581 -0.000231557)
(0.00184349 -0.000324466 -0.000277071)
(0.00291365 -4.66941e-05 2.45239e-05)
(0.00289159 -4.93341e-05 6.78954e-07)
(0.00278322 -6.80686e-05 -3.87365e-05)
(0.00273847 -4.536e-05 -4.19127e-05)
(0.00285165 -5.00072e-05 -1.97834e-05)
(0.00287653 -3.65245e-05 1.00383e-05)
(0.00273847 -4.536e-05 -4.19127e-05)
(0.00277094 -2.46542e-05 -4.28524e-05)
(0.00284406 -4.00874e-05 -1.66286e-05)
(0.00277094 -2.46542e-05 -4.28524e-05)
(0.00281872 -2.28027e-05 -6.63104e-06)
)
;
    }
    procBoundary1to7
    {
        type            processor;
        value           uniform (0.00276906 -8.73421e-06 -2.62956e-05);
    }
}


// ************************************************************************* //
