/*--------------------------------*- C++ -*----------------------------------*\
| =========                 |                                                 |
| \\      /  F ield         | OpenFOAM: The Open Source CFD Toolbox           |
|  \\    /   O peration     | Version:  4.x                                   |
|   \\  /    A nd           | Web:      www.OpenFOAM.org                      |
|    \\/     M anipulation  |                                                 |
\*---------------------------------------------------------------------------*/
FoamFile
{
    version     2.0;
    format      ascii;
    class       volScalarField;
    location    "3";
    object      nu;
}
// * * * * * * * * * * * * * * * * * * * * * * * * * * * * * * * * * * * * * //

dimensions      [0 2 -1 0 0 0 0];

internalField   nonuniform List<scalar> 
87
(
1.00101e-06
1.00066e-06
1.00038e-06
1.00019e-06
1.00011e-06
1.00012e-06
1.00013e-06
1.00005e-06
9.99946e-07
9.99963e-07
9.99603e-07
9.99382e-07
9.99346e-07
9.99495e-07
9.99691e-07
9.99828e-07
9.99913e-07
9.99981e-07
9.99606e-07
9.9932e-07
9.99235e-07
9.99306e-07
9.99471e-07
9.99644e-07
9.99808e-07
9.99923e-07
9.99984e-07
1.00055e-06
1.00026e-06
1.00001e-06
9.99843e-07
9.9978e-07
9.99822e-07
9.99879e-07
9.9988e-07
9.99626e-07
9.99578e-07
9.99341e-07
9.99209e-07
9.99206e-07
9.99313e-07
9.99433e-07
9.99566e-07
9.99577e-07
9.99767e-07
9.99391e-07
9.99234e-07
9.99187e-07
9.99228e-07
9.99314e-07
9.99418e-07
9.99572e-07
9.99685e-07
9.99898e-07
1.0004e-06
1.0002e-06
1e-06
9.99853e-07
9.99746e-07
9.99713e-07
9.99729e-07
9.99747e-07
9.96713e-07
9.99586e-07
9.99398e-07
9.99262e-07
9.99212e-07
9.99235e-07
9.99287e-07
9.99399e-07
9.99481e-07
9.99365e-07
9.99418e-07
9.9928e-07
9.99234e-07
9.99282e-07
9.99348e-07
9.9944e-07
9.99503e-07
9.99569e-07
9.99588e-07
1.00029e-06
1.00018e-06
1.00005e-06
9.99617e-07
9.99468e-07
9.9953e-07
)
;

boundaryField
{
    inlet
    {
        type            calculated;
        value           nonuniform 0();
    }
    outlet
    {
        type            calculated;
        value           uniform 1e-06;
    }
    wall
    {
        type            calculated;
        value           nonuniform List<scalar> 
57
(
1.00101e-06
9.99963e-07
9.99606e-07
1.00066e-06
9.99603e-07
9.9932e-07
1.00038e-06
9.99382e-07
9.99235e-07
1.00019e-06
9.99346e-07
9.99306e-07
1.00011e-06
9.99495e-07
9.99471e-07
1.00012e-06
9.99691e-07
9.99644e-07
1.00013e-06
9.99828e-07
9.99808e-07
1.00005e-06
9.99913e-07
9.99923e-07
9.99946e-07
9.99981e-07
9.99984e-07
1.00101e-06
1.00055e-06
1.0004e-06
1.00029e-06
1.00066e-06
1.00026e-06
1.0002e-06
1.00018e-06
1.00038e-06
1.00001e-06
1e-06
1.00005e-06
1.00019e-06
9.99843e-07
9.99853e-07
1.00011e-06
9.9978e-07
9.99746e-07
1.00012e-06
9.99822e-07
9.99713e-07
1.00013e-06
9.99879e-07
9.99729e-07
1.00005e-06
9.9988e-07
9.99747e-07
9.99946e-07
9.99626e-07
9.96713e-07
)
;
    }
    procBoundary1to0
    {
        type            processor;
        value           nonuniform List<scalar> 
12
(
1.00134e-06
1.00043e-06
9.99997e-07
1.00079e-06
9.99852e-07
9.99659e-07
1.00056e-06
9.99816e-07
9.99633e-07
1.00039e-06
9.99784e-07
9.99688e-07
)
;
    }
    procBoundary1to3
    {
        type            processor;
        value           nonuniform List<scalar> 
27
(
9.99665e-07
9.99378e-07
9.99268e-07
9.99316e-07
9.99434e-07
9.99568e-07
9.99701e-07
9.99774e-07
9.99935e-07
9.99522e-07
9.99334e-07
9.99201e-07
9.99232e-07
9.99315e-07
9.99407e-07
9.9956e-07
9.99681e-07
9.99627e-07
9.99775e-07
9.99623e-07
9.99412e-07
9.99259e-07
9.99159e-07
9.99209e-07
9.99344e-07
9.99487e-07
9.98496e-07
)
;
    }
    procBoundary1to5
    {
        type            processor;
        value           nonuniform List<scalar> 
32
(
9.99941e-07
9.99828e-07
9.99771e-07
9.99715e-07
9.99715e-07
9.84384e-07
9.99371e-07
9.99295e-07
9.99275e-07
9.99335e-07
9.99408e-07
9.99503e-07
9.99281e-07
9.99418e-07
9.99297e-07
9.9926e-07
9.99307e-07
9.99426e-07
9.99519e-07
9.99598e-07
9.99475e-07
1.00018e-06
1.00009e-06
9.99941e-07
9.99371e-07
1.00004e-06
9.99534e-07
9.99371e-07
9.99418e-07
9.99397e-07
9.99418e-07
9.99571e-07
)
;
    }
    procBoundary1to7
    {
        type            processor;
        value           uniform 9.99743e-07;
    }
}


// ************************************************************************* //
