/*--------------------------------*- C++ -*----------------------------------*\
| =========                 |                                                 |
| \\      /  F ield         | OpenFOAM: The Open Source CFD Toolbox           |
|  \\    /   O peration     | Version:  4.x                                   |
|   \\  /    A nd           | Web:      www.OpenFOAM.org                      |
|    \\/     M anipulation  |                                                 |
\*---------------------------------------------------------------------------*/
FoamFile
{
    version     2.0;
    format      ascii;
    class       surfaceScalarField;
    location    "3";
    object      phi;
}
// * * * * * * * * * * * * * * * * * * * * * * * * * * * * * * * * * * * * * //

dimensions      [0 3 -1 0 0 0 0];

internalField   nonuniform List<scalar> 
192
(
1.26504e-05
-9.42951e-07
6.49459e-07
1.34198e-05
-1.33648e-06
5.67014e-07
1.42291e-05
-1.23946e-06
4.30169e-07
1.5238e-05
-1.367e-06
3.58125e-07
1.61448e-05
-1.44764e-06
5.40854e-07
1.61692e-05
-8.22858e-07
7.98415e-07
1.61053e-05
-1.78026e-06
1.84422e-06
1.22261e-05
1.17717e-06
2.70204e-06
-4.71034e-06
2.74688e-06
8.03943e-06
-9.60233e-07
-2.24316e-07
7.60752e-06
-2.23325e-07
-6.81244e-07
7.13325e-06
-6.46309e-07
-1.18885e-07
6.57665e-06
-5.2886e-07
-2.81539e-07
5.43003e-06
-2.84596e-07
-1.64274e-08
5.60319e-06
-3.81718e-07
-6.14299e-07
4.46193e-06
-5.03632e-07
-1.35369e-07
4.88767e-06
8.21156e-07
-6.97295e-08
-2.61043e-06
1.87126e-06
5.77668e-06
-3.74309e-08
5.55346e-06
-4.47039e-07
5.18727e-06
-5.28336e-08
5.11231e-06
-2.54213e-07
4.88401e-06
-1.97808e-08
5.01868e-06
-2.81123e-07
4.31062e-06
-9.43361e-08
5.14927e-06
-9.11932e-08
1.04381e-08
1.15759e-05
-4.31e-07
9.45559e-07
1.16469e-05
-4.6996e-07
9.65993e-07
1.18912e-05
-4.70487e-07
6.56356e-07
1.21413e-05
-4.60044e-07
5.68047e-07
1.27048e-05
-7.77285e-07
7.54597e-07
1.31321e-05
-4.04551e-07
7.75685e-07
1.4555e-05
-1.725e-06
2.14631e-06
1.27898e-05
1.77386e-06
2.69345e-06
-6.24297e-06
3.61722e-06
7.27428e-06
-1.71975e-07
-3.10723e-07
6.22546e-06
1.11773e-06
-1.22011e-06
6.03778e-06
-1.09256e-07
-2.92433e-07
6.03485e-06
-1.55467e-07
-5.83192e-07
5.30098e-06
-6.73024e-08
7.4611e-09
5.9748e-06
-3.95103e-07
-1.29756e-06
5.25462e-06
-1.0231e-06
-1.17102e-07
6.37259e-06
1.1009e-06
-5.14732e-07
-4.94745e-06
3.96655e-06
5.22089e-06
-3.94728e-08
5.35649e-06
-8.19198e-07
5.25586e-06
-1.18113e-08
5.43206e-06
-5.6542e-07
5.36395e-06
-2.10823e-08
5.62405e-06
-6.66224e-07
4.81133e-06
3.77422e-07
6.29184e-06
-5.84079e-07
5.19532e-07
1.27682e-05
-2.37486e-07
1.02353e-06
1.26015e-05
-7.43001e-08
1.20701e-06
1.25436e-05
-4.4086e-07
1.15513e-06
1.20509e-05
-1.26064e-08
1.23711e-05
-4.06115e-07
1.29181e-05
-3.76373e-07
1.52544e-05
-1.52001e-06
1.47929e-05
9.59858e-07
-7.07462e-06
6.33977e-06
-5.45928e-08
-5.17869e-07
7.05186e-06
1.56461e-07
-2.16297e-06
6.74287e-06
-2.57529e-07
6.02161e-06
-4.38152e-07
5.89631e-06
-2.25332e-07
6.54913e-06
-5.16535e-07
8.84507e-06
-2.75723e-06
1.05892e-05
7.4842e-08
-7.52094e-06
5.34547e-06
-3.06656e-08
5.36756e-06
5.18032e-06
5.42753e-06
5.4004e-06
5.78999e-06
5.97244e-06
8.51172e-06
1.44807e-05
-3.62326e-07
1.46424e-05
-2.29873e-07
5.97836e-06
-3.93426e-08
)
;

boundaryField
{
    inlet
    {
        type            calculated;
        value           nonuniform 0();
    }
    outlet
    {
        type            calculated;
        value           nonuniform List<scalar> 9(1.41895e-05 9.16513e-07 1.11235e-06 1.81624e-05 2.98178e-06 2.90418e-06 2.85696e-05 1.54686e-05 6.38619e-06);
    }
    wall
    {
        type            calculated;
        value           nonuniform List<scalar> 
57
(
0
0
0
0
0
0
0
0
0
0
0
0
0
0
1.61559e-27
0
0
0
0
0
0
0
0
0
0
0
0
0
0
0
0
0
0
0
0
0
0
0
0
0
0
0
0
0
-1.00974e-28
0
-1.00974e-28
0
0
0
0
0
0
0
0
0
0
)
;
    }
    procBoundary1to0
    {
        type            processor;
        value           nonuniform List<scalar> 
12
(
-1.23569e-05
-7.79783e-06
-6.07599e-06
-1.1441e-05
-7.4469e-06
-5.53114e-06
-1.26087e-05
-6.31551e-06
-5.42605e-06
-1.41234e-05
-6.05113e-06
-5.52636e-06
)
;
    }
    procBoundary1to3
    {
        type            processor;
        value           nonuniform List<scalar> 
27
(
-6.23491e-07
4.46936e-07
-2.27288e-07
-1.99684e-07
-3.65122e-08
-2.35264e-07
2.98762e-07
7.36965e-08
1.41605e-06
1.40317e-07
1.35428e-06
-4.96477e-08
-2.04563e-08
2.10816e-09
-2.70101e-07
-6.82132e-07
1.13271e-07
-2.06888e-06
1.71783e-08
-7.85862e-08
-5.85086e-08
-4.88407e-07
-2.07949e-07
-1.96324e-07
-2.04394e-06
-4.79701e-07
-2.74729e-06
)
;
    }
    procBoundary1to5
    {
        type            processor;
        value           nonuniform List<scalar> 
32
(
1.07331e-06
8.40573e-07
6.05044e-07
1.33005e-06
2.19508e-06
-3.08493e-06
-1.66771e-07
5.63611e-07
-4.80256e-08
-1.81022e-06
-1.17582e-06
-1.37384e-06
-4.66545e-07
-6.06239e-07
-2.35966e-08
-7.62373e-07
-1.13388e-08
-1.37602e-06
-5.18321e-07
-2.56882e-06
-2.12859e-06
1.02849e-06
1.27523e-06
1.48491e-05
-4.18348e-07
1.36671e-06
-7.68081e-07
5.52759e-06
-2.5525e-07
-1.68682e-06
5.65378e-06
-2.33463e-08
)
;
    }
    procBoundary1to7
    {
        type            processor;
        value           uniform -1.74084e-07;
    }
}


// ************************************************************************* //
