/*--------------------------------*- C++ -*----------------------------------*\
| =========                 |                                                 |
| \\      /  F ield         | OpenFOAM: The Open Source CFD Toolbox           |
|  \\    /   O peration     | Version:  4.x                                   |
|   \\  /    A nd           | Web:      www.OpenFOAM.org                      |
|    \\/     M anipulation  |                                                 |
\*---------------------------------------------------------------------------*/
FoamFile
{
    version     2.0;
    format      ascii;
    class       volScalarField;
    location    "3";
    object      QWallFluidCoeff;
}
// * * * * * * * * * * * * * * * * * * * * * * * * * * * * * * * * * * * * * //

dimensions      [1 -1 -3 -1 0 0 0];

internalField   nonuniform List<scalar> 
87
(
-4.42697e+06
-7.29845e+06
-4.91077e+06
-7.98281e+06
-5.54895e+06
-8.66678e+06
-5.11627e+06
-9.13751e+06
-3.89508e+06
-982543
-3.01265e+06
-695063
-2.89582e+06
-225271
-2.52688e+06
-276200
-2.30074e+06
-1.31154e+06
-629180
-2.5087e+06
-308529
-2.43405e+06
-51379.4
-2.4363e+06
-188499
-2.26098e+06
-375724
-1.96163e+06
-3.4743e+06
-1.9207e+06
-3.61682e+06
-1.95447e+06
-3.84894e+06
-1.87197e+06
-4.64635e+06
-2.42788e+06
0
0
0
0
0
0
0
0
0
0
0
0
0
0
0
0
0
0
-2.29795e+06
-3.61554e+06
-2.16323e+06
-3.64325e+06
-1.88829e+06
-3.80954e+06
-2.09353e+06
-4.85282e+06
-2.39389e+06
0
0
0
0
0
0
0
0
0
0
0
0
0
0
0
0
0
0
-2.65827e+06
-3.878e+06
-2.67105e+06
0
0
0
)
;

boundaryField
{
    inlet
    {
        type            calculated;
        value           nonuniform 0();
    }
    outlet
    {
        type            calculated;
        value           uniform 0;
    }
    wall
    {
        type            calculated;
        value           uniform 0;
    }
    procBoundary1to0
    {
        type            processor;
        value           uniform 0;
    }
    procBoundary1to3
    {
        type            processor;
        value           uniform 0;
    }
    procBoundary1to5
    {
        type            processor;
        value           uniform 0;
    }
    procBoundary1to7
    {
        type            processor;
        value           uniform 0;
    }
}


// ************************************************************************* //
