/*--------------------------------*- C++ -*----------------------------------*\
| =========                 |                                                 |
| \\      /  F ield         | OpenFOAM: The Open Source CFD Toolbox           |
|  \\    /   O peration     | Version:  4.x                                   |
|   \\  /    A nd           | Web:      www.OpenFOAM.org                      |
|    \\/     M anipulation  |                                                 |
\*---------------------------------------------------------------------------*/
FoamFile
{
    version     2.0;
    format      ascii;
    class       volScalarField;
    location    "3";
    object      thCond;
}
// * * * * * * * * * * * * * * * * * * * * * * * * * * * * * * * * * * * * * //

dimensions      [1 1 -3 -1 0 0 0];

internalField   nonuniform List<scalar> 
87
(
193.025
192.628
192.628
192.332
192.35
191.944
191.766
191.78
191.938
192.821
192.72
192.468
192.249
192.176
191.856
191.544
191.756
192.006
192.472
192.312
192.284
191.83
191.881
191.859
191.644
191.673
191.844
192.011
191.962
191.842
191.504
191.421
191.104
190.809
190.991
191.266
191.716
191.84
191.645
191.359
191.237
191.102
190.797
190.878
191.291
191.413
191.469
191.434
191.21
191.163
190.902
190.679
190.566
191.144
191.245
191.174
190.845
190.643
190.645
190.303
190.334
190.578
190.923
190.957
190.906
190.914
190.694
190.508
190.343
190.287
190.354
190.819
190.75
190.733
190.752
190.298
190.242
190.114
190.142
190.171
190.682
190.767
190.673
190.275
190.492
190.138
190.387
)
;

boundaryField
{
    inlet
    {
        type            zeroGradient;
    }
    outlet
    {
        type            zeroGradient;
    }
    wall
    {
        type            zeroGradient;
    }
    procBoundary1to0
    {
        type            processor;
        value           nonuniform List<scalar> 
12
(
193.385
192.858
192.381
192.197
191.88
191.77
191.601
191.258
191.2
191.072
190.815
190.563
)
;
    }
    procBoundary1to3
    {
        type            processor;
        value           nonuniform List<scalar> 
27
(
192.028
192.154
191.927
192.092
191.977
192.011
191.707
191.688
191.628
191.203
191.212
190.902
190.871
190.943
190.972
190.817
190.75
190.596
190.515
190.342
190.279
190.157
190.283
190.175
189.962
190.088
190.095
)
;
    }
    procBoundary1to5
    {
        type            processor;
        value           nonuniform List<scalar> 
32
(
190.234
190.034
190.02
189.935
189.896
189.908
190.251
190.26
190.123
189.956
189.76
189.714
189.842
190.113
190.201
189.978
189.97
189.959
189.757
189.838
189.712
190.385
190.414
190.234
190.251
190.1
190.166
190.251
190.113
190.088
190.113
190
)
;
    }
    procBoundary1to7
    {
        type            processor;
        value           uniform 190.015;
    }
}


// ************************************************************************* //
