/*--------------------------------*- C++ -*----------------------------------*\
| =========                 |                                                 |
| \\      /  F ield         | OpenFOAM: The Open Source CFD Toolbox           |
|  \\    /   O peration     | Version:  4.x                                   |
|   \\  /    A nd           | Web:      www.OpenFOAM.org                      |
|    \\/     M anipulation  |                                                 |
\*---------------------------------------------------------------------------*/
FoamFile
{
    version     2.0;
    format      ascii;
    class       volVectorField;
    location    "3";
    object      Urel;
}
// * * * * * * * * * * * * * * * * * * * * * * * * * * * * * * * * * * * * * //

dimensions      [0 1 -1 0 0 0 0];

internalField   nonuniform List<vector> 
87
(
(-0.0220878 0.00308484 -0.00100585)
(-0.0239473 0.00315739 -0.00102678)
(-0.0232642 0.00295317 -0.00133201)
(-0.0247203 0.00242984 -0.00183321)
(-0.0228644 0.00163051 -0.00272008)
(-0.0225306 0.000459096 -0.00381815)
(-0.0181276 0.000265124 -0.00486346)
(-0.0162882 0.000625816 -0.00509659)
(-0.0121299 0.00348895 -0.00633829)
(-0.0163056 0.00255707 -0.000532671)
(-0.0174744 0.00257761 -0.000571949)
(-0.0154701 0.00216745 -0.000861712)
(-0.016356 0.00152232 -0.00127757)
(-0.0136055 0.000518185 -0.00200173)
(-0.0136834 -0.00022378 -0.00266037)
(-0.010502 -0.000290785 -0.00339755)
(-0.0101555 0.000229494 -0.00377432)
(-0.00808124 0.00196171 -0.00470537)
(-0.0122681 0.00149563 -0.000217435)
(-0.0127757 0.00118545 -0.00031954)
(-0.0102364 0.000945745 -0.000508016)
(-0.0106183 0.000329024 -0.000709949)
(-0.00799765 -0.000380659 -0.00107178)
(-0.00868609 -0.000818496 -0.00136772)
(-0.00640739 -0.000724725 -0.00177311)
(-0.00717659 -0.000247057 -0.00211295)
(-0.00589158 0.000451397 -0.002903)
(-0.0220971 0.00266195 -0.0015397)
(-0.0239185 0.0027328 -0.00147328)
(-0.0229842 0.00261126 -0.00168329)
(-0.0248289 0.00221858 -0.00202063)
(-0.0233596 0.00160858 -0.00281458)
(-0.0244251 0.00068431 -0.00383522)
(-0.0215697 0.000610453 -0.00529992)
(-0.0213064 0.000706739 -0.0057145)
(-0.0164815 0.00408526 -0.00811367)
(-0.0165299 0.0022439 -0.000774615)
(-0.0176611 0.00227513 -0.000641805)
(-0.0157495 0.00207689 -0.000947314)
(-0.0170153 0.00158863 -0.0012034)
(-0.0148105 0.000828102 -0.00180021)
(-0.0160383 0.00021909 -0.0023319)
(-0.013734 0.000160032 -0.00342292)
(-0.0146578 0.000498954 -0.0035772)
(-0.0123995 0.00299578 -0.00513352)
(-0.0125214 0.00114723 -0.00018005)
(-0.0133538 0.000878277 -0.000203281)
(-0.0110236 0.000950708 -0.000457889)
(-0.0117504 0.000518171 -0.00059633)
(-0.00943845 3.78997e-05 -0.000857933)
(-0.0107578 -0.00042656 -0.00105745)
(-0.00880703 -0.000261971 -0.00167725)
(-0.0102876 -5.97694e-05 -0.00185961)
(-0.00899599 0.00126912 -0.00342863)
(-0.0240408 0.00225472 -0.00215978)
(-0.0259639 0.00231069 -0.00204999)
(-0.0252156 0.00212283 -0.00218135)
(-0.0271621 0.00181202 -0.00222938)
(-0.026019 0.00146971 -0.00274696)
(-0.0280376 0.000979688 -0.00327449)
(-0.0263046 0.00126629 -0.00467434)
(-0.0280614 0.00165222 -0.00498055)
(-0.0223319 0.00587731 -0.00725297)
(-0.0178389 0.00181084 -0.00106517)
(-0.0194184 0.00183783 -0.000823353)
(-0.0177962 0.00172127 -0.00107143)
(-0.0194271 0.00141469 -0.00110797)
(-0.0174598 0.000998256 -0.0014702)
(-0.0196604 0.000719042 -0.00163681)
(-0.0178186 0.000952446 -0.00265639)
(-0.0203724 0.00121777 -0.00289149)
(-0.0170378 0.0056849 -0.0047279)
(-0.0142745 0.000737026 -0.000444672)
(-0.0154201 0.000828526 -0.000255295)
(-0.0132635 0.000801531 -0.000473191)
(-0.0145298 0.000649235 -0.000425751)
(-0.012346 0.000427021 -0.000511775)
(-0.0141087 0.000160578 -0.00045131)
(-0.0120794 0.000557553 -0.00101192)
(-0.0144453 0.00060578 -0.000896723)
(-0.012654 0.00245195 -0.00297233)
(-0.0265175 0.00194341 -0.00230085)
(-0.0285957 0.00190489 -0.00215419)
(-0.0281486 0.00167428 -0.00226831)
(-0.0193432 0.00138895 -0.000946046)
(-0.0212326 0.00141194 -0.000562391)
(-0.0160105 0.000641394 -0.000438095)
)
;

boundaryField
{
    inlet
    {
        type            calculated;
        value           nonuniform 0();
    }
    outlet
    {
        type            calculated;
        value           nonuniform List<vector> 9((0.00228344 0.0156249 -0.00992853) (0.0175449 0.00437802 -0.00695025) (0.0185602 0.00303564 -0.00379413) (-0.0087732 0.0144437 -0.0328526) (-0.00203035 0.00803545 -0.00888627) (0.00818553 0.00675273 -0.0125459) (-0.0242937 0.0189017 -0.0354766) (-0.00833476 0.0302303 -0.015675) (-0.00115034 0.00833132 -0.0187077));
    }
    wall
    {
        type            calculated;
        value           nonuniform List<vector> 
57
(
(0.000187535 -3.52895e-06 0.000507265)
(0.00014417 1.97697e-05 0.000520114)
(0.000196926 6.00133e-05 0.000480079)
(0.000293381 -0.000136641 0.000693555)
(0.000232089 -9.6664e-05 0.000619786)
(6.37351e-05 -5.76287e-06 0.000520156)
(0.00024491 -0.000112028 0.000484676)
(0.000332398 -5.31321e-05 0.000424666)
(0.000156992 5.12539e-05 0.000430526)
(0.000319264 -7.39703e-06 0.000429499)
(0.000270337 -5.05021e-06 0.000414987)
(0.000157712 2.87652e-05 0.000352093)
(0.000345544 -6.73505e-05 0.000478887)
(0.000279063 2.37083e-05 0.000279417)
(0.000221654 -2.50008e-06 0.000466889)
(0.000351152 -4.25477e-05 0.00028316)
(0.000341396 4.63626e-06 0.000304803)
(0.000131938 3.3673e-05 0.000310409)
(0.000350966 3.77325e-05 0.00013888)
(0.000179776 -5.6632e-05 0.00026082)
(0.000133842 4.13832e-05 0.000367281)
(0.000111001 4.36097e-05 0.000135073)
(0.000104056 0.000123915 0.000253576)
(9.21123e-05 8.61482e-05 0.000160058)
(6.53715e-07 -2.99217e-05 0.000337152)
(-2.71085e-05 -3.56381e-05 0.00028855)
(3.96488e-05 0.000145062 0.000178373)
(0.000187535 -3.52895e-06 0.000507265)
(0.000289333 5.80362e-06 0.000555828)
(0.000272288 5.42482e-05 0.000493452)
(0.000228746 -1.22566e-07 0.000337956)
(0.000293381 -0.000136641 0.000693555)
(0.000173667 1.38301e-05 0.000438923)
(0.000241331 6.73666e-06 0.000357299)
(0.000245318 -1.48377e-05 0.000325407)
(0.00024491 -0.000112028 0.000484676)
(0.000217549 -2.33627e-05 0.000375422)
(0.000282801 -5.69246e-06 0.000371629)
(0.000281809 -5.18567e-05 0.000301546)
(0.000319264 -7.39703e-06 0.000429499)
(0.000289994 2.10929e-05 0.000389959)
(0.000260884 -4.55198e-05 0.000263345)
(0.000345544 -6.73505e-05 0.000478887)
(0.000327396 6.59857e-07 0.000282576)
(0.000256443 -4.18345e-05 0.000265558)
(0.000351152 -4.25477e-05 0.00028316)
(0.000273125 -3.32909e-05 0.000289368)
(0.000217787 -8.18875e-05 0.000286842)
(0.000350966 3.77325e-05 0.00013888)
(0.00023033 -3.13886e-06 0.000225782)
(0.000212865 -1.51318e-05 0.000252642)
(0.000111001 4.36097e-05 0.000135073)
(0.0001325 7.85953e-05 0.000151927)
(0.000109212 1.11502e-05 0.000200351)
(6.53715e-07 -2.99217e-05 0.000337152)
(1.9558e-05 2.2925e-05 0.000195215)
(8.75673e-07 6.48935e-06 0.000246883)
)
;
    }
    procBoundary1to0
    {
        type            processor;
        value           nonuniform List<vector> 
12
(
(-0.0229045 0.00299044 -0.000966427)
(-0.0180194 0.00241305 -0.000489059)
(-0.0144799 0.00141911 -0.000129049)
(-0.0231228 0.00261382 -0.00154907)
(-0.0182277 0.00212019 -0.000773946)
(-0.0148446 0.00138936 -0.000217955)
(-0.0247966 0.00223289 -0.00218284)
(-0.0195468 0.0017189 -0.00114194)
(-0.016357 0.000819902 -0.000556507)
(-0.0269304 0.00193266 -0.00234614)
(-0.0209436 0.00134635 -0.00102833)
(-0.0178433 0.000705529 -0.000499802)
)
;
    }
    procBoundary1to3
    {
        type            processor;
        value           nonuniform List<vector> 
27
(
(-0.0112039 -0.00024057 2.44459e-05)
(-0.0120627 -0.000365296 -0.000307868)
(-0.00917191 -0.000713635 -0.000184076)
(-0.00958492 -0.00104038 -0.000162034)
(-0.00713686 -0.00143401 -0.000115663)
(-0.00826583 -0.00143066 -0.000153086)
(-0.00663879 -0.00144766 -0.000197516)
(-0.00821159 -0.000982423 -0.000690616)
(-0.00722229 -0.00198169 -0.00111934)
(-0.0106577 -0.000153985 0.000603301)
(-0.0125232 -0.000195456 0.000135439)
(-0.00995759 -0.00044563 -0.000238922)
(-0.0106798 -0.000742345 -2.87909e-05)
(-0.00818891 -0.00102355 9.73759e-05)
(-0.0095881 -0.00113006 0.000266451)
(-0.00812527 -0.00116033 4.40233e-05)
(-0.00971296 -0.00107869 -0.000151796)
(-0.00927401 -0.0012075 -0.00138971)
(-0.0137956 -6.55664e-05 -0.000189204)
(-0.0151525 -0.000113068 0.000161467)
(-0.0128704 -0.000311922 -0.00028609)
(-0.0143355 -0.00051413 -0.000151391)
(-0.0118048 -0.000681471 0.000134835)
(-0.0133698 -0.00084567 0.000681855)
(-0.0111029 -0.000824132 0.000681846)
(-0.0130756 -0.000874073 0.00107371)
(-0.0119669 -0.000823005 8.84039e-05)
)
;
    }
    procBoundary1to5
    {
        type            processor;
        value           nonuniform List<vector> 
32
(
(-0.0303957 0.00135687 -0.00223963)
(-0.0296172 0.00124201 -0.00228934)
(-0.0320107 0.0010178 -0.00233381)
(-0.0304851 0.00176905 -0.00280868)
(-0.0331221 0.00245935 -0.00278643)
(-0.0267768 0.00809728 -0.00212621)
(-0.019618 0.00125022 -0.000916952)
(-0.0220887 0.00108784 -0.00113108)
(-0.0204022 0.000887921 -0.000950901)
(-0.0230496 0.000782849 -0.000662692)
(-0.0211775 0.00134683 -0.00106651)
(-0.023902 0.00180095 -0.00112858)
(-0.0200743 0.00812367 -0.00192079)
(-0.0176362 0.000798307 -0.000246135)
(-0.015717 0.000723078 -0.000287279)
(-0.0174561 0.000634108 -0.000177109)
(-0.0152665 0.000652253 -0.000116125)
(-0.0172655 0.000506288 0.000173735)
(-0.0148823 0.00106985 0.00014836)
(-0.0171792 0.00102957 0.000368381)
(-0.014469 0.00370981 -0.000877531)
(-0.0284196 0.00169206 -0.00235907)
(-0.0306359 0.00165013 -0.00214761)
(-0.0303957 0.00135687 -0.00223963)
(-0.019618 0.00125022 -0.000916952)
(-0.0303467 0.000975062 -0.00198344)
(-0.0203278 0.00104996 -0.00110832)
(-0.019618 0.00125022 -0.000916952)
(-0.0176362 0.000798307 -0.000246135)
(-0.0222988 0.000995558 -0.000810291)
(-0.0176362 0.000798307 -0.000246135)
(-0.0177295 0.000441541 -0.000645092)
)
;
    }
    procBoundary1to7
    {
        type            processor;
        value           uniform (-0.0156514 0.000118392 -0.000127384);
    }
}


// ************************************************************************* //
