/*--------------------------------*- C++ -*----------------------------------*\
| =========                 |                                                 |
| \\      /  F ield         | OpenFOAM: The Open Source CFD Toolbox           |
|  \\    /   O peration     | Version:  4.x                                   |
|   \\  /    A nd           | Web:      www.OpenFOAM.org                      |
|    \\/     M anipulation  |                                                 |
\*---------------------------------------------------------------------------*/
FoamFile
{
    version     2.0;
    format      ascii;
    class       volVectorField;
    location    "3";
    object      UsPrev;
}
// * * * * * * * * * * * * * * * * * * * * * * * * * * * * * * * * * * * * * //

dimensions      [0 1 -1 0 0 0 0];

internalField   nonuniform List<vector> 
87
(
(-1.10065e-05 9.24004e-07 2.23657e-07)
(-3.09866e-05 1.38929e-06 -9.71036e-07)
(-1.40738e-05 -2.62172e-06 -3.18531e-06)
(-1.16747e-05 -2.39661e-06 -3.68748e-06)
(-5.2023e-06 -8.8216e-07 2.25463e-06)
(-1.69583e-06 -7.06019e-06 1.63432e-06)
(-3.01511e-06 -1.1634e-05 -2.28514e-07)
(-1.05188e-06 -2.24423e-05 -3.77329e-07)
(-1.00195e-06 -8.9979e-06 -1.42688e-06)
(-2.02474e-05 -5.54542e-08 -2.15695e-06)
(-2.0528e-05 9.14188e-08 -3.02019e-06)
(-1.73738e-05 -2.64115e-06 -2.23635e-06)
(-1.69524e-05 -3.78576e-06 -2.83424e-06)
(-1.29331e-05 -4.67326e-06 -4.67671e-07)
(-1.07687e-05 -8.37486e-06 2.11877e-06)
(-9.50635e-06 -1.15478e-05 1.99065e-06)
(-7.13107e-06 -1.45791e-05 8.77139e-07)
(-4.15873e-06 -7.02775e-06 -1.64518e-06)
(-2.54263e-05 -1.22928e-06 -1.90091e-06)
(-2.42863e-05 -1.29489e-06 -3.00075e-06)
(-2.12815e-05 -2.45758e-06 -3.26242e-06)
(-1.901e-05 -3.4381e-06 -1.99115e-06)
(-1.74876e-05 -4.62799e-06 -1.86669e-07)
(-1.53251e-05 -3.84425e-06 2.12983e-06)
(-1.11647e-05 -1.3385e-06 3.52404e-06)
(-4.91663e-07 -3.70079e-06 1.39824e-06)
(3.50386e-07 -1.78621e-06 1.75794e-06)
(-1.31108e-05 1.55579e-06 1.86025e-07)
(-1.35579e-05 -1.43733e-07 -7.26778e-07)
(-1.37844e-05 -1.57912e-06 -1.74638e-06)
(-1.11514e-05 -1.40522e-06 -2.31357e-06)
(-6.33312e-06 -3.22766e-06 9.50322e-07)
(-2.08186e-06 -6.97321e-06 3.14433e-08)
(-1.25015e-07 -1.26257e-05 -3.19387e-07)
(-6.11223e-06 -1.53153e-05 -1.69519e-06)
(-6.19997e-06 -8.6996e-06 2.75683e-07)
(-1.87352e-05 6.99106e-07 -1.34648e-06)
(-1.90637e-05 -1.48071e-08 -2.42042e-06)
(-1.74019e-05 -1.82696e-06 -2.28238e-06)
(-1.67581e-05 -3.88627e-06 -2.65994e-06)
(-1.53705e-05 -6.4365e-06 -6.82194e-07)
(-1.10938e-05 -1.04486e-05 -1.08754e-06)
(-7.23202e-06 -9.06479e-06 5.90511e-07)
(-7.32732e-06 -1.62458e-05 -1.86196e-06)
(-3.60519e-06 -6.41555e-06 -1.41056e-06)
(-2.21518e-05 -2.58916e-07 -1.77959e-06)
(-2.24242e-05 -1.05061e-06 -2.55068e-06)
(-2.14938e-05 -2.66981e-06 -2.97574e-06)
(-1.91258e-05 -3.33159e-06 -2.25086e-06)
(-1.78131e-05 -4.93035e-06 -5.62971e-07)
(-1.50622e-05 -4.18894e-06 1.33093e-06)
(-1.23659e-05 -3.79532e-06 3.47507e-06)
(-3.9565e-06 -7.94169e-06 8.83786e-07)
(-4.06111e-06 -6.28221e-06 2.70196e-06)
(-1.5745e-05 1.58636e-07 1.20045e-07)
(-1.60721e-05 5.72036e-07 4.31141e-07)
(-1.32106e-05 -8.5608e-07 -1.70448e-06)
(-1.36128e-05 -2.21337e-07 -1.18161e-06)
(-9.27913e-06 -2.46998e-06 -9.12163e-07)
(-7.08413e-06 -7.06789e-06 -2.37813e-06)
(-6.02755e-06 -8.21395e-06 -1.26246e-06)
(-6.02967e-06 -9.11424e-06 -2.02982e-06)
(-7.88677e-06 -9.31004e-06 -1.4156e-06)
(-1.91691e-05 2.01858e-07 -1.30946e-06)
(-1.90311e-05 4.57718e-08 -1.80408e-06)
(-1.79665e-05 -1.20468e-06 -1.91615e-06)
(-1.6536e-05 -2.19749e-06 -1.9104e-06)
(-1.33621e-05 -3.58101e-06 -7.57626e-07)
(-9.52028e-06 -6.25922e-06 -1.09115e-06)
(-7.24405e-06 -7.82393e-06 -2.59146e-06)
(-6.18175e-06 -1.02166e-05 -3.79764e-06)
(-4.73059e-06 -7.80308e-06 -3.98738e-06)
(-2.09582e-05 1.80534e-07 -1.75865e-06)
(-2.07862e-05 -8.64989e-07 -2.12684e-06)
(-1.96469e-05 -1.28167e-06 -2.29374e-06)
(-1.85104e-05 -2.24242e-06 -2.01262e-06)
(-1.67707e-05 -2.3095e-06 -7.54237e-07)
(-1.25378e-05 -2.29843e-06 6.65742e-07)
(-7.32662e-06 -4.87006e-06 1.78097e-06)
(-4.21459e-06 -4.06231e-06 1.79778e-06)
(-3.85371e-06 -6.12226e-06 -5.23663e-07)
(-1.17601e-05 -7.85684e-08 -1.79153e-07)
(-1.35171e-05 6.13002e-07 3.12439e-07)
(-1.36317e-05 -8.18304e-07 -3.25565e-08)
(-1.76766e-05 9.83021e-09 -9.40631e-07)
(-1.84333e-05 -4.38129e-07 -1.44797e-06)
(-1.95342e-05 -5.7541e-07 -1.40129e-06)
)
;

boundaryField
{
    inlet
    {
        type            calculated;
        value           nonuniform 0();
    }
    outlet
    {
        type            calculated;
        value           uniform (0 0 0);
    }
    wall
    {
        type            calculated;
        value           uniform (0 0 0);
    }
    procBoundary1to0
    {
        type            processor;
        value           uniform (0 0 0);
    }
    procBoundary1to3
    {
        type            processor;
        value           uniform (0 0 0);
    }
    procBoundary1to5
    {
        type            processor;
        value           uniform (0 0 0);
    }
    procBoundary1to7
    {
        type            processor;
        value           uniform (0 0 0);
    }
}


// ************************************************************************* //
