/*--------------------------------*- C++ -*----------------------------------*\
| =========                 |                                                 |
| \\      /  F ield         | OpenFOAM: The Open Source CFD Toolbox           |
|  \\    /   O peration     | Version:  4.x                                   |
|   \\  /    A nd           | Web:      www.OpenFOAM.org                      |
|    \\/     M anipulation  |                                                 |
\*---------------------------------------------------------------------------*/
FoamFile
{
    version     2.0;
    format      ascii;
    class       volScalarField;
    location    "42.5";
    object      KslPrev;
}
// * * * * * * * * * * * * * * * * * * * * * * * * * * * * * * * * * * * * * //

dimensions      [1 -3 -1 0 0 0 0];

internalField   nonuniform List<scalar> 
114
(
3598.62
32773.6
4114.67
1e+10
5715.73
86612.2
1.91242e+08
3744.1
1.32331e+07
3847.92
77145
4225.78
12828
4153.2
1e+10
4189.69
1e+10
4279.13
1e+10
4797.87
14752.7
7187.86
3068.15
7402.34
2931.98
8026.61
2761.23
9342.74
2432.45
7947.59
32223.5
3550.69
75205.4
3493.71
120418
3444.55
28898.5
3480.55
6652.8
747788
3694.53
1e+10
3641.6
130105
3509.18
31483.1
3567.61
12295.6
1e+10
3841.76
7753.98
3209.88
8255.63
3127.18
9019.13
3056.98
11540.3
3019.86
15623.9
15177.2
3473.73
18219.9
3351.36
22221.5
3243.92
22745.2
3058.68
11159.6
80053.3
3650.46
1e+10
3685.97
1e+10
3842.93
34930.8
4098.08
7063.14
48909.3
3624.2
75683.7
3527.8
4846.53
2730.56
4608.72
2535.69
4540.01
2258.18
4764.61
1786.91
5208.74
6135.77
2981.89
6011.43
2799.73
6139.96
2586.01
7062.19
2310.98
9834.49
7204.17
3107.4
7282.61
2952.88
7278.59
2725.87
7485.36
2285.3
7326.78
7463.56
3123.91
7761.92
3015.98
8376.49
2821.72
)
;

boundaryField
{
    inlet
    {
        type            zeroGradient;
    }
    outlet
    {
        type            zeroGradient;
    }
    wall
    {
        type            zeroGradient;
    }
    procBoundary5to1
    {
        type            processor;
        value           uniform 0;
    }
    procBoundary5to4
    {
        type            processor;
        value           uniform 0;
    }
    procBoundary5to7
    {
        type            processor;
        value           uniform 0;
    }
}


// ************************************************************************* //
