/*--------------------------------*- C++ -*----------------------------------*\
| =========                 |                                                 |
| \\      /  F ield         | OpenFOAM: The Open Source CFD Toolbox           |
|  \\    /   O peration     | Version:  4.x                                   |
|   \\  /    A nd           | Web:      www.OpenFOAM.org                      |
|    \\/     M anipulation  |                                                 |
\*---------------------------------------------------------------------------*/
FoamFile
{
    version     2.0;
    format      ascii;
    class       surfaceScalarField;
    location    "51";
    object      phi;
}
// * * * * * * * * * * * * * * * * * * * * * * * * * * * * * * * * * * * * * //

dimensions      [0 3 -1 0 0 0 0];

internalField   nonuniform List<scalar> 
249
(
1.22228e-05
-1.46194e-07
-1.4295e-07
1.24914e-05
-1.16663e-07
-1.61456e-07
1.28464e-05
-1.65505e-07
-1.74439e-07
1.28804e-05
-1.81859e-07
1.20183e-07
1.32921e-05
-4.0175e-07
-2.83903e-07
1.27001e-05
-2.51665e-07
7.0454e-07
1.32957e-05
-8.91988e-07
-7.51961e-07
1.17119e-05
3.52265e-08
1.81697e-06
-2.21144e-06
-2.99921e-06
1.01265e-05
3.62431e-08
-8.82661e-08
9.89205e-06
1.01178e-07
1.66606e-08
9.7051e-06
7.79519e-08
-5.65149e-08
9.0684e-06
1.10359e-07
3.44484e-07
8.33912e-06
3.55975e-07
-2.84472e-08
7.11844e-06
1.54862e-07
8.14153e-07
5.2624e-06
1.03739e-06
-7.33375e-08
4.68988e-06
-5.14285e-07
1.12203e-06
2.75685e-06
-2.7809e-07
1.20204e-05
-5.60299e-09
-1.61022e-07
1.22148e-05
4.05002e-08
-1.33806e-07
1.25389e-05
-9.71558e-08
-1.48926e-07
1.25159e-05
-5.01698e-08
1.83478e-07
1.29928e-05
8.09271e-08
-2.01818e-07
1.24618e-05
-6.62631e-08
7.52138e-07
1.34829e-05
5.98019e-07
-5.81778e-07
1.21494e-05
-7.02323e-07
1.52162e-06
2.55381e-06
-2.73973e-06
1.39437e-05
-2.38116e-07
1.41845e-05
-2.00221e-07
1.43345e-05
-2.47203e-07
1.43229e-05
-3.85473e-08
1.47124e-05
-3.086e-07
1.43088e-05
3.37328e-07
1.52287e-05
-3.21857e-07
1.32726e-05
1.25374e-06
-5.33054e-06
7.47112e-06
5.39302e-09
-2.29052e-07
7.41287e-06
9.1805e-08
-9.79252e-08
7.51719e-06
1.94199e-08
-2.70802e-07
7.53568e-06
4.31256e-08
1.47603e-07
7.71128e-06
1.19172e-08
-4.55391e-07
7.84608e-06
-1.28243e-07
6.60563e-07
8.00821e-06
3.23195e-08
-9.15376e-07
8.41176e-06
-7.30426e-07
1.86997e-06
4.23275e-07
-3.62733e-06
6.09524e-06
8.20725e-08
-5.8798e-08
5.8782e-06
1.93932e-07
1.31575e-07
5.69851e-06
1.61914e-07
-1.93201e-08
5.77059e-06
2.24821e-08
2.93046e-07
5.36276e-06
3.94721e-07
-3.41594e-09
5.6697e-06
-3.00807e-07
6.79777e-07
4.59023e-06
1.09734e-06
-5.88925e-08
5.35645e-06
-1.38655e-06
1.01193e-06
4.1103e-06
-3.73887e-07
8.38095e-06
-1.81246e-08
-1.93538e-07
8.54879e-06
4.74176e-08
-1.55124e-07
8.8988e-06
-7.3001e-08
-2.64024e-07
9.19942e-06
-2.02082e-07
1.07427e-07
9.85787e-06
4.71766e-08
-5.12723e-07
1.0185e-05
-4.76247e-07
6.00415e-07
1.12675e-05
6.81339e-07
-1.24829e-06
1.07796e-05
-9.77949e-07
1.60095e-06
3.90657e-06
-4.0424e-06
1.11744e-05
-3.75492e-07
1.12761e-05
-2.54481e-07
1.14295e-05
-4.73634e-07
1.13e-05
-1.11162e-07
1.17499e-05
-7.11273e-07
1.13828e-05
2.28206e-07
1.27897e-05
-1.04742e-06
1.18361e-05
1.22936e-06
-4.47177e-06
6.35791e-06
-6.57796e-08
6.35607e-06
-8.76437e-08
6.28407e-06
-8.62429e-08
6.48214e-06
-8.60078e-08
6.26324e-06
-1.68075e-07
6.58829e-06
3.44189e-08
5.90369e-06
-3.08766e-07
6.81026e-06
4.08486e-07
-7.91885e-07
5.12145e-06
1.73375e-08
5.18496e-06
-8.79292e-08
5.07939e-06
1.48042e-12
5.15492e-06
-4.57327e-08
4.92726e-06
6.80989e-08
5.01398e-06
1.13161e-07
4.21259e-06
4.78739e-07
5.06228e-06
-1.77865e-07
2.03302e-06
5.74761e-06
-8.81914e-10
5.65863e-06
-9.46757e-08
5.67915e-06
-6.91305e-08
6.03261e-06
-2.499e-07
5.96932e-06
2.257e-08
6.84124e-06
-2.8515e-07
6.42593e-06
5.49774e-07
7.59383e-06
-6.04497e-07
2.71816e-06
8.98584e-06
8.89472e-06
8.80689e-06
8.59322e-06
8.61794e-06
8.39421e-06
9.08554e-06
8.79753e-06
)
;

boundaryField
{
    inlet
    {
        type            calculated;
        value           nonuniform 0();
    }
    outlet
    {
        type            calculated;
        value           nonuniform List<scalar> 
12
(
1.39322e-05
-3.18543e-10
1.50921e-05
2.1157e-05
8.54944e-06
1.76523e-06
1.2286e-05
1.48839e-05
3.90123e-06
1.79044e-06
5.05516e-06
9.55848e-06
)
;
    }
    wall
    {
        type            calculated;
        value           nonuniform List<scalar> 
63
(
0
0
0
0
0
0
0
0
0
0
0
0
0
0
0
0
0
0
0
0
0
0
0
0
0
0
0
0
0
0
0
0
0
0
0
0
0
0
0
0
0
0
0
0
0
0
0
0
0
0
0
0
0
0
0
0
0
0
0
-3.08149e-33
0
0
0
)
;
    }
    procBoundary3to1
    {
        type            processor;
        value           nonuniform List<scalar> 
27
(
2.6123e-08
9.4911e-09
-1.49878e-08
2.76607e-08
2.73956e-07
1.39118e-07
1.0483e-06
-2.68394e-07
2.99037e-06
-3.70725e-08
-9.70815e-08
-2.73764e-08
-8.90407e-08
-1.60241e-08
3.74199e-08
-3.10361e-08
2.73884e-07
6.71705e-08
8.41726e-08
4.27269e-08
1.04317e-07
4.49047e-09
2.20554e-07
-5.29127e-08
5.76586e-07
-7.15643e-07
2.04851e-06
)
;
    }
    procBoundary3to2
    {
        type            processor;
        value           nonuniform List<scalar> 
12
(
-1.19598e-05
-1.02207e-05
-1.18175e-05
-1.37112e-05
-7.35334e-06
-6.20139e-06
-8.24824e-06
-1.10552e-05
-6.41972e-06
-5.26241e-06
-5.78043e-06
-9.00934e-06
)
;
    }
    procBoundary3to7
    {
        type            processor;
        value           nonuniform List<scalar> 
36
(
-1.85635e-07
-5.11706e-08
-2.16879e-07
3.10508e-08
-2.88965e-07
3.53999e-07
-4.98595e-07
1.27055e-06
-1.97492e-06
-9.62226e-10
6.83605e-08
8.10277e-13
1.77238e-07
-1.19287e-08
5.14321e-07
-4.50159e-08
7.48595e-07
7.30506e-08
-1.42493e-07
-5.93963e-08
-2.15416e-07
-4.18694e-08
-4.03896e-07
1.26802e-07
-9.04016e-07
8.59691e-07
-2.18887e-06
-3.52874e-07
-2.58033e-07
-4.54935e-07
-1.47395e-07
-7.13416e-07
1.66778e-07
-1.18898e-06
9.12874e-07
-2.51456e-06
)
;
    }
}


// ************************************************************************* //
