/*--------------------------------*- C++ -*----------------------------------*\
| =========                 |                                                 |
| \\      /  F ield         | OpenFOAM: The Open Source CFD Toolbox           |
|  \\    /   O peration     | Version:  4.x                                   |
|   \\  /    A nd           | Web:      www.OpenFOAM.org                      |
|    \\/     M anipulation  |                                                 |
\*---------------------------------------------------------------------------*/
FoamFile
{
    version     2.0;
    format      ascii;
    class       volVectorField;
    location    "51";
    object      U;
}
// * * * * * * * * * * * * * * * * * * * * * * * * * * * * * * * * * * * * * //

dimensions      [0 1 -1 0 0 0 0];

internalField   nonuniform List<vector> 
108
(
(0.0225657 -0.000331471 -0.000251294)
(0.0399608 -0.00034698 -0.000477162)
(0.0232639 -0.000432823 -0.000288481)
(0.0425159 -0.000732726 6.75349e-05)
(0.0224402 -0.00169431 -0.000473346)
(0.0455569 -0.00137624 0.00136851)
(0.0184719 -0.00457832 -0.00169955)
(0.0501972 0.000214437 0.00333892)
(0.00901928 -0.0115819 -0.00535761)
(0.0169433 -0.000430014 -0.000159795)
(0.0353038 -0.000262944 -0.000146079)
(0.0150687 -0.000427189 -0.000201717)
(0.0348553 -0.000215872 0.000933671)
(0.010963 -0.000391033 -0.000136648)
(0.0320118 5.9251e-05 0.00246784)
(0.0037595 -7.76915e-05 -8.41029e-05)
(0.0238199 -3.43982e-05 0.0030997)
(-2.46592e-09 1.25007e-09 -6.46823e-10)
(0.0222692 0.00061505 0.00011291)
(0.0394827 0.000791966 5.00615e-05)
(0.0226573 0.00083126 0.000597331)
(0.0417769 0.000792513 0.000739547)
(0.0215915 0.0022446 0.00137541)
(0.0451281 0.000754367 0.00194072)
(0.0179023 0.0055155 0.00184107)
(0.051931 -0.00265923 0.00271224)
(0.0096942 0.0144658 -5.34046e-06)
(0.0279883 -0.000641863 6.90612e-05)
(0.0428641 -0.000571493 2.43242e-05)
(0.028622 -0.00132638 0.000463248)
(0.0448476 -0.00105737 0.000532856)
(0.0278729 -0.00181259 0.000971441)
(0.047612 -0.00110215 0.00133683)
(0.0246687 -0.0023258 0.00187211)
(0.0537921 -0.00105563 0.00271523)
(0.013458 -0.000999381 -0.00946282)
(0.00681698 6.3062e-05 -0.000510566)
(0.0324096 0.000193852 -0.000374556)
(0.00584877 0.000105773 -0.000646897)
(0.033984 6.90183e-05 0.000578493)
(0.00505637 7.82666e-05 -0.00104188)
(0.0357005 -0.000317334 0.00237234)
(0.00473476 -1.16077e-05 -0.00231318)
(0.0379135 -0.00113352 0.00638334)
(0.00563285 -0.000825716 -0.0107051)
(0.00225367 -2.79032e-05 -0.000312115)
(0.0298473 0.000300183 0.000238082)
(0.000436168 1.01555e-05 -0.000100705)
(0.0297555 0.000162571 0.000893316)
(4.54261e-05 4.32106e-06 -1.58017e-05)
(0.0283952 -0.00037837 0.0018388)
(0.000756071 0.00022866 -0.000314622)
(0.0239296 -0.00284412 0.00289421)
(0.00370684 0.00319334 -0.00150628)
(0.0101969 0.000465045 -0.000984802)
(0.0339193 0.000738831 -0.000769885)
(0.0103566 0.000851063 -0.00141612)
(0.0366353 -4.17779e-05 0.00022803)
(0.011045 0.00210015 -0.00250248)
(0.0410318 -0.00123511 0.00205403)
(0.0117247 0.00565069 -0.0050343)
(0.0480752 -0.0046319 0.00545154)
(0.00784626 0.0189384 -0.0148203)
(0.0202186 -0.000554474 -0.00134186)
(0.0378725 -0.000477812 -0.00108849)
(0.0200665 -0.0012276 -0.00179602)
(0.0397335 -0.00103884 -0.000749007)
(0.018678 -0.00183617 -0.0026599)
(0.0430567 -0.00132261 0.000439247)
(0.0156893 -0.0019502 -0.00366134)
(0.051841 -0.000659905 0.00397882)
(0.00937979 0.00217978 -0.0188982)
(0.00385019 -0.000355017 -0.000728876)
(0.0303525 -0.000228084 -0.000154072)
(0.00316543 -0.000467362 -0.000828618)
(0.0308045 -0.000532661 0.0002207)
(0.00337252 -0.000911108 -0.00143009)
(0.0305378 -0.000676633 0.00120217)
(0.00415314 -0.00169422 -0.00268055)
(0.0280141 0.00107966 0.00379241)
(0.00783386 -0.00418195 -0.00905481)
(1.14921e-08 -9.38271e-10 -6.82106e-10)
(0.0272657 -0.000249977 0.00047365)
(1.1508e-08 -7.85959e-10 -9.9152e-10)
(0.0270226 6.10855e-05 0.000691685)
(1.07125e-08 -1.22977e-09 -2.29881e-09)
(0.0265699 0.00086705 0.00186352)
(1.00397e-08 -7.11966e-10 -2.93656e-09)
(0.0229024 0.0011665 0.00264521)
(0.00374798 -0.00013732 -0.000514357)
(0.000966139 9.16619e-05 -5.20964e-05)
(0.0297911 -0.000229184 -6.31235e-05)
(1.21643e-08 1.67927e-09 -1.07008e-09)
(0.0302214 -0.000312148 0.000353219)
(0.00123896 0.000366738 -0.000239018)
(0.0311242 -0.00024749 0.00119913)
(0.00493367 0.00262433 -0.00169584)
(0.0299699 -0.00213508 0.00324298)
(0.0100122 0.0112445 -0.00704714)
(0.0139398 -9.31904e-05 -0.000664952)
(0.0334147 -0.000282068 -0.000264651)
(0.0127414 -0.000372865 -0.000732895)
(0.0339896 -0.0010401 0.000157069)
(0.010855 -0.000237313 -0.00116425)
(0.0353634 -0.00131 0.000797681)
(0.00875145 0.000398806 -0.00197974)
(0.0403136 -0.00118794 0.00268602)
(0.00606743 0.00363718 -0.0051917)
)
;

boundaryField
{
    inlet
    {
        type            fixedValue;
        value           nonuniform 0();
    }
    outlet
    {
        type            zeroGradient;
    }
    wall
    {
        type            fixedValue;
        value           uniform (0 0 0);
    }
    procBoundary3to1
    {
        type            processor;
        value           nonuniform List<vector> 
27
(
(0.0202913 0.000186449 -0.000688225)
(0.0373866 0.000293955 -0.00075125)
(0.0200354 0.000509557 -0.000953585)
(0.0389459 0.000591513 -4.69856e-05)
(0.0189363 0.000248152 -0.00197713)
(0.0416117 0.000657404 0.00120579)
(0.0170667 -0.000964694 -0.00443527)
(0.0488119 0.00121848 0.00453398)
(0.0104506 -0.00415428 -0.0116642)
(0.0025491 0.000128249 -0.000164389)
(0.029871 0.000321446 0.000216522)
(0.000335379 3.16902e-05 -3.4211e-05)
(0.0298419 0.000407747 0.000749582)
(1.15112e-08 1.46842e-10 -2.26819e-09)
(0.0286482 0.000122995 0.00179838)
(0.00210597 0.000171393 -0.000837058)
(0.0261197 -0.000324478 0.00421575)
(0.00929341 0.000389778 -0.0110112)
(0.00199327 -0.000110674 -0.00043547)
(0.0292469 -6.65497e-06 0.000176114)
(0.00144474 -0.000115601 -0.000479555)
(0.0297231 0.000505797 0.000103284)
(0.00191981 -0.000313874 -0.00089617)
(0.0298298 0.000970664 0.000602881)
(0.00405309 -0.00150631 -0.00240891)
(0.0282266 0.00286026 0.00251351)
(0.00885927 -0.00698616 -0.00547087)
)
;
    }
    procBoundary3to2
    {
        type            processor;
        value           nonuniform List<vector> 
12
(
(0.0377644 -0.000233362 -0.000746416)
(0.0345716 -0.000225146 -0.000747621)
(0.037354 0.000746545 -0.000353932)
(0.0405721 -0.000134755 -0.000312239)
(0.0310674 6.03774e-05 -0.000703114)
(0.0294312 0.000153088 -0.000243116)
(0.0321659 0.00105158 -0.00129459)
(0.0361862 -2.58862e-05 -0.00136484)
(0.0296518 -5.47713e-05 -0.000649532)
(0.0274079 -0.000508386 5.19891e-05)
(0.0291164 -7.3523e-05 -0.000129692)
(0.0328546 0.000210779 -0.000482811)
)
;
    }
    procBoundary3to7
    {
        type            processor;
        value           nonuniform List<vector> 
36
(
(0.00162819 0.000188842 -0.0002864)
(0.0290493 0.000394392 -0.000127295)
(0.00124594 0.000277669 -0.000363553)
(0.029048 0.000549848 -4.97876e-05)
(0.000369459 0.000116047 -0.000154614)
(0.0286529 0.000758183 0.000758477)
(0.000136039 5.947e-05 -7.63616e-05)
(0.0245663 -0.0012844 0.00323386)
(0.00336175 0.00140064 -0.00182939)
(6.45878e-05 8.54777e-06 -7.80861e-06)
(0.0286341 0.000174901 -0.000103597)
(1.22149e-08 2.39015e-09 -9.34027e-10)
(0.027967 1.5972e-05 0.000273909)
(0.000688584 0.000220387 -7.24926e-05)
(0.0269441 -0.000699943 0.000968553)
(0.00413014 0.00223884 -0.000256738)
(0.0241381 -0.00301105 0.00149678)
(0.00952999 0.0103352 0.000923443)
(0.00910268 0.000883603 -0.000729624)
(0.0324745 0.000489682 -0.000264399)
(0.00904594 0.00124068 -0.00119274)
(0.0340505 -7.47822e-05 -0.000588992)
(0.00888814 0.00216976 -0.0020208)
(0.036253 -0.00189907 -0.000504334)
(0.00812943 0.00395319 -0.00336028)
(0.0387538 -0.00553627 0.0015226)
(0.00568849 0.00912727 -0.00509698)
(0.0163792 -0.000511881 -0.00125596)
(0.0354071 -0.000358227 -0.00114441)
(0.0160875 -0.000721043 -0.00176834)
(0.03665 -0.000580368 -0.000969505)
(0.0148261 -0.000882494 -0.00277414)
(0.0381399 -0.000593353 0.000118226)
(0.0115423 -0.000892651 -0.00462575)
(0.0401529 -4.21992e-06 0.0023569)
(0.00592659 -0.000415995 -0.00864962)
)
;
    }
}


// ************************************************************************* //
