/*--------------------------------*- C++ -*----------------------------------*\
| =========                 |                                                 |
| \\      /  F ield         | OpenFOAM: The Open Source CFD Toolbox           |
|  \\    /   O peration     | Version:  4.x                                   |
|   \\  /    A nd           | Web:      www.OpenFOAM.org                      |
|    \\/     M anipulation  |                                                 |
\*---------------------------------------------------------------------------*/
FoamFile
{
    version     2.0;
    format      ascii;
    class       volVectorField;
    location    "51";
    object      Us;
}
// * * * * * * * * * * * * * * * * * * * * * * * * * * * * * * * * * * * * * //

dimensions      [0 1 -1 0 0 0 0];

internalField   nonuniform List<vector> 
108
(
(2.03196e-09 -3.249e-09 1.43545e-09)
(2.61356e-09 -4.95077e-09 1.89446e-09)
(2.98813e-09 -6.14988e-09 5.46081e-10)
(1.6754e-09 -1.9586e-09 1.62499e-10)
(1.02774e-09 -9.41068e-10 -3.91145e-10)
(1.61761e-09 -3.14894e-10 -5.56389e-10)
(1.14754e-09 -2.60725e-10 -8.64037e-11)
(-3.66339e-09 -1.55647e-10 5.26998e-10)
(-5.86288e-09 -4.91683e-10 8.27505e-10)
(1.46598e-09 -1.34992e-09 6.17867e-10)
(1.35558e-09 -1.42641e-09 4.40144e-10)
(1.45824e-09 -1.41443e-09 2.72952e-11)
(1.48235e-09 -7.62381e-10 -3.04613e-10)
(1.22852e-09 -5.03243e-10 -4.35295e-10)
(9.71031e-10 -2.08061e-10 -6.12723e-10)
(2.58326e-10 -2.00295e-10 -5.08352e-10)
(-2.29871e-09 -1.62739e-11 -8.07596e-10)
(-1.04015e-08 1.65838e-10 -1.10163e-10)
(1.41734e-09 -6.30375e-11 1.88186e-10)
(1.65018e-09 -9.64267e-10 2.0959e-10)
(1.0325e-09 -2.61116e-10 -8.16537e-11)
(1.24873e-09 -2.39614e-10 -3.88899e-10)
(1.16213e-09 -2.99809e-10 -3.77869e-10)
(3.77158e-10 -1.28455e-10 -5.94895e-10)
(-3.21807e-10 1.6778e-10 -4.74466e-10)
(-3.61304e-09 -1.09889e-09 -1.92251e-09)
(-2.588e-09 8.72259e-09 -3.49639e-09)
(7.25355e-10 -2.8792e-10 1.70435e-10)
(1.16708e-09 -6.95079e-10 -9.6781e-11)
(1.06168e-09 -1.26441e-09 -6.86089e-11)
(7.69614e-10 -4.83151e-11 -1.17966e-10)
(1.05496e-09 3.79156e-12 -1.66198e-10)
(5.56913e-10 1.4732e-10 -6.08467e-10)
(3.66106e-09 1.22272e-09 -4.78908e-10)
(3.4802e-09 1.25313e-09 -2.18343e-09)
(-2.37975e-09 3.66962e-07 -1.48293e-08)
(1.97888e-09 -1.96777e-09 1.21334e-09)
(2.06827e-09 -8.97544e-10 1.29412e-09)
(1.79639e-09 -1.26751e-09 9.90682e-10)
(1.73177e-09 -7.10415e-10 3.20039e-10)
(1.77466e-09 -6.29655e-10 -3.82189e-10)
(1.6906e-09 -3.75469e-10 -8.14515e-10)
(1.45805e-09 -9.56725e-11 -1.08777e-09)
(6.96679e-10 3.2604e-10 2.973e-10)
(-9.92859e-11 -5.10031e-10 4.72329e-10)
(1.53768e-09 -8.70495e-10 5.21315e-10)
(1.68349e-09 -9.32776e-10 3.05598e-10)
(1.70941e-09 -9.17694e-10 -4.3387e-11)
(1.7017e-09 -6.65089e-10 -4.1191e-10)
(1.65791e-09 -3.83962e-10 -4.44746e-10)
(1.33303e-09 -4.41512e-10 -7.44818e-10)
(1.63163e-09 4.01786e-10 -8.65148e-10)
(1.18869e-10 1.31601e-10 -1.0351e-09)
(1.87917e-10 3.34725e-10 -8.52254e-10)
(1.30607e-09 -4.02481e-10 3.00851e-10)
(1.43379e-09 -4.99715e-10 1.12758e-10)
(1.42916e-09 -4.64128e-10 -1.81834e-10)
(1.2582e-09 -3.82278e-10 -3.81704e-10)
(1.18579e-09 -2.71559e-10 -3.29037e-10)
(8.17627e-10 -3.1355e-10 -3.85957e-10)
(-3.51143e-10 -3.05178e-10 -7.2162e-10)
(-1.0605e-09 2.26652e-11 -2.02767e-09)
(-9.86278e-10 9.27746e-11 -2.11983e-09)
(8.58824e-10 -8.45382e-11 2.2964e-10)
(1.14239e-09 -3.33317e-10 -1.39756e-11)
(7.56964e-10 -2.07949e-10 -9.37061e-11)
(8.19424e-10 -1.5877e-10 -1.45651e-10)
(8.44539e-10 -4.90004e-11 -1.78617e-10)
(1.05277e-09 -1.86607e-10 -2.51157e-10)
(8.19649e-10 2.83799e-10 -6.77348e-10)
(2.10704e-10 2.82851e-10 -2.40506e-09)
(-5.25121e-10 1.0755e-10 -8.80269e-09)
(1.7519e-09 -1.21655e-10 1.11009e-09)
(1.93651e-09 1.21512e-10 1.49641e-09)
(1.83367e-09 1.08519e-09 2.06963e-09)
(2.05036e-09 -2.48664e-10 6.1617e-10)
(1.95639e-09 -3.92006e-10 -1.55793e-10)
(1.77461e-09 -1.54581e-11 -9.00445e-10)
(1.45644e-09 -3.82644e-11 -1.1214e-09)
(1.04084e-09 5.03055e-11 -6.60545e-10)
(7.7881e-10 -8.16796e-11 -2.23151e-10)
(1.51277e-09 -2.94462e-10 5.32494e-10)
(1.83829e-09 -3.59099e-10 3.28007e-10)
(2.11486e-09 -2.51981e-11 4.11261e-10)
(1.91164e-09 -1.21214e-10 -1.63887e-10)
(1.74538e-09 -2.04046e-10 -4.10617e-10)
(1.49353e-09 -5.33729e-11 -6.34978e-10)
(1.04704e-09 -4.16945e-11 -7.9643e-10)
(6.20267e-10 1.07678e-10 -8.74145e-10)
(2.86361e-10 -1.80685e-11 -2.79034e-10)
(1.33827e-09 -2.36636e-10 2.13754e-10)
(1.47559e-09 -3.18221e-10 7.09932e-11)
(1.50257e-09 -1.60951e-11 1.00509e-11)
(1.30757e-09 -5.4707e-11 -1.64733e-10)
(1.17858e-09 -5.78662e-11 -1.95302e-10)
(7.45038e-10 1.27337e-11 -2.53487e-10)
(1.89717e-10 -9.53022e-11 -5.47944e-10)
(1.18571e-10 6.48496e-11 -1.64408e-09)
(2.02571e-11 -2.75873e-10 -1.69191e-09)
(7.74278e-10 -2.27794e-10 1.20192e-10)
(8.53663e-10 -2.08743e-10 8.33965e-12)
(8.74432e-10 -4.17379e-11 -2.92326e-12)
(6.17631e-10 1.57653e-10 -3.85209e-11)
(5.51106e-10 -3.38594e-11 -1.44756e-10)
(2.61423e-10 4.12844e-11 -1.0282e-10)
(-2.35847e-10 3.64196e-11 -3.85909e-10)
(-4.86414e-10 -1.77479e-10 -1.55518e-09)
(-3.02767e-10 -9.45757e-10 -3.0261e-09)
)
;

boundaryField
{
    inlet
    {
        type            zeroGradient;
    }
    outlet
    {
        type            zeroGradient;
    }
    wall
    {
        type            zeroGradient;
    }
    procBoundary3to1
    {
        type            processor;
        value           nonuniform List<vector> 
27
(
(3.418e-09 -6.11131e-09 4.53971e-09)
(1.52997e-09 -9.24564e-09 7.39197e-09)
(1.51468e-09 -5.2767e-09 4.25134e-09)
(3.56967e-11 -1.33751e-09 1.2128e-09)
(3.53325e-10 -1.12946e-09 5.42579e-11)
(1.12853e-09 -2.24639e-10 -3.76084e-10)
(1.84923e-09 -2.68792e-10 -8.64561e-10)
(1.58786e-09 -2.23113e-09 -2.77284e-09)
(3.06923e-09 -5.33784e-11 -7.8378e-10)
(1.19679e-09 -1.1335e-09 3.79003e-09)
(1.88772e-09 -1.45217e-09 6.64311e-09)
(1.93427e-09 -1.04123e-09 3.56263e-09)
(5.10043e-10 -1.52199e-09 1.52657e-09)
(8.44154e-10 -1.16263e-09 -1.74679e-10)
(1.17344e-09 -5.33573e-10 -6.59832e-10)
(2.01922e-09 -2.24846e-10 -1.547e-09)
(2.48465e-09 -5.10633e-10 -9.03578e-10)
(9.71702e-10 -1.51298e-09 -2.16625e-09)
(9.57298e-10 8.27605e-10 3.10086e-09)
(1.85385e-09 1.31938e-09 4.2793e-09)
(2.33016e-09 1.52761e-09 4.91408e-09)
(1.96227e-09 2.58917e-10 1.77917e-09)
(1.53173e-09 -1.37667e-10 1.67718e-10)
(1.42647e-09 -1.11988e-11 -5.24427e-10)
(1.30258e-09 -2.15256e-11 -9.83008e-10)
(1.09934e-09 4.53962e-11 -8.62663e-10)
(7.13656e-10 -6.96975e-10 -3.3066e-10)
)
;
    }
    procBoundary3to2
    {
        type            processor;
        value           nonuniform List<vector> 
12
(
(2.02832e-09 -1.89017e-09 1.22355e-09)
(1.45059e-09 -1.2666e-09 7.3503e-10)
(1.28677e-09 -8.61606e-10 5.61112e-10)
(8.43796e-10 -4.99239e-10 3.12265e-10)
(1.47498e-09 -8.59666e-10 1.17185e-09)
(1.41499e-09 -7.63056e-10 5.83225e-10)
(1.10173e-09 -5.25527e-10 3.70127e-10)
(5.30031e-10 -1.37263e-10 1.2453e-10)
(1.04091e-09 1.25968e-10 1.27811e-09)
(1.06749e-09 -1.19342e-10 4.06726e-10)
(9.60882e-10 -1.42499e-10 1.97936e-10)
(5.95128e-10 -7.08332e-11 1.22859e-10)
)
;
    }
    procBoundary3to7
    {
        type            processor;
        value           nonuniform List<vector> 
36
(
(1.72482e-09 4.29235e-10 1.1952e-09)
(1.93914e-09 4.57922e-10 1.17493e-09)
(2.24785e-09 8.21794e-10 1.54745e-09)
(2.25343e-09 5.00093e-10 4.21892e-10)
(1.98015e-09 3.45873e-10 3.72022e-11)
(1.51998e-09 3.04776e-10 -6.47678e-10)
(9.35467e-10 3.36334e-10 -7.22771e-10)
(7.20311e-10 3.24761e-10 -7.72258e-10)
(3.16852e-10 6.58052e-11 -1.08995e-10)
(1.62067e-09 3.03287e-11 4.12249e-10)
(1.94948e-09 2.24433e-10 4.58339e-10)
(2.09579e-09 3.26556e-10 4.37904e-10)
(2.26984e-09 4.4432e-10 1.2659e-10)
(1.76672e-09 2.63209e-10 -5.3112e-11)
(1.38663e-09 2.81682e-10 -3.29308e-10)
(1.13018e-09 2.13057e-10 -4.24849e-10)
(6.93007e-10 2.88769e-10 -5.51329e-10)
(2.51786e-10 2.27181e-10 -1.25277e-10)
(1.26757e-09 1.60661e-10 1.5221e-10)
(1.59025e-09 -1.45368e-11 5.95928e-12)
(1.56876e-09 2.59972e-10 2.41504e-10)
(1.46486e-09 3.78751e-10 1.27585e-10)
(1.26643e-09 2.17777e-10 -4.90559e-11)
(9.03346e-10 1.89942e-10 -3.30852e-11)
(5.99472e-10 1.96238e-10 -3.59671e-10)
(5.83781e-10 3.01004e-10 -8.5399e-10)
(-7.19541e-11 2.4898e-10 -3.72112e-10)
(6.27334e-10 -8.69061e-11 4.80207e-11)
(8.6223e-10 -1.16049e-10 6.09653e-11)
(7.80314e-10 1.41334e-10 1.13242e-10)
(7.59205e-10 1.95173e-10 1.37895e-10)
(6.30122e-10 1.29283e-10 1.02464e-10)
(4.19397e-10 1.23494e-10 1.51788e-10)
(2.40926e-10 7.27842e-11 -2.28533e-10)
(2.42675e-10 1.40394e-10 -7.31094e-10)
(-5.06419e-11 7.89335e-11 -4.22173e-11)
)
;
    }
}


// ************************************************************************* //
