/*--------------------------------*- C++ -*----------------------------------*\
  =========                 |
  \\      /  F ield         | OpenFOAM: The Open Source CFD Toolbox
   \\    /   O peration     | Website:  https://openfoam.org
    \\  /    A nd           | Version:  4.x
     \\/     M anipulation  |
\*---------------------------------------------------------------------------*/
FoamFile
{
    version     2.0;
    format      ascii;
    class       vectorField;
    location    0;
    object      v;
}
// * * * * * * * * * * * * * * * * * * * * * * * * * * * * * * * * * * * * * //

348
(
( -6.52646e-07 9.47319e-07 -6.11657e-07 )  
( -1.31981e-06 6.70179e-07 -4.54194e-07 )  
( -8.31503e-07 9.27169e-07 1.04043e-07 )  
( 1.66715e-07 4.84085e-08 1.61106e-06 )  
( -4.93208e-07 3.90917e-07 6.80167e-07 )  
( -3.07139e-07 6.73472e-08 2.10846e-07 )  
( -1.37026e-07 2.51476e-07 -3.12612e-08 )  
( -1.05045e-07 4.33704e-08 7.55886e-08 )  
( -4.23345e-07 6.48195e-07 4.7734e-07 )  
( 5.49924e-09 3.00388e-07 4.52629e-08 )  
( 1.35278e-06 6.87576e-07 2.66887e-07 )  
( 4.21456e-07 1.271e-07 9.82532e-08 )  
( -8.94984e-07 9.56512e-08 3.84977e-07 )  
( 5.99339e-07 5.28061e-07 7.08286e-07 )  
( 4.53311e-07 3.59735e-07 1.11756e-07 )  
( -7.18584e-07 8.68325e-07 5.2676e-07 )  
( -6.61994e-07 1.06565e-07 6.07781e-07 )  
( 9.73712e-10 3.75118e-07 1.03171e-06 )  
( -5.60465e-07 7.48024e-07 5.35204e-07 )  
( -6.40923e-07 -6.48912e-08 1.66684e-06 )  
( -5.94878e-07 4.39211e-07 5.97181e-07 )  
( -7.16223e-07 1.04478e-06 3.15983e-07 )  
( -9.94e-07 4.71364e-07 1.36384e-06 )  
( -1.2263e-06 3.41274e-07 9.94649e-07 )  
( -4.63876e-07 4.33313e-07 6.94695e-08 )  
( -3.80681e-07 1.91116e-07 1.66418e-06 )  
( 8.47585e-08 2.50165e-07 4.60781e-08 )  
( -1.40538e-07 7.76631e-08 1.46758e-07 )  
( -1.08128e-06 2.20345e-06 -1.69555e-07 )  
( -3.82273e-07 2.39081e-07 8.53402e-07 )  
( 2.15438e-07 5.61757e-07 5.66475e-07 )  
( -1.38586e-07 8.71019e-08 1.80983e-07 )  
( -1.26034e-06 3.45747e-07 4.96079e-07 )  
( -8.28664e-08 8.40864e-08 2.05836e-07 )  
( -8.74231e-07 3.08762e-07 6.07229e-07 )  
( 9.462e-07 6.68474e-07 6.4247e-07 )  
( -1.04792e-06 4.18498e-07 6.06947e-07 )  
( -1.25229e-07 6.16627e-08 4.48201e-07 )  
( -9.83066e-07 4.58117e-07 5.69284e-07 )  
( 3.55041e-07 4.56531e-07 9.48359e-07 )  
( -1.14472e-07 3.57258e-07 2.93139e-08 )  
( -5.74896e-08 1.08551e-07 3.00168e-07 )  
( 5.76573e-07 7.21985e-07 8.79916e-07 )  
( -9.49932e-07 2.92233e-07 1.18347e-06 )  
( -7.3818e-07 4.75e-07 9.81101e-07 )  
( -1.29602e-06 3.06892e-07 -8.15546e-08 )  
( -1.03826e-06 3.91414e-07 7.89293e-07 )  
( 2.10526e-07 6.8994e-07 7.68866e-07 )  
( 9.66776e-08 5.37522e-07 5.86398e-07 )  
( -7.45233e-06 -5.93368e-06 1.29164e-06 )  
( -1.09111e-06 5.20957e-07 1.12341e-06 )  
( 4.06864e-07 6.54783e-07 5.81424e-07 )  
( -5.28113e-07 3.55972e-08 1.5296e-07 )  
( 1.45031e-06 6.39344e-07 1.12926e-07 )  
( 1.25229e-07 9.96151e-07 1.35774e-06 )  
( -5.37868e-07 4.05992e-07 2.78002e-08 )  
( -1.4379e-07 6.53776e-08 4.71142e-08 )  
( -2.75188e-07 1.17926e-07 3.8815e-07 )  
( -7.36873e-07 2.0359e-07 1.38362e-06 )  
( 5.37493e-07 9.33207e-08 7.08929e-08 )  
( 9.10105e-09 1.28303e-07 -2.75533e-08 )  
( -1.72389e-07 3.23922e-07 -1.02439e-07 )  
( -1.48753e-07 1.28766e-07 7.30155e-08 )  
( 1.04127e-07 2.16412e-07 1.07092e-07 )  
( -3.26092e-07 -1.91518e-08 2.90106e-07 )  
( 1.09873e-06 4.75896e-07 1.76417e-07 )  
( 9.35488e-07 6.32456e-07 7.09948e-07 )  
( 2.89875e-07 5.37105e-07 4.99654e-07 )  
( -2.21433e-07 3.41191e-07 1.36874e-06 )  
( -7.9273e-07 3.4176e-07 9.7269e-07 )  
( 3.70356e-07 8.07067e-07 1.2135e-06 )  
( -8.06474e-07 1.33541e-06 -2.33788e-07 )  
( 3.80416e-07 3.38528e-07 1.63227e-07 )  
( -1.3259e-08 8.45145e-07 1.09741e-06 )  
( -2.34936e-07 1.27954e-06 -2.15093e-07 )  
( -3.80993e-07 9.20433e-07 8.85753e-07 )  
( 1.18485e-06 6.70844e-07 2.75082e-07 )  
( 4.39495e-08 4.14075e-07 3.80501e-07 )  
( -9.3232e-07 7.5821e-07 1.01433e-06 )  
( -7.05699e-07 5.0462e-07 9.17829e-07 )  
( -3.41939e-07 4.79163e-08 -1.33222e-08 )  
( 7.81708e-08 6.51922e-07 5.94424e-07 )  
( -3.74357e-07 2.4409e-07 6.97627e-07 )  
( -9.44627e-07 4.60845e-07 1.0855e-06 )  
( -2.68008e-08 3.6682e-08 -2.84566e-07 )  
( 3.75376e-07 4.86391e-07 4.75214e-08 )  
( -2.019e-07 2.85789e-07 4.80478e-08 )  
( -4.57716e-07 5.19299e-07 8.10935e-07 )  
( -7.73837e-07 3.41861e-07 7.7243e-07 )  
( -4.16928e-07 5.58274e-08 1.095e-07 )  
( -7.80241e-07 3.76977e-07 -1.40761e-07 )  
( -6.66796e-07 8.10287e-10 6.03691e-07 )  
( 3.82676e-07 3.5957e-07 8.55314e-08 )  
( -1.12301e-06 2.15425e-07 3.81524e-07 )  
( -6.30328e-07 3.424e-07 1.46138e-06 )  
( -2.67772e-07 1.28784e-07 4.4881e-08 )  
( -1.03185e-07 5.05524e-08 -2.70858e-07 )  
( -7.03096e-07 3.49343e-07 8.37533e-07 )  
( -1.17356e-07 3.84784e-08 3.22773e-07 )  
( 1.96822e-07 6.47158e-07 9.90243e-07 )  
( 1.36755e-07 3.88984e-08 6.29938e-07 )  
( 3.26811e-08 2.79498e-07 -5.32879e-09 )  
( 8.87263e-08 6.9461e-07 7.55955e-07 )  
( -9.78476e-08 2.67735e-07 2.44587e-07 )  
( 1.32677e-07 3.12105e-07 1.08312e-07 )  
( -4.23967e-07 7.0366e-07 8.60092e-07 )  
( -1.37141e-07 1.9152e-07 7.82375e-08 )  
( -1.30538e-07 3.98787e-07 1.1921e-06 )  
( -5.76228e-07 8.55507e-08 1.85639e-07 )  
( -1.70385e-05 1.61191e-07 4.81607e-07 )  
( 2.07477e-07 3.85994e-07 7.50596e-07 )  
( -5.09112e-07 2.16844e-07 1.56875e-07 )  
( -1.05311e-06 1.66478e-07 5.42189e-07 )  
( -3.52512e-08 1.28896e-07 1.71344e-07 )  
( -3.81609e-07 1.53259e-07 3.65701e-07 )  
( -3.9636e-07 -1.63612e-08 7.62601e-07 )  
( 2.63399e-07 7.08689e-07 2.93041e-07 )  
( -1.27764e-07 5.50416e-08 6.5209e-08 )  
( 1.38093e-07 3.7772e-07 6.80347e-08 )  
( -1.08211e-06 9.20975e-07 2.323e-07 )  
( -1.06856e-07 2.04774e-07 6.36142e-09 )  
( 9.09165e-07 6.0923e-07 3.84228e-07 )  
( -2.27034e-07 7.77698e-08 6.30479e-08 )  
( -1.5637e-07 4.12231e-07 3.64236e-07 )  
( -4.36337e-07 2.62929e-07 3.37267e-07 )  
( -1.9078e-06 7.88806e-07 -2.84533e-07 )  
( -4.17151e-07 -3.29547e-07 2.68617e-07 )  
( 6.78995e-07 4.96644e-07 6.52042e-07 )  
( -3.02326e-07 1.04015e-07 2.07905e-07 )  
( 6.16967e-07 4.61975e-07 2.86198e-07 )  
( -4.75494e-07 8.91692e-08 4.89947e-07 )  
( -7.04272e-07 5.01616e-08 -7.33262e-09 )  
( 1.803e-07 2.53786e-06 3.43728e-07 )  
( -1.44961e-06 9.18236e-07 2.33475e-07 )  
( -7.91596e-07 4.82143e-07 4.87914e-07 )  
( -1.01746e-06 2.72745e-07 6.76936e-07 )  
( 3.61378e-07 2.46433e-07 8.85883e-08 )  
( -6.70391e-07 2.90262e-07 1.87142e-08 )  
( 5.56227e-08 4.23867e-07 2.53106e-07 )  
( -9.80688e-08 1.19322e-07 1.39477e-07 )  
( -2.07662e-07 1.02454e-06 -2.66859e-07 )  
( -1.49305e-07 2.30589e-08 8.30592e-08 )  
( 8.03259e-07 4.41055e-07 1.43221e-07 )  
( -1.44817e-07 3.80527e-08 2.59608e-08 )  
( -1.77917e-07 -1.19291e-07 7.69123e-07 )  
( -5.80955e-07 -6.02491e-08 1.78197e-07 )  
( 2.00072e-07 6.95103e-07 2.97134e-07 )  
( -5.39663e-07 1.34847e-07 -3.72457e-08 )  
( -2.10308e-07 1.70304e-07 2.35774e-07 )  
( -3.57464e-08 4.65245e-07 -6.4354e-08 )  
( -8.22177e-08 2.67187e-07 4.75911e-08 )  
( -5.78948e-07 -2.91043e-09 -1.05625e-08 )  
( -1.47422e-07 2.59899e-07 -7.18805e-08 )  
( -7.45414e-07 1.23779e-07 1.23e-07 )  
( 1.11048e-07 3.61839e-08 6.32213e-07 )  
( 1.02628e-07 2.61309e-07 7.41865e-08 )  
( -2.79337e-07 8.02465e-08 -4.84657e-08 )  
( -2.01856e-07 4.86228e-08 2.12618e-08 )  
( -5.5985e-07 1.55252e-07 6.27498e-07 )  
( 7.3945e-08 1.62449e-07 6.29979e-08 )  
( -2.09379e-06 5.579e-07 2.11635e-07 )  
( 4.0917e-07 3.37841e-07 3.92725e-07 )  
( 1.01336e-06 5.89821e-07 2.54258e-07 )  
( -8.87768e-07 8.08541e-07 2.16737e-07 )  
( -2.09291e-06 6.30116e-07 -1.78119e-07 )  
( -4.55935e-07 1.94703e-07 1.37623e-07 )  
( 7.41409e-07 4.15171e-07 2.48381e-07 )  
( -9.99773e-07 6.18489e-07 3.79141e-07 )  
( -2.25806e-07 1.09158e-08 6.97092e-08 )  
( 3.04013e-07 5.46131e-07 1.7147e-07 )  
( -9.56974e-07 6.39264e-07 -8.28118e-07 )  
( -4.62684e-07 7.35998e-07 -3.52054e-07 )  
( -1.96552e-06 9.76644e-07 -5.66784e-07 )  
( 8.54284e-07 4.03157e-07 4.42074e-07 )  
( 1.52865e-07 3.674e-07 2.04057e-08 )  
( -2.08266e-07 1.25879e-07 8.6255e-08 )  
( -1.68168e-06 6.1654e-07 1.76545e-08 )  
( -5.02341e-07 4.50981e-07 1.2257e-08 )  
( 4.51022e-08 1.69328e-07 2.76339e-07 )  
( -6.73145e-07 4.16199e-07 4.60401e-07 )  
( -3.00318e-08 6.9549e-07 2.47922e-07 )  
( -2.36338e-07 3.22508e-07 -1.01238e-08 )  
( -5.09275e-07 3.41087e-07 2.3491e-08 )  
( -6.41652e-08 4.44621e-07 2.64068e-07 )  
( -6.47839e-07 3.27888e-07 5.61201e-07 )  
( -3.13073e-06 -3.11076e-06 4.20162e-06 )  
( -1.08525e-08 3.64753e-07 2.15415e-07 )  
( -1.48128e-06 7.15227e-07 2.22911e-07 )  
( -8.02568e-07 5.75917e-07 7.60862e-07 )  
( -5.06891e-07 6.73478e-08 8.94937e-08 )  
( 6.83149e-07 3.8891e-07 1.92747e-07 )  
( 1.42132e-07 2.60086e-07 3.5171e-07 )  
( -1.01448e-07 3.94383e-07 4.05827e-07 )  
( 5.05282e-07 3.26656e-07 4.15279e-07 )  
( -1.13297e-07 2.47801e-07 1.83856e-07 )  
( -4.99572e-07 2.6721e-07 6.54338e-08 )  
( -6.8348e-07 2.02379e-07 2.62078e-07 )  
( 4.32226e-07 1.7856e-07 1.39538e-07 )  
( -5.54978e-07 3.62167e-08 1.27879e-07 )  
( -1.83614e-07 2.44945e-07 2.6064e-08 )  
( -5.3996e-07 6.81455e-08 -2.10941e-08 )  
( 2.73918e-07 1.31737e-07 8.36772e-08 )  
( -1.50014e-07 1.67989e-07 9.23729e-07 )  
( 4.5158e-08 2.45292e-07 2.09617e-08 )  
( -2.54783e-07 7.21691e-07 7.05745e-07 )  
( -1.57682e-07 4.02495e-07 6.56624e-07 )  
( -5.96548e-07 -2.81558e-08 1.88967e-07 )  
( -6.85338e-07 1.58027e-07 6.02412e-08 )  
( -7.87975e-07 8.80453e-07 -2.61319e-07 )  
( -2.68813e-07 8.72087e-08 1.24812e-07 )  
( -2.58545e-07 3.86574e-07 4.82644e-07 )  
( -2.26112e-07 8.41774e-07 5.47975e-07 )  
( -1.73469e-07 1.40104e-07 3.66844e-07 )  
( 5.48606e-07 5.0352e-07 4.45764e-07 )  
( -4.78201e-07 7.78046e-08 1.456e-07 )  
( -2.22439e-07 1.28184e-07 4.52272e-08 )  
( -4.90202e-07 3.68236e-07 -1.16762e-07 )  
( -5.35346e-07 -6.62759e-08 2.03908e-07 )  
( -1.06201e-06 6.87795e-07 6.7309e-07 )  
( 6.49265e-07 3.50823e-07 4.019e-07 )  
( -6.45585e-07 1.61254e-07 6.16351e-08 )  
( -5.0572e-07 2.57691e-07 2.69081e-07 )  
( -1.47547e-07 9.32285e-08 4.80986e-08 )  
( 5.9219e-09 1.46832e-07 4.46132e-08 )  
( -1.89965e-05 -6.53962e-06 2.21354e-07 )  
( -5.79447e-08 1.89633e-07 3.96842e-07 )  
( -1.96769e-07 7.04698e-09 8.71115e-08 )  
( 8.91171e-07 3.02163e-07 4.60637e-07 )  
( -1.1269e-06 6.10652e-07 5.87324e-07 )  
( -1.69693e-06 3.69712e-07 6.23357e-07 )  
( -1.47905e-07 6.79994e-08 -9.17841e-08 )  
( 2.3511e-07 4.40468e-07 3.89518e-07 )  
( -2.54509e-07 5.78009e-07 3.51152e-09 )  
( -6.24489e-07 -2.04877e-07 7.66241e-08 )  
( -6.70272e-07 2.81083e-07 -6.35614e-09 )  
( 6.41211e-07 3.17715e-07 4.27583e-07 )  
( 9.12597e-07 5.89e-07 6.47213e-07 )  
( 9.92212e-08 3.40414e-07 4.52214e-08 )  
( 1.16684e-06 6.04642e-07 1.96631e-07 )  
( -4.64427e-07 5.59897e-07 4.47655e-07 )  
( -1.46206e-06 6.93699e-07 2.20706e-07 )  
( -6.80777e-07 8.02685e-08 3.50385e-07 )  
( -1.12511e-06 8.85361e-07 -2.95437e-07 )  
( -2.93425e-06 8.43841e-07 -2.99319e-07 )  
( -9.84928e-07 4.84554e-09 -1.22379e-08 )  
( -5.64057e-08 2.00819e-07 8.94764e-08 )  
( -4.9251e-07 2.18789e-07 7.85388e-08 )  
( -1.81961e-07 1.70279e-07 2.68353e-10 )  
( -7.44672e-08 8.5455e-08 1.90905e-08 )  
( -9.48794e-07 3.61009e-07 2.91214e-08 )  
( -1.72505e-06 7.69703e-08 1.96547e-07 )  
( 1.94513e-07 2.50148e-07 6.79741e-08 )  
( -1.18207e-06 -1.33978e-07 3.86025e-07 )  
( 1.1106e-06 5.42276e-07 5.28742e-07 )  
( -1.52212e-07 1.44571e-08 2.37102e-09 )  
( -4.99221e-08 3.41479e-07 6.60897e-07 )  
( -1.50751e-07 2.30443e-07 1.38666e-07 )  
( -5.6229e-07 1.41203e-07 9.00545e-08 )  
( 4.27505e-07 3.22807e-07 2.61127e-07 )  
( -6.16627e-07 4.05326e-07 1.03035e-07 )  
( 1.48699e-07 1.95663e-07 1.3142e-07 )  
( -2.57036e-06 5.58751e-07 -1.44358e-07 )  
( -6.0918e-07 -4.33708e-08 3.69704e-07 )  
( -1.36852e-06 5.28035e-07 -3.65519e-07 )  
( -5.30101e-08 1.09455e-07 -2.86793e-08 )  
( 3.30885e-07 3.96481e-07 2.59527e-07 )  
( 4.25356e-07 1.20785e-07 4.12077e-07 )  
( -9.85743e-07 8.30943e-08 1.03484e-07 )  
( -2.54424e-07 4.10666e-08 7.16661e-09 )  
( -4.55908e-07 5.20699e-07 6.71513e-07 )  
( -1.44374e-06 7.99875e-07 -4.21136e-07 )  
( 4.16185e-07 3.2208e-07 1.59201e-07 )  
( -1.7696e-06 4.46461e-07 7.75124e-09 )  
( 9.74997e-08 2.16922e-08 4.52138e-08 )  
( -9.36475e-07 -5.76289e-08 2.91504e-07 )  
( -7.60799e-07 5.95473e-08 1.00681e-07 )  
( -3.55582e-07 2.98269e-07 1.03931e-06 )  
( 1.14038e-07 5.24495e-07 1.03111e-05 )  
( 4.87135e-07 1.71263e-07 1.80613e-07 )  
( -1.08994e-06 8.69893e-08 8.77675e-08 )  
( -2.61352e-06 1.25457e-06 -3.32924e-07 )  
( 5.71968e-07 4.19332e-07 2.9635e-07 )  
( -2.15577e-06 8.77291e-07 -1.35563e-07 )  
( 4.02274e-07 1.73366e-08 3.29568e-07 )  
( -6.99351e-07 6.30097e-07 -1.11115e-07 )  
( -1.65143e-06 -3.65797e-08 -1.08625e-07 )  
( -9.45952e-07 -3.54722e-07 2.50566e-08 )  
( -3.58129e-08 2.06466e-07 5.95775e-08 )  
( -2.1044e-07 2.92126e-08 1.27789e-07 )  
( -7.50795e-07 8.71359e-08 8.64522e-08 )  
( -8.26232e-07 1.55758e-07 -4.04498e-08 )  
( -5.84006e-07 4.91007e-07 -3.81527e-08 )  
( -5.52322e-06 -5.10129e-06 5.46241e-08 )  
( -1.50973e-07 4.7104e-07 1.23116e-07 )  
( -1.46545e-07 3.61712e-08 3.42987e-08 )  
( 5.44911e-07 1.73086e-07 3.87404e-07 )  
( -3.95813e-08 4.91801e-08 4.8722e-09 )  
( -1.22886e-06 5.72539e-08 1.78917e-08 )  
( 3.14437e-07 1.86382e-07 1.75783e-07 )  
( -1.87828e-07 -2.21246e-10 3.38538e-08 )  
( -8.04184e-07 7.53521e-08 2.81533e-08 )  
( -1.60735e-07 4.30558e-08 1.89444e-07 )  
( -1.01819e-07 1.54633e-07 2.61301e-07 )  
( -2.55054e-07 2.93161e-07 4.03867e-08 )  
( -2.74055e-06 -5.86852e-08 1.70477e-08 )  
( -1.44772e-06 -3.29368e-07 -1.84653e-07 )  
( -5.14189e-07 1.67436e-07 2.81095e-08 )  
( 4.19083e-07 2.09909e-07 1.06475e-07 )  
( -1.19838e-07 -2.98897e-09 -9.80845e-10 )  
( -1.39345e-06 -1.32176e-07 -6.52327e-08 )  
( -2.34865e-06 2.16803e-07 3.26879e-07 )  
( -4.04749e-08 3.89814e-08 -1.75415e-08 )  
( -2.99962e-07 -9.04151e-08 1.90236e-08 )  
( -9.39673e-07 -1.14261e-07 -1.49651e-07 )  
( -1.05765e-06 1.66713e-06 -2.20605e-07 )  
( -2.58852e-06 -4.21833e-07 1.43362e-07 )  
( -8.87238e-07 5.22647e-07 -1.87885e-07 )  
( -1.05532e-07 6.94617e-08 -2.67956e-08 )  
( -3.8431e-07 -6.81599e-08 1.12252e-07 )  
( 1.64991e-07 -1.27046e-07 2.51383e-07 )  
( 2.3589e-07 1.63726e-07 8.99318e-08 )  
( -1.17536e-06 -7.06996e-08 9.23612e-09 )  
( -1.71889e-06 6.60207e-07 2.34379e-07 )  
( -1.23532e-05 3.66476e-06 3.32395e-06 )  
( -4.75004e-07 2.46255e-07 -3.87674e-08 )  
( 4.1517e-07 1.8368e-07 1.81576e-07 )  
( -2.23532e-07 -1.63514e-08 5.84676e-08 )  
( -1.42935e-07 -1.43245e-07 7.1482e-08 )  
( -7.15568e-07 5.49202e-08 2.91975e-08 )  
( -1.14461e-06 9.68286e-08 1.82297e-07 )  
( -7.17429e-08 1.79329e-08 2.53616e-08 )  
( -2.15206e-08 2.15297e-08 -8.54084e-10 )  
( 7.31859e-08 1.66966e-07 2.06536e-08 )  
( -6.22e-07 6.52785e-07 -2.17304e-07 )  
( -3.79414e-06 1.16184e-06 -6.04063e-08 )  
( 4.06772e-07 1.88157e-07 1.27057e-07 )  
( -5.35335e-07 -6.97802e-08 -9.83911e-08 )  
( 2.13055e-08 1.68032e-10 1.43345e-08 )  
( 1.24092e-07 4.24668e-08 3.16986e-08 )  
( -4.89378e-07 3.18607e-07 1.78972e-07 )  
( -9.5945e-07 5.35255e-07 1.65234e-07 )  
( -7.68049e-08 9.45166e-08 9.41661e-08 )  
( -1.1581e-07 1.14167e-08 3.70133e-08 )  
( -1.37824e-06 4.59234e-07 5.15295e-08 )  
( -1.78131e-07 -1.78406e-08 7.86693e-09 )  
( -4.65004e-07 2.37214e-07 -5.064e-08 )  
( -3.78152e-07 4.41629e-07 -1.14813e-07 )  
( -6.21066e-07 -5.08197e-07 -3.35341e-07 )  
)
