/*--------------------------------*- C++ -*----------------------------------*\
  =========                 |
  \\      /  F ield         | OpenFOAM: The Open Source CFD Toolbox
   \\    /   O peration     | Website:  https://openfoam.org
    \\  /    A nd           | Version:  4.x
     \\/     M anipulation  |
\*---------------------------------------------------------------------------*/
FoamFile
{
    version     2.0;
    format      ascii;
    class       Cloud<passiveParticle>;
    location    0;
    object      positions;
}
// * * * * * * * * * * * * * * * * * * * * * * * * * * * * * * * * * * * * * //

407
(
( 0.258238 -0.0023149 0.00717625 ) 0
( 0.254437 0.0363061 0.00410828 ) 9
( 0.260087 0.0751893 -0.0115069 ) 27
( 0.259412 0.0469569 0.023887 ) 52
( 0.262349 0.0894539 0.0153938 ) 61
( 0.250822 0.013156 -0.00387055 ) 0
( 0.309337 -0.00715668 0.0175703 ) 36
( 0.33558 -0.00728713 0.0174779 ) 37
( 0.467305 -0.00658991 -0.00275022 ) 7
( 0.386389 -0.0140851 0.0128374 ) 4
( 0.439593 -0.00882415 -0.00443425 ) 6
( 0.398313 -0.00655329 0.0265472 ) 39
( 0.420216 -0.0111171 -0.00555355 ) 6
( 0.400545 -0.0119294 -0.00720425 ) 5
( 0.40916 -0.00887069 0.0103919 ) 5
( 0.322353 -0.00644464 0.00309153 ) 2
( 0.471689 -0.0120892 0.0157443 ) 41
( 0.294143 0.0029655 0.0100843 ) 1
( 0.490171 -0.0125457 -0.0113105 ) 8
( 0.366713 -0.0128573 0.0135344 ) 4
( 0.485926 -0.000563751 0.00401281 ) 8
( 0.359095 -0.0034425 -0.00706216 ) 3
( 0.419356 -0.0111068 0.0273468 ) 40
( 0.307042 -0.012754 -0.00740435 ) 2
( 0.429109 -0.00399174 0.0116659 ) 6
( 0.452849 -0.0100031 0.0102246 ) 7
( 0.379863 -0.012604 -0.00566209 ) 4
( 0.311931 0.0461115 0.0294674 ) 54
( 0.281456 0.0837402 0.015682 ) 62
( 0.486895 0.0276303 0.0214407 ) 51
( 0.344089 0.0700622 -0.00228805 ) 21
( 0.45903 0.0599129 -0.00737223 ) 25
( 0.420826 0.0522433 0.021166 ) 58
( 0.380328 0.0560125 -0.006421 ) 22
( 0.300437 0.0547211 -0.011956 ) 19
( 0.352541 0.0132257 0.00118373 ) 3
( 0.301658 0.0187123 0.000362061 ) 10
( 0.392888 0.0669933 0.00379197 ) 23
( 0.284622 0.0216894 -0.0129004 ) 10
( 0.368302 0.0207327 0.0159964 ) 47
( 0.398546 0.0834883 0.0130691 ) 32
( 0.437387 0.026065 0.00860074 ) 15
( 0.468764 0.0167069 0.0149702 ) 50
( 0.421742 0.0219811 -0.00305985 ) 15
( 0.376651 0.00382728 0.0107664 ) 4
( 0.415283 0.0573217 0.00318614 ) 23
( 0.296752 0.051908 0.0181929 ) 53
( 0.34541 0.0251036 -0.0132866 ) 12
( 0.330189 0.0278389 0.0186818 ) 45
( 0.299387 0.0886768 0.0230049 ) 62
( 0.442366 0.0693959 -0.00407882 ) 24
( 0.326603 0.0329216 0.000281105 ) 11
( 0.360142 0.0718309 0.00930903 ) 30
( 0.364739 0.0549397 0.0291933 ) 56
( 0.431321 0.039253 -0.0052588 ) 15
( 0.313936 0.0906432 -0.0108075 ) 29
( 0.336842 0.0470841 -0.00896486 ) 21
( 0.399292 0.0500015 -0.00558728 ) 23
( 0.31582 0.0491344 -0.00119238 ) 20
( 0.348921 0.0222167 0.0184818 ) 46
( 0.428144 0.0576458 -0.0119613 ) 24
( 0.287891 0.0477332 0.00126238 ) 19
( 0.387695 0.0447424 0.009461 ) 22
( 0.314338 0.0599389 0.0155897 ) 54
( 0.49084 0.0630036 -0.00976415 ) 26
( 0.449206 0.0447087 0.000732322 ) 25
( 0.349104 0.0726537 0.0253581 ) 64
( 0.447674 0.0904992 0.018157 ) 68
( 0.471553 0.0906147 0.0117057 ) 34
( 0.312743 0.0183107 0.0164566 ) 45
( 0.274381 0.0389867 -0.0100299 ) 9
( 0.452629 0.0597688 0.0131197 ) 25
( 0.332456 0.0899623 -0.00445243 ) 29
( 0.411684 0.0902199 9.07661e-05 ) 32
( 0.483981 0.0451235 -0.00915061 ) 26
( 0.390434 0.0332787 -0.0112077 ) 14
( 0.329956 0.0421263 0.036082 ) 45
( 0.375756 0.00468284 -0.0138076 ) 4
( 0.460378 0.00112685 0.0246377 ) 41
( 0.308161 0.0724526 -0.013113 ) 29
( 0.287319 0.0670603 -0.00314046 ) 19
( 0.399076 0.0128938 0.0254534 ) 39
( 0.490455 0.0184111 0.00464173 ) 17
( 0.299365 0.0723231 0.0116667 ) 28
( 0.274988 0.00812554 0.00955694 ) 0
( 0.35885 0.0901356 0.00176063 ) 30
( 0.438433 0.0414751 0.0208029 ) 49
( 0.412153 0.0105795 0.010033 ) 5
( 0.33912 0.0556871 0.0252582 ) 55
( 0.319128 0.0903893 0.0102359 ) 29
( 0.468042 0.0470792 0.0145231 ) 59
( 0.473303 0.0128407 -0.0037081 ) 8
( 0.278782 0.0476777 0.0243479 ) 53
( 0.318958 0.0171191 -0.00912848 ) 11
( 0.402792 0.0256826 0.0019609 ) 14
( 0.357833 0.0901805 0.0215326 ) 64
( 0.406926 0.069243 -0.00967395 ) 23
( 0.364745 0.0211651 -0.0121725 ) 13
( 0.380835 0.0775889 0.0369186 ) 65
( 0.413017 0.0263902 0.023473 ) 48
( 0.465187 0.0398287 -0.00895183 ) 16
( 0.485399 0.0783227 0.000794481 ) 35
( 0.426637 0.0122816 0.0228904 ) 40
( 0.43432 0.0554076 0.00726835 ) 24
( 0.490023 0.00824852 0.0214591 ) 42
( 0.369764 0.0349404 0.00213632 ) 13
( 0.43391 0.0765353 0.0152297 ) 67
( 0.326094 0.0749656 0.0202266 ) 63
( 0.477225 0.0325808 0.00449785 ) 17
( 0.381085 0.0189866 -0.00137539 ) 13
( 0.394952 0.00324731 0.00420518 ) 5
( 0.269839 0.0713521 0.00538442 ) 18
( 0.287166 0.0174237 0.021678 ) 44
( 0.269314 0.0317179 0.0163361 ) 43
( 0.377447 0.0789545 0.00343411 ) 31
( 0.370043 0.0531457 0.0100377 ) 22
( 0.374327 0.0383863 0.0227583 ) 47
( 0.475918 0.060265 0.0023227 ) 26
( 0.321888 0.0732737 0.000873686 ) 29
( 0.361315 0.0521715 -0.00991852 ) 22
( 0.333155 0.0146689 0.00442546 ) 11
( 0.269161 0.0493419 0.00669187 ) 18
( 0.306672 0.03634 0.0108844 ) 11
( 0.291923 0.0835732 -0.0133721 ) 28
( 0.403283 0.0435213 0.0215046 ) 57
( 0.438111 0.0894435 0.000732801 ) 33
( 0.346265 0.0351328 0.00379955 ) 12
( 0.486098 0.0261471 -0.012962 ) 17
( 0.409884 0.00562498 -0.00911662 ) 5
( 0.440292 0.0105813 -0.00325867 ) 6
( 0.405244 0.0641198 0.0186061 ) 57
( 0.425308 0.0902838 -0.0141916 ) 33
( 0.267755 0.0226687 -0.0013534 ) 9
( 0.393898 0.0842009 -0.00648258 ) 32
( 0.490176 0.00702871 -0.0137169 ) 8
( 0.373339 0.0904882 -0.0118446 ) 31
( 0.489905 0.0679169 0.0172478 ) 60
( 0.41676 0.0381678 0.00796998 ) 15
( 0.353143 0.0106111 0.0336681 ) 37
( 0.276967 0.0902783 -0.00232516 ) 27
( 0.298767 0.0352959 -0.00968602 ) 10
( 0.38827 0.0259064 0.0155164 ) 47
( 0.267389 0.0736859 0.0265837 ) 61
( 0.350854 0.0540546 0.0074623 ) 21
( 0.471386 0.0901136 -0.00789209 ) 34
( 0.467679 0.0719852 0.0153194 ) 68
( 0.455846 0.0318017 0.0143328 ) 50
( 0.283551 0.00262508 -0.00711883 ) 1
( 0.444542 0.00860678 0.0160458 ) 41
( 0.285514 0.028676 0.00568248 ) 10
( 0.41878 0.0892106 0.0187379 ) 67
( 0.454752 0.0238939 -0.00363931 ) 16
( 0.423856 0.0748494 -0.00177808 ) 33
( 0.343131 0.0273997 0.0368722 ) 46
( 0.254134 0.0609853 0.0116379 ) 18
( 0.300287 0.0902706 0.00338102 ) 28
( 0.340747 0.0859526 0.0129141 ) 30
( 0.302061 0.00509662 -0.0137631 ) 1
( 0.49047 0.0493347 0.00907901 ) 26
( 0.394206 0.0908507 0.0306145 ) 66
( 0.364641 0.0717368 -0.00998249 ) 31
( 0.490577 0.0902275 0.0151644 ) 69
( 0.257669 -0.00484338 -0.012264 ) 0
( 0.275485 -0.0115607 0.0105505 ) 0
( 0.307841 0.0725329 0.0311005 ) 63
( 0.353355 0.00102417 0.0166718 ) 37
( 0.339654 -0.00143104 -0.00479397 ) 3
( 0.338322 0.0902319 0.0320065 ) 64
( 0.45608 0.081624 0.00298289 ) 34
( 0.3175 0.0273488 0.0333115 ) 45
( 0.490199 0.0482959 0.0288101 ) 60
( 0.328157 0.00925928 0.0246684 ) 36
( 0.458522 0.0477116 0.0321708 ) 59
( 0.283417 0.0385218 0.0410538 ) 44
( 0.436597 0.0666675 0.0444413 ) 90
( 0.331776 0.0575759 0.00705111 ) 20
( 0.363229 -0.0048875 0.0411338 ) 38
( 0.254298 0.0363332 0.0525367 ) 75
( 0.472456 -0.00322959 0.0457942 ) 74
( 0.318215 0.0509974 0.0496189 ) 86
( 0.301937 0.0904664 0.0424154 ) 62
( 0.382495 0.0618846 0.0479578 ) 88
( 0.354962 0.0843434 0.0536616 ) 96
( 0.490342 0.0327039 0.0595718 ) 83
( 0.433873 -0.00719409 0.0483331 ) 72
( 0.430162 0.0897034 0.0516735 ) 99
( 0.364268 0.0559824 0.052551 ) 88
( 0.35223 0.0411469 0.0223057 ) 46
( 0.284906 0.0898887 0.0541464 ) 94
( 0.475753 0.023157 0.049786 ) 83
( 0.26771 0.0494576 0.0459922 ) 84
( 0.393107 0.0140137 0.0624769 ) 71
( 0.46859 0.0901705 0.0487684 ) 100
( 0.417416 -0.000687202 0.0572499 ) 72
( 0.443312 0.0273876 0.0509666 ) 81
( 0.364044 0.0342538 0.0540245 ) 79
( 0.413988 0.0522871 0.054456 ) 89
( 0.455148 0.0609632 0.0467735 ) 91
( 0.28577 0.0516479 0.05644 ) 85
( 0.405745 0.0864687 0.0555704 ) 98
( 0.27024 0.025013 0.0533118 ) 75
( 0.254941 0.0604249 0.0563111 ) 84
( 0.405239 0.0356524 0.0601829 ) 80
( 0.344413 0.0332104 0.0557886 ) 78
( 0.490525 0.090331 0.0544454 ) 101
( 0.398024 -0.00473312 0.0586357 ) 71
( 0.419925 0.07073 0.0690454 ) 90
( 0.382041 0.0400837 0.0598784 ) 79
( 0.2863 0.0676741 0.0258997 ) 53
( 0.426476 0.0361902 0.0558149 ) 81
( 0.375903 0.0808102 0.05565 ) 97
( 0.376804 0.003441 0.0596452 ) 70
( 0.377344 0.0887215 0.0208469 ) 65
( 0.312633 0.0302059 0.060457 ) 77
( 0.333951 0.0765062 0.0610133 ) 96
( 0.26879 0.0728763 0.0633799 ) 93
( 0.474104 0.0646283 0.0479885 ) 92
( 0.345559 0.0612956 0.0650902 ) 87
( 0.461344 0.00238911 0.0606482 ) 73
( 0.450229 0.0905217 0.0563325 ) 100
( 0.443365 0.00830599 0.055246 ) 72
( 0.311588 0.0697305 0.0522438 ) 86
( 0.389754 0.0556759 0.0304553 ) 57
( 0.490252 -0.00518527 0.0539742 ) 74
( 0.400812 0.0664906 0.0532709 ) 89
( 0.474612 0.0441752 0.0619864 ) 92
( 0.418713 0.0730001 0.0490278 ) 99
( 0.45507 0.0717519 0.0304463 ) 68
( 0.436539 0.0549336 0.0609255 ) 90
( 0.379384 0.0252437 0.0464851 ) 79
( 0.490402 0.0663109 0.0370786 ) 60
( 0.469183 0.0309979 0.030056 ) 50
( 0.308675 0.087576 0.0605891 ) 95
( 0.438118 0.0746293 0.0621146 ) 99
( 0.303253 0.0200587 0.0441227 ) 76
( 0.260103 0.0901077 0.0351503 ) 61
( 0.291719 0.0216703 0.0738478 ) 106
( 0.265423 0.0324809 0.0357418 ) 43
( 0.457877 0.0230843 0.0627182 ) 82
( 0.449442 0.0301388 0.032649 ) 50
( 0.337511 0.054841 0.0487421 ) 87
( 0.426883 0.016975 0.0494605 ) 81
( 0.292596 0.073409 0.0438855 ) 94
( 0.395477 0.0473239 0.0476432 ) 89
( 0.34188 -0.0103271 0.0356757 ) 37
( 0.363527 0.0141736 0.0497954 ) 70
( 0.366899 0.0906257 0.0391021 ) 65
( 0.490505 0.0131842 0.0623165 ) 74
( 0.490588 0.0108878 0.0426452 ) 42
( 0.458406 0.0153343 0.0447757 ) 82
( 0.407749 0.0188104 0.0502796 ) 80
( 0.401119 0.0536861 0.0716613 ) 119
( 0.391636 0.010621 0.0433587 ) 71
( 0.383102 -0.00621254 0.0389719 ) 38
( 0.425273 0.0469899 0.0393361 ) 58
( 0.470643 0.0844507 0.030253 ) 68
( 0.438422 -0.00526212 0.0292714 ) 40
( 0.379396 0.0582608 0.0668661 ) 88
( 0.433576 0.0893906 0.0321198 ) 67
( 0.376527 0.0684828 0.0202515 ) 56
( 0.284551 0.0155001 0.0410238 ) 44
( 0.301801 0.0401286 0.0479864 ) 76
( 0.376162 0.0443393 0.041534 ) 56
( 0.345946 0.0901368 0.0703556 ) 96
( 0.362442 0.070609 0.0658357 ) 88
( 0.490104 0.0898679 0.0348347 ) 69
( 0.36222 0.0713022 0.0401827 ) 56
( 0.490562 0.0513641 0.0527069 ) 92
( 0.273493 0.068427 0.044741 ) 84
( 0.437986 0.0604587 0.0261026 ) 58
( 0.326708 0.090089 0.0484982 ) 95
( 0.490278 0.0320032 0.0399942 ) 51
( 0.264969 0.0901398 0.0543932 ) 93
( 0.270173 0.042173 0.0643284 ) 75
( 0.322995 0.0610524 0.0660696 ) 86
( 0.341134 0.0741884 0.0431195 ) 96
( 0.414584 0.0900329 0.0381741 ) 66
( 0.459973 0.0378685 0.050186 ) 82
( 0.452904 -0.00395844 0.0427931 ) 41
( 0.408861 0.0565626 0.0362304 ) 57
( 0.484195 -0.00780277 0.0308856 ) 42
( 0.440968 0.012831 0.0362341 ) 40
( 0.360043 0.0459372 0.0689256 ) 87
( 0.39975 0.0732979 0.0351492 ) 66
( 0.288332 0.070317 0.0628575 ) 85
( 0.395912 0.0729412 0.0707173 ) 98
( 0.473774 0.0121541 0.0332954 ) 42
( 0.415344 0.00498619 0.0382552 ) 39
( 0.317956 0.0899491 0.0305998 ) 63
( 0.327933 0.024885 0.0496051 ) 77
( 0.473916 0.0595456 0.0287845 ) 60
( 0.362966 0.0278676 0.035259 ) 47
( 0.476438 0.0809428 0.063752 ) 101
( 0.475739 0.0235319 0.0693734 ) 83
( 0.282755 0.0900846 0.0344348 ) 62
( 0.421413 0.0708707 0.0295721 ) 58
( 0.45294 0.0901962 0.0369333 ) 68
( 0.409424 0.0357729 0.0403246 ) 48
( 0.325091 0.064263 0.0366894 ) 54
( 0.424219 0.0900705 0.0705638 ) 99
( 0.458491 0.0735541 0.0614347 ) 100
( 0.429776 0.028848 0.033657 ) 49
( 0.296106 0.0552643 0.0374569 ) 53
( 0.425371 0.0121525 0.0702142 ) 72
( 0.292064 0.089293 0.0725921 ) 124
( 0.304302 0.0546681 0.0630789 ) 85
( 0.404959 0.0901734 0.074905 ) 128
( 0.355828 0.0267422 0.0703141 ) 78
( 0.365891 0.0901197 0.0710397 ) 97
( 0.375509 0.022486 0.0657121 ) 79
( 0.390972 0.0338577 0.0333573 ) 48
( 0.268339 0.0169216 0.0712243 ) 75
( 0.489904 0.0542036 0.0722438 ) 122
( 0.47582 0.0451669 0.0419774 ) 60
( 0.297934 0.0322456 0.0291932 ) 44
( 0.352644 0.0444821 0.0416243 ) 55
( 0.25238 0.088753 0.0726052 ) 123
( 0.446365 0.0385768 0.0673593 ) 82
( 0.418978 0.0450174 0.0716275 ) 120
( 0.327247 0.0417097 0.0666042 ) 77
( 0.445406 -0.00452376 0.0699556 ) 73
( 0.416956 0.0605277 0.0857701 ) 120
( 0.458087 0.0542945 0.0650785 ) 91
( 0.289381 0.0272096 0.0558789 ) 76
( 0.37433 0.0108195 0.0334153 ) 38
( 0.339674 0.0737716 0.0797414 ) 126
( 0.317637 0.00537387 0.0407927 ) 36
( 0.490733 0.0297924 0.0793276 ) 113
( 0.305193 0.0725838 0.0729659 ) 124
( 0.306868 0.0318657 0.0821318 ) 107
( 0.250858 0.026488 0.0720139 ) 105
( 0.278019 0.0575474 0.0742445 ) 115
( 0.391869 0.0301148 0.0735594 ) 110
( 0.490565 -0.0142532 0.0714878 ) 104
( 0.434633 0.0529527 0.0804109 ) 120
( 0.38581 0.0907743 0.0695636 ) 97
( 0.325111 0.0904192 0.0711036 ) 95
( 0.44453 0.0147217 0.073712 ) 112
( 0.463307 -0.00902773 0.0768432 ) 103
( 0.377607 0.0751884 0.0767976 ) 127
( 0.443371 0.0458917 0.0447458 ) 90
( 0.449375 0.0699734 0.0782547 ) 121
( 0.443493 0.088493 0.074626 ) 129
( 0.490721 0.0705846 0.0561029 ) 92
( 0.385437 0.0468259 0.0817267 ) 118
( 0.272273 0.0900796 0.0727779 ) 123
( 0.272857 0.0332663 0.0818116 ) 105
( 0.342554 0.0468629 0.0777849 ) 117
( 0.358823 0.0768866 0.084207 ) 126
( 0.490084 0.0104915 0.0896794 ) 104
( 0.467355 0.0381539 0.079198 ) 112
( 0.314179 0.0500988 0.0798137 ) 116
( 0.465264 0.0102385 0.0781247 ) 103
( 0.318484 0.0181028 0.0742456 ) 107
( 0.370583 0.0340386 0.0808674 ) 109
( 0.258491 0.0618201 0.0757554 ) 114
( 0.400003 0.0716212 0.0898333 ) 128
( 0.28796 0.0725764 0.0826129 ) 124
( 0.462493 0.0905179 0.0720036 ) 130
( 0.490756 0.0754968 0.0751257 ) 131
( 0.417172 0.0803323 0.0873972 ) 129
( 0.4311 0.030122 0.0766607 ) 111
( 0.392909 0.0900836 0.0903638 ) 128
( 0.366458 0.0590865 0.0814432 ) 118
( 0.338912 0.0276968 0.0801857 ) 108
( 0.42982 -0.0108483 0.0796548 ) 102
( 0.472922 0.06423 0.0738423 ) 122
( 0.305341 0.0900625 0.0871946 ) 124
( 0.450936 0.0329242 0.0900737 ) 112
( 0.292611 0.0424979 0.0732142 ) 106
( 0.490284 0.0461837 0.0902478 ) 122
( 0.403227 0.0470044 0.0903089 ) 119
( 0.453628 0.0517097 0.0842602 ) 121
( 0.263113 0.0899041 0.090255 ) 123
( 0.41073 0.0281677 0.0774922 ) 110
( 0.264589 0.0498357 0.0902466 ) 114
( 0.320721 0.071589 0.0849274 ) 125
( 0.4777 -0.00509061 0.0900996 ) 104
( 0.384627 0.0242731 0.0905906 ) 109
( 0.330609 0.0555829 0.0905514 ) 116
( 0.269726 0.0707813 0.0901037 ) 114
( 0.34606 0.0903105 0.0902455 ) 126
( 0.32442 0.0367916 0.0901933 ) 107
( 0.256314 0.027083 0.0905695 ) 105
( 0.434024 0.070228 0.0903589 ) 120
( 0.465538 0.0725262 0.0901927 ) 130
( 0.356468 0.0173303 0.0901502 ) 108
( 0.434582 0.00548908 0.0884799 ) 102
( 0.289734 0.0286224 0.0910921 ) 106
( 0.475184 0.0236871 0.0902128 ) 113
( 0.490006 0.0900012 0.090075 ) 131
( 0.282997 0.0900802 0.0902321 ) 124
( 0.382376 0.0637777 0.0911595 ) 118
( 0.451876 0.0131276 0.0912593 ) 103
( 0.303591 0.0629735 0.0902768 ) 115
( 0.486335 0.0658851 0.0906878 ) 122
( 0.422255 0.0419692 0.0905926 ) 111
( 0.284152 0.047469 0.0902469 ) 115
( 0.47185 0.0531026 0.0907639 ) 121
( 0.34957 0.0604861 0.0905036 ) 117
( 0.372915 0.0900001 0.0900752 ) 127
( 0.324783 0.0901532 0.0905439 ) 125
( 0.456476 0.0902626 0.090471 ) 130
( 0.421901 0.0197887 0.090693 ) 111
( 0.326671 0.017211 0.0911855 ) 107
( 0.353968 0.0370758 0.0905034 ) 108
( 0.433358 0.0905403 0.0906395 ) 129
)
