/*--------------------------------*- C++ -*----------------------------------*\
| =========                 |                                                 |
| \\      /  F ield         | OpenFOAM: The Open Source CFD Toolbox           |
|  \\    /   O peration     | Version:  4.x                                   |
|   \\  /    A nd           | Web:      www.OpenFOAM.org                      |
|    \\/     M anipulation  |                                                 |
\*---------------------------------------------------------------------------*/
FoamFile
{
    version     2.0;
    format      ascii;
    class       volVectorField;
    location    "39";
    object      impParticleForces;
}
// * * * * * * * * * * * * * * * * * * * * * * * * * * * * * * * * * * * * * //

dimensions      [1 1 -2 0 0 0 0];

internalField   nonuniform List<vector> 
108
(
(0.00249061 2.40622e-05 -4.0046e-05)
(0.00248339 2.82992e-05 -3.30749e-05)
(0.00248389 2.64413e-05 -2.72979e-05)
(0.00247445 2.22191e-05 -2.21313e-05)
(0.00245639 1.71562e-05 -1.8804e-05)
(0.00244085 1.43063e-05 -1.66796e-05)
(0.00240321 1.07535e-05 -2.09352e-05)
(0.00235865 1.159e-05 -2.69436e-05)
(0.00227056 1.07464e-05 -4.33745e-05)
(0.00248136 1.82081e-05 -4.02531e-05)
(0.00250447 1.9856e-05 -3.36457e-05)
(0.00248105 1.94345e-05 -2.75151e-05)
(0.00247638 1.8462e-05 -2.21291e-05)
(0.00245817 1.80414e-05 -1.8612e-05)
(0.00245446 1.96896e-05 -1.61076e-05)
(0.00239795 2.37207e-05 -2.19409e-05)
(0.00234851 3.0323e-05 -3.17221e-05)
(0.00226177 3.8791e-05 -4.7228e-05)
(0.0024792 1.62321e-05 -4.09688e-05)
(0.00249736 1.62021e-05 -3.46615e-05)
(0.00249069 1.58996e-05 -2.8769e-05)
(0.00250162 1.62008e-05 -2.38527e-05)
(0.00248882 1.86076e-05 -2.08618e-05)
(0.00249759 2.4537e-05 -2.01356e-05)
(0.00243399 3.62755e-05 -2.86233e-05)
(0.00240309 4.74283e-05 -4.40567e-05)
(0.00229692 6.78371e-05 -6.58569e-05)
(0.00241652 1.41175e-05 -4.03172e-05)
(0.00244197 1.32727e-05 -3.46244e-05)
(0.00246362 1.19936e-05 -2.94227e-05)
(0.00248245 1.29558e-05 -2.55846e-05)
(0.00247189 1.59357e-05 -2.37105e-05)
(0.00246365 2.22452e-05 -2.51327e-05)
(0.00240449 3.26978e-05 -3.51122e-05)
(0.00235825 4.73821e-05 -5.52987e-05)
(0.00229446 6.2884e-05 -8.71771e-05)
(0.00249241 2.06359e-05 -3.86079e-05)
(0.00251932 2.40025e-05 -3.17979e-05)
(0.00250133 2.29772e-05 -2.59997e-05)
(0.00251604 1.99201e-05 -2.01316e-05)
(0.0024709 1.63802e-05 -1.60252e-05)
(0.00247059 1.37278e-05 -1.2132e-05)
(0.00241635 1.19619e-05 -1.49387e-05)
(0.00240013 1.07322e-05 -1.71673e-05)
(0.00229945 1.06693e-05 -4.09138e-05)
(0.00249249 1.67769e-05 -3.92688e-05)
(0.00252199 1.81401e-05 -3.2389e-05)
(0.00249449 1.76078e-05 -2.66506e-05)
(0.00250781 1.69109e-05 -2.10595e-05)
(0.00247249 1.67446e-05 -1.72557e-05)
(0.00247864 1.83832e-05 -1.42763e-05)
(0.00242276 2.26764e-05 -1.86328e-05)
(0.00239141 2.97537e-05 -2.61154e-05)
(0.00229252 4.23303e-05 -4.57211e-05)
(0.00252317 1.57109e-05 -4.16267e-05)
(0.00254073 1.53198e-05 -3.52044e-05)
(0.00251883 1.46449e-05 -2.95705e-05)
(0.00255689 1.45541e-05 -2.4343e-05)
(0.00252024 1.67553e-05 -2.18559e-05)
(0.00254127 2.15078e-05 -2.03242e-05)
(0.00246883 3.31224e-05 -2.89163e-05)
(0.00244514 4.87851e-05 -4.28187e-05)
(0.00232894 7.52074e-05 -7.22529e-05)
(0.00245781 1.36333e-05 -4.1131e-05)
(0.00248374 1.24127e-05 -3.55702e-05)
(0.00247908 1.11271e-05 -3.08152e-05)
(0.00252168 1.09787e-05 -2.70823e-05)
(0.00250718 1.34798e-05 -2.57329e-05)
(0.00252231 1.86039e-05 -2.54593e-05)
(0.00244033 3.0951e-05 -3.53802e-05)
(0.00242329 4.73509e-05 -5.19869e-05)
(0.00231099 6.73573e-05 -8.82587e-05)
(0.00245073 1.55455e-05 -3.43221e-05)
(0.00249011 1.79753e-05 -2.81219e-05)
(0.00245665 1.77484e-05 -2.24196e-05)
(0.00247861 1.60679e-05 -1.66127e-05)
(0.00243196 1.38969e-05 -1.20902e-05)
(0.00244212 1.2308e-05 -7.07346e-06)
(0.00238484 1.12465e-05 -7.59239e-06)
(0.00235659 1.18313e-05 -8.54729e-06)
(0.00227365 1.03124e-05 -2.3941e-05)
(0.00245215 1.38884e-05 -3.52632e-05)
(0.00247548 1.44686e-05 -2.90939e-05)
(0.00244894 1.43002e-05 -2.39529e-05)
(0.00244569 1.38706e-05 -1.89736e-05)
(0.00241856 1.41419e-05 -1.51245e-05)
(0.00244552 1.64926e-05 -1.14319e-05)
(0.00239081 2.01658e-05 -1.31398e-05)
(0.00237216 2.78059e-05 -1.61703e-05)
(0.00227277 3.71129e-05 -3.07146e-05)
(0.00246154 1.34206e-05 -3.75908e-05)
(0.00250041 1.26558e-05 -3.25314e-05)
(0.00246783 1.19237e-05 -2.76527e-05)
(0.00247681 1.17806e-05 -2.3387e-05)
(0.00245376 1.38072e-05 -2.11587e-05)
(0.00248462 1.79863e-05 -2.02824e-05)
(0.00242978 2.68088e-05 -2.42994e-05)
(0.00240416 4.03289e-05 -3.21136e-05)
(0.0022924 6.16091e-05 -5.16439e-05)
(0.0024338 1.25326e-05 -3.86219e-05)
(0.00244372 1.10493e-05 -3.343e-05)
(0.0024322 9.79639e-06 -2.95828e-05)
(0.00245232 9.34395e-06 -2.6294e-05)
(0.00244996 1.14512e-05 -2.56048e-05)
(0.0024682 1.57173e-05 -2.51853e-05)
(0.002404 2.6456e-05 -3.14712e-05)
(0.00239472 4.07681e-05 -4.14878e-05)
(0.00228981 5.92369e-05 -6.31409e-05)
)
;

boundaryField
{
    inlet
    {
        type            zeroGradient;
    }
    outlet
    {
        type            zeroGradient;
    }
    wall
    {
        type            zeroGradient;
    }
    procBoundary3to1
    {
        type            processor;
        value           nonuniform List<vector> 
27
(
(0.0024713 3.85813e-05 -3.96041e-05)
(0.00250842 4.98473e-05 -3.35643e-05)
(0.00249197 4.22619e-05 -2.81773e-05)
(0.00252363 3.14795e-05 -2.38268e-05)
(0.00247879 2.16256e-05 -2.08435e-05)
(0.00248457 1.45412e-05 -1.86845e-05)
(0.00243945 7.372e-06 -2.36415e-05)
(0.00243012 4.05518e-06 -2.47698e-05)
(0.0023016 -5.39067e-06 -4.69006e-05)
(0.00248767 2.96837e-05 -3.83319e-05)
(0.0025218 3.68589e-05 -3.16484e-05)
(0.00249747 3.35021e-05 -2.61463e-05)
(0.00251849 2.67135e-05 -2.10519e-05)
(0.00247756 1.93764e-05 -1.71451e-05)
(0.00249629 1.34318e-05 -1.39217e-05)
(0.00245488 7.55183e-06 -1.58961e-05)
(0.00244856 2.9106e-06 -1.72118e-05)
(0.00230515 -4.28548e-06 -3.90705e-05)
(0.00245526 1.98315e-05 -3.47085e-05)
(0.00248396 2.45424e-05 -2.80661e-05)
(0.00245319 2.38144e-05 -2.25179e-05)
(0.00249559 2.08138e-05 -1.71851e-05)
(0.0024484 1.56554e-05 -1.28274e-05)
(0.00245949 1.17955e-05 -7.79115e-06)
(0.00239707 6.71989e-06 -6.84104e-06)
(0.0023777 4.09474e-06 -5.99357e-06)
(0.00226754 -5.09944e-06 -1.90995e-05)
)
;
    }
    procBoundary3to2
    {
        type            processor;
        value           nonuniform List<vector> 
12
(
(0.00245939 1.79997e-05 -4.70324e-05)
(0.00245395 1.59021e-05 -4.71552e-05)
(0.00246656 1.6014e-05 -4.77298e-05)
(0.00242394 1.49442e-05 -4.69304e-05)
(0.00250126 1.54592e-05 -4.63089e-05)
(0.00248072 1.48114e-05 -4.63822e-05)
(0.00249292 1.57137e-05 -4.76739e-05)
(0.00243281 1.4769e-05 -4.66357e-05)
(0.00245307 1.17886e-05 -4.11833e-05)
(0.00244903 1.27344e-05 -4.17103e-05)
(0.00247626 1.44889e-05 -4.38455e-05)
(0.00243368 1.42378e-05 -4.38088e-05)
)
;
    }
    procBoundary3to7
    {
        type            processor;
        value           nonuniform List<vector> 
36
(
(0.00240596 1.10368e-05 -2.82445e-05)
(0.00243533 1.28226e-05 -2.29232e-05)
(0.00240006 1.26889e-05 -1.75945e-05)
(0.00242257 1.1959e-05 -1.212e-05)
(0.00240418 1.05585e-05 -6.52186e-06)
(0.00241436 1.00083e-05 -5.64983e-07)
(0.00233751 8.25336e-06 2.19925e-06)
(0.0023029 7.57823e-06 4.97404e-06)
(0.00223097 9.01467e-06 -3.87844e-07)
(0.00240487 1.08334e-05 -2.97492e-05)
(0.00245213 1.10864e-05 -2.50395e-05)
(0.0024062 1.05051e-05 -2.02776e-05)
(0.00241982 1.0085e-05 -1.57404e-05)
(0.00239393 1.02185e-05 -1.15739e-05)
(0.00240453 1.11524e-05 -7.19355e-06)
(0.00234774 1.5173e-05 -5.96574e-06)
(0.0023218 1.84482e-05 -3.85396e-06)
(0.00224081 3.05388e-05 -9.44886e-06)
(0.00241181 1.11729e-05 -3.25304e-05)
(0.00245572 1.00261e-05 -2.86054e-05)
(0.00241911 9.00783e-06 -2.48106e-05)
(0.00243669 8.31403e-06 -2.15501e-05)
(0.0024152 9.66373e-06 -1.93271e-05)
(0.00244323 1.04724e-05 -1.73496e-05)
(0.00237664 1.80851e-05 -1.76006e-05)
(0.0023474 2.38157e-05 -1.67423e-05)
(0.00224325 4.09471e-05 -2.62157e-05)
(0.00239845 1.0573e-05 -3.42426e-05)
(0.00241337 8.80561e-06 -3.03951e-05)
(0.00239953 7.39932e-06 -2.74682e-05)
(0.00239746 6.7988e-06 -2.42505e-05)
(0.00239771 7.52119e-06 -2.34769e-05)
(0.00240482 1.00297e-05 -2.13529e-05)
(0.00234928 1.69098e-05 -2.32505e-05)
(0.00232558 2.52931e-05 -2.28411e-05)
(0.00222285 3.5396e-05 -3.25441e-05)
)
;
    }
}


// ************************************************************************* //
