/*--------------------------------*- C++ -*----------------------------------*\
| =========                 |                                                 |
| \\      /  F ield         | OpenFOAM: The Open Source CFD Toolbox           |
|  \\    /   O peration     | Version:  4.x                                   |
|   \\  /    A nd           | Web:      www.OpenFOAM.org                      |
|    \\/     M anipulation  |                                                 |
\*---------------------------------------------------------------------------*/
FoamFile
{
    version     2.0;
    format      ascii;
    class       volVectorField;
    location    "39";
    object      UsPrev;
}
// * * * * * * * * * * * * * * * * * * * * * * * * * * * * * * * * * * * * * //

dimensions      [0 1 -1 0 0 0 0];

internalField   nonuniform List<vector> 
108
(
(1.35461e-09 -4.81851e-09 4.52091e-09)
(6.62981e-10 -6.69721e-09 5.03044e-09)
(-2.05368e-10 -6.91766e-09 3.25386e-09)
(-9.44716e-10 -4.36554e-09 2.87426e-09)
(-9.42392e-10 -3.67744e-09 5.79949e-10)
(1.33998e-10 -2.06178e-09 -1.09054e-09)
(1.21756e-09 -5.24307e-09 -6.17859e-09)
(2.92521e-08 1.34914e-08 -1.55578e-08)
(-1.42409e-07 5.84008e-11 -1.36917e-08)
(-2.29703e-09 -3.59841e-09 3.73761e-09)
(-3.34755e-09 -4.25181e-09 3.59097e-09)
(-3.03641e-09 -4.20451e-09 2.97344e-09)
(-4.40443e-09 -3.16297e-09 3.46776e-09)
(-6.88737e-09 -2.24754e-09 1.64399e-09)
(-9.37303e-09 2.28338e-10 -4.86034e-10)
(-9.6229e-09 -1.03829e-09 -4.8884e-09)
(-1.0446e-08 1.0239e-08 -1.20881e-08)
(-2.30203e-07 9.57814e-09 -2.18787e-08)
(-3.2308e-10 -1.29016e-09 2.40665e-09)
(-7.13043e-10 -2.76477e-09 2.81273e-09)
(-1.48921e-09 -2.82097e-09 2.52883e-09)
(-2.37003e-09 -1.86682e-09 2.69371e-09)
(-5.22487e-09 -1.12496e-09 2.00216e-09)
(-3.88745e-09 7.48274e-10 -1.67698e-09)
(-3.37739e-09 4.8585e-10 -5.44327e-09)
(4.76612e-09 4.11782e-09 -1.51969e-08)
(1.83511e-09 2.98709e-08 -2.4443e-08)
(-4.25306e-10 -1.38216e-09 8.78502e-10)
(-3.98291e-10 -3.18173e-09 1.1128e-09)
(-5.27212e-11 -1.17144e-08 1.77411e-09)
(-5.95078e-10 -1.16939e-09 1.03095e-09)
(-1.2679e-09 -9.2298e-10 1.38127e-09)
(-3.55285e-10 6.73975e-10 -1.206e-09)
(1.10699e-08 5.91986e-09 -2.62376e-09)
(1.39973e-08 5.16942e-09 -6.63183e-09)
(-4.24898e-09 6.23931e-07 -3.57308e-08)
(1.66551e-09 -3.63752e-09 4.49445e-09)
(1.08877e-09 -3.51534e-09 4.56814e-09)
(3.86348e-10 -3.84814e-09 3.45928e-09)
(1.57438e-09 -4.06663e-09 1.87517e-09)
(1.89796e-09 -3.48339e-09 -1.45828e-10)
(1.58291e-09 -2.79236e-09 -2.21883e-09)
(2.5573e-09 -2.03982e-09 -7.83426e-09)
(9.65614e-09 4.17237e-10 -1.38504e-08)
(-2.28415e-08 -1.75749e-09 -1.21689e-08)
(-6.88344e-10 -2.34916e-09 3.37493e-09)
(-1.40699e-09 -2.78734e-09 3.52973e-09)
(-2.20011e-09 -3.6095e-09 2.71005e-09)
(-1.78897e-09 -2.86116e-09 3.01879e-09)
(-2.8851e-09 -2.34276e-09 1.62531e-09)
(-3.45823e-09 -8.24441e-10 -8.20869e-10)
(-6.29148e-09 -3.82594e-09 -5.11964e-09)
(-1.18749e-09 -1.88001e-09 -1.27682e-08)
(2.20609e-09 -2.49706e-09 -1.48968e-08)
(-4.24823e-10 -1.55075e-09 2.48825e-09)
(-6.4595e-10 -1.49422e-09 2.41707e-09)
(-9.3595e-10 -2.0318e-09 2.0662e-09)
(-9.03707e-10 -1.40889e-09 2.24642e-09)
(-9.65565e-10 -7.88668e-10 7.12848e-10)
(-3.87563e-10 -1.62921e-10 -7.48878e-10)
(-4.98237e-10 1.02825e-09 -5.06475e-09)
(-1.67169e-10 -1.44088e-10 -1.27984e-08)
(1.90814e-09 -6.34479e-10 -1.67103e-08)
(-2.58326e-10 -7.91896e-10 1.12262e-09)
(-7.98352e-10 -1.90055e-09 1.08336e-09)
(-4.15473e-10 -1.06489e-09 8.43848e-10)
(1.59958e-10 -1.14549e-09 7.4765e-10)
(7.17549e-10 -2.24829e-10 2.19224e-11)
(2.11924e-09 -2.68418e-10 -7.14637e-10)
(3.4618e-09 6.19058e-10 -3.1076e-09)
(4.01836e-09 1.43465e-09 -6.62378e-09)
(5.79811e-10 5.97506e-10 -2.1909e-08)
(3.09468e-09 -1.66989e-09 3.76222e-09)
(2.5867e-09 -1.63914e-09 4.28478e-09)
(2.37862e-09 -1.43491e-09 5.07261e-09)
(3.40998e-09 -3.11127e-09 1.65337e-09)
(3.9879e-09 -3.46038e-09 -1.98666e-10)
(4.5444e-09 -2.46151e-09 -2.64984e-09)
(4.47133e-09 -1.85817e-09 -6.61352e-09)
(6.25749e-09 -1.63647e-09 -8.71832e-09)
(4.74767e-09 -1.01323e-09 -6.15756e-09)
(1.23641e-09 -2.27427e-09 3.20447e-09)
(8.67954e-10 -1.69917e-09 3.34799e-09)
(2.06009e-09 -2.04999e-09 3.55677e-09)
(1.82723e-09 -2.08743e-09 2.49187e-09)
(1.91746e-09 -2.20103e-09 -1.52107e-10)
(2.07587e-09 -1.71073e-09 -1.72191e-09)
(1.97434e-09 -6.83952e-10 -5.6854e-09)
(1.62258e-09 -1.33147e-10 -8.88428e-09)
(2.84716e-10 2.9079e-10 -7.23532e-09)
(7.98279e-10 -1.23082e-09 2.33303e-09)
(8.28023e-10 -1.20927e-09 2.53859e-09)
(1.16713e-09 -1.44985e-09 2.45311e-09)
(1.48174e-09 -1.47859e-09 2.07535e-09)
(1.1419e-09 -1.22084e-09 2.4245e-10)
(1.27102e-09 -6.29028e-10 -1.08271e-09)
(9.38069e-10 4.27037e-10 -3.35247e-09)
(1.36745e-09 1.17287e-09 -7.25504e-09)
(6.38805e-10 -5.58627e-10 -7.75535e-09)
(1.03332e-10 -7.52023e-10 1.29801e-09)
(-1.46758e-10 -1.15345e-09 1.36944e-09)
(-1.15759e-10 -1.56781e-09 1.60394e-09)
(4.07854e-10 -7.84175e-10 8.4546e-10)
(4.48861e-10 -6.26672e-10 1.72189e-10)
(2.69809e-10 -3.4775e-11 -2.0899e-10)
(5.68211e-10 3.39185e-11 -1.87266e-09)
(3.51403e-10 9.02753e-11 -4.2347e-09)
(4.19648e-10 -1.96721e-09 -7.18683e-09)
)
;

boundaryField
{
    inlet
    {
        type            calculated;
        value           nonuniform 0();
    }
    outlet
    {
        type            calculated;
        value           uniform (0 0 0);
    }
    wall
    {
        type            calculated;
        value           uniform (0 0 0);
    }
    procBoundary3to1
    {
        type            processor;
        value           uniform (0 0 0);
    }
    procBoundary3to2
    {
        type            processor;
        value           uniform (0 0 0);
    }
    procBoundary3to7
    {
        type            processor;
        value           uniform (0 0 0);
    }
}


// ************************************************************************* //
