/*--------------------------------*- C++ -*----------------------------------*\
| =========                 |                                                 |
| \\      /  F ield         | OpenFOAM: The Open Source CFD Toolbox           |
|  \\    /   O peration     | Version:  4.x                                   |
|   \\  /    A nd           | Web:      www.OpenFOAM.org                      |
|    \\/     M anipulation  |                                                 |
\*---------------------------------------------------------------------------*/
FoamFile
{
    version     2.0;
    format      ascii;
    class       volScalarField;
    location    "28.5";
    object      magGField;
}
// * * * * * * * * * * * * * * * * * * * * * * * * * * * * * * * * * * * * * //

dimensions      [1 -2 -1 0 0 0 0];

internalField   nonuniform List<scalar> 
114
(
54.7457
111.155
62.958
115.983
67.8967
120.384
98.944
42.4143
103.668
50.7186
107.501
56.2353
111.063
59.2326
114.694
99.9822
44.6468
106.086
55.7287
111.786
63.4772
116.501
68.4593
120.843
100.183
49.3293
109.401
64.7032
119.019
77.3969
127.822
86.5933
134.304
28.462
96.0989
24.7114
97.6233
97.3376
35.2226
96.6934
31.2343
95.61
26.7983
95.0939
22.3586
96.7682
97.9273
37.0958
98.2298
35.9767
98.7589
34.2536
99.6073
30.8244
101.102
98.3771
44.1779
103.105
52.024
107.968
58.3661
112.473
62.4921
116.756
0.176084
86.4943
95.5515
32.4968
93.0144
24.3856
91.0637
17.4827
90.0474
12.6093
90.4815
96.6995
33.3864
94.3636
26.1827
92.5899
19.2578
91.6355
11.2205
91.7564
97.3565
40.6171
99.4775
44.4787
102.13
47.8151
103.477
48.727
105.999
94.2722
30.2317
90.097
20.9552
88.0348
13.9346
86.8752
8.40448
94.6065
33.7578
92.3348
28.2017
91.2923
23.5945
91.1772
96.1985
41.1691
98.017
44.112
100.024
46.6694
)
;

boundaryField
{
    inlet
    {
        type            calculated;
        value           uniform 67;
    }
    outlet
    {
        type            calculated;
        value           nonuniform 0();
    }
    wall
    {
        type            calculated;
        value           uniform 0;
    }
    procBoundary2to0
    {
        type            processor;
        value           nonuniform List<scalar> 
44
(
54.5274
111.313
61.8593
115.848
66.0774
117.69
100.884
44.6511
106.5
106.5
33.3253
96.4633
27.7507
96.3599
20.5059
96.6647
96.9868
35.7006
97.6122
33.3253
96.4633
96.4633
4.86077
86.8016
3.13103
89.1718
94.9784
28.284
90.9406
15.2832
87.8402
4.86077
86.8016
86.8016
8.82073
85.0847
94.4058
30.4318
89.4706
19.3739
86.8976
12.4581
85.3944
8.82073
)
;
    }
    procBoundary2to3
    {
        type            processor;
        value           nonuniform List<scalar> 
12
(
69.8342
60.4159
71.1602
92.5463
20.6069
19.5779
26.5371
64.4731
0.000103528
7.38296
4.74963
47.8676
)
;
    }
    procBoundary2to6
    {
        type            processor;
        value           nonuniform List<scalar> 
32
(
85.8032
20.0625
92.1489
102.329
48.8618
104.675
92.0777
27.8691
87.8863
15.5467
84.9328
6.64893
83.9299
85.8032
20.0625
5.79613e-05
94.4242
30.8262
91.0992
21.5768
88.7111
13.3243
20.0625
102.329
87.5701
96.2307
40.107
96.941
41.2937
96.6709
102.329
39.836
)
;
    }
}


// ************************************************************************* //
