/*--------------------------------*- C++ -*----------------------------------*\
| =========                 |                                                 |
| \\      /  F ield         | OpenFOAM: The Open Source CFD Toolbox           |
|  \\    /   O peration     | Version:  4.x                                   |
|   \\  /    A nd           | Web:      www.OpenFOAM.org                      |
|    \\/     M anipulation  |                                                 |
\*---------------------------------------------------------------------------*/
FoamFile
{
    version     2.0;
    format      ascii;
    class       volScalarField;
    location    "28.5";
    object      p;
}
// * * * * * * * * * * * * * * * * * * * * * * * * * * * * * * * * * * * * * //

dimensions      [1 -1 -2 0 0 0 0];

internalField   nonuniform List<scalar> 
114
(
5708.87
5729.38
5690.47
5722.2
5671.83
5715.29
5743.49
5726.59
5736.65
5708.9
5729.5
5690.68
5722.37
5672.11
5715.44
5743.19
5726.41
5736.43
5708.73
5729.36
5690.55
5722.28
5671.95
5715.35
5742.81
5726.21
5736.08
5708.63
5729.06
5690.59
5722.06
5672.16
5715.18
3812.67
3844.82
3793.78
3837.85
3866.41
3849.15
3859.49
3831.28
3852.22
3812.99
3844.98
3794.21
3837.88
3866.11
3848.93
3859.2
3831
3851.98
3812.71
3844.79
3794
3837.82
3865.57
3848.67
3858.71
3830.89
3851.56
3812.76
3844.44
3794.23
3837.53
1917.08
1959.82
1989.32
1971.65
1982.28
1953.88
1974.8
1935.69
1967.29
1917.1
1960.08
1989.06
1971.63
1982.17
1953.69
1974.78
1935.42
1967.44
1916.8
1960.14
1988.45
1971.23
1981.48
1953.43
1974.18
1935.4
1966.92
1916.77
1959.88
112.016
94.2741
104.72
76.3227
97.1545
58.2306
89.6323
40.099
111.623
94.0083
104.387
76.0593
96.864
57.8373
89.3626
110.982
93.6582
103.839
75.8289
96.4115
57.6451
)
;

boundaryField
{
    inlet
    {
        type            calculated;
        value           nonuniform List<scalar> 
12
(
5743.49
5743.19
5742.81
3866.41
3866.11
3865.57
1989.32
1989.06
1988.45
112.016
111.623
110.982
)
;
    }
    outlet
    {
        type            calculated;
        value           nonuniform 0();
    }
    wall
    {
        type            calculated;
        value           nonuniform List<scalar> 
66
(
6682.45
6682.15
6681.76
6665.55
6665.37
6665.17
6675.61
6675.39
6675.04
6647.82
6647.86
6647.69
6647.58
6668.33
6668.46
6668.31
6668.02
6629.42
6629.63
6629.51
6629.55
6661.15
6661.33
6661.23
6661.01
6610.79
6611.06
6610.91
6611.11
6654.24
6654.4
6654.3
6654.13
5742.81
3865.57
1988.45
110.982
5726.21
3848.67
1971.23
93.6582
5736.08
3858.71
1981.48
103.839
5708.63
3830.89
1953.43
75.8289
5729.06
3851.56
1974.18
96.4115
5690.59
3812.76
1935.4
57.6451
5722.06
3844.44
1966.92
5672.16
3794.23
1916.77
5715.18
3837.53
1959.88
)
;
    }
    procBoundary2to0
    {
        type            processor;
        value           nonuniform List<scalar> 
44
(
5708.77
5729.27
5690.45
5722.22
5672.13
5715.41
5743.57
5726.69
5736.69
5736.69
3831.23
3852.19
3812.8
3845
3794.17
3838.12
3866.5
3849.07
3859.48
3831.23
3852.19
3852.19
1935.52
1967.28
1916.73
1959.96
1989.63
1971.89
1982.59
1953.93
1975.01
1935.52
1967.28
1967.28
40.7944
82.3235
112.106
94.4871
104.884
76.6026
97.1721
58.7377
89.496
40.7944
)
;
    }
    procBoundary2to3
    {
        type            processor;
        value           nonuniform List<scalar> 
12
(
5652.96
5653.47
5653
5653.29
3774.84
3775.54
3774.99
3775.42
1898.78
1898.74
1898.02
1897.94
)
;
    }
    procBoundary2to6
    {
        type            processor;
        value           nonuniform List<scalar> 
32
(
82.2952
39.3382
82.1088
89.0376
39.2834
81.9536
-1765.3
-1783.5
-1772.7
-1801.11
-1780.43
-1819.29
-1788.11
82.2952
39.3382
-1837.34
-1765.75
-1783.58
-1772.94
-1801.42
-1780.49
-1819.73
39.3382
89.0376
-1788.05
-1766.45
-1783.95
-1773.6
-1801.6
-1780.98
89.0376
-1819.89
)
;
    }
}


// ************************************************************************* //
