/*--------------------------------*- C++ -*----------------------------------*\
| =========                 |                                                 |
| \\      /  F ield         | OpenFOAM: The Open Source CFD Toolbox           |
|  \\    /   O peration     | Version:  4.x                                   |
|   \\  /    A nd           | Web:      www.OpenFOAM.org                      |
|    \\/     M anipulation  |                                                 |
\*---------------------------------------------------------------------------*/
FoamFile
{
    version     2.0;
    format      ascii;
    class       volScalarField;
    location    "28.5";
    object      Sm;
}
// * * * * * * * * * * * * * * * * * * * * * * * * * * * * * * * * * * * * * //

dimensions      [1 -3 -1 0 0 0 0];

internalField   nonuniform List<scalar> 
114
(
6.51006e-65
4.88254e-65
2.55751e-65
4.88252e-65
3.0225e-65
4.1075e-65
5.73507e-65
6.51007e-65
5.11505e-65
3.79753e-65
6.20005e-65
4.41752e-65
5.89002e-65
6.12251e-65
3.95251e-65
4.03005e-65
5.65757e-65
4.57255e-65
4.96005e-65
4.49504e-65
4.57253e-65
5.34753e-65
4.41752e-65
5.27002e-65
4.41756e-65
4.26255e-65
4.65005e-65
4.57255e-65
3.33253e-65
3.79754e-65
2.71252e-65
4.80504e-65
3.10002e-65
8.44752e-65
9.76501e-65
5.73499e-65
9.22248e-65
5.42507e-65
6.82008e-65
7.67257e-65
7.82756e-65
6.97504e-65
6.27752e-65
8.99002e-65
7.595e-65
5.1925e-65
6.04508e-65
8.6026e-65
8.29259e-65
7.59507e-65
7.44005e-65
7.28504e-65
7.05253e-65
7.44002e-65
5.96751e-65
5.89008e-65
5.19256e-65
6.97508e-65
5.81256e-65
6.89756e-65
5.89004e-65
5.89004e-65
6.51003e-65
4.26252e-65
7.59498e-65
8.13747e-65
7.28509e-65
4.96006e-65
5.50255e-65
6.12254e-65
5.58003e-65
7.13002e-65
8.37001e-65
6.58749e-65
4.88249e-65
5.34757e-65
6.04507e-65
7.13007e-65
9.06757e-65
7.28504e-65
6.43253e-65
7.51752e-65
7.44001e-65
8.37e-65
5.34757e-65
7.51759e-65
6.04507e-65
6.97506e-65
4.65004e-65
6.51004e-65
8.29255e-65
4.96002e-65
6.66502e-65
4.80506e-65
8.13759e-65
8.37008e-65
6.51005e-65
6.82003e-65
5.89002e-65
6.2775e-65
7.74999e-65
6.89759e-65
6.89758e-65
8.37008e-65
5.81255e-65
7.20754e-65
6.89753e-65
8.37003e-65
5.27007e-65
6.51008e-65
6.27757e-65
7.13006e-65
5.50254e-65
6.35504e-65
)
;

boundaryField
{
    inlet
    {
        type            calculated;
        value           uniform 0;
    }
    outlet
    {
        type            calculated;
        value           nonuniform 0();
    }
    wall
    {
        type            calculated;
        value           uniform 0;
    }
    procBoundary2to0
    {
        type            processor;
        value           nonuniform List<scalar> 
44
(
4.72754e-65
4.26253e-65
4.34002e-65
3.25501e-65
4.49501e-65
6.89751e-65
2.86754e-65
4.41755e-65
3.25504e-65
3.25504e-65
4.72753e-65
8.99005e-65
5.89002e-65
8.29251e-65
6.045e-65
4.95999e-65
8.0601e-65
6.12257e-65
6.12255e-65
4.72753e-65
8.99005e-65
8.99005e-65
7.13002e-65
7.12999e-65
6.19998e-65
4.57248e-65
7.28509e-65
7.59508e-65
7.67256e-65
8.13755e-65
8.21503e-65
7.13002e-65
7.12999e-65
7.12999e-65
5.42499e-65
2.32499e-65
5.27007e-65
5.89006e-65
7.98257e-65
9.06756e-65
4.49502e-65
9.14502e-65
7.12999e-65
5.42499e-65
)
;
    }
    procBoundary2to3
    {
        type            processor;
        value           nonuniform List<scalar> 
12
(
6.975e-65
5.1925e-65
5.50252e-65
4.65003e-65
7.51748e-65
6.66499e-65
1.0385e-64
7.75003e-65
7.67246e-65
9.06747e-65
5.115e-65
8.52502e-65
)
;
    }
    procBoundary2to6
    {
        type            processor;
        value           nonuniform List<scalar> 
32
(
6.74249e-65
6.04501e-65
7.13e-65
5.11503e-65
5.81252e-65
4.96002e-65
1.03851e-64
7.59509e-65
4.96005e-65
7.44005e-65
9.37755e-65
6.12252e-65
7.36252e-65
6.74249e-65
6.04501e-65
6.51e-65
5.81257e-65
7.90509e-65
6.43256e-65
8.83507e-65
7.05255e-65
7.82754e-65
6.04501e-65
5.11503e-65
7.05253e-65
4.96006e-65
7.20759e-65
5.42506e-65
6.12256e-65
7.59506e-65
5.11503e-65
8.75756e-65
)
;
    }
}


// ************************************************************************* //
