/*--------------------------------*- C++ -*----------------------------------*\
| =========                 |                                                 |
| \\      /  F ield         | OpenFOAM: The Open Source CFD Toolbox           |
|  \\    /   O peration     | Version:  4.x                                   |
|   \\  /    A nd           | Web:      www.OpenFOAM.org                      |
|    \\/     M anipulation  |                                                 |
\*---------------------------------------------------------------------------*/
FoamFile
{
    version     2.0;
    format      ascii;
    class       volVectorField;
    location    "28.5";
    object      U;
}
// * * * * * * * * * * * * * * * * * * * * * * * * * * * * * * * * * * * * * //

dimensions      [0 1 -1 0 0 0 0];

internalField   nonuniform List<vector> 
114
(
(0.016716 -0.000122113 -0.000692698)
(0.0339744 -0.000135252 -0.00132345)
(0.0191642 -0.000129173 -0.000551599)
(0.0355586 -0.000123088 -0.000952685)
(0.0207551 3.74927e-05 -0.000192361)
(0.037036 3.29055e-05 -0.000704179)
(0.0299051 0.000161927 -0.00125539)
(0.0128961 0.000100623 -0.000731648)
(0.0315304 0.000304037 -0.00144367)
(0.0154438 0.000204189 -0.000675054)
(0.0329699 0.000202541 -0.00119104)
(0.0172113 4.56691e-05 -0.000577771)
(0.0342551 -4.8434e-07 -0.000972295)
(0.0182802 -8.10956e-05 -0.000335846)
(0.0353043 -8.25874e-05 -0.000643223)
(0.0300629 0.000936294 -0.00128575)
(0.0135353 0.000455877 -0.000708397)
(0.0322244 0.000934129 -0.00134676)
(0.016965 0.000540106 -0.000599528)
(0.0340474 0.000875823 -0.0010414)
(0.0193604 0.000428907 -0.000433198)
(0.0356986 0.000671255 -0.000799369)
(0.0210022 0.000246415 -0.00025051)
(0.0371993 0.000498086 -0.000647764)
(0.0300562 0.000611249 -0.00108656)
(0.0148526 0.000334634 -0.000651783)
(0.0331125 0.000656255 -0.00112186)
(0.0196011 0.000348739 -0.000598616)
(0.0359469 0.000617172 -0.000893111)
(0.0234027 0.000235657 -0.000471073)
(0.0386567 0.000453556 -0.000666656)
(0.0263886 2.36617e-06 -0.000288779)
(0.0409053 0.0002221 -0.00051142)
(0.00892372 -5.12226e-05 -0.000875385)
(0.0304033 0.000135298 -0.00157637)
(0.00771764 2.09044e-05 -0.000755536)
(0.0308566 0.000455798 -0.000767417)
(0.0297689 0.000348603 -0.00242268)
(0.010827 7.3309e-05 -0.00117606)
(0.0299828 0.000347197 -0.00257777)
(0.00971117 0.000196888 -0.000958483)
(0.0298875 0.000415226 -0.0019422)
(0.00837433 6.40144e-05 -0.000743556)
(0.0300895 9.52925e-05 -0.00127096)
(0.00702979 -7.63698e-05 -0.000532509)
(0.0303744 2.81519e-05 -0.000794087)
(0.0298834 0.00109604 -0.0024905)
(0.0114113 0.000528357 -0.00131321)
(0.0304777 0.00121778 -0.00275784)
(0.0111715 0.000504711 -0.00110827)
(0.0307626 0.00111698 -0.00220125)
(0.0106699 0.000381099 -0.000883143)
(0.0311952 0.000907881 -0.00173189)
(0.00965556 0.000167447 -0.000707716)
(0.0317187 0.000577775 -0.001117)
(0.029929 0.000799671 -0.00220778)
(0.0134809 0.000413016 -0.00129426)
(0.0318001 0.000875645 -0.00234119)
(0.0160478 0.000359023 -0.00128489)
(0.0334073 0.000774585 -0.00194642)
(0.0180432 0.000216236 -0.00125905)
(0.0348937 0.00060821 -0.00157195)
(0.0194272 2.10838e-06 -0.00100913)
(0.036263 0.000401785 -0.00124007)
(5.50794e-05 -1.43773e-06 -1.24555e-05)
(0.0277143 -0.000171469 -0.000328147)
(0.0297115 0.000666367 -0.00207396)
(0.0100881 0.000242735 -0.00103512)
(0.0291858 0.000630942 -0.00188643)
(0.00768397 0.00021195 -0.000695026)
(0.0288461 0.000443382 -0.00127568)
(0.00555203 9.55954e-05 -0.000516558)
(0.0288973 -0.000139699 -0.000817832)
(0.00399319 8.19173e-05 -0.000537951)
(0.0288471 -0.000373469 -0.000472633)
(0.0298711 0.00116756 -0.00195364)
(0.0103719 0.000475438 -0.00099504)
(0.0296821 0.00124871 -0.00181186)
(0.0082815 0.00041706 -0.000740755)
(0.0293306 0.00100716 -0.0012552)
(0.00609009 0.00023528 -0.000520848)
(0.029262 0.000580727 -0.000718369)
(0.00356456 0.000120222 -0.000333089)
(0.0293741 0.000280668 -0.000250241)
(0.0299779 0.000915731 -0.00181379)
(0.0126211 0.00051986 -0.00108279)
(0.0311021 0.00119244 -0.00180366)
(0.0139636 0.000513481 -0.00108438)
(0.0319969 0.0010769 -0.00141084)
(0.0150659 0.000326195 -0.000978433)
(0.0328568 0.000876572 -0.000989211)
(0.0153491 0.00027833 -0.00101283)
(0.0336477 0.000456252 -0.000779593)
(0.0295246 0.000562783 -0.00173297)
(0.00956432 0.000353286 -0.00073471)
(0.0287825 0.000744217 -0.00144755)
(0.00668436 0.000321452 -0.000544452)
(0.0282578 0.000517966 -0.00099603)
(0.00445825 0.000324628 -0.000331538)
(0.0280295 0.000260581 -0.000753956)
(0.00268271 0.000301355 -0.000301408)
(0.0296246 0.00137204 -0.00146348)
(0.0106388 0.000650717 -0.000714403)
(0.0294274 0.00139194 -0.00127226)
(0.00897731 0.000494641 -0.000622735)
(0.0292498 0.00117524 -0.000987225)
(0.00756046 0.000448953 -0.000460912)
(0.0294311 0.000984585 -0.00062083)
(0.0299012 0.000951314 -0.00135943)
(0.012918 0.00049817 -0.000851922)
(0.0309783 0.000983145 -0.00141421)
(0.0140103 0.000434714 -0.00100882)
(0.0318025 0.000823202 -0.00133751)
(0.0148984 0.000384801 -0.000807889)
)
;

boundaryField
{
    inlet
    {
        type            fixedValue;
        value           uniform (0.01 0 0);
    }
    outlet
    {
        type            zeroGradient;
    }
    wall
    {
        type            fixedValue;
        value           uniform (0 0 0);
    }
    procBoundary2to0
    {
        type            processor;
        value           nonuniform List<vector> 
44
(
(0.0165294 -0.000444285 -0.000745635)
(0.033789 -0.000588669 -0.0013363)
(0.0188023 -0.000216169 -0.000662042)
(0.0352178 -0.000457498 -0.00123807)
(0.020161 -0.000135796 -0.000384406)
(0.0361536 -0.000338377 -0.0010678)
(0.0301527 -0.000398851 -0.00149889)
(0.0134534 -0.000111835 -0.000701814)
(0.0321631 -0.000215239 -0.00141811)
(0.0321631 -0.000215239 -0.00141811)
(0.0102815 -5.94199e-05 -0.00117878)
(0.0302418 -4.05535e-06 -0.00245548)
(0.00863486 -5.54316e-05 -0.000654653)
(0.0302176 -0.000372572 -0.00128333)
(0.00639217 0.000100096 -0.000316961)
(0.0301561 -0.000319999 -0.000536059)
(0.0297175 -0.000231345 -0.00296423)
(0.0109107 -0.000121728 -0.00143663)
(0.0300389 -0.000221615 -0.00310484)
(0.0102815 -5.94199e-05 -0.00117878)
(0.0302418 -4.05535e-06 -0.00245548)
(0.0302418 -4.05535e-06 -0.00245548)
(0.00153613 -3.74823e-05 -0.000237794)
(0.0278 -4.92917e-05 -0.000706954)
(0.000974394 -5.41668e-05 -0.000190859)
(0.0282753 5.168e-05 -0.000147504)
(0.029579 -7.08995e-05 -0.00213597)
(0.00879772 -1.98775e-05 -0.00112283)
(0.0286415 3.99057e-05 -0.00214154)
(0.00482688 -2.14213e-05 -0.000575241)
(0.0280222 7.76032e-05 -0.00124676)
(0.00153613 -3.74823e-05 -0.000237794)
(0.0278 -4.92917e-05 -0.000706954)
(0.0278 -4.92917e-05 -0.000706954)
(0.00280358 0.000166499 -0.000360395)
(0.0272203 0.000345304 -0.000673348)
(0.0294783 -0.00026889 -0.00126779)
(0.00956942 -2.03521e-05 -0.000756737)
(0.0285869 -5.21705e-05 -0.00114877)
(0.00621544 0.000102707 -0.000501568)
(0.0278328 0.000101347 -0.000769689)
(0.00401447 0.000131019 -0.000398129)
(0.027598 8.14241e-05 -0.000667678)
(0.00280358 0.000166499 -0.000360395)
)
;
    }
    procBoundary2to3
    {
        type            processor;
        value           nonuniform List<vector> 
12
(
(0.0217039 -3.34499e-05 -3.38508e-05)
(0.0187786 -7.06551e-05 -0.000195311)
(0.0220999 0.000432771 -0.00014659)
(0.0284947 -0.000193463 -0.000293044)
(0.00648953 9.03598e-05 -0.000776399)
(0.00618357 -5.54511e-05 -0.000528042)
(0.00843596 0.000170899 -0.00060579)
(0.0203205 -0.000249456 -0.000952642)
(2.70633e-08 2.66726e-09 -1.94903e-08)
(0.00234279 0.000121016 -0.000433556)
(0.00150723 9.7041e-05 -0.000180035)
(0.0152969 0.000199451 -0.0011607)
)
;
    }
    procBoundary2to6
    {
        type            processor;
        value           nonuniform List<vector> 
32
(
(0.0277173 0.000351035 -0.000110457)
(0.00642293 0.000472151 -0.000457827)
(0.0297181 0.000644623 -0.000432973)
(0.0326591 0.000632884 -0.000908403)
(0.0155715 0.000231784 -0.000958385)
(0.0334609 0.000332292 -0.000828175)
(0.0294597 0.000462532 -0.000645545)
(0.00890634 0.000309154 -0.000220928)
(0.0281 0.000519338 -0.000530221)
(0.00501966 0.000190901 -0.000170435)
(0.0276562 0.000256375 -0.000387994)
(0.00215172 0.000119159 -7.93993e-05)
(0.0273314 -6.09424e-05 -0.000329729)
(0.0277173 0.000351035 -0.000110457)
(0.00642293 0.000472151 -0.000457827)
(1.71616e-08 3.27839e-09 -7.41036e-09)
(0.0297553 0.0015518 -0.000506465)
(0.00981085 0.000540035 -0.000273248)
(0.0290995 0.00139551 -0.000479797)
(0.00696176 0.000386898 -0.000269085)
(0.0287182 0.000868429 -0.000400579)
(0.00431806 0.000241455 -0.000181349)
(0.00642293 0.000472151 -0.000457827)
(0.0326591 0.000632884 -0.000908403)
(0.0284479 0.000653818 -0.00037545)
(0.0300539 0.0010511 -0.000571336)
(0.0126825 0.000529329 -0.000382782)
(0.0307425 0.00114801 -0.000621056)
(0.013217 0.00042096 -0.000568862)
(0.0312204 0.000857372 -0.000629357)
(0.0326591 0.000632884 -0.000908403)
(0.0129248 0.000320771 -0.000557551)
)
;
    }
}


// ************************************************************************* //
