/*--------------------------------*- C++ -*----------------------------------*\
| =========                 |                                                 |
| \\      /  F ield         | OpenFOAM: The Open Source CFD Toolbox           |
|  \\    /   O peration     | Version:  4.x                                   |
|   \\  /    A nd           | Web:      www.OpenFOAM.org                      |
|    \\/     M anipulation  |                                                 |
\*---------------------------------------------------------------------------*/
FoamFile
{
    version     2.0;
    format      ascii;
    class       volVectorField;
    location    "28.5";
    object      Us;
}
// * * * * * * * * * * * * * * * * * * * * * * * * * * * * * * * * * * * * * //

dimensions      [0 1 -1 0 0 0 0];

internalField   nonuniform List<vector> 
114
(
(9.31459e-09 -1.28214e-09 -7.73927e-09)
(1.64229e-08 -2.99627e-09 -8.40439e-09)
(2.12285e-08 -3.89493e-09 -1.16935e-08)
(2.61793e-08 -2.87908e-09 -1.42278e-08)
(2.32516e-08 -5.39511e-09 -1.2999e-08)
(2.27088e-08 -4.64082e-09 -1.14187e-08)
(-6.12419e-09 1.77397e-09 -1.99897e-09)
(2.62801e-09 -7.41178e-10 -4.44142e-09)
(5.16633e-09 -5.43348e-10 -6.43196e-09)
(7.97534e-09 -5.5276e-10 -8.21329e-09)
(1.17638e-08 7.98698e-10 -9.75226e-09)
(1.88987e-08 -2.63891e-09 -1.19289e-08)
(2.34106e-08 -3.11787e-09 -1.22575e-08)
(2.1633e-08 -6.70678e-09 -1.19813e-08)
(2.18022e-08 -7.7799e-10 -1.03808e-08)
(2.42224e-10 1.38559e-10 -2.45173e-09)
(1.71081e-09 4.22791e-10 -3.64486e-09)
(4.51809e-09 2.87041e-11 -5.52311e-09)
(8.7125e-09 3.01545e-10 -4.88341e-09)
(1.16626e-08 1.0121e-09 -6.43514e-09)
(1.71436e-08 -8.3885e-10 -8.82825e-09)
(2.22595e-08 4.46899e-09 -8.58202e-09)
(2.46477e-08 -1.75619e-09 -8.36828e-09)
(2.1646e-08 7.30541e-10 -6.012e-09)
(-2.44942e-09 2.40118e-10 -1.61574e-09)
(7.91616e-10 1.63294e-10 -2.31048e-09)
(1.60207e-09 9.58011e-11 -2.6323e-09)
(5.28387e-09 -2.27843e-09 -3.24869e-09)
(6.46547e-09 1.71561e-09 -4.70999e-09)
(8.14057e-09 -1.24525e-10 -4.89577e-09)
(1.4552e-08 3.5589e-09 -2.88058e-09)
(1.711e-08 1.71813e-09 -6.53096e-09)
(1.6961e-08 -6.06857e-10 -3.74431e-09)
(1.99368e-08 -2.70699e-09 -1.31933e-08)
(2.15755e-08 -2.32932e-09 -1.57244e-08)
(2.11759e-08 -3.72466e-09 -1.23522e-08)
(2.04863e-08 -3.24777e-09 -1.29755e-08)
(6.79873e-10 -1.68487e-10 -1.93029e-09)
(3.11188e-09 -5.87046e-10 -4.15378e-09)
(5.45656e-09 -4.30674e-10 -6.34139e-09)
(9.05081e-09 -1.26071e-09 -7.97151e-09)
(1.16472e-08 -2.44116e-10 -1.01149e-08)
(1.76493e-08 -7.49756e-10 -1.29388e-08)
(2.1024e-08 -4.32956e-10 -1.2312e-08)
(1.9525e-08 -4.28027e-09 -1.19021e-08)
(2.06574e-08 -1.36953e-09 -1.14437e-08)
(9.09463e-10 -2.91644e-10 -2.12251e-09)
(2.21437e-09 -5.48445e-10 -3.088e-09)
(4.55977e-09 -3.04102e-10 -5.53045e-09)
(6.95157e-09 -5.17083e-11 -5.88146e-09)
(9.64588e-09 -2.66258e-10 -7.85217e-09)
(1.4455e-08 -7.53847e-10 -7.82282e-09)
(1.97169e-08 -2.96287e-10 -8.99916e-09)
(2.0653e-08 -1.05582e-09 -8.15189e-09)
(2.1527e-08 3.15026e-10 -6.82568e-09)
(1.53073e-10 -2.20325e-10 -1.17287e-09)
(9.38513e-10 -2.21035e-10 -1.92926e-09)
(2.02877e-09 -1.55307e-10 -2.50712e-09)
(3.93205e-09 -2.02495e-12 -2.79169e-09)
(5.55626e-09 1.2479e-10 -4.66963e-09)
(7.08114e-09 1.14588e-10 -4.15783e-09)
(1.10498e-08 3.46118e-10 -2.93938e-09)
(1.24403e-08 1.37194e-11 -4.15302e-09)
(1.10235e-08 6.55361e-11 -1.5981e-09)
(1.45497e-08 -4.73507e-09 -1.5249e-08)
(1.60066e-08 -1.45086e-09 -1.46699e-08)
(2.85945e-10 4.87629e-11 -2.44386e-09)
(1.98587e-09 -2.62215e-10 -4.80214e-09)
(4.14342e-09 -4.43753e-10 -6.78003e-09)
(6.37046e-09 -9.55355e-10 -8.38532e-09)
(1.05447e-08 -1.09622e-09 -1.05097e-08)
(1.32217e-08 -6.02465e-10 -1.18051e-08)
(1.5426e-08 1.38318e-09 -1.14226e-08)
(1.55284e-08 -3.65787e-09 -1.15521e-08)
(1.73085e-08 -2.98928e-09 -1.13578e-08)
(5.71331e-10 -1.21873e-11 -1.50658e-09)
(2.49271e-09 8.82005e-11 -4.76032e-09)
(4.5504e-09 -4.78628e-10 -5.91016e-09)
(5.56061e-09 -3.83873e-10 -6.6045e-09)
(8.50773e-09 -8.14603e-11 -8.49051e-09)
(1.23024e-08 -5.73413e-10 -8.00464e-09)
(1.53833e-08 2.68552e-10 -7.2525e-09)
(1.6394e-08 -9.20534e-10 -8.6909e-09)
(1.84005e-08 7.35858e-10 -8.0055e-09)
(1.59122e-10 -1.94751e-10 -1.32786e-09)
(1.64242e-09 -2.46057e-10 -2.61506e-09)
(2.19236e-09 -1.60222e-10 -2.80807e-09)
(5.03523e-09 1.75577e-10 -4.06328e-09)
(4.69331e-09 -6.27923e-10 -4.14817e-09)
(5.88287e-09 -9.00452e-10 -3.84412e-09)
(8.58854e-09 -1.47913e-09 -5.14696e-09)
(9.95889e-09 -1.5384e-09 -4.0517e-09)
(1.20428e-08 8.11179e-10 -4.00733e-09)
(8.24492e-11 2.66607e-10 -2.11153e-09)
(4.99775e-10 8.83004e-10 -4.82299e-09)
(1.1947e-09 6.92247e-10 -6.70475e-09)
(2.19852e-09 4.36393e-10 -7.4458e-09)
(5.06794e-09 -5.05925e-10 -9.49666e-09)
(6.29625e-09 6.1715e-10 -9.00248e-09)
(9.4153e-09 1.84103e-09 -8.9656e-09)
(8.7198e-09 1.75405e-09 -9.12399e-09)
(1.84642e-10 1.63181e-10 -1.33357e-09)
(1.3621e-09 5.05391e-10 -4.37677e-09)
(1.6797e-09 5.52893e-10 -4.69898e-09)
(2.83308e-09 -3.13881e-10 -5.88267e-09)
(5.22519e-09 1.84809e-10 -7.49365e-09)
(7.73975e-09 -2.6925e-10 -7.30941e-09)
(9.25953e-09 2.64079e-10 -5.68628e-09)
(2.14121e-10 -4.52572e-11 -8.75662e-10)
(1.25957e-09 -3.69482e-10 -2.46749e-09)
(2.15359e-09 -1.91779e-10 -3.51516e-09)
(2.29136e-09 -1.17368e-10 -2.9713e-09)
(3.0121e-09 -3.88426e-10 -3.93855e-09)
(3.91608e-09 -4.47802e-10 -3.10108e-09)
)
;

boundaryField
{
    inlet
    {
        type            zeroGradient;
    }
    outlet
    {
        type            zeroGradient;
    }
    wall
    {
        type            zeroGradient;
    }
    procBoundary2to0
    {
        type            processor;
        value           nonuniform List<vector> 
44
(
(1.19526e-08 -1.18516e-09 -7.25293e-09)
(1.59611e-08 -3.1446e-09 -8.49095e-09)
(2.03357e-08 -6.07955e-09 -1.41895e-08)
(2.54551e-08 -6.4682e-09 -1.7379e-08)
(2.58572e-08 -8.52467e-09 -1.41629e-08)
(1.7301e-08 -3.54552e-09 -9.50374e-09)
(1.55294e-10 2.02839e-10 -1.84965e-09)
(3.99272e-09 -5.54447e-10 -4.28299e-09)
(5.86585e-09 -9.98587e-10 -5.70048e-09)
(5.86585e-09 -9.98587e-10 -5.70048e-09)
(1.27738e-08 -1.87797e-09 -7.60719e-09)
(1.56176e-08 -1.0757e-09 -1.18846e-08)
(2.14617e-08 -4.08254e-09 -1.3384e-08)
(2.24622e-08 -5.93441e-09 -1.66321e-08)
(1.98612e-08 -5.084e-09 -1.45653e-08)
(1.58193e-08 -1.29492e-09 -1.25022e-08)
(1.51244e-09 2.33088e-13 -2.14019e-09)
(4.37288e-09 -3.02347e-10 -3.8721e-09)
(7.3811e-09 -4.33117e-10 -6.37864e-09)
(1.27738e-08 -1.87797e-09 -7.60719e-09)
(1.56176e-08 -1.0757e-09 -1.18846e-08)
(1.56176e-08 -1.0757e-09 -1.18846e-08)
(1.5333e-08 -2.14456e-09 -1.5054e-08)
(1.42467e-08 -3.35185e-10 -1.51955e-08)
(1.13194e-08 -7.58336e-10 -1.43534e-08)
(7.85679e-09 2.29257e-09 -9.76585e-09)
(9.91539e-10 -1.24067e-10 -2.56589e-09)
(4.04274e-09 -1.30636e-09 -5.29012e-09)
(7.16342e-09 -4.17136e-10 -7.37266e-09)
(1.03825e-08 -2.55847e-09 -8.92924e-09)
(1.57278e-08 -1.97545e-09 -1.29893e-08)
(1.5333e-08 -2.14456e-09 -1.5054e-08)
(1.42467e-08 -3.35185e-10 -1.51955e-08)
(1.42467e-08 -3.35185e-10 -1.51955e-08)
(2.88974e-09 5.25087e-10 -1.1575e-08)
(1.10331e-08 -1.49742e-09 -1.17183e-08)
(-2.547e-10 -3.15233e-10 -2.72474e-09)
(1.1571e-09 -3.54562e-10 -4.98831e-09)
(-4.56355e-10 -8.8798e-12 -6.21707e-09)
(-1.09783e-09 1.20981e-10 -9.03877e-09)
(3.54306e-10 -4.60626e-10 -1.19637e-08)
(4.00315e-09 -4.24132e-10 -1.40429e-08)
(3.53124e-09 1.22069e-09 -1.32544e-08)
(2.88974e-09 5.25087e-10 -1.1575e-08)
)
;
    }
    procBoundary2to3
    {
        type            processor;
        value           nonuniform List<vector> 
12
(
(2.83821e-08 -8.28066e-10 -1.06631e-08)
(2.7222e-08 3.25061e-09 -9.65224e-09)
(2.65033e-08 -5.12936e-09 -5.72308e-09)
(1.53161e-08 2.92294e-09 -4.20945e-09)
(2.61263e-08 1.54586e-09 -1.18651e-08)
(2.34676e-08 -2.47632e-10 -1.17886e-08)
(2.42707e-08 8.67301e-10 -7.26267e-09)
(1.78988e-08 1.37406e-09 -3.51597e-09)
(1.66638e-08 2.89659e-09 -1.58841e-08)
(1.8796e-08 -1.87027e-09 -1.35175e-08)
(2.16817e-08 -2.56358e-09 -1.07465e-08)
(1.69287e-08 -2.93258e-09 -4.73433e-09)
)
;
    }
    procBoundary2to6
    {
        type            processor;
        value           nonuniform List<vector> 
32
(
(9.48204e-09 -2.57555e-10 -8.92538e-09)
(1.20925e-08 1.32569e-09 -7.23109e-09)
(1.37941e-08 8.59731e-10 -7.54476e-09)
(4.86352e-09 -7.77922e-10 -3.33127e-09)
(7.71159e-09 1.75651e-11 -3.83811e-09)
(5.36566e-09 2.74756e-10 -2.68851e-09)
(-4.99402e-11 1.52082e-10 -1.72508e-09)
(-1.46543e-10 2.59334e-10 -3.2303e-09)
(-1.20895e-09 3.34096e-10 -3.96406e-09)
(-1.40722e-09 1.47823e-10 -5.76059e-09)
(-1.49733e-10 -3.18892e-11 -8.19133e-09)
(2.81736e-09 5.97616e-10 -6.54801e-09)
(4.23771e-09 9.49311e-10 -6.9012e-09)
(9.48204e-09 -2.57555e-10 -8.92538e-09)
(1.20925e-08 1.32569e-09 -7.23109e-09)
(6.69307e-09 2.50577e-09 -7.08244e-09)
(7.02799e-10 6.20008e-11 -1.02585e-09)
(1.20978e-09 8.40156e-11 -2.73304e-09)
(3.57339e-10 2.37444e-10 -3.18577e-09)
(1.61139e-09 -9.95944e-11 -4.3007e-09)
(3.21152e-09 5.69862e-10 -4.99349e-09)
(4.77473e-09 3.27088e-11 -5.2162e-09)
(1.20925e-08 1.32569e-09 -7.23109e-09)
(4.86352e-09 -7.77922e-10 -3.33127e-09)
(6.47926e-09 5.96994e-10 -4.04614e-09)
(-1.49726e-12 -1.00686e-10 -4.50766e-10)
(1.03024e-09 -1.76144e-10 -2.0582e-09)
(5.76705e-10 -1.66888e-10 -1.53498e-09)
(1.31967e-09 -6.9258e-10 -2.34392e-09)
(1.5055e-09 -7.05444e-10 -2.08657e-09)
(4.86352e-09 -7.77922e-10 -3.33127e-09)
(3.38076e-09 -3.5407e-10 -2.73341e-09)
)
;
    }
}


// ************************************************************************* //
