/*--------------------------------*- C++ -*----------------------------------*\
  =========                 |
  \\      /  F ield         | OpenFOAM: The Open Source CFD Toolbox
   \\    /   O peration     | Website:  https://openfoam.org
    \\  /    A nd           | Version:  4.x
     \\/     M anipulation  |
\*---------------------------------------------------------------------------*/
FoamFile
{
    version     2.0;
    format      ascii;
    class       vectorField;
    location    0;
    object      v;
}
// * * * * * * * * * * * * * * * * * * * * * * * * * * * * * * * * * * * * * //

235
(
( 9.24074e-09 8.60819e-09 3.12556e-09 )  
( -1.27298e-08 1.0356e-08 2.60092e-08 )  
( -2.87027e-08 9.71371e-09 3.22315e-08 )  
( 2.81202e-09 1.03995e-08 1.03431e-08 )  
( -3.591e-09 6.10494e-09 6.73697e-09 )  
( -4.20816e-09 2.28942e-09 1.86073e-09 )  
( -5.63263e-09 9.60784e-09 5.67615e-09 )  
( -2.94588e-09 5.53318e-09 4.42809e-09 )  
( 7.39444e-10 1.36329e-09 2.14735e-09 )  
( -2.40216e-09 3.38343e-09 6.55029e-10 )  
( 1.39985e-09 -7.59413e-10 -2.19379e-09 )  
( 3.26503e-08 -9.11547e-09 -2.03807e-08 )  
( 1.26514e-08 1.69884e-08 1.05575e-08 )  
( 3.72396e-09 -2.23974e-08 -1.03282e-08 )  
( 4.69744e-09 1.97713e-09 -4.61449e-09 )  
( 1.26208e-08 6.90375e-09 9.51175e-09 )  
( 1.64472e-08 2.28138e-09 -7.11907e-11 )  
( 7.31619e-09 2.01579e-09 -7.12509e-09 )  
( 2.97957e-08 -7.58079e-09 -2.51822e-08 )  
( 4.2199e-08 -2.60302e-08 -5.0166e-08 )  
( 7.29442e-09 1.1363e-08 1.15005e-08 )  
( 1.39353e-08 -1.06853e-09 -1.07819e-08 )  
( 4.97511e-08 -8.25126e-09 -3.13888e-08 )  
( 4.75721e-09 1.01484e-08 5.54651e-09 )  
( 5.93452e-08 -2.1209e-08 -2.95071e-08 )  
( 4.41644e-09 1.23095e-08 2.4505e-08 )  
( 6.26043e-08 7.64885e-09 2.28217e-08 )  
( -2.45878e-08 -5.34513e-09 -2.56912e-08 )  
( -8.29537e-09 7.12682e-09 5.57537e-09 )  
( 4.37223e-08 -1.29746e-08 -1.44698e-08 )  
( 5.19486e-09 3.83944e-09 -1.13681e-10 )  
( -1.28277e-08 2.08876e-08 2.76143e-08 )  
( 1.58054e-09 -4.85681e-10 -1.87045e-08 )  
( 3.3153e-08 -4.99126e-09 -1.19493e-10 )  
( 3.97397e-08 -9.08768e-09 -2.65793e-08 )  
( 1.26496e-08 7.44432e-09 7.02912e-10 )  
( 5.70561e-08 -8.96213e-09 -3.79055e-08 )  
( 7.87329e-09 -3.02022e-09 -8.56455e-09 )  
( 1.19008e-08 5.42129e-10 -7.05885e-09 )  
( 4.74535e-08 -5.57398e-09 -1.18894e-08 )  
( 3.61524e-08 -9.09507e-09 -3.45792e-08 )  
( 1.63301e-08 -1.17181e-08 -5.86287e-08 )  
( 5.40516e-10 8.23879e-09 8.16827e-09 )  
( 1.31195e-08 1.26829e-08 1.98569e-09 )  
( 2.18194e-08 4.30831e-11 -1.91035e-08 )  
( 8.64942e-08 -3.00076e-08 -2.274e-08 )  
( 7.36357e-09 -6.70129e-09 -2.65355e-09 )  
( -8.7153e-09 2.17811e-08 1.41625e-07 )  
( 1.50425e-08 7.25013e-09 -3.21015e-09 )  
( 3.60367e-08 -1.75885e-08 -3.08544e-08 )  
( 9.6265e-08 -3.10359e-09 -7.06353e-08 )  
( 7.20025e-09 4.05658e-09 1.05963e-08 )  
( 3.81928e-08 2.67588e-09 -1.39565e-08 )  
( 6.33675e-09 2.56059e-09 -4.40416e-09 )  
( 6.3628e-08 -3.22872e-08 -2.71086e-08 )  
( -4.02798e-09 1.15372e-08 4.38493e-09 )  
( 2.54183e-08 3.24898e-09 -1.75921e-08 )  
( 5.69965e-09 1.21052e-09 -1.04956e-08 )  
( -2.31444e-08 -2.28045e-09 2.41712e-08 )  
( 9.0647e-09 6.30083e-09 2.38627e-09 )  
( 3.86913e-08 -3.98086e-08 -3.7859e-08 )  
( 1.03243e-08 9.06966e-09 2.08034e-09 )  
( -6.51164e-09 3.12573e-09 1.06015e-09 )  
( 4.26626e-08 -1.75866e-08 -2.6443e-08 )  
( 2.1074e-08 -6.21049e-09 -1.21726e-08 )  
( 1.54622e-08 3.83052e-09 -7.13443e-09 )  
( 3.68215e-08 -7.7968e-09 -1.40403e-08 )  
( 8.82004e-08 -3.79144e-08 -1.03895e-09 )  
( 3.34269e-09 9.18402e-09 1.49226e-08 )  
( 2.45399e-08 -1.10723e-08 -4.16077e-08 )  
( 8.96791e-09 1.24014e-08 1.36469e-08 )  
( 2.44026e-08 -8.44727e-09 -1.01974e-08 )  
( 1.6584e-08 1.08401e-09 -2.06367e-09 )  
( 2.48271e-10 2.81374e-09 -1.37809e-10 )  
( 5.97968e-08 -6.56072e-08 -3.93811e-08 )  
( 8.20801e-08 -7.56125e-08 -1.79012e-07 )  
( 9.35309e-08 -4.65451e-08 -1.19664e-07 )  
( 6.95239e-09 1.04731e-08 7.17421e-09 )  
( 3.96961e-08 9.66295e-09 -2.69719e-08 )  
( -2.282e-08 -3.88279e-09 6.79347e-08 )  
( 2.60231e-08 -1.03726e-08 -2.0459e-09 )  
( 1.26626e-08 2.38941e-09 1.21718e-08 )  
( -1.25288e-08 8.67839e-10 1.67405e-09 )  
( 9.256e-09 -1.1428e-10 -2.44063e-09 )  
( 4.68951e-08 -6.64233e-08 -6.27566e-08 )  
( -2.24326e-08 -1.28812e-07 -7.40972e-08 )  
( 3.19421e-08 -3.96682e-09 -4.17992e-09 )  
( 1.26759e-08 1.18646e-08 1.01007e-08 )  
( -3.14646e-08 1.60195e-08 5.05336e-08 )  
( 4.71193e-08 -1.24538e-08 -3.35112e-08 )  
( 7.76758e-09 1.46357e-08 2.5092e-08 )  
( 2.88052e-08 -5.98854e-09 -1.32806e-08 )  
( 6.31211e-09 -1.68576e-09 -3.10797e-09 )  
( 9.1652e-09 -1.85253e-09 -1.01585e-08 )  
( 1.01388e-10 6.61607e-09 6.12334e-09 )  
( 1.25341e-08 1.31923e-08 2.6367e-08 )  
( 1.50668e-08 2.594e-10 -2.54399e-09 )  
( 1.98439e-08 -2.14489e-08 -2.2324e-08 )  
( 4.66997e-08 -1.82146e-08 -3.07747e-08 )  
( 1.1597e-08 4.17887e-10 9.92903e-10 )  
( 3.35969e-08 -8.23874e-09 -1.74124e-09 )  
( 2.31613e-09 6.98782e-09 7.73689e-08 )  
( 1.219e-08 8.67312e-09 4.92692e-09 )  
( 1.73035e-08 4.22215e-08 1.16144e-07 )  
( 2.04646e-08 -1.23231e-08 -1.45731e-08 )  
( -3.17141e-09 -4.27246e-09 -6.81113e-09 )  
( 3.4032e-08 -3.02233e-08 -5.37569e-08 )  
( 5.24533e-08 -1.41905e-08 -6.50526e-09 )  
( 8.58009e-10 -3.40278e-09 -1.75138e-08 )  
( 4.50417e-09 1.6473e-08 1.51119e-08 )  
( -6.60774e-09 9.51805e-09 -2.34747e-08 )  
( 3.91762e-08 -6.00607e-09 -3.32362e-08 )  
( 8.26624e-08 -1.86926e-08 -3.86551e-08 )  
( 2.39026e-08 6.79336e-09 4.34369e-10 )  
( 7.737e-06 2.3773e-07 -4.39169e-07 )  
( -5.00067e-09 -6.87449e-09 -2.22947e-08 )  
( 7.65255e-08 -1.23895e-08 -1.59872e-08 )  
( 5.59145e-09 9.59051e-10 -9.28012e-10 )  
( 2.63913e-08 -3.98254e-09 -1.38075e-08 )  
( -1.3803e-08 1.7277e-08 1.78319e-08 )  
( 5.30089e-08 -1.36351e-08 -2.67174e-08 )  
( -1.04046e-08 1.19197e-08 2.2372e-08 )  
( 6.0082e-09 9.14153e-09 8.15585e-09 )  
( 5.0857e-09 3.13638e-09 -2.50897e-09 )  
( 3.7052e-09 3.14191e-09 1.96957e-08 )  
( 2.64997e-08 -1.5225e-08 -6.21253e-09 )  
( 5.82758e-09 -2.61751e-09 2.68893e-09 )  
( 3.99668e-08 -1.74202e-08 -2.5429e-08 )  
( 3.94144e-09 2.6799e-09 5.15069e-09 )  
( 4.23164e-09 3.82118e-09 1.57015e-09 )  
( 5.77394e-08 -1.05376e-08 -8.42522e-08 )  
( -1.16852e-08 4.44729e-09 4.01711e-08 )  
( -2.5129e-08 8.1424e-09 3.14278e-08 )  
( 1.92266e-07 -1.1488e-07 -1.87267e-08 )  
( 1.87805e-08 2.33593e-08 3.52218e-08 )  
( -5.61287e-09 3.00891e-09 3.15035e-09 )  
( 2.31491e-08 -3.1724e-09 -1.00033e-08 )  
( 8.26949e-10 -1.79052e-08 -9.61088e-10 )  
( -2.49392e-09 1.3839e-08 -3.09205e-09 )  
( 3.41335e-08 -8.84298e-10 -4.68601e-08 )  
( -4.06862e-09 -2.16648e-09 -5.91197e-09 )  
( 1.93746e-08 -8.26546e-10 -9.28424e-10 )  
( 1.1647e-08 7.52605e-09 9.26256e-09 )  
( 5.21546e-09 -7.65454e-09 -1.03949e-08 )  
( 9.55787e-09 2.21171e-09 -9.49756e-09 )  
( -1.33678e-08 -1.22809e-08 -2.44085e-08 )  
( 9.19447e-09 5.61253e-09 6.02788e-10 )  
( -1.29148e-09 7.17992e-09 6.65062e-09 )  
( 1.48318e-08 8.24388e-09 -1.05836e-08 )  
( 6.38263e-09 -2.83252e-09 -1.08926e-08 )  
( -7.19732e-09 -3.69612e-10 3.99642e-09 )  
( 6.07211e-09 4.83656e-10 -1.72608e-08 )  
( 8.09908e-09 5.75352e-09 7.07189e-09 )  
( 9.14783e-09 -6.39695e-09 -2.48303e-08 )  
( -3.71164e-09 2.4615e-09 4.35555e-09 )  
( 4.24952e-09 4.81043e-10 -9.40969e-09 )  
( -3.19844e-09 5.80022e-09 4.77211e-09 )  
( 1.49786e-09 1.84681e-09 -1.76281e-09 )  
( 9.00608e-09 -4.11146e-09 -9.36473e-09 )  
( 4.21572e-09 -1.37839e-09 -1.08946e-09 )  
( 8.05374e-09 8.08443e-09 3.3717e-09 )  
( -2.76183e-09 4.68543e-09 -9.02896e-09 )  
( -6.10582e-10 1.80536e-09 1.83538e-09 )  
( 1.17165e-09 8.11896e-09 6.95431e-09 )  
( -3.2281e-09 5.68798e-09 4.92456e-09 )  
( 1.22371e-08 5.26013e-09 -9.10921e-10 )  
( -2.5256e-09 4.37631e-09 4.36843e-09 )  
( -3.65856e-09 9.54793e-09 8.90263e-09 )  
( 7.99974e-10 3.47369e-09 5.42251e-09 )  
( 1.49339e-08 -2.64375e-09 -7.49938e-09 )  
( -3.18182e-09 2.5015e-09 2.28283e-09 )  
( -2.43215e-09 1.65446e-09 -8.06329e-09 )  
( -2.42902e-09 6.31548e-09 2.5095e-09 )  
( 1.54138e-08 -4.75031e-09 -1.35219e-08 )  
( 1.65229e-08 2.71088e-09 -2.39424e-08 )  
( -9.66867e-10 1.3468e-09 1.48991e-09 )  
( 1.3718e-08 5.3022e-09 -4.0285e-09 )  
( 8.34244e-10 8.43141e-09 5.58363e-09 )  
( 2.25891e-08 2.74499e-09 -1.15976e-08 )  
( 2.48532e-08 -4.69318e-09 -2.04553e-08 )  
( -1.17963e-09 1.15854e-08 1.88414e-08 )  
( 2.06764e-08 -6.69189e-09 -3.70306e-08 )  
( 9.88322e-10 7.54765e-09 5.0571e-09 )  
( 7.40228e-08 -3.22816e-08 -1.72038e-08 )  
( -6.11021e-08 -1.2321e-07 -1.45134e-07 )  
( -3.81845e-12 1.44868e-09 1.72913e-09 )  
( 9.15992e-09 -2.09174e-09 -1.45364e-08 )  
( -3.624e-09 2.1073e-09 -1.15955e-08 )  
( 2.64693e-09 9.48556e-09 1.60619e-08 )  
( 6.77974e-08 -2.39385e-08 -3.6129e-08 )  
( 2.66743e-08 -2.94376e-08 -7.26697e-08 )  
( -1.17549e-08 3.89638e-09 3.55904e-09 )  
( -2.74996e-08 1.55648e-08 2.17147e-08 )  
( 2.01685e-08 1.41308e-08 2.51426e-09 )  
( 1.00419e-08 -7.62486e-10 -1.43172e-08 )  
( 1.09661e-08 3.04624e-09 -3.10136e-09 )  
( 5.71381e-08 -4.04982e-08 -6.79132e-08 )  
( -3.83537e-09 1.19058e-08 -2.62235e-08 )  
( 8.03774e-10 1.44609e-09 -5.74921e-09 )  
( -3.74482e-09 8.64778e-09 6.05846e-09 )  
( 4.49141e-09 2.52309e-09 1.64247e-09 )  
( 3.28269e-09 2.57506e-09 -1.56489e-09 )  
( -9.45777e-09 4.55899e-09 5.82339e-09 )  
( 8.92836e-09 9.08583e-09 8.98326e-09 )  
( -3.45179e-09 7.10389e-09 6.1517e-09 )  
( 5.05437e-09 6.91235e-09 1.77891e-08 )  
( -2.41792e-09 7.78187e-09 5.02408e-09 )  
( -3.69855e-09 3.50747e-09 -2.15931e-08 )  
( 4.45332e-09 2.18686e-09 -1.12684e-08 )  
( 7.42609e-09 5.61729e-09 6.61018e-10 )  
( 1.5108e-08 1.73625e-08 -2.50375e-08 )  
( 2.34438e-09 6.52241e-10 -7.57782e-10 )  
( 7.15845e-09 -1.29999e-10 -1.20433e-08 )  
( 3.63044e-09 -1.39453e-08 5.06324e-08 )  
( 6.54224e-09 1.05385e-08 1.95067e-08 )  
( -1.6997e-08 3.58938e-09 9.14915e-10 )  
( 9.90642e-08 -6.27426e-08 -2.91432e-08 )  
( -7.91184e-08 -1.67719e-07 -2.46466e-07 )  
( 4.20752e-08 -1.17938e-08 -4.39754e-09 )  
( -4.59932e-08 3.49506e-08 6.46136e-08 )  
( 6.99251e-08 -8.00529e-08 -6.54802e-08 )  
( 4.79798e-08 -1.20503e-08 -4.01296e-09 )  
( 1.65393e-08 2.61913e-09 -2.85533e-09 )  
( 2.78467e-08 7.53832e-09 -1.11347e-08 )  
( -1.3322e-08 2.82662e-08 1.11745e-08 )  
( -4.36366e-09 3.84977e-09 2.5111e-08 )  
( -3.53457e-08 1.62365e-08 6.51996e-08 )  
( 1.11998e-09 -1.23237e-08 2.75768e-08 )  
( -3.17252e-08 1.50633e-09 5.74387e-09 )  
( -4.1022e-07 5.63904e-06 3.58019e-07 )  
( -9.55051e-09 -9.84479e-10 1.29223e-09 )  
( -4.64208e-08 -3.23147e-09 1.11716e-08 )  
( 7.51441e-09 7.00381e-09 -2.06146e-09 )  
( 9.93924e-09 -1.73839e-09 1.53732e-08 )  
( 9.60398e-09 7.42411e-09 9.04484e-09 )  
)
