/*--------------------------------*- C++ -*----------------------------------*\
| =========                 |                                                 |
| \\      /  F ield         | OpenFOAM: The Open Source CFD Toolbox           |
|  \\    /   O peration     | Version:  4.x                                   |
|   \\  /    A nd           | Web:      www.OpenFOAM.org                      |
|    \\/     M anipulation  |                                                 |
\*---------------------------------------------------------------------------*/
FoamFile
{
    version     2.0;
    format      ascii;
    class       volScalarField;
    location    "23.5";
    object      KslPrev;
}
// * * * * * * * * * * * * * * * * * * * * * * * * * * * * * * * * * * * * * //

dimensions      [1 -3 -1 0 0 0 0];

internalField   nonuniform List<scalar> 
114
(
6011.75
3222.43
5310.79
3102.29
4842.33
2939.39
3494.73
7480.18
3408.72
6485.65
3336.21
5897.79
3235.91
5496.28
3098.57
3435.76
7088.83
3304.66
5904.18
3207.16
5291.68
3098.38
4932.8
2984.89
3377.81
6385.49
3156.37
5069.2
2958.03
4356.36
2775.49
3933.81
2657.81
11426.4
3821.23
13170.9
3742.6
3543.67
8796
3681.79
9838.7
3762.61
11016.9
3773.3
12457
3667.86
3504.86
8427.6
3624.25
8858.19
3650.05
9302.34
3654.1
10178.3
3610.41
3424.96
7059.17
3369.95
6185.38
3230.83
5618.35
3128.83
5254.83
2997.88
52336.4
3956.44
3591.26
9589.74
3814.82
12857.8
3929.24
18378.7
3977.25
30558.1
3943.81
3529.34
9146.88
3745.4
11476.7
3849.92
14806.9
3914.55
22704.2
3919.89
3451.71
7597.1
3471
7156.15
3394.22
6719.27
3380.45
6556.6
3293.2
3612.35
9783.26
3845.65
12597.9
3881.83
15396.1
3845.57
18668.3
3561.07
9038.07
3771.03
10738.6
3820.92
12427.2
3796.26
3448.33
7381.96
3472.13
7006.38
3406.32
6617.99
)
;

boundaryField
{
    inlet
    {
        type            zeroGradient;
    }
    outlet
    {
        type            zeroGradient;
    }
    wall
    {
        type            zeroGradient;
    }
    procBoundary2to0
    {
        type            processor;
        value           uniform 0;
    }
    procBoundary2to3
    {
        type            processor;
        value           uniform 0;
    }
    procBoundary2to6
    {
        type            processor;
        value           uniform 0;
    }
}


// ************************************************************************* //
