/*--------------------------------*- C++ -*----------------------------------*\
| =========                 |                                                 |
| \\      /  F ield         | OpenFOAM: The Open Source CFD Toolbox           |
|  \\    /   O peration     | Version:  4.x                                   |
|   \\  /    A nd           | Web:      www.OpenFOAM.org                      |
|    \\/     M anipulation  |                                                 |
\*---------------------------------------------------------------------------*/
FoamFile
{
    version     2.0;
    format      ascii;
    class       volScalarField;
    location    "23.5";
    object      p_rgh;
}
// * * * * * * * * * * * * * * * * * * * * * * * * * * * * * * * * * * * * * //

dimensions      [1 -1 -2 0 0 0 0];

internalField   nonuniform List<scalar> 
114
(
75.1222
94.0743
57.6335
86.5689
39.626
79.2027
108.632
91.9819
101.418
75.135
94.0863
57.732
86.6387
39.863
79.2433
108.445
91.9779
101.3
75.0363
93.9591
57.6759
86.6151
39.9646
79.428
108.078
91.8092
100.989
74.9226
93.6593
57.6591
86.3305
40.0143
79.0522
57.7885
87.1102
39.6425
79.6958
109.316
92.4198
102.07
75.3466
94.5836
57.8291
87.034
39.7007
79.6079
109.224
92.4009
101.957
75.2128
94.4572
57.7117
86.9508
39.7891
79.5885
108.701
92.1336
101.469
75.0541
93.9959
57.6574
86.5361
39.8379
79.2226
40.6408
79.9963
110.336
93.0445
103.029
76.0676
95.3848
58.7127
87.6329
40.9344
80.0041
110.148
93.0884
102.897
75.9177
95.237
58.4836
87.6371
40.734
80.0682
109.599
92.7315
102.271
75.6573
94.6681
58.418
87.0716
40.6512
79.6334
110.751
93.3624
103.096
76.0468
95.2352
58.496
87.4351
40.7313
110.582
93.3089
103.005
76.0358
95.1775
58.5096
87.3377
109.922
92.9417
102.408
75.7735
94.6418
58.2635
)
;

boundaryField
{
    inlet
    {
        type            fixedFluxPressure;
        gradient        nonuniform List<scalar> 
12
(
-0.00444731
-0.00709792
-0.00905053
-0.0019094
-0.00270812
-0.00335914
-0.000620062
-0.000799047
-0.000925501
8.48175e-07
6.76054e-07
5.62928e-08
)
;
        value           nonuniform List<scalar> 
12
(
108.632
108.445
108.078
109.316
109.224
108.7
110.336
110.148
109.599
110.751
110.582
109.922
)
;
    }
    outlet
    {
        type            fixedValue;
        value           nonuniform 0();
    }
    wall
    {
        type            fixedFluxPressure;
        gradient        nonuniform List<scalar> 
66
(
-5.55828e-06
-4.57227e-06
-2.95506e-06
-2.47767e-05
-2.01639e-05
-1.09885e-05
-1.65172e-05
-1.26567e-05
-3.42646e-06
-3.67938e-05
-4.00804e-05
-2.57894e-05
-9.27704e-06
-2.86044e-05
-2.61061e-05
-1.81646e-05
-1.11158e-05
-6.34077e-05
-5.72965e-05
-3.24212e-05
-1.57523e-05
-4.02216e-05
-3.47898e-05
-2.36561e-05
-1.19471e-05
-6.82392e-05
-6.14842e-05
-4.05792e-05
-2.81309e-05
-4.36878e-05
-3.04535e-05
-2.55781e-05
-1.58341e-05
1.19861e-06
1.14288e-06
1.08852e-06
6.04322e-07
3.451e-06
4.44231e-06
5.43782e-06
7.34452e-06
2.20096e-06
2.4081e-06
3.68504e-06
6.30701e-06
-3.24297e-05
5.5744e-06
7.80574e-06
9.1392e-06
-1.97099e-06
1.58917e-06
2.725e-06
5.00085e-06
9.1684e-07
1.3357e-06
8.06599e-06
8.35162e-06
-1.73161e-06
1.24181e-06
3.99542e-06
-3.32425e-05
-7.75608e-07
5.49082e-06
-6.47204e-06
-3.34203e-07
4.07518e-06
)
;
        value           nonuniform List<scalar> 
66
(
108.632
108.445
108.078
91.9819
91.9779
91.8092
101.418
101.3
100.989
75.1222
75.135
75.0363
74.9226
94.0743
94.0863
93.9591
93.6593
57.6335
57.732
57.6759
57.6591
86.5688
86.6387
86.6151
86.3305
39.626
39.863
39.9646
40.0143
79.2027
79.2433
79.428
79.0522
108.078
108.701
109.599
109.922
91.8092
92.1336
92.7315
92.9417
100.989
101.469
102.271
102.408
74.9226
75.0541
75.6573
75.7735
93.6593
93.9959
94.6681
94.6418
57.6591
57.6574
58.418
58.2635
86.3305
86.5361
87.0716
40.0143
39.8379
40.6512
79.0522
79.2226
79.6334
)
;
    }
    procBoundary2to0
    {
        type            processor;
        value           nonuniform List<scalar> 
44
(
75.1481
94.2453
57.8405
86.7217
40.0192
79.375
108.248
91.8329
101.37
101.37
75.4214
94.8002
57.937
87.2072
39.8477
79.9246
109.26
92.2544
102.117
75.4214
94.8002
94.8002
58.4579
87.6426
40.8145
80.0469
110.439
93.1115
103.166
76.0512
95.516
58.4579
87.6426
87.6426
41.3869
80.0956
110.898
93.599
103.456
76.3609
95.5834
58.9948
87.6634
41.3869
)
;
    }
    procBoundary2to3
    {
        type            processor;
        value           nonuniform List<scalar> 
12
(
21.5038
21.9123
22.0498
21.9423
21.5529
21.6713
21.6712
21.7018
23.0712
23.4514
22.9568
22.7804
)
;
    }
    procBoundary2to6
    {
        type            processor;
        value           nonuniform List<scalar> 
32
(
79.8667
40.6868
79.6853
86.9162
40.5262
79.4422
111.636
93.7962
103.952
76.8795
95.9786
59.4481
87.9315
79.8667
40.6868
42.1701
111.238
93.7803
103.676
76.6964
95.8266
59.2153
40.6868
86.9162
87.9698
110.559
93.4185
103.049
76.4812
95.3302
86.9162
59.0035
)
;
    }
}


// ************************************************************************* //
