/*--------------------------------*- C++ -*----------------------------------*\
| =========                 |                                                 |
| \\      /  F ield         | OpenFOAM: The Open Source CFD Toolbox           |
|  \\    /   O peration     | Version:  4.x                                   |
|   \\  /    A nd           | Web:      www.OpenFOAM.org                      |
|    \\/     M anipulation  |                                                 |
\*---------------------------------------------------------------------------*/
FoamFile
{
    version     2.0;
    format      ascii;
    class       volVectorField;
    location    "23.5";
    object      UsPrev;
}
// * * * * * * * * * * * * * * * * * * * * * * * * * * * * * * * * * * * * * //

dimensions      [0 1 -1 0 0 0 0];

internalField   nonuniform List<vector> 
114
(
(-7.64516e-10 1.19612e-09 2.98348e-09)
(-1.60307e-09 1.5455e-09 4.29196e-09)
(-2.58561e-09 1.8736e-09 5.75534e-09)
(-2.7052e-09 1.89078e-09 6.26197e-09)
(-1.68286e-09 2.31666e-09 6.8572e-09)
(7.40584e-10 -1.01226e-10 7.2198e-09)
(-2.53739e-09 1.79776e-09 7.42495e-10)
(-2.09368e-10 9.36099e-10 1.62856e-09)
(-1.0694e-09 1.08924e-09 2.3809e-09)
(-1.63146e-09 1.15065e-09 3.02355e-09)
(-2.49116e-09 1.13948e-09 3.79133e-09)
(-2.82757e-09 1.43753e-09 4.70954e-09)
(-3.23149e-09 1.66685e-09 5.18307e-09)
(-2.1803e-09 1.48599e-09 5.40108e-09)
(-1.47831e-09 3.61582e-10 4.75894e-09)
(-2.17029e-10 5.30351e-10 6.35003e-10)
(2.45826e-10 4.99574e-10 1.38773e-09)
(-8.66875e-10 8.09557e-10 1.87856e-09)
(-1.42201e-09 1.12008e-09 2.14204e-09)
(-1.96936e-09 1.02252e-09 2.76521e-09)
(-1.92508e-09 1.11415e-09 2.98598e-09)
(-2.88843e-09 2.3665e-11 3.70455e-09)
(-2.3352e-09 1.14859e-09 3.99079e-09)
(-1.56199e-09 2.94812e-10 4.14724e-09)
(-3.35222e-10 1.98108e-10 4.31936e-10)
(6.81549e-10 3.04318e-10 8.4951e-10)
(-4.35417e-11 3.73004e-10 5.36931e-10)
(2.1432e-09 -3.14755e-09 9.00587e-10)
(-8.51742e-10 -3.43764e-10 1.8531e-09)
(-1.6192e-10 7.98034e-11 1.7794e-09)
(-6.03076e-10 -3.36835e-10 2.11611e-09)
(-3.23375e-11 -4.17104e-09 3.49928e-09)
(1.36819e-10 -1.22394e-09 2.9103e-09)
(-2.27154e-09 1.8921e-09 5.18626e-09)
(-2.12842e-09 2.45051e-09 5.87168e-09)
(-7.97489e-10 2.40381e-09 6.06745e-09)
(7.97336e-10 2.29449e-09 5.58035e-09)
(-1.6736e-10 5.55766e-10 5.63108e-10)
(-5.01475e-10 9.87107e-10 1.55761e-09)
(-9.83323e-10 1.0837e-09 2.44912e-09)
(-1.72882e-09 1.28475e-09 3.01814e-09)
(-2.46339e-09 1.24322e-09 3.64149e-09)
(-2.60997e-09 1.28668e-09 4.39273e-09)
(-2.0855e-09 1.41787e-09 4.77194e-09)
(-8.917e-10 1.47073e-09 4.59146e-09)
(3.03852e-10 1.35772e-09 4.02078e-09)
(-2.90137e-10 5.18415e-10 6.97461e-10)
(-3.77767e-10 8.27204e-10 1.2754e-09)
(-9.76478e-10 1.00302e-09 2.18968e-09)
(-1.30812e-09 1.05931e-09 2.39433e-09)
(-1.59938e-09 8.51104e-10 2.89969e-09)
(-1.75728e-09 1.0678e-09 2.82016e-09)
(-1.86204e-09 9.86177e-10 3.44467e-09)
(-1.27918e-09 6.77189e-10 3.36091e-09)
(9.34507e-11 3.05101e-10 3.30937e-09)
(-5.50211e-11 2.0561e-10 4.59995e-10)
(-7.15406e-11 3.60349e-10 9.4305e-10)
(-4.49538e-10 3.83499e-10 1.26944e-09)
(-5.14418e-10 4.42045e-10 1.18816e-09)
(-7.12368e-10 2.27323e-10 1.70799e-09)
(-3.9994e-10 8.39434e-11 1.51946e-09)
(-5.58022e-10 1.53718e-10 2.04023e-09)
(-3.51207e-10 -1.01704e-10 1.98894e-09)
(-1.22122e-10 -7.27837e-11 1.31549e-09)
(-5.2087e-10 2.39242e-09 4.33631e-09)
(1.20512e-09 3.31599e-09 3.50562e-09)
(-1.15958e-10 4.02693e-10 8.12357e-10)
(-4.94262e-10 8.9482e-10 1.53515e-09)
(-1.16759e-09 1.20106e-09 2.45178e-09)
(-1.66611e-09 1.33589e-09 2.86758e-09)
(-2.33638e-09 1.46453e-09 3.53978e-09)
(-2.19975e-09 1.38733e-09 3.70932e-09)
(-2.25956e-09 1.37048e-09 3.68977e-09)
(-6.44681e-10 1.57801e-09 3.26437e-09)
(9.56101e-10 1.65073e-09 2.89815e-09)
(-1.46821e-10 4.02278e-10 5.74257e-10)
(-2.66513e-10 9.89032e-10 1.61774e-09)
(-1.07768e-09 1.18764e-09 2.19543e-09)
(-1.09098e-09 1.13974e-09 2.30745e-09)
(-1.51805e-09 1.06424e-09 2.85853e-09)
(-1.53987e-09 1.34716e-09 2.81659e-09)
(-1.70031e-09 8.57864e-10 3.01182e-09)
(-2.5672e-11 1.36587e-09 2.27247e-09)
(1.21256e-09 1.24567e-09 1.87464e-09)
(-1.04663e-10 1.905e-10 4.97361e-10)
(-1.61652e-10 3.88742e-10 1.08199e-09)
(-4.04958e-10 5.34225e-10 1.14287e-09)
(-5.98352e-10 5.27348e-10 1.44766e-09)
(-7.41655e-10 3.80819e-10 1.59627e-09)
(-3.53233e-10 5.50307e-10 1.64059e-09)
(-2.58925e-10 5.31718e-10 2.06283e-09)
(2.85483e-10 3.68186e-10 1.71706e-09)
(7.00954e-10 5.5571e-10 1.53621e-09)
(-1.4813e-10 4.59947e-10 8.25832e-10)
(-4.78571e-10 9.81582e-10 1.78467e-09)
(-1.25368e-09 1.29142e-09 2.45015e-09)
(-1.23585e-09 1.52682e-09 2.60144e-09)
(-1.78909e-09 1.7016e-09 2.98097e-09)
(-1.77753e-09 1.67495e-09 3.23407e-09)
(-1.79331e-09 1.80438e-09 2.95924e-09)
(-1.77531e-10 2.31957e-09 2.14032e-09)
(-1.4029e-10 3.32435e-10 5.63191e-10)
(-3.76906e-10 9.77958e-10 1.56263e-09)
(-5.3452e-10 1.21826e-09 1.83765e-09)
(-7.23934e-10 1.44813e-09 2.23657e-09)
(-1.10825e-09 1.38242e-09 2.54734e-09)
(-8.51487e-10 1.48712e-09 2.68171e-09)
(-3.98781e-10 9.38419e-10 2.43916e-09)
(6.46356e-12 1.08872e-10 3.91746e-10)
(-6.79176e-12 5.04412e-10 1.07236e-09)
(-2.38553e-10 8.88967e-10 1.47779e-09)
(-2.94102e-11 6.18623e-10 1.23637e-09)
(-4.91338e-10 6.80954e-10 1.58382e-09)
(2.42905e-10 5.78373e-10 1.30165e-09)
)
;

boundaryField
{
    inlet
    {
        type            calculated;
        value           uniform (0 0 0);
    }
    outlet
    {
        type            calculated;
        value           nonuniform 0();
    }
    wall
    {
        type            calculated;
        value           uniform (0 0 0);
    }
    procBoundary2to0
    {
        type            processor;
        value           uniform (0 0 0);
    }
    procBoundary2to3
    {
        type            processor;
        value           uniform (0 0 0);
    }
    procBoundary2to6
    {
        type            processor;
        value           uniform (0 0 0);
    }
}


// ************************************************************************* //
