/*--------------------------------*- C++ -*----------------------------------*\
| =========                 |                                                 |
| \\      /  F ield         | OpenFOAM: The Open Source CFD Toolbox           |
|  \\    /   O peration     | Version:  4.x                                   |
|   \\  /    A nd           | Web:      www.OpenFOAM.org                      |
|    \\/     M anipulation  |                                                 |
\*---------------------------------------------------------------------------*/
FoamFile
{
    version     2.0;
    format      ascii;
    class       volScalarField;
    location    "34.5";
    object      rho;
}
// * * * * * * * * * * * * * * * * * * * * * * * * * * * * * * * * * * * * * //

dimensions      [1 -3 0 0 0 0 0];

internalField   nonuniform List<scalar> 
114
(
6699.99
6699.99
6699.98
6699.96
6699.91
6699.34
6699.98
6699.95
6699.91
6699.85
6699.75
6699.61
6698.41
6699.97
6699.93
6699.87
6699.77
6699.64
6699.5
6699.32
6697.3
6700
6700
6700
6699.99
6699.99
6699.98
6699.95
6699.93
6696.79
6699.99
6699.98
6699.96
6699.93
6699.88
6699.83
6699.75
6699.72
6699.15
6699.99
6699.97
6699.94
6699.89
6699.82
6699.73
6699.64
6699.57
6699.48
6699.98
6699.96
6700
6700
6700
6700
6699.99
6699.99
6699.98
6699.97
6695.66
6700
6699.99
6699.99
6699.98
6699.96
6699.94
6699.9
6699.89
6699.09
6699.99
6699.99
6699.97
6699.95
6699.92
6699.87
6699.8
6699.78
6699.67
6699.99
6699.98
6699.96
6699.93
6700
6700
6700
6700
6699.99
6699.99
6699.99
6699.99
6720.14
6700
6700
6700
6700
6699.99
6699.99
6699.98
6699.97
6698.11
6700
6700
6700
6699.99
6699.99
6699.98
6699.95
6699.94
6697.45
6700
6700
6699.99
6699.99
6699.98
6699.97
)
;

boundaryField
{
    inlet
    {
        type            calculated;
        value           nonuniform 0();
    }
    outlet
    {
        type            calculated;
        value           uniform 6700;
    }
    wall
    {
        type            calculated;
        value           nonuniform List<scalar> 
66
(
6700
6700
6700
6700
6700
6700
6700
6700
6700
6700
6700
6699.99
6700
6700
6699.99
6699.99
6699.99
6699.99
6699.99
6699.98
6699.99
6699.99
6699.98
6699.97
6699.99
6699.98
6699.95
6699.99
6699.97
6699.94
6720.14
6698.11
6697.45
6700
6700
6700
6700
6700
6700
6700
6700
6700
6699.99
6699.99
6700
6700
6699.99
6699.99
6699.99
6699.99
6699.98
6699.98
6699.99
6699.99
6699.96
6699.95
6699.98
6699.99
6699.91
6699.93
6699.97
6699.99
6699.34
6696.79
6695.66
6720.14
)
;
    }
    procBoundary5to1
    {
        type            processor;
        value           nonuniform List<scalar> 
32
(
6699.99
6699.99
6699.98
6699.94
6699.93
6695.59
6699.95
6699.92
6699.85
6699.79
6699.65
6699.62
6695.02
6699.92
6699.84
6699.73
6699.59
6699.47
6699.3
6699.25
6697.3
6700
6700
6700
6700
6700
6699.99
6699.99
6699.99
6699.99
6699.99
6699.99
)
;
    }
    procBoundary5to4
    {
        type            processor;
        value           nonuniform List<scalar> 
12
(
6700
6700
6699.99
6699.99
6700
6700
6700
6700
6700
6700
6700
6700
)
;
    }
    procBoundary5to7
    {
        type            processor;
        value           nonuniform List<scalar> 
44
(
6699.96
6699.92
6699.84
6699.73
6699.55
6699.39
6699.16
6698.05
6699.98
6699.96
6699.92
6699.86
6699.77
6699.66
6699.55
6699.44
6699.57
6699.97
6699.92
6699.93
6699.92
6699.86
6699.87
6699.8
6699.72
6699.68
6699.71
6699.99
6699.98
6699.96
6699.87
6699.93
6699.87
6699.8
6699.93
6699.91
6697.41
6700
6700
6699.99
6699.99
6699.98
6699.93
6699.96
)
;
    }
}


// ************************************************************************* //
