/*--------------------------------*- C++ -*----------------------------------*\
| =========                 |                                                 |
| \\      /  F ield         | OpenFOAM: The Open Source CFD Toolbox           |
|  \\    /   O peration     | Version:  4.x                                   |
|   \\  /    A nd           | Web:      www.OpenFOAM.org                      |
|    \\/     M anipulation  |                                                 |
\*---------------------------------------------------------------------------*/
FoamFile
{
    version     2.0;
    format      ascii;
    class       volVectorField;
    location    "44";
    object      impParticleForces;
}
// * * * * * * * * * * * * * * * * * * * * * * * * * * * * * * * * * * * * * //

dimensions      [1 1 -2 0 0 0 0];

internalField   nonuniform List<vector> 
108
(
(0.00229566 -2.5754e-05 -5.43501e-05)
(0.00232254 -2.62425e-05 -5.42362e-05)
(0.00238109 -2.64183e-05 -5.32141e-05)
(0.00238926 -2.3271e-05 -5.01662e-05)
(0.00242168 -1.97472e-05 -4.64396e-05)
(0.00240408 -1.42069e-05 -4.17626e-05)
(0.00243332 -9.15003e-06 -3.67975e-05)
(0.00239924 -2.4915e-06 -3.12537e-05)
(0.00241601 3.4122e-06 -2.55083e-05)
(0.00234404 -2.44978e-05 -5.51873e-05)
(0.00237887 -2.54156e-05 -5.50238e-05)
(0.00244275 -2.61824e-05 -5.38984e-05)
(0.00244528 -2.27221e-05 -5.07966e-05)
(0.00246466 -1.90557e-05 -4.66032e-05)
(0.00243813 -1.34072e-05 -4.16338e-05)
(0.00245702 -8.61505e-06 -3.65422e-05)
(0.00241592 -2.24808e-06 -3.11498e-05)
(0.00244836 2.9923e-06 -2.5763e-05)
(0.0023655 -1.69454e-05 -5.5529e-05)
(0.00241182 -1.80099e-05 -5.57036e-05)
(0.00245691 -1.79203e-05 -5.37843e-05)
(0.00244823 -1.50503e-05 -5.0345e-05)
(0.00246254 -1.22776e-05 -4.58209e-05)
(0.00242772 -7.83248e-06 -4.08731e-05)
(0.00244226 -3.96837e-06 -3.59957e-05)
(0.0024124 3.4551e-07 -3.08763e-05)
(0.00241527 4.50453e-06 -2.58298e-05)
(0.00235301 -4.74989e-06 -5.52906e-05)
(0.00240378 -5.0783e-06 -5.51453e-05)
(0.00245631 -4.60266e-06 -5.36069e-05)
(0.00243595 -3.29005e-06 -4.99669e-05)
(0.00245946 -2.0195e-06 -4.57369e-05)
(0.002427 8.23594e-08 -4.09279e-05)
(0.00245144 2.11788e-06 -3.61182e-05)
(0.00239216 4.18996e-06 -3.10965e-05)
(0.00240013 6.14754e-06 -2.64427e-05)
(0.00228219 -2.53806e-05 -4.30768e-05)
(0.00230687 -2.56671e-05 -4.24167e-05)
(0.0023602 -2.53712e-05 -4.08253e-05)
(0.00237966 -2.27816e-05 -3.87459e-05)
(0.00241487 -1.94992e-05 -3.57159e-05)
(0.0023846 -1.43973e-05 -3.21088e-05)
(0.00240684 -9.99703e-06 -2.76991e-05)
(0.0023968 -5.21254e-06 -2.33044e-05)
(0.00241712 -1.03346e-06 -1.82084e-05)
(0.00233243 -2.43634e-05 -4.26658e-05)
(0.00235949 -2.47068e-05 -4.18972e-05)
(0.00241296 -2.47384e-05 -3.98688e-05)
(0.00241463 -2.14837e-05 -3.80424e-05)
(0.00244277 -1.83708e-05 -3.46831e-05)
(0.00241639 -1.33414e-05 -3.12878e-05)
(0.00243857 -9.41124e-06 -2.69534e-05)
(0.00242117 -4.87381e-06 -2.27804e-05)
(0.00244445 -1.19686e-06 -1.80197e-05)
(0.00233966 -1.63186e-05 -4.24117e-05)
(0.00238198 -1.71685e-05 -4.13785e-05)
(0.00244416 -1.74722e-05 -3.87758e-05)
(0.00243217 -1.46786e-05 -3.67492e-05)
(0.00245918 -1.23362e-05 -3.32672e-05)
(0.00242475 -8.46378e-06 -3.01451e-05)
(0.00243347 -5.20912e-06 -2.62099e-05)
(0.0024 -1.83207e-06 -2.26701e-05)
(0.00241783 8.93933e-07 -1.86366e-05)
(0.00235529 -4.90047e-06 -4.20964e-05)
(0.00239406 -4.95604e-06 -4.09417e-05)
(0.0024353 -4.53111e-06 -3.86287e-05)
(0.00243439 -3.42639e-06 -3.62215e-05)
(0.0024609 -2.45548e-06 -3.26238e-05)
(0.00242549 -8.51634e-07 -2.98418e-05)
(0.00244634 6.2262e-07 -2.59158e-05)
(0.00239112 2.06625e-06 -2.31817e-05)
(0.00239693 3.22667e-06 -1.9889e-05)
(0.00226109 -2.44362e-05 -3.69458e-05)
(0.00227319 -2.42928e-05 -3.61283e-05)
(0.00230231 -2.33116e-05 -3.46649e-05)
(0.00232245 -2.07496e-05 -3.28166e-05)
(0.00236705 -1.79193e-05 -2.97009e-05)
(0.0023664 -1.39218e-05 -2.65046e-05)
(0.00238921 -1.00616e-05 -2.21607e-05)
(0.00236998 -6.08123e-06 -1.84204e-05)
(0.00238026 -2.69397e-06 -1.3857e-05)
(0.00229521 -2.2748e-05 -3.63707e-05)
(0.00232409 -2.32127e-05 -3.51511e-05)
(0.00236491 -2.27624e-05 -3.31104e-05)
(0.00236173 -1.94886e-05 -3.16366e-05)
(0.00239898 -1.68226e-05 -2.85159e-05)
(0.00238851 -1.2764e-05 -2.56327e-05)
(0.00239788 -9.15573e-06 -2.17098e-05)
(0.00237968 -5.53842e-06 -1.82847e-05)
(0.00238964 -2.61172e-06 -1.42357e-05)
(0.00231509 -1.55601e-05 -3.57547e-05)
(0.00233837 -1.57865e-05 -3.44869e-05)
(0.0023864 -1.57531e-05 -3.20616e-05)
(0.00238007 -1.33364e-05 -3.04724e-05)
(0.00241029 -1.13086e-05 -2.73169e-05)
(0.00239028 -8.16329e-06 -2.48188e-05)
(0.00239521 -5.40592e-06 -2.12843e-05)
(0.00237386 -2.89108e-06 -1.83599e-05)
(0.0023733 -8.36371e-07 -1.50469e-05)
(0.00233485 -4.82492e-06 -3.52735e-05)
(0.00234361 -4.55719e-06 -3.42388e-05)
(0.00238802 -4.36582e-06 -3.18659e-05)
(0.00239148 -3.59235e-06 -2.99171e-05)
(0.00242104 -2.6758e-06 -2.67882e-05)
(0.00239675 -1.34772e-06 -2.45149e-05)
(0.00238355 -5.49132e-08 -2.18183e-05)
(0.00235817 9.39327e-07 -1.93709e-05)
(0.00236293 1.6078e-06 -1.65091e-05)
)
;

boundaryField
{
    inlet
    {
        type            zeroGradient;
    }
    outlet
    {
        type            zeroGradient;
    }
    wall
    {
        type            zeroGradient;
    }
    procBoundary4to0
    {
        type            processor;
        value           nonuniform List<vector> 
36
(
(0.00229843 -2.51253e-05 -6.75793e-05)
(0.00232835 -2.57223e-05 -6.80104e-05)
(0.00238638 -2.56756e-05 -6.76936e-05)
(0.00238504 -2.20883e-05 -6.30314e-05)
(0.0024224 -1.84112e-05 -5.89943e-05)
(0.00242116 -1.26444e-05 -5.33609e-05)
(0.00243868 -6.12074e-06 -4.75464e-05)
(0.00240468 2.58091e-06 -4.07896e-05)
(0.00242044 1.1562e-05 -3.46532e-05)
(0.00234236 -2.3743e-05 -6.97036e-05)
(0.00239321 -2.52789e-05 -7.10737e-05)
(0.00244501 -2.53265e-05 -7.02184e-05)
(0.0024445 -2.15908e-05 -6.55083e-05)
(0.00246224 -1.76165e-05 -6.03433e-05)
(0.00244656 -1.1661e-05 -5.37975e-05)
(0.00248198 -6.11236e-06 -4.83729e-05)
(0.00243357 1.91742e-06 -4.11853e-05)
(0.00244817 9.93174e-06 -3.50957e-05)
(0.00236257 -1.62321e-05 -7.07177e-05)
(0.00239675 -1.66675e-05 -7.13351e-05)
(0.00246186 -1.68438e-05 -7.11976e-05)
(0.00244697 -1.3856e-05 -6.56797e-05)
(0.00247308 -1.10633e-05 -6.06912e-05)
(0.00245083 -6.40305e-06 -5.36371e-05)
(0.00246761 -1.59502e-06 -4.75641e-05)
(0.00241312 3.82987e-06 -4.02256e-05)
(0.00242992 9.30196e-06 -3.41181e-05)
(0.00236106 -4.58562e-06 -7.06553e-05)
(0.0024057 -4.41785e-06 -7.19218e-05)
(0.0024718 -3.82919e-06 -7.18459e-05)
(0.00246138 -2.347e-06 -6.65609e-05)
(0.00246408 -6.58207e-07 -6.05945e-05)
(0.00245106 1.35755e-06 -5.38965e-05)
(0.0024621 3.72417e-06 -4.75717e-05)
(0.00240502 6.65543e-06 -4.01878e-05)
(0.00239951 9.58671e-06 -3.39294e-05)
)
;
    }
    procBoundary4to5
    {
        type            processor;
        value           nonuniform List<vector> 
12
(
(0.00238826 9.42658e-06 -2.03031e-05)
(0.00241556 8.29756e-06 -2.06011e-05)
(0.00239454 7.96413e-06 -2.10928e-05)
(0.00238711 7.74927e-06 -2.21669e-05)
(0.00238188 3.33841e-06 -1.43494e-05)
(0.00239979 2.76104e-06 -1.43647e-05)
(0.00238349 3.32799e-06 -1.52657e-05)
(0.00237351 4.12914e-06 -1.6739e-05)
(0.00233189 8.3116e-07 -1.09149e-05)
(0.00236695 6.77344e-08 -1.09211e-05)
(0.00235085 8.04845e-07 -1.2129e-05)
(0.00234527 1.93062e-06 -1.3926e-05)
)
;
    }
    procBoundary4to6
    {
        type            processor;
        value           nonuniform List<vector> 
27
(
(0.00238823 8.32494e-06 -5.58292e-05)
(0.00241297 8.66517e-06 -5.52934e-05)
(0.00243665 9.30387e-06 -5.34769e-05)
(0.0024325 9.04752e-06 -5.01426e-05)
(0.00245936 9.22111e-06 -4.64856e-05)
(0.00241912 8.60236e-06 -4.14445e-05)
(0.00243814 8.52479e-06 -3.68792e-05)
(0.00239443 8.30462e-06 -3.21869e-05)
(0.00241537 8.04029e-06 -2.7931e-05)
(0.00236402 7.84189e-06 -4.17395e-05)
(0.00239268 8.49763e-06 -4.08523e-05)
(0.00243247 9.08098e-06 -3.86236e-05)
(0.0024184 8.46962e-06 -3.6745e-05)
(0.00243193 8.24776e-06 -3.37538e-05)
(0.00241412 7.56068e-06 -3.08055e-05)
(0.00243453 7.32181e-06 -2.73561e-05)
(0.00238426 6.54174e-06 -2.45575e-05)
(0.00240804 6.00476e-06 -2.15001e-05)
(0.00232049 6.92454e-06 -3.536e-05)
(0.00233212 7.1855e-06 -3.45174e-05)
(0.00238302 7.69006e-06 -3.21467e-05)
(0.00237472 7.16837e-06 -3.07026e-05)
(0.00239175 6.88647e-06 -2.80639e-05)
(0.00238193 6.3599e-06 -2.57039e-05)
(0.00241086 5.86295e-06 -2.23991e-05)
(0.00236672 5.15371e-06 -2.05174e-05)
(0.002367 4.50682e-06 -1.81139e-05)
)
;
    }
}


// ************************************************************************* //
