/*--------------------------------*- C++ -*----------------------------------*\
| =========                 |                                                 |
| \\      /  F ield         | OpenFOAM: The Open Source CFD Toolbox           |
|  \\    /   O peration     | Version:  4.x                                   |
|   \\  /    A nd           | Web:      www.OpenFOAM.org                      |
|    \\/     M anipulation  |                                                 |
\*---------------------------------------------------------------------------*/
FoamFile
{
    version     2.0;
    format      ascii;
    class       volScalarField;
    location    "44";
    object      magGField;
}
// * * * * * * * * * * * * * * * * * * * * * * * * * * * * * * * * * * * * * //

dimensions      [1 -2 -1 0 0 0 0];

internalField   nonuniform List<scalar> 
108
(
96.2057
41.0025
97.5723
43.7243
99.3878
45.5665
100.996
46.0225
102.833
94.5495
33.543
92.3842
26.4963
91.0459
21.7071
91.2556
17.1233
91.6201
94.2199
30.0042
89.8285
19.6056
87.9271
12.2803
87.542
4.80597
87.5535
94.4559
29.7188
89.1153
17.6353
86.2681
7.1273
84.6779
0.0358519
84.0322
96.0976
41.2796
97.6957
43.404
98.8061
45.0581
100.247
44.1237
100.047
95.2367
36.5278
94.3878
33.3601
93.6299
29.9565
93.1387
25.2743
93.0212
94.9078
32.3592
91.1205
23.7303
88.9223
16.5858
88.429
10.0703
88.6753
93.6636
31.3896
90.1468
21.9878
87.8018
14.7175
87.2538
9.38351
88.1377
96.4794
45.7532
101.666
53.8442
104.989
58.224
107.39
61.8029
111.339
95.7387
41.7021
97.7288
46.01
100.043
48.7266
102.065
50.8082
104.77
94.6074
39.0685
94.8491
39.979
96.1433
41.4758
98.0324
43.3417
100.369
93.4184
38.1324
93.9056
37.6703
94.6798
39.0099
97.1774
42.1427
99.804
)
;

boundaryField
{
    inlet
    {
        type            calculated;
        value           uniform 67;
    }
    outlet
    {
        type            calculated;
        value           nonuniform 0();
    }
    wall
    {
        type            calculated;
        value           uniform 0;
    }
    procBoundary4to0
    {
        type            processor;
        value           nonuniform List<scalar> 
36
(
97.2583
40.3919
98.9877
43.5185
100.379
44.5734
101.331
43.6681
101.274
96.2542
32.8726
94.0422
26.7438
92.3605
20.4266
90.864
12.807
90.3764
95.4228
28.872
90.507
15.6611
86.7072
4.49716
84.0755
3.6276e-05
81.347
95.2491
29.7927
90.8476
18.2742
89.1716
10.6543
88.4459
6.09767
88.1327
)
;
    }
    procBoundary4to5
    {
        type            processor;
        value           nonuniform List<scalar> 
12
(
45.3259
10.0948
0.256514
4.0135e-05
41.7995
21.4335
4.06144
6.26169
66.3293
52.4373
44.359
42.3694
)
;
    }
    procBoundary4to6
    {
        type            processor;
        value           nonuniform List<scalar> 
27
(
92.0832
26.6087
87.2033
12.3432
83.6352
2.47838
82.1917
3.78597e-05
81.5627
93.0938
30.9799
90.0315
21.8948
88.2588
14.1389
87.0824
7.23948
86.5258
94.666
40.1412
95.0044
40.2453
95.2193
40.1064
95.4938
38.3913
97.2162
)
;
    }
}


// ************************************************************************* //
