/*--------------------------------*- C++ -*----------------------------------*\
| =========                 |                                                 |
| \\      /  F ield         | OpenFOAM: The Open Source CFD Toolbox           |
|  \\    /   O peration     | Version:  4.x                                   |
|   \\  /    A nd           | Web:      www.OpenFOAM.org                      |
|    \\/     M anipulation  |                                                 |
\*---------------------------------------------------------------------------*/
FoamFile
{
    version     2.0;
    format      ascii;
    class       volScalarField;
    location    "44";
    object      p_rgh;
}
// * * * * * * * * * * * * * * * * * * * * * * * * * * * * * * * * * * * * * //

dimensions      [1 -1 -2 0 0 0 0];

internalField   nonuniform List<scalar> 
108
(
110.465
93.0742
103.308
75.1887
95.8671
56.9444
88.5103
38.397
81.3887
111.062
93.33
103.871
75.3806
96.2797
56.9988
88.8262
38.5168
81.6967
111.623
93.7414
104.334
75.8078
96.6381
57.5536
89.0953
39.2662
81.6986
111.695
93.8943
104.495
75.9709
96.8705
57.8054
89.1607
39.5193
81.5691
110.601
93.2678
103.569
75.5148
96.1772
57.2673
88.928
38.9933
81.7721
111.069
93.4343
103.909
75.6135
96.4632
57.3585
89.1231
38.9262
81.8684
111.611
93.9002
104.462
75.9056
96.9059
57.5536
89.3672
39.1856
82.053
111.739
93.7894
104.457
75.9723
96.7868
57.5531
89.1711
38.9916
81.833
110.279
93.0013
103.166
75.4746
95.8622
57.2883
88.4541
38.7565
81.2195
110.73
93.203
103.466
75.4957
96.0555
57.2596
88.5993
38.7861
81.4149
111.205
93.537
103.888
75.6854
96.3337
57.4618
88.8023
39.042
81.538
111.383
93.4752
104.01
75.7414
96.3451
57.3238
88.699
38.9894
81.5302
)
;

boundaryField
{
    inlet
    {
        type            fixedFluxPressure;
        gradient        nonuniform List<scalar> 
12
(
-1.01342e-07
-2.15484e-07
-3.83383e-07
-4.14816e-07
-8.43369e-08
-1.5321e-07
-1.07514e-07
-1.85282e-07
2.45388e-08
-2.45676e-08
-9.96008e-08
-1.30298e-07
)
;
        value           nonuniform List<scalar> 
12
(
110.465
111.062
111.623
111.695
110.601
111.069
111.611
111.739
110.279
110.73
111.205
111.383
)
;
    }
    outlet
    {
        type            fixedValue;
        value           nonuniform 0();
    }
    wall
    {
        type            fixedFluxPressure;
        gradient        nonuniform List<scalar> 
63
(
-1.14289e-08
-2.2559e-07
5.31207e-08
-1.21076e-07
3.44237e-07
4.51665e-07
4.20075e-07
-4.36107e-07
1.04381e-07
2.85484e-07
3.99844e-07
7.11957e-08
2.184e-07
4.28545e-07
9.39207e-07
9.70056e-07
1.9122e-07
5.12191e-07
7.0691e-07
6.61037e-08
2.85567e-07
1.36812e-06
2.35093e-06
-1.86247e-07
8.49199e-07
5.75868e-07
6.8659e-07
4.99968e-07
2.14246e-06
3.06035e-06
2.95297e-06
1.71031e-06
5.60881e-07
1.42369e-06
1.81268e-06
1.3613e-06
-2.04712e-07
-2.15771e-07
-1.56751e-07
-9.09407e-07
-5.13204e-07
-2.90251e-07
-3.94222e-07
-2.06553e-07
-1.97648e-07
-1.16029e-06
-4.39798e-07
-1.23601e-08
-1.15663e-06
-4.3209e-07
-5.57804e-08
-1.6382e-06
-5.6647e-07
4.63419e-08
-2.54021e-07
8.33949e-08
3.37788e-07
-1.61667e-06
-1.07213e-06
9.83021e-08
1.19517e-07
3.93234e-07
1.59679e-07
)
;
        value           nonuniform List<scalar> 
63
(
110.279
110.73
111.205
111.383
93.0013
93.203
93.537
93.4752
103.166
103.466
103.888
104.01
75.4746
75.4957
75.6854
75.7414
95.8622
96.0555
96.3337
96.3451
57.2883
57.2596
57.4618
57.3238
88.4541
88.5993
88.8023
88.699
38.7565
38.7861
39.042
38.9894
81.2195
81.4149
81.538
81.5302
110.465
110.601
110.279
93.0742
93.2678
93.0013
103.308
103.569
103.166
75.1887
75.5148
75.4746
95.8671
96.1772
95.8622
56.9444
57.2673
57.2883
88.5103
88.928
88.4541
38.397
38.9933
38.7565
81.3887
81.7721
81.2195
)
;
    }
    procBoundary4to0
    {
        type            processor;
        value           nonuniform List<scalar> 
36
(
110.345
93.0823
103.335
75.1574
96.0523
56.9095
88.8017
38.6526
81.9859
110.852
93.2895
103.77
75.2391
96.3927
57.001
89.1257
38.5236
82.0845
111.397
93.7625
104.42
75.8029
96.9506
57.6849
89.2295
39.7661
81.9046
111.326
93.6035
104.233
75.4597
96.6196
57.19
89.0217
38.6835
81.8591
)
;
    }
    procBoundary4to5
    {
        type            processor;
        value           nonuniform List<scalar> 
12
(
19.4106
19.6323
21.0081
21.7039
20.1973
20.0434
20.7102
20.6693
19.8775
19.914
20.4933
20.5147
)
;
    }
    procBoundary4to6
    {
        type            processor;
        value           nonuniform List<scalar> 
27
(
111.999
93.7879
104.666
76.2216
96.929
58.1751
89.0502
40.3421
81.6893
111.806
93.7533
104.49
75.8996
96.9329
57.7855
89.4015
39.4791
82.0857
111.3
93.5658
104.04
75.8438
96.4866
57.7323
88.9723
39.2998
81.7328
)
;
    }
}


// ************************************************************************* //
