/*--------------------------------*- C++ -*----------------------------------*\
| =========                 |                                                 |
| \\      /  F ield         | OpenFOAM: The Open Source CFD Toolbox           |
|  \\    /   O peration     | Version:  4.x                                   |
|   \\  /    A nd           | Web:      www.OpenFOAM.org                      |
|    \\/     M anipulation  |                                                 |
\*---------------------------------------------------------------------------*/
FoamFile
{
    version     2.0;
    format      ascii;
    class       volScalarField;
    location    "44";
    object      QWallFluidCoeff;
}
// * * * * * * * * * * * * * * * * * * * * * * * * * * * * * * * * * * * * * //

dimensions      [1 -1 -3 -1 0 0 0];

internalField   nonuniform List<scalar> 
108
(
-2.75587e+06
-1.39298e+06
-2.78714e+06
-1.46648e+06
-2.82855e+06
-1.5157e+06
-2.86511e+06
-1.52782e+06
-2.90673e+06
0
0
0
0
0
0
0
0
0
0
0
0
0
0
0
0
0
0
0
0
0
0
0
0
0
0
0
-2.75339e+06
-1.40051e+06
-2.78996e+06
-1.45788e+06
-2.8153e+06
-1.50216e+06
-2.8481e+06
-1.47719e+06
-2.84355e+06
0
0
0
0
0
0
0
0
0
0
0
0
0
0
0
0
0
0
0
0
0
0
0
0
0
0
0
-5.52427e+06
-3.04134e+06
-5.7606e+06
-3.46448e+06
-5.91076e+06
-3.68815e+06
-6.01865e+06
-3.86843e+06
-6.19504e+06
-2.74516e+06
-1.41196e+06
-2.79071e+06
-1.52749e+06
-2.84346e+06
-1.59923e+06
-2.88935e+06
-1.65365e+06
-2.95044e+06
-2.71918e+06
-1.34017e+06
-2.72473e+06
-1.3651e+06
-2.75444e+06
-1.40583e+06
-2.79765e+06
-1.4562e+06
-2.85086e+06
-2.6918e+06
-1.31442e+06
-2.70303e+06
-1.30166e+06
-2.72084e+06
-1.33856e+06
-2.77811e+06
-1.42389e+06
-2.83802e+06
)
;

boundaryField
{
    inlet
    {
        type            calculated;
        value           uniform 0;
    }
    outlet
    {
        type            calculated;
        value           nonuniform 0();
    }
    wall
    {
        type            calculated;
        value           uniform 0;
    }
    procBoundary4to0
    {
        type            processor;
        value           uniform 0;
    }
    procBoundary4to5
    {
        type            processor;
        value           uniform 0;
    }
    procBoundary4to6
    {
        type            processor;
        value           uniform 0;
    }
}


// ************************************************************************* //
