/*--------------------------------*- C++ -*----------------------------------*\
| =========                 |                                                 |
| \\      /  F ield         | OpenFOAM: The Open Source CFD Toolbox           |
|  \\    /   O peration     | Version:  4.x                                   |
|   \\  /    A nd           | Web:      www.OpenFOAM.org                      |
|    \\/     M anipulation  |                                                 |
\*---------------------------------------------------------------------------*/
FoamFile
{
    version     2.0;
    format      ascii;
    class       volVectorField;
    location    "44";
    object      UsNext;
}
// * * * * * * * * * * * * * * * * * * * * * * * * * * * * * * * * * * * * * //

dimensions      [0 1 -1 0 0 0 0];

internalField   nonuniform List<vector> 
108
(
(3.75484e-11 2.90251e-11 1.34104e-10)
(1.44546e-10 5.43181e-11 1.25171e-10)
(1.78348e-10 5.46566e-11 1.3181e-10)
(2.03952e-10 7.18447e-11 1.46103e-10)
(1.85891e-10 1.60622e-10 1.1911e-10)
(9.89132e-11 1.0507e-10 2.17248e-10)
(8.69303e-11 3.56788e-11 4.18436e-10)
(8.15941e-11 1.04947e-10 6.63825e-10)
(-1.26435e-10 -1.72158e-11 9.6547e-10)
(6.54878e-11 2.16424e-11 1.4616e-10)
(2.42694e-10 1.84639e-11 1.49935e-10)
(3.15383e-10 7.07655e-11 2.21584e-10)
(3.94724e-10 8.62747e-11 2.40472e-10)
(4.78427e-10 1.56298e-10 2.69809e-10)
(5.4707e-10 1.33461e-10 3.521e-10)
(3.87122e-10 9.12968e-11 6.05166e-10)
(2.34123e-10 1.08901e-10 9.10711e-10)
(3.47689e-10 1.64892e-10 1.32762e-09)
(1.04847e-10 6.26111e-11 1.48561e-10)
(3.51926e-10 1.34153e-10 2.45148e-10)
(5.44556e-10 1.28318e-10 3.09884e-10)
(7.90288e-10 1.14314e-10 2.37607e-10)
(9.2486e-10 2.14384e-10 3.86006e-10)
(1.23518e-09 2.17835e-10 4.22294e-10)
(1.15933e-09 2.07914e-10 5.43494e-10)
(1.14588e-09 6.78339e-11 7.96808e-10)
(2.21039e-09 -7.76871e-11 7.86423e-10)
(1.22514e-10 3.65184e-11 1.20928e-10)
(3.88977e-10 -3.21234e-11 1.35475e-10)
(6.82182e-10 -8.76959e-11 3.84629e-11)
(9.09671e-10 2.66131e-12 -2.85472e-11)
(1.38706e-09 1.28827e-10 3.2941e-10)
(1.98516e-09 1.85864e-10 4.81029e-10)
(1.90216e-09 2.75473e-10 4.73447e-10)
(2.5992e-09 -1.03323e-10 1.49967e-10)
(3.25898e-09 -2.23571e-10 4.30778e-10)
(4.42131e-11 3.07424e-11 6.826e-11)
(1.2694e-10 3.10734e-11 9.04518e-11)
(1.45717e-10 2.89304e-11 9.914e-11)
(2.18509e-10 2.71442e-11 8.10239e-11)
(2.61342e-10 5.98259e-11 1.16161e-10)
(2.10322e-10 3.62221e-11 1.07104e-10)
(2.18559e-10 -1.17549e-11 2.07522e-10)
(2.40496e-10 6.67966e-11 4.10354e-10)
(4.30913e-10 -5.50848e-11 3.53523e-10)
(6.57566e-11 4.06772e-11 1.08903e-10)
(1.68352e-10 4.37337e-11 1.18695e-10)
(2.26935e-10 1.80101e-11 1.12396e-10)
(3.63375e-10 1.56638e-11 1.52401e-10)
(4.50213e-10 5.87292e-11 2.02317e-10)
(4.20973e-10 8.45209e-11 2.68879e-10)
(5.21447e-10 1.421e-10 4.13738e-10)
(5.82128e-10 9.07557e-11 5.38338e-10)
(8.502e-10 -1.38972e-10 6.1599e-10)
(4.84167e-11 5.49147e-11 8.16217e-11)
(2.1704e-10 6.88651e-11 1.42925e-10)
(3.21043e-10 8.82858e-11 1.74195e-10)
(4.53043e-10 4.89858e-11 2.09081e-10)
(5.92349e-10 6.14784e-11 1.92602e-10)
(7.45071e-10 1.51677e-10 3.55194e-10)
(8.36619e-10 2.13886e-10 4.02428e-10)
(1.30389e-09 3.06029e-10 3.31748e-10)
(1.22958e-09 2.91809e-10 6.64988e-10)
(6.32218e-11 1.47383e-11 4.45111e-11)
(2.25944e-10 -2.64881e-11 4.79768e-11)
(4.13347e-10 -5.10735e-11 2.9046e-11)
(5.09771e-10 -6.65702e-11 7.79234e-11)
(7.06756e-10 -5.41015e-11 1.39687e-10)
(1.16027e-09 1.07462e-10 2.45508e-10)
(1.42611e-09 2.85725e-10 2.58024e-10)
(1.73504e-09 -3.2504e-11 4.35446e-10)
(2.11086e-09 -1.42314e-10 5.50879e-10)
(3.04521e-11 2.26324e-11 -1.65016e-12)
(7.89206e-11 1.97682e-11 2.3445e-11)
(1.0516e-10 2.95339e-11 1.55973e-11)
(1.85954e-10 9.69709e-13 1.71344e-11)
(1.3899e-10 8.37257e-12 2.87018e-11)
(1.46759e-10 -3.85869e-12 2.3778e-11)
(1.09407e-10 -5.13829e-11 1.29177e-10)
(1.61332e-10 -8.67559e-12 1.89081e-10)
(2.29528e-10 -2.52783e-11 8.87915e-11)
(4.10759e-11 1.01086e-11 -3.18417e-11)
(1.01544e-10 1.72813e-11 2.74243e-11)
(1.55044e-10 1.62447e-11 3.99221e-11)
(2.54182e-10 3.3894e-11 2.82521e-11)
(3.00927e-10 2.07789e-11 7.22831e-11)
(2.88024e-10 -1.88557e-11 9.4454e-11)
(3.07389e-10 1.76446e-11 8.29544e-11)
(3.85075e-10 -7.1481e-11 2.21136e-10)
(4.2295e-10 -8.22707e-11 2.11251e-10)
(3.12859e-11 2.99435e-11 7.34593e-12)
(1.44648e-10 5.60684e-11 2.37503e-11)
(1.62796e-10 4.04502e-11 5.37797e-11)
(2.47323e-10 3.21788e-11 5.33885e-11)
(3.8575e-10 2.89439e-11 9.54261e-11)
(4.93e-10 2.80962e-11 1.38053e-10)
(6.37272e-10 1.65101e-10 9.51025e-11)
(7.11221e-10 1.60158e-10 1.82466e-10)
(6.48886e-10 8.44087e-11 2.59445e-10)
(4.37535e-11 -2.40321e-11 -1.63933e-11)
(1.18984e-10 -1.39963e-11 -2.40128e-11)
(2.46441e-10 4.63689e-11 9.47445e-12)
(2.79726e-10 -2.4382e-11 5.17107e-11)
(4.0204e-10 -9.42281e-11 8.74866e-12)
(5.41497e-10 -7.19081e-11 -1.0259e-11)
(6.70915e-10 1.07171e-10 6.89844e-11)
(3.40224e-09 -1.24848e-09 1.03441e-10)
(1.48274e-09 -1.82662e-11 1.94592e-10)
)
;

boundaryField
{
    inlet
    {
        type            calculated;
        value           nonuniform List<vector> 
12
(
(3.75484e-11 2.90251e-11 1.34104e-10)
(6.54878e-11 2.16424e-11 1.4616e-10)
(1.04847e-10 6.26111e-11 1.48561e-10)
(1.22514e-10 3.65184e-11 1.20928e-10)
(4.42131e-11 3.07424e-11 6.826e-11)
(6.57566e-11 4.06772e-11 1.08903e-10)
(4.84167e-11 5.49147e-11 8.16217e-11)
(6.32218e-11 1.47383e-11 4.45111e-11)
(3.04521e-11 2.26324e-11 -1.65016e-12)
(4.10759e-11 1.01086e-11 -3.18417e-11)
(3.12859e-11 2.99435e-11 7.34593e-12)
(4.37535e-11 -2.40321e-11 -1.63933e-11)
)
;
    }
    outlet
    {
        type            calculated;
        value           nonuniform 0();
    }
    wall
    {
        type            calculated;
        value           nonuniform List<vector> 
63
(
(3.04521e-11 2.26324e-11 -1.65016e-12)
(4.10759e-11 1.01086e-11 -3.18417e-11)
(3.12859e-11 2.99435e-11 7.34593e-12)
(4.37535e-11 -2.40321e-11 -1.63933e-11)
(7.89206e-11 1.97682e-11 2.3445e-11)
(1.01544e-10 1.72813e-11 2.74243e-11)
(1.44648e-10 5.60684e-11 2.37503e-11)
(1.18984e-10 -1.39963e-11 -2.40128e-11)
(1.0516e-10 2.95339e-11 1.55973e-11)
(1.55044e-10 1.62447e-11 3.99221e-11)
(1.62796e-10 4.04502e-11 5.37797e-11)
(2.46441e-10 4.63689e-11 9.47445e-12)
(1.85954e-10 9.69709e-13 1.71344e-11)
(2.54182e-10 3.3894e-11 2.82521e-11)
(2.47323e-10 3.21788e-11 5.33885e-11)
(2.79726e-10 -2.4382e-11 5.17107e-11)
(1.3899e-10 8.37257e-12 2.87018e-11)
(3.00927e-10 2.07789e-11 7.22831e-11)
(3.8575e-10 2.89439e-11 9.54261e-11)
(4.0204e-10 -9.42281e-11 8.74866e-12)
(1.46759e-10 -3.85869e-12 2.3778e-11)
(2.88024e-10 -1.88557e-11 9.4454e-11)
(4.93e-10 2.80962e-11 1.38053e-10)
(5.41497e-10 -7.19081e-11 -1.0259e-11)
(1.09407e-10 -5.13829e-11 1.29177e-10)
(3.07389e-10 1.76446e-11 8.29544e-11)
(6.37272e-10 1.65101e-10 9.51025e-11)
(6.70915e-10 1.07171e-10 6.89844e-11)
(1.61332e-10 -8.67559e-12 1.89081e-10)
(3.85075e-10 -7.1481e-11 2.21136e-10)
(7.11221e-10 1.60158e-10 1.82466e-10)
(3.40224e-09 -1.24848e-09 1.03441e-10)
(2.29528e-10 -2.52783e-11 8.87915e-11)
(4.2295e-10 -8.22707e-11 2.11251e-10)
(6.48886e-10 8.44087e-11 2.59445e-10)
(1.48274e-09 -1.82662e-11 1.94592e-10)
(3.75484e-11 2.90251e-11 1.34104e-10)
(4.42131e-11 3.07424e-11 6.826e-11)
(3.04521e-11 2.26324e-11 -1.65016e-12)
(1.44546e-10 5.43181e-11 1.25171e-10)
(1.2694e-10 3.10734e-11 9.04518e-11)
(7.89206e-11 1.97682e-11 2.3445e-11)
(1.78348e-10 5.46566e-11 1.3181e-10)
(1.45717e-10 2.89304e-11 9.914e-11)
(1.0516e-10 2.95339e-11 1.55973e-11)
(2.03952e-10 7.18447e-11 1.46103e-10)
(2.18509e-10 2.71442e-11 8.10239e-11)
(1.85954e-10 9.69709e-13 1.71344e-11)
(1.85891e-10 1.60622e-10 1.1911e-10)
(2.61342e-10 5.98259e-11 1.16161e-10)
(1.3899e-10 8.37257e-12 2.87018e-11)
(9.89132e-11 1.0507e-10 2.17248e-10)
(2.10322e-10 3.62221e-11 1.07104e-10)
(1.46759e-10 -3.85869e-12 2.3778e-11)
(8.69303e-11 3.56788e-11 4.18436e-10)
(2.18559e-10 -1.17549e-11 2.07522e-10)
(1.09407e-10 -5.13829e-11 1.29177e-10)
(8.15941e-11 1.04947e-10 6.63825e-10)
(2.40496e-10 6.67966e-11 4.10354e-10)
(1.61332e-10 -8.67559e-12 1.89081e-10)
(-1.26435e-10 -1.72158e-11 9.6547e-10)
(4.30913e-10 -5.50848e-11 3.53523e-10)
(2.29528e-10 -2.52783e-11 8.87915e-11)
)
;
    }
    procBoundary4to0
    {
        type            processor;
        value           nonuniform List<vector> 
36
(
(5.80858e-11 6.41309e-11 2.60879e-10)
(1.98281e-10 7.00814e-11 3.32373e-10)
(3.044e-10 1.02233e-11 3.34321e-10)
(2.61306e-10 6.9843e-11 1.84266e-10)
(2.03093e-10 1.86989e-11 1.11437e-10)
(-8.56626e-12 6.22259e-11 3.40449e-10)
(-1.75513e-10 1.12078e-10 5.40001e-10)
(-1.82048e-11 -9.15172e-11 1.21125e-09)
(-1.16972e-10 -3.3544e-10 2.93306e-09)
(7.26486e-11 6.7421e-11 2.70227e-10)
(2.53831e-10 1.40042e-10 4.00319e-10)
(3.73928e-10 1.17887e-10 4.22491e-10)
(6.23487e-10 2.23981e-10 3.61948e-10)
(5.00683e-10 2.28235e-10 2.69581e-10)
(3.24611e-10 2.15338e-10 4.97888e-10)
(1.65995e-10 1.21277e-10 7.03465e-10)
(1.26112e-10 -6.08569e-12 1.23194e-09)
(-1.38866e-10 3.16299e-10 1.97668e-09)
(2.13753e-10 2.27312e-10 3.32441e-10)
(4.20636e-10 1.87894e-10 3.95361e-10)
(6.8828e-10 2.05801e-10 4.79442e-10)
(9.1908e-10 2.62359e-10 4.10688e-10)
(1.20809e-09 3.67832e-10 5.39071e-10)
(1.24757e-09 3.09825e-10 6.61308e-10)
(1.4187e-09 3.21046e-10 6.926e-10)
(1.3335e-09 2.41654e-10 1.41904e-09)
(1.09989e-09 6.99695e-10 2.06674e-09)
(9.61362e-11 9.7547e-11 2.51466e-10)
(5.61007e-10 -3.60985e-11 4.11579e-10)
(9.31532e-10 2.05179e-11 3.35461e-10)
(1.79803e-09 1.84339e-10 5.06944e-10)
(2.31562e-09 3.85089e-10 6.02586e-10)
(2.37021e-09 4.30587e-11 8.07737e-10)
(2.70799e-09 2.41866e-10 8.37669e-10)
(2.6178e-09 1.27576e-10 1.08666e-09)
(3.37252e-09 -4.9807e-10 1.43309e-09)
)
;
    }
    procBoundary4to5
    {
        type            processor;
        value           nonuniform List<vector> 
12
(
(2.74285e-10 2.21878e-10 4.91187e-10)
(1.19938e-09 3.37348e-11 9.26589e-10)
(2.34321e-09 -9.13743e-13 1.20341e-09)
(3.34328e-09 -1.14112e-10 4.13342e-10)
(6.30038e-10 -3.01166e-11 2.56957e-10)
(1.21049e-09 -1.18473e-10 5.22977e-10)
(1.98521e-09 5.33308e-10 8.27897e-10)
(2.42221e-09 2.03354e-10 4.58335e-10)
(3.04098e-10 2.23531e-11 1.9318e-11)
(6.63834e-10 -1.43647e-11 3.88453e-11)
(8.66997e-10 2.80331e-10 3.18918e-11)
(1.78656e-09 2.71398e-10 4.30016e-11)
)
;
    }
    procBoundary4to6
    {
        type            processor;
        value           nonuniform List<vector> 
27
(
(1.43641e-10 -7.5741e-11 1.14928e-10)
(3.19815e-10 -1.86392e-10 2.10012e-10)
(4.40106e-10 -2.08515e-10 2.38158e-10)
(6.56682e-10 -1.086e-10 3.08251e-10)
(1.2822e-09 -2.17245e-10 4.86356e-10)
(1.60617e-09 -1.02725e-10 1.48085e-10)
(1.87654e-09 -1.53013e-10 3.24707e-10)
(2.32122e-09 -2.77437e-10 1.91608e-10)
(2.93345e-09 -4.22613e-10 3.69436e-10)
(4.3857e-11 -4.98201e-11 6.98549e-11)
(2.7654e-10 -1.2346e-10 1.73299e-10)
(3.85297e-10 -1.47414e-10 1.04249e-10)
(4.71256e-10 -1.24403e-10 1.61988e-10)
(6.53388e-10 -1.41878e-10 1.97561e-10)
(1.16872e-09 -2.34384e-10 2.45143e-10)
(1.50938e-09 -1.02063e-10 3.00877e-10)
(1.9627e-09 -1.70319e-10 2.32814e-10)
(2.30227e-09 -1.8273e-10 2.05371e-10)
(6.59112e-11 -4.05615e-11 1.40647e-11)
(1.2202e-10 -5.99678e-11 3.65016e-11)
(2.38591e-10 -5.45227e-11 1.15122e-11)
(3.53459e-10 -6.16686e-11 1.90324e-11)
(4.82616e-10 -1.16578e-10 1.32966e-12)
(7.33644e-10 -1.51063e-10 2.78217e-11)
(1.04272e-09 -5.32645e-11 1.14638e-10)
(1.4127e-09 -1.74689e-11 6.47563e-11)
(1.69286e-09 5.25716e-11 2.34238e-10)
)
;
    }
}


// ************************************************************************* //
