/*--------------------------------*- C++ -*----------------------------------*\
  =========                 |
  \\      /  F ield         | OpenFOAM: The Open Source CFD Toolbox
   \\    /   O peration     | Website:  https://openfoam.org
    \\  /    A nd           | Version:  4.x
     \\/     M anipulation  |
\*---------------------------------------------------------------------------*/
FoamFile
{
    version     2.0;
    format      ascii;
    class       vectorField;
    location    0;
    object      v;
}
// * * * * * * * * * * * * * * * * * * * * * * * * * * * * * * * * * * * * * //

303
(
( 6.17956e-08 -1.32169e-08 -1.2793e-08 )  
( 1.35341e-07 -3.60476e-08 -8.19146e-08 )  
( 1.22835e-07 -3.62329e-08 -8.60211e-08 )  
( 1.10232e-07 -1.0028e-08 -5.19213e-08 )  
( 1.30704e-07 -1.01745e-08 -5.63471e-08 )  
( 1.79905e-07 -3.76994e-08 -7.22624e-08 )  
( 7.62944e-08 -1.41214e-08 -1.48183e-08 )  
( 1.58564e-07 -2.77609e-08 -7.39806e-08 )  
( 1.03493e-07 -2.7239e-08 -7.96511e-08 )  
( 9.21742e-08 -3.06833e-08 -2.15585e-08 )  
( 9.74222e-08 -2.06847e-08 -3.5726e-08 )  
( 2.38062e-08 -8.71645e-09 -3.41083e-08 )  
( 1.8238e-07 -1.20302e-07 -8.35327e-08 )  
( 8.04742e-08 -3.44445e-08 -3.76118e-08 )  
( -1.32786e-08 6.30748e-09 -8.58561e-08 )  
( 1.22388e-07 -2.225e-08 -3.15374e-08 )  
( 3.80979e-07 8.06767e-08 -1.01233e-07 )  
( 1.59229e-07 -5.93215e-08 -4.1652e-08 )  
( 1.4188e-07 -4.60483e-08 -5.35086e-08 )  
( 3.9919e-08 6.32512e-09 -4.52099e-08 )  
( 1.57871e-07 -5.88364e-08 -8.53491e-08 )  
( 1.20125e-07 -1.20656e-09 -3.83666e-08 )  
( 1.74996e-07 -9.14919e-08 -1.2325e-07 )  
( 1.28723e-07 -3.35967e-08 -1.71588e-08 )  
( 1.82759e-07 -2.95393e-08 -5.18994e-08 )  
( 1.35428e-07 3.16946e-09 -8.78708e-08 )  
( 1.21138e-07 -1.85992e-08 -8.52018e-08 )  
( 1.29682e-08 9.57416e-08 -5.64148e-08 )  
( 1.4802e-07 -5.95608e-09 -4.88494e-08 )  
( 7.95096e-08 -1.96945e-08 -3.25299e-08 )  
( 1.678e-08 7.4458e-09 -7.43438e-08 )  
( 1.10212e-07 6.49739e-09 -9.71297e-08 )  
( 1.8382e-08 -1.28475e-08 -1.83819e-08 )  
( 1.24371e-07 -7.62429e-09 -2.66265e-08 )  
( 1.25431e-07 -1.73775e-08 -3.19574e-08 )  
( 8.31471e-08 -7.45965e-09 7.41357e-09 )  
( 1.26821e-07 -6.91347e-08 -7.45664e-08 )  
( 6.86912e-08 -1.07358e-08 -2.93239e-08 )  
( 1.20358e-07 -1.4358e-10 -3.12179e-08 )  
( 1.19703e-07 -3.15428e-08 1.98206e-08 )  
( 4.18947e-07 1.07152e-07 -9.84038e-08 )  
( 1.16845e-07 2.28608e-09 -2.79656e-08 )  
( -5.42284e-09 -2.02366e-08 -2.0872e-07 )  
( 1.4839e-07 -5.98843e-09 -1.41591e-08 )  
( 1.70913e-07 -2.85989e-08 -6.24897e-08 )  
( 1.08988e-07 -3.89399e-09 -5.05047e-08 )  
( 7.71767e-08 2.95296e-08 -2.81737e-08 )  
( 1.26544e-07 1.16194e-08 -7.87645e-09 )  
( 1.33812e-08 5.098e-09 2.47491e-08 )  
( 1.1979e-07 -4.28325e-09 -8.12895e-09 )  
( 8.26929e-08 -4.42191e-08 -1.00437e-08 )  
( 1.1498e-07 -1.69026e-08 -3.51001e-08 )  
( 1.32535e-07 2.37421e-09 -9.93771e-09 )  
( 1.28612e-07 3.60834e-09 -5.59717e-09 )  
( 6.62118e-08 8.22972e-09 -1.73548e-08 )  
( 2.24903e-08 2.13221e-09 1.30744e-09 )  
( 7.1301e-08 -2.81204e-08 2.61432e-09 )  
( 7.9065e-08 8.63744e-09 -1.29055e-08 )  
( 1.03088e-07 -2.3272e-09 -1.75086e-08 )  
( 7.43901e-08 -9.70297e-09 -7.83278e-09 )  
( 1.01364e-07 -3.37409e-08 -1.2812e-08 )  
( 2.63847e-08 3.33053e-08 -3.43398e-08 )  
( 6.22437e-08 3.49025e-09 -2.54119e-08 )  
( -4.31322e-07 -1.90691e-07 -4.77049e-07 )  
( 1.38084e-07 -2.47982e-08 -9.4702e-08 )  
( 1.05655e-07 -5.22749e-09 -1.13577e-08 )  
( 6.38605e-08 8.6466e-08 -6.25373e-08 )  
( 4.29928e-08 -3.24748e-08 -1.17393e-08 )  
( 9.23413e-08 -2.22829e-08 -3.47836e-08 )  
( 1.47602e-07 2.83441e-08 -5.00755e-08 )  
( 1.82318e-07 -1.96709e-08 -3.94172e-08 )  
( 1.37746e-07 -2.30252e-08 -2.20626e-08 )  
( 1.34411e-07 -1.17202e-08 -5.18852e-08 )  
( 1.72e-07 -2.48453e-08 -1.3775e-08 )  
( 3.64823e-09 -5.85022e-08 -7.54293e-08 )  
( 7.4367e-08 4.41898e-08 9.82229e-10 )  
( 9.99792e-08 -6.08282e-09 -2.06057e-08 )  
( 1.32982e-07 -2.94144e-08 -5.50198e-08 )  
( -3.9222e-08 -3.57981e-08 -2.22418e-07 )  
( 9.36543e-08 5.17489e-10 -4.97107e-08 )  
( 1.33682e-07 -4.98105e-09 -1.88068e-08 )  
( 1.83627e-07 -2.09797e-08 -7.2532e-08 )  
( 1.45283e-07 -3.65554e-08 -3.75859e-08 )  
( 4.25895e-08 1.12871e-09 2.1604e-08 )  
( 2.00764e-07 -4.09173e-08 -1.38215e-07 )  
( 1.63282e-07 -2.30533e-08 -6.43928e-08 )  
( 3.99887e-08 6.66557e-10 -4.90263e-10 )  
( 1.17424e-07 -4.18641e-09 -3.05404e-08 )  
( 1.72929e-07 1.02624e-08 -2.15334e-07 )  
( 1.39198e-08 6.89305e-08 -6.73594e-08 )  
( 1.01529e-07 -3.89215e-08 -8.41176e-09 )  
( 1.24689e-07 -2.46647e-09 -3.0758e-08 )  
( 6.27774e-08 -1.00375e-08 5.58955e-09 )  
( 4.69557e-08 -6.0132e-10 -1.06477e-08 )  
( 1.28376e-07 8.78455e-09 -8.2476e-09 )  
( 1.30147e-07 -1.64998e-08 -6.62779e-08 )  
( 1.14349e-07 1.97211e-09 9.28033e-09 )  
( 1.86139e-08 -6.68946e-09 -2.83829e-08 )  
( 9.92394e-08 -6.86338e-09 -1.53494e-08 )  
( 8.708e-08 -1.34401e-08 -3.31109e-08 )  
( 1.01144e-07 -1.12908e-08 -1.31426e-08 )  
( 1.23687e-07 1.94205e-08 -3.48991e-08 )  
( -1.60981e-07 -6.95118e-08 -4.325e-07 )  
( 1.26723e-07 -1.37745e-08 -3.94746e-08 )  
( 2.50928e-07 -3.87766e-08 -2.22862e-08 )  
( 1.33678e-07 4.95587e-09 -1.93794e-08 )  
( 1.37245e-07 -2.83367e-08 -1.93263e-08 )  
( 1.37726e-07 1.35265e-08 -1.21336e-08 )  
( -2.65906e-08 8.12146e-06 -2.02723e-07 )  
( 1.3679e-07 -6.24698e-09 -3.63758e-08 )  
( 1.55184e-07 -8.546e-08 -8.01885e-08 )  
( 1.56542e-07 -3.33072e-08 -6.0982e-08 )  
( 1.01522e-07 -6.94285e-09 -1.38357e-08 )  
( 3.85935e-08 -2.28844e-07 6.21578e-08 )  
( 1.47966e-07 -1.92235e-08 -1.34681e-08 )  
( 1.21397e-07 -2.0833e-08 -3.06023e-08 )  
( 1.23492e-07 1.08923e-09 -8.73811e-09 )  
( 1.00832e-07 -8.66295e-09 -1.06714e-08 )  
( 1.03915e-08 7.08771e-09 -8.73421e-08 )  
( 1.64603e-07 5.58506e-08 -7.02935e-08 )  
( 1.44903e-07 -2.14424e-08 -7.52062e-08 )  
( 1.35681e-07 -3.58435e-08 -8.30534e-08 )  
( 1.25125e-07 4.75411e-09 -4.00341e-08 )  
( 1.76317e-08 -1.73008e-08 -4.60681e-08 )  
( 6.71933e-08 -7.66816e-09 -2.54367e-08 )  
( 9.66494e-08 -5.30309e-09 8.59178e-09 )  
( 3.78993e-08 9.44274e-09 -6.5313e-09 )  
( 7.35106e-08 -1.45695e-08 -2.21699e-08 )  
( 3.88818e-09 -2.98187e-08 -1.00741e-07 )  
( 1.46483e-07 -2.33901e-08 -3.15197e-08 )  
( -1.26938e-08 4.72268e-08 4.92084e-08 )  
( 1.32568e-07 -9.44604e-09 -4.81162e-10 )  
( 1.02535e-07 -8.92564e-09 -1.74246e-08 )  
( 8.50462e-08 -2.00412e-09 -3.20713e-08 )  
( 4.82042e-08 -9.77482e-11 7.91936e-09 )  
( 1.61811e-07 -1.05334e-08 -7.18864e-08 )  
( 1.99499e-07 1.37398e-07 -3.32859e-08 )  
( 4.48068e-08 5.11468e-09 -9.03935e-09 )  
( 1.39107e-07 -3.53345e-09 -3.55794e-08 )  
( 3.85916e-08 1.50753e-08 -2.30166e-09 )  
( -5.15e-08 -3.25283e-08 -1.37362e-07 )  
( 6.46917e-08 -1.21673e-08 -1.76667e-08 )  
( 1.28392e-07 -2.56484e-08 -4.54878e-08 )  
( 9.91655e-08 -2.70414e-09 -1.00886e-09 )  
( -1.70552e-08 -1.69942e-08 -6.95237e-08 )  
( 4.91245e-08 4.22151e-08 -2.6875e-08 )  
( 1.55904e-07 -2.65461e-08 -9.42114e-09 )  
( 1.05072e-07 -2.4452e-08 -6.04021e-08 )  
( 5.30006e-08 -8.82833e-09 -1.19819e-09 )  
( 2.81344e-08 -2.40733e-09 -6.60268e-09 )  
( 1.29764e-07 -1.33326e-08 -7.3599e-08 )  
( 7.40331e-08 -6.74833e-09 -2.60444e-08 )  
( 1.41446e-07 -1.00238e-08 -4.66137e-08 )  
( 9.95102e-08 -1.11208e-08 1.58052e-08 )  
( 8.19973e-08 1.09204e-08 -2.39517e-09 )  
( 9.56753e-08 -2.83711e-08 -3.80494e-08 )  
( 3.28802e-08 -2.63775e-09 -2.17114e-08 )  
( 1.04553e-07 -1.91769e-08 -4.55316e-08 )  
( 3.35097e-08 -1.29334e-08 -2.56879e-08 )  
( 1.03369e-07 -2.18107e-08 -3.82344e-08 )  
( 1.22819e-07 -2.23982e-08 -2.37776e-08 )  
( -2.42473e-09 2.68203e-08 -7.47471e-08 )  
( 1.3154e-07 -1.3852e-08 -1.79503e-08 )  
( 1.42256e-07 -6.8311e-08 -8.66435e-08 )  
( 1.97788e-08 -2.5438e-09 -1.97439e-08 )  
( 1.48243e-08 -5.31067e-09 -5.75453e-08 )  
( 1.31862e-07 6.69276e-09 -4.47653e-08 )  
( 1.10023e-07 -1.04466e-08 -2.40903e-08 )  
( 3.01214e-08 4.25951e-09 -2.42057e-08 )  
( 7.14913e-08 2.92625e-09 -3.08403e-09 )  
( -1.12178e-09 -7.10834e-09 -6.54661e-08 )  
( -6.18374e-09 1.79131e-08 -2.0038e-08 )  
( 1.54094e-07 -8.31203e-09 -5.78559e-08 )  
( 1.55976e-07 -1.06416e-07 -3.95987e-08 )  
( 2.67272e-08 -1.04231e-09 -1.85292e-09 )  
( 6.06439e-08 5.84701e-09 -1.44667e-08 )  
( 3.02263e-08 -3.97344e-10 -4.5233e-10 )  
( 2.43457e-08 -9.12793e-09 -1.50497e-08 )  
( 1.34322e-07 -9.5125e-09 -2.23533e-08 )  
( 1.26425e-07 -8.50997e-09 -2.92991e-08 )  
( -2.31244e-07 -2.72551e-07 -4.32765e-07 )  
( 7.20663e-08 1.20042e-08 -2.20956e-08 )  
( 5.60647e-08 -2.62885e-08 -2.08266e-08 )  
( 1.0786e-07 -3.7919e-08 -1.22014e-07 )  
( 5.42013e-08 3.10166e-08 -1.69349e-09 )  
( 8.65633e-08 -1.23142e-08 -1.0102e-08 )  
( 1.53569e-08 1.07255e-08 9.41135e-10 )  
( 4.35389e-08 2.4206e-08 -3.07185e-09 )  
( 1.11343e-07 -2.21246e-08 -1.01537e-08 )  
( 1.28296e-07 -2.04741e-08 -5.28839e-08 )  
( 9.91808e-08 -3.92959e-08 -6.06326e-09 )  
( 1.75859e-07 -4.087e-08 -6.76455e-08 )  
( 2.75654e-08 8.28314e-09 -8.06633e-09 )  
( 6.86893e-08 -1.37845e-09 -1.32636e-08 )  
( 4.96502e-08 1.5843e-09 -8.60893e-09 )  
( 8.59613e-08 5.02144e-08 -2.15813e-08 )  
( 3.51959e-08 1.22578e-08 -7.81333e-09 )  
( 8.43789e-08 -6.17182e-09 -6.49441e-09 )  
( 1.59593e-09 2.06295e-08 -6.80765e-08 )  
( 6.56529e-08 2.5377e-08 -3.30103e-09 )  
( 5.05318e-08 8.45104e-09 -7.26617e-09 )  
( 7.60268e-08 -6.30876e-10 -7.83035e-09 )  
( 4.89001e-08 -1.93233e-08 -1.65408e-08 )  
( 2.9452e-08 -1.0279e-08 -2.22116e-08 )  
( 3.76303e-08 8.38947e-09 -1.08437e-08 )  
( 8.96758e-08 -1.10063e-08 -1.79533e-08 )  
( 6.66031e-08 -1.69677e-09 -2.172e-08 )  
( 6.75314e-08 1.27696e-08 -1.54811e-08 )  
( 3.12222e-08 -1.85694e-09 -1.00509e-08 )  
( 7.07887e-08 8.42798e-09 -1.04209e-08 )  
( 4.34009e-08 -1.26238e-08 -2.44368e-08 )  
( 2.14468e-08 -1.21822e-08 -4.42505e-08 )  
( 6.2774e-08 -8.59498e-09 -1.50722e-08 )  
( 1.19737e-07 3.84443e-08 -4.69715e-08 )  
( 6.71262e-08 -1.17142e-08 -1.1425e-08 )  
( 7.01762e-08 -2.64404e-08 -1.97541e-08 )  
( 6.35582e-08 2.20185e-08 -4.8728e-08 )  
( 1.27339e-07 9.22258e-09 -1.66678e-08 )  
( 4.63276e-08 2.4664e-08 -1.46471e-08 )  
( 1.25823e-07 -5.49622e-08 -7.61154e-08 )  
( 5.66222e-08 2.19862e-10 -1.00543e-08 )  
( 8.77307e-09 -3.3774e-09 -2.01324e-08 )  
( 4.98795e-09 -6.77021e-09 -1.05933e-08 )  
( 1.31998e-07 -4.00988e-08 -6.7659e-08 )  
( 1.62962e-07 -1.85529e-08 -8.07154e-08 )  
( -4.74572e-09 -1.84447e-08 -6.53944e-08 )  
( 6.41273e-08 1.25252e-08 -2.97752e-08 )  
( 1.15808e-07 5.26694e-09 -4.39086e-08 )  
( 3.52379e-08 4.36253e-10 9.61752e-09 )  
( 9.06732e-08 -2.48862e-08 -5.53073e-08 )  
( -2.30585e-07 -2.64604e-08 -2.69513e-07 )  
( 8.20772e-08 -1.47132e-08 -1.58129e-08 )  
( 1.83413e-07 -7.14457e-09 -6.3726e-08 )  
( 1.01916e-07 -1.53635e-08 -7.45862e-08 )  
( 2.78978e-08 8.96783e-09 -5.08214e-09 )  
( 1.47844e-08 -1.64515e-08 -2.61424e-08 )  
( 1.18851e-07 -2.33108e-08 -5.58237e-08 )  
( 6.23269e-08 -2.81637e-08 -3.94437e-08 )  
( 2.0779e-07 -1.10917e-07 -7.81924e-08 )  
( 1.17212e-07 -1.2445e-08 -9.57398e-08 )  
( 6.96075e-08 -1.44241e-08 -3.48447e-08 )  
( 1.56377e-07 -5.08165e-09 -1.16675e-07 )  
( 8.21105e-08 -7.05041e-09 -1.11429e-08 )  
( 1.5971e-07 -4.66227e-08 -7.24457e-08 )  
( 1.76831e-07 -4.25621e-08 -5.69521e-08 )  
( 5.79727e-08 6.80471e-08 -9.1108e-09 )  
( 1.00804e-07 1.57944e-08 -1.0801e-08 )  
( 5.29095e-08 -2.75901e-08 -5.22851e-08 )  
( 1.3401e-07 -1.10596e-08 -2.49277e-08 )  
( 1.30732e-07 -1.86049e-08 -2.83061e-08 )  
( 1.43353e-07 -2.35004e-08 -6.35232e-08 )  
( 1.49786e-07 -8.86935e-09 -2.92193e-08 )  
( 1.04798e-07 1.08209e-08 -9.72876e-09 )  
( 1.26916e-07 -1.73967e-08 -5.94226e-08 )  
( 8.61999e-08 -6.2624e-09 9.24565e-10 )  
( 1.18623e-07 -2.07497e-08 -2.14662e-08 )  
( 1.08347e-08 -2.16991e-09 -1.50063e-08 )  
( 1.27332e-07 -1.60736e-08 -6.17732e-08 )  
( 1.09954e-07 -1.88494e-08 -5.26835e-08 )  
( 6.84284e-08 -7.22501e-10 -4.81968e-09 )  
( 1.14765e-07 -1.25728e-08 -1.15425e-08 )  
( 4.66218e-08 -1.01033e-08 -2.4367e-08 )  
( 8.80829e-08 -5.08939e-09 -3.15646e-08 )  
( 1.81255e-08 -7.63203e-09 -2.83328e-08 )  
( 1.19033e-07 -2.6691e-08 -9.39255e-08 )  
( 5.9819e-08 -1.52851e-08 -1.62957e-08 )  
( 8.52101e-08 7.18605e-09 -1.1634e-08 )  
( 3.70771e-08 5.05318e-09 -1.45027e-08 )  
( 1.00062e-07 -2.38369e-09 -5.77626e-08 )  
( 7.87673e-08 -6.86385e-10 9.01326e-09 )  
( 1.23723e-07 7.84202e-09 -7.02625e-08 )  
( 3.89692e-08 -1.48802e-08 -2.57999e-08 )  
( 8.93585e-08 2.92426e-09 -8.11714e-09 )  
( 5.22104e-08 -4.89244e-09 -1.57487e-08 )  
( 1.2481e-07 -4.43867e-08 -2.68518e-08 )  
( 1.71111e-07 -3.38552e-08 -8.31907e-08 )  
( -4.11844e-08 -1.13656e-08 7.76578e-09 )  
( 1.15131e-07 8.21077e-10 -3.97023e-08 )  
( 1.52903e-07 -1.00275e-09 -2.48623e-08 )  
( 1.61473e-07 -1.88935e-08 -3.85673e-08 )  
( 4.89164e-08 -2.10619e-10 -1.15193e-08 )  
( 6.81848e-07 3.82999e-08 -1.28167e-07 )  
( 1.37018e-07 2.85764e-08 -3.00087e-08 )  
( 1.92748e-07 -7.25222e-09 -6.76634e-08 )  
( 4.41373e-07 -7.92736e-07 -1.26519e-07 )  
( 1.44737e-07 7.38834e-09 -4.50649e-08 )  
( 1.0581e-07 1.70669e-08 6.14264e-09 )  
( 9.19966e-08 2.2366e-08 -2.76873e-08 )  
( 1.52862e-07 -2.7462e-08 -3.28713e-08 )  
( 1.83866e-07 -1.03502e-08 -6.47204e-08 )  
( 2.39778e-09 -9.4027e-09 1.07168e-08 )  
( -4.37783e-08 3.06916e-09 2.57127e-09 )  
( 1.11589e-07 -5.20888e-09 2.41927e-09 )  
( 7.25609e-08 1.41217e-09 -3.40521e-08 )  
( 1.46605e-07 6.60931e-09 -4.21177e-08 )  
( 1.46264e-07 -4.70705e-08 -1.03766e-07 )  
( 1.2476e-07 9.6424e-09 1.30997e-08 )  
( 1.65201e-07 5.23416e-08 -5.70192e-08 )  
( 2.2388e-07 -9.9741e-09 -5.52492e-08 )  
( 1.99894e-07 6.41276e-09 -5.7476e-08 )  
( -3.9108e-08 1.83116e-06 -1.45906e-07 )  
( 2.23746e-07 -2.36858e-08 -6.56982e-08 )  
( 1.427e-07 -3.21405e-08 7.36901e-11 )  
)
