/*--------------------------------*- C++ -*----------------------------------*\
| =========                 |                                                 |
| \\      /  F ield         | OpenFOAM: The Open Source CFD Toolbox           |
|  \\    /   O peration     | Version:  4.x                                   |
|   \\  /    A nd           | Web:      www.OpenFOAM.org                      |
|    \\/     M anipulation  |                                                 |
\*---------------------------------------------------------------------------*/
FoamFile
{
    version     2.0;
    format      ascii;
    class       volScalarField;
    location    "57";
    object      QPartFluid;
}
// * * * * * * * * * * * * * * * * * * * * * * * * * * * * * * * * * * * * * //

dimensions      [1 -1 -3 0 0 0 0];

internalField   nonuniform List<scalar> 
108
(
4.92458e+09
7.10941e+09
8.42749e+09
5.98135e+09
7.15874e+09
5.99542e+09
8.94642e+09
6.87713e+09
9.65675e+09
7.01797e+09
7.29965e+09
9.38959e+09
1.0044e+10
1.01164e+10
8.59721e+09
8.14572e+09
5.7848e+09
1.11157e+10
6.68897e+09
1.02808e+10
8.31702e+09
9.3787e+09
8.13027e+09
6.31145e+09
7.31592e+09
1.03047e+10
6.74905e+09
3.45923e+09
6.73877e+09
9.41009e+09
5.72847e+09
8.82706e+09
6.72406e+09
1.10667e+10
6.03804e+09
7.08913e+09
5.06374e+09
5.48968e+09
8.05516e+09
8.33537e+09
8.52795e+09
5.46236e+09
5.5783e+09
7.53582e+09
9.58635e+09
6.2469e+09
7.60193e+09
7.5567e+09
7.59579e+09
7.74283e+09
6.81732e+09
8.50788e+09
9.27436e+09
1.05049e+10
4.19554e+09
7.32398e+09
1.00289e+10
8.28588e+09
9.67879e+09
8.24457e+09
8.18122e+09
7.13574e+09
8.62824e+09
6.20559e+09
8.58796e+09
7.54758e+09
9.65791e+09
1.05325e+10
7.61847e+09
1.18521e+10
8.48564e+09
8.1452e+09
4.55286e+09
6.30053e+09
4.44531e+09
6.0548e+09
6.35148e+09
8.01537e+09
8.02203e+09
6.51901e+09
8.20913e+09
4.87564e+09
9.01131e+09
7.12837e+09
5.84957e+09
7.47284e+09
7.71474e+09
7.38712e+09
6.23091e+09
8.58686e+09
5.23375e+09
7.46133e+09
8.46251e+09
7.16935e+09
6.71196e+09
6.92588e+09
7.36777e+09
7.92661e+09
7.04642e+09
7.25371e+09
7.01449e+09
6.70284e+09
7.98307e+09
8.44661e+09
9.5441e+09
4.97509e+09
5.18522e+09
7.09501e+09
)
;

boundaryField
{
    inlet
    {
        type            calculated;
        value           uniform 0;
    }
    outlet
    {
        type            calculated;
        value           nonuniform 0();
    }
    wall
    {
        type            calculated;
        value           uniform 0;
    }
    procBoundary4to0
    {
        type            processor;
        value           nonuniform List<scalar> 
36
(
4.35433e+09
4.98839e+09
6.76908e+09
5.18584e+09
7.08506e+09
7.77204e+09
5.90324e+09
4.32948e+09
6.04271e+09
5.13642e+09
9.59579e+09
9.0917e+09
8.08453e+09
7.19838e+09
6.62297e+09
1.04296e+10
7.1804e+09
6.93178e+09
5.18874e+09
5.58451e+09
9.05402e+09
6.10124e+09
8.69669e+09
8.40482e+09
8.24903e+09
4.94915e+09
9.3387e+09
4.82861e+09
6.73964e+09
9.84333e+09
1.02564e+10
5.52638e+09
9.88351e+09
8.59291e+09
5.621e+09
2.62602e+09
)
;
    }
    procBoundary4to5
    {
        type            processor;
        value           nonuniform List<scalar> 
12
(
6.65267e+09
8.21228e+09
8.51917e+09
1.03747e+10
7.26356e+09
6.11478e+09
7.39731e+09
5.22427e+09
2.48957e+09
6.9742e+09
6.07168e+09
7.22315e+09
)
;
    }
    procBoundary4to6
    {
        type            processor;
        value           nonuniform List<scalar> 
27
(
9.95457e+09
8.95623e+09
6.08386e+09
7.98587e+09
1.10813e+10
6.07943e+09
8.71224e+09
6.67677e+09
9.97063e+09
7.34952e+09
9.00343e+09
9.65996e+09
8.63751e+09
6.67059e+09
7.89545e+09
7.93267e+09
6.11742e+09
9.57408e+09
4.91299e+09
5.40999e+09
7.43568e+09
7.03396e+09
7.17512e+09
6.51768e+09
1.03077e+10
8.70939e+09
4.53716e+09
)
;
    }
}


// ************************************************************************* //
