/*--------------------------------*- C++ -*----------------------------------*\
| =========                 |                                                 |
| \\      /  F ield         | OpenFOAM: The Open Source CFD Toolbox           |
|  \\    /   O peration     | Version:  4.x                                   |
|   \\  /    A nd           | Web:      www.OpenFOAM.org                      |
|    \\/     M anipulation  |                                                 |
\*---------------------------------------------------------------------------*/
FoamFile
{
    version     2.0;
    format      ascii;
    class       volScalarField;
    location    "57";
    object      thCond;
}
// * * * * * * * * * * * * * * * * * * * * * * * * * * * * * * * * * * * * * //

dimensions      [1 1 -3 -1 0 0 0];

internalField   nonuniform List<scalar> 
108
(
191.726
191.286
190.972
190.948
190.84
190.785
190.572
190.469
190.129
191.31
191.11
190.794
190.52
190.465
190.472
190.453
190.39
190.035
191.239
190.85
190.662
190.362
190.361
190.364
190.272
190.034
190.187
191.292
190.96
190.592
190.47
190.228
190.186
189.934
190.183
190.178
191.685
191.386
190.967
190.675
190.63
190.68
190.621
190.247
189.986
191.445
191.091
190.874
190.616
190.531
190.455
190.327
190.089
189.933
191.363
190.909
190.534
190.311
190.194
190.16
190.124
190.046
190.029
191.005
190.749
190.561
190.136
190
190.007
189.803
189.957
190.02
191.689
191.265
191.234
190.798
190.659
190.294
190.286
190.272
190.176
191.433
190.867
190.914
190.744
190.546
190.287
190.285
190.242
190.043
191.242
190.775
190.543
190.349
190.353
190.168
190.183
190.072
190.106
190.919
190.752
190.611
190.194
190.079
189.854
190.201
190.236
190.146
)
;

boundaryField
{
    inlet
    {
        type            zeroGradient;
    }
    outlet
    {
        type            zeroGradient;
    }
    wall
    {
        type            zeroGradient;
    }
    procBoundary4to0
    {
        type            processor;
        value           nonuniform List<scalar> 
36
(
192.072
191.733
191.4
191.297
191.122
190.958
191.078
191.133
190.961
191.749
191.305
191.082
190.975
190.918
190.814
190.606
190.715
190.678
191.7
191.383
190.93
190.797
190.612
190.445
190.505
190.657
190.465
191.544
191.21
190.723
190.49
190.651
190.265
190.342
190.584
190.698
)
;
    }
    procBoundary4to5
    {
        type            processor;
        value           nonuniform List<scalar> 
12
(
190.32
190.109
189.944
189.742
190.211
190.157
189.993
190.005
190.687
190.233
190.089
189.951
)
;
    }
    procBoundary4to6
    {
        type            processor;
        value           nonuniform List<scalar> 
27
(
190.692
190.713
190.716
190.341
190.09
190.23
190.091
190.137
189.978
190.835
190.675
190.485
190.237
190.263
190.117
190.057
190.106
189.937
191.199
191.002
190.675
190.335
190.19
190.075
189.912
189.966
190.299
)
;
    }
}


// ************************************************************************* //
