/*--------------------------------*- C++ -*----------------------------------*\
| =========                 |                                                 |
| \\      /  F ield         | OpenFOAM: The Open Source CFD Toolbox           |
|  \\    /   O peration     | Version:  4.x                                   |
|   \\  /    A nd           | Web:      www.OpenFOAM.org                      |
|    \\/     M anipulation  |                                                 |
\*---------------------------------------------------------------------------*/
FoamFile
{
    version     2.0;
    format      ascii;
    class       volScalarField;
    location    "34.5";
    object      p_rgh;
}
// * * * * * * * * * * * * * * * * * * * * * * * * * * * * * * * * * * * * * //

dimensions      [1 -1 -2 0 0 0 0];

internalField   nonuniform List<scalar> 
108
(
18.3415
74.5448
-1.40071
68.7114
-21.8997
64.4606
-43.5395
62.2417
-68.6917
19.0831
74.6803
-0.449691
68.8602
-19.9405
64.1969
-39.1207
60.3637
-60.1993
18.5063
74.5238
-1.55097
68.6882
-22.2863
64.353
-45.0664
62.9331
-78.0096
18.8859
74.5902
-0.58484
68.9204
-21.7833
64.68
-44.9147
64.0285
-187.816
18.2796
74.8693
-1.33296
68.5907
-21.3211
63.2398
-40.6824
59.3775
-57.3185
19.1013
74.8398
-0.20818
68.4911
-19.5117
62.8644
-38.3057
58.0005
-53.879
18.4239
74.6706
-1.70067
68.4828
-22.7869
63.3695
-45.1692
61.1542
-67.1541
18.9108
74.6615
-0.790901
68.751
-21.8873
63.9767
-45.0984
62.2155
-69.7481
19.6162
74.6534
0.878249
68.2965
-17.7645
63.0748
-35.5846
58.1531
-51.0817
20.0526
74.7735
1.31429
68.47
-17.0801
63.3012
-35.6319
58.7481
-52.6563
19.3842
74.7955
0.102952
68.1871
-19.1913
62.4772
-38.6986
58.1359
-55.2262
19.3858
74.7037
0.10818
68.6423
-20.1451
63.5259
-42.2721
60.7432
-67.2798
)
;

boundaryField
{
    inlet
    {
        type            fixedFluxPressure;
        gradient        nonuniform 0();
        value           nonuniform 0();
    }
    outlet
    {
        type            fixedValue;
        value           uniform 0;
    }
    wall
    {
        type            fixedFluxPressure;
        gradient        nonuniform List<scalar> 
63
(
-6.22419e-05
-5.154e-05
-1.61468e-05
-1.36022e-05
-3.04922e-05
-2.252e-05
-2.21192e-05
-1.12051e-05
-1.39152e-05
-2.21349e-05
-2.42678e-05
-2.69458e-05
9.7903e-06
1.45025e-05
2.39428e-06
1.2974e-06
9.82048e-05
0.000123226
7.40479e-05
2.96804e-05
7.30689e-05
0.000103216
7.84087e-05
3.12241e-05
0.00036565
0.000698863
0.000354451
7.99824e-05
0.000283013
0.000450011
0.000233282
3.94914e-05
0.000864887
0.00519597
0.000745631
0.000186455
-1.35048e-05
-1.55179e-05
-1.46559e-05
-1.92975e-05
-9.84694e-06
-6.40773e-06
-0.000275612
-1.14981e-05
-1.80964e-05
-2.58958e-06
-4.27355e-06
-7.13736e-06
3.91254e-06
-2.36689e-06
-1.03948e-05
8.85422e-06
6.36846e-07
-5.98748e-06
6.41211e-05
-3.68381e-06
8.52149e-06
2.20447e-05
4.90359e-07
-6.269e-06
-0.00234346
-9.44691e-06
-3.01548e-05
)
;
        value           nonuniform List<scalar> 
63
(
18.3415
19.0831
18.5063
18.8859
74.5448
74.6803
74.5238
74.5902
-1.40071
-0.449691
-1.55097
-0.584841
68.7114
68.8602
68.6882
68.9204
-21.8997
-19.9405
-22.2863
-21.7833
64.4606
64.1969
64.353
64.68
-43.5395
-39.1207
-45.0664
-44.9147
62.2417
60.3637
62.9331
64.0285
-68.6917
-60.1992
-78.0096
-187.816
18.8859
18.9108
19.3858
74.5902
74.6615
74.7037
-0.584844
-0.790901
0.10818
68.9204
68.751
68.6423
-21.7833
-21.8873
-20.1451
64.68
63.9767
63.5259
-44.9147
-45.0984
-42.2721
64.0285
62.2155
60.7432
-187.816
-69.7481
-67.2798
)
;
    }
    procBoundary3to1
    {
        type            processor;
        value           nonuniform List<scalar> 
27
(
18.933
74.7189
-0.504369
68.7444
-21.0328
63.9377
-43.0193
61.7063
-68.0625
19.3348
75.1293
0.320696
68.6311
-18.7149
62.5553
-37.1265
56.5825
-51.5784
19.283
74.5789
0.291856
68.3378
-19.0724
63.0125
-38.2072
59.1646
-55.0886
)
;
    }
    procBoundary3to2
    {
        type            processor;
        value           nonuniform List<scalar> 
12
(
81.1891
81.3047
81.1901
81.0149
81.6189
81.6792
81.5385
81.2934
81.5459
81.7381
81.7575
81.4731
)
;
    }
    procBoundary3to7
    {
        type            processor;
        value           nonuniform List<scalar> 
36
(
22.1519
74.7928
3.99357
68.1947
-14.2253
62.3384
-32.5345
56.3775
-48.8722
21.2854
74.6707
2.84706
67.8033
-15.2561
61.2468
-33.0437
55.012
-48.8911
19.7481
74.6959
0.470087
68.1483
-19.1415
62.4103
-39.7309
58.7785
-60.9931
19.9479
74.7043
0.689904
68.369
-19.0533
62.8208
-39.8614
59.0911
-61.0967
)
;
    }
}


// ************************************************************************* //
