/*--------------------------------*- C++ -*----------------------------------*\
| =========                 |                                                 |
| \\      /  F ield         | OpenFOAM: The Open Source CFD Toolbox           |
|  \\    /   O peration     | Version:  4.x                                   |
|   \\  /    A nd           | Web:      www.OpenFOAM.org                      |
|    \\/     M anipulation  |                                                 |
\*---------------------------------------------------------------------------*/
FoamFile
{
    version     2.0;
    format      ascii;
    class       volVectorField;
    location    "34.5";
    object      Urel;
}
// * * * * * * * * * * * * * * * * * * * * * * * * * * * * * * * * * * * * * //

dimensions      [0 1 -1 0 0 0 0];

internalField   nonuniform List<vector> 
108
(
(-0.0230033 -3.77428e-06 0.000443298)
(-0.0244413 -3.53685e-05 0.00037528)
(-0.0231445 -5.0642e-05 0.000281071)
(-0.0245544 -4.0104e-05 0.000158342)
(-0.022844 1.60539e-05 0.000124381)
(-0.0241067 6.26809e-05 -6.85092e-05)
(-0.0216103 0.000223074 0.000186637)
(-0.0225087 0.00023361 2.90994e-05)
(-0.0185387 0.000697767 0.00108401)
(-0.0229988 -5.81741e-05 0.000425378)
(-0.0244866 -7.27839e-05 0.00034187)
(-0.0231542 -8.96094e-05 0.000243289)
(-0.0246015 -0.000105561 9.85456e-05)
(-0.0228499 -0.000165667 4.82203e-05)
(-0.0240962 -0.000198028 -0.000150762)
(-0.0215332 -0.000349523 4.82085e-05)
(-0.022223 -0.000350166 -3.64909e-05)
(-0.0184671 -0.000813351 0.000771577)
(-0.0240079 -0.000120745 0.000440753)
(-0.0254917 -0.000109963 0.000358549)
(-0.0243383 -9.79658e-05 0.000246353)
(-0.0258096 -0.000112276 0.000123509)
(-0.0242611 -0.000248644 4.52008e-05)
(-0.0256784 -0.000307144 -8.26904e-05)
(-0.0232825 -0.000749252 0.000136473)
(-0.0244359 -0.000805399 0.000321833)
(-0.0199578 -0.00228404 0.00147467)
(-0.0253493 -8.77255e-05 0.000478869)
(-0.0267457 -5.66501e-05 0.00040004)
(-0.0258321 2.41844e-06 0.000309595)
(-0.0272021 -6.66707e-06 0.00020709)
(-0.0258949 -8.52953e-05 0.0001583)
(-0.0272717 -0.000196343 8.44124e-05)
(-0.0250947 -0.000556344 0.000349054)
(-0.0263524 -0.000853638 0.000857292)
(-0.0215171 -0.00198616 0.00302172)
(-0.02047 -1.84922e-05 0.000405642)
(-0.0222801 -5.45016e-05 0.000309594)
(-0.0203908 -5.46588e-05 0.000236864)
(-0.0222619 -6.02591e-05 7.40495e-05)
(-0.0200989 -3.31539e-05 6.58902e-05)
(-0.0218423 1.82119e-05 -0.000171433)
(-0.0192978 4.7931e-05 5.02113e-05)
(-0.0205407 0.000186857 -0.000205727)
(-0.0174468 9.95212e-05 0.00100046)
(-0.0207018 -6.11554e-05 0.000411602)
(-0.0225337 -8.01156e-05 0.000322137)
(-0.0207098 -7.86901e-05 0.000243798)
(-0.0225756 -8.95138e-05 8.50155e-05)
(-0.0205045 -0.000132073 7.853e-05)
(-0.02223 -0.000141498 -0.00013908)
(-0.0197118 -0.000300955 7.20671e-05)
(-0.0208955 -0.000263974 -7.55378e-05)
(-0.0176105 -0.00102367 0.000822388)
(-0.0217962 -0.000109297 0.000464389)
(-0.0235761 -9.85816e-05 0.00038567)
(-0.0219504 -7.42943e-05 0.000315838)
(-0.0238182 -5.83029e-05 0.000167629)
(-0.0219328 -0.000166947 0.000197539)
(-0.023816 -0.000168213 -1.73819e-05)
(-0.0213935 -0.000605406 0.000359361)
(-0.0229408 -0.000642605 0.00027393)
(-0.0189408 -0.00238492 0.00190152)
(-0.0234841 -8.88416e-05 0.000532947)
(-0.0249842 -5.80761e-05 0.000457066)
(-0.0237796 1.20992e-05 0.00041626)
(-0.0253301 2.04032e-05 0.000303681)
(-0.0237944 -3.74912e-05 0.000349515)
(-0.025451 -0.000113114 0.000210852)
(-0.0231844 -0.000489854 0.0005787)
(-0.0248488 -0.000789464 0.000813102)
(-0.0201727 -0.00212103 0.00299116)
(-0.018548 5.66303e-06 0.000307799)
(-0.0204902 -2.13986e-06 0.000211671)
(-0.0184468 -2.11421e-05 0.000148025)
(-0.0204024 -2.48617e-05 1.09226e-05)
(-0.0182633 -1.57269e-05 -9.19089e-06)
(-0.0200331 6.79077e-06 -0.000207611)
(-0.0176768 2.70387e-05 -9.35187e-05)
(-0.0189423 4.28848e-05 -0.000332553)
(-0.0166284 8.15576e-05 0.000555372)
(-0.0188746 -4.94893e-05 0.000334621)
(-0.0208189 -3.98408e-05 0.000241849)
(-0.0187622 -4.73484e-05 0.000175682)
(-0.0207757 -5.97581e-05 3.72115e-05)
(-0.0186448 -9.10191e-05 2.88703e-05)
(-0.0205404 -0.000154521 -0.000185607)
(-0.0181539 -0.000247329 -9.73004e-06)
(-0.0195637 -0.000307629 -0.000235874)
(-0.0167968 -0.000903035 0.000576294)
(-0.019915 -0.000107047 0.000402923)
(-0.0218142 -8.44827e-05 0.000332009)
(-0.0198776 -5.82772e-05 0.000286466)
(-0.0218953 -3.37604e-05 0.000182346)
(-0.0198623 -0.000115427 0.000212459)
(-0.0218193 -0.000145682 6.90108e-05)
(-0.0195709 -0.000502393 0.000361482)
(-0.0209059 -0.000574713 0.000227063)
(-0.0179033 -0.00207626 0.00129205)
(-0.0217397 -0.000120077 0.000529211)
(-0.0232635 -8.34331e-05 0.000462823)
(-0.0218597 -3.7693e-05 0.000475924)
(-0.0234608 2.55607e-06 0.000375461)
(-0.0218039 -0.000101858 0.000490565)
(-0.0235084 -0.000113807 0.000345103)
(-0.0213073 -0.000539797 0.00073356)
(-0.0229417 -0.000670866 0.00064371)
(-0.0187704 -0.00207368 0.00194767)
)
;

boundaryField
{
    inlet
    {
        type            calculated;
        value           nonuniform 0();
    }
    outlet
    {
        type            calculated;
        value           nonuniform List<vector> 
12
(
(-0.00640171 0.00669257 0.0033062)
(-0.00415102 -0.00179005 0.000122566)
(-0.00835708 -0.0121814 0.00131422)
(-0.0147406 -0.00433124 0.0148681)
(-0.00381799 -0.00130568 0.00513957)
(-0.0032639 -0.00377097 0.000786989)
(-0.00634574 -0.0142612 0.0103183)
(-0.00896504 -0.00618581 0.0164868)
(-0.00586448 0.000520167 0.00338253)
(-0.0031312 -0.00133111 0.00139124)
(-0.00877856 -0.0119779 0.00491969)
(-0.00786191 -0.009788 0.0073486)
)
;
    }
    wall
    {
        type            calculated;
        value           nonuniform List<vector> 
63
(
(-1.08184e-08 -7.32115e-09 8.89509e-09)
(-1.41109e-08 -5.28484e-09 6.91315e-09)
(-1.08051e-08 3.4648e-09 4.39995e-09)
(-6.23861e-09 -2.82461e-09 2.32958e-09)
(-1.35195e-08 -6.50655e-09 9.59234e-09)
(-1.77386e-08 -5.08373e-09 7.35583e-09)
(-1.4394e-08 -2.80956e-09 6.23776e-09)
(-9.62345e-09 -3.54782e-09 3.61051e-09)
(-1.51294e-08 -1.01212e-08 7.16042e-09)
(-1.79725e-08 -4.56056e-09 5.88216e-09)
(-1.58565e-08 -1.83417e-09 5.35662e-09)
(-8.00994e-09 -2.66259e-08 4.77089e-09)
(-1.68622e-08 -4.62275e-09 3.69793e-09)
(-2.21078e-08 -2.37719e-09 2.54139e-09)
(-1.70054e-08 -8.39003e-10 3.04427e-09)
(-9.7309e-09 -9.73932e-10 1.47755e-09)
(-1.69695e-08 -4.28906e-09 -5.75432e-09)
(-2.49064e-08 -1.28301e-09 -4.55841e-09)
(-2.22991e-08 1.19969e-09 -2.78226e-09)
(-1.38749e-08 -1.27982e-10 -2.88097e-10)
(-1.16209e-08 -3.44002e-10 -1.15557e-08)
(-2.80588e-08 3.62539e-09 -1.29766e-08)
(-1.68892e-08 4.05492e-09 -1.13867e-08)
(-9.30531e-09 2.2759e-09 -4.22543e-09)
(-9.95761e-09 -6.8534e-09 -2.29226e-08)
(-2.58995e-08 1.33491e-09 -2.82148e-08)
(-1.38407e-08 4.21629e-09 -2.22618e-08)
(4.51797e-09 6.52697e-09 -7.87667e-09)
(5.2022e-08 4.9968e-08 -4.89677e-08)
(-4.77718e-08 3.19282e-08 -5.3524e-08)
(1.47805e-08 1.69041e-08 -4.52277e-08)
(1.02983e-08 5.16275e-09 -8.80488e-09)
(-8.7556e-07 2.32595e-08 -5.26852e-08)
(-1.34875e-06 5.73225e-08 -1.36852e-07)
(1.10167e-08 1.78668e-08 -5.44502e-08)
(-5.47718e-09 -1.45514e-07 -1.88725e-08)
(-6.23861e-09 -2.82461e-09 2.32958e-09)
(-6.57589e-09 -1.57547e-09 2.52392e-09)
(-5.32433e-09 -3.36617e-10 2.57553e-09)
(-9.62345e-09 -3.54782e-09 3.61051e-09)
(-1.08827e-08 -1.60223e-09 3.27708e-09)
(-6.53938e-09 -1.0117e-09 2.77879e-09)
(-8.00994e-09 -2.66259e-08 4.77089e-09)
(-7.85228e-09 -9.05436e-10 2.67529e-09)
(-6.9121e-09 -2.28449e-09 3.2056e-09)
(-9.7309e-09 -9.73932e-10 1.47755e-09)
(-7.7887e-09 -1.0047e-09 1.29727e-09)
(-5.51856e-09 -1.6628e-09 1.02369e-09)
(-1.38749e-08 -1.27982e-10 -2.88097e-10)
(-6.71115e-09 -2.31523e-10 -1.33173e-09)
(-5.77476e-09 -3.73758e-10 -1.33212e-09)
(-9.30531e-09 2.2759e-09 -4.22543e-09)
(-4.85032e-09 2.54207e-10 -4.51941e-09)
(-3.77284e-09 -4.75346e-10 -3.44768e-09)
(4.51797e-09 6.52697e-09 -7.87667e-09)
(-2.0045e-09 -2.29866e-10 -7.77793e-09)
(-2.45509e-09 4.29216e-10 -6.06879e-09)
(1.02983e-08 5.16275e-09 -8.80488e-09)
(-5.59112e-10 -1.63903e-10 -9.62532e-09)
(-2.22935e-09 -1.33191e-09 -7.74097e-09)
(-5.47718e-09 -1.45514e-07 -1.88725e-08)
(-7.58288e-10 -3.65342e-10 -1.4547e-08)
(-4.80218e-10 -1.70708e-09 -5.4597e-09)
)
;
    }
    procBoundary3to1
    {
        type            processor;
        value           nonuniform List<vector> 
27
(
(-0.023343 4.8938e-05 0.000508139)
(-0.0247736 7.76562e-06 0.000444552)
(-0.0235115 -2.05523e-05 0.000386317)
(-0.0249629 -2.37392e-05 0.000278483)
(-0.0233244 6.1559e-05 0.000326827)
(-0.024754 0.000100593 0.000129599)
(-0.0224116 0.000398259 0.000530594)
(-0.0236576 0.000426068 0.00028844)
(-0.0194611 0.00133934 0.00187064)
(-0.0207952 3.91442e-05 0.000412289)
(-0.0225993 7.33027e-06 0.000316202)
(-0.0207002 -1.58735e-05 0.000259343)
(-0.0226016 -3.46532e-05 0.000122806)
(-0.0204554 2.44211e-05 0.000129497)
(-0.022242 4.16795e-05 -6.16473e-05)
(-0.0198134 0.000235704 0.000193742)
(-0.0210478 0.000307957 6.13603e-05)
(-0.0181852 0.00100923 0.00146405)
(-0.0190365 5.82163e-05 0.000344822)
(-0.0209383 1.62824e-05 0.000243915)
(-0.0189746 1.19518e-05 0.000218226)
(-0.0209106 -2.01333e-05 8.66081e-05)
(-0.0188286 6.21512e-05 0.000117601)
(-0.0206033 6.41115e-05 -8.73023e-05)
(-0.0183507 0.000310237 0.000146329)
(-0.0195816 0.00022437 -0.000146994)
(-0.0171768 0.00113739 0.000794163)
)
;
    }
    procBoundary3to2
    {
        type            processor;
        value           nonuniform List<vector> 
12
(
(-0.0240967 1.63315e-05 0.00056241)
(-0.0241121 -6.32907e-05 0.000545711)
(-0.0249548 -0.000156998 0.000555296)
(-0.0260429 -0.000160081 0.000572864)
(-0.022161 -3.02123e-06 0.000504944)
(-0.022347 -7.12628e-05 0.000520929)
(-0.0232474 -0.000162678 0.000568343)
(-0.0244988 -0.000173309 0.000614586)
(-0.0205104 3.22768e-05 0.00038631)
(-0.0208113 -4.52811e-05 0.000418574)
(-0.0217055 -0.000155025 0.000465435)
(-0.0230021 -0.000190149 0.000558879)
)
;
    }
    procBoundary3to7
    {
        type            processor;
        value           nonuniform List<vector> 
36
(
(-0.0175382 3.12021e-06 0.000203652)
(-0.0194659 -2.50807e-05 0.000143205)
(-0.0174595 -1.78294e-05 8.73883e-05)
(-0.0194005 -5.32654e-05 -8.6643e-06)
(-0.0173152 -1.98118e-05 -6.25581e-05)
(-0.019111 -2.72553e-05 -0.000240625)
(-0.0168419 9.54419e-06 -0.000221873)
(-0.0181763 9.37872e-05 -0.00046907)
(-0.0161451 -0.00011103 -0.000131604)
(-0.0179 -5.38475e-05 0.000247193)
(-0.0198048 -4.73687e-05 0.000190817)
(-0.0178088 -3.98151e-05 0.000151602)
(-0.0197434 -4.34169e-05 7.97794e-05)
(-0.0177696 -9.5522e-05 6.02821e-05)
(-0.019529 -0.000100985 -9.35918e-05)
(-0.0175034 -0.00030551 9.74011e-06)
(-0.018675 -0.000175027 -0.000251318)
(-0.0165762 -0.00108224 0.000228611)
(-0.0191276 -0.000122147 0.000349089)
(-0.0209037 -7.59758e-05 0.000292584)
(-0.0190532 -7.59609e-05 0.000302894)
(-0.0208975 -1.01174e-05 0.000242988)
(-0.0189466 -0.000113748 0.000281275)
(-0.0207583 -2.77492e-05 0.000177078)
(-0.0185317 -0.000360741 0.000330972)
(-0.0199307 -0.000214743 7.22077e-05)
(-0.0169038 -0.00129865 0.00068568)
(-0.0207579 -0.00010585 0.000474579)
(-0.0222188 -6.07308e-05 0.000437417)
(-0.0207047 -2.8677e-05 0.00047485)
(-0.0222143 1.10823e-05 0.000413432)
(-0.0204579 -4.87489e-05 0.000511644)
(-0.0219928 -4.8167e-05 0.000378167)
(-0.0197278 -0.000274058 0.000638762)
(-0.0209895 -0.000369984 0.000339968)
(-0.017384 -0.00098884 0.00117642)
)
;
    }
}


// ************************************************************************* //
