/*--------------------------------*- C++ -*----------------------------------*\
| =========                 |                                                 |
| \\      /  F ield         | OpenFOAM: The Open Source CFD Toolbox           |
|  \\    /   O peration     | Version:  4.x                                   |
|   \\  /    A nd           | Web:      www.OpenFOAM.org                      |
|    \\/     M anipulation  |                                                 |
\*---------------------------------------------------------------------------*/
FoamFile
{
    version     2.0;
    format      ascii;
    class       volScalarField;
    location    "12";
    object      alpha.iron;
}
// * * * * * * * * * * * * * * * * * * * * * * * * * * * * * * * * * * * * * //

dimensions      [0 0 0 0 0 0 0];

internalField   nonuniform List<scalar> 
108
(
1
0.999999
0.999998
0.999993
0.999981
0.999961
0.99993
0.999891
0.999843
1
0.999999
0.999996
0.999985
0.99996
0.999917
0.999867
0.999828
0.999822
1
0.999999
0.999996
0.999982
0.999953
0.999906
0.999853
0.999817
0.999816
1
0.999999
0.999995
0.999981
0.999949
0.999897
0.999839
0.999802
0.9998
1
1
0.999998
0.999994
0.999985
0.999971
0.999948
0.999921
0.999887
1
0.999999
0.999997
0.99999
0.999975
0.999948
0.99991
0.999876
0.999857
1
0.999999
0.999997
0.999989
0.999971
0.99994
0.999899
0.999863
0.999844
1
0.999999
0.999997
0.999987
0.999967
0.999931
0.999886
0.999845
0.999825
1
0.999999
0.999998
0.999994
0.999986
0.999972
0.999951
0.999924
0.999893
1
0.999999
0.999998
0.999993
0.999982
0.999966
0.99994
0.99991
0.999879
1
0.999999
0.999998
0.999992
0.999981
0.999962
0.999935
0.999903
0.99987
1
0.999999
0.999997
0.999992
0.999979
0.999959
0.999928
0.999895
0.999861
)
;

boundaryField
{
    inlet
    {
        type            fixedValue;
        value           uniform 1;
    }
    outlet
    {
        type            fixedValue;
        value           nonuniform 0();
    }
    wall
    {
        type            zeroGradient;
    }
    procBoundary4to0
    {
        type            processor;
        value           nonuniform List<scalar> 
36
(
1
0.999999
0.999997
0.999991
0.999977
0.999952
0.999912
0.999858
0.999784
1
0.999999
0.999996
0.999984
0.999958
0.999913
0.999852
0.999789
0.999738
1
0.999999
0.999995
0.99998
0.999946
0.99989
0.999821
0.999764
0.999735
1
0.999999
0.999994
0.999976
0.999937
0.999875
0.999796
0.999732
0.999694
)
;
    }
    procBoundary4to5
    {
        type            processor;
        value           nonuniform List<scalar> 
12
(
0.999791
0.999871
0.999868
0.999853
0.999854
0.999871
0.999855
0.999841
0.99986
0.999851
0.999841
0.999833
)
;
    }
    procBoundary4to6
    {
        type            processor;
        value           nonuniform List<scalar> 
27
(
1
0.999999
0.999995
0.99998
0.999949
0.9999
0.999851
0.999825
0.999837
1
0.999999
0.999996
0.999987
0.999966
0.999932
0.999891
0.999857
0.999845
1
0.999999
0.999997
0.999992
0.999981
0.999961
0.999932
0.999898
0.99986
)
;
    }
}


// ************************************************************************* //
