/*--------------------------------*- C++ -*----------------------------------*\
| =========                 |                                                 |
| \\      /  F ield         | OpenFOAM: The Open Source CFD Toolbox           |
|  \\    /   O peration     | Version:  4.x                                   |
|   \\  /    A nd           | Web:      www.OpenFOAM.org                      |
|    \\/     M anipulation  |                                                 |
\*---------------------------------------------------------------------------*/
FoamFile
{
    version     2.0;
    format      ascii;
    class       volScalarField;
    location    "12";
    object      p;
}
// * * * * * * * * * * * * * * * * * * * * * * * * * * * * * * * * * * * * * //

dimensions      [1 -1 -2 0 0 0 0];

internalField   nonuniform List<scalar> 
108
(
-1764.52
-1781.85
-1773.28
-1800.75
-1782.6
-1819.3
-1790.91
-1837.18
-1798.56
-1764.03
-1781.69
-1772.61
-1800.46
-1781.87
-1819.07
-1790.35
-1836.9
-1798.29
-1764.18
-1781.86
-1772.64
-1800.24
-1781.81
-1818.6
-1790.33
-1836.22
-1798.16
-1764.32
-1781.8
-1772.39
-1799.81
-1781.27
-1817.96
-1790.01
-1835.81
-1798.03
-3643.4
-3660.4
-3651.5
-3678.41
-3660.27
-3696.76
-3668.5
-3714.71
-3676.29
-3642.89
-3660.18
-3651
-3678.16
-3659.7
-3696.41
-3667.97
-3714.41
-3675.9
-3642.87
-3660.17
-3650.96
-3678.18
-3659.67
-3696.47
-3668.02
-3714.52
-3675.86
-3642.63
-3660.16
-3650.63
-3677.83
-3659.28
-3695.99
-3667.7
-3713.91
-3675.78
-5521.77
-5538.64
-5529.63
-5556.14
-5538.01
-5574.24
-5546.3
-5592.29
-5554.21
-5521.29
-5538.41
-5529.26
-5556.05
-5537.71
-5574.12
-5546.07
-5592.07
-5554.05
-5521.18
-5538.39
-5529.18
-5556.08
-5537.66
-5574.1
-5545.99
-5592.05
-5553.89
-5520.92
-5538.38
-5528.89
-5555.85
-5537.41
-5573.94
-5545.89
-5591.64
-5553.82
)
;

boundaryField
{
    inlet
    {
        type            calculated;
        value           nonuniform List<scalar> 
12
(
-1764.52
-1764.03
-1764.18
-1764.32
-3643.4
-3642.89
-3642.87
-3642.63
-5521.77
-5521.29
-5521.18
-5520.92
)
;
    }
    outlet
    {
        type            calculated;
        value           nonuniform 0();
    }
    wall
    {
        type            calculated;
        value           nonuniform List<scalar> 
63
(
-6460.72
-6460.25
-6460.14
-6459.87
-6477.6
-6477.36
-6477.35
-6477.33
-6468.59
-6468.22
-6468.14
-6467.84
-6495.1
-6495
-6495.03
-6494.8
-6476.95
-6476.65
-6476.6
-6476.35
-6513.18
-6513.05
-6513.02
-6512.86
-6485.21
-6484.97
-6484.88
-6484.78
-6531.17
-6530.95
-6530.92
-6530.5
-6493.07
-6492.9
-6492.73
-6492.65
-1764.52
-3643.4
-5521.77
-1781.85
-3660.4
-5538.64
-1773.28
-3651.5
-5529.63
-1800.75
-3678.41
-5556.14
-1782.6
-3660.27
-5538.01
-1819.3
-3696.76
-5574.24
-1790.91
-3668.5
-5546.3
-1837.18
-3714.71
-5592.29
-1798.56
-3676.29
-5554.21
)
;
    }
    procBoundary4to0
    {
        type            processor;
        value           nonuniform List<scalar> 
36
(
114.858
96.9383
104.264
76.167
93.9123
57.1829
85.861
39.598
78.8067
114.766
96.7417
104.729
76.4918
94.6543
57.6538
86.5163
39.7968
79.174
113.879
96.1641
104.746
76.8372
95.1642
58.0571
86.8208
40.0811
79.4383
113.291
95.7966
104.901
77.1526
95.691
58.7146
87.1858
40.6378
79.5785
)
;
    }
    procBoundary4to5
    {
        type            processor;
        value           nonuniform List<scalar> 
12
(
-1855.23
-1854.85
-1853.52
-1852.88
-3733.12
-3732.66
-3732.57
-3731.15
-5610.52
-5610.16
-5609.96
-5609.13
)
;
    }
    procBoundary4to6
    {
        type            processor;
        value           nonuniform List<scalar> 
27
(
-1764.78
-1782.58
-1772.83
-1800.08
-1781.46
-1818.1
-1789.91
-1835.77
-1797.98
-3643.07
-3660.65
-3651.08
-3678.23
-3659.5
-3696.11
-3667.75
-3714.08
-3675.59
-5521.43
-5538.66
-5529.21
-5556.04
-5537.5
-5573.84
-5545.64
-5591.82
-5553.47
)
;
    }
}


// ************************************************************************* //
