/*--------------------------------*- C++ -*----------------------------------*\
| =========                 |                                                 |
| \\      /  F ield         | OpenFOAM: The Open Source CFD Toolbox           |
|  \\    /   O peration     | Version:  4.x                                   |
|   \\  /    A nd           | Web:      www.OpenFOAM.org                      |
|    \\/     M anipulation  |                                                 |
\*---------------------------------------------------------------------------*/
FoamFile
{
    version     2.0;
    format      ascii;
    class       volScalarField;
    location    "12";
    object      p_rgh;
}
// * * * * * * * * * * * * * * * * * * * * * * * * * * * * * * * * * * * * * //

dimensions      [1 -1 -2 0 0 0 0];

internalField   nonuniform List<scalar> 
108
(
113.398
96.0635
104.633
77.1523
95.2822
58.537
86.8679
40.53
79.0552
113.881
96.2243
105.301
77.4277
95.9689
58.6927
87.3185
40.696
79.2852
113.734
96.0566
105.263
77.6423
96.0202
59.1423
87.3072
41.3486
79.4044
113.598
96.1136
105.511
78.0684
96.5478
59.7626
87.5982
41.7274
79.5053
112.427
95.4248
104.325
77.3991
95.5016
58.9563
87.1377
40.8249
79.1111
112.938
95.6472
104.823
77.634
96.0305
59.2188
87.5197
40.9485
79.393
112.962
95.6563
104.86
77.6101
96.0483
59.1322
87.428
40.7992
79.3853
113.2
95.6706
105.187
77.9529
96.4264
59.5839
87.7005
41.3361
79.3961
111.975
95.0953
104.097
77.565
95.6541
59.3411
87.1642
41.0304
78.9288
112.453
95.333
104.469
77.6559
95.9383
59.4265
87.3345
41.1643
79.0088
112.558
95.3494
104.548
77.6157
95.9728
59.4327
87.3861
41.149
79.1181
112.824
95.3615
104.843
77.846
96.2163
59.5721
87.4497
41.5136
79.138
)
;

boundaryField
{
    inlet
    {
        type            fixedFluxPressure;
        gradient        nonuniform List<scalar> 
12
(
0.0144185
0.0134439
0.0230713
0.0281235
0.0365638
0.0323507
0.0414799
0.0455285
0.054133
0.0496036
0.0838525
0.048296
)
;
        value           nonuniform List<scalar> 
12
(
113.398
113.882
113.735
113.598
112.427
112.939
112.963
113.201
111.976
112.454
112.559
112.825
)
;
    }
    outlet
    {
        type            fixedValue;
        value           nonuniform 0();
    }
    wall
    {
        type            fixedFluxPressure;
        gradient        nonuniform List<scalar> 
63
(
2.6125e-05
-0.000139707
-9.45511e-06
7.81072e-05
0.000242664
0.000382736
0.000400454
0.00042328
0.000172456
0.000349549
0.00032972
0.000509756
0.000388667
0.000768491
0.000833933
0.00117419
0.0002634
0.000354211
0.000366795
0.00102027
0.000816835
0.00073578
0.00152167
0.00237504
0.000543087
0.000273943
0.000819409
0.000267103
0.000566002
0.000144573
3.02643e-05
-0.000277547
0.000180399
0.000264553
-0.000286173
-0.00020133
-2.91222e-05
3.13709e-05
2.37961e-05
-0.000175825
0.000113333
8.40537e-05
0.000133523
5.73193e-05
0.00014096
0.000253116
0.000400707
0.000260085
-0.000174009
0.000113667
0.000206894
0.000798404
0.000755512
0.000419966
0.000673545
0.000229924
6.49873e-05
0.000739745
0.00175976
0.000358412
-0.000385989
0.000233013
3.30688e-05
)
;
        value           nonuniform List<scalar> 
63
(
111.975
112.453
112.558
112.824
95.0953
95.333
95.3494
95.3615
104.097
104.469
104.548
104.843
77.565
77.6559
77.6157
77.846
95.6541
95.9383
95.9728
96.2163
59.3411
59.4265
59.4327
59.5721
87.1642
87.3345
87.3861
87.4497
41.0304
41.1643
41.149
41.5136
78.9288
79.0088
79.1181
79.138
113.398
112.427
111.975
96.0635
95.4248
95.0953
104.633
104.325
104.097
77.1523
77.3991
77.565
95.2822
95.5016
95.6541
58.537
58.9563
59.3411
86.8679
87.1377
87.1642
40.53
40.8249
41.0304
79.0552
79.1112
78.9288
)
;
    }
    procBoundary4to0
    {
        type            processor;
        value           nonuniform List<scalar> 
36
(
114.858
96.9383
104.264
76.167
93.9123
57.1829
85.861
39.598
78.8067
114.766
96.7417
104.729
76.4918
94.6543
57.6538
86.5163
39.7968
79.174
113.879
96.1641
104.746
76.8372
95.1642
58.0571
86.8208
40.0811
79.4383
113.291
95.7966
104.901
77.1526
95.691
58.7146
87.1858
40.6378
79.5785
)
;
    }
    procBoundary4to5
    {
        type            processor;
        value           nonuniform List<scalar> 
12
(
22.2959
22.8259
24.146
24.7605
22.1591
22.6829
22.7113
24.0815
22.4379
22.7379
22.8914
23.6733
)
;
    }
    procBoundary4to6
    {
        type            processor;
        value           nonuniform List<scalar> 
27
(
113.131
95.3339
105.077
77.7997
96.3547
59.6294
87.7293
41.8208
79.6306
112.756
95.1721
104.735
77.5526
96.1976
59.4651
87.6712
41.2169
79.6521
112.316
95.0758
104.515
77.6549
96.1382
59.6875
87.7209
41.3482
79.4882
)
;
    }
}


// ************************************************************************* //
