/*--------------------------------*- C++ -*----------------------------------*\
| =========                 |                                                 |
| \\      /  F ield         | OpenFOAM: The Open Source CFD Toolbox           |
|  \\    /   O peration     | Version:  4.x                                   |
|   \\  /    A nd           | Web:      www.OpenFOAM.org                      |
|    \\/     M anipulation  |                                                 |
\*---------------------------------------------------------------------------*/
FoamFile
{
    version     2.0;
    format      ascii;
    class       volScalarField;
    location    "12";
    object      thCond;
}
// * * * * * * * * * * * * * * * * * * * * * * * * * * * * * * * * * * * * * //

dimensions      [1 1 -3 -1 0 0 0];

internalField   nonuniform List<scalar> 
108
(
191.833
191.387
191.067
191.032
190.914
190.846
190.629
190.509
190.156
191.413
191.21
190.896
190.609
190.538
190.542
190.514
190.438
190.071
191.335
190.947
190.772
190.44
190.412
190.431
190.326
190.086
190.223
191.379
191.049
190.683
190.548
190.298
190.277
189.969
190.237
190.234
191.773
191.47
191.042
190.747
190.699
190.745
190.689
190.262
189.998
191.535
191.175
190.939
190.676
190.599
190.519
190.381
190.121
189.953
191.454
190.992
190.614
190.388
190.283
190.227
190.176
190.084
190.047
191.073
190.823
190.634
190.204
190.041
190.09
189.855
190.005
190.083
191.774
191.344
191.306
190.868
190.729
190.371
190.401
190.235
190.177
191.526
190.949
190.987
190.815
190.614
190.351
190.344
190.263
190.063
191.364
190.853
190.621
190.442
190.437
190.224
190.231
190.106
190.129
190.972
190.824
190.682
190.247
190.121
189.912
190.247
190.278
190.19
)
;

boundaryField
{
    inlet
    {
        type            zeroGradient;
    }
    outlet
    {
        type            zeroGradient;
    }
    wall
    {
        type            zeroGradient;
    }
    procBoundary4to0
    {
        type            processor;
        value           nonuniform List<scalar> 
36
(
192.206
191.859
191.513
191.397
191.203
191.005
191.141
191.199
191.018
191.875
191.426
191.192
191.083
191.012
190.917
190.686
190.79
190.75
191.816
191.498
191.043
190.896
190.698
190.527
190.581
190.731
190.524
191.651
191.32
190.842
190.581
190.745
190.336
190.413
190.658
190.766
)
;
    }
    procBoundary4to5
    {
        type            processor;
        value           nonuniform List<scalar> 
12
(
190.341
190.118
189.956
189.801
190.221
190.156
189.926
190.137
190.696
190.266
190.09
190.024
)
;
    }
    procBoundary4to6
    {
        type            processor;
        value           nonuniform List<scalar> 
27
(
190.764
190.795
190.803
190.431
190.159
190.296
190.145
190.193
190.03
190.877
190.743
190.549
190.335
190.32
190.183
190.106
190.155
189.988
191.299
191.084
190.76
190.407
190.252
190.143
189.949
190.006
190.348
)
;
    }
}


// ************************************************************************* //
