/*--------------------------------*- C++ -*----------------------------------*\
| =========                 |                                                 |
| \\      /  F ield         | OpenFOAM: The Open Source CFD Toolbox           |
|  \\    /   O peration     | Version:  4.x                                   |
|   \\  /    A nd           | Web:      www.OpenFOAM.org                      |
|    \\/     M anipulation  |                                                 |
\*---------------------------------------------------------------------------*/
FoamFile
{
    version     2.0;
    format      ascii;
    class       volScalarField;
    location    "39";
    object      QWallFluidCoeff;
}
// * * * * * * * * * * * * * * * * * * * * * * * * * * * * * * * * * * * * * //

dimensions      [1 -1 -3 -1 0 0 0];

internalField   nonuniform List<scalar> 
87
(
-5.3694e+06
-7.51323e+06
-5.46437e+06
-7.8831e+06
-5.40568e+06
-8.55001e+06
-4.96199e+06
-1.00883e+07
-3.79212e+06
-2.37704e+06
-3.59359e+06
-2.40248e+06
-3.74981e+06
-2.32905e+06
-4.00082e+06
-2.06192e+06
-4.49592e+06
-1.68836e+06
-2.05333e+06
-3.32849e+06
-2.01863e+06
-3.4222e+06
-1.93764e+06
-3.62366e+06
-1.8112e+06
-4.102e+06
-1.67991e+06
-1.83826e+06
-3.21006e+06
-1.83163e+06
-3.28568e+06
-1.74473e+06
-3.39855e+06
-1.50254e+06
-3.60005e+06
-1.10465e+06
0
0
0
0
0
0
0
0
0
0
0
0
0
0
0
0
0
0
-1.72756e+06
-3.1559e+06
-1.67317e+06
-3.24262e+06
-1.5585e+06
-3.37497e+06
-1.39128e+06
-3.55083e+06
-1.32106e+06
0
0
0
0
0
0
0
0
0
0
0
0
0
0
0
0
0
0
-1.32591e+06
-2.82174e+06
-1.00599e+06
0
0
0
)
;

boundaryField
{
    inlet
    {
        type            calculated;
        value           nonuniform 0();
    }
    outlet
    {
        type            calculated;
        value           uniform 0;
    }
    wall
    {
        type            calculated;
        value           uniform 0;
    }
    procBoundary1to0
    {
        type            processor;
        value           uniform 0;
    }
    procBoundary1to3
    {
        type            processor;
        value           uniform 0;
    }
    procBoundary1to5
    {
        type            processor;
        value           uniform 0;
    }
    procBoundary1to7
    {
        type            processor;
        value           uniform 0;
    }
}


// ************************************************************************* //
