/*--------------------------------*- C++ -*----------------------------------*\
| =========                 |                                                 |
| \\      /  F ield         | OpenFOAM: The Open Source CFD Toolbox           |
|  \\    /   O peration     | Version:  4.x                                   |
|   \\  /    A nd           | Web:      www.OpenFOAM.org                      |
|    \\/     M anipulation  |                                                 |
\*---------------------------------------------------------------------------*/
FoamFile
{
    version     2.0;
    format      ascii;
    class       volVectorField;
    location    "39";
    object      UsPrev;
}
// * * * * * * * * * * * * * * * * * * * * * * * * * * * * * * * * * * * * * //

dimensions      [0 1 -1 0 0 0 0];

internalField   nonuniform List<vector> 
87
(
(9.38123e-09 8.00056e-09 2.79617e-08)
(-6.67518e-08 1.11199e-06 1.06806e-07)
(-1.34947e-08 5.10463e-10 1.74539e-08)
(-7.53038e-09 -1.06931e-09 1.4874e-09)
(-2.89619e-09 8.4109e-11 -2.16387e-11)
(9.90298e-10 -4.60116e-09 -2.14767e-09)
(8.0934e-09 -5.04129e-09 -5.58514e-09)
(4.45839e-07 4.45872e-09 -3.16836e-08)
(2.3129e-07 -1.50287e-08 -4.77485e-08)
(1.97353e-09 -5.72104e-09 1.27028e-08)
(-6.32974e-10 -9.23691e-09 2.37509e-08)
(-1.47457e-08 -8.37276e-09 8.29036e-09)
(-3.67909e-09 -3.45937e-09 9.17416e-10)
(2.81669e-10 -5.50174e-09 -5.89395e-10)
(2.9749e-09 -2.43426e-09 -3.6761e-09)
(5.03473e-09 -5.31198e-09 -1.02272e-08)
(7.33244e-09 -1.1735e-08 -1.55609e-08)
(-2.06664e-09 -2.6507e-08 -2.98811e-08)
(1.99781e-09 -6.84613e-09 6.88276e-09)
(-1.00988e-09 -1.06646e-08 9.88001e-09)
(-4.31712e-09 -3.64433e-09 5.57714e-09)
(-1.21388e-09 -3.32798e-09 2.33665e-09)
(5.89513e-10 -3.72319e-09 -9.45075e-10)
(3.24687e-09 -4.32065e-09 -2.0387e-09)
(6.74811e-09 -4.91351e-09 -7.57067e-09)
(7.49118e-09 -7.29292e-09 -1.88533e-08)
(7.6938e-09 -8.83393e-10 -1.68207e-08)
(-6.8474e-09 5.2398e-09 1.88716e-08)
(-3.68466e-12 3.16561e-09 4.32071e-08)
(2.49766e-09 1.37189e-09 1.57288e-08)
(1.9768e-09 -1.66025e-09 9.04912e-10)
(9.52556e-10 -3.27055e-10 3.88788e-10)
(1.76886e-09 -2.37487e-10 -1.72827e-09)
(3.90859e-09 -1.14657e-09 -4.22953e-09)
(4.63706e-09 -2.96904e-09 -9.8701e-09)
(2.10383e-09 -6.0811e-09 -1.66701e-08)
(-4.49538e-09 2.88094e-10 1.35931e-08)
(-2.59982e-09 -3.52045e-09 2.19701e-08)
(2.60748e-09 5.37549e-10 1.10058e-08)
(9.30822e-11 -3.08431e-09 1.41559e-09)
(1.6571e-09 -3.30267e-09 -8.41817e-10)
(3.25604e-09 -2.46609e-09 -3.33664e-09)
(4.49096e-09 -2.74318e-09 -7.85149e-09)
(5.34515e-09 -3.59988e-09 -1.21952e-08)
(1.23659e-08 -8.0074e-09 -2.02406e-08)
(4.55691e-10 -1.7836e-09 5.79504e-09)
(6.4452e-10 -2.83509e-09 8.69691e-09)
(1.07332e-09 -3.13638e-09 4.60428e-09)
(8.65503e-10 -3.94893e-09 2.0419e-09)
(2.73201e-09 -4.46205e-09 -1.13303e-09)
(4.67626e-09 -4.50036e-09 -3.58131e-09)
(7.56267e-09 -2.95327e-09 -8.21209e-09)
(9.82761e-09 -2.9777e-09 -1.19642e-08)
(4.32093e-09 -5.04537e-09 -1.56798e-08)
(-1.17936e-09 1.18669e-10 4.00251e-09)
(2.10235e-10 1.63306e-09 5.59016e-09)
(5.89015e-10 1.39014e-09 7.39843e-09)
(2.24927e-09 -5.43923e-10 1.30169e-09)
(2.27772e-09 -6.29356e-10 3.90727e-11)
(2.6565e-09 -6.64441e-10 -1.42791e-09)
(2.655e-09 1.86805e-10 -2.46667e-09)
(9.03544e-10 -5.01642e-10 -3.29732e-09)
(2.19119e-09 -1.31565e-09 -6.85938e-09)
(-7.73316e-10 3.60889e-10 5.86117e-09)
(1.88755e-09 6.874e-11 7.4833e-09)
(3.21662e-09 -2.12548e-10 8.68996e-09)
(2.29958e-09 -1.91451e-09 2.59602e-09)
(3.20629e-09 -2.08475e-09 -2.49804e-10)
(3.78864e-09 -8.58347e-10 -2.36691e-09)
(4.71974e-09 -1.69585e-10 -5.58448e-09)
(3.9998e-09 -1.90881e-09 -7.25137e-09)
(2.57737e-09 -1.89028e-09 -5.29163e-09)
(1.59373e-09 3.41036e-10 4.17074e-09)
(2.45299e-09 4.47365e-10 5.76944e-09)
(3.34341e-09 3.42339e-10 5.9925e-09)
(3.58288e-09 -1.28274e-09 2.26721e-09)
(3.8797e-09 -2.20181e-09 -4.1724e-10)
(4.82718e-09 -2.40798e-09 -2.94387e-09)
(6.40131e-09 -6.84744e-10 -6.97032e-09)
(4.75943e-09 -1.46856e-09 -7.69555e-09)
(4.04822e-09 -2.08848e-09 -6.59375e-09)
(1.21884e-10 5.29867e-11 2.59346e-09)
(5.50668e-10 9.43278e-10 1.04732e-09)
(8.3923e-10 5.6198e-10 2.11128e-09)
(3.78081e-10 1.13475e-10 3.00277e-09)
(1.80846e-09 6.88707e-10 4.53274e-09)
(1.97831e-09 4.40041e-10 3.09095e-09)
)
;

boundaryField
{
    inlet
    {
        type            calculated;
        value           nonuniform 0();
    }
    outlet
    {
        type            calculated;
        value           uniform (0 0 0);
    }
    wall
    {
        type            calculated;
        value           uniform (0 0 0);
    }
    procBoundary1to0
    {
        type            processor;
        value           uniform (0 0 0);
    }
    procBoundary1to3
    {
        type            processor;
        value           uniform (0 0 0);
    }
    procBoundary1to5
    {
        type            processor;
        value           uniform (0 0 0);
    }
    procBoundary1to7
    {
        type            processor;
        value           uniform (0 0 0);
    }
}


// ************************************************************************* //
