/*--------------------------------*- C++ -*----------------------------------*\
| =========                 |                                                 |
| \\      /  F ield         | OpenFOAM: The Open Source CFD Toolbox           |
|  \\    /   O peration     | Version:  4.x                                   |
|   \\  /    A nd           | Web:      www.OpenFOAM.org                      |
|    \\/     M anipulation  |                                                 |
\*---------------------------------------------------------------------------*/
FoamFile
{
    version     2.0;
    format      ascii;
    class       volScalarField;
    location    "58";
    object      p_rgh;
}
// * * * * * * * * * * * * * * * * * * * * * * * * * * * * * * * * * * * * * //

dimensions      [1 -1 -2 0 0 0 0];

internalField   nonuniform List<scalar> 
87
(
82.0762
38.0044
81.548
88.5821
38.328
81.5809
112.088
93.8347
104.793
76.3449
97.082
58.355
89.1799
40.6001
81.8578
111.436
93.5737
104.318
75.7979
96.8896
57.5607
89.4255
39.2421
82.0527
110.865
93.3387
103.803
75.7203
96.5332
57.5353
89.1617
39.3972
82.2458
111.842
93.7839
104.533
75.9694
97.0041
57.8972
89.4749
39.6406
82.1976
111.157
93.4696
103.891
75.6971
96.409
57.5552
89.0085
39.219
81.7886
110.671
93.2409
103.533
75.6164
96.1593
57.454
88.8282
39.2082
81.7261
111.37
93.6281
104.127
75.9226
96.6058
57.8532
89.1285
39.492
81.95
110.875
93.3654
103.697
75.7105
96.2705
57.4902
88.8825
39.2808
81.7461
110.502
93.2553
103.415
75.6395
96.1114
57.5856
88.7864
39.4902
81.8142
)
;

boundaryField
{
    inlet
    {
        type            fixedFluxPressure;
        gradient        nonuniform List<scalar> 9(0.000186546 0.000159857 0.00015042 0.000312672 0.000290118 0.000279414 0.000448816 0.000422099 0.000405823);
        value           nonuniform List<scalar> 9(112.088 111.436 110.865 111.842 111.157 110.671 111.37 110.875 110.502);
    }
    outlet
    {
        type            fixedValue;
        value           nonuniform 0();
    }
    wall
    {
        type            fixedFluxPressure;
        gradient        nonuniform List<scalar> 
57
(
-2.39983e-07
-2.93556e-07
3.2898e-08
-8.43673e-07
-7.23444e-07
-4.5074e-07
-6.9583e-07
-3.1868e-07
-3.50797e-08
-1.5207e-06
-9.55214e-07
-4.36644e-07
-6.07013e-07
-4.55507e-07
-3.72678e-07
-1.91181e-06
-1.42496e-06
-6.15358e-07
-1.12181e-06
-7.88873e-07
-3.67093e-07
-1.97847e-06
-4.60966e-08
-9.48639e-09
-7.36046e-07
-7.00258e-07
-1.05874e-06
-1.05567e-07
-2.07385e-07
-4.70164e-07
-2.25001e-06
-4.07126e-06
-2.39737e-07
-3.50277e-07
-7.22595e-07
-3.75024e-07
-1.31616e-06
-9.55025e-07
-4.27549e-07
-5.1662e-07
-4.72197e-07
-3.77728e-07
-1.39553e-06
-9.84184e-07
-6.13873e-07
-5.88528e-07
-5.0276e-07
-6.47205e-07
-4.37042e-07
-1.19687e-06
-2.18364e-06
-6.42325e-07
2.10695e-07
-4.15832e-07
-7.90857e-07
-4.24744e-07
1.91432e-07
)
;
        value           nonuniform List<scalar> 
57
(
111.37
110.875
110.502
93.6281
93.3654
93.2553
104.127
103.697
103.415
75.9226
75.7105
75.6395
96.6058
96.2705
96.1114
57.8532
57.4902
57.5856
89.1285
88.8825
88.7864
39.492
39.2808
39.4902
81.95
81.7461
81.8142
110.865
110.671
110.502
93.3387
93.2409
93.2553
103.803
103.533
103.415
75.7203
75.6164
75.6395
96.5332
96.1593
96.1114
57.5353
57.454
57.5856
88.5821
89.1617
88.8282
88.7864
38.328
39.3972
39.2082
39.4902
81.5809
82.2458
81.7261
81.8142
)
;
    }
    procBoundary6to0
    {
        type            processor;
        value           uniform 81.9328;
    }
    procBoundary6to2
    {
        type            processor;
        value           nonuniform List<scalar> 
32
(
81.7251
38.4863
81.9647
88.7552
38.5752
81.8598
111.435
93.6171
104.296
75.5921
96.857
57.4112
89.3983
39.1413
39.1413
39.1413
110.774
93.1198
103.582
75.0998
96.1284
56.7472
88.696
88.696
88.696
110.276
92.9107
103.212
75.0294
95.8761
56.784
56.784
)
;
    }
    procBoundary6to4
    {
        type            processor;
        value           nonuniform List<scalar> 
27
(
111.635
93.7924
104.443
75.9165
96.8765
57.686
89.2499
39.2995
81.796
111.68
93.718
104.396
75.8942
96.7553
57.4738
89.1666
38.8515
81.8635
111.35
93.4334
103.98
75.6925
96.3408
57.2675
88.7298
38.8978
81.598
)
;
    }
    procBoundary6to7
    {
        type            processor;
        value           nonuniform List<scalar> 
12
(
20.941
19.0755
19.6498
23.017
21.0381
21.1984
21.4151
20.5535
20.8127
21.4034
20.8295
21.2169
)
;
    }
}


// ************************************************************************* //
