/*--------------------------------*- C++ -*----------------------------------*\
| =========                 |                                                 |
| \\      /  F ield         | OpenFOAM: The Open Source CFD Toolbox           |
|  \\    /   O peration     | Version:  4.x                                   |
|   \\  /    A nd           | Web:      www.OpenFOAM.org                      |
|    \\/     M anipulation  |                                                 |
\*---------------------------------------------------------------------------*/
FoamFile
{
    version     2.0;
    format      ascii;
    class       volScalarField;
    location    "58";
    object      particleRelTemp;
}
// * * * * * * * * * * * * * * * * * * * * * * * * * * * * * * * * * * * * * //

dimensions      [0 0 0 0 0 0 0];

internalField   nonuniform List<scalar> 
87
(
9.31148e-10
5.24846e-10
4.96792e-10
3.6865e-10
4.0594e-10
2.28018e-10
-3.35219e-10
-1.28572e-10
1.12261e-10
3.7932e-10
6.20845e-10
7.02685e-10
7.93533e-10
6.71909e-10
5.19055e-10
-3.58086e-10
-2.24168e-10
-2.3121e-11
1.88859e-10
3.42588e-10
4.64877e-10
4.89869e-10
4.20375e-10
2.35265e-10
-4.14529e-10
-2.64639e-10
-1.26958e-10
8.52261e-11
1.72292e-10
2.92575e-10
2.78764e-10
2.00725e-10
7.48193e-11
-3.78339e-10
-1.84056e-10
-7.71538e-12
1.82326e-10
3.14305e-10
4.43329e-10
4.5418e-10
4.40742e-10
2.8592e-10
-3.99983e-10
-2.6098e-10
-1.15821e-10
6.60458e-11
1.36065e-10
2.69436e-10
2.78754e-10
2.15774e-10
7.54577e-11
-4.28702e-10
-3.08435e-10
-1.69736e-10
-5.85091e-11
4.96393e-11
8.75904e-11
8.41703e-11
6.50336e-11
-9.67159e-11
-4.0089e-10
-2.73542e-10
-9.75693e-11
6.14251e-11
1.82959e-10
2.79844e-10
3.09138e-10
2.09189e-10
4.28979e-11
-4.14491e-10
-3.26312e-10
-1.91622e-10
-6.8434e-11
4.35796e-11
9.92993e-11
1.37518e-10
4.67764e-11
-9.82597e-11
-4.57855e-10
-3.348e-10
-2.47299e-10
-1.48325e-10
-8.17158e-11
-1.50494e-11
-3.65181e-11
-9.70543e-11
-2.07571e-10
)
;

boundaryField
{
    inlet
    {
        type            calculated;
        value           nonuniform List<scalar> 9(-3.35219e-10 -3.58086e-10 -4.14529e-10 -3.78339e-10 -3.99983e-10 -4.28702e-10 -4.0089e-10 -4.14491e-10 -4.57855e-10);
    }
    outlet
    {
        type            calculated;
        value           nonuniform 0();
    }
    wall
    {
        type            calculated;
        value           nonuniform List<scalar> 
57
(
-4.0089e-10
-4.14491e-10
-4.57855e-10
-2.73542e-10
-3.26312e-10
-3.348e-10
-9.75693e-11
-1.91622e-10
-2.47299e-10
6.14251e-11
-6.8434e-11
-1.48325e-10
1.82959e-10
4.35796e-11
-8.17158e-11
2.79844e-10
9.92993e-11
-1.50494e-11
3.09138e-10
1.37518e-10
-3.65181e-11
2.09189e-10
4.67764e-11
-9.70543e-11
4.28979e-11
-9.82597e-11
-2.07571e-10
-4.14529e-10
-4.28702e-10
-4.57855e-10
-2.64639e-10
-3.08435e-10
-3.348e-10
-1.26958e-10
-1.69736e-10
-2.47299e-10
8.52261e-11
-5.85091e-11
-1.48325e-10
1.72292e-10
4.96393e-11
-8.17158e-11
2.92575e-10
8.75904e-11
-1.50494e-11
3.6865e-10
2.78764e-10
8.41703e-11
-3.65181e-11
4.0594e-10
2.00725e-10
6.50336e-11
-9.70543e-11
2.28018e-10
7.48193e-11
-9.67159e-11
-2.07571e-10
)
;
    }
    procBoundary6to0
    {
        type            processor;
        value           uniform 1.34882e-09;
    }
    procBoundary6to2
    {
        type            processor;
        value           nonuniform List<scalar> 
32
(
1.09135e-09
7.36257e-10
6.33952e-10
4.68199e-10
4.88336e-10
4.29781e-10
-3.35778e-10
-7.52753e-11
1.72964e-10
3.89886e-10
6.77065e-10
8.53395e-10
1.0328e-09
9.63034e-10
9.63034e-10
9.63034e-10
-3.93015e-10
-1.68582e-10
1.90855e-12
2.66065e-10
4.71371e-10
6.39311e-10
6.14987e-10
6.14987e-10
6.14987e-10
-4.22668e-10
-2.50093e-10
-5.01581e-11
1.07271e-10
2.74542e-10
3.71897e-10
3.71897e-10
)
;
    }
    procBoundary6to4
    {
        type            processor;
        value           nonuniform List<scalar> 
27
(
-3.48234e-10
-1.27224e-10
1.51288e-10
4.24666e-10
7.54543e-10
9.41267e-10
1.03873e-09
9.40914e-10
9.28266e-10
-3.66373e-10
-1.91593e-10
6.43089e-11
2.39459e-10
4.81555e-10
6.3562e-10
6.8511e-10
6.18553e-10
4.36568e-10
-3.78627e-10
-2.34478e-10
-6.13418e-11
1.63144e-10
2.97248e-10
4.04015e-10
4.37372e-10
3.7068e-10
2.2549e-10
)
;
    }
    procBoundary6to7
    {
        type            processor;
        value           nonuniform List<scalar> 
12
(
5.71069e-10
2.33888e-10
9.0513e-11
2.16565e-10
8.48256e-11
-9.63578e-11
-1.78618e-11
-1.41885e-10
-2.87174e-10
-9.14624e-11
-2.73991e-10
-3.38691e-10
)
;
    }
}


// ************************************************************************* //
