/*--------------------------------*- C++ -*----------------------------------*\
| =========                 |                                                 |
| \\      /  F ield         | OpenFOAM: The Open Source CFD Toolbox           |
|  \\    /   O peration     | Version:  4.x                                   |
|   \\  /    A nd           | Web:      www.OpenFOAM.org                      |
|    \\/     M anipulation  |                                                 |
\*---------------------------------------------------------------------------*/
FoamFile
{
    version     2.0;
    format      ascii;
    class       volScalarField;
    location    "58";
    object      QPartFluid;
}
// * * * * * * * * * * * * * * * * * * * * * * * * * * * * * * * * * * * * * //

dimensions      [1 -1 -3 0 0 0 0];

internalField   nonuniform List<scalar> 
87
(
8.1228e+09
6.83492e+09
8.97774e+09
5.7062e+09
6.23947e+09
5.62975e+09
9.95463e+09
8.95578e+09
6.08357e+09
7.98363e+09
1.10804e+10
6.07458e+09
8.71127e+09
6.67677e+09
9.97058e+09
6.30392e+09
9.21372e+09
8.17631e+09
1.02075e+10
8.84991e+09
8.71722e+09
8.74925e+09
9.19911e+09
9.38902e+09
4.68011e+09
7.57962e+09
5.96064e+09
6.13585e+09
8.70229e+09
9.43147e+09
7.33403e+09
6.26205e+09
8.7348e+09
7.34969e+09
9.00275e+09
9.65977e+09
8.63594e+09
6.67028e+09
7.89386e+09
7.93246e+09
6.11534e+09
9.57417e+09
5.37372e+09
8.87313e+09
8.84633e+09
8.03893e+09
7.94976e+09
6.56383e+09
1.00279e+10
6.6115e+09
9.99677e+09
4.81034e+09
6.67984e+09
6.18033e+09
7.84442e+09
8.21741e+09
6.18443e+09
7.63068e+09
6.43681e+09
6.87871e+09
4.91316e+09
5.40926e+09
7.43565e+09
7.03287e+09
7.17493e+09
6.51609e+09
1.03069e+10
8.70459e+09
4.53612e+09
5.19852e+09
5.83321e+09
7.62978e+09
6.18925e+09
9.67769e+09
6.7208e+09
7.21528e+09
6.10924e+09
8.49223e+09
4.24831e+09
6.13474e+09
6.76591e+09
6.33537e+09
5.24251e+09
8.48757e+09
5.61289e+09
5.63903e+09
7.19131e+09
)
;

boundaryField
{
    inlet
    {
        type            calculated;
        value           uniform 0;
    }
    outlet
    {
        type            calculated;
        value           nonuniform 0();
    }
    wall
    {
        type            calculated;
        value           uniform 0;
    }
    procBoundary6to0
    {
        type            processor;
        value           uniform 2.62588e+09;
    }
    procBoundary6to2
    {
        type            processor;
        value           nonuniform List<scalar> 
32
(
5.72961e+09
8.44694e+09
1.02212e+10
9.69176e+09
5.3311e+09
7.73249e+09
4.89828e+09
9.48781e+09
1.03025e+10
7.15703e+09
8.24031e+09
6.27966e+09
7.58977e+09
7.52783e+09
7.52783e+09
7.52783e+09
5.87126e+09
7.91785e+09
1.05294e+10
6.62729e+09
9.1273e+09
7.73865e+09
1.03142e+10
1.03142e+10
1.03142e+10
4.25893e+09
6.30654e+09
7.51475e+09
7.25769e+09
6.75839e+09
6.51091e+09
6.51091e+09
)
;
    }
    procBoundary6to4
    {
        type            processor;
        value           nonuniform List<scalar> 
27
(
3.45925e+09
6.73879e+09
9.41054e+09
5.72908e+09
8.82779e+09
6.72547e+09
1.10681e+10
6.03918e+09
7.09023e+09
6.2057e+09
8.58786e+09
7.54787e+09
9.65808e+09
1.05331e+10
7.61927e+09
1.18534e+10
8.48818e+09
8.14604e+09
7.25392e+09
7.01423e+09
6.70302e+09
7.98286e+09
8.44703e+09
9.54409e+09
4.9754e+09
5.18556e+09
7.09513e+09
)
;
    }
    procBoundary6to7
    {
        type            processor;
        value           nonuniform List<scalar> 
12
(
7.5127e+09
5.35834e+09
7.08157e+09
3.8591e+09
6.023e+09
6.57029e+09
8.57534e+09
8.22503e+09
6.05101e+09
7.29213e+09
6.3538e+09
6.0913e+09
)
;
    }
}


// ************************************************************************* //
