/*--------------------------------*- C++ -*----------------------------------*\
| =========                 |                                                 |
| \\      /  F ield         | OpenFOAM: The Open Source CFD Toolbox           |
|  \\    /   O peration     | Version:  4.x                                   |
|   \\  /    A nd           | Web:      www.OpenFOAM.org                      |
|    \\/     M anipulation  |                                                 |
\*---------------------------------------------------------------------------*/
FoamFile
{
    version     2.0;
    format      ascii;
    class       volScalarField;
    location    "24";
    object      p_rgh;
}
// * * * * * * * * * * * * * * * * * * * * * * * * * * * * * * * * * * * * * //

dimensions      [1 -1 -2 0 0 0 0];

internalField   nonuniform List<scalar> 
108
(
110.235
93.2515
102.844
76.2443
95.22
58.9145
87.5438
41.2505
79.955
110.924
93.5943
103.496
76.5079
95.7345
59.0175
87.9379
41.3985
80.3073
111.378
93.8883
103.822
76.7741
95.9239
59.3759
88.0562
41.9631
80.1273
111.62
94.2085
104.087
77.0896
96.1887
59.7081
88.1759
42.1646
80.2503
110.216
93.3031
102.77
76.3546
94.9997
58.9234
87.344
41.389
79.6979
110.825
93.6056
103.281
76.5972
95.4721
59.2023
87.755
41.6321
79.9853
111.159
93.8843
103.545
76.7074
95.6043
59.1838
87.6986
41.5649
79.9719
111.636
94.0932
103.986
77.0644
95.9931
59.5758
88.0101
41.999
80.1639
110.102
93.2081
102.615
76.4327
94.9681
59.0823
87.1944
41.4205
79.5182
110.644
93.501
103.013
76.5515
95.2658
59.1715
87.4481
41.6263
79.7969
110.975
93.7004
103.268
76.6048
95.3737
59.2113
87.5049
41.67
79.8457
111.371
93.8555
103.64
76.8818
95.648
59.3561
87.6465
42.0004
80.0186
)
;

boundaryField
{
    inlet
    {
        type            fixedFluxPressure;
        gradient        nonuniform List<scalar> 
12
(
0.000193799
0.000202724
0.000221796
0.000233063
0.000433932
0.000409074
0.000412474
0.000395562
0.000800633
0.000701401
0.000732256
0.00050477
)
;
        value           nonuniform List<scalar> 
12
(
110.235
110.924
111.378
111.62
110.216
110.825
111.159
111.636
110.102
110.644
110.975
111.371
)
;
    }
    outlet
    {
        type            fixedValue;
        value           nonuniform 0();
    }
    wall
    {
        type            fixedFluxPressure;
        gradient        nonuniform List<scalar> 
63
(
5.88996e-07
6.54245e-07
1.49421e-06
2.01938e-06
2.83522e-06
3.67379e-06
5.40933e-06
5.7098e-06
1.36272e-06
2.80525e-06
3.66432e-06
5.90128e-06
3.01254e-06
5.11348e-06
8.71671e-06
1.36566e-05
2.15335e-06
4.46136e-06
8.09676e-06
7.19362e-06
3.32147e-06
6.22731e-06
1.35508e-05
1.47613e-05
3.58162e-06
2.70858e-06
5.07761e-06
8.57219e-06
5.16477e-06
7.96162e-06
1.25624e-05
1.09747e-05
1.28644e-06
3.03024e-06
4.04462e-06
2.78771e-06
-2.63653e-07
5.79881e-08
-4.80493e-07
1.06995e-07
2.16766e-06
3.44144e-07
-8.12877e-08
-5.70141e-07
-1.55265e-07
-2.36098e-06
-2.51674e-06
3.60004e-07
-3.35985e-06
-2.82811e-06
-2.81807e-07
-8.46797e-06
-3.88101e-06
-4.77956e-07
-6.87002e-07
-2.52862e-07
5.33612e-07
-6.4023e-06
-6.01542e-06
-1.0957e-06
-2.11912e-06
-1.51174e-06
-2.68577e-07
)
;
        value           nonuniform List<scalar> 
63
(
110.102
110.644
110.975
111.371
93.2081
93.501
93.7004
93.8555
102.615
103.013
103.268
103.64
76.4327
76.5515
76.6048
76.8818
94.9681
95.2658
95.3737
95.648
59.0823
59.1715
59.2113
59.3561
87.1944
87.4481
87.5049
87.6465
41.4205
41.6263
41.67
42.0004
79.5182
79.7969
79.8457
80.0186
110.235
110.216
110.102
93.2515
93.3031
93.2081
102.844
102.77
102.615
76.2443
76.3546
76.4327
95.22
94.9997
94.9681
58.9145
58.9234
59.0823
87.5438
87.344
87.1944
41.2505
41.389
41.4205
79.955
79.6979
79.5182
)
;
    }
    procBoundary4to0
    {
        type            processor;
        value           nonuniform List<scalar> 
36
(
109.519
92.7407
102.26
75.8752
94.8372
58.5084
87.157
40.7477
79.7468
110.204
93.1053
102.82
76.0548
95.2403
58.6536
87.5056
40.7164
79.9131
110.565
93.395
103.158
76.3319
95.4928
58.9288
87.6825
41.367
80.2006
111.004
93.7049
103.561
76.4705
95.6869
59.1068
87.7604
41.4976
80.179
)
;
    }
    procBoundary4to5
    {
        type            processor;
        value           nonuniform List<scalar> 
12
(
23.2407
23.4755
24.6645
24.9927
23.2227
23.6339
23.714
24.7203
23.4511
23.7979
24.0777
24.671
)
;
    }
    procBoundary4to6
    {
        type            processor;
        value           nonuniform List<scalar> 
27
(
111.742
93.9035
104.054
76.9931
96.0762
59.5707
88.0216
42.3019
79.8818
111.453
93.8326
103.653
76.7612
95.6851
59.4613
87.7986
41.9513
80.1364
111.098
93.7525
103.438
76.7656
95.5324
59.4619
87.6801
41.8984
80.0155
)
;
    }
}


// ************************************************************************* //
