/*--------------------------------*- C++ -*----------------------------------*\
| =========                 |                                                 |
| \\      /  F ield         | OpenFOAM: The Open Source CFD Toolbox           |
|  \\    /   O peration     | Version:  4.x                                   |
|   \\  /    A nd           | Web:      www.OpenFOAM.org                      |
|    \\/     M anipulation  |                                                 |
\*---------------------------------------------------------------------------*/
FoamFile
{
    version     2.0;
    format      ascii;
    class       volScalarField;
    location    "24";
    object      Sm;
}
// * * * * * * * * * * * * * * * * * * * * * * * * * * * * * * * * * * * * * //

dimensions      [1 -3 -1 0 0 0 0];

internalField   nonuniform List<scalar> 
108
(
5.19257e-65
7.36259e-65
7.51759e-65
5.58006e-65
5.96755e-65
5.65754e-65
7.59505e-65
6.74253e-65
8.91253e-65
7.7501e-65
6.35508e-65
7.36258e-65
8.60258e-65
8.21506e-65
7.51755e-65
6.35503e-65
5.42501e-65
9.06751e-65
6.97509e-65
8.7576e-65
6.66507e-65
8.44758e-65
6.66505e-65
5.96753e-65
6.12252e-65
9.68751e-65
5.6575e-65
4.34006e-65
5.73507e-65
7.59508e-65
5.19255e-65
7.36255e-65
6.35503e-65
9.22252e-65
5.9675e-65
5.96749e-65
5.34757e-65
5.11506e-65
7.05258e-65
7.67258e-65
6.97507e-65
5.27005e-65
4.49503e-65
6.97504e-65
8.21504e-65
5.65757e-65
6.51008e-65
5.81257e-65
6.43256e-65
5.96755e-65
5.96754e-65
6.66504e-65
7.90503e-65
8.13752e-65
4.41756e-65
6.27758e-65
7.82758e-65
7.20757e-65
7.67256e-65
7.28504e-65
6.66503e-65
6.66502e-65
6.82001e-65
6.66509e-65
7.20759e-65
5.96756e-65
8.52508e-65
8.44756e-65
6.74254e-65
9.61003e-65
7.90501e-65
6.82e-65
4.96007e-65
6.66508e-65
4.41755e-65
6.74258e-65
5.73506e-65
8.06008e-65
7.20756e-65
6.27755e-65
7.20755e-65
5.34757e-65
8.75761e-65
5.81257e-65
5.50256e-65
6.20006e-65
7.20756e-65
6.35505e-65
5.65753e-65
7.59503e-65
5.42507e-65
7.36259e-65
7.44008e-65
7.36257e-65
5.65755e-65
6.58755e-65
6.43254e-65
7.51753e-65
6.27752e-65
7.4401e-65
7.05259e-65
5.81257e-65
7.67257e-65
6.97506e-65
9.22256e-65
4.49503e-65
4.88252e-65
6.35502e-65
)
;

boundaryField
{
    inlet
    {
        type            calculated;
        value           uniform 0;
    }
    outlet
    {
        type            calculated;
        value           nonuniform 0();
    }
    wall
    {
        type            calculated;
        value           uniform 0;
    }
    procBoundary4to0
    {
        type            processor;
        value           nonuniform List<scalar> 
36
(
4.57256e-65
4.88256e-65
5.73507e-65
5.34755e-65
6.12255e-65
7.44006e-65
4.80503e-65
4.10752e-65
4.96002e-65
5.50257e-65
8.1376e-65
7.28508e-65
6.74256e-65
5.81254e-65
5.96753e-65
8.37003e-65
6.58752e-65
5.5025e-65
4.57256e-65
4.96006e-65
7.28508e-65
5.73505e-65
7.28505e-65
8.06003e-65
6.74252e-65
5.115e-65
8.05999e-65
5.27007e-65
5.89007e-65
7.82758e-65
9.22258e-65
4.49503e-65
9.14504e-65
7.13001e-65
5.425e-65
2.32499e-65
)
;
    }
    procBoundary4to5
    {
        type            processor;
        value           nonuniform List<scalar> 
12
(
6.35501e-65
7.0525e-65
8.21498e-65
9.99747e-65
6.66502e-65
5.42501e-65
6.89749e-65
4.80499e-65
2.63502e-65
6.35502e-65
6.12251e-65
7.36251e-65
)
;
    }
    procBoundary4to6
    {
        type            processor;
        value           nonuniform List<scalar> 
27
(
1.03851e-64
7.59509e-65
4.96005e-65
7.44006e-65
9.37756e-65
6.12253e-65
7.36253e-65
6.51001e-65
8.52499e-65
7.6726e-65
7.67259e-65
7.75008e-65
7.67257e-65
5.34754e-65
7.05254e-65
6.27753e-65
5.89002e-65
7.90501e-65
5.03757e-65
5.27007e-65
6.12257e-65
6.89757e-65
6.51006e-65
6.43255e-65
8.68005e-65
8.75754e-65
3.79752e-65
)
;
    }
}


// ************************************************************************* //
