/*--------------------------------*- C++ -*----------------------------------*\
  =========                 |
  \\      /  F ield         | OpenFOAM: The Open Source CFD Toolbox
   \\    /   O peration     | Website:  https://openfoam.org
    \\  /    A nd           | Version:  4.x
     \\/     M anipulation  |
\*---------------------------------------------------------------------------*/
FoamFile
{
    version     2.0;
    format      ascii;
    class       Cloud<passiveParticle>;
    location    0;
    object      positions;
}
// * * * * * * * * * * * * * * * * * * * * * * * * * * * * * * * * * * * * * //

312
(
( 0.211583 -0.00559674 -0.0726893 ) 4
( 0.187073 -0.00943863 -0.0457032 ) 34
( 0.223453 -0.0130653 -0.0586197 ) 36
( 0.203032 -0.0136576 -0.03531 ) 64
( 0.235551 -0.00378904 -0.0713059 ) 36
( 0.220392 -0.00513283 -0.0324522 ) 64
( 0.176602 -0.00934746 -0.0624318 ) 34
( 0.235985 -0.00904821 -0.0438623 ) 36
( 0.205714 -0.00152249 -0.0507275 ) 35
( 0.167566 -0.0112884 -0.0447193 ) 34
( 0.226259 -0.0111309 -0.0146986 ) 65
( 0.225222 0.0300887 -0.0273278 ) 74
( 0.0457609 0.0271862 -0.0469736 ) 38
( 0.215115 0.0376288 -0.0425446 ) 73
( 0.185333 0.0222857 -0.0700758 ) 43
( 0.113521 0.0388543 -0.0534807 ) 41
( 0.0323749 0.0742176 -0.0323205 ) 85
( 0.201776 0.0640971 -0.0450473 ) 53
( 0.212361 0.0179985 -0.0410186 ) 73
( 0.0749102 0.0448107 -0.050945 ) 48
( 0.0697509 0.021497 -0.0471338 ) 39
( 0.0322707 0.0515539 -0.0611032 ) 47
( 0.173433 0.0183929 -0.05467 ) 43
( 0.125903 0.0707915 -0.0484769 ) 50
( 0.0266203 0.0590276 -0.0436108 ) 46
( 0.023804 0.0902936 -0.0398974 ) 84
( 0.0432996 0.0901349 -0.054322 ) 56
( 0.0625174 0.050168 -0.0659057 ) 48
( 0.078234 0.0721615 -0.0575111 ) 57
( 0.137993 0.0576339 -0.057181 ) 50
( 0.180622 0.0552001 -0.0492506 ) 52
( 0.0592324 0.0312553 -0.0609003 ) 39
( 0.203196 0.00505214 -0.0291667 ) 64
( 0.100151 0.0434116 -0.0349109 ) 78
( 0.0790105 0.0455051 -0.025453 ) 77
( 0.239195 0.0524721 -0.0724285 ) 23
( 0.156902 0.055795 -0.0682843 ) 51
( 0.215912 0.0777227 -0.0409683 ) 91
( 0.244064 0.0825879 -0.0396649 ) 92
( 0.168056 0.0665591 -0.0389287 ) 81
( 0.0925392 0.0600445 -0.0672858 ) 49
( 0.145275 0.0711029 -0.0444574 ) 51
( 0.110911 0.0824318 -0.0427374 ) 87
( 0.154384 0.0565501 -0.0289536 ) 80
( 0.136335 0.0382227 -0.0531525 ) 41
( 0.210399 0.0742545 -0.059697 ) 62
( 0.0254404 0.0819935 -0.0577856 ) 55
( 0.186199 0.0389571 -0.0592758 ) 43
( 0.185117 0.089011 -0.0709163 ) 61
( 0.168795 0.0901218 -0.037506 ) 90
( 0.223318 0.0641719 -0.0707444 ) 54
( 0.118317 0.021812 -0.0623754 ) 41
( 0.113976 0.0888643 -0.0613115 ) 59
( 0.0724406 0.0629146 -0.0321036 ) 77
( 0.09252 0.077264 -0.0356242 ) 87
( 0.133721 0.0243616 -0.0392048 ) 70
( 0.196286 0.0526659 -0.0696211 ) 53
( 0.144851 0.00353967 -0.0699961 ) 33
( 0.218391 0.0258929 -0.0582953 ) 44
( 0.0270869 0.024792 -0.0326778 ) 66
( 0.0995889 0.0176937 -0.0675289 ) 40
( 0.0900615 0.0248271 -0.0214964 ) 69
( 0.125502 0.0399832 -0.0697472 ) 41
( 0.12407 0.063535 -0.0278322 ) 79
( 0.00983284 0.017775 -0.0395036 ) 66
( 0.106531 0.0460344 -0.0707858 ) 49
( 0.0581417 0.0798816 -0.046135 ) 57
( 0.0999938 0.0251781 -0.0491513 ) 40
( 0.154432 0.0242518 -0.0524836 ) 42
( 0.225744 0.0635935 -0.0509117 ) 54
( 0.157027 0.00536529 -0.0468756 ) 33
( 0.181699 0.0316024 -0.0414058 ) 72
( 0.202633 0.0124754 -0.0703726 ) 35
( 0.0881657 0.0572346 -0.0427362 ) 78
( 0.0977515 0.0749212 -0.0553204 ) 58
( 0.124663 0.0517379 -0.0436855 ) 50
( 0.0899675 0.061987 -0.0230661 ) 78
( 0.191199 0.0711665 -0.0642264 ) 52
( 0.23142 0.0689537 -0.0325913 ) 83
( 0.034903 0.0416921 -0.0389765 ) 67
( 0.144524 0.0731589 -0.067823 ) 60
( 0.0618855 0.0465872 -0.0360537 ) 77
( 0.0762077 0.0886077 -0.0352376 ) 86
( 0.155502 0.0545381 -0.0485441 ) 51
( 0.00998427 0.072675 -0.0468367 ) 55
( 0.192982 0.0220085 -0.0284421 ) 72
( 0.0379237 0.0181545 -0.0645002 ) 38
( 0.135947 0.0455806 -0.0287231 ) 79
( 0.00989927 0.0813171 -0.0289935 ) 84
( 0.0108114 0.0545522 -0.0549506 ) 46
( 0.16931 0.0438945 -0.0320607 ) 81
( 0.0567084 0.0722491 -0.0644571 ) 57
( 0.15098 0.0900399 -0.0594607 ) 60
( 0.0282645 0.0328976 -0.0554506 ) 38
( 0.114652 0.0289959 -0.0362498 ) 70
( 0.229964 0.0121092 -0.0340711 ) 65
( 0.248706 0.0608325 -0.0242462 ) 83
( 0.0279831 0.0556728 -0.0187455 ) 76
( 0.241966 0.0555983 -0.0424918 ) 83
( 0.0959761 0.0900503 -0.0694515 ) 58
( 0.165066 0.0708706 -0.0580472 ) 51
( 0.188443 0.0902915 -0.034747 ) 90
( 0.231992 0.0279868 -0.0742401 ) 14
( 0.239041 0.0160767 -0.0599872 ) 45
( 0.196659 0.0449591 -0.0434795 ) 53
( 0.164425 0.0285302 -0.0691607 ) 42
( 0.063724 0.0612409 -0.0495714 ) 48
( 0.247497 0.0106263 -0.042881 ) 36
( 0.18487 0.0743529 -0.045738 ) 61
( 0.0835412 0.027019 -0.0603201 ) 40
( 0.171142 0.0773794 -0.022612 ) 90
( 0.16743 0.0393776 -0.0527715 ) 43
( 0.176684 0.0581582 -0.0684979 ) 52
( 0.114068 0.0902967 -0.0250227 ) 88
( 0.227013 0.0901942 -0.0298603 ) 92
( 0.165849 0.0204109 -0.0366329 ) 71
( 0.204974 0.0901385 -0.0701991 ) 62
( 0.188863 0.00641407 -0.0574737 ) 34
( 0.120845 0.0661746 -0.067126 ) 50
( 0.0586015 0.0274768 -0.0318593 ) 68
( 0.0472649 0.0567747 -0.0272645 ) 76
( 0.0843614 0.0320264 -0.039003 ) 69
( 0.00990981 0.0284625 -0.0677838 ) 37
( 0.222359 0.0110264 -0.0709181 ) 36
( 0.1328 0.089755 -0.0675461 ) 59
( 0.0490275 0.0481997 -0.0510636 ) 47
( 0.163262 0.0825321 -0.0740363 ) 29
( 0.185371 0.0613859 -0.0307921 ) 81
( 0.00970035 0.035679 -0.0493274 ) 37
( 0.207144 0.0900398 -0.0282219 ) 91
( 0.211283 0.0510856 -0.0566085 ) 53
( 0.0854095 0.090165 -0.0526865 ) 58
( 0.233283 0.028175 -0.0453173 ) 45
( 0.202796 0.0329488 -0.0684594 ) 44
( 0.128707 0.0902645 -0.0480724 ) 59
( 0.0548801 0.0732229 -0.0190685 ) 85
( 0.0355299 0.069365 -0.0693058 ) 47
( 0.231318 0.0450619 -0.0556325 ) 54
( 0.0282551 0.090153 -0.0195194 ) 85
( 0.22871 0.0901197 -0.0497521 ) 63
( 0.149082 0.090184 -0.0396946 ) 89
( 0.0104481 0.0351153 -0.0297391 ) 66
( 0.151422 0.037352 -0.0379294 ) 71
( 0.143454 0.0277944 -0.0686207 ) 42
( 0.0433534 0.0673032 -0.050423 ) 47
( 0.167722 0.00693956 -0.0699082 ) 34
( 0.17076 0.0900741 -0.0572141 ) 61
( 0.196772 0.023826 -0.0518164 ) 44
( 0.137109 0.0900846 -0.0227441 ) 88
( 0.0527637 0.0273162 -0.00503066 ) 94
( 0.135472 0.0700978 8.28861e-05 ) 105
( 0.0832699 0.0549757 -0.00355891 ) 103
( 0.0894405 0.0423313 0.0105545 ) 96
( 0.217796 0.0166332 0.011267 ) 100
( 0.114788 0.0250148 0.00872568 ) 97
( 0.0430251 0.0347497 0.0105562 ) 94
( 0.110137 0.0412269 -0.00204512 ) 96
( 0.175576 0.0361726 -0.012013 ) 99
( 0.168801 0.0486505 0.00179459 ) 107
( 0.191112 0.0822236 -0.0167478 ) 90
( 0.124989 0.0510658 0.00638056 ) 105
( 0.153844 0.039419 0.0108615 ) 98
( 0.0490063 0.0902087 0.00758533 ) 109
( 0.125183 0.0234403 -0.00779472 ) 97
( 0.00985185 0.0488415 0.00689911 ) 101
( 0.0110337 0.065992 -0.0165121 ) 75
( 0.103365 0.090101 -0.00349938 ) 111
( 0.158937 0.0681914 -0.00998632 ) 106
( 0.193268 0.0595636 -0.0127479 ) 107
( 0.0293281 0.0881171 0.00606008 ) 109
( 0.0272545 0.0433884 -0.00308719 ) 101
( 0.0907247 0.0902236 0.0119059 ) 111
( 0.075603 0.0182179 0.00723611 ) 95
( 0.0628338 0.0800397 -0.00214526 ) 110
( 0.207041 0.02724 -0.00114087 ) 100
( 0.13388 0.0427972 -0.00903476 ) 97
( 0.0581663 0.0697158 0.0138865 ) 103
( 0.00990482 0.0682298 0.00299468 ) 101
( 0.124235 0.077635 -0.0140455 ) 112
( 0.232235 0.0781291 -0.015159 ) 92
( 0.162136 0.0798761 0.00558999 ) 113
( 0.163604 0.0259524 0.000292658 ) 98
( 0.145118 0.0901257 0.00641257 ) 113
( 0.0952495 0.0239282 0.00531799 ) 96
( 0.0643302 0.0605349 -0.00572506 ) 103
( 0.0201265 0.0274245 -0.0143912 ) 66
( 0.0466214 0.0898396 -0.0119398 ) 109
( 0.0662989 0.0371183 0.00536063 ) 95
( 0.0927644 0.0732022 -0.00373738 ) 111
( 0.05319 0.0515883 0.00797653 ) 102
( 0.105694 0.073061 -0.0187517 ) 87
( 0.153628 0.0900488 -0.011565 ) 113
( 0.0292201 0.0233356 0.00247266 ) 94
( 0.142446 0.0276187 0.000303903 ) 98
( 0.220998 0.0370539 0.00870945 ) 100
( 0.153124 0.0467099 -0.0119384 ) 106
( 0.116922 0.0594641 -0.00963955 ) 105
( 0.0769831 0.0702062 0.00781241 ) 103
( 0.0110884 0.086858 -0.00996769 ) 108
( 0.0803592 0.0891326 -0.00479281 ) 110
( 0.191275 0.0389437 -0.000702675 ) 99
( 0.125001 0.0903329 0.000717104 ) 112
( 0.211629 0.0529856 -0.0156637 ) 82
( 0.108907 0.0286642 -0.0172517 ) 69
( 0.0823957 0.0340586 -0.00582005 ) 95
( 0.101091 0.0573509 0.00492245 ) 104
( 0.182649 0.0210116 -0.00069159 ) 99
( 0.0360836 0.0604798 0.00214279 ) 102
( 0.178855 0.0712654 -0.00556079 ) 107
( 0.00975514 0.0442727 -0.0122831 ) 101
( 0.107782 0.0577687 -0.0547144 ) 49
( 0.00985058 0.0901751 -0.0670866 ) 55
( 0.216632 0.0558587 -0.0346394 ) 82
( 0.139857 0.0605884 -0.0164171 ) 80
( 0.0517662 0.0144456 0.0101152 ) 94
( 0.00983674 0.0296276 0.00234279 ) 93
( 0.00990884 0.0901401 0.00952094 ) 108
( 0.0701956 0.0230234 -0.0165182 ) 68
( 0.220898 0.0444529 -0.0726895 ) 22
( 0.0499442 0.0901442 -0.0313938 ) 85
( 0.158578 -0.0107624 -0.0703356 ) 33
( 0.00983029 0.0560999 -0.0336284 ) 75
( 0.228038 0.0901096 -0.0696131 ) 63
( 0.0942139 0.0431384 -0.0554095 ) 49
( 0.224191 0.00562765 -0.0518663 ) 36
( 0.217585 0.0137565 -0.0187251 ) 64
( 0.230853 0.058223 -0.0159769 ) 83
( 0.067162 0.0900605 -0.0606721 ) 57
( 0.240817 0.0425569 -0.023008 ) 74
( 0.105885 0.0625512 -0.0355474 ) 78
( 0.145659 -0.00926816 -0.0541483 ) 33
( 0.202566 0.0901143 -0.0486937 ) 62
( 0.139565 0.0278556 -0.0206227 ) 71
( 0.249301 -0.0044732 -0.0301066 ) 65
( 0.092824 0.0900499 -0.0203599 ) 87
( 0.116492 0.0456702 -0.0239079 ) 79
( 0.150082 0.0575903 0.00405015 ) 106
( 0.150643 0.0758986 -0.0260583 ) 89
( 0.159246 0.0304861 -0.0211021 ) 71
( 0.188307 0.0424321 -0.0257203 ) 72
( 0.11428 0.0737681 0.00388826 ) 112
( 0.0407273 0.0312916 -0.0200943 ) 67
( 0.0358758 0.0730622 -0.0129426 ) 109
( 0.173135 0.0166713 -0.0176389 ) 72
( 0.175228 0.0641274 0.0124424 ) 107
( 0.172964 0.0556139 -0.0163535 ) 81
( 0.0960789 0.0446744 -0.0154394 ) 78
( 0.0755206 0.0734869 -0.0158084 ) 86
( 0.205337 0.0345773 -0.0193689 ) 73
( 0.203724 0.0703629 -0.0264161 ) 82
( 0.0636782 0.0415572 -0.0137054 ) 95
( 0.0453231 0.0476457 -0.00975293 ) 102
( 0.0653471 0.0902181 -0.0188509 ) 86
( 0.0117264 0.0704843 -0.0666197 ) 46
( 0.109954 0.0787642 -0.0780781 ) 27
( 0.178174 0.040369 -0.0774346 ) 12
( 0.029043 0.0316757 -0.0760813 ) 7
( 0.237925 0.077656 -0.0814794 ) 32
( 0.198906 0.075068 -0.0821307 ) 31
( 0.178341 -0.014151 -0.0817047 ) 3
( 0.0516049 0.0238122 -0.0777141 ) 7
( 0.112266 0.0290257 -0.0799445 ) 10
( 0.0684921 0.0163305 -0.0702955 ) 39
( 0.0746356 0.0625918 -0.0755123 ) 17
( 0.138879 0.0535176 -0.0765747 ) 19
( 0.218234 0.0794134 -0.0833217 ) 31
( 0.0165791 0.0466596 -0.0722074 ) 15
( 0.153429 0.0405231 -0.08061 ) 11
( 0.0809175 0.0442289 -0.0700934 ) 48
( 0.050354 0.0601694 -0.0789277 ) 16
( 0.1546 0.0164537 -0.0816022 ) 11
( 0.045601 0.0419991 -0.0722794 ) 7
( 0.0457555 0.0859897 -0.0736865 ) 25
( 0.0851897 0.00826042 -0.0774012 ) 0
( 0.078751 0.0820184 -0.0751025 ) 26
( 0.129607 0.0192564 -0.0800345 ) 10
( 0.133532 -0.00672274 -0.0828027 ) 1
( 0.160801 0.0660057 -0.0849324 ) 20
( 0.186077 0.00360841 -0.0770383 ) 3
( 0.0267347 0.0900586 -0.0774469 ) 24
( 0.234346 0.0125911 -0.086752 ) 5
( 0.0881427 -0.0102079 -0.0842373 ) 0
( 0.21422 0.0249315 -0.0826828 ) 13
( 0.0184158 0.0161394 -0.082518 ) 6
( 0.209826 0.0570481 -0.0835732 ) 22
( 0.0104938 0.0799887 -0.0841576 ) 24
( 0.130417 0.0758768 -0.0816765 ) 28
( 0.0925338 0.0315238 -0.0799361 ) 9
( 0.0656943 0.0374836 -0.0809758 ) 8
( 0.120103 0.0539774 -0.083083 ) 19
( 0.0314961 0.0548321 -0.0825631 ) 16
( 0.179132 0.0731217 -0.0814057 ) 30
( 0.10187 0.0617671 -0.0847586 ) 18
( 0.196434 0.0407348 -0.0856318 ) 13
( 0.108491 0.0060089 -0.0809761 ) 0
( 0.146641 0.0900865 -0.0818212 ) 29
( 0.0626134 0.0901271 -0.0832866 ) 26
( 0.233152 0.0420492 -0.0882843 ) 14
( 0.173226 0.0222276 -0.0859072 ) 12
( 0.0913699 0.0891984 -0.0888085 ) 27
( 0.00991215 0.060099 -0.0851986 ) 15
( 0.0108305 0.0343215 -0.0868041 ) 6
( 0.0374624 0.0144099 -0.0881053 ) 7
( 0.19533 0.0203722 -0.0871908 ) 13
( 0.0314837 0.0739831 -0.0882497 ) 25
( 0.0851985 0.0513532 -0.0881932 ) 18
( 0.0768319 0.0226538 -0.0884025 ) 8
( 0.134881 0.0371089 -0.0871623 ) 10
( 0.115018 -0.0111463 -0.0887736 ) 1
( 0.22928 0.0615901 -0.0895727 ) 23
( 0.0632602 0.0711736 -0.0894291 ) 17
( 0.183463 0.0554055 -0.0894169 ) 21
)
