/*--------------------------------*- C++ -*----------------------------------*\
  =========                 |
  \\      /  F ield         | OpenFOAM: The Open Source CFD Toolbox
   \\    /   O peration     | Website:  https://openfoam.org
    \\  /    A nd           | Version:  4.x
     \\/     M anipulation  |
\*---------------------------------------------------------------------------*/
FoamFile
{
    version     2.0;
    format      ascii;
    class       vectorField;
    location    0;
    object      v;
}
// * * * * * * * * * * * * * * * * * * * * * * * * * * * * * * * * * * * * * //

407
(
( -1.70437e-09 -4.8064e-09 6.71073e-09 )  
( -7.4421e-09 -7.27913e-09 7.43093e-09 )  
( -2.86448e-09 -9.65694e-09 -1.14528e-10 )  
( -7.13755e-09 -5.49025e-09 3.59985e-09 )  
( -7.09422e-09 -2.10022e-09 1.60644e-09 )  
( -5.54322e-09 -6.95964e-09 8.3785e-09 )  
( -2.52144e-09 -2.82326e-09 6.29571e-09 )  
( -2.53867e-09 -3.68949e-09 2.18496e-09 )  
( -1.49748e-09 3.95032e-09 -2.13627e-08 )  
( -1.97047e-09 1.25857e-09 -6.46706e-09 )  
( -3.62793e-09 2.56948e-09 -2.02149e-08 )  
( -1.26981e-10 2.65196e-09 -8.91496e-09 )  
( -3.12271e-09 9.12549e-10 -1.74791e-08 )  
( -7.43894e-10 2.72554e-09 -1.62365e-08 )  
( -1.63695e-09 3.60593e-09 -1.38554e-08 )  
( -3.53449e-09 -1.39691e-09 7.56548e-09 )  
( -3.41942e-09 3.64326e-09 -1.54527e-08 )  
( -3.38047e-09 -4.29843e-09 5.48061e-09 )  
( -1.71324e-09 -3.64431e-10 -1.29523e-08 )  
( -1.32833e-09 1.62755e-09 -3.30635e-09 )  
( -4.82718e-09 2.02097e-09 -1.43163e-08 )  
( -6.07675e-09 -1.43965e-09 -4.35456e-09 )  
( -2.82224e-09 3.06975e-09 -1.08456e-08 )  
( -3.6755e-09 -2.20996e-09 1.11336e-08 )  
( -4.60133e-09 1.35837e-09 -1.47125e-08 )  
( -2.98024e-09 5.38979e-09 -1.69402e-08 )  
( -3.75668e-09 4.07555e-10 -6.71191e-09 )  
( -5.47761e-09 -5.36908e-09 2.08081e-09 )  
( -8.91157e-09 -5.52788e-09 3.06874e-10 )  
( -2.38456e-09 2.7492e-09 -8.80327e-09 )  
( -8.95478e-09 -3.80833e-09 1.90255e-09 )  
( -1.98768e-09 2.9171e-09 -1.83427e-08 )  
( -4.40041e-09 -6.23202e-10 -1.06497e-08 )  
( -7.14505e-09 -1.95914e-09 -7.52541e-09 )  
( -9.21381e-09 -4.64249e-09 8.92979e-09 )  
( -7.31806e-09 -2.1865e-09 -1.82091e-09 )  
( -7.36537e-09 -4.57778e-09 7.27326e-09 )  
( -5.87161e-09 -2.83286e-09 -9.07815e-09 )  
( -9.93174e-09 -5.87042e-09 9.28303e-09 )  
( -2.99304e-09 -1.1625e-09 -3.82858e-09 )  
( -7.84711e-09 -2.28168e-09 -5.35486e-09 )  
( -1.8972e-09 4.75564e-09 -1.89712e-08 )  
( -1.24336e-09 8.6845e-09 -2.19239e-08 )  
( -3.97827e-10 2.99545e-09 -2.00201e-08 )  
( -9.52959e-10 7.06107e-10 -7.5551e-09 )  
( -4.80032e-09 -9.95778e-10 -1.1234e-08 )  
( -7.40581e-09 -4.67297e-09 5.47697e-09 )  
( -7.84033e-09 -6.39406e-09 4.0925e-09 )  
( -4.94703e-09 -6.8788e-09 5.45749e-09 )  
( -9.24339e-09 -2.17266e-09 8.17894e-10 )  
( -2.54742e-09 2.57785e-09 -1.3493e-08 )  
( -1.02964e-08 -6.98178e-09 7.15989e-09 )  
( -7.82764e-09 -2.64753e-09 6.63755e-11 )  
( -8.7602e-09 -2.24854e-09 -1.63613e-09 )  
( -2.70332e-09 4.03427e-09 -1.96469e-08 )  
( -4.02385e-09 -2.74297e-09 1.59547e-09 )  
( -1.05673e-08 -5.94241e-09 4.68367e-09 )  
( -5.60446e-09 -2.16211e-09 -1.10436e-08 )  
( -9.00215e-09 -5.66273e-09 7.74585e-09 )  
( -3.97202e-09 -3.77008e-09 4.08675e-10 )  
( -8.36147e-09 1.08945e-09 -1.59612e-08 )  
( -7.29781e-09 -6.00777e-09 7.18019e-09 )  
( -4.73028e-09 -1.24114e-09 -7.62281e-09 )  
( -8.16893e-09 -4.64849e-09 1.70097e-09 )  
( -2.95741e-09 -1.12942e-09 -1.22238e-08 )  
( -3.18433e-09 2.89664e-09 -2.31012e-08 )  
( -1.06406e-08 -1.76177e-09 4.75406e-10 )  
( -4.61743e-09 8.24138e-10 -2.88967e-09 )  
( -2.15989e-09 4.55798e-10 -3.20529e-09 )  
( -4.73687e-09 -5.99624e-09 5.05543e-09 )  
( -1.12655e-08 -4.04721e-09 1.12473e-08 )  
( -2.7186e-09 -1.57007e-10 -1.32847e-08 )  
( -6.06042e-09 -4.83669e-09 1.72907e-09 )  
( -4.1368e-09 -1.54736e-09 -3.93418e-09 )  
( -4.93911e-09 -1.84111e-09 -2.60728e-08 )  
( -6.70268e-09 -1.11435e-09 -1.03479e-08 )  
( -5.59678e-09 -6.58239e-09 1.60071e-09 )  
( -5.72506e-09 -1.385e-09 -6.63673e-09 )  
( 2.37912e-10 6.4035e-09 -1.55996e-08 )  
( -8.93134e-09 -3.77792e-09 6.24996e-09 )  
( -6.74636e-09 -4.01464e-09 3.83288e-09 )  
( -2.35008e-09 1.23742e-09 -8.17242e-09 )  
( -3.25798e-09 3.55737e-09 -1.31027e-08 )  
( -7.14375e-09 -3.30771e-09 1.83045e-09 )  
( -2.96388e-09 -4.45326e-09 6.89415e-09 )  
( -5.73376e-09 -1.24184e-09 -4.89648e-10 )  
( -5.2527e-09 1.08053e-09 -1.31941e-08 )  
( -1.1493e-09 3.10209e-09 -1.6613e-08 )  
( -6.55716e-09 -5.01164e-09 1.09159e-09 )  
( -3.62006e-09 -2.07867e-09 1.69948e-09 )  
( -3.40043e-09 2.3531e-09 -1.50056e-08 )  
( -3.87764e-09 7.93284e-09 -2.74704e-08 )  
( -7.0951e-09 -3.85232e-09 5.30193e-09 )  
( -9.67936e-09 -8.39415e-09 9.25488e-09 )  
( -2.33691e-09 8.2125e-10 -1.4132e-08 )  
( -7.18005e-09 -3.70699e-10 3.35869e-10 )  
( -5.26102e-09 -2.50669e-09 -1.00601e-08 )  
( -7.25962e-09 -2.45655e-09 -4.01045e-09 )  
( -1.05178e-08 -3.12783e-09 -1.98712e-09 )  
( -3.12786e-09 5.35963e-12 -1.06813e-08 )  
( -4.38274e-09 4.75811e-09 -3.202e-08 )  
( -1.6414e-09 -2.17525e-09 -3.00983e-09 )  
( -2.85566e-09 9.92565e-10 -1.35023e-08 )  
( -3.41069e-09 1.28476e-09 -1.32959e-08 )  
( -4.47242e-09 1.05938e-09 -1.30423e-08 )  
( -4.99405e-09 -1.5926e-09 -4.86305e-09 )  
( -6.12903e-09 6.13749e-10 -6.7785e-09 )  
( -8.4997e-09 -5.13703e-09 1.62373e-09 )  
( -6.53373e-09 2.72779e-09 -2.37089e-08 )  
( -4.4879e-09 -1.06668e-09 -8.3907e-09 )  
( -2.09246e-09 2.26842e-09 -1.60785e-08 )  
( -4.93538e-09 -1.0331e-08 2.4245e-09 )  
( -4.1516e-09 -4.65957e-09 6.36961e-09 )  
( -6.18699e-09 -5.82574e-09 7.22116e-09 )  
( -6.74429e-09 -3.30985e-09 -3.13813e-09 )  
( -5.91094e-09 -2.51173e-09 -4.83686e-09 )  
( -5.26691e-09 -8.72648e-10 -4.0922e-09 )  
( -2.69811e-09 8.3303e-10 -1.36167e-08 )  
( -8.35209e-09 -4.31138e-09 3.002e-09 )  
( -7.93798e-09 -3.80176e-09 -5.12283e-10 )  
( -5.80018e-09 -5.10844e-09 4.47275e-09 )  
( -6.77418e-09 -7.68796e-09 4.41658e-09 )  
( -6.67827e-09 -5.79645e-09 9.65239e-09 )  
( -5.6285e-09 -2.51968e-09 1.27265e-09 )  
( -3.02474e-09 -1.70369e-09 -1.0499e-08 )  
( -5.15065e-09 -1.4469e-09 -6.47151e-09 )  
( -8.26375e-09 -4.8225e-09 1.95799e-09 )  
( -6.47266e-09 -2.14669e-09 -2.62759e-08 )  
( 4.89715e-09 2.36048e-09 -1.87166e-08 )  
( -5.60556e-09 6.51693e-09 -2.29753e-08 )  
( -8.39786e-09 -4.98123e-09 -9.84122e-09 )  
( -4.33205e-09 -1.99266e-09 -6.51726e-09 )  
( -6.45598e-09 -6.834e-09 8.69927e-09 )  
( -5.28866e-09 -1.75968e-09 -3.41091e-09 )  
( -1.17591e-09 3.5068e-10 -1.44531e-08 )  
( -4.93904e-09 -1.35447e-09 -1.43114e-09 )  
( 9.90217e-08 4.46207e-08 -3.22796e-09 )  
( -1.78079e-09 -1.07911e-09 -1.31312e-08 )  
( -1.69778e-09 -2.53663e-09 -7.16579e-10 )  
( -8.66276e-09 -1.75213e-09 1.38996e-09 )  
( -9.83524e-09 -5.45362e-09 6.59506e-09 )  
( -3.54478e-09 -9.75561e-10 -8.87065e-09 )  
( -9.0601e-09 -4.60001e-09 1.72592e-09 )  
( -7.52534e-09 -4.42728e-09 -8.80066e-10 )  
( 2.31877e-10 2.07294e-09 -4.83201e-09 )  
( -2.86518e-09 1.09322e-09 -8.24834e-09 )  
( -5.47467e-09 3.5923e-09 -2.35413e-08 )  
( -4.34676e-09 -5.7626e-09 9.78626e-09 )  
( -1.66089e-09 7.22822e-09 -1.57689e-08 )  
( -6.60289e-09 -5.87179e-09 7.26132e-09 )  
( -5.23675e-09 -5.27335e-09 -4.48876e-09 )  
( -3.6231e-09 4.92906e-09 -3.20302e-08 )  
( -4.09536e-09 -1.78888e-09 -9.11411e-09 )  
( -3.29214e-09 -5.09321e-09 2.68263e-09 )  
( -6.04191e-09 -6.44105e-09 1.98372e-09 )  
( -4.24574e-09 -1.09659e-09 8.22508e-10 )  
( -7.77513e-09 -2.99684e-09 2.14781e-09 )  
( -6.52723e-09 -5.42284e-09 1.04584e-08 )  
( -1.33903e-09 -1.28086e-09 -1.01163e-08 )  
( -6.77782e-09 -2.38948e-09 -3.16789e-09 )  
( -7.83013e-09 -4.06396e-09 -1.48939e-09 )  
( -6.64006e-10 -1.58828e-09 -8.81677e-10 )  
( -2.84618e-09 -7.39967e-09 9.30445e-09 )  
( -1.88784e-09 -2.49282e-09 8.96051e-09 )  
( -1.25624e-08 -3.57269e-09 1.20049e-09 )  
( -3.97666e-09 -1.65998e-09 -1.5936e-09 )  
( -6.39798e-09 -2.99229e-09 6.49147e-10 )  
( -9.70066e-09 -6.18817e-10 3.88737e-10 )  
( -2.72284e-09 2.72464e-09 -7.83707e-09 )  
( -4.12791e-09 -6.89836e-09 4.56706e-09 )  
( -5.5951e-10 1.80077e-09 -5.62525e-09 )  
( -3.48602e-09 -6.90797e-09 1.83816e-09 )  
( -2.21859e-09 4.2431e-09 -9.21897e-09 )  
( -5.71583e-09 -3.91634e-09 5.47359e-09 )  
( -1.02045e-08 -1.35734e-09 -7.51333e-09 )  
( -8.30165e-09 -4.87461e-09 2.88386e-09 )  
( -6.79839e-10 -5.83128e-10 -8.65514e-10 )  
( -3.41364e-09 -4.33434e-09 4.00087e-09 )  
( 1.5066e-09 3.33125e-09 -1.09402e-08 )  
( -7.97723e-09 -4.24173e-09 3.65713e-09 )  
( -9.00151e-09 -1.67058e-09 7.72161e-10 )  
( -8.91762e-09 -4.06594e-09 -3.38307e-09 )  
( -9.15722e-09 3.03834e-10 2.71703e-10 )  
( 3.81717e-11 7.51819e-10 -4.3634e-09 )  
( -9.23511e-10 1.75815e-09 -9.25115e-09 )  
( -8.84771e-09 -2.0341e-09 -2.04897e-09 )  
( -7.68436e-09 -3.27164e-09 -1.18948e-09 )  
( -4.93059e-09 -3.70286e-09 -5.72369e-10 )  
( -4.26345e-09 -2.92918e-09 1.2365e-09 )  
( 1.21214e-09 3.24111e-09 -1.07318e-08 )  
( -6.89025e-09 -5.45407e-09 5.02895e-09 )  
( 2.65601e-09 2.17289e-13 -3.48487e-09 )  
( -2.33579e-09 -4.2621e-11 -2.73128e-09 )  
( 1.76881e-09 1.57939e-09 -5.97508e-09 )  
( 9.37038e-10 5.76186e-10 -1.30736e-08 )  
( -2.04941e-09 -2.71009e-09 -8.60021e-10 )  
( -3.85447e-09 -4.85383e-10 -6.49064e-09 )  
( -6.13245e-09 3.1372e-09 -4.38617e-09 )  
( -5.39421e-09 -4.53331e-09 1.23915e-09 )  
( -1.11925e-08 -1.51728e-09 -3.87896e-09 )  
( -2.97703e-09 -4.81013e-09 4.58686e-09 )  
( -6.89858e-09 -4.08286e-09 2.60246e-09 )  
( 2.24628e-09 -1.1368e-09 -4.56325e-09 )  
( -2.06812e-09 -4.35935e-09 2.71897e-09 )  
( -9.74162e-10 5.79479e-10 -1.00448e-09 )  
( 2.70541e-09 9.77782e-10 -3.1608e-09 )  
( -8.35351e-09 -4.79128e-10 4.40282e-12 )  
( -5.66624e-10 -2.1098e-09 -1.89695e-09 )  
( -8.10314e-09 -4.49991e-09 1.6954e-09 )  
( 6.34979e-10 5.89827e-10 -7.62204e-09 )  
( -9.53896e-09 -1.66179e-09 -1.15543e-09 )  
( 1.19529e-09 -8.29175e-10 -1.10215e-09 )  
( -9.33064e-09 -1.06616e-09 -4.44806e-10 )  
( -4.34661e-09 -1.88665e-09 6.37377e-09 )  
( -1.21239e-08 -3.61202e-09 1.31945e-09 )  
( -7.74449e-09 -2.59965e-09 3.22112e-09 )  
( -3.68848e-09 3.3743e-09 -6.12296e-09 )  
( -7.86792e-09 -3.34264e-09 2.42152e-12 )  
( 5.82698e-10 9.74893e-10 -8.71955e-09 )  
( -2.30312e-09 1.23808e-09 -2.07675e-09 )  
( 1.38069e-09 1.13731e-09 -1.05266e-08 )  
( -9.34897e-09 -4.52906e-09 5.21447e-09 )  
( -1.4239e-08 -8.86937e-09 -4.46902e-09 )  
( 2.64282e-10 4.44561e-10 -5.53564e-09 )  
( -1.01361e-08 -4.01533e-09 -5.35906e-09 )  
( -7.19083e-12 2.71515e-09 -6.91547e-09 )  
( -1.31458e-08 -3.68043e-09 -1.05494e-08 )  
( -6.99244e-09 2.63246e-09 -5.00194e-09 )  
( -4.983e-09 -3.67105e-09 -3.60736e-09 )  
( -1.59771e-09 -7.96038e-10 -3.93027e-09 )  
( 3.65704e-11 2.61038e-09 -3.61227e-09 )  
( 1.04482e-09 6.70762e-09 -1.5066e-08 )  
( -7.20784e-09 -9.79903e-10 1.0506e-09 )  
( -1.08577e-08 -1.60623e-09 -5.38854e-09 )  
( -3.27775e-09 -4.35583e-09 4.45934e-09 )  
( -5.37247e-09 -1.55686e-09 1.733e-09 )  
( 2.53639e-09 -2.81347e-09 4.10967e-09 )  
( -4.77298e-09 -4.44491e-09 5.23779e-09 )  
( 1.70037e-09 2.69987e-09 -1.19287e-08 )  
( -3.50382e-09 2.24969e-09 -1.72341e-08 )  
( -8.30748e-09 -5.01405e-09 4.00747e-10 )  
( 7.40384e-10 4.94726e-10 -1.0098e-08 )  
( -1.16049e-08 -1.14206e-09 2.13124e-09 )  
( -5.23101e-09 -3.26368e-09 -4.76598e-09 )  
( -2.25033e-09 -1.76851e-09 9.70335e-10 )  
( -1.49368e-10 -1.77769e-09 -9.35544e-10 )  
( -6.13504e-09 -6.76667e-10 6.38958e-10 )  
( -2.52733e-10 5.30645e-10 -4.34348e-09 )  
( 1.97213e-09 1.55433e-09 -5.96482e-09 )  
( 1.01788e-09 3.57346e-09 -1.40157e-08 )  
( 6.54882e-10 1.4382e-10 -6.64696e-09 )  
( -4.07132e-10 -1.53132e-09 -2.46296e-09 )  
( 3.8607e-10 1.10369e-09 -5.4728e-09 )  
( 1.23471e-09 1.35022e-09 -5.13809e-09 )  
( -5.15224e-09 1.53667e-11 -8.76869e-09 )  
( -4.04816e-09 1.38553e-11 -3.87503e-09 )  
( -1.52344e-09 1.56649e-09 -1.13191e-08 )  
( -4.52557e-09 -2.37518e-09 -1.97522e-09 )  
( -7.6411e-09 -3.05823e-09 -2.18465e-09 )  
( -9.72092e-09 -1.91952e-09 -3.06898e-09 )  
( -3.53839e-09 -4.72385e-09 5.81195e-09 )  
( -6.25103e-09 -2.36485e-09 6.21685e-09 )  
( -5.68182e-09 -2.47814e-09 -3.12644e-09 )  
( -5.41316e-09 1.53678e-10 6.27795e-10 )  
( -7.80233e-09 -1.92027e-09 -1.14485e-09 )  
( -1.27356e-09 7.79174e-10 -3.95413e-10 )  
( -1.1196e-08 -1.92374e-09 4.93969e-10 )  
( 1.53246e-10 5.47033e-10 -3.3492e-09 )  
( -9.78831e-09 -4.93254e-09 2.98022e-09 )  
( -4.94175e-09 -4.93097e-10 -1.01663e-08 )  
( -1.08574e-08 -1.30803e-09 1.08337e-09 )  
( 1.29198e-09 1.14902e-09 -5.82268e-09 )  
( -4.28202e-09 -5.552e-10 2.30576e-09 )  
( -2.89012e-09 -4.90455e-09 4.45307e-09 )  
( -7.37183e-09 -3.87472e-09 4.0859e-09 )  
( -1.60603e-08 -3.34723e-09 -5.19073e-10 )  
( -1.19258e-08 -1.57423e-09 -5.94977e-09 )  
( -6.26378e-10 3.20298e-09 -1.08474e-08 )  
( -3.70122e-10 2.1709e-09 -9.87577e-09 )  
( -9.05939e-09 -4.37122e-09 -8.86382e-09 )  
( 1.9166e-10 1.00325e-09 -1.12352e-08 )  
( -1.19741e-09 8.26831e-10 -1.23202e-08 )  
( -2.26781e-09 -2.54444e-09 -4.64748e-10 )  
( -1.19826e-08 -5.71922e-09 -7.59833e-09 )  
( -7.35113e-09 -2.71701e-09 1.46168e-09 )  
( -6.57425e-09 -1.49387e-09 -4.11723e-09 )  
( 3.42497e-09 5.05936e-09 -1.56029e-08 )  
( -8.40773e-10 1.92549e-09 -7.86529e-09 )  
( -1.2801e-08 -5.79284e-09 -2.05761e-10 )  
( -4.89348e-09 -2.92774e-09 6.98223e-09 )  
( -3.8039e-10 2.00336e-09 -7.73729e-09 )  
( -3.8988e-09 -1.7412e-09 -1.3782e-09 )  
( -2.48182e-09 5.60409e-10 -2.51374e-09 )  
( 6.00573e-10 2.52193e-09 -7.92396e-09 )  
( -6.32983e-09 -5.16175e-09 8.64695e-10 )  
( -1.16894e-08 -6.4308e-09 -1.14045e-08 )  
( -3.20367e-09 1.78581e-09 -2.26241e-09 )  
( -3.64149e-09 -1.08341e-09 -8.27126e-09 )  
( -1.13415e-08 -6.67932e-09 -2.61986e-10 )  
( -4.78535e-09 -1.25342e-09 -1.56785e-09 )  
( -4.0607e-09 1.18496e-09 -3.08862e-09 )  
( -3.44373e-09 1.49165e-10 -1.06947e-08 )  
( -7.36246e-09 -2.13539e-09 4.63422e-09 )  
( 4.13179e-09 1.01878e-09 -4.47704e-09 )  
( -4.41816e-09 -2.04771e-09 1.11734e-09 )  
( -5.64611e-09 -6.20493e-09 3.96003e-09 )  
( -3.81227e-09 -1.40252e-09 -2.27367e-09 )  
( 1.39585e-09 -2.16672e-09 9.2342e-10 )  
( -4.26484e-09 -1.07992e-09 -7.63897e-10 )  
( 2.21669e-09 -1.27931e-09 -1.62719e-09 )  
( -3.81052e-09 -8.87139e-10 -7.62651e-09 )  
( 1.99197e-09 -2.81029e-09 3.53931e-09 )  
( 1.184e-09 6.11246e-09 -2.98691e-09 )  
( 2.46434e-10 3.41796e-09 -6.90338e-09 )  
( -5.9211e-09 -4.3135e-09 4.63558e-09 )  
( -6.28868e-09 -4.05036e-09 1.81876e-10 )  
( -2.88518e-09 -1.98552e-09 5.52036e-10 )  
( 2.96241e-09 5.0313e-10 -7.71876e-09 )  
( 2.63494e-09 8.60441e-11 -4.35306e-09 )  
( -4.94013e-09 -3.41787e-09 6.89963e-09 )  
( 1.1926e-09 1.24139e-09 -7.60531e-09 )  
( -9.52074e-10 -9.93437e-10 -8.16275e-10 )  
( -1.48141e-10 2.10731e-09 -3.65301e-09 )  
( -2.64554e-09 -4.26022e-09 4.72077e-09 )  
( -2.00891e-09 4.67566e-10 -2.62625e-09 )  
( -5.64123e-09 -1.15314e-09 3.73015e-10 )  
( -3.16906e-09 -5.52664e-09 1.40697e-09 )  
( 1.26816e-09 2.33365e-09 -4.03649e-09 )  
( -5.17139e-09 -2.63245e-09 8.12398e-11 )  
( 1.75583e-09 -4.10625e-09 4.02378e-09 )  
( 1.71387e-09 -3.88532e-09 2.63381e-09 )  
( -3.46389e-09 -4.32092e-09 1.14515e-09 )  
( 4.1708e-09 -6.27754e-10 -2.31715e-09 )  
( 9.55396e-10 -4.69869e-10 -2.58997e-09 )  
( 1.12948e-09 -8.64953e-10 -1.37325e-09 )  
( -4.64466e-09 -7.94938e-10 -1.68285e-09 )  
( -6.16056e-09 -5.50918e-10 7.1576e-10 )  
( 3.4836e-09 2.12668e-09 -8.35563e-09 )  
( 1.09159e-09 -1.47666e-10 -6.51748e-09 )  
( -6.25956e-09 -1.72306e-09 -1.69657e-09 )  
( -3.42735e-09 1.13034e-09 -8.64637e-09 )  
( -3.68475e-09 1.17252e-09 -2.49743e-09 )  
( -5.30204e-09 -1.51531e-09 -3.18777e-09 )  
( -1.79089e-09 2.21089e-10 -1.96995e-09 )  
( 1.14114e-09 -9.77002e-10 -1.61779e-09 )  
( -2.65089e-09 -1.18255e-09 1.16384e-09 )  
( 2.72648e-09 -3.71984e-09 2.15093e-09 )  
( -1.46267e-09 -3.40394e-09 1.45253e-09 )  
( -5.26487e-09 -1.75537e-09 -1.39113e-09 )  
( 4.71011e-09 3.06053e-11 -3.52659e-09 )  
( 4.06718e-09 4.91196e-09 -5.10556e-09 )  
( -3.03102e-09 -5.63314e-09 2.32533e-09 )  
( 1.10292e-09 -2.00311e-11 -7.19078e-09 )  
( 1.29636e-09 -2.61799e-09 2.19982e-09 )  
( 2.81806e-09 -1.46541e-09 -1.28798e-09 )  
( -5.23458e-09 -5.59907e-09 1.87821e-09 )  
( -4.09897e-09 -1.30514e-09 -4.03791e-09 )  
( -3.74969e-09 -3.61172e-09 1.06744e-09 )  
( -3.40704e-09 -4.19886e-10 -1.78669e-09 )  
( -1.25889e-09 3.23149e-09 -9.21928e-10 )  
( -3.93445e-09 -5.078e-10 -4.03519e-10 )  
( 5.89058e-09 -4.0522e-11 -3.31223e-09 )  
( -2.66159e-09 -4.5013e-10 -8.59065e-10 )  
( -3.74394e-09 -2.14593e-09 -7.53456e-10 )  
( 2.22615e-09 -2.55364e-09 2.45933e-09 )  
( 1.85011e-09 2.40957e-09 -3.97329e-09 )  
( -6.02903e-10 3.55249e-09 -2.53387e-09 )  
( -2.12491e-09 -3.73253e-10 2.644e-10 )  
( 8.98219e-09 1.11209e-09 -3.29531e-09 )  
( -7.31162e-10 -8.39656e-09 3.1774e-09 )  
( 1.71651e-09 4.32549e-09 -2.01601e-09 )  
( 5.98324e-10 -2.82838e-10 -5.61466e-10 )  
( 2.08042e-09 2.15456e-09 -2.1698e-09 )  
( -1.03178e-09 4.38175e-11 4.65049e-10 )  
( 6.40474e-09 1.42517e-09 -3.39162e-09 )  
( -1.26385e-09 -4.52474e-09 9.13503e-10 )  
( -4.6805e-09 -3.35367e-09 -1.56516e-10 )  
( 3.38803e-09 -3.06761e-10 -3.8795e-09 )  
( 2.86452e-09 -2.20261e-10 -1.3086e-09 )  
( -1.11915e-09 -2.32185e-09 7.97285e-10 )  
( -1.63502e-09 -5.67472e-09 8.3599e-10 )  
( -2.46764e-09 -6.18136e-11 2.79345e-10 )  
( 1.12397e-09 -2.18927e-09 1.4697e-09 )  
( 1.73219e-09 -1.45328e-09 1.37025e-09 )  
( -1.94878e-09 6.9837e-11 -2.24865e-10 )  
( -2.02651e-09 4.68859e-10 -1.20823e-09 )  
( 1.22213e-09 -2.69983e-10 -2.55992e-11 )  
( 1.89011e-09 2.52723e-09 -3.60903e-09 )  
( 2.32442e-09 -1.56157e-09 2.28498e-09 )  
( 5.5154e-09 3.32965e-09 -5.06692e-09 )  
( -1.17367e-09 3.41013e-09 -7.18777e-10 )  
( -1.34635e-09 -1.2486e-09 6.1649e-10 )  
( -2.71197e-09 -1.28714e-09 -1.40487e-09 )  
( 2.73525e-09 2.27416e-10 -3.78471e-09 )  
( -2.9082e-09 -3.96111e-09 7.32549e-10 )  
( -7.68742e-10 5.25317e-09 6.23602e-10 )  
( 3.01704e-10 -8.11026e-10 -1.60046e-09 )  
( -6.39706e-10 -2.69153e-09 3.56729e-10 )  
( 1.69272e-09 4.6756e-09 -1.98529e-09 )  
( -2.28478e-09 -1.42788e-09 -4.77238e-10 )  
( -7.21907e-09 -8.71177e-08 8.82211e-10 )  
( -3.40815e-09 -6.0271e-10 8.44727e-11 )  
( -2.72471e-09 -3.82602e-10 -3.70443e-10 )  
( 3.16924e-09 2.19789e-09 -6.29086e-10 )  
( 1.51573e-09 -1.55858e-09 1.22453e-09 )  
( 1.54568e-09 -8.86353e-10 3.98438e-11 )  
( -3.12506e-09 -8.19392e-10 -4.5085e-10 )  
)
