/*--------------------------------*- C++ -*----------------------------------*\
| =========                 |                                                 |
| \\      /  F ield         | OpenFOAM: The Open Source CFD Toolbox           |
|  \\    /   O peration     | Version:  4.x                                   |
|   \\  /    A nd           | Web:      www.OpenFOAM.org                      |
|    \\/     M anipulation  |                                                 |
\*---------------------------------------------------------------------------*/
FoamFile
{
    version     2.0;
    format      ascii;
    class       volScalarField;
    location    "57";
    object      KslNext;
}
// * * * * * * * * * * * * * * * * * * * * * * * * * * * * * * * * * * * * * //

dimensions      [1 -3 -1 0 0 0 0];

internalField   nonuniform List<scalar> 
132
(
51505.1
3705.04
70582.1
3687.36
234403
3726.39
543177
4102.86
24127.9
521577
3792.77
1e+10
3835.34
147730
3955.41
22163.8
4222.57
7046.17
11468.8
3339.25
11444.8
3162.12
11335.2
2972.64
10940.7
2640.3
8286.23
6441.16
3009.14
6541.94
2891.27
7040.35
2793.23
8438
2562.67
9387.05
1e+10
3833.48
1e+10
3854.6
1e+10
4164.17
17142.9
1e+10
3996.33
1e+10
3904
1e+10
3808.32
1e+10
3736.03
27275.2
9.95194e+09
3847.76
1e+10
3951.11
1e+10
4312.12
1e+10
5339.33
28912.2
12982.4
3535.92
26972.1
3686.55
8.40304e+06
4051.5
1e+10
4999.82
35496.3
42782.9
3382.1
21229.6
3453.3
6708.46
256425
3747.3
1e+10
3739.71
517173
3778.75
34933
3966.04
7991.13
14067.5
3399.45
13955
3164.81
12236.1
2813.41
9930.89
2299.01
6635.93
6324.95
3047.17
6407.38
2948.3
6731.81
2737.49
7512.23
2283.11
8901.99
8182.89
2407.19
7856.16
9190.6
3336.04
10513.1
3357.33
12791.3
3413.48
18094.4
3576.69
25830
6631.44
3080.92
6918.77
3057.7
7741.05
2929.7
9342.32
2734.73
14046
5183.42
2904
5308.22
2928.68
5603.57
2904.47
5738.01
3028.34
5149.51
)
;

boundaryField
{
    inlet
    {
        type            zeroGradient;
    }
    outlet
    {
        type            zeroGradient;
    }
    wall
    {
        type            zeroGradient;
    }
    procBoundary7to0
    {
        type            processor;
        value           uniform 0;
    }
    procBoundary7to1
    {
        type            processor;
        value           uniform 0;
    }
    procBoundary7to3
    {
        type            processor;
        value           uniform 0;
    }
    procBoundary7to5
    {
        type            processor;
        value           uniform 0;
    }
    procBoundary7to6
    {
        type            processor;
        value           uniform 0;
    }
}


// ************************************************************************* //
