/*--------------------------------*- C++ -*----------------------------------*\
| =========                 |                                                 |
| \\      /  F ield         | OpenFOAM: The Open Source CFD Toolbox           |
|  \\    /   O peration     | Version:  4.x                                   |
|   \\  /    A nd           | Web:      www.OpenFOAM.org                      |
|    \\/     M anipulation  |                                                 |
\*---------------------------------------------------------------------------*/
FoamFile
{
    version     2.0;
    format      ascii;
    class       volScalarField;
    location    "57";
    object      particleRelTemp;
}
// * * * * * * * * * * * * * * * * * * * * * * * * * * * * * * * * * * * * * //

dimensions      [0 0 0 0 0 0 0];

internalField   nonuniform List<scalar> 
132
(
1.08812e-09
1.58444e-10
-6.70578e-10
-1.34243e-09
-1.51418e-09
-1.35104e-09
-1.01794e-09
-5.88214e-10
-5.32447e-10
4.4571e-10
-4.01963e-11
-8.61274e-10
-1.19873e-09
-1.39452e-09
-1.31242e-09
-1.09318e-09
-8.37296e-10
-6.71659e-10
-1.8469e-10
-3.66234e-10
-8.40458e-10
-1.08833e-09
-1.24646e-09
-1.21256e-09
-1.09276e-09
-9.06577e-10
-7.96299e-10
-2.88431e-10
-5.5341e-10
-7.44612e-10
-1.07117e-09
-1.14175e-09
-1.14616e-09
-1.06459e-09
-8.90267e-10
-8.21684e-10
-1.21624e-09
-1.4758e-09
-1.46803e-09
-1.22909e-09
-8.64083e-10
-4.79636e-10
-2.40773e-10
-3.73379e-10
-8.00321e-10
-1.15994e-09
-1.38747e-09
-1.37767e-09
-1.17887e-09
-8.56694e-10
-6.0515e-10
-3.76166e-10
-4.92999e-10
-8.32874e-10
-1.10615e-09
-1.28263e-09
-1.2761e-09
-1.14329e-09
-9.46454e-10
-7.05017e-10
-5.71099e-10
-6.69337e-10
-8.86967e-10
-1.07562e-09
-1.18096e-09
-1.21483e-09
-1.10516e-09
-9.82655e-10
-7.9532e-10
-7.09775e-10
-1.45597e-09
-1.18939e-09
-7.45501e-10
-4.38136e-10
-1.37945e-10
-7.84835e-10
-1.1278e-09
-1.4109e-09
-1.45619e-09
-1.35772e-09
-1.11168e-09
-7.61321e-10
-5.23618e-10
-3.12179e-10
-8.39675e-10
-1.12491e-09
-1.28859e-09
-1.33575e-09
-1.27572e-09
-1.07193e-09
-8.50274e-10
-6.28898e-10
-4.94077e-10
-9.33132e-10
-1.06069e-09
-1.20928e-09
-1.24652e-09
-1.19536e-09
-1.02439e-09
-8.79399e-10
-7.10312e-10
-5.92749e-10
-6.93239e-10
-4.03474e-10
-1.50872e-10
-8.60694e-10
-1.23876e-09
-1.4471e-09
-1.4398e-09
-1.29377e-09
-1.04407e-09
-8.15293e-10
-5.05944e-10
-2.94808e-10
-9.7418e-10
-1.15698e-09
-1.32442e-09
-1.33553e-09
-1.22074e-09
-1.04048e-09
-8.52431e-10
-6.05024e-10
-4.6871e-10
-9.36039e-10
-1.10315e-09
-1.2066e-09
-1.20795e-09
-1.15783e-09
-1.02567e-09
-8.48151e-10
-6.84694e-10
-5.71973e-10
)
;

boundaryField
{
    inlet
    {
        type            calculated;
        value           nonuniform 0();
    }
    outlet
    {
        type            calculated;
        value           nonuniform List<scalar> 
16
(
-5.32447e-10
-6.71659e-10
-7.96299e-10
-8.21684e-10
-2.40773e-10
-3.76166e-10
-5.71099e-10
-7.09775e-10
-1.37945e-10
-3.12179e-10
-4.94077e-10
-5.92749e-10
-1.50872e-10
-2.94808e-10
-4.6871e-10
-5.71973e-10
)
;
    }
    wall
    {
        type            calculated;
        value           nonuniform List<scalar> 
66
(
-8.60694e-10
-9.7418e-10
-9.36039e-10
-1.23876e-09
-1.15698e-09
-1.10315e-09
-1.4471e-09
-1.32442e-09
-1.2066e-09
-1.4398e-09
-1.33553e-09
-1.20795e-09
-1.29377e-09
-1.22074e-09
-1.15783e-09
-1.04407e-09
-1.04048e-09
-1.02567e-09
-6.93239e-10
-8.15293e-10
-8.52431e-10
-8.48151e-10
-4.03474e-10
-5.05944e-10
-6.05024e-10
-6.84694e-10
-1.50872e-10
-2.94808e-10
-4.6871e-10
-5.71973e-10
-2.88431e-10
-6.69337e-10
-9.33132e-10
-9.36039e-10
-5.5341e-10
-8.86967e-10
-1.06069e-09
-1.10315e-09
-7.44612e-10
-1.07562e-09
-1.20928e-09
-1.2066e-09
-1.07117e-09
-1.18096e-09
-1.24652e-09
-1.20795e-09
-1.14175e-09
-1.21483e-09
-1.19536e-09
-1.15783e-09
-1.14616e-09
-1.10516e-09
-1.02439e-09
-1.02567e-09
-1.06459e-09
-9.82655e-10
-8.79399e-10
-8.48151e-10
-8.90267e-10
-7.9532e-10
-7.10312e-10
-6.84694e-10
-8.21684e-10
-7.09775e-10
-5.92749e-10
-5.71973e-10
)
;
    }
    procBoundary7to0
    {
        type            processor;
        value           uniform 2.27183e-09;
    }
    procBoundary7to1
    {
        type            processor;
        value           uniform 1.84064e-09;
    }
    procBoundary7to3
    {
        type            processor;
        value           nonuniform List<scalar> 
36
(
1.63673e-09
8.75292e-10
-3.79127e-10
-1.14503e-09
-1.57993e-09
-1.60525e-09
-1.3612e-09
-9.53564e-10
-7.92391e-10
1.36619e-09
5.20929e-10
-3.70214e-10
-1.03696e-09
-1.35007e-09
-1.4212e-09
-1.26077e-09
-1.08376e-09
-1.00702e-09
5.1257e-10
1.40486e-10
-5.16588e-10
-9.11746e-10
-1.21266e-09
-1.266e-09
-1.24651e-09
-1.11987e-09
-1.06522e-09
1.44076e-10
-1.5483e-10
-5.39626e-10
-9.12649e-10
-1.09607e-09
-1.16566e-09
-1.16375e-09
-1.0912e-09
-1.00852e-09
)
;
    }
    procBoundary7to5
    {
        type            processor;
        value           nonuniform List<scalar> 
44
(
5.14938e-10
-8.79741e-10
-1.49543e-09
-1.62246e-09
-1.41601e-09
-1.03935e-09
-6.65534e-10
-3.41055e-10
9.56247e-11
-9.63764e-10
-1.12301e-09
-1.52486e-09
-1.49532e-09
-1.22617e-09
-8.32575e-10
-4.22372e-10
-1.55124e-10
9.56247e-11
-9.63764e-10
-9.63764e-10
-1.46471e-09
-1.52929e-09
-1.42158e-09
-1.10463e-09
-7.29628e-10
-3.5693e-10
-1.29167e-10
-6.14421e-10
-1.13224e-09
-1.46471e-09
-1.52929e-09
-1.52929e-09
-1.37671e-09
-1.02028e-09
-7.01862e-10
-3.72072e-10
-1.49762e-10
-8.47574e-10
-1.23125e-09
-1.48168e-09
-1.50929e-09
-1.37671e-09
-1.02028e-09
-1.02028e-09
)
;
    }
    procBoundary7to6
    {
        type            processor;
        value           nonuniform List<scalar> 
12
(
1.18962e-09
4.0628e-10
3.37557e-12
2.2627e-10
-1.94389e-10
-3.69118e-10
-2.22677e-10
-4.82863e-10
-6.09765e-10
-5.36662e-10
-6.77172e-10
-7.19349e-10
)
;
    }
}


// ************************************************************************* //
