/*--------------------------------*- C++ -*----------------------------------*\
| =========                 |                                                 |
| \\      /  F ield         | OpenFOAM: The Open Source CFD Toolbox           |
|  \\    /   O peration     | Version:  4.x                                   |
|   \\  /    A nd           | Web:      www.OpenFOAM.org                      |
|    \\/     M anipulation  |                                                 |
\*---------------------------------------------------------------------------*/
FoamFile
{
    version     2.0;
    format      ascii;
    class       volScalarField;
    location    "57";
    object      Qsource;
}
// * * * * * * * * * * * * * * * * * * * * * * * * * * * * * * * * * * * * * //

dimensions      [1 -1 -3 0 0 0 0];

internalField   nonuniform List<scalar> 
132
(
1.02018e+10
9.19597e+09
6.50151e+09
8.00054e+09
1.14391e+10
1.25705e+10
8.02574e+09
6.55483e+09
6.16765e+09
7.51646e+09
1.14722e+10
7.46598e+09
8.19335e+09
8.39746e+09
6.9667e+09
7.88356e+09
7.77394e+09
6.75968e+09
5.35831e+09
9.47921e+09
7.00413e+09
9.03888e+09
8.44632e+09
1.05824e+10
8.67579e+09
9.20165e+09
6.9404e+09
7.5801e+09
8.46194e+09
9.49175e+09
6.92846e+09
8.41435e+09
9.03045e+09
8.41694e+09
8.06189e+09
3.98578e+09
6.56069e+09
8.64542e+09
6.68627e+09
8.21363e+09
8.82246e+09
9.88038e+09
6.0481e+09
3.85898e+09
1.01046e+10
7.34776e+09
8.88335e+09
8.67658e+09
8.33325e+09
5.71482e+09
9.07508e+09
4.59952e+09
6.02278e+09
1.01402e+10
7.51906e+09
7.31318e+09
8.21227e+09
1.05164e+10
9.54189e+09
8.35775e+09
6.18206e+09
6.85326e+09
9.38233e+09
5.87449e+09
8.71433e+09
6.56446e+09
7.25646e+09
5.39189e+09
8.91755e+09
4.13382e+09
5.0352e+09
7.30189e+09
8.23548e+09
7.67706e+09
4.65476e+09
8.57848e+09
9.15893e+09
7.08766e+09
6.53314e+09
9.17306e+09
8.86206e+09
7.8669e+09
1.07939e+10
6.91197e+09
8.22392e+09
9.53638e+09
8.72349e+09
9.0896e+09
9.4147e+09
1.00682e+10
9.07285e+09
9.53095e+09
6.97826e+09
6.54696e+09
8.22845e+09
7.71501e+09
9.05881e+09
6.97531e+09
7.89385e+09
8.73024e+09
9.54126e+09
5.61692e+09
6.30327e+09
9.15852e+09
5.28438e+09
7.66335e+09
7.82646e+09
7.82802e+09
9.43463e+09
5.39064e+09
5.68862e+09
7.03914e+09
8.35758e+09
4.40025e+09
6.82915e+09
7.68974e+09
6.82475e+09
8.70427e+09
7.79229e+09
8.11527e+09
7.95367e+09
8.71057e+09
6.24155e+09
7.24463e+09
1.01347e+10
7.0438e+09
9.00855e+09
8.44943e+09
8.85638e+09
7.61079e+09
8.86952e+09
4.8121e+09
)
;

boundaryField
{
    inlet
    {
        type            calculated;
        value           nonuniform 0();
    }
    outlet
    {
        type            calculated;
        value           uniform 0;
    }
    wall
    {
        type            calculated;
        value           uniform 0;
    }
    procBoundary7to0
    {
        type            processor;
        value           uniform 2.62602e+09;
    }
    procBoundary7to1
    {
        type            processor;
        value           uniform 5.90248e+09;
    }
    procBoundary7to3
    {
        type            processor;
        value           nonuniform List<scalar> 
36
(
8.28183e+09
1.10441e+10
9.30477e+09
1.04137e+10
6.66363e+09
7.8985e+09
9.22405e+09
8.50998e+09
7.05582e+09
9.55907e+09
6.13649e+09
8.16961e+09
5.02555e+09
4.38554e+09
9.43177e+09
7.63318e+09
1.05749e+10
5.13606e+09
6.02629e+09
1.03083e+10
9.18158e+09
7.26861e+09
7.38293e+09
9.97679e+09
8.09359e+09
9.30129e+09
5.11157e+09
9.17363e+09
5.74523e+09
6.16229e+09
7.84513e+09
6.75992e+09
9.4497e+09
6.55587e+09
1.05138e+10
7.80426e+09
)
;
    }
    procBoundary7to5
    {
        type            processor;
        value           nonuniform List<scalar> 
44
(
9.96007e+09
6.15362e+09
8.72241e+09
5.89163e+09
5.3201e+09
7.1488e+09
6.26341e+09
6.65925e+09
1.03747e+10
5.0778e+09
7.29673e+09
9.11764e+09
6.19589e+09
8.43205e+09
7.62214e+09
8.11864e+09
4.48473e+09
1.03747e+10
5.0778e+09
5.0778e+09
9.57061e+09
9.99898e+09
1.13723e+10
9.26375e+09
9.0194e+09
1.09737e+10
8.18988e+09
5.22427e+09
1.17533e+10
9.57061e+09
9.99898e+09
9.99898e+09
1.08635e+10
9.50643e+09
7.42008e+09
9.23812e+09
6.766e+09
7.66459e+09
7.37586e+09
7.79852e+09
7.66424e+09
1.08635e+10
9.50643e+09
9.50643e+09
)
;
    }
    procBoundary7to6
    {
        type            processor;
        value           nonuniform List<scalar> 
12
(
8.12276e+09
8.97744e+09
6.52469e+09
9.97063e+09
9.3883e+09
9.54526e+09
9.57408e+09
9.9961e+09
7.75305e+09
5.36428e+09
9.35624e+09
9.01456e+09
)
;
    }
}


// ************************************************************************* //
