/*--------------------------------*- C++ -*----------------------------------*\
| =========                 |                                                 |
| \\      /  F ield         | OpenFOAM: The Open Source CFD Toolbox           |
|  \\    /   O peration     | Version:  4.x                                   |
|   \\  /    A nd           | Web:      www.OpenFOAM.org                      |
|    \\/     M anipulation  |                                                 |
\*---------------------------------------------------------------------------*/
FoamFile
{
    version     2.0;
    format      ascii;
    class       volVectorField;
    location    "57";
    object      Urel;
}
// * * * * * * * * * * * * * * * * * * * * * * * * * * * * * * * * * * * * * //

dimensions      [0 1 -1 0 0 0 0];

internalField   nonuniform List<vector> 
132
(
(-0.0177982 2.1223e-05 0.000233464)
(-0.019691 5.63191e-06 0.00017981)
(-0.0176816 9.392e-06 0.000155674)
(-0.019585 2.67277e-06 8.48462e-05)
(-0.0174556 2.93025e-05 6.51294e-05)
(-0.0192403 1.48647e-05 -3.89402e-05)
(-0.0169099 4.8195e-05 3.92414e-05)
(-0.018147 0.000100051 -8.77124e-05)
(-0.0159092 -6.76904e-05 0.00041234)
(-0.0179652 -2.45178e-06 0.000237712)
(-0.0198953 1.01873e-05 0.000200519)
(-0.017876 2.4429e-05 0.000170842)
(-0.0197807 3.2003e-05 0.000114037)
(-0.0177281 2.70676e-06 0.000115072)
(-0.0194617 7.67129e-06 2.58172e-05)
(-0.0173476 -0.00020444 0.000147532)
(-0.0184549 -0.000134394 7.57253e-05)
(-0.0163142 -0.00110085 0.000400723)
(-0.0193219 -4.93326e-05 0.000333409)
(-0.0210382 7.17697e-06 0.000291511)
(-0.0192665 -2.38392e-06 0.000313967)
(-0.0210276 6.26526e-05 0.000261861)
(-0.0190967 -5.95506e-05 0.000335117)
(-0.0208302 4.88293e-05 0.000251413)
(-0.0185306 -0.000333064 0.000491581)
(-0.019926 -0.000144949 0.000356782)
(-0.0167622 -0.00134095 0.00107998)
(-0.0207234 6.00714e-05 0.00043726)
(-0.0221544 0.000117568 0.000410152)
(-0.0206064 0.000163997 0.000431973)
(-0.0220747 0.000187324 0.000370559)
(-0.0202645 0.000153356 0.000469267)
(-0.0217479 9.50287e-05 0.000334687)
(-0.0194234 -7.39769e-05 0.00068323)
(-0.0207023 -0.000282403 0.000505146)
(-0.0171419 -0.000682388 0.00153293)
(-0.0174077 6.17855e-05 5.22101e-05)
(-0.0193371 7.74873e-05 -1.38255e-05)
(-0.0172545 7.56661e-05 -4.36084e-05)
(-0.0190459 7.39937e-05 -0.000146507)
(-0.0167798 8.97454e-05 -0.000195788)
(-0.0180938 1.2425e-05 -0.000338876)
(-0.0158916 0.000220369 -0.00058207)
(-0.0176628 3.74518e-05 0.000141262)
(-0.0195321 6.73359e-05 0.000124286)
(-0.0175514 6.89434e-05 0.000101849)
(-0.0194279 8.51548e-05 6.55999e-05)
(-0.0173705 6.32055e-05 3.95168e-05)
(-0.0191296 2.39782e-05 -1.85572e-05)
(-0.016881 -3.16561e-05 -4.60371e-05)
(-0.0182236 -0.000131471 -0.000141273)
(-0.0158202 -0.000334436 -0.000203672)
(-0.0185539 2.6474e-05 0.000199582)
(-0.0203574 0.000104413 0.000183455)
(-0.0183837 8.91273e-05 0.00017187)
(-0.0201545 0.000138139 0.000129872)
(-0.0181035 6.99946e-05 0.000127326)
(-0.0196941 4.40913e-05 5.89131e-05)
(-0.0174646 -6.94924e-05 9.20915e-05)
(-0.0184763 -0.000121097 -6.18708e-06)
(-0.0160462 -0.00048211 4.13703e-05)
(-0.0198425 6.6567e-05 0.000283691)
(-0.0212878 0.000164856 0.000250888)
(-0.0193945 0.000162659 0.000253263)
(-0.020921 0.000220887 0.000195481)
(-0.0187903 0.000153433 0.000189698)
(-0.0202857 0.000100726 0.000118172)
(-0.0179825 1.4942e-05 0.00018476)
(-0.0188931 -0.000130548 7.80614e-05)
(-0.0162822 -0.00028227 0.000216364)
(-0.0180772 0.000159784 -0.000115499)
(-0.0199199 0.000159139 -0.000165508)
(-0.0177362 0.000233251 -0.000428399)
(-0.0190701 0.000244104 -0.000489628)
(-0.016617 0.000380227 -0.00168785)
(-0.0183336 5.75706e-05 5.63764e-05)
(-0.0201643 7.5496e-05 6.69379e-05)
(-0.0181902 0.000108102 6.06055e-05)
(-0.0200563 0.000138082 4.71692e-05)
(-0.0180262 0.000143308 5.79602e-06)
(-0.0197827 0.000176572 -3.10176e-05)
(-0.0176337 9.41014e-05 -0.000173195)
(-0.0188718 0.000156738 -0.000236178)
(-0.0164959 -0.000500238 -0.000790465)
(-0.0194863 1.03491e-05 9.30808e-05)
(-0.02111 6.52135e-05 0.000104498)
(-0.0193743 8.96425e-05 0.000105973)
(-0.021087 0.000151537 0.000114677)
(-0.0192138 0.000102183 5.62398e-05)
(-0.020963 0.000204834 8.30662e-05)
(-0.0187363 -1.60445e-05 -9.37869e-05)
(-0.0202973 0.00018266 -4.67192e-05)
(-0.0168842 -0.000683752 -0.000743284)
(-0.0207994 6.21484e-05 0.000121999)
(-0.0221024 0.000132034 9.97974e-05)
(-0.0206172 0.000194224 0.000125148)
(-0.0219617 0.000241703 0.000106929)
(-0.0202631 0.000271776 9.67633e-05)
(-0.02167 0.00025557 0.000115826)
(-0.0195253 0.000255725 2.01677e-05)
(-0.0208414 0.000135492 -1.69044e-06)
(-0.0173313 8.38731e-05 -0.000527417)
(-0.0191393 0.000545008 -0.000442475)
(-0.0205849 0.000390669 -0.000511625)
(-0.0171233 0.00104088 -0.00156492)
(-0.0197655 0.000117443 1.80671e-05)
(-0.0212052 0.000143563 5.71159e-05)
(-0.0195713 0.000194654 7.19955e-05)
(-0.0210504 0.000218637 0.000106308)
(-0.0192236 0.000272571 6.22118e-05)
(-0.0206356 0.00027143 0.000110587)
(-0.0184518 0.000323944 -5.92064e-05)
(-0.0195067 0.000244163 -8.56878e-05)
(-0.0165476 0.000318759 -0.00056634)
(-0.0207042 4.16234e-05 9.79678e-05)
(-0.022021 9.08975e-05 0.000139561)
(-0.0205437 0.000129802 0.000196522)
(-0.0218793 0.00017885 0.000234594)
(-0.0201706 0.000189551 0.000279905)
(-0.0214986 0.000217104 0.000278365)
(-0.019327 0.000179184 0.000316254)
(-0.0204436 0.000212305 0.000115948)
(-0.0171703 7.51676e-05 0.000132557)
(-0.0216876 9.19534e-05 0.000153928)
(-0.0228481 0.000150313 0.000184454)
(-0.0215258 0.0002131 0.000243307)
(-0.0226458 0.000246249 0.00026781)
(-0.0211157 0.000303546 0.000347611)
(-0.0221508 0.000261082 0.00032011)
(-0.0202316 0.0003522 0.000483998)
(-0.0208679 0.000206072 0.000227823)
(-0.0182865 0.000599465 0.000659971)
)
;

boundaryField
{
    inlet
    {
        type            calculated;
        value           nonuniform 0();
    }
    outlet
    {
        type            calculated;
        value           nonuniform List<vector> 
16
(
(-0.00338638 -0.00140514 0.0018767)
(-0.00954103 -0.0103708 -0.000791881)
(-0.00572674 -0.00919086 0.00516619)
(-0.00591693 0.000502535 0.00865584)
(-0.0054263 0.00122438 -0.00141254)
(-0.00353709 0.000619334 -5.16567e-05)
(-0.00338911 0.000531515 -0.000366155)
(-0.0027008 -6.11577e-05 -0.000555406)
(-0.00873995 0.000466152 -0.0116654)
(-0.00915452 -0.00777783 -0.00246418)
(-0.00733088 -0.00934607 -0.00860175)
(-0.00760781 0.00181063 -0.0074818)
(-0.00758433 0.00750579 -0.00617461)
(-0.00344082 0.00160127 -0.000521291)
(-0.00592389 -0.000395297 0.00339193)
(-0.0162666 0.0050602 0.00731177)
)
;
    }
    wall
    {
        type            calculated;
        value           nonuniform List<vector> 
66
(
(-7.01053e-08 -1.59627e-07 -2.86501e-07)
(-1.13822e-07 -2.33549e-07 -6.16768e-08)
(-3.01433e-08 -1.00083e-07 -1.36047e-08)
(-1.42508e-07 -7.33164e-08 -2.99144e-07)
(-1.24865e-07 -2.59893e-08 -1.84715e-08)
(-8.32836e-08 -3.9452e-08 -2.22191e-08)
(-2.69532e-07 -1.21847e-07 -1.95553e-07)
(-1.86412e-07 -6.83653e-08 -6.24073e-08)
(-1.34968e-07 -2.47942e-08 -1.04644e-08)
(-3.0111e-07 -4.46304e-08 -1.04038e-07)
(-2.21928e-07 -5.53893e-08 -2.72479e-08)
(-2.07101e-07 -2.92067e-08 -2.1857e-08)
(-3.06207e-07 -7.7526e-08 -2.91138e-08)
(-2.11498e-07 -1.75391e-08 -8.51255e-09)
(-1.85779e-07 1.83587e-08 -2.70691e-08)
(-3.92117e-07 6.09822e-08 9.36856e-08)
(-2.37475e-07 8.93323e-08 2.51862e-08)
(-1.03824e-07 3.55877e-08 5.3573e-09)
(-2.17335e-07 1.10555e-07 2.34007e-07)
(-2.67837e-07 1.72419e-07 7.39434e-08)
(-1.96394e-07 7.07425e-08 5.74279e-08)
(-5.32704e-08 2.77057e-08 1.71484e-08)
(-6.15383e-08 2.38506e-07 2.4853e-07)
(-1.10643e-07 1.13779e-07 6.14131e-08)
(-1.09803e-07 2.88701e-08 -4.77851e-09)
(-1.55782e-08 7.12022e-09 -6.48502e-09)
(1.23768e-08 6.6852e-08 7.41929e-08)
(-7.33557e-10 6.41762e-08 -2.41763e-08)
(-4.46177e-08 2.82917e-08 -1.43573e-08)
(-1.11582e-08 1.27927e-08 -1.25008e-08)
(5.32582e-08 -2.90192e-08 -1.43397e-07)
(-5.59066e-08 -2.35865e-08 -8.0287e-08)
(-4.65203e-08 -1.08332e-07 -4.86278e-08)
(-3.01433e-08 -1.00083e-07 -1.36047e-08)
(-1.89176e-07 2.15529e-09 -1.764e-07)
(-7.77181e-08 -7.23176e-08 -1.22239e-07)
(-7.37064e-08 -9.93846e-08 -7.05241e-08)
(-8.32836e-08 -3.9452e-08 -2.22191e-08)
(-2.32798e-07 1.08526e-07 -1.11569e-07)
(-1.85275e-07 -9.37442e-08 -1.23783e-07)
(-1.44977e-07 -4.23723e-08 -2.28828e-08)
(-1.34968e-07 -2.47942e-08 -1.04644e-08)
(-3.92267e-07 -1.31248e-09 -8.74073e-09)
(-2.51956e-07 -3.1545e-08 1.29027e-08)
(-2.7184e-07 -4.31434e-08 -1.53233e-08)
(-2.07101e-07 -2.92067e-08 -2.1857e-08)
(-6.09875e-07 -3.99549e-07 -2.18714e-07)
(-2.23008e-07 7.07442e-09 2.53993e-08)
(-2.38707e-07 -7.05998e-09 1.22646e-09)
(-1.85779e-07 1.83587e-08 -2.70691e-08)
(-3.02291e-07 -1.47166e-08 2.50371e-08)
(-1.8752e-07 -3.02075e-08 -1.72669e-08)
(-1.34213e-07 8.33048e-08 1.33146e-08)
(-1.03824e-07 3.55877e-08 5.3573e-09)
(-1.15465e-07 -6.30168e-08 2.97307e-08)
(-7.58469e-08 1.60391e-08 8.70808e-09)
(-8.32844e-08 1.5653e-08 3.46329e-08)
(-5.32704e-08 2.77057e-08 1.71484e-08)
(-5.98334e-08 -2.75717e-07 -1.16878e-07)
(-1.32635e-08 -7.93264e-08 -8.29867e-08)
(-1.6174e-08 -8.27208e-09 -2.89091e-08)
(-1.55782e-08 7.12022e-09 -6.48502e-09)
(-9.71053e-08 -2.08919e-07 -1.34583e-07)
(-2.23158e-08 -8.80821e-08 -1.06857e-07)
(-1.72994e-08 -1.26601e-08 -4.93236e-08)
(-1.11582e-08 1.27927e-08 -1.25008e-08)
)
;
    }
    procBoundary7to0
    {
        type            processor;
        value           uniform (-0.0197696 3.51873e-05 0.000283397);
    }
    procBoundary7to1
    {
        type            processor;
        value           uniform (-0.017999 5.34967e-05 0.000214609);
    }
    procBoundary7to3
    {
        type            processor;
        value           nonuniform List<vector> 
36
(
(-0.0188143 6.12331e-05 0.000345671)
(-0.0206929 4.7001e-05 0.000261223)
(-0.0187431 5.92578e-05 0.000245624)
(-0.0206724 6.43212e-05 0.000145753)
(-0.0185965 0.00010127 0.000205673)
(-0.0203701 9.68973e-05 6.27349e-05)
(-0.0180673 0.000164504 0.000382691)
(-0.0192888 7.24504e-05 0.000278951)
(-0.0168578 0.00038323 0.00155428)
(-0.0187307 1.88565e-05 0.000299675)
(-0.02065 3.65676e-05 0.000222568)
(-0.0186867 3.79365e-05 0.000195691)
(-0.0205915 3.71894e-05 0.000106016)
(-0.0185426 1.36499e-05 0.000129057)
(-0.0202712 -5.60541e-05 1.29083e-05)
(-0.0179823 -0.000144625 0.000264537)
(-0.0190936 -0.000291021 0.000278748)
(-0.0167068 -0.000657325 0.00104813)
(-0.0197633 -1.03653e-05 0.000357875)
(-0.0216759 4.04886e-05 0.000303929)
(-0.0197507 5.24629e-05 0.000273855)
(-0.0217277 7.91238e-05 0.000205206)
(-0.0197174 -1.13676e-05 0.000253337)
(-0.0216089 -4.82619e-05 0.00017389)
(-0.0193712 -0.000405326 0.000519572)
(-0.0206731 -0.000462573 0.000519807)
(-0.0177973 -0.00179954 0.00177518)
(-0.021456 4.18336e-05 0.000450569)
(-0.0229458 0.000113729 0.000390143)
(-0.0214283 0.000168609 0.000384461)
(-0.022972 0.000216803 0.000305896)
(-0.0212025 0.000146234 0.000394485)
(-0.022802 0.000100117 0.000304953)
(-0.0205496 -0.000193649 0.000672756)
(-0.0220399 -0.000437283 0.000727129)
(-0.0182745 -0.00123379 0.0020629)
)
;
    }
    procBoundary7to5
    {
        type            processor;
        value           nonuniform List<vector> 
44
(
(-0.0198255 -4.40662e-06 0.000160185)
(-0.0178735 9.162e-06 0.000124538)
(-0.0196979 -1.30828e-05 5.68788e-05)
(-0.0176698 3.48107e-05 3.85545e-05)
(-0.0193299 6.57473e-05 -5.60734e-05)
(-0.017131 0.000167412 1.34031e-05)
(-0.0182845 0.00028386 -4.78856e-05)
(-0.0162871 0.000485428 0.000327229)
(-0.0175141 5.90235e-05 0.000107879)
(-0.0194177 6.77976e-05 8.3763e-05)
(-0.0177718 4.79096e-05 1.50169e-05)
(-0.0197325 2.69757e-05 -4.91617e-05)
(-0.017647 7.47893e-05 -9.91327e-05)
(-0.0194991 8.18242e-05 -0.00019579)
(-0.0172776 0.000235838 -0.000312562)
(-0.0186007 0.000203553 -0.000381656)
(-0.016298 0.000795059 -0.000834325)
(-0.0175141 5.90235e-05 0.000107879)
(-0.0194177 6.77976e-05 8.3763e-05)
(-0.0194177 6.77976e-05 8.3763e-05)
(-0.0181485 0.000118664 -1.02411e-05)
(-0.0200995 0.000120811 -2.56596e-05)
(-0.0184294 0.00013252 -0.00017015)
(-0.0202337 0.000121429 -0.000233719)
(-0.0180958 0.000284265 -0.000492192)
(-0.0193547 0.00033175 -0.000630799)
(-0.0169297 0.00087502 -0.00182415)
(-0.0182684 9.98269e-05 7.32199e-06)
(-0.0201246 9.433e-05 1.2147e-05)
(-0.0181485 0.000118664 -1.02411e-05)
(-0.0200995 0.000120811 -2.56596e-05)
(-0.0200995 0.000120811 -2.56596e-05)
(-0.0196481 0.000346726 -0.000117794)
(-0.0212659 0.000324564 -0.000123535)
(-0.0198617 0.000456563 -0.000707801)
(-0.0213323 0.000401488 -0.000657863)
(-0.0176546 0.00100082 -0.00204887)
(-0.0198625 0.000183305 -5.09045e-05)
(-0.021332 0.000194432 -3.61019e-05)
(-0.0198014 0.00024544 -3.46515e-05)
(-0.0213661 0.000253539 -1.72023e-05)
(-0.0196481 0.000346726 -0.000117794)
(-0.0212659 0.000324564 -0.000123535)
(-0.0212659 0.000324564 -0.000123535)
)
;
    }
    procBoundary7to6
    {
        type            processor;
        value           nonuniform List<vector> 
12
(
(-0.0199426 -4.00371e-05 0.000283727)
(-0.0209875 -9.62433e-05 0.000349167)
(-0.0220967 -2.48095e-05 0.000441632)
(-0.019623 2.92858e-05 0.000168498)
(-0.0204773 -3.38889e-06 0.00022569)
(-0.0214935 4.19643e-07 0.000282325)
(-0.0202611 2.45081e-05 4.94292e-05)
(-0.0211422 -5.74164e-05 6.69194e-05)
(-0.0221449 -2.39803e-05 9.04441e-05)
(-0.0212742 7.85516e-05 -2.67922e-05)
(-0.022046 -1.57128e-05 4.83301e-05)
(-0.0228684 8.79253e-06 0.000106347)
)
;
    }
}


// ************************************************************************* //
