/*--------------------------------*- C++ -*----------------------------------*\
| =========                 |                                                 |
| \\      /  F ield         | OpenFOAM: The Open Source CFD Toolbox           |
|  \\    /   O peration     | Version:  4.x                                   |
|   \\  /    A nd           | Web:      www.OpenFOAM.org                      |
|    \\/     M anipulation  |                                                 |
\*---------------------------------------------------------------------------*/
FoamFile
{
    version     2.0;
    format      ascii;
    class       volScalarField;
    location    "14.5";
    object      Deff;
}
// * * * * * * * * * * * * * * * * * * * * * * * * * * * * * * * * * * * * * //

dimensions      [0 2 -1 0 0 0 0];

internalField   nonuniform List<scalar> 
114
(
9.91378e-08
9.91275e-08
9.92241e-08
9.91063e-08
9.9228e-08
9.91255e-08
9.9329e-08
9.91971e-08
9.92063e-08
9.91922e-08
9.90682e-08
9.91294e-08
9.90018e-08
9.89989e-08
9.90444e-08
9.9424e-08
9.92501e-08
9.92288e-08
9.91981e-08
9.9212e-08
9.92333e-08
9.9274e-08
9.91221e-08
9.90305e-08
9.94805e-08
9.94028e-08
9.93114e-08
9.93059e-08
9.93858e-08
9.93943e-08
9.94295e-08
9.92663e-08
9.92437e-08
9.85583e-08
9.84674e-08
9.86575e-08
9.85097e-08
9.90451e-08
9.88994e-08
9.87773e-08
9.87103e-08
9.86632e-08
9.86484e-08
9.84848e-08
9.85652e-08
9.86387e-08
9.90736e-08
9.88516e-08
9.87445e-08
9.87168e-08
9.87182e-08
9.87204e-08
9.86824e-08
9.86402e-08
9.86361e-08
9.91549e-08
9.90583e-08
9.88932e-08
9.88904e-08
9.88703e-08
9.88917e-08
9.88619e-08
9.8808e-08
9.88222e-08
9.82954e-08
9.8257e-08
9.87371e-08
9.87162e-08
9.85778e-08
9.84661e-08
9.84315e-08
9.83286e-08
9.82166e-08
9.8297e-08
9.83356e-08
9.88591e-08
9.87005e-08
9.85238e-08
9.838e-08
9.84256e-08
9.84115e-08
9.83091e-08
9.83158e-08
9.82485e-08
9.89327e-08
9.87171e-08
9.86432e-08
9.8547e-08
9.86314e-08
9.85162e-08
9.84028e-08
9.8504e-08
9.83268e-08
9.86149e-08
9.83962e-08
9.8257e-08
9.823e-08
9.81889e-08
9.81683e-08
9.81096e-08
9.80856e-08
9.86106e-08
9.84582e-08
9.82918e-08
9.82816e-08
9.82133e-08
9.81747e-08
9.8096e-08
9.87649e-08
9.85616e-08
9.84547e-08
9.8339e-08
9.83565e-08
9.82758e-08
)
;

boundaryField
{
    inlet
    {
        type            calculated;
        value           uniform 0;
    }
    outlet
    {
        type            calculated;
        value           nonuniform 0();
    }
    wall
    {
        type            calculated;
        value           uniform 0;
    }
    procBoundary2to0
    {
        type            processor;
        value           uniform 0;
    }
    procBoundary2to3
    {
        type            processor;
        value           uniform 0;
    }
    procBoundary2to6
    {
        type            processor;
        value           uniform 0;
    }
}


// ************************************************************************* //
