/*--------------------------------*- C++ -*----------------------------------*\
| =========                 |                                                 |
| \\      /  F ield         | OpenFOAM: The Open Source CFD Toolbox           |
|  \\    /   O peration     | Version:  4.x                                   |
|   \\  /    A nd           | Web:      www.OpenFOAM.org                      |
|    \\/     M anipulation  |                                                 |
\*---------------------------------------------------------------------------*/
FoamFile
{
    version     2.0;
    format      ascii;
    class       volScalarField;
    location    "14.5";
    object      pSmooth;
}
// * * * * * * * * * * * * * * * * * * * * * * * * * * * * * * * * * * * * * //

dimensions      [1 -1 -2 0 0 0 0];

internalField   nonuniform List<scalar> 
114
(
108.074
122.964
91.1507
111.425
81.3472
100.583
138.692
124.156
131.698
108.554
124.108
89.7094
111.173
80.5006
100.442
138.476
124.139
131.548
109.384
126.21
86.8713
110.429
79.4072
99.6298
138.448
124.257
131.749
109.206
124.725
88.3492
110.301
79.0988
99.0037
91.333
112.319
80.831
101.511
139.373
124.569
132.212
108.547
123.841
90.5366
112.32
80.4855
101.362
139.316
124.574
132.293
108.806
124.712
89.2645
111.616
80.2407
100.432
139.056
124.551
132.171
108.807
123.976
89.7273
111.141
79.4119
99.4119
80.1596
100.424
140.406
125.195
132.972
109.152
124.067
90.8525
112.41
79.6668
101.2
140.164
125.109
132.813
109.043
124.365
90.3161
112.577
79.205
100.81
139.853
124.947
132.555
108.929
123.818
90.4127
111.733
78.846
99.7106
140.735
125.461
132.969
109.081
123.529
90.0115
111.918
78.166
140.699
125.484
133.137
109.226
123.88
90.3939
112.009
140.22
125.225
132.771
109.1
123.47
90.3976
)
;

boundaryField
{
    inlet
    {
        type            zeroGradient;
    }
    outlet
    {
        type            fixedValue;
        value           nonuniform 0();
    }
    wall
    {
        type            zeroGradient;
    }
    procBoundary2to0
    {
        type            processor;
        value           nonuniform List<scalar> 
44
(
107.89
122.541
92.1549
111.759
82.8786
101.202
138.23
123.75
131.152
131.152
108.289
123.307
91.9882
112.614
81.6705
102.57
139.132
124.193
131.847
108.289
123.307
123.307
91.4325
113.161
80.8178
100.995
140.201
124.976
132.743
108.879
123.871
91.4325
113.161
113.161
78.7082
100.438
140.69
125.451
133.078
109.149
123.786
91.4244
112.163
78.7082
)
;
    }
    procBoundary2to3
    {
        type            processor;
        value           nonuniform List<scalar> 
12
(
67.3379
66.8426
64.7755
63.6946
66.7995
66.2109
64.4336
63.3519
65.649
64.8768
63.6478
62.9382
)
;
    }
    procBoundary2to6
    {
        type            processor;
        value           nonuniform List<scalar> 
32
(
99.9945
78.1985
99.6287
111.468
77.9333
99.1819
142.039
126.486
134.116
110.839
124.873
92.4592
111.261
99.9945
78.1985
77.2728
141.494
126.128
133.719
109.871
124.073
90.7327
78.1985
111.468
112.323
141.126
126.004
133.541
109.886
124.067
111.468
90.6441
)
;
    }
}


// ************************************************************************* //
