/*--------------------------------*- C++ -*----------------------------------*\
| =========                 |                                                 |
| \\      /  F ield         | OpenFOAM: The Open Source CFD Toolbox           |
|  \\    /   O peration     | Version:  4.x                                   |
|   \\  /    A nd           | Web:      www.OpenFOAM.org                      |
|    \\/     M anipulation  |                                                 |
\*---------------------------------------------------------------------------*/
FoamFile
{
    version     2.0;
    format      ascii;
    class       volScalarField;
    location    "14.5";
    object      QPartFluidCoeff;
}
// * * * * * * * * * * * * * * * * * * * * * * * * * * * * * * * * * * * * * //

dimensions      [1 -1 -3 -1 0 0 0];

internalField   nonuniform List<scalar> 
114
(
-2.39304e+07
-1.9306e+07
-1.07357e+07
-1.99612e+07
-9.40004e+06
-1.00839e+07
-1.93058e+07
-2.30218e+07
-2.01457e+07
-1.46369e+07
-2.65477e+07
-1.81879e+07
-2.477e+07
-2.27521e+07
-1.49926e+07
-1.28422e+07
-2.02206e+07
-1.63831e+07
-1.71896e+07
-2.18511e+07
-1.98858e+07
-1.14115e+07
-1.90982e+07
-2.13965e+07
-1.32017e+07
-1.31821e+07
-1.66931e+07
-1.46434e+07
-1.43807e+07
-1.52194e+07
-1.01528e+07
-1.60822e+07
-1.28433e+07
-3.45094e+07
-4.08896e+07
-2.20771e+07
-3.7381e+07
-1.57055e+07
-2.65206e+07
-3.17189e+07
-3.0818e+07
-3.19612e+07
-2.61137e+07
-3.78088e+07
-2.94588e+07
-2.1275e+07
-1.94225e+07
-3.31585e+07
-3.47955e+07
-3.07829e+07
-3.38651e+07
-3.26109e+07
-3.03535e+07
-2.93918e+07
-2.52447e+07
-1.67795e+07
-1.77586e+07
-2.72152e+07
-1.98498e+07
-2.65761e+07
-2.39087e+07
-2.23529e+07
-2.31903e+07
-1.56265e+07
-2.56008e+07
-2.95878e+07
-2.28169e+07
-1.92231e+07
-2.24644e+07
-2.31521e+07
-2.35105e+07
-2.77383e+07
-3.34442e+07
-2.44991e+07
-1.90098e+07
-1.65585e+07
-2.32083e+07
-2.99943e+07
-3.54207e+07
-3.19587e+07
-2.54805e+07
-3.15786e+07
-2.81857e+07
-3.35334e+07
-1.65996e+07
-2.52701e+07
-2.29855e+07
-2.50978e+07
-1.63877e+07
-2.38546e+07
-3.1854e+07
-1.77031e+07
-3.20921e+07
-1.62548e+07
-3.18359e+07
-3.43888e+07
-2.5014e+07
-2.82836e+07
-2.22166e+07
-2.56912e+07
-2.7068e+07
-1.95007e+07
-2.64312e+07
-3.48498e+07
-2.23537e+07
-3.09573e+07
-2.67304e+07
-3.43903e+07
-1.41107e+07
-2.1016e+07
-2.47843e+07
-2.42453e+07
-2.27493e+07
-2.20462e+07
)
;

boundaryField
{
    inlet
    {
        type            calculated;
        value           uniform 0;
    }
    outlet
    {
        type            calculated;
        value           nonuniform 0();
    }
    wall
    {
        type            calculated;
        value           uniform 0;
    }
    procBoundary2to0
    {
        type            processor;
        value           nonuniform List<scalar> 
44
(
388.901
430.82
383.206
304.866
396.845
643.901
223.736
342.497
263.536
263.536
425.008
887.547
600.335
797.246
525.414
471.184
599.86
534.428
586.071
425.008
887.547
887.547
631.594
655.068
462.933
399.327
520.276
659.018
721.547
692.93
770.094
631.594
655.068
655.068
438.732
198.088
364.611
513.933
732.182
806.044
423.157
780.755
651.948
438.732
)
;
    }
    procBoundary2to3
    {
        type            processor;
        value           nonuniform List<scalar> 
12
(
645.409
489.009
503.305
325.242
639.648
584.177
957.254
632.545
607.249
718.804
500.066
455.932
)
;
    }
    procBoundary2to6
    {
        type            processor;
        value           nonuniform List<scalar> 
32
(
615.908
509.349
665.133
423.539
463.994
415.516
749.306
678.935
457.417
616.717
843.767
461.415
648.878
615.908
509.349
501.744
473.617
699.49
614.238
783.419
674.552
681.895
509.349
423.539
659.381
350.681
573.28
446.356
464.939
657.06
423.539
719.916
)
;
    }
}


// ************************************************************************* //
