/*--------------------------------*- C++ -*----------------------------------*\
| =========                 |                                                 |
| \\      /  F ield         | OpenFOAM: The Open Source CFD Toolbox           |
|  \\    /   O peration     | Version:  4.x                                   |
|   \\  /    A nd           | Web:      www.OpenFOAM.org                      |
|    \\/     M anipulation  |                                                 |
\*---------------------------------------------------------------------------*/
FoamFile
{
    version     2.0;
    format      ascii;
    class       surfaceScalarField;
    location    "46";
    object      phi;
}
// * * * * * * * * * * * * * * * * * * * * * * * * * * * * * * * * * * * * * //

dimensions      [0 3 -1 0 0 0 0];

internalField   nonuniform List<scalar> 
249
(
8.36437e-06
-4.8864e-07
-7.31551e-08
8.4189e-06
-2.28175e-07
-5.72362e-08
8.62443e-06
-5.05828e-07
-6.48693e-08
8.68713e-06
-1.85296e-07
-1.1123e-07
8.86209e-06
-3.74929e-07
-5.66548e-08
8.8891e-06
-1.2218e-07
-1.05658e-07
9.00078e-06
-2.75848e-07
-3.90391e-08
9.01848e-06
-1.17823e-07
-1.04176e-07
-2.03557e-07
6.19344e-08
7.8006e-06
-4.90213e-07
-1.43511e-08
7.63985e-06
-2.44908e-07
-2.0004e-08
7.25232e-06
-5.20022e-07
4.43603e-08
7.12586e-06
-1.77908e-07
-3.91937e-08
6.89687e-06
-4.08781e-07
4.23793e-08
6.84079e-06
-1.29071e-07
-4.25028e-08
6.64303e-06
-2.76693e-07
6.27088e-08
6.57346e-06
-9.62574e-08
-3.9666e-08
-7.97629e-08
1.23629e-07
7.57153e-06
-2.88224e-07
2.22316e-08
7.27358e-06
-1.26089e-07
3.79913e-09
6.67924e-06
-2.99774e-07
9.34616e-08
6.51494e-06
-1.08194e-07
1.80894e-08
6.12678e-06
-2.57804e-07
1.09291e-07
6.03643e-06
-7.34187e-08
2.55668e-08
5.65421e-06
-8.57569e-08
6.42618e-08
5.56688e-06
-2.23077e-08
2.52581e-08
3.48447e-08
2.25933e-08
7.57947e-06
-5.09856e-08
7.2289e-06
1.29072e-08
6.54017e-06
6.1018e-08
6.31856e-06
-4.11623e-09
5.74677e-06
9.28952e-08
5.57828e-06
2.7839e-08
5.22093e-06
9.50567e-08
5.11135e-06
2.65615e-08
3.65635e-08
8.37818e-06
-4.11453e-07
1.2338e-07
8.44742e-06
-2.03071e-07
7.65993e-08
8.61639e-06
-4.04703e-07
1.70866e-07
8.63499e-06
-1.4573e-07
1.58953e-08
8.7967e-06
-3.15576e-07
9.72101e-08
8.81333e-06
-1.06873e-07
-1.5414e-08
8.84083e-06
-2.02142e-07
1.35604e-07
8.73628e-06
-4.37272e-08
4.41023e-08
-1.11285e-07
2.06702e-07
8.02603e-06
-4.55724e-07
1.67153e-07
7.94389e-06
-2.2267e-07
8.17382e-08
7.79224e-06
-4.55506e-07
2.46812e-07
7.69997e-06
-1.54524e-07
6.18749e-08
7.55474e-06
-3.2115e-07
1.93182e-07
7.45663e-06
-8.99462e-08
3.86804e-08
7.25561e-06
-1.53755e-07
2.15343e-07
7.15683e-06
-4.05127e-08
5.58944e-08
-7.48941e-08
2.16252e-07
7.75923e-06
-2.38937e-07
2.09477e-07
7.49945e-06
-7.32722e-08
1.14185e-07
7.01495e-06
-1.76424e-07
2.98882e-07
6.83342e-06
-5.38789e-08
9.89664e-08
6.45986e-06
-1.0431e-07
2.6602e-07
6.35893e-06
-3.45103e-08
7.10523e-08
6.04185e-06
-2.67411e-08
2.5433e-07
5.96272e-06
-1.38166e-08
7.76898e-08
4.53641e-10
2.10795e-07
7.62793e-06
1.67818e-07
7.38387e-06
1.23083e-07
6.84661e-06
2.81034e-07
6.65474e-06
9.68444e-08
6.26478e-06
2.82303e-07
6.16349e-06
1.01293e-07
5.91594e-06
2.803e-07
5.88285e-06
6.27345e-08
1.17714e-07
8.6728e-06
-3.86157e-07
8.96021e-06
-2.10805e-07
9.49374e-06
-3.62667e-07
9.64848e-06
-1.38841e-07
9.97634e-06
-2.30652e-07
1.0052e-05
-9.10757e-08
1.03515e-05
-1.6387e-07
1.0498e-05
-1.02427e-07
-1.74186e-07
8.37353e-06
-4.29269e-07
8.46598e-06
-2.21521e-07
8.77028e-06
-4.2015e-07
8.86568e-06
-1.72369e-07
9.09288e-06
-2.64665e-07
9.14633e-06
-1.05844e-07
9.35508e-06
-1.57282e-07
9.42778e-06
-1.19229e-07
-1.61011e-07
8.14943e-06
-2.05956e-07
8.13434e-06
-9.22462e-08
8.23064e-06
-2.17573e-07
8.26204e-06
-1.04799e-07
8.41573e-06
-1.52334e-07
8.46077e-06
-7.98364e-08
8.65619e-06
-9.83681e-08
8.70442e-06
-8.97636e-08
-1.15447e-07
8.02475e-06
8.02521e-06
8.03697e-06
8.0361e-06
8.17842e-06
8.26167e-06
8.53627e-06
8.6068e-06
)
;

boundaryField
{
    inlet
    {
        type            calculated;
        value           nonuniform List<scalar> 
12
(
-8.16327e-06
-8.16327e-06
-8.16327e-06
-8.16327e-06
-8.16327e-06
-8.16327e-06
-8.16327e-06
-8.16327e-06
-8.16327e-06
-8.16327e-06
-8.16327e-06
-8.16327e-06
)
;
    }
    outlet
    {
        type            calculated;
        value           nonuniform 0();
    }
    wall
    {
        type            calculated;
        value           nonuniform List<scalar> 
63
(
0
0
0
0
0
0
0
0
0
0
0
0
0
0
0
0
0
0
0
0
-7.70372e-34
0
0
0
0
0
0
0
0
0
0
0
0
0
0
0
0
0
0
0
0
0
0
0
0
0
0
0
0
0
0
0
0
0
0
0
0
0
0
0
0
0
0
)
;
    }
    procBoundary4to0
    {
        type            processor;
        value           nonuniform List<scalar> 
36
(
3.60686e-07
2.30891e-07
3.65163e-07
2.33829e-07
2.56625e-07
2.00823e-07
2.03208e-07
2.04296e-07
7.49807e-08
3.78592e-07
1.97486e-07
3.57362e-07
1.58263e-07
2.20466e-07
1.05476e-07
1.359e-07
8.76616e-08
7.781e-08
3.67516e-07
1.75331e-07
2.80632e-07
7.64982e-08
1.27888e-07
9.13207e-09
1.27019e-07
-1.18729e-08
5.34258e-08
3.98889e-07
2.02739e-07
3.62967e-07
1.44477e-07
2.80885e-07
8.83551e-08
1.97631e-07
6.24392e-08
2.61359e-08
)
;
    }
    procBoundary4to5
    {
        type            processor;
        value           nonuniform List<scalar> 
12
(
9.08512e-06
6.24823e-06
5.37625e-06
5.16349e-06
8.7028e-06
7.02782e-06
5.69917e-06
5.79565e-06
1.08789e-05
9.63085e-06
8.86965e-06
8.72652e-06
)
;
    }
    procBoundary4to6
    {
        type            processor;
        value           nonuniform List<scalar> 
27
(
-5.23297e-08
8.82926e-09
-3.50298e-08
-2.69361e-08
-5.97976e-08
-2.11276e-08
-2.10861e-08
-1.73059e-09
-7.99995e-08
7.75986e-08
6.06119e-08
1.40816e-07
3.7026e-08
9.62497e-08
-6.67865e-09
3.55655e-08
-1.68966e-08
6.50417e-09
1.00374e-07
3.03775e-08
5.1707e-08
-7.08942e-09
-1.23507e-08
-6.17905e-08
-9.26653e-08
-9.75583e-08
-1.17456e-07
)
;
    }
}


// ************************************************************************* //
