/*--------------------------------*- C++ -*----------------------------------*\
| =========                 |                                                 |
| \\      /  F ield         | OpenFOAM: The Open Source CFD Toolbox           |
|  \\    /   O peration     | Version:  4.x                                   |
|   \\  /    A nd           | Web:      www.OpenFOAM.org                      |
|    \\/     M anipulation  |                                                 |
\*---------------------------------------------------------------------------*/
FoamFile
{
    version     2.0;
    format      ascii;
    class       volScalarField;
    location    "44";
    object      KslNext;
}
// * * * * * * * * * * * * * * * * * * * * * * * * * * * * * * * * * * * * * //

dimensions      [1 -3 -1 0 0 0 0];

internalField   nonuniform List<scalar> 
132
(
194592
3735.97
204314
3706.36
7.00634e+08
3772.37
9.74574e+09
4209
25261.8
6.4346e+09
3808.9
1e+10
3847.92
132594
3957.13
21038.1
4231.09
7040.64
12826.3
3376.9
12867.9
3202.61
12227.5
3022.42
11070.2
2706.74
8436.93
6599.2
3035.19
6751.93
2915.81
7233.42
2801.21
8312.32
2563.01
9203.61
1e+10
3808.09
1e+10
3810.44
1e+10
4104.76
15141.6
1e+10
3931.22
1e+10
3838.19
1e+10
3738.97
1e+10
3683.29
28736.2
1e+10
3850
1e+10
3935.7
1e+10
4263.08
1e+10
5185.99
24511.3
10309.8
3452.7
15215.9
3577.73
34495.8
3876.52
114373
4621.06
23955.4
47867.9
3440.57
21913.8
3531.82
6952.33
310105
3726.17
1e+10
3718.2
1.29732e+06
3771.43
38077.4
3967.1
7789.36
15899
3442.85
16990.3
3235.74
15525.6
2915.92
12345.8
2425.23
7580.38
6423.3
3058.47
6601.57
2984.5
7118.18
2819.55
8408.25
2411.85
10001.5
8716.24
2473.38
8877.2
8637.23
3262.41
9320.17
3215.56
10076.6
3127.94
11574
2969.08
16904.8
6672
3083.44
6959.56
3057.07
7718.14
2928.4
9090.31
2755.91
14675.6
5127.95
2885.61
5282.65
2913.62
5674.64
2911.38
5937.52
3118.88
5618.47
)
;

boundaryField
{
    inlet
    {
        type            zeroGradient;
    }
    outlet
    {
        type            zeroGradient;
    }
    wall
    {
        type            zeroGradient;
    }
    procBoundary7to0
    {
        type            processor;
        value           uniform 0;
    }
    procBoundary7to1
    {
        type            processor;
        value           uniform 0;
    }
    procBoundary7to3
    {
        type            processor;
        value           uniform 0;
    }
    procBoundary7to5
    {
        type            processor;
        value           uniform 0;
    }
    procBoundary7to6
    {
        type            processor;
        value           uniform 0;
    }
}


// ************************************************************************* //
