/*--------------------------------*- C++ -*----------------------------------*\
| =========                 |                                                 |
| \\      /  F ield         | OpenFOAM: The Open Source CFD Toolbox           |
|  \\    /   O peration     | Version:  4.x                                   |
|   \\  /    A nd           | Web:      www.OpenFOAM.org                      |
|    \\/     M anipulation  |                                                 |
\*---------------------------------------------------------------------------*/
FoamFile
{
    version     2.0;
    format      ascii;
    class       volScalarField;
    location    "44";
    object      magGField;
}
// * * * * * * * * * * * * * * * * * * * * * * * * * * * * * * * * * * * * * //

dimensions      [1 -2 -1 0 0 0 0];

internalField   nonuniform List<scalar> 
132
(
1.66872
87.9187
1.58761
88.0066
0.000469283
85.1449
4.00902e-05
73.5194
11.8006
6.13441e-05
86.5614
4.52551e-05
84.8449
2.41886
81.5742
14.9209
73.5403
42.5362
25.7752
98.5573
25.4771
102.927
26.5636
108.197
28.718
116.314
35.622
49.8024
108.359
48.0922
111.766
44.7436
115.597
37.9255
122.634
32.887
4.3082e-05
84.0854
3.81842e-05
82.8315
3.36272e-05
74.3471
19.5027
3.98991e-05
82.3403
4.14777e-05
83.429
3.89922e-05
84.4099
3.56022e-05
82.8692
10.2787
3.96982e-05
84.5818
3.76717e-05
81.7677
3.64027e-05
74.3815
3.34554e-05
58.8964
11.9997
31.2181
93.0933
20.9184
88.9772
9.09456
80.9039
2.67493
65.3856
12.2899
6.55432
91.6113
14.0727
86.9217
42.496
1.03231
86.5661
4.09863e-05
85.8785
0.241418
83.556
8.07419
76.9714
37.7754
20.2826
94.0336
18.7476
99.2555
20.3197
108.529
24.9428
126.399
38.6991
49.8945
104.518
47.7912
106.441
44.0526
111.611
36.2759
125.125
29.1769
35.2781
124.151
33.1235
36.803
97.8446
33.6217
98.305
30.9404
100.066
26.3744
102.186
17.307
47.7259
103.166
45.2944
104.224
40.4483
106.026
33.4352
109.832
19.8256
61.7754
109.543
59.5083
109.033
55.0046
105.795
50.723
95.9148
52.0337
)
;

boundaryField
{
    inlet
    {
        type            calculated;
        value           nonuniform 0();
    }
    outlet
    {
        type            calculated;
        value           nonuniform List<scalar> 
16
(
26.1651
94.2558
78.7876
71.5898
43.368
22.7924
26.6643
26.943
94.2166
84.0575
86.0159
64.2332
73.2257
38.1888
43.8423
113.259
)
;
    }
    wall
    {
        type            calculated;
        value           uniform 0;
    }
    procBoundary7to0
    {
        type            processor;
        value           uniform 88.1327;
    }
    procBoundary7to1
    {
        type            processor;
        value           uniform 3.75159e-05;
    }
    procBoundary7to3
    {
        type            processor;
        value           nonuniform List<scalar> 
36
(
10.9109
93.0564
8.38006
93.6194
9.1735
92.4219
13.6711
85.1391
36.4515
4.12602e-05
85.2812
4.40978e-05
84.6706
4.04375e-05
82.6593
3.73264e-05
71.3203
10.4181
5.83639
92.5099
2.02737
94.8975
6.15817
96.8513
20.2946
94.3209
53.707
45.4169
106.188
42.4357
107.864
36.9057
112.207
31.6458
129.714
28.4934
)
;
    }
    procBoundary7to5
    {
        type            processor;
        value           nonuniform List<scalar> 
44
(
79.5104
4.37798e-05
78.0869
4.2507e-05
75.2713
3.9992e-05
64.6507
20.0407
4.0135e-05
84.0541
4.42094e-05
88.2768
2.62947
90.2475
10.1992
86.042
24.3229
4.0135e-05
84.0541
84.0541
3.74991
90.5718
3.83508e-05
82.4885
8.54133
75.36
41.7177
6.26169
89.0803
3.74991
90.5718
90.5718
37.1934
110.26
41.4131
134.867
40.2184
42.3694
102.183
40.5324
104.954
37.1934
110.26
110.26
)
;
    }
    procBoundary7to6
    {
        type            processor;
        value           nonuniform List<scalar> 
12
(
87.6465
95.4593
105.529
81.5627
86.0826
95.3298
86.5258
91.6979
102.895
97.2162
101.34
109.048
)
;
    }
}


// ************************************************************************* //
