/*--------------------------------*- C++ -*----------------------------------*\
| =========                 |                                                 |
| \\      /  F ield         | OpenFOAM: The Open Source CFD Toolbox           |
|  \\    /   O peration     | Version:  4.x                                   |
|   \\  /    A nd           | Web:      www.OpenFOAM.org                      |
|    \\/     M anipulation  |                                                 |
\*---------------------------------------------------------------------------*/
FoamFile
{
    version     2.0;
    format      ascii;
    class       volVectorField;
    location    "58.5";
    object      DDtUrel;
}
// * * * * * * * * * * * * * * * * * * * * * * * * * * * * * * * * * * * * * //

dimensions      [0 1 -2 0 0 0 0];

internalField   nonuniform List<vector> 
108
(
(0.00171611 -8.72802e-05 -7.10261e-05)
(0.00103165 -4.22117e-05 -3.90667e-05)
(0.000624501 -1.12151e-05 -1.9961e-05)
(0.000394854 7.86201e-06 -2.1043e-06)
(0.000251673 1.52724e-05 4.1464e-06)
(0.000175772 1.87985e-05 8.86853e-06)
(0.000115568 1.70962e-05 1.15208e-05)
(9.36678e-05 1.70843e-05 2.02809e-05)
(5.05038e-05 1.51213e-05 2.31491e-05)
(0.00166586 -0.000102159 -6.67326e-05)
(0.000973561 -4.37703e-05 -3.54965e-05)
(0.00057153 -1.09139e-05 -1.74823e-05)
(0.000348852 8.54965e-06 -1.66571e-06)
(0.000214096 1.32168e-05 4.08822e-06)
(0.000143827 1.81483e-05 8.46073e-06)
(9.07129e-05 1.47474e-05 9.92323e-06)
(7.04819e-05 1.70488e-05 1.4035e-05)
(3.64025e-05 1.21156e-05 1.40212e-05)
(0.00162159 -6.95582e-05 -6.35169e-05)
(0.000921503 -3.05172e-05 -3.20175e-05)
(0.00052834 -8.79908e-06 -1.42511e-05)
(0.000310728 3.91226e-06 -6.1784e-07)
(0.000185563 7.46209e-06 4.25626e-06)
(0.000118138 1.20522e-05 5.30533e-06)
(7.26596e-05 9.19382e-06 7.61776e-06)
(4.94362e-05 1.02921e-05 8.59646e-06)
(2.64701e-05 6.18239e-06 7.43707e-06)
(0.00160737 -2.28718e-05 -6.61136e-05)
(0.000903786 -8.06989e-06 -3.25048e-05)
(0.000512536 -3.98489e-06 -1.52655e-05)
(0.000296082 -2.08126e-07 -1.57388e-06)
(0.000173834 7.84529e-07 4.41682e-06)
(0.000105774 3.64311e-06 6.97801e-06)
(6.49625e-05 4.30563e-07 6.90709e-06)
(3.88616e-05 -1.65552e-06 7.85658e-06)
(2.13366e-05 -1.59198e-06 4.57494e-06)
(0.00173687 -8.15603e-05 -1.34976e-05)
(0.00105059 -3.84291e-05 -1.26473e-05)
(0.000639071 -9.55221e-06 -1.34643e-05)
(0.000404054 7.1235e-06 -8.50774e-06)
(0.00025751 1.35175e-05 -1.40446e-06)
(0.000178045 1.7104e-05 5.99121e-06)
(0.000119428 1.60746e-05 9.9272e-06)
(9.66639e-05 1.45948e-05 1.39032e-05)
(6.17963e-05 1.21823e-05 1.25895e-05)
(0.00169395 -9.69049e-05 -6.92404e-06)
(0.0010002 -4.15559e-05 -8.03279e-06)
(0.000592897 -9.05118e-06 -9.59485e-06)
(0.000365059 8.59544e-06 -6.83756e-06)
(0.000224918 1.31741e-05 -1.3364e-06)
(0.000151024 1.77856e-05 3.9724e-06)
(9.7603e-05 1.31176e-05 6.85584e-06)
(7.86567e-05 1.18212e-05 8.25917e-06)
(4.84651e-05 6.13882e-06 7.65646e-06)
(0.00165054 -6.68152e-05 -4.33507e-07)
(0.00094928 -2.81697e-05 -4.93213e-06)
(0.000548564 -8.11111e-06 -6.46911e-06)
(0.000326086 5.53751e-06 -4.75702e-06)
(0.000196006 7.98068e-06 -8.24745e-07)
(0.000127714 1.15153e-05 1.35152e-06)
(8.03084e-05 6.65249e-06 2.86201e-06)
(5.99163e-05 4.53084e-06 9.20362e-07)
(3.42434e-05 5.36665e-07 1.87032e-06)
(0.00163607 -1.64653e-05 5.68661e-07)
(0.000931777 -5.81543e-06 -3.28535e-06)
(0.000532362 -4.21589e-06 -6.431e-06)
(0.000313254 -1.78535e-06 -3.42126e-06)
(0.000184582 -1.80957e-06 -6.0882e-07)
(0.000118266 -1.2807e-06 -2.4754e-07)
(7.18423e-05 -2.70266e-06 -6.24229e-07)
(5.16572e-05 -4.53145e-06 -4.26642e-06)
(2.61837e-05 -5.60322e-06 -2.22689e-06)
(0.00177537 -7.91373e-05 1.73803e-05)
(0.00109362 -3.62985e-05 5.30141e-06)
(0.000681396 -6.77518e-06 -5.32978e-06)
(0.000443394 9.75344e-06 -6.79648e-06)
(0.000290985 1.4549e-05 -1.55955e-06)
(0.000207547 1.55238e-05 8.45016e-06)
(0.000150823 1.13006e-05 1.47992e-05)
(0.000136668 7.47193e-06 1.54992e-05)
(0.000106138 6.48844e-06 1.32072e-05)
(0.00173606 -9.32679e-05 2.03313e-05)
(0.00104423 -3.92321e-05 7.71039e-06)
(0.000635867 -6.96841e-06 -2.32543e-06)
(0.000406937 1.09558e-05 -4.07922e-06)
(0.000261532 1.33903e-05 -8.15693e-07)
(0.000185044 1.47097e-05 5.55976e-06)
(0.000129569 7.86684e-06 7.66625e-06)
(0.000115051 4.22167e-06 6.12485e-06)
(8.28235e-05 -2.43105e-06 5.11202e-06)
(0.00169553 -6.51037e-05 2.56377e-05)
(0.000998317 -2.82692e-05 1.09118e-05)
(0.00059212 -8.11506e-06 -4.09862e-07)
(0.000367442 6.52453e-06 -2.65932e-06)
(0.000230144 8.88417e-06 -2.05054e-06)
(0.000160659 1.01535e-05 3.94476e-07)
(0.000108281 3.06262e-06 1.41104e-06)
(8.93533e-05 -1.48206e-06 -9.91139e-07)
(5.74598e-05 -7.67569e-06 -7.58589e-07)
(0.00168112 -1.57762e-05 2.48046e-05)
(0.000981213 -9.52391e-06 9.16005e-06)
(0.000574843 -6.3152e-06 -1.17157e-06)
(0.000353753 -3.41773e-06 -3.03054e-06)
(0.000217339 -3.80367e-06 -2.21416e-06)
(0.000149163 -4.25526e-06 -1.63924e-06)
(9.67336e-05 -6.01621e-06 -4.73568e-06)
(7.78363e-05 -8.87695e-06 -8.33348e-06)
(4.37921e-05 -1.31452e-05 -6.39789e-06)
)
;

boundaryField
{
    inlet
    {
        type            calculated;
        value           nonuniform List<vector> 
12
(
(0.00403088 -0.000215743 -0.000175519)
(0.0038086 -0.000462935 -0.000140654)
(0.00371697 -0.000264085 -0.000123091)
(0.00372948 -0.000146162 -0.000183184)
(0.00403711 -0.000164215 4.52104e-05)
(0.0039003 -0.000410378 9.65961e-05)
(0.00378443 -0.000250983 0.000144222)
(0.00378906 -5.33346e-05 0.000128657)
(0.00422277 -0.000167245 0.000142035)
(0.00411045 -0.000386746 0.000137449)
(0.0040125 -0.000243995 0.000171946)
(0.0039981 -4.49347e-05 0.000148188)
)
;
    }
    outlet
    {
        type            calculated;
        value           nonuniform 0();
    }
    wall
    {
        type            calculated;
        value           nonuniform List<vector> 
63
(
(0.00422277 -0.000167245 0.000142035)
(0.00411045 -0.000386746 0.000137449)
(0.0040125 -0.000243995 0.000171946)
(0.0039981 -4.49347e-05 0.000148188)
(0.000503512 2.23585e-05 4.81748e-05)
(0.000249672 -4.14742e-06 4.50639e-05)
(0.000117659 1.60361e-06 6.34878e-05)
(8.93596e-05 -1.80445e-05 4.05927e-05)
(0.000385975 4.44557e-05 -1.93693e-05)
(0.000180494 4.87758e-05 -3.63397e-06)
(5.61941e-05 6.78578e-07 -3.10127e-06)
(1.78513e-05 -2.29538e-05 -3.58547e-06)
(0.000398038 5.21086e-05 -3.16453e-05)
(0.000273901 8.55878e-05 -7.97126e-06)
(0.000132107 6.6172e-05 -6.98674e-08)
(0.000152135 -6.45161e-06 -2.49579e-06)
(0.000260353 3.35638e-05 -1.98249e-05)
(0.000156489 2.7871e-05 -3.32412e-06)
(5.8229e-05 4.02198e-05 -1.51138e-05)
(6.4395e-05 -1.95513e-05 1.02899e-06)
(0.000280358 2.99708e-05 3.66392e-05)
(0.000226997 4.31738e-05 3.11165e-05)
(0.000166716 6.32085e-05 -7.60684e-06)
(0.000196553 -1.3778e-05 1.10448e-05)
(0.000174129 5.8929e-06 6.98075e-05)
(9.48026e-05 -1.43932e-05 1.9209e-05)
(5.56792e-05 -3.15279e-06 7.6394e-06)
(8.43868e-05 -8.74308e-06 -3.24788e-05)
(0.000378351 -1.36139e-05 5.87491e-05)
(0.000296347 -1.80893e-06 -9.09125e-06)
(0.000178005 -9.40167e-06 -1.47337e-05)
(0.000242433 -1.83946e-05 -5.68847e-05)
(0.000173244 3.96831e-06 4.57867e-05)
(7.19409e-05 -7.75005e-05 -2.47952e-06)
(-2.39417e-06 -6.00429e-05 8.19241e-06)
(3.16198e-05 -6.73567e-05 4.8801e-06)
(0.00403088 -0.000215743 -0.000175519)
(0.00403711 -0.000164215 4.52104e-05)
(0.00422277 -0.000167245 0.000142035)
(0.000226423 -7.61863e-06 -1.12792e-06)
(0.000240903 2.23445e-05 4.50838e-06)
(0.000503512 2.23585e-05 4.81748e-05)
(0.000124035 1.89329e-05 -1.85104e-05)
(0.000124503 2.50999e-05 -4.9068e-05)
(0.000385975 4.44557e-05 -1.93693e-05)
(0.000179058 4.70173e-05 4.91782e-05)
(0.000144235 2.5634e-05 -4.54859e-05)
(0.000398038 5.21086e-05 -3.16453e-05)
(8.11131e-05 4.15537e-05 1.57003e-05)
(5.52648e-05 1.50601e-05 -1.9137e-05)
(0.000260353 3.35638e-05 -1.98249e-05)
(0.000177244 4.11069e-05 7.53193e-06)
(0.000110088 2.95274e-05 6.96679e-06)
(0.000280358 2.99708e-05 3.66392e-05)
(2.8341e-05 6.29115e-06 -4.3564e-06)
(-1.40942e-05 3.80638e-05 -6.65594e-07)
(0.000174129 5.8929e-06 6.98075e-05)
(0.000223884 3.18729e-06 8.26253e-05)
(7.77319e-05 4.03062e-05 2.38523e-05)
(0.000378351 -1.36139e-05 5.87491e-05)
(-5.16254e-05 -7.72449e-06 0.000101142)
(-0.000102872 2.77682e-05 -7.86461e-06)
(0.000173244 3.96831e-06 4.57867e-05)
)
;
    }
    procBoundary4to0
    {
        type            processor;
        value           nonuniform List<vector> 
36
(
(0.00171387 -8.38686e-05 -0.000132543)
(0.00104027 -4.08409e-05 -6.78395e-05)
(0.000638497 -1.04471e-05 -2.81333e-05)
(0.000410839 7.5123e-06 -6.46455e-07)
(0.000267795 1.46245e-05 7.56326e-06)
(0.0001883 1.93446e-05 1.4747e-05)
(0.000124559 2.21395e-05 1.3377e-05)
(9.37884e-05 2.61706e-05 1.87316e-05)
(4.74518e-05 2.35059e-05 1.95793e-05)
(0.00166457 -9.88834e-05 -0.000134392)
(0.000981711 -4.41975e-05 -6.60443e-05)
(0.000583918 -1.12834e-05 -2.55124e-05)
(0.000360815 8.3171e-06 2.0537e-06)
(0.000227522 1.33385e-05 8.9575e-06)
(0.000154368 2.15988e-05 1.53486e-05)
(0.000101471 1.76093e-05 1.39373e-05)
(7.51882e-05 2.22019e-05 1.57967e-05)
(4.41421e-05 1.67857e-05 1.48862e-05)
(0.00161932 -6.41649e-05 -0.000134689)
(0.000929031 -2.84238e-05 -6.31159e-05)
(0.000538408 -8.07499e-06 -2.31489e-05)
(0.000317767 6.28372e-06 3.52533e-06)
(0.000198031 7.50173e-06 9.8583e-06)
(0.000123915 1.22112e-05 1.55247e-05)
(8.49856e-05 9.20439e-06 1.46689e-05)
(5.13829e-05 9.59799e-06 1.69096e-05)
(3.47102e-05 8.0254e-06 1.21751e-05)
(0.00160951 -1.51422e-05 -0.000134217)
(0.000917148 -4.68952e-06 -6.40664e-05)
(0.000526165 -1.78304e-06 -2.35632e-05)
(0.000311996 7.32391e-07 1.97749e-06)
(0.000189001 6.1885e-08 9.59653e-06)
(0.000122979 -1.64529e-06 1.62992e-05)
(7.79255e-05 1.01646e-07 1.43316e-05)
(5.0351e-05 6.0734e-07 1.6384e-05)
(3.04707e-05 4.2954e-07 1.09032e-05)
)
;
    }
    procBoundary4to5
    {
        type            processor;
        value           nonuniform List<vector> 
12
(
(4.42479e-05 1.79147e-05 2.39394e-05)
(2.54821e-05 1.51805e-05 1.21351e-05)
(7.83471e-06 6.43792e-06 7.68015e-06)
(3.69426e-06 -3.26616e-06 2.1355e-06)
(5.90796e-05 1.33031e-05 1.16771e-05)
(4.52146e-05 1.01247e-05 5.57335e-06)
(2.18566e-05 1.82363e-06 -7.43079e-07)
(1.67569e-05 -4.56153e-06 -5.62305e-06)
(0.000118849 9.3401e-06 9.11554e-06)
(8.84018e-05 2.4795e-06 1.95275e-06)
(5.49882e-05 -5.31097e-06 -5.98972e-06)
(3.82761e-05 -1.13291e-05 -1.15189e-05)
)
;
    }
    procBoundary4to6
    {
        type            processor;
        value           nonuniform List<vector> 
27
(
(0.00161361 3.41763e-05 -6.46128e-05)
(0.000909386 1.46305e-05 -3.31274e-05)
(0.000520948 2.5294e-06 -1.62829e-05)
(0.000300872 -6.0339e-06 -2.82114e-06)
(0.000181178 -7.38656e-06 2.86402e-06)
(0.000106628 -1.08978e-05 5.67589e-06)
(6.7905e-05 -1.00399e-05 5.15093e-06)
(4.05223e-05 -1.13507e-05 3.71138e-06)
(2.23441e-05 -9.54979e-06 2.02953e-06)
(0.00164754 4.03561e-05 6.2677e-06)
(0.000944075 1.55918e-05 -6.39973e-06)
(0.000543622 1.61555e-06 -7.74895e-06)
(0.0003207 -7.74346e-06 -7.0933e-06)
(0.000188596 -9.88055e-06 -3.73356e-06)
(0.00011488 -1.34104e-05 -6.21821e-06)
(6.71881e-05 -1.23403e-05 -2.67654e-06)
(4.25889e-05 -1.35064e-05 -5.39002e-06)
(1.90429e-05 -1.16303e-05 -6.14522e-06)
(0.00169585 3.7122e-05 2.44383e-05)
(0.000994215 1.15328e-05 3.92383e-06)
(0.000586207 -8.69715e-07 -4.8728e-06)
(0.000357014 -1.0544e-05 -6.05513e-06)
(0.000215091 -1.33043e-05 -4.85095e-06)
(0.000136408 -1.71773e-05 -5.40487e-06)
(7.85852e-05 -1.64088e-05 -5.47044e-06)
(5.48039e-05 -1.60923e-05 -9.77745e-06)
(2.16133e-05 -1.52214e-05 -1.24432e-05)
)
;
    }
}


// ************************************************************************* //
