/*--------------------------------*- C++ -*----------------------------------*\
| =========                 |                                                 |
| \\      /  F ield         | OpenFOAM: The Open Source CFD Toolbox           |
|  \\    /   O peration     | Version:  4.x                                   |
|   \\  /    A nd           | Web:      www.OpenFOAM.org                      |
|    \\/     M anipulation  |                                                 |
\*---------------------------------------------------------------------------*/
FoamFile
{
    version     2.0;
    format      ascii;
    class       surfaceScalarField;
    location    "58.5";
    object      phi;
}
// * * * * * * * * * * * * * * * * * * * * * * * * * * * * * * * * * * * * * //

dimensions      [0 3 -1 0 0 0 0];

internalField   nonuniform List<scalar> 
249
(
8.36433e-06
-4.8908e-07
-7.15772e-08
8.41835e-06
-2.2797e-07
-5.58849e-08
8.62506e-06
-5.07385e-07
-6.29006e-08
8.68714e-06
-1.84275e-07
-1.0967e-07
8.86362e-06
-3.76132e-07
-5.51866e-08
8.8894e-06
-1.19871e-07
-1.04432e-07
8.99988e-06
-2.74167e-07
-3.85124e-08
9.0139e-06
-1.13418e-07
-1.04388e-07
-1.92258e-07
6.32217e-08
7.80581e-06
-4.91985e-07
-1.25688e-08
7.64809e-06
-2.45465e-07
-1.83279e-08
7.26456e-06
-5.21078e-07
4.61298e-08
7.14038e-06
-1.7674e-07
-3.66684e-08
6.91508e-06
-4.10983e-07
4.49578e-08
6.86111e-06
-1.26901e-07
-3.94293e-08
6.677e-06
-2.88893e-07
6.51806e-08
6.61264e-06
-9.68274e-08
-3.74677e-08
-1.16514e-07
1.23729e-07
7.56034e-06
-2.84075e-07
2.39827e-08
7.25517e-06
-1.22373e-07
5.09668e-09
6.64747e-06
-2.92804e-07
9.50731e-08
6.47944e-06
-1.04835e-07
1.86338e-08
6.08056e-06
-2.50306e-07
1.04893e-07
5.9922e-06
-7.28137e-08
2.38561e-08
5.6037e-06
-8.56103e-08
4.80708e-08
5.52306e-06
-2.76038e-08
2.04762e-08
-1.70561e-08
2.47234e-09
7.61739e-06
-5.76555e-08
7.2891e-06
8.88761e-09
6.66179e-06
4.31141e-08
6.45887e-06
-1.12854e-08
5.94011e-06
7.54923e-08
5.77907e-06
2.09825e-08
5.41533e-06
9.8616e-08
5.29873e-06
2.13175e-08
8.39967e-08
8.37773e-06
-4.10003e-07
1.23957e-07
8.4468e-06
-2.01957e-07
7.70089e-08
8.61595e-06
-4.03364e-07
1.71313e-07
8.63483e-06
-1.44734e-07
1.61812e-08
8.79803e-06
-3.14972e-07
9.65859e-08
8.81551e-06
-1.05972e-07
-1.59441e-08
8.84585e-06
-2.01515e-07
1.32663e-07
8.74301e-06
-4.28595e-08
4.13105e-08
-1.079e-07
1.99889e-07
8.02901e-06
-4.55362e-07
1.67042e-07
7.94955e-06
-2.2276e-07
8.1937e-08
7.80155e-06
-4.55367e-07
2.46133e-07
7.71267e-06
-1.55086e-07
6.25659e-08
7.57244e-06
-3.22527e-07
1.92744e-07
7.47891e-06
-9.19486e-08
4.00697e-08
7.28426e-06
-1.567e-07
2.15018e-07
7.19202e-06
-4.58371e-08
5.77515e-08
-7.74716e-08
2.14558e-07
7.75004e-06
-2.29676e-07
2.11518e-07
7.48438e-06
-6.70855e-08
1.15084e-07
6.98485e-06
-1.62477e-07
3.01715e-07
6.79645e-06
-4.73085e-08
9.92543e-08
6.40225e-06
-8.94816e-08
2.66054e-07
6.29247e-06
-2.80117e-08
6.96983e-08
5.95099e-06
-1.30102e-08
2.4586e-07
5.86161e-06
-8.5575e-09
7.25721e-08
6.2878e-09
1.83479e-07
7.63799e-06
1.62905e-07
7.4027e-06
1.19465e-07
6.87246e-06
2.71394e-07
6.68987e-06
9.12548e-08
6.30464e-06
2.73531e-07
6.21509e-06
9.40562e-08
5.97862e-06
2.81579e-07
5.95964e-06
5.25298e-08
1.44612e-07
8.6726e-06
-3.85377e-07
8.95947e-06
-2.09862e-07
9.49276e-06
-3.61975e-07
9.64663e-06
-1.37688e-07
9.97367e-06
-2.30452e-07
1.00478e-05
-9.00351e-08
1.03449e-05
-1.64462e-07
1.04883e-05
-1.02123e-07
-1.75732e-07
8.37671e-06
-4.31776e-07
8.47212e-06
-2.23341e-07
8.78023e-06
-4.23944e-07
8.87964e-06
-1.74533e-07
9.11202e-06
-2.70088e-07
9.17074e-06
-1.08688e-07
9.38719e-06
-1.65893e-07
9.46677e-06
-1.2395e-07
-1.74043e-07
8.14454e-06
-2.01529e-07
8.1247e-06
-8.84183e-08
8.21417e-06
-2.11708e-07
8.23847e-06
-9.95705e-08
8.38178e-06
-1.47344e-07
8.41606e-06
-7.32777e-08
8.5935e-06
-9.74687e-08
8.62387e-06
-8.17508e-08
-1.23404e-07
8.03271e-06
8.04032e-06
8.06163e-06
8.0698e-06
8.22388e-06
8.31914e-06
8.61386e-06
8.69948e-06
)
;

boundaryField
{
    inlet
    {
        type            calculated;
        value           nonuniform List<scalar> 
12
(
-8.16327e-06
-8.16327e-06
-8.16327e-06
-8.16327e-06
-8.16327e-06
-8.16327e-06
-8.16327e-06
-8.16327e-06
-8.16327e-06
-8.16327e-06
-8.16327e-06
-8.16327e-06
)
;
    }
    outlet
    {
        type            calculated;
        value           nonuniform 0();
    }
    wall
    {
        type            calculated;
        value           nonuniform List<scalar> 
63
(
0
3.85186e-34
0
0
0
0
0
0
0
0
0
0
0
0
0
0
0
0
0
0
0
0
0
0
-1.54074e-33
0
0
0
0
0
6.16298e-33
0
0
0
0
0
0
0
0
0
0
0
0
0
0
0
0
0
0
0
0
0
0
0
0
0
0
0
0
0
0
0
0
)
;
    }
    procBoundary4to0
    {
        type            processor;
        value           nonuniform List<scalar> 
36
(
3.59588e-07
2.2984e-07
3.63576e-07
2.31862e-07
2.54838e-07
1.98523e-07
2.02205e-07
2.03785e-07
7.49541e-08
3.72927e-07
1.93543e-07
3.51099e-07
1.53309e-07
2.1519e-07
1.00433e-07
1.33654e-07
8.52406e-08
7.75471e-08
3.71037e-07
1.76977e-07
2.84358e-07
7.74856e-08
1.33313e-07
1.04128e-08
1.37143e-07
-9.05138e-09
5.60237e-08
3.90185e-07
1.99186e-07
3.58682e-07
1.47691e-07
2.82673e-07
9.91834e-08
2.08728e-07
8.17095e-08
5.72411e-08
)
;
    }
    procBoundary4to5
    {
        type            processor;
        value           nonuniform List<scalar> 
12
(
9.06798e-06
6.33562e-06
5.3651e-06
5.21639e-06
8.71425e-06
7.07076e-06
5.59685e-06
5.89322e-06
1.08639e-05
9.67964e-06
8.75671e-06
8.86264e-06
)
;
    }
    procBoundary4to6
    {
        type            processor;
        value           nonuniform List<scalar> 
27
(
-7.0726e-08
-2.16324e-09
-6.72871e-08
-3.8322e-08
-8.97091e-08
-3.19355e-08
-2.9221e-08
-1.40269e-08
-7.59571e-08
7.50373e-08
5.76282e-08
1.39488e-07
3.27337e-08
9.77076e-08
-1.15353e-08
4.05007e-08
-2.07881e-08
1.20869e-08
9.19368e-08
2.34285e-08
3.83778e-08
-1.64847e-08
-2.78934e-08
-7.44808e-08
-1.10613e-07
-1.14834e-07
-1.41951e-07
)
;
    }
}


// ************************************************************************* //
