/*--------------------------------*- C++ -*----------------------------------*\
| =========                 |                                                 |
| \\      /  F ield         | OpenFOAM: The Open Source CFD Toolbox           |
|  \\    /   O peration     | Version:  4.x                                   |
|   \\  /    A nd           | Web:      www.OpenFOAM.org                      |
|    \\/     M anipulation  |                                                 |
\*---------------------------------------------------------------------------*/
FoamFile
{
    version     2.0;
    format      ascii;
    class       volVectorField;
    location    "28";
    object      DDtUrel;
}
// * * * * * * * * * * * * * * * * * * * * * * * * * * * * * * * * * * * * * //

dimensions      [0 1 -2 0 0 0 0];

internalField   nonuniform List<vector> 
132
(
(5.46809e-05 6.70867e-06 2.05264e-05)
(3.60521e-05 2.82565e-06 -1.97178e-07)
(-0.000104398 -4.02204e-06 4.10407e-06)
(-0.000200491 -3.04279e-06 1.23805e-05)
(-0.000298782 7.25296e-07 5.77816e-06)
(-0.000490915 -1.84265e-06 -3.7489e-05)
(-0.000812707 -7.93814e-06 -9.01157e-05)
(-0.00117848 3.0891e-05 -0.000225715)
(-0.00170242 6.33342e-05 -0.000323211)
(5.09134e-05 7.92759e-06 1.53267e-05)
(1.17201e-05 -2.90951e-06 9.2789e-07)
(-7.3391e-05 -8.05111e-06 -1.62599e-06)
(-0.000164328 5.26036e-06 -3.1248e-06)
(-0.000285411 1.98574e-05 -1.41734e-05)
(-0.000481175 5.65279e-05 -6.55428e-05)
(-0.000790962 8.63732e-05 -0.000119969)
(-0.00121762 0.000260233 -0.000280502)
(-0.0018069 0.000390092 -0.000407614)
(7.49181e-05 -1.70057e-06 9.46381e-06)
(2.42282e-05 -2.38113e-06 -3.50803e-06)
(-2.37326e-05 -4.53101e-06 -7.04322e-06)
(-0.00012427 1.59166e-05 -1.87415e-05)
(-0.000227338 2.43748e-05 -3.17185e-05)
(-0.000459133 8.92237e-05 -8.54699e-05)
(-0.000752702 0.000130131 -0.000139936)
(-0.00135454 0.000373652 -0.000315349)
(-0.00215855 0.000590379 -0.000497161)
(0.000100166 -9.73667e-06 -2.40539e-07)
(4.34124e-05 -5.70172e-06 -1.05832e-05)
(1.48782e-05 -5.94628e-06 -1.21464e-05)
(-0.000100381 1.70626e-05 -3.2496e-05)
(-0.000183531 3.79477e-05 -4.05662e-05)
(-0.000453208 0.000101765 -0.000107229)
(-0.000750597 0.000173271 -0.000150189)
(-0.0014852 0.000373637 -0.000345258)
(-0.00245668 0.000578282 -0.000614604)
(-0.000104133 -6.11546e-06 -1.76397e-06)
(-0.00016007 -8.5151e-06 1.7745e-06)
(-0.00027999 -1.06267e-05 7.5844e-06)
(-0.000459714 -2.10062e-05 -2.75318e-06)
(-0.000779317 -2.97258e-05 -1.74649e-05)
(-0.00112251 -5.2345e-05 -1.24751e-05)
(-0.001619 -7.81376e-05 -8.47998e-07)
(1.72167e-05 -1.28788e-07 7.32392e-06)
(-1.92036e-05 -3.69995e-06 -8.36458e-07)
(-7.88777e-05 -6.49875e-06 -1.27033e-06)
(-0.000151904 5.67566e-07 -4.25228e-06)
(-0.00026701 9.60288e-06 -7.29822e-06)
(-0.000454918 2.73266e-05 -2.54786e-05)
(-0.000746298 5.90128e-05 -4.53676e-05)
(-0.00113777 0.000142358 -7.85331e-05)
(-0.00170237 0.000209798 -0.000105109)
(2.83202e-05 -3.11523e-06 1.84549e-06)
(-8.86393e-06 -3.3723e-06 -4.74746e-06)
(-6.50373e-05 -4.42862e-06 -6.35749e-06)
(-0.000138005 8.20803e-06 -1.1959e-05)
(-0.000256387 2.15548e-05 -1.7848e-05)
(-0.000438978 5.67974e-05 -4.0405e-05)
(-0.000755557 0.000107223 -6.55832e-05)
(-0.00124349 0.000267271 -8.72685e-05)
(-0.00185666 0.00039965 -0.000115351)
(4.51344e-05 -1.20684e-05 -3.51981e-06)
(-1.50652e-07 -6.00855e-06 -1.02308e-05)
(-3.84228e-05 -9.09179e-06 -1.04882e-05)
(-0.000129474 1.10802e-05 -1.76436e-05)
(-0.000224476 3.02307e-05 -2.31742e-05)
(-0.000436464 6.91455e-05 -4.91795e-05)
(-0.0007316 0.000117001 -6.72418e-05)
(-0.00133444 0.000279993 -8.40141e-05)
(-0.00215635 0.000416373 -0.000153259)
(-0.000254178 -1.82216e-05 1.50976e-05)
(-0.000434544 -3.46325e-05 2.99463e-05)
(-0.000742515 -5.12145e-05 3.48327e-05)
(-0.0011608 -0.00010871 0.00014459)
(-0.00174514 -0.000173208 0.000230171)
(7.03952e-06 -3.22524e-07 -2.59365e-06)
(-2.86573e-05 -4.65398e-06 -6.87686e-06)
(-7.63656e-05 -9.40478e-06 -8.70761e-06)
(-0.000148883 -3.92614e-06 -5.21262e-06)
(-0.000259592 -1.81589e-06 -3.54984e-06)
(-0.00043677 1.32352e-05 1.08956e-06)
(-0.000727003 2.30017e-05 6.4237e-06)
(-0.00115369 0.000143478 4.72083e-05)
(-0.0017506 0.000225993 9.46048e-05)
(3.08252e-05 -8.44872e-06 -1.00415e-05)
(-1.26928e-05 -4.833e-06 -1.21051e-05)
(-4.00591e-05 -5.77168e-06 -1.72531e-05)
(-0.000126879 6.21357e-06 -1.13899e-05)
(-0.000192949 2.58483e-06 -1.2787e-05)
(-0.000400761 4.39864e-05 -1.183e-05)
(-0.000618011 4.35788e-05 -3.22702e-05)
(-0.00127123 0.000245956 5.58137e-05)
(-0.00215488 0.000411437 0.000129537)
(4.96299e-05 -1.55993e-05 -1.39523e-05)
(6.52369e-08 -1.18713e-05 -1.76772e-05)
(-2.65235e-05 -1.0432e-05 -1.87658e-05)
(-0.000116548 -1.24573e-06 -2.13015e-05)
(-0.000177287 7.09734e-06 -2.31633e-05)
(-0.000401137 3.25364e-05 -3.70782e-05)
(-0.000605957 6.57542e-05 -3.47912e-05)
(-0.00135283 0.000182977 1.34741e-05)
(-0.00239697 0.000257375 1.23937e-05)
(-0.000682445 -5.72907e-05 6.04758e-05)
(-0.00123059 -0.000179524 0.000164728)
(-0.00199603 -0.000309886 0.000256703)
(2.08867e-06 -4.15693e-06 -1.51173e-05)
(-3.99985e-05 -7.02565e-06 -1.43344e-05)
(-8.83624e-05 -8.5151e-06 -1.49119e-05)
(-0.000164892 -7.35419e-06 -9.82738e-06)
(-0.000278814 -7.86819e-06 -8.97446e-06)
(-0.00044854 -5.13303e-06 2.7151e-06)
(-0.000747123 -3.41401e-06 2.21426e-05)
(-0.00117438 8.71706e-06 6.18955e-05)
(-0.00179962 1.11547e-05 0.000101471)
(2.20735e-05 -5.73745e-06 -1.99729e-05)
(-2.52397e-05 -2.34667e-06 -2.55643e-05)
(-6.41505e-05 -3.11279e-06 -2.69286e-05)
(-0.000151244 4.59233e-06 -2.84866e-05)
(-0.000240062 6.73605e-06 -2.40843e-05)
(-0.000433737 2.53902e-05 -3.14949e-05)
(-0.000700534 2.58756e-05 -5.40952e-06)
(-0.00124429 9.09366e-05 -8.93634e-06)
(-0.00204913 0.000164775 -4.10025e-05)
(4.02811e-05 -1.46442e-05 -2.33975e-05)
(-1.37206e-05 -8.98123e-06 -2.93503e-05)
(-5.35864e-05 -6.41836e-06 -3.04378e-05)
(-0.00013928 -2.1735e-07 -3.84928e-05)
(-0.000232761 9.9491e-06 -3.03629e-05)
(-0.000431269 2.06707e-05 -5.83513e-05)
(-0.000744065 4.52329e-05 -2.00201e-05)
(-0.00128118 5.95306e-05 -9.28962e-05)
(-0.00209764 8.38324e-05 -0.000179116)
)
;

boundaryField
{
    inlet
    {
        type            calculated;
        value           nonuniform 0();
    }
    outlet
    {
        type            calculated;
        value           nonuniform List<vector> 
16
(
(-0.00244099 0.000643552 -0.000836054)
(-0.00241029 0.00169427 -0.000837859)
(-0.00537821 0.00192268 -0.000845374)
(-0.00620029 0.000634504 -0.00122821)
(-0.00199685 -0.000179984 9.18839e-05)
(-0.002846 0.000127105 -0.000164297)
(-0.0015604 0.000739059 0.000297862)
(-0.00407989 0.00090106 0.000411549)
(-0.00262144 -0.000453523 0.00105675)
(-0.00246122 0.00185539 0.000316881)
(-0.00675236 0.00277869 0.00210632)
(-0.0081758 7.06836e-05 0.000743968)
(-0.00482875 -0.00151714 0.000688576)
(-0.00260964 -0.000125752 0.000211472)
(-0.00494887 0.0003663 -0.000680588)
(-0.00397505 -0.000616814 -0.00146766)
)
;
    }
    wall
    {
        type            calculated;
        value           nonuniform List<vector> 
66
(
(-4.19549e-05 1.36935e-05 -9.09939e-05)
(0.000116352 1.97892e-05 -4.93144e-05)
(0.000194573 -5.00411e-05 -5.57929e-05)
(-0.000160401 -1.91938e-05 -2.5724e-05)
(-8.11153e-05 5.34666e-05 -0.000103249)
(-6.64136e-05 -1.03597e-05 -9.23175e-05)
(-0.000198188 -1.37505e-05 -2.76171e-05)
(6.01827e-05 4.24838e-06 -8.18971e-05)
(4.48461e-05 -1.60964e-05 -5.42423e-05)
(-0.000197068 -2.88141e-06 7.15702e-06)
(-0.000215102 6.8842e-05 -0.000126539)
(-0.000147574 -2.45803e-05 -0.000174177)
(-0.000425659 -2.71308e-05 -8.25781e-05)
(5.11146e-05 9.15817e-07 -4.74515e-05)
(-3.99027e-05 2.67579e-05 4.50518e-05)
(-0.00019477 2.69514e-07 -2.14628e-05)
(-0.000259916 0.000135078 -0.000223111)
(-0.000145991 -7.52827e-05 -0.000420636)
(0.000466732 0.000323864 -6.80277e-05)
(-0.000732699 -4.2842e-05 -2.87712e-05)
(0.00022001 -0.00020715 0.000132941)
(-0.000574639 7.45119e-05 0.000340889)
(-0.000501812 -0.000537051 0.00032339)
(-0.000209667 -4.7661e-05 9.33627e-06)
(-0.000417536 -6.41489e-05 -7.46431e-05)
(-0.00026935 -0.000447491 -0.00063264)
(-0.00482875 -0.00151714 0.000688576)
(-0.00260964 -0.000125752 0.000211472)
(-0.00494887 0.0003663 -0.000680588)
(-0.00397505 -0.000616814 -0.00146766)
(0.000399863 -4.23035e-05 -2.54813e-05)
(4.06075e-05 -5.17824e-05 1.95355e-05)
(0.000292481 -6.06283e-05 -2.33806e-05)
(0.000194573 -5.00411e-05 -5.57929e-05)
(-1.20039e-05 9.39293e-06 -9.36277e-05)
(-0.000130205 3.27937e-05 -2.40561e-05)
(7.38186e-06 -5.27788e-05 -3.02817e-05)
(-6.64136e-05 -1.03597e-05 -9.23175e-05)
(0.000441578 -4.26332e-05 -8.34153e-06)
(1.47207e-05 -0.000104185 2.97568e-05)
(0.00033999 -6.61465e-05 -8.12876e-06)
(4.48461e-05 -1.60964e-05 -5.42423e-05)
(-0.000141382 2.55562e-05 -0.000158036)
(-0.000219019 4.24104e-05 1.65232e-05)
(-7.06368e-05 -6.24143e-05 -1.23208e-05)
(-0.000147574 -2.45803e-05 -0.000174177)
(0.000528986 -9.19226e-05 0.000112387)
(-1.77691e-05 3.9846e-05 8.01326e-05)
(0.000713024 -0.000113736 6.2325e-06)
(-3.99027e-05 2.67579e-05 4.50518e-05)
(-0.000459426 2.6776e-05 -0.000235562)
(-0.000216335 9.03105e-05 3.88098e-05)
(-0.000263397 -0.000103678 -6.47314e-05)
(-0.000145991 -7.52827e-05 -0.000420636)
(0.000371683 -0.000174961 0.000527766)
(1.22824e-05 -0.000241688 7.82217e-05)
(0.00199488 -0.000232834 -0.000137643)
(-0.000574639 7.45119e-05 0.000340889)
(-0.000998812 -6.97516e-05 0.000263871)
(-0.000385465 0.000415442 0.000597343)
(-0.000915374 0.000210143 0.000667786)
(-0.00026935 -0.000447491 -0.00063264)
(-0.00620029 0.000634504 -0.00122821)
(-0.00407989 0.00090106 0.000411549)
(-0.0081758 7.06836e-05 0.000743968)
(-0.00397505 -0.000616814 -0.00146766)
)
;
    }
    procBoundary7to0
    {
        type            processor;
        value           uniform (6.24042e-05 7.73876e-06 1.70211e-05);
    }
    procBoundary7to1
    {
        type            processor;
        value           uniform (3.39651e-05 8.29665e-06 5.00802e-06);
    }
    procBoundary7to3
    {
        type            processor;
        value           nonuniform List<vector> 
36
(
(0.000112797 9.81631e-06 2.35019e-05)
(0.000202212 -2.90023e-06 1.6468e-05)
(-6.73087e-05 -8.75157e-06 1.54107e-05)
(-0.000292685 2.93764e-06 9.7082e-06)
(-0.000316682 3.82082e-06 -1.78739e-08)
(-0.000539016 8.54314e-06 -7.49733e-05)
(-0.00085549 1.26554e-05 -0.000156339)
(-0.00134175 5.21549e-05 -0.000430585)
(-0.00195049 8.08606e-05 -0.000624853)
(0.000100387 9.02865e-06 1.86381e-05)
(7.57281e-05 -6.08029e-06 1.52529e-05)
(-4.95422e-05 -6.50188e-06 1.65962e-05)
(-0.000171282 1.3708e-05 5.58988e-06)
(-0.000283946 3.47926e-05 -8.98718e-06)
(-0.000521316 7.05505e-05 -9.35059e-05)
(-0.000840644 0.000122162 -0.000191293)
(-0.00137971 0.000274622 -0.000463298)
(-0.00209079 0.000408412 -0.000698964)
(0.000118862 3.15348e-06 1.45441e-05)
(6.42459e-05 -8.17489e-06 8.55154e-06)
(-1.69758e-05 -1.28518e-05 1.05061e-05)
(-0.000107353 1.48061e-05 -9.76335e-06)
(-0.000227354 4.51147e-05 -3.55903e-05)
(-0.00048867 0.00012261 -0.000131221)
(-0.000829746 0.000211315 -0.000261716)
(-0.00150854 0.000524576 -0.000594928)
(-0.00231282 0.000787688 -0.000929771)
(0.000147288 -6.64252e-06 1.05821e-05)
(9.43056e-05 -8.98078e-06 -2.4081e-07)
(5.93056e-05 -1.65676e-05 -2.47312e-07)
(-6.78903e-05 2.37441e-05 -3.30123e-05)
(-0.000133858 5.61062e-05 -5.46846e-05)
(-0.000432697 0.000163097 -0.000170267)
(-0.000671229 0.00025039 -0.000303783)
(-0.0016747 0.000607817 -0.000756697)
(-0.00286081 0.000926338 -0.00127802)
)
;
    }
    procBoundary7to5
    {
        type            processor;
        value           nonuniform List<vector> 
44
(
(6.95603e-06 4.79872e-06 8.02718e-06)
(-8.65071e-05 4.83617e-06 2.23605e-05)
(-0.000178939 -8.18206e-06 1.65463e-05)
(-0.000297325 -2.1867e-05 8.84687e-06)
(-0.000485503 -4.96795e-05 -1.83983e-05)
(-0.000819049 -8.66318e-05 -5.64867e-05)
(-0.00121537 -0.000204207 -0.000139597)
(-0.00174643 -0.000294715 -0.000195349)
(2.31186e-05 -7.92837e-07 1.08243e-05)
(-2.10007e-05 -3.15471e-06 -1.56795e-06)
(-8.02694e-05 -4.5108e-06 1.11898e-05)
(-0.000151865 -1.77211e-05 1.71769e-05)
(-0.000263251 -3.36853e-05 2.27534e-05)
(-0.000421056 -6.78908e-05 2.70634e-05)
(-0.000769773 -0.000104402 2.56895e-05)
(-0.00120914 -0.000260312 9.10171e-05)
(-0.00172789 -0.000406388 0.000176628)
(2.31186e-05 -7.92837e-07 1.08243e-05)
(-2.10007e-05 -3.15471e-06 -1.56795e-06)
(-2.10007e-05 -3.15471e-06 -1.56795e-06)
(-7.54614e-05 -8.68833e-06 -6.28877e-06)
(-0.000146601 -1.34164e-05 6.0076e-06)
(-0.000217645 -3.61653e-05 2.90778e-05)
(-0.00040439 -8.41589e-05 5.46677e-05)
(-0.000716949 -0.00012588 7.20709e-05)
(-0.00126014 -0.000334621 0.000247802)
(-0.00194685 -0.00050724 0.000390818)
(1.40017e-05 -8.27006e-07 -1.35287e-06)
(-2.44596e-05 -4.97124e-06 -3.37146e-06)
(-7.54614e-05 -8.68833e-06 -6.28877e-06)
(-0.000146601 -1.34164e-05 6.0076e-06)
(-0.000146601 -1.34164e-05 6.0076e-06)
(-0.000229631 -2.55063e-05 1.32247e-05)
(-0.00042196 -5.44235e-05 3.82526e-05)
(-0.000628891 -0.000115116 7.95784e-05)
(-0.00136446 -0.000313235 0.000248825)
(-0.00232865 -0.000511357 0.000394831)
(2.12904e-05 -6.73062e-06 -3.04276e-06)
(-2.01994e-05 -1.15308e-05 -5.3422e-06)
(-5.89466e-05 -1.41148e-05 -1.08847e-05)
(-0.000144552 -2.23008e-05 3.21243e-06)
(-0.000229631 -2.55063e-05 1.32247e-05)
(-0.00042196 -5.44235e-05 3.82526e-05)
(-0.00042196 -5.44235e-05 3.82526e-05)
)
;
    }
    procBoundary7to6
    {
        type            processor;
        value           nonuniform List<vector> 
12
(
(6.07868e-05 3.74038e-06 1.29653e-05)
(7.40355e-05 -4.49944e-06 7.83655e-06)
(9.55079e-05 -1.21196e-05 1.61112e-06)
(2.82611e-05 -2.24644e-06 3.67999e-06)
(4.14112e-05 -8.73165e-06 1.47694e-06)
(5.14248e-05 -1.3204e-05 -2.24916e-06)
(1.97788e-05 -4.22188e-06 -5.68135e-06)
(3.42752e-05 -8.71702e-06 -7.90451e-06)
(5.50809e-05 -1.64e-05 -1.19536e-05)
(1.60189e-05 -6.54456e-06 -1.11608e-05)
(3.36795e-05 -7.51398e-06 -1.60914e-05)
(5.50068e-05 -1.68571e-05 -1.96528e-05)
)
;
    }
}


// ************************************************************************* //
