/*--------------------------------*- C++ -*----------------------------------*\
| =========                 |                                                 |
| \\      /  F ield         | OpenFOAM: The Open Source CFD Toolbox           |
|  \\    /   O peration     | Version:  4.x                                   |
|   \\  /    A nd           | Web:      www.OpenFOAM.org                      |
|    \\/     M anipulation  |                                                 |
\*---------------------------------------------------------------------------*/
FoamFile
{
    version     2.0;
    format      ascii;
    class       volScalarField;
    location    "28";
    object      Sm;
}
// * * * * * * * * * * * * * * * * * * * * * * * * * * * * * * * * * * * * * //

dimensions      [1 -3 -1 0 0 0 0];

internalField   nonuniform List<scalar> 
132
(
9.91991e-65
7.82743e-65
6.43245e-65
6.74246e-65
1.03075e-64
1.0385e-64
7.9825e-65
5.65751e-65
8.37001e-65
7.67245e-65
9.45493e-65
7.28495e-65
6.89747e-65
8.29248e-65
5.6575e-65
7.51751e-65
6.35502e-65
8.06002e-65
4.80499e-65
7.43998e-65
6.12249e-65
7.12999e-65
7.44e-65
8.06001e-65
7.51752e-65
7.20753e-65
8.60254e-65
6.51e-65
6.58751e-65
8.68e-65
5.50251e-65
7.28502e-65
6.74253e-65
7.90504e-65
5.89004e-65
4.34003e-65
6.43247e-65
7.36247e-65
6.74249e-65
6.8975e-65
8.60251e-65
8.44752e-65
7.36252e-65
3.95248e-65
8.52497e-65
7.43997e-65
7.51749e-65
8.1375e-65
7.05251e-65
5.73501e-65
7.67252e-65
5.73502e-65
5.5025e-65
8.21499e-65
6.97499e-65
6.045e-65
7.36251e-65
8.60253e-65
8.91253e-65
7.05253e-65
7.98254e-65
6.74251e-65
7.90502e-65
5.96751e-65
7.20752e-65
7.36252e-65
6.20003e-65
6.58754e-65
7.98255e-65
5.34753e-65
5.0375e-65
5.81251e-65
7.36252e-65
6.04502e-65
5.81252e-65
8.06e-65
7.36249e-65
6.82e-65
5.19251e-65
8.52502e-65
7.05252e-65
7.13003e-65
8.75754e-65
7.51753e-65
7.05252e-65
7.36252e-65
7.51752e-65
6.97502e-65
7.98253e-65
7.59504e-65
7.67254e-65
7.05254e-65
7.75005e-65
5.58003e-65
6.35503e-65
7.05253e-65
6.89754e-65
6.12253e-65
5.27004e-65
7.59505e-65
7.05256e-65
5.81254e-65
5.50253e-65
6.43254e-65
6.12253e-65
6.89752e-65
5.81252e-65
7.67252e-65
7.44003e-65
5.19252e-65
3.87502e-65
6.89754e-65
6.66504e-65
5.42503e-65
5.96753e-65
6.04503e-65
6.04503e-65
6.20003e-65
6.89754e-65
6.35504e-65
7.20755e-65
6.43255e-65
7.28505e-65
6.04504e-65
7.44005e-65
5.65754e-65
5.81254e-65
6.58755e-65
6.51005e-65
6.51005e-65
6.35506e-65
4.10754e-65
)
;

boundaryField
{
    inlet
    {
        type            calculated;
        value           nonuniform 0();
    }
    outlet
    {
        type            calculated;
        value           uniform 0;
    }
    wall
    {
        type            calculated;
        value           uniform 0;
    }
    procBoundary7to0
    {
        type            processor;
        value           uniform 2.32497e-65;
    }
    procBoundary7to1
    {
        type            processor;
        value           uniform 5.73494e-65;
    }
    procBoundary7to3
    {
        type            processor;
        value           nonuniform List<scalar> 
36
(
7.67242e-65
9.06741e-65
8.75742e-65
8.52494e-65
6.12247e-65
6.27749e-65
8.525e-65
7.13001e-65
7.44002e-65
9.06743e-65
5.03746e-65
7.74994e-65
4.33998e-65
4.64999e-65
7.905e-65
7.28501e-65
8.83502e-65
6.12252e-65
5.11499e-65
8.13747e-65
8.21497e-65
5.81248e-65
6.82e-65
7.98252e-65
6.66502e-65
7.20753e-65
5.42503e-65
8.525e-65
4.03e-65
5.42501e-65
6.12251e-65
5.58002e-65
7.13003e-65
6.20004e-65
7.90505e-65
8.52505e-65
)
;
    }
    procBoundary7to5
    {
        type            processor;
        value           nonuniform List<scalar> 
44
(
8.44742e-65
6.04495e-65
7.51746e-65
5.73498e-65
4.57249e-65
7.285e-65
5.42501e-65
8.68002e-65
9.99745e-65
4.33998e-65
7.28496e-65
7.59497e-65
6.19999e-65
7.0525e-65
7.13001e-65
6.89752e-65
5.58002e-65
9.99745e-65
4.33998e-65
4.33998e-65
8.98999e-65
7.9825e-65
1.0075e-64
7.36252e-65
8.21503e-65
8.91253e-65
8.68003e-65
4.80499e-65
9.37749e-65
8.98999e-65
7.9825e-65
7.9825e-65
9.68753e-65
7.75003e-65
6.51003e-65
6.74254e-65
6.82004e-65
7.36251e-65
5.65751e-65
7.13001e-65
5.58002e-65
9.68753e-65
7.75003e-65
7.75003e-65
)
;
    }
    procBoundary7to6
    {
        type            processor;
        value           nonuniform List<scalar> 
12
(
6.74246e-65
7.12998e-65
4.96001e-65
8.52497e-65
7.595e-65
7.51752e-65
7.905e-65
7.75002e-65
5.65753e-65
3.79752e-65
7.82754e-65
6.04505e-65
)
;
    }
}


// ************************************************************************* //
