/*--------------------------------*- C++ -*----------------------------------*\
| =========                 |                                                 |
| \\      /  F ield         | OpenFOAM: The Open Source CFD Toolbox           |
|  \\    /   O peration     | Version:  4.x                                   |
|   \\  /    A nd           | Web:      www.OpenFOAM.org                      |
|    \\/     M anipulation  |                                                 |
\*---------------------------------------------------------------------------*/
FoamFile
{
    version     2.0;
    format      ascii;
    class       volVectorField;
    location    "28";
    object      Us;
}
// * * * * * * * * * * * * * * * * * * * * * * * * * * * * * * * * * * * * * //

dimensions      [0 1 -1 0 0 0 0];

internalField   nonuniform List<vector> 
132
(
(1.3773e-08 4.04215e-09 -2.00548e-08)
(1.96283e-08 1.94809e-09 -1.64647e-08)
(2.271e-08 4.21453e-09 -1.21979e-08)
(2.89975e-08 1.36125e-09 -1.05639e-08)
(2.61674e-08 1.01899e-11 -9.02032e-09)
(1.83101e-08 -1.77137e-09 -1.0224e-08)
(1.54085e-08 -9.38234e-10 -8.40095e-09)
(7.50302e-09 -1.5577e-10 -6.79765e-09)
(9.21505e-11 -2.58701e-09 -5.3319e-09)
(1.99468e-08 1.85569e-09 -1.51385e-08)
(2.33967e-08 -1.17408e-09 -1.50878e-08)
(2.46844e-08 2.86578e-09 -1.35967e-08)
(2.55464e-08 -1.21587e-09 -1.14933e-08)
(2.59376e-08 -5.20272e-10 -8.70696e-09)
(2.30627e-08 -2.87746e-10 -6.95754e-09)
(1.99202e-08 -5.44644e-10 -6.56089e-09)
(1.18067e-08 -1.30073e-09 -7.93964e-09)
(3.22951e-09 -3.59194e-09 -9.4724e-09)
(2.18058e-08 3.61732e-09 -9.14772e-09)
(2.46029e-08 -1.66868e-09 -1.08663e-08)
(2.36153e-08 -9.24008e-10 -1.0723e-08)
(2.19293e-08 -2.38436e-09 -1.00943e-08)
(2.21228e-08 -1.6864e-09 -7.71404e-09)
(1.88794e-08 -1.26858e-09 -6.68209e-09)
(1.88265e-08 1.85038e-10 -2.66691e-09)
(9.99398e-09 1.7002e-09 -6.97993e-09)
(1.59619e-09 -8.03723e-10 -7.0734e-09)
(2.19377e-08 1.82691e-09 -4.28367e-09)
(2.02232e-08 -2.13773e-09 -2.68622e-09)
(1.61432e-08 7.77225e-10 -5.43943e-09)
(1.48969e-08 -8.0648e-10 -5.29384e-09)
(1.45843e-08 -6.66664e-10 -3.61833e-09)
(9.80535e-09 -1.74368e-09 -4.53898e-09)
(8.04813e-09 3.34155e-10 -3.2704e-09)
(3.80155e-09 2.07545e-09 -2.61521e-09)
(-1.69089e-10 1.13749e-09 -3.20159e-09)
(1.81263e-08 1.46378e-09 -9.54594e-09)
(2.06591e-08 2.43093e-09 -8.80577e-09)
(1.92331e-08 2.39034e-09 -6.09843e-09)
(1.68932e-08 7.66228e-10 -5.55054e-09)
(1.35703e-08 1.04921e-09 -4.93064e-09)
(7.19299e-09 1.1783e-09 -3.96268e-09)
(3.2264e-09 8.09425e-10 -6.98319e-10)
(1.87888e-08 -1.95859e-10 -1.07342e-08)
(1.96155e-08 -1.98198e-09 -1.17718e-08)
(2.03778e-08 -1.71682e-09 -1.17339e-08)
(2.16253e-08 -1.17126e-09 -8.85231e-09)
(2.07828e-08 1.70694e-10 -5.71367e-09)
(1.55266e-08 -6.27076e-10 -5.423e-09)
(1.22568e-08 -1.57842e-09 -3.42912e-09)
(8.61337e-09 -1.71575e-09 -3.84813e-09)
(2.18904e-09 -1.90894e-10 -2.67533e-09)
(2.26858e-08 6.38897e-10 -8.72932e-09)
(2.43346e-08 -4.05017e-09 -1.0032e-08)
(2.27051e-08 -2.90807e-09 -9.67846e-09)
(1.93075e-08 -2.59895e-09 -8.13709e-09)
(1.8024e-08 -1.38657e-09 -5.64664e-09)
(1.43409e-08 -1.04175e-09 -5.40556e-09)
(1.0935e-08 -1.43644e-09 -4.72299e-09)
(5.70627e-09 -1.73352e-09 -5.05113e-09)
(7.45683e-12 -7.67264e-10 -3.56532e-09)
(2.1469e-08 -3.58811e-10 -5.12412e-09)
(2.43712e-08 -1.5959e-09 -3.05996e-09)
(2.24763e-08 -3.95837e-10 -6.02243e-09)
(1.41835e-08 -1.43712e-09 -5.37994e-09)
(1.13952e-08 -6.93191e-10 -3.68152e-09)
(5.33379e-09 -5.53582e-10 -4.70852e-09)
(5.25027e-10 -2.26475e-09 -4.5795e-09)
(-1.10482e-10 -1.10198e-09 -2.13914e-09)
(-5.75332e-10 -5.79681e-10 -2.01936e-09)
(1.67831e-08 1.35029e-09 -2.65935e-09)
(1.38178e-08 2.07325e-09 -1.3457e-09)
(1.08165e-08 1.32571e-09 -1.40886e-09)
(7.69014e-09 8.11862e-10 1.82478e-10)
(3.17342e-09 1.30765e-09 1.76101e-09)
(1.71034e-08 3.94343e-09 -6.50956e-09)
(2.01697e-08 -5.513e-10 -1.00944e-08)
(2.05529e-08 -2.15006e-09 -1.19277e-08)
(1.65934e-08 -1.27198e-09 -6.76485e-09)
(1.6193e-08 2.8152e-10 -3.0207e-09)
(1.30167e-08 -4.24682e-10 -2.57262e-09)
(1.16493e-08 -1.75141e-09 -1.2908e-09)
(7.46144e-09 -1.81803e-09 -2.70271e-10)
(2.47607e-09 -6.95668e-10 -7.61944e-10)
(2.08739e-08 1.80976e-09 -7.44168e-09)
(2.1442e-08 -2.24456e-09 -5.13556e-09)
(2.01609e-08 -9.80496e-10 -1.0174e-08)
(1.57642e-08 -2.71479e-09 -5.04319e-09)
(1.3553e-08 -8.39937e-10 -3.35598e-09)
(1.11043e-08 -1.4979e-09 -4.03893e-09)
(6.92479e-09 -1.59327e-09 -3.60294e-09)
(1.04278e-09 -2.55763e-09 -2.73352e-09)
(5.73848e-10 -1.68577e-09 -3.00488e-09)
(1.56217e-08 -8.29102e-10 -5.43551e-09)
(1.83027e-08 7.28559e-11 -2.33713e-09)
(1.93167e-08 -5.29421e-10 -4.01598e-09)
(1.35792e-08 -1.26416e-09 -4.13902e-09)
(8.55354e-09 -5.81625e-10 -2.28209e-09)
(-3.23649e-09 -2.60882e-09 -6.02204e-09)
(2.90213e-09 -5.69495e-10 -3.45481e-09)
(-4.43729e-09 -7.53284e-10 -6.37772e-10)
(-2.67721e-09 -1.17223e-09 -1.09962e-09)
(8.12703e-09 2.4352e-09 9.06285e-10)
(8.23737e-09 1.0766e-10 6.86227e-10)
(1.33218e-09 1.33979e-09 1.38116e-09)
(1.14106e-08 5.8731e-09 -2.84355e-09)
(1.43313e-08 4.49218e-09 -3.21151e-09)
(1.29838e-08 1.96211e-09 -2.78095e-09)
(1.03615e-08 3.92647e-10 -1.77669e-09)
(9.50992e-09 8.28412e-10 -1.7045e-09)
(1.09435e-08 -1.27012e-09 -2.60156e-09)
(8.69921e-09 -1.30762e-09 2.23076e-09)
(5.92834e-09 -9.37063e-10 -1.16285e-09)
(5.18545e-10 -3.07177e-10 -6.89288e-11)
(1.06463e-08 4.55476e-09 -3.04227e-09)
(1.21329e-08 3.26761e-09 -1.06857e-09)
(1.38589e-08 1.87624e-09 -3.02471e-09)
(9.62586e-09 -1.17341e-09 -1.79893e-09)
(8.30154e-09 -6.51766e-10 -1.79728e-09)
(6.07217e-09 -1.56457e-09 -2.12252e-09)
(3.84752e-09 -1.89069e-09 -6.04317e-10)
(1.53988e-10 -1.43137e-09 -1.7835e-09)
(-2.89014e-10 1.33815e-09 -1.3615e-09)
(7.73532e-09 -7.34816e-10 -1.33061e-09)
(1.04863e-08 1.45061e-10 -9.16114e-10)
(1.1918e-08 -4.19787e-10 -4.77548e-10)
(7.49806e-09 -1.82287e-09 -1.74406e-09)
(7.26877e-09 -7.06051e-08 -1.26044e-09)
(3.37306e-09 -8.83768e-10 -2.1049e-09)
(1.51538e-09 -1.14666e-09 -4.4659e-10)
(-1.52729e-09 -4.64349e-10 -9.45976e-10)
(-8.62302e-09 9.35301e-09 5.59584e-09)
)
;

boundaryField
{
    inlet
    {
        type            zeroGradient;
    }
    outlet
    {
        type            zeroGradient;
    }
    wall
    {
        type            zeroGradient;
    }
    procBoundary7to0
    {
        type            processor;
        value           uniform (1.95199e-08 -3.68147e-09 -1.77933e-08);
    }
    procBoundary7to1
    {
        type            processor;
        value           uniform (9.31161e-09 1.67671e-09 -1.65635e-08);
    }
    procBoundary7to3
    {
        type            processor;
        value           nonuniform List<vector> 
36
(
(2.61905e-08 3.18772e-09 -2.28121e-08)
(2.74252e-08 5.16011e-09 -1.96566e-08)
(2.733e-08 5.65676e-09 -1.49955e-08)
(3.95016e-08 -3.91019e-09 -1.21207e-08)
(3.84527e-08 -3.35542e-09 -1.17886e-08)
(3.04204e-08 -3.26063e-09 -1.16791e-08)
(2.55857e-08 -4.34418e-09 -1.33176e-08)
(1.21611e-08 -3.81777e-09 -1.24971e-08)
(4.54224e-09 1.55738e-10 -1.0605e-08)
(2.87659e-08 -4.53518e-09 -1.95861e-08)
(3.41078e-08 -9.51526e-12 -1.7098e-08)
(2.77512e-08 8.82504e-09 -1.59732e-08)
(3.37882e-08 -1.17265e-09 -1.03486e-08)
(3.50539e-08 -2.37358e-09 -1.03483e-08)
(3.34592e-08 6.13004e-10 -7.87804e-09)
(2.40509e-08 -7.36249e-10 -1.01052e-08)
(1.44872e-08 -3.05128e-09 -1.26665e-08)
(1.20543e-09 2.94056e-09 -2.53706e-08)
(3.18728e-08 -4.81977e-09 -1.5927e-08)
(3.36684e-08 -5.3735e-09 -1.43106e-08)
(2.64395e-08 -1.81139e-10 -9.48623e-09)
(2.6259e-08 -5.00541e-09 -8.7748e-09)
(3.40714e-08 -3.75632e-09 -8.04589e-09)
(3.46486e-08 7.23726e-10 -7.45677e-09)
(3.83506e-08 9.51036e-10 -9.94459e-09)
(2.12661e-08 1.08109e-09 -8.62342e-09)
(9.52862e-09 -1.59933e-09 -1.1649e-08)
(2.45246e-08 -4.64647e-09 -6.86473e-09)
(2.58073e-08 -1.62668e-09 -6.15107e-09)
(2.58308e-08 -4.16074e-09 -6.69386e-09)
(1.77044e-08 3.85684e-10 -3.40558e-09)
(2.26957e-08 -2.19928e-09 -4.41943e-09)
(1.9731e-08 -2.03602e-09 -3.76379e-09)
(2.06024e-08 2.02358e-10 -1.79717e-09)
(1.64712e-08 2.94126e-09 -5.21017e-09)
(6.00698e-09 -1.54993e-09 -1.12046e-08)
)
;
    }
    procBoundary7to5
    {
        type            processor;
        value           nonuniform List<vector> 
44
(
(1.72156e-08 6.02848e-09 -1.4714e-08)
(2.08838e-08 1.7086e-09 -1.06329e-08)
(2.44366e-08 1.88437e-09 -1.0959e-08)
(2.34142e-08 -5.88911e-10 -9.99439e-09)
(1.84099e-08 -1.39891e-09 -8.0705e-09)
(1.41387e-08 -4.99616e-10 -6.53108e-09)
(8.00701e-09 -2.1763e-09 -5.85836e-09)
(-1.68153e-09 -1.21224e-08 -7.00093e-09)
(1.29839e-08 1.53352e-09 -9.67768e-09)
(1.83903e-08 6.15685e-11 -9.76708e-09)
(1.57639e-08 4.94821e-09 -1.02923e-08)
(1.62404e-08 4.63023e-09 -9.24766e-09)
(1.38845e-08 3.52543e-09 -7.79164e-09)
(1.01526e-08 2.1004e-09 -6.13564e-09)
(7.12363e-09 1.44345e-09 -5.17664e-09)
(2.08964e-09 2.01588e-09 -3.4255e-09)
(-2.49656e-09 1.56345e-09 -4.19662e-09)
(1.29839e-08 1.53352e-09 -9.67768e-09)
(1.83903e-08 6.15685e-11 -9.76708e-09)
(1.83903e-08 6.15685e-11 -9.76708e-09)
(1.80295e-08 4.68358e-09 -6.86667e-09)
(1.64739e-08 4.07389e-09 -5.76105e-09)
(1.02011e-08 5.10001e-09 -5.17813e-09)
(6.54736e-09 5.19586e-09 -4.04904e-09)
(2.70489e-09 4.29927e-09 -3.05524e-09)
(-2.85955e-09 2.69445e-09 -1.40675e-09)
(-3.03643e-09 4.03325e-09 -2.70478e-09)
(1.43184e-08 5.49891e-09 -1.64374e-09)
(1.75344e-08 4.30682e-09 -7.30878e-09)
(1.80295e-08 4.68358e-09 -6.86667e-09)
(1.64739e-08 4.07389e-09 -5.76105e-09)
(1.64739e-08 4.07389e-09 -5.76105e-09)
(1.03081e-08 1.86894e-09 -1.26784e-09)
(9.55979e-09 3.13233e-09 7.26257e-10)
(-1.46857e-10 4.13238e-09 -1.27082e-09)
(-1.55832e-09 2.23212e-09 -1.37464e-09)
(-2.64067e-09 2.19376e-09 -1.76402e-09)
(1.13213e-08 5.25899e-09 -2.50322e-09)
(1.24127e-08 5.69605e-09 -2.4508e-09)
(4.15141e-08 1.26061e-07 -2.47862e-09)
(9.60939e-09 3.34559e-09 -2.44449e-09)
(1.03081e-08 1.86894e-09 -1.26784e-09)
(9.55979e-09 3.13233e-09 7.26257e-10)
(9.55979e-09 3.13233e-09 7.26257e-10)
)
;
    }
    procBoundary7to6
    {
        type            processor;
        value           nonuniform List<vector> 
12
(
(1.62334e-08 -1.67488e-09 -1.3654e-08)
(2.1187e-08 2.23619e-10 -1.12693e-08)
(8.44563e-09 2.70664e-10 -3.98293e-09)
(1.45994e-08 -2.08357e-10 -9.13949e-09)
(1.82804e-08 -3.61724e-10 -8.03657e-09)
(1.43876e-08 -7.07867e-10 -2.95909e-09)
(1.10595e-08 1.33234e-09 -5.65623e-09)
(1.62772e-08 1.58423e-09 -7.20273e-09)
(1.12364e-08 5.05351e-10 -4.25255e-09)
(9.96561e-09 3.85949e-09 -8.35312e-10)
(1.06352e-08 5.10267e-09 -3.5646e-09)
(6.81603e-09 1.07851e-09 -3.94643e-09)
)
;
    }
}


// ************************************************************************* //
