/*--------------------------------*- C++ -*----------------------------------*\
| =========                 |                                                 |
| \\      /  F ield         | OpenFOAM: The Open Source CFD Toolbox           |
|  \\    /   O peration     | Version:  4.x                                   |
|   \\  /    A nd           | Web:      www.OpenFOAM.org                      |
|    \\/     M anipulation  |                                                 |
\*---------------------------------------------------------------------------*/
FoamFile
{
    version     2.0;
    format      ascii;
    class       volScalarField;
    location    "35.5";
    object      QWallFluid;
}
// * * * * * * * * * * * * * * * * * * * * * * * * * * * * * * * * * * * * * //

dimensions      [1 -1 -3 0 0 0 0];

internalField   nonuniform List<scalar> 
132
(
1.70958e+09
9.64828e+08
1.84912e+09
1.21527e+09
1.97294e+09
1.39189e+09
2.07293e+09
1.52195e+09
2.18057e+09
8.57872e+08
4.6051e+08
9.06947e+08
5.56332e+08
9.56172e+08
6.27356e+08
9.9544e+08
6.79502e+08
1.03189e+09
0
4.47791e+08
8.96324e+08
5.27157e+08
9.30485e+08
5.84441e+08
9.6144e+08
6.18172e+08
9.7523e+08
8.59852e+08
4.47779e+08
8.98226e+08
8.47544e+08
4.29389e+08
8.7208e+08
4.81317e+08
8.97092e+08
5.20618e+08
9.20505e+08
5.45717e+08
9.4116e+08
0
0
0
0
0
0
0
0
0
0
0
0
0
0
0
0
0
0
0
0
0
0
0
8.35235e+08
4.17961e+08
8.52173e+08
4.55136e+08
8.73358e+08
4.87816e+08
8.94992e+08
5.08054e+08
9.19693e+08
0
0
0
0
0
0
0
0
0
0
0
0
0
0
0
0
0
0
0
0
0
0
0
0
0
8.32922e+08
4.1461e+08
8.45199e+08
4.40625e+08
8.55272e+08
4.50871e+08
8.62881e+08
4.49647e+08
8.65158e+08
0
0
0
0
0
0
0
0
0
0
0
0
0
0
0
0
0
0
0
0
0
0
0
0
0
0
0
)
;

boundaryField
{
    inlet
    {
        type            calculated;
        value           uniform 0;
    }
    outlet
    {
        type            calculated;
        value           nonuniform 0();
    }
    wall
    {
        type            calculated;
        value           uniform 0;
    }
    procBoundary0to1
    {
        type            processor;
        value           nonuniform List<scalar> 
12
(
1.61274e+09
7.11242e+08
6.2477e+08
5.55904e+08
0
0
5.15853e+08
0
0
4.1083e+08
0
0
)
;
    }
    procBoundary0to2
    {
        type            processor;
        value           nonuniform List<scalar> 
44
(
5.27661e+08
9.29706e+08
5.89944e+08
9.62603e+08
6.26966e+08
9.93188e+08
8.46549e+08
4.27736e+08
5.27661e+08
8.77905e+08
5.27661e+08
9.29706e+08
0
0
0
0
0
0
0
0
0
0
0
0
0
0
0
0
0
0
0
0
0
0
0
0
0
0
0
0
0
0
0
0
)
;
    }
    procBoundary0to4
    {
        type            processor;
        value           nonuniform List<scalar> 
36
(
8.27031e+08
4.17699e+08
8.36295e+08
4.39713e+08
8.48601e+08
4.54673e+08
8.59554e+08
4.58641e+08
8.71899e+08
0
0
0
0
0
0
0
0
0
0
0
0
0
0
0
0
0
0
0
0
0
0
0
0
0
0
0
)
;
    }
    procBoundary0to6
    {
        type            processor;
        value           uniform 0;
    }
    procBoundary0to7
    {
        type            processor;
        value           uniform 0;
    }
}


// ************************************************************************* //
