/*--------------------------------*- C++ -*----------------------------------*\
  =========                 |
  \\      /  F ield         | OpenFOAM: The Open Source CFD Toolbox
   \\    /   O peration     | Website:  https://openfoam.org
    \\  /    A nd           | Version:  4.x
     \\/     M anipulation  |
\*---------------------------------------------------------------------------*/
FoamFile
{
    version     2.0;
    format      ascii;
    class       vectorField;
    location    0;
    object      v;
}
// * * * * * * * * * * * * * * * * * * * * * * * * * * * * * * * * * * * * * //

356
(
( 1.28601e-08 -2.22715e-08 -1.62577e-08 )  
( -1.68305e-09 -2.05967e-08 -1.52708e-08 )  
( -1.17534e-07 2.17182e-08 1.55881e-10 )  
( 1.48491e-08 -1.15998e-08 -1.23588e-08 )  
( -2.96401e-08 -1.96353e-09 -1.66171e-08 )  
( 1.49053e-08 -3.24672e-09 -1.05653e-08 )  
( -9.70995e-08 -1.54223e-08 -1.28109e-08 )  
( -1.67821e-08 -1.60071e-08 -7.15466e-09 )  
( 1.74215e-08 -5.70144e-09 -7.74743e-09 )  
( 1.59046e-08 -1.51662e-08 -8.20523e-09 )  
( 1.01694e-08 -4.08099e-09 -4.61521e-09 )  
( -7.22991e-08 -2.74483e-09 -1.79347e-08 )  
( -8.47999e-08 -4.0889e-09 -1.51203e-08 )  
( -1.13216e-07 -7.18873e-10 -1.25287e-08 )  
( -2.24445e-09 -1.66636e-08 -1.90318e-08 )  
( -4.63161e-08 -1.33482e-08 -2.23052e-08 )  
( -8.35253e-08 -2.10665e-08 -1.16646e-08 )  
( -1.00921e-07 -1.81772e-08 -1.6819e-08 )  
( -1.50346e-08 -1.56871e-08 -1.7364e-08 )  
( -1.13283e-07 2.78365e-09 -1.33804e-09 )  
( -1.32604e-07 1.55933e-08 -2.27528e-08 )  
( -9.03321e-08 4.48275e-09 -3.81452e-09 )  
( 1.75046e-09 -1.8822e-08 -1.47689e-08 )  
( -3.03929e-08 -1.8905e-08 -5.64175e-09 )  
( -9.45009e-08 -1.52103e-09 -1.10455e-08 )  
( 4.29554e-09 -1.52416e-08 -1.97141e-08 )  
( 1.14154e-08 -1.47856e-08 -1.73966e-08 )  
( -8.58042e-08 9.11521e-09 -2.01692e-08 )  
( 1.30596e-08 -7.01229e-09 -6.9228e-09 )  
( 7.60176e-09 -1.09924e-08 -1.05075e-08 )  
( -5.27026e-08 2.71444e-09 -1.63141e-08 )  
( -2.19144e-08 -1.29366e-08 -1.2226e-08 )  
( -1.08688e-07 1.76951e-08 -7.42532e-09 )  
( 1.30795e-08 -8.1661e-09 -6.4156e-09 )  
( -2.05241e-08 -1.84599e-08 -7.15526e-09 )  
( 1.76062e-08 -4.43091e-09 -4.68224e-09 )  
( -5.12705e-08 -2.87726e-08 -1.94735e-08 )  
( 1.56858e-08 -4.90693e-09 -9.36451e-09 )  
( -2.66271e-09 -1.07788e-08 -5.48764e-09 )  
( 1.5725e-08 -7.07041e-09 -6.36396e-09 )  
( -2.59715e-09 -1.00153e-08 -8.71891e-09 )  
( -3.95658e-08 -2.65044e-08 -1.63558e-08 )  
( -4.4486e-08 -2.44418e-08 -1.39459e-08 )  
( -1.24481e-07 9.65566e-09 -1.61461e-08 )  
( -7.92588e-08 -1.92691e-08 -1.31792e-08 )  
( -3.64876e-09 -6.16951e-09 -4.45567e-09 )  
( -8.5577e-08 -1.51054e-08 -5.11727e-09 )  
( 1.73798e-08 -8.05149e-09 -6.42556e-09 )  
( -5.56181e-08 -1.45411e-08 -7.98889e-09 )  
( -1.01086e-08 -8.61303e-09 -3.23156e-09 )  
( -3.5171e-09 -1.70248e-08 -1.869e-08 )  
( -1.31886e-08 -1.37839e-08 -2.32052e-09 )  
( -6.83693e-08 -1.57325e-08 -9.9023e-09 )  
( -5.41136e-08 -2.0515e-08 -4.31478e-09 )  
( 5.9502e-10 -1.68017e-08 -1.92852e-08 )  
( -2.81363e-08 -1.53752e-08 -1.23176e-08 )  
( -3.76402e-09 -1.18755e-08 -1.82562e-08 )  
( -6.64122e-08 -2.19203e-08 -1.02867e-08 )  
( 1.29687e-08 -1.01361e-08 -9.10843e-09 )  
( 8.75028e-09 -1.52532e-08 -1.38122e-08 )  
( 1.62808e-08 -8.43433e-09 -6.67986e-09 )  
( -2.56517e-08 -2.01176e-08 -4.66408e-09 )  
( 2.47589e-08 -7.41164e-09 -6.74886e-09 )  
( 3.37571e-09 -1.18942e-08 -1.23e-08 )  
( -1.20024e-08 -1.27838e-08 -5.30576e-09 )  
( 9.17079e-09 -3.70002e-09 -3.3664e-09 )  
( -1.26459e-07 1.2897e-08 -9.25503e-09 )  
( -3.66168e-08 -2.22479e-08 -9.46206e-09 )  
( -3.61378e-08 -1.69079e-08 -1.5249e-08 )  
( -5.01122e-08 -3.6124e-09 -7.04072e-09 )  
( -7.60647e-08 -2.01193e-08 -1.86292e-08 )  
( -8.81728e-08 -1.49828e-08 -1.17428e-08 )  
( -3.3239e-08 -1.82726e-08 -9.16603e-09 )  
( -2.74594e-08 -1.28158e-08 -2.29234e-08 )  
( 1.59772e-08 -8.08629e-09 -7.43084e-09 )  
( 1.44702e-08 -1.05827e-08 -1.73468e-08 )  
( 1.41087e-08 -1.74944e-09 -4.31239e-09 )  
( 3.87428e-09 -1.77328e-08 -1.86477e-08 )  
( -7.69116e-08 -1.5909e-08 -1.79356e-08 )  
( -5.82213e-08 -2.271e-08 -1.3147e-08 )  
( 3.24505e-09 -6.12651e-09 -1.4923e-09 )  
( 1.08083e-08 -9.88584e-09 -9.6261e-09 )  
( 9.83785e-09 -6.94438e-09 -1.05958e-08 )  
( -7.65984e-09 -2.0073e-08 -1.3684e-08 )  
( 1.36148e-08 -4.62727e-09 -6.9663e-09 )  
( 1.37122e-08 -1.1702e-08 -1.28855e-08 )  
( 7.43608e-09 -1.25401e-08 -1.24167e-08 )  
( -8.70796e-08 -2.25702e-08 -1.65105e-08 )  
( 6.58112e-09 -1.7505e-09 -3.42901e-09 )  
( 8.13059e-09 8.02592e-10 -2.33393e-09 )  
( -8.71131e-08 -1.07457e-08 -1.5259e-08 )  
( -2.18493e-08 -1.90645e-08 -1.08515e-08 )  
( -3.02818e-08 -1.87391e-09 -1.34439e-08 )  
( -4.75512e-08 -1.44282e-08 -1.43243e-10 )  
( -7.17931e-09 -1.47398e-08 -4.77132e-09 )  
( 7.07955e-09 -1.42223e-08 -1.56282e-08 )  
( 8.03633e-09 -2.73543e-09 -5.46692e-09 )  
( -8.07956e-09 -1.84786e-08 -2.2056e-08 )  
( -8.07154e-08 7.9913e-09 -9.07871e-09 )  
( -6.09512e-08 -2.07678e-08 -7.24293e-09 )  
( -1.27831e-07 1.94341e-09 -7.59174e-09 )  
( -1.09867e-07 -6.03804e-09 -8.99992e-09 )  
( 1.61935e-08 -4.00984e-09 -6.87414e-09 )  
( -5.18492e-08 1.64376e-09 -6.31058e-09 )  
( -5.68837e-08 -1.04531e-08 3.45324e-09 )  
( 1.28923e-08 -5.76162e-09 -5.50761e-09 )  
( -1.15831e-08 -1.59289e-08 -1.99003e-08 )  
( -8.5394e-08 -2.23597e-09 -1.17179e-08 )  
( -2.15831e-08 -2.39308e-08 -8.28434e-09 )  
( -2.98599e-08 -7.34592e-09 -1.64346e-08 )  
( -1.10528e-08 -7.88999e-09 -1.42689e-08 )  
( -1.63185e-08 -1.99224e-08 -6.01251e-09 )  
( -7.68005e-08 -1.04216e-08 -1.12001e-08 )  
( -7.06963e-08 -1.47282e-08 -7.23143e-09 )  
( 1.49369e-08 -1.23345e-08 -1.16364e-08 )  
( -1.0112e-07 2.76378e-09 -2.34393e-09 )  
( -1.37062e-08 -1.34648e-08 -3.22061e-09 )  
( -8.19659e-08 -1.30839e-08 -1.15181e-08 )  
( -1.20746e-07 1.31562e-08 -3.26287e-09 )  
( -5.55719e-08 -2.43572e-08 -8.49196e-09 )  
( 7.16111e-09 -3.84125e-09 -9.97251e-09 )  
( -2.61167e-08 2.37673e-09 -4.67076e-09 )  
( -9.47097e-09 -9.52747e-09 2.97515e-09 )  
( -5.52673e-08 -1.8872e-08 -1.34625e-08 )  
( 1.37706e-08 -1.04288e-08 -1.33822e-08 )  
( 7.33305e-09 -3.55994e-09 -5.02653e-09 )  
( -4.51529e-08 -2.28128e-08 -8.15621e-09 )  
( -3.7499e-08 -1.48296e-08 -2.02861e-08 )  
( -4.20663e-08 -2.35472e-08 -6.03499e-09 )  
( -7.0822e-09 -1.23881e-08 -2.36093e-08 )  
( -1.02378e-07 -7.45518e-09 -1.43387e-08 )  
( 1.33401e-08 -4.0834e-09 -5.33067e-09 )  
( -1.24194e-08 -1.87002e-08 -1.55172e-08 )  
( 1.30742e-08 -3.82564e-09 -6.17539e-09 )  
( 1.00643e-09 -6.43755e-09 -3.6572e-09 )  
( 1.17783e-08 -1.17285e-08 -5.94906e-09 )  
( 5.00426e-09 -8.60608e-09 -6.92774e-09 )  
( 9.65391e-09 -1.41391e-08 -1.50211e-08 )  
( 5.93543e-09 -2.07892e-09 -5.8847e-09 )  
( -1.28247e-08 -1.43048e-08 -6.58404e-09 )  
( 7.32389e-09 -3.5294e-09 -2.93958e-09 )  
( -4.05072e-08 -1.57566e-08 -6.64508e-09 )  
( 1.33149e-08 -2.12266e-09 -3.03167e-09 )  
( -9.46939e-08 -1.58902e-09 -8.83334e-09 )  
( 8.02278e-09 -4.87918e-09 -4.53704e-09 )  
( -1.79471e-08 -2.25375e-08 -2.43138e-09 )  
( -1.05033e-08 -2.0955e-08 1.22162e-09 )  
( -3.87268e-08 -2.47217e-08 -6.39596e-09 )  
( -2.94078e-08 -1.17719e-08 -6.32231e-09 )  
( 2.25562e-08 -3.06145e-09 -4.35911e-09 )  
( 1.38381e-08 -4.41403e-09 -7.38854e-09 )  
( -1.15268e-07 -8.9801e-09 -7.50908e-09 )  
( -1.91473e-08 -1.95604e-08 -5.15821e-09 )  
( 1.46868e-08 -3.97982e-09 -3.74553e-09 )  
( -1.13881e-07 -8.96138e-09 -1.28921e-08 )  
( -3.57793e-08 -1.72957e-08 -1.17763e-08 )  
( -8.91206e-08 -1.79735e-08 -1.08328e-08 )  
( 1.92502e-08 -1.0073e-08 -5.18867e-09 )  
( 1.57626e-08 -6.7308e-09 -2.15465e-09 )  
( -8.05927e-08 -1.47864e-08 -1.9657e-08 )  
( 1.31906e-08 -8.89669e-09 -4.18108e-09 )  
( -3.74712e-08 -2.39416e-08 -9.01389e-09 )  
( 2.42864e-08 -1.31529e-08 -5.74515e-09 )  
( -9.03166e-09 -1.97546e-08 2.10833e-09 )  
( -5.43731e-08 -1.21706e-08 -1.43412e-08 )  
( -9.48724e-08 3.09088e-09 -8.75147e-09 )  
( 5.11401e-09 -1.2702e-08 -6.73952e-09 )  
( -6.89105e-08 -1.97617e-09 -7.74235e-09 )  
( -9.18705e-08 -9.31366e-09 -1.39334e-08 )  
( -5.9198e-08 -1.66611e-08 -4.68594e-09 )  
( -2.07515e-08 -1.33186e-08 -1.29488e-08 )  
( -1.33888e-08 -1.13146e-08 -4.8561e-09 )  
( -5.90379e-08 -1.77215e-08 -5.93726e-09 )  
( -6.878e-08 5.47645e-09 -1.86476e-09 )  
( 1.30857e-08 -1.63138e-09 -3.76358e-09 )  
( -1.18311e-07 -4.7134e-09 -7.3592e-09 )  
( -9.09404e-08 -1.12644e-08 -1.85032e-08 )  
( 1.75084e-08 -7.17331e-09 -3.99815e-09 )  
( -8.10028e-08 -5.35411e-09 -8.06959e-09 )  
( 1.72269e-08 -7.3938e-09 -3.98292e-09 )  
( -3.18633e-08 -2.28024e-09 -1.62331e-09 )  
( 1.38478e-08 -4.58444e-09 -2.18799e-09 )  
( -1.08131e-07 -3.9856e-09 -1.02522e-08 )  
( 1.8683e-09 -1.01838e-08 2.74445e-10 )  
( -8.36875e-08 -2.08506e-08 -1.39834e-08 )  
( 5.07254e-09 -2.04929e-08 -3.89736e-09 )  
( -3.14487e-08 -2.32189e-08 -8.99002e-09 )  
( 1.94744e-08 -1.1119e-08 -3.9645e-09 )  
( -7.88562e-08 2.65757e-11 -6.05907e-09 )  
( -5.09035e-08 -1.47933e-08 -1.39494e-08 )  
( 6.85525e-09 -3.85402e-09 -1.79813e-09 )  
( -1.1473e-07 -6.86256e-09 -1.23869e-08 )  
( 9.93894e-09 -4.08508e-09 -2.64015e-09 )  
( -1.04865e-07 -1.25438e-08 -1.33379e-08 )  
( -2.61408e-08 -3.11006e-08 -1.40431e-09 )  
( -6.65179e-08 -1.66413e-09 -1.12006e-08 )  
( -2.57439e-08 -2.35777e-08 -6.62884e-09 )  
( 4.77251e-09 -5.38831e-09 -4.21393e-09 )  
( 1.62333e-08 -4.67843e-09 -4.15586e-09 )  
( -1.35324e-08 -8.3428e-09 -5.41115e-09 )  
( 1.63709e-09 -4.23776e-09 -6.61042e-09 )  
( -4.55231e-08 -1.61609e-08 -1.17428e-08 )  
( 7.66411e-09 2.35013e-09 -1.81489e-09 )  
( 6.89978e-09 2.75434e-09 -1.85712e-09 )  
( -6.14435e-08 -1.03205e-08 -2.61396e-09 )  
( -8.30353e-08 -2.30375e-08 -5.86674e-09 )  
( -1.18496e-07 4.73617e-09 -1.07575e-08 )  
( -5.55705e-08 -2.68805e-08 -8.68076e-09 )  
( 8.13617e-09 -1.29235e-09 -1.75418e-09 )  
( -3.46185e-08 -2.44843e-08 -5.52325e-09 )  
( 3.39163e-09 -3.91869e-10 -6.76418e-09 )  
( 1.7442e-08 -6.01612e-09 -9.79603e-10 )  
( 1.12369e-08 -6.02363e-10 -2.76909e-09 )  
( 2.36385e-08 -1.62369e-08 -7.25131e-09 )  
( 1.5077e-08 -4.1396e-09 -2.40801e-09 )  
( 1.53334e-08 -3.92102e-09 -4.79159e-09 )  
( -9.93299e-08 -8.73545e-10 -8.61727e-09 )  
( 1.51616e-08 -1.30587e-08 -7.56316e-09 )  
( -6.43584e-08 -1.57425e-08 -9.65399e-09 )  
( -1.01174e-07 -1.12989e-08 -1.54779e-08 )  
( -2.01879e-08 -1.71002e-08 -1.21321e-08 )  
( -3.1086e-08 -2.9245e-08 -3.58429e-09 )  
( 1.81072e-08 -4.38501e-09 -6.08066e-09 )  
( -1.5973e-08 -3.69184e-09 -8.29594e-10 )  
( -8.70297e-08 -1.47616e-08 -1.48708e-08 )  
( -4.03068e-10 -1.0762e-08 -1.40248e-08 )  
( -3.26619e-08 -2.50744e-08 -5.98956e-09 )  
( 1.30623e-08 -8.92815e-09 -9.59748e-09 )  
( 8.46206e-09 -1.57528e-09 -2.2607e-09 )  
( 8.89693e-09 -1.63752e-08 -1.54441e-08 )  
( -2.87981e-08 -2.3062e-08 -1.32712e-08 )  
( -6.35492e-08 -1.65257e-08 -3.96005e-10 )  
( 1.27071e-08 -5.64565e-09 -9.53781e-09 )  
( -2.58848e-08 -1.05204e-08 -8.80664e-09 )  
( 1.17552e-08 -1.05605e-08 -1.38134e-08 )  
( -1.92944e-08 -1.33035e-08 -1.62342e-08 )  
( -9.35347e-08 -1.18614e-08 -1.91457e-08 )  
( 1.21235e-08 -1.25e-09 -1.25963e-09 )  
( 1.3094e-09 -7.12989e-09 -1.10793e-08 )  
( 1.50729e-08 -4.55489e-09 -5.42888e-09 )  
( -1.08499e-07 -1.01594e-08 -1.20345e-08 )  
( 1.11617e-08 -8.01185e-09 -6.4683e-09 )  
( -4.02742e-09 -9.99088e-09 -5.37505e-11 )  
( -6.01819e-08 -1.43214e-08 -3.5603e-09 )  
( -2.82137e-08 -1.52251e-08 -1.06399e-08 )  
( -7.31852e-08 -1.29712e-08 -3.13013e-09 )  
( -8.57478e-08 -1.41555e-08 -1.90339e-08 )  
( 1.538e-08 -3.3903e-09 -2.45658e-09 )  
( -2.46333e-08 -2.10029e-08 -8.61604e-09 )  
( 9.79373e-09 -1.42271e-08 -1.10473e-08 )  
( 7.41658e-09 -1.2404e-09 -1.17516e-09 )  
( 2.18908e-08 -6.76748e-09 -5.89801e-09 )  
( 4.7762e-09 -1.8646e-08 -1.53251e-08 )  
( 1.42395e-08 -1.55909e-08 1.53723e-10 )  
( 6.16182e-09 -4.75918e-09 -2.93374e-09 )  
( -1.23933e-07 2.27449e-12 -1.5549e-08 )  
( -6.06818e-08 -2.32432e-08 -1.71104e-08 )  
( -1.75884e-08 -9.96619e-09 -4.82072e-09 )  
( 1.17447e-08 -9.32389e-09 -8.79235e-09 )  
( -4.08546e-09 -8.56062e-09 -2.93729e-09 )  
( 1.18549e-08 -3.86926e-09 -6.72671e-09 )  
( 1.89008e-09 -9.54179e-09 -1.05863e-08 )  
( 9.96377e-09 -1.63562e-08 -1.13083e-08 )  
( -2.76504e-08 -6.9212e-09 -1.23646e-08 )  
( 1.27806e-08 -7.03921e-09 -8.48573e-09 )  
( 2.03635e-08 -6.56976e-09 -5.86186e-09 )  
( -1.25838e-07 1.74114e-08 -6.42303e-09 )  
( -9.36943e-09 -1.24345e-08 -1.64537e-08 )  
( -8.49099e-09 -5.47712e-09 6.79742e-10 )  
( -5.75016e-08 -2.15366e-08 -8.77863e-09 )  
( -9.22958e-08 -1.46721e-08 -2.16649e-08 )  
( -1.05561e-07 9.56253e-09 -1.21228e-08 )  
( -1.03443e-07 -8.98071e-09 -9.69387e-09 )  
( -1.26023e-07 -5.35345e-09 -5.8389e-09 )  
( -5.162e-08 -1.78748e-08 -3.287e-09 )  
( -5.93805e-10 -2.26525e-08 -5.15144e-09 )  
( 1.30902e-08 -3.65051e-09 -3.1289e-09 )  
( -7.56844e-08 4.76222e-09 -1.21716e-08 )  
( -1.04353e-07 -1.04888e-08 -1.09828e-08 )  
( -2.28945e-08 -1.7805e-08 -1.06361e-08 )  
( 8.00258e-09 -1.57086e-08 -1.20015e-08 )  
( 9.40786e-09 -1.81471e-09 -2.49506e-09 )  
( -4.73599e-08 -1.54557e-08 -1.57427e-08 )  
( -4.62898e-08 -1.10926e-08 -9.50889e-09 )  
( -1.08699e-08 -1.82135e-08 -8.19386e-09 )  
( -8.21207e-09 -2.37473e-08 -7.86202e-09 )  
( -7.09698e-08 -1.71941e-08 -1.9371e-08 )  
( -3.479e-08 -1.85346e-08 -5.43792e-09 )  
( 8.41253e-09 -6.13504e-11 -2.14101e-09 )  
( 2.13759e-08 -1.14845e-08 -4.84125e-09 )  
( 1.67842e-08 -5.62684e-09 -5.80791e-09 )  
( -6.21504e-08 -1.62519e-08 -1.54767e-08 )  
( -5.7845e-08 -1.62679e-08 -5.66791e-09 )  
( -4.77392e-08 -1.05146e-08 -4.02182e-10 )  
( -8.26832e-09 -1.19967e-08 -1.13607e-08 )  
( 3.01013e-09 -1.43136e-08 -1.22886e-08 )  
( -1.2564e-07 7.65493e-10 -7.48962e-09 )  
( 1.81465e-08 -7.59067e-09 -4.94556e-09 )  
( 1.07284e-08 -2.79987e-09 -2.98649e-09 )  
( -1.40437e-08 -9.65238e-09 -1.24915e-08 )  
( -9.85047e-08 -1.22674e-08 -9.55267e-09 )  
( 3.80215e-09 -5.14887e-09 -5.31761e-09 )  
( 2.05798e-08 -6.53847e-09 -4.89409e-09 )  
( -3.1031e-08 -2.75647e-08 -1.12349e-08 )  
( -6.86419e-08 -2.02828e-08 -1.07504e-08 )  
( -4.08069e-09 -1.05725e-08 -5.80838e-09 )  
( 9.8968e-09 -3.64645e-09 -7.35425e-09 )  
( 1.30549e-08 -8.94407e-09 -9.26335e-09 )  
( 4.53607e-09 -1.50404e-08 -1.74618e-08 )  
( 1.0206e-08 -1.59346e-08 -1.19591e-08 )  
( 1.17268e-08 -3.50131e-09 -7.27025e-09 )  
( -4.56933e-08 -9.56881e-09 -6.74175e-09 )  
( -1.22259e-07 6.58704e-09 -8.01668e-09 )  
( -1.30383e-07 5.47913e-10 -1.15719e-08 )  
( 1.45489e-09 -1.68311e-08 -2.06773e-08 )  
( -8.45309e-08 2.02702e-08 -1.81565e-08 )  
( 1.36931e-08 -5.25364e-09 -5.18449e-09 )  
( -5.14785e-10 -1.46936e-08 -1.90465e-08 )  
( -9.1566e-09 -2.17539e-08 -2.75378e-08 )  
( -1.06818e-07 -7.5803e-09 -7.80652e-09 )  
( -7.02427e-08 -1.75859e-08 -1.15969e-08 )  
( -3.29496e-08 -4.74522e-09 -9.66791e-09 )  
( -2.18325e-08 -3.09143e-08 -3.06347e-08 )  
( 1.02578e-08 -1.05693e-08 -1.0918e-08 )  
( -1.62926e-08 -1.74679e-08 1.72634e-09 )  
( 2.02806e-08 -8.79766e-09 -1.32917e-08 )  
( -3.50404e-09 -1.95979e-08 -1.62342e-08 )  
( 7.39095e-09 -3.17674e-08 -7.07789e-09 )  
( 2.40741e-08 -7.21599e-09 -6.84194e-09 )  
( -8.23109e-09 -2.71527e-09 -5.0571e-09 )  
( -3.91269e-08 -2.20423e-08 -1.41967e-08 )  
( -4.97845e-08 -1.41394e-08 -1.42268e-08 )  
( -1.18686e-07 -2.04143e-08 -1.44146e-08 )  
( -6.70526e-08 -2.21756e-08 -1.53823e-08 )  
( 4.01204e-09 -2.45101e-08 -1.7811e-08 )  
( 1.32426e-08 -7.83249e-09 -9.47537e-09 )  
( 9.05549e-09 -1.08571e-08 -1.30114e-08 )  
( 1.35685e-08 -5.80163e-09 -7.91043e-09 )  
( 1.1024e-08 -9.50818e-09 -1.26296e-08 )  
( -1.13997e-07 1.34829e-08 -4.77399e-09 )  
( 9.49964e-09 -8.74646e-09 -6.3233e-10 )  
( -4.58604e-08 -3.17352e-08 -1.69597e-08 )  
( -1.41892e-07 7.37453e-09 -2.00364e-08 )  
( 8.02552e-09 -1.42052e-09 -1.90295e-09 )  
( -6.24648e-09 -1.286e-08 -1.51796e-08 )  
( -1.439e-07 -3.8121e-09 -6.97691e-09 )  
( 9.11968e-09 -8.19997e-09 -1.56476e-08 )  
( 1.40398e-08 -7.00206e-09 -7.05068e-09 )  
( -2.12571e-08 -6.83776e-09 -1.86744e-09 )  
( 1.62582e-08 -1.45169e-08 -1.09814e-08 )  
( 5.3497e-09 -3.53416e-09 -4.89901e-09 )  
( -9.79461e-08 -1.66431e-08 -9.95284e-09 )  
( 1.84354e-08 -3.28899e-09 -9.98767e-09 )  
( 7.43304e-09 -7.30322e-09 -4.0541e-09 )  
( -3.05385e-09 -1.87638e-08 -1.78642e-08 )  
( 9.20659e-09 -3.72007e-09 -3.94738e-09 )  
)
