/*--------------------------------*- C++ -*----------------------------------*\
| =========                 |                                                 |
| \\      /  F ield         | OpenFOAM: The Open Source CFD Toolbox           |
|  \\    /   O peration     | Version:  4.x                                   |
|   \\  /    A nd           | Web:      www.OpenFOAM.org                      |
|    \\/     M anipulation  |                                                 |
\*---------------------------------------------------------------------------*/
FoamFile
{
    version     2.0;
    format      ascii;
    class       volScalarField;
    location    "17";
    object      nu;
}
// * * * * * * * * * * * * * * * * * * * * * * * * * * * * * * * * * * * * * //

dimensions      [0 2 -1 0 0 0 0];

internalField   nonuniform List<scalar> 
114
(
1.00019e-06
1.00027e-06
1.00037e-06
1.00041e-06
1.00049e-06
1.00123e-06
1.00015e-06
1.00021e-06
1.00019e-06
1.00017e-06
1.00008e-06
1.00009e-06
9.99592e-07
1.00017e-06
1.00018e-06
1.00017e-06
1.00011e-06
1.00003e-06
9.9992e-07
9.99835e-07
9.99196e-07
1.00005e-06
1.00007e-06
1.0001e-06
1.00015e-06
1.0002e-06
1.00028e-06
1.00031e-06
1.00037e-06
1.00041e-06
1.0001e-06
1.0001e-06
1.00009e-06
1.00006e-06
9.99978e-07
9.99949e-07
9.99864e-07
9.9995e-07
9.99714e-07
1.00012e-06
1.00013e-06
1.00011e-06
1.00005e-06
9.99966e-07
9.99877e-07
9.99781e-07
9.99761e-07
9.98915e-07
1.00014e-06
1.00014e-06
1.00004e-06
1.00005e-06
1.00007e-06
1.0001e-06
1.00013e-06
1.00016e-06
1.00017e-06
1.0002e-06
1e-06
1.00008e-06
1.00009e-06
1.0001e-06
1.00008e-06
1.00006e-06
1.00003e-06
9.99984e-07
9.99996e-07
9.99683e-07
1.00009e-06
1.00011e-06
1.00011e-06
1.0001e-06
1.00007e-06
1.00003e-06
9.99964e-07
9.99944e-07
9.99656e-07
1.00011e-06
1.00013e-06
1.00012e-06
1.00008e-06
1.00003e-06
1.00004e-06
1.00006e-06
1.00008e-06
1.00011e-06
1.00013e-06
1.00015e-06
1.00017e-06
9.90882e-07
1.00004e-06
1.00006e-06
1.00008e-06
1.0001e-06
1.00012e-06
1.00014e-06
1.00016e-06
1.00017e-06
1.00011e-06
1.00005e-06
1.00007e-06
1.00009e-06
1.00011e-06
1.00013e-06
1.00016e-06
1.00017e-06
1.00018e-06
1.00005e-06
1.00006e-06
1.00008e-06
1.0001e-06
1.00013e-06
1.00014e-06
1.00016e-06
)
;

boundaryField
{
    inlet
    {
        type            calculated;
        value           nonuniform 0();
    }
    outlet
    {
        type            calculated;
        value           uniform 1e-06;
    }
    wall
    {
        type            calculated;
        value           nonuniform List<scalar> 
66
(
1.00003e-06
1.00004e-06
1.00005e-06
1.00006e-06
1.00004e-06
1.00006e-06
1.00007e-06
1.00008e-06
1.00006e-06
1.00008e-06
1.00009e-06
1.0001e-06
1.00008e-06
1.0001e-06
1.00011e-06
1.00013e-06
1.00011e-06
1.00012e-06
1.00013e-06
1.00014e-06
1.00013e-06
1.00014e-06
1.00016e-06
1.00016e-06
1.00015e-06
1.00016e-06
1.00017e-06
1.00017e-06
1.00017e-06
1.00018e-06
9.90882e-07
1.00011e-06
1.00005e-06
1.00005e-06
1.00004e-06
1.00003e-06
1.00007e-06
1.00005e-06
1.00004e-06
1.0001e-06
1.00007e-06
1.00006e-06
1.00019e-06
1.00015e-06
1.0001e-06
1.00008e-06
1.00027e-06
1.0002e-06
1.00013e-06
1.00011e-06
1.00037e-06
1.00028e-06
1.00016e-06
1.00013e-06
1.00041e-06
1.00031e-06
1.00017e-06
1.00015e-06
1.00049e-06
1.00037e-06
1.0002e-06
1.00017e-06
1.00123e-06
1.00041e-06
1e-06
9.90882e-07
)
;
    }
    procBoundary5to1
    {
        type            processor;
        value           nonuniform List<scalar> 
32
(
1.0003e-06
1.00042e-06
1.00053e-06
1.00058e-06
1.00064e-06
1.0013e-06
1.00072e-06
1.00065e-06
1.00052e-06
1.00041e-06
1.00023e-06
1.00022e-06
9.99653e-07
1.00024e-06
1.00026e-06
1.00024e-06
1.00013e-06
9.99993e-07
9.99844e-07
9.99773e-07
9.99453e-07
1.00006e-06
1.00007e-06
1.00011e-06
1.00011e-06
1.00011e-06
1.00006e-06
1.0001e-06
1.0001e-06
1.0001e-06
1.00014e-06
1.00014e-06
)
;
    }
    procBoundary5to4
    {
        type            processor;
        value           nonuniform List<scalar> 
12
(
1.00004e-06
1.00009e-06
1.0001e-06
1.00011e-06
1.00002e-06
1.00006e-06
1.00007e-06
1.00008e-06
1.00002e-06
1.00003e-06
1.00003e-06
1.00004e-06
)
;
    }
    procBoundary5to7
    {
        type            processor;
        value           nonuniform List<scalar> 
44
(
1.00022e-06
1.00023e-06
1.00021e-06
1.00015e-06
1.00006e-06
9.99952e-07
9.99844e-07
9.99156e-07
1.00018e-06
1.00022e-06
1.00011e-06
1.00005e-06
9.99959e-07
9.99865e-07
9.99782e-07
9.99738e-07
9.98922e-07
1.00014e-06
1.00011e-06
1.00013e-06
1.00011e-06
1.00005e-06
1.00001e-06
9.99928e-07
9.99834e-07
9.99808e-07
9.9946e-07
1.0001e-06
1.00011e-06
1.00011e-06
1.00001e-06
1.00009e-06
1.00001e-06
9.99928e-07
1.00016e-06
1.00017e-06
9.99824e-07
1.00006e-06
1.00008e-06
1.00011e-06
1.00014e-06
1.00016e-06
1.00016e-06
1.00017e-06
)
;
    }
}


// ************************************************************************* //
