/*--------------------------------*- C++ -*----------------------------------*\
| =========                 |                                                 |
| \\      /  F ield         | OpenFOAM: The Open Source CFD Toolbox           |
|  \\    /   O peration     | Version:  4.x                                   |
|   \\  /    A nd           | Web:      www.OpenFOAM.org                      |
|    \\/     M anipulation  |                                                 |
\*---------------------------------------------------------------------------*/
FoamFile
{
    version     2.0;
    format      ascii;
    class       volScalarField;
    location    "17";
    object      QPartFluidCoeff;
}
// * * * * * * * * * * * * * * * * * * * * * * * * * * * * * * * * * * * * * //

dimensions      [1 -1 -3 -1 0 0 0];

internalField   nonuniform List<scalar> 
114
(
-2.76639e+07
-2.68476e+07
-2.64903e+07
-2.22861e+07
-3.14845e+07
-2.32871e+07
-2.53125e+07
-2.42383e+07
-2.1256e+07
-2.88674e+07
-3.06297e+07
-3.57831e+07
-2.35078e+07
-3.40094e+07
-2.11507e+07
-2.98871e+07
-2.02402e+07
-1.8177e+07
-2.53205e+07
-2.10495e+07
-2.10255e+07
-2.20387e+07
-1.87947e+07
-2.51026e+07
-2.09506e+07
-2.19829e+07
-2.70353e+07
-2.37494e+07
-2.11431e+07
-1.4907e+07
-2.68827e+07
-2.73476e+07
-3.06938e+07
-2.9665e+07
-2.97765e+07
-3.34512e+07
-1.7218e+07
-3.4225e+07
-1.93807e+07
-2.85133e+07
-1.8333e+07
-2.45243e+07
-3.03691e+07
-2.06755e+07
-2.77506e+07
-2.40843e+07
-2.66867e+07
-1.37327e+07
-3.44606e+07
-1.68641e+07
-2.45623e+07
-3.18565e+07
-2.51065e+07
-2.89526e+07
-2.61843e+07
-2.8124e+07
-2.4167e+07
-3.19385e+07
-2.09794e+07
-2.01201e+07
-3.58914e+07
-2.30683e+07
-3.02385e+07
-2.79611e+07
-3.05972e+07
-3.69257e+07
-2.913e+07
-1.82163e+07
-2.49692e+07
-2.58068e+07
-2.62415e+07
-2.45708e+07
-3.83014e+07
-3.101e+07
-3.01401e+07
-3.59353e+07
-2.60496e+07
-1.76037e+07
-3.83239e+07
-3.16e+07
-3.22796e+07
-8.21185e+06
-2.26553e+07
-1.48465e+07
-2.55245e+07
-2.00599e+07
-1.95033e+07
-2.42925e+07
-2.79169e+07
-1.94706e+07
-2.30513e+07
-2.70143e+07
-1.67601e+07
-2.28961e+07
-2.75224e+07
-2.54337e+07
-1.88447e+07
-2.96658e+07
-2.11575e+07
-2.01564e+07
-2.41467e+07
-2.89778e+07
-2.60043e+07
-2.08905e+07
-3.10664e+07
-2.30447e+07
-2.57797e+07
-2.13932e+07
-2.33384e+07
-2.10765e+07
-2.40407e+07
-2.17868e+07
-3.41551e+07
-2.72152e+07
)
;

boundaryField
{
    inlet
    {
        type            calculated;
        value           nonuniform 0();
    }
    outlet
    {
        type            calculated;
        value           uniform 0;
    }
    wall
    {
        type            calculated;
        value           uniform 0;
    }
    procBoundary5to1
    {
        type            processor;
        value           nonuniform List<scalar> 
32
(
727.075
472.103
754.875
608.668
612.607
270.646
476.63
599.487
613.532
684.127
585.088
697.834
307.875
585.609
405.528
831.49
652.393
791.702
544.741
702.869
228.117
503.074
430.313
617.194
617.194
617.194
605.766
935.061
935.061
935.061
460.288
460.288
)
;
    }
    procBoundary5to4
    {
        type            processor;
        value           nonuniform List<scalar> 
12
(
721.159
838.079
510.092
537.612
720.544
782.729
646.559
608.712
613.937
640.966
525.905
523.384
)
;
    }
    procBoundary5to7
    {
        type            processor;
        value           nonuniform List<scalar> 
44
(
693.126
493.935
600.136
840.845
937.352
610.465
498.439
455.915
781.861
693.126
496.167
651.061
524.886
616.868
670.461
760.423
450.323
292.05
496.167
759.424
496.167
651.061
364.405
524.947
590.17
537.366
321.897
654.417
688.068
539.377
364.405
490.48
364.405
524.947
434.538
552.463
367.37
539.27
520.554
561.242
641.243
385.287
434.538
359.169
)
;
    }
}


// ************************************************************************* //
