/*--------------------------------*- C++ -*----------------------------------*\
| =========                 |                                                 |
| \\      /  F ield         | OpenFOAM: The Open Source CFD Toolbox           |
|  \\    /   O peration     | Version:  4.x                                   |
|   \\  /    A nd           | Web:      www.OpenFOAM.org                      |
|    \\/     M anipulation  |                                                 |
\*---------------------------------------------------------------------------*/
FoamFile
{
    version     2.0;
    format      ascii;
    class       volScalarField;
    location    "17";
    object      QWallFluidCoeff;
}
// * * * * * * * * * * * * * * * * * * * * * * * * * * * * * * * * * * * * * //

dimensions      [1 -1 -3 -1 0 0 0];

internalField   nonuniform List<scalar> 
114
(
-3.16264e+06
-1.57839e+06
-3.40847e+06
-1.46778e+06
-3.95589e+06
-1.71453e+06
0
0
0
0
0
0
0
0
0
0
0
0
0
0
0
-1.44019e+06
-2.8495e+06
-1.31698e+06
-2.86692e+06
-1.11756e+06
-2.82907e+06
-794073
-2.47333e+06
-434520
0
0
0
0
0
0
0
0
0
0
0
0
0
0
0
0
0
0
0
0
-1.65535e+06
-2.96794e+06
-1.6509e+06
-3.12317e+06
-1.65435e+06
-3.41686e+06
-1.71454e+06
-4.02259e+06
-2.26747e+06
0
0
0
0
0
0
0
0
0
0
0
0
0
0
0
0
0
0
0
0
0
0
-3.96035e+06
-6.22125e+06
-3.9852e+06
-6.54228e+06
-4.01816e+06
-7.36207e+06
-4.08592e+06
-9.6513e+06
-4.96744e+06
-1.67881e+06
-2.90965e+06
-1.73761e+06
-2.99237e+06
-1.74692e+06
-3.07235e+06
-1.79788e+06
-3.15316e+06
-2.66194e+06
-1.46425e+06
-2.81244e+06
-1.45147e+06
-2.86314e+06
-1.44989e+06
-2.90015e+06
-1.36687e+06
-2.84977e+06
-1.15527e+06
-1.22065e+06
-2.65743e+06
-1.29159e+06
-2.65387e+06
-1.30675e+06
-2.58967e+06
)
;

boundaryField
{
    inlet
    {
        type            calculated;
        value           nonuniform 0();
    }
    outlet
    {
        type            calculated;
        value           uniform 0;
    }
    wall
    {
        type            calculated;
        value           uniform 0;
    }
    procBoundary5to1
    {
        type            processor;
        value           uniform 0;
    }
    procBoundary5to4
    {
        type            processor;
        value           uniform 0;
    }
    procBoundary5to7
    {
        type            processor;
        value           uniform 0;
    }
}


// ************************************************************************* //
