/*--------------------------------*- C++ -*----------------------------------*\
| =========                 |                                                 |
| \\      /  F ield         | OpenFOAM: The Open Source CFD Toolbox           |
|  \\    /   O peration     | Version:  4.x                                   |
|   \\  /    A nd           | Web:      www.OpenFOAM.org                      |
|    \\/     M anipulation  |                                                 |
\*---------------------------------------------------------------------------*/
FoamFile
{
    version     2.0;
    format      ascii;
    class       volScalarField;
    location    "13.5";
    object      magGField;
}
// * * * * * * * * * * * * * * * * * * * * * * * * * * * * * * * * * * * * * //

dimensions      [1 -2 -1 0 0 0 0];

internalField   nonuniform List<scalar> 
108
(
90.7147
45.1116
91.222
46.4588
92.2739
47.148
92.9941
48.2591
93.6514
89.3261
38.1406
86.3733
29.1277
84.4164
20.5742
82.5339
13.0151
80.0878
88.5334
35.4754
83.3848
23.4907
81.937
16.7311
86.6245
27.0203
80.0333
89.202
36.3134
83.9485
26.5221
81.5786
23.1778
83.0894
16.9072
79.423
90.2892
46.5561
92.0975
48.6268
94.1037
51.172
95.8843
51.5105
96.9748
89.5595
41.5856
88.4543
37.4052
87.7243
32.6452
86.2656
26.5089
85.6379
89.0858
39.6672
86.2138
33.0188
85.3332
27.5925
85.2037
23.5706
85.0686
88.1871
37.4646
84.4741
28.2163
81.6823
20.6474
79.8291
13.3936
78.7591
90.8267
49.2786
94.7573
54.4521
95.3347
55.9525
97.9741
58.874
101.452
90.2846
45.7743
91.466
48.5182
92.622
49.8288
94.1831
52.9118
96.8999
89.1034
43.7587
88.924
43.6575
90.3559
45.2372
93.2883
51.2952
95.3155
88.0719
42.9935
88.1085
41.8719
88.3263
42.0877
90.1745
46.5922
91.8179
)
;

boundaryField
{
    inlet
    {
        type            calculated;
        value           uniform 67;
    }
    outlet
    {
        type            calculated;
        value           nonuniform 0();
    }
    wall
    {
        type            calculated;
        value           uniform 0;
    }
    procBoundary4to0
    {
        type            processor;
        value           nonuniform List<scalar> 
36
(
90.8755
46.0708
92.2792
48.6463
92.0177
48.4856
96.1545
52.3243
99.9327
90.0831
39.7824
88.2257
35.4339
87.7882
31.1068
86.2449
26.4149
86.7854
89.3151
38.6986
86.3178
30.4547
85.0204
23.4766
84.2259
18.7413
84.9467
89.4803
37.3099
85.4911
27.7419
84.1491
22.6277
83.6737
19.6751
83.6353
)
;
    }
    procBoundary4to5
    {
        type            processor;
        value           nonuniform List<scalar> 
12
(
46.6414
4.70222
5.9328
5.91429
52.6337
22.2526
20.796
11.7279
63.4882
58.2656
52.3262
49.1403
)
;
    }
    procBoundary4to6
    {
        type            processor;
        value           nonuniform List<scalar> 
27
(
84.5007
33.7551
74.3412
19.9218
56.6258
0.761994
16.7467
87.8185
46.6128
87.2556
38.1492
84.8986
32.3262
85.1234
32.6508
89.3478
25.3642
83.8292
88.9225
44.2238
88.4831
41.3613
88.9673
38.5208
96.1254
56.6357
91.9817
)
;
    }
}


// ************************************************************************* //
