/*--------------------------------*- C++ -*----------------------------------*\
| =========                 |                                                 |
| \\      /  F ield         | OpenFOAM: The Open Source CFD Toolbox           |
|  \\    /   O peration     | Version:  4.x                                   |
|   \\  /    A nd           | Web:      www.OpenFOAM.org                      |
|    \\/     M anipulation  |                                                 |
\*---------------------------------------------------------------------------*/
FoamFile
{
    version     2.0;
    format      ascii;
    class       volScalarField;
    location    "13.5";
    object      Sm;
}
// * * * * * * * * * * * * * * * * * * * * * * * * * * * * * * * * * * * * * //

dimensions      [1 -3 -1 0 0 0 0];

internalField   nonuniform List<scalar> 
108
(
5.19244e-65
7.36235e-65
7.5174e-65
5.58e-65
5.96761e-65
5.65774e-65
7.59536e-65
6.74279e-65
8.91267e-65
7.74991e-65
6.35485e-65
7.36236e-65
8.60242e-65
8.21502e-65
7.51765e-65
6.3552e-65
5.42513e-65
9.06754e-65
6.97493e-65
8.75732e-65
6.66483e-65
8.44736e-65
6.66496e-65
5.96745e-65
6.12254e-65
9.68752e-65
5.6574e-65
4.33999e-65
5.73493e-65
7.5949e-65
5.19246e-65
7.36237e-65
6.35476e-65
9.22241e-65
5.96741e-65
5.96722e-65
5.34743e-65
5.1149e-65
7.05247e-65
7.67255e-65
6.9751e-65
5.27014e-65
4.4177e-65
7.05279e-65
8.21522e-65
5.65738e-65
6.50985e-65
5.81247e-65
6.43253e-65
5.96757e-65
5.96764e-65
6.66521e-65
7.90527e-65
8.13767e-65
4.4174e-65
6.27737e-65
7.82741e-65
7.20748e-65
7.67251e-65
7.28506e-65
6.66511e-65
6.66507e-65
6.82e-65
6.66503e-65
7.20746e-65
5.96747e-65
8.52504e-65
8.44754e-65
6.74251e-65
9.61001e-65
7.90494e-65
6.81968e-65
4.95993e-65
6.66488e-65
4.4175e-65
6.74257e-65
5.73507e-65
8.06013e-65
6.58771e-65
6.89776e-65
7.2077e-65
5.34735e-65
8.75727e-65
5.81248e-65
5.50253e-65
6.20004e-65
7.20762e-65
6.35519e-65
5.65769e-65
7.59518e-65
5.42479e-65
7.36231e-65
7.43995e-65
7.28501e-65
5.73499e-65
6.58758e-65
6.43263e-65
7.51764e-65
6.27758e-65
7.44004e-65
7.05247e-65
5.81249e-65
7.67262e-65
6.97516e-65
9.22268e-65
4.49508e-65
4.8825e-65
6.35482e-65
)
;

boundaryField
{
    inlet
    {
        type            calculated;
        value           uniform 0;
    }
    outlet
    {
        type            calculated;
        value           nonuniform 0();
    }
    wall
    {
        type            calculated;
        value           uniform 0;
    }
    procBoundary4to0
    {
        type            processor;
        value           nonuniform List<scalar> 
36
(
4.57247e-65
4.8824e-65
5.7349e-65
5.34747e-65
6.1226e-65
7.44031e-65
4.80524e-65
4.10765e-65
4.96007e-65
5.50244e-65
8.13731e-65
7.28482e-65
6.74237e-65
5.81245e-65
5.96754e-65
8.37018e-65
6.5876e-65
5.5024e-65
4.57243e-65
4.95985e-65
7.28475e-65
5.73484e-65
7.28481e-65
8.05985e-65
6.7424e-65
5.11489e-65
8.0597e-65
5.26996e-65
5.8898e-65
7.82722e-65
9.22214e-65
4.49482e-65
9.14456e-65
7.12977e-65
5.42481e-65
2.32484e-65
)
;
    }
    procBoundary4to5
    {
        type            processor;
        value           nonuniform List<scalar> 
12
(
6.35498e-65
7.05243e-65
8.21468e-65
9.91915e-65
6.66506e-65
5.42503e-65
6.89738e-65
4.80441e-65
2.63503e-65
6.04509e-65
6.12246e-65
7.362e-65
)
;
    }
    procBoundary4to6
    {
        type            processor;
        value           nonuniform List<scalar> 
27
(
1.0385e-64
7.59495e-65
4.95995e-65
7.43991e-65
9.3773e-65
6.12239e-65
7.36237e-65
6.50978e-65
8.52444e-65
7.6726e-65
7.67249e-65
7.74997e-65
7.6725e-65
5.34758e-65
7.05257e-65
6.27755e-65
5.88994e-65
7.9046e-65
5.03744e-65
5.26988e-65
6.12243e-65
6.89755e-65
6.51014e-65
6.43265e-65
8.68013e-65
8.75748e-65
3.79742e-65
)
;
    }
}


// ************************************************************************* //
