/*--------------------------------*- C++ -*----------------------------------*\
| =========                 |                                                 |
| \\      /  F ield         | OpenFOAM: The Open Source CFD Toolbox           |
|  \\    /   O peration     | Version:  4.x                                   |
|   \\  /    A nd           | Web:      www.OpenFOAM.org                      |
|    \\/     M anipulation  |                                                 |
\*---------------------------------------------------------------------------*/
FoamFile
{
    version     2.0;
    format      ascii;
    class       volScalarField;
    location    "13.5";
    object      thCond;
}
// * * * * * * * * * * * * * * * * * * * * * * * * * * * * * * * * * * * * * //

dimensions      [1 1 -3 -1 0 0 0];

internalField   nonuniform List<scalar> 
108
(
191.808
191.364
191.045
191.016
190.904
190.847
190.631
190.515
190.166
191.387
191.184
190.864
190.585
190.528
190.532
190.51
190.44
190.078
191.31
190.92
190.729
190.425
190.42
190.421
190.326
190.083
190.229
191.358
191.025
190.658
190.529
190.285
190.242
189.987
190.233
190.222
191.751
191.451
191.029
190.735
190.689
190.742
190.688
190.267
190.008
191.509
191.154
190.934
190.675
190.587
190.511
190.379
190.124
189.963
191.424
190.969
190.593
190.368
190.247
190.21
190.17
190.084
190.061
191.062
190.806
190.618
190.191
190.052
190.057
189.847
189.996
190.053
191.748
191.323
191.292
190.855
190.719
190.366
190.4
190.239
190.184
191.491
190.925
190.971
190.8
190.6
190.343
190.341
190.265
190.07
191.298
190.83
190.599
190.408
190.398
190.215
190.227
190.106
190.136
190.973
190.806
190.664
190.248
190.129
189.901
190.24
190.269
190.176
)
;

boundaryField
{
    inlet
    {
        type            zeroGradient;
    }
    outlet
    {
        type            zeroGradient;
    }
    wall
    {
        type            zeroGradient;
    }
    procBoundary4to0
    {
        type            processor;
        value           nonuniform List<scalar> 
36
(
192.184
191.837
191.492
191.379
191.196
191.028
191.146
191.201
191.02
191.85
191.4
191.168
191.054
190.992
190.884
190.677
190.79
190.754
191.788
191.469
191.012
190.871
190.684
190.512
190.573
190.725
190.526
191.622
191.288
190.808
190.549
190.718
190.33
190.408
190.649
190.758
)
;
    }
    procBoundary4to5
    {
        type            processor;
        value           nonuniform List<scalar> 
12
(
190.343
190.138
189.974
189.784
190.229
190.176
190.017
190.027
190.706
190.278
190.119
189.979
)
;
    }
    procBoundary4to6
    {
        type            processor;
        value           nonuniform List<scalar> 
27
(
190.751
190.774
190.778
190.403
190.144
190.283
190.142
190.183
190.02
190.89
190.73
190.54
190.293
190.316
190.169
190.097
190.142
189.971
191.251
191.055
190.728
190.389
190.245
190.133
189.94
189.993
190.327
)
;
    }
}


// ************************************************************************* //
