/*--------------------------------*- C++ -*----------------------------------*\
| =========                 |                                                 |
| \\      /  F ield         | OpenFOAM: The Open Source CFD Toolbox           |
|  \\    /   O peration     | Version:  4.x                                   |
|   \\  /    A nd           | Web:      www.OpenFOAM.org                      |
|    \\/     M anipulation  |                                                 |
\*---------------------------------------------------------------------------*/
FoamFile
{
    version     2.0;
    format      ascii;
    class       volScalarField;
    location    "15.5";
    object      Cs;
}
// * * * * * * * * * * * * * * * * * * * * * * * * * * * * * * * * * * * * * //

dimensions      [1 -3 0 0 0 0 0];

internalField   nonuniform List<scalar> 
114
(
334.897
334.867
334.833
334.834
334.812
334.733
334.936
334.928
334.952
334.967
335.004
334.998
335.172
334.942
334.941
334.957
334.987
335.023
335.062
335.088
335.27
334.98
334.969
334.952
334.928
334.911
334.885
334.884
334.869
334.88
334.969
334.968
334.981
334.999
335.034
335.039
335.068
335.034
335.135
334.961
334.962
334.976
335.003
335.038
335.069
335.099
335.097
335.308
334.954
334.959
334.985
334.978
334.968
334.955
334.946
334.933
334.933
334.928
335.095
334.972
334.969
334.972
334.981
334.995
335.005
335.021
335.012
335.136
334.967
334.964
334.967
334.976
334.992
335.007
335.031
335.034
335.145
334.959
334.957
334.967
334.987
334.987
334.98
334.972
334.962
334.953
334.944
334.938
334.934
338.23
334.982
334.975
334.967
334.958
334.95
334.944
334.941
334.938
334.995
334.98
334.972
334.963
334.954
334.947
334.94
334.939
334.938
335.032
334.976
334.968
334.959
334.952
334.946
334.941
)
;

boundaryField
{
    inlet
    {
        type            calculated;
        value           nonuniform 0();
    }
    outlet
    {
        type            calculated;
        value           uniform 335;
    }
    wall
    {
        type            calculated;
        value           nonuniform List<scalar> 
66
(
334.987
334.982
334.98
334.976
334.98
334.975
334.972
334.968
334.972
334.967
334.963
334.959
334.962
334.958
334.954
334.952
334.953
334.95
334.947
334.946
334.944
334.944
334.94
334.941
334.938
334.941
334.939
334.934
334.938
334.938
338.23
334.995
335.032
334.98
334.985
334.987
334.969
334.978
334.98
334.952
334.968
334.972
334.897
334.928
334.955
334.962
334.867
334.911
334.946
334.953
334.833
334.885
334.933
334.944
334.834
334.884
334.933
334.938
334.812
334.869
334.928
334.934
334.733
334.88
335.095
338.23
)
;
    }
    procBoundary5to1
    {
        type            processor;
        value           nonuniform List<scalar> 
32
(
334.841
334.804
334.771
334.773
334.754
334.8
334.769
334.817
334.879
334.913
334.973
334.974
335.213
334.913
334.917
334.944
334.997
335.047
335.095
335.116
335.242
334.984
334.967
334.935
334.935
334.935
335.003
334.962
334.962
334.962
334.954
334.954
)
;
    }
    procBoundary5to4
    {
        type            processor;
        value           nonuniform List<scalar> 
12
(
334.984
334.968
334.963
334.958
334.99
334.977
334.974
334.968
334.991
334.988
334.986
334.983
)
;
    }
    procBoundary5to7
    {
        type            processor;
        value           nonuniform List<scalar> 
44
(
334.924
334.927
334.944
334.972
335.007
335.045
335.079
335.264
334.935
334.924
334.977
335.006
335.041
335.074
335.095
335.101
335.239
334.96
334.977
334.969
334.977
335.006
335.018
335.047
335.08
335.079
335.191
334.966
334.964
334.968
335.018
334.978
335.018
335.047
334.944
334.946
335.148
334.977
334.967
334.956
334.947
334.941
334.944
334.944
)
;
    }
}


// ************************************************************************* //
