/*--------------------------------*- C++ -*----------------------------------*\
| =========                 |                                                 |
| \\      /  F ield         | OpenFOAM: The Open Source CFD Toolbox           |
|  \\    /   O peration     | Version:  4.x                                   |
|   \\  /    A nd           | Web:      www.OpenFOAM.org                      |
|    \\/     M anipulation  |                                                 |
\*---------------------------------------------------------------------------*/
FoamFile
{
    version     2.0;
    format      ascii;
    class       volScalarField;
    location    "15.5";
    object      ddtVoidfraction;
}
// * * * * * * * * * * * * * * * * * * * * * * * * * * * * * * * * * * * * * //

dimensions      [0 0 -1 0 0 0 0];

internalField   nonuniform List<scalar> 
114
(
-0.008073
-0.00688399
-0.00586858
-0.00508267
-0.00445166
-0.00407439
-0.0101419
-0.00863143
-0.00729554
-0.00616573
-0.00524468
-0.00453584
-0.00414945
-0.01394
-0.0115556
-0.00951219
-0.00789468
-0.00656746
-0.00551026
-0.00474127
-0.00433545
-0.00950543
-0.00923151
-0.008321
-0.00733959
-0.00642056
-0.00553853
-0.00477783
-0.00410846
-0.00378535
-0.0106742
-0.00998682
-0.00889417
-0.00778616
-0.00672677
-0.00573338
-0.0047777
-0.00422959
-0.00390073
-0.0124938
-0.0112666
-0.00980931
-0.00844961
-0.00715134
-0.00598922
-0.00500208
-0.00434417
-0.00403491
-0.0152977
-0.0132149
-0.00803388
-0.0080276
-0.00753194
-0.00683369
-0.00606066
-0.00523854
-0.00440338
-0.00386009
-0.00362702
-0.00879023
-0.00858282
-0.0079361
-0.00714616
-0.00620712
-0.00530975
-0.00454015
-0.00388478
-0.0036649
-0.0100285
-0.00947262
-0.00858242
-0.00757016
-0.00661196
-0.00549498
-0.00461291
-0.00406271
-0.0038185
-0.0116384
-0.0107244
-0.00946883
-0.00822443
-0.00739967
-0.0074309
-0.00710274
-0.00654598
-0.00577027
-0.00496731
-0.00426334
-0.0036943
-0.00349918
-0.00782262
-0.00783639
-0.00742345
-0.00678495
-0.00595282
-0.00503388
-0.0042553
-0.00382835
-0.00359127
-0.00881749
-0.0086016
-0.00809721
-0.00721118
-0.00611825
-0.00524815
-0.00439273
-0.00387319
-0.00369323
-0.0100283
-0.00960429
-0.00877625
-0.0077037
-0.00653622
-0.00541585
)
;

boundaryField
{
    inlet
    {
        type            calculated;
        value           nonuniform 0();
    }
    outlet
    {
        type            calculated;
        value           uniform 0;
    }
    wall
    {
        type            calculated;
        value           nonuniform List<scalar> 
66
(
-0.00739967
-0.00782262
-0.00881749
-0.0100283
-0.0074309
-0.00783639
-0.0086016
-0.00960429
-0.00710274
-0.00742345
-0.00809721
-0.00877625
-0.00654598
-0.00678495
-0.00721118
-0.0077037
-0.00577027
-0.00595282
-0.00611825
-0.00653622
-0.00496731
-0.00503388
-0.00524815
-0.00541585
-0.00426334
-0.0042553
-0.00439273
-0.0036943
-0.00382835
-0.00387319
-0.00349918
-0.00359127
-0.00369323
-0.00950543
-0.00803388
-0.00739967
-0.00923151
-0.0080276
-0.0074309
-0.008321
-0.00753194
-0.00710274
-0.008073
-0.00733959
-0.00683369
-0.00654598
-0.00688399
-0.00642056
-0.00606066
-0.00577027
-0.00586858
-0.00553853
-0.00523854
-0.00496731
-0.00508267
-0.00477783
-0.00440338
-0.00426334
-0.00445166
-0.00410846
-0.00386009
-0.0036943
-0.00407439
-0.00378535
-0.00362702
-0.00349918
)
;
    }
    procBoundary5to1
    {
        type            processor;
        value           nonuniform List<scalar> 
32
(
-0.00891559
-0.00740036
-0.00623443
-0.0053721
-0.00470981
-0.00436044
-0.0117036
-0.00961823
-0.00784521
-0.00652729
-0.00551951
-0.00478721
-0.00443
-0.0170815
-0.0135938
-0.0107813
-0.00852263
-0.00696524
-0.00586088
-0.00509102
-0.00453352
-0.0115561
-0.0108151
-0.0093913
-0.0093913
-0.0093913
-0.0130857
-0.0117963
-0.0117963
-0.0117963
-0.0162072
-0.0162072
)
;
    }
    procBoundary5to4
    {
        type            processor;
        value           nonuniform List<scalar> 
12
(
-0.00895789
-0.0102421
-0.012816
-0.0164948
-0.0072402
-0.00808822
-0.00970056
-0.0117222
-0.00652709
-0.00703664
-0.00824798
-0.00970854
)
;
    }
    procBoundary5to7
    {
        type            processor;
        value           nonuniform List<scalar> 
44
(
-0.0169286
-0.0135376
-0.0106119
-0.00862704
-0.00708
-0.00589626
-0.00501881
-0.00468527
-0.0206987
-0.0169286
-0.0110577
-0.00933144
-0.00772498
-0.00639432
-0.00529507
-0.00459961
-0.00434546
-0.018276
-0.0110577
-0.0153436
-0.0110577
-0.00933144
-0.0070723
-0.00580877
-0.00486308
-0.00424163
-0.00401532
-0.0135326
-0.0120095
-0.0103936
-0.0070723
-0.00889095
-0.0070723
-0.00580877
-0.00466381
-0.00412219
-0.00392287
-0.0113252
-0.0106069
-0.00949546
-0.00832832
-0.00696074
-0.00466381
-0.00582474
)
;
    }
}


// ************************************************************************* //
