/*--------------------------------*- C++ -*----------------------------------*\
| =========                 |                                                 |
| \\      /  F ield         | OpenFOAM: The Open Source CFD Toolbox           |
|  \\    /   O peration     | Version:  4.x                                   |
|   \\  /    A nd           | Web:      www.OpenFOAM.org                      |
|    \\/     M anipulation  |                                                 |
\*---------------------------------------------------------------------------*/
FoamFile
{
    version     2.0;
    format      ascii;
    class       volScalarField;
    location    "15.5";
    object      magGField;
}
// * * * * * * * * * * * * * * * * * * * * * * * * * * * * * * * * * * * * * //

dimensions      [1 -2 -1 0 0 0 0];

internalField   nonuniform List<scalar> 
114
(
114.044
49.3103
127.176
45.9787
156.707
59.6662
17.925
95.2079
23.7707
98.2507
29.9568
93.3425
59.1899
90.5751
12.2703
92.5922
13.0084
93.2645
9.24921
86.8781
10.7224
47.1976
99.407
40.7677
100.627
34.4364
100.389
25.7151
87.073
11.1135
1.50241
81.9981
1.19827
81.2642
4.39667
76.8204
3.77169
62.6451
12.7636
1.42538
79.5356
6.14658
77.8721
4.64608
72.7857
3.35596
64.8263
27.1803
1.4082
75.5632
50.6904
104.335
50.8187
111.752
51.51
126.143
54.5576
155.448
74.4534
15.8776
88.5297
16.4714
91.7924
21.7026
94.7
28.9071
93.6854
63.7754
17.9628
89.3912
19.1357
91.3666
19.0459
91.9653
21.3298
87.0247
27.5648
15.1008
79.7139
9.243
77.0313
60.9484
109.472
63.0765
118.085
65.2157
138.248
66.4282
195.002
84.3022
53.3153
102.209
55.5557
106.315
55.0539
110.432
58.3442
115.414
93.0396
46.6056
98.5029
45.9292
100.935
46.1825
102.655
43.7521
100.836
34.8013
39.7705
92.8052
42.884
92.3703
41.6219
88.8373
)
;

boundaryField
{
    inlet
    {
        type            calculated;
        value           nonuniform 0();
    }
    outlet
    {
        type            calculated;
        value           nonuniform List<scalar> 
12
(
131.017
130.049
23.6394
24.406
28.1651
60.0354
163.829
140.521
61.4471
183.332
204.882
77.1306
)
;
    }
    wall
    {
        type            calculated;
        value           uniform 0;
    }
    procBoundary5to1
    {
        type            processor;
        value           nonuniform List<scalar> 
32
(
109.233
48.0925
122.667
48.4446
159.768
50.2161
20.6693
92.4792
19.6398
95.0662
30.4693
95.0471
70.9869
82.3544
1.0762
82.289
2.96323
81.352
2.37746
72.8208
13.2329
52.8982
108.392
52.2773
52.2773
52.2773
16.2265
91.2351
91.2351
91.2351
16.8682
16.8682
)
;
    }
    procBoundary5to4
    {
        type            processor;
        value           nonuniform List<scalar> 
12
(
97.1209
85.3029
81.3025
78.1167
100.577
88.1654
87.7327
82.183
104.35
98.4334
95.4648
90.4514
)
;
    }
    procBoundary5to7
    {
        type            processor;
        value           nonuniform List<scalar> 
44
(
85.2732
8.99433
83.5248
4.19016
80.2895
6.42086
78.4982
14.0064
16.0895
85.2732
1.17319
72.5431
3.42731
70.8961
11.0466
67.6859
37.2387
1.44098
1.17319
73.9201
1.17319
72.5431
4.89277
72.1783
2.16784
60.9357
11.9984
14.4946
86.1316
8.53037
4.89277
86.6386
4.89277
72.1783
40.2218
80.8496
39.4392
34.1565
92.2007
32.1762
90.071
28.1548
40.2218
85.0049
)
;
    }
}


// ************************************************************************* //
