/*--------------------------------*- C++ -*----------------------------------*\
| =========                 |                                                 |
| \\      /  F ield         | OpenFOAM: The Open Source CFD Toolbox           |
|  \\    /   O peration     | Version:  4.x                                   |
|   \\  /    A nd           | Web:      www.OpenFOAM.org                      |
|    \\/     M anipulation  |                                                 |
\*---------------------------------------------------------------------------*/
FoamFile
{
    version     2.0;
    format      ascii;
    class       volScalarField;
    location    "15.5";
    object      QPartFluid;
}
// * * * * * * * * * * * * * * * * * * * * * * * * * * * * * * * * * * * * * //

dimensions      [1 -1 -3 0 0 0 0];

internalField   nonuniform List<scalar> 
114
(
8.31434e+09
8.11314e+09
8.00766e+09
6.77977e+09
9.57772e+09
7.15602e+09
7.62264e+09
7.27973e+09
6.48548e+09
8.71665e+09
9.35068e+09
1.08531e+10
7.17794e+09
1.01569e+10
6.36321e+09
8.98838e+09
6.17921e+09
5.47874e+09
7.69063e+09
6.31472e+09
6.47614e+09
6.62769e+09
5.61536e+09
7.57287e+09
6.28762e+09
6.66577e+09
8.15487e+09
7.30536e+09
6.41906e+09
4.55642e+09
7.95155e+09
8.1407e+09
9.19619e+09
8.89915e+09
9.07964e+09
1.00902e+10
5.29931e+09
1.03671e+10
5.99329e+09
8.47185e+09
5.44415e+09
7.47048e+09
9.05657e+09
6.30021e+09
8.24228e+09
7.25127e+09
7.87472e+09
4.45578e+09
1.02043e+10
5.09193e+09
7.34506e+09
9.52099e+09
7.52794e+09
8.67943e+09
7.89082e+09
8.45316e+09
7.29788e+09
9.61672e+09
6.29272e+09
6.04582e+09
1.07411e+10
6.97965e+09
9.1002e+09
8.47217e+09
9.21964e+09
1.11455e+10
8.78158e+09
5.47226e+09
7.55695e+09
7.74187e+09
7.94655e+09
7.31782e+09
1.16727e+10
9.33319e+09
9.09963e+09
1.07917e+10
7.91659e+09
5.36622e+09
1.15126e+10
9.63462e+09
9.67471e+09
2.44386e+09
6.7575e+09
4.434e+09
7.64373e+09
6.0252e+09
5.8556e+09
7.30065e+09
8.39562e+09
5.83704e+09
6.93114e+09
8.08855e+09
5.05539e+09
6.876e+09
8.28163e+09
7.64706e+09
5.693e+09
8.94428e+09
6.36951e+09
6.12325e+09
7.27409e+09
8.77555e+09
7.84114e+09
6.34033e+09
9.36486e+09
6.98498e+09
7.76815e+09
6.46889e+09
7.13558e+09
6.36701e+09
7.35374e+09
6.57779e+09
1.03762e+10
8.18714e+09
)
;

boundaryField
{
    inlet
    {
        type            calculated;
        value           nonuniform 0();
    }
    outlet
    {
        type            calculated;
        value           uniform 0;
    }
    wall
    {
        type            calculated;
        value           uniform 0;
    }
    procBoundary5to1
    {
        type            processor;
        value           nonuniform List<scalar> 
32
(
9.63548e+09
6.31113e+09
1.00529e+10
8.18722e+09
8.202e+09
3.64955e+09
6.37637e+09
7.91229e+09
8.21708e+09
9.07817e+09
7.85582e+09
9.28437e+09
4.13637e+09
7.6747e+09
5.34024e+09
1.09379e+10
8.72543e+09
1.04785e+10
7.25813e+09
9.31715e+09
3.08932e+09
6.65994e+09
5.68067e+09
8.19058e+09
8.19058e+09
8.19058e+09
7.97754e+09
1.23179e+10
1.23179e+10
1.23179e+10
6.08564e+09
6.08564e+09
)
;
    }
    procBoundary5to4
    {
        type            processor;
        value           nonuniform List<scalar> 
12
(
9.50627e+09
1.10526e+10
6.74336e+09
7.10185e+09
9.47954e+09
1.03499e+10
8.5627e+09
8.09722e+09
8.03487e+09
8.4392e+09
6.9579e+09
6.93837e+09
)
;
    }
    procBoundary5to7
    {
        type            processor;
        value           nonuniform List<scalar> 
44
(
9.1906e+09
6.58652e+09
7.94158e+09
1.1186e+10
1.24434e+10
8.19628e+09
6.6164e+09
6.16423e+09
1.04622e+10
9.1906e+09
6.53426e+09
8.48103e+09
6.95731e+09
7.99977e+09
8.91741e+09
9.77093e+09
6.33009e+09
3.85521e+09
6.53426e+09
9.96994e+09
6.53426e+09
8.48103e+09
4.88492e+09
6.90879e+09
7.75164e+09
7.01437e+09
4.13123e+09
8.77448e+09
9.10443e+09
7.1836e+09
4.88492e+09
6.48288e+09
4.88492e+09
6.90879e+09
5.79731e+09
7.25209e+09
4.83837e+09
7.2418e+09
6.9165e+09
7.49831e+09
8.48998e+09
5.13673e+09
5.79731e+09
4.74892e+09
)
;
    }
}


// ************************************************************************* //
