/*--------------------------------*- C++ -*----------------------------------*\
| =========                 |                                                 |
| \\      /  F ield         | OpenFOAM: The Open Source CFD Toolbox           |
|  \\    /   O peration     | Version:  4.x                                   |
|   \\  /    A nd           | Web:      www.OpenFOAM.org                      |
|    \\/     M anipulation  |                                                 |
\*---------------------------------------------------------------------------*/
FoamFile
{
    version     2.0;
    format      ascii;
    class       volScalarField;
    location    "15.5";
    object      thCond;
}
// * * * * * * * * * * * * * * * * * * * * * * * * * * * * * * * * * * * * * //

dimensions      [1 1 -3 -1 0 0 0];

internalField   nonuniform List<scalar> 
114
(
190.198
190.006
189.999
189.919
189.887
189.904
190.208
190.221
190.093
189.932
189.74
189.708
189.84
190.061
190.146
189.933
189.947
189.933
189.717
189.851
189.716
190.345
190.392
190.074
190.064
189.847
189.739
189.711
189.825
189.886
190.141
190.061
189.831
189.809
189.601
189.54
189.664
189.502
189.699
189.972
190.129
189.818
189.654
189.616
189.519
189.452
189.49
189.65
189.78
189.985
190.23
189.998
190.021
189.825
189.723
189.683
189.635
189.656
189.798
190.171
189.89
189.946
189.738
189.536
189.491
189.369
189.551
189.749
190.012
189.903
189.71
189.63
189.25
189.341
189.264
189.261
189.362
190.022
189.603
189.44
189.471
190.703
190.255
190.347
189.936
189.882
189.945
189.75
189.78
189.88
190.247
190.114
190.212
189.924
189.628
189.658
189.791
189.648
189.782
190.105
189.949
189.641
189.631
189.503
189.357
189.518
189.51
189.564
189.969
189.903
189.603
189.616
189.263
189.404
)
;

boundaryField
{
    inlet
    {
        type            zeroGradient;
    }
    outlet
    {
        type            zeroGradient;
    }
    wall
    {
        type            zeroGradient;
    }
    procBoundary5to1
    {
        type            processor;
        value           nonuniform List<scalar> 
32
(
190.591
190.614
190.28
190.318
190.568
190.927
190.847
190.644
190.467
190.316
190.268
190.344
190.823
190.654
190.656
190.249
190.205
190.084
190.118
190.161
190.69
190.722
190.637
190.235
190.235
190.235
190.464
190.102
190.102
190.102
190.338
190.338
)
;
    }
    procBoundary5to4
    {
        type            processor;
        value           nonuniform List<scalar> 
12
(
190.157
190.064
190.217
190.212
190.008
189.955
190.052
190.045
190.195
190.062
190.126
190.168
)
;
    }
    procBoundary5to7
    {
        type            processor;
        value           nonuniform List<scalar> 
44
(
189.897
189.953
189.812
189.462
189.393
189.499
189.735
189.559
189.944
189.897
189.754
189.574
189.496
189.418
189.269
189.322
189.464
190.149
189.754
189.687
189.754
189.574
189.529
189.49
189.357
189.447
189.562
189.858
189.692
189.62
189.529
189.676
189.529
189.49
189.599
189.585
189.678
190.021
189.929
189.631
189.607
189.691
189.599
189.824
)
;
    }
}


// ************************************************************************* //
