/*--------------------------------*- C++ -*----------------------------------*\
| =========                 |                                                 |
| \\      /  F ield         | OpenFOAM: The Open Source CFD Toolbox           |
|  \\    /   O peration     | Version:  4.x                                   |
|   \\  /    A nd           | Web:      www.OpenFOAM.org                      |
|    \\/     M anipulation  |                                                 |
\*---------------------------------------------------------------------------*/
FoamFile
{
    version     2.0;
    format      ascii;
    class       volVectorField;
    location    "15.5";
    object      Us;
}
// * * * * * * * * * * * * * * * * * * * * * * * * * * * * * * * * * * * * * //

dimensions      [0 1 -1 0 0 0 0];

internalField   nonuniform List<vector> 
114
(
(8.81429e-06 5.80027e-07 -1.78913e-06)
(5.42348e-06 1.19889e-06 -1.02621e-06)
(5.11227e-06 3.62534e-07 -8.39562e-07)
(3.3198e-06 7.73684e-08 -6.69999e-07)
(1.98246e-06 -3.58999e-08 -4.21661e-07)
(4.79555e-07 -3.53934e-08 -1.18429e-07)
(1.4058e-05 2.1066e-06 -2.00345e-06)
(1.11468e-05 1.53799e-06 -2.01417e-06)
(8.51514e-06 1.44788e-06 -1.48373e-06)
(5.84457e-06 6.0868e-07 -1.1936e-06)
(4.58383e-06 5.40089e-07 -8.133e-07)
(2.32099e-06 2.5049e-07 -3.61144e-07)
(1.17209e-06 1.45375e-08 -1.40916e-07)
(1.78009e-05 3.63342e-06 -4.80334e-06)
(1.22752e-05 2.59356e-06 -3.09575e-06)
(8.3354e-06 2.42168e-06 -2.39511e-06)
(7.0083e-06 1.32514e-06 -2.01305e-06)
(4.36083e-06 8.52501e-07 -1.23933e-06)
(2.9579e-06 2.71569e-07 -7.28526e-07)
(1.59849e-06 2.79792e-07 -4.89794e-07)
(6.19596e-07 -5.04416e-08 -1.83479e-07)
(1.78064e-05 1.24039e-06 -1.60311e-06)
(1.33054e-05 5.91549e-07 -1.77907e-06)
(1.21249e-05 1.14167e-06 -1.87139e-06)
(8.10152e-06 3.13605e-07 -1.34422e-06)
(6.88505e-06 4.72628e-07 -1.1632e-06)
(5.24542e-06 3.58768e-08 -9.18113e-07)
(3.92113e-06 7.92947e-08 -5.07395e-07)
(1.46068e-06 2.49989e-07 -3.20338e-07)
(9.44727e-07 1.0228e-07 -1.15554e-07)
(2.55423e-05 2.645e-06 -2.68981e-06)
(2.01315e-05 1.59453e-06 -2.80996e-06)
(1.48263e-05 1.52778e-06 -2.33018e-06)
(1.19861e-05 1.5886e-06 -1.4303e-06)
(8.99835e-06 1.01005e-06 -1.21434e-06)
(6.22135e-06 5.82402e-07 -9.80737e-07)
(4.18857e-06 5.63206e-07 -6.93037e-07)
(2.71879e-06 2.46341e-07 -5.88645e-07)
(1.29549e-06 2.92514e-08 -2.62436e-08)
(2.14075e-05 2.92655e-06 -4.00034e-06)
(1.60165e-05 2.21307e-06 -3.73466e-06)
(1.29958e-05 1.83884e-06 -2.62662e-06)
(9.35742e-06 1.94509e-06 -2.04455e-06)
(6.99593e-06 1.00145e-06 -1.5462e-06)
(4.89327e-06 7.91823e-07 -1.18385e-06)
(3.16495e-06 2.67432e-07 -7.39108e-07)
(1.92697e-06 2.10566e-07 -4.82818e-07)
(1.13522e-06 8.4807e-08 -1.65887e-07)
(2.02058e-05 4.27533e-06 -4.88772e-06)
(1.45295e-05 2.08044e-06 -4.06878e-06)
(2.15638e-05 1.25823e-06 -1.68391e-06)
(1.57779e-05 1.22812e-06 -1.93589e-06)
(1.28683e-05 2.76304e-07 -1.10518e-06)
(9.10705e-06 3.93323e-07 -9.4445e-07)
(7.84448e-06 -9.60114e-08 -8.64742e-07)
(5.22557e-06 2.83381e-07 -1.21604e-07)
(4.30011e-06 2.55686e-07 -4.14159e-07)
(3.04917e-06 2.25778e-07 -3.6641e-07)
(1.21223e-06 -2.21735e-08 1.17404e-08)
(2.75414e-05 2.43529e-06 -2.6434e-06)
(2.22337e-05 1.2295e-06 -2.40212e-06)
(1.77451e-05 1.04619e-06 -1.4903e-06)
(1.27452e-05 7.87775e-07 -1.90884e-06)
(9.97961e-06 6.99675e-07 -1.41636e-06)
(7.29691e-06 7.55889e-07 -6.84008e-07)
(5.99171e-06 3.94362e-07 -5.38116e-07)
(4.38055e-06 6.71954e-07 -5.28068e-07)
(2.14215e-06 -2.21923e-07 -1.19252e-07)
(2.30331e-05 2.50928e-06 -2.46136e-06)
(2.07849e-05 1.97174e-06 -4.2668e-06)
(1.43121e-05 1.53072e-06 -2.25388e-06)
(1.23377e-05 1.29625e-06 -1.99034e-06)
(8.59551e-06 9.08464e-07 -1.23557e-06)
(5.97475e-06 4.65911e-07 -1.15131e-06)
(4.00578e-06 4.02302e-07 -6.38019e-07)
(2.65461e-06 9.37896e-08 -4.96432e-07)
(1.81284e-06 -1.69533e-07 -2.53581e-07)
(2.40402e-05 3.37116e-06 -3.7279e-06)
(1.96911e-05 2.2221e-06 -3.64703e-06)
(1.38472e-05 1.9002e-06 -2.65666e-06)
(1.03866e-05 1.71288e-06 -1.95033e-06)
(1.1277e-05 2.12889e-06 -1.41713e-06)
(1.16972e-05 -3.02295e-07 -4.01625e-07)
(1.04529e-05 7.93365e-07 -3.64793e-07)
(6.24758e-06 5.077e-07 -2.01947e-08)
(4.20977e-06 3.75309e-09 -1.52848e-07)
(3.21305e-06 7.96885e-07 -1.71061e-07)
(3.68103e-06 1.86271e-07 -4.91269e-07)
(2.4871e-06 -2.40136e-07 -3.85858e-07)
(1.5363e-06 -1.25023e-07 -1.16395e-07)
(2.03147e-05 1.99071e-06 -1.66177e-06)
(1.65114e-05 2.60669e-07 1.81879e-07)
(1.56708e-05 5.75717e-07 -6.61143e-07)
(9.15532e-06 7.49213e-07 -8.27809e-07)
(6.56054e-06 6.66779e-07 -1.07463e-06)
(5.0768e-06 3.30653e-07 8.19883e-09)
(5.56921e-06 2.077e-07 -5.08832e-08)
(3.20826e-06 2.54278e-07 -1.41356e-08)
(1.39806e-06 8.8207e-09 -8.30771e-08)
(1.58626e-05 2.51018e-07 -8.44193e-07)
(1.49351e-05 1.43596e-06 -1.88577e-06)
(1.10448e-05 9.41891e-07 -1.41899e-06)
(9.92288e-06 1.04476e-06 -1.03878e-06)
(6.72702e-06 7.07222e-07 -4.47328e-07)
(5.41904e-06 2.78062e-07 -6.86418e-07)
(3.60267e-06 1.88999e-07 -2.24621e-07)
(2.22682e-06 4.02211e-08 -3.90079e-07)
(1.35589e-06 -1.34692e-07 -6.18582e-08)
(1.52311e-05 4.53293e-07 -3.49664e-07)
(1.30433e-05 9.94913e-07 -1.88545e-06)
(9.81608e-06 9.00276e-07 -9.85827e-07)
(8.53394e-06 8.27368e-07 -1.18603e-06)
(6.81844e-06 6.65255e-07 -4.14272e-07)
(3.46246e-06 2.50671e-07 -5.11503e-07)
)
;

boundaryField
{
    inlet
    {
        type            zeroGradient;
    }
    outlet
    {
        type            zeroGradient;
    }
    wall
    {
        type            zeroGradient;
    }
    procBoundary5to1
    {
        type            processor;
        value           nonuniform List<vector> 
32
(
(8.71108e-06 1.31312e-06 -1.29383e-06)
(6.35918e-06 6.85413e-07 -9.39503e-07)
(4.50014e-06 3.05727e-07 -7.08598e-07)
(3.33986e-06 3.5354e-07 -5.41665e-07)
(1.94167e-06 1.57958e-07 -2.74856e-07)
(1.04744e-06 -1.08246e-07 -4.56125e-08)
(1.35662e-05 2.12033e-06 -2.61065e-06)
(1.05019e-05 1.87977e-06 -2.46203e-06)
(7.73444e-06 9.15584e-07 -1.50016e-06)
(6.0213e-06 9.28359e-07 -1.2335e-06)
(3.75027e-06 5.89483e-07 -7.00077e-07)
(2.08271e-06 2.34245e-07 -4.57867e-07)
(6.70639e-07 2.24976e-08 -4.73512e-08)
(1.46826e-05 4.62223e-06 -4.82274e-06)
(1.27631e-05 3.21964e-06 -3.32891e-06)
(8.65714e-06 2.28052e-06 -2.83606e-06)
(6.13985e-06 1.64657e-06 -1.9386e-06)
(4.30329e-06 8.47047e-07 -1.15873e-06)
(2.48061e-06 5.1911e-07 -7.35557e-07)
(1.47852e-06 3.86677e-07 -4.38161e-07)
(4.93085e-07 6.36695e-08 -1.12435e-07)
(1.59271e-05 1.40525e-06 -3.14877e-06)
(1.20121e-05 5.89837e-07 -1.14076e-06)
(1.04209e-05 8.56917e-07 -1.19631e-06)
(1.04209e-05 8.56917e-07 -1.19631e-06)
(1.04209e-05 8.56917e-07 -1.19631e-06)
(2.54224e-05 3.64996e-06 -4.28908e-06)
(1.96614e-05 2.35816e-06 -3.73514e-06)
(1.96614e-05 2.35816e-06 -3.73514e-06)
(1.96614e-05 2.35816e-06 -3.73514e-06)
(2.17304e-05 4.43373e-06 -5.7361e-06)
(2.17304e-05 4.43373e-06 -5.7361e-06)
)
;
    }
    procBoundary5to4
    {
        type            processor;
        value           nonuniform List<vector> 
12
(
(1.80854e-05 4.81285e-07 -1.41763e-06)
(3.11046e-05 2.96865e-06 -4.41776e-06)
(2.74597e-05 3.13885e-06 -5.99336e-06)
(2.57755e-05 4.13728e-06 -5.6118e-06)
(2.34467e-05 1.96467e-06 -2.23803e-06)
(3.21424e-05 1.38589e-06 -2.67778e-06)
(3.15464e-05 2.29663e-06 -2.37794e-06)
(2.82005e-05 2.93334e-06 -2.24144e-06)
(1.40669e-05 1.54635e-06 -6.94839e-07)
(2.13129e-05 1.85474e-06 -2.37927e-07)
(2.03161e-05 5.72495e-07 -1.74051e-06)
(2.30962e-05 4.98851e-07 -2.27019e-06)
)
;
    }
    procBoundary5to7
    {
        type            processor;
        value           nonuniform List<vector> 
44
(
(1.47821e-05 4.34327e-06 -5.90082e-06)
(1.22081e-05 2.77095e-06 -4.08977e-06)
(7.79858e-06 2.44572e-06 -3.12346e-06)
(6.00377e-06 1.49085e-06 -1.93688e-06)
(4.12509e-06 1.26011e-06 -1.47102e-06)
(2.57096e-06 4.48958e-07 -9.09824e-07)
(1.4178e-06 3.20177e-07 -5.50978e-07)
(4.3808e-07 3.6431e-08 -1.48125e-07)
(1.95615e-05 4.56281e-06 -7.01122e-06)
(1.47821e-05 4.34327e-06 -5.90082e-06)
(1.15196e-05 1.82732e-06 -3.39761e-06)
(8.65804e-06 1.95448e-06 -2.57731e-06)
(6.08202e-06 1.25335e-06 -1.68773e-06)
(4.48807e-06 1.07139e-06 -1.2179e-06)
(2.88534e-06 5.77182e-07 -8.27387e-07)
(1.75981e-06 2.60706e-07 -5.12649e-07)
(8.81188e-07 6.88465e-08 -1.03352e-07)
(2.00358e-05 3.67182e-06 -6.50299e-06)
(1.15196e-05 1.82732e-06 -3.39761e-06)
(1.52959e-05 2.57259e-06 -4.89462e-06)
(1.15196e-05 1.82732e-06 -3.39761e-06)
(8.65804e-06 1.95448e-06 -2.57731e-06)
(7.81183e-06 1.37088e-06 -1.42467e-06)
(5.85391e-06 5.90504e-07 -1.5119e-06)
(3.68883e-06 6.12126e-07 -8.87625e-07)
(2.33663e-06 2.62587e-07 -4.96061e-07)
(8.73315e-07 -1.77924e-08 -1.55538e-07)
(2.47109e-05 2.51426e-06 -4.61234e-06)
(1.64466e-05 2.12952e-06 -4.30929e-06)
(1.37745e-05 2.3075e-06 -2.55507e-06)
(7.81183e-06 1.37088e-06 -1.42467e-06)
(8.93177e-06 1.40814e-06 -1.87034e-06)
(7.81183e-06 1.37088e-06 -1.42467e-06)
(5.85391e-06 5.90504e-07 -1.5119e-06)
(3.22622e-06 3.66663e-07 -3.75968e-07)
(1.95448e-06 2.23116e-07 -2.40131e-07)
(9.14705e-07 -7.09212e-08 -1.6713e-07)
(2.19401e-05 -6.6962e-07 -2.04543e-06)
(1.44411e-05 1.10945e-06 -2.05553e-06)
(1.03674e-05 1.09263e-06 -1.53907e-06)
(6.77908e-06 7.86119e-07 -8.91545e-07)
(6.61214e-06 2.44401e-07 -6.21433e-07)
(3.22622e-06 3.66663e-07 -3.75968e-07)
(4.74229e-06 3.08361e-07 -6.29473e-07)
)
;
    }
}


// ************************************************************************* //
