/*--------------------------------*- C++ -*----------------------------------*\
| =========                 |                                                 |
| \\      /  F ield         | OpenFOAM: The Open Source CFD Toolbox           |
|  \\    /   O peration     | Version:  4.x                                   |
|   \\  /    A nd           | Web:      www.OpenFOAM.org                      |
|    \\/     M anipulation  |                                                 |
\*---------------------------------------------------------------------------*/
FoamFile
{
    version     2.0;
    format      ascii;
    class       volScalarField;
    location    "8";
    object      Qsource;
}
// * * * * * * * * * * * * * * * * * * * * * * * * * * * * * * * * * * * * * //

dimensions      [1 -1 -3 0 0 0 0];

internalField   nonuniform List<scalar> 
87
(
5.91455e+09
9.0178e+09
5.51474e+09
8.33117e+09
4.74736e+09
7.46015e+09
6.15145e+09
8.4049e+09
5.79448e+09
4.77183e+09
5.03351e+09
5.53961e+09
6.18953e+09
4.58954e+09
6.82514e+09
7.05474e+09
6.44805e+09
4.39828e+09
3.87404e+09
7.23971e+09
5.3196e+09
9.27297e+09
5.55835e+09
6.02033e+09
4.89722e+09
6.07575e+09
4.12864e+09
7.99865e+09
7.61038e+09
6.98521e+09
8.6862e+09
7.11752e+09
9.0466e+09
9.7637e+09
1.07109e+10
7.55357e+09
9.25045e+09
6.48061e+09
7.47054e+09
9.05004e+09
8.42973e+09
7.38185e+09
8.92715e+09
9.90283e+09
5.20125e+09
8.89598e+09
8.17267e+09
6.86307e+09
6.52382e+09
5.64312e+09
8.79795e+09
8.67787e+09
1.23432e+10
3.84141e+09
8.03451e+09
8.15471e+09
9.31733e+09
1.08887e+10
7.28805e+09
1.13247e+10
8.97384e+09
9.64387e+09
4.49421e+09
9.04132e+09
8.89634e+09
6.43292e+09
8.01243e+09
8.24284e+09
9.07434e+09
7.77366e+09
9.23761e+09
4.25828e+09
8.37464e+09
7.8294e+09
5.48914e+09
1.11008e+10
8.76961e+09
1.05394e+10
7.18666e+09
9.34378e+09
3.05852e+09
7.56669e+09
6.8504e+09
9.39548e+09
8.19357e+09
1.25726e+10
6.15205e+09
)
;

boundaryField
{
    inlet
    {
        type            calculated;
        value           nonuniform 0();
    }
    outlet
    {
        type            calculated;
        value           uniform 0;
    }
    wall
    {
        type            calculated;
        value           uniform 0;
    }
    procBoundary1to0
    {
        type            processor;
        value           nonuniform List<scalar> 
12
(
2.03617e+09
6.37541e+09
9.26987e+09
8.28495e+09
8.51406e+09
6.13298e+09
6.33297e+09
7.65714e+09
5.36296e+09
7.03962e+09
6.96147e+09
9.46296e+09
)
;
    }
    procBoundary1to3
    {
        type            processor;
        value           nonuniform List<scalar> 
27
(
7.45782e+09
4.34039e+09
6.04743e+09
3.84652e+09
4.50591e+09
4.52125e+09
5.54731e+09
5.55093e+09
4.31181e+09
8.17313e+09
7.82056e+09
9.84581e+09
1.02524e+10
8.44383e+09
7.72196e+09
6.8287e+09
8.1001e+09
8.0926e+09
8.42799e+09
1.08772e+10
9.54874e+09
1.03561e+10
6.7409e+09
7.81624e+09
9.19487e+09
7.91367e+09
6.92209e+09
)
;
    }
    procBoundary1to5
    {
        type            processor;
        value           nonuniform List<scalar> 
32
(
9.69581e+09
9.22452e+09
9.45211e+09
7.76513e+09
1.13044e+10
8.5759e+09
7.81668e+09
7.41192e+09
6.50299e+09
8.7838e+09
9.4233e+09
1.10514e+10
7.54589e+09
1.02419e+10
6.44052e+09
8.90156e+09
6.27111e+09
5.46085e+09
7.38215e+09
6.63525e+09
6.70287e+09
7.22414e+09
6.7279e+09
9.69581e+09
7.81668e+09
8.53707e+09
8.16192e+09
7.81668e+09
1.02419e+10
8.24207e+09
1.02419e+10
8.54721e+09
)
;
    }
    procBoundary1to7
    {
        type            processor;
        value           uniform 1.0637e+10;
    }
}


// ************************************************************************* //
