/*--------------------------------*- C++ -*----------------------------------*\
| =========                 |                                                 |
| \\      /  F ield         | OpenFOAM: The Open Source CFD Toolbox           |
|  \\    /   O peration     | Version:  4.x                                   |
|   \\  /    A nd           | Web:      www.OpenFOAM.org                      |
|    \\/     M anipulation  |                                                 |
\*---------------------------------------------------------------------------*/
FoamFile
{
    version     2.0;
    format      ascii;
    class       volScalarField;
    location    "8";
    object      rho;
}
// * * * * * * * * * * * * * * * * * * * * * * * * * * * * * * * * * * * * * //

dimensions      [1 -3 0 0 0 0 0];

internalField   nonuniform List<scalar> 
87
(
6689.76
6689.64
6690.27
6691.64
6693.38
6694.9
6696.63
6697.39
6824.3
6691.16
6693
6695.54
6698.26
6700.49
6702.02
6702.81
6702.64
6704.84
6693.96
6696.7
6699.42
6701.6
6703.06
6703.78
6703.75
6703.28
6704.44
6691.74
6691.72
6692.33
6693.29
6694.86
6696.13
6698.01
6698.9
6748.06
6696.05
6698.1
6700.1
6701.77
6703.08
6703.88
6704.23
6703.66
6707.54
6698.11
6700.08
6701.82
6703.2
6704.11
6704.54
6704.55
6704.14
6705.93
6693.94
6693.84
6694.28
6694.9
6696.03
6696.99
6698.55
6699.35
6726.09
6698.31
6699.8
6701.28
6702.32
6703.33
6703.65
6704.11
6703.67
6707.84
6699.39
6700.79
6702.16
6703.26
6704.03
6704.36
6704.34
6704.02
6706.2
6696.15
6695.92
6696.05
6699.28
6700.33
6699.85
)
;

boundaryField
{
    inlet
    {
        type            calculated;
        value           nonuniform 0();
    }
    outlet
    {
        type            calculated;
        value           uniform 6700;
    }
    wall
    {
        type            calculated;
        value           nonuniform List<scalar> 
57
(
6689.76
6691.16
6693.96
6689.64
6693
6696.7
6690.27
6695.54
6699.42
6691.64
6698.26
6701.6
6693.38
6700.49
6703.06
6694.9
6702.02
6703.78
6696.63
6702.81
6703.75
6697.39
6702.64
6703.28
6824.3
6704.84
6704.44
6689.76
6691.74
6693.94
6696.15
6689.64
6691.72
6693.84
6695.92
6690.27
6692.33
6694.28
6696.05
6691.64
6693.29
6694.9
6693.38
6694.86
6696.03
6694.9
6696.13
6696.99
6696.63
6698.01
6698.55
6697.39
6698.9
6699.35
6824.3
6748.06
6726.09
)
;
    }
    procBoundary1to0
    {
        type            processor;
        value           nonuniform List<scalar> 
12
(
6690.75
6690.66
6691.89
6692.33
6694.44
6696.15
6694.36
6697.02
6698.04
6696.52
6698.4
6698.91
)
;
    }
    procBoundary1to3
    {
        type            processor;
        value           nonuniform List<scalar> 
27
(
6694.88
6697.52
6699.96
6701.86
6703.1
6703.77
6704
6703.94
6719.77
6697.69
6699.53
6701.21
6702.64
6703.63
6704.25
6704.43
6704.3
6706.73
6698.7
6699.81
6700.81
6701.89
6702.81
6703.54
6703.78
6703.69
6703.14
)
;
    }
    procBoundary1to5
    {
        type            processor;
        value           nonuniform List<scalar> 
32
(
6696.33
6696.96
6697.52
6698.69
6699.23
6708.94
6701.41
6702.1
6702.96
6703.03
6703.46
6703.06
6704.35
6700.87
6701.92
6702.82
6703.52
6703.89
6703.82
6703.51
6703.42
6697.67
6697.61
6696.33
6701.41
6697.85
6700.61
6701.41
6700.87
6701.63
6700.87
6700.31
)
;
    }
    procBoundary1to7
    {
        type            processor;
        value           uniform 6699.12;
    }
}


// ************************************************************************* //
