/*--------------------------------*- C++ -*----------------------------------*\
  =========                 |
  \\      /  F ield         | OpenFOAM: The Open Source CFD Toolbox
   \\    /   O peration     | Website:  https://openfoam.org
    \\  /    A nd           | Version:  4.x
     \\/     M anipulation  |
\*---------------------------------------------------------------------------*/
FoamFile
{
    version     2.0;
    format      ascii;
    class       Cloud<passiveParticle>;
    location    0;
    object      positions;
}
// * * * * * * * * * * * * * * * * * * * * * * * * * * * * * * * * * * * * * //

309
(
( 0.21174 -0.00560226 -0.0726879 ) 4
( 0.187247 -0.00943454 -0.045694 ) 34
( 0.22363 -0.0130781 -0.0586427 ) 36
( 0.203218 -0.0136628 -0.0353209 ) 64
( 0.235738 -0.00380199 -0.0713238 ) 36
( 0.220579 -0.00514485 -0.0324807 ) 64
( 0.17675 -0.00935391 -0.0624105 ) 34
( 0.236171 -0.00905983 -0.0438877 ) 36
( 0.205893 -0.00152758 -0.0507394 ) 35
( 0.16774 -0.0112861 -0.044688 ) 34
( 0.226465 -0.011149 -0.014744 ) 65
( 0.225401 0.030084 -0.0273579 ) 74
( 0.0458207 0.0271925 -0.0469602 ) 38
( 0.215303 0.0376232 -0.0425827 ) 73
( 0.185515 0.0222809 -0.0700943 ) 43
( 0.113617 0.0388523 -0.0534905 ) 41
( 0.0323497 0.0742092 -0.0323394 ) 85
( 0.201973 0.0641007 -0.0451097 ) 53
( 0.212539 0.0179977 -0.0410475 ) 73
( 0.0749977 0.044808 -0.0509544 ) 48
( 0.06984 0.0214963 -0.0471421 ) 39
( 0.0323329 0.0515477 -0.0611166 ) 47
( 0.173615 0.0184047 -0.0546804 ) 43
( 0.126029 0.0707808 -0.0485259 ) 50
( 0.0266394 0.0590148 -0.0436365 ) 46
( 0.0238096 0.0902952 -0.0399205 ) 84
( 0.0433305 0.0901312 -0.0543669 ) 56
( 0.0625892 0.0501642 -0.0659322 ) 48
( 0.0783176 0.0721524 -0.0575425 ) 57
( 0.138129 0.0576115 -0.0571982 ) 50
( 0.180792 0.0551959 -0.0492872 ) 52
( 0.0593038 0.0312523 -0.0608897 ) 39
( 0.203369 0.00506152 -0.0291865 ) 64
( 0.100236 0.0434191 -0.0349018 ) 78
( 0.0790752 0.045503 -0.0254524 ) 77
( 0.239417 0.0524672 -0.0725276 ) 23
( 0.157071 0.0557707 -0.068306 ) 51
( 0.216063 0.0776792 -0.0410524 ) 91
( 0.244186 0.0826045 -0.0399083 ) 92
( 0.168226 0.0665532 -0.0389583 ) 81
( 0.092608 0.0600509 -0.0672974 ) 49
( 0.145398 0.0710992 -0.0444871 ) 51
( 0.111041 0.0824299 -0.0427799 ) 87
( 0.154528 0.0565581 -0.0289805 ) 80
( 0.136444 0.0382056 -0.0531629 ) 41
( 0.210586 0.0742388 -0.0598002 ) 62
( 0.0254616 0.0819971 -0.0578119 ) 55
( 0.186383 0.0389664 -0.0593119 ) 43
( 0.185231 0.0889604 -0.0709475 ) 61
( 0.168916 0.0901236 -0.0375201 ) 90
( 0.223523 0.06417 -0.0708831 ) 54
( 0.118408 0.0218002 -0.0623682 ) 41
( 0.114061 0.0888419 -0.0613651 ) 59
( 0.0725144 0.0629165 -0.0321216 ) 77
( 0.0925954 0.0772672 -0.0356166 ) 87
( 0.133833 0.0243555 -0.0392034 ) 70
( 0.196488 0.0526584 -0.0696729 ) 53
( 0.14499 0.00355072 -0.0699905 ) 33
( 0.218574 0.0258857 -0.0583292 ) 44
( 0.0271011 0.0248092 -0.0326838 ) 66
( 0.0996817 0.017675 -0.0675086 ) 40
( 0.0901664 0.0248128 -0.0214906 ) 69
( 0.125614 0.039984 -0.0697576 ) 41
( 0.124175 0.0635356 -0.0278576 ) 79
( 0.00983946 0.0177922 -0.039517 ) 66
( 0.106633 0.0460231 -0.0707907 ) 49
( 0.0581726 0.0798842 -0.0461606 ) 57
( 0.100086 0.0251758 -0.0491387 ) 40
( 0.154613 0.0242605 -0.0525113 ) 42
( 0.225956 0.0635899 -0.0510179 ) 54
( 0.157202 0.00537074 -0.0468852 ) 33
( 0.181867 0.0316204 -0.0414382 ) 72
( 0.202811 0.012465 -0.07039 ) 35
( 0.0882511 0.0572345 -0.0427454 ) 78
( 0.0978373 0.0749256 -0.0553243 ) 58
( 0.12478 0.0517329 -0.0437087 ) 50
( 0.090035 0.0619856 -0.0230655 ) 78
( 0.191373 0.0711358 -0.0642777 ) 52
( 0.231613 0.0689405 -0.0326954 ) 83
( 0.0349462 0.0416956 -0.038986 ) 67
( 0.144617 0.0731566 -0.0678342 ) 60
( 0.0619673 0.0465815 -0.0360693 ) 77
( 0.076263 0.0886014 -0.0352402 ) 86
( 0.155651 0.0545477 -0.0485666 ) 51
( 0.00997571 0.0726662 -0.0468592 ) 55
( 0.193144 0.0220169 -0.0284656 ) 72
( 0.0379705 0.0181547 -0.064478 ) 38
( 0.13607 0.0455742 -0.0287434 ) 79
( 0.00990043 0.0813161 -0.0290192 ) 84
( 0.0108336 0.0545508 -0.0549761 ) 46
( 0.169462 0.0439104 -0.0320924 ) 81
( 0.0567585 0.0722405 -0.0644818 ) 57
( 0.151091 0.0900396 -0.0594904 ) 60
( 0.0282801 0.0329053 -0.0554509 ) 38
( 0.114759 0.028992 -0.0362525 ) 70
( 0.230148 0.0120947 -0.0341061 ) 65
( 0.248971 0.0607972 -0.0242894 ) 83
( 0.027982 0.0556834 -0.0187725 ) 76
( 0.242174 0.0555913 -0.0425781 ) 83
( 0.0960365 0.0900467 -0.0694639 ) 58
( 0.165544 0.0708232 -0.0581283 ) 51
( 0.18857 0.0902874 -0.034795 ) 90
( 0.232186 0.0279724 -0.0742887 ) 14
( 0.239228 0.0160653 -0.060023 ) 45
( 0.196846 0.044962 -0.0435088 ) 53
( 0.164605 0.0285313 -0.0691871 ) 42
( 0.0637945 0.0612427 -0.0495946 ) 48
( 0.247682 0.0106196 -0.0429121 ) 36
( 0.185046 0.074337 -0.0457876 ) 61
( 0.0836357 0.0270157 -0.0603192 ) 40
( 0.171274 0.0773747 -0.0226374 ) 90
( 0.167603 0.0393995 -0.0528082 ) 43
( 0.17686 0.0581032 -0.0685507 ) 52
( 0.114139 0.0902885 -0.0250487 ) 88
( 0.227208 0.0901879 -0.0299193 ) 92
( 0.166005 0.020408 -0.0366481 ) 71
( 0.205086 0.0901325 -0.0702563 ) 62
( 0.189043 0.00641586 -0.0574786 ) 34
( 0.120915 0.0661734 -0.0671619 ) 50
( 0.0586886 0.0274635 -0.0318727 ) 68
( 0.0473442 0.0567599 -0.027279 ) 76
( 0.0844505 0.0320224 -0.0389967 ) 69
( 0.00991147 0.0284659 -0.06779 ) 37
( 0.22254 0.0110142 -0.0709499 ) 36
( 0.132909 0.0897304 -0.0675828 ) 59
( 0.0490897 0.0481952 -0.051067 ) 47
( 0.163418 0.0824804 -0.0740743 ) 29
( 0.185545 0.0613897 -0.0308201 ) 81
( 0.00970596 0.0356835 -0.0493385 ) 37
( 0.207312 0.090037 -0.0283005 ) 91
( 0.21148 0.0510733 -0.0566545 ) 53
( 0.0854728 0.0901557 -0.0526868 ) 58
( 0.233469 0.0281668 -0.0453495 ) 45
( 0.202975 0.0329408 -0.0685088 ) 44
( 0.128769 0.0902644 -0.0481124 ) 59
( 0.0549175 0.0732208 -0.0190732 ) 85
( 0.0355592 0.0693637 -0.0693291 ) 47
( 0.231534 0.0450404 -0.0557036 ) 54
( 0.0282803 0.0901546 -0.0195274 ) 85
( 0.228795 0.0900968 -0.0498819 ) 63
( 0.149202 0.0901873 -0.0397289 ) 89
( 0.0104598 0.0351348 -0.0297517 ) 66
( 0.151567 0.0373527 -0.0379492 ) 71
( 0.143585 0.0277875 -0.068622 ) 42
( 0.0433815 0.0672954 -0.0504419 ) 47
( 0.167893 0.00693246 -0.0699004 ) 34
( 0.170879 0.0900655 -0.0572385 ) 61
( 0.196952 0.0238383 -0.0518443 ) 44
( 0.137222 0.0900767 -0.0227849 ) 88
( 0.0527995 0.0273084 -0.0050447 ) 94
( 0.135581 0.0700975 5.95038e-05 ) 105
( 0.0833293 0.0549646 -0.00355972 ) 103
( 0.0895104 0.0423273 0.0105458 ) 96
( 0.217947 0.0165971 0.0112864 ) 100
( 0.114886 0.0250243 0.00870238 ) 97
( 0.0430567 0.0347652 0.0105336 ) 94
( 0.110234 0.0412488 -0.00207172 ) 96
( 0.175737 0.0361714 -0.0120464 ) 99
( 0.168957 0.0486568 0.00175381 ) 107
( 0.1913 0.0821981 -0.0168024 ) 90
( 0.125081 0.0510812 0.00636248 ) 105
( 0.153999 0.0394161 0.0108195 ) 98
( 0.0490242 0.0902044 0.00757861 ) 109
( 0.125315 0.0234356 -0.00779574 ) 97
( 0.00985631 0.0488481 0.00689341 ) 101
( 0.0110391 0.0659959 -0.0165315 ) 75
( 0.103401 0.0901105 -0.00349354 ) 111
( 0.159058 0.0681962 -0.0100113 ) 106
( 0.19346 0.0595817 -0.0127824 ) 107
( 0.0293421 0.0881016 0.00603782 ) 109
( 0.0272817 0.0434159 -0.00310238 ) 101
( 0.090752 0.0902269 0.0119028 ) 111
( 0.0756695 0.0182141 0.0072343 ) 95
( 0.0628773 0.0800461 -0.00215706 ) 110
( 0.2072 0.0272483 -0.00112836 ) 100
( 0.134008 0.0427935 -0.00903449 ) 97
( 0.0582343 0.0697187 0.0138767 ) 103
( 0.00990019 0.0682375 0.00297969 ) 101
( 0.124332 0.0776419 -0.0140648 ) 112
( 0.232529 0.0780703 -0.0152786 ) 92
( 0.162234 0.0798849 0.00557358 ) 113
( 0.163763 0.0259436 0.000273326 ) 98
( 0.14519 0.0901163 0.0064025 ) 113
( 0.095342 0.023918 0.0053031 ) 96
( 0.0643952 0.0605434 -0.00573368 ) 103
( 0.0201296 0.0274402 -0.0144046 ) 66
( 0.0466495 0.089834 -0.0119488 ) 109
( 0.0663541 0.037113 0.00534744 ) 95
( 0.0928507 0.0731993 -0.00373862 ) 111
( 0.0532416 0.0515943 0.00795831 ) 102
( 0.105783 0.0730495 -0.0187564 ) 87
( 0.153712 0.0900473 -0.0115725 ) 113
( 0.0292481 0.0233644 0.00244779 ) 94
( 0.142591 0.0276037 0.000288755 ) 98
( 0.221176 0.0370569 0.00870289 ) 100
( 0.15325 0.0467151 -0.0119693 ) 106
( 0.117042 0.0594719 -0.00966172 ) 105
( 0.0770505 0.0702192 0.00779401 ) 103
( 0.0110989 0.0868724 -0.00999548 ) 108
( 0.0803961 0.0891426 -0.0047973 ) 110
( 0.191446 0.0389704 -0.000750028 ) 99
( 0.125054 0.0903344 0.000710468 ) 112
( 0.211829 0.0530021 -0.0157074 ) 82
( 0.109026 0.0286558 -0.0172499 ) 69
( 0.0824682 0.0340358 -0.00582423 ) 95
( 0.101159 0.0573456 0.00491566 ) 104
( 0.182813 0.0210235 -0.000706199 ) 99
( 0.0361457 0.0604929 0.0021152 ) 102
( 0.179013 0.0712788 -0.00559428 ) 107
( 0.00976007 0.0442889 -0.0122903 ) 101
( 0.107862 0.0577712 -0.0547267 ) 49
( 0.00985985 0.0901753 -0.0670981 ) 55
( 0.216828 0.0558406 -0.0346951 ) 82
( 0.139976 0.0605918 -0.0164497 ) 80
( 0.0518294 0.0144497 0.010113 ) 94
( 0.00984248 0.0296392 0.00233468 ) 93
( 0.00991497 0.0901379 0.0094982 ) 108
( 0.0702622 0.0230057 -0.0165232 ) 68
( 0.221106 0.0444442 -0.0727367 ) 22
( 0.0499643 0.0901361 -0.0314083 ) 85
( 0.158719 -0.0107556 -0.0703149 ) 33
( 0.00983855 0.0560894 -0.033645 ) 75
( 0.228174 0.0901245 -0.069739 ) 63
( 0.0943049 0.0431372 -0.0554144 ) 49
( 0.224377 0.00561627 -0.0518985 ) 36
( 0.217772 0.013787 -0.0187699 ) 64
( 0.231074 0.0582075 -0.0160321 ) 83
( 0.0672302 0.09006 -0.0606823 ) 57
( 0.241045 0.0425455 -0.0230413 ) 74
( 0.105972 0.0625523 -0.0355593 ) 78
( 0.14581 -0.00926312 -0.0541381 ) 33
( 0.20271 0.0901034 -0.0487103 ) 62
( 0.139707 0.0278544 -0.0206277 ) 71
( 0.249493 -0.0044731 -0.0301354 ) 65
( 0.0928666 0.0900545 -0.0203544 ) 87
( 0.116595 0.04567 -0.0239202 ) 79
( 0.150187 0.0575859 0.00401554 ) 106
( 0.150792 0.0759076 -0.0260971 ) 89
( 0.159391 0.0304878 -0.0211189 ) 71
( 0.188472 0.042434 -0.0257511 ) 72
( 0.114362 0.0737603 0.00387942 ) 112
( 0.0407504 0.0312932 -0.020101 ) 67
( 0.0359093 0.0730584 -0.0129778 ) 109
( 0.173265 0.0166538 -0.0176237 ) 72
( 0.175353 0.0641433 0.0124077 ) 107
( 0.173114 0.0556341 -0.0163855 ) 81
( 0.09614 0.0446798 -0.0154286 ) 78
( 0.0755763 0.0734996 -0.0158246 ) 86
( 0.205506 0.0345832 -0.0193784 ) 73
( 0.203962 0.0703887 -0.0264824 ) 82
( 0.063728 0.0415412 -0.0137172 ) 95
( 0.0453688 0.0476395 -0.00976876 ) 102
( 0.0653726 0.090218 -0.0188674 ) 86
( 0.0117574 0.0704812 -0.066644 ) 46
( 0.109972 0.0787198 -0.0781095 ) 27
( 0.178377 0.0403361 -0.0775023 ) 12
( 0.0290968 0.0316621 -0.07608 ) 7
( 0.238112 0.0776456 -0.081547 ) 32
( 0.199089 0.0750057 -0.0821868 ) 31
( 0.178502 -0.0141744 -0.0816794 ) 3
( 0.0516686 0.0237914 -0.0776874 ) 7
( 0.112361 0.029024 -0.0799267 ) 10
( 0.0685652 0.0163208 -0.0702807 ) 39
( 0.0747083 0.0625898 -0.0755726 ) 17
( 0.139017 0.0534723 -0.076582 ) 20
( 0.218417 0.0793566 -0.0834276 ) 31
( 0.0166359 0.0466508 -0.0722185 ) 15
( 0.153584 0.0405057 -0.0806307 ) 11
( 0.0809972 0.0442207 -0.0701056 ) 48
( 0.0503975 0.0601689 -0.0789621 ) 16
( 0.154776 0.0164345 -0.0816047 ) 11
( 0.0456641 0.0419905 -0.0722916 ) 7
( 0.0457884 0.0859598 -0.0737251 ) 25
( 0.0852713 0.00825778 -0.0773779 ) 0
( 0.0788003 0.0820245 -0.0751194 ) 26
( 0.129709 0.0192568 -0.0800104 ) 10
( 0.133647 -0.00672305 -0.0827752 ) 1
( 0.160979 0.0659514 -0.0849658 ) 20
( 0.186245 0.00359114 -0.077031 ) 3
( 0.026757 0.0900554 -0.0774594 ) 24
( 0.23453 0.0125679 -0.0867849 ) 5
( 0.0882451 -0.0102095 -0.0842058 ) 0
( 0.214404 0.0249127 -0.0827249 ) 13
( 0.0184686 0.0161168 -0.0825101 ) 6
( 0.210011 0.0569892 -0.0836613 ) 22
( 0.0104498 0.0799816 -0.0841671 ) 24
( 0.130526 0.0758475 -0.0817101 ) 28
( 0.0926242 0.031499 -0.0799294 ) 9
( 0.0657688 0.037447 -0.0809712 ) 8
( 0.120229 0.0539704 -0.0830631 ) 19
( 0.0315357 0.0548264 -0.0826107 ) 16
( 0.17931 0.0730514 -0.0814738 ) 30
( 0.101958 0.0616741 -0.0847647 ) 18
( 0.196597 0.0407749 -0.0856849 ) 13
( 0.108587 0.00599017 -0.0809546 ) 0
( 0.146794 0.0900826 -0.0818322 ) 29
( 0.062658 0.0901088 -0.0833206 ) 26
( 0.233322 0.0420362 -0.0883555 ) 14
( 0.173405 0.0221913 -0.0859214 ) 12
( 0.0914525 0.0891447 -0.0888243 ) 27
( 0.0099157 0.0600868 -0.0851925 ) 15
( 0.0108578 0.0343212 -0.0868099 ) 6
( 0.037521 0.0143973 -0.0880818 ) 7
( 0.195507 0.0203473 -0.0872145 ) 13
( 0.0315082 0.0739849 -0.0882729 ) 25
( 0.0862015 0.049985 -0.0884425 ) 18
( 0.0769192 0.0226378 -0.088403 ) 8
( 0.135037 0.0370731 -0.0871905 ) 10
( 0.115136 -0.0111529 -0.08876 ) 1
)
