/*--------------------------------*- C++ -*----------------------------------*\
| =========                 |                                                 |
| \\      /  F ield         | OpenFOAM: The Open Source CFD Toolbox           |
|  \\    /   O peration     | Version:  4.x                                   |
|   \\  /    A nd           | Web:      www.OpenFOAM.org                      |
|    \\/     M anipulation  |                                                 |
\*---------------------------------------------------------------------------*/
FoamFile
{
    version     2.0;
    format      ascii;
    class       volScalarField;
    location    "49";
    object      KslPrev;
}
// * * * * * * * * * * * * * * * * * * * * * * * * * * * * * * * * * * * * * //

dimensions      [1 -3 -1 0 0 0 0];

internalField   nonuniform List<scalar> 
132
(
3317.25
6834.18
3086.92
5254.71
2904.85
4529.29
2789.78
4086.23
2616.67
3336.19
7300.59
3195.02
5887.66
3048.11
5162.31
2928.99
4694.48
2817.87
3346.91
7668.31
3258.67
6394.72
3186.63
5734.27
3076.41
5390.84
3038.01
3365.21
7556.66
3227.52
3368.04
7935.43
3297.13
7033.41
3260.47
6500.64
3217.05
6157.94
3116.95
3399.39
9083.46
3468.28
9108.66
3534.9
9616.94
3534.98
10382.2
3486.95
3435.92
10110.4
3558.57
11489.4
3674.56
14373.3
3744.98
21280.6
3714.32
3485.35
9717.59
3572.34
10723.8
3664.1
3400.8
8104.58
3378.33
7402.48
3324.51
6880.77
3250.02
6510.67
3118.89
3456.73
9442.27
3551.85
10095.5
3608.76
10993.9
3598.02
12014.1
3483.32
3500.08
10727.2
3689.34
14847.7
3820.93
21507.8
3836.11
29323.4
3756.91
3530.81
11076.2
3730.08
15520.9
3798.33
20582.8
3763.39
3384.93
8179.02
3391.15
7685.15
3368.57
7550.56
3356.15
7715.96
3324.33
3456.51
10206.4
3626.38
12751.4
3701.98
16764.5
3759.24
26639.2
3733.03
3511.47
11708.7
3779.77
21946.1
3929.51
79359.6
4032.34
1e+10
4098.38
3503.14
11075.2
3747.59
17004.4
3788.42
25291.8
3778.15
36202.8
3731.44
)
;

boundaryField
{
    inlet
    {
        type            zeroGradient;
    }
    outlet
    {
        type            zeroGradient;
    }
    wall
    {
        type            zeroGradient;
    }
    procBoundary0to1
    {
        type            processor;
        value           uniform 0;
    }
    procBoundary0to2
    {
        type            processor;
        value           uniform 0;
    }
    procBoundary0to4
    {
        type            processor;
        value           uniform 0;
    }
    procBoundary0to6
    {
        type            processor;
        value           uniform 0;
    }
    procBoundary0to7
    {
        type            processor;
        value           uniform 0;
    }
}


// ************************************************************************* //
