/*--------------------------------*- C++ -*----------------------------------*\
| =========                 |                                                 |
| \\      /  F ield         | OpenFOAM: The Open Source CFD Toolbox           |
|  \\    /   O peration     | Version:  4.x                                   |
|   \\  /    A nd           | Web:      www.OpenFOAM.org                      |
|    \\/     M anipulation  |                                                 |
\*---------------------------------------------------------------------------*/
FoamFile
{
    version     2.0;
    format      ascii;
    class       surfaceScalarField;
    location    "49";
    object      phi;
}
// * * * * * * * * * * * * * * * * * * * * * * * * * * * * * * * * * * * * * //

dimensions      [0 3 -1 0 0 0 0];

internalField   nonuniform List<scalar> 
308
(
9.09827e-06
-2.69972e-07
-6.65037e-07
9.69696e-06
-1.87371e-07
-4.11312e-07
1.07319e-05
-3.33113e-07
-7.01855e-07
1.12598e-05
-1.59879e-07
-3.6803e-07
1.20641e-05
-2.6209e-07
-5.42152e-07
1.24573e-05
-1.04594e-07
-2.88622e-07
1.31042e-05
-2.15238e-07
-4.31637e-07
1.35121e-05
-1.31982e-07
-2.75951e-07
-1.74829e-07
-3.33223e-07
8.95791e-06
-3.12353e-07
-7.52263e-07
9.37605e-06
-2.11043e-07
-3.94472e-07
1.01787e-05
-3.79899e-07
-7.55865e-07
1.05875e-05
-2.06221e-07
-3.62428e-07
1.12412e-05
-2.9814e-07
-6.17718e-07
1.15437e-05
-1.32976e-07
-2.74074e-07
1.20775e-05
-2.54996e-07
-4.9404e-07
1.23378e-05
-1.6271e-07
-2.29548e-07
-2.31311e-07
-3.42686e-07
8.88798e-06
-2.11145e-07
-8.25924e-07
9.15871e-06
-1.02054e-07
-3.79718e-07
9.80515e-06
-2.0168e-07
-8.24663e-07
1.00538e-05
-3.43617e-07
1.05622e-05
-6.59025e-07
1.0758e-05
-2.59438e-07
1.11011e-05
-4.73305e-07
1.11159e-05
-1.53769e-07
-2.87058e-07
8.8873e-06
-8.50939e-07
9.21767e-06
-4.02335e-07
-8.37379e-07
8.60929e-06
-3.56538e-07
-7.54528e-07
8.79702e-06
-1.59265e-07
-4.39776e-07
9.23298e-06
-3.79357e-07
-7.58457e-07
9.40866e-06
-1.48402e-07
-3.95301e-07
9.77599e-06
-3.38195e-07
-5.71287e-07
9.9118e-06
-9.53254e-08
-3.29109e-07
1.01928e-05
-2.79013e-07
-4.33604e-07
1.02775e-05
-3.91085e-08
-3.21567e-07
-1.79342e-07
-3.41144e-07
8.28838e-06
-3.85705e-07
-8.48208e-07
8.32016e-06
-1.58677e-07
-4.26844e-07
8.40666e-06
-3.97333e-07
-8.24387e-07
8.3787e-06
-1.4165e-07
-3.41223e-07
8.35784e-06
-3.32469e-07
-6.02587e-07
8.32836e-06
-8.35585e-08
-2.5636e-07
8.25175e-06
-2.37082e-07
-4.59361e-07
8.22338e-06
-3.54495e-08
-2.04832e-07
-1.50924e-07
-2.92885e-07
8.024e-06
-1.72372e-07
-8.99994e-07
7.96226e-06
-5.73912e-08
-4.19262e-07
7.79796e-06
-1.57716e-07
-8.99983e-07
7.6562e-06
-3.45665e-08
-3.08935e-07
7.36482e-06
-8.84232e-08
-6.11693e-07
7.2176e-06
-1.94816e-07
6.82073e-06
-2.88622e-07
6.73146e-06
-1.37374e-07
-6.68963e-08
8.02543e-06
-9.19944e-07
8.02001e-06
-4.5356e-07
7.90272e-06
-9.15063e-07
7.78559e-06
-2.99493e-07
-6.12995e-07
8.42279e-06
-4.12395e-07
-6.01655e-07
8.54455e-06
-1.89284e-07
-3.72257e-07
8.86825e-06
-4.55606e-07
-6.26547e-07
9.01297e-06
-1.769e-07
-3.63121e-07
9.33095e-06
-3.84269e-07
-5.04995e-07
9.45743e-06
-1.13109e-07
-3.42488e-07
9.70018e-06
-2.7178e-07
-4.04569e-07
9.82658e-06
-7.55785e-08
-3.72388e-07
-1.56755e-07
-3.4673e-07
8.05646e-06
-4.73801e-07
-6.79997e-07
8.01933e-06
-2.20279e-07
-3.58713e-07
7.95475e-06
-5.31108e-07
-6.84311e-07
7.89565e-06
-1.81537e-07
-2.7749e-07
7.80556e-06
-4.08886e-07
-4.8787e-07
7.77582e-06
-1.14578e-07
-2.25155e-07
7.68663e-06
-2.64558e-07
-3.77388e-07
7.71408e-06
-1.0347e-07
-2.04389e-07
-2.07427e-07
-3.18485e-07
7.73798e-06
-2.5694e-07
-6.91572e-07
7.56828e-06
-1.20356e-07
-3.49486e-07
7.09668e-06
-2.90111e-07
-6.6938e-07
6.90785e-06
-9.06638e-08
-2.10977e-07
6.53673e-06
-2.28666e-07
-4.20792e-07
6.42883e-06
-7.86457e-08
-1.22853e-07
6.24636e-06
-1.6661e-07
-2.04096e-07
6.18506e-06
-1.0029e-07
-1.51434e-08
7.64174e-06
-6.62412e-07
7.45425e-06
-3.6238e-07
6.98018e-06
-6.75665e-07
6.84686e-06
-2.19086e-07
6.57815e-06
-4.61266e-07
6.53564e-06
-1.68917e-07
-3.18792e-07
8.38219e-06
-4.60316e-07
8.45832e-06
-2.1788e-07
8.68981e-06
-4.93639e-07
8.72684e-06
-1.67151e-07
8.85244e-06
-3.75193e-07
8.83765e-06
-1.28483e-07
8.85935e-06
-2.25274e-07
8.75751e-06
-6.95082e-08
-1.50516e-08
7.84889e-06
-4.47947e-07
7.68138e-06
-2.12217e-07
7.34424e-06
-4.83623e-07
7.19817e-06
-1.41644e-07
6.86979e-06
-3.14216e-07
6.71335e-06
-9.37426e-08
6.33577e-06
-8.87126e-08
6.2161e-06
-6.86169e-08
6.25964e-08
7.55989e-06
-1.69521e-07
7.22888e-06
-5.60777e-08
6.45991e-06
-1.05803e-07
6.18113e-06
1.72919e-09
5.56256e-06
9.02813e-09
5.33104e-06
2.34558e-08
5.13305e-06
3.29535e-08
4.92214e-06
3.07481e-08
4.8892e-08
7.64668e-06
7.36554e-06
6.76539e-06
6.62965e-06
6.28665e-06
6.18056e-06
6.01497e-06
5.90571e-06
)
;

boundaryField
{
    inlet
    {
        type            calculated;
        value           nonuniform List<scalar> 
16
(
-8.16327e-06
-8.16327e-06
-8.16327e-06
-8.16327e-06
-8.16327e-06
-8.16327e-06
-8.16327e-06
-8.16327e-06
-8.16327e-06
-8.16327e-06
-8.16327e-06
-8.16327e-06
-8.16327e-06
-8.16327e-06
-8.16327e-06
-8.16327e-06
)
;
    }
    outlet
    {
        type            calculated;
        value           nonuniform 0();
    }
    wall
    {
        type            calculated;
        value           uniform 0;
    }
    procBoundary0to1
    {
        type            processor;
        value           nonuniform List<scalar> 
12
(
1.40202e-05
1.27369e-05
1.12509e-05
1.04648e-05
8.14516e-06
6.32803e-06
9.98892e-06
7.79035e-06
6.00515e-06
8.49603e-06
5.89887e-06
4.97375e-06
)
;
    }
    procBoundary0to2
    {
        type            processor;
        value           nonuniform List<scalar> 
44
(
-1.11214e-07
-1.47553e-07
-6.93259e-08
-1.24804e-07
-2.3784e-08
-7.919e-08
-8.42401e-08
-3.00902e-08
9.89687e-06
-4.35011e-08
3.44762e-07
6.7975e-07
-9.6371e-10
-2.48919e-08
3.74275e-08
3.2341e-08
3.44668e-08
-7.38872e-10
3.72575e-08
3.72896e-08
7.54341e-06
8.7007e-08
2.04611e-07
3.92248e-07
-7.92504e-08
-7.92723e-08
7.05681e-09
-2.40547e-08
-5.54321e-08
-3.77569e-08
-1.11684e-07
-7.18206e-08
6.49026e-06
-1.94695e-07
1.66477e-07
1.69501e-07
8.3468e-08
6.57571e-08
1.8598e-07
6.52565e-08
1.78066e-07
5.40707e-08
8.38174e-08
4.44403e-08
)
;
    }
    procBoundary0to4
    {
        type            processor;
        value           nonuniform List<scalar> 
36
(
-3.60269e-07
-2.30498e-07
-3.64406e-07
-2.32993e-07
-2.55401e-07
-1.99212e-07
-2.01002e-07
-2.01041e-07
-7.01986e-08
-3.77993e-07
-1.9686e-07
-3.57188e-07
-1.5693e-07
-2.20466e-07
-1.03458e-07
-1.36373e-07
-8.56057e-08
-7.89065e-08
-3.6662e-07
-1.74621e-07
-2.78231e-07
-7.55687e-08
-1.25468e-07
-8.52902e-09
-1.27771e-07
1.12528e-08
-5.30469e-08
-3.98819e-07
-2.03073e-07
-3.67298e-07
-1.46873e-07
-2.87306e-07
-9.34329e-08
-2.04073e-07
-7.09055e-08
-3.55505e-08
)
;
    }
    procBoundary0to6
    {
        type            processor;
        value           uniform 9.66338e-08;
    }
    procBoundary0to7
    {
        type            processor;
        value           uniform 5.72402e-06;
    }
}


// ************************************************************************* //
