/*--------------------------------*- C++ -*----------------------------------*\
| =========                 |                                                 |
| \\      /  F ield         | OpenFOAM: The Open Source CFD Toolbox           |
|  \\    /   O peration     | Version:  4.x                                   |
|   \\  /    A nd           | Web:      www.OpenFOAM.org                      |
|    \\/     M anipulation  |                                                 |
\*---------------------------------------------------------------------------*/
FoamFile
{
    version     2.0;
    format      ascii;
    class       volScalarField;
    location    "49";
    object      QWallFluid;
}
// * * * * * * * * * * * * * * * * * * * * * * * * * * * * * * * * * * * * * //

dimensions      [1 -1 -3 0 0 0 0];

internalField   nonuniform List<scalar> 
132
(
1.71029e+09
9.64102e+08
1.8499e+09
1.21484e+09
1.97388e+09
1.39169e+09
2.07423e+09
1.52181e+09
2.18214e+09
8.57811e+08
4.6169e+08
9.07759e+08
5.58381e+08
9.58037e+08
6.30324e+08
9.98748e+08
6.83675e+08
1.03732e+09
0
4.46006e+08
8.96393e+08
5.24025e+08
9.29293e+08
5.79257e+08
9.5875e+08
6.10181e+08
9.70958e+08
8.59134e+08
4.50123e+08
8.9902e+08
8.48224e+08
4.27867e+08
8.72269e+08
4.79032e+08
8.96784e+08
5.17515e+08
9.19656e+08
5.41775e+08
9.3962e+08
0
0
0
0
0
0
0
0
0
0
0
0
0
0
0
0
0
0
0
0
0
0
0
8.35018e+08
4.18085e+08
8.52007e+08
4.55454e+08
8.73386e+08
4.88436e+08
8.9527e+08
5.08725e+08
9.19896e+08
0
0
0
0
0
0
0
0
0
0
0
0
0
0
0
0
0
0
0
0
0
0
0
0
0
8.33848e+08
4.12965e+08
8.45679e+08
4.383e+08
8.55171e+08
4.46555e+08
8.61526e+08
4.38239e+08
8.60719e+08
0
0
0
0
0
0
0
0
0
0
0
0
0
0
0
0
0
0
0
0
0
0
0
0
0
0
0
)
;

boundaryField
{
    inlet
    {
        type            calculated;
        value           uniform 0;
    }
    outlet
    {
        type            calculated;
        value           nonuniform 0();
    }
    wall
    {
        type            calculated;
        value           uniform 0;
    }
    procBoundary0to1
    {
        type            processor;
        value           nonuniform List<scalar> 
12
(
1.61191e+09
7.17028e+08
6.12955e+08
5.51111e+08
0
0
5.159e+08
0
0
3.88284e+08
0
0
)
;
    }
    procBoundary0to2
    {
        type            processor;
        value           nonuniform List<scalar> 
44
(
5.32126e+08
9.32835e+08
5.97565e+08
9.69186e+08
6.39563e+08
1.00475e+09
8.47944e+08
4.24572e+08
5.32126e+08
8.77968e+08
5.32126e+08
9.32835e+08
0
0
0
0
0
0
0
0
0
0
0
0
0
0
0
0
0
0
0
0
0
0
0
0
0
0
0
0
0
0
0
0
)
;
    }
    procBoundary0to4
    {
        type            processor;
        value           nonuniform List<scalar> 
36
(
8.26825e+08
4.17854e+08
8.36221e+08
4.40019e+08
8.48671e+08
4.54935e+08
8.59656e+08
4.58847e+08
8.72169e+08
0
0
0
0
0
0
0
0
0
0
0
0
0
0
0
0
0
0
0
0
0
0
0
0
0
0
0
)
;
    }
    procBoundary0to6
    {
        type            processor;
        value           uniform 0;
    }
    procBoundary0to7
    {
        type            processor;
        value           uniform 0;
    }
}


// ************************************************************************* //
