/*--------------------------------*- C++ -*----------------------------------*\
| =========                 |                                                 |
| \\      /  F ield         | OpenFOAM: The Open Source CFD Toolbox           |
|  \\    /   O peration     | Version:  4.x                                   |
|   \\  /    A nd           | Web:      www.OpenFOAM.org                      |
|    \\/     M anipulation  |                                                 |
\*---------------------------------------------------------------------------*/
FoamFile
{
    version     2.0;
    format      ascii;
    class       volVectorField;
    location    "3";
    object      DDtUrel;
}
// * * * * * * * * * * * * * * * * * * * * * * * * * * * * * * * * * * * * * //

dimensions      [0 1 -2 0 0 0 0];

internalField   nonuniform List<vector> 
132
(
(0.00794955 -0.000136131 0.00224565)
(0.0087341 -0.000109787 0.00226437)
(0.0103378 -0.000109682 0.00212417)
(0.0123652 -0.000113913 0.00193258)
(0.0144922 -9.24003e-05 0.00172279)
(0.0165878 -3.85732e-05 0.00153)
(0.0181292 -4.33357e-06 0.00145502)
(0.0191494 3.22649e-05 0.00131872)
(0.0194707 0.000137739 0.00115985)
(0.00780015 -0.000184463 0.0021516)
(0.0085534 -6.59414e-05 0.00219586)
(0.0101451 -3.2795e-05 0.00205592)
(0.0120505 -2.7403e-05 0.00185432)
(0.0140556 -1.33705e-05 0.00164504)
(0.0158736 -9.84979e-06 0.00146003)
(0.0174735 -3.40075e-05 0.00133033)
(0.0184723 -3.14568e-05 0.00120057)
(0.0189183 -1.20174e-05 0.00109179)
(0.00758597 -0.00011726 0.00208737)
(0.00831139 -2.60052e-05 0.00213033)
(0.0099138 1.4462e-05 0.00196866)
(0.0117871 2.45164e-05 0.00177379)
(0.0137046 3.10596e-05 0.00156994)
(0.0153266 1.38894e-05 0.00137859)
(0.0167386 -1.1545e-05 0.00122733)
(0.0177069 -3.49362e-05 0.00110764)
(0.0181179 -1.91898e-05 0.00103388)
(0.0075145 8.28012e-05 0.00207527)
(0.00822651 2.80963e-05 0.00212821)
(0.0098296 4.53673e-05 0.00195269)
(0.0076523 -0.000195826 0.00224875)
(0.00838417 -0.000141941 0.00229361)
(0.00996911 -0.000114865 0.00214493)
(0.0119781 -9.29608e-05 0.00195689)
(0.0139758 -5.13061e-05 0.00176855)
(0.0157998 -2.84355e-06 0.00158335)
(0.0171801 1.77694e-05 0.00145501)
(0.0182156 6.88429e-05 0.00127934)
(0.0185682 0.00016377 0.00109802)
(0.00747497 -0.000200054 0.00216818)
(0.00815004 -7.95462e-05 0.00221076)
(0.00970623 -3.81763e-05 0.00206983)
(0.0115813 -1.44077e-05 0.00186218)
(0.0135271 -1.48824e-05 0.0016556)
(0.0152305 -1.53689e-05 0.00146595)
(0.0166419 -1.12737e-05 0.00131241)
(0.017576 1.74861e-05 0.00116343)
(0.017998 8.34458e-05 0.00104918)
(0.00728226 -9.92713e-05 0.00210839)
(0.00792841 -1.74831e-05 0.00213895)
(0.00946238 7.10619e-06 0.00197918)
(0.0112603 1.79352e-05 0.00177458)
(0.0131118 1.48154e-05 0.0015647)
(0.0147002 1.37694e-06 0.00137669)
(0.0160294 -2.3698e-05 0.00120605)
(0.0168433 -4.00651e-05 0.00105146)
(0.017238 4.11688e-05 0.000988576)
(0.0072329 7.19291e-05 0.00210012)
(0.00786902 4.87462e-05 0.00212602)
(0.00938892 4.66973e-05 0.00196028)
(0.0111545 5.10396e-05 0.00174388)
(0.0129347 7.30204e-05 0.00152285)
(0.00732327 -0.000247691 0.00199715)
(0.00798544 -0.000184001 0.00203113)
(0.00949417 -0.000137956 0.00191202)
(0.0114297 -9.43891e-05 0.00177478)
(0.0133133 -6.01936e-05 0.00160894)
(0.0151566 -9.94754e-06 0.00144669)
(0.016543 5.00804e-05 0.00129036)
(0.0176269 0.000129544 0.00107079)
(0.018066 0.00021531 0.000873789)
(0.00714218 -0.00022664 0.00195121)
(0.00771154 -0.000117099 0.00195822)
(0.00915252 -6.0825e-05 0.00184149)
(0.0109244 -1.81558e-05 0.00167055)
(0.0127556 -6.44396e-06 0.00148686)
(0.0144055 4.00544e-06 0.00131292)
(0.0157613 3.55344e-06 0.00115207)
(0.0166307 4.90248e-05 0.000961391)
(0.0169832 0.000114791 0.000791041)
(0.00695902 -0.000103683 0.00192031)
(0.00748617 -2.74363e-05 0.00189927)
(0.00889122 1.72761e-06 0.00176834)
(0.0105563 2.15774e-05 0.00158398)
(0.0122864 2.1154e-05 0.00138989)
(0.0138104 1.10798e-05 0.00121511)
(0.0150466 -1.21884e-05 0.00104907)
(0.0158267 -7.04053e-06 0.000859637)
(0.0160778 4.01226e-05 0.000710063)
(0.00691899 5.63854e-05 0.00191704)
(0.00744425 5.18e-05 0.00188806)
(0.0088245 5.37643e-05 0.00174964)
(0.0104727 5.1081e-05 0.00155238)
(0.0121456 5.48108e-05 0.00135618)
(0.0136161 5.42573e-05 0.00117738)
(0.0147483 3.90885e-05 0.00101094)
(0.0070401 -0.000280299 0.00161273)
(0.00762589 -0.000201422 0.00163872)
(0.00905292 -0.000141851 0.00154375)
(0.010923 -8.57192e-05 0.001452)
(0.0127831 -3.98948e-05 0.00128694)
(0.014585 2.30078e-05 0.00110675)
(0.016034 9.92426e-05 0.000964329)
(0.0170276 0.000198957 0.000702666)
(0.0172758 0.000239826 0.000425396)
(0.00684741 -0.000251881 0.00157002)
(0.00732016 -0.000131043 0.00156911)
(0.00864768 -6.80746e-05 0.00147721)
(0.0103303 -9.83205e-06 0.00134821)
(0.0120679 3.793e-06 0.0011893)
(0.0136795 1.99045e-05 0.00102027)
(0.0150039 2.82467e-05 0.000868412)
(0.0158106 7.06448e-05 0.000662561)
(0.0160379 0.000136838 0.000500824)
(0.00668302 -0.000112993 0.0015744)
(0.00710075 -3.97944e-05 0.00153812)
(0.00837024 -8.21836e-07 0.0014246)
(0.00991745 2.22865e-05 0.00127039)
(0.0115654 2.62318e-05 0.00110842)
(0.0130388 2.70256e-05 0.000945542)
(0.0142288 1.13094e-05 0.000796215)
(0.0149447 4.97723e-06 0.000618624)
(0.0151077 4.1515e-05 0.000482599)
(0.00665198 3.28778e-05 0.00157959)
(0.00706324 5.30883e-05 0.0015324)
(0.00829782 6.11736e-05 0.00140407)
(0.00981966 5.64263e-05 0.0012365)
(0.0114197 5.35789e-05 0.00107379)
(0.012843 5.70753e-05 0.000916558)
(0.0139453 3.04155e-05 0.000774031)
(0.0146333 6.44759e-06 0.000608621)
(0.0147614 -8.47433e-08 0.000420896)
)
;

boundaryField
{
    inlet
    {
        type            calculated;
        value           nonuniform List<vector> 
16
(
(0.00677818 0.000109458 0.0024614)
(0.00655402 -0.000873548 0.00186616)
(0.00572832 -0.000879533 0.00172482)
(0.00542574 0.000420573 0.00171876)
(0.00592101 -0.000383458 0.00313457)
(0.00535824 -0.000880171 0.00268294)
(0.00480463 -0.000512345 0.00249789)
(0.00477494 0.00019774 0.0025451)
(0.00558746 -0.00057944 0.00243699)
(0.00518469 -0.000900755 0.00238259)
(0.00466516 -0.000452096 0.00238537)
(0.00465902 9.07098e-05 0.0025195)
(0.00551886 -0.000782289 0.00164985)
(0.0049771 -0.00112074 0.00132873)
(0.00461651 -0.000432665 0.00159719)
(0.00474238 -0.000125682 0.00181528)
)
;
    }
    outlet
    {
        type            calculated;
        value           nonuniform 0();
    }
    wall
    {
        type            calculated;
        value           nonuniform List<vector> 
66
(
(0.00677818 0.000109458 0.0024614)
(0.00655402 -0.000873548 0.00186616)
(0.00572832 -0.000879533 0.00172482)
(0.00542574 0.000420573 0.00171876)
(0.00770596 -5.92067e-05 0.00290399)
(0.00726345 0.000260511 0.00274061)
(0.00616156 6.5203e-05 0.00257119)
(0.00577948 -0.000418168 0.00285732)
(0.0106845 -0.000317506 0.00243465)
(0.0105823 0.000164511 0.00226443)
(0.00997097 0.000181895 0.00182667)
(0.00972429 -4.1544e-06 0.00191169)
(0.01419 -0.000528603 0.00215363)
(0.0130099 6.55365e-06 0.00186562)
(0.0127626 0.000123327 0.00162373)
(0.0175201 -0.000565863 0.00176438)
(0.0160264 0.000127216 0.00152873)
(0.0158032 0.000120381 0.00138563)
(0.0229871 -0.00017543 0.00119583)
(0.018038 0.000110013 0.00129803)
(0.0168033 -0.000105759 0.00112569)
(0.0247406 9.45102e-06 0.00203689)
(0.0222129 -0.00035126 0.0013287)
(0.0188705 -0.00014494 0.000971122)
(0.0263506 -0.00010937 0.00187781)
(0.0232658 -0.000421178 0.00116936)
(0.0210799 -0.000341708 0.00093076)
(0.0260502 0.000557549 0.00141682)
(0.0253454 -0.000736861 0.00132614)
(0.0223263 -0.000415976 0.00112026)
(0.00677818 0.000109458 0.0024614)
(0.00592101 -0.000383458 0.00313457)
(0.00558746 -0.00057944 0.00243699)
(0.00551886 -0.000782289 0.00164985)
(0.00770596 -5.92067e-05 0.00290399)
(0.00649031 -0.000218497 0.00406662)
(0.00595206 -0.000409067 0.00314576)
(0.00561224 -0.000449615 0.00231431)
(0.0106845 -0.000317506 0.00243465)
(0.00972131 -0.000281625 0.00327353)
(0.00904937 -0.000427185 0.00260216)
(0.00867892 -0.000429925 0.00178919)
(0.01419 -0.000528603 0.00215363)
(0.0137293 -0.000329405 0.00287695)
(0.0130225 -0.000331386 0.00262055)
(0.012781 -0.00034991 0.00216852)
(0.0175201 -0.000565863 0.00176438)
(0.0163567 -3.6785e-05 0.00273688)
(0.0147512 -0.000368199 0.00246738)
(0.0152223 -0.000278543 0.00171294)
(0.0229871 -0.00017543 0.00119583)
(0.0185358 0.00025343 0.00233947)
(0.018714 -0.000211954 0.00245905)
(0.0185469 -5.02351e-05 0.0012237)
(0.0247406 9.45102e-06 0.00203689)
(0.0189884 -2.26751e-05 0.00255525)
(0.019528 7.43147e-05 0.00241886)
(0.0209774 0.000329201 0.0017012)
(0.0263506 -0.00010937 0.00187781)
(0.0213256 6.94311e-06 0.00218357)
(0.0227848 0.000328888 0.00182322)
(0.0231183 0.000962892 0.000504145)
(0.0260502 0.000557549 0.00141682)
(0.0207046 0.000454768 0.00183267)
(0.0235664 0.000535987 0.00211647)
(0.0220599 -4.13441e-05 -0.000648727)
)
;
    }
    procBoundary0to1
    {
        type            processor;
        value           nonuniform List<vector> 
12
(
(0.0191352 0.000228153 0.00105127)
(0.0184855 5.6836e-06 0.000950991)
(0.017669 2.09405e-05 0.000912295)
(0.018415 0.000221329 0.00088947)
(0.0175936 9.84583e-05 0.000876387)
(0.0167283 0.000133194 0.000843782)
(0.0180923 0.000321485 0.00058458)
(0.0166804 0.000152936 0.000620717)
(0.0155586 0.000102829 0.000582727)
(0.0172972 0.000376444 0.000227172)
(0.0157498 0.000191965 0.000340701)
(0.0145846 0.000106203 0.000353158)
)
;
    }
    procBoundary0to2
    {
        type            processor;
        value           nonuniform List<vector> 
44
(
(0.0116854 5.30343e-05 0.00175081)
(0.0135755 8.64105e-05 0.00154444)
(0.0151441 9.58475e-05 0.00133833)
(0.016487 6.29921e-05 0.0011997)
(0.0172842 2.5312e-05 0.00108133)
(0.0177496 1.52716e-05 0.00107181)
(0.00765143 0.000239478 0.00210283)
(0.00835444 0.000128321 0.00213066)
(0.0116854 5.30343e-05 0.00175081)
(0.00995524 9.9001e-05 0.00197677)
(0.0116854 5.30343e-05 0.00175081)
(0.0135755 8.64105e-05 0.00154444)
(0.0144503 7.17447e-05 0.00132565)
(0.0157122 5.45131e-05 0.0011584)
(0.016533 2.61113e-05 0.00105004)
(0.0172069 4.3882e-06 0.00108577)
(0.00734408 0.000228774 0.00212615)
(0.00798172 0.000135817 0.00215041)
(0.00949793 9.99904e-05 0.00197969)
(0.0112731 7.13226e-05 0.00174757)
(0.0144503 7.17447e-05 0.00132565)
(0.0130615 7.11516e-05 0.00151341)
(0.0144503 7.17447e-05 0.00132565)
(0.0157122 5.45131e-05 0.0011584)
(0.0155308 1.67034e-05 0.000877633)
(0.0156966 1.12173e-05 0.000663624)
(0.00701173 0.000214498 0.00189951)
(0.00753751 0.000145287 0.00189663)
(0.0089214 0.000106619 0.00175608)
(0.0105807 6.81628e-05 0.00155801)
(0.0122815 5.70831e-05 0.00135023)
(0.0137966 6.12342e-05 0.00116216)
(0.0155308 1.67034e-05 0.000877633)
(0.0149793 6.89731e-05 0.00100788)
(0.0155308 1.67034e-05 0.000877633)
(0.0156966 1.12173e-05 0.000663624)
(0.00670771 0.000190808 0.00153897)
(0.00711946 0.000130196 0.00151156)
(0.00838811 0.000103929 0.00139406)
(0.00993757 6.77876e-05 0.00123873)
(0.0115697 4.9545e-05 0.00107322)
(0.013041 2.79682e-05 0.000914233)
(0.0142204 3.98557e-05 0.00078019)
(0.0149578 2.58103e-05 0.000615205)
)
;
    }
    procBoundary0to4
    {
        type            processor;
        value           nonuniform List<vector> 
36
(
(0.00682468 -0.000261721 0.00123028)
(0.00733914 -0.00018976 0.00122181)
(0.0086706 -0.000123391 0.00115659)
(0.0104206 -5.7603e-05 0.00107607)
(0.0122384 -5.87854e-06 0.000941452)
(0.0140034 6.66204e-05 0.000772495)
(0.0154142 0.000117486 0.000619121)
(0.0164378 0.000212135 0.000454442)
(0.0163732 0.000359683 0.00017333)
(0.00663239 -0.000234659 0.00121826)
(0.00702458 -0.000122698 0.00118463)
(0.00827132 -5.71635e-05 0.00110191)
(0.00987282 -3.05213e-06 0.000998944)
(0.0116056 1.66023e-05 0.000876719)
(0.0131655 4.45931e-05 0.000736122)
(0.0144515 5.46371e-05 0.000583126)
(0.0152166 6.97686e-05 0.000427069)
(0.0154432 0.000141813 0.000273791)
(0.00650216 -0.000104929 0.00125421)
(0.00684067 -3.7696e-05 0.00118694)
(0.00802477 1.34899e-06 0.00108057)
(0.00952762 2.39128e-05 0.000944416)
(0.0111547 2.84456e-05 0.000821674)
(0.0126023 3.28328e-05 0.000692931)
(0.0137578 2.37704e-05 0.00055236)
(0.0144319 3.33314e-05 0.00041266)
(0.0145417 7.00277e-05 0.000277549)
(0.0064774 2.06464e-05 0.00126296)
(0.00680036 4.68221e-05 0.00118459)
(0.00795446 5.75101e-05 0.00106414)
(0.00942771 5.34671e-05 0.000922853)
(0.0110135 4.32202e-05 0.00079864)
(0.0124312 2.54646e-05 0.00068603)
(0.0135476 1.62999e-05 0.000557333)
(0.0142128 -1.38759e-05 0.00042694)
(0.0143115 2.72532e-06 0.0002921)
)
;
    }
    procBoundary0to6
    {
        type            processor;
        value           uniform (0.0151213 -2.56134e-05 0.00050732);
    }
    procBoundary0to7
    {
        type            processor;
        value           uniform (0.0141633 -6.654e-06 0.000261371);
    }
}


// ************************************************************************* //
