/*--------------------------------*- C++ -*----------------------------------*\
| =========                 |                                                 |
| \\      /  F ield         | OpenFOAM: The Open Source CFD Toolbox           |
|  \\    /   O peration     | Version:  4.x                                   |
|   \\  /    A nd           | Web:      www.OpenFOAM.org                      |
|    \\/     M anipulation  |                                                 |
\*---------------------------------------------------------------------------*/
FoamFile
{
    version     2.0;
    format      ascii;
    class       volScalarField;
    location    "3";
    object      magGField;
}
// * * * * * * * * * * * * * * * * * * * * * * * * * * * * * * * * * * * * * //

dimensions      [1 -2 -1 0 0 0 0];

internalField   nonuniform List<scalar> 
132
(
109.594
58.8875
124.621
72.4278
127.281
72.5782
127.595
70.9159
130.285
108.29
52.3542
116.606
53.7686
113.529
38.6519
107.053
23.2139
100.917
106.158
41.4385
104.232
25.5728
94.9908
8.74406
89.833
1.12661
89.4289
103.167
36.4858
97.4082
104.311
45.3694
110.909
58.5858
118.587
65.4367
122.521
64.4701
124.548
102.555
32.7199
100.543
27.0316
98.8659
17.7486
97.4502
7.71562
98.0582
97.1578
24.8716
90.251
13.4975
87.5026
6.89364
87.5264
7.39576
93.5943
93.8892
23.5088
84.0307
11.7625
75.4038
100.608
41.3616
105.792
57.379
116.204
70.8997
124.584
75.9081
130.785
99.5734
29.5695
97.6924
25.4141
96.7425
16.3796
96.0784
5.72779
97.0225
94.4038
22.0288
88.7654
10.7502
86.4368
3.40773
86.2219
0.30641
86.2888
95.8815
21.8158
93.2209
15.4142
95.8605
15.0521
100.346
100.647
43.6141
107.103
61.2058
118.494
77.5369
129.923
89.0908
139.462
99.4261
29.5124
97.6997
24.2344
96.8954
16.4657
94.2737
9.51893
91.9294
95.0889
24.3859
89.6706
12.2247
87.7897
6.07152
87.9277
0.530116
90.1309
95.6513
22.8462
89.9306
11.4935
89.8375
8.343
92.8763
6.08261
100.918
)
;

boundaryField
{
    inlet
    {
        type            calculated;
        value           uniform 67;
    }
    outlet
    {
        type            calculated;
        value           nonuniform 0();
    }
    wall
    {
        type            calculated;
        value           uniform 0;
    }
    procBoundary0to1
    {
        type            processor;
        value           nonuniform List<scalar> 
12
(
73.1517
26.5044
15.1826
62.8998
23.5915
0.514565
76.6573
5.6888
2.07415
91.9661
10.3734
0.431151
)
;
    }
    procBoundary0to2
    {
        type            processor;
        value           nonuniform List<scalar> 
44
(
16.878
86.6713
5.2706
81.187
0.339121
77.2742
103.686
42.9388
16.878
105.07
16.878
86.6713
7.68515
68.2548
4.22995
58.8461
98.0932
28.2117
92.5105
17.464
7.68515
90.1901
7.68515
68.2548
17.7756
109.99
96.6469
24.3396
92.3237
14.3385
91.9884
7.77019
17.7756
93.0924
17.7756
109.99
94.8329
20.5108
88.1815
8.90975
86.9387
6.82141
87.2835
6.73674
)
;
    }
    procBoundary0to4
    {
        type            processor;
        value           nonuniform List<scalar> 
36
(
99.2145
44.0779
103.678
58.7603
111.957
71.6145
120.074
77.9645
129.532
96.5164
26.6066
90.8689
14.0931
82.8533
5.12531
72.0843
0.414191
54.316
92.7674
24.0803
85.9331
8.5919
82.9348
2.76248
84.4294
0.241686
86.4358
95.9589
24.8387
90.5198
13.8518
87.8413
7.91928
86.2919
2.52538
88.5459
)
;
    }
    procBoundary0to6
    {
        type            processor;
        value           uniform 92.8239;
    }
    procBoundary0to7
    {
        type            processor;
        value           uniform 25.6968;
    }
}


// ************************************************************************* //
