/*--------------------------------*- C++ -*----------------------------------*\
| =========                 |                                                 |
| \\      /  F ield         | OpenFOAM: The Open Source CFD Toolbox           |
|  \\    /   O peration     | Version:  4.x                                   |
|   \\  /    A nd           | Web:      www.OpenFOAM.org                      |
|    \\/     M anipulation  |                                                 |
\*---------------------------------------------------------------------------*/
FoamFile
{
    version     2.0;
    format      ascii;
    class       volScalarField;
    location    "3";
    object      nu;
}
// * * * * * * * * * * * * * * * * * * * * * * * * * * * * * * * * * * * * * //

dimensions      [0 2 -1 0 0 0 0];

internalField   nonuniform List<scalar> 
132
(
1.00036e-06
1.00098e-06
1.0016e-06
1.00201e-06
1.00213e-06
1.00205e-06
1.00187e-06
1.00165e-06
1.00134e-06
1.00032e-06
1.00093e-06
1.00159e-06
1.002e-06
1.00203e-06
1.00179e-06
1.00144e-06
1.00098e-06
1.00043e-06
1.00031e-06
1.00102e-06
1.00169e-06
1.00196e-06
1.00174e-06
1.00136e-06
1.00099e-06
1.00052e-06
9.99997e-07
1.00029e-06
1.00099e-06
1.00163e-06
1.00018e-06
1.00055e-06
1.00097e-06
1.00126e-06
1.00137e-06
1.00132e-06
1.0012e-06
1.00102e-06
1.00079e-06
1.00017e-06
1.00055e-06
1.00093e-06
1.00111e-06
1.00105e-06
1.00084e-06
1.00056e-06
1.00022e-06
9.99852e-07
1.00017e-06
1.00061e-06
1.001e-06
1.00106e-06
1.00087e-06
1.00057e-06
1.00026e-06
9.99944e-07
9.99659e-07
1.00016e-06
1.00061e-06
1.00101e-06
1.00107e-06
1.00097e-06
1.0001e-06
1.00032e-06
1.0006e-06
1.00079e-06
1.00088e-06
1.00087e-06
1.00081e-06
1.00071e-06
1.00056e-06
1.0001e-06
1.00034e-06
1.00058e-06
1.00068e-06
1.00065e-06
1.0005e-06
1.00031e-06
1.00007e-06
9.99816e-07
1.0001e-06
1.00036e-06
1.0006e-06
1.00065e-06
1.00057e-06
1.00039e-06
1.00013e-06
9.99872e-07
9.99633e-07
1.0001e-06
1.00036e-06
1.00061e-06
1.00067e-06
1.00057e-06
1.00041e-06
1.00024e-06
1.00006e-06
1.00018e-06
1.00034e-06
1.00046e-06
1.00053e-06
1.00054e-06
1.00051e-06
1.00046e-06
1.00039e-06
1.00006e-06
1.00019e-06
1.00034e-06
1.00041e-06
1.00038e-06
1.00028e-06
1.00014e-06
9.99966e-07
9.99784e-07
1.00006e-06
1.00022e-06
1.00039e-06
1.00041e-06
1.00036e-06
1.00024e-06
1.00007e-06
9.99857e-07
9.99688e-07
1.00007e-06
1.00024e-06
1.00041e-06
1.00045e-06
1.00039e-06
1.00031e-06
1.00018e-06
1.00001e-06
9.99855e-07
)
;

boundaryField
{
    inlet
    {
        type            calculated;
        value           uniform 1e-06;
    }
    outlet
    {
        type            calculated;
        value           nonuniform 0();
    }
    wall
    {
        type            calculated;
        value           nonuniform List<scalar> 
66
(
1.00036e-06
1.00032e-06
1.00031e-06
1.00029e-06
1.00098e-06
1.00093e-06
1.00102e-06
1.00099e-06
1.0016e-06
1.00159e-06
1.00169e-06
1.00163e-06
1.00201e-06
1.002e-06
1.00196e-06
1.00213e-06
1.00203e-06
1.00174e-06
1.00205e-06
1.00179e-06
1.00136e-06
1.00187e-06
1.00144e-06
1.00099e-06
1.00165e-06
1.00098e-06
1.00052e-06
1.00134e-06
1.00043e-06
9.99997e-07
1.00036e-06
1.00018e-06
1.0001e-06
1.00006e-06
1.00098e-06
1.00055e-06
1.00032e-06
1.00018e-06
1.0016e-06
1.00097e-06
1.0006e-06
1.00034e-06
1.00201e-06
1.00126e-06
1.00079e-06
1.00046e-06
1.00213e-06
1.00137e-06
1.00088e-06
1.00053e-06
1.00205e-06
1.00132e-06
1.00087e-06
1.00054e-06
1.00187e-06
1.0012e-06
1.00081e-06
1.00051e-06
1.00165e-06
1.00102e-06
1.00071e-06
1.00046e-06
1.00134e-06
1.00079e-06
1.00056e-06
1.00039e-06
)
;
    }
    procBoundary0to1
    {
        type            processor;
        value           nonuniform List<scalar> 
12
(
1.00101e-06
9.99963e-07
9.99606e-07
1.00055e-06
9.99578e-07
9.99391e-07
1.0004e-06
9.99586e-07
9.99418e-07
1.00029e-06
9.99617e-07
9.9953e-07
)
;
    }
    procBoundary0to2
    {
        type            processor;
        value           nonuniform List<scalar> 
44
(
1.00186e-06
1.0017e-06
1.0013e-06
1.00088e-06
1.00044e-06
9.99995e-07
1.00031e-06
1.001e-06
1.00186e-06
1.00172e-06
1.00186e-06
1.0017e-06
1.0007e-06
1.00041e-06
1.00012e-06
9.99739e-07
1.00016e-06
1.00058e-06
1.00101e-06
1.0011e-06
1.0007e-06
1.00095e-06
1.0007e-06
1.00041e-06
1.00006e-06
9.99905e-07
1.00009e-06
1.00033e-06
1.00058e-06
1.00065e-06
1.00055e-06
1.00038e-06
1.00006e-06
1.00018e-06
1.00006e-06
9.99905e-07
1.00005e-06
1.00017e-06
1.00031e-06
1.00035e-06
1.00032e-06
1.00025e-06
1.00009e-06
9.99899e-07
)
;
    }
    procBoundary0to4
    {
        type            processor;
        value           nonuniform List<scalar> 
36
(
1.00004e-06
1.00012e-06
1.00022e-06
1.0003e-06
1.00035e-06
1.00037e-06
1.00035e-06
1.00031e-06
1.00025e-06
1.00004e-06
1.00014e-06
1.00025e-06
1.0003e-06
1.00028e-06
1.0002e-06
1.00007e-06
9.99939e-07
9.99755e-07
1.00005e-06
1.00016e-06
1.00028e-06
1.00032e-06
1.00028e-06
1.00018e-06
1.00004e-06
9.99883e-07
9.99735e-07
1.00005e-06
1.00016e-06
1.00028e-06
1.00033e-06
1.0003e-06
1.00021e-06
1.00008e-06
9.99933e-07
9.99792e-07
)
;
    }
    procBoundary0to6
    {
        type            processor;
        value           uniform 9.99766e-07;
    }
    procBoundary0to7
    {
        type            processor;
        value           uniform 9.99743e-07;
    }
}


// ************************************************************************* //
