/*--------------------------------*- C++ -*----------------------------------*\
| =========                 |                                                 |
| \\      /  F ield         | OpenFOAM: The Open Source CFD Toolbox           |
|  \\    /   O peration     | Version:  4.x                                   |
|   \\  /    A nd           | Web:      www.OpenFOAM.org                      |
|    \\/     M anipulation  |                                                 |
\*---------------------------------------------------------------------------*/
FoamFile
{
    version     2.0;
    format      ascii;
    class       volScalarField;
    location    "3";
    object      thCond;
}
// * * * * * * * * * * * * * * * * * * * * * * * * * * * * * * * * * * * * * //

dimensions      [1 1 -3 -1 0 0 0];

internalField   nonuniform List<scalar> 
132
(
193.824
193.666
193.549
193.442
193.23
193.03
192.947
193.17
193.385
193.56
193.344
193.204
193.043
193.071
192.756
192.839
192.838
192.858
193.621
193.146
193.024
192.852
192.81
192.753
192.785
192.721
192.381
193.428
193.11
193.037
193.188
192.667
192.31
192.25
192.161
192.072
192.078
192.12
192.197
192.845
192.383
192.297
192.112
191.979
191.893
191.873
191.819
191.88
192.595
192.219
192.149
192.021
191.815
191.722
191.573
191.804
191.77
192.296
192.258
192.129
192.002
191.492
192.434
192.059
191.752
191.67
191.587
191.621
191.431
191.441
191.601
192.157
191.849
191.668
191.587
191.36
191.391
191.166
191.072
191.258
191.878
191.765
191.514
191.216
191.062
191.025
190.984
191.125
191.2
191.749
191.596
191.342
191.101
190.919
190.869
190.821
192.233
191.886
191.542
191.43
191.242
191.05
191.189
191.25
191.072
191.902
191.453
191.222
191.116
191.054
190.967
190.731
190.839
190.815
191.846
191.528
191.077
190.937
190.75
190.602
190.618
190.759
190.563
191.685
191.355
190.88
190.626
190.796
190.395
190.463
190.704
190.82
)
;

boundaryField
{
    inlet
    {
        type            zeroGradient;
    }
    outlet
    {
        type            zeroGradient;
    }
    wall
    {
        type            zeroGradient;
    }
    procBoundary0to1
    {
        type            processor;
        value           nonuniform List<scalar> 
12
(
193.025
192.821
192.472
192.011
191.716
191.413
191.245
190.957
190.75
190.767
190.492
190.387
)
;
    }
    procBoundary0to2
    {
        type            processor;
        value           nonuniform List<scalar> 
44
(
192.606
192.56
192.736
192.516
192.764
192.57
193.005
192.767
192.606
192.817
192.606
192.56
191.429
191.269
191.628
191.348
192.43
192.156
191.933
191.81
191.429
191.658
191.429
191.269
190.906
190.835
191.803
191.768
191.507
191.307
191.171
190.968
190.906
190.761
190.906
190.835
191.54
191.118
190.852
190.806
190.733
190.631
190.521
190.482
)
;
    }
    procBoundary0to4
    {
        type            processor;
        value           nonuniform List<scalar> 
36
(
191.856
191.411
191.093
191.063
190.949
190.886
190.671
190.556
190.206
191.437
191.236
190.923
190.642
190.578
190.584
190.555
190.481
190.115
191.364
190.977
190.805
190.476
190.455
190.481
190.369
190.12
190.264
191.41
191.082
190.72
190.591
190.348
190.333
190.014
190.269
190.274
)
;
    }
    procBoundary0to6
    {
        type            processor;
        value           uniform 190.501;
    }
    procBoundary0to7
    {
        type            processor;
        value           uniform 190.015;
    }
}


// ************************************************************************* //
