/*--------------------------------*- C++ -*----------------------------------*\
| =========                 |                                                 |
| \\      /  F ield         | OpenFOAM: The Open Source CFD Toolbox           |
|  \\    /   O peration     | Version:  4.x                                   |
|   \\  /    A nd           | Web:      www.OpenFOAM.org                      |
|    \\/     M anipulation  |                                                 |
\*---------------------------------------------------------------------------*/
FoamFile
{
    version     2.0;
    format      ascii;
    class       volVectorField;
    location    "13.5";
    object      GField;
}
// * * * * * * * * * * * * * * * * * * * * * * * * * * * * * * * * * * * * * //

dimensions      [1 -2 -1 0 0 0 0];

internalField   nonuniform List<vector> 
87
(
(105.634 0.246711 -0.0386496)
(143.124 -0.629118 0.649239)
(109.115 -2.38313 3.18954)
(147.51 -1.99062 4.1084)
(102.174 -6.36304 8.82546)
(148.002 -3.15926 9.46827)
(82.5108 -12.6056 15.6733)
(148.986 1.65716 8.89521)
(49.0784 -43.0756 -53.8446)
(91.5601 -4.59811 0.950571)
(129.012 -7.87946 3.2108)
(83.5609 -7.28295 4.17242)
(123.976 -9.00154 4.77655)
(67.5502 -10.1653 5.10387)
(115.249 -6.76952 5.34782)
(49.2777 -14.0808 3.65441)
(103.999 3.07903 0.972832)
(42.1652 -37.4156 -0.500403)
(66.6918 -1.85595 -0.264323)
(110.937 -1.72716 2.22392)
(54.3744 -1.6416 -2.0994)
(105.386 -0.766354 -11.319)
(38.914 -1.51218 2.24349)
(97.162 -0.0924151 6.88237)
(20.1185 0.178807 3.14097)
(86.7084 -1.17392 2.50662)
(17.1979 8.82529 3.00638)
(68.4071 -0.557087 -0.898748)
(115.91 0.0547603 2.21992)
(69.6389 -2.1387 4.16437)
(124.667 -1.45589 11.5067)
(77.3887 -6.70268 9.86053)
(137.549 -0.256695 17.6749)
(63.1997 -14.2041 13.2752)
(166.077 5.86976 18.491)
(32.7138 -61.1629 -55.3301)
(39.8259 -4.22739 0.525953)
(97.5115 -6.59018 4.0456)
(37.3285 -7.21148 2.42783)
(99.8361 -16.2685 8.03168)
(33.0831 -5.06519 1.6417)
(102.13 5.16052 7.57572)
(30.9846 -8.74205 -1.79698)
(98.798 13.1893 5.97479)
(30.4829 -59.4979 -12.3611)
(13.7187 -0.407607 -0.054118)
(80.8989 0.309283 -2.88526)
(0.787841 -0.0431441 0.0156545)
(66.4378 1.04662 11.4026)
(-55.2638 -2.12267 -4.67581)
(65.2694 2.09308 0.28492)
(-27.0328 -3.6037 -9.86092)
(63.8274 3.31444 -1.07437)
(-0.00188491 9.25268e-05 0.000652786)
(53.0894 -0.824912 0.729542)
(103.969 -1.49077 3.88362)
(62.8095 -2.49026 5.73989)
(110.545 -1.21135 11.4669)
(58.9757 -3.82822 10.0644)
(122.284 3.00373 16.1717)
(53.7175 -9.85474 12.7623)
(155.918 11.3126 17.2399)
(30.9014 -39.6987 -2.13727)
(22.2523 -2.50606 0.657745)
(86.9434 -11.3678 3.53889)
(21.3094 -0.547918 1.87555)
(92.113 7.89594 4.23454)
(24.3379 -0.384597 0.776007)
(95.7665 5.70319 2.40244)
(32.8898 -8.27332 -0.485217)
(96.9435 12.5381 0.932648)
(44.3146 -52.3038 -9.7274)
(2.06635 -0.0694364 0.18328)
(76.8762 -0.0758325 3.8614)
(-33.8689 -2.84643 4.47435)
(79.9233 1.12785 14.036)
(1.35874 -0.183099 -0.204499)
(84.9343 0.789092 -13.9425)
(12.605 -2.04963 -3.40852)
(75.8331 3.57541 -10.2105)
(20.5277 -3.41213 -7.21716)
(54.3046 -1.30284 0.254273)
(104.574 0.192138 3.14352)
(55.6094 -0.53827 2.53085)
(24.6873 -1.00682 -0.075727)
(89.2363 -2.09477 1.61229)
(16.3085 -1.4522 1.16808)
)
;

boundaryField
{
    inlet
    {
        type            calculated;
        value           nonuniform 0();
    }
    outlet
    {
        type            calculated;
        value           nonuniform List<vector> 9((98.9859 -86.8789 -108.599) (87.1803 -77.3602 -1.03463) (35.7047 18.3222 6.24156) (68.9873 -128.981 -116.681) (64.2441 -125.394 -26.0516) (-0.00399125 0.000195923 0.00138226) (65.8205 -84.5589 -4.55241) (94.6075 -111.664 -20.7671) (44.009 -7.31522 -15.4727));
    }
    wall
    {
        type            calculated;
        value           uniform (0 0 0);
    }
    procBoundary1to0
    {
        type            processor;
        value           nonuniform List<vector> 
12
(
(136.217 -0.070908 -2.63819)
(126.645 -5.19302 -1.85071)
(114.62 -2.16018 -0.753041)
(110.26 -0.915992 -4.04483)
(95.6183 -5.17647 -1.92243)
(84.709 -1.18027 1.41279)
(100.163 -1.54646 -1.27099)
(85.393 -3.56077 0.679209)
(78.8908 -1.2722 4.04949)
(99.9067 -1.68965 -1.53137)
(86.7382 -2.69653 -0.960219)
(84.859 -1.38041 3.60256)
)
;
    }
    procBoundary1to3
    {
        type            processor;
        value           nonuniform List<vector> 
27
(
(74.3635 1.2878 1.86415)
(114.868 3.43095 4.85433)
(60.4437 2.71014 2.93332)
(110.966 4.33854 4.1333)
(48.9562 3.39011 1.91237)
(113.36 2.50836 2.7286)
(43.9708 6.47406 -2.75649)
(132.647 1.40072 1.12752)
(36.0635 23.4242 -42.8443)
(21.7929 1.02175 0.82097)
(89.1031 3.11091 5.32811)
(23.8402 3.14681 1.02365)
(93.5458 14.2643 5.12455)
(25.744 0.898016 -2.74772)
(95.8027 -5.83487 1.03161)
(29.4349 2.47374 -9.53155)
(92.7968 -4.61373 2.43322)
(32.2596 17.3739 -53.9698)
(-0.0148371 -0.000302453 -2.70169e-05)
(81.3502 10.1025 1.97826)
(4.9092 0.0581085 -0.0658396)
(83.1733 -9.02533 -0.220517)
(9.89542 -1.06944 -1.58343)
(85.1945 -2.0051 -1.21104)
(9.86532 -0.257465 -3.39172)
(80.5365 1.62175 -0.0744501)
(15.9515 3.78567 -11.8497)
)
;
    }
    procBoundary1to5
    {
        type            processor;
        value           nonuniform List<vector> 
32
(
(111.952 2.22977 6.36322)
(57.019 -3.0024 4.49215)
(126.772 5.40035 11.5588)
(51.9515 -10.0242 -0.127153)
(158.876 12.6167 14.5755)
(32.0552 -45.2925 -37.0973)
(26.3901 -1.56894 -0.457324)
(94.2945 -0.841426 0.338424)
(30.9306 -3.55594 -3.32735)
(98.9771 3.53088 -1.60548)
(33.5829 -10.5079 -8.07654)
(97.4367 12.4511 -0.944623)
(34.6185 -52.4785 -25.2712)
(86.1338 -0.251847 10.8421)
(13.4619 -1.47223 -1.57566)
(91.1019 0.0363595 -10.4626)
(23.5424 -4.01301 -6.68702)
(89.8603 2.04895 -6.23557)
(12.9605 -5.13408 -5.75742)
(79.8851 7.61213 -1.23302)
(16.912 -11.3797 -11.0755)
(46.6087 -1.74675 0.00923384)
(96.1505 -0.422583 2.48663)
(111.952 2.22977 6.36322)
(26.3901 -1.56894 -0.457324)
(46.4 -1.66589 2.40948)
(4.68877 -0.355137 -0.0142195)
(26.3901 -1.56894 -0.457324)
(86.1338 -0.251847 10.8421)
(79.5899 -0.889038 0.330802)
(86.1338 -0.251847 10.8421)
(5.89411 -0.674436 0.0526385)
)
;
    }
    procBoundary1to7
    {
        type            processor;
        value           uniform (15.6105 -0.393538 -0.887159);
    }
}


// ************************************************************************* //
