/*--------------------------------*- C++ -*----------------------------------*\
| =========                 |                                                 |
| \\      /  F ield         | OpenFOAM: The Open Source CFD Toolbox           |
|  \\    /   O peration     | Version:  4.x                                   |
|   \\  /    A nd           | Web:      www.OpenFOAM.org                      |
|    \\/     M anipulation  |                                                 |
\*---------------------------------------------------------------------------*/
FoamFile
{
    version     2.0;
    format      ascii;
    class       volScalarField;
    location    "13.5";
    object      QPartFluidCoeff;
}
// * * * * * * * * * * * * * * * * * * * * * * * * * * * * * * * * * * * * * //

dimensions      [1 -1 -3 -1 0 0 0];

internalField   nonuniform List<scalar> 
87
(
-1.45936e+07
-2.36367e+07
-1.42724e+07
-2.18737e+07
-1.4824e+07
-1.60346e+07
-1.71941e+07
-2.03364e+07
-1.43664e+07
-1.53946e+07
-1.46095e+07
-1.94173e+07
-1.83636e+07
-1.39333e+07
-2.0159e+07
-2.29737e+07
-1.89352e+07
-1.33217e+07
-1.29465e+07
-2.26497e+07
-2.00521e+07
-2.73832e+07
-1.83637e+07
-1.70432e+07
-1.58462e+07
-1.7369e+07
-1.19617e+07
-2.51454e+07
-2.19917e+07
-2.11007e+07
-2.56393e+07
-2.23795e+07
-2.68414e+07
-3.1421e+07
-3.1428e+07
-2.13601e+07
-3.12658e+07
-2.17498e+07
-2.55136e+07
-3.05912e+07
-2.95029e+07
-2.46254e+07
-3.02511e+07
-3.32672e+07
-1.70547e+07
-2.95736e+07
-2.70362e+07
-2.25547e+07
-2.05503e+07
-1.47985e+07
-2.76894e+07
-2.6875e+07
-3.97745e+07
-1.24635e+07
-2.37335e+07
-2.30392e+07
-2.83596e+07
-3.22312e+07
-2.20129e+07
-3.39378e+07
-2.79448e+07
-2.73662e+07
-1.218e+07
-2.93656e+07
-2.8911e+07
-2.10031e+07
-2.62196e+07
-2.77209e+07
-3.05362e+07
-2.65564e+07
-3.11506e+07
-1.39149e+07
-2.66546e+07
-2.48692e+07
-1.57512e+07
-3.59154e+07
-2.84503e+07
-3.50261e+07
-2.44985e+07
-3.14466e+07
-1.06555e+07
-2.23155e+07
-1.89473e+07
-2.77274e+07
-2.6947e+07
-4.11282e+07
-2.02672e+07
)
;

boundaryField
{
    inlet
    {
        type            calculated;
        value           nonuniform 0();
    }
    outlet
    {
        type            calculated;
        value           uniform 0;
    }
    wall
    {
        type            calculated;
        value           uniform 0;
    }
    procBoundary1to0
    {
        type            processor;
        value           nonuniform List<scalar> 
12
(
154.171
424.838
638.431
545.873
651.373
466.47
402.273
571.981
398.335
453.834
520.424
713.719
)
;
    }
    procBoundary1to3
    {
        type            processor;
        value           nonuniform List<scalar> 
27
(
639.97
283.403
494.241
235.294
346.886
272.198
395.485
337.132
291.574
636.4
587.736
753.036
766.624
630.483
577.638
515.544
619.72
628.956
609.122
792.408
685.271
750.782
489.319
585.496
693.046
638.772
518.956
)
;
    }
    procBoundary1to5
    {
        type            processor;
        value           nonuniform List<scalar> 
32
(
632.712
627.544
611.022
526.621
734.627
555.196
586.532
554.542
504.581
666.283
727.599
837.111
560.361
762.6
480.207
675.881
489.733
417.261
565.219
510.702
516.264
501.858
423.472
632.712
586.532
584.342
607.476
586.532
762.6
619.25
762.6
653.444
)
;
    }
    procBoundary1to7
    {
        type            processor;
        value           uniform 786.413;
    }
}


// ************************************************************************* //
