/*--------------------------------*- C++ -*----------------------------------*\
| =========                 |                                                 |
| \\      /  F ield         | OpenFOAM: The Open Source CFD Toolbox           |
|  \\    /   O peration     | Version:  4.x                                   |
|   \\  /    A nd           | Web:      www.OpenFOAM.org                      |
|    \\/     M anipulation  |                                                 |
\*---------------------------------------------------------------------------*/
FoamFile
{
    version     2.0;
    format      ascii;
    class       volScalarField;
    location    "13.5";
    object      Qsource;
}
// * * * * * * * * * * * * * * * * * * * * * * * * * * * * * * * * * * * * * //

dimensions      [1 -1 -3 0 0 0 0];

internalField   nonuniform List<scalar> 
87
(
6.16001e+09
9.36309e+09
6.11146e+09
8.89058e+09
6.19014e+09
7.1484e+09
6.65476e+09
8.45057e+09
5.80235e+09
5.41389e+09
5.43015e+09
6.56679e+09
6.52454e+09
4.81004e+09
7.0051e+09
7.39266e+09
6.56082e+09
4.53562e+09
4.50085e+09
7.72171e+09
6.5399e+09
9.10835e+09
5.91066e+09
5.94796e+09
4.99259e+09
5.97179e+09
3.81968e+09
8.17304e+09
7.55729e+09
6.96976e+09
8.71252e+09
7.41505e+09
9.16013e+09
1.00388e+10
1.07149e+10
7.18297e+09
9.37974e+09
6.52494e+09
7.65408e+09
9.17735e+09
8.85086e+09
7.38761e+09
9.07532e+09
9.98016e+09
5.11641e+09
8.87206e+09
8.11087e+09
6.7664e+09
6.16508e+09
4.43955e+09
8.30683e+09
8.0625e+09
1.19324e+10
3.73906e+09
7.63396e+09
7.79202e+09
9.098e+09
1.05973e+10
7.17019e+09
1.11902e+10
8.92036e+09
9.4349e+09
4.14652e+09
8.80969e+09
8.6733e+09
6.30092e+09
7.86587e+09
8.31626e+09
9.16084e+09
7.9669e+09
9.34518e+09
4.17448e+09
7.99639e+09
7.46077e+09
4.72536e+09
1.07746e+10
8.53507e+09
1.05078e+10
7.34954e+09
9.43397e+09
3.19666e+09
7.21801e+09
6.56832e+09
8.85195e+09
8.0841e+09
1.23385e+10
6.08017e+09
)
;

boundaryField
{
    inlet
    {
        type            calculated;
        value           nonuniform 0();
    }
    outlet
    {
        type            calculated;
        value           uniform 0;
    }
    wall
    {
        type            calculated;
        value           uniform 0;
    }
    procBoundary1to0
    {
        type            processor;
        value           nonuniform List<scalar> 
12
(
4.22391e+09
6.65151e+09
9.39769e+09
8.14446e+09
8.61766e+09
6.1714e+09
6.17606e+09
7.56731e+09
5.26997e+09
6.85651e+09
6.8852e+09
9.4425e+09
)
;
    }
    procBoundary1to3
    {
        type            processor;
        value           nonuniform List<scalar> 
27
(
9.13988e+09
4.70319e+09
7.10984e+09
4.04078e+09
5.07209e+09
4.54431e+09
5.67868e+09
5.52932e+09
4.42951e+09
8.41957e+09
7.77575e+09
9.96267e+09
1.01424e+10
8.34129e+09
7.64215e+09
6.82064e+09
8.19889e+09
8.32108e+09
8.05868e+09
1.04835e+10
9.06613e+09
9.93284e+09
6.47369e+09
7.74611e+09
9.169e+09
8.45095e+09
6.86578e+09
)
;
    }
    procBoundary1to5
    {
        type            processor;
        value           nonuniform List<scalar> 
32
(
9.30548e+09
8.8484e+09
9.11893e+09
7.47964e+09
1.09613e+10
7.96235e+09
7.75981e+09
7.33659e+09
6.6756e+09
8.81493e+09
9.62613e+09
1.1075e+10
7.41358e+09
1.00892e+10
6.35314e+09
8.9419e+09
6.47916e+09
5.52036e+09
7.47785e+09
6.75658e+09
6.83017e+09
7.10285e+09
6.42914e+09
9.30548e+09
7.75981e+09
8.19294e+09
8.03691e+09
7.75981e+09
1.00892e+10
8.19267e+09
1.00892e+10
8.64506e+09
)
;
    }
    procBoundary1to7
    {
        type            processor;
        value           uniform 1.04042e+10;
    }
}


// ************************************************************************* //
