/*--------------------------------*- C++ -*----------------------------------*\
| =========                 |                                                 |
| \\      /  F ield         | OpenFOAM: The Open Source CFD Toolbox           |
|  \\    /   O peration     | Version:  4.x                                   |
|   \\  /    A nd           | Web:      www.OpenFOAM.org                      |
|    \\/     M anipulation  |                                                 |
\*---------------------------------------------------------------------------*/
FoamFile
{
    version     2.0;
    format      ascii;
    class       volScalarField;
    location    "13.5";
    object      Sm;
}
// * * * * * * * * * * * * * * * * * * * * * * * * * * * * * * * * * * * * * //

dimensions      [1 -3 -1 0 0 0 0];

internalField   nonuniform List<scalar> 
87
(
3.72002e-65
5.88992e-65
3.79745e-65
5.11491e-65
3.95227e-65
4.18473e-65
4.4172e-65
5.03719e-65
4.80473e-65
3.64247e-65
3.25492e-65
4.64986e-65
4.18482e-65
3.40975e-65
5.03707e-65
6.58689e-65
4.57211e-65
3.95222e-65
3.48746e-65
5.50231e-65
5.81217e-65
7.12954e-65
5.502e-65
4.3396e-65
4.9595e-65
4.57208e-65
4.49456e-65
6.6648e-65
5.6573e-65
5.34736e-65
6.19984e-65
5.81219e-65
6.58704e-65
8.36932e-65
7.28445e-65
6.35457e-65
7.43967e-65
5.0372e-65
6.43221e-65
6.97462e-65
7.28443e-65
5.65697e-65
7.51677e-65
7.59427e-65
5.50199e-65
8.13705e-65
6.58709e-65
6.19962e-65
5.26959e-65
5.26943e-65
7.36176e-65
8.05918e-65
1.03065e-64
4.88201e-65
7.05221e-65
5.73476e-65
7.6723e-65
7.90478e-65
5.81222e-65
8.44697e-65
7.052e-65
5.73461e-65
4.18469e-65
7.59437e-65
7.052e-65
5.65725e-65
6.12224e-65
6.97453e-65
6.97445e-65
6.58693e-65
7.20685e-65
4.4171e-65
7.90432e-65
6.35444e-65
5.11468e-65
9.06693e-65
8.29184e-65
8.75675e-65
6.81937e-65
7.90424e-65
3.48715e-65
6.5873e-65
5.2699e-65
8.05983e-65
7.05211e-65
9.99695e-65
5.73456e-65
)
;

boundaryField
{
    inlet
    {
        type            calculated;
        value           nonuniform 0();
    }
    outlet
    {
        type            calculated;
        value           uniform 0;
    }
    wall
    {
        type            calculated;
        value           uniform 0;
    }
    procBoundary1to0
    {
        type            processor;
        value           nonuniform List<scalar> 
12
(
1.70506e-65
4.26255e-65
6.89763e-65
6.20006e-65
6.74247e-65
4.95999e-65
4.72751e-65
6.27741e-65
4.57235e-65
4.96007e-65
5.5024e-65
8.0597e-65
)
;
    }
    procBoundary1to3
    {
        type            processor;
        value           nonuniform List<scalar> 
27
(
6.97496e-65
3.25487e-65
5.81218e-65
2.55737e-65
4.10722e-65
3.0223e-65
4.72711e-65
3.87469e-65
4.5721e-65
7.51722e-65
6.27705e-65
8.98937e-65
8.52438e-65
7.59439e-65
6.27698e-65
6.04446e-65
6.43187e-65
9.06658e-65
7.67191e-65
8.98923e-65
8.83427e-65
8.52435e-65
6.12201e-65
6.27696e-65
8.52424e-65
7.12928e-65
7.43923e-65
)
;
    }
    procBoundary1to5
    {
        type            processor;
        value           nonuniform List<scalar> 
32
(
6.81983e-65
8.05968e-65
6.3547e-65
6.74212e-65
7.59457e-65
8.44697e-65
6.81971e-65
5.65727e-65
5.8122e-65
6.66459e-65
8.21443e-65
8.52438e-65
7.90438e-65
8.44679e-65
6.04459e-65
7.43954e-65
5.81214e-65
4.5722e-65
6.97449e-65
5.73454e-65
8.67923e-65
6.35498e-65
4.80497e-65
6.81983e-65
6.81971e-65
6.97484e-65
7.05243e-65
6.81971e-65
8.44679e-65
6.81985e-65
8.44679e-65
8.21468e-65
)
;
    }
    procBoundary1to7
    {
        type            processor;
        value           uniform 9.91915e-65;
    }
}


// ************************************************************************* //
