/*--------------------------------*- C++ -*----------------------------------*\
| =========                 |                                                 |
| \\      /  F ield         | OpenFOAM: The Open Source CFD Toolbox           |
|  \\    /   O peration     | Version:  4.x                                   |
|   \\  /    A nd           | Web:      www.OpenFOAM.org                      |
|    \\/     M anipulation  |                                                 |
\*---------------------------------------------------------------------------*/
FoamFile
{
    version     2.0;
    format      ascii;
    class       volVectorField;
    location    "13.5";
    object      UsPrev;
}
// * * * * * * * * * * * * * * * * * * * * * * * * * * * * * * * * * * * * * //

dimensions      [0 1 -1 0 0 0 0];

internalField   nonuniform List<vector> 
87
(
(-2.45158e-06 2.17894e-07 1.43575e-07)
(-7.95119e-06 1.13403e-06 4.29099e-07)
(-3.69199e-06 -4.68706e-07 1.33454e-07)
(-3.24162e-06 1.86003e-08 9.9759e-08)
(-2.04944e-06 4.1203e-07 7.68073e-07)
(-1.42584e-06 -1.86273e-08 1.50815e-07)
(-9.15039e-07 -6.78323e-08 -1.66794e-07)
(-5.11124e-06 7.86189e-08 1.85419e-07)
(-2.72087e-06 -9.95238e-09 1.65728e-09)
(-4.59653e-06 1.8595e-07 -1.66004e-07)
(-4.91055e-06 2.96657e-07 -4.61758e-08)
(-5.20886e-06 -3.70063e-07 4.0409e-07)
(-4.71828e-06 -4.16166e-07 3.51205e-07)
(-3.46414e-06 -2.23179e-07 7.63425e-07)
(-2.53627e-06 -2.81752e-07 5.88454e-07)
(-1.87259e-06 -8.59577e-08 -1.28834e-07)
(-1.22572e-06 1.9674e-07 1.39048e-08)
(-7.36213e-07 7.72334e-08 -1.04004e-07)
(-5.81749e-06 -1.05293e-07 2.95134e-07)
(-6.14946e-06 9.03345e-08 3.01975e-07)
(-8.78709e-06 1.85299e-06 1.75433e-07)
(-5.30083e-06 -6.04915e-07 3.58506e-07)
(-4.51862e-06 -8.04261e-07 4.27945e-07)
(-3.80295e-06 -4.46194e-07 6.85431e-07)
(-3.03955e-06 -5.48946e-07 9.24243e-07)
(-1.32661e-06 2.77155e-07 2.34244e-07)
(-5.85062e-07 1.12128e-07 1.07018e-07)
(-2.94873e-06 4.51416e-07 3.90027e-08)
(-3.11665e-06 1.20323e-07 3.47087e-07)
(-3.38671e-06 -1.299e-07 4.1257e-07)
(-2.74593e-06 3.1133e-07 2.19558e-07)
(-2.05152e-06 -2.82995e-08 8.15295e-07)
(-1.22629e-06 -2.25276e-07 1.4238e-07)
(-8.7688e-07 3.67151e-08 -7.86332e-08)
(-5.19021e-07 9.08301e-08 -4.09159e-09)
(-3.41009e-07 9.44453e-08 -9.34712e-08)
(-4.32596e-06 1.74234e-07 -1.99977e-09)
(-4.48599e-06 2.238e-07 1.02632e-07)
(-4.5674e-06 -4.03385e-08 4.50122e-07)
(-4.53188e-06 -1.27665e-07 2.38406e-07)
(-3.38015e-06 -5.35686e-07 6.44663e-07)
(-2.88116e-06 -4.03846e-07 6.43094e-07)
(-1.91767e-06 -6.86055e-08 1.88582e-07)
(-1.08111e-06 3.18448e-08 6.73638e-10)
(-5.11782e-07 6.88542e-09 -2.77931e-08)
(-5.25869e-06 1.74175e-08 2.1367e-07)
(-5.49087e-06 -1.73849e-08 2.99549e-07)
(-5.59953e-06 -3.04504e-07 1.99303e-07)
(-4.80191e-06 -4.31799e-07 1.71576e-07)
(-4.30993e-06 -5.29922e-07 3.26443e-07)
(-3.5155e-06 -2.91365e-07 4.9033e-07)
(-2.39346e-06 -2.68982e-07 7.8862e-07)
(-1.61967e-06 -4.11445e-08 1.09776e-07)
(-6.16103e-07 3.28354e-08 2.14288e-07)
(-2.79129e-06 2.12817e-07 8.71519e-08)
(-3.39092e-06 1.44442e-07 3.43107e-07)
(-3.47206e-06 -9.26103e-08 4.77153e-07)
(-3.43529e-06 2.78385e-08 4.73096e-07)
(-2.3731e-06 3.10737e-07 7.63727e-07)
(-1.91084e-06 1.6413e-07 3.04003e-07)
(-1.12205e-06 1.56795e-07 1.2736e-07)
(-6.75653e-07 1.82507e-07 5.52425e-08)
(-3.40291e-07 1.47404e-07 2.1346e-09)
(-4.37804e-06 1.87617e-08 1.23945e-08)
(-4.49548e-06 2.46406e-07 2.09107e-07)
(-4.48671e-06 -1.92817e-08 3.49258e-07)
(-4.10482e-06 -1.79422e-07 2.8091e-07)
(-3.26764e-06 1.18007e-07 3.98531e-07)
(-2.65628e-06 -1.4567e-07 4.34418e-07)
(-1.71521e-06 1.32418e-07 1.93063e-07)
(-1.18663e-06 8.94132e-08 4.35761e-08)
(-6.05971e-07 1.19424e-07 9.32217e-09)
(-4.86067e-06 6.76661e-08 -2.50982e-08)
(-4.92159e-06 -1.90658e-08 1.09279e-07)
(-4.72711e-06 9.84997e-08 9.45423e-08)
(-4.43353e-06 -1.21132e-07 9.55438e-08)
(-3.9605e-06 -1.3033e-07 1.79079e-07)
(-3.17023e-06 -4.58123e-08 3.93334e-07)
(-1.89319e-06 -2.17684e-07 2.43042e-07)
(-1.5943e-06 2.43229e-08 1.87942e-07)
(-9.065e-07 7.23027e-08 4.83454e-08)
(-2.50238e-06 1.97864e-08 3.80114e-08)
(-2.58366e-06 1.01379e-07 3.21247e-07)
(-2.9261e-06 -4.00687e-08 4.15882e-07)
(-4.06906e-06 1.14709e-07 1.72536e-08)
(-4.28903e-06 1.1267e-07 1.94173e-07)
(-4.47674e-06 -5.11745e-08 -1.34293e-07)
)
;

boundaryField
{
    inlet
    {
        type            calculated;
        value           nonuniform 0();
    }
    outlet
    {
        type            calculated;
        value           uniform (0 0 0);
    }
    wall
    {
        type            calculated;
        value           uniform (0 0 0);
    }
    procBoundary1to0
    {
        type            processor;
        value           uniform (0 0 0);
    }
    procBoundary1to3
    {
        type            processor;
        value           uniform (0 0 0);
    }
    procBoundary1to5
    {
        type            processor;
        value           uniform (0 0 0);
    }
    procBoundary1to7
    {
        type            processor;
        value           uniform (0 0 0);
    }
}


// ************************************************************************* //
