/*--------------------------------*- C++ -*----------------------------------*\
| =========                 |                                                 |
| \\      /  F ield         | OpenFOAM: The Open Source CFD Toolbox           |
|  \\    /   O peration     | Version:  4.x                                   |
|   \\  /    A nd           | Web:      www.OpenFOAM.org                      |
|    \\/     M anipulation  |                                                 |
\*---------------------------------------------------------------------------*/
FoamFile
{
    version     2.0;
    format      ascii;
    class       volScalarField;
    location    "38";
    object      Cs;
}
// * * * * * * * * * * * * * * * * * * * * * * * * * * * * * * * * * * * * * //

dimensions      [1 -3 0 0 0 0 0];

internalField   nonuniform List<scalar> 
108
(
335
335
335
335
335
334.999
334.998
334.998
334.989
335
335
335
335
335
334.999
334.999
334.998
335.051
335
335
335
335
335
334.999
334.999
334.999
335.119
335
335
335
335
335
335
335
335
341.376
335
335
334.999
334.998
334.997
334.995
334.99
334.989
334.869
335
335
334.999
334.999
334.998
334.997
334.994
334.993
334.932
335
335
335
334.999
334.999
334.999
334.997
334.996
334.873
335
335
335
335
335
335
334.999
334.999
334.702
335
334.999
334.997
334.993
334.987
334.981
334.971
334.97
334.909
335
334.999
334.999
334.998
334.995
334.991
334.986
334.981
334.921
335
335
334.999
334.998
334.997
334.995
334.992
334.991
334.903
335
335
335
335
335
335
334.999
334.998
334.781
)
;

boundaryField
{
    inlet
    {
        type            calculated;
        value           nonuniform 0();
    }
    outlet
    {
        type            calculated;
        value           uniform 335;
    }
    wall
    {
        type            calculated;
        value           nonuniform List<scalar> 
63
(
335
335
335
335
335
335
335
335
335
335
335
335
335
335
335
335
335
335
335
335
334.999
334.999
334.999
335
334.998
334.999
334.999
335
334.998
334.998
334.999
335
334.989
335.051
335.119
341.376
335
335
335
335
335
335
335
335
335
335
335
335
335
335
335
335
335
335
335
334.999
334.999
335
334.999
334.998
341.376
334.702
334.781
)
;
    }
    procBoundary3to1
    {
        type            processor;
        value           nonuniform List<scalar> 
27
(
335
335
335
335
334.999
334.999
334.998
334.998
334.899
335
334.999
334.999
334.998
334.995
334.994
334.989
334.989
334.914
335
334.999
334.997
334.995
334.991
334.987
334.981
334.979
334.902
)
;
    }
    procBoundary3to2
    {
        type            processor;
        value           nonuniform List<scalar> 
12
(
335
335
335
335
335
335
335
335
335
335
335
335
)
;
    }
    procBoundary3to7
    {
        type            processor;
        value           nonuniform List<scalar> 
36
(
335
334.999
334.998
334.997
334.994
334.988
334.982
334.973
334.928
335
334.999
334.999
334.998
334.996
334.993
334.989
334.985
334.898
335
335
335
334.999
334.998
334.998
334.995
334.993
334.842
335
335
335
335
335
335
334.999
334.999
334.832
)
;
    }
}


// ************************************************************************* //
