/*--------------------------------*- C++ -*----------------------------------*\
| =========                 |                                                 |
| \\      /  F ield         | OpenFOAM: The Open Source CFD Toolbox           |
|  \\    /   O peration     | Version:  4.x                                   |
|   \\  /    A nd           | Web:      www.OpenFOAM.org                      |
|    \\/     M anipulation  |                                                 |
\*---------------------------------------------------------------------------*/
FoamFile
{
    version     2.0;
    format      ascii;
    class       volScalarField;
    location    "38";
    object      magGField;
}
// * * * * * * * * * * * * * * * * * * * * * * * * * * * * * * * * * * * * * //

dimensions      [1 -2 -1 0 0 0 0];

internalField   nonuniform List<scalar> 
108
(
71.0417
127.647
72.489
134.988
69.6651
143.194
57.8968
154.052
48.3683
57.0485
114.38
52.9076
115.721
43.6645
109.785
24.489
86.1955
6.02468
71.1426
126.45
72.0731
134.287
69.4502
145.204
60.1558
165.073
58.7684
91.6754
140.019
93.6735
145.723
90.8554
156.331
80.9727
177.937
65.3294
18.6991
101.154
14.7894
104.044
11.6681
107.325
11.7686
110.295
30.8984
12.6352
94.8853
7.29919
94.2832
3.97409
90.6147
4.48626
78.2467
19.4891
28.6533
104.916
28.198
112.002
30.2571
124.464
37.4773
145.196
74.805
63.6392
119.99
63.2028
124.957
58.7969
135.258
49.4925
161.962
63.351
6.08834
91.2541
3.65923
91.1538
4.27143
89.5995
8.0729
82.0658
30.2878
0.0282502
87.5305
2.76407e-05
86.692
2.82964e-05
85.0009
4.09001e-05
74.8374
11.1348
7.73507
93.4953
3.39663
96.0311
7.02918
98.1283
21.5633
95.9593
57.895
48.7253
108.821
47.064
112.041
42.606
118.436
37.5126
139.742
35.8062
)
;

boundaryField
{
    inlet
    {
        type            calculated;
        value           nonuniform 0();
    }
    outlet
    {
        type            calculated;
        value           nonuniform List<scalar> 
12
(
100.796
12.6195
122.587
133.389
66.4029
41.8204
160.423
134.973
66.0415
24.261
125.776
78.0895
)
;
    }
    wall
    {
        type            calculated;
        value           uniform 0;
    }
    procBoundary3to1
    {
        type            processor;
        value           nonuniform List<scalar> 
27
(
66.9074
121.955
65.5231
126.35
62.2756
135.733
57.0803
158.121
51.6923
10.2741
95.3696
2.38107
95.2704
3.59268e-05
91.4018
4.89989
83.1519
39.5568
10.7161
92.9839
9.30932
93.5328
10.6474
92.8838
17.975
87.8652
39.5276
)
;
    }
    procBoundary3to2
    {
        type            processor;
        value           nonuniform List<scalar> 
12
(
121.931
112.998
121.173
133.729
97.849
94.6143
101.496
116.155
91.193
88.5089
92.0117
105.641
)
;
    }
    procBoundary3to7
    {
        type            processor;
        value           nonuniform List<scalar> 
36
(
3.68318e-05
85.9964
3.39757e-05
85.9772
3.47047e-05
84.1126
3.90909e-05
73.4178
13.1886
3.57715e-05
85.2949
3.20396e-05
83.7347
4.2709
81.4654
18.5124
74.8433
44.4517
20.6439
95.9925
19.8847
99.5332
21.2912
104.434
25.6999
112.629
30.6614
48.2119
106.633
45.8744
109.098
41.6626
111.602
34.2762
116.461
26.4875
)
;
    }
}


// ************************************************************************* //
