/*--------------------------------*- C++ -*----------------------------------*\
| =========                 |                                                 |
| \\      /  F ield         | OpenFOAM: The Open Source CFD Toolbox           |
|  \\    /   O peration     | Version:  4.x                                   |
|   \\  /    A nd           | Web:      www.OpenFOAM.org                      |
|    \\/     M anipulation  |                                                 |
\*---------------------------------------------------------------------------*/
FoamFile
{
    version     2.0;
    format      ascii;
    class       volVectorField;
    location    "38";
    object      Urel;
}
// * * * * * * * * * * * * * * * * * * * * * * * * * * * * * * * * * * * * * //

dimensions      [0 1 -1 0 0 0 0];

internalField   nonuniform List<vector> 
108
(
(-0.023006 3.80794e-05 0.000454762)
(-0.0244579 1.37803e-05 0.000394794)
(-0.0231788 2.03099e-05 0.000316851)
(-0.0246328 3.97249e-05 0.000217839)
(-0.0229559 0.000128185 0.000224506)
(-0.0243255 0.000166303 8.20662e-05)
(-0.0218649 0.000387254 0.000432424)
(-0.0229839 0.000344519 0.000358989)
(-0.018875 0.00107572 0.00163577)
(-0.0228886 -7.9046e-06 0.000429954)
(-0.024352 -1.71629e-05 0.000353695)
(-0.0229832 -1.02881e-05 0.00027426)
(-0.0244099 -2.29961e-05 0.000144866)
(-0.0226267 -5.03295e-05 0.00013675)
(-0.0238342 -9.27522e-05 -2.95614e-05)
(-0.0212911 -0.000208593 0.000248025)
(-0.0219001 -0.000266293 0.000235321)
(-0.0184096 -0.000672461 0.00112275)
(-0.0239533 -9.56245e-05 0.000433585)
(-0.0254259 -7.72475e-05 0.000355797)
(-0.0242696 -6.28577e-05 0.00025649)
(-0.0257447 -7.01205e-05 0.000148502)
(-0.0241999 -0.000211858 0.000101753)
(-0.0256589 -0.000264242 1.14846e-05)
(-0.0232826 -0.000745544 0.000291545)
(-0.0245695 -0.000795893 0.000541146)
(-0.0200685 -0.00245441 0.00175023)
(-0.0252734 -1.00403e-05 0.000461806)
(-0.0266475 3.65281e-05 0.000388427)
(-0.0257239 0.000127128 0.000303578)
(-0.0270737 0.000130804 0.000217254)
(-0.0257709 0.000101518 0.000189534)
(-0.0271359 -2.17402e-05 0.000149853)
(-0.0249989 -0.00030217 0.000453174)
(-0.0262634 -0.000682877 0.000994601)
(-0.0215004 -0.00161263 0.00313512)
(-0.0204734 1.00815e-05 0.000408967)
(-0.0223003 -2.01022e-05 0.000325076)
(-0.0204284 -1.08204e-05 0.000271681)
(-0.0223308 -9.79109e-06 0.000135347)
(-0.0201942 2.50779e-05 0.000167819)
(-0.0219918 6.07862e-05 -2.99924e-05)
(-0.0194647 0.000114519 0.000291169)
(-0.0208097 0.000201255 0.000121878)
(-0.0176446 0.000277322 0.00158358)
(-0.0205764 -2.68795e-05 0.000409576)
(-0.0223944 -4.1142e-05 0.000311282)
(-0.0205444 -2.65737e-05 0.000264179)
(-0.0223947 -3.61202e-05 0.000129083)
(-0.0203152 -6.05338e-05 0.000151704)
(-0.0219959 -8.04155e-05 -3.78003e-06)
(-0.0195392 -0.000228326 0.000263171)
(-0.0205892 -0.000235257 0.000236372)
(-0.0176697 -0.00102373 0.00120325)
(-0.0217613 -8.58005e-05 0.0004657)
(-0.0235245 -6.77992e-05 0.000389491)
(-0.021922 -4.25055e-05 0.000344248)
(-0.0237794 -1.8582e-05 0.000211663)
(-0.0219365 -0.000142737 0.000288669)
(-0.0238211 -0.000133805 0.000108712)
(-0.0214529 -0.000647482 0.000578314)
(-0.0230386 -0.000665528 0.000542406)
(-0.0190404 -0.00264431 0.00232541)
(-0.0234214 -2.01028e-05 0.000526467)
(-0.0248988 2.77128e-05 0.000453973)
(-0.0236894 0.000121385 0.000430643)
(-0.0252131 0.000143291 0.000335439)
(-0.0236811 0.000120104 0.000414356)
(-0.0253089 2.79262e-05 0.000307759)
(-0.0230728 -0.000298407 0.000731658)
(-0.0247297 -0.000692631 0.00099186)
(-0.0201461 -0.00184892 0.00324706)
(-0.0186159 3.05145e-05 0.000324177)
(-0.020549 8.24032e-06 0.000238877)
(-0.0185236 7.62848e-06 0.000198594)
(-0.020487 3.43472e-06 8.4787e-05)
(-0.0183542 2.39164e-05 9.95096e-05)
(-0.0201444 3.2097e-05 -6.4426e-05)
(-0.0178024 7.53554e-05 0.000134859)
(-0.0190453 3.96209e-05 -5.52071e-05)
(-0.0166839 0.000250387 0.000985629)
(-0.0187674 -1.88445e-05 0.000318847)
(-0.0207104 -7.38263e-06 0.000237284)
(-0.0187 -8.89199e-06 0.000196933)
(-0.0206523 -1.70882e-05 8.49447e-05)
(-0.0185743 -4.49585e-05 0.000100725)
(-0.0203731 -0.000107719 -5.97514e-05)
(-0.0180506 -0.000217393 0.000147085)
(-0.0192595 -0.000324579 4.39614e-05)
(-0.016779 -0.000873365 0.000768354)
(-0.0198832 -7.51956e-05 0.000392467)
(-0.0217631 -3.05551e-05 0.000333307)
(-0.0198569 -1.09847e-05 0.000302795)
(-0.0218485 1.7757e-05 0.000222062)
(-0.0198581 -7.53699e-05 0.000277862)
(-0.0217862 -0.000108238 0.000170453)
(-0.0195749 -0.000519059 0.000510386)
(-0.0209012 -0.000592341 0.000422369)
(-0.0179485 -0.0022144 0.00158064)
(-0.021677 -5.6323e-05 0.000504277)
(-0.0231733 -2.81698e-06 0.000445816)
(-0.0217516 6.2392e-05 0.000459472)
(-0.023319 0.000117699 0.000378181)
(-0.0216448 3.84674e-05 0.000496619)
(-0.0233038 1.52374e-05 0.000386106)
(-0.0211083 -0.000370907 0.000779223)
(-0.0227057 -0.000584612 0.000751078)
(-0.0186641 -0.0017881 0.00204333)
)
;

boundaryField
{
    inlet
    {
        type            calculated;
        value           nonuniform 0();
    }
    outlet
    {
        type            calculated;
        value           nonuniform List<vector> 
12
(
(-0.00811622 0.0106394 0.00534268)
(-0.00287433 -0.000804021 0.000257182)
(-0.00933507 -0.0152814 0.00158251)
(-0.014597 -0.0013256 0.0139715)
(-0.00444321 0.000291892 0.0082296)
(-0.00455483 -0.00413786 0.00130992)
(-0.00709196 -0.0183517 0.0127603)
(-0.00906519 -0.00406911 0.0174056)
(-0.00644605 0.00267319 0.00580455)
(-0.00368932 -0.000809851 0.000537609)
(-0.00980223 -0.0143199 0.00637778)
(-0.00747623 -0.00714178 0.00625915)
)
;
    }
    wall
    {
        type            calculated;
        value           nonuniform List<vector> 
63
(
(-6.00209e-10 -5.57218e-09 6.24926e-09)
(-5.21547e-09 -4.71089e-09 5.26523e-09)
(-2.39522e-09 1.65884e-09 3.08729e-09)
(-1.55505e-09 -1.98645e-09 1.37633e-09)
(-2.0964e-09 -6.01296e-09 7.49459e-09)
(-6.98895e-09 -5.28951e-09 5.7305e-09)
(-4.29085e-09 -3.86833e-09 4.34454e-09)
(-2.62533e-09 -4.36948e-09 2.0025e-09)
(-3.21893e-09 -7.30359e-09 6.19485e-09)
(-7.14839e-09 -4.78971e-09 4.87659e-09)
(-5.36533e-09 -3.61788e-09 3.88438e-09)
(-2.18517e-09 -1.77225e-08 2.54004e-09)
(-3.79999e-09 -3.81403e-09 3.23664e-09)
(-8.21321e-09 -2.8282e-09 2.98267e-09)
(-5.51509e-09 -1.86328e-09 2.49697e-09)
(-2.74053e-09 -1.33944e-09 6.28652e-10)
(-2.73662e-09 -3.00924e-09 -1.98256e-09)
(-9.16476e-09 -1.93711e-09 -9.28895e-10)
(-7.33673e-09 -6.88235e-10 -4.00313e-10)
(-3.4941e-09 -7.98828e-10 -3.11785e-10)
(5.95372e-10 -6.38198e-10 -4.0637e-09)
(-9.16654e-09 1.41281e-09 -4.27715e-09)
(-1.99923e-09 9.50305e-10 -4.52011e-09)
(-8.72992e-11 4.49231e-10 -2.7874e-09)
(1.59793e-09 -4.42811e-09 -1.13936e-08)
(-8.47351e-09 1.91008e-10 -1.13796e-08)
(1.20569e-10 7.47913e-10 -1.0565e-08)
(1.13116e-08 7.97295e-09 -4.42188e-09)
(5.34429e-08 3.17133e-08 -2.62844e-08)
(-1.35382e-08 2.19621e-08 -2.35625e-08)
(1.64858e-08 9.64624e-09 -2.43626e-08)
(1.55372e-08 6.148e-09 -7.47735e-09)
(-3.57813e-07 6.46958e-09 -2.33439e-08)
(-5.62463e-07 1.89233e-08 -5.21894e-08)
(7.86008e-09 2.48611e-08 -3.49295e-08)
(-3.06722e-09 3.59004e-07 -3.19682e-08)
(-1.55505e-09 -1.98645e-09 1.37633e-09)
(-1.50029e-09 -1.17131e-09 1.59424e-09)
(-8.1017e-10 -8.88355e-10 1.67326e-09)
(-2.62533e-09 -4.36948e-09 2.0025e-09)
(-3.17811e-09 -2.63844e-09 1.806e-09)
(-1.64788e-09 -1.52584e-09 1.64258e-09)
(-2.18517e-09 -1.77225e-08 2.54004e-09)
(-2.21733e-09 -1.55217e-09 1.40181e-09)
(-2.0256e-09 -2.70642e-09 2.11498e-09)
(-2.74053e-09 -1.33944e-09 6.28652e-10)
(-1.46346e-09 -1.37159e-09 4.27258e-10)
(-1.50702e-09 -1.36162e-09 3.77994e-10)
(-3.4941e-09 -7.98828e-10 -3.11785e-10)
(-5.64855e-10 -4.9288e-10 -1.45339e-09)
(-1.33641e-09 -1.02616e-09 -1.56495e-09)
(-8.72992e-11 4.49231e-10 -2.7874e-09)
(1.43896e-09 -3.45224e-10 -2.92463e-09)
(-7.43276e-10 -5.60437e-10 -2.26181e-09)
(1.13116e-08 7.97295e-09 -4.42188e-09)
(3.54117e-09 6.07244e-10 -5.00925e-09)
(-1.44315e-10 2.56601e-10 -3.71851e-09)
(1.55372e-08 6.148e-09 -7.47735e-09)
(5.12396e-09 1.62979e-09 -7.6059e-09)
(1.96195e-10 2.47985e-10 -5.36155e-09)
(-3.06722e-09 3.59004e-07 -3.19682e-08)
(1.27045e-09 4.30359e-10 -2.08342e-08)
(4.61937e-10 -1.79771e-09 -6.77933e-09)
)
;
    }
    procBoundary3to1
    {
        type            processor;
        value           nonuniform List<vector> 
27
(
(-0.0233131 5.8706e-05 0.000532447)
(-0.0247489 1.72263e-05 0.000478038)
(-0.0235016 -7.92068e-06 0.000440433)
(-0.0249795 -1.12944e-05 0.000353444)
(-0.0233886 7.00874e-05 0.000446218)
(-0.0248768 0.000107335 0.000295785)
(-0.0226163 0.000384312 0.000778182)
(-0.0239597 0.000430871 0.000603332)
(-0.0197319 0.00127112 0.00234134)
(-0.0207635 4.8353e-05 0.000420702)
(-0.0225749 1.04165e-05 0.000335815)
(-0.0206854 -1.23514e-06 0.000299118)
(-0.0226013 -2.58533e-05 0.000194933)
(-0.0204931 4.05937e-05 0.000229997)
(-0.0222867 5.46234e-05 9.58738e-05)
(-0.0199104 0.000235559 0.000403755)
(-0.0211429 0.000317312 0.00035913)
(-0.0183099 0.000882652 0.00188569)
(-0.0191232 6.84799e-05 0.000362879)
(-0.0209844 2.23845e-05 0.000269333)
(-0.01905 2.09272e-05 0.00026526)
(-0.0209558 -2.02724e-05 0.000158646)
(-0.0188917 6.55272e-05 0.000210319)
(-0.0206418 4.54288e-05 5.34334e-05)
(-0.0183878 0.000292875 0.000310998)
(-0.0195879 0.000217362 9.82726e-05)
(-0.017175 0.00109292 0.00108473)
)
;
    }
    procBoundary3to2
    {
        type            processor;
        value           nonuniform List<vector> 
12
(
(-0.0240904 4.81988e-05 0.000569787)
(-0.0240225 -2.80636e-05 0.00054678)
(-0.0249029 -0.000137224 0.000545608)
(-0.0259751 -0.000101411 0.000557562)
(-0.0221599 2.18301e-05 0.000503524)
(-0.0222522 -4.60482e-05 0.000512886)
(-0.0232022 -0.000146313 0.000561207)
(-0.0244399 -0.000119123 0.000602621)
(-0.020561 5.86076e-05 0.00038976)
(-0.0207262 -2.03282e-05 0.000400375)
(-0.0216613 -0.00013242 0.000452059)
(-0.0229431 -0.000139671 0.000536588)
)
;
    }
    procBoundary3to7
    {
        type            processor;
        value           nonuniform List<vector> 
36
(
(-0.0175661 1.9473e-05 0.000202641)
(-0.0195112 -1.05782e-05 0.000155125)
(-0.0174886 1.49393e-06 0.000110421)
(-0.019432 -3.02839e-05 4.01723e-05)
(-0.0173351 3.06573e-06 -4.13519e-06)
(-0.0191191 -1.95701e-05 -0.000141405)
(-0.0168295 2.92532e-05 -0.000123335)
(-0.0180855 0.000101471 -0.000342398)
(-0.0159704 -6.48712e-05 3.49348e-05)
(-0.017861 -2.27726e-05 0.00023412)
(-0.0197936 -1.57968e-05 0.000196845)
(-0.0177879 -1.84479e-06 0.000162625)
(-0.0197105 -3.85651e-06 0.00010536)
(-0.0177297 -4.53879e-05 9.41842e-05)
(-0.0194663 -5.81918e-05 -2.53344e-05)
(-0.0174404 -0.000270534 5.50645e-05)
(-0.0185434 -0.000174214 -0.000126145)
(-0.0164606 -0.00110494 0.000145844)
(-0.0191479 -8.65721e-05 0.000341454)
(-0.0209154 -3.13409e-05 0.000295579)
(-0.0190844 -2.59187e-05 0.000317745)
(-0.0209118 4.23423e-05 0.000275202)
(-0.0189763 -6.21364e-05 0.000334875)
(-0.0207622 3.00652e-05 0.000251612)
(-0.0185326 -0.000334719 0.000441687)
(-0.0199089 -0.000184392 0.000207318)
(-0.0168436 -0.00131507 0.000845381)
(-0.0207396 -3.96167e-05 0.000456204)
(-0.0221829 1.66776e-05 0.000427125)
(-0.020663 7.058e-05 0.000466987)
(-0.0221472 0.000115636 0.000418423)
(-0.0203829 8.09837e-05 0.00052435)
(-0.0218842 6.308e-05 0.00041284)
(-0.0196116 -0.00014145 0.000689313)
(-0.0208618 -0.000304333 0.000436766)
(-0.0172767 -0.000826233 0.00129373)
)
;
    }
}


// ************************************************************************* //
