/*--------------------------------*- C++ -*----------------------------------*\
| =========                 |                                                 |
| \\      /  F ield         | OpenFOAM: The Open Source CFD Toolbox           |
|  \\    /   O peration     | Version:  4.x                                   |
|   \\  /    A nd           | Web:      www.OpenFOAM.org                      |
|    \\/     M anipulation  |                                                 |
\*---------------------------------------------------------------------------*/
FoamFile
{
    version     2.0;
    format      ascii;
    class       volScalarField;
    location    "17.5";
    object      QWallFluid;
}
// * * * * * * * * * * * * * * * * * * * * * * * * * * * * * * * * * * * * * //

dimensions      [1 -1 -3 0 0 0 0];

internalField   nonuniform List<scalar> 
87
(
0
0
0
8.49064e+08
4.74894e+08
8.66093e+08
0
0
0
0
0
0
0
0
0
0
0
0
0
0
0
0
0
0
8.11701e+08
4.21895e+08
8.12927e+08
4.19563e+08
8.05801e+08
3.97487e+08
8.02906e+08
3.91668e+08
8.02951e+08
0
0
0
0
0
0
0
0
0
0
0
0
0
0
0
0
0
0
8.11308e+08
4.37592e+08
8.22464e+08
4.48253e+08
8.22748e+08
4.4116e+08
8.25983e+08
4.52618e+08
8.4257e+08
8.03585e+08
4.1152e+08
7.97582e+08
3.78273e+08
7.87589e+08
3.51964e+08
7.82173e+08
3.3407e+08
7.90147e+08
8.07578e+08
4.37689e+08
8.14985e+08
4.46772e+08
8.15607e+08
4.35037e+08
8.13403e+08
4.39822e+08
8.20227e+08
1.6303e+09
9.33333e+08
1.68049e+09
1.04527e+09
1.73612e+09
1.13083e+09
1.77891e+09
1.17011e+09
1.78493e+09
)
;

boundaryField
{
    inlet
    {
        type            calculated;
        value           uniform 0;
    }
    outlet
    {
        type            calculated;
        value           nonuniform 0();
    }
    wall
    {
        type            calculated;
        value           uniform 0;
    }
    procBoundary6to0
    {
        type            processor;
        value           uniform 0;
    }
    procBoundary6to2
    {
        type            processor;
        value           nonuniform List<scalar> 
32
(
0
0
0
8.56183e+08
4.87548e+08
8.66542e+08
0
0
0
0
0
0
0
0
0
0
0
0
0
0
0
0
0
0
0
8.12586e+08
4.33477e+08
8.24616e+08
4.49848e+08
8.36798e+08
4.60572e+08
4.60572e+08
)
;
    }
    procBoundary6to4
    {
        type            processor;
        value           nonuniform List<scalar> 
27
(
0
0
0
0
0
0
0
0
0
0
0
0
0
0
0
0
0
0
7.94977e+08
3.91225e+08
7.87037e+08
3.45935e+08
7.76912e+08
3.2511e+08
7.81339e+08
3.35026e+08
7.86254e+08
)
;
    }
    procBoundary6to7
    {
        type            processor;
        value           nonuniform List<scalar> 
12
(
0
0
4.82014e+08
0
0
3.74903e+08
0
0
4.78121e+08
3.34114e+08
4.55773e+08
1.13704e+09
)
;
    }
}


// ************************************************************************* //
