/*--------------------------------*- C++ -*----------------------------------*\
| =========                 |                                                 |
| \\      /  F ield         | OpenFOAM: The Open Source CFD Toolbox           |
|  \\    /   O peration     | Version:  4.x                                   |
|   \\  /    A nd           | Web:      www.OpenFOAM.org                      |
|    \\/     M anipulation  |                                                 |
\*---------------------------------------------------------------------------*/
FoamFile
{
    version     2.0;
    format      ascii;
    class       volVectorField;
    location    "17.5";
    object      UsNext;
}
// * * * * * * * * * * * * * * * * * * * * * * * * * * * * * * * * * * * * * //

dimensions      [0 1 -1 0 0 0 0];

internalField   nonuniform List<vector> 
87
(
(-3.15724e-07 -1.67732e-08 -5.14392e-08)
(-2.20378e-07 -3.69518e-08 -4.4339e-08)
(-2.88634e-07 -5.79832e-09 -5.37289e-08)
(-5.4287e-08 -5.2398e-09 -2.33463e-08)
(-1.19139e-07 -2.02666e-08 -4.59155e-08)
(-1.00714e-07 -4.47652e-09 -4.33805e-08)
(5.92801e-08 -7.43875e-09 -8.74881e-09)
(8.69578e-08 -2.52348e-08 -1.93943e-08)
(9.98591e-08 -3.10193e-08 -2.86207e-08)
(6.84949e-08 -3.88045e-08 -3.0129e-08)
(-1.22752e-08 -3.47955e-08 -3.75052e-08)
(-1.24837e-07 -5.23592e-08 -2.3625e-08)
(-1.73046e-07 -5.49542e-08 -3.26278e-08)
(-2.36764e-07 -4.51707e-08 -3.44551e-08)
(-2.98933e-07 -1.14243e-08 -3.08912e-08)
(8.00938e-08 4.89316e-10 -4.09823e-09)
(9.54165e-08 -1.94706e-08 -1.61362e-08)
(1.05629e-07 -1.66914e-08 -2.19837e-08)
(4.7542e-08 -1.66765e-08 -1.72007e-08)
(2.8726e-09 -7.39975e-09 -3.34e-08)
(-7.79648e-08 -2.22492e-08 -2.76872e-08)
(-1.56057e-07 -2.52063e-08 -4.16601e-08)
(-1.94161e-07 -2.55283e-08 -5.13175e-08)
(-2.50196e-07 -4.2215e-09 -2.42078e-08)
(2.57498e-08 2.03538e-09 -8.5833e-09)
(9.08203e-08 -1.33873e-08 -1.879e-08)
(5.03775e-08 7.3917e-09 -1.13216e-08)
(3.17223e-08 -1.54611e-10 -1.07458e-08)
(9.72607e-09 1.61065e-09 -1.17688e-08)
(-3.80855e-08 -2.72142e-09 -1.42089e-08)
(-6.73048e-08 -5.14559e-09 -1.78125e-08)
(-6.61948e-08 -2.55626e-09 -1.70333e-08)
(-1.32233e-07 6.04125e-09 -2.68148e-08)
(4.21951e-08 -3.01376e-09 -5.80254e-09)
(7.63292e-08 -1.35916e-08 -6.58776e-09)
(8.95318e-08 -2.22977e-08 -1.57085e-08)
(6.67276e-08 -2.00022e-08 -1.4133e-08)
(2.93038e-08 -1.54549e-08 -1.0006e-08)
(-7.28548e-08 -2.0932e-08 -1.64925e-08)
(-1.2775e-07 -3.85855e-08 -3.12405e-08)
(-1.90117e-07 -4.83378e-08 -2.21723e-08)
(-2.35206e-07 -1.85526e-08 -2.27369e-08)
(5.40486e-08 7.51173e-09 6.07428e-10)
(8.28433e-08 -1.42781e-08 -9.23063e-09)
(8.34262e-08 -2.15178e-08 -9.30067e-09)
(5.86689e-08 -1.84703e-08 -1.10683e-08)
(3.79222e-08 -3.66199e-09 -3.30369e-09)
(-6.96691e-08 -1.14868e-08 -9.05834e-09)
(-1.01609e-07 -2.887e-08 -2.99784e-08)
(-1.40557e-07 -6.13206e-09 -4.19215e-08)
(-2.20503e-07 -1.60876e-08 3.3008e-09)
(1.11084e-07 -1.18478e-08 -3.74084e-08)
(1.9331e-07 2.37586e-08 -5.50866e-08)
(4.78885e-08 -1.55725e-08 -1.37101e-09)
(2.92709e-08 -7.40366e-09 -6.4747e-09)
(1.96187e-08 3.9614e-10 -4.17999e-09)
(-1.58185e-08 1.07422e-09 -3.63314e-09)
(-3.42991e-08 -8.9653e-09 -1.28944e-08)
(-5.79719e-08 -7.94586e-09 -3.46616e-08)
(-9.25971e-08 -2.37928e-08 1.48604e-08)
(3.92366e-08 5.3085e-10 -5.67544e-09)
(5.29198e-08 -6.49752e-09 -1.66772e-09)
(7.30113e-08 -1.34713e-08 -3.36598e-09)
(3.77414e-08 -8.07841e-09 -3.44344e-09)
(1.70316e-08 -1.14678e-08 2.14464e-09)
(-2.22356e-08 -1.0185e-08 3.90885e-09)
(-8.62511e-08 -3.12586e-08 -1.48079e-08)
(-1.33389e-07 -2.69321e-08 -6.92493e-09)
(-1.64301e-07 -2.9597e-08 -2.87548e-08)
(1.85223e-07 7.27498e-08 -6.76452e-10)
(6.12543e-08 -1.45119e-08 -4.16089e-09)
(4.76826e-08 -4.46981e-09 -3.61678e-09)
(3.55017e-08 -6.73391e-09 -5.2747e-09)
(1.73538e-08 -4.13057e-09 1.28606e-09)
(-1.72249e-08 -6.05129e-09 1.17397e-09)
(-4.52765e-08 -1.83183e-08 -1.76476e-08)
(-8.06963e-08 -3.97255e-09 -1.50416e-08)
(-1.12383e-07 -4.12331e-08 1.1744e-08)
(5.50326e-07 1.65762e-07 9.86382e-09)
(4.80914e-08 -1.5289e-09 -8.86004e-09)
(2.84468e-08 -7.64917e-09 1.08991e-09)
(1.56728e-08 -2.59611e-09 -6.63214e-10)
(1.26957e-08 -1.38704e-09 -2.03504e-10)
(-7.70178e-09 -1.5036e-09 -8.41947e-10)
(-1.09812e-08 -6.174e-09 -6.51156e-09)
(-1.31271e-08 -6.11669e-09 -1.91773e-08)
(-5.2108e-08 -1.84629e-08 1.35816e-08)
)
;

boundaryField
{
    inlet
    {
        type            calculated;
        value           nonuniform List<vector> 9((5.92801e-08 -7.43875e-09 -8.74881e-09) (8.00938e-08 4.89316e-10 -4.09823e-09) (2.57498e-08 2.03538e-09 -8.5833e-09) (4.21951e-08 -3.01376e-09 -5.80254e-09) (5.40486e-08 7.51173e-09 6.07428e-10) (1.11084e-07 -1.18478e-08 -3.74084e-08) (3.92366e-08 5.3085e-10 -5.67544e-09) (1.85223e-07 7.27498e-08 -6.76452e-10) (5.50326e-07 1.65762e-07 9.86382e-09));
    }
    outlet
    {
        type            calculated;
        value           nonuniform 0();
    }
    wall
    {
        type            calculated;
        value           nonuniform List<vector> 
57
(
(3.92366e-08 5.3085e-10 -5.67544e-09)
(1.85223e-07 7.27498e-08 -6.76452e-10)
(5.50326e-07 1.65762e-07 9.86382e-09)
(5.29198e-08 -6.49752e-09 -1.66772e-09)
(6.12543e-08 -1.45119e-08 -4.16089e-09)
(4.80914e-08 -1.5289e-09 -8.86004e-09)
(7.30113e-08 -1.34713e-08 -3.36598e-09)
(4.76826e-08 -4.46981e-09 -3.61678e-09)
(2.84468e-08 -7.64917e-09 1.08991e-09)
(3.77414e-08 -8.07841e-09 -3.44344e-09)
(3.55017e-08 -6.73391e-09 -5.2747e-09)
(1.56728e-08 -2.59611e-09 -6.63214e-10)
(1.70316e-08 -1.14678e-08 2.14464e-09)
(1.73538e-08 -4.13057e-09 1.28606e-09)
(1.26957e-08 -1.38704e-09 -2.03504e-10)
(-2.22356e-08 -1.0185e-08 3.90885e-09)
(-1.72249e-08 -6.05129e-09 1.17397e-09)
(-7.70178e-09 -1.5036e-09 -8.41947e-10)
(-8.62511e-08 -3.12586e-08 -1.48079e-08)
(-4.52765e-08 -1.83183e-08 -1.76476e-08)
(-1.09812e-08 -6.174e-09 -6.51156e-09)
(-1.33389e-07 -2.69321e-08 -6.92493e-09)
(-8.06963e-08 -3.97255e-09 -1.50416e-08)
(-1.31271e-08 -6.11669e-09 -1.91773e-08)
(-1.64301e-07 -2.9597e-08 -2.87548e-08)
(-1.12383e-07 -4.12331e-08 1.1744e-08)
(-5.2108e-08 -1.84629e-08 1.35816e-08)
(2.57498e-08 2.03538e-09 -8.5833e-09)
(1.11084e-07 -1.18478e-08 -3.74084e-08)
(5.50326e-07 1.65762e-07 9.86382e-09)
(9.08203e-08 -1.33873e-08 -1.879e-08)
(1.9331e-07 2.37586e-08 -5.50866e-08)
(4.80914e-08 -1.5289e-09 -8.86004e-09)
(5.03775e-08 7.3917e-09 -1.13216e-08)
(4.78885e-08 -1.55725e-08 -1.37101e-09)
(2.84468e-08 -7.64917e-09 1.08991e-09)
(3.17223e-08 -1.54611e-10 -1.07458e-08)
(2.92709e-08 -7.40366e-09 -6.4747e-09)
(1.56728e-08 -2.59611e-09 -6.63214e-10)
(9.72607e-09 1.61065e-09 -1.17688e-08)
(1.96187e-08 3.9614e-10 -4.17999e-09)
(1.26957e-08 -1.38704e-09 -2.03504e-10)
(-3.80855e-08 -2.72142e-09 -1.42089e-08)
(-1.58185e-08 1.07422e-09 -3.63314e-09)
(-7.70178e-09 -1.5036e-09 -8.41947e-10)
(-5.4287e-08 -5.2398e-09 -2.33463e-08)
(-6.73048e-08 -5.14559e-09 -1.78125e-08)
(-3.42991e-08 -8.9653e-09 -1.28944e-08)
(-1.09812e-08 -6.174e-09 -6.51156e-09)
(-1.19139e-07 -2.02666e-08 -4.59155e-08)
(-6.61948e-08 -2.55626e-09 -1.70333e-08)
(-5.79719e-08 -7.94586e-09 -3.46616e-08)
(-1.31271e-08 -6.11669e-09 -1.91773e-08)
(-1.00714e-07 -4.47652e-09 -4.33805e-08)
(-1.32233e-07 6.04125e-09 -2.68148e-08)
(-9.25971e-08 -2.37928e-08 1.48604e-08)
(-5.2108e-08 -1.84629e-08 1.35816e-08)
)
;
    }
    procBoundary6to0
    {
        type            processor;
        value           uniform (-3.49196e-07 -1.20817e-08 -6.94953e-08);
    }
    procBoundary6to2
    {
        type            processor;
        value           nonuniform List<vector> 
32
(
(-3.55081e-07 -1.60987e-08 -7.73857e-08)
(-2.50731e-07 -3.40793e-08 -6.15372e-08)
(-3.09924e-07 -2.27838e-08 -6.45418e-08)
(-8.87293e-08 5.80058e-09 -3.03017e-08)
(-1.34568e-07 1.07595e-08 -4.8857e-08)
(-1.81746e-07 -2.87739e-08 -5.2906e-08)
(4.84059e-08 -4.74204e-09 -1.25767e-08)
(8.92446e-08 -2.33906e-08 -2.87272e-08)
(9.87297e-08 -3.16292e-08 -4.43987e-08)
(4.98208e-08 -2.78649e-08 -4.97031e-08)
(-1.59807e-08 -4.51672e-08 -4.9939e-08)
(-1.14994e-07 -4.0063e-08 -3.98936e-08)
(-1.8899e-07 -3.55476e-08 -5.8035e-08)
(-2.81845e-07 -3.89918e-08 -5.64956e-08)
(-2.81845e-07 -3.89918e-08 -5.64956e-08)
(-2.81845e-07 -3.89918e-08 -5.64956e-08)
(4.18183e-08 -6.62837e-09 -4.90416e-09)
(9.62844e-08 -1.89733e-08 -2.83724e-08)
(8.39305e-08 -9.93387e-09 -3.75204e-08)
(4.98908e-08 -8.67661e-09 -4.15128e-08)
(-1.65223e-08 -1.92363e-08 -3.67979e-08)
(-8.45553e-08 -2.94532e-08 -3.98635e-08)
(-1.39956e-07 -9.80478e-09 -5.07607e-08)
(-1.39956e-07 -9.80478e-09 -5.07607e-08)
(-1.39956e-07 -9.80478e-09 -5.07607e-08)
(3.538e-08 -5.74117e-09 -6.53892e-09)
(5.57019e-08 -1.8367e-08 -2.36348e-08)
(7.6604e-08 -9.48589e-09 -2.7908e-08)
(4.53263e-08 1.67224e-09 -1.87238e-08)
(3.88969e-09 1.40597e-09 -2.4899e-08)
(-3.88454e-08 -4.57588e-09 -2.07306e-08)
(-3.88454e-08 -4.57588e-09 -2.07306e-08)
)
;
    }
    procBoundary6to4
    {
        type            processor;
        value           nonuniform List<vector> 
27
(
(4.51883e-08 -9.50371e-09 -1.53407e-08)
(8.46918e-08 -2.07031e-08 -2.36362e-08)
(9.95185e-08 -3.03766e-08 -3.24655e-08)
(7.19602e-08 -3.29662e-08 -2.81781e-08)
(-3.56631e-10 -5.06565e-08 -3.38462e-08)
(-1.18808e-07 -7.13384e-08 -4.85436e-08)
(-1.87274e-07 -5.83255e-08 -7.25122e-08)
(-2.7399e-07 -5.61719e-08 -4.82356e-08)
(-3.10094e-07 -1.04199e-08 -4.81131e-08)
(4.34762e-08 -5.08378e-09 -7.18117e-09)
(6.76777e-08 -1.32221e-08 -1.51199e-08)
(7.90939e-08 -2.08479e-08 -2.06024e-08)
(6.60779e-08 -2.36861e-08 -1.60999e-08)
(2.95204e-08 -2.74059e-08 -1.01575e-08)
(-7.25869e-08 -4.96848e-08 -1.72807e-08)
(-1.35541e-07 -7.5541e-08 -4.05632e-08)
(-1.95738e-07 -5.60905e-08 -3.6287e-08)
(-2.38833e-07 -1.92531e-08 -7.16009e-08)
(3.44363e-08 -6.81848e-09 -7.49394e-09)
(5.22375e-08 -3.37213e-09 -9.36256e-09)
(6.19144e-08 -9.75273e-09 -3.44783e-09)
(4.0178e-08 -1.76445e-08 -4.81619e-09)
(2.36069e-08 -1.8771e-08 1.24366e-09)
(-1.30067e-08 -2.41114e-08 7.47616e-09)
(-7.22033e-08 -3.37359e-08 -1.36062e-08)
(-2.94683e-07 6.41704e-08 -1.25879e-08)
(-1.66443e-07 -2.21576e-08 -1.88464e-08)
)
;
    }
    procBoundary6to7
    {
        type            processor;
        value           nonuniform List<vector> 
12
(
(-3.63891e-07 3.0866e-08 -4.72256e-08)
(-2.96437e-07 -1.12525e-08 -2.41614e-08)
(-1.94654e-07 -2.54937e-09 -1.88196e-08)
(-3.30915e-07 -7.40834e-09 -3.45957e-08)
(-2.94632e-07 -1.24747e-08 -1.63417e-08)
(-1.9059e-07 9.71864e-09 3.45786e-09)
(-2.67663e-07 -2.81874e-08 -2.68002e-08)
(-2.13549e-07 -1.4505e-08 -2.62629e-09)
(-1.20652e-07 -3.961e-09 1.59748e-08)
(-1.56114e-07 -3.61545e-08 -1.13914e-08)
(-9.00394e-08 -3.51399e-08 -1.5233e-12)
(-5.36304e-08 -5.59096e-09 4.5981e-09)
)
;
    }
}


// ************************************************************************* //
