/*--------------------------------*- C++ -*----------------------------------*\
| =========                 |                                                 |
| \\      /  F ield         | OpenFOAM: The Open Source CFD Toolbox           |
|  \\    /   O peration     | Version:  4.x                                   |
|   \\  /    A nd           | Web:      www.OpenFOAM.org                      |
|    \\/     M anipulation  |                                                 |
\*---------------------------------------------------------------------------*/
FoamFile
{
    version     2.0;
    format      ascii;
    class       volVectorField;
    location    "17.5";
    object      UsPrev;
}
// * * * * * * * * * * * * * * * * * * * * * * * * * * * * * * * * * * * * * //

dimensions      [0 1 -1 0 0 0 0];

internalField   nonuniform List<vector> 
87
(
(-3.15763e-07 -1.68307e-08 -5.15108e-08)
(-2.20356e-07 -3.70048e-08 -4.4392e-08)
(-2.88654e-07 -5.83742e-09 -5.3784e-08)
(-5.41985e-08 -5.25332e-09 -2.33778e-08)
(-1.19094e-07 -2.02937e-08 -4.59593e-08)
(-1.00685e-07 -4.4928e-09 -4.34211e-08)
(5.92515e-08 -7.17004e-09 -8.66398e-09)
(8.70562e-08 -2.50354e-08 -1.93103e-08)
(1.00099e-07 -3.09357e-08 -2.85841e-08)
(6.87577e-08 -3.88002e-08 -3.01414e-08)
(-1.20138e-08 -3.48307e-08 -3.75548e-08)
(-1.24728e-07 -5.24172e-08 -2.36763e-08)
(-1.72952e-07 -5.50298e-08 -3.26962e-08)
(-2.36803e-07 -4.52207e-08 -3.45034e-08)
(-2.98991e-07 -1.14525e-08 -3.09434e-08)
(8.01201e-08 4.71219e-10 -4.03988e-09)
(9.5496e-08 -1.9428e-08 -1.60879e-08)
(1.0583e-07 -1.66394e-08 -2.19588e-08)
(4.77618e-08 -1.66655e-08 -1.72027e-08)
(3.11044e-09 -7.40908e-09 -3.34309e-08)
(-7.78188e-08 -2.22781e-08 -2.77269e-08)
(-1.55959e-07 -2.52441e-08 -4.17147e-08)
(-1.94146e-07 -2.55618e-08 -5.13712e-08)
(-2.50213e-07 -4.23979e-09 -2.4249e-08)
(2.57761e-08 2.02562e-09 -8.55761e-09)
(9.09181e-08 -1.33802e-08 -1.87634e-08)
(5.04887e-08 7.40691e-09 -1.1307e-08)
(3.18557e-08 -1.44524e-10 -1.07438e-08)
(9.88314e-09 1.61245e-09 -1.17784e-08)
(-3.79531e-08 -2.73095e-09 -1.42316e-08)
(-6.72042e-08 -5.15724e-09 -1.78427e-08)
(-6.61565e-08 -2.5639e-09 -1.70592e-08)
(-1.32211e-07 6.03671e-09 -2.68501e-08)
(4.22381e-08 -2.86968e-09 -5.86464e-09)
(7.64502e-08 -1.34734e-08 -6.56471e-09)
(8.97587e-08 -2.22279e-08 -1.56825e-08)
(6.6959e-08 -1.99842e-08 -1.41348e-08)
(2.95499e-08 -1.54604e-08 -1.00246e-08)
(-7.27104e-08 -2.0957e-08 -1.6524e-08)
(-1.27637e-07 -3.86274e-08 -3.12832e-08)
(-1.90113e-07 -4.83802e-08 -2.22066e-08)
(-2.35234e-07 -1.85741e-08 -2.27757e-08)
(5.40856e-08 7.55365e-09 5.93398e-10)
(8.29421e-08 -1.42258e-08 -9.22298e-09)
(8.36002e-08 -2.14774e-08 -9.28647e-09)
(5.88666e-08 -1.84578e-08 -1.10673e-08)
(3.81609e-08 -3.65786e-09 -3.31183e-09)
(-6.95282e-08 -1.15009e-08 -9.07796e-09)
(-1.01488e-07 -2.88982e-08 -3.00149e-08)
(-1.4051e-07 -6.14806e-09 -4.19596e-08)
(-2.20509e-07 -1.61062e-08 3.28164e-09)
(1.11152e-07 -1.18478e-08 -3.74144e-08)
(1.93452e-07 2.37876e-08 -5.51022e-08)
(4.79942e-08 -1.55654e-08 -1.36338e-09)
(2.93882e-08 -7.40022e-09 -6.4742e-09)
(1.97621e-08 3.98308e-10 -4.18539e-09)
(-1.57149e-08 1.07269e-09 -3.64267e-09)
(-3.41992e-08 -8.97447e-09 -1.29133e-08)
(-5.79083e-08 -7.95377e-09 -3.4693e-08)
(-9.25665e-08 -2.3808e-08 1.48538e-08)
(3.92862e-08 6.15082e-10 -5.69195e-09)
(5.30141e-08 -6.43674e-09 -1.66279e-09)
(7.31994e-08 -1.34222e-08 -3.35415e-09)
(3.78873e-08 -8.06065e-09 -3.44397e-09)
(1.7181e-08 -1.14665e-08 2.13989e-09)
(-2.21311e-08 -1.01951e-08 3.90155e-09)
(-8.61536e-08 -3.12802e-08 -1.48272e-08)
(-1.33382e-07 -2.69577e-08 -6.93482e-09)
(-1.64299e-07 -2.96271e-08 -2.87858e-08)
(1.85341e-07 7.28258e-08 -6.86938e-10)
(6.13357e-08 -1.44761e-08 -4.16478e-09)
(4.77924e-08 -4.44059e-09 -3.61432e-09)
(3.56459e-08 -6.72005e-09 -5.27233e-09)
(1.74927e-08 -4.12597e-09 1.2868e-09)
(-1.71166e-08 -6.05652e-09 1.16971e-09)
(-4.51551e-08 -1.83132e-08 -1.76685e-08)
(-8.06476e-08 -3.98488e-09 -1.50568e-08)
(-1.12376e-07 -4.1262e-08 1.17437e-08)
(5.50625e-07 1.65865e-07 9.86974e-09)
(4.81572e-08 -1.51729e-09 -8.86191e-09)
(2.85352e-08 -7.64e-09 1.09393e-09)
(1.57655e-08 -2.58963e-09 -6.59786e-10)
(1.27988e-08 -1.3852e-09 -2.08081e-10)
(-7.60575e-09 -1.50437e-09 -8.45378e-10)
(-1.08748e-08 -6.18063e-09 -6.51971e-09)
(-1.30465e-08 -6.12333e-09 -1.91951e-08)
(-5.20583e-08 -1.84744e-08 1.35861e-08)
)
;

boundaryField
{
    inlet
    {
        type            calculated;
        value           uniform (0 0 0);
    }
    outlet
    {
        type            calculated;
        value           nonuniform 0();
    }
    wall
    {
        type            calculated;
        value           uniform (0 0 0);
    }
    procBoundary6to0
    {
        type            processor;
        value           uniform (0 0 0);
    }
    procBoundary6to2
    {
        type            processor;
        value           uniform (0 0 0);
    }
    procBoundary6to4
    {
        type            processor;
        value           uniform (0 0 0);
    }
    procBoundary6to7
    {
        type            processor;
        value           uniform (0 0 0);
    }
}


// ************************************************************************* //
