/*--------------------------------*- C++ -*----------------------------------*\
  =========                 |
  \\      /  F ield         | OpenFOAM: The Open Source CFD Toolbox
   \\    /   O peration     | Website:  https://openfoam.org
    \\  /    A nd           | Version:  4.x
     \\/     M anipulation  |
\*---------------------------------------------------------------------------*/
FoamFile
{
    version     2.0;
    format      ascii;
    class       Cloud<passiveParticle>;
    location    0;
    object      positions;
}
// * * * * * * * * * * * * * * * * * * * * * * * * * * * * * * * * * * * * * //

310
(
( 0.211661 -0.00560205 -0.0726895 ) 4
( 0.187169 -0.00943557 -0.0456947 ) 34
( 0.223545 -0.0130729 -0.058636 ) 36
( 0.203135 -0.0136603 -0.0353162 ) 64
( 0.235644 -0.00379989 -0.071324 ) 36
( 0.220492 -0.00514246 -0.0324739 ) 64
( 0.176678 -0.00935472 -0.0624135 ) 34
( 0.236084 -0.00905537 -0.0438789 ) 36
( 0.205809 -0.001526 -0.0507362 ) 35
( 0.167666 -0.0112937 -0.044693 ) 34
( 0.22638 -0.0111475 -0.0147375 ) 65
( 0.225314 0.0300851 -0.0273503 ) 74
( 0.0457948 0.0271907 -0.0469736 ) 38
( 0.215216 0.0376244 -0.0425766 ) 73
( 0.185431 0.0222804 -0.0700942 ) 43
( 0.11357 0.0388499 -0.0534931 ) 41
( 0.0323535 0.0742101 -0.0323391 ) 85
( 0.201885 0.0640999 -0.0450993 ) 53
( 0.212453 0.0179983 -0.0410416 ) 73
( 0.0749577 0.0448064 -0.050957 ) 48
( 0.0697991 0.0214955 -0.0471466 ) 39
( 0.0323081 0.0515493 -0.0611206 ) 47
( 0.173534 0.0184012 -0.0546826 ) 43
( 0.125971 0.0707841 -0.0485136 ) 50
( 0.0266302 0.0590186 -0.0436363 ) 46
( 0.0238067 0.0902946 -0.0399178 ) 84
( 0.043324 0.0901331 -0.0543616 ) 56
( 0.0625564 0.0501668 -0.0659363 ) 48
( 0.0782804 0.0721564 -0.0575333 ) 57
( 0.138065 0.0576179 -0.0571973 ) 50
( 0.180709 0.0551969 -0.0492795 ) 52
( 0.0592729 0.0312516 -0.0609032 ) 39
( 0.203287 0.00506152 -0.0291802 ) 64
( 0.100195 0.0434139 -0.0349115 ) 78
( 0.079044 0.0455013 -0.0254589 ) 77
( 0.239325 0.0524651 -0.0725158 ) 23
( 0.156998 0.0557705 -0.0682998 ) 51
( 0.215982 0.0776838 -0.0410356 ) 91
( 0.2441 0.0826061 -0.0399027 ) 92
( 0.168146 0.0665534 -0.0389498 ) 81
( 0.0925731 0.0600494 -0.0672991 ) 49
( 0.145339 0.071097 -0.044481 ) 51
( 0.110986 0.082433 -0.0427702 ) 87
( 0.154459 0.0565515 -0.0289754 ) 80
( 0.136384 0.0382073 -0.0531672 ) 41
( 0.210501 0.0742355 -0.0597826 ) 62
( 0.0254581 0.0819979 -0.05781 ) 55
( 0.186297 0.038964 -0.0593072 ) 43
( 0.185182 0.0889685 -0.0709468 ) 61
( 0.168862 0.0901206 -0.037518 ) 90
( 0.223435 0.0641702 -0.0708697 ) 54
( 0.118361 0.0217989 -0.0623756 ) 41
( 0.114023 0.0888486 -0.0613519 ) 59
( 0.0724799 0.0629139 -0.032122 ) 77
( 0.0925605 0.0772643 -0.0356245 ) 87
( 0.133776 0.0243517 -0.0392104 ) 70
( 0.196396 0.0526608 -0.0696624 ) 53
( 0.144925 0.00353986 -0.0699941 ) 33
( 0.218488 0.0258876 -0.0583233 ) 44
( 0.0270926 0.0248077 -0.0326874 ) 66
( 0.0996354 0.0176757 -0.0675198 ) 40
( 0.0901176 0.0248105 -0.0214976 ) 69
( 0.125557 0.0399824 -0.0697645 ) 41
( 0.124124 0.0635317 -0.0278536 ) 79
( 0.00983562 0.0177898 -0.0395184 ) 66
( 0.106581 0.0460285 -0.0707979 ) 49
( 0.0581586 0.0798815 -0.046157 ) 57
( 0.100039 0.0251737 -0.0491487 ) 40
( 0.154534 0.0242516 -0.052507 ) 42
( 0.225862 0.0635888 -0.0509995 ) 54
( 0.157128 0.00536253 -0.0468849 ) 33
( 0.181787 0.0316133 -0.0414356 ) 72
( 0.202727 0.0124663 -0.0703875 ) 35
( 0.0882108 0.0572314 -0.0427484 ) 78
( 0.0977967 0.0749231 -0.0553257 ) 58
( 0.124725 0.0517327 -0.0437062 ) 50
( 0.090002 0.0619835 -0.0230715 ) 78
( 0.19129 0.0711417 -0.0642661 ) 52
( 0.231528 0.0689434 -0.0326772 ) 83
( 0.0349279 0.0416946 -0.0389922 ) 67
( 0.144569 0.0731577 -0.0678337 ) 60
( 0.0619312 0.0465821 -0.0360706 ) 77
( 0.0762404 0.0886057 -0.035241 ) 86
( 0.15558 0.0545417 -0.0485621 ) 51
( 0.00997605 0.0726679 -0.0468562 ) 55
( 0.193064 0.0220142 -0.0284619 ) 72
( 0.0379459 0.0181534 -0.0644947 ) 38
( 0.136011 0.0455719 -0.0287409 ) 79
( 0.00989881 0.0813166 -0.0290154 ) 84
( 0.0108237 0.0545523 -0.0549739 ) 46
( 0.169391 0.0439031 -0.0320886 ) 81
( 0.0567458 0.0722484 -0.0644815 ) 57
( 0.151042 0.0900393 -0.0594859 ) 60
( 0.0282701 0.0329036 -0.055459 ) 38
( 0.114706 0.0289894 -0.036257 ) 70
( 0.23006 0.0120967 -0.0340982 ) 65
( 0.248874 0.0607993 -0.0242769 ) 83
( 0.0279785 0.0556803 -0.0187699 ) 76
( 0.242082 0.0555914 -0.0425612 ) 83
( 0.0960068 0.0900454 -0.0694634 ) 58
( 0.165467 0.0708287 -0.0581183 ) 51
( 0.188512 0.090289 -0.0347793 ) 90
( 0.232095 0.0279739 -0.0742791 ) 14
( 0.239138 0.0160662 -0.0600133 ) 45
( 0.196759 0.0449595 -0.0435026 ) 53
( 0.164522 0.0285304 -0.0691844 ) 42
( 0.0637636 0.0612407 -0.0495946 ) 48
( 0.247592 0.0106209 -0.0429002 ) 36
( 0.184963 0.0743432 -0.045775 ) 61
( 0.0835903 0.0270163 -0.0603261 ) 40
( 0.17122 0.0773752 -0.0226327 ) 90
( 0.167521 0.0393907 -0.052802 ) 43
( 0.176783 0.058106 -0.0685446 ) 52
( 0.114108 0.0902925 -0.025044 ) 88
( 0.227134 0.0901918 -0.0299076 ) 92
( 0.165934 0.0204036 -0.036649 ) 71
( 0.205039 0.0901346 -0.0702467 ) 62
( 0.18896 0.00641369 -0.05748 ) 34
( 0.120876 0.0661729 -0.0671538 ) 50
( 0.0586501 0.0274651 -0.0318744 ) 68
( 0.047312 0.0567655 -0.0272783 ) 76
( 0.0844092 0.0320215 -0.0390043 ) 69
( 0.249959 0.0885762 -0.0220543 ) 92
( 0.00990984 0.0284649 -0.0677902 ) 37
( 0.222452 0.0110172 -0.0709436 ) 36
( 0.132862 0.0897394 -0.0675753 ) 59
( 0.0490633 0.0481962 -0.0510749 ) 47
( 0.163351 0.082485 -0.0740661 ) 29
( 0.185466 0.061387 -0.0308159 ) 81
( 0.00970265 0.0356842 -0.0493384 ) 37
( 0.20724 0.0900329 -0.0282811 ) 91
( 0.21139 0.0510735 -0.0566461 ) 53
( 0.0854454 0.0901596 -0.0526886 ) 58
( 0.233381 0.028168 -0.045341 ) 45
( 0.20289 0.0329438 -0.0685048 ) 44
( 0.128741 0.0902636 -0.0481019 ) 59
( 0.0549035 0.0732208 -0.0190751 ) 85
( 0.0355588 0.0693651 -0.0693251 ) 47
( 0.231443 0.0450435 -0.0556919 ) 54
( 0.0282718 0.090155 -0.0195275 ) 85
( 0.228708 0.0900952 -0.0498748 ) 63
( 0.149152 0.0901871 -0.0397233 ) 89
( 0.0104534 0.0351326 -0.0297526 ) 66
( 0.151499 0.0373461 -0.0379469 ) 71
( 0.143522 0.02778 -0.0686247 ) 42
( 0.0433676 0.0672994 -0.0504423 ) 47
( 0.167813 0.00692961 -0.0699044 ) 34
( 0.170829 0.0900636 -0.0572341 ) 61
( 0.196868 0.0238358 -0.0518429 ) 44
( 0.137175 0.0900811 -0.0227744 ) 88
( 0.0527804 0.0273107 -0.0050479 ) 94
( 0.135532 0.0700964 6.09088e-05 ) 105
( 0.0833012 0.0549724 -0.00356744 ) 103
( 0.0894779 0.0423315 0.0105399 ) 96
( 0.217866 0.0165942 0.0112948 ) 100
( 0.114844 0.0250206 0.00870297 ) 97
( 0.0430417 0.0347624 0.010533 ) 94
( 0.110189 0.0412421 -0.00206838 ) 96
( 0.175661 0.03617 -0.0120381 ) 99
( 0.168879 0.0486546 0.00176475 ) 107
( 0.19122 0.0822048 -0.0167858 ) 90
( 0.125035 0.0510773 0.00636113 ) 105
( 0.153923 0.0394126 0.010832 ) 98
( 0.0490169 0.0902064 0.0075793 ) 109
( 0.125256 0.0234313 -0.00780147 ) 97
( 0.00985465 0.0488475 0.00689149 ) 101
( 0.011037 0.0659965 -0.0165291 ) 75
( 0.103384 0.0901076 -0.00350075 ) 111
( 0.159003 0.0681932 -0.0100088 ) 106
( 0.193375 0.0595716 -0.0127746 ) 107
( 0.0293368 0.0881073 0.00604055 ) 109
( 0.0272698 0.0434109 -0.00310269 ) 101
( 0.090739 0.0902262 0.0119002 ) 111
( 0.0756424 0.0182154 0.00723125 ) 95
( 0.0628589 0.0800442 -0.00215605 ) 110
( 0.207117 0.0272408 -0.00112169 ) 100
( 0.133949 0.0427866 -0.009038 ) 97
( 0.0582071 0.0697177 0.0138762 ) 103
( 0.00989979 0.0682369 0.002981 ) 101
( 0.124288 0.0776388 -0.0140645 ) 112
( 0.232425 0.0780824 -0.0152546 ) 92
( 0.16219 0.0798798 0.00557433 ) 113
( 0.163684 0.0259434 0.000281509 ) 98
( 0.145159 0.0901216 0.00640228 ) 113
( 0.0953035 0.023916 0.00530167 ) 96
( 0.0643654 0.0605416 -0.00573659 ) 103
( 0.0201241 0.0274374 -0.0144067 ) 66
( 0.0466391 0.0898356 -0.011948 ) 109
( 0.0663304 0.0371132 0.00534567 ) 95
( 0.0928127 0.0732033 -0.00374211 ) 111
( 0.0532207 0.051593 0.00795885 ) 102
( 0.105741 0.073053 -0.0187607 ) 87
( 0.153676 0.0900483 -0.0115731 ) 113
( 0.0292377 0.0233613 0.00244607 ) 94
( 0.14253 0.0275971 0.000288406 ) 98
( 0.221094 0.0370499 0.00870928 ) 100
( 0.153191 0.0467079 -0.0119645 ) 106
( 0.11699 0.0594706 -0.00966093 ) 105
( 0.0770219 0.0702151 0.00779686 ) 103
( 0.0110941 0.086871 -0.00999171 ) 108
( 0.0803803 0.0891378 -0.00480096 ) 110
( 0.191366 0.0389651 -0.000739218 ) 99
( 0.125031 0.0903335 0.000708308 ) 112
( 0.211742 0.0529942 -0.0156995 ) 82
( 0.108972 0.0286568 -0.0172555 ) 69
( 0.0824341 0.0340378 -0.00582832 ) 95
( 0.101126 0.0573499 0.00491244 ) 104
( 0.182733 0.0210207 -0.000700181 ) 99
( 0.0361241 0.0604908 0.00211937 ) 102
( 0.178941 0.0712716 -0.00558542 ) 107
( 0.00975613 0.0442861 -0.0122915 ) 101
( 0.107821 0.0577676 -0.0547268 ) 49
( 0.00985764 0.0901752 -0.067098 ) 55
( 0.216741 0.0558422 -0.0346844 ) 82
( 0.139918 0.0605859 -0.0164433 ) 80
( 0.0518153 0.0144505 0.0101074 ) 94
( 0.00984024 0.0296384 0.00233407 ) 93
( 0.00991266 0.0901384 0.00950129 ) 108
( 0.0702329 0.0230068 -0.0165288 ) 68
( 0.221014 0.0444459 -0.0727283 ) 22
( 0.0499578 0.0901385 -0.0314056 ) 85
( 0.158653 -0.0107628 -0.0703186 ) 33
( 0.00983538 0.0560938 -0.0336437 ) 75
( 0.228092 0.0901251 -0.0697318 ) 63
( 0.0942609 0.0431354 -0.0554208 ) 49
( 0.224289 0.00561984 -0.0518909 ) 36
( 0.217688 0.0137878 -0.0187617 ) 64
( 0.230982 0.0582099 -0.0160186 ) 83
( 0.0672033 0.0900611 -0.0606819 ) 57
( 0.24095 0.042546 -0.023029 ) 74
( 0.105929 0.0625487 -0.0355599 ) 78
( 0.145741 -0.00927044 -0.0541415 ) 33
( 0.202635 0.0901038 -0.0487114 ) 62
( 0.139642 0.0278489 -0.0206329 ) 71
( 0.249399 -0.00447323 -0.0301208 ) 65
( 0.0928493 0.0900519 -0.0203614 ) 87
( 0.116544 0.0456687 -0.0239202 ) 79
( 0.150135 0.0575838 0.00401997 ) 106
( 0.150726 0.0759033 -0.0260893 ) 89
( 0.159323 0.0304812 -0.0211183 ) 71
( 0.188393 0.0424316 -0.0257433 ) 72
( 0.114327 0.0737652 0.00387547 ) 112
( 0.0407359 0.0312951 -0.0201035 ) 67
( 0.0358963 0.0730594 -0.0129724 ) 109
( 0.173196 0.0166517 -0.0176237 ) 72
( 0.175289 0.0641382 0.0124159 ) 107
( 0.173045 0.0556238 -0.0163784 ) 81
( 0.0961083 0.044674 -0.0154377 ) 78
( 0.0755508 0.0734931 -0.0158239 ) 86
( 0.205426 0.0345757 -0.0193727 ) 73
( 0.203868 0.0703866 -0.0264719 ) 82
( 0.063705 0.0415436 -0.0137191 ) 95
( 0.0453498 0.0476422 -0.00976804 ) 102
( 0.0653626 0.0902184 -0.0188633 ) 86
( 0.0117487 0.0704829 -0.0666411 ) 46
( 0.109959 0.0787367 -0.0781074 ) 27
( 0.178292 0.0403389 -0.0774964 ) 12
( 0.0290721 0.0316665 -0.0760883 ) 7
( 0.238031 0.0776444 -0.0815368 ) 32
( 0.199011 0.0750082 -0.0821742 ) 31
( 0.17842 -0.0141711 -0.0816843 ) 3
( 0.0516397 0.0237948 -0.077705 ) 7
( 0.112313 0.0290149 -0.0799395 ) 10
( 0.0685314 0.0163182 -0.0702927 ) 39
( 0.0746775 0.0625877 -0.0755783 ) 17
( 0.138948 0.0534867 -0.0765836 ) 20
( 0.218338 0.0793493 -0.0834178 ) 31
( 0.0166145 0.0466542 -0.0722209 ) 15
( 0.153506 0.0405098 -0.0806278 ) 11
( 0.0809606 0.0442243 -0.0701145 ) 48
( 0.0503939 0.0601683 -0.0789587 ) 16
( 0.154697 0.0164339 -0.0816064 ) 11
( 0.0456366 0.0419921 -0.0722964 ) 7
( 0.0457816 0.0859685 -0.0737273 ) 25
( 0.0852325 0.0082543 -0.0773933 ) 0
( 0.0787788 0.0820176 -0.0751339 ) 26
( 0.129656 0.0192476 -0.08002 ) 10
( 0.133592 -0.00672882 -0.0827865 ) 1
( 0.1609 0.0659585 -0.0849564 ) 20
( 0.186164 0.00359234 -0.0770351 ) 3
( 0.0267512 0.0900567 -0.0774593 ) 24
( 0.23444 0.0125686 -0.0867783 ) 5
( 0.0882064 -0.0102126 -0.0842218 ) 0
( 0.214318 0.0249147 -0.0827209 ) 13
( 0.0184445 0.0161226 -0.0825164 ) 6
( 0.209919 0.0569983 -0.0836483 ) 22
( 0.0104487 0.0799843 -0.0841681 ) 24
( 0.130473 0.0758578 -0.0817026 ) 28
( 0.0925811 0.0315024 -0.0799394 ) 9
( 0.0657345 0.0374573 -0.0809856 ) 8
( 0.120164 0.0539766 -0.0830797 ) 19
( 0.03153 0.0548225 -0.0825972 ) 16
( 0.179235 0.0730551 -0.0814635 ) 30
( 0.101904 0.0617112 -0.0847705 ) 18
( 0.196511 0.0407816 -0.085679 ) 13
( 0.108539 0.00598782 -0.0809634 ) 0
( 0.146735 0.0900849 -0.0818324 ) 29
( 0.0626452 0.0901113 -0.0833336 ) 26
( 0.233229 0.0420379 -0.0883464 ) 14
( 0.173322 0.0222031 -0.0859228 ) 12
( 0.0914316 0.0891575 -0.0888266 ) 27
( 0.00991236 0.060091 -0.0851977 ) 15
( 0.010839 0.0343211 -0.0868109 ) 6
( 0.0374928 0.0143978 -0.0880956 ) 7
( 0.195423 0.0203476 -0.0872133 ) 13
( 0.0315007 0.0739809 -0.088267 ) 25
( 0.0860065 0.0502047 -0.0884279 ) 18
( 0.0768788 0.0226376 -0.0884117 ) 8
( 0.134955 0.037081 -0.0871787 ) 10
( 0.115082 -0.0111566 -0.0887727 ) 1
)
