/*--------------------------------*- C++ -*----------------------------------*\
  =========                 |
  \\      /  F ield         | OpenFOAM: The Open Source CFD Toolbox
   \\    /   O peration     | Website:  https://openfoam.org
    \\  /    A nd           | Version:  4.x
     \\/     M anipulation  |
\*---------------------------------------------------------------------------*/
FoamFile
{
    version     2.0;
    format      ascii;
    class       Cloud<passiveParticle>;
    location    0;
    object      positions;
}
// * * * * * * * * * * * * * * * * * * * * * * * * * * * * * * * * * * * * * //

407
(
( 0.258389 -0.002313 0.00716136 ) 0
( 0.254595 0.0363081 0.00409468 ) 9
( 0.260242 0.0751931 -0.0115028 ) 27
( 0.259559 0.0469566 0.0238778 ) 52
( 0.262629 0.0895351 0.0153369 ) 61
( 0.250985 0.0131609 -0.00388896 ) 0
( 0.309478 -0.00715149 0.0175488 ) 36
( 0.335715 -0.00727652 0.0174604 ) 37
( 0.467336 -0.00658775 -0.00274765 ) 7
( 0.386498 -0.0140842 0.0128291 ) 4
( 0.439665 -0.00882143 -0.00444847 ) 6
( 0.398411 -0.00655317 0.0265426 ) 39
( 0.420298 -0.0111154 -0.00556625 ) 6
( 0.400632 -0.0119477 -0.00721078 ) 5
( 0.40925 -0.00887749 0.010381 ) 5
( 0.322497 -0.00644304 0.00307055 ) 2
( 0.471711 -0.0120886 0.0157514 ) 41
( 0.294291 0.00297512 0.0100708 ) 1
( 0.490177 -0.0125295 -0.0113097 ) 8
( 0.366826 -0.0128528 0.0135214 ) 4
( 0.485942 -0.000561634 0.00402415 ) 8
( 0.359233 -0.00343975 -0.00708403 ) 3
( 0.41944 -0.0110996 0.0273439 ) 40
( 0.3072 -0.0127521 -0.00743043 ) 2
( 0.429189 -0.00398519 0.0116571 ) 6
( 0.452886 -0.00999986 0.0102291 ) 7
( 0.379988 -0.0126032 -0.00567149 ) 4
( 0.312071 0.0461168 0.029446 ) 54
( 0.281703 0.0837271 0.0156119 ) 62
( 0.486905 0.027628 0.0214455 ) 51
( 0.344224 0.0700522 -0.00232779 ) 21
( 0.45908 0.0599271 -0.00737612 ) 25
( 0.420894 0.0522433 0.0211619 ) 58
( 0.380439 0.0560222 -0.00643327 ) 22
( 0.300597 0.0547194 -0.0119858 ) 19
( 0.352679 0.0132296 0.00116509 ) 3
( 0.301813 0.0187122 0.000339987 ) 10
( 0.39299 0.0670093 0.00378441 ) 23
( 0.284788 0.0216892 -0.0129234 ) 10
( 0.368431 0.020741 0.0159923 ) 47
( 0.398651 0.0835076 0.0130744 ) 32
( 0.437478 0.0260691 0.00857379 ) 15
( 0.46879 0.016696 0.0149896 ) 50
( 0.421828 0.0219815 -0.00307733 ) 15
( 0.376762 0.00383426 0.0107524 ) 4
( 0.415364 0.0573261 0.00317955 ) 23
( 0.296896 0.0518971 0.0181731 ) 53
( 0.345552 0.0251218 -0.0133135 ) 12
( 0.330324 0.0278411 0.0186693 ) 45
( 0.299562 0.088691 0.0229876 ) 62
( 0.442428 0.0693979 -0.00407768 ) 24
( 0.326756 0.0329261 0.00026529 ) 11
( 0.36026 0.0718503 0.00928146 ) 30
( 0.36485 0.0549317 0.0291847 ) 56
( 0.431402 0.0392547 -0.00526327 ) 15
( 0.314032 0.0906475 -0.010838 ) 29
( 0.336996 0.0470898 -0.00898757 ) 21
( 0.399385 0.0500076 -0.00561098 ) 23
( 0.315975 0.0491369 -0.00122061 ) 20
( 0.349054 0.0222228 0.0184659 ) 46
( 0.428231 0.0576458 -0.0119656 ) 24
( 0.288048 0.0477388 0.00123787 ) 19
( 0.387795 0.0447428 0.00943455 ) 22
( 0.31448 0.0599373 0.0155719 ) 54
( 0.490856 0.0630064 -0.0097588 ) 26
( 0.449279 0.044711 0.000724885 ) 25
( 0.34922 0.0726577 0.0253354 ) 64
( 0.447713 0.0904983 0.0181623 ) 68
( 0.471574 0.0906193 0.011716 ) 34
( 0.312883 0.0183136 0.0164435 ) 45
( 0.27454 0.0389902 -0.0100521 ) 9
( 0.452686 0.0597763 0.0131158 ) 25
( 0.332558 0.089979 -0.00448914 ) 29
( 0.411779 0.0902205 8.70966e-05 ) 32
( 0.484028 0.045124 -0.0091544 ) 26
( 0.390544 0.033285 -0.0112354 ) 14
( 0.33008 0.0421305 0.0360713 ) 45
( 0.375893 0.00468125 -0.013826 ) 4
( 0.460404 0.0011237 0.0246444 ) 41
( 0.30833 0.0724462 -0.0131582 ) 29
( 0.287486 0.0670686 -0.00316828 ) 19
( 0.399153 0.0128926 0.025448 ) 39
( 0.490468 0.0184113 0.00466045 ) 17
( 0.299525 0.0723361 0.0116405 ) 28
( 0.275139 0.00812975 0.00954012 ) 0
( 0.358932 0.0901421 0.0017285 ) 30
( 0.438517 0.041471 0.0207852 ) 49
( 0.412236 0.0105727 0.0100079 ) 5
( 0.339245 0.0556888 0.0252444 ) 55
( 0.319206 0.090383 0.0102024 ) 29
( 0.468076 0.0470877 0.0145302 ) 59
( 0.473324 0.01285 -0.00368838 ) 8
( 0.278926 0.0476689 0.0243288 ) 53
( 0.319116 0.0171259 -0.00914622 ) 11
( 0.402885 0.0256771 0.00193444 ) 14
( 0.357928 0.0901872 0.0215042 ) 64
( 0.407023 0.0692431 -0.00968979 ) 23
( 0.364876 0.0211646 -0.0122065 ) 13
( 0.38092 0.0776034 0.0369295 ) 65
( 0.413084 0.0263907 0.0234691 ) 48
( 0.465248 0.0398228 -0.00895888 ) 16
( 0.48541 0.0783237 0.000803225 ) 35
( 0.426694 0.0122826 0.02288 ) 40
( 0.434389 0.0554004 0.00726521 ) 24
( 0.490024 0.00824521 0.0214759 ) 42
( 0.369871 0.0349502 0.00213123 ) 13
( 0.433972 0.0765249 0.015221 ) 67
( 0.32622 0.0749746 0.0201972 ) 63
( 0.477265 0.032595 0.00450806 ) 17
( 0.381202 0.018996 -0.0014014 ) 13
( 0.395045 0.00323387 0.00417758 ) 5
( 0.270011 0.0713597 0.00537592 ) 18
( 0.28731 0.017427 0.0216678 ) 44
( 0.269466 0.0317193 0.0163242 ) 43
( 0.377561 0.0789661 0.00339648 ) 31
( 0.370167 0.053163 0.0100318 ) 22
( 0.374451 0.0383972 0.0227576 ) 47
( 0.475945 0.0602735 0.00232978 ) 26
( 0.322051 0.0732785 0.000832685 ) 29
( 0.361435 0.0522013 -0.00997587 ) 22
( 0.333297 0.0146717 0.00441232 ) 11
( 0.269318 0.0493465 0.00667898 ) 18
( 0.306826 0.0363422 0.0108555 ) 11
( 0.292092 0.0835773 -0.013407 ) 28
( 0.40336 0.0435196 0.0214883 ) 57
( 0.438162 0.0894461 0.000734062 ) 33
( 0.346412 0.0351426 0.0037819 ) 12
( 0.486135 0.0261516 -0.0129519 ) 17
( 0.409957 0.00561416 -0.00913908 ) 5
( 0.440367 0.0105789 -0.00327654 ) 6
( 0.405335 0.0641447 0.018601 ) 57
( 0.425387 0.0902863 -0.0142039 ) 33
( 0.267915 0.0226736 -0.00137047 ) 9
( 0.39401 0.0842029 -0.00651786 ) 32
( 0.490183 0.00704005 -0.0136981 ) 8
( 0.373412 0.0904872 -0.0118793 ) 31
( 0.489973 0.0679375 0.0172527 ) 60
( 0.416839 0.0381659 0.00796354 ) 15
( 0.353263 0.0106199 0.0336555 ) 37
( 0.277127 0.0902769 -0.00236866 ) 27
( 0.298925 0.0352969 -0.00970784 ) 10
( 0.388364 0.0259049 0.0154969 ) 47
( 0.267575 0.0736784 0.0265892 ) 61
( 0.350987 0.0540645 0.00746382 ) 21
( 0.471384 0.0901073 -0.00788086 ) 34
( 0.467719 0.0719958 0.0153266 ) 68
( 0.455896 0.0318035 0.0143343 ) 50
( 0.283717 0.00262736 -0.00713849 ) 1
( 0.444591 0.00861025 0.0160368 ) 41
( 0.285668 0.0286792 0.00566499 ) 10
( 0.418826 0.089217 0.0187503 ) 67
( 0.454814 0.0238918 -0.00363633 ) 16
( 0.423933 0.0748466 -0.00178665 ) 33
( 0.343253 0.0274087 0.0368549 ) 46
( 0.254301 0.0610005 0.011635 ) 18
( 0.300421 0.0902831 0.00336514 ) 28
( 0.340846 0.085982 0.0128825 ) 30
( 0.302224 0.0050986 -0.0137892 ) 1
( 0.490477 0.0493368 0.00908487 ) 26
( 0.394245 0.0908573 0.0306091 ) 66
( 0.364766 0.0717692 -0.010027 ) 31
( 0.490589 0.0902365 0.0151669 ) 69
( 0.257835 -0.00484164 -0.0122849 ) 0
( 0.27564 -0.0115585 0.0105332 ) 0
( 0.307987 0.0725365 0.0310575 ) 63
( 0.353488 0.00103532 0.0166602 ) 37
( 0.339796 -0.00142605 -0.00481293 ) 3
( 0.338384 0.0902368 0.0319789 ) 64
( 0.456127 0.0816332 0.00298733 ) 34
( 0.317629 0.0273504 0.0332983 ) 45
( 0.490207 0.048296 0.0288141 ) 60
( 0.32829 0.00926175 0.0246574 ) 36
( 0.458554 0.0477078 0.0321677 ) 59
( 0.283557 0.0385225 0.0410425 ) 44
( 0.436651 0.0666694 0.0444364 ) 90
( 0.331918 0.0575795 0.00702985 ) 20
( 0.363361 -0.00488415 0.0411029 ) 38
( 0.254437 0.0363394 0.0525311 ) 75
( 0.472477 -0.00322334 0.045822 ) 74
( 0.318338 0.0509967 0.0495961 ) 86
( 0.302047 0.0904682 0.0424044 ) 62
( 0.382575 0.0618973 0.0479604 ) 88
( 0.355024 0.0843349 0.0536524 ) 96
( 0.490349 0.0327034 0.0595674 ) 83
( 0.433925 -0.00720102 0.0483375 ) 72
( 0.430194 0.0896774 0.0516786 ) 99
( 0.36436 0.0559879 0.0525529 ) 88
( 0.352353 0.0411474 0.0222971 ) 46
( 0.285014 0.0899008 0.0541081 ) 94
( 0.475769 0.0231555 0.0497924 ) 83
( 0.267849 0.0494585 0.0459953 ) 84
( 0.393175 0.014028 0.0624744 ) 71
( 0.468612 0.0901686 0.0487782 ) 100
( 0.417471 -0.00069806 0.0572448 ) 72
( 0.443353 0.0273794 0.0509626 ) 81
( 0.364141 0.034261 0.0540344 ) 79
( 0.414054 0.0522928 0.05445 ) 89
( 0.455182 0.0609577 0.0467763 ) 91
( 0.285887 0.0516176 0.0564617 ) 85
( 0.405801 0.0864611 0.055585 ) 98
( 0.270379 0.025018 0.0533079 ) 75
( 0.255072 0.0604259 0.0563116 ) 84
( 0.405309 0.0356606 0.0601752 ) 80
( 0.344515 0.0332131 0.0557724 ) 78
( 0.490529 0.0903301 0.0544507 ) 101
( 0.398086 -0.00471474 0.0586269 ) 71
( 0.419952 0.070735 0.0690324 ) 90
( 0.382123 0.0401003 0.0598847 ) 79
( 0.286474 0.0676478 0.0258522 ) 53
( 0.426531 0.0361967 0.0558087 ) 81
( 0.375994 0.0808151 0.0556527 ) 97
( 0.376879 0.00346259 0.0596517 ) 70
( 0.377421 0.0886505 0.020816 ) 65
( 0.312753 0.030206 0.0604371 ) 77
( 0.334063 0.0765279 0.0609978 ) 96
( 0.268909 0.0728821 0.0633752 ) 93
( 0.474122 0.0646308 0.0479918 ) 92
( 0.345653 0.0613074 0.0650777 ) 87
( 0.46137 0.00239967 0.0606649 ) 73
( 0.450251 0.0905245 0.056332 ) 100
( 0.4434 0.00830115 0.0552472 ) 72
( 0.31171 0.0697197 0.0521906 ) 86
( 0.389829 0.0556846 0.0304562 ) 57
( 0.490266 -0.00519339 0.0539696 ) 74
( 0.400889 0.0665034 0.0532695 ) 89
( 0.474631 0.0441773 0.0619949 ) 92
( 0.418781 0.0730116 0.0490258 ) 99
( 0.455102 0.0717506 0.0304471 ) 68
( 0.436578 0.0549205 0.0609318 ) 90
( 0.379467 0.0252462 0.0464847 ) 79
( 0.490412 0.0663134 0.0370833 ) 60
( 0.469229 0.0309879 0.0300858 ) 50
( 0.308764 0.0875441 0.0605748 ) 95
( 0.438155 0.0746201 0.0621192 ) 99
( 0.303385 0.0200596 0.0441144 ) 76
( 0.260303 0.0901219 0.035083 ) 61
( 0.291845 0.0216736 0.0738454 ) 106
( 0.265567 0.032483 0.0357338 ) 43
( 0.457904 0.0230815 0.0627191 ) 82
( 0.449489 0.0301283 0.0326496 ) 50
( 0.33763 0.0548479 0.0487256 ) 87
( 0.42693 0.0169756 0.0494542 ) 81
( 0.292755 0.073383 0.0438497 ) 94
( 0.395553 0.0473374 0.0476433 ) 89
( 0.342005 -0.0103111 0.0356636 ) 37
( 0.36361 0.0141817 0.0497998 ) 70
( 0.366958 0.0906221 0.0390978 ) 65
( 0.490512 0.0131834 0.0623217 ) 74
( 0.490598 0.0108828 0.042648 ) 42
( 0.458437 0.0153219 0.0447827 ) 82
( 0.40781 0.0188178 0.0502737 ) 80
( 0.401176 0.0536668 0.0716561 ) 119
( 0.391709 0.0106233 0.0433536 ) 71
( 0.383195 -0.00621344 0.038962 ) 38
( 0.425331 0.0469909 0.0393313 ) 58
( 0.470682 0.0844518 0.0302649 ) 68
( 0.43847 -0.00527243 0.0292758 ) 40
( 0.379464 0.058277 0.0668683 ) 88
( 0.433622 0.0893675 0.0321292 ) 67
( 0.37663 0.0685167 0.0202413 ) 56
( 0.284689 0.0154996 0.0410169 ) 44
( 0.301937 0.0401162 0.0479625 ) 76
( 0.37627 0.0443497 0.0415367 ) 56
( 0.346017 0.0901391 0.0703474 ) 96
( 0.362525 0.0706277 0.0658378 ) 88
( 0.490107 0.0898702 0.034839 ) 69
( 0.362324 0.0712874 0.040162 ) 56
( 0.490571 0.0513683 0.0527053 ) 92
( 0.273654 0.0684105 0.0447487 ) 84
( 0.438048 0.0604555 0.0260992 ) 58
( 0.326804 0.0900953 0.0484871 ) 95
( 0.490282 0.0320019 0.039993 ) 51
( 0.265072 0.0901358 0.0543607 ) 93
( 0.270253 0.0421785 0.0643339 ) 75
( 0.323093 0.0610737 0.0660543 ) 86
( 0.341246 0.0742079 0.0430975 ) 96
( 0.414636 0.090035 0.0381879 ) 66
( 0.460005 0.0378663 0.0501906 ) 82
( 0.452943 -0.00396896 0.0427945 ) 41
( 0.408936 0.0565829 0.0362254 ) 57
( 0.484192 -0.00780725 0.0308981 ) 42
( 0.441012 0.0128237 0.0362337 ) 40
( 0.360115 0.0459493 0.0689187 ) 87
( 0.39983 0.0733182 0.0351515 ) 66
( 0.28844 0.0703175 0.0628183 ) 85
( 0.395972 0.0729246 0.0707195 ) 98
( 0.473796 0.0121401 0.0333065 ) 42
( 0.415415 0.00499414 0.0382503 ) 39
( 0.318076 0.0899646 0.0305824 ) 63
( 0.328054 0.0248776 0.0495883 ) 77
( 0.473937 0.0595504 0.028786 ) 60
( 0.363089 0.0278737 0.0352628 ) 47
( 0.476451 0.0809441 0.0637587 ) 101
( 0.475755 0.0235309 0.0693781 ) 83
( 0.282992 0.0900718 0.034382 ) 62
( 0.421477 0.0708755 0.0295696 ) 58
( 0.45298 0.0901999 0.0369331 ) 68
( 0.409487 0.0357773 0.040317 ) 48
( 0.325217 0.0642695 0.0366679 ) 54
( 0.424252 0.0900735 0.0705669 ) 99
( 0.458507 0.0735568 0.0614312 ) 100
( 0.42983 0.028853 0.033656 ) 49
( 0.296235 0.0552377 0.037437 ) 53
( 0.425425 0.0121387 0.0702165 ) 72
( 0.292089 0.0893227 0.0725858 ) 124
( 0.304426 0.0546722 0.0630619 ) 85
( 0.405002 0.0901722 0.0749194 ) 128
( 0.355897 0.026758 0.0703149 ) 78
( 0.365954 0.0901157 0.0710293 ) 97
( 0.375591 0.022504 0.0657214 ) 79
( 0.391044 0.0338516 0.0333374 ) 48
( 0.268461 0.0169366 0.0712205 ) 75
( 0.489917 0.054194 0.072242 ) 122
( 0.475837 0.045174 0.0419843 ) 60
( 0.298074 0.0322524 0.0291768 ) 44
( 0.352756 0.0444823 0.0416161 ) 55
( 0.252413 0.0887435 0.0726136 ) 123
( 0.446401 0.0385798 0.0673543 ) 82
( 0.419044 0.0450201 0.0716191 ) 120
( 0.327341 0.0417278 0.0665989 ) 77
( 0.445434 -0.00452715 0.0699574 ) 73
( 0.416996 0.0605227 0.0857534 ) 120
( 0.458117 0.0543016 0.0650815 ) 91
( 0.28952 0.0272138 0.0558732 ) 76
( 0.374402 0.0108129 0.0334111 ) 38
( 0.339758 0.0737683 0.0797259 ) 126
( 0.31777 0.00538707 0.0407861 ) 36
( 0.490741 0.0297893 0.0793299 ) 113
( 0.305272 0.0725716 0.0729611 ) 124
( 0.306961 0.0318791 0.0821454 ) 107
( 0.250965 0.0265049 0.0720069 ) 105
( 0.278103 0.0575568 0.0742328 ) 115
( 0.391949 0.0301318 0.0735664 ) 110
( 0.490574 -0.0142539 0.0714896 ) 104
( 0.434678 0.0529488 0.0804236 ) 120
( 0.385857 0.0907844 0.0695789 ) 97
( 0.325181 0.090414 0.0711048 ) 95
( 0.444572 0.0147166 0.0737148 ) 112
( 0.463332 -0.00902762 0.0768469 ) 103
( 0.377681 0.0751983 0.0768126 ) 127
( 0.443415 0.0458857 0.0447471 ) 90
( 0.449413 0.0699813 0.0782625 ) 121
( 0.443519 0.0884937 0.074629 ) 129
( 0.49073 0.0705852 0.0561066 ) 92
( 0.385488 0.0468358 0.0817283 ) 118
( 0.2723 0.0900871 0.0727838 ) 123
( 0.272924 0.0332779 0.0818174 ) 105
( 0.342634 0.0468888 0.077781 ) 117
( 0.358896 0.0769007 0.0842174 ) 126
( 0.49009 0.0104932 0.0896864 ) 104
( 0.467384 0.0381571 0.0792034 ) 112
( 0.314271 0.0501218 0.0798127 ) 116
( 0.46529 0.0102395 0.0781373 ) 103
( 0.318605 0.0181301 0.0742375 ) 107
( 0.370641 0.0340508 0.0808745 ) 109
( 0.258585 0.0618552 0.0757615 ) 114
( 0.400036 0.0716188 0.0898456 ) 128
( 0.288029 0.0725912 0.0825871 ) 124
( 0.462514 0.0905208 0.0720045 ) 130
( 0.490763 0.075497 0.0751292 ) 131
( 0.417201 0.0803231 0.0873855 ) 129
( 0.431151 0.0301121 0.0766685 ) 111
( 0.392938 0.0900787 0.0903656 ) 128
( 0.366514 0.0590962 0.0814337 ) 118
( 0.338995 0.0277224 0.0802082 ) 108
( 0.429857 -0.0108541 0.0796619 ) 102
( 0.472949 0.0642339 0.0738495 ) 122
( 0.305376 0.0900625 0.0871767 ) 124
( 0.450958 0.0329268 0.0900737 ) 112
( 0.292719 0.0425284 0.0732235 ) 106
( 0.490291 0.0461762 0.0902429 ) 122
( 0.403272 0.0470054 0.0903135 ) 119
( 0.453664 0.051716 0.084262 ) 121
( 0.263129 0.0899085 0.0902548 ) 123
( 0.410806 0.028167 0.0774772 ) 110
( 0.264658 0.0498602 0.090244 ) 114
( 0.320803 0.0715953 0.084911 ) 125
( 0.47772 -0.00508882 0.0901019 ) 104
( 0.384678 0.0242822 0.0905897 ) 109
( 0.33068 0.0555957 0.0905518 ) 116
( 0.269796 0.0707731 0.0901078 ) 114
( 0.346099 0.0903071 0.0902427 ) 126
( 0.324495 0.0368085 0.0902009 ) 107
( 0.256376 0.0270927 0.0905728 ) 105
( 0.434058 0.0702301 0.0903595 ) 120
( 0.465558 0.0725334 0.0901938 ) 130
( 0.356506 0.017337 0.0901467 ) 108
( 0.43462 0.00548048 0.0884832 ) 102
( 0.289801 0.0286223 0.0910855 ) 106
( 0.475191 0.0236828 0.0902151 ) 113
( 0.490013 0.0900025 0.0900762 ) 131
( 0.283015 0.0900805 0.0902268 ) 124
( 0.382409 0.0637796 0.0911674 ) 118
( 0.451903 0.0131275 0.091265 ) 103
( 0.303661 0.0629875 0.0902751 ) 115
( 0.486344 0.0658899 0.0906884 ) 122
( 0.422291 0.0419664 0.09059 ) 111
( 0.284212 0.0474646 0.090247 ) 115
( 0.471874 0.0530985 0.0907743 ) 121
( 0.349643 0.060495 0.0905102 ) 117
( 0.37296 0.0900034 0.0900774 ) 127
( 0.324811 0.0901535 0.0905468 ) 125
( 0.456487 0.0902652 0.0904693 ) 130
( 0.42194 0.0197796 0.0906942 ) 111
( 0.32674 0.01723 0.0911914 ) 107
( 0.354017 0.0370825 0.0905029 ) 108
( 0.433372 0.0905414 0.0906379 ) 129
)
