/*--------------------------------*- C++ -*----------------------------------*\
  =========                 |
  \\      /  F ield         | OpenFOAM: The Open Source CFD Toolbox
   \\    /   O peration     | Website:  https://openfoam.org
    \\  /    A nd           | Version:  4.x
     \\/     M anipulation  |
\*---------------------------------------------------------------------------*/
FoamFile
{
    version     2.0;
    format      ascii;
    class       vectorField;
    location    0;
    object      v;
}
// * * * * * * * * * * * * * * * * * * * * * * * * * * * * * * * * * * * * * //

407
(
( 0.000282349 -1.03539e-05 -0.000186962 )  
( 0.00029716 -4.81002e-05 -0.000143004 )  
( 0.000245883 -9.67866e-05 -7.17812e-05 )  
( 0.000270121 -3.75898e-05 -0.000115367 )  
( 9.46893e-05 -0.000225726 -2.92098e-05 )  
( 0.000359381 -6.89043e-06 -0.000186433 )  
( 0.000251732 -3.42378e-05 -0.000206441 )  
( 0.000219075 -1.92194e-05 -0.000193707 )  
( 6.79211e-05 -2.10823e-05 -3.78479e-05 )  
( 0.000156057 -3.54952e-05 -0.000123605 )  
( 9.75206e-05 -2.10692e-05 -7.11511e-05 )  
( 0.000109554 -1.87482e-05 -9.31723e-05 )  
( 0.000124755 -3.24188e-05 -0.000112085 )  
( 0.00015742 -5.9908e-05 -0.000151045 )  
( 0.00012295 -3.10603e-05 -0.000107984 )  
( 0.000276065 -4.26784e-05 -0.000225159 )  
( 3.56877e-05 -1.45859e-05 -2.33506e-05 )  
( 0.000280394 -3.37651e-05 -0.000182347 )  
( 2.60774e-05 -9.0793e-06 -8.1654e-06 )  
( 0.000169814 -3.65776e-05 -0.000151475 )  
( 1.44847e-05 -1.33329e-05 -4.24211e-06 )  
( 0.000261157 -5.87021e-05 -0.000233117 )  
( 8.22434e-05 -9.35536e-06 -6.43921e-05 )  
( 0.000321098 -5.94915e-05 -0.000246322 )  
( 8.69748e-05 -1.65681e-05 -6.74165e-05 )  
( 6.1174e-05 -1.16139e-05 -4.36345e-05 )  
( 0.00022881 -6.5698e-05 -0.000171196 )  
( 0.000213786 -3.84787e-05 -0.00013423 )  
( 0.000163358 -2.86561e-05 -3.34473e-05 )  
( 1.34905e-05 -7.40267e-06 -4.06525e-06 )  
( 0.000141891 -8.11278e-06 -0.000116379 )  
( 4.46988e-05 1.19137e-05 -2.33882e-05 )  
( 5.65556e-05 -2.11468e-05 -5.48995e-05 )  
( 0.000128655 -2.28515e-05 -0.000134589 )  
( 0.000288704 -5.1801e-05 -0.000209647 )  
( 0.000265741 -2.85054e-05 -0.00018445 )  
( 0.000314284 -5.30934e-05 -0.000214198 )  
( 8.54134e-05 -2.29048e-05 -8.39621e-05 )  
( 0.000384093 -6.32594e-05 -0.000242111 )  
( 0.000225268 -3.35318e-05 -0.000102949 )  
( 3.6364e-05 -1.41375e-05 -4.37788e-05 )  
( 7.53412e-05 -1.4677e-05 -6.38416e-05 )  
( 3.24939e-05 -9.81086e-06 -1.9445e-05 )  
( 0.000123102 -1.56473e-05 -0.000110576 )  
( 0.000170265 -3.82163e-05 -0.000158798 )  
( 8.04135e-05 -1.61662e-05 -6.73193e-05 )  
( 0.000243666 -5.70942e-05 -0.000150105 )  
( 0.00029686 -3.83488e-05 -0.000223483 )  
( 0.000221632 -4.83385e-05 -0.000172714 )  
( 0.000138923 -2.31537e-05 -2.68932e-05 )  
( 4.628e-05 4.80687e-06 -2.78235e-05 )  
( 0.000278091 -3.94471e-05 -0.000191816 )  
( 9.24918e-05 -1.40217e-05 -7.84736e-05 )  
( 0.000141819 -1.02212e-05 -8.24826e-05 )  
( 9.74963e-05 -8.87649e-06 -7.36971e-05 )  
( 7.7143e-05 1.34327e-05 -3.13927e-05 )  
( 0.000257479 -1.72468e-05 -0.000200124 )  
( 0.000117978 -2.12321e-05 -0.000121801 )  
( 0.000257754 -4.43301e-05 -0.000204387 )  
( 0.000226564 -2.17267e-05 -0.000150661 )  
( 0.000114396 -2.2366e-06 -4.09097e-05 )  
( 0.000289463 -4.3596e-05 -0.000191928 )  
( 0.000125273 -3.85532e-05 -0.000124078 )  
( 0.000216038 -3.02061e-05 -0.000121037 )  
( 1.43883e-05 6.45458e-07 -5.13055e-07 )  
( 7.00987e-05 -6.15053e-06 -4.34534e-05 )  
( 0.000101142 -2.1729e-05 -7.71438e-05 )  
( 8.20585e-06 -4.10753e-06 -9.95532e-06 )  
( 7.08864e-06 4.09249e-06 2.29433e-06 )  
( 0.000250633 -4.03287e-05 -0.000158223 )  
( 0.000315289 -5.19884e-05 -0.000209846 )  
( 4.47627e-05 -7.02531e-06 -2.6583e-05 )  
( 0.000100624 4.15937e-05 -4.87884e-05 )  
( 2.27883e-05 -1.3807e-05 -3.7745e-05 )  
( 4.30953e-05 -5.55475e-06 -8.95134e-06 )  
( 0.000170521 -2.48482e-05 -0.000154013 )  
( 0.000182862 -3.53859e-05 -0.000119214 )  
( 0.000260823 -6.44749e-05 -0.000208423 )  
( 4.41927e-05 -5.56029e-06 -3.42683e-05 )  
( 0.000211697 -1.8757e-05 -0.000121311 )  
( 0.000254196 -3.60095e-05 -0.000117391 )  
( 8.08357e-05 -1.98695e-05 -8.23106e-05 )  
( 1.22681e-05 -1.12153e-05 8.63537e-07 )  
( 0.000196692 -3.30313e-05 -6.57678e-05 )  
( 0.000306 -2.71204e-05 -0.000199499 )  
( 7.01764e-05 -9.91496e-06 -3.06827e-05 )  
( 4.81315e-05 -1.76841e-05 -4.46481e-05 )  
( 0.000109775 -3.4663e-05 -0.00012531 )  
( 0.000153265 -3.5615e-05 -0.000120159 )  
( 6.04412e-05 -1.73165e-05 -5.02203e-05 )  
( 3.52323e-05 2.17318e-06 -1.38324e-05 )  
( 4.22737e-05 -1.70565e-05 -1.7189e-05 )  
( 0.000255026 -7.92029e-05 -0.000157106 )  
( 0.000327454 -5.39111e-05 -0.000223167 )  
( 0.000132162 -3.07827e-05 -0.000128492 )  
( 5.67526e-05 -4.04872e-06 -3.67907e-05 )  
( 8.86261e-05 -1.23878e-05 -8.41832e-05 )  
( 0.00026051 -4.27656e-05 -0.000221118 )  
( 4.4922e-05 -5.58362e-06 -3.98485e-05 )  
( 7.19012e-05 -2.07862e-05 -7.50743e-05 )  
( 7.15005e-05 -1.02107e-05 -2.87812e-05 )  
( 5.50912e-06 -1.19713e-06 7.24117e-07 )  
( 6.37781e-05 -2.18103e-05 -6.76408e-05 )  
( 6.05816e-05 -1.26003e-05 -4.1803e-05 )  
( 8.48136e-06 -9.79484e-06 -1.92127e-06 )  
( 0.000124428 -4.01651e-05 -0.000118529 )  
( 2.5717e-05 -1.48056e-05 -3.07504e-05 )  
( 0.000137373 -6.28811e-06 -8.30665e-05 )  
( 3.42542e-05 -3.75575e-06 -7.92992e-06 )  
( 0.000183942 -3.72274e-05 -0.000172734 )  
( 0.000140592 -5.59756e-05 -0.000185524 )  
( 0.000271826 -7.45661e-05 -0.000107709 )  
( 0.000276005 -3.5138e-05 -0.000167987 )  
( 0.000290178 -4.69564e-05 -0.00014529 )  
( 8.17901e-05 -2.57969e-05 -6.93579e-05 )  
( 0.000157857 -1.8812e-05 -0.000105305 )  
( 0.000167069 -2.30469e-05 -8.12469e-05 )  
( 2.41076e-05 9.81053e-06 -5.48443e-06 )  
( 0.000174211 -3.99163e-06 -0.000102578 )  
( 0.000158911 -5.78469e-05 -0.000216732 )  
( 0.000273541 -4.31193e-05 -0.00020037 )  
( 0.000268261 -3.18582e-05 -0.000155128 )  
( 0.000276658 -4.2809e-05 -0.000183946 )  
( 0.00016614 -8.46252e-06 -5.38068e-05 )  
( 8.05586e-05 -3.40177e-05 -9.77012e-05 )  
( 2.35886e-05 -3.82847e-07 -1.95566e-05 )  
( 0.000246313 -2.2506e-05 -0.000181613 )  
( 3.39712e-05 -8.12399e-06 -8.20207e-06 )  
( 0.000169434 -4.98644e-05 -0.000137094 )  
( 9.44091e-05 -1.70783e-05 -6.51802e-05 )  
( 5.15376e-05 -3.10855e-05 -6.68191e-05 )  
( 3.03866e-05 -2.23289e-06 -2.37124e-05 )  
( 0.000331645 -2.26898e-05 -0.000178861 )  
( 4.93011e-05 -2.90826e-05 -6.55841e-05 )  
( 1.1533e-05 -1.16932e-05 -3.53755e-06 )  
( 4.35561e-05 -9.38682e-06 -4.64521e-05 )  
( 0.000184554 8.38519e-05 3.69796e-06 )  
( 0.000100107 -2.26768e-05 -7.73642e-05 )  
( 0.000165509 -1.90301e-05 -0.000121496 )  
( 0.000115658 -2.77671e-05 -1.74296e-05 )  
( 0.000325805 -4.48268e-05 -0.000205369 )  
( 8.78362e-05 -3.08608e-05 -0.000121872 )  
( 0.000211064 4.19292e-05 -6.51276e-05 )  
( 0.0001863 -5.6029e-06 -0.000113282 )  
( 1.03776e-05 -1.32176e-06 8.42171e-06 )  
( 2.27426e-05 5.77331e-06 -4.24732e-06 )  
( 5.1037e-05 -6.99167e-06 -2.89029e-05 )  
( 0.000363873 -4.80007e-05 -0.000241852 )  
( 6.33541e-05 -1.01937e-05 -5.32667e-05 )  
( 0.000295915 -4.38988e-05 -0.000194869 )  
( 2.32464e-06 -1.6158e-05 -2.51101e-05 )  
( 7.70392e-05 -7.32276e-06 -2.97276e-05 )  
( 5.11598e-05 -7.55851e-06 -4.75772e-05 )  
( 0.000179407 -2.73023e-05 -0.000123113 )  
( 0.000261794 -1.66128e-05 -9.44364e-05 )  
( 9.37171e-05 -3.10218e-05 -2.21451e-05 )  
( 8.49107e-05 3.01541e-05 -4.76797e-05 )  
( 0.000357794 -5.44861e-05 -0.000253394 )  
( 1.02319e-05 -2.57086e-07 -4.62787e-06 )  
( 2.97503e-05 -6.93428e-06 -3.25724e-05 )  
( 8.94826e-05 -1.34518e-05 -9.03105e-05 )  
( 1.43697e-06 2.3479e-06 1.23961e-06 )  
( 0.000359323 -1.27348e-05 -0.000222893 )  
( 0.000282563 -2.22806e-05 -0.000189008 )  
( 0.000154079 -4.95852e-05 -9.07954e-05 )  
( 0.000214789 -1.74568e-05 -0.000150948 )  
( 0.000282244 -2.86146e-05 -0.000240011 )  
( 5.99495e-05 -3.25777e-06 -4.67104e-05 )  
( 2.89718e-05 4.68753e-06 -1.2393e-05 )  
( 0.000207123 -4.6016e-05 -0.000142698 )  
( 6.33671e-06 3.32898e-07 -3.41887e-06 )  
( 0.000228041 -4.12472e-05 -0.00014191 )  
( 2.13548e-05 -2.7821e-06 -1.86973e-05 )  
( 0.000233514 -4.73903e-05 -0.000129216 )  
( 2.47134e-05 -9.93989e-07 -3.24112e-05 )  
( 0.000200731 -2.84275e-05 -0.00015168 )  
( 9.94766e-05 -2.16885e-05 -8.52153e-05 )  
( 0.0002344 -2.57116e-05 -8.33651e-05 )  
( 1.71678e-05 -4.23631e-06 -6.31598e-06 )  
( 0.000145792 -5.31688e-05 -9.75521e-05 )  
( 0.000124245 -1.73349e-05 -2.45089e-05 )  
( 5.74953e-05 -3.75028e-06 -3.4269e-05 )  
( 2.46301e-05 -1.15356e-05 -2.52165e-05 )  
( 3.67373e-06 3.15469e-07 -3.38235e-06 )  
( 3.18018e-05 -1.07271e-05 -3.33644e-05 )  
( -4.05096e-06 4.37275e-06 -1.29113e-05 )  
( 7.1797e-05 -1.30177e-05 -4.59895e-05 )  
( 0.000182116 -1.46252e-05 -0.000117265 )  
( 5.79797e-05 2.88276e-05 -2.28689e-06 )  
( 1.18787e-05 -1.80555e-06 -9.55633e-06 )  
( 0.000225532 -2.68462e-05 -7.92956e-05 )  
( 4.55275e-05 -1.23105e-05 -3.42722e-05 )  
( 2.74565e-07 3.00161e-07 -7.47512e-07 )  
( 3.51271e-05 -1.09678e-05 -3.09378e-05 )  
( 2.68161e-05 -1.64397e-05 -3.33298e-05 )  
( 9.2991e-05 -5.37983e-06 -4.79435e-05 )  
( 3.99058e-05 -1.38668e-05 -4.41559e-05 )  
( 1.26662e-05 -8.03649e-06 -8.00606e-06 )  
( 0.00011115 -2.95012e-05 -3.26745e-05 )  
( 4.86481e-06 -1.74375e-05 -1.66095e-05 )  
( 0.000226369 -3.42323e-05 -8.14538e-05 )  
( 0.000215692 -2.53984e-05 -5.47927e-05 )  
( 4.59532e-05 -1.54131e-05 -4.27708e-05 )  
( 0.000112356 -3.68689e-05 -0.000106498 )  
( -1.16964e-08 -1.16427e-07 -3.69153e-08 )  
( 4.34747e-05 -6.25117e-06 -3.00664e-05 )  
( -1.43987e-06 -4.93332e-07 -1.87762e-05 )  
( 6.05122e-05 -6.29364e-06 -3.61966e-05 )  
( 0.000176635 -4.59915e-05 -7.93263e-05 )  
( 3.08869e-05 -1.34287e-05 -3.05025e-05 )  
( 3.71342e-05 1.28736e-06 -3.04401e-05 )  
( 5.36717e-05 -8.00993e-06 -2.76683e-05 )  
( 5.31441e-05 2.27695e-06 -4.30978e-05 )  
( 0.00018576 -6.04518e-05 -0.000123379 )  
( 8.92972e-05 -1.15971e-06 -5.25885e-05 )  
( 0.000141283 -2.57746e-06 -4.5995e-05 )  
( 5.88235e-06 -1.37216e-06 -2.03284e-06 )  
( 5.81022e-05 -2.36842e-05 -4.58505e-05 )  
( 1.46079e-05 -5.37951e-06 -9.26821e-06 )  
( -6.96311e-08 -1.85973e-06 -3.94336e-06 )  
( 2.3915e-05 -1.23248e-05 -2.65936e-05 )  
( 9.82331e-05 -9.96694e-06 -8.18889e-05 )  
( 3.34406e-05 -1.16614e-05 -3.81897e-05 )  
( 6.68463e-06 -2.69037e-06 -3.83291e-06 )  
( 4.39431e-05 -2.90159e-06 -3.82229e-05 )  
( 5.90989e-06 -1.42287e-06 -5.17729e-06 )  
( 3.20394e-05 4.20439e-06 -3.92206e-05 )  
( 1.24837e-05 -5.96477e-06 -8.67368e-06 )  
( 1.20581e-05 -9.00222e-06 -1.97668e-05 )  
( 7.92417e-05 -1.56582e-05 -5.94373e-05 )  
( 4.55285e-06 -1.92885e-07 4.15444e-07 )  
( 2.64468e-05 -1.08838e-06 -1.88545e-05 )  
( 8.91929e-05 -2.59199e-05 -1.63002e-05 )  
( 4.42782e-06 -1.61671e-06 -2.12637e-05 )  
( 0.000214501 -5.0952e-05 -0.000115026 )  
( 0.000113993 3.51499e-06 -2.19185e-05 )  
( 0.000161573 1.09178e-05 -6.81949e-05 )  
( 0.000251901 -3.18609e-05 -0.000108653 )  
( 1.55766e-05 -7.78932e-06 -1.74615e-05 )  
( 3.60415e-05 -1.04201e-05 -3.03777e-05 )  
( 0.000126192 -3.21238e-05 -8.13464e-05 )  
( 3.4559e-05 -1.80651e-05 -4.57382e-05 )  
( 0.000189204 -6.95726e-05 -6.37223e-05 )  
( 5.24314e-05 -1.23306e-05 -4.67019e-05 )  
( 0.000163314 -1.0012e-05 -0.000148921 )  
( 9.03683e-05 -1.40831e-05 -6.27795e-05 )  
( 2.73495e-05 -9.86551e-06 -2.44787e-05 )  
( 3.38965e-06 2.97366e-07 -1.58925e-06 )  
( 8.33159e-06 -1.26924e-06 -1.42099e-06 )  
( 2.49004e-05 -1.02076e-05 -1.98099e-05 )  
( 4.47126e-05 -1.78724e-05 -4.66087e-05 )  
( 2.38097e-05 -5.61633e-06 -2.7675e-05 )  
( 6.78894e-05 -2.00464e-05 -6.57742e-05 )  
( 9.35549e-05 -2.37212e-05 -9.60143e-05 )  
( 3.59579e-05 -2.02469e-05 -4.33717e-05 )  
( 4.95628e-06 3.02483e-06 4.36478e-07 )  
( 6.05605e-05 -1.42667e-05 -4.09631e-05 )  
( 3.8992e-05 -2.8246e-06 -2.86301e-05 )  
( -3.77298e-06 -7.49437e-06 -1.51372e-05 )  
( 9.89779e-05 -1.59907e-05 -6.58521e-05 )  
( 0.000237336 -5.02516e-05 -0.000142135 )  
( 0.000208466 -7.11514e-05 -0.000132921 )  
( 9.50875e-05 -6.74414e-06 -5.9603e-05 )  
( 2.68508e-05 -5.74362e-06 -1.60922e-05 )  
( 3.351e-05 -5.50144e-06 -2.50325e-05 )  
( 5.81849e-07 1.84974e-06 3.39957e-07 )  
( 6.94046e-05 -2.30632e-05 -6.33775e-05 )  
( 3.46448e-06 3.86002e-07 -2.69658e-06 )  
( 0.000173491 -2.08982e-05 -6.16416e-05 )  
( 3.95107e-05 -1.5199e-05 -3.37371e-05 )  
( 9.92281e-05 8.09573e-06 -3.53739e-05 )  
( 7.75197e-06 -3.05003e-07 -4.05072e-06 )  
( 5.82355e-05 -1.0084e-06 -2.12761e-05 )  
( 0.00011932 -1.63392e-05 -5.4185e-05 )  
( 8.21822e-05 -1.60905e-05 -8.07958e-05 )  
( 9.90753e-05 -6.30077e-06 -6.4415e-05 )  
( -9.7521e-06 -9.08316e-07 -2.40514e-05 )  
( 1.72865e-05 -8.33432e-06 -1.42505e-05 )  
( 2.71432e-05 -1.2459e-05 -1.93074e-05 )  
( 4.0527e-05 -2.17557e-05 -5.67966e-05 )  
( 7.98999e-06 -8.66664e-06 -7.2875e-06 )  
( 4.33627e-05 -1.76978e-05 -3.56344e-05 )  
( 5.26217e-05 -1.27408e-06 -3.8075e-05 )  
( 4.53323e-05 -1.54552e-05 -5.72824e-05 )  
( 0.0001199 -1.74602e-05 -4.17901e-05 )  
( 2.59613e-05 -2.95324e-06 -2.78348e-05 )  
( 2.70155e-05 -3.89924e-06 -1.45049e-05 )  
( 5.80308e-05 -1.13822e-05 -4.80374e-05 )  
( 0.000125794 2.58358e-06 -5.21452e-05 )  
( 0.000177979 -7.89172e-05 -0.000142133 )  
( 1.38425e-05 2.18986e-06 -6.13562e-06 )  
( 0.00016722 -2.87864e-05 -6.87981e-05 )  
( -2.60593e-08 -6.51153e-07 -7.93354e-07 )  
( 5.50692e-06 -1.43972e-06 -6.77908e-06 )  
( 8.1061e-05 -2.39536e-05 -4.54238e-06 )  
( 3.03149e-05 -1.06697e-05 -3.94801e-05 )  
( 1.37264e-06 -3.19143e-06 -4.48187e-06 )  
( 4.49829e-05 -2.45176e-05 -6.62218e-05 )  
( 0.000145743 -3.24574e-05 -9.3775e-05 )  
( 3.05612e-06 -9.50403e-07 -6.83718e-06 )  
( 5.17378e-07 -2.99956e-06 -5.87388e-06 )  
( 4.43399e-05 -2.33543e-05 -4.32708e-05 )  
( 0.000187271 -7.25634e-05 -0.000119807 )  
( 2.67583e-05 -7.58766e-06 -1.54793e-05 )  
( 3.66046e-05 2.49652e-05 2.70474e-06 )  
( 0.000111121 -3.07842e-05 -8.7593e-05 )  
( 4.68338e-06 -7.59036e-07 -8.72033e-06 )  
( 5.62788e-05 2.60284e-06 -5.65187e-05 )  
( 1.52371e-05 2.86208e-07 -1.13344e-05 )  
( 5.32898e-05 -7.27346e-06 -3.94388e-05 )  
( 6.83208e-05 -2.71104e-05 -9.12301e-05 )  
( 0.000162385 5.35313e-06 -2.81308e-05 )  
( 1.59243e-07 -1.65949e-06 -1.17202e-06 )  
( 1.00312e-05 -1.1862e-06 -7.50014e-06 )  
( 0.000235248 -3.63997e-05 -0.000144066 )  
( 0.000131472 -2.10774e-05 -8.59209e-05 )  
( 5.20774e-05 -2.15871e-05 -1.33674e-05 )  
( 1.51406e-05 -9.93302e-06 -1.30764e-05 )  
( 2.8237e-05 -6.87029e-06 -2.70643e-05 )  
( 0.000134108 -2.49955e-05 -7.57819e-05 )  
( 1.30415e-05 -3.69779e-06 -1.51892e-05 )  
( 1.05113e-05 8.43306e-07 -1.30741e-05 )  
( 6.23799e-06 -3.99056e-06 -6.59423e-06 )  
( 0.000218151 -3.29493e-05 -0.000106858 )  
( 8.10646e-05 -1.4558e-05 -6.99828e-05 )  
( 4.45529e-05 -1.98197e-05 -3.28518e-05 )  
( 0.000208154 1.33921e-05 -0.000122908 )  
( 9.16768e-07 -6.07422e-07 -1.74832e-06 )  
( 6.1055e-05 -1.619e-06 -3.86241e-06 )  
( 0.000100164 4.12246e-06 -3.72334e-05 )  
( 0.00014755 -4.89484e-06 -6.32748e-05 )  
( 7.16923e-05 2.43317e-06 -4.40239e-05 )  
( 4.32654e-05 -6.69311e-06 -2.96527e-05 )  
( 2.54666e-06 -1.90588e-06 -8.41098e-07 )  
( 1.05816e-05 1.00315e-06 -9.43199e-06 )  
( 1.3152e-05 2.52468e-06 -1.68226e-05 )  
( 6.80231e-05 -1.12773e-05 -7.09296e-06 )  
( 1.85306e-05 -3.50676e-06 -1.7847e-05 )  
( 8.63665e-06 -4.14634e-06 -6.86618e-06 )  
( 2.7496e-05 -6.22355e-06 -2.64893e-05 )  
( 2.34031e-05 -1.50915e-05 -2.27001e-05 )  
( 3.28473e-06 -1.83104e-06 -4.65784e-06 )  
( -4.88731e-07 -3.16699e-06 -5.79638e-06 )  
( 1.40911e-06 -1.80657e-07 -3.83047e-07 )  
( 3.12413e-05 -5.22397e-06 -2.06552e-05 )  
( 4.24366e-05 -1.50687e-07 -1.07821e-05 )  
( 7.55157e-05 1.96128e-05 -2.79737e-05 )  
( 5.11076e-05 -1.87291e-07 -1.82377e-05 )  
( 2.95376e-05 -2.78997e-06 -1.26416e-05 )  
( 1.8223e-07 -8.32679e-07 5.72435e-09 )  
( 3.44314e-06 -1.7987e-06 -4.94066e-06 )  
( 8.43887e-05 8.92573e-06 -4.53487e-05 )  
( 1.11659e-05 -5.15664e-06 -5.94888e-06 )  
( 0.000131241 -2.11583e-05 -5.89746e-05 )  
( 3.85346e-05 -6.57627e-06 -2.5881e-05 )  
( 0.000123886 1.0649e-05 -2.55408e-05 )  
( 1.38592e-05 -1.54232e-06 -1.51656e-05 )  
( 4.51146e-05 3.05114e-06 -2.15592e-05 )  
( -6.71871e-07 -1.48039e-06 -1.37235e-06 )  
( -3.23916e-07 -1.60927e-07 -4.08341e-07 )  
( 6.663e-06 3.2874e-06 -1.34503e-05 )  
( 2.50071e-05 -8.1827e-06 -4.4588e-06 )  
( -2.02637e-06 -1.56945e-06 -5.39891e-06 )  
( 3.10356e-05 -4.91548e-06 -2.2614e-05 )  
( 6.67587e-05 3.08759e-06 -2.37474e-05 )  
( 1.49011e-05 1.65699e-06 -9.9514e-06 )  
( 3.28962e-07 -7.9297e-07 -1.89835e-06 )  
( 3.58531e-05 -1.56731e-05 -1.6152e-05 )  
( 9.66168e-06 -7.77981e-07 -3.95878e-06 )  
( 7.33874e-05 2.87017e-05 -1.39701e-05 )  
( 3.63694e-07 -1.14918e-06 1.22773e-07 )  
( 1.38334e-05 2.51273e-07 -1.02987e-05 )  
( 6.32086e-06 -2.87916e-07 -4.25035e-06 )  
( 1.48181e-05 -1.39326e-05 -9.33872e-06 )  
( 3.50362e-05 -3.06236e-06 -2.44455e-05 )  
( 2.4e-05 1.24206e-05 -6.0234e-06 )  
( 4.77886e-05 3.69442e-06 -1.12729e-05 )  
( 1.96888e-06 -1.42541e-06 -1.4334e-06 )  
( 2.32629e-05 -3.64246e-06 -1.85056e-05 )  
( 2.98464e-05 -5.50672e-06 -1.29343e-05 )  
( 2.57779e-05 1.58142e-05 -1.00251e-05 )  
( 1.17634e-05 -5.97328e-06 -5.86161e-06 )  
( 6.41038e-05 -1.23258e-06 -1.63591e-05 )  
( 6.21576e-05 4.53731e-07 -1.72947e-05 )  
( 4.2035e-06 1.22139e-07 -2.37273e-06 )  
( -1.66367e-06 -1.16255e-06 -8.04152e-07 )  
( 1.43571e-05 2.05367e-06 -1.90424e-05 )  
( 1.25163e-05 1.48094e-07 -6.53722e-06 )  
( 7.49714e-05 1.14268e-05 -3.49116e-05 )  
( 9.54249e-08 -2.54543e-06 -1.93526e-06 )  
( -2.57897e-06 2.55081e-07 1.84604e-07 )  
( 1.67158e-05 -3.06963e-06 -1.85892e-06 )  
( 1.85758e-05 -5.75234e-06 -1.22667e-05 )  
( 1.07216e-05 -1.95786e-06 -5.35609e-06 )  
( 4.46014e-05 7.47276e-06 -1.5425e-05 )  
( 6.63475e-07 -3.58199e-08 1.74733e-08 )  
( 6.75271e-06 -2.02421e-07 -8.21609e-06 )  
( 3.12102e-05 1.94062e-05 -7.3535e-06 )  
( 3.04243e-06 -2.00337e-06 -1.31407e-06 )  
( 2.54147e-05 -8.93163e-07 -7.42039e-06 )  
( -1.91039e-05 -3.16605e-07 -2.63549e-06 )  
( 3.69701e-05 2.47069e-07 -2.29112e-06 )  
( -1.88139e-06 -6.03778e-07 -3.88937e-07 )  
( 1.37769e-05 1.44155e-06 -2.60279e-06 )  
( 5.83517e-05 -2.49991e-06 -1.54383e-05 )  
( 2.97917e-05 2.18409e-07 -1.39083e-05 )  
( 7.4668e-07 8.37534e-08 -2.03618e-06 )  
)
