/*--------------------------------*- C++ -*----------------------------------*\
| =========                 |                                                 |
| \\      /  F ield         | OpenFOAM: The Open Source CFD Toolbox           |
|  \\    /   O peration     | Version:  4.x                                   |
|   \\  /    A nd           | Web:      www.OpenFOAM.org                      |
|    \\/     M anipulation  |                                                 |
\*---------------------------------------------------------------------------*/
FoamFile
{
    version     2.0;
    format      ascii;
    class       volScalarField;
    location    "2";
    object      QPartFluid;
}
// * * * * * * * * * * * * * * * * * * * * * * * * * * * * * * * * * * * * * //

dimensions      [1 -1 -3 0 0 0 0];

internalField   nonuniform List<scalar> 
108
(
4.16394e+09
2.73801e+09
3.77838e+09
1.81311e+09
3.73213e+09
2.4272e+09
4.73093e+09
2.92607e+09
3.24064e+09
4.35083e+09
6.97256e+09
3.77451e+09
3.97404e+09
4.78932e+09
3.70631e+09
4.61871e+09
4.16439e+09
3.69485e+09
5.44383e+09
5.82647e+09
4.02893e+09
4.21495e+09
4.85615e+09
5.13364e+09
5.60575e+09
6.39242e+09
4.65591e+09
3.89427e+09
3.6525e+09
4.54785e+09
6.54352e+09
4.39953e+09
6.47082e+09
4.18486e+09
5.60043e+09
5.97472e+09
6.25647e+09
6.74561e+09
7.10097e+09
6.78241e+09
5.85537e+09
4.77127e+09
5.14909e+09
4.92793e+09
6.87037e+09
6.05178e+09
6.61537e+09
6.87399e+09
6.90061e+09
5.66973e+09
5.69037e+09
7.20896e+09
5.90671e+09
5.45465e+09
1.10052e+10
9.09569e+09
8.14934e+09
1.01016e+10
7.43783e+09
8.9038e+09
7.05931e+09
8.04396e+09
7.22666e+09
8.10372e+09
7.08754e+09
7.06862e+09
8.20767e+09
9.82715e+09
7.86636e+09
7.62574e+09
7.41905e+09
5.65321e+09
7.31975e+09
9.85334e+09
7.58769e+09
9.21308e+09
4.7343e+09
5.73783e+09
7.05576e+09
5.8455e+09
6.00363e+09
8.15785e+09
5.76127e+09
7.25586e+09
4.69789e+09
4.13962e+09
8.34077e+09
6.82787e+09
9.66093e+09
5.12932e+09
5.86976e+09
1.10977e+10
9.2811e+09
7.26913e+09
7.32148e+09
1.00912e+10
8.00815e+09
9.56595e+09
6.26295e+09
8.52591e+09
5.35825e+09
6.50604e+09
7.97434e+09
7.6238e+09
9.96591e+09
8.19604e+09
1.09575e+10
1.07736e+10
)
;

boundaryField
{
    inlet
    {
        type            calculated;
        value           nonuniform 0();
    }
    outlet
    {
        type            calculated;
        value           uniform 0;
    }
    wall
    {
        type            calculated;
        value           uniform 0;
    }
    procBoundary3to1
    {
        type            processor;
        value           nonuniform List<scalar> 
27
(
2.85227e+09
4.81694e+09
2.4848e+09
5.43675e+09
4.49348e+09
3.52035e+09
5.50146e+09
4.79377e+09
4.27131e+09
7.32113e+09
6.38436e+09
4.63493e+09
4.95361e+09
4.25391e+09
5.72984e+09
7.66363e+09
8.48094e+09
4.30986e+09
7.21223e+09
6.7374e+09
4.64434e+09
9.2442e+09
6.53091e+09
8.09323e+09
5.80725e+09
7.61532e+09
3.5044e+09
)
;
    }
    procBoundary3to2
    {
        type            processor;
        value           nonuniform List<scalar> 
12
(
2.33287e+09
3.58792e+09
3.22516e+09
3.75576e+09
9.23399e+09
5.5967e+09
7.27822e+09
4.8731e+09
8.12757e+09
5.16465e+09
1.00797e+10
8.32159e+09
)
;
    }
    procBoundary3to7
    {
        type            processor;
        value           nonuniform List<scalar> 
36
(
8.97579e+09
8.61426e+09
5.57707e+09
7.37932e+09
9.02535e+09
1.12075e+10
6.90124e+09
5.26844e+09
5.47362e+09
5.94088e+09
1.0464e+10
6.32636e+09
7.42436e+09
7.9212e+09
6.68904e+09
6.99726e+09
7.39247e+09
6.19676e+09
5.6339e+09
9.02485e+09
6.01533e+09
9.3069e+09
8.42445e+09
1.13986e+10
9.78855e+09
1.00942e+10
1.02205e+10
6.03968e+09
8.8872e+09
1.05581e+10
6.8279e+09
1.00376e+10
9.8793e+09
1.12173e+10
1.01786e+10
5.8555e+09
)
;
    }
}


// ************************************************************************* //
