/*--------------------------------*- C++ -*----------------------------------*\
| =========                 |                                                 |
| \\      /  F ield         | OpenFOAM: The Open Source CFD Toolbox           |
|  \\    /   O peration     | Version:  4.x                                   |
|   \\  /    A nd           | Web:      www.OpenFOAM.org                      |
|    \\/     M anipulation  |                                                 |
\*---------------------------------------------------------------------------*/
FoamFile
{
    version     2.0;
    format      ascii;
    class       volVectorField;
    location    "51.5";
    object      ddtUrel;
}
// * * * * * * * * * * * * * * * * * * * * * * * * * * * * * * * * * * * * * //

dimensions      [0 1 -2 0 0 0 0];

internalField   nonuniform List<vector> 
87
(
(-1.04539e-09 -1.45483e-10 -5.77138e-11)
(-5.2947e-10 -8.95052e-11 -5.51334e-11)
(-6.64544e-10 -1.67183e-10 -6.13661e-11)
(-3.00491e-10 -4.89063e-11 -4.37608e-11)
(-4.0407e-10 -9.73464e-11 -5.03651e-11)
(-4.9316e-10 -1.83016e-10 -6.09583e-11)
(1.24002e-11 3.80722e-11 9.42579e-12)
(1.2992e-11 3.49033e-11 2.3073e-12)
(-1.11775e-12 2.39403e-11 -1.03614e-11)
(-4.67783e-11 8.79006e-12 -2.58546e-11)
(-1.23327e-10 -5.83361e-12 -4.00818e-11)
(-2.42817e-10 -2.28541e-11 -4.70641e-11)
(-3.85223e-10 -4.85437e-11 -5.15136e-11)
(-5.48748e-10 -9.18571e-11 -5.35971e-11)
(-6.94622e-10 -1.7891e-10 -5.82633e-11)
(7.85247e-12 2.89746e-11 2.83655e-13)
(6.42058e-12 2.62977e-11 -6.38929e-12)
(-6.04295e-12 1.92262e-11 -1.42548e-11)
(-3.79309e-11 8.75875e-12 -2.40239e-11)
(-9.33922e-11 -3.22217e-12 -3.35151e-11)
(-1.76298e-10 -2.09987e-11 -3.98042e-11)
(-2.74546e-10 -5.05881e-11 -4.53053e-11)
(-3.8131e-10 -1.05643e-10 -5.20123e-11)
(-4.57591e-10 -2.0849e-10 -6.25141e-11)
(-1.55262e-14 2.31345e-11 -4.04904e-12)
(-4.23764e-12 1.97563e-11 -8.74828e-12)
(-1.79447e-11 1.46625e-11 -1.43834e-11)
(-4.26632e-11 6.61345e-12 -2.11928e-11)
(-8.97505e-11 -4.81087e-12 -2.78179e-11)
(-1.50817e-10 -2.25107e-11 -3.36353e-11)
(-2.26364e-10 -5.56184e-11 -3.92121e-11)
(-2.9453e-10 -1.15345e-10 -4.68116e-11)
(-3.43309e-10 -2.27703e-10 -6.2474e-11)
(9.68943e-12 2.49183e-11 5.05895e-12)
(8.88556e-12 2.20441e-11 -3.33212e-13)
(-2.68683e-12 1.58076e-11 -8.87772e-12)
(-3.79326e-11 6.40034e-12 -1.95882e-11)
(-9.55139e-11 -4.94294e-12 -2.9558e-11)
(-1.81349e-10 -2.10669e-11 -3.61981e-11)
(-2.79264e-10 -5.17499e-11 -4.20615e-11)
(-3.89873e-10 -1.0613e-10 -4.70051e-11)
(-4.68402e-10 -2.13234e-10 -5.70899e-11)
(6.01118e-12 2.13551e-11 -1.97796e-12)
(4.58019e-12 1.91825e-11 -7.15395e-12)
(-5.23764e-12 1.44143e-11 -1.34514e-11)
(-3.11336e-11 6.32423e-12 -1.99049e-11)
(-7.43385e-11 -4.68077e-12 -2.65625e-11)
(-1.36469e-10 -2.23976e-11 -3.21078e-11)
(-2.08462e-10 -5.64076e-11 -3.85226e-11)
(-2.87335e-10 -1.20244e-10 -4.64184e-11)
(-3.22633e-10 -2.48841e-10 -6.09179e-11)
(1.45824e-12 1.81075e-11 -5.60962e-12)
(-6.23056e-12 1.50795e-11 -9.69653e-12)
(-2.2441e-11 1.20444e-11 -1.53245e-11)
(-3.60952e-11 4.31939e-12 -1.88595e-11)
(-7.2319e-11 -6.81095e-12 -2.38737e-11)
(-1.19408e-10 -2.59956e-11 -2.85875e-11)
(-1.7634e-10 -6.28521e-11 -3.50773e-11)
(-2.21162e-10 -1.34216e-10 -4.55307e-11)
(-2.33961e-10 -2.72028e-10 -6.28807e-11)
(7.09745e-12 1.85063e-11 3.22771e-12)
(5.69929e-12 1.59157e-11 -5.33922e-13)
(-6.46132e-12 1.12683e-11 -7.23744e-12)
(-3.58606e-11 4.4877e-12 -1.52584e-11)
(-8.45626e-11 -5.15759e-12 -2.28013e-11)
(-1.50023e-10 -2.16859e-11 -2.9243e-11)
(-2.24146e-10 -5.40729e-11 -3.51722e-11)
(-3.06434e-10 -1.1441e-10 -4.14547e-11)
(-3.50062e-10 -2.33588e-10 -5.46358e-11)
(7.9861e-12 1.79157e-11 -1.72271e-12)
(4.16392e-12 1.52436e-11 -4.96906e-12)
(-5.36579e-12 1.11428e-11 -1.02422e-11)
(-2.86538e-11 4.35597e-12 -1.56527e-11)
(-6.69402e-11 -6.0716e-12 -2.12552e-11)
(-1.1578e-10 -2.45726e-11 -2.69445e-11)
(-1.67903e-10 -5.99284e-11 -3.35681e-11)
(-2.31549e-10 -1.29666e-10 -4.12385e-11)
(-2.53692e-10 -2.73863e-10 -5.77715e-11)
(6.86833e-12 1.73058e-11 -4.23362e-12)
(-3.40796e-13 1.39178e-11 -7.32233e-12)
(-1.14872e-11 1.02349e-11 -1.20327e-11)
(-3.09783e-11 2.91786e-12 -1.54247e-11)
(-6.16295e-11 -8.53588e-12 -2.02097e-11)
(-1.01845e-10 -2.87136e-11 -2.52033e-11)
(-1.43849e-10 -6.83788e-11 -3.22783e-11)
(-1.74538e-10 -1.4598e-10 -4.27425e-11)
(-1.84461e-10 -2.9858e-10 -6.08898e-11)
)
;

boundaryField
{
    inlet
    {
        type            calculated;
        value           nonuniform List<vector> 9((-7.97986e-11 4.56314e-11 9.17415e-12) (-1.34633e-11 2.11283e-11 4.48239e-12) (-1.34366e-11 5.17788e-12 -5.66142e-12) (-1.83192e-11 2.11525e-11 1.4958e-12) (-3.22875e-11 1.51208e-11 -4.73207e-12) (5.07541e-12 6.17016e-12 -1.24925e-11) (-4.25111e-11 1.24185e-11 7.56865e-13) (8.44955e-11 2.1555e-11 3.09785e-12) (2.68867e-10 3.1515e-11 5.46838e-12));
    }
    outlet
    {
        type            calculated;
        value           nonuniform 0();
    }
    wall
    {
        type            calculated;
        value           nonuniform List<vector> 
57
(
(-5.50902e-12 1.3613e-11 1.97057e-12)
(1.01258e-11 1.79205e-11 1.75759e-12)
(3.39622e-11 2.49902e-11 2.11361e-12)
(2.75561e-11 1.40172e-11 1.40693e-12)
(2.4133e-11 1.33119e-11 1.77264e-12)
(1.42771e-11 8.3711e-12 -2.01519e-12)
(3.49586e-12 1.48026e-11 -2.38343e-12)
(5.48889e-11 1.3514e-11 -3.66937e-12)
(1.11758e-10 1.40785e-11 -1.15472e-11)
(2.15464e-11 1.31838e-11 -5.32481e-12)
(5.13033e-11 1.16604e-11 -3.76974e-12)
(9.15679e-13 4.84962e-12 4.17641e-13)
(-2.10462e-11 1.53651e-11 -6.26658e-12)
(7.86065e-12 1.40186e-11 -3.03646e-12)
(2.97086e-11 3.80694e-12 -5.11179e-12)
(-1.84072e-11 2.36385e-11 -1.04051e-11)
(1.14176e-11 1.95218e-11 -6.36454e-12)
(4.8779e-12 9.91053e-12 -2.82654e-12)
(2.46205e-11 1.56228e-11 -1.56034e-11)
(1.84354e-10 4.44946e-11 -1.4051e-11)
(1.26732e-11 9.80783e-12 -8.99118e-12)
(-5.40122e-11 1.73234e-11 -9.83127e-12)
(-8.63994e-11 8.64796e-11 8.24459e-12)
(1.48001e-10 1.36494e-11 -1.54407e-11)
(7.74189e-11 6.79672e-12 -2.05337e-11)
(-2.37497e-10 -4.0784e-12 1.64085e-11)
(-1.91844e-10 1.06841e-12 1.69742e-11)
(-2.57503e-11 5.11157e-12 -5.45064e-12)
(-3.55216e-11 5.49366e-12 -1.30965e-11)
(-1.01767e-10 2.36165e-11 1.15439e-12)
(-2.69401e-11 -4.41752e-12 -1.65571e-11)
(-6.14533e-11 -6.01678e-12 -2.29681e-11)
(-3.63992e-12 8.20967e-12 -2.02737e-12)
(-6.34104e-11 2.90529e-12 -7.15385e-12)
(-3.26592e-10 1.64457e-11 -4.33326e-11)
(-7.9334e-11 1.19567e-11 -1.21153e-11)
(-1.84288e-11 9.76709e-12 -1.25806e-11)
(-9.97918e-12 4.18034e-12 -1.44893e-11)
(-1.51861e-11 4.79612e-12 3.55483e-13)
(-8.81667e-11 6.04897e-12 -1.19729e-11)
(-9.12534e-11 6.30786e-12 -1.68314e-11)
(-2.18513e-11 3.50545e-12 -5.12619e-12)
(-3.28089e-11 1.43876e-11 -1.54389e-11)
(-4.59169e-11 1.17721e-11 -7.29324e-12)
(-3.89181e-11 1.01301e-11 -2.44952e-12)
(-2.06896e-11 -3.40286e-12 -3.07403e-11)
(-1.18665e-10 9.70823e-12 -1.1216e-11)
(-1.59786e-10 1.87609e-11 -8.96231e-12)
(-5.55231e-11 9.73205e-12 -8.86622e-12)
(5.11861e-11 -3.83787e-12 -4.00786e-11)
(-5.63242e-11 2.89166e-11 6.8494e-12)
(-5.7546e-11 1.78212e-11 -2.53659e-11)
(9.88704e-11 1.41017e-11 -1.44294e-11)
(-1.76752e-10 1.57792e-11 -2.7076e-11)
(-2.40955e-10 4.4377e-11 -9.75102e-12)
(1.37985e-10 1.04748e-11 -4.84207e-12)
(1.27921e-10 -9.91481e-13 1.2961e-11)
)
;
    }
    procBoundary6to0
    {
        type            processor;
        value           uniform (-1.67259e-09 -1.21558e-10 -4.9677e-11);
    }
    procBoundary6to2
    {
        type            processor;
        value           nonuniform List<vector> 
32
(
(-1.52803e-09 -1.20503e-10 -5.45139e-11)
(-7.12233e-10 -8.02051e-11 -5.52813e-11)
(-9.26753e-10 -1.35695e-10 -5.8644e-11)
(-4.03421e-10 -4.5342e-11 -4.38487e-11)
(-5.46308e-10 -8.20294e-11 -4.87185e-11)
(-6.81188e-10 -1.4677e-10 -5.7387e-11)
(1.74352e-11 5.37246e-11 1.5514e-11)
(1.78246e-11 4.85937e-11 6.3132e-12)
(-4.1262e-13 3.2635e-11 -1.06404e-11)
(-6.01419e-11 1.14378e-11 -3.06328e-11)
(-1.64432e-10 -8.37099e-12 -4.82511e-11)
(-3.27879e-10 -2.51739e-11 -5.7297e-11)
(-5.35714e-10 -4.70085e-11 -6.10296e-11)
(-7.92648e-10 -8.14505e-11 -5.89045e-11)
(-7.92648e-10 -8.14505e-11 -5.89045e-11)
(-7.92648e-10 -8.14505e-11 -5.89045e-11)
(7.77155e-12 3.95198e-11 3.60071e-12)
(6.47957e-12 3.61318e-11 -3.21804e-12)
(-8.84821e-12 2.53508e-11 -1.43777e-11)
(-5.13297e-11 1.07716e-11 -2.71183e-11)
(-1.25375e-10 -4.27568e-12 -3.88957e-11)
(-2.36039e-10 -2.21715e-11 -4.63353e-11)
(-3.72139e-10 -4.70733e-11 -5.15669e-11)
(-3.72139e-10 -4.70733e-11 -5.15669e-11)
(-3.72139e-10 -4.70733e-11 -5.15669e-11)
(-4.14957e-12 3.06466e-11 -1.47217e-12)
(-5.87428e-12 2.72779e-11 -6.52884e-12)
(-2.13941e-11 1.98014e-11 -1.43472e-11)
(-5.6247e-11 9.10287e-12 -2.29971e-11)
(-1.18661e-10 -3.96239e-12 -3.14244e-11)
(-2.00015e-10 -2.11718e-11 -3.79019e-11)
(-2.00015e-10 -2.11718e-11 -3.79019e-11)
)
;
    }
    procBoundary6to4
    {
        type            processor;
        value           nonuniform List<vector> 
27
(
(1.91336e-11 4.23819e-11 2.49469e-11)
(1.88294e-11 3.78886e-11 1.68007e-11)
(-7.58107e-13 2.41929e-11 -1.45407e-12)
(-6.36431e-11 6.48795e-12 -2.48072e-11)
(-1.68382e-10 -1.05447e-11 -4.54357e-11)
(-3.32953e-10 -2.66617e-11 -5.54315e-11)
(-5.38387e-10 -4.76838e-11 -5.77851e-11)
(-7.91311e-10 -8.47407e-11 -5.38513e-11)
(-1.04309e-09 -1.55098e-10 -5.12285e-11)
(1.25146e-11 2.76992e-11 1.60181e-11)
(1.14419e-11 2.41874e-11 9.98675e-12)
(-4.59226e-12 1.58674e-11 -2.35322e-12)
(-5.08666e-11 4.87987e-12 -1.81417e-11)
(-1.25893e-10 -7.47711e-12 -3.22296e-11)
(-2.40401e-10 -2.32354e-11 -4.04086e-11)
(-3.75099e-10 -4.91287e-11 -4.48262e-11)
(-5.34924e-10 -9.35212e-11 -4.53321e-11)
(-6.66773e-10 -1.80442e-10 -5.07316e-11)
(6.5765e-12 1.97874e-11 1.07139e-11)
(4.70445e-12 1.69408e-11 6.09596e-12)
(-1.05107e-11 1.0999e-11 -2.96154e-12)
(-4.6157e-11 3.45332e-12 -1.42415e-11)
(-1.06385e-10 -6.49811e-12 -2.42222e-11)
(-1.91906e-10 -2.199e-11 -3.12543e-11)
(-2.91955e-10 -4.91689e-11 -3.57537e-11)
(-4.15766e-10 -9.30971e-11 -3.91731e-11)
(-4.79866e-10 -1.94125e-10 -4.69751e-11)
)
;
    }
    procBoundary6to7
    {
        type            processor;
        value           nonuniform List<vector> 
12
(
(-1.23484e-09 -2.66941e-10 -6.39257e-11)
(-7.45387e-10 -3.1397e-10 -7.69653e-11)
(-5.19986e-10 -3.44448e-10 -8.29777e-11)
(-7.7469e-10 -3.45628e-10 -7.37542e-11)
(-4.76972e-10 -4.04198e-10 -8.79863e-11)
(-3.24733e-10 -4.42129e-10 -9.48854e-11)
(-4.90496e-10 -4.15107e-10 -7.94442e-11)
(-3.03168e-10 -4.8772e-10 -9.37761e-11)
(-1.9507e-10 -5.34354e-10 -1.0197e-10)
(-3.40676e-10 -4.5691e-10 -7.99712e-11)
(-2.06463e-10 -5.39868e-10 -9.4318e-11)
(-1.26457e-10 -5.90364e-10 -1.03375e-10)
)
;
    }
}


// ************************************************************************* //
