/*--------------------------------*- C++ -*----------------------------------*\
| =========                 |                                                 |
| \\      /  F ield         | OpenFOAM: The Open Source CFD Toolbox           |
|  \\    /   O peration     | Version:  4.x                                   |
|   \\  /    A nd           | Web:      www.OpenFOAM.org                      |
|    \\/     M anipulation  |                                                 |
\*---------------------------------------------------------------------------*/
FoamFile
{
    version     2.0;
    format      ascii;
    class       volVectorField;
    location    "51.5";
    object      Urel;
}
// * * * * * * * * * * * * * * * * * * * * * * * * * * * * * * * * * * * * * //

dimensions      [0 1 -1 0 0 0 0];

internalField   nonuniform List<vector> 
87
(
(-0.0199288 -3.96508e-05 0.00027639)
(-0.0193861 -0.000140715 0.000395932)
(-0.0209778 -0.000100266 0.000345232)
(-0.0220685 -0.000201613 0.000518395)
(-0.020747 -9.84374e-05 0.00047709)
(-0.0220966 -3.17452e-05 0.000437291)
(-0.0229144 -0.000197473 0.000486607)
(-0.0205582 -0.00017444 0.000433472)
(-0.0212856 -0.000177202 0.000408513)
(-0.0191481 -0.000132296 0.000348748)
(-0.0203991 -0.000115195 0.000306147)
(-0.018304 -7.40799e-05 0.000250832)
(-0.0198873 -4.01378e-05 0.000216131)
(-0.017865 -1.31638e-05 0.000179783)
(-0.0196175 3.17186e-05 0.000161615)
(-0.0231156 -0.000492591 0.000487403)
(-0.020911 -0.000406368 0.000448779)
(-0.0217339 -0.000433846 0.00043373)
(-0.0198404 -0.000325554 0.000387782)
(-0.021078 -0.000309943 0.000354499)
(-0.0192168 -0.000213725 0.000304378)
(-0.0206985 -0.000160611 0.000277805)
(-0.0187997 -8.86632e-05 0.000238892)
(-0.0204759 -9.02937e-06 0.000223821)
(-0.0233314 -0.000515332 0.000496047)
(-0.0213493 -0.000449925 0.000466317)
(-0.0222511 -0.000456569 0.000459472)
(-0.020725 -0.000363421 0.000429736)
(-0.0218871 -0.000336024 0.000397829)
(-0.0204248 -0.000243979 0.000360737)
(-0.0216828 -0.00019821 0.000327007)
(-0.0201753 -9.60429e-05 0.000312203)
(-0.0215115 -1.10829e-05 0.000281213)
(-0.0230388 -0.000228842 8.76577e-05)
(-0.0208285 -0.0001907 0.000109372)
(-0.021605 -0.000204668 5.59969e-05)
(-0.0196906 -0.000144394 7.51684e-05)
(-0.0208952 -0.000135638 2.92522e-05)
(-0.01903 -7.35835e-05 4.82225e-05)
(-0.0204913 -5.17579e-05 3.24123e-05)
(-0.0186031 -1.57972e-06 3.61773e-05)
(-0.0202598 2.44223e-05 4.09599e-05)
(-0.0232272 -0.000488668 0.000109394)
(-0.0211738 -0.000407709 0.000128987)
(-0.0220303 -0.000430638 8.44073e-05)
(-0.0203709 -0.000325589 0.000106969)
(-0.021554 -0.000320596 5.88956e-05)
(-0.0199585 -0.000222652 8.14206e-05)
(-0.0212843 -0.000195555 4.59932e-05)
(-0.0196567 -0.000101127 7.60235e-05)
(-0.0211295 -5.97644e-05 6.32616e-05)
(-0.0234171 -0.000500512 0.000143963)
(-0.0215484 -0.000439736 0.000158858)
(-0.0224938 -0.000436237 0.00012628)
(-0.0211234 -0.00035331 0.000136851)
(-0.0222905 -0.000322823 0.000100316)
(-0.021003 -0.000241888 0.000118284)
(-0.0222038 -0.000195075 8.81984e-05)
(-0.0209007 -0.000102541 0.000114224)
(-0.0221432 -3.49346e-05 8.99152e-05)
(-0.0232048 -0.000226556 -4.78981e-05)
(-0.0212143 -0.000181485 -2.1065e-05)
(-0.0220439 -0.000182282 -5.7352e-05)
(-0.0204786 -0.000128655 -3.07233e-05)
(-0.021611 -0.00010397 -6.84436e-05)
(-0.0201538 -4.75828e-05 -4.37808e-05)
(-0.0214042 -7.57284e-06 -7.08763e-05)
(-0.0199394 3.99671e-05 -4.08878e-05)
(-0.0212889 7.5752e-05 -4.29505e-05)
(-0.0233718 -0.000453479 -1.11915e-05)
(-0.0214971 -0.000385048 1.25152e-05)
(-0.0224123 -0.00039558 -8.06136e-06)
(-0.0210266 -0.000310584 1.31471e-05)
(-0.0221867 -0.000285888 -8.65398e-06)
(-0.020892 -0.000203522 5.22089e-06)
(-0.0220887 -0.000159852 -7.22304e-06)
(-0.0207848 -6.7757e-05 2.66675e-05)
(-0.0220427 -1.47082e-05 3.6038e-05)
(-0.0235268 -0.000470819 2.55666e-05)
(-0.021774 -0.000415367 4.68066e-05)
(-0.0227808 -0.000408287 3.1717e-05)
(-0.0215878 -0.000337115 4.53082e-05)
(-0.0227874 -0.000297893 3.40861e-05)
(-0.0216863 -0.000216068 5.20049e-05)
(-0.0228447 -0.000164864 4.50361e-05)
(-0.0217202 -7.14367e-05 8.30539e-05)
(-0.0228703 -1.9291e-06 9.55165e-05)
)
;

boundaryField
{
    inlet
    {
        type            calculated;
        value           nonuniform List<vector> 9((-0.01 -7.16892e-11 2.82991e-11) (-0.01 -7.31628e-12 -1.73676e-11) (-0.01 -1.77427e-11 9.45042e-12) (-0.01 -5.15256e-11 1.16818e-11) (-0.01 -3.08204e-11 -1.09336e-11) (-0.01 -3.08204e-11 2.30293e-11) (-0.01 -4.3647e-11 -1.17014e-12) (-0.01 -6.92193e-11 -1.78244e-11) (-0.01 -1.34791e-10 -5.7295e-12));
    }
    outlet
    {
        type            calculated;
        value           nonuniform 0();
    }
    wall
    {
        type            calculated;
        value           nonuniform List<vector> 
57
(
(3.73803e-11 -4.3647e-11 -1.17014e-12)
(-5.49139e-11 -6.92193e-11 -1.78244e-11)
(-2.28547e-10 -1.34791e-10 -5.7295e-12)
(4.4602e-11 -6.92176e-11 2.17028e-12)
(5.39703e-11 -3.06991e-11 1.878e-12)
(-1.9193e-12 -3.00604e-11 4.44811e-12)
(1.2166e-10 -7.09545e-11 -2.36729e-11)
(4.00562e-11 -5.12108e-11 3.22272e-12)
(3.33917e-11 -9.14288e-11 7.76771e-11)
(1.72619e-10 -6.31438e-11 -9.69729e-12)
(1.19738e-10 -4.51489e-11 5.88282e-12)
(2.91379e-11 -3.83084e-11 -1.29915e-11)
(2.65156e-10 -6.36718e-11 -2.09788e-11)
(1.97112e-10 -3.73989e-11 -1.06329e-11)
(4.9965e-11 -3.12644e-11 1.16049e-11)
(3.62652e-10 -1.05822e-10 -1.33768e-11)
(2.53384e-10 -6.14597e-11 -7.77496e-12)
(1.05569e-10 -5.47397e-11 6.09631e-12)
(5.74438e-10 4.71792e-11 1.7988e-11)
(5.28891e-10 1.45798e-10 7.79799e-11)
(1.17509e-10 -4.11596e-11 1.36892e-11)
(5.22626e-10 1.43229e-11 2.59532e-11)
(6.39349e-10 5.192e-10 7.90741e-11)
(1.09816e-10 2.59866e-11 9.15502e-11)
(5.74395e-10 1.45452e-10 7.30244e-11)
(6.5371e-10 4.34671e-10 -6.2317e-11)
(3.76272e-10 1.22751e-10 -1.30236e-10)
(6.22298e-12 -1.77427e-11 9.45042e-12)
(-8.02241e-12 -3.08204e-11 2.30293e-11)
(-2.28547e-10 -1.34791e-10 -5.7295e-12)
(4.38838e-11 -4.92651e-11 2.2061e-11)
(7.13981e-11 -3.71487e-11 3.62675e-11)
(-1.9193e-12 -3.00604e-11 4.44811e-12)
(1.6951e-11 -4.77813e-11 6.38902e-12)
(8.145e-11 -1.65704e-10 1.90866e-10)
(3.33917e-11 -9.14288e-11 7.76771e-11)
(2.8162e-11 -7.10963e-11 2.31452e-11)
(6.90862e-11 -4.52408e-11 3.30874e-11)
(2.91379e-11 -3.83084e-11 -1.29915e-11)
(3.68278e-11 -6.8082e-11 2.78666e-11)
(8.22312e-11 -6.2416e-11 5.44252e-11)
(4.9965e-11 -3.12644e-11 1.16049e-11)
(8.57147e-11 -8.61906e-11 6.00936e-11)
(1.08228e-10 -7.47022e-11 2.79534e-11)
(1.05569e-10 -5.47397e-11 6.09631e-12)
(1.34589e-10 -2.72461e-11 7.15007e-11)
(1.02288e-10 -7.9492e-11 5.23582e-11)
(1.86133e-10 -8.0997e-11 6.48175e-11)
(1.17509e-10 -4.11596e-11 1.36892e-11)
(3.70331e-10 2.42936e-11 1.36274e-10)
(-3.08875e-11 -1.43845e-10 -8.18944e-11)
(2.82573e-10 -3.01174e-11 1.69967e-10)
(1.09816e-10 2.59866e-11 9.15502e-11)
(2.95599e-10 -8.33128e-11 4.48927e-11)
(2.48067e-10 -1.40201e-10 4.84913e-11)
(5.30125e-10 5.94128e-11 -8.45547e-11)
(3.76272e-10 1.22751e-10 -1.30236e-10)
)
;
    }
    procBoundary6to0
    {
        type            processor;
        value           uniform (-0.0197393 3.65402e-05 0.000271671);
    }
    procBoundary6to2
    {
        type            processor;
        value           nonuniform List<vector> 
32
(
(-0.0206482 1.81433e-05 0.000357825)
(-0.019862 -0.000112851 0.000484895)
(-0.0215813 -5.55282e-05 0.000413826)
(-0.0226665 -0.000213805 0.000644733)
(-0.0213955 -0.000111808 0.000561484)
(-0.0228053 -5.03413e-05 0.000490268)
(-0.0229704 -0.000207287 0.000901032)
(-0.0206501 -0.000181675 0.000788275)
(-0.0214272 -0.000203638 0.000775467)
(-0.0193657 -0.000152179 0.000639978)
(-0.0206122 -0.000155895 0.000582262)
(-0.018618 -0.000100301 0.00046328)
(-0.020169 -8.83616e-05 0.000387179)
(-0.0181609 -4.5719e-05 0.000324693)
(-0.0181609 -4.5719e-05 0.000324693)
(-0.0181609 -4.5719e-05 0.000324693)
(-0.0231558 -0.000476906 0.000878136)
(-0.0210053 -0.000406453 0.00078548)
(-0.0218572 -0.000441779 0.000778769)
(-0.0200754 -0.000342473 0.00067021)
(-0.0213047 -0.000351733 0.000624868)
(-0.0196236 -0.000248201 0.000515111)
(-0.0210655 -0.00023277 0.000456339)
(-0.0210655 -0.00023277 0.000456339)
(-0.0210655 -0.00023277 0.000456339)
(-0.0233584 -0.000496198 0.000864518)
(-0.0214035 -0.000438598 0.000793375)
(-0.0223451 -0.000444542 0.000794742)
(-0.0208839 -0.000363792 0.00071415)
(-0.0220942 -0.000339834 0.00067204)
(-0.0207687 -0.000248866 0.000572907)
(-0.0207687 -0.000248866 0.000572907)
)
;
    }
    procBoundary6to4
    {
        type            processor;
        value           nonuniform List<vector> 
27
(
(-0.0228909 0.000143696 0.000497946)
(-0.0205544 0.000110474 0.00044003)
(-0.0212585 0.000121896 0.000412212)
(-0.0191409 9.83593e-05 0.000347905)
(-0.0203419 0.000102999 0.000302402)
(-0.018267 7.73613e-05 0.000240694)
(-0.0198141 6.19973e-05 0.000206376)
(-0.0177348 5.9854e-05 0.000158666)
(-0.0195101 5.90683e-05 0.000123612)
(-0.0229954 0.000116398 0.000126011)
(-0.0207619 8.99243e-05 0.000116054)
(-0.0215138 9.00245e-05 6.5051e-05)
(-0.0195603 8.1719e-05 7.31828e-05)
(-0.0207641 8.12413e-05 1.6713e-05)
(-0.0188718 7.89339e-05 2.79913e-05)
(-0.0203648 7.59252e-05 -1.60064e-05)
(-0.0184632 8.17547e-05 7.54249e-06)
(-0.0201606 8.87004e-05 -4.38915e-06)
(-0.0231382 0.000102195 -3.18328e-05)
(-0.0211045 9.21927e-05 -2.77096e-05)
(-0.0219193 0.00010203 -7.31903e-05)
(-0.0203005 9.62951e-05 -5.52521e-05)
(-0.0214607 0.000102138 -9.86558e-05)
(-0.0199878 0.000103695 -8.05752e-05)
(-0.0212977 0.000113715 -0.000119027)
(-0.0198847 0.000124796 -7.93233e-05)
(-0.0212764 0.00014854 -9.32206e-05)
)
;
    }
    procBoundary6to7
    {
        type            processor;
        value           nonuniform List<vector> 
12
(
(-0.0179377 7.14582e-07 0.000229978)
(-0.0193052 -4.85231e-05 0.000329793)
(-0.0207254 5.5456e-05 0.000435209)
(-0.0176536 3.85899e-05 0.000135364)
(-0.01855 2.55112e-05 0.000196546)
(-0.0198784 5.9675e-05 0.000283987)
(-0.0183275 5.79701e-05 4.81455e-05)
(-0.0194603 1.22904e-05 8.7933e-05)
(-0.0207951 5.33209e-05 0.000119226)
(-0.0197937 0.000115607 2.22432e-06)
(-0.0206995 4.68904e-05 8.52125e-05)
(-0.0216878 8.35555e-05 0.000143024)
)
;
    }
}


// ************************************************************************* //
