/*--------------------------------*- C++ -*----------------------------------*\
| =========                 |                                                 |
| \\      /  F ield         | OpenFOAM: The Open Source CFD Toolbox           |
|  \\    /   O peration     | Version:  4.x                                   |
|   \\  /    A nd           | Web:      www.OpenFOAM.org                      |
|    \\/     M anipulation  |                                                 |
\*---------------------------------------------------------------------------*/
FoamFile
{
    version     2.0;
    format      ascii;
    class       volVectorField;
    location    "29.5";
    object      DDtUrel;
}
// * * * * * * * * * * * * * * * * * * * * * * * * * * * * * * * * * * * * * //

dimensions      [0 1 -2 0 0 0 0];

internalField   nonuniform List<vector> 
114
(
(0.000532249 3.37163e-06 1.06836e-06)
(0.000390925 2.8186e-06 2.20529e-05)
(0.000315045 3.65795e-06 3.55548e-05)
(0.000246561 7.31155e-06 3.91898e-05)
(0.000221058 1.03025e-05 3.74644e-05)
(0.000175524 9.30376e-06 3.05957e-05)
(0.00177214 2.31651e-05 -0.000170118)
(0.00113174 1.49897e-05 -9.2898e-05)
(0.000746408 7.80884e-06 -3.29756e-05)
(0.000528949 -1.7683e-07 3.03127e-06)
(0.000387428 -6.19543e-06 2.0951e-05)
(0.000313384 -9.35842e-06 3.26997e-05)
(0.00024603 -7.2529e-06 3.67509e-05)
(0.000220024 -3.62694e-06 3.71405e-05)
(0.000175859 8.11085e-07 3.12722e-05)
(0.00180636 6.13003e-05 -0.000166093)
(0.00117306 2.96138e-05 -9.00753e-05)
(0.000789911 1.19949e-05 -3.1103e-05)
(0.000574213 -8.84553e-07 4.41116e-06)
(0.000432022 -1.07502e-05 2.22171e-05)
(0.00035802 -1.68032e-05 3.25048e-05)
(0.000289206 -1.83139e-05 3.56444e-05)
(0.000261923 -1.58157e-05 3.45175e-05)
(0.00021684 -7.62214e-06 3.07817e-05)
(0.00184955 6.66526e-05 -0.000159913)
(0.00122687 3.51095e-05 -8.79407e-05)
(0.000847432 1.30235e-05 -3.19824e-05)
(0.000637904 -1.18059e-06 3.15397e-06)
(0.000496321 -1.31578e-05 2.13106e-05)
(0.000425885 -2.00006e-05 3.24853e-05)
(0.000353715 -2.50255e-05 3.57668e-05)
(0.00032068 -2.46786e-05 3.37223e-05)
(0.00027261 -2.2596e-05 2.84563e-05)
(0.000227733 4.06058e-06 3.61834e-05)
(0.000171027 5.63694e-06 3.19046e-05)
(0.000150977 9.73688e-06 3.57572e-05)
(0.000115349 8.71657e-06 2.59329e-05)
(0.00171009 2.83405e-05 -0.000198293)
(0.00104725 1.49389e-05 -9.72909e-05)
(0.00065592 7.79744e-06 -3.32646e-05)
(0.000437361 1.18771e-06 6.46699e-06)
(0.000302696 -5.17057e-06 1.97528e-05)
(0.000233701 -9.65416e-06 3.31698e-05)
(0.000176251 -6.79105e-06 3.11684e-05)
(0.00015628 -3.84118e-06 3.37266e-05)
(0.00012176 4.94853e-07 2.58914e-05)
(0.00174607 6.85244e-05 -0.000195488)
(0.00108816 3.25747e-05 -9.70518e-05)
(0.000697114 1.16395e-05 -3.34961e-05)
(0.000480823 -1.40012e-06 5.07369e-06)
(0.000342625 -9.93499e-06 1.91887e-05)
(0.000273149 -1.57377e-05 3.09678e-05)
(0.000210067 -1.64871e-05 3.05649e-05)
(0.000189317 -1.61478e-05 3.37637e-05)
(0.00015028 -9.5504e-06 2.58106e-05)
(0.00179492 7.46686e-05 -0.00018912)
(0.00114851 3.8266e-05 -9.53234e-05)
(0.000759512 1.25287e-05 -3.5226e-05)
(0.000545583 -2.29626e-06 2.65838e-06)
(0.000404051 -1.32757e-05 1.72129e-05)
(0.000333134 -1.89577e-05 3.05293e-05)
(0.000265586 -2.2667e-05 3.16325e-05)
(0.000241598 -2.31312e-05 3.1802e-05)
(0.000198024 -2.14577e-05 2.4333e-05)
(8.73679e-05 5.60937e-06 2.57385e-05)
(7.02491e-05 6.73309e-06 2.17087e-05)
(0.00165305 3.82778e-05 -0.00018163)
(0.000970178 1.6922e-05 -8.51891e-05)
(0.000578906 6.40896e-06 -3.10643e-05)
(0.00036118 -1.74513e-06 4.19168e-06)
(0.000233983 -5.32263e-06 1.35903e-05)
(0.000166426 -1.11934e-05 2.37629e-05)
(0.000118768 -5.97517e-06 2.13608e-05)
(9.59241e-05 -4.29531e-06 2.50051e-05)
(7.20259e-05 -7.68123e-09 2.00552e-05)
(0.0016906 7.57668e-05 -0.000177236)
(0.00101179 3.49969e-05 -8.54459e-05)
(0.000617135 1.18782e-05 -3.35142e-05)
(0.000397203 -3.14606e-06 1.63471e-06)
(0.000264737 -9.63873e-06 1.26932e-05)
(0.000195371 -1.60524e-05 2.3814e-05)
(0.000142171 -1.37484e-05 2.10666e-05)
(0.000121249 -1.49454e-05 2.35788e-05)
(9.28963e-05 -8.82091e-06 1.71852e-05)
(0.00174215 8.35748e-05 -0.000174315)
(0.00107309 4.33845e-05 -8.72628e-05)
(0.000676801 1.44044e-05 -3.67234e-05)
(0.00045681 -2.48965e-06 -1.24404e-06)
(0.000317603 -1.24419e-05 1.17946e-05)
(0.000243715 -1.76549e-05 2.34341e-05)
(0.000181829 -1.83481e-05 1.87387e-05)
(0.00016169 -2.26353e-05 2.0155e-05)
(0.000124036 -1.65586e-05 1.16756e-05)
(0.00162062 4.26691e-05 -0.000137168)
(0.000927186 2.02876e-05 -6.34192e-05)
(0.000535931 6.73817e-06 -2.62968e-05)
(0.000318155 -2.37118e-06 -2.86145e-07)
(0.00019443 -3.89559e-06 7.45162e-06)
(0.000125992 -8.14411e-06 1.29866e-05)
(8.31739e-05 -5.35142e-06 1.28833e-05)
(5.75167e-05 -3.59065e-06 1.77234e-05)
(0.00166379 8.36284e-05 -0.000133475)
(0.000974049 3.6073e-05 -6.5187e-05)
(0.000575971 1.06592e-05 -2.93807e-05)
(0.000354912 -3.91443e-06 -3.84367e-06)
(0.000223084 -7.91876e-06 6.28574e-06)
(0.000155265 -1.29254e-05 1.39595e-05)
(0.000104187 -1.2071e-05 1.09667e-05)
(0.00171787 8.7865e-05 -0.000133751)
(0.00103474 4.2434e-05 -6.95469e-05)
(0.000631218 1.33232e-05 -3.4414e-05)
(0.000406056 -3.40063e-06 -7.9434e-06)
(0.000266341 -1.01395e-05 5.93458e-06)
(0.000194682 -1.59237e-05 1.45407e-05)
)
;

boundaryField
{
    inlet
    {
        type            calculated;
        value           nonuniform List<vector> 
12
(
(0.00393787 4.76307e-05 -0.000332053)
(0.00401512 0.000242242 -0.000328996)
(0.00416694 0.000160709 -0.000284752)
(0.00375679 7.38856e-05 -0.000639057)
(0.00382363 0.000289144 -0.000671295)
(0.00403334 0.000208695 -0.00060837)
(0.0037321 0.00016844 -0.000575908)
(0.00375911 0.000296852 -0.000548178)
(0.00398083 0.000251786 -0.000526373)
(0.0036989 0.00017829 -0.000469814)
(0.00380136 0.000365882 -0.000407785)
(0.00403521 0.000254718 -0.000405281)
)
;
    }
    outlet
    {
        type            calculated;
        value           nonuniform 0();
    }
    wall
    {
        type            calculated;
        value           nonuniform List<vector> 
66
(
(0.00393787 4.76307e-05 -0.000332053)
(0.00401512 0.000242242 -0.000328996)
(0.00416694 0.000160709 -0.000284752)
(0.000432234 2.8934e-05 -3.58256e-05)
(0.000584269 2.96781e-06 -1.13773e-05)
(0.000843745 1.16015e-05 -6.90239e-06)
(0.000333201 2.30598e-05 4.0823e-05)
(0.000489227 7.35524e-06 6.05056e-05)
(0.0007424 -7.84418e-06 4.26839e-05)
(0.000530368 1.67956e-05 2.14715e-05)
(0.000414794 -1.94458e-05 5.28861e-05)
(0.0005656 -1.03359e-05 6.7859e-05)
(0.000895484 -5.87574e-06 5.58267e-05)
(0.000414502 -2.98621e-06 5.75017e-05)
(0.000280905 -3.22354e-05 3.73741e-05)
(0.000424555 -3.21977e-05 6.24758e-05)
(0.000745438 -3.68151e-05 5.36826e-05)
(0.000514876 4.35202e-06 8.99622e-05)
(0.000394203 -4.26219e-05 4.80148e-05)
(0.000530227 -4.7845e-05 5.97929e-05)
(0.000923444 -3.89135e-05 6.39733e-05)
(0.000301242 4.0038e-05 9.72701e-05)
(0.000192018 -2.43625e-05 6.15655e-05)
(0.000331669 -5.02545e-05 6.12498e-05)
(0.000694286 -7.02531e-05 6.60547e-05)
(0.000495722 4.63635e-05 7.37264e-05)
(0.000342426 -1.0987e-05 7.49739e-05)
(0.000490175 -4.34822e-05 3.97187e-05)
(0.000791417 -6.22579e-05 4.76066e-05)
(0.000213958 -2.16362e-05 4.82696e-05)
(9.78077e-05 7.89754e-06 3.42157e-05)
(0.000247402 4.48678e-05 3.41412e-05)
(0.000542165 -6.14593e-05 7.79592e-06)
(0.00416694 0.000160709 -0.000284752)
(0.00403334 0.000208695 -0.00060837)
(0.00398083 0.000251786 -0.000526373)
(0.00403521 0.000254718 -0.000405281)
(0.000843745 1.16015e-05 -6.90239e-06)
(0.000490192 1.51028e-05 -2.81098e-05)
(0.000263643 5.13108e-05 -4.13507e-06)
(0.000242181 6.51899e-06 -1.5923e-05)
(0.0007424 -7.84418e-06 4.26839e-05)
(0.00036735 -2.73292e-05 2.60823e-05)
(0.000174466 -7.94991e-06 -9.42467e-06)
(0.000141539 -1.72415e-05 -3.99819e-05)
(0.000895484 -5.87574e-06 5.58267e-05)
(0.0004985 -2.03389e-05 8.12497e-05)
(0.000261301 -2.07911e-05 7.11714e-05)
(0.000212065 -2.93683e-05 9.57679e-06)
(0.000745438 -3.68151e-05 5.36826e-05)
(0.000345622 -4.36168e-05 1.91698e-05)
(0.00016024 -4.09391e-05 1.48822e-05)
(0.0001178 -1.24816e-05 3.25169e-05)
(0.000923444 -3.89135e-05 6.39733e-05)
(0.000495718 -3.60735e-05 8.44688e-05)
(0.000229197 -3.85685e-05 8.06682e-05)
(0.000236495 -3.81378e-05 8.07801e-05)
(0.000694286 -7.02531e-05 6.60547e-05)
(0.000280948 -5.81811e-05 6.47622e-05)
(5.00578e-05 -8.95907e-06 -1.37847e-05)
(0.000791417 -6.22579e-05 4.76066e-05)
(0.00046763 -4.82708e-05 8.03215e-05)
(0.000241606 -8.23456e-05 4.25977e-05)
(0.000542165 -6.14593e-05 7.79592e-06)
(0.000210238 -6.4373e-05 1.37514e-05)
(8.96456e-06 -1.18609e-05 -3.43078e-05)
)
;
    }
    procBoundary2to0
    {
        type            processor;
        value           nonuniform List<vector> 
44
(
(0.000552422 6.39559e-06 3.00388e-07)
(0.000409731 1.22216e-05 2.01762e-05)
(0.000330981 1.30482e-05 3.04434e-05)
(0.000259429 1.35716e-05 3.55901e-05)
(0.000223694 1.72143e-05 3.30575e-05)
(0.000179879 2.18177e-05 2.78181e-05)
(0.0017703 -1.94753e-05 -0.000174781)
(0.00113336 -5.20188e-06 -9.16561e-05)
(0.000750559 -4.9302e-07 -3.3361e-05)
(0.000750559 -4.9302e-07 -3.3361e-05)
(0.000434525 4.1618e-06 7.39984e-06)
(0.000298621 2.82154e-06 2.14096e-05)
(0.000239738 1.42737e-05 3.50136e-05)
(0.000179411 1.36064e-05 3.21222e-05)
(0.000153514 1.5377e-05 3.50117e-05)
(0.000119773 1.66293e-05 2.94526e-05)
(0.00170211 -1.73104e-05 -0.000208915)
(0.00104267 -6.29646e-06 -9.88975e-05)
(0.000652905 -3.10942e-07 -3.266e-05)
(0.000434525 4.1618e-06 7.39984e-06)
(0.000298621 2.82154e-06 2.14096e-05)
(0.000298621 2.82154e-06 2.14096e-05)
(0.000156303 1.73571e-06 2.48396e-05)
(0.000114393 3.86095e-06 2.31217e-05)
(9.69433e-05 1.48373e-05 2.72824e-05)
(8.24711e-05 1.45614e-05 2.41423e-05)
(0.00163476 -1.35808e-05 -0.000187148)
(0.000953057 -5.18462e-06 -8.80843e-05)
(0.000566037 -1.16931e-06 -3.0616e-05)
(0.000348267 2.07517e-06 6.48045e-06)
(0.000227206 1.78603e-06 1.45491e-05)
(0.000156303 1.73571e-06 2.48396e-05)
(0.000114393 3.86095e-06 2.31217e-05)
(0.000114393 3.86095e-06 2.31217e-05)
(4.9655e-05 5.66429e-06 1.64309e-05)
(3.42677e-05 4.48822e-06 1.53869e-05)
(0.00160477 -1.43278e-05 -0.000134333)
(0.000910104 -3.53474e-06 -6.43644e-05)
(0.000521357 -1.31895e-07 -2.50971e-05)
(0.000303184 2.40835e-06 5.79676e-07)
(0.000184767 1.96596e-06 7.76275e-06)
(0.000115557 1.80613e-06 1.32977e-05)
(7.65224e-05 3.12478e-06 1.40557e-05)
(4.9655e-05 5.66429e-06 1.64309e-05)
)
;
    }
    procBoundary2to3
    {
        type            processor;
        value           nonuniform List<vector> 
12
(
(0.000170708 1.46273e-05 2.46276e-05)
(0.000168534 3.3069e-06 3.06782e-05)
(0.000211233 -7.64349e-06 3.24369e-05)
(0.000264503 -2.37682e-05 3.12371e-05)
(0.000107906 8.99103e-06 2.85614e-05)
(0.000116668 5.45589e-06 2.64001e-05)
(0.000148632 -7.91918e-06 2.70822e-05)
(0.000195196 -2.13654e-05 2.6793e-05)
(5.20218e-05 7.04464e-06 2.52413e-05)
(6.02256e-05 2.31239e-06 2.10271e-05)
(8.73761e-05 -5.63786e-06 1.60684e-05)
(0.000124017 -1.49291e-05 1.07572e-05)
)
;
    }
    procBoundary2to6
    {
        type            processor;
        value           nonuniform List<vector> 
32
(
(3.86369e-05 -1.30313e-06 1.22488e-05)
(8.37673e-05 -1.51464e-05 1.22011e-05)
(5.66068e-05 -8.39943e-06 7.00614e-06)
(0.000136438 -1.79401e-05 7.65987e-06)
(0.000114623 -2.13667e-05 8.23189e-06)
(7.87678e-05 -1.63313e-05 5.57404e-07)
(0.00161577 4.24994e-05 -6.86377e-05)
(0.000912599 1.91804e-05 -3.66157e-05)
(0.00052094 5.19934e-06 -1.8978e-05)
(0.000302179 -4.0679e-06 -5.48393e-06)
(0.000178358 -5.14727e-06 4.73287e-07)
(0.000107211 -8.61022e-06 3.50772e-06)
(6.78097e-05 -6.76826e-06 4.05344e-06)
(3.86369e-05 -1.30313e-06 1.22488e-05)
(8.37673e-05 -1.51464e-05 1.22011e-05)
(3.88205e-05 -6.02823e-06 3.34837e-06)
(0.00165794 8.63339e-05 -6.84789e-05)
(0.000959603 3.47371e-05 -3.91436e-05)
(0.000559457 9.65188e-06 -2.18383e-05)
(0.000334921 -7.18867e-06 -8.16286e-06)
(0.00020137 -8.66088e-06 -1.27446e-06)
(0.000127951 -1.20331e-05 1.96901e-06)
(8.37673e-05 -1.51464e-05 1.22011e-05)
(0.000136438 -1.79401e-05 7.65987e-06)
(8.02799e-05 -1.28076e-05 2.03764e-06)
(0.00171386 8.99664e-05 -7.27444e-05)
(0.00102003 4.23286e-05 -4.29837e-05)
(0.000612337 1.17754e-05 -2.62052e-05)
(0.000379541 -5.90716e-06 -1.11738e-05)
(0.000234865 -1.03271e-05 -3.39882e-06)
(0.000136438 -1.79401e-05 7.65987e-06)
(0.000157017 -1.39849e-05 9.51781e-07)
)
;
    }
}


// ************************************************************************* //
