/*--------------------------------*- C++ -*----------------------------------*\
| =========                 |                                                 |
| \\      /  F ield         | OpenFOAM: The Open Source CFD Toolbox           |
|  \\    /   O peration     | Version:  4.x                                   |
|   \\  /    A nd           | Web:      www.OpenFOAM.org                      |
|    \\/     M anipulation  |                                                 |
\*---------------------------------------------------------------------------*/
FoamFile
{
    version     2.0;
    format      ascii;
    class       volVectorField;
    location    "29.5";
    object      Urel;
}
// * * * * * * * * * * * * * * * * * * * * * * * * * * * * * * * * * * * * * //

dimensions      [0 1 -1 0 0 0 0];

internalField   nonuniform List<vector> 
114
(
(-0.0218814 7.36217e-05 0.0010415)
(-0.0232786 6.28873e-05 0.000996349)
(-0.0223002 5.05656e-05 0.000833506)
(-0.0237065 4.04742e-05 0.000758407)
(-0.0227075 1.46289e-05 0.000605682)
(-0.0241062 -5.94302e-06 0.000546127)
(-0.0236428 -0.000141983 0.00125743)
(-0.021829 -0.000135569 0.00116421)
(-0.0230071 -0.000153837 0.00116545)
(-0.0218721 -0.000144993 0.00102278)
(-0.0232871 -0.000139537 0.000971524)
(-0.0222905 -0.000109539 0.000820623)
(-0.0237333 -9.17141e-05 0.000748429)
(-0.0227106 -7.36181e-05 0.000603641)
(-0.0241548 -7.3553e-05 0.00053708)
(-0.0237719 -0.000377368 0.00123291)
(-0.0220454 -0.000337049 0.00114392)
(-0.0233006 -0.000362713 0.0011427)
(-0.0223063 -0.000324031 0.00100613)
(-0.0237759 -0.000323458 0.000952535)
(-0.0229342 -0.000259758 0.000809218)
(-0.0244035 -0.000238826 0.000740749)
(-0.0235365 -0.000175811 0.000607407)
(-0.0249875 -0.00016768 0.000548403)
(-0.0239033 -0.00043753 0.00119894)
(-0.0223196 -0.000402441 0.00112138)
(-0.0236469 -0.000418454 0.00111349)
(-0.0228656 -0.00037651 0.000996141)
(-0.0243905 -0.000369218 0.000938574)
(-0.0237868 -0.000300684 0.000812286)
(-0.0252752 -0.000272702 0.000738021)
(-0.0246546 -0.000193818 0.000620236)
(-0.0260687 -0.000170081 0.000559432)
(-0.0205624 3.78995e-05 0.00082961)
(-0.0220897 2.20339e-05 0.000762027)
(-0.0205246 5.60842e-06 0.000610034)
(-0.0221691 -3.03478e-05 0.000529984)
(-0.0234 -0.000175056 0.00134403)
(-0.0213676 -0.00015373 0.00120784)
(-0.022391 -0.000173573 0.00123402)
(-0.0208309 -0.000158475 0.00104067)
(-0.0222002 -0.000162781 0.0010027)
(-0.0207184 -0.000121034 0.000819413)
(-0.0222617 -0.000104385 0.000752699)
(-0.0207239 -8.08852e-05 0.000606247)
(-0.0223882 -8.29713e-05 0.000534719)
(-0.0235491 -0.000413374 0.00132045)
(-0.0216136 -0.000364763 0.00119662)
(-0.0227175 -0.000398036 0.00122658)
(-0.0213258 -0.000340067 0.0010462)
(-0.0227472 -0.000349363 0.00101493)
(-0.0214555 -0.000269408 0.000840912)
(-0.0229928 -0.000258405 0.000789062)
(-0.0216345 -0.000181125 0.000640549)
(-0.0232673 -0.000175259 0.000579438)
(-0.0237045 -0.000477412 0.00128549)
(-0.0219526 -0.000434714 0.00117999)
(-0.0231379 -0.000457423 0.00119927)
(-0.022055 -0.000399009 0.00105517)
(-0.0234881 -0.000397111 0.00101434)
(-0.0225578 -0.000315686 0.000875271)
(-0.0240135 -0.00029663 0.000807306)
(-0.0230617 -0.000208879 0.000685955)
(-0.0245171 -0.000190307 0.000624821)
(-0.018634 8.6574e-06 0.000476011)
(-0.0204056 -4.80603e-06 0.00040925)
(-0.0231305 -0.000219476 0.00119572)
(-0.0209285 -0.000188245 0.00106665)
(-0.0217818 -0.000209428 0.00106309)
(-0.0199138 -0.000175321 0.000889825)
(-0.0211935 -0.000175576 0.000837872)
(-0.0193858 -0.000130034 0.000686877)
(-0.0209361 -9.94936e-05 0.000624616)
(-0.0190983 -9.20894e-05 0.00051372)
(-0.0208093 -7.37558e-05 0.000436894)
(-0.023305 -0.00045346 0.0011705)
(-0.0212041 -0.000394232 0.00105415)
(-0.0221533 -0.000428922 0.00105593)
(-0.0204519 -0.000354677 0.000904543)
(-0.0217825 -0.000360276 0.000856444)
(-0.020144 -0.000272783 0.000715811)
(-0.0216844 -0.000255179 0.000650397)
(-0.0199622 -0.000188473 0.00054624)
(-0.021687 -0.000168843 0.000475377)
(-0.0234865 -0.000520007 0.00114867)
(-0.0215832 -0.00047321 0.00105266)
(-0.0226236 -0.000503606 0.0010588)
(-0.0212746 -0.000430982 0.000938875)
(-0.0225898 -0.00043148 0.000889891)
(-0.0213832 -0.000339224 0.000771685)
(-0.0227681 -0.000326707 0.000702348)
(-0.0215354 -0.000240057 0.000627199)
(-0.0229822 -0.000210951 0.000560801)
(-0.0229475 -0.000232059 0.000908814)
(-0.0206696 -0.000209749 0.000800861)
(-0.0214303 -0.000230041 0.000791471)
(-0.01942 -0.000188701 0.0006658)
(-0.0206317 -0.000186842 0.000622899)
(-0.0186974 -0.000148323 0.000513235)
(-0.0201897 -0.000127313 0.000478687)
(-0.0182446 -0.000111951 0.000388618)
(-0.0231392 -0.000490931 0.00088725)
(-0.0209959 -0.000424612 0.000797331)
(-0.0218413 -0.000452359 0.000792094)
(-0.0200539 -0.000367249 0.000690627)
(-0.0212812 -0.000372458 0.000652303)
(-0.0195763 -0.000291048 0.000551474)
(-0.0210237 -0.000282625 0.000506232)
(-0.0233459 -0.000549904 0.000877075)
(-0.0214055 -0.000493235 0.000808505)
(-0.0223414 -0.00051018 0.000813844)
(-0.0208881 -0.000433303 0.000738424)
(-0.0220972 -0.000425235 0.000704622)
(-0.0207757 -0.000346086 0.000610864)
)
;

boundaryField
{
    inlet
    {
        type            calculated;
        value           nonuniform List<vector> 
12
(
(-0.01 -3.13245e-10 -4.623e-09)
(-0.01 4.53937e-09 -8.19277e-09)
(-0.00999999 3.55085e-09 -2.73509e-09)
(-0.01 -4.5944e-10 -3.67079e-09)
(-0.01 3.4649e-10 -3.65586e-09)
(-0.01 1.78694e-10 -1.63012e-09)
(-0.01 -1.18784e-09 -3.70633e-09)
(-0.01 6.25745e-10 -1.31483e-09)
(-0.01 -3.3935e-10 -1.54019e-09)
(-0.01 -9.06601e-10 -2.51403e-09)
(-0.01 -3.0332e-10 -1.42297e-09)
(-0.01 1.13956e-11 -1.0468e-09)
)
;
    }
    outlet
    {
        type            calculated;
        value           nonuniform 0();
    }
    wall
    {
        type            calculated;
        value           nonuniform List<vector> 
66
(
(-1.06482e-08 -3.13245e-10 -4.623e-09)
(-3.01219e-09 4.53937e-09 -8.19277e-09)
(7.43255e-09 3.55085e-09 -2.73509e-09)
(-8.32143e-09 -1.59507e-09 -9.50392e-09)
(-8.46443e-09 1.24805e-09 -7.88379e-09)
(-3.35252e-09 1.69544e-09 -4.30817e-09)
(-8.072e-09 -4.27372e-09 -1.15952e-08)
(-8.71947e-09 -1.90182e-09 -1.23369e-08)
(-6.11448e-09 -1.1981e-09 -9.35547e-09)
(-4.97863e-09 -6.67555e-09 -1.08273e-08)
(-6.76324e-09 -6.5182e-09 -1.0396e-08)
(-1.08882e-08 2.09963e-09 -1.30535e-08)
(-5.94427e-09 4.21513e-10 -3.44e-09)
(-2.19563e-09 -1.05558e-08 -9.79626e-09)
(-1.25209e-08 -1.39417e-08 -1.13562e-08)
(-1.68872e-08 6.88887e-10 -9.0366e-09)
(-2.55613e-08 5.50373e-09 -3.70363e-09)
(-9.94318e-09 -1.74985e-08 1.67961e-09)
(-2.01854e-08 -1.61581e-08 -6.36181e-10)
(-2.90504e-08 -1.15326e-08 2.93951e-09)
(-3.74998e-08 -2.72488e-09 -1.88821e-09)
(4.70885e-09 -3.50223e-08 2.31197e-08)
(-1.91903e-08 -1.57945e-08 8.45103e-09)
(-4.58386e-08 2.88946e-10 9.13539e-09)
(-5.11042e-08 2.24512e-09 4.98699e-09)
(2.93857e-06 2.85307e-06 3.33914e-06)
(-3.06191e-08 -5.44047e-08 3.40504e-08)
(-6.1813e-08 -2.03482e-08 2.1949e-08)
(-6.49309e-08 2.19083e-08 4.39921e-09)
(4.11149e-06 4.17475e-06 4.56682e-06)
(-5.76437e-08 -4.88354e-08 5.28613e-08)
(-8.10284e-08 -3.6277e-08 3.27253e-08)
(-7.14695e-08 -3.30167e-08 6.62824e-09)
(7.43255e-09 3.55085e-09 -2.73509e-09)
(-1.17369e-09 1.78694e-10 -1.63012e-09)
(-6.36243e-10 -3.3935e-10 -1.54019e-09)
(-9.00376e-10 1.13956e-11 -1.0468e-09)
(-3.35252e-09 1.69544e-09 -4.30817e-09)
(-2.58933e-09 1.91541e-10 -3.3221e-09)
(-4.87743e-10 -6.08263e-10 -3.27917e-09)
(-2.26517e-09 9.49884e-11 -2.09591e-09)
(-6.11448e-09 -1.1981e-09 -9.35547e-09)
(-8.83467e-09 -4.76601e-10 -4.52502e-09)
(-5.9435e-09 -1.34386e-09 -3.10152e-09)
(-8.25742e-09 -3.52587e-09 -3.70856e-09)
(-5.94427e-09 4.21513e-10 -3.44e-09)
(-1.38809e-08 -2.52944e-10 -3.71535e-09)
(-1.45652e-08 -3.28279e-09 -7.3666e-09)
(-1.38821e-08 -2.03079e-09 -4.91882e-09)
(-2.55613e-08 5.50373e-09 -3.70363e-09)
(-1.92141e-08 3.30375e-09 -3.46669e-09)
(-2.88621e-08 -3.80949e-10 -1.05695e-09)
(-2.63089e-08 -3.57986e-09 -4.02041e-09)
(-3.74998e-08 -2.72488e-09 -1.88821e-09)
(-3.7912e-08 -4.2324e-09 7.17829e-10)
(-5.30063e-08 -7.15968e-09 2.52049e-09)
(-4.64384e-08 -8.91699e-09 -2.40368e-09)
(-5.11042e-08 2.24512e-09 4.98699e-09)
(-4.73689e-08 -6.56077e-10 3.94475e-09)
(-6.68684e-08 -1.96622e-10 1.11726e-08)
(-6.49309e-08 2.19083e-08 4.39921e-09)
(-7.41646e-08 4.55206e-09 2.28651e-09)
(-7.13621e-08 1.81679e-08 1.64395e-08)
(-7.14695e-08 -3.30167e-08 6.62824e-09)
(-2.36192e-08 6.22415e-10 1.46516e-08)
(-7.37276e-08 1.78282e-08 3.29733e-08)
)
;
    }
    procBoundary2to0
    {
        type            processor;
        value           nonuniform List<vector> 
44
(
(-0.0220615 0.000278713 0.0010476)
(-0.0234955 0.000258729 0.0010017)
(-0.0225626 0.000200327 0.000848755)
(-0.0239878 0.000184733 0.000787207)
(-0.0230114 0.000130452 0.000636361)
(-0.0243973 0.000104463 0.000593257)
(-0.0236347 0.000126535 0.00129711)
(-0.0218259 0.000100137 0.00118396)
(-0.023001 9.51519e-05 0.00118365)
(-0.023001 9.51519e-05 0.00118365)
(-0.0207365 6.28139e-05 0.0010651)
(-0.0220829 4.87637e-05 0.00103285)
(-0.0208523 0.000191891 0.000827831)
(-0.0223839 0.000174612 0.000762057)
(-0.0208156 0.000112281 0.000605411)
(-0.0224597 9.58695e-05 0.000535192)
(-0.0233546 0.000109717 0.00139529)
(-0.0213059 9.26012e-05 0.00124181)
(-0.0223129 8.80901e-05 0.00127452)
(-0.0207365 6.28139e-05 0.0010651)
(-0.0220829 4.87637e-05 0.00103285)
(-0.0220829 4.87637e-05 0.00103285)
(-0.0189626 3.35071e-05 0.00066697)
(-0.0205882 2.77378e-05 0.000604895)
(-0.0190162 0.000121116 0.000492208)
(-0.0207676 8.95088e-05 0.000413952)
(-0.0230543 9.43921e-05 0.00121248)
(-0.0207813 7.94761e-05 0.00108407)
(-0.0216174 7.03753e-05 0.00108405)
(-0.0196177 5.35158e-05 0.000887904)
(-0.0209275 4.10151e-05 0.000833372)
(-0.0189626 3.35071e-05 0.00066697)
(-0.0205882 2.77378e-05 0.000604895)
(-0.0205882 2.77378e-05 0.000604895)
(-0.0179342 3.42602e-06 0.000361611)
(-0.0195898 -1.80893e-05 0.000312584)
(-0.0228835 0.000102791 0.000890627)
(-0.0205759 7.72032e-05 0.000800795)
(-0.0212955 6.82487e-05 0.000778612)
(-0.0192126 4.69816e-05 0.000651805)
(-0.0204041 3.67604e-05 0.00060052)
(-0.0184076 2.59494e-05 0.000494436)
(-0.0199041 2.1339e-05 0.000452505)
(-0.0179342 3.42602e-06 0.000361611)
)
;
    }
    procBoundary2to3
    {
        type            processor;
        value           nonuniform List<vector> 
12
(
(-0.0230413 -2.66651e-05 0.000427723)
(-0.0230774 -7.61367e-05 0.000422196)
(-0.0240613 -0.000142153 0.000434926)
(-0.0253876 -0.000105518 0.000464908)
(-0.0205217 -3.50959e-05 0.000437746)
(-0.0208003 -8.29542e-05 0.000434836)
(-0.0218267 -0.000134902 0.000474219)
(-0.0235125 -0.000115978 0.000538535)
(-0.0184557 -1.58696e-05 0.000311532)
(-0.0189368 -9.37234e-05 0.000358296)
(-0.0198936 -0.000141614 0.000408571)
(-0.0217072 -0.000158153 0.000527276)
)
;
    }
    procBoundary2to6
    {
        type            processor;
        value           nonuniform List<vector> 
32
(
(-0.0199281 -0.000106291 0.00032647)
(-0.0192952 -0.000214025 0.000441191)
(-0.0209091 -0.000190305 0.000393949)
(-0.022085 -0.000323572 0.000564951)
(-0.0207748 -0.000243593 0.000522549)
(-0.0221472 -0.000207115 0.000480686)
(-0.0229061 -0.00023485 0.000508834)
(-0.0205917 -0.000211406 0.000457314)
(-0.0213192 -0.000220705 0.000442142)
(-0.0192463 -0.000175628 0.000383916)
(-0.0204676 -0.0001633 0.000355271)
(-0.0184353 -0.000125392 0.000300603)
(-0.0199484 -9.76907e-05 0.000281778)
(-0.0199281 -0.000106291 0.00032647)
(-0.0192952 -0.000214025 0.000441191)
(-0.0178841 -7.7317e-05 0.000238664)
(-0.0231094 -0.000512437 0.000500923)
(-0.0209215 -0.000429362 0.00046459)
(-0.0217487 -0.000454557 0.000452711)
(-0.0198778 -0.000357812 0.00041126)
(-0.0211142 -0.000349624 0.000383561)
(-0.0192733 -0.000272743 0.000339622)
(-0.0192952 -0.000214025 0.000441191)
(-0.022085 -0.000323572 0.000564951)
(-0.0207456 -0.000261889 0.00031871)
(-0.0233259 -0.000566359 0.000512062)
(-0.02136 -0.000501527 0.000484286)
(-0.0222655 -0.000517281 0.00048202)
(-0.0207571 -0.000427869 0.000455256)
(-0.0219282 -0.000415108 0.000430782)
(-0.022085 -0.000323572 0.000564951)
(-0.0204914 -0.000335806 0.000396655)
)
;
    }
}


// ************************************************************************* //
