/*--------------------------------*- C++ -*----------------------------------*\
| =========                 |                                                 |
| \\      /  F ield         | OpenFOAM: The Open Source CFD Toolbox           |
|  \\    /   O peration     | Version:  4.x                                   |
|   \\  /    A nd           | Web:      www.OpenFOAM.org                      |
|    \\/     M anipulation  |                                                 |
\*---------------------------------------------------------------------------*/
FoamFile
{
    version     2.0;
    format      ascii;
    class       volVectorField;
    location    "29.5";
    object      UsNext;
}
// * * * * * * * * * * * * * * * * * * * * * * * * * * * * * * * * * * * * * //

dimensions      [0 1 -1 0 0 0 0];

internalField   nonuniform List<vector> 
114
(
(2.3988e-09 -2.56568e-10 -2.39667e-09)
(4.50933e-09 -1.14945e-09 -2.76905e-09)
(4.69293e-09 -1.73928e-09 -2.44147e-09)
(5.48509e-09 -1.67606e-09 -3.03727e-09)
(3.83386e-09 -3.45398e-09 -1.8531e-09)
(2.57776e-09 -3.32642e-09 -1.30602e-09)
(2.49501e-09 -8.47382e-10 -9.30142e-10)
(5.13124e-10 1.74816e-10 -1.39064e-09)
(1.37503e-09 3.15568e-10 -2.05303e-09)
(1.9724e-09 1.62049e-10 -2.37583e-09)
(2.74943e-09 7.3228e-10 -2.7983e-09)
(3.83575e-09 -8.73603e-10 -2.52838e-09)
(4.40486e-09 -1.43138e-09 -2.20784e-09)
(2.61203e-09 -3.96477e-09 -2.13888e-09)
(1.786e-09 -1.87142e-09 -1.23618e-09)
(8.53392e-11 1.4191e-11 -8.00013e-10)
(5.80908e-11 3.87575e-10 -1.13186e-09)
(8.47584e-10 1.2097e-10 -1.82801e-09)
(1.71085e-09 3.76084e-10 -1.52064e-09)
(2.53298e-09 9.17362e-10 -1.9256e-09)
(3.04702e-09 -3.50072e-10 -1.71718e-09)
(4.2246e-09 6.65228e-10 -1.58219e-09)
(2.8295e-09 -1.62232e-09 -1.52552e-09)
(2.11962e-09 -1.13993e-09 -6.2295e-10)
(9.09221e-11 4.47696e-11 -5.12638e-10)
(-6.44716e-11 5.53269e-11 -8.38739e-10)
(2.68338e-10 5.42396e-11 -1.3572e-09)
(2.00051e-10 1.58948e-09 -8.02543e-10)
(1.10041e-09 8.41915e-10 -8.68898e-10)
(9.50948e-10 -2.61006e-11 -8.39072e-10)
(2.2657e-09 7.43638e-10 -6.13847e-10)
(2.25774e-09 1.73616e-09 -1.65145e-09)
(2.13659e-09 -3.21059e-10 -7.0274e-10)
(5.4712e-09 -1.34923e-09 -3.05382e-09)
(4.74505e-09 -1.72232e-09 -3.29647e-09)
(3.18173e-09 -2.27649e-09 -1.31597e-09)
(2.75926e-09 -2.32228e-09 -1.32249e-09)
(2.11451e-10 8.7626e-11 -5.33904e-10)
(8.07229e-10 1.19262e-10 -1.16075e-09)
(1.56434e-09 2.52559e-10 -1.90041e-09)
(2.56267e-09 -1.50642e-10 -2.29768e-09)
(3.27085e-09 3.10723e-10 -2.83151e-09)
(3.79516e-09 -6.30098e-10 -2.62277e-09)
(3.86128e-09 -7.36892e-10 -2.24944e-09)
(2.52894e-09 -2.47894e-09 -1.94898e-09)
(1.59592e-09 -1.76333e-09 -1.18081e-09)
(2.8125e-10 3.45134e-12 -3.92611e-10)
(4.63231e-10 7.57857e-11 -6.93215e-10)
(1.13443e-09 2.39356e-10 -1.46705e-09)
(1.70766e-09 1.73748e-10 -1.53224e-09)
(2.22331e-09 3.31168e-10 -1.67332e-09)
(3.08264e-09 -1.00115e-10 -1.45438e-09)
(3.93673e-09 -3.68035e-10 -1.57418e-09)
(3.13894e-09 -1.22129e-09 -1.25854e-09)
(2.22031e-09 -9.70243e-10 -4.96234e-10)
(9.3846e-11 -2.94874e-12 -2.21731e-10)
(1.5149e-10 6.3178e-11 -5.34454e-10)
(4.97868e-10 1.14664e-10 -5.60954e-10)
(7.40588e-10 4.15306e-11 -5.48909e-10)
(9.60361e-10 1.66194e-10 -5.15801e-10)
(1.32896e-09 1.79931e-10 -7.49359e-10)
(2.15687e-09 2.57217e-11 -6.27215e-10)
(2.09941e-09 -9.76397e-11 -8.4487e-10)
(1.90825e-09 -3.04503e-11 -2.93027e-10)
(1.95559e-09 -2.10284e-09 -2.42297e-09)
(1.49771e-09 -1.40848e-09 -1.65498e-09)
(5.16212e-11 5.12881e-11 -9.36487e-10)
(4.52907e-10 1.99621e-10 -1.7326e-09)
(1.23957e-09 2.18908e-10 -2.39174e-09)
(1.70088e-09 -2.16798e-11 -2.92454e-09)
(3.14011e-09 -1.73368e-10 -3.34058e-09)
(2.97457e-09 -6.75758e-10 -2.85877e-09)
(3.30967e-09 -1.28783e-11 -2.59134e-09)
(2.09762e-09 -2.27141e-09 -2.16245e-09)
(1.77807e-09 -1.88289e-09 -1.69445e-09)
(1.64134e-10 2.61723e-11 -4.26717e-10)
(7.05642e-10 3.64279e-10 -1.72035e-09)
(1.47128e-09 1.44037e-10 -1.91674e-09)
(1.73845e-09 2.32185e-11 -2.07719e-09)
(2.47751e-09 1.99163e-10 -2.52519e-09)
(3.04462e-09 -1.69754e-10 -1.90373e-09)
(3.71272e-09 1.037e-10 -1.55834e-09)
(2.96965e-09 -1.22013e-09 -1.65789e-09)
(2.31503e-09 -3.46602e-10 -1.19087e-09)
(1.26134e-10 -2.63911e-11 -3.81609e-10)
(4.77755e-10 5.16825e-11 -8.58251e-10)
(7.96952e-10 1.56986e-10 -8.93819e-10)
(1.43432e-09 1.67408e-10 -1.13742e-09)
(1.19593e-09 -2.15571e-11 -1.01791e-09)
(1.61823e-09 -1.39391e-10 -9.12186e-10)
(2.24811e-09 -2.8789e-10 -1.24688e-09)
(2.03463e-09 -3.89587e-10 -1.01675e-09)
(1.97497e-09 4.87145e-11 -8.17175e-10)
(-4.67195e-11 2.95265e-10 -8.51291e-10)
(-3.98353e-10 8.78882e-10 -1.95248e-09)
(-2.39839e-10 9.60083e-10 -2.58143e-09)
(-3.34517e-10 7.57799e-10 -2.68079e-09)
(3.56475e-10 1.38536e-10 -3.16912e-09)
(-3.04122e-11 2.06655e-10 -2.69599e-09)
(8.58671e-10 3.74354e-10 -1.94265e-09)
(-8.58395e-10 -7.35891e-10 -2.11779e-09)
(9.6988e-11 1.69495e-10 -4.62129e-10)
(2.45273e-11 6.7918e-10 -1.6742e-09)
(4.3498e-10 8.20453e-10 -1.78021e-09)
(4.91086e-10 3.55319e-10 -1.99947e-09)
(1.30372e-09 6.2007e-10 -2.49766e-09)
(1.50838e-09 -5.62869e-11 -2.07254e-09)
(1.93989e-09 9.1356e-11 -1.49181e-09)
(1.16857e-10 2.69953e-11 -2.93659e-10)
(3.30146e-10 4.03287e-11 -8.71866e-10)
(8.04867e-10 2.98809e-10 -1.29513e-09)
(7.60833e-10 1.85635e-10 -1.05145e-09)
(9.53986e-10 1.73606e-10 -1.28949e-09)
(9.88637e-10 -1.11387e-10 -9.14373e-10)
)
;

boundaryField
{
    inlet
    {
        type            calculated;
        value           nonuniform List<vector> 
12
(
(2.49501e-09 -8.47382e-10 -9.30142e-10)
(8.53392e-11 1.4191e-11 -8.00013e-10)
(9.09221e-11 4.47696e-11 -5.12638e-10)
(2.11451e-10 8.7626e-11 -5.33904e-10)
(2.8125e-10 3.45134e-12 -3.92611e-10)
(9.3846e-11 -2.94874e-12 -2.21731e-10)
(5.16212e-11 5.12881e-11 -9.36487e-10)
(1.64134e-10 2.61723e-11 -4.26717e-10)
(1.26134e-10 -2.63911e-11 -3.81609e-10)
(-4.67195e-11 2.95265e-10 -8.51291e-10)
(9.6988e-11 1.69495e-10 -4.62129e-10)
(1.16857e-10 2.69953e-11 -2.93659e-10)
)
;
    }
    outlet
    {
        type            calculated;
        value           nonuniform 0();
    }
    wall
    {
        type            calculated;
        value           nonuniform List<vector> 
66
(
(2.49501e-09 -8.47382e-10 -9.30142e-10)
(8.53392e-11 1.4191e-11 -8.00013e-10)
(9.09221e-11 4.47696e-11 -5.12638e-10)
(5.13124e-10 1.74816e-10 -1.39064e-09)
(5.80908e-11 3.87575e-10 -1.13186e-09)
(-6.44716e-11 5.53269e-11 -8.38739e-10)
(1.37503e-09 3.15568e-10 -2.05303e-09)
(8.47584e-10 1.2097e-10 -1.82801e-09)
(2.68338e-10 5.42396e-11 -1.3572e-09)
(2.3988e-09 -2.56568e-10 -2.39667e-09)
(1.9724e-09 1.62049e-10 -2.37583e-09)
(1.71085e-09 3.76084e-10 -1.52064e-09)
(2.00051e-10 1.58948e-09 -8.02543e-10)
(4.50933e-09 -1.14945e-09 -2.76905e-09)
(2.74943e-09 7.3228e-10 -2.7983e-09)
(2.53298e-09 9.17362e-10 -1.9256e-09)
(1.10041e-09 8.41915e-10 -8.68898e-10)
(4.69293e-09 -1.73928e-09 -2.44147e-09)
(3.83575e-09 -8.73603e-10 -2.52838e-09)
(3.04702e-09 -3.50072e-10 -1.71718e-09)
(9.50948e-10 -2.61006e-11 -8.39072e-10)
(5.48509e-09 -1.67606e-09 -3.03727e-09)
(4.40486e-09 -1.43138e-09 -2.20784e-09)
(4.2246e-09 6.65228e-10 -1.58219e-09)
(2.2657e-09 7.43638e-10 -6.13847e-10)
(3.83386e-09 -3.45398e-09 -1.8531e-09)
(2.61203e-09 -3.96477e-09 -2.13888e-09)
(2.8295e-09 -1.62232e-09 -1.52552e-09)
(2.25774e-09 1.73616e-09 -1.65145e-09)
(2.57776e-09 -3.32642e-09 -1.30602e-09)
(1.786e-09 -1.87142e-09 -1.23618e-09)
(2.11962e-09 -1.13993e-09 -6.2295e-10)
(2.13659e-09 -3.21059e-10 -7.0274e-10)
(9.09221e-11 4.47696e-11 -5.12638e-10)
(9.3846e-11 -2.94874e-12 -2.21731e-10)
(1.26134e-10 -2.63911e-11 -3.81609e-10)
(1.16857e-10 2.69953e-11 -2.93659e-10)
(-6.44716e-11 5.53269e-11 -8.38739e-10)
(1.5149e-10 6.3178e-11 -5.34454e-10)
(4.77755e-10 5.16825e-11 -8.58251e-10)
(3.30146e-10 4.03287e-11 -8.71866e-10)
(2.68338e-10 5.42396e-11 -1.3572e-09)
(4.97868e-10 1.14664e-10 -5.60954e-10)
(7.96952e-10 1.56986e-10 -8.93819e-10)
(8.04867e-10 2.98809e-10 -1.29513e-09)
(2.00051e-10 1.58948e-09 -8.02543e-10)
(7.40588e-10 4.15306e-11 -5.48909e-10)
(1.43432e-09 1.67408e-10 -1.13742e-09)
(7.60833e-10 1.85635e-10 -1.05145e-09)
(1.10041e-09 8.41915e-10 -8.68898e-10)
(9.60361e-10 1.66194e-10 -5.15801e-10)
(1.19593e-09 -2.15571e-11 -1.01791e-09)
(9.53986e-10 1.73606e-10 -1.28949e-09)
(9.50948e-10 -2.61006e-11 -8.39072e-10)
(1.32896e-09 1.79931e-10 -7.49359e-10)
(1.61823e-09 -1.39391e-10 -9.12186e-10)
(9.88637e-10 -1.11387e-10 -9.14373e-10)
(2.2657e-09 7.43638e-10 -6.13847e-10)
(2.15687e-09 2.57217e-11 -6.27215e-10)
(2.24811e-09 -2.8789e-10 -1.24688e-09)
(2.25774e-09 1.73616e-09 -1.65145e-09)
(2.09941e-09 -9.76397e-11 -8.4487e-10)
(2.03463e-09 -3.89587e-10 -1.01675e-09)
(2.13659e-09 -3.21059e-10 -7.0274e-10)
(1.90825e-09 -3.04503e-11 -2.93027e-10)
(1.97497e-09 4.87145e-11 -8.17175e-10)
)
;
    }
    procBoundary2to0
    {
        type            processor;
        value           nonuniform List<vector> 
44
(
(3.56221e-09 -6.09483e-10 -2.60566e-09)
(4.85544e-09 -1.78251e-09 -2.79764e-09)
(4.78823e-09 -2.28789e-09 -3.66027e-09)
(6.34947e-09 -2.30434e-09 -4.31406e-09)
(6.45273e-09 -4.09809e-09 -2.35237e-09)
(3.46774e-09 -2.40803e-09 -2.89001e-11)
(2.41309e-10 4.07672e-10 -4.54193e-10)
(1.11619e-09 4.4392e-10 -1.45228e-09)
(1.70094e-09 2.01302e-10 -2.04045e-09)
(1.70094e-09 2.01302e-10 -2.04045e-09)
(4.15974e-09 -5.879e-10 -2.08148e-09)
(4.72975e-09 -3.60196e-10 -3.60587e-09)
(5.76281e-09 -1.86313e-09 -3.60112e-09)
(5.58278e-09 -2.35456e-09 -3.83311e-09)
(4.48642e-09 -2.05838e-09 -2.22281e-09)
(3.03666e-09 -3.98085e-10 -4.71396e-10)
(6.31107e-10 2.44649e-10 -3.995e-10)
(1.53607e-09 3.00111e-10 -9.81668e-10)
(2.88128e-09 1.66184e-10 -1.97489e-09)
(4.15974e-09 -5.879e-10 -2.08148e-09)
(4.72975e-09 -3.60196e-10 -3.60587e-09)
(4.72975e-09 -3.60196e-10 -3.60587e-09)
(3.93381e-09 -8.63663e-10 -4.29418e-09)
(3.18076e-09 -7.39699e-10 -3.91946e-09)
(1.61688e-09 5.33315e-11 -2.99517e-09)
(3.14779e-10 2.43021e-09 -1.87853e-10)
(4.11861e-10 5.04998e-11 -9.04744e-10)
(1.65128e-09 -3.85515e-10 -1.85665e-09)
(3.00941e-09 -1.09648e-10 -2.69596e-09)
(3.7675e-09 -8.14742e-10 -2.96331e-09)
(4.86097e-09 -6.852e-10 -4.286e-09)
(3.93381e-09 -8.63663e-10 -4.29418e-09)
(3.18076e-09 -7.39699e-10 -3.91946e-09)
(3.18076e-09 -7.39699e-10 -3.91946e-09)
(-2.33731e-09 -5.07348e-10 -2.41822e-09)
(-5.42927e-10 -1.54749e-09 -1.00314e-09)
(-1.26379e-10 2.90504e-11 -1.1132e-09)
(-3.55053e-11 2.19758e-10 -2.01249e-09)
(-9.07308e-10 4.3653e-10 -2.20549e-09)
(-2.87214e-09 3.53508e-10 -3.56438e-09)
(-2.52423e-09 -1.79194e-10 -5.07694e-09)
(-1.68761e-09 -2.9143e-10 -4.41971e-09)
(-1.42775e-09 2.03078e-12 -3.37607e-09)
(-2.33731e-09 -5.07348e-10 -2.41822e-09)
)
;
    }
    procBoundary2to3
    {
        type            processor;
        value           nonuniform List<vector> 
12
(
(2.61666e-09 -3.01667e-09 1.67602e-09)
(1.07296e-09 -1.53423e-10 9.47515e-10)
(9.75213e-10 -1.08288e-08 1.55492e-09)
(1.65815e-09 -7.07482e-10 -4.09417e-10)
(2.47974e-09 -8.38771e-10 2.08362e-09)
(1.29966e-09 -1.11492e-09 -3.3048e-10)
(1.92001e-09 -1.2277e-09 2.24212e-10)
(2.26216e-09 -8.32447e-11 -2.90133e-10)
(1.33862e-09 7.58125e-10 -7.91502e-10)
(8.12095e-10 -2.18386e-09 -1.80012e-09)
(2.12115e-09 -1.88266e-09 -1.67424e-09)
(2.75247e-09 -9.18373e-10 -1.09445e-09)
)
;
    }
    procBoundary2to6
    {
        type            processor;
        value           nonuniform List<vector> 
32
(
(-7.61094e-10 -9.99686e-10 -1.4126e-09)
(1.90929e-09 -3.04071e-10 -1.80862e-09)
(1.05851e-09 -6.04851e-10 -1.46164e-09)
(1.29159e-09 -2.07214e-10 -9.20744e-10)
(1.40721e-09 -3.06131e-10 -1.04849e-09)
(7.43296e-10 -1.58693e-11 -6.62486e-10)
(-2.7631e-10 3.10507e-10 -6.52796e-10)
(-8.88987e-10 5.56246e-10 -1.21897e-09)
(-1.76245e-09 7.41236e-10 -1.18901e-09)
(-2.57483e-09 5.86775e-10 -1.95209e-09)
(-2.91855e-09 4.19502e-10 -3.09215e-09)
(-2.20952e-09 3.48079e-10 -1.88362e-09)
(-2.02161e-09 7.92427e-11 -1.58034e-09)
(-7.61094e-10 -9.99686e-10 -1.4126e-09)
(1.90929e-09 -3.04071e-10 -1.80862e-09)
(-1.37717e-09 2.57063e-10 -1.72135e-09)
(1.1901e-10 1.9268e-10 -1.91947e-10)
(1.26009e-10 4.45418e-10 -1.02676e-09)
(-4.98779e-10 7.7203e-10 -1.00408e-09)
(-3.37623e-10 5.19926e-10 -1.51137e-09)
(2.3122e-10 9.23477e-10 -1.67231e-09)
(3.40505e-10 3.13409e-10 -1.67249e-09)
(1.90929e-09 -3.04071e-10 -1.80862e-09)
(1.29159e-09 -2.07214e-10 -9.20744e-10)
(3.98993e-10 1.52135e-10 -9.38166e-10)
(-2.27513e-11 1.16684e-11 -1.947e-10)
(-2.48243e-10 -2.30141e-11 -7.70236e-10)
(1.56449e-10 1.12127e-10 -4.49081e-10)
(3.31498e-10 8.34185e-12 -8.28054e-10)
(3.80189e-10 -1.3971e-11 -6.47607e-10)
(1.29159e-09 -2.07214e-10 -9.20744e-10)
(7.77688e-10 8.69659e-11 -8.76427e-10)
)
;
    }
}


// ************************************************************************* //
