/*--------------------------------*- C++ -*----------------------------------*\
| =========                 |                                                 |
| \\      /  F ield         | OpenFOAM: The Open Source CFD Toolbox           |
|  \\    /   O peration     | Version:  4.x                                   |
|   \\  /    A nd           | Web:      www.OpenFOAM.org                      |
|    \\/     M anipulation  |                                                 |
\*---------------------------------------------------------------------------*/
FoamFile
{
    version     2.0;
    format      ascii;
    class       volScalarField;
    location    "30";
    object      Sm;
}
// * * * * * * * * * * * * * * * * * * * * * * * * * * * * * * * * * * * * * //

dimensions      [1 -3 -1 0 0 0 0];

internalField   nonuniform List<scalar> 
108
(
5.19257e-65
7.36259e-65
7.51759e-65
5.58006e-65
5.96756e-65
5.65756e-65
7.59507e-65
6.74255e-65
8.91257e-65
7.7501e-65
6.35508e-65
7.36259e-65
8.60259e-65
8.21508e-65
7.51757e-65
6.35505e-65
5.42504e-65
9.06756e-65
6.97509e-65
8.75761e-65
6.66508e-65
8.44759e-65
6.66506e-65
5.96755e-65
6.12254e-65
9.68756e-65
5.65753e-65
4.34006e-65
5.73507e-65
7.59509e-65
5.19255e-65
7.36257e-65
6.35505e-65
9.22256e-65
5.96754e-65
5.96753e-65
5.34757e-65
5.11507e-65
7.05259e-65
7.67259e-65
6.97508e-65
5.27006e-65
4.49504e-65
6.97506e-65
8.21507e-65
5.65757e-65
6.51008e-65
5.81257e-65
6.43257e-65
5.96756e-65
5.96756e-65
6.66506e-65
7.90506e-65
8.13756e-65
4.41756e-65
6.27758e-65
7.82759e-65
7.20758e-65
7.67258e-65
7.28506e-65
6.66505e-65
6.66505e-65
6.82004e-65
6.66509e-65
7.20759e-65
5.96757e-65
8.52509e-65
8.44758e-65
6.74256e-65
9.61007e-65
7.90505e-65
6.82004e-65
4.96007e-65
6.66509e-65
4.41756e-65
6.74258e-65
5.73507e-65
8.06009e-65
7.20758e-65
6.27756e-65
7.20757e-65
5.34757e-65
8.75761e-65
5.81257e-65
5.50256e-65
6.20007e-65
7.20758e-65
6.35506e-65
5.65755e-65
7.59506e-65
5.42507e-65
7.36259e-65
7.44009e-65
7.36258e-65
5.65756e-65
6.58756e-65
6.43256e-65
7.51756e-65
6.27755e-65
7.4401e-65
7.05259e-65
5.81257e-65
7.67259e-65
6.97507e-65
9.22259e-65
4.49504e-65
4.88254e-65
6.35505e-65
)
;

boundaryField
{
    inlet
    {
        type            calculated;
        value           uniform 0;
    }
    outlet
    {
        type            calculated;
        value           nonuniform 0();
    }
    wall
    {
        type            calculated;
        value           uniform 0;
    }
    procBoundary4to0
    {
        type            processor;
        value           nonuniform List<scalar> 
36
(
4.57256e-65
4.88256e-65
5.73507e-65
5.34756e-65
6.12256e-65
7.44007e-65
4.80504e-65
4.10753e-65
4.96004e-65
5.50257e-65
8.1376e-65
7.28509e-65
6.74257e-65
5.81256e-65
5.96755e-65
8.37006e-65
6.58754e-65
5.50253e-65
4.57256e-65
4.96006e-65
7.28508e-65
5.73506e-65
7.28507e-65
8.06006e-65
6.74254e-65
5.11503e-65
8.06004e-65
5.27007e-65
5.89007e-65
7.98259e-65
9.06759e-65
4.49504e-65
9.14507e-65
7.13004e-65
5.42503e-65
2.32501e-65
)
;
    }
    procBoundary4to5
    {
        type            processor;
        value           nonuniform List<scalar> 
12
(
6.35505e-65
7.05254e-65
8.21504e-65
9.99755e-65
6.66505e-65
5.42504e-65
6.89754e-65
4.80503e-65
2.63503e-65
6.35505e-65
6.12254e-65
7.36255e-65
)
;
    }
    procBoundary4to6
    {
        type            processor;
        value           nonuniform List<scalar> 
27
(
1.03851e-64
7.59509e-65
4.96006e-65
7.44008e-65
9.37759e-65
6.12255e-65
7.36256e-65
6.51004e-65
8.52505e-65
7.6726e-65
7.6726e-65
7.75009e-65
7.67258e-65
5.34755e-65
7.05256e-65
6.27755e-65
5.89004e-65
7.90505e-65
5.03757e-65
5.27007e-65
6.12257e-65
6.89758e-65
6.51007e-65
6.43256e-65
8.68008e-65
8.75757e-65
3.79753e-65
)
;
    }
}


// ************************************************************************* //
