/*--------------------------------*- C++ -*----------------------------------*\
| =========                 |                                                 |
| \\      /  F ield         | OpenFOAM: The Open Source CFD Toolbox           |
|  \\    /   O peration     | Version:  4.x                                   |
|   \\  /    A nd           | Web:      www.OpenFOAM.org                      |
|    \\/     M anipulation  |                                                 |
\*---------------------------------------------------------------------------*/
FoamFile
{
    version     2.0;
    format      ascii;
    class       volVectorField;
    location    "30";
    object      Urel;
}
// * * * * * * * * * * * * * * * * * * * * * * * * * * * * * * * * * * * * * //

dimensions      [0 1 -1 0 0 0 0];

internalField   nonuniform List<vector> 
108
(
(-0.0233315 0.000631074 0.000542632)
(-0.0214064 0.000564273 0.000507782)
(-0.022342 0.000575192 0.000501354)
(-0.0208866 0.000481285 0.000454415)
(-0.0220821 0.000458317 0.000414133)
(-0.0207427 0.000362964 0.000368817)
(-0.0220321 0.000335623 0.000327764)
(-0.0206763 0.000258479 0.000281947)
(-0.0220412 0.000227996 0.000204737)
(-0.0231406 0.000621687 0.000527048)
(-0.0210092 0.000540102 0.000485347)
(-0.0218549 0.000563713 0.000470173)
(-0.0200538 0.000449959 0.000414644)
(-0.0212917 0.000438847 0.000376036)
(-0.019554 0.00033482 0.000322643)
(-0.021008 0.000313011 0.0002842)
(-0.019222 0.000236719 0.000234092)
(-0.0208556 0.000202781 0.00017213)
(-0.0229473 0.000417751 0.00051608)
(-0.0206669 0.000364128 0.000467203)
(-0.0214101 0.000373615 0.000441367)
(-0.0193747 0.000298102 0.000375892)
(-0.0205872 0.000286924 0.000332493)
(-0.0186083 0.000216449 0.000277632)
(-0.0201158 0.000189453 0.000242859)
(-0.0181101 0.00014128 0.000194393)
(-0.019838 0.000111656 0.000149991)
(-0.0228598 0.000110006 0.000514424)
(-0.0205373 7.88322e-05 0.000457534)
(-0.0212264 7.86216e-05 0.000435403)
(-0.0191267 6.35157e-05 0.000370783)
(-0.020296 6.14207e-05 0.000335482)
(-0.018256 4.7362e-05 0.000272585)
(-0.0197422 4.74961e-05 0.000249982)
(-0.0177005 3.21386e-05 0.000197446)
(-0.019403 2.0938e-05 0.0001662)
(-0.0233996 0.000609325 0.000208043)
(-0.0215473 0.000546411 0.000206227)
(-0.0225102 0.000542709 0.000181131)
(-0.021148 0.000458021 0.000199095)
(-0.0223516 0.000433608 0.000169392)
(-0.0211028 0.000351993 0.000169816)
(-0.0223711 0.00032396 0.000118751)
(-0.0211182 0.000255296 0.00011084)
(-0.0224552 0.000234636 4.93515e-05)
(-0.0232324 0.000602055 0.000178346)
(-0.0212187 0.000529553 0.000179929)
(-0.0220943 0.000541192 0.000135546)
(-0.0204766 0.000437474 0.000155873)
(-0.0216787 0.000423234 0.00011625)
(-0.0201396 0.000328813 0.000126438)
(-0.0214984 0.000305945 7.43972e-05)
(-0.0199259 0.00024381 7.94041e-05)
(-0.021437 0.000233059 2.91927e-05)
(-0.0230462 0.000416665 0.000154579)
(-0.0208917 0.000357666 0.000156233)
(-0.0216705 0.000369437 0.000106717)
(-0.0198187 0.000293472 0.000121728)
(-0.0210033 0.000280773 7.90187e-05)
(-0.0192251 0.000212076 9.02033e-05)
(-0.0206518 0.000190075 4.96352e-05)
(-0.018863 0.00015371 5.9017e-05)
(-0.0204653 0.000147114 3.75334e-05)
(-0.0229627 9.9947e-05 0.000147248)
(-0.0207427 7.19009e-05 0.000140416)
(-0.0214791 7.18609e-05 9.55715e-05)
(-0.0195283 6.00734e-05 0.000107933)
(-0.0207107 6.22081e-05 6.33123e-05)
(-0.0188134 5.58518e-05 7.40516e-05)
(-0.0202792 6.19108e-05 4.19266e-05)
(-0.0183649 5.49814e-05 6.06918e-05)
(-0.0200293 6.92374e-05 5.37183e-05)
(-0.0235166 0.000594453 6.04978e-05)
(-0.0217804 0.000536552 6.19077e-05)
(-0.0228026 0.000523383 3.94061e-05)
(-0.0216323 0.000438926 6.23096e-05)
(-0.0228389 0.000404765 4.98913e-05)
(-0.0217731 0.00033093 5.11401e-05)
(-0.0230019 0.000306384 2.24873e-06)
(-0.021955 0.000261389 -1.7808e-05)
(-0.0232341 0.000255406 -6.16235e-05)
(-0.023366 0.000586057 4.03016e-05)
(-0.0214936 0.000518818 4.42368e-05)
(-0.0224305 0.000521572 1.09179e-05)
(-0.0210643 0.000423689 3.01308e-05)
(-0.0222527 0.000397597 7.20177e-06)
(-0.0210057 0.000320598 1.35888e-05)
(-0.0222678 0.000303448 -3.04265e-05)
(-0.0210374 0.000268241 -2.73287e-05)
(-0.022373 0.000273767 -5.77334e-05)
(-0.0231839 0.000403658 1.77967e-05)
(-0.0211988 0.000349771 1.96595e-05)
(-0.0220433 0.000361692 -1.80271e-05)
(-0.0204841 0.000293562 3.09376e-07)
(-0.0216324 0.000274585 -2.70675e-05)
(-0.0202055 0.000215714 -1.01436e-05)
(-0.0214872 0.00020117 -4.11509e-05)
(-0.0200886 0.000182664 -2.52091e-05)
(-0.0214452 0.000193248 -4.06757e-05)
(-0.0231049 8.16605e-05 1.92644e-06)
(-0.0210718 7.09494e-05 8.25117e-06)
(-0.0218698 7.82887e-05 -2.59993e-05)
(-0.0202289 7.06711e-05 -6.21774e-06)
(-0.0213659 7.60394e-05 -3.40736e-05)
(-0.0198437 7.27353e-05 -1.71161e-05)
(-0.0211306 8.50977e-05 -3.88388e-05)
(-0.019639 8.31553e-05 -4.23233e-06)
(-0.0210104 0.000107881 -4.89076e-06)
)
;

boundaryField
{
    inlet
    {
        type            calculated;
        value           nonuniform List<vector> 
12
(
(-0.01 -2.81306e-10 -1.85502e-10)
(-0.01 -5.91838e-10 -7.64254e-10)
(-0.01 -6.67814e-10 -1.08477e-09)
(-0.01 -5.76692e-10 -1.47044e-09)
(-0.01 -2.13506e-10 -5.76497e-11)
(-0.01 -6.45051e-10 -4.82678e-10)
(-0.01 -4.13467e-10 -6.83998e-10)
(-0.01 -4.45747e-10 -6.17272e-10)
(-0.01 -3.40173e-11 4.09703e-10)
(-0.01 -2.98997e-10 9.72502e-10)
(-0.01 -4.19571e-12 -1.78422e-11)
(-0.01 5.08571e-11 4.47001e-11)
)
;
    }
    outlet
    {
        type            calculated;
        value           nonuniform 0();
    }
    wall
    {
        type            calculated;
        value           nonuniform List<vector> 
63
(
(-4.40856e-10 -3.40173e-11 4.09703e-10)
(-8.1977e-10 -2.98997e-10 9.72502e-10)
(-4.40848e-10 -4.19571e-12 -1.78422e-11)
(-8.76864e-10 5.08571e-11 4.47001e-11)
(-7.91163e-10 -1.85058e-10 1.58385e-10)
(-1.13315e-09 -4.57959e-10 1.26741e-10)
(-1.569e-09 -5.25573e-10 1.63789e-10)
(-1.55927e-09 -9.55783e-10 3.1993e-10)
(-1.55077e-09 -1.45132e-10 2.5691e-10)
(-2.01525e-09 -7.05802e-10 -4.64052e-11)
(-2.00207e-09 -1.12272e-09 -2.04912e-10)
(-3.75564e-09 -1.77914e-09 4.03029e-10)
(-2.66976e-09 3.6266e-11 1.32854e-11)
(-2.99669e-09 -6.72451e-10 -2.62549e-10)
(-3.87591e-09 -1.09924e-09 -2.68566e-10)
(-4.51614e-09 -9.33101e-10 -2.42371e-11)
(-4.23846e-09 -1.02447e-10 7.41382e-11)
(-5.00465e-09 1.54765e-10 -2.36852e-10)
(-9.51633e-09 -6.87729e-10 -8.01399e-10)
(-7.01841e-09 -8.66319e-10 8.14493e-10)
(-5.35928e-09 -1.97754e-10 -1.51909e-10)
(-9.30713e-09 -1.87029e-09 7.84333e-10)
(-1.25132e-08 -1.83459e-09 -4.65612e-10)
(-8.13938e-09 -8.31333e-10 1.22185e-09)
(-6.16306e-09 -2.63673e-10 6.72162e-10)
(-9.27098e-09 -6.42869e-10 7.51078e-11)
(-9.47941e-09 -1.47015e-09 7.55507e-10)
(-1.01459e-08 -5.33279e-09 1.34405e-09)
(-4.62426e-09 3.82264e-11 6.09245e-12)
(-7.3779e-09 -1.04466e-10 1.25829e-09)
(-1.15296e-08 -2.5667e-09 -8.53403e-10)
(4.08043e-09 -1.37911e-08 7.18428e-10)
(-6.59707e-09 -8.90028e-10 2.1386e-10)
(-8.9328e-09 -2.72161e-11 1.3301e-09)
(-1.40166e-08 2.45599e-09 -4.61036e-10)
(-1.54983e-08 1.1797e-10 1.08282e-09)
(-5.17263e-10 -2.81306e-10 -1.85502e-10)
(-6.70213e-10 -2.13506e-10 -5.76497e-11)
(-4.40856e-10 -3.40173e-11 4.09703e-10)
(-1.09178e-09 -4.03755e-10 -2.92973e-10)
(-1.24316e-09 -2.70478e-10 -2.09324e-10)
(-7.91163e-10 -1.85058e-10 1.58385e-10)
(-2.67942e-09 -6.97132e-10 -7.25617e-10)
(-2.51837e-09 -4.1396e-10 -5.25131e-10)
(-1.55077e-09 -1.45132e-10 2.5691e-10)
(-3.81131e-09 -1.04403e-09 -2.02333e-09)
(-3.70997e-09 -2.89395e-10 -5.58573e-10)
(-2.66976e-09 3.6266e-11 1.32854e-11)
(-3.64172e-09 -1.86358e-09 -3.07208e-09)
(-5.449e-09 -1.00368e-10 -7.49111e-10)
(-4.23846e-09 -1.02447e-10 7.41382e-11)
(-4.12384e-09 -1.85827e-09 -2.21241e-09)
(-5.92321e-09 -6.57419e-10 -1.14756e-09)
(-5.35928e-09 -1.97754e-10 -1.51909e-10)
(-7.42782e-09 -2.54598e-09 4.11941e-10)
(-6.12436e-09 -6.75946e-10 1.22824e-09)
(-6.16306e-09 -2.63673e-10 6.72162e-10)
(-1.39822e-08 6.02654e-10 -2.87572e-09)
(-1.11496e-08 -1.2495e-09 -4.8189e-11)
(-4.62426e-09 3.82264e-11 6.09245e-12)
(-1.35989e-08 8.09177e-10 1.37231e-11)
(-1.15794e-08 -6.85848e-10 1.10768e-10)
(-6.59707e-09 -8.90028e-10 2.1386e-10)
)
;
    }
    procBoundary4to0
    {
        type            processor;
        value           nonuniform List<vector> 
36
(
(-0.0233476 0.000614193 0.000891928)
(-0.0214323 0.00055201 0.000826974)
(-0.0224036 0.00055932 0.000826242)
(-0.0209923 0.000471624 0.000731753)
(-0.0222199 0.000447555 0.000687723)
(-0.0209233 0.00036138 0.000604376)
(-0.0222254 0.000329468 0.000555454)
(-0.020911 0.000240905 0.000491044)
(-0.0222525 0.00019666 0.000417266)
(-0.0231627 0.000605973 0.000904249)
(-0.0210477 0.000532592 0.000821413)
(-0.0219263 0.000559712 0.000819364)
(-0.0201848 0.000453694 0.000699177)
(-0.0214203 0.000445213 0.000653975)
(-0.0197576 0.00034588 0.000552361)
(-0.0211804 0.00031891 0.000506095)
(-0.0194635 0.000242983 0.000425323)
(-0.0210285 0.000196483 0.000366501)
(-0.0229585 0.000411869 0.000902331)
(-0.0207045 0.000359733 0.000810488)
(-0.0214636 0.000374431 0.000792068)
(-0.0194601 0.000293463 0.000661995)
(-0.0206604 0.000278322 0.000608751)
(-0.0187096 0.000208391 0.000502018)
(-0.0201951 0.000173589 0.000457333)
(-0.0182343 0.000129915 0.000360419)
(-0.0199016 9.20084e-05 0.000297099)
(-0.022879 0.000101547 0.000895421)
(-0.0205708 7.60254e-05 0.000805388)
(-0.0212872 6.66356e-05 0.000783458)
(-0.0191994 4.5592e-05 0.000656123)
(-0.0203891 3.45464e-05 0.000604861)
(-0.0183823 2.44248e-05 0.000496787)
(-0.0198825 1.88666e-05 0.000453584)
(-0.0178966 4.07681e-06 0.000360472)
(-0.0195682 -1.31291e-05 0.000309279)
)
;
    }
    procBoundary4to5
    {
        type            processor;
        value           nonuniform List<vector> 
12
(
(-0.0205826 0.000164692 0.000149527)
(-0.0189627 0.00015313 0.000129653)
(-0.0178104 8.18518e-05 0.000118457)
(-0.0173916 1.74714e-05 0.000132235)
(-0.0211335 0.000178236 5.25553e-05)
(-0.0197987 0.000201111 3.45995e-05)
(-0.0186448 0.000135519 3.33526e-05)
(-0.0180976 5.93581e-05 5.23048e-05)
(-0.0221675 0.000217406 -6.44704e-05)
(-0.021104 0.000269404 -4.72166e-05)
(-0.0200047 0.000202596 -2.87549e-05)
(-0.0194766 0.000119833 1.38476e-05)
)
;
    }
    procBoundary4to6
    {
        type            processor;
        value           nonuniform List<vector> 
27
(
(-0.022902 -0.000236196 0.000509673)
(-0.020588 -0.000213002 0.00045817)
(-0.0213135 -0.000222834 0.000442382)
(-0.0192379 -0.000177978 0.000384224)
(-0.0204578 -0.000166876 0.000354671)
(-0.0184189 -0.000127937 0.000299908)
(-0.019937 -0.00010157 0.000280088)
(-0.0178763 -7.79918e-05 0.000236297)
(-0.0196264 -5.79869e-05 0.00022657)
(-0.0230141 -0.000256344 0.000121758)
(-0.0208323 -0.000220424 0.000144978)
(-0.0215961 -0.000237254 0.000103971)
(-0.019709 -0.000182523 0.000123743)
(-0.0208878 -0.000176857 8.97277e-05)
(-0.0190436 -0.000123285 0.000106589)
(-0.0204602 -0.000105406 8.42526e-05)
(-0.0185675 -6.82576e-05 0.000102528)
(-0.020179 -5.18581e-05 0.00012226)
(-0.0231769 -0.000258396 -1.48446e-05)
(-0.0211933 -0.000215074 1.40151e-05)
(-0.0220087 -0.00022217 -8.69322e-06)
(-0.0204282 -0.000173273 1.80289e-05)
(-0.021542 -0.000157097 -2.72886e-06)
(-0.0200425 -0.000110086 1.68733e-05)
(-0.0212763 -8.09906e-05 2.85332e-06)
(-0.0197531 -4.95056e-05 2.85613e-05)
(-0.0210747 -2.77963e-05 3.92532e-05)
)
;
    }
}


// ************************************************************************* //
