/*--------------------------------*- C++ -*----------------------------------*\
| =========                 |                                                 |
| \\      /  F ield         | OpenFOAM: The Open Source CFD Toolbox           |
|  \\    /   O peration     | Version:  4.x                                   |
|   \\  /    A nd           | Web:      www.OpenFOAM.org                      |
|    \\/     M anipulation  |                                                 |
\*---------------------------------------------------------------------------*/
FoamFile
{
    version     2.0;
    format      ascii;
    class       volScalarField;
    location    "13.5";
    object      nu;
}
// * * * * * * * * * * * * * * * * * * * * * * * * * * * * * * * * * * * * * //

dimensions      [0 2 -1 0 0 0 0];

internalField   nonuniform List<scalar> 
108
(
1.00055e-06
1.0007e-06
1.0008e-06
1.00078e-06
1.00062e-06
1.00039e-06
1.00013e-06
9.99914e-07
9.93659e-07
1.00054e-06
1.00072e-06
1.00085e-06
1.00088e-06
1.00079e-06
1.0006e-06
1.00034e-06
1.00007e-06
9.86098e-07
1.00046e-06
1.00063e-06
1.0008e-06
1.00091e-06
1.00092e-06
1.00078e-06
1.00051e-06
1.00015e-06
9.99148e-07
1.00028e-06
1.00039e-06
1.00052e-06
1.00067e-06
1.00081e-06
1.00092e-06
1.00095e-06
1.0009e-06
9.6135e-07
1.00067e-06
1.00068e-06
1.00059e-06
1.00043e-06
1.00023e-06
1.00002e-06
9.9982e-07
9.99672e-07
9.99409e-07
1.00065e-06
1.0007e-06
1.00064e-06
1.00052e-06
1.00033e-06
1.00013e-06
9.99908e-07
9.99744e-07
9.99234e-07
1.00062e-06
1.00071e-06
1.00073e-06
1.00068e-06
1.00052e-06
1.00035e-06
1.00012e-06
1.00001e-06
9.98292e-07
1.00035e-06
1.00048e-06
1.0006e-06
1.00072e-06
1.00082e-06
1.0009e-06
1.00087e-06
1.00087e-06
9.99285e-07
1.00044e-06
1.00039e-06
1.00028e-06
1.00016e-06
1.00002e-06
9.99885e-07
9.99759e-07
9.99649e-07
9.99406e-07
1.00042e-06
1.00041e-06
1.00032e-06
1.00022e-06
1.00006e-06
9.99916e-07
9.99782e-07
9.99694e-07
9.99296e-07
1.00044e-06
1.00047e-06
1.00039e-06
1.0003e-06
1.00014e-06
1.00006e-06
9.99915e-07
9.9992e-07
9.98402e-07
1.00032e-06
1.00044e-06
1.00054e-06
1.00065e-06
1.00073e-06
1.00079e-06
1.00079e-06
1.00077e-06
1.00009e-06
)
;

boundaryField
{
    inlet
    {
        type            calculated;
        value           nonuniform 0();
    }
    outlet
    {
        type            calculated;
        value           uniform 1e-06;
    }
    wall
    {
        type            calculated;
        value           nonuniform List<scalar> 
63
(
1.00055e-06
1.00054e-06
1.00046e-06
1.00028e-06
1.0007e-06
1.00072e-06
1.00063e-06
1.00039e-06
1.0008e-06
1.00085e-06
1.0008e-06
1.00052e-06
1.00078e-06
1.00088e-06
1.00091e-06
1.00067e-06
1.00062e-06
1.00079e-06
1.00092e-06
1.00081e-06
1.00039e-06
1.0006e-06
1.00078e-06
1.00092e-06
1.00013e-06
1.00034e-06
1.00051e-06
1.00095e-06
9.99914e-07
1.00007e-06
1.00015e-06
1.0009e-06
9.93659e-07
9.86098e-07
9.99148e-07
9.6135e-07
1.00028e-06
1.00035e-06
1.00032e-06
1.00039e-06
1.00048e-06
1.00044e-06
1.00052e-06
1.0006e-06
1.00054e-06
1.00067e-06
1.00072e-06
1.00065e-06
1.00081e-06
1.00082e-06
1.00073e-06
1.00092e-06
1.0009e-06
1.00079e-06
1.00095e-06
1.00087e-06
1.00079e-06
1.0009e-06
1.00087e-06
1.00077e-06
9.6135e-07
9.99285e-07
1.00009e-06
)
;
    }
    procBoundary3to1
    {
        type            processor;
        value           nonuniform List<scalar> 
27
(
1.00053e-06
1.0007e-06
1.00082e-06
1.00079e-06
1.00061e-06
1.00032e-06
9.99987e-07
9.99751e-07
9.99328e-07
1.00062e-06
1.00063e-06
1.0005e-06
1.00021e-06
9.99919e-07
9.99766e-07
9.99578e-07
9.99707e-07
9.9991e-07
1.00041e-06
1.00031e-06
1.00013e-06
1.00002e-06
9.99815e-07
9.997e-07
9.99566e-07
9.99541e-07
9.99271e-07
)
;
    }
    procBoundary3to2
    {
        type            processor;
        value           nonuniform List<scalar> 
12
(
1.00038e-06
1.00037e-06
1.00031e-06
1.00019e-06
1.00058e-06
1.00053e-06
1.00048e-06
1.00024e-06
1.00045e-06
1.00038e-06
1.00038e-06
1.00023e-06
)
;
    }
    procBoundary3to7
    {
        type            processor;
        value           nonuniform List<scalar> 
36
(
1.00028e-06
1.00026e-06
1.00019e-06
1.00009e-06
9.99986e-07
9.99864e-07
9.99765e-07
9.99682e-07
9.9945e-07
1.00024e-06
1.00023e-06
1.00016e-06
1.00007e-06
9.99972e-07
9.99871e-07
9.99772e-07
9.99706e-07
9.99287e-07
1.00025e-06
1.00025e-06
1.0002e-06
1.00014e-06
1.00005e-06
9.99995e-07
9.99882e-07
9.99891e-07
9.99426e-07
1.00018e-06
1.00025e-06
1.00033e-06
1.00042e-06
1.00048e-06
1.00054e-06
1.00049e-06
1.00051e-06
9.99981e-07
)
;
    }
}


// ************************************************************************* //
