/*--------------------------------*- C++ -*----------------------------------*\
| =========                 |                                                 |
| \\      /  F ield         | OpenFOAM: The Open Source CFD Toolbox           |
|  \\    /   O peration     | Version:  4.x                                   |
|   \\  /    A nd           | Web:      www.OpenFOAM.org                      |
|    \\/     M anipulation  |                                                 |
\*---------------------------------------------------------------------------*/
FoamFile
{
    version     2.0;
    format      ascii;
    class       volScalarField;
    location    "13.5";
    object      p_rgh;
}
// * * * * * * * * * * * * * * * * * * * * * * * * * * * * * * * * * * * * * //

dimensions      [1 -1 -2 0 0 0 0];

internalField   nonuniform List<scalar> 
108
(
26.8065
74.8277
10.826
68.2537
-10.1637
58.3748
-32.1474
51.3372
-91.1254
26.5114
74.5846
9.87452
68.7822
-9.69586
60.8226
-31.7573
53.3464
-133.801
25.875
73.8175
9.87984
68.5656
-7.71583
61.6522
-27.5742
52.5662
-49.9898
24.6595
72.1524
7.75239
66.8536
-9.95166
62.3405
-29.1417
58.4474
-280.902
26.7419
73.8489
9.4568
66.3094
-13.0667
55.7887
-32.2047
49.2838
-50.7031
26.2561
73.8156
7.83801
65.4341
-13.321
58.1735
-35.2729
52.8311
-58.7943
26.1217
73.4895
8.42351
66.1142
-11.516
58.1925
-32.6987
51.418
-57.071
24.6412
72.3181
7.01755
66.3287
-12.4424
61.4874
-36.0281
59.5781
-78.928
26.126
72.975
8.78827
64.8492
-10.3854
55.8056
-28.6605
48.7067
-45.6855
25.3103
73.096
7.66752
65.8706
-10.8625
57.0525
-29.7045
49.8917
-48.6298
25.8242
72.7918
8.03013
64.7904
-10.7053
56.881
-30.3887
50.5697
-54.0429
25.3225
72.5509
8.06079
65.8174
-9.93263
59.184
-29.1459
53.7486
-51.0484
)
;

boundaryField
{
    inlet
    {
        type            fixedFluxPressure;
        gradient        nonuniform 0();
        value           nonuniform 0();
    }
    outlet
    {
        type            fixedValue;
        value           uniform 0;
    }
    wall
    {
        type            fixedFluxPressure;
        gradient        nonuniform List<scalar> 
63
(
0.000478731
0.00177646
0.000126933
-0.000958427
-0.00175883
-0.000267999
-0.000890269
-0.00170617
-0.00342574
-0.000841316
-0.0026596
-0.00190539
-0.00241446
-0.00304634
-0.00219251
-7.12336e-05
-0.00942528
-0.00814561
-0.0163401
-0.00971141
-0.00264601
-0.00200263
0.000783826
-0.0007058
-0.0157831
-0.0150997
-0.00548238
0.00466317
-0.00214312
-0.00376851
-0.00372089
-0.000594682
-0.00293936
-0.00335446
0.000779387
0.000378348
-0.00203605
-0.0023887
0.00389756
-0.000607371
-0.000401514
-0.000318441
0.00967005
-0.00235989
-0.00513607
-0.00204409
-0.00225441
-0.00249798
0.000669187
-0.00352042
-0.00251381
-0.00161668
-0.00146675
-0.00233105
-0.0053911
-0.0029804
-0.00248212
-0.001594
-0.000659073
-0.00157637
-0.000361245
-0.00034652
-0.00125204
)
;
        value           nonuniform List<scalar> 
63
(
26.8065
26.5114
25.875
24.6595
74.8276
74.5846
73.8175
72.1523
10.8259
9.87451
9.8798
7.75237
68.2537
68.7821
68.5655
66.8536
-10.1638
-9.69598
-7.71607
-9.9518
58.3747
60.8226
61.6522
62.3405
-32.1476
-31.7575
-27.5742
-29.1416
51.3371
53.3463
52.5661
58.4474
-91.1255
-133.801
-49.9897
-280.902
24.6595
24.6412
25.3225
72.1523
72.3181
72.5509
7.75253
7.01751
8.06072
66.8536
66.3286
65.8173
-9.95165
-12.4425
-9.93266
62.3405
61.4874
59.1839
-29.1417
-36.0281
-29.1459
58.4474
59.5781
53.7486
-280.902
-78.928
-51.0484
)
;
    }
    procBoundary3to1
    {
        type            processor;
        value           nonuniform List<scalar> 
27
(
26.8128
74.8616
10.9642
69.8458
-11.0207
58.866
-31.9467
51.4368
-51.159
27.0142
74.2673
10.1744
68.2756
-20.2938
54.3445
-34.6542
55.1474
-49.5946
26.3926
70.53
7.67045
68.634
-12.9245
56.2913
-30.3226
50.2055
-46.0861
)
;
    }
    procBoundary3to2
    {
        type            processor;
        value           nonuniform List<scalar> 
12
(
80.1114
79.8202
79.218
78.252
80.8725
80.6444
80.1239
78.8006
80.301
79.9865
80.0008
79.1368
)
;
    }
    procBoundary3to7
    {
        type            processor;
        value           nonuniform List<scalar> 
36
(
25.7269
71.9871
7.88971
64.2998
-10.3689
56.3827
-27.5238
49.1887
-42.1274
24.8191
72.1776
6.34104
64.5321
-12.7079
57.7703
-31.9274
52.8176
-49.6938
24.6931
71.6747
6.42739
64.1106
-12.5021
56.7817
-31.9193
50.7936
-49.3766
24.4299
71.686
5.93214
64.6351
-13.9227
58.6104
-36.9142
55.5843
-66.5325
)
;
    }
}


// ************************************************************************* //
