/*--------------------------------*- C++ -*----------------------------------*\
  =========                 |
  \\      /  F ield         | OpenFOAM: The Open Source CFD Toolbox
   \\    /   O peration     | Website:  https://openfoam.org
    \\  /    A nd           | Version:  4.x
     \\/     M anipulation  |
\*---------------------------------------------------------------------------*/
FoamFile
{
    version     2.0;
    format      ascii;
    class       vectorField;
    location    0;
    object      v;
}
// * * * * * * * * * * * * * * * * * * * * * * * * * * * * * * * * * * * * * //

303
(
( -4.19805e-10 -3.74334e-11 1.54373e-10 )  
( 1.89946e-10 -8.09838e-10 -4.40957e-11 )  
( -4.71395e-11 -7.85064e-10 8.3316e-11 )  
( -2.04118e-11 -6.61528e-10 -3.42929e-10 )  
( -2.24554e-10 -9.42533e-10 -2.901e-10 )  
( 1.26976e-09 -8.74386e-10 2.52987e-10 )  
( 7.85214e-11 -3.01933e-10 -2.07377e-10 )  
( 9.96979e-10 -1.03565e-09 -1.57697e-10 )  
( 3.61899e-11 -6.3785e-10 -1.5332e-10 )  
( -1.08913e-09 -5.40157e-10 5.80648e-10 )  
( -1.51446e-09 -1.20619e-09 4.1492e-10 )  
( 8.28849e-10 -6.43252e-10 7.33327e-10 )  
( -1.87061e-09 -4.96664e-10 3.13919e-09 )  
( -3.22011e-09 -6.22798e-10 -2.33084e-10 )  
( 1.32861e-09 -7.31463e-10 9.00139e-10 )  
( -2.01736e-09 -4.75779e-10 6.50076e-10 )  
( -8.84447e-10 -4.49784e-11 2.52797e-09 )  
( -3.10314e-09 3.08713e-10 1.5381e-09 )  
( -1.77079e-09 -1.25855e-09 1.86375e-09 )  
( -4.21861e-10 -1.09928e-09 2.40092e-10 )  
( -1.86885e-09 -5.59091e-10 2.84266e-09 )  
( -3.06206e-09 -1.86039e-10 1.28525e-09 )  
( -1.4194e-09 -8.78328e-10 2.27709e-09 )  
( -7.62451e-10 -3.82297e-10 7.84693e-10 )  
( 2.81862e-11 -1.19272e-09 1.68478e-09 )  
( -3.64384e-10 -9.06451e-10 1.74025e-09 )  
( -1.28397e-09 -1.3102e-09 2.14253e-10 )  
( 1.10655e-09 4.39399e-10 2.53304e-09 )  
( -1.04989e-09 -5.1812e-10 2.45841e-09 )  
( -1.36237e-09 -8.61771e-10 5.41637e-10 )  
( 1.46317e-09 3.94192e-10 2.28024e-09 )  
( 4.35732e-10 -4.1077e-10 9.64172e-10 )  
( 7.25259e-10 -9.39422e-11 2.89324e-10 )  
( -3.66313e-09 -4.06259e-10 1.09182e-09 )  
( -6.70892e-10 -1.08183e-09 1.29699e-09 )  
( -1.81523e-09 -2.30547e-10 2.34549e-09 )  
( -2.30047e-09 -2.05266e-09 3.01949e-09 )  
( -3.29247e-10 2.13624e-11 5.35937e-10 )  
( -7.6924e-10 -4.80935e-10 9.02155e-10 )  
( -2.06657e-09 -2.65321e-09 4.15687e-09 )  
( -3.92348e-09 -1.95694e-09 5.81059e-10 )  
( -3.76693e-09 -1.49396e-10 1.46103e-09 )  
( 8.87332e-10 3.59542e-11 1.80961e-10 )  
( -1.50376e-09 -1.79749e-09 3.48984e-09 )  
( 2.22191e-10 -8.55224e-10 1.90036e-09 )  
( -3.8328e-09 -1.3614e-10 1.18793e-09 )  
( -1.77469e-09 -2.55707e-10 -1.50704e-09 )  
( -3.15982e-09 1.62842e-10 -3.83112e-11 )  
( -3.01669e-09 6.69886e-10 7.04617e-10 )  
( -3.22973e-09 -7.04087e-10 4.62295e-09 )  
( -4.64254e-09 -3.15217e-09 2.38028e-09 )  
( -8.50876e-10 -4.15608e-10 1.0638e-09 )  
( -2.80003e-09 -2.23916e-10 1.39979e-09 )  
( -3.12138e-09 -4.99809e-10 3.11828e-09 )  
( -1.71162e-09 1.79222e-10 2.27276e-09 )  
( -1.87869e-09 -6.3541e-10 8.74253e-10 )  
( -1.80686e-09 7.04342e-11 -5.54616e-10 )  
( 1.77652e-10 1.07179e-10 6.28017e-10 )  
( -1.45251e-09 -1.97126e-10 3.42981e-10 )  
( -1.1476e-09 -1.89684e-09 6.447e-10 )  
( -2.15757e-09 6.36292e-10 6.49989e-10 )  
( 1.27716e-09 1.45009e-09 -3.32394e-09 )  
( 6.1033e-10 1.2083e-10 -1.64999e-09 )  
( 8.30477e-08 -1.01332e-09 -1.79484e-09 )  
( 3.83114e-11 -7.69579e-10 8.59912e-10 )  
( -3.66741e-09 4.10592e-10 -1.09275e-10 )  
( -3.51039e-11 1.549e-09 3.10718e-10 )  
( -3.85291e-09 -1.4643e-09 1.17589e-09 )  
( -4.22274e-09 -2.14153e-10 3.48241e-10 )  
( -1.10229e-09 4.08355e-10 1.24606e-09 )  
( 5.2763e-10 -1.79301e-09 2.61064e-09 )  
( -1.79022e-09 3.53475e-10 1.23717e-09 )  
( -2.29701e-10 -6.29932e-10 5.05138e-10 )  
( -3.29707e-09 3.28422e-10 6.43506e-10 )  
( 9.82657e-10 -1.09667e-10 2.09084e-09 )  
( 8.36293e-10 6.32882e-10 -2.52429e-10 )  
( -2.36749e-09 -2.26426e-10 1.56428e-09 )  
( -2.03063e-09 -2.03119e-09 1.49737e-09 )  
( 8.90047e-10 -3.87848e-10 3.82289e-10 )  
( -4.23852e-09 -3.00445e-10 1.2108e-09 )  
( -1.20734e-09 -6.4165e-10 8.80094e-10 )  
( 1.22265e-09 -1.06098e-09 3.22699e-10 )  
( -4.40081e-09 2.86947e-10 2.63198e-10 )  
( 2.97242e-10 -5.95554e-10 -1.80007e-10 )  
( -2.89548e-09 -1.24516e-10 1.48058e-09 )  
( -3.56466e-09 -1.86759e-10 -2.02474e-10 )  
( -1.72477e-09 -4.48245e-10 8.91527e-10 )  
( -1.43852e-09 -5.71148e-11 1.8794e-10 )  
( -3.03571e-09 -6.93709e-10 8.92522e-10 )  
( -1.80777e-09 1.2195e-09 -7.28859e-09 )  
( -3.70963e-09 -1.96464e-09 3.90053e-09 )  
( -4.41398e-09 -4.34109e-10 1.19167e-09 )  
( -1.72008e-11 5.93808e-12 5.81342e-10 )  
( -7.17213e-10 -1.36683e-10 4.54898e-10 )  
( -4.49824e-09 -8.89479e-10 1.85637e-09 )  
( 5.88618e-10 2.44816e-10 5.07733e-10 )  
( -4.84419e-09 2.55844e-10 1.32398e-10 )  
( -1.45228e-09 -1.24482e-09 2.70352e-10 )  
( -1.90097e-09 -8.42057e-11 9.0719e-10 )  
( -4.36515e-09 8.90963e-10 2.91289e-09 )  
( -3.50959e-09 -4.60679e-10 2.65568e-09 )  
( -5.96854e-10 -2.35149e-10 7.83877e-10 )  
( 2.77852e-09 2.29008e-09 -3.87577e-10 )  
( -4.40852e-09 2.07623e-10 1.89943e-09 )  
( -1.39375e-09 -6.79816e-10 1.41457e-09 )  
( -4.49435e-09 -3.99252e-11 9.14724e-10 )  
( -1.16426e-09 -4.29565e-10 7.57358e-10 )  
( -2.05043e-09 -1.79129e-10 1.57734e-10 )  
( -8.42894e-10 4.59338e-07 -1.36573e-08 )  
( -8.5001e-10 -1.40383e-09 1.17108e-09 )  
( -2.28419e-09 -6.3485e-10 2.98822e-09 )  
( 1.5171e-10 -5.6396e-10 2.09599e-09 )  
( -1.99837e-09 -8.78994e-10 1.62938e-09 )  
( 6.02458e-10 9.30417e-09 -1.17048e-09 )  
( -2.5385e-09 1.31076e-10 8.61153e-10 )  
( -1.44187e-09 -4.73874e-09 4.33722e-10 )  
( -2.81846e-10 2.97252e-10 4.49278e-10 )  
( -1.65161e-09 -3.44721e-10 1.07939e-09 )  
( 1.32826e-09 -2.40874e-10 2.19171e-09 )  
( -1.15893e-09 9.44685e-10 3.21854e-09 )  
( -2.29052e-10 -2.78297e-10 1.23147e-09 )  
( -6.00457e-11 -7.00494e-10 5.36546e-10 )  
( -3.76261e-09 -1.92997e-10 1.52728e-09 )  
( 7.12638e-10 -5.19441e-10 1.62448e-09 )  
( -3.57198e-09 -8.24657e-10 1.26121e-09 )  
( -2.2797e-09 3.59229e-10 7.50106e-10 )  
( 6.02602e-10 5.86466e-10 -7.32919e-10 )  
( -5.94073e-10 -3.72773e-10 2.15889e-10 )  
( -4.88772e-10 -2.28072e-09 -7.41776e-09 )  
( -3.23201e-09 4.23014e-10 1.04871e-09 )  
( 1.12222e-10 1.76258e-09 -3.55815e-10 )  
( -4.93546e-09 1.18232e-10 -2.63335e-10 )  
( -1.93186e-09 9.23133e-11 8.07633e-10 )  
( -2.43487e-09 -7.17458e-11 1.2687e-09 )  
( -5.02444e-10 -6.37249e-11 -5.71181e-10 )  
( 8.65538e-11 -6.9597e-10 1.0998e-09 )  
( -2.38198e-09 -1.80828e-09 6.78718e-10 )  
( 5.56511e-10 3.13707e-10 -3.67619e-10 )  
( -2.0755e-09 -8.62507e-10 1.64333e-09 )  
( -1.13804e-09 -2.82243e-10 1.32704e-09 )  
( 6.83704e-10 2.78877e-10 -5.34096e-11 )  
( -4.66483e-10 2.30429e-11 3.63521e-10 )  
( -3.03226e-09 -1.19262e-09 3.0716e-09 )  
( -2.23488e-09 -1.36984e-10 8.1024e-10 )  
( 3.13657e-10 -1.69368e-10 1.20575e-10 )  
( 3.14245e-09 2.26144e-09 -3.68135e-09 )  
( -2.42458e-09 4.52716e-11 5.06069e-10 )  
( 1.98579e-10 3.10325e-10 1.06634e-09 )  
( -6.7858e-10 8.39561e-11 6.71677e-11 )  
( -1.04693e-09 -1.83194e-10 4.3669e-10 )  
( -1.0975e-09 -1.11183e-09 2.04558e-09 )  
( -7.68133e-11 -2.85001e-11 1.40894e-10 )  
( -6.09524e-10 -6.47157e-10 1.5289e-09 )  
( -2.5968e-09 -2.21282e-09 3.54559e-09 )  
( -1.81821e-09 -7.46865e-10 1.54598e-09 )  
( -4.08375e-09 -5.69642e-10 3.56137e-10 )  
( -8.01685e-10 -9.11585e-11 3.02966e-10 )  
( -1.14806e-09 -5.02907e-10 1.14168e-10 )  
( 1.74853e-10 -7.64116e-10 -1.66541e-10 )  
( 1.78244e-10 2.11692e-10 9.54241e-10 )  
( -2.37518e-09 8.08962e-11 1.02253e-09 )  
( 2.0853e-10 1.23824e-09 -6.03535e-09 )  
( -5.25616e-09 -1.60296e-10 1.12641e-10 )  
( -1.16557e-09 -1.55317e-09 2.66901e-09 )  
( 3.98333e-10 -1.97769e-11 1.45112e-11 )  
( 2.67709e-10 -6.19316e-10 -3.90076e-09 )  
( -3.62163e-10 -1.03352e-09 2.9742e-10 )  
( -1.33724e-09 -4.86914e-10 1.5078e-09 )  
( 1.05488e-10 -9.54496e-10 -1.69015e-09 )  
( -1.33741e-09 1.04914e-09 2.2305e-09 )  
( 6.4301e-10 -5.39189e-10 1.14204e-09 )  
( -1.41635e-09 -7.41121e-10 -8.21492e-10 )  
( 5.83122e-10 -1.50766e-09 -1.3749e-10 )  
( -2.97918e-09 -1.97203e-10 5.9807e-10 )  
( -1.76682e-09 6.85115e-11 5.26351e-10 )  
( -4.97258e-10 -4.48592e-10 1.23311e-09 )  
( -4.00606e-10 -8.18434e-11 7.02399e-11 )  
( 1.38325e-10 -5.99291e-10 -3.45936e-10 )  
( -4.44891e-09 -3.19639e-10 1.10003e-09 )  
( -5.3646e-09 -1.15559e-09 1.06223e-09 )  
( 2.56926e-09 -2.23513e-09 2.54616e-09 )  
( -5.36196e-10 -2.73299e-10 3.2085e-10 )  
( -1.30366e-09 4.17706e-10 5.85687e-10 )  
( -6.81834e-10 -9.66676e-10 3.93587e-10 )  
( 3.03868e-09 -3.00427e-10 -2.51491e-10 )  
( -1.51116e-09 -8.69697e-11 9.30337e-10 )  
( -1.43897e-09 -5.13074e-10 7.91794e-10 )  
( 2.0621e-09 4.70046e-10 -4.95548e-10 )  
( -1.23965e-09 -1.31504e-09 2.15409e-09 )  
( -1.93811e-10 -7.25734e-11 1.1336e-09 )  
( -3.2498e-09 1.18866e-10 1.14432e-09 )  
( -3.21032e-10 -1.2131e-09 3.95113e-09 )  
( 3.19514e-10 3.80699e-10 -3.0204e-10 )  
( -1.3897e-09 -3.59544e-11 8.13838e-10 )  
( -9.09181e-10 -6.75313e-11 4.68313e-10 )  
( -1.04429e-09 8.7158e-10 2.26959e-10 )  
( -1.44089e-10 1.29233e-10 -2.46599e-10 )  
( -1.01017e-09 -1.67233e-10 9.40466e-10 )  
( 6.58365e-10 -3.84176e-10 1.05459e-09 )  
( -6.70163e-10 8.54308e-10 2.07597e-09 )  
( -2.12614e-09 -4.17045e-10 7.4534e-10 )  
( -6.35362e-10 -1.9313e-10 9.35477e-10 )  
( -2.06869e-10 -4.06167e-11 3.65772e-10 )  
( 2.7211e-10 1.68409e-10 1.04533e-09 )  
( -1.53851e-09 5.99623e-10 7.02036e-10 )  
( -1.36478e-09 -3.24468e-10 8.84092e-10 )  
( -2.43607e-10 3.25088e-10 1.54575e-10 )  
( -4.83546e-10 1.8396e-11 6.13739e-10 )  
( -7.90698e-10 -6.27919e-12 5.1448e-10 )  
( -5.73236e-10 2.40121e-11 7.80505e-10 )  
( 8.69682e-11 -1.0824e-11 3.79559e-10 )  
( 5.3076e-10 -9.82405e-10 -2.69946e-09 )  
( -2.05318e-10 2.11452e-10 4.94286e-10 )  
( -3.06109e-10 1.88927e-10 4.35098e-10 )  
( -4.69062e-10 -7.65504e-11 6.17401e-10 )  
( 3.07548e-11 -1.75561e-11 1.27705e-10 )  
( -1.67625e-09 -6.18303e-10 1.76293e-09 )  
( -1.70273e-09 -1.49027e-10 6.90299e-10 )  
( -1.47953e-09 8.70587e-10 2.22116e-09 )  
( -2.90078e-11 -1.22865e-10 6.84067e-10 )  
( -1.77811e-09 -1.79629e-10 6.26208e-10 )  
( -9.63017e-10 -8.01745e-10 -1.40793e-09 )  
( 2.24271e-10 -8.80216e-10 -5.70344e-10 )  
( -3.74322e-10 -7.00518e-10 2.9507e-10 )  
( -3.96282e-11 -1.36555e-09 6.86385e-10 )  
( 2.52037e-09 -1.11855e-09 -6.13967e-10 )  
( -1.06904e-09 -7.19298e-10 2.65464e-09 )  
( -4.65766e-09 -1.10802e-09 3.6025e-10 )  
( 2.58842e-10 -3.43833e-10 2.34245e-10 )  
( -1.58522e-09 -1.72606e-09 2.87484e-09 )  
( 1.82026e-08 -1.27238e-10 5.21669e-10 )  
( -1.05363e-09 -4.07127e-10 4.9307e-10 )  
( 1.53258e-09 -8.94714e-10 1.37696e-10 )  
( 5.32389e-11 -4.53341e-11 3.60009e-10 )  
( -3.48743e-10 -7.82486e-11 -1.53609e-10 )  
( 7.49339e-10 1.08323e-10 6.03109e-10 )  
( 1.0867e-10 -3.19165e-10 -1.92699e-11 )  
( -2.79333e-09 -2.77995e-10 8.44863e-10 )  
( -3.7121e-09 6.32972e-11 4.72239e-10 )  
( 7.26901e-11 -4.06045e-10 8.97495e-10 )  
( -1.37243e-10 -9.58339e-10 -4.01539e-10 )  
( -8.56068e-11 -8.32541e-10 9.24048e-10 )  
( -5.28984e-10 -3.90963e-10 4.95043e-10 )  
( -1.56894e-09 -1.46347e-09 2.29133e-09 )  
( 9.69556e-10 -1.04441e-09 4.41675e-10 )  
( -3.41698e-11 1.6229e-09 1.54083e-09 )  
( 2.92293e-10 5.30873e-10 -2.9766e-10 )  
( -3.7513e-09 -3.06735e-10 1.32844e-09 )  
( -1.16973e-09 -2.20889e-09 2.34674e-09 )  
( -2.89721e-09 1.92797e-10 7.63879e-10 )  
( 1.648e-10 -9.33299e-10 -3.02958e-10 )  
( -3.96013e-10 -7.80491e-10 1.87354e-09 )  
( -2.33718e-09 3.56964e-10 2.82872e-09 )  
( -4.89385e-10 -8.74579e-10 2.5402e-09 )  
( -1.28154e-09 -1.27208e-10 5.43233e-10 )  
( -1.2923e-09 -1.41731e-09 8.48924e-10 )  
( 5.77703e-10 -2.12341e-10 4.04156e-10 )  
( 1.26813e-10 2.82617e-11 1.01799e-09 )  
( 1.65746e-10 1.82107e-11 2.97262e-10 )  
( -2.41196e-09 -6.64963e-10 7.3546e-10 )  
( -1.44985e-09 -2.88348e-10 1.06416e-09 )  
( 1.46975e-10 -8.00068e-11 1.08201e-09 )  
( -9.61739e-10 -1.74483e-10 1.4621e-09 )  
( 5.05622e-10 -2.26348e-11 4.0587e-10 )  
( 2.27211e-10 -6.81363e-10 1.66048e-10 )  
( -2.31513e-10 -3.29032e-10 2.04459e-10 )  
( -1.98656e-09 -2.6602e-10 1.7775e-09 )  
( 6.95234e-10 2.03185e-10 -4.43701e-10 )  
( -4.44443e-10 -6.0058e-10 1.9411e-09 )  
( -9.3355e-10 1.97345e-11 9.36616e-12 )  
( -5.13334e-10 -3.67681e-10 1.33637e-09 )  
( 4.45261e-10 -2.86524e-10 7.78745e-11 )  
( -1.37017e-09 -2.23912e-10 7.47232e-10 )  
( -5.26504e-12 2.91505e-10 7.81307e-10 )  
( -2.39921e-09 6.27022e-10 1.84414e-09 )  
( -1.98987e-10 -8.3232e-10 1.73728e-09 )  
( -7.10786e-09 -1.93642e-09 -1.60297e-09 )  
( -4.9319e-09 -1.25655e-10 8.19197e-10 )  
( -4.94289e-09 -9.68664e-11 9.71686e-10 )  
( -2.71043e-09 -8.00242e-10 1.231e-09 )  
( -9.32566e-09 -3.03133e-09 3.09785e-09 )  
( -2.69301e-09 -3.533e-10 1.42791e-09 )  
( -5.95561e-10 -1.25695e-09 6.64154e-10 )  
( 2.24593e-09 -1.28797e-09 7.83643e-10 )  
( -3.63672e-08 7.96268e-08 8.9907e-09 )  
( -9.43029e-11 -6.68089e-10 5.13222e-10 )  
( -3.75399e-09 -1.27866e-09 1.37525e-09 )  
( -5.29002e-10 -8.66959e-10 1.19962e-09 )  
( 5.11479e-10 -7.1094e-09 2.06956e-09 )  
( 1.58374e-09 -1.15359e-09 1.08348e-10 )  
( -3.50396e-09 -2.13363e-09 2.06962e-09 )  
( -1.55579e-09 -4.6857e-10 4.2731e-10 )  
( -3.47421e-09 5.1843e-10 -5.27234e-10 )  
( 3.07605e-11 -5.68726e-10 6.8556e-11 )  
( -4.77993e-09 2.68616e-10 7.97101e-11 )  
( -1.47792e-10 1.03442e-09 2.36807e-09 )  
( -5.0051e-09 -5.43971e-10 9.97866e-10 )  
( -2.39781e-10 -5.6309e-09 1.74859e-10 )  
( 4.61617e-09 -2.29695e-09 8.17428e-10 )  
( 2.87777e-09 -9.92886e-10 2.14787e-09 )  
( -9.96484e-10 -2.30392e-09 5.58655e-10 )  
( 8.61717e-10 -2.46277e-09 1.10828e-09 )  
( -7.53164e-10 -7.46623e-09 2.88449e-09 )  
)
