/*--------------------------------*- C++ -*----------------------------------*\
| =========                 |                                                 |
| \\      /  F ield         | OpenFOAM: The Open Source CFD Toolbox           |
|  \\    /   O peration     | Version:  4.x                                   |
|   \\  /    A nd           | Web:      www.OpenFOAM.org                      |
|    \\/     M anipulation  |                                                 |
\*---------------------------------------------------------------------------*/
FoamFile
{
    version     2.0;
    format      ascii;
    class       volScalarField;
    location    "16.5";
    object      Cs;
}
// * * * * * * * * * * * * * * * * * * * * * * * * * * * * * * * * * * * * * //

dimensions      [1 -3 0 0 0 0 0];

internalField   nonuniform List<scalar> 
108
(
335
335
335
334.999
334.999
334.998
334.994
334.99
334.985
335
335
335
334.999
334.998
334.994
334.987
334.976
334.969
335
335
334.999
334.999
334.997
334.993
334.985
334.974
334.964
335
335
334.999
334.999
334.997
334.992
334.984
334.972
334.959
335
335
335
334.999
334.999
334.998
334.997
334.994
334.991
335
335
335
334.999
334.998
334.996
334.992
334.987
334.979
335
335
334.999
334.999
334.998
334.996
334.991
334.984
334.975
335
335
334.999
334.999
334.998
334.995
334.989
334.981
334.97
335
334.999
334.999
334.999
334.999
334.998
334.996
334.994
334.992
335
335
335
334.999
334.999
334.998
334.996
334.994
334.989
335
335
334.999
334.999
334.999
334.998
334.995
334.992
334.987
335
335
335
334.999
334.999
334.997
334.994
334.99
334.983
)
;

boundaryField
{
    inlet
    {
        type            calculated;
        value           uniform 335;
    }
    outlet
    {
        type            calculated;
        value           nonuniform 0();
    }
    wall
    {
        type            calculated;
        value           nonuniform List<scalar> 
63
(
335
335
335
335
334.999
335
335
335
334.999
335
334.999
335
334.999
334.999
334.999
334.999
334.999
334.999
334.999
334.999
334.998
334.998
334.998
334.997
334.996
334.996
334.995
334.994
334.994
334.994
334.992
334.99
334.992
334.989
334.987
334.983
335
335
335
335
335
334.999
335
335
334.999
334.999
334.999
334.999
334.999
334.999
334.999
334.998
334.998
334.998
334.994
334.997
334.996
334.99
334.994
334.994
334.985
334.991
334.992
)
;
    }
    procBoundary4to0
    {
        type            processor;
        value           nonuniform List<scalar> 
36
(
335
335
335
334.999
334.999
334.997
334.993
334.987
334.981
335
335
335
334.999
334.998
334.994
334.986
334.971
334.969
335
335
334.999
334.999
334.997
334.992
334.983
334.968
334.957
335
335
334.999
334.999
334.997
334.992
334.981
334.966
334.95
)
;
    }
    procBoundary4to5
    {
        type            processor;
        value           nonuniform List<scalar> 
12
(
334.98
334.966
334.958
334.951
334.986
334.972
334.968
334.96
334.988
334.984
334.981
334.977
)
;
    }
    procBoundary4to6
    {
        type            processor;
        value           nonuniform List<scalar> 
27
(
335
334.999
334.999
334.998
334.996
334.989
334.976
334.961
334.952
335
335
334.999
334.999
334.998
334.995
334.99
334.982
334.973
335
335
334.999
334.999
334.999
334.998
334.995
334.991
334.985
)
;
    }
}


// ************************************************************************* //
