/*--------------------------------*- C++ -*----------------------------------*\
| =========                 |                                                 |
| \\      /  F ield         | OpenFOAM: The Open Source CFD Toolbox           |
|  \\    /   O peration     | Version:  4.x                                   |
|   \\  /    A nd           | Web:      www.OpenFOAM.org                      |
|    \\/     M anipulation  |                                                 |
\*---------------------------------------------------------------------------*/
FoamFile
{
    version     2.0;
    format      ascii;
    class       volScalarField;
    location    "16.5";
    object      Deff;
}
// * * * * * * * * * * * * * * * * * * * * * * * * * * * * * * * * * * * * * //

dimensions      [0 2 -1 0 0 0 0];

internalField   nonuniform List<scalar> 
108
(
9.87749e-08
9.85485e-08
9.83871e-08
9.83751e-08
9.83202e-08
9.82927e-08
9.81838e-08
9.81309e-08
9.79551e-08
9.85604e-08
9.84578e-08
9.82954e-08
9.81545e-08
9.81273e-08
9.81315e-08
9.81225e-08
9.80902e-08
9.7907e-08
9.85239e-08
9.8324e-08
9.82275e-08
9.8073e-08
9.8073e-08
9.80752e-08
9.80285e-08
9.79066e-08
9.79848e-08
9.85513e-08
9.83804e-08
9.8192e-08
9.81271e-08
9.80038e-08
9.79834e-08
9.78545e-08
9.79835e-08
9.79807e-08
9.8753e-08
9.85993e-08
9.83836e-08
9.82333e-08
9.82108e-08
9.82369e-08
9.82066e-08
9.80136e-08
9.78785e-08
9.86293e-08
9.84473e-08
9.83354e-08
9.82032e-08
9.81597e-08
9.8121e-08
9.8055e-08
9.79323e-08
9.78511e-08
9.85871e-08
9.83533e-08
9.81604e-08
9.80458e-08
9.7986e-08
9.79685e-08
9.79504e-08
9.79101e-08
9.79004e-08
9.84023e-08
9.82708e-08
9.81743e-08
9.79551e-08
9.78857e-08
9.78899e-08
9.77852e-08
9.78645e-08
9.78958e-08
9.87545e-08
9.85363e-08
9.85209e-08
9.82961e-08
9.82252e-08
9.80372e-08
9.80333e-08
9.80257e-08
9.79753e-08
9.86226e-08
9.83316e-08
9.83558e-08
9.82684e-08
9.81668e-08
9.80336e-08
9.80326e-08
9.80098e-08
9.79065e-08
9.85241e-08
9.82837e-08
9.81646e-08
9.80646e-08
9.80673e-08
9.7972e-08
9.79801e-08
9.79225e-08
9.79391e-08
9.83578e-08
9.82719e-08
9.81991e-08
9.79849e-08
9.79258e-08
9.78101e-08
9.79894e-08
9.80068e-08
9.79601e-08
)
;

boundaryField
{
    inlet
    {
        type            calculated;
        value           uniform 0;
    }
    outlet
    {
        type            calculated;
        value           nonuniform 0();
    }
    wall
    {
        type            calculated;
        value           uniform 0;
    }
    procBoundary4to0
    {
        type            processor;
        value           uniform 0;
    }
    procBoundary4to5
    {
        type            processor;
        value           uniform 0;
    }
    procBoundary4to6
    {
        type            processor;
        value           uniform 0;
    }
}


// ************************************************************************* //
