/*--------------------------------*- C++ -*----------------------------------*\
| =========                 |                                                 |
| \\      /  F ield         | OpenFOAM: The Open Source CFD Toolbox           |
|  \\    /   O peration     | Version:  4.x                                   |
|   \\  /    A nd           | Web:      www.OpenFOAM.org                      |
|    \\/     M anipulation  |                                                 |
\*---------------------------------------------------------------------------*/
FoamFile
{
    version     2.0;
    format      ascii;
    class       volVectorField;
    location    "16.5";
    object      impParticleForces;
}
// * * * * * * * * * * * * * * * * * * * * * * * * * * * * * * * * * * * * * //

dimensions      [1 1 -2 0 0 0 0];

internalField   nonuniform List<vector> 
108
(
(0.00194593 -6.63104e-05 -0.000128376)
(0.00194969 -6.7238e-05 -0.000130873)
(0.0019629 -6.76021e-05 -0.000132413)
(0.00191579 -6.36439e-05 -0.00012802)
(0.00188164 -5.81551e-05 -0.000119952)
(0.00180376 -4.93996e-05 -0.000102948)
(0.00177271 -3.97098e-05 -8.02969e-05)
(0.00171754 -2.66688e-05 -4.76286e-05)
(0.0017299 -1.45304e-05 -1.40106e-05)
(0.00199128 -6.64528e-05 -0.000130752)
(0.00200135 -6.80727e-05 -0.000133943)
(0.00201692 -6.90198e-05 -0.00013634)
(0.00196159 -6.52621e-05 -0.000132067)
(0.00191361 -5.97109e-05 -0.000122839)
(0.00182612 -5.04296e-05 -0.000104541)
(0.00178555 -4.00571e-05 -8.06426e-05)
(0.00172366 -2.57511e-05 -4.71973e-05)
(0.00174123 -1.28007e-05 -1.25089e-05)
(0.00201101 -6.1397e-05 -0.000130925)
(0.00203284 -6.37907e-05 -0.000135154)
(0.00203141 -6.41089e-05 -0.00013587)
(0.0019684 -6.14018e-05 -0.000130391)
(0.00191666 -5.6741e-05 -0.000119788)
(0.00182553 -4.76681e-05 -0.000100769)
(0.00178171 -3.6888e-05 -7.68365e-05)
(0.0017254 -2.23684e-05 -4.56345e-05)
(0.00172263 -7.33224e-06 -1.20978e-05)
(0.00199808 -5.1371e-05 -0.000128128)
(0.00202459 -5.33871e-05 -0.00013164)
(0.00203108 -5.41174e-05 -0.000132668)
(0.00195965 -5.22355e-05 -0.000125486)
(0.00191702 -4.92347e-05 -0.000115203)
(0.00183023 -4.11263e-05 -9.63675e-05)
(0.00179367 -3.08432e-05 -7.32951e-05)
(0.0017202 -1.57176e-05 -4.33451e-05)
(0.00171825 -3.16519e-07 -1.3132e-05)
(0.00192702 -6.45562e-05 -0.00011407)
(0.00192825 -6.51429e-05 -0.000115032)
(0.00193661 -6.49695e-05 -0.00011449)
(0.00190069 -6.1058e-05 -0.000110735)
(0.00187273 -5.55309e-05 -0.000102333)
(0.00179165 -4.65902e-05 -8.63209e-05)
(0.00176252 -3.76064e-05 -6.52826e-05)
(0.00172552 -2.66319e-05 -3.90267e-05)
(0.00174114 -1.61717e-05 -1.08264e-05)
(0.00197346 -6.47378e-05 -0.000114978)
(0.00197483 -6.55576e-05 -0.000116301)
(0.00198076 -6.54975e-05 -0.000115533)
(0.00192528 -6.10627e-05 -0.000111784)
(0.00188882 -5.54926e-05 -0.000102757)
(0.00180736 -4.64605e-05 -8.64874e-05)
(0.00177576 -3.71783e-05 -6.51666e-05)
(0.00173115 -2.53492e-05 -3.81695e-05)
(0.00174815 -1.42767e-05 -8.98283e-06)
(0.00197889 -5.87571e-05 -0.000114438)
(0.00199469 -6.05276e-05 -0.000116211)
(0.00200715 -6.10176e-05 -0.000115508)
(0.00193989 -5.72697e-05 -0.000110564)
(0.00190093 -5.24893e-05 -0.00010117)
(0.00181391 -4.36808e-05 -8.42729e-05)
(0.00177302 -3.37252e-05 -6.25858e-05)
(0.00171964 -2.13992e-05 -3.63218e-05)
(0.00172986 -9.46696e-06 -8.05876e-06)
(0.00199249 -4.95072e-05 -0.000113376)
(0.00200493 -5.06976e-05 -0.000114825)
(0.00199846 -5.05817e-05 -0.000113767)
(0.00194118 -4.85569e-05 -0.000108073)
(0.00190242 -4.49697e-05 -9.77179e-05)
(0.00181723 -3.71761e-05 -8.09101e-05)
(0.00178434 -2.79846e-05 -5.98359e-05)
(0.00171654 -1.54081e-05 -3.50009e-05)
(0.00171648 -3.11035e-06 -9.05673e-06)
(0.00190443 -6.26359e-05 -0.000105478)
(0.00189444 -6.25931e-05 -0.000105385)
(0.00188276 -6.11851e-05 -0.000103692)
(0.00185075 -5.72423e-05 -9.94765e-05)
(0.00183405 -5.2172e-05 -9.09466e-05)
(0.00177993 -4.44627e-05 -7.67846e-05)
(0.0017561 -3.58204e-05 -5.72929e-05)
(0.0017158 -2.57686e-05 -3.4397e-05)
(0.00172517 -1.62008e-05 -1.03982e-05)
(0.00193516 -6.20623e-05 -0.00010557)
(0.00193924 -6.28982e-05 -0.000105599)
(0.00193537 -6.21006e-05 -0.000103554)
(0.00188054 -5.72991e-05 -9.93397e-05)
(0.00185477 -5.21077e-05 -9.06559e-05)
(0.00179093 -4.38819e-05 -7.61662e-05)
(0.00175562 -3.47255e-05 -5.63121e-05)
(0.00171496 -2.42245e-05 -3.34093e-05)
(0.001723 -1.42978e-05 -9.12321e-06)
(0.00195228 -5.69659e-05 -0.000105136)
(0.00195002 -5.77053e-05 -0.000105271)
(0.00195156 -5.76662e-05 -0.000103372)
(0.00189197 -5.35278e-05 -9.84876e-05)
(0.00185958 -4.86843e-05 -8.9309e-05)
(0.00178802 -4.05862e-05 -7.43339e-05)
(0.00174968 -3.1341e-05 -5.44774e-05)
(0.00170654 -2.07152e-05 -3.20195e-05)
(0.00170693 -1.01434e-05 -8.52138e-06)
(0.00196949 -4.80663e-05 -0.000104081)
(0.00195274 -4.81729e-05 -0.000104126)
(0.00195005 -4.81144e-05 -0.000102225)
(0.00189631 -4.57265e-05 -9.67625e-05)
(0.0018642 -4.17112e-05 -8.68512e-05)
(0.00179005 -3.44882e-05 -7.18304e-05)
(0.00174142 -2.53683e-05 -5.25752e-05)
(0.00169647 -1.4939e-05 -3.11299e-05)
(0.00169742 -4.51196e-06 -8.90029e-06)
)
;

boundaryField
{
    inlet
    {
        type            zeroGradient;
    }
    outlet
    {
        type            zeroGradient;
    }
    wall
    {
        type            zeroGradient;
    }
    procBoundary4to0
    {
        type            processor;
        value           nonuniform List<vector> 
36
(
(0.0019569 -6.76884e-05 -0.000142659)
(0.00196493 -6.89881e-05 -0.000146343)
(0.00197932 -6.96067e-05 -0.000149263)
(0.001923 -6.58509e-05 -0.000143949)
(0.00189033 -6.1069e-05 -0.000136999)
(0.00181882 -5.26695e-05 -0.000120635)
(0.00177306 -4.1491e-05 -9.5392e-05)
(0.00171262 -2.5772e-05 -5.73922e-05)
(0.00172263 -1.04202e-05 -1.7796e-05)
(0.00199853 -6.7896e-05 -0.000145897)
(0.00202619 -7.0633e-05 -0.000151896)
(0.00203292 -7.14785e-05 -0.000154604)
(0.00197545 -6.83104e-05 -0.000149638)
(0.00192332 -6.33801e-05 -0.000140571)
(0.0018392 -5.45943e-05 -0.000122269)
(0.00179934 -4.37805e-05 -9.81694e-05)
(0.00172633 -2.59233e-05 -5.79317e-05)
(0.001734 -8.85842e-06 -1.63925e-05)
(0.0020172 -6.34378e-05 -0.000146022)
(0.00203022 -6.54626e-05 -0.000150241)
(0.00205068 -6.73968e-05 -0.000154025)
(0.0019827 -6.52485e-05 -0.000147503)
(0.00193835 -6.20661e-05 -0.000138521)
(0.00185106 -5.36797e-05 -0.000119314)
(0.00180051 -4.16206e-05 -9.28416e-05)
(0.00172213 -2.26952e-05 -5.50341e-05)
(0.00172555 -4.2626e-06 -1.64619e-05)
(0.00201452 -5.42083e-05 -0.000143084)
(0.00203785 -5.63192e-05 -0.000147974)
(0.00205914 -5.8135e-05 -0.000151236)
(0.00199802 -5.73977e-05 -0.000144629)
(0.00193489 -5.38513e-05 -0.00013187)
(0.00185763 -4.7054e-05 -0.000113494)
(0.0018046 -3.51009e-05 -8.7129e-05)
(0.00172817 -1.68421e-05 -5.28124e-05)
(0.00171639 1.98269e-06 -1.81921e-05)
)
;
    }
    procBoundary4to5
    {
        type            processor;
        value           nonuniform List<vector> 
12
(
(0.00174033 -2.6538e-06 1.59102e-05)
(0.00174864 3.37963e-07 1.77693e-05)
(0.00173077 6.20561e-06 1.64029e-05)
(0.00172649 1.28823e-05 1.31089e-05)
(0.00174218 -6.75503e-06 1.41216e-05)
(0.00174447 -3.87844e-06 1.51387e-05)
(0.00172879 1.25368e-06 1.46183e-05)
(0.00172062 7.57887e-06 1.19573e-05)
(0.00171405 -7.89163e-06 1.10131e-05)
(0.00173024 -5.84285e-06 1.21133e-05)
(0.00171282 -1.31831e-06 1.16024e-05)
(0.00170402 4.7081e-06 9.99625e-06)
)
;
    }
    procBoundary4to6
    {
        type            processor;
        value           nonuniform List<vector> 
27
(
(0.00203029 -4.02442e-05 -0.000127316)
(0.00203163 -4.13785e-05 -0.000129189)
(0.00201187 -4.13723e-05 -0.000127758)
(0.00195508 -4.09221e-05 -0.000121162)
(0.00191761 -3.8266e-05 -0.000111029)
(0.00182734 -3.10668e-05 -9.13378e-05)
(0.00179188 -2.15495e-05 -6.94883e-05)
(0.0017288 -8.29586e-06 -4.24965e-05)
(0.00173578 5.96499e-06 -1.50189e-05)
(0.00199962 -3.78771e-05 -0.000111242)
(0.00200234 -3.83402e-05 -0.000112407)
(0.0019947 -3.81726e-05 -0.00011078)
(0.00192781 -3.72104e-05 -0.000104388)
(0.0018815 -3.40171e-05 -9.354e-05)
(0.00181228 -2.77501e-05 -7.74588e-05)
(0.00178395 -1.88407e-05 -5.72874e-05)
(0.0017191 -8.23912e-06 -3.49037e-05)
(0.00172967 3.14914e-06 -1.11987e-05)
(0.00195486 -3.65652e-05 -0.000102146)
(0.00194124 -3.67424e-05 -0.000102115)
(0.00194498 -3.62471e-05 -0.000100121)
(0.00188312 -3.5081e-05 -9.41435e-05)
(0.00184336 -3.1895e-05 -8.40577e-05)
(0.00178232 -2.58678e-05 -6.934e-05)
(0.00176256 -1.7806e-05 -5.07902e-05)
(0.0017046 -8.44779e-06 -3.11946e-05)
(0.00170496 1.36231e-06 -1.08828e-05)
)
;
    }
}


// ************************************************************************* //
