/*--------------------------------*- C++ -*----------------------------------*\
| =========                 |                                                 |
| \\      /  F ield         | OpenFOAM: The Open Source CFD Toolbox           |
|  \\    /   O peration     | Version:  4.x                                   |
|   \\  /    A nd           | Web:      www.OpenFOAM.org                      |
|    \\/     M anipulation  |                                                 |
\*---------------------------------------------------------------------------*/
FoamFile
{
    version     2.0;
    format      ascii;
    class       volScalarField;
    location    "16.5";
    object      p;
}
// * * * * * * * * * * * * * * * * * * * * * * * * * * * * * * * * * * * * * //

dimensions      [1 -1 -2 0 0 0 0];

internalField   nonuniform List<scalar> 
108
(
16754.6
16556.5
16180.2
15513.5
14570.6
13162.5
11346.6
9078.52
6753.42
16678.8
16474.2
16086.8
15406.5
14453.6
13048.8
11258.6
9042.52
6785.23
16540.5
16325.4
15917.5
15213.6
14244.5
12849.8
11116.1
8993.61
6831.9
16367.1
16137.7
15704.7
14971.7
13984.1
12599.8
10932.6
8928.02
6892.04
14615.5
14385
13946.4
13202.9
12193
10776.9
9077.09
7044.69
4990.29
14553.3
14317.8
13872.6
13121.6
12110
10701.1
9023.13
7024.06
5010.55
14436.4
14194.6
13738.1
12975.7
11960.4
10566.3
8928.95
6990.31
5043.66
14288
14038
13567.8
12792.8
11774.1
10399.3
8811.71
6948.28
5082.15
12602.3
12352.8
11881.8
11102.9
10066.8
8656.74
7014.84
5089.64
3160.71
12543.1
12292.1
11816.9
11033.7
9998.68
8597.19
6973.91
5077.15
3178.6
12436.3
12181.4
11699.9
10910.7
9877.07
8491.7
6903.43
5052.75
3206.54
12300.9
12041.1
11552.4
10757.3
9726.03
8360.38
6813.27
5019.51
3233.79
)
;

boundaryField
{
    inlet
    {
        type            calculated;
        value           nonuniform List<scalar> 
12
(
16754.6
16678.8
16540.5
16367.1
14615.5
14553.3
14436.4
14288
12602.3
12543.1
12436.3
12300.9
)
;
    }
    outlet
    {
        type            calculated;
        value           nonuniform 0();
    }
    wall
    {
        type            calculated;
        value           nonuniform List<scalar> 
63
(
11663.3
11604.1
11497.3
11362
11413.9
11353.1
11242.4
11102.2
10942.9
10877.9
10760.9
10613.4
10163.9
10094.8
9971.77
9818.33
9127.87
9059.72
8938.12
8787.07
7717.79
7658.24
7552.75
7421.43
6075.9
6034.97
5964.48
5874.32
4150.7
4138.22
4113.82
4080.58
2221.78
2239.67
2267.62
2294.88
16754.6
14615.5
12602.3
16556.5
14385
12352.8
16180.2
13946.4
11881.8
15513.5
13202.9
11102.9
14570.6
12193
10066.8
13162.5
10776.9
8656.74
11346.6
9077.09
7014.84
9078.52
7044.69
5089.64
6753.42
4990.29
3160.71
)
;
    }
    procBoundary4to0
    {
        type            processor;
        value           nonuniform List<scalar> 
36
(
18966.9
18818.1
18537.9
18002.3
17192.3
15852.2
13892.7
11213.7
8407.2
18873.8
18715.2
18415.6
17853.1
17018.4
15672.8
13747.6
11145.6
8485.84
18705.6
18529.5
18195.9
17587.6
16713.3
15359.8
13512.8
11080.4
8561.28
18496.8
18298.1
17920.6
17257.9
16330.7
14958.8
13193.2
10966
8661.35
)
;
    }
    procBoundary4to5
    {
        type            processor;
        value           nonuniform List<scalar> 
12
(
4429.56
4521.17
4662.27
4842.49
2909.05
2965.94
3059.44
3173.74
1191.9
1235.11
1308.39
1394.12
)
;
    }
    procBoundary4to6
    {
        type            processor;
        value           nonuniform List<scalar> 
27
(
16194.8
15951.3
15492.3
14729.5
13721.9
12352.1
10748.9
8860.12
6957.55
14141
13882.1
13398.6
12607.3
11585
10230.7
8693.37
6903.53
5120.1
12167.3
11900.3
11403.2
10600.7
9572.34
8227.01
6721.62
4983.04
3261.02
)
;
    }
}


// ************************************************************************* //
