/*--------------------------------*- C++ -*----------------------------------*\
| =========                 |                                                 |
| \\      /  F ield         | OpenFOAM: The Open Source CFD Toolbox           |
|  \\    /   O peration     | Version:  4.x                                   |
|   \\  /    A nd           | Web:      www.OpenFOAM.org                      |
|    \\/     M anipulation  |                                                 |
\*---------------------------------------------------------------------------*/
FoamFile
{
    version     2.0;
    format      ascii;
    class       volScalarField;
    location    "16.5";
    object      QPartFluidCoeff;
}
// * * * * * * * * * * * * * * * * * * * * * * * * * * * * * * * * * * * * * //

dimensions      [1 -1 -3 -1 0 0 0];

internalField   nonuniform List<scalar> 
108
(
-1.62982e+07
-2.34352e+07
-2.73988e+07
-1.91068e+07
-2.26161e+07
-1.81971e+07
-2.70349e+07
-1.99417e+07
-2.90456e+07
-2.32254e+07
-2.3956e+07
-3.0408e+07
-3.18597e+07
-3.1731e+07
-2.58478e+07
-2.42692e+07
-1.5578e+07
-3.23885e+07
-2.21313e+07
-3.39409e+07
-2.70313e+07
-3.02734e+07
-2.57016e+07
-1.95025e+07
-2.20862e+07
-3.01117e+07
-1.98152e+07
-1.14799e+07
-2.2234e+07
-3.05725e+07
-1.85067e+07
-2.79163e+07
-2.08986e+07
-3.3456e+07
-1.75944e+07
-2.09593e+07
-1.67429e+07
-1.80469e+07
-2.61414e+07
-2.6685e+07
-2.70097e+07
-1.69885e+07
-1.72051e+07
-2.26158e+07
-2.9229e+07
-2.06305e+07
-2.47959e+07
-2.43654e+07
-2.37026e+07
-2.408e+07
-1.97613e+07
-2.53999e+07
-2.60158e+07
-3.10907e+07
-1.38573e+07
-2.39874e+07
-3.23293e+07
-2.61133e+07
-3.01782e+07
-2.47945e+07
-2.45445e+07
-2.0498e+07
-2.57001e+07
-2.04946e+07
-2.81247e+07
-2.43034e+07
-3.04985e+07
-3.27759e+07
-2.31015e+07
-3.56056e+07
-2.44191e+07
-2.39771e+07
-1.50642e+07
-2.06919e+07
-1.4459e+07
-1.94286e+07
-2.01663e+07
-2.49427e+07
-2.49602e+07
-1.9791e+07
-2.53944e+07
-1.61269e+07
-2.95444e+07
-2.3033e+07
-1.8647e+07
-2.35496e+07
-2.37568e+07
-2.27268e+07
-1.85378e+07
-2.61516e+07
-1.72976e+07
-2.44199e+07
-2.73528e+07
-2.26954e+07
-2.10458e+07
-2.0953e+07
-2.24286e+07
-2.3197e+07
-2.13658e+07
-2.39664e+07
-2.27734e+07
-2.1555e+07
-2.42955e+07
-2.61588e+07
-2.82368e+07
-1.50009e+07
-1.4766e+07
-2.10903e+07
)
;

boundaryField
{
    inlet
    {
        type            calculated;
        value           uniform 0;
    }
    outlet
    {
        type            calculated;
        value           nonuniform 0();
    }
    wall
    {
        type            calculated;
        value           uniform 0;
    }
    procBoundary4to0
    {
        type            processor;
        value           nonuniform List<scalar> 
36
(
326.959
374.698
502.655
379.979
512.68
541.695
406.61
282.392
401.736
385.96
719.207
674.029
591.351
517.186
463.893
708.138
456.4
454.317
389.846
423.376
675.053
459.054
632.501
607.652
571.315
319.104
616.081
363.168
508.098
718.595
771.105
400.031
698.073
583.589
362.229
170.419
)
;
    }
    procBoundary4to5
    {
        type            processor;
        value           nonuniform List<scalar> 
12
(
447.854
531.935
548.658
666.542
499.515
395.155
493.266
352.183
173.985
477.454
414.484
479.735
)
;
    }
    procBoundary4to6
    {
        type            processor;
        value           nonuniform List<scalar> 
27
(
747.059
668.685
448.261
583.549
794.586
415.876
600.561
429.861
670.89
549.784
667.307
704.81
618.191
470.153
545.831
547.673
401.439
646.029
367.805
397.133
540.764
491.871
507.563
435.484
707.327
565.24
310.195
)
;
    }
}


// ************************************************************************* //
