/*--------------------------------*- C++ -*----------------------------------*\
| =========                 |                                                 |
| \\      /  F ield         | OpenFOAM: The Open Source CFD Toolbox           |
|  \\    /   O peration     | Version:  4.x                                   |
|   \\  /    A nd           | Web:      www.OpenFOAM.org                      |
|    \\/     M anipulation  |                                                 |
\*---------------------------------------------------------------------------*/
FoamFile
{
    version     2.0;
    format      ascii;
    class       volScalarField;
    location    "16.5";
    object      SPartFluid;
}
// * * * * * * * * * * * * * * * * * * * * * * * * * * * * * * * * * * * * * //

dimensions      [1 -3 -1 0 0 0 0];

internalField   nonuniform List<scalar> 
108
(
5.18474e-65
7.35082e-65
7.5042e-65
5.56862e-65
5.95275e-65
5.64313e-65
7.57814e-65
6.73398e-65
8.91686e-65
7.73853e-65
6.34515e-65
7.34941e-65
8.58449e-65
8.19532e-65
7.49875e-65
6.34185e-65
5.41968e-65
9.07188e-65
6.96502e-65
8.74423e-65
6.65366e-65
8.43125e-65
6.6509e-65
5.9549e-65
6.11234e-65
9.678e-65
5.65911e-65
4.33406e-65
5.72672e-65
7.58302e-65
5.18361e-65
7.34917e-65
6.34395e-65
9.2084e-65
5.96271e-65
5.96774e-65
5.34038e-65
5.10782e-65
7.04196e-65
7.6602e-65
6.96299e-65
5.26136e-65
4.48869e-65
6.97083e-65
8.21735e-65
5.64986e-65
6.50095e-65
5.80413e-65
6.42189e-65
5.95719e-65
5.95794e-65
6.65664e-65
7.89967e-65
8.13905e-65
4.41181e-65
6.26905e-65
7.81643e-65
7.1968e-65
7.66058e-65
7.27467e-65
6.65717e-65
6.66081e-65
6.82044e-65
6.6568e-65
7.19814e-65
5.95927e-65
8.51364e-65
8.43595e-65
6.73446e-65
9.60027e-65
7.90041e-65
6.8194e-65
4.95374e-65
6.6563e-65
4.41156e-65
6.73338e-65
5.72724e-65
8.05007e-65
7.20092e-65
6.2745e-65
7.20836e-65
5.34077e-65
8.74612e-65
5.80502e-65
5.49539e-65
6.19197e-65
7.19899e-65
6.34931e-65
5.65509e-65
7.59571e-65
5.41842e-65
7.35315e-65
7.4306e-65
7.35319e-65
5.65065e-65
6.57978e-65
6.42689e-65
7.51398e-65
6.27737e-65
7.43137e-65
7.04402e-65
5.80556e-65
7.66353e-65
6.96721e-65
9.21329e-65
4.49135e-65
4.88038e-65
6.35476e-65
)
;

boundaryField
{
    inlet
    {
        type            calculated;
        value           uniform 0;
    }
    outlet
    {
        type            calculated;
        value           nonuniform 0();
    }
    wall
    {
        type            calculated;
        value           uniform 0;
    }
    procBoundary4to0
    {
        type            processor;
        value           nonuniform List<scalar> 
36
(
4.56445e-65
4.87282e-65
5.72105e-65
5.33127e-65
6.09926e-65
7.40564e-65
4.78161e-65
4.09784e-65
4.96585e-65
5.49315e-65
8.12192e-65
7.26766e-65
6.72342e-65
5.79255e-65
5.94266e-65
8.3348e-65
6.57032e-65
5.51175e-65
4.56525e-65
4.95079e-65
7.26941e-65
5.71856e-65
7.26154e-65
8.02882e-65
6.71743e-65
5.10204e-65
8.06916e-65
5.26245e-65
5.88029e-65
7.8125e-65
9.20172e-65
4.48312e-65
9.11988e-65
7.11171e-65
5.41556e-65
2.32571e-65
)
;
    }
    procBoundary4to5
    {
        type            processor;
        value           nonuniform List<scalar> 
12
(
6.3654e-65
7.06382e-65
8.22441e-65
1.00058e-64
6.67214e-65
5.43002e-65
6.90251e-65
4.80755e-65
2.63711e-65
6.35877e-65
6.12538e-65
7.36561e-65
)
;
    }
    procBoundary4to6
    {
        type            processor;
        value           nonuniform List<scalar> 
27
(
1.03726e-64
7.58534e-65
4.95332e-65
7.42946e-65
9.3639e-65
6.11427e-65
7.35386e-65
6.506e-65
8.52487e-65
7.66392e-65
7.66351e-65
7.74078e-65
7.66327e-65
5.34163e-65
7.04551e-65
6.27254e-65
5.88725e-65
7.90465e-65
5.03207e-65
5.26414e-65
6.11587e-65
6.8904e-65
6.50379e-65
6.42725e-65
8.67475e-65
8.75462e-65
3.7975e-65
)
;
    }
}


// ************************************************************************* //
