/*--------------------------------*- C++ -*----------------------------------*\
| =========                 |                                                 |
| \\      /  F ield         | OpenFOAM: The Open Source CFD Toolbox           |
|  \\    /   O peration     | Version:  4.x                                   |
|   \\  /    A nd           | Web:      www.OpenFOAM.org                      |
|    \\/     M anipulation  |                                                 |
\*---------------------------------------------------------------------------*/
FoamFile
{
    version     2.0;
    format      ascii;
    class       volScalarField;
    location    "16.5";
    object      thCond;
}
// * * * * * * * * * * * * * * * * * * * * * * * * * * * * * * * * * * * * * //

dimensions      [1 1 -3 -1 0 0 0];

internalField   nonuniform List<scalar> 
108
(
191.739
191.3
190.987
190.963
190.857
190.803
190.592
190.489
190.148
191.323
191.124
190.809
190.535
190.482
190.491
190.473
190.41
190.055
191.252
190.864
190.677
190.377
190.377
190.381
190.291
190.054
190.206
191.305
190.974
190.608
190.482
190.243
190.203
189.953
190.203
190.198
191.697
191.399
190.98
190.688
190.644
190.695
190.636
190.262
189.999
191.457
191.104
190.886
190.63
190.545
190.47
190.342
190.104
189.946
191.375
190.921
190.547
190.324
190.208
190.174
190.139
190.061
190.042
191.016
190.761
190.574
190.148
190.013
190.022
189.818
189.972
190.033
191.7
191.276
191.246
190.81
190.672
190.308
190.3
190.285
190.187
191.444
190.879
190.926
190.756
190.559
190.3
190.299
190.254
190.054
191.253
190.786
190.555
190.361
190.366
190.181
190.197
190.085
190.117
190.93
190.763
190.622
190.206
190.091
189.867
190.215
190.248
190.158
)
;

boundaryField
{
    inlet
    {
        type            zeroGradient;
    }
    outlet
    {
        type            zeroGradient;
    }
    wall
    {
        type            zeroGradient;
    }
    procBoundary4to0
    {
        type            processor;
        value           nonuniform List<scalar> 
36
(
192.087
191.749
191.418
191.316
191.144
190.983
191.105
191.163
190.988
191.764
191.321
191.099
190.994
190.94
190.837
190.632
190.743
190.703
191.715
191.399
190.949
190.815
190.633
190.466
190.53
190.685
190.491
191.559
191.228
190.751
190.495
190.669
190.286
190.368
190.613
190.727
)
;
    }
    procBoundary4to5
    {
        type            processor;
        value           nonuniform List<scalar> 
12
(
190.336
190.132
189.961
189.764
190.222
190.163
190.003
190.011
190.696
190.24
190.097
189.959
)
;
    }
    procBoundary4to6
    {
        type            processor;
        value           nonuniform List<scalar> 
27
(
190.704
190.726
190.729
190.353
190.104
190.246
190.109
190.156
189.997
190.846
190.686
190.496
190.249
190.275
190.131
190.071
190.12
189.951
191.209
191.013
190.686
190.346
190.202
190.088
189.925
189.978
190.311
)
;
    }
}


// ************************************************************************* //
