/*--------------------------------*- C++ -*----------------------------------*\
| =========                 |                                                 |
| \\      /  F ield         | OpenFOAM: The Open Source CFD Toolbox           |
|  \\    /   O peration     | Version:  4.x                                   |
|   \\  /    A nd           | Web:      www.OpenFOAM.org                      |
|    \\/     M anipulation  |                                                 |
\*---------------------------------------------------------------------------*/
FoamFile
{
    version     2.0;
    format      ascii;
    class       volVectorField;
    location    "16.5";
    object      UsNext;
}
// * * * * * * * * * * * * * * * * * * * * * * * * * * * * * * * * * * * * * //

dimensions      [0 1 -1 0 0 0 0];

internalField   nonuniform List<vector> 
108
(
(5.66754e-07 2.57147e-07 2.60042e-07)
(1.52482e-06 5.23805e-07 1.2845e-06)
(3.37801e-06 5.42293e-07 1.64009e-06)
(5.23975e-06 1.12655e-06 2.16535e-06)
(7.46362e-06 1.06056e-07 3.00368e-06)
(9.52728e-06 2.87368e-06 2.84243e-06)
(1.20619e-05 -1.16476e-06 2.11314e-06)
(1.17352e-05 6.96233e-07 6.84639e-07)
(1.21055e-05 6.31175e-07 -1.80222e-06)
(9.52193e-07 5.59982e-07 1.08992e-06)
(3.22173e-06 9.97262e-07 1.94468e-06)
(4.88354e-06 1.13211e-06 2.65036e-06)
(7.00227e-06 6.92491e-07 2.85806e-06)
(1.00357e-05 9.10812e-07 3.3066e-06)
(1.28168e-05 1.01211e-06 4.11673e-06)
(1.74903e-05 3.09488e-07 2.43737e-06)
(2.16951e-05 -1.11162e-06 1.11116e-06)
(2.0867e-05 -1.57208e-07 -2.53903e-06)
(1.28181e-06 7.64911e-07 1.10644e-06)
(2.95447e-06 1.4326e-06 2.14891e-06)
(4.97195e-06 1.1225e-06 2.39377e-06)
(7.52906e-06 1.60511e-06 3.02838e-06)
(9.56023e-06 1.56162e-06 2.78055e-06)
(1.28441e-05 9.72478e-07 3.03512e-06)
(1.43153e-05 6.85754e-07 2.24528e-06)
(1.9665e-05 7.7784e-07 2.37756e-06)
(1.60955e-05 -3.7831e-07 -1.56439e-06)
(1.07147e-06 7.2972e-07 1.28293e-06)
(3.20302e-06 1.48389e-06 1.66733e-06)
(5.21092e-06 1.65542e-06 2.04566e-06)
(7.7219e-06 1.94989e-06 2.41527e-06)
(9.57721e-06 1.8753e-06 1.61497e-06)
(1.23745e-05 1.21333e-06 2.02424e-06)
(1.42462e-05 1.27354e-06 1.76619e-06)
(1.66369e-05 -5.16821e-07 1.12483e-06)
(1.38372e-05 -4.28304e-07 -5.32615e-07)
(9.09475e-07 9.7778e-08 4.45679e-07)
(2.07967e-06 -6.0323e-08 1.13148e-06)
(4.06054e-06 8.80842e-07 1.42379e-06)
(6.19565e-06 9.25355e-07 9.3732e-07)
(7.06066e-06 9.91407e-08 1.26174e-06)
(7.44897e-06 1.36496e-06 7.76403e-07)
(8.18699e-06 -1.07133e-06 2.86907e-07)
(1.29139e-05 2.57892e-06 1.52438e-07)
(1.1559e-05 4.15387e-08 -3.10941e-08)
(1.01666e-06 5.8577e-07 8.41532e-07)
(3.1826e-06 5.06512e-07 1.41731e-06)
(4.67326e-06 7.37694e-07 1.86697e-06)
(7.94704e-06 8.59767e-07 1.9922e-06)
(1.0865e-05 5.7953e-07 2.83156e-06)
(1.26037e-05 1.63106e-06 1.73589e-06)
(1.54829e-05 1.25469e-10 1.13128e-06)
(1.76687e-05 -2.32378e-07 1.1765e-06)
(1.72038e-05 7.20196e-07 -4.99415e-07)
(7.86821e-07 5.98134e-07 7.38709e-07)
(3.69579e-06 9.644e-07 1.5419e-06)
(5.12887e-06 1.0434e-06 1.20531e-06)
(7.78409e-06 1.14225e-06 1.63507e-06)
(1.03074e-05 6.45507e-07 1.73795e-06)
(1.29805e-05 7.62614e-07 1.86902e-06)
(1.5496e-05 8.27813e-07 1.34669e-06)
(1.75993e-05 3.30475e-07 8.36953e-07)
(1.56589e-05 -1.44342e-06 2.74664e-07)
(1.59188e-06 6.84439e-07 7.4496e-07)
(3.29043e-06 1.12757e-06 1.13525e-06)
(5.71538e-06 1.09791e-06 1.29248e-06)
(7.82368e-06 1.49978e-06 9.31617e-07)
(9.42513e-06 1.08516e-06 1.41467e-06)
(1.30619e-05 6.62375e-07 1.57905e-06)
(1.36985e-05 6.13462e-07 1.24227e-06)
(1.60221e-05 9.12224e-07 5.23994e-07)
(1.34158e-05 -3.12226e-07 -1.60905e-08)
(7.07193e-07 3.40408e-08 1.97117e-07)
(1.92305e-06 4.06648e-07 2.31363e-07)
(2.34159e-06 -1.10981e-07 5.47156e-07)
(3.1796e-06 6.66006e-07 2.94196e-07)
(3.05859e-06 6.39946e-07 -1.27129e-07)
(4.71334e-06 -1.24894e-07 -8.15492e-07)
(7.77751e-06 -1.43638e-06 -5.70032e-07)
(9.86957e-06 6.62802e-07 -7.16014e-07)
(7.12291e-06 -1.41777e-06 -5.62547e-07)
(1.00043e-06 3.35845e-07 -1.63721e-07)
(2.39797e-06 3.88001e-07 3.58566e-07)
(3.09772e-06 2.88266e-07 5.21834e-07)
(4.77782e-06 4.15946e-07 1.75533e-07)
(7.50747e-06 -6.40664e-07 1.29984e-06)
(9.05443e-06 1.34473e-07 -1.22725e-07)
(8.76082e-06 -5.10252e-07 4.67846e-07)
(1.20624e-05 -9.00167e-07 1.06022e-06)
(1.15168e-05 -6.39126e-07 -1.17354e-06)
(4.51385e-07 3.4194e-07 2.30686e-07)
(2.91793e-06 6.06953e-07 6.81028e-08)
(3.45137e-06 6.25176e-07 3.2514e-07)
(4.58232e-06 5.40255e-07 -3.54601e-07)
(7.74565e-06 7.05444e-08 1.46077e-06)
(9.61695e-06 2.45601e-07 -6.14686e-07)
(1.09657e-05 5.12223e-07 -6.56179e-07)
(1.16103e-05 9.62765e-07 8.67474e-07)
(1.04228e-05 -1.46757e-07 2.67507e-07)
(1.23515e-06 2.71231e-07 2.23372e-07)
(2.47235e-06 5.92058e-07 1.9482e-08)
(4.5228e-06 1.15294e-06 2.1386e-07)
(5.02005e-06 5.96409e-07 3.39876e-07)
(6.39514e-06 9.9101e-07 5.32078e-07)
(8.3861e-06 2.13575e-07 1.115e-06)
(9.87533e-06 -5.38764e-07 5.6952e-07)
(1.08222e-05 -4.48475e-07 -6.67637e-07)
(1.08973e-05 -7.39101e-08 -1.27778e-08)
)
;

boundaryField
{
    inlet
    {
        type            calculated;
        value           nonuniform List<vector> 
12
(
(5.66754e-07 2.57147e-07 2.60042e-07)
(9.52193e-07 5.59982e-07 1.08992e-06)
(1.28181e-06 7.64911e-07 1.10644e-06)
(1.07147e-06 7.2972e-07 1.28293e-06)
(9.09475e-07 9.7778e-08 4.45679e-07)
(1.01666e-06 5.8577e-07 8.41532e-07)
(7.86821e-07 5.98134e-07 7.38709e-07)
(1.59188e-06 6.84439e-07 7.4496e-07)
(7.07193e-07 3.40408e-08 1.97117e-07)
(1.00043e-06 3.35845e-07 -1.63721e-07)
(4.51385e-07 3.4194e-07 2.30686e-07)
(1.23515e-06 2.71231e-07 2.23372e-07)
)
;
    }
    outlet
    {
        type            calculated;
        value           nonuniform 0();
    }
    wall
    {
        type            calculated;
        value           nonuniform List<vector> 
63
(
(7.07193e-07 3.40408e-08 1.97117e-07)
(1.00043e-06 3.35845e-07 -1.63721e-07)
(4.51385e-07 3.4194e-07 2.30686e-07)
(1.23515e-06 2.71231e-07 2.23372e-07)
(1.92305e-06 4.06648e-07 2.31363e-07)
(2.39797e-06 3.88001e-07 3.58566e-07)
(2.91793e-06 6.06953e-07 6.81028e-08)
(2.47235e-06 5.92058e-07 1.9482e-08)
(2.34159e-06 -1.10981e-07 5.47156e-07)
(3.09772e-06 2.88266e-07 5.21834e-07)
(3.45137e-06 6.25176e-07 3.2514e-07)
(4.5228e-06 1.15294e-06 2.1386e-07)
(3.1796e-06 6.66006e-07 2.94196e-07)
(4.77782e-06 4.15946e-07 1.75533e-07)
(4.58232e-06 5.40255e-07 -3.54601e-07)
(5.02005e-06 5.96409e-07 3.39876e-07)
(3.05859e-06 6.39946e-07 -1.27129e-07)
(7.50747e-06 -6.40664e-07 1.29984e-06)
(7.74565e-06 7.05444e-08 1.46077e-06)
(6.39514e-06 9.9101e-07 5.32078e-07)
(4.71334e-06 -1.24894e-07 -8.15492e-07)
(9.05443e-06 1.34473e-07 -1.22725e-07)
(9.61695e-06 2.45601e-07 -6.14686e-07)
(8.3861e-06 2.13575e-07 1.115e-06)
(7.77751e-06 -1.43638e-06 -5.70032e-07)
(8.76082e-06 -5.10252e-07 4.67846e-07)
(1.09657e-05 5.12223e-07 -6.56179e-07)
(9.87533e-06 -5.38764e-07 5.6952e-07)
(9.86957e-06 6.62802e-07 -7.16014e-07)
(1.20624e-05 -9.00167e-07 1.06022e-06)
(1.16103e-05 9.62765e-07 8.67474e-07)
(1.08222e-05 -4.48475e-07 -6.67637e-07)
(7.12291e-06 -1.41777e-06 -5.62547e-07)
(1.15168e-05 -6.39126e-07 -1.17354e-06)
(1.04228e-05 -1.46757e-07 2.67507e-07)
(1.08973e-05 -7.39101e-08 -1.27778e-08)
(5.66754e-07 2.57147e-07 2.60042e-07)
(9.09475e-07 9.7778e-08 4.45679e-07)
(7.07193e-07 3.40408e-08 1.97117e-07)
(1.52482e-06 5.23805e-07 1.2845e-06)
(2.07967e-06 -6.0323e-08 1.13148e-06)
(1.92305e-06 4.06648e-07 2.31363e-07)
(3.37801e-06 5.42293e-07 1.64009e-06)
(4.06054e-06 8.80842e-07 1.42379e-06)
(2.34159e-06 -1.10981e-07 5.47156e-07)
(5.23975e-06 1.12655e-06 2.16535e-06)
(6.19565e-06 9.25355e-07 9.3732e-07)
(3.1796e-06 6.66006e-07 2.94196e-07)
(7.46362e-06 1.06056e-07 3.00368e-06)
(7.06066e-06 9.91407e-08 1.26174e-06)
(3.05859e-06 6.39946e-07 -1.27129e-07)
(9.52728e-06 2.87368e-06 2.84243e-06)
(7.44897e-06 1.36496e-06 7.76403e-07)
(4.71334e-06 -1.24894e-07 -8.15492e-07)
(1.20619e-05 -1.16476e-06 2.11314e-06)
(8.18699e-06 -1.07133e-06 2.86907e-07)
(7.77751e-06 -1.43638e-06 -5.70032e-07)
(1.17352e-05 6.96233e-07 6.84639e-07)
(1.29139e-05 2.57892e-06 1.52438e-07)
(9.86957e-06 6.62802e-07 -7.16014e-07)
(1.21055e-05 6.31175e-07 -1.80222e-06)
(1.1559e-05 4.15387e-08 -3.10941e-08)
(7.12291e-06 -1.41777e-06 -5.62547e-07)
)
;
    }
    procBoundary4to0
    {
        type            processor;
        value           nonuniform List<vector> 
36
(
(8.48387e-07 -2.93443e-07 5.0357e-07)
(1.60673e-06 1.29316e-06 1.92571e-06)
(1.76088e-06 -3.16202e-08 1.85824e-06)
(3.17441e-06 1.09682e-06 2.1161e-06)
(5.00563e-06 4.38939e-07 2.55008e-06)
(1.00359e-05 2.0108e-06 3.97032e-06)
(1.05471e-05 -1.16823e-07 3.45271e-06)
(1.89514e-05 -2.6233e-06 3.40036e-06)
(1.86559e-05 1.49825e-06 -3.24886e-06)
(1.10223e-06 3.65977e-07 1.14815e-06)
(2.38968e-06 9.89157e-07 2.42276e-06)
(3.44436e-06 7.46948e-07 2.51299e-06)
(6.22721e-06 1.61728e-06 3.48521e-06)
(8.69669e-06 1.28094e-06 4.12594e-06)
(1.30015e-05 3.26461e-07 4.33982e-06)
(1.53657e-05 9.79061e-07 5.61026e-06)
(2.77504e-05 4.1016e-07 4.30785e-06)
(2.34843e-05 2.82374e-07 -2.72726e-06)
(2.16916e-06 8.44553e-07 1.74095e-06)
(2.43277e-06 1.60244e-06 1.98331e-06)
(3.55561e-06 1.89084e-06 2.25824e-06)
(6.67961e-06 2.07888e-06 3.34116e-06)
(8.4676e-06 2.5807e-06 3.35502e-06)
(1.31703e-05 1.56641e-06 3.96158e-06)
(1.59574e-05 2.26796e-06 3.22983e-06)
(2.22779e-05 1.42567e-06 4.53362e-06)
(2.12264e-05 -2.21549e-06 -3.05441e-06)
(1.08972e-06 8.92437e-07 1.44001e-06)
(2.45273e-06 1.72318e-06 1.62464e-06)
(4.40439e-06 2.15551e-06 2.02961e-06)
(7.27795e-06 2.17953e-06 2.20338e-06)
(8.02255e-06 2.70378e-06 1.97427e-06)
(1.23499e-05 2.04928e-06 2.58215e-06)
(1.57582e-05 2.48092e-06 2.27844e-06)
(1.82584e-05 1.80103e-06 2.0443e-06)
(1.76876e-05 -1.99949e-06 -6.12033e-07)
)
;
    }
    procBoundary4to5
    {
        type            processor;
        value           nonuniform List<vector> 
12
(
(1.18358e-05 -4.16771e-08 -2.69565e-06)
(1.77136e-05 -1.14446e-06 -3.13121e-06)
(1.59106e-05 -1.31453e-06 -3.22973e-06)
(1.40446e-05 -1.17879e-06 -2.66165e-06)
(1.17624e-05 -2.42847e-06 -2.74111e-06)
(1.70368e-05 -1.57752e-06 -1.92011e-06)
(1.531e-05 -1.09052e-06 -1.13016e-06)
(1.46531e-05 -1.20051e-06 -1.0435e-06)
(4.25691e-06 1.29263e-06 -1.8293e-06)
(1.02548e-05 2.44435e-07 -2.15587e-06)
(7.26484e-06 3.89022e-07 -4.88116e-07)
(9.32581e-06 -3.37903e-07 2.9876e-07)
)
;
    }
    procBoundary4to6
    {
        type            processor;
        value           nonuniform List<vector> 
27
(
(1.80888e-06 9.03412e-07 1.01556e-06)
(3.02437e-06 1.12445e-06 1.68916e-06)
(5.53238e-06 1.30803e-06 1.56869e-06)
(8.42312e-06 1.65446e-06 1.89167e-06)
(9.43324e-06 1.8986e-06 1.90184e-06)
(1.20925e-05 1.22501e-06 1.67668e-06)
(1.27188e-05 9.71451e-07 1.33751e-06)
(1.60339e-05 1.69635e-07 -2.3478e-07)
(1.45778e-05 -3.84153e-07 -3.49109e-07)
(1.41944e-06 6.0607e-07 4.92237e-07)
(3.61197e-06 1.01149e-06 1.12529e-06)
(5.82611e-06 1.2371e-06 1.16281e-06)
(7.99525e-06 1.18681e-06 1.19808e-06)
(9.0738e-06 1.38256e-06 9.88737e-07)
(1.177e-05 1.36679e-06 3.52379e-07)
(1.30003e-05 7.02629e-07 7.73137e-07)
(1.60579e-05 1.65759e-07 -2.21563e-07)
(1.36252e-05 -8.58415e-08 4.73724e-07)
(1.41335e-06 3.74986e-07 2.78307e-07)
(2.5793e-06 8.73548e-07 5.24549e-07)
(4.39092e-06 9.89358e-07 8.97432e-07)
(5.57255e-06 5.16015e-07 3.90526e-07)
(6.39523e-06 1.09837e-06 5.82616e-07)
(8.39954e-06 9.68038e-07 8.9406e-07)
(9.91824e-06 -2.46273e-07 8.27826e-07)
(1.0452e-05 -2.31972e-07 -2.7158e-07)
(9.44331e-06 1.10354e-06 1.98164e-06)
)
;
    }
}


// ************************************************************************* //
