/*--------------------------------*- C++ -*----------------------------------*\
  =========                 |
  \\      /  F ield         | OpenFOAM: The Open Source CFD Toolbox
   \\    /   O peration     | Website:  https://openfoam.org
    \\  /    A nd           | Version:  4.x
     \\/     M anipulation  |
\*---------------------------------------------------------------------------*/
FoamFile
{
    version     2.0;
    format      ascii;
    class       vectorField;
    location    0;
    object      v;
}
// * * * * * * * * * * * * * * * * * * * * * * * * * * * * * * * * * * * * * //

301
(
( 0.000154423 -5.61212e-06 3.40059e-05 )  
( 0.000414771 1.03783e-05 -0.000212964 )  
( 0.000412044 2.9318e-06 -0.000197721 )  
( 0.000283681 4.71948e-05 -0.000111068 )  
( 0.000306358 4.94139e-05 -0.000123281 )  
( 0.00045565 5.66941e-06 -0.000274958 )  
( 0.000165536 -6.402e-05 1.63072e-05 )  
( 0.000404063 3.27516e-05 -0.000220532 )  
( 0.000357835 -1.62875e-05 -0.000163431 )  
( 0.000308512 -7.13378e-05 -0.000246213 )  
( 0.000475237 -4.31869e-05 -0.000292759 )  
( 9.95147e-05 -1.47797e-05 -3.67356e-05 )  
( 0.000521678 -8.12611e-05 -0.000425561 )  
( 0.000512952 -7.38259e-05 -0.000273751 )  
( 1.63853e-05 -2.7276e-05 -3.76894e-05 )  
( 0.00040316 -0.000164949 -0.000318539 )  
( 0.000586481 4.31328e-05 -0.000117604 )  
( 0.000540709 -9.59221e-05 -0.00039173 )  
( 0.000402776 -0.000106459 -0.000329303 )  
( 0.000288327 -3.07155e-05 -0.000184281 )  
( 0.000489564 -0.000112983 -0.000397336 )  
( 0.000532336 -0.000101964 -0.000395749 )  
( 0.000483013 -0.000116619 -0.000399543 )  
( 0.000348846 -0.00012218 -0.000272127 )  
( 0.000500942 -4.17689e-05 -0.000388857 )  
( 0.000429242 -8.88758e-05 -0.000335046 )  
( 0.000508595 -3.52936e-05 -0.00025689 )  
( 5.28288e-05 -4.32144e-05 -4.5942e-05 )  
( 0.000451061 -0.000119599 -0.000346839 )  
( 0.000294343 -6.64873e-05 -0.000272938 )  
( 0.000116266 -4.54759e-05 -6.69095e-05 )  
( 0.000336404 -4.31476e-05 -0.000242642 )  
( 5.32064e-05 -2.22285e-05 -2.72499e-05 )  
( 0.000391641 -3.51032e-05 -0.000289755 )  
( 0.000266579 1.97029e-05 -0.000164906 )  
( 0.000258963 -7.24158e-05 -0.000191994 )  
( 0.000474277 -0.000114954 -0.000355108 )  
( 0.000145162 -1.69616e-05 -9.82413e-05 )  
( 0.000309235 9.73857e-07 -0.000182253 )  
( 0.000342428 -2.23606e-05 -0.000268808 )  
( 0.000759849 0.000158502 -0.000194891 )  
( 0.000401473 -4.05173e-05 -0.000309642 )  
( 2.5781e-05 1.1032e-05 -1.40501e-05 )  
( 0.000414515 -1.17977e-05 -0.000308844 )  
( 0.000461299 -5.85894e-05 -0.000303562 )  
( 0.000512105 -8.45541e-05 -0.000378062 )  
( 4.4773e-05 -7.15035e-06 -1.90963e-05 )  
( 0.000273878 5.63633e-05 -6.48788e-05 )  
( 0.000149511 0.000116184 -0.000121695 )  
( 0.000455049 -4.81258e-05 -0.000386452 )  
( 0.000430651 -9.13843e-05 -0.000231629 )  
( 0.000307123 -4.51236e-05 -0.000198284 )  
( 0.000299452 -2.78297e-05 -0.000208211 )  
( 0.000380391 -2.00607e-05 -0.000316108 )  
( 0.000140351 9.7469e-06 -7.20738e-05 )  
( 0.000102656 2.43679e-05 -7.03121e-05 )  
( 0.000167015 2.86803e-05 -2.27011e-05 )  
( 0.00010788 -1.30383e-06 -1.91236e-05 )  
( 0.000278019 -1.47002e-05 -0.000159642 )  
( 0.000229064 1.14371e-05 -0.000150639 )  
( 0.000203473 -8.52741e-05 -0.000122163 )  
( 6.11436e-06 8.60531e-07 3.10851e-05 )  
( 2.78217e-05 -1.44581e-05 -1.57249e-05 )  
( 0.000100933 5.36883e-05 1.33832e-05 )  
( 0.000443083 -7.28786e-05 -0.000295759 )  
( 0.000323892 -3.01684e-05 -7.19283e-05 )  
( 0.000360645 -2.74478e-05 -0.000232159 )  
( 0.000176254 4.99783e-05 -0.000138528 )  
( 0.000559187 -6.36963e-05 -0.00027899 )  
( 0.000444889 -5.84715e-05 -0.000269912 )  
( 0.000438884 -1.66942e-05 -0.000283876 )  
( 0.000265424 5.03917e-05 -0.000163396 )  
( 0.00035798 -3.03353e-06 -0.00021379 )  
( 0.000322339 1.07339e-05 -0.000150556 )  
( 0.000117729 -2.36651e-05 -8.26049e-05 )  
( 0.000134814 0.00013981 1.06616e-05 )  
( 0.000284264 -8.53615e-05 -0.000268438 )  
( 0.000426427 -5.95035e-05 -0.000299364 )  
( 7.09879e-05 3.02791e-05 -3.17169e-05 )  
( 0.000562299 -9.14849e-05 -0.000394313 )  
( 0.000127818 -3.18666e-05 -3.4862e-05 )  
( 0.000474061 -9.2869e-06 -0.000319085 )  
( 0.000480645 -6.37375e-05 -0.000223821 )  
( 8.20457e-05 3.07853e-05 3.29796e-06 )  
( 0.000409179 5.02615e-05 -0.000296321 )  
( 0.000522526 -3.35774e-05 -0.000217014 )  
( 0.000125534 -1.51176e-06 -9.09576e-05 )  
( 0.00018726 -4.0983e-06 -9.56849e-05 )  
( 0.000480832 1.50005e-05 -0.00030767 )  
( 8.14052e-05 6.17015e-05 2.52552e-05 )  
( 0.000423181 -8.02509e-05 -0.000349171 )  
( 0.000436902 -2.33504e-05 -0.000308752 )  
( 0.000112123 -1.74732e-05 -3.44378e-05 )  
( 7.01302e-05 7.03771e-06 -9.12515e-05 )  
( 0.000409814 2.97902e-05 -0.00030102 )  
( 0.000304307 -1.71233e-05 -0.000175002 )  
( 0.00039811 6.57774e-05 -0.000121528 )  
( 5.53657e-05 7.28605e-05 -7.4028e-05 )  
( 0.000284392 -5.48443e-05 -0.000238766 )  
( 0.000534777 -7.39748e-05 -0.000394381 )  
( 0.000390805 -0.000100282 -0.000346174 )  
( 0.000282788 3.21591e-05 -9.90783e-05 )  
( 0.000350973 1.23166e-05 1.84252e-05 )  
( 0.000227413 2.66148e-05 -0.000216494 )  
( 0.000505823 6.18362e-05 -0.000177987 )  
( 0.000479718 6.48819e-05 -0.000237189 )  
( 0.00019264 9.10844e-05 -9.56204e-05 )  
( 0.000193503 2.33576e-05 -6.1309e-05 )  
( -2.99572e-06 -1.64788e-06 3.83623e-06 )  
( 0.000346396 2.73083e-05 -0.000256683 )  
( 0.000497201 -8.95339e-05 -0.000390592 )  
( 0.000470828 -4.01687e-05 -0.000360797 )  
( 0.00034096 -7.82474e-05 -0.000309417 )  
( 5.69028e-06 6.20808e-05 -3.46346e-06 )  
( 0.000231569 -6.48567e-06 -0.000106181 )  
( 0.000273114 5.95322e-05 -0.000193988 )  
( 5.67419e-05 -1.42044e-05 -1.91629e-05 )  
( 0.00029633 -5.79244e-05 -0.00026269 )  
( 0.000134998 1.15237e-05 -4.18231e-05 )  
( 0.000469929 3.6027e-05 -5.33579e-05 )  
( 0.000449261 -7.8434e-05 -0.000291222 )  
( 0.00041728 -1.19378e-05 -0.000252192 )  
( 0.000497869 -8.10095e-05 -0.00038404 )  
( 6.12288e-05 -7.77247e-06 -2.57255e-05 )  
( 0.000385983 -7.29769e-05 -0.00022165 )  
( 0.00021651 1.49829e-06 -9.48997e-05 )  
( 1.02949e-05 8.45512e-06 -2.46513e-05 )  
( 0.000223514 -3.42564e-05 -0.000138365 )  
( 2.01869e-05 9.37237e-06 6.6192e-06 )  
( 0.000311242 -6.09234e-05 -0.000204179 )  
( 3.28908e-05 8.77757e-05 1.62029e-05 )  
( 0.000441078 6.71633e-06 -0.0001175 )  
( 0.000179474 -2.61961e-05 -0.000116503 )  
( 7.86007e-05 -1.71867e-09 -9.82091e-05 )  
( 9.83673e-05 4.20859e-05 4.76414e-07 )  
( 0.000476492 -6.33916e-05 -0.000336238 )  
( -5.80361e-05 -0.00025237 -9.69511e-05 )  
( 3.20687e-05 -3.3784e-06 -2.54077e-05 )  
( 0.000457956 -0.000120503 -0.000386959 )  
( 9.24233e-05 5.99483e-06 -5.20429e-05 )  
( 4.31168e-05 2.91761e-05 -4.56965e-06 )  
( 0.000159768 -3.18659e-05 -0.000107005 )  
( 0.000482576 -9.17034e-05 -0.000398754 )  
( 0.000149188 -5.44731e-05 -0.000116584 )  
( 2.18227e-05 1.0458e-05 -9.7668e-06 )  
( 3.10416e-05 2.93775e-05 2.8102e-05 )  
( 0.000281577 -2.2162e-05 -0.00014321 )  
( 0.00030593 -6.66363e-05 -0.000222355 )  
( 6.19507e-05 -8.60265e-06 -2.46381e-05 )  
( 6.60416e-05 2.56638e-07 -5.32404e-05 )  
( 0.000452505 -0.000117263 -0.000340299 )  
( 0.000183137 -1.502e-05 -5.14617e-05 )  
( 0.000396001 -4.93033e-05 -0.000252616 )  
( 0.000360441 2.83028e-05 -0.000246004 )  
( 0.000225154 3.35572e-05 -0.000162025 )  
( 0.000472508 -8.56694e-05 -0.000265394 )  
( 5.1929e-05 -8.73354e-06 -8.63009e-05 )  
( 0.000329619 -3.8808e-05 -0.000215494 )  
( 0.000167354 -1.61045e-05 -9.50894e-05 )  
( 0.000283077 -4.37754e-05 -0.000172536 )  
( 0.000242077 -4.65621e-05 -0.00017347 )  
( 3.46208e-06 3.39193e-06 4.69416e-06 )  
( 0.000552073 -4.28379e-05 -0.000225085 )  
( 0.00046124 -9.84932e-05 -0.000357501 )  
( 2.39522e-05 5.84115e-06 -3.07117e-06 )  
( 2.72186e-06 3.2839e-06 4.14707e-06 )  
( 0.000311948 5.22425e-05 -0.000157546 )  
( 0.000219057 -2.80316e-05 -0.000101532 )  
( 2.80995e-05 3.39865e-05 3.21509e-05 )  
( 0.000282618 -3.39563e-05 -0.000180044 )  
( 4.50999e-05 9.84343e-06 -4.29432e-06 )  
( 4.22879e-05 3.75677e-05 1.03766e-05 )  
( 0.000382109 3.75608e-05 -0.000217333 )  
( 0.000319602 -7.69511e-06 -0.000180381 )  
( 6.35231e-05 -1.87173e-05 -6.29778e-05 )  
( 0.000128201 1.69098e-05 -6.44085e-05 )  
( 2.23875e-05 1.57277e-05 -4.09952e-05 )  
( 3.36366e-05 1.61845e-05 4.17583e-06 )  
( 0.000424834 -4.94507e-05 -0.000275953 )  
( 0.000531792 0.000330627 -0.000147753 )  
( 0.000512384 -6.01245e-05 -0.000198294 )  
( 0.000101213 2.67969e-05 -3.61558e-05 )  
( 9.71541e-05 -7.46185e-05 -0.000114547 )  
( 0.000397736 2.54355e-05 -0.000218576 )  
( 5.21565e-05 0.000103803 -1.10236e-05 )  
( 0.000276101 -7.41469e-05 -0.000224903 )  
( 6.50627e-05 2.43997e-06 -4.76607e-05 )  
( 3.14732e-05 5.45201e-05 -2.18181e-06 )  
( 0.000280796 -3.83741e-05 -0.000185317 )  
( 0.000354323 -6.40836e-05 -0.000229914 )  
( 0.000278463 6.12186e-05 -0.00011626 )  
( 0.000460787 -3.78063e-05 -0.000345451 )  
( 2.7122e-05 -2.08776e-07 -1.1171e-05 )  
( 0.00012706 -6.59698e-06 -0.000113389 )  
( 6.59703e-05 9.87659e-07 -6.6762e-05 )  
( 0.000348923 -4.46758e-05 -0.000214076 )  
( 3.4903e-05 7.68791e-06 -2.24789e-05 )  
( 0.000233944 -3.58855e-05 -0.000192423 )  
( 3.62992e-05 -5.86013e-06 -4.51987e-06 )  
( 0.000250714 -1.56966e-06 -0.000167535 )  
( 8.80118e-05 -1.63583e-05 -0.000103285 )  
( 0.000170436 4.94023e-06 -0.000143712 )  
( 0.000132832 -3.52516e-05 -9.48192e-05 )  
( 7.05385e-05 -1.41891e-05 -2.41526e-05 )  
( 0.0001134 4.17217e-05 -6.44383e-05 )  
( 0.000180754 -2.90712e-05 -0.000171131 )  
( 8.32717e-05 -1.80243e-05 -4.94764e-05 )  
( 0.00013234 1.42288e-06 -9.45653e-05 )  
( 3.61323e-05 -1.38282e-05 -5.56034e-05 )  
( 0.000137571 1.46697e-05 -0.000107649 )  
( 8.89252e-05 -2.726e-05 -5.68595e-05 )  
( 9.28276e-06 9.99147e-07 1.28729e-06 )  
( 0.000125541 -1.63809e-05 -7.58106e-05 )  
( 0.000388998 -5.21438e-05 -0.000251324 )  
( 0.00015575 -1.92574e-05 -0.000126326 )  
( 0.000115349 -4.76401e-05 -1.3602e-05 )  
( 0.000354877 -6.15566e-05 -0.000247689 )  
( 0.00019445 -1.35049e-05 -0.000102366 )  
( 0.000156593 4.75213e-05 -8.35559e-05 )  
( 0.000387888 -7.69719e-05 -0.000235404 )  
( 8.76665e-05 -1.70164e-05 -0.000107018 )  
( 1.49365e-05 2.29897e-05 1.83812e-05 )  
( 5.07628e-06 2.19512e-06 3.82161e-06 )  
( 0.000402214 -4.91873e-06 -0.00019136 )  
( 0.000461939 -5.03364e-07 -0.000303723 )  
( 0.000169618 -1.40385e-05 -8.76896e-05 )  
( 0.000356502 -8.02653e-05 -0.000262802 )  
( 0.000461551 -2.4624e-05 -0.000353064 )  
( 1.74585e-05 2.84973e-05 -2.5693e-05 )  
( 0.000454238 -0.000121063 -0.000318994 )  
( 2.79809e-05 -5.58193e-06 -1.34595e-05 )  
( 0.000232659 -7.44192e-05 -0.000198288 )  
( 0.000445611 1.04041e-05 -0.000271191 )  
( 0.000291554 -7.93538e-05 -0.000198887 )  
( 2.98086e-05 9.13845e-06 -1.54274e-05 )  
( 5.26537e-05 -1.94456e-05 -2.82575e-05 )  
( 0.000300427 -4.14837e-05 -0.000131478 )  
( 0.000482387 -0.000102409 -0.000320467 )  
( 0.000458275 -2.26149e-05 -0.000246006 )  
( 0.000410422 -3.91526e-05 -0.00025876 )  
( 0.00023726 -2.99343e-05 -0.000157414 )  
( 0.000456411 -4.57733e-05 -0.000330935 )  
( 0.000198461 -4.14557e-05 -0.000177003 )  
( 0.000474323 -0.000121675 -0.00039064 )  
( 0.000450095 -2.76155e-05 -0.000295425 )  
( 0.000323831 -8.15684e-06 -0.000200218 )  
( 3.73671e-05 -2.95207e-06 -2.15056e-05 )  
( 0.000574614 -0.00015867 -0.000371204 )  
( 0.000350756 -6.22206e-06 -0.000240992 )  
( 0.000321356 -4.79847e-05 -0.00021493 )  
( 0.00036323 2.39638e-05 -0.000174786 )  
( 0.000473896 -8.54927e-05 -0.000365404 )  
( 0.000292472 -8.97564e-05 -0.000306588 )  
( 0.00040374 -9.69127e-05 -0.000293316 )  
( 0.00019644 -1.09526e-05 -0.000130136 )  
( 0.000305329 -6.58292e-05 -0.000280614 )  
( 4.01147e-05 -3.13497e-06 -1.47497e-05 )  
( 0.000388113 -6.53877e-05 -0.000242542 )  
( 0.000247453 -3.98416e-05 -0.000144675 )  
( 0.000153529 2.2384e-06 -0.000154704 )  
( 0.000330966 -0.000108124 -0.000270959 )  
( 0.000127781 -1.89563e-05 -6.67343e-05 )  
( 0.000152344 -5.45177e-05 -7.62846e-05 )  
( 5.09552e-05 -3.43652e-06 -1.17614e-05 )  
( 0.000411104 -1.45069e-05 -0.000216781 )  
( 0.000164416 -3.96523e-05 -0.000138112 )  
( 0.000248031 -6.50683e-05 -0.000267056 )  
( 4.03897e-05 -7.62338e-06 -1.12799e-05 )  
( 0.000386955 -7.26551e-05 -0.00029387 )  
( 8.58946e-05 -2.39625e-06 -3.07625e-05 )  
( 0.000409126 -8.29877e-05 -0.000286441 )  
( 0.000120451 -2.9219e-05 -6.43187e-05 )  
( 0.000191756 2.14544e-05 -0.000146056 )  
( 0.000109246 -1.49462e-05 -6.08267e-05 )  
( 0.000481567 -0.000129512 -0.000354455 )  
( 0.000488441 -0.000149111 -0.00038806 )  
( 0.000185664 8.44539e-05 -3.62832e-05 )  
( 0.00058175 -5.18298e-05 -0.000322852 )  
( 0.000601912 -3.30152e-05 -0.000283041 )  
( -3.28256e-05 0.000276848 -0.000164534 )  
( 0.000499586 0.000105303 -0.000327259 )  
( 0.000599981 3.1173e-05 -0.000298414 )  
( 0.000188471 0.000162228 -0.000110528 )  
( 0.00044095 4.75874e-05 -0.000328533 )  
( 0.00042023 0.000242915 -0.000378544 )  
( 0.000330093 0.000110915 -0.000220465 )  
( 0.000269651 0.000162881 -0.000132104 )  
( 0.000135432 0.000176654 -9.35359e-05 )  
( 0.000435972 2.02375e-05 -0.000263495 )  
( 0.000423876 5.48691e-05 -0.000252734 )  
( 0.000206111 8.21823e-05 -0.000146704 )  
( 4.03617e-05 3.323e-05 -5.58479e-05 )  
( 0.000303805 2.38231e-05 -4.61101e-05 )  
( 9.76445e-05 1.28382e-05 -5.92343e-05 )  
( 0.000572917 1.43001e-05 -0.000224306 )  
( 0.000487769 -4.00132e-05 -0.000401454 )  
( 0.000475271 0.000201977 -0.000165913 )  
( 0.000291443 -5.92657e-05 -0.000138124 )  
( 0.000430678 1.76198e-05 -0.000281268 )  
( 0.000453145 2.31604e-05 -0.000323761 )  
( 0.000134204 -6.99441e-05 -9.79973e-05 )  
)
