/*--------------------------------*- C++ -*----------------------------------*\
| =========                 |                                                 |
| \\      /  F ield         | OpenFOAM: The Open Source CFD Toolbox           |
|  \\    /   O peration     | Version:  4.x                                   |
|   \\  /    A nd           | Web:      www.OpenFOAM.org                      |
|    \\/     M anipulation  |                                                 |
\*---------------------------------------------------------------------------*/
FoamFile
{
    version     2.0;
    format      ascii;
    class       volScalarField;
    location    "25";
    object      Cs;
}
// * * * * * * * * * * * * * * * * * * * * * * * * * * * * * * * * * * * * * //

dimensions      [1 -3 0 0 0 0 0];

internalField   nonuniform List<scalar> 
87
(
334.993
334.98
334.988
334.989
334.988
334.989
334.985
334.983
338.5
335.007
334.997
334.995
334.995
334.992
334.989
334.98
334.975
334.311
335
334.998
334.995
334.993
334.987
334.978
334.962
334.942
334.847
335.007
334.996
334.994
334.992
334.988
334.983
334.972
334.966
334.204
334.999
334.988
334.98
334.973
334.957
334.95
334.928
334.929
334.673
334.988
334.981
334.964
334.946
334.922
334.911
334.895
334.899
334.869
335.001
334.996
334.992
334.987
334.979
334.971
334.955
334.946
334.553
334.988
334.973
334.953
334.926
334.896
334.882
334.874
334.882
334.836
334.976
334.967
334.954
334.939
334.93
334.921
334.929
334.921
334.958
334.999
334.998
334.996
334.996
334.99
334.991
)
;

boundaryField
{
    inlet
    {
        type            calculated;
        value           nonuniform 0();
    }
    outlet
    {
        type            calculated;
        value           uniform 335;
    }
    wall
    {
        type            calculated;
        value           nonuniform List<scalar> 
57
(
334.993
335.007
335
334.98
334.997
334.998
334.988
334.995
334.995
334.989
334.995
334.993
334.988
334.992
334.987
334.989
334.989
334.978
334.985
334.98
334.962
334.983
334.975
334.942
338.5
334.311
334.847
334.993
335.007
335.001
334.999
334.98
334.996
334.996
334.998
334.988
334.994
334.992
334.996
334.989
334.992
334.987
334.988
334.988
334.979
334.989
334.983
334.971
334.985
334.972
334.955
334.983
334.966
334.946
338.5
334.204
334.553
)
;
    }
    procBoundary1to0
    {
        type            processor;
        value           nonuniform List<scalar> 
12
(
334.982
335.005
334.999
335.004
335
334.996
335
334.992
334.99
335
334.998
334.995
)
;
    }
    procBoundary1to3
    {
        type            processor;
        value           nonuniform List<scalar> 
27
(
335.003
334.999
334.997
334.994
334.989
334.984
334.971
334.959
335.867
334.992
334.979
334.964
334.946
334.917
334.903
334.883
334.887
334.833
334.978
334.955
334.938
334.924
334.904
334.896
334.896
334.897
334.939
)
;
    }
    procBoundary1to5
    {
        type            processor;
        value           nonuniform List<scalar> 
32
(
334.994
334.99
334.986
334.977
334.966
334.719
334.985
334.976
334.968
334.954
334.949
334.935
334.935
334.983
334.974
334.964
334.956
334.95
334.952
334.949
335.01
334.999
334.997
334.994
334.985
334.996
334.993
334.985
334.983
334.987
334.983
334.99
)
;
    }
    procBoundary1to7
    {
        type            processor;
        value           uniform 334.988;
    }
}


// ************************************************************************* //
