/*--------------------------------*- C++ -*----------------------------------*\
| =========                 |                                                 |
| \\      /  F ield         | OpenFOAM: The Open Source CFD Toolbox           |
|  \\    /   O peration     | Version:  4.x                                   |
|   \\  /    A nd           | Web:      www.OpenFOAM.org                      |
|    \\/     M anipulation  |                                                 |
\*---------------------------------------------------------------------------*/
FoamFile
{
    version     2.0;
    format      ascii;
    class       volVectorField;
    location    "25";
    object      ddtUrel;
}
// * * * * * * * * * * * * * * * * * * * * * * * * * * * * * * * * * * * * * //

dimensions      [0 1 -2 0 0 0 0];

internalField   nonuniform List<vector> 
87
(
(-0.000304197 -4.27009e-05 4.14005e-05)
(-0.000277038 -4.96977e-05 1.6502e-05)
(-0.000274943 -2.02531e-05 9.09625e-06)
(-0.000257548 -1.20821e-06 1.15576e-05)
(-0.000224195 9.94297e-06 2.24762e-05)
(-0.000187948 1.08309e-05 3.18064e-05)
(-0.000157719 1.24681e-05 3.40215e-05)
(-0.0001363 1.45033e-05 3.27119e-05)
(-0.000115383 1.21672e-05 2.94646e-05)
(-0.000361126 -5.36344e-05 4.36459e-05)
(-0.000347333 -3.83884e-05 2.38902e-05)
(-0.000327182 -1.99525e-05 1.76378e-05)
(-0.000307451 -7.78771e-07 2.01801e-05)
(-0.00027321 1.26547e-05 2.78118e-05)
(-0.000225858 1.02613e-05 4.46358e-05)
(-0.000182902 1.24676e-05 4.62448e-05)
(-0.000148319 1.21256e-05 4.13038e-05)
(-0.000123944 1.02795e-05 3.60959e-05)
(-0.000423282 -7.75438e-05 4.42622e-05)
(-0.000409887 -5.24704e-05 3.23307e-05)
(-0.000390943 -3.00275e-05 2.52172e-05)
(-0.000357701 -1.36206e-05 3.23327e-05)
(-0.000315866 -1.7887e-06 4.38685e-05)
(-0.000263759 1.59347e-07 5.8803e-05)
(-0.000215208 1.36543e-08 6.38757e-05)
(-0.000166598 4.18451e-06 5.3764e-05)
(-0.000135603 3.11374e-06 4.57265e-05)
(-0.000282468 -3.38961e-05 4.42436e-05)
(-0.00027054 -3.00336e-05 2.32693e-05)
(-0.000256888 -1.68698e-05 1.40812e-05)
(-0.000236703 -1.80106e-06 1.31966e-05)
(-0.000207028 5.46057e-06 1.92439e-05)
(-0.000172309 5.84903e-06 2.68642e-05)
(-0.000144716 7.43413e-06 3.0249e-05)
(-0.000121114 8.62017e-06 2.86593e-05)
(-0.000103952 8.47498e-06 2.6358e-05)
(-0.000329383 -4.58095e-05 4.78074e-05)
(-0.000319104 -3.43044e-05 2.83211e-05)
(-0.000303634 -1.99042e-05 2.00692e-05)
(-0.000282706 -3.73032e-06 1.89517e-05)
(-0.000249365 5.28168e-06 2.48649e-05)
(-0.000207225 5.29448e-06 3.64932e-05)
(-0.000170145 5.52964e-06 4.08765e-05)
(-0.000137184 6.2235e-06 3.61272e-05)
(-0.000114197 5.98944e-06 3.22443e-05)
(-0.000383246 -6.26507e-05 4.86044e-05)
(-0.000373598 -4.75863e-05 3.27598e-05)
(-0.000356113 -3.20913e-05 2.47203e-05)
(-0.00032796 -1.5959e-05 2.86089e-05)
(-0.000290983 -5.90538e-06 3.81244e-05)
(-0.000243401 -3.69715e-06 4.96978e-05)
(-0.000198271 -3.99293e-06 5.47645e-05)
(-0.000157762 -1.3937e-06 4.59636e-05)
(-0.000126797 -2.30156e-07 4.01708e-05)
(-0.000244016 -2.64564e-05 4.81014e-05)
(-0.00023758 -2.27556e-05 3.05128e-05)
(-0.000223623 -1.46946e-05 1.95453e-05)
(-0.000205531 -3.36344e-06 1.58827e-05)
(-0.000181173 2.69716e-06 1.84524e-05)
(-0.00015314 3.51446e-06 2.32974e-05)
(-0.000127629 3.20652e-06 2.50073e-05)
(-0.000106237 4.53639e-06 2.32009e-05)
(-9.01928e-05 5.08243e-06 2.17848e-05)
(-0.00028243 -3.49097e-05 5.15715e-05)
(-0.000275038 -2.8265e-05 3.33992e-05)
(-0.000260683 -1.83812e-05 2.1941e-05)
(-0.000241454 -7.04551e-06 1.9345e-05)
(-0.000211668 4.87986e-07 2.27951e-05)
(-0.000176955 8.37125e-07 2.94783e-05)
(-0.000146384 6.82009e-07 3.15302e-05)
(-0.000120594 2.57229e-06 2.84942e-05)
(-0.000100753 3.37865e-06 2.5695e-05)
(-0.0003236 -4.44149e-05 4.96722e-05)
(-0.000318522 -3.63298e-05 3.32163e-05)
(-0.000300204 -2.47545e-05 2.38766e-05)
(-0.000277655 -1.70794e-05 2.45006e-05)
(-0.0002462 -1.04638e-05 3.02709e-05)
(-0.000205702 -6.57082e-06 3.7854e-05)
(-0.000168295 -6.14516e-06 3.88766e-05)
(-0.000136477 -3.13103e-06 3.44036e-05)
(-0.000112997 -1.14658e-06 3.07405e-05)
(-0.000201474 -1.93978e-05 4.72176e-05)
(-0.000193448 -1.83156e-05 3.25026e-05)
(-0.000183703 -1.24846e-05 2.10921e-05)
(-0.000228702 -2.28464e-05 5.12569e-05)
(-0.00022529 -2.19255e-05 3.45301e-05)
(-0.000257823 -2.6725e-05 4.92696e-05)
)
;

boundaryField
{
    inlet
    {
        type            calculated;
        value           nonuniform 0();
    }
    outlet
    {
        type            calculated;
        value           nonuniform List<vector> 9((-5.41145e-05 2.232e-05 7.24328e-06) (-6.24461e-05 3.30941e-05 1.98597e-05) (-7.24079e-05 2.67967e-05 4.567e-05) (-2.23609e-05 1.45659e-05 5.2582e-06) (-4.04379e-05 1.09263e-05 2.04639e-05) (-5.37579e-05 8.17524e-06 4.13302e-05) (-1.97267e-05 1.03823e-05 9.10689e-06) (-3.43721e-05 1.16552e-05 1.4116e-05) (-5.43364e-05 9.84213e-06 1.91307e-05));
    }
    wall
    {
        type            calculated;
        value           nonuniform List<vector> 
57
(
(-0.000259886 -2.525e-05 1.19977e-05)
(-0.000448959 -6.74667e-05 1.44883e-06)
(-0.000580532 -0.000155079 5.97713e-05)
(-8.38163e-06 -0.000260075 -8.3081e-05)
(-0.000487575 1.75831e-05 -3.67242e-05)
(-0.000642844 -2.91848e-05 6.03369e-05)
(-0.000218763 6.22675e-07 -6.29779e-05)
(-0.000367449 1.11028e-05 -1.71588e-05)
(-0.000664715 3.81704e-05 4.04153e-06)
(-0.000224369 2.53343e-05 -4.76884e-05)
(-0.00042263 6.62483e-05 -3.06525e-06)
(-0.00055616 4.49388e-05 4.84571e-05)
(-0.000152695 4.77646e-05 2.06579e-05)
(-0.00039865 0.000140275 -2.56986e-05)
(-0.00048994 6.62264e-05 4.76316e-05)
(-0.000111038 2.47986e-05 3.12145e-05)
(-0.000279283 3.93074e-05 0.000115427)
(-0.000376502 5.31838e-05 0.000108147)
(-9.07546e-05 2.75649e-05 1.98736e-05)
(-0.000180364 8.03477e-05 6.75592e-05)
(-0.000319532 1.27378e-05 0.000149896)
(-0.000148484 5.28183e-05 2.63661e-05)
(-0.000133477 5.16585e-05 4.5968e-05)
(-0.000176071 5.89677e-05 8.25303e-05)
(-5.62672e-05 2.21162e-05 8.42615e-06)
(-6.87761e-05 3.45002e-05 2.18651e-05)
(-7.70832e-05 2.79701e-05 4.59831e-05)
(-0.000257611 -2.69576e-05 1.32432e-05)
(-0.000227815 8.43384e-07 1.00242e-05)
(-0.000161768 -1.2597e-05 3.44656e-05)
(-0.000129639 -2.2578e-05 3.05642e-05)
(2.01951e-05 -0.000264526 -8.3905e-05)
(-0.00020534 -1.06955e-05 -3.03622e-05)
(-0.000181308 -1.08844e-05 1.66345e-05)
(-8.47367e-05 -2.83102e-05 2.99361e-05)
(-0.000195455 1.41985e-06 -6.18197e-05)
(-0.000179367 -1.093e-05 -3.17917e-05)
(-0.000140257 -1.37541e-05 1.90027e-06)
(-9.30484e-05 -1.30239e-05 1.24455e-05)
(-0.000220982 2.57832e-05 -4.74024e-05)
(-0.000159446 3.23523e-05 -3.00446e-05)
(-0.000130996 2.39901e-05 -5.6093e-06)
(-0.000135591 4.89997e-05 2.17698e-05)
(-0.000121725 2.29289e-05 -1.16373e-05)
(-0.00011412 2.64495e-05 5.9518e-06)
(-9.3378e-05 2.39889e-05 2.88963e-05)
(-5.48084e-05 -4.91002e-06 7.33106e-06)
(-8.56941e-05 1.71256e-05 2.14904e-05)
(-8.9382e-05 2.75876e-05 1.98408e-05)
(-7.21648e-05 1.20166e-05 1.9392e-05)
(-6.95025e-05 -1.42563e-06 2.05443e-05)
(-0.000144455 5.38571e-05 2.62626e-05)
(-5.57622e-05 1.5318e-05 1.20615e-05)
(-5.68685e-05 7.89754e-06 8.98653e-06)
(-5.49084e-05 2.23384e-05 8.10792e-06)
(-2.38121e-05 1.47634e-05 5.42418e-06)
(-2.14656e-05 1.03373e-05 9.75053e-06)
)
;
    }
    procBoundary1to0
    {
        type            processor;
        value           nonuniform List<vector> 
12
(
(-0.000314506 -3.83656e-05 7.12067e-05)
(-0.000369493 -5.56293e-05 7.37962e-05)
(-0.000442666 -8.51786e-05 6.20572e-05)
(-0.000283406 -3.67869e-05 7.23867e-05)
(-0.000333396 -4.73245e-05 7.78269e-05)
(-0.000385161 -6.40189e-05 7.03898e-05)
(-0.000245229 -2.67681e-05 7.11737e-05)
(-0.000280797 -3.44019e-05 7.68979e-05)
(-0.000317129 -4.43623e-05 7.4575e-05)
(-0.000203981 -1.69584e-05 6.72666e-05)
(-0.000227231 -2.05261e-05 7.24257e-05)
(-0.00025171 -2.33947e-05 7.03292e-05)
)
;
    }
    procBoundary1to3
    {
        type            processor;
        value           nonuniform List<vector> 
27
(
(-0.000470635 -0.000106262 2.92568e-05)
(-0.00043857 -7.61794e-05 2.49761e-05)
(-0.000413058 -5.37552e-05 2.41035e-05)
(-0.000379727 -3.85268e-05 3.9023e-05)
(-0.000335681 -2.39361e-05 6.10522e-05)
(-0.000282933 -2.12799e-05 7.66408e-05)
(-0.000232761 -1.73252e-05 7.82652e-05)
(-0.000174911 -1.05461e-05 6.2557e-05)
(-0.000144519 -9.82215e-06 5.27509e-05)
(-0.000418418 -8.21516e-05 3.54844e-05)
(-0.000402045 -6.35953e-05 2.51226e-05)
(-0.000380871 -4.77633e-05 2.48612e-05)
(-0.000351766 -3.42226e-05 3.64057e-05)
(-0.000310646 -2.40382e-05 5.20354e-05)
(-0.000262321 -2.18085e-05 6.50726e-05)
(-0.000214293 -1.90951e-05 6.54528e-05)
(-0.0001675 -1.36394e-05 5.34076e-05)
(-0.000134788 -1.04981e-05 4.56081e-05)
(-0.000348857 -5.33149e-05 3.78196e-05)
(-0.000341465 -4.43812e-05 2.58298e-05)
(-0.000325996 -3.50015e-05 2.10275e-05)
(-0.000303094 -2.80759e-05 2.82153e-05)
(-0.00026545 -2.24006e-05 3.78115e-05)
(-0.000221884 -1.91707e-05 4.58676e-05)
(-0.000183604 -1.51463e-05 4.61522e-05)
(-0.000146138 -1.05208e-05 3.92728e-05)
(-0.000119806 -8.05524e-06 3.40382e-05)
)
;
    }
    procBoundary1to5
    {
        type            processor;
        value           nonuniform List<vector> 
32
(
(-0.000171453 -4.96091e-06 1.54324e-05)
(-0.000152657 -4.97974e-07 1.52288e-05)
(-0.00013137 8.10022e-07 1.77935e-05)
(-0.000109155 1.02491e-06 1.84973e-05)
(-9.02982e-05 2.17982e-06 1.71492e-05)
(-7.26633e-05 1.89814e-06 1.57097e-05)
(-0.000214871 -1.51519e-05 2.16546e-05)
(-0.00019812 -7.87077e-06 1.73043e-05)
(-0.000176022 -2.83872e-06 1.75033e-05)
(-0.000149248 -1.43998e-06 2.06851e-05)
(-0.000124668 -1.02035e-06 2.20718e-05)
(-0.000102139 1.04463e-06 2.01271e-05)
(-8.57726e-05 1.52887e-06 1.86045e-05)
(-0.000256917 -2.56898e-05 3.32876e-05)
(-0.000244444 -2.06427e-05 2.23036e-05)
(-0.000226084 -1.64016e-05 1.99989e-05)
(-0.000201129 -1.06901e-05 2.18634e-05)
(-0.00017065 -6.73094e-06 2.46808e-05)
(-0.000141178 -5.21949e-06 2.54581e-05)
(-0.000114606 -2.65194e-06 2.35483e-05)
(-9.51523e-05 -1.11467e-06 2.12302e-05)
(-0.000158841 -1.04189e-05 4.26952e-05)
(-0.000155604 -1.24779e-05 2.97172e-05)
(-0.000171453 -4.96091e-06 1.54324e-05)
(-0.000214871 -1.51519e-05 2.16546e-05)
(-0.000148835 -9.55014e-06 1.93191e-05)
(-0.000179205 -1.19332e-05 4.54468e-05)
(-0.000214871 -1.51519e-05 2.16546e-05)
(-0.000256917 -2.56898e-05 3.32876e-05)
(-0.000178545 -1.47099e-05 3.12567e-05)
(-0.000256917 -2.56898e-05 3.32876e-05)
(-0.000199387 -1.12448e-05 4.25588e-05)
)
;
    }
    procBoundary1to7
    {
        type            processor;
        value           uniform (-0.000273997 -2.84408e-05 3.77192e-05);
    }
}


// ************************************************************************* //
