/*--------------------------------*- C++ -*----------------------------------*\
| =========                 |                                                 |
| \\      /  F ield         | OpenFOAM: The Open Source CFD Toolbox           |
|  \\    /   O peration     | Version:  4.x                                   |
|   \\  /    A nd           | Web:      www.OpenFOAM.org                      |
|    \\/     M anipulation  |                                                 |
\*---------------------------------------------------------------------------*/
FoamFile
{
    version     2.0;
    format      ascii;
    class       volVectorField;
    location    "25";
    object      DDtUrel;
}
// * * * * * * * * * * * * * * * * * * * * * * * * * * * * * * * * * * * * * //

dimensions      [0 1 -2 0 0 0 0];

internalField   nonuniform List<vector> 
87
(
(0.000703961 0.000107922 3.21727e-05)
(0.000621251 0.00012977 5.96064e-05)
(0.000590536 0.000100868 5.46552e-05)
(0.000350858 4.0841e-05 3.32109e-05)
(0.000227565 -1.04973e-05 -6.33724e-06)
(-0.000320115 -8.90121e-05 -0.000125568)
(-0.000662606 -0.000175761 -0.000300575)
(-0.00227398 -0.000407933 -0.00086451)
(-0.0040839 -0.000502682 -0.00121772)
(0.000874329 9.40895e-05 2.56764e-05)
(0.000737125 9.34008e-05 5.02205e-05)
(0.000623579 7.2602e-05 4.94344e-05)
(0.000340679 4.88855e-06 2.89293e-05)
(0.000209971 -2.94756e-05 -5.13228e-06)
(-0.000322272 -0.000145243 -0.000150888)
(-0.000638407 -0.000160295 -0.000295595)
(-0.00214199 -0.000559211 -0.000713064)
(-0.00373006 -0.000911058 -0.00106945)
(0.000966668 9.20534e-05 2.30304e-05)
(0.000787629 9.6533e-05 4.88255e-05)
(0.000602716 9.14534e-05 5.19543e-05)
(0.000280786 3.35453e-05 1.91827e-05)
(3.43149e-05 4.4319e-06 -3.36253e-05)
(-0.000386841 -4.83732e-05 -0.000173376)
(-0.000890237 -7.96725e-05 -0.000361715)
(-0.00178318 -0.000233746 -0.000687535)
(-0.00273199 -0.00043874 -0.000993023)
(0.000700617 8.44677e-05 5.31433e-06)
(0.000573701 9.31235e-05 2.95119e-05)
(0.000510433 8.34735e-05 4.95243e-05)
(0.000286437 3.06574e-05 9.69544e-06)
(0.000173119 -1.086e-05 -1.99842e-06)
(-0.000295285 -0.000107007 -0.00013891)
(-0.000614377 -0.000199392 -0.000246564)
(-0.00200396 -0.000466032 -0.000843569)
(-0.00352146 -0.000607752 -0.00133939)
(0.000777962 8.43877e-05 7.38502e-06)
(0.000644329 8.38635e-05 2.90747e-05)
(0.000535818 6.77002e-05 6.17938e-05)
(0.000279661 1.66055e-05 7.23632e-06)
(0.000150824 -1.2732e-05 -1.05819e-05)
(-0.000299019 -0.000120798 -0.000169449)
(-0.000650748 -0.00017398 -0.000278604)
(-0.00189005 -0.000569527 -0.000806064)
(-0.00313264 -0.000901881 -0.00130082)
(0.000896082 8.94172e-05 4.97792e-05)
(0.000720396 8.5473e-05 3.0976e-05)
(0.000527914 6.3462e-05 4.2096e-05)
(0.000220164 3.52956e-05 2.13211e-06)
(2.91544e-05 1.14079e-05 -4.18501e-05)
(-0.000333173 -3.93224e-05 -0.000185994)
(-0.000795691 -8.16637e-05 -0.000356553)
(-0.00158309 -0.00027737 -0.000730608)
(-0.00238583 -0.000463157 -0.00111995)
(0.000579661 6.32072e-05 -3.13533e-05)
(0.00046374 7.61135e-05 -2.93904e-06)
(0.000363929 8.11966e-05 1.91456e-05)
(0.000169723 1.27037e-05 -5.61215e-06)
(2.83641e-05 -3.61232e-05 -2.10346e-05)
(-0.000326735 -0.000130986 -0.00010593)
(-0.000723092 -0.000230432 -0.000167598)
(-0.00165861 -0.000463852 -0.000457092)
(-0.00267561 -0.000662405 -0.000761275)
(0.000618081 0.000106024 -2.66649e-05)
(0.000528842 9.70438e-05 5.65273e-07)
(0.000368084 4.32229e-05 2.10233e-05)
(0.000145205 2.76669e-05 -1.06392e-05)
(1.43789e-05 -2.228e-05 -3.58015e-05)
(-0.000314727 -0.000124551 -0.000148237)
(-0.000735833 -0.000207119 -0.000236408)
(-0.00152713 -0.000502691 -0.000609704)
(-0.00231221 -0.000791437 -0.000949368)
(0.000723299 0.000126198 -1.37876e-05)
(0.000543195 8.73762e-05 -2.15898e-05)
(0.00032563 -7.37772e-06 -1.18876e-05)
(1.72556e-05 1.39063e-05 -3.11826e-05)
(-6.59796e-05 -3.38702e-06 -6.44374e-05)
(-0.000336548 -5.66836e-05 -0.000160102)
(-0.000740307 -0.000108074 -0.000288506)
(-0.00132952 -0.000262715 -0.000584109)
(-0.00191611 -0.000406308 -0.000847122)
(0.000489245 4.14139e-05 -4.19486e-05)
(0.000397825 4.92187e-05 -1.48924e-05)
(0.00030032 4.95256e-05 8.71145e-06)
(0.000499701 3.94802e-05 -4.89594e-05)
(0.000433065 4.63856e-05 -1.81191e-05)
(0.000511388 4.03759e-05 -5.63342e-05)
)
;

boundaryField
{
    inlet
    {
        type            calculated;
        value           nonuniform 0();
    }
    outlet
    {
        type            calculated;
        value           nonuniform List<vector> 9((-0.0127551 0.000762391 -0.00244345) (-0.0126757 -0.0047767 -0.00129495) (-0.00316801 -0.00156235 -0.00055951) (-0.0104955 -0.000321541 -0.00520751) (-0.00893701 -0.00453257 -0.00512374) (-0.00326281 -0.00214132 -0.0023386) (-0.00579322 -0.000498485 -0.00157474) (-0.00365832 -0.0029172 -0.00362385) (-0.00202592 -0.00105263 -0.00140036));
    }
    wall
    {
        type            calculated;
        value           nonuniform List<vector> 
57
(
(-0.000851528 0.000190475 0.000153909)
(0.00132836 0.00015861 0.000103207)
(0.00137031 8.79795e-05 -0.000172987)
(0.000243932 0.000517878 0.000285657)
(0.00115278 6.86773e-05 0.000171287)
(0.000661827 0.000156635 7.6537e-05)
(0.00140869 0.000343164 0.000138689)
(0.00160665 9.41091e-05 5.32479e-05)
(0.000938083 0.000418318 0.00020949)
(0.000204055 0.000153429 0.000177564)
(0.000182786 -0.000335729 0.000155809)
(1.65742e-05 -9.95462e-05 7.77044e-05)
(0.00182334 0.000136536 0.000234711)
(0.00217303 2.12616e-05 0.000464729)
(-0.000122229 -2.80511e-05 0.00023563)
(-0.00105483 0.000165571 0.000173907)
(-0.000903722 -0.00101443 -0.000105866)
(-0.000606165 -0.000257147 0.000116098)
(0.00322394 0.0003192 0.000778886)
(0.00409563 0.000925911 0.000753681)
(-0.00123345 0.000108709 1.44563e-05)
(-0.0028639 -0.000210745 -0.00207664)
(-0.00333552 -0.00213965 -0.000240888)
(-0.00116045 -0.000139842 0.000137494)
(-0.0127551 0.000762391 -0.00244345)
(-0.0126757 -0.0047767 -0.00129495)
(-0.00316801 -0.00156235 -0.00055951)
(-0.000851528 0.000190475 0.000153909)
(0.00070108 7.35622e-05 7.10314e-05)
(0.00040155 -0.000128954 -0.000151455)
(0.000572114 9.5451e-05 -0.000136775)
(0.000243932 0.000517878 0.000285657)
(0.000339681 0.000122307 5.17935e-05)
(7.646e-05 6.83602e-05 -5.52303e-05)
(0.000230318 9.04878e-05 -2.39363e-05)
(0.00140869 0.000343164 0.000138689)
(0.00115911 0.000226326 0.00028436)
(0.000400764 0.000525229 0.00010359)
(0.000435166 0.000203714 0.000105175)
(0.000204055 0.000153429 0.000177564)
(0.000107226 6.05222e-05 -9.95207e-05)
(-0.000124196 -6.49937e-05 -8.43904e-05)
(0.00182334 0.000136536 0.000234711)
(0.00166909 0.000248198 0.000502784)
(0.000461615 9.07901e-05 0.000111812)
(-0.00105483 0.000165571 0.000173907)
(-0.000590355 -5.84115e-05 -0.000283405)
(-0.000335687 -6.38285e-05 -0.00023246)
(0.00322394 0.0003192 0.000778886)
(0.0034507 0.000310658 0.0013599)
(0.000732932 0.000239162 0.000493198)
(-0.0028639 -0.000210745 -0.00207664)
(-0.00216404 -0.000738157 -0.00240554)
(-0.00141264 -0.000159349 -5.65168e-05)
(-0.0127551 0.000762391 -0.00244345)
(-0.0104955 -0.000321541 -0.00520751)
(-0.00579322 -0.000498485 -0.00157474)
)
;
    }
    procBoundary1to0
    {
        type            processor;
        value           nonuniform List<vector> 
12
(
(0.00110949 9.62037e-05 -1.47554e-06)
(0.00103388 7.20459e-05 -9.21326e-06)
(0.00106418 7.49489e-05 1.33578e-05)
(0.000863902 7.81196e-05 -3.16999e-05)
(0.00088146 6.39864e-05 -2.86738e-05)
(0.000937218 6.75782e-05 -6.69686e-06)
(0.000687331 7.05002e-05 -5.15116e-05)
(0.000751074 6.07849e-05 -4.86329e-05)
(0.000961261 4.85556e-05 -2.2291e-05)
(0.000534553 3.38215e-05 -5.22295e-05)
(0.000548863 2.84759e-05 -6.13863e-05)
(0.000583968 2.61241e-05 -5.14219e-05)
)
;
    }
    procBoundary1to3
    {
        type            processor;
        value           nonuniform List<vector> 
27
(
(0.00108489 0.000106546 4.03984e-05)
(0.000953081 0.000101979 8.0825e-05)
(0.000692643 8.74821e-05 5.15072e-05)
(0.000287264 7.37343e-05 2.81112e-05)
(9.85967e-05 6.71387e-05 -4.98141e-05)
(-0.000346238 8.42668e-05 -0.000226103)
(-0.000709961 7.15679e-05 -0.000410104)
(-0.00176724 0.000158303 -0.000909974)
(-0.00293965 0.000208098 -0.00125459)
(0.000973265 9.36877e-05 -3.52375e-06)
(0.000953655 8.72825e-05 4.90258e-05)
(0.000631105 5.0448e-05 0.000114673)
(0.000156874 5.01677e-05 5.78041e-07)
(2.43099e-05 4.87086e-05 -8.60406e-05)
(-0.000317746 6.95413e-05 -0.000235941)
(-0.000716686 7.40346e-05 -0.000405517)
(-0.00152277 0.000179945 -0.000938579)
(-0.00232466 0.000245634 -0.00135336)
(0.000890762 8.39312e-05 -8.52234e-06)
(0.00143865 4.59667e-06 -2.64313e-05)
(0.000387585 -4.42988e-05 -3.77699e-05)
(-0.00055997 2.54257e-05 -6.98257e-05)
(-0.000157905 3.14903e-05 -9.07998e-05)
(-0.000358233 3.69668e-05 -0.000194776)
(-0.000705934 4.42463e-05 -0.000347441)
(-0.00129068 8.18277e-05 -0.000683988)
(-0.00185312 0.000135999 -0.000973501)
)
;
    }
    procBoundary1to5
    {
        type            processor;
        value           nonuniform List<vector> 
32
(
(0.000119536 -1.56011e-05 1.85222e-07)
(-1.63695e-05 -6.75659e-05 4.53165e-06)
(-0.000322228 -0.000178492 -1.40714e-05)
(-0.00072178 -0.000296121 5.18338e-06)
(-0.00143671 -0.000559445 -3.38333e-05)
(-0.00224957 -0.000851523 -5.08091e-05)
(0.000307957 4.05043e-05 1.09666e-05)
(0.000120145 -9.91802e-06 -1.19936e-05)
(-2.65029e-05 -5.74746e-05 -2.43666e-05)
(-0.000289978 -0.000151945 -6.5452e-05)
(-0.000703051 -0.00024378 -8.7106e-05)
(-0.00131345 -0.000525181 -0.000227684)
(-0.00191449 -0.00080666 -0.00037453)
(0.000477815 1.37877e-05 -4.06637e-05)
(0.000272622 9.132e-06 -2.13585e-05)
(7.43103e-05 7.47661e-07 -3.29566e-05)
(-6.01088e-05 -2.50525e-05 -4.72471e-05)
(-0.000258197 -7.61221e-05 -0.00010136)
(-0.000670227 -0.000153659 -0.00018608)
(-0.00119767 -0.000322069 -0.000330612)
(-0.00170011 -0.000448046 -0.000442569)
(0.000408753 2.80171e-06 -3.28094e-05)
(0.000359896 2.00277e-05 -1.68312e-05)
(0.000119536 -1.56011e-05 1.85222e-07)
(0.000307957 4.05043e-05 1.09666e-05)
(0.000277792 4.55563e-05 -1.77095e-06)
(0.000404938 1.89964e-05 -4.03298e-05)
(0.000307957 4.05043e-05 1.09666e-05)
(0.000477815 1.37877e-05 -4.06637e-05)
(0.000393569 9.39739e-06 -2.3692e-05)
(0.000477815 1.37877e-05 -4.06637e-05)
(0.000399461 1.17185e-05 -4.47489e-05)
)
;
    }
    procBoundary1to7
    {
        type            processor;
        value           uniform (0.000604844 4.07841e-05 -1.14143e-05);
    }
}


// ************************************************************************* //
