/*--------------------------------*- C++ -*----------------------------------*\
| =========                 |                                                 |
| \\      /  F ield         | OpenFOAM: The Open Source CFD Toolbox           |
|  \\    /   O peration     | Version:  4.x                                   |
|   \\  /    A nd           | Web:      www.OpenFOAM.org                      |
|    \\/     M anipulation  |                                                 |
\*---------------------------------------------------------------------------*/
FoamFile
{
    version     2.0;
    format      ascii;
    class       volScalarField;
    location    "25";
    object      thCond;
}
// * * * * * * * * * * * * * * * * * * * * * * * * * * * * * * * * * * * * * //

dimensions      [1 1 -3 -1 0 0 0];

internalField   nonuniform List<scalar> 
87
(
192.877
192.478
192.475
192.215
192.216
191.993
191.767
191.772
191.944
192.663
192.536
192.258
192.129
192.12
191.832
191.524
191.745
192.015
192.255
192.04
191.824
191.686
191.8
191.809
191.604
191.66
191.869
191.871
191.836
191.698
191.44
191.35
191.072
190.787
190.965
191.283
191.624
191.701
191.491
191.279
191.151
191.059
190.769
190.851
191.308
191.253
191.286
191.198
191.138
191.094
190.855
190.645
190.545
191.156
191.165
191.108
190.762
190.574
190.6
190.269
190.31
190.562
190.921
191.016
190.84
190.823
190.626
190.453
190.305
190.259
190.338
190.818
190.65
190.619
190.631
190.23
190.19
190.073
190.11
190.155
190.686
190.696
190.614
190.216
190.436
190.078
190.306
)
;

boundaryField
{
    inlet
    {
        type            zeroGradient;
    }
    outlet
    {
        type            zeroGradient;
    }
    wall
    {
        type            zeroGradient;
    }
    procBoundary1to0
    {
        type            processor;
        value           nonuniform List<scalar> 
12
(
193.233
192.704
192.161
192.047
191.7
191.59
191.453
190.973
191.039
190.968
190.682
190.467
)
;
    }
    procBoundary1to3
    {
        type            processor;
        value           nonuniform List<scalar> 
27
(
191.744
191.904
191.682
191.941
191.883
191.954
191.663
191.631
191.727
190.996
191.02
190.715
190.764
190.869
190.92
190.776
190.699
190.63
190.366
190.198
190.125
190.116
190.234
190.13
189.933
190.046
190.125
)
;
    }
    procBoundary1to5
    {
        type            processor;
        value           nonuniform List<scalar> 
32
(
190.182
189.994
189.989
189.911
189.881
189.899
190.188
190.205
190.081
189.923
189.733
189.702
189.835
190.033
190.124
189.916
189.934
189.923
189.71
189.845
189.711
190.322
190.372
190.182
190.188
190.057
190.117
190.188
190.033
190.04
190.033
189.946
)
;
    }
    procBoundary1to7
    {
        type            processor;
        value           uniform 189.908;
    }
}


// ************************************************************************* //
