/*--------------------------------*- C++ -*----------------------------------*\
| =========                 |                                                 |
| \\      /  F ield         | OpenFOAM: The Open Source CFD Toolbox           |
|  \\    /   O peration     | Version:  4.x                                   |
|   \\  /    A nd           | Web:      www.OpenFOAM.org                      |
|    \\/     M anipulation  |                                                 |
\*---------------------------------------------------------------------------*/
FoamFile
{
    version     2.0;
    format      ascii;
    class       volVectorField;
    location    "25";
    object      U;
}
// * * * * * * * * * * * * * * * * * * * * * * * * * * * * * * * * * * * * * //

dimensions      [0 1 -1 0 0 0 0];

internalField   nonuniform List<vector> 
87
(
(0.0364254 -0.000226119 -0.000962158)
(0.0450995 -0.00211746 1.3555e-05)
(0.0394577 0.000740684 -0.000599397)
(0.0478879 0.00167243 -0.00133134)
(0.0372502 0.00115815 7.64125e-05)
(0.0517136 0.00217496 -0.0013415)
(0.0300241 0.00151186 0.000998347)
(0.0588455 0.00308196 0.00139148)
(0.0126911 0.000914921 -0.00454293)
(0.0295908 -0.00120754 -0.000172188)
(0.043696 0.000866346 0.00159192)
(0.0402813 -0.00131812 -0.000700108)
(0.0461692 0.000337908 -0.00165985)
(0.0345945 -0.00205129 8.3887e-05)
(0.0503138 0.00186605 -0.000999054)
(0.0274875 -0.0045775 0.0006185)
(0.058835 0.00349071 0.00152918)
(0.0109616 -0.0117587 0.000115096)
(0.0327225 -0.0027436 -0.00401955)
(0.0397533 -0.00639275 -0.00274051)
(0.0299047 -0.00134653 -0.00205847)
(0.0401629 0.00362563 -0.0021386)
(0.0273375 -0.000906671 -0.000459324)
(0.0386927 0.00326908 -0.0019964)
(0.0152854 -0.00264526 0.00100576)
(0.033543 0.00506679 0.00220132)
(0.00373273 -0.00500249 0.00156978)
(0.0244645 0.000518859 -0.00028041)
(0.0394636 -0.000574398 -0.00243221)
(0.0282876 0.000481075 -0.000535131)
(0.0422726 0.00114329 0.000927765)
(0.0267642 0.000709056 -0.00187361)
(0.046338 0.00210281 0.00416922)
(0.0219196 0.000517972 -0.00391338)
(0.0547006 0.00266629 0.00866669)
(0.00969887 -0.00195672 -0.0147837)
(0.017362 -0.00410195 -0.000326543)
(0.0358034 -0.00160234 -0.00898366)
(0.0230825 -0.00258195 0.00160117)
(0.0390093 -0.000432826 0.00487208)
(0.0208613 -0.00236015 -0.000894168)
(0.0431884 0.00145642 0.00674688)
(0.0178454 -0.00366735 -0.0039974)
(0.0505563 0.00565063 0.0121832)
(0.00884404 -0.0122659 -0.0117513)
(0.00744175 -0.0011863 0.000756157)
(0.0348033 -0.00293012 0.00817472)
(0.0118686 -0.00149903 0.000870656)
(0.0346934 0.0012962 0.0041593)
(0.00580103 -0.00120186 -0.000635131)
(0.0351195 0.00220765 0.0144501)
(0.00623075 -0.00168026 -0.00149709)
(0.0331465 0.00603639 0.013081)
(0.00374805 -0.00481157 -0.00527155)
(0.0267508 -0.000560213 0.000685489)
(0.0361324 -0.00921708 -0.00250583)
(0.0276589 0.00208133 5.73842e-05)
(0.0354961 0.00454512 -0.00113457)
(0.0224147 0.000597183 -0.000983995)
(0.0364006 0.00298806 -0.000632855)
(0.0143775 -0.000371532 -0.00315698)
(0.0372526 0.00473899 0.00419111)
(0.0044444 -5.78922e-05 -0.00569662)
(0.0064918 5.18993e-05 -0.00015826)
(0.0350157 0.00874273 -0.00274238)
(0.0341378 -0.000519524 -0.000663868)
(0.0302258 0.00237488 -0.000231931)
(0.0124425 -0.00183869 -0.000988084)
(0.0326833 0.010652 0.00113199)
(0.0138674 -0.00319185 -0.00330269)
(0.0339132 0.00743013 0.00610334)
(0.00577759 -0.00857659 -0.00983229)
(-0.0962193 -0.00402444 -0.0166919)
(0.0221558 -0.0378539 -0.010531)
(-0.0500261 0.0114236 -0.00403606)
(0.0282361 0.0292999 0.00194481)
(-0.0394301 -0.00122085 -0.00290464)
(0.0285738 0.00901944 -0.00183227)
(-0.00278984 -0.00274792 -0.00112836)
(0.025246 0.0124993 0.0130757)
(0.00281352 -0.0123027 -0.00854287)
(0.019113 -0.000799428 0.00025347)
(0.0363766 -0.00107973 -0.00343026)
(0.0251686 -0.00123409 -0.000257473)
(0.00936467 3.52e-05 0.000231699)
(0.0314587 -0.00920851 -0.0100551)
(-0.00445695 -0.00157547 -0.000250292)
)
;

boundaryField
{
    inlet
    {
        type            fixedValue;
        value           nonuniform 0();
    }
    outlet
    {
        type            zeroGradient;
    }
    wall
    {
        type            fixedValue;
        value           uniform (0 0 0);
    }
    procBoundary1to0
    {
        type            processor;
        value           nonuniform List<vector> 
12
(
(0.0409862 -0.000788365 0.0011074)
(0.0399535 -0.003903 0.00136915)
(0.0373733 -0.00296979 0.00221522)
(0.0362229 -0.000507252 -0.00665586)
(0.033372 -0.00246833 -0.00629729)
(0.0278577 -0.0020386 -0.0240686)
(0.0355178 -0.000915089 -0.000942316)
(0.0319496 -0.0215652 -0.00120575)
(0.0182014 -0.00765742 -0.00217049)
(0.0352796 -0.00112705 0.00101423)
(0.0310171 -0.00184741 -0.00152942)
(0.0306358 -0.00368122 0.0158912)
)
;
    }
    procBoundary1to3
    {
        type            processor;
        value           nonuniform List<vector> 
27
(
(0.0228169 0.000543843 0.000749761)
(0.0431141 -0.00213149 0.00261746)
(0.0485741 0.000686419 -0.00149255)
(0.0452338 0.000120077 -0.00411248)
(0.0315454 0.00132301 -0.00123811)
(0.0455806 0.00125234 -0.00266943)
(0.0253552 0.00240468 -0.000553057)
(0.0499322 -0.000703598 0.0013081)
(0.0101671 0.00422156 -0.00374698)
(0.00967962 0.0029708 -0.0101082)
(0.0315719 0.000287056 -0.0412815)
(0.0152754 0.000840552 -0.0017332)
(0.0358811 0.000853823 0.0287134)
(0.011719 0.000879364 0.00128619)
(0.036057 -0.000170716 0.0127652)
(0.0115237 0.00189657 -0.00480103)
(0.0398349 -0.00358527 0.0202866)
(0.00569243 0.00799071 -0.0236232)
(-0.0337407 -0.00278848 -0.00173349)
(-0.013643 -0.017287 -0.00986874)
(-0.169535 0.000474441 -0.00727039)
(0.0224629 -0.00190542 0.00134792)
(-0.0541751 0.000648565 -0.00291352)
(0.0248118 0.00389386 -0.000278729)
(-0.0402527 0.000423382 -0.00698399)
(0.0219817 -0.00310108 0.0155506)
(-0.00130028 0.00331809 -0.0107655)
)
;
    }
    procBoundary1to5
    {
        type            processor;
        value           nonuniform List<vector> 
32
(
(0.0373566 0.000673681 -0.00141851)
(0.0203991 -0.00110073 -0.0003804)
(0.0373394 0.00173389 -0.00197418)
(0.0160705 -0.000776389 -0.000544881)
(0.0347188 0.00314639 0.00567395)
(0.00287473 0.00178492 0.00162842)
(0.0157106 -0.00060759 -0.00168036)
(0.0326943 0.00170557 0.00200636)
(0.0123343 -0.00117921 -0.000351491)
(0.0329192 -0.000831057 -0.0015896)
(0.0119293 -0.00326805 -0.00196018)
(0.0335808 0.0138432 0.0120457)
(0.00446618 -0.0069821 -0.00750645)
(0.0281642 -0.010728 -0.0143844)
(-0.0425113 0.00214342 -0.00591849)
(0.0277017 0.0031017 -0.00374324)
(-0.0374413 -0.000129054 -0.00264969)
(0.0263505 0.000570609 -0.0171404)
(-0.0457411 -0.00278241 -0.000833741)
(0.0247523 0.0145129 0.0170033)
(0.00213447 -0.00952144 -0.00570643)
(0.0194799 -0.00108658 0.00161944)
(0.0346287 -0.0163099 0.00111139)
(0.0373566 0.000673681 -0.00141851)
(0.0157106 -0.00060759 -0.00168036)
(0.0277249 -0.000317808 0.00228887)
(-0.00467713 0.00040006 0.00173326)
(0.0157106 -0.00060759 -0.00168036)
(0.0281642 -0.010728 -0.0143844)
(0.0289947 0.000187908 -0.000333318)
(0.0281642 -0.010728 -0.0143844)
(-0.0148812 -5.96377e-05 -0.0102282)
)
;
    }
    procBoundary1to7
    {
        type            processor;
        value           uniform (-0.0100285 -0.00252439 0.0093586);
    }
}


// ************************************************************************* //
