/*--------------------------------*- C++ -*----------------------------------*\
  =========                 |
  \\      /  F ield         | OpenFOAM: The Open Source CFD Toolbox
   \\    /   O peration     | Website:  https://openfoam.org
    \\  /    A nd           | Version:  4.x
     \\/     M anipulation  |
\*---------------------------------------------------------------------------*/
FoamFile
{
    version     2.0;
    format      ascii;
    class       Cloud<passiveParticle>;
    location    0;
    object      positions;
}
// * * * * * * * * * * * * * * * * * * * * * * * * * * * * * * * * * * * * * //

356
(
( 0.0742903 -0.0554285 -0.0596094 ) 41
( 0.0860949 -0.0205637 -0.0290959 ) 83
( 0.249942 -0.0571573 -0.0378135 ) 79
( 0.0502551 -0.0383893 -0.0671899 ) 49
( 0.177239 -0.0798308 -0.0518094 ) 36
( 0.0524149 -0.0752677 -0.0488931 ) 31
( 0.193009 -0.0267538 -0.0537407 ) 54
( 0.145405 -0.0834308 -0.026174 ) 67
( 0.0553118 -0.0674276 -0.0310027 ) 72
( 0.0535483 -0.0265571 -0.0263235 ) 81
( 0.00981173 -0.0395223 -0.0345472 ) 80
( 0.217691 -0.0898215 -0.0610219 ) 37
( 0.203173 -0.0500781 -0.0423859 ) 78
( 0.212038 -0.0255522 -0.048389 ) 55
( 0.0789886 -0.0210724 -0.0557673 ) 50
( 0.176407 -0.0714179 -0.0698411 ) 45
( 0.186321 -0.0423399 -0.0350592 ) 86
( 0.194262 -0.0148346 -0.0696426 ) 54
( 0.109198 -0.0279585 -0.0582706 ) 51
( 0.226072 -0.0496266 -0.070606 ) 47
( 0.241916 -0.0204816 -0.0591289 ) 56
( 0.242129 -0.07045 -0.0256081 ) 79
( 0.0743364 -0.0366995 -0.0288475 ) 82
( 0.137487 -0.044685 -0.0393556 ) 75
( 0.204453 -0.0530955 -0.06373 ) 46
( 0.0958659 -0.0517322 -0.0335076 ) 74
( 0.0620317 -0.0407745 -0.0437369 ) 50
( 0.215494 -0.0645741 -0.0517752 ) 46
( 0.0272972 -0.0143398 -0.0498428 ) 48
( 0.0791364 -0.0729905 -0.0508549 ) 32
( 0.204788 -0.0731432 -0.0374695 ) 69
( 0.11951 -0.0384523 -0.044894 ) 52
( 0.232797 -0.056025 -0.0473996 ) 47
( 0.0266377 -0.0169543 -0.0301824 ) 80
( 0.138798 -0.0574965 -0.0244277 ) 75
( 0.0278805 -0.0765901 -0.036676 ) 63
( 0.141191 -0.0201946 -0.070293 ) 53
( 0.0384788 -0.0747781 -0.0629054 ) 31
( 0.107967 -0.0802281 -0.0393422 ) 65
( 0.0730015 -0.0766505 -0.0323914 ) 64
( 0.110855 -0.0786138 -0.0197717 ) 65
( 0.135452 -0.0456531 -0.0684012 ) 43
( 0.149417 -0.0491866 -0.0546049 ) 44
( 0.24017 -0.0356014 -0.0718266 ) 26
( 0.171186 -0.0274808 -0.0687477 ) 54
( 0.12729 -0.0901816 -0.0207485 ) 66
( 0.233595 -0.0753089 -0.0527941 ) 38
( 0.0365982 -0.0626313 -0.0474252 ) 40
( 0.172201 -0.0571382 -0.0515115 ) 45
( 0.107374 -0.0761152 -0.06628 ) 33
( 0.0937424 -0.0217303 -0.0690166 ) 51
( 0.138299 -0.0878246 -0.0550486 ) 34
( 0.187991 -0.0628694 -0.040464 ) 77
( 0.133258 -0.0181679 -0.0413389 ) 84
( 0.0835512 -0.0383006 -0.0646924 ) 51
( 0.112641 -0.0200342 -0.0404132 ) 84
( 0.0985281 -0.0584656 -0.0672388 ) 42
( 0.150514 -0.0110674 -0.0348481 ) 94
( 0.0402002 -0.0265868 -0.0411149 ) 81
( 0.0666139 -0.0217672 -0.0404509 ) 82
( 0.0341845 -0.0347966 -0.0243221 ) 81
( 0.148753 -0.0793794 -0.0696047 ) 35
( 0.0114761 -0.0272417 -0.0627594 ) 48
( 0.0976323 -0.0660316 -0.0487529 ) 42
( 0.128892 -0.0732969 -0.0308477 ) 66
( 0.00964823 -0.00690667 -0.030649 ) 89
( 0.239698 -0.0432052 -0.0281827 ) 79
( 0.149996 -0.0624433 -0.0398178 ) 76
( 0.166721 -0.0709245 -0.0333806 ) 77
( 0.200244 -0.0861291 -0.0517099 ) 37
( 0.160764 -0.0281143 -0.0351838 ) 85
( 0.18926 -0.0353044 -0.0713502 ) 54
( 0.12132 -0.0064394 -0.0520017 ) 61
( 0.18743 -0.0824464 -0.0351192 ) 68
( 0.0275496 -0.0474666 -0.0382257 ) 71
( 0.0544932 -0.0580083 -0.0586514 ) 40
( 0.0304366 -0.0900413 -0.0511394 ) 31
( 0.0823646 -0.0437105 -0.0456177 ) 41
( 0.157516 -0.0252528 -0.0545333 ) 53
( 0.138889 -0.0319429 -0.0544449 ) 53
( 0.0841515 -0.0901496 -0.0421009 ) 65
( 0.0328306 -0.030805 -0.0595114 ) 49
( 0.0498637 -0.00882608 -0.0361514 ) 90
( 0.0910743 -0.0364835 -0.0182496 ) 83
( 0.0185986 -0.0091088 -0.0668563 ) 57
( 0.0703474 -0.0585692 -0.0403349 ) 73
( 0.0534639 -0.02289 -0.0552383 ) 49
( 0.174915 -0.0326837 -0.048234 ) 54
( 0.00991521 -0.0641512 -0.0350733 ) 71
( 0.00990658 -0.0802135 -0.0232054 ) 62
( 0.200329 -0.0502743 -0.0227581 ) 78
( 0.123695 -0.0552108 -0.0556198 ) 43
( 0.187007 -0.0901165 -0.0658851 ) 36
( 0.237109 -0.0901044 -0.065649 ) 38
( 0.114943 -0.0616493 -0.039038 ) 75
( 0.0654369 -0.0145637 -0.0688045 ) 50
( 0.00990415 -0.0628662 -0.0617892 ) 39
( 0.0977544 -0.0328892 -0.0391839 ) 83
( 0.224903 -0.072983 -0.035133 ) 70
( 0.17727 -0.0566426 -0.0249665 ) 77
( 0.224323 -0.0261869 -0.0329273 ) 88
( 0.208091 -0.0308347 -0.0670617 ) 55
( 0.0435654 -0.0794473 -0.0202873 ) 63
( 0.216672 -0.0900798 -0.0411723 ) 69
( 0.243086 -0.0902311 -0.0437273 ) 38
( 0.0262394 -0.0614384 -0.0240687 ) 71
( 0.0968669 -0.0142076 -0.050844 ) 60
( 0.209476 -0.0732442 -0.0685493 ) 37
( 0.126463 -0.0683989 -0.0707327 ) 43
( 0.196471 -0.0903059 -0.0194153 ) 69
( 0.169596 -0.0902747 -0.0311158 ) 68
( 0.154351 -0.0877637 -0.0434536 ) 35
( 0.179867 -0.0233525 -0.0295198 ) 86
( 0.192724 -0.0687847 -0.0587812 ) 45
( 0.0797512 -0.0548166 -0.0225156 ) 73
( 0.233951 -0.0678973 -0.0712045 ) 47
( 0.12166 -0.0747344 -0.0525145 ) 34
( 0.18824 -0.0460711 -0.0546684 ) 45
( 0.235432 -0.0359154 -0.0462255 ) 56
( 0.163255 -0.0480588 -0.036346 ) 76
( 0.058402 -0.0900872 -0.063112 ) 32
( 0.216271 -0.0900177 -0.0213882 ) 69
( 0.121403 -0.0901154 -0.0651675 ) 34
( 0.150158 -0.04 -0.0233781 ) 85
( 0.0435236 -0.0442505 -0.0494722 ) 40
( 0.00989488 -0.0219038 -0.0436837 ) 48
( 0.161394 -0.0574916 -0.0681355 ) 44
( 0.121645 -0.0168181 -0.0690161 ) 52
( 0.124496 -0.0296252 -0.0278878 ) 84
( 0.103122 -0.0471761 -0.0517125 ) 42
( 0.203421 -0.032985 -0.0322356 ) 87
( 0.0446492 -0.0900535 -0.0371023 ) 63
( 0.114493 -0.0438213 -0.0690509 ) 43
( 0.0100183 -0.0448253 -0.0535591 ) 39
( 0.0965278 -0.0902403 -0.0267841 ) 65
( 0.0279315 -0.050118 -0.060314 ) 40
( 0.0782184 -0.090052 -0.0610721 ) 32
( 0.0623568 -0.00559621 -0.0513184 ) 59
( 0.0644792 -0.0902172 -0.0442062 ) 32
( 0.119633 -0.0594926 -0.0199418 ) 75
( 0.00972274 -0.0236962 -0.0203813 ) 80
( 0.117934 -0.00258756 -0.0328532 ) 93
( 0.0111144 -0.08241 -0.0584405 ) 30
( 0.220092 -0.0496514 -0.0320711 ) 78
( 0.00985507 -0.0030411 -0.0500941 ) 57
( 0.130895 -0.0420909 0.00676815 ) 118
( 0.110707 -0.051301 -0.00414765 ) 108
( 0.126408 -0.0172212 0.00203494 ) 118
( 0.170465 -0.0737937 0.0015652 ) 102
( 0.0585522 -0.0723168 0.000459444 ) 98
( 0.0397907 -0.00708709 -0.0191432 ) 90
( 0.225972 -0.0427458 -0.00187403 ) 122
( 0.134214 -0.0623982 0.00495081 ) 109
( 0.0216982 -0.0121391 0.00505642 ) 123
( 0.208193 -0.0191048 -0.0169074 ) 87
( 0.124898 0.00574743 0.00182103 ) 127
( 0.190617 -0.034051 -0.0167408 ) 86
( 0.0607726 -0.0107524 -0.00638813 ) 125
( 0.0199489 -0.0337312 0.00797542 ) 114
( 0.159944 -0.00403949 -0.0129288 ) 128
( 0.0827775 -0.00871458 0.00347397 ) 125
( 0.122441 -0.0126802 -0.0166399 ) 93
( 0.0561912 -0.0565061 0.0138284 ) 107
( 0.110727 -0.0356936 0.00805068 ) 117
( 0.163283 -0.0374332 0.0137012 ) 119
( 0.239513 -0.0566986 0.000916796 ) 113
( 0.0910664 -0.0432622 0.000378438 ) 108
( 0.206262 -0.061817 0.0114863 ) 112
( 0.205792 -0.0496747 -0.00382249 ) 112
( 0.143215 -0.00865202 -0.00344732 ) 128
( 0.150745 -0.0739152 0.00327773 ) 101
( 0.161991 -0.0901744 0.0087413 ) 101
( 0.186409 -0.0488577 0.011923 ) 111
( 0.22817 -0.0763504 0.00986809 ) 104
( 0.0353561 -0.0823315 -0.00152277 ) 97
( 0.235031 -0.0353433 0.0137163 ) 122
( 0.176865 -0.0174221 -0.0101339 ) 120
( 0.0382703 -0.0335915 0.000346706 ) 115
( 0.219242 -0.0643878 -0.0028166 ) 112
( 0.0563919 -0.0208843 0.00993868 ) 116
( 0.221721 -0.0902142 -0.00242776 ) 103
( 0.0262125 -0.0646191 -0.00189262 ) 105
( 0.214583 -0.0378684 -0.0169532 ) 87
( 0.0961129 -0.0239539 0.001255 ) 117
( 0.168954 -0.0184298 0.00807559 ) 120
( 0.10133 -0.0713732 0.00560601 ) 108
( 0.15031 -0.0515137 0.00834497 ) 110
( 0.0563551 -0.0306794 -0.00717524 ) 116
( 0.238579 -0.0749264 -0.00672466 ) 104
( 0.1584 -0.0398405 -0.00523505 ) 119
( 0.07897 -0.0902145 -0.0177908 ) 64
( 0.213272 -0.0130838 0.00141285 ) 130
( 0.0714966 -0.0901465 0.000486967 ) 98
( 0.193567 -0.0129937 -0.000536091 ) 129
( 0.118275 -0.03083 -0.00935496 ) 118
( 0.206103 -0.0784514 -0.00703495 ) 103
( 0.179329 -0.0809798 -0.01505 ) 68
( 0.0951487 -0.0901107 0.0123837 ) 99
( 0.0742748 -0.07149 -0.0133865 ) 98
( 0.149167 -0.0902571 -0.00782495 ) 101
( 0.118307 -0.0902138 -0.00308267 ) 100
( 0.169353 -0.0540303 0.00339136 ) 111
( 0.015082 -0.0902542 -0.00691147 ) 96
( 0.00982995 -0.0843382 0.0111177 ) 96
( 0.190938 -0.0683193 0.000707549 ) 111
( 0.183941 -0.0318615 0.0018372 ) 120
( 0.247356 -0.0414098 -0.00901875 ) 122
( 0.139182 -0.023722 -0.0158752 ) 85
( 0.00985852 -0.050983 0.00242626 ) 105
( 0.109959 -0.00686367 -0.00230318 ) 126
( 0.134732 -0.0900508 0.00826571 ) 100
( 0.0656021 -0.00337755 0.0119306 ) 125
( 0.0529215 -0.0901723 -0.00638638 ) 97
( 0.0710521 -0.0490845 0.0029648 ) 107
( 0.0423327 -0.0707278 0.0130212 ) 106
( 0.0180925 -0.00457662 -0.0128715 ) 123
( 0.230539 -0.056197 -0.016594 ) 79
( 0.0745167 -0.0287315 0.00460989 ) 116
( 0.185638 -0.0511653 -0.00779196 ) 111
( 0.203573 -0.0302256 -0.0011554 ) 121
( 0.160246 -0.0757719 -0.0153321 ) 67
( 0.133686 -0.0425403 -0.0126999 ) 118
( 0.0414702 -0.0134509 -0.000495971 ) 124
( 0.181594 -0.0902524 0.00215844 ) 102
( 0.18206 0.00900827 -0.0387666 ) 95
( 0.0877963 0.0117653 -0.0413281 ) 92
( 0.135556 0.0142263 -0.056155 ) 61
( 0.0586233 0.00902332 -0.0244301 ) 91
( 0.00979431 0.011727 -0.0204919 ) 89
( 0.0781778 0.00488198 -0.0572375 ) 59
( 0.124092 0.00380767 -0.0687659 ) 61
( 0.148103 0.0133787 -0.0310445 ) 94
( 0.0433063 0.0103486 -0.0368433 ) 90
( 0.113564 0.0111026 -0.0463185 ) 61
( 0.0549304 0.0121103 -0.0563205 ) 58
( 0.10547 -0.000573023 -0.0624172 ) 60
( 0.177063 0.00186965 -0.00491786 ) 129
( 0.0110429 0.0100791 -0.000647359 ) 123
( 0.0869408 0.0111531 -0.00729038 ) 126
( 0.0435399 0.0110334 -0.0116993 ) 124
( 0.209495 0.00574239 -0.00260273 ) 130
( 0.0630087 0.0087721 -0.00500666 ) 125
( 0.100222 0.00418642 0.0121176 ) 126
( 0.146058 0.00887869 0.00520033 ) 128
( 0.107695 0.0127069 -0.00532886 ) 126
( 0.153201 0.0142706 -0.0120475 ) 128
( 0.16595 0.00122075 0.0114753 ) 128
( 0.0330681 0.00394807 0.00353894 ) 124
( 0.139844 -0.0676305 -0.0559918 ) 44
( 0.0665684 -0.00902108 -0.0253875 ) 91
( 0.00997889 -0.0901546 -0.0402909 ) 62
( 0.047924 -0.0486981 -0.0281945 ) 72
( 0.0789667 -0.00608409 -0.040631 ) 91
( 0.0825004 -0.0655051 0.00342433 ) 107
( 0.00987392 0.00866811 -0.0662017 ) 57
( 0.235153 0.00625381 -0.013688 ) 131
( 0.153819 -0.0372771 -0.0699235 ) 53
( 0.163207 -0.090198 -0.0611749 ) 35
( 0.0435657 -0.00575059 -0.0574288 ) 58
( 0.12512 -0.0902014 -0.0405155 ) 66
( 0.0244212 0.00535157 -0.0342527 ) 89
( 0.0930029 -0.0710088 -0.0300201 ) 74
( 0.0736148 -0.0235291 -0.0141401 ) 116
( 0.10564 0.0116387 -0.0265085 ) 92
( 0.0274792 0.00520389 -0.0537831 ) 57
( 0.0492164 -0.0617837 -0.0131953 ) 106
( 0.248985 -0.0474057 -0.0551102 ) 47
( 0.0973091 -0.00481814 -0.0333454 ) 92
( 0.0996821 -0.0900988 -0.054473 ) 33
( 0.150168 -0.0251281 0.0049059 ) 119
( 0.173691 -0.00466303 -0.0270073 ) 95
( 0.218481 -0.0436717 -0.0532348 ) 46
( 0.192336 0.00533038 0.00726135 ) 129
( 0.231487 -0.0203969 0.00184103 ) 122
( 0.135622 0.00155804 -0.0408052 ) 93
( 0.0973094 -0.0635755 -0.0121513 ) 108
( 0.0602923 -0.0898434 -0.0247664 ) 64
( 0.212906 -0.0655406 -0.0212908 ) 78
( 0.191725 -0.00846074 -0.0199263 ) 95
( 0.151771 -0.0588248 -0.00979629 ) 110
( 0.0785301 0.00674274 -0.024604 ) 91
( 0.027091 -0.0902401 -0.0225945 ) 62
( 0.192942 -0.0685433 -0.0220908 ) 77
( 0.126613 0.0130717 -0.0244662 ) 93
( 0.109451 -0.0427666 -0.022278 ) 83
( 0.103407 -0.0208552 -0.0177667 ) 83
( 0.158993 -0.023364 -0.0160784 ) 85
( 0.159301 -0.0718796 -0.0545134 ) 35
( 0.009842 -0.0632345 -0.0130735 ) 105
( 0.0629165 -0.0475859 -0.015116 ) 73
( 0.0270533 -0.022124 -0.011019 ) 114
( 0.170641 -0.0386357 -0.0205956 ) 86
( 0.139257 -0.00180321 -0.021502 ) 94
( 0.23631 -0.090116 -0.0193001 ) 70
( 0.118596 -0.070478 -0.00362885 ) 109
( 0.0896695 -0.00685003 -0.0150671 ) 92
( 0.232647 -0.0298091 -0.0154273 ) 88
( 0.034377 -0.0491771 -0.0109272 ) 106
( 0.0106228 -0.0427105 -0.0152116 ) 80
( 0.136517 -0.0751183 -0.0104259 ) 100
( 0.193332 0.0099216 -0.0128035 ) 129
( 0.0988768 -0.0892484 -0.00708665 ) 99
( 0.0375697 -0.0519227 0.00856272 ) 106
( 0.144034 -0.0614895 -0.0769266 ) 14
( 0.17323 -0.0449848 -0.0780714 ) 15
( 0.0858379 -0.0736467 -0.0694967 ) 33
( 0.00990548 -0.0445513 -0.0734303 ) 9
( 0.0408072 -0.0584748 -0.0739091 ) 10
( 0.0561589 -0.0725109 -0.0721307 ) 2
( 0.067346 -0.0441233 -0.0755023 ) 11
( 0.0422576 -0.0901609 -0.0747756 ) 1
( 0.205197 -0.0901709 -0.0779689 ) 7
( 0.244491 -0.0533223 -0.0797074 ) 17
( 0.224642 -0.0236427 -0.0754251 ) 26
( 0.0774374 -0.0263794 -0.0794605 ) 20
( 0.223739 -0.0831128 -0.0788156 ) 8
( 0.0215751 -0.0742362 -0.0732736 ) 0
( 0.085417 -0.0509159 -0.0800405 ) 12
( 0.109106 -0.0279998 -0.07992 ) 21
( 0.209786 -0.0448856 -0.0810955 ) 16
( 0.192275 -0.0612078 -0.0772018 ) 15
( 0.172033 -0.0899123 -0.0789962 ) 6
( 0.128625 -0.031567 -0.0806685 ) 22
( 0.0432566 -0.0193194 -0.0719757 ) 19
( 0.134224 -0.0879112 -0.0802324 ) 4
( 0.0333977 -0.040381 -0.0775222 ) 19
( 0.112422 -0.0592813 -0.0814614 ) 13
( 0.0700945 -0.0898491 -0.0792705 ) 2
( 0.0220393 -0.024168 -0.079371 ) 18
( 0.0959251 -0.0901393 -0.0743674 ) 3
( 0.18882 -0.0799578 -0.0829474 ) 6
( 0.161228 -0.0710806 -0.0827208 ) 14
( 0.206386 -0.0209726 -0.0842831 ) 25
( 0.159247 -0.0247873 -0.0844847 ) 23
( 0.0722426 -0.0658003 -0.081797 ) 11
( 0.0229286 -0.056591 -0.0824577 ) 9
( 0.0578296 -0.0279447 -0.082407 ) 20
( 0.0343433 0.000891736 -0.0737559 ) 28
( 0.0544693 -0.00839318 -0.0842946 ) 28
( 0.218615 -0.063212 -0.0831235 ) 16
( 0.113414 -0.0854741 -0.0828287 ) 4
( 0.144288 -0.0437924 -0.0861656 ) 14
( 0.241872 -0.0208085 -0.0850804 ) 26
( 0.0099416 -0.0900534 -0.0767516 ) 0
( 0.0948414 -0.0674471 -0.0861387 ) 12
( 0.228263 -0.0391703 -0.0874338 ) 26
( 0.061564 0.00986011 -0.0878129 ) 29
( 0.0372771 -0.0741857 -0.0856082 ) 1
( 0.153305 -0.0900609 -0.085765 ) 5
( 0.0505646 -0.0461139 -0.0860241 ) 10
( 0.00989615 -0.00186659 -0.0831818 ) 27
( 0.191285 -0.0449244 -0.0886708 ) 15
( 0.0350526 -0.0122632 -0.0887204 ) 28
( 0.00991158 -0.0702431 -0.0888816 ) 9
( 0.0927651 -0.0347403 -0.0890723 ) 21
( 0.0256976 -0.0900572 -0.0889498 ) 0
)
