/*--------------------------------*- C++ -*----------------------------------*\
| =========                 |                                                 |
| \\      /  F ield         | OpenFOAM: The Open Source CFD Toolbox           |
|  \\    /   O peration     | Version:  4.x                                   |
|   \\  /    A nd           | Web:      www.OpenFOAM.org                      |
|    \\/     M anipulation  |                                                 |
\*---------------------------------------------------------------------------*/
FoamFile
{
    version     2.0;
    format      ascii;
    class       volScalarField;
    location    "51";
    object      particleRelTemp;
}
// * * * * * * * * * * * * * * * * * * * * * * * * * * * * * * * * * * * * * //

dimensions      [0 0 0 0 0 0 0];

internalField   nonuniform List<scalar> 
132
(
1.73815e-13
5.81024e-13
1.00095e-12
1.56395e-12
2.06666e-12
2.70987e-12
3.27422e-12
3.82005e-12
4.10216e-12
1.22866e-13
5.15591e-13
1.02626e-12
1.43119e-12
1.97861e-12
2.41067e-12
2.94344e-12
3.48438e-12
3.84e-12
-4.61484e-14
2.50785e-13
6.96563e-13
1.05708e-12
1.53102e-12
1.89133e-12
2.41921e-12
2.92537e-12
3.26698e-12
-2.76975e-13
-1.79373e-14
2.76933e-13
7.32817e-13
1.02575e-12
1.43132e-12
1.89638e-12
2.30148e-12
2.65021e-12
1.0583e-12
1.50185e-12
2.01365e-12
2.5777e-12
3.11645e-12
3.66244e-12
3.95226e-12
1.6093e-13
4.9058e-13
9.52948e-13
1.39473e-12
1.87891e-12
2.39635e-12
3.00415e-12
3.43326e-12
3.76438e-12
-6.2233e-14
2.25142e-13
5.95214e-13
1.07379e-12
1.41692e-12
1.9331e-12
2.38957e-12
2.9335e-12
3.11675e-12
-3.13018e-13
-4.52221e-14
3.36008e-13
6.81195e-13
1.06226e-12
1.39894e-12
1.89773e-12
2.25593e-12
2.5732e-12
1.80063e-12
2.15474e-12
2.6652e-12
3.01472e-12
3.55486e-12
-1.48467e-13
3.38197e-13
6.56226e-13
1.14247e-12
1.53456e-12
2.07786e-12
2.59046e-12
2.90605e-12
3.26749e-12
-3.18492e-13
-5.28433e-14
2.78406e-13
7.22669e-13
1.102e-12
1.58623e-12
2.01003e-12
2.29214e-12
2.60747e-12
-5.61866e-13
-2.71754e-13
1.1874e-14
3.53061e-13
5.87298e-13
9.34422e-13
1.37772e-12
1.62261e-12
1.90417e-12
2.15209e-12
2.51265e-12
2.72604e-12
-3.78703e-13
-4.60642e-14
3.66661e-13
7.63218e-13
1.20836e-12
1.6325e-12
1.94678e-12
2.27092e-12
2.67434e-12
-5.59423e-13
-3.07586e-13
3.31797e-14
3.4005e-13
7.88523e-13
1.18857e-12
1.45182e-12
1.65469e-12
1.97693e-12
-7.84818e-13
-5.22033e-13
-2.89691e-13
-4.02536e-14
3.00933e-13
5.98119e-13
9.09832e-13
1.04546e-12
1.00647e-12
)
;

boundaryField
{
    inlet
    {
        type            calculated;
        value           nonuniform 0();
    }
    outlet
    {
        type            calculated;
        value           nonuniform List<scalar> 
16
(
4.10216e-12
3.84e-12
3.26698e-12
2.65021e-12
3.95226e-12
3.76438e-12
3.11675e-12
2.5732e-12
3.55486e-12
3.26749e-12
2.60747e-12
1.90417e-12
2.72604e-12
2.67434e-12
1.97693e-12
1.00647e-12
)
;
    }
    wall
    {
        type            calculated;
        value           nonuniform List<scalar> 
66
(
-3.78703e-13
-5.59423e-13
-7.84818e-13
-4.60642e-14
-3.07586e-13
-5.22033e-13
3.66661e-13
3.31797e-14
-2.89691e-13
7.63218e-13
3.4005e-13
-4.02536e-14
1.20836e-12
7.88523e-13
3.00933e-13
1.6325e-12
1.18857e-12
5.98119e-13
2.15209e-12
1.94678e-12
1.45182e-12
9.09832e-13
2.51265e-12
2.27092e-12
1.65469e-12
1.04546e-12
2.72604e-12
2.67434e-12
1.97693e-12
1.00647e-12
-2.76975e-13
-3.13018e-13
-5.61866e-13
-7.84818e-13
-1.79373e-14
-4.52221e-14
-2.71754e-13
-5.22033e-13
2.76933e-13
3.36008e-13
1.1874e-14
-2.89691e-13
7.32817e-13
6.81195e-13
3.53061e-13
-4.02536e-14
1.02575e-12
1.06226e-12
5.87298e-13
3.00933e-13
1.43132e-12
1.39894e-12
9.34422e-13
5.98119e-13
1.89638e-12
1.89773e-12
1.37772e-12
9.09832e-13
2.30148e-12
2.25593e-12
1.62261e-12
1.04546e-12
2.65021e-12
2.5732e-12
1.90417e-12
1.00647e-12
)
;
    }
    procBoundary7to0
    {
        type            processor;
        value           uniform -2.00678e-13;
    }
    procBoundary7to1
    {
        type            processor;
        value           uniform 1.12003e-14;
    }
    procBoundary7to3
    {
        type            processor;
        value           nonuniform List<scalar> 
36
(
6.82963e-14
3.72598e-13
8.54967e-13
1.19952e-12
1.72471e-12
2.3161e-12
2.82019e-12
3.52193e-12
3.73478e-12
-1.04845e-13
3.0447e-13
7.26543e-13
1.2178e-12
1.73431e-12
2.22679e-12
2.77446e-12
3.18125e-12
3.42029e-12
-2.43037e-13
-3.51587e-14
4.76053e-13
8.67725e-13
1.37271e-12
1.83107e-12
2.11887e-12
2.62819e-12
2.84659e-12
-4.72179e-13
-3.34745e-13
4.69063e-14
4.6119e-13
8.83978e-13
1.118e-12
1.62218e-12
1.9947e-12
2.45774e-12
)
;
    }
    procBoundary7to5
    {
        type            processor;
        value           nonuniform List<scalar> 
44
(
4.16641e-13
9.42969e-13
1.46113e-12
1.87107e-12
2.39538e-12
3.00403e-12
3.48172e-12
3.9518e-12
1.09476e-13
7.1808e-13
8.15219e-13
1.36134e-12
1.87537e-12
2.30843e-12
2.88554e-12
3.42766e-12
3.69722e-12
1.09476e-13
7.1808e-13
7.1808e-13
7.11974e-13
1.13881e-12
1.4901e-12
1.93739e-12
2.37332e-12
2.78326e-12
3.08466e-12
-1.43288e-13
2.91333e-13
7.11974e-13
1.13881e-12
1.13881e-12
1.31599e-12
1.7541e-12
1.80568e-12
2.10822e-12
2.38422e-12
-3.15207e-13
-2.07163e-14
3.71545e-13
8.12187e-13
1.31599e-12
1.7541e-12
1.7541e-12
)
;
    }
    procBoundary7to6
    {
        type            processor;
        value           nonuniform List<scalar> 
12
(
-2.60932e-13
-3.93651e-13
-6.50078e-13
-2.40385e-13
-4.36936e-13
-6.06456e-13
-4.29273e-13
-5.62918e-13
-7.96903e-13
-7.12016e-13
-7.66839e-13
-9.47685e-13
)
;
    }
}


// ************************************************************************* //
