/*--------------------------------*- C++ -*----------------------------------*\
| =========                 |                                                 |
| \\      /  F ield         | OpenFOAM: The Open Source CFD Toolbox           |
|  \\    /   O peration     | Version:  4.x                                   |
|   \\  /    A nd           | Web:      www.OpenFOAM.org                      |
|    \\/     M anipulation  |                                                 |
\*---------------------------------------------------------------------------*/
FoamFile
{
    version     2.0;
    format      ascii;
    class       volScalarField;
    location    "51";
    object      pSmooth;
}
// * * * * * * * * * * * * * * * * * * * * * * * * * * * * * * * * * * * * * //

dimensions      [1 -1 -2 0 0 0 0];

internalField   nonuniform List<scalar> 
132
(
20.7868
74.8297
1.99075
68.3634
0.1
62.4909
0.1
57.6402
0.1
20.9767
74.8918
2.21067
68.1047
0.1
61.1315
0.1
54.6906
0.1
19.162
74.7152
0.1
68.3556
0.1
63.0241
0.1
60.2355
0.1
19.7201
74.7925
0.172261
68.5154
0.1
63.1292
0.1
59.8931
0.1
3.63095
68.2784
0.1
62.4478
0.1
56.6025
0.1
22.9461
75.0027
4.98053
68.5161
0.1
62.2924
0.1
55.7631
0.1
21.13
74.9168
2.84019
68.3295
0.1
62.0931
0.1
55.8469
0.1
21.2651
75.504
2.91245
68.971
0.1
62.1216
0.1
55.5767
0.1
0.1
61.9185
0.1
57.0129
0.1
21.4045
74.9081
2.91608
68.106
0.1
61.0844
0.1
54.4791
0.1
20.6506
74.7701
1.42951
68.1353
0.1
62.3891
0.1
59.0367
0.1
20.8492
74.8489
1.97993
68.392
0.1
62.5968
0.1
58.6775
0.1
0.1
58.8026
0.1
21.347
75.0041
2.77347
68.4081
0.1
62.1922
0.1
56.5044
0.1
20.9104
74.9035
2.21646
68.4988
0.1
62.6991
0.1
58.3327
0.1
21.2483
75.0156
2.67416
68.5775
0.1
62.3639
0.1
56.8486
0.1
)
;

boundaryField
{
    inlet
    {
        type            zeroGradient;
    }
    outlet
    {
        type            fixedValue;
        value           uniform 0;
    }
    wall
    {
        type            zeroGradient;
    }
    procBoundary7to0
    {
        type            processor;
        value           uniform 81.9831;
    }
    procBoundary7to1
    {
        type            processor;
        value           uniform 22.5445;
    }
    procBoundary7to3
    {
        type            processor;
        value           nonuniform List<scalar> 
36
(
19.2662
74.766
0.1
68.315
0.1
62.9813
0.1
58.8726
0.1
21.4103
74.9342
3.32652
68.702
0.1
62.9808
0.1
56.8677
0.1
19.953
74.9415
0.803753
68.2684
0.1
62.3489
0.1
57.8501
0.1
20.1326
75.1084
1.2093
68.8995
0.1
63.1952
0.1
58.8099
0.1
)
;
    }
    procBoundary7to5
    {
        type            processor;
        value           nonuniform List<scalar> 
44
(
75.1202
4.97229
68.4227
0.1
61.6442
0.1
53.734
0.1
21.6058
74.7953
2.87726
68.2542
0.1
62.204
0.1
57.2757
0.1
21.6058
74.7953
74.7953
1.62039
68.0278
0.1
61.2722
0.1
54.4439
0.1
20.6263
74.879
1.62039
68.0278
68.0278
0.1
62.6437
0.1
58.6151
0.1
20.5142
74.8248
1.42579
68.3974
0.1
62.6437
62.6437
)
;
    }
    procBoundary7to6
    {
        type            processor;
        value           nonuniform List<scalar> 
12
(
82.1212
81.5941
81.6148
81.8613
82.0675
82.198
82.209
81.8368
81.7428
81.898
81.7566
81.7899
)
;
    }
}


// ************************************************************************* //
