/*--------------------------------*- C++ -*----------------------------------*\
| =========                 |                                                 |
| \\      /  F ield         | OpenFOAM: The Open Source CFD Toolbox           |
|  \\    /   O peration     | Version:  4.x                                   |
|   \\  /    A nd           | Web:      www.OpenFOAM.org                      |
|    \\/     M anipulation  |                                                 |
\*---------------------------------------------------------------------------*/
FoamFile
{
    version     2.0;
    format      ascii;
    class       volScalarField;
    location    "51";
    object      QWallFluid;
}
// * * * * * * * * * * * * * * * * * * * * * * * * * * * * * * * * * * * * * //

dimensions      [1 -1 -3 0 0 0 0];

internalField   nonuniform List<scalar> 
132
(
0
0
0
0
0
0
0
0
0
0
0
0
0
0
0
0
0
0
0
0
0
0
0
0
0
0
0
4.97603e+08
9.15752e+08
4.86886e+08
9.39207e+08
4.59388e+08
9.61568e+08
3.91983e+08
1.00561e+09
3.45317e+08
0
0
0
0
0
0
0
0
0
0
0
0
0
0
0
0
0
0
0
0
0
0
0
0
0
2.93347e+08
7.93719e+08
1.74679e+08
7.6163e+08
2.73121e+07
7.00986e+08
5167.12
5.74608e+08
1.20757e+08
0
0
0
0
0
0
0
0
0
0
0
0
0
0
0
0
0
0
0
0
0
0
0
4.94482e+08
8.87012e+08
4.8244e+08
9.05746e+08
4.59658e+08
9.53617e+08
4.08605e+08
1.06335e+09
3.44389e+08
3.831e+08
1.02923e+09
3.80813e+08
3.77068e+08
8.31346e+08
3.44463e+08
8.26303e+08
3.07156e+08
8.19866e+08
2.44863e+08
7.92535e+08
1.69793e+08
4.7387e+08
8.75856e+08
4.55023e+08
8.82732e+08
4.13743e+08
8.93731e+08
3.48362e+08
9.18419e+08
2.36463e+08
1.15491e+09
1.83115e+09
1.12561e+09
1.82728e+09
1.06901e+09
1.79424e+09
1.01375e+09
1.68533e+09
1.06856e+09
)
;

boundaryField
{
    inlet
    {
        type            calculated;
        value           nonuniform 0();
    }
    outlet
    {
        type            calculated;
        value           uniform 0;
    }
    wall
    {
        type            calculated;
        value           uniform 0;
    }
    procBoundary7to0
    {
        type            processor;
        value           uniform 0;
    }
    procBoundary7to1
    {
        type            processor;
        value           uniform 0;
    }
    procBoundary7to3
    {
        type            processor;
        value           nonuniform List<scalar> 
36
(
0
0
0
0
0
0
0
0
0
0
0
0
0
0
0
0
0
0
0
0
0
0
0
0
0
0
0
4.38487e+08
8.87014e+08
4.08972e+08
8.93631e+08
3.59157e+08
9.15628e+08
3.05486e+08
1.0141e+09
2.98906e+08
)
;
    }
    procBoundary7to5
    {
        type            processor;
        value           nonuniform List<scalar> 
44
(
0
0
0
0
0
0
0
0
0
0
0
0
0
0
0
0
0
0
0
0
0
0
0
0
0
0
0
0
0
0
0
0
3.97237e+08
9.32263e+08
4.13902e+08
1.06867e+09
3.92038e+08
4.35332e+08
8.72111e+08
4.2259e+08
8.93108e+08
3.97237e+08
9.32263e+08
9.32263e+08
)
;
    }
    procBoundary7to6
    {
        type            processor;
        value           nonuniform List<scalar> 
12
(
0
0
8.94297e+08
0
0
8.13085e+08
0
0
8.74057e+08
8.30657e+08
8.63035e+08
1.82466e+09
)
;
    }
}


// ************************************************************************* //
