/*--------------------------------*- C++ -*----------------------------------*\
| =========                 |                                                 |
| \\      /  F ield         | OpenFOAM: The Open Source CFD Toolbox           |
|  \\    /   O peration     | Version:  4.x                                   |
|   \\  /    A nd           | Web:      www.OpenFOAM.org                      |
|    \\/     M anipulation  |                                                 |
\*---------------------------------------------------------------------------*/
FoamFile
{
    version     2.0;
    format      ascii;
    class       volVectorField;
    location    "51";
    object      Urel;
}
// * * * * * * * * * * * * * * * * * * * * * * * * * * * * * * * * * * * * * //

dimensions      [0 1 -1 0 0 0 0];

internalField   nonuniform List<vector> 
132
(
(-0.0177505 2.47635e-05 0.000222897)
(-0.0196668 6.27329e-06 0.000172417)
(-0.0176552 1.55778e-05 0.000147011)
(-0.0195697 9.53117e-06 7.7742e-05)
(-0.0174419 3.73199e-05 5.39929e-05)
(-0.0192281 2.10773e-05 -5.4969e-05)
(-0.0168969 5.86234e-05 1.41767e-05)
(-0.0181306 0.000109339 -0.000129476)
(-0.0159015 -5.32673e-05 0.000363729)
(-0.0179363 8.12135e-07 0.000229611)
(-0.0198814 1.62488e-05 0.000192167)
(-0.0178626 3.00092e-05 0.000164695)
(-0.0197718 3.87203e-05 0.000107672)
(-0.0177211 9.42849e-06 0.000107873)
(-0.0194565 1.40332e-05 1.51502e-05)
(-0.0173434 -0.000198822 0.000129021)
(-0.0184467 -0.000126256 4.73285e-05)
(-0.0163087 -0.00108888 0.000354032)
(-0.0193036 -4.86058e-05 0.000329672)
(-0.0210242 1.10746e-05 0.000286485)
(-0.0192479 4.51597e-06 0.000312563)
(-0.0210136 6.84596e-05 0.000264282)
(-0.0190847 -5.12835e-05 0.000337326)
(-0.0208162 5.4173e-05 0.000252339)
(-0.0185238 -0.000328701 0.000486224)
(-0.0199067 -0.000146407 0.000329249)
(-0.0167572 -0.00133378 0.00104884)
(-0.0207262 5.45743e-05 0.000435194)
(-0.0221567 0.000114866 0.000408155)
(-0.020611 0.000164727 0.000435745)
(-0.0220777 0.000193567 0.000379489)
(-0.0202719 0.000158748 0.000480596)
(-0.0217524 0.000105091 0.000348897)
(-0.0194324 -7.10106e-05 0.000689398)
(-0.0207024 -0.000273056 0.000489725)
(-0.0171446 -0.000689965 0.00151621)
(-0.017396 6.50884e-05 4.60821e-05)
(-0.0193325 8.43461e-05 -1.99714e-05)
(-0.0172502 8.42956e-05 -5.50221e-05)
(-0.0190518 8.79424e-05 -0.000165803)
(-0.0167853 0.000103532 -0.000221403)
(-0.0181121 3.07564e-05 -0.000380556)
(-0.015921 0.000244105 -0.000633153)
(-0.0176532 3.84883e-05 0.000135032)
(-0.0195329 6.90474e-05 0.000118082)
(-0.0175487 7.43792e-05 9.55393e-05)
(-0.0194328 9.45108e-05 5.83975e-05)
(-0.0173693 7.53972e-05 2.97914e-05)
(-0.0191385 4.21131e-05 -3.47057e-05)
(-0.0168823 -1.38825e-05 -6.74493e-05)
(-0.0182337 -0.000108253 -0.000171269)
(-0.0158279 -0.000306584 -0.000258587)
(-0.0185503 2.50546e-05 0.000196549)
(-0.0203533 0.000105384 0.000182021)
(-0.0183807 9.59918e-05 0.000170132)
(-0.0201466 0.000151697 0.00013019)
(-0.0180915 8.60809e-05 0.000124633)
(-0.019678 6.70854e-05 5.1851e-05)
(-0.0174431 -4.91735e-05 7.87574e-05)
(-0.0184624 -0.000107871 -3.68844e-05)
(-0.0160516 -0.000447503 1.50453e-05)
(-0.0198846 5.84604e-05 0.000284416)
(-0.0213149 0.000158321 0.000253116)
(-0.0194435 0.000164599 0.000259856)
(-0.0209387 0.000231367 0.000202707)
(-0.0188128 0.000166138 0.00019684)
(-0.0202806 0.000125954 0.000120779)
(-0.0179571 3.28867e-05 0.000177114)
(-0.0188698 -0.000104318 5.59467e-05)
(-0.0162723 -0.000265223 0.000200867)
(-0.0180654 0.000168448 -0.000129596)
(-0.0199166 0.000173296 -0.000189156)
(-0.0177455 0.00025033 -0.000452322)
(-0.0190822 0.000266335 -0.000528563)
(-0.0166478 0.000410575 -0.00174089)
(-0.0183272 5.78528e-05 4.7514e-05)
(-0.0201677 7.86649e-05 5.42784e-05)
(-0.0181931 0.000114978 4.78445e-05)
(-0.020065 0.000150233 2.8012e-05)
(-0.0180297 0.000161441 -1.06842e-05)
(-0.0197994 0.000201284 -5.47349e-05)
(-0.0176534 0.000125515 -0.000202939)
(-0.0189038 0.000189377 -0.000268452)
(-0.0165231 -0.000438584 -0.000906738)
(-0.019458 1.22033e-05 8.77019e-05)
(-0.0210885 7.21165e-05 9.73465e-05)
(-0.0193343 0.000102795 9.78622e-05)
(-0.02105 0.000169447 0.00010264)
(-0.0191551 0.000133409 4.63716e-05)
(-0.0209013 0.000242154 6.54923e-05)
(-0.018664 3.61572e-05 -0.00010414)
(-0.0202139 0.000220978 -6.61369e-05)
(-0.0168438 -0.000594954 -0.000773215)
(-0.0207954 5.20045e-05 0.000119423)
(-0.0220955 0.000126084 9.75147e-05)
(-0.0205996 0.000192281 0.000119933)
(-0.0219317 0.000249573 9.74758e-05)
(-0.0202149 0.000282386 8.59408e-05)
(-0.0215991 0.000280781 9.76633e-05)
(-0.0194331 0.000275629 8.04474e-06)
(-0.02073 0.000169858 -1.6992e-05)
(-0.0172574 0.000109182 -0.000544352)
(-0.0191767 0.000551795 -0.000477393)
(-0.0206267 0.000411265 -0.000550357)
(-0.017169 0.0010382 -0.0016325)
(-0.019796 0.000115202 8.06946e-07)
(-0.0212422 0.000144448 3.57017e-05)
(-0.0196337 0.000200741 4.75848e-05)
(-0.0211216 0.000231505 7.43628e-05)
(-0.0193322 0.000295397 2.68433e-05)
(-0.020759 0.000303741 8.0216e-05)
(-0.0186049 0.000371597 -0.000106168)
(-0.0196951 0.00029516 -0.000116339)
(-0.0166452 0.000384508 -0.00067449)
(-0.0206992 4.70587e-05 8.40216e-05)
(-0.0220194 0.000102677 0.000122223)
(-0.020542 0.000150754 0.000176497)
(-0.0218782 0.000209026 0.000211502)
(-0.0201722 0.000235368 0.000252211)
(-0.0214906 0.000267063 0.000253254)
(-0.0193245 0.000251506 0.000280392)
(-0.0204088 0.000256412 8.72246e-05)
(-0.0171451 0.00018177 5.60391e-05)
(-0.0216885 8.23028e-05 0.000142063)
(-0.0228469 0.000145961 0.000170024)
(-0.0215157 0.000214052 0.000226983)
(-0.0226276 0.000258993 0.000249353)
(-0.0210806 0.000321844 0.000324039)
(-0.022098 0.000295205 0.000298543)
(-0.0201574 0.000384633 0.000449531)
(-0.0207648 0.000250919 0.000198256)
(-0.0181949 0.000627027 0.000573285)
)
;

boundaryField
{
    inlet
    {
        type            calculated;
        value           nonuniform 0();
    }
    outlet
    {
        type            calculated;
        value           nonuniform List<vector> 
16
(
(-0.00335322 -0.0013965 0.00180894)
(-0.00952858 -0.0103348 -0.000956407)
(-0.00567708 -0.00910916 0.0050786)
(-0.00592942 0.000385574 0.00865972)
(-0.00567746 0.00131772 -0.00144805)
(-0.00345755 0.000599288 -0.000123965)
(-0.00366976 0.000627962 -0.000298524)
(-0.00284397 -7.74794e-05 -0.000507929)
(-0.00875783 0.000622281 -0.0113601)
(-0.00920595 -0.00751831 -0.00352332)
(-0.00713716 -0.00870468 -0.00830948)
(-0.00741068 0.00163083 -0.00725509)
(-0.0074739 0.00704908 -0.00607927)
(-0.00399479 0.00181168 -0.00107646)
(-0.00580362 0.000335591 0.00314604)
(-0.0159551 0.00479653 0.00679494)
)
;
    }
    wall
    {
        type            calculated;
        value           nonuniform List<vector> 
66
(
(6.50948e-10 1.80633e-10 9.58027e-11)
(6.41665e-10 3.85636e-10 1.78953e-11)
(4.37743e-10 -8.31486e-11 -9.24328e-12)
(7.93876e-10 3.34202e-10 -1.42912e-11)
(7.38218e-10 2.45549e-10 1.93132e-11)
(5.71539e-10 2.20056e-11 -1.26497e-11)
(8.4437e-10 1.88055e-10 -3.36836e-11)
(9.08745e-10 3.16524e-10 -1.23233e-10)
(7.10861e-10 5.19593e-11 -2.6923e-12)
(7.73005e-10 3.05438e-10 -2.04999e-11)
(9.99731e-10 3.41037e-10 1.39047e-12)
(9.76481e-10 1.29303e-10 9.07805e-11)
(6.31517e-10 4.08743e-10 3.75422e-11)
(1.05217e-09 3.93938e-10 8.18267e-11)
(1.30727e-09 -6.7505e-09 4.34925e-11)
(4.84197e-10 5.03207e-10 -4.87645e-11)
(7.95277e-10 3.5127e-10 -1.53377e-11)
(9.25191e-10 2.3536e-10 2.41486e-10)
(2.70956e-10 4.01278e-10 3.38847e-12)
(3.30682e-10 3.64454e-10 1.17794e-10)
(5.93018e-10 2.80533e-10 -3.2325e-11)
(9.85759e-10 1.424e-10 5.44837e-11)
(1.80429e-10 6.68914e-10 1.08107e-10)
(-1.84605e-10 1.12475e-10 2.89259e-10)
(8.13955e-10 4.56168e-11 3.15296e-10)
(1.86739e-09 7.68267e-10 1.99554e-10)
(-1.70635e-10 1.42779e-09 6.44442e-10)
(-4.66236e-10 5.57872e-11 4.85248e-10)
(7.6703e-10 7.43646e-10 -3.37155e-10)
(-1.41462e-09 3.82064e-06 3.48202e-10)
(6.2e-10 -1.29519e-10 9.6905e-11)
(4.95415e-10 -1.8228e-10 6.28198e-11)
(7.47187e-10 -8.10063e-11 -1.87926e-11)
(4.37743e-10 -8.31486e-11 -9.24328e-12)
(9.05358e-10 -1.69179e-10 1.1776e-10)
(6.59519e-10 -1.36352e-10 1.86959e-10)
(7.82099e-10 1.22167e-11 6.92634e-11)
(5.71539e-10 2.20056e-11 -1.26497e-11)
(8.1936e-10 1.01294e-10 1.96537e-10)
(6.98917e-10 2.90948e-10 3.4352e-10)
(1.04938e-09 4.63214e-11 6.08144e-11)
(7.10861e-10 5.19593e-11 -2.6923e-12)
(7.79776e-10 1.7453e-10 2.31234e-10)
(1.16157e-09 1.65054e-10 2.25615e-10)
(1.54033e-09 1.79734e-10 1.62817e-10)
(9.76481e-10 1.29303e-10 9.07805e-11)
(5.80171e-10 1.05018e-10 1.5561e-10)
(1.15419e-09 2.81939e-10 1.00945e-10)
(1.39284e-09 2.47716e-10 1.60129e-10)
(1.30727e-09 -6.7505e-09 4.34925e-11)
(3.70299e-10 1.25948e-10 2.32186e-10)
(1.0582e-09 6.40668e-10 2.88026e-10)
(2.1715e-09 4.24704e-10 4.22388e-10)
(9.25191e-10 2.3536e-10 2.41486e-10)
(2.12534e-10 5.53813e-11 -2.72848e-10)
(7.35039e-10 2.98125e-10 -3.16118e-11)
(1.64584e-09 3.20549e-10 2.57463e-10)
(9.85759e-10 1.424e-10 5.44837e-11)
(2.98891e-10 1.32966e-10 -8.29526e-10)
(5.39521e-10 -9.60996e-12 -3.13199e-10)
(1.08046e-09 1.45111e-10 1.80308e-10)
(1.86739e-09 7.68267e-10 1.99554e-10)
(-1.01377e-10 5.79486e-11 -5.46685e-11)
(-2.11726e-10 4.16542e-11 1.56552e-11)
(6.40051e-10 7.89487e-10 8.56799e-11)
(-1.41462e-09 3.82064e-06 3.48202e-10)
)
;
    }
    procBoundary7to0
    {
        type            processor;
        value           uniform (-0.0197366 3.6799e-05 0.000270908);
    }
    procBoundary7to1
    {
        type            processor;
        value           uniform (-0.0179853 5.39621e-05 0.000209345);
    }
    procBoundary7to3
    {
        type            processor;
        value           nonuniform List<vector> 
36
(
(-0.0187933 6.03575e-05 0.000339617)
(-0.0206801 4.79305e-05 0.000251153)
(-0.0187267 6.23288e-05 0.000238336)
(-0.0206599 6.94282e-05 0.000135807)
(-0.0185815 0.000106944 0.000195973)
(-0.0203538 0.000102502 4.71699e-05)
(-0.0180489 0.000171625 0.00036154)
(-0.019266 8.13831e-05 0.000243126)
(-0.0168369 0.000390622 0.00150014)
(-0.0187196 1.83153e-05 0.000294735)
(-0.0206435 3.95007e-05 0.000212087)
(-0.0186768 4.03964e-05 0.000188851)
(-0.0205892 3.97635e-05 9.68251e-05)
(-0.0185358 1.74217e-05 0.000120521)
(-0.0202733 -5.19018e-05 -5.31936e-07)
(-0.0179778 -0.000141548 0.000249173)
(-0.0190929 -0.000286027 0.000256362)
(-0.0166948 -0.000662764 0.00101521)
(-0.0197668 -1.36238e-05 0.000356765)
(-0.0216766 3.91546e-05 0.000301182)
(-0.0197466 5.37901e-05 0.000271682)
(-0.0217282 8.02526e-05 0.00020163)
(-0.0197245 -1.05204e-05 0.000252855)
(-0.0216182 -4.99308e-05 0.000169461)
(-0.0193892 -0.000412459 0.000518622)
(-0.0206868 -0.000472698 0.000505744)
(-0.0178043 -0.00182493 0.00175511)
(-0.021465 3.52637e-05 0.000451796)
(-0.022956 0.000106553 0.000390583)
(-0.0214432 0.000166524 0.000388152)
(-0.0229885 0.000219903 0.000309197)
(-0.0212282 0.000148279 0.000401589)
(-0.0228325 0.00010442 0.000309257)
(-0.0205918 -0.000198052 0.000681087)
(-0.0220876 -0.000438924 0.000725192)
(-0.0182976 -0.00126293 0.00205122)
)
;
    }
    procBoundary7to5
    {
        type            processor;
        value           nonuniform List<vector> 
44
(
(-0.0198209 -5.76152e-06 0.000155913)
(-0.0178668 1.20792e-05 0.00011997)
(-0.0196987 -9.64792e-06 5.06672e-05)
(-0.0176676 4.15081e-05 3.07398e-05)
(-0.0193289 7.5274e-05 -7.12631e-05)
(-0.0171231 0.000178875 -5.52323e-06)
(-0.018268 0.000293917 -7.48822e-05)
(-0.016271 0.000507289 0.000284027)
(-0.0174939 5.86275e-05 0.000102002)
(-0.0194035 6.6892e-05 8.09874e-05)
(-0.0177631 4.94153e-05 9.55352e-06)
(-0.0197325 2.93236e-05 -5.72712e-05)
(-0.0176462 8.00257e-05 -0.000111633)
(-0.0195126 8.97084e-05 -0.000219426)
(-0.0172937 0.000246385 -0.00034244)
(-0.0186292 0.000209896 -0.000419328)
(-0.0163245 0.000800369 -0.000897082)
(-0.0174939 5.86275e-05 0.000102002)
(-0.0194035 6.6892e-05 8.09874e-05)
(-0.0194035 6.6892e-05 8.09874e-05)
(-0.0181315 0.000120513 -2.06776e-05)
(-0.0200874 0.000126963 -4.05315e-05)
(-0.0184345 0.000136661 -0.000186733)
(-0.0202517 0.000125252 -0.000256747)
(-0.0181281 0.000293893 -0.00053002)
(-0.019395 0.000338805 -0.000677285)
(-0.0169751 0.000881217 -0.00193344)
(-0.0182507 9.86427e-05 3.95714e-08)
(-0.0201102 9.03711e-05 2.45621e-06)
(-0.0181315 0.000120513 -2.06776e-05)
(-0.0200874 0.000126963 -4.05315e-05)
(-0.0200874 0.000126963 -4.05315e-05)
(-0.0196581 0.000349727 -0.000144838)
(-0.0212859 0.000333108 -0.000149938)
(-0.0199234 0.000472097 -0.000755705)
(-0.021422 0.000414205 -0.000712395)
(-0.017719 0.00102034 -0.00217425)
(-0.0198476 0.000180032 -6.47692e-05)
(-0.0213251 0.000189737 -5.24753e-05)
(-0.0197947 0.000244165 -5.50468e-05)
(-0.0213686 0.000254134 -4.02882e-05)
(-0.0196581 0.000349727 -0.000144838)
(-0.0212859 0.000333108 -0.000149938)
(-0.0212859 0.000333108 -0.000149938)
)
;
    }
    procBoundary7to6
    {
        type            processor;
        value           nonuniform List<vector> 
12
(
(-0.0199281 -3.96375e-05 0.000275765)
(-0.020977 -0.000100695 0.000345025)
(-0.0220972 -3.28503e-05 0.000436883)
(-0.0196176 3.16603e-05 0.000161187)
(-0.0204762 -1.00571e-05 0.000223856)
(-0.0215147 -1.2827e-05 0.000281329)
(-0.0202597 2.42544e-05 4.03702e-05)
(-0.0211285 -6.01438e-05 6.31878e-05)
(-0.0221438 -3.64559e-05 9.03015e-05)
(-0.0212901 7.52565e-05 -4.42558e-05)
(-0.0220427 -1.4948e-05 3.48589e-05)
(-0.0228711 -3.41419e-06 9.44871e-05)
)
;
    }
}


// ************************************************************************* //
