/*--------------------------------*- C++ -*----------------------------------*\
| =========                 |                                                 |
| \\      /  F ield         | OpenFOAM: The Open Source CFD Toolbox           |
|  \\    /   O peration     | Version:  4.x                                   |
|   \\  /    A nd           | Web:      www.OpenFOAM.org                      |
|    \\/     M anipulation  |                                                 |
\*---------------------------------------------------------------------------*/
FoamFile
{
    version     2.0;
    format      ascii;
    class       volVectorField;
    location    "51";
    object      UsPrev;
}
// * * * * * * * * * * * * * * * * * * * * * * * * * * * * * * * * * * * * * //

dimensions      [0 1 -1 0 0 0 0];

internalField   nonuniform List<vector> 
132
(
(1.71813e-09 4.32206e-10 1.25093e-09)
(1.91601e-09 4.54134e-10 1.25484e-09)
(2.22034e-09 8.14996e-10 1.58031e-09)
(2.24386e-09 4.31059e-10 4.7165e-10)
(1.95661e-09 2.73565e-10 5.91657e-11)
(1.50733e-09 1.08978e-10 -5.19059e-10)
(9.71889e-10 2.45347e-10 -6.44821e-10)
(7.67579e-10 2.31932e-10 -7.09992e-10)
(3.67569e-10 5.65441e-11 -1.0657e-10)
(1.58879e-09 2.61158e-11 4.40832e-10)
(1.89895e-09 1.99741e-10 5.26777e-10)
(2.05737e-09 3.24189e-10 4.92704e-10)
(2.23415e-09 3.90638e-10 2.17527e-10)
(1.69803e-09 2.22769e-10 6.08914e-12)
(1.32912e-09 1.8188e-10 -1.45478e-10)
(1.17463e-09 1.67706e-10 -3.10167e-10)
(8.67638e-10 2.30608e-10 -3.98007e-10)
(3.57134e-10 2.23608e-10 -1.12671e-10)
(1.19653e-09 1.45626e-10 1.78534e-10)
(1.52755e-09 -4.74622e-11 6.28581e-11)
(1.50255e-09 2.26171e-10 3.16953e-10)
(1.39435e-09 3.44719e-10 2.38503e-10)
(1.17311e-09 1.96315e-10 2.76504e-11)
(8.41741e-10 1.70608e-10 1.27807e-10)
(6.86424e-10 1.95154e-10 -2.8253e-10)
(7.79498e-10 2.87619e-10 -7.47628e-10)
(5.26365e-11 2.53008e-10 -3.6654e-10)
(5.46267e-10 -9.93094e-11 1.07884e-10)
(8.01326e-10 -1.33193e-10 1.20066e-10)
(7.2406e-10 1.01342e-10 1.7708e-10)
(7.4577e-10 1.80832e-10 2.18774e-10)
(5.66319e-10 1.22452e-10 1.69862e-10)
(3.96615e-10 1.27862e-10 2.64236e-10)
(2.95862e-10 8.10624e-11 -1.88624e-10)
(3.86141e-10 1.49035e-10 -6.5437e-10)
(2.79926e-11 8.19936e-11 -2.64757e-11)
(1.98212e-09 3.24324e-10 8.36539e-10)
(1.96364e-09 4.73962e-10 5.02469e-10)
(1.50597e-09 2.95831e-10 9.09544e-11)
(1.27693e-09 4.60247e-10 -1.33681e-10)
(7.47743e-10 5.53356e-10 -3.40751e-10)
(5.23361e-10 5.07714e-10 -3.79593e-10)
(2.09998e-10 4.04072e-10 1.95565e-10)
(1.53275e-09 2.50644e-10 3.2612e-10)
(1.70901e-09 3.79516e-10 4.35759e-10)
(1.93079e-09 2.10974e-10 3.56904e-10)
(2.03812e-09 5.11013e-10 1.81982e-10)
(1.76989e-09 4.67507e-10 2.0492e-10)
(1.23769e-09 6.0314e-10 5.11176e-11)
(1.1018e-09 4.31814e-10 -1.64116e-10)
(9.11513e-10 3.65062e-10 -2.34356e-11)
(-2.19257e-11 2.37105e-10 2.37645e-10)
(1.30498e-09 1.88728e-10 1.69195e-10)
(1.29176e-09 6.12411e-11 1.54663e-10)
(1.48108e-09 4.03053e-10 3.4304e-10)
(1.72722e-09 4.08656e-10 2.67899e-10)
(1.72323e-09 6.77484e-10 1.93223e-10)
(1.56448e-09 1.09175e-09 1.99445e-10)
(1.44462e-09 3.25234e-10 8.86547e-12)
(9.50322e-10 1.92367e-10 -1.57256e-10)
(-9.10485e-11 -3.04981e-11 1.85563e-10)
(4.67064e-10 -1.34108e-10 4.57326e-11)
(6.22114e-10 -9.89462e-11 1.64005e-10)
(6.68674e-10 3.08121e-10 3.02391e-10)
(1.08633e-09 1.62355e-10 2.23382e-10)
(1.04287e-09 2.6389e-10 9.98643e-11)
(9.7076e-10 5.71672e-10 3.08023e-10)
(7.39108e-10 2.74266e-10 2.9076e-11)
(5.55684e-10 2.14422e-11 -2.16943e-10)
(-6.61081e-11 7.01277e-11 2.31798e-11)
(1.15776e-09 4.80801e-10 1.19547e-10)
(8.36563e-10 5.19186e-10 6.65003e-12)
(3.38321e-10 5.36813e-10 -9.71764e-11)
(2.20316e-10 6.0579e-10 1.48715e-10)
(1.49973e-10 5.20702e-10 3.69339e-10)
(1.34066e-09 3.27591e-10 2.56094e-10)
(1.56953e-09 5.08367e-10 1.7741e-10)
(1.5398e-09 3.28527e-10 1.06628e-10)
(1.40522e-09 5.56819e-10 4.16511e-11)
(1.19832e-09 5.85529e-10 8.05156e-11)
(8.58251e-10 6.79766e-10 3.33456e-11)
(7.97692e-10 4.68627e-10 3.19457e-11)
(5.67166e-10 2.38307e-10 4.07675e-10)
(1.17025e-10 2.78187e-10 4.30169e-10)
(1.20074e-09 1.7774e-10 5.99955e-11)
(1.40837e-09 1.52421e-10 1.51407e-10)
(1.67192e-09 3.63707e-10 2.24272e-11)
(1.67391e-09 5.62239e-10 9.05666e-11)
(1.60005e-09 5.90491e-10 2.60854e-10)
(1.6431e-09 7.42793e-10 2.33122e-10)
(1.61857e-09 4.2696e-10 2.22606e-10)
(1.63698e-09 9.88112e-11 5.30731e-10)
(8.98842e-10 6.59803e-11 1.10474e-11)
(6.6878e-10 -5.75424e-11 -3.18745e-11)
(7.17367e-10 2.30818e-11 5.18772e-11)
(9.65223e-10 5.08025e-11 5.01122e-11)
(1.40225e-09 1.67011e-10 1.57893e-10)
(1.25617e-09 2.27015e-10 1.69598e-10)
(1.92973e-09 3.76222e-10 5.1644e-10)
(1.551e-09 3.07855e-10 3.5796e-10)
(1.01535e-09 1.46879e-10 2.51503e-10)
(6.04353e-10 2.49147e-10 7.90216e-11)
(2.84361e-10 4.28362e-10 7.34965e-11)
(2.40963e-10 6.4309e-10 2.17847e-10)
(-2.48454e-10 1.32755e-09 8.09055e-10)
(5.19073e-10 1.90101e-10 8.1651e-11)
(6.44822e-10 3.2961e-10 -2.86758e-11)
(7.15373e-10 2.00362e-10 -2.99742e-11)
(6.60433e-10 3.05439e-10 -7.85858e-12)
(5.4339e-10 4.06042e-10 5.70424e-11)
(4.04274e-10 5.39656e-10 7.47894e-11)
(2.98415e-10 4.10916e-10 2.12224e-10)
(-6.53436e-11 1.13509e-10 3.71914e-10)
(-4.68816e-10 -1.52789e-11 5.74997e-10)
(5.65463e-10 3.96508e-10 1.15772e-11)
(6.45782e-10 2.46262e-10 1.1136e-11)
(7.91488e-10 3.17134e-10 -1.09321e-10)
(8.93461e-10 3.32123e-10 1.19192e-11)
(9.75229e-10 3.75757e-10 9.46569e-11)
(7.41964e-10 3.29892e-10 8.45445e-11)
(5.63193e-10 2.44489e-10 1.13162e-10)
(7.52753e-10 2.68899e-11 4.03829e-10)
(7.01383e-10 2.33838e-10 -2.72561e-10)
(3.80846e-10 -5.57986e-11 -1.31009e-11)
(5.09357e-10 3.0886e-11 -1.48467e-11)
(6.36169e-10 5.66644e-11 4.25688e-12)
(8.86477e-10 1.2526e-10 9.68629e-11)
(1.19589e-09 -6.48029e-09 6.61657e-11)
(8.63486e-10 1.99208e-10 2.80218e-10)
(9.43782e-10 9.35467e-11 1.15014e-10)
(1.78898e-09 2.46077e-10 2.52868e-10)
(-1.40145e-09 4.13332e-09 6.29536e-10)
)
;

boundaryField
{
    inlet
    {
        type            calculated;
        value           nonuniform 0();
    }
    outlet
    {
        type            calculated;
        value           uniform (0 0 0);
    }
    wall
    {
        type            calculated;
        value           uniform (0 0 0);
    }
    procBoundary7to0
    {
        type            processor;
        value           uniform (0 0 0);
    }
    procBoundary7to1
    {
        type            processor;
        value           uniform (0 0 0);
    }
    procBoundary7to3
    {
        type            processor;
        value           uniform (0 0 0);
    }
    procBoundary7to5
    {
        type            processor;
        value           uniform (0 0 0);
    }
    procBoundary7to6
    {
        type            processor;
        value           uniform (0 0 0);
    }
}


// ************************************************************************* //
