/*--------------------------------*- C++ -*----------------------------------*\
| =========                 |                                                 |
| \\      /  F ield         | OpenFOAM: The Open Source CFD Toolbox           |
|  \\    /   O peration     | Version:  4.x                                   |
|   \\  /    A nd           | Web:      www.OpenFOAM.org                      |
|    \\/     M anipulation  |                                                 |
\*---------------------------------------------------------------------------*/
FoamFile
{
    version     2.0;
    format      ascii;
    class       volScalarField;
    location    "57.5";
    object      QWallFluidCoeff;
}
// * * * * * * * * * * * * * * * * * * * * * * * * * * * * * * * * * * * * * //

dimensions      [1 -1 -3 -1 0 0 0];

internalField   nonuniform List<scalar> 
108
(
-2.19749e+06
-3.48667e+06
-2.24695e+06
-3.66801e+06
-2.19945e+06
-3.88306e+06
-1.92201e+06
-4.17695e+06
-1.64327e+06
-1.74403e+06
-3.12475e+06
-1.57947e+06
-3.11014e+06
-1.21786e+06
-2.91502e+06
-504790
-2.29497e+06
-34.9841
-2.17868e+06
-3.43594e+06
-2.19985e+06
-3.60464e+06
-2.13427e+06
-3.83907e+06
-1.89534e+06
-4.27384e+06
-1.77984e+06
-5.26678e+06
-7.40085e+06
-5.34834e+06
-7.61199e+06
-5.21966e+06
-8.00698e+06
-4.76492e+06
-8.77874e+06
-3.40746e+06
0
0
0
0
0
0
0
0
0
0
0
0
0
0
0
0
0
0
0
0
0
0
0
0
0
0
0
-1.996e+06
-3.30022e+06
-1.98567e+06
-3.4084e+06
-1.87584e+06
-3.63118e+06
-1.65954e+06
-4.19807e+06
-2.04804e+06
0
0
0
0
0
0
0
0
0
0
0
0
0
0
0
0
0
0
0
0
0
0
0
0
0
0
0
-1.45401e+06
-2.95415e+06
-1.35083e+06
-2.97342e+06
-1.18128e+06
-3.03953e+06
-994261
-3.35443e+06
-995372
)
;

boundaryField
{
    inlet
    {
        type            calculated;
        value           nonuniform 0();
    }
    outlet
    {
        type            calculated;
        value           uniform 0;
    }
    wall
    {
        type            calculated;
        value           uniform 0;
    }
    procBoundary3to1
    {
        type            processor;
        value           uniform 0;
    }
    procBoundary3to2
    {
        type            processor;
        value           uniform 0;
    }
    procBoundary3to7
    {
        type            processor;
        value           uniform 0;
    }
}


// ************************************************************************* //
