/*--------------------------------*- C++ -*----------------------------------*\
| =========                 |                                                 |
| \\      /  F ield         | OpenFOAM: The Open Source CFD Toolbox           |
|  \\    /   O peration     | Version:  4.x                                   |
|   \\  /    A nd           | Web:      www.OpenFOAM.org                      |
|    \\/     M anipulation  |                                                 |
\*---------------------------------------------------------------------------*/
FoamFile
{
    version     2.0;
    format      ascii;
    class       volVectorField;
    location    "57.5";
    object      U;
}
// * * * * * * * * * * * * * * * * * * * * * * * * * * * * * * * * * * * * * //

dimensions      [0 1 -1 0 0 0 0];

internalField   nonuniform List<vector> 
108
(
(0.0225299 -0.000383497 -0.000235666)
(0.0399482 -0.000389268 -0.000457974)
(0.0232038 -0.000462099 -0.000253522)
(0.0425176 -0.000761031 7.88017e-05)
(0.0224022 -0.00171493 -0.000418748)
(0.0455985 -0.0014002 0.00136118)
(0.018462 -0.00459278 -0.00162981)
(0.0502891 0.000221078 0.00329954)
(0.00906037 -0.0116634 -0.00533615)
(0.0168741 -0.000455292 -0.000154476)
(0.035233 -0.000275523 -9.3102e-05)
(0.0149248 -0.000448049 -0.00018492)
(0.0347465 -0.000226928 0.00097851)
(0.0107734 -0.000413322 -0.000119338)
(0.0319131 6.38223e-05 0.00246092)
(0.00360201 -9.53809e-05 -7.57056e-05)
(0.0237499 1.11627e-08 0.0029952)
(2.46909e-08 1.06737e-09 -2.20456e-10)
(0.0222689 0.000627917 0.000119448)
(0.0394874 0.000801368 5.8014e-05)
(0.022626 0.000861614 0.00060696)
(0.0417681 0.000802549 0.000744779)
(0.0215647 0.00228303 0.00139471)
(0.0451163 0.000739393 0.00192261)
(0.0178907 0.00552228 0.00188956)
(0.0519238 -0.00272484 0.00266625)
(0.00972569 0.0143649 4.21453e-05)
(0.0279796 -0.000660772 8.29134e-05)
(0.0428552 -0.000586701 4.59531e-05)
(0.0286108 -0.00134766 0.000481961)
(0.0448251 -0.00105846 0.000546807)
(0.0278706 -0.00184047 0.000996122)
(0.0475596 -0.00108803 0.00133399)
(0.0246522 -0.00237779 0.00191161)
(0.0536471 -0.00102699 0.00269844)
(0.0133293 -0.00114101 -0.00901759)
(0.00685051 4.97208e-05 -0.000525265)
(0.0324664 0.000176101 -0.000383028)
(0.00597267 0.000102782 -0.0006665)
(0.0340996 9.43452e-05 0.000560297)
(0.00524581 8.86802e-05 -0.00107597)
(0.0358619 -0.000432708 0.0023562)
(0.00490598 -2.35002e-05 -0.00237945)
(0.0381678 -0.00118279 0.00634588)
(0.00571064 -0.000941789 -0.0109689)
(0.00231441 -3.47486e-05 -0.00032367)
(0.0298046 0.000287675 0.000207332)
(0.00061054 1.18645e-05 -0.000141399)
(0.0297139 0.00016911 0.000854615)
(0.000322971 2.83898e-05 -0.000112166)
(0.0284489 -0.00034733 0.00180092)
(0.000936104 0.00027529 -0.000390922)
(0.0239478 -0.00278732 0.00291357)
(0.00370652 0.00312558 -0.0015227)
(0.0102216 0.000474578 -0.000987456)
(0.0339442 0.00070672 -0.000745196)
(0.0103771 0.000865576 -0.00141351)
(0.0366831 -7.99388e-05 0.00020495)
(0.0111003 0.00212454 -0.00251692)
(0.0411282 -0.00126643 0.00204287)
(0.0118004 0.00567459 -0.0050577)
(0.0482493 -0.00462408 0.00546131)
(0.00790394 0.0188639 -0.0149503)
(0.0202306 -0.000566098 -0.00134878)
(0.0378842 -0.000479075 -0.0011162)
(0.0200612 -0.00124029 -0.0017946)
(0.0397323 -0.00103041 -0.000766051)
(0.0186584 -0.00185874 -0.00264619)
(0.0430391 -0.0012916 0.000454232)
(0.0156831 -0.00200795 -0.00365439)
(0.0517525 -0.000599224 0.00407763)
(0.00940583 0.00194779 -0.0187737)
(0.00390133 -0.000365285 -0.000732024)
(0.030396 -0.000231617 -0.000219125)
(0.00320158 -0.000468775 -0.000832421)
(0.0308856 -0.000536322 0.000165602)
(0.00341268 -0.000911973 -0.00143493)
(0.0306314 -0.000689847 0.00116109)
(0.00419253 -0.00171046 -0.0026918)
(0.028102 0.00109669 0.0037189)
(0.00789553 -0.00423897 -0.00925866)
(1.10916e-08 -1.50809e-09 9.73858e-11)
(0.0272433 -0.00022486 0.000423266)
(8.33812e-09 -3.176e-09 -1.48477e-10)
(0.0269599 4.1133e-05 0.000641885)
(5.70798e-09 -2.15012e-09 -2.97276e-10)
(0.0264306 0.00087398 0.00182337)
(7.38954e-09 -1.12966e-09 -1.5915e-09)
(0.0227696 0.00122455 0.00266843)
(0.00379843 -0.000181445 -0.000526857)
(0.000823519 7.98903e-05 -4.3397e-05)
(0.0297778 -0.00023268 -6.36549e-05)
(8.88971e-09 1.5533e-09 2.05099e-09)
(0.0302147 -0.000321242 0.000318769)
(0.00116257 0.000348928 -0.000220583)
(0.031072 -0.000288638 0.00115533)
(0.00478309 0.00256355 -0.00162375)
(0.0298646 -0.00219629 0.00320378)
(0.00996068 0.0111093 -0.00706753)
(0.0138493 -0.000106665 -0.000646993)
(0.0333764 -0.000343609 -0.000259305)
(0.0125967 -0.000384402 -0.00069985)
(0.0339113 -0.0010273 0.000154989)
(0.0106765 -0.000234392 -0.00112154)
(0.0351796 -0.00126653 0.000778819)
(0.00849833 0.000372393 -0.00190126)
(0.0399236 -0.0010745 0.00270326)
(0.00601017 0.00353267 -0.00530859)
)
;

boundaryField
{
    inlet
    {
        type            fixedValue;
        value           nonuniform 0();
    }
    outlet
    {
        type            zeroGradient;
    }
    wall
    {
        type            fixedValue;
        value           uniform (0 0 0);
    }
    procBoundary3to1
    {
        type            processor;
        value           nonuniform List<vector> 
27
(
(0.0202578 0.000133937 -0.000696029)
(0.0373108 0.000271007 -0.000701965)
(0.0199701 0.000522467 -0.00093448)
(0.0388947 0.000604583 -3.54526e-05)
(0.0189701 0.00029631 -0.00198828)
(0.0416216 0.000675605 0.00128477)
(0.0171201 -0.000890048 -0.00440228)
(0.0489815 0.00121735 0.0045034)
(0.0105989 -0.00406838 -0.0118898)
(0.00265424 0.000128978 -0.000178656)
(0.0298192 0.000322623 0.00017853)
(0.000557897 5.36964e-05 -5.90346e-05)
(0.0297702 0.000418253 0.000706327)
(7.03977e-05 8.28451e-06 -1.39108e-05)
(0.0288415 0.000106441 0.00179073)
(0.00244065 0.000216421 -0.000969507)
(0.0264003 -0.000404814 0.00421846)
(0.00960864 0.000526008 -0.0116091)
(0.00187652 -0.000105755 -0.000418021)
(0.0291866 4.13e-06 0.000158778)
(0.00128498 -0.000100238 -0.000431623)
(0.0296535 0.000512961 9.57877e-05)
(0.00177897 -0.000280482 -0.000834911)
(0.0297914 0.000979934 0.000481365)
(0.00401311 -0.00145181 -0.00239673)
(0.0281726 0.00283066 0.00255585)
(0.00881378 -0.00680498 -0.00557633)
)
;
    }
    procBoundary3to2
    {
        type            processor;
        value           nonuniform List<vector> 
12
(
(0.0377911 -0.000266606 -0.00073086)
(0.0345639 -0.000242104 -0.000721926)
(0.0373709 0.000747681 -0.000340756)
(0.0405776 -0.000150293 -0.000291)
(0.0311072 4.97032e-05 -0.000710731)
(0.0294104 0.000139334 -0.000240029)
(0.0321898 0.00103983 -0.00129994)
(0.0362048 -3.34677e-05 -0.00139262)
(0.0296579 -6.65586e-05 -0.000654841)
(0.0273852 -0.000518482 5.26841e-05)
(0.0291004 -0.000114147 -0.000114926)
(0.0328449 0.000177094 -0.000473593)
)
;
    }
    procBoundary3to7
    {
        type            processor;
        value           nonuniform List<vector> 
36
(
(0.00202893 0.000234882 -0.000341121)
(0.0291582 0.000376906 -0.000133795)
(0.0014219 0.000319793 -0.000398869)
(0.0291632 0.00056898 -4.5368e-05)
(0.000402633 0.000128873 -0.000165146)
(0.0287765 0.000758475 0.000743272)
(0.000146553 6.5006e-05 -8.18781e-05)
(0.0247043 -0.00133766 0.00308449)
(0.00336732 0.00139794 -0.00187499)
(0.000175284 2.26117e-05 -2.22577e-05)
(0.0286677 0.000227584 -0.000136455)
(9.06363e-09 -7.44495e-11 -3.30636e-10)
(0.0279971 3.86657e-05 0.000239411)
(0.000684147 0.000215209 -7.92242e-05)
(0.0269555 -0.000699141 0.000959112)
(0.00413557 0.00221704 -0.000300584)
(0.0241564 -0.00300355 0.00154883)
(0.00952684 0.0103725 0.000753914)
(0.00924033 0.000916213 -0.000725296)
(0.0325768 0.000510249 -0.00029932)
(0.00920216 0.00128772 -0.0011855)
(0.0341694 -7.26084e-05 -0.000567165)
(0.00897252 0.0022023 -0.00199211)
(0.0364151 -0.0019455 -0.000476703)
(0.00813659 0.0039542 -0.00330301)
(0.0390259 -0.00565112 0.00137608)
(0.00573088 0.00920439 -0.00518546)
(0.0164084 -0.000525532 -0.00125821)
(0.0354619 -0.000361323 -0.00118423)
(0.0161144 -0.00073614 -0.00173722)
(0.0366864 -0.000562514 -0.000949989)
(0.0148068 -0.000908675 -0.00266697)
(0.0381385 -0.000558924 0.000212886)
(0.0114294 -0.000948776 -0.00449522)
(0.0401769 9.80291e-05 0.0023112)
(0.00591198 -0.000519115 -0.00866996)
)
;
    }
}


// ************************************************************************* //
