/*--------------------------------*- C++ -*----------------------------------*\
| =========                 |                                                 |
| \\      /  F ield         | OpenFOAM: The Open Source CFD Toolbox           |
|  \\    /   O peration     | Version:  4.x                                   |
|   \\  /    A nd           | Web:      www.OpenFOAM.org                      |
|    \\/     M anipulation  |                                                 |
\*---------------------------------------------------------------------------*/
FoamFile
{
    version     2.0;
    format      ascii;
    class       volVectorField;
    location    "57.5";
    object      Urel;
}
// * * * * * * * * * * * * * * * * * * * * * * * * * * * * * * * * * * * * * //

dimensions      [0 1 -1 0 0 0 0];

internalField   nonuniform List<vector> 
108
(
(-0.0230343 8.64953e-05 0.000422731)
(-0.0244918 7.78119e-05 0.000357124)
(-0.0232294 8.88741e-05 0.000284299)
(-0.0247073 0.000128647 0.000191649)
(-0.0230513 0.000223506 0.000220365)
(-0.0244831 0.00027731 0.000121653)
(-0.0220257 0.00050642 0.000531129)
(-0.0232842 0.000432478 0.000569575)
(-0.0190418 0.00124624 0.00190412)
(-0.0227531 5.24715e-05 0.000371587)
(-0.024215 5.21373e-05 0.00028074)
(-0.0227606 7.21557e-05 0.000197566)
(-0.0241848 6.7106e-05 5.32895e-05)
(-0.0222784 6.10228e-05 6.49566e-05)
(-0.0234958 1.89838e-05 -7.46951e-05)
(-0.020818 -5.28703e-05 0.000258066)
(-0.0215021 -0.000124082 0.000376827)
(-0.0180648 -0.00039023 0.00120808)
(-0.0239003 -4.16724e-05 0.000356214)
(-0.0253545 -2.21419e-05 0.00026781)
(-0.0241764 2.30006e-06 0.000155831)
(-0.0256281 -7.04884e-06 4.66144e-05)
(-0.0240498 -0.000131777 -1.32099e-05)
(-0.0254911 -0.000170016 -7.09039e-05)
(-0.023072 -0.000592506 0.000186264)
(-0.0243988 -0.000539639 0.000502397)
(-0.0198726 -0.0020562 0.001546)
(-0.0251736 8.6939e-05 0.000373358)
(-0.0265211 0.000146328 0.000289262)
(-0.0255641 0.000244478 0.000186025)
(-0.0268734 0.000248948 9.65576e-05)
(-0.0255408 0.000247976 4.40271e-05)
(-0.0268417 0.000120196 2.12852e-05)
(-0.0246895 -4.83654e-05 0.000261403)
(-0.0258487 -0.0004066 0.00078811)
(-0.0211216 -0.00101177 0.0025346)
(-0.0205493 4.50604e-05 0.000400784)
(-0.0223673 2.82855e-05 0.000319771)
(-0.0205519 3.68865e-05 0.000273871)
(-0.0224638 4.91e-05 0.000150913)
(-0.020392 8.60412e-05 0.000215099)
(-0.0222364 0.000135902 5.01953e-05)
(-0.0197348 0.000185267 0.000477081)
(-0.0212011 0.000266729 0.000392681)
(-0.0178805 0.000396562 0.00209864)
(-0.0204267 1.34367e-05 0.000371846)
(-0.0222945 8.08743e-06 0.000271143)
(-0.020382 2.9849e-05 0.000222363)
(-0.0222917 2.96527e-05 9.30948e-05)
(-0.020179 1.52699e-05 0.000131826)
(-0.0218844 7.46843e-06 2.05782e-06)
(-0.0194135 -0.000119756 0.000343625)
(-0.0204517 -0.000103141 0.00040404)
(-0.0175429 -0.000767111 0.00144786)
(-0.0217547 -3.93744e-05 0.000446964)
(-0.0235027 -1.59947e-05 0.000364575)
(-0.0219258 8.99931e-06 0.000330284)
(-0.0237622 4.46101e-05 0.0001956)
(-0.0219448 -9.18945e-05 0.000299731)
(-0.0238079 -5.5637e-05 0.00011217)
(-0.0214338 -0.000565742 0.000653252)
(-0.0230423 -0.000489731 0.000607649)
(-0.0189578 -0.00234258 0.00251433)
(-0.0233374 7.00335e-05 0.00051448)
(-0.0247958 0.000130991 0.00044022)
(-0.0235562 0.000225396 0.000420545)
(-0.0250522 0.000246421 0.000316932)
(-0.0234841 0.000241323 0.000410162)
(-0.0250785 0.000136366 0.000277268)
(-0.0228165 -9.58271e-05 0.000744087)
(-0.0244441 -0.000481877 0.000920668)
(-0.019908 -0.00130958 0.00324388)
(-0.0188124 6.19237e-05 0.000346106)
(-0.0206926 4.77281e-05 0.000261655)
(-0.0187417 5.97043e-05 0.000246001)
(-0.0206728 6.48683e-05 0.000146608)
(-0.0185963 0.000101408 0.000206364)
(-0.0203709 9.69557e-05 6.38389e-05)
(-0.0180673 0.000164486 0.000383588)
(-0.0192888 7.22439e-05 0.000280452)
(-0.0168575 0.000383465 0.00155782)
(-0.0187286 1.96935e-05 0.000299747)
(-0.0206487 3.74769e-05 0.000222166)
(-0.0186849 3.85024e-05 0.00019585)
(-0.0205903 3.78883e-05 0.000107022)
(-0.0185411 1.3815e-05 0.000129519)
(-0.02027 -5.60483e-05 1.36236e-05)
(-0.0179809 -0.000144691 0.000264964)
(-0.0190921 -0.000291092 0.0002797)
(-0.0167054 -0.000656966 0.00105002)
(-0.0197605 -9.4269e-06 0.000357953)
(-0.021675 4.13342e-05 0.000303949)
(-0.0197481 5.30638e-05 0.000273833)
(-0.0217255 7.93786e-05 0.000205575)
(-0.019715 -1.13382e-05 0.000253424)
(-0.0216064 -4.8265e-05 0.00017427)
(-0.0193688 -0.000405544 0.000519789)
(-0.0206706 -0.000462499 0.000520737)
(-0.0177952 -0.00179954 0.00177668)
(-0.0214533 4.28239e-05 0.000450797)
(-0.0229442 0.000114795 0.00039026)
(-0.021425 0.000169184 0.000384366)
(-0.0229695 0.000217195 0.000306077)
(-0.0211991 0.000146239 0.000394113)
(-0.0227981 0.000100071 0.000304966)
(-0.0205458 -0.000193748 0.000672546)
(-0.0220358 -0.000437724 0.00072764)
(-0.0182718 -0.00123345 0.00206435)
)
;

boundaryField
{
    inlet
    {
        type            calculated;
        value           nonuniform 0();
    }
    outlet
    {
        type            calculated;
        value           nonuniform List<vector> 
12
(
(-0.00906144 0.0116626 0.00534112)
(-1.15656e-05 -2.36631e-06 -7.6207e-07)
(-0.00972889 -0.0143939 -3.38522e-05)
(-0.0133433 0.00113542 0.0090511)
(-0.0057 0.000916167 0.0109399)
(-0.00372161 -0.0031505 0.00152105)
(-0.00790141 -0.0188736 0.0149486)
(-0.00940614 -0.00197144 0.0187898)
(-0.00789225 0.00422324 0.00922292)
(-0.00380047 0.000175351 0.000527517)
(-0.00996136 -0.0111017 0.00706224)
(-0.0060106 -0.00353435 0.00528929)
)
;
    }
    wall
    {
        type            calculated;
        value           nonuniform List<vector> 
63
(
(-1.58013e-07 2.72347e-07 -1.54439e-06)
(-7.43794e-08 3.85075e-07 -1.08085e-06)
(-1.02869e-07 3.72211e-07 -5.15295e-07)
(-3.31651e-08 1.96796e-07 -1.51734e-07)
(2.75546e-07 -1.75529e-07 -1.48745e-06)
(1.27765e-07 4.51006e-07 -1.09028e-06)
(-3.6732e-08 5.67233e-07 -5.55674e-07)
(-6.72731e-09 4.22372e-07 -1.72048e-07)
(4.30629e-07 2.41816e-07 -7.31889e-07)
(3.35109e-07 6.79675e-07 -9.29333e-07)
(2.01632e-07 6.84031e-07 -5.03932e-07)
(5.4902e-08 4.39144e-07 -9.59467e-08)
(-5.98175e-08 3.66285e-07 -1.93749e-07)
(1.87093e-07 4.45857e-07 -4.13282e-07)
(2.32887e-07 3.70195e-07 -2.63488e-07)
(9.63791e-08 1.51966e-07 -4.46069e-08)
(3.91818e-08 1.24525e-07 1.38856e-07)
(6.9592e-08 1.1436e-07 -1.20542e-07)
(2.08194e-07 6.30149e-08 -6.53959e-08)
(1.98396e-07 5.67102e-08 -5.66943e-08)
(-2.04342e-07 -1.9071e-07 -3.70373e-07)
(-2.66038e-07 -3.24255e-07 6.14646e-07)
(1.51649e-08 -1.01033e-07 2.74711e-08)
(1.08056e-07 -4.33299e-08 1.9055e-08)
(-1.85185e-08 -4.74619e-07 6.85242e-08)
(-5.64719e-07 -7.81608e-07 1.41497e-06)
(-7.16265e-08 -4.84297e-07 2.41593e-07)
(-4.75966e-08 -3.05661e-07 9.09524e-08)
(-3.32112e-07 -5.81026e-07 1.20485e-06)
(-7.19926e-07 -8.86138e-07 9.35141e-07)
(-8.85659e-08 -5.91653e-07 4.2352e-07)
(-2.70457e-08 -2.1535e-07 9.24725e-08)
(-2.96774e-06 1.31192e-07 2.98977e-07)
(-5.1463e-06 6.50364e-07 6.28908e-09)
(-3.94582e-08 -4.07133e-07 3.86941e-07)
(-8.01343e-09 1.79101e-07 5.27153e-08)
(-3.31651e-08 1.96796e-07 -1.51734e-07)
(-5.51193e-08 5.8948e-08 -1.70673e-07)
(-3.59533e-08 -1.46692e-08 -1.40905e-07)
(-6.72731e-09 4.22372e-07 -1.72048e-07)
(-3.48227e-08 1.96678e-07 -1.74817e-07)
(-6.74546e-08 5.41786e-08 -1.33747e-07)
(5.4902e-08 4.39144e-07 -9.59467e-08)
(4.04504e-09 1.1641e-07 -1.0974e-07)
(-1.14021e-07 2.48126e-07 -8.36701e-08)
(9.63791e-08 1.51966e-07 -4.46069e-08)
(2.23238e-08 1.07481e-07 -2.94074e-08)
(-1.74436e-07 6.61267e-08 2.03422e-09)
(1.98396e-07 5.67102e-08 -5.66943e-08)
(9.0512e-09 2.27624e-08 -2.16466e-08)
(-2.52881e-07 -1.84055e-07 -5.26377e-08)
(1.08056e-07 -4.33299e-08 1.9055e-08)
(1.81336e-08 -2.11843e-08 3.02534e-08)
(-1.55176e-07 -1.49213e-08 4.88541e-08)
(-4.75966e-08 -3.05661e-07 9.09524e-08)
(-2.16588e-08 -1.18055e-07 6.2245e-08)
(-5.37512e-08 -1.15732e-07 5.34206e-08)
(-2.70457e-08 -2.1535e-07 9.24725e-08)
(-9.42221e-08 -1.67407e-07 2.85745e-08)
(-1.61911e-07 -4.98122e-07 -3.57671e-08)
(-8.01343e-09 1.79101e-07 5.27153e-08)
(-1.47238e-07 -1.91262e-07 4.0787e-08)
(-9.61218e-08 -2.74497e-07 -4.54654e-08)
)
;
    }
    procBoundary3to1
    {
        type            processor;
        value           nonuniform List<vector> 
27
(
(-0.0232788 7.69973e-05 0.000506402)
(-0.0247212 3.35567e-05 0.000444734)
(-0.0234812 6.21851e-06 0.000410547)
(-0.024976 5.69753e-06 0.000329677)
(-0.0234217 7.90927e-05 0.000449224)
(-0.0249453 0.000123677 0.000335972)
(-0.0227543 0.000370363 0.00089068)
(-0.024163 0.000425601 0.000832055)
(-0.019945 0.00119007 0.00269516)
(-0.0207139 6.14584e-05 0.00041407)
(-0.0225544 1.94806e-05 0.000331263)
(-0.0206766 1.18716e-05 0.000296196)
(-0.0226114 -1.17189e-05 0.000206849)
(-0.0205534 4.81083e-05 0.000263619)
(-0.0223727 7.22773e-05 0.000173558)
(-0.0200818 0.000211347 0.000570361)
(-0.021323 0.000315226 0.000623845)
(-0.018543 0.000691594 0.00240259)
(-0.0190894 7.64812e-05 0.000350164)
(-0.0209689 3.35156e-05 0.000266614)
(-0.0190195 2.76306e-05 0.000254528)
(-0.0209592 -1.21129e-05 0.000179054)
(-0.0188943 5.72263e-05 0.000230188)
(-0.0206976 2.88649e-05 0.000143379)
(-0.0184592 0.000235624 0.000447296)
(-0.0196996 0.000168135 0.000383119)
(-0.0172878 0.000937393 0.00151788)
)
;
    }
    procBoundary3to2
    {
        type            processor;
        value           nonuniform List<vector> 
12
(
(-0.0241109 8.58427e-05 0.00053601)
(-0.023947 2.32966e-05 0.000495989)
(-0.0248629 -9.22991e-05 0.000475509)
(-0.0259032 -1.14516e-05 0.000481724)
(-0.0221934 5.1365e-05 0.000488801)
(-0.0221678 -1.0144e-05 0.000457608)
(-0.023178 -0.000107378 0.000539436)
(-0.0243781 -3.05992e-05 0.000588467)
(-0.0206727 6.17465e-05 0.000404273)
(-0.0206524 2.11358e-05 0.000360367)
(-0.0215793 -4.9222e-05 0.000414173)
(-0.0228009 -4.20567e-05 0.000490335)
)
;
    }
    procBoundary3to7
    {
        type            processor;
        value           nonuniform List<vector> 
36
(
(-0.0177973 2.17489e-05 0.000233963)
(-0.0196912 5.77092e-06 0.000180329)
(-0.0176809 9.63314e-06 0.00015619)
(-0.0195853 2.8855e-06 8.57688e-05)
(-0.0174544 2.93126e-05 6.55333e-05)
(-0.0192402 1.38096e-05 -3.83982e-05)
(-0.0169073 4.83519e-05 3.91984e-05)
(-0.0181456 0.000100216 -8.65493e-05)
(-0.0159073 -6.77418e-05 0.000414474)
(-0.0179623 -1.54721e-06 0.000237821)
(-0.0198948 1.08706e-05 0.000200863)
(-0.0178747 2.49207e-05 0.000171235)
(-0.0197798 3.21627e-05 0.00011519)
(-0.0177264 2.69463e-06 0.000115636)
(-0.0194602 7.21567e-06 2.6542e-05)
(-0.0173458 -0.000204796 0.000148233)
(-0.0184526 -0.000134639 7.65657e-05)
(-0.016312 -0.00110128 0.000403379)
(-0.0193202 -4.86474e-05 0.000333588)
(-0.0210374 8.17267e-06 0.000291834)
(-0.0192648 -1.98426e-06 0.000314044)
(-0.0210263 6.23362e-05 0.000262467)
(-0.0190947 -5.9785e-05 0.000335144)
(-0.0208284 4.87555e-05 0.000251818)
(-0.0185283 -0.000333229 0.000491843)
(-0.0199241 -0.000144938 0.000358292)
(-0.0167599 -0.00134172 0.00108197)
(-0.0207211 6.10596e-05 0.00043763)
(-0.0221529 0.000118549 0.000410708)
(-0.0206031 0.000164492 0.000431731)
(-0.0220727 0.000187607 0.000371101)
(-0.0202614 0.000153341 0.000467922)
(-0.0217445 9.48024e-05 0.000334531)
(-0.0194201 -7.41968e-05 0.000682611)
(-0.0206991 -0.00028319 0.000506041)
(-0.0171391 -0.000682489 0.00153452)
)
;
    }
}


// ************************************************************************* //
