/*--------------------------------*- C++ -*----------------------------------*\
| =========                 |                                                 |
| \\      /  F ield         | OpenFOAM: The Open Source CFD Toolbox           |
|  \\    /   O peration     | Version:  4.x                                   |
|   \\  /    A nd           | Web:      www.OpenFOAM.org                      |
|    \\/     M anipulation  |                                                 |
\*---------------------------------------------------------------------------*/
FoamFile
{
    version     2.0;
    format      ascii;
    class       volVectorField;
    location    "54";
    object      impParticleForces;
}
// * * * * * * * * * * * * * * * * * * * * * * * * * * * * * * * * * * * * * //

dimensions      [1 1 -2 0 0 0 0];

internalField   nonuniform List<vector> 
114
(
(0.00240205 -9.54155e-08 -8.50827e-05)
(0.00243827 2.28343e-06 -7.94355e-05)
(0.0024363 5.86222e-06 -7.0983e-05)
(0.00247153 1.0378e-05 -6.35771e-05)
(0.00244896 1.67811e-05 -5.41971e-05)
(0.00246277 2.42794e-05 -4.64312e-05)
(0.00231063 5.94606e-06 -8.93539e-05)
(0.00233751 6.87961e-06 -9.03806e-05)
(0.00238128 8.05125e-06 -8.93203e-05)
(0.0023979 9.10119e-06 -8.44119e-05)
(0.00244225 1.0463e-05 -7.92628e-05)
(0.00243559 1.16882e-05 -7.07484e-05)
(0.00247098 1.37444e-05 -6.34462e-05)
(0.00245408 1.63178e-05 -5.43291e-05)
(0.00245632 1.96768e-05 -4.64295e-05)
(0.0022845 1.35932e-05 -8.67968e-05)
(0.00231671 1.46259e-05 -8.81459e-05)
(0.00235997 1.57645e-05 -8.72135e-05)
(0.00237986 1.61721e-05 -8.25288e-05)
(0.0024252 1.70561e-05 -7.74624e-05)
(0.00242266 1.66307e-05 -6.95887e-05)
(0.00246004 1.74283e-05 -6.24591e-05)
(0.00245205 1.74821e-05 -5.401e-05)
(0.00246915 1.83406e-05 -4.69392e-05)
(0.00224715 1.60991e-05 -8.3865e-05)
(0.00226815 1.69055e-05 -8.43439e-05)
(0.00232128 1.79928e-05 -8.38606e-05)
(0.0023333 1.79925e-05 -7.93019e-05)
(0.00236667 1.81627e-05 -7.4233e-05)
(0.00237357 1.75395e-05 -6.7134e-05)
(0.00239106 1.73167e-05 -6.01659e-05)
(0.00240941 1.67445e-05 -5.29897e-05)
(0.00242646 1.64172e-05 -4.62689e-05)
(0.00250037 4.66881e-06 -7.17158e-05)
(0.0025375 8.77982e-06 -6.41525e-05)
(0.00248253 1.46107e-05 -5.35688e-05)
(0.00250548 2.10372e-05 -4.59653e-05)
(0.00233782 6.66554e-06 -8.88133e-05)
(0.00238495 7.67058e-06 -9.12598e-05)
(0.00244958 9.14712e-06 -9.20157e-05)
(0.00245882 1.00321e-05 -8.60319e-05)
(0.00249393 1.12482e-05 -8.01812e-05)
(0.00247599 1.18085e-05 -7.06629e-05)
(0.00252047 1.35622e-05 -6.36348e-05)
(0.00248261 1.55049e-05 -5.38986e-05)
(0.00248324 1.81953e-05 -4.58184e-05)
(0.00232204 1.51273e-05 -8.7246e-05)
(0.00237489 1.67978e-05 -9.00219e-05)
(0.00244611 1.89434e-05 -9.11857e-05)
(0.00244761 1.83384e-05 -8.4773e-05)
(0.00247609 1.86099e-05 -7.87215e-05)
(0.002472 1.77729e-05 -7.03599e-05)
(0.0025028 1.80684e-05 -6.32332e-05)
(0.00248315 1.74093e-05 -5.46054e-05)
(0.00249524 1.76609e-05 -4.72158e-05)
(0.00227321 1.7418e-05 -8.33568e-05)
(0.00231138 1.86894e-05 -8.48855e-05)
(0.00238351 2.04546e-05 -8.61055e-05)
(0.00237915 1.97871e-05 -8.01614e-05)
(0.00240291 1.94411e-05 -7.45554e-05)
(0.00241343 1.85577e-05 -6.76024e-05)
(0.0024348 1.8013e-05 -6.06382e-05)
(0.00243138 1.67845e-05 -5.32631e-05)
(0.00243506 1.59228e-05 -4.63461e-05)
(0.00245299 1.14769e-05 -4.84657e-05)
(0.00246003 1.6486e-05 -4.13729e-05)
(0.00236349 7.32597e-06 -8.28004e-05)
(0.00239366 8.2063e-06 -8.37454e-05)
(0.00244939 9.53222e-06 -8.36916e-05)
(0.00245251 1.00535e-05 -7.81002e-05)
(0.00247474 1.06773e-05 -7.20069e-05)
(0.00246065 1.112e-05 -6.37298e-05)
(0.00248862 1.231e-05 -5.67524e-05)
(0.00245148 1.37028e-05 -4.84887e-05)
(0.00245345 1.5597e-05 -4.15132e-05)
(0.00233273 1.5885e-05 -8.02817e-05)
(0.00237714 1.75031e-05 -8.21984e-05)
(0.00245025 1.98868e-05 -8.32596e-05)
(0.00245464 1.92623e-05 -7.81352e-05)
(0.00247322 1.91218e-05 -7.17459e-05)
(0.00245191 1.74285e-05 -6.35305e-05)
(0.00248963 1.73801e-05 -5.71673e-05)
(0.00245982 1.61718e-05 -4.96071e-05)
(0.00247913 1.57317e-05 -4.33946e-05)
(0.00229225 1.85492e-05 -7.75712e-05)
(0.00233135 2.01261e-05 -7.90673e-05)
(0.00238874 2.15978e-05 -7.91611e-05)
(0.00239567 2.09944e-05 -7.47586e-05)
(0.00239766 1.98694e-05 -6.82678e-05)
(0.00241118 1.87846e-05 -6.21029e-05)
(0.00244674 1.81186e-05 -5.61915e-05)
(0.00241747 1.61003e-05 -4.90976e-05)
(0.00243577 1.48264e-05 -4.33579e-05)
(0.00236731 7.96845e-06 -7.04443e-05)
(0.00241527 9.02339e-06 -7.15628e-05)
(0.00246651 1.04717e-05 -7.11451e-05)
(0.00244646 1.02448e-05 -6.55334e-05)
(0.00246576 1.07224e-05 -6.03352e-05)
(0.00243633 1.05546e-05 -5.33058e-05)
(0.00245583 1.13087e-05 -4.72192e-05)
(0.00241712 1.19138e-05 -4.08807e-05)
(0.00233969 1.67361e-05 -6.88038e-05)
(0.00238572 1.85173e-05 -7.02033e-05)
(0.00245365 2.07616e-05 -7.04968e-05)
(0.00243566 1.89769e-05 -6.5422e-05)
(0.00246688 1.91083e-05 -6.09231e-05)
(0.0024391 1.69937e-05 -5.41279e-05)
(0.00246459 1.62516e-05 -4.86523e-05)
(0.00228716 1.90246e-05 -6.644e-05)
(0.00232758 2.0572e-05 -6.76669e-05)
(0.00239222 2.22058e-05 -6.80338e-05)
(0.00239107 2.10047e-05 -6.40841e-05)
(0.00241728 2.02343e-05 -5.96447e-05)
(0.00240059 1.81772e-05 -5.35195e-05)
)
;

boundaryField
{
    inlet
    {
        type            zeroGradient;
    }
    outlet
    {
        type            zeroGradient;
    }
    wall
    {
        type            zeroGradient;
    }
    procBoundary2to0
    {
        type            processor;
        value           nonuniform List<vector> 
44
(
(0.0023937 -8.41946e-06 -8.43614e-05)
(0.00244362 -4.85965e-06 -7.94992e-05)
(0.00243845 1.08267e-06 -7.08928e-05)
(0.00245675 8.74622e-06 -6.29529e-05)
(0.0024552 1.99088e-05 -5.43371e-05)
(0.00249059 3.45395e-05 -4.7195e-05)
(0.00230362 -3.61928e-06 -8.97309e-05)
(0.00232459 -3.07145e-06 -9.00828e-05)
(0.00236207 -1.94012e-06 -8.86871e-05)
(0.00236207 -1.94012e-06 -8.86871e-05)
(0.00244835 -7.70563e-07 -8.54677e-05)
(0.0025127 1.47416e-06 -8.12979e-05)
(0.00248625 -1.09085e-06 -7.06937e-05)
(0.00252662 5.80638e-06 -6.33625e-05)
(0.00248119 1.58961e-05 -5.34191e-05)
(0.00249489 2.79185e-05 -4.55538e-05)
(0.00236059 -3.97514e-06 -9.12911e-05)
(0.00238517 -3.6151e-06 -9.18606e-05)
(0.00244046 -2.74333e-06 -9.19099e-05)
(0.00244835 -7.70563e-07 -8.54677e-05)
(0.0025127 1.47416e-06 -8.12979e-05)
(0.0025127 1.47416e-06 -8.12979e-05)
(0.00248104 3.40108e-06 -6.47028e-05)
(0.00250031 6.70646e-06 -5.71653e-05)
(0.00245175 1.08721e-05 -4.84261e-05)
(0.00245574 1.96007e-05 -4.1141e-05)
(0.0023754 -4.25394e-06 -8.41158e-05)
(0.00240984 -4.07781e-06 -8.55865e-05)
(0.00246965 -3.42956e-06 -8.55649e-05)
(0.0024681 -1.57825e-06 -7.9277e-05)
(0.002502 3.59252e-07 -7.35096e-05)
(0.00248104 3.40108e-06 -6.47028e-05)
(0.00250031 6.70646e-06 -5.71653e-05)
(0.00250031 6.70646e-06 -5.71653e-05)
(0.00240947 8.86982e-06 -4.04299e-05)
(0.00240414 1.23387e-05 -3.44085e-05)
(0.00236176 -4.23616e-06 -7.04367e-05)
(0.00240673 -4.03959e-06 -7.16792e-05)
(0.00247319 -3.34276e-06 -7.15621e-05)
(0.00246339 -1.72195e-06 -6.6325e-05)
(0.00246642 2.50053e-07 -6.03916e-05)
(0.00245461 2.61639e-06 -5.38089e-05)
(0.00246587 5.43537e-06 -4.75954e-05)
(0.00240947 8.86982e-06 -4.04299e-05)
)
;
    }
    procBoundary2to3
    {
        type            processor;
        value           nonuniform List<vector> 
12
(
(0.00249583 3.19194e-05 -3.96723e-05)
(0.00248444 2.26611e-05 -3.97024e-05)
(0.00248308 1.89001e-05 -4.04798e-05)
(0.00242002 1.58724e-05 -3.99783e-05)
(0.00249899 2.73457e-05 -3.86957e-05)
(0.00249637 2.07166e-05 -3.90962e-05)
(0.00252742 1.79931e-05 -4.1566e-05)
(0.00246131 1.50374e-05 -4.12235e-05)
(0.00246018 2.0934e-05 -3.50357e-05)
(0.00245918 1.72166e-05 -3.56201e-05)
(0.00246637 1.52114e-05 -3.76174e-05)
(0.00243679 1.34988e-05 -3.84874e-05)
)
;
    }
    procBoundary2to6
    {
        type            processor;
        value           nonuniform List<vector> 
32
(
(0.00243263 1.3197e-05 -3.54718e-05)
(0.00242799 1.46888e-05 -4.25344e-05)
(0.00245062 1.40587e-05 -3.74809e-05)
(0.00240884 1.66055e-05 -4.79461e-05)
(0.00239491 1.46782e-05 -4.26631e-05)
(0.00240579 1.29263e-05 -3.79795e-05)
(0.00238894 8.39823e-06 -5.57359e-05)
(0.00241377 8.73496e-06 -5.51979e-05)
(0.00243757 9.39188e-06 -5.33953e-05)
(0.00243362 9.25271e-06 -5.00764e-05)
(0.00246114 9.53684e-06 -4.64798e-05)
(0.00242128 9.20417e-06 -4.1488e-05)
(0.00244105 9.36671e-06 -3.70662e-05)
(0.00243263 1.3197e-05 -3.54718e-05)
(0.00242799 1.46888e-05 -4.25344e-05)
(0.00239814 9.54429e-06 -3.25235e-05)
(0.00235392 1.76965e-05 -5.4964e-05)
(0.00238959 1.88184e-05 -5.49283e-05)
(0.00242933 1.98511e-05 -5.36595e-05)
(0.00243188 1.84851e-05 -5.07354e-05)
(0.00245488 1.77775e-05 -4.73726e-05)
(0.00242929 1.56946e-05 -4.2818e-05)
(0.00242799 1.46888e-05 -4.25344e-05)
(0.00240884 1.66055e-05 -4.79461e-05)
(0.0024462 1.42625e-05 -3.84918e-05)
(0.00229806 1.96993e-05 -5.40213e-05)
(0.00233085 2.09582e-05 -5.42873e-05)
(0.00236145 2.12278e-05 -5.31613e-05)
(0.00237368 2.02339e-05 -5.07354e-05)
(0.00241409 1.96324e-05 -4.7526e-05)
(0.00240884 1.66055e-05 -4.79461e-05)
(0.00240649 1.76608e-05 -4.3579e-05)
)
;
    }
}


// ************************************************************************* //
