/*--------------------------------*- C++ -*----------------------------------*\
| =========                 |                                                 |
| \\      /  F ield         | OpenFOAM: The Open Source CFD Toolbox           |
|  \\    /   O peration     | Version:  4.x                                   |
|   \\  /    A nd           | Web:      www.OpenFOAM.org                      |
|    \\/     M anipulation  |                                                 |
\*---------------------------------------------------------------------------*/
FoamFile
{
    version     2.0;
    format      ascii;
    class       volScalarField;
    location    "54";
    object      KslPrev;
}
// * * * * * * * * * * * * * * * * * * * * * * * * * * * * * * * * * * * * * //

dimensions      [1 -3 -1 0 0 0 0];

internalField   nonuniform List<scalar> 
114
(
6253.69
3144.24
5505
3029.51
5062.3
2875.65
3394.72
8099.14
3327.91
6992.55
3279.58
6439.39
3214.95
6220.28
3133.56
3348.98
7539.73
3226.63
6179.68
3137.48
5507.65
3032.48
5129.95
2914.7
3291.99
6773.82
3092.13
5288.94
2910.15
4514.13
2740.98
4076.04
2638.05
12776.5
3678.18
14595.4
3554.54
3434.89
9954.48
3585.64
11960.1
3689.49
15465.1
3744.03
23743.1
3723.53
3412.01
9060.99
3515.06
9397.2
3522.84
9675.14
3504.02
10195.1
3415.62
3333.6
7565.06
3291.51
6538.75
3164.3
5896.72
3075.05
5521
2965.43
23418.3
3659
3495.59
10906.4
3722.29
16737.1
3852.49
33897.4
3926.26
324917
3951.82
3439.83
10068.1
3640.69
13180
3732.02
18574.8
3780.71
35052.5
3757.35
3365.01
8219.26
3392.05
7720.28
3327.24
7289.55
3330.5
7291.92
3271.17
3506.43
11547.4
3755.94
17798
3829.28
30145.7
3835.61
77029.8
3464.67
9637.37
3630.53
10996.4
3641.96
11879.1
3578.04
3359.89
7941.59
3386.86
7442.42
3326.71
6956.48
)
;

boundaryField
{
    inlet
    {
        type            zeroGradient;
    }
    outlet
    {
        type            zeroGradient;
    }
    wall
    {
        type            zeroGradient;
    }
    procBoundary2to0
    {
        type            processor;
        value           uniform 0;
    }
    procBoundary2to3
    {
        type            processor;
        value           uniform 0;
    }
    procBoundary2to6
    {
        type            processor;
        value           uniform 0;
    }
}


// ************************************************************************* //
