/*--------------------------------*- C++ -*----------------------------------*\
| =========                 |                                                 |
| \\      /  F ield         | OpenFOAM: The Open Source CFD Toolbox           |
|  \\    /   O peration     | Version:  4.x                                   |
|   \\  /    A nd           | Web:      www.OpenFOAM.org                      |
|    \\/     M anipulation  |                                                 |
\*---------------------------------------------------------------------------*/
FoamFile
{
    version     2.0;
    format      ascii;
    class       volScalarField;
    location    "54";
    object      QWallFluidCoeff;
}
// * * * * * * * * * * * * * * * * * * * * * * * * * * * * * * * * * * * * * //

dimensions      [1 -1 -3 -1 0 0 0];

internalField   nonuniform List<scalar> 
114
(
-1.77376e+06
-3.10916e+06
-1.99194e+06
-3.23054e+06
-2.13214e+06
-3.34946e+06
-2.82655e+06
-1.41526e+06
-2.92659e+06
-1.62329e+06
-3.00206e+06
-1.74891e+06
-3.0652e+06
-1.79725e+06
-3.11912e+06
-2.84209e+06
-1.49111e+06
-2.98092e+06
-1.78141e+06
-3.10982e+06
-1.97904e+06
-3.21724e+06
-2.10553e+06
-3.31857e+06
-5.6998e+06
-3.21382e+06
-6.10731e+06
-3.98909e+06
-6.52298e+06
-4.59802e+06
-6.89249e+06
-5.01817e+06
-7.15023e+06
0
0
0
0
0
0
0
0
0
0
0
0
0
0
0
0
0
0
0
0
0
0
-2.81093e+06
-1.47291e+06
-2.91715e+06
-1.68126e+06
-3.02466e+06
-1.84513e+06
-3.12243e+06
-1.94928e+06
-3.21281e+06
0
0
0
0
0
0
0
0
0
0
0
0
0
0
0
0
0
0
0
0
-2.78315e+06
-1.36837e+06
-2.82314e+06
-1.4592e+06
-2.87255e+06
-1.53266e+06
-2.88741e+06
-1.53562e+06
-2.92018e+06
0
0
0
0
0
0
0
0
0
0
0
0
0
0
0
-2.76208e+06
-1.3954e+06
-2.80716e+06
-1.48702e+06
-2.85831e+06
-1.56956e+06
)
;

boundaryField
{
    inlet
    {
        type            calculated;
        value           uniform 0;
    }
    outlet
    {
        type            calculated;
        value           nonuniform 0();
    }
    wall
    {
        type            calculated;
        value           uniform 0;
    }
    procBoundary2to0
    {
        type            processor;
        value           uniform 0;
    }
    procBoundary2to3
    {
        type            processor;
        value           uniform 0;
    }
    procBoundary2to6
    {
        type            processor;
        value           uniform 0;
    }
}


// ************************************************************************* //
