/*--------------------------------*- C++ -*----------------------------------*\
| =========                 |                                                 |
| \\      /  F ield         | OpenFOAM: The Open Source CFD Toolbox           |
|  \\    /   O peration     | Version:  4.x                                   |
|   \\  /    A nd           | Web:      www.OpenFOAM.org                      |
|    \\/     M anipulation  |                                                 |
\*---------------------------------------------------------------------------*/
FoamFile
{
    version     2.0;
    format      ascii;
    class       volVectorField;
    location    "54";
    object      U;
}
// * * * * * * * * * * * * * * * * * * * * * * * * * * * * * * * * * * * * * //

dimensions      [0 1 -1 0 0 0 0];

internalField   nonuniform List<vector> 
114
(
(0.0169283 -0.000202571 -0.000824159)
(0.0341799 -0.000335312 -0.00155022)
(0.0195099 -0.00023342 -0.000740235)
(0.0359698 -0.000355114 -0.00114853)
(0.0213351 -0.000121349 -0.000432612)
(0.0377689 -0.000236706 -0.000736729)
(0.030011 4.92067e-05 -0.00131052)
(0.0127156 1.21462e-05 -0.000745542)
(0.0315395 0.000136468 -0.00155746)
(0.0151173 7.62082e-05 -0.000671291)
(0.0328315 1.28713e-05 -0.00132797)
(0.0166781 -0.000126767 -0.000542685)
(0.0338878 -0.000182297 -0.00111533)
(0.0173981 -0.000331235 -0.000276679)
(0.0345674 -0.000229488 -0.000743975)
(0.0300607 0.00103184 -0.00126867)
(0.013533 0.000524658 -0.000687036)
(0.0322318 0.00111051 -0.00131953)
(0.0169735 0.000628641 -0.000550593)
(0.0340754 0.00109389 -0.000969464)
(0.0193966 0.000533766 -0.000337238)
(0.0357706 0.000913028 -0.000630389)
(0.0210814 0.000378732 -8.46298e-05)
(0.0373576 0.000748375 -0.000345441)
(0.0301027 0.000463164 -0.00106434)
(0.0147626 0.000217478 -0.000619539)
(0.033108 0.000416912 -0.00109744)
(0.0194591 0.000193567 -0.000532913)
(0.0358716 0.000330766 -0.000843326)
(0.0231956 3.60934e-05 -0.000344975)
(0.0384793 0.000130698 -0.000557627)
(0.0260736 -0.000280895 -6.33475e-05)
(0.0405698 -0.000143604 -0.000301397)
(0.00861161 5.80278e-06 -0.000621486)
(0.0304075 -6.29695e-05 -0.00126001)
(0.00748895 6.35209e-05 -0.000452441)
(0.0310829 5.60297e-05 -0.000706851)
(0.0299325 0.00036554 -0.00247447)
(0.0105058 7.94092e-05 -0.00119261)
(0.0300298 0.00038995 -0.00265157)
(0.00901655 0.000204201 -0.00098027)
(0.0297527 0.000501197 -0.00202109)
(0.00702248 8.60224e-05 -0.000755002)
(0.0296705 0.000234418 -0.001256)
(0.00458491 -3.22011e-05 -0.000501314)
(0.0294151 0.000150332 -0.000225767)
(0.0299065 0.00125775 -0.00246519)
(0.0114752 0.000630317 -0.0013134)
(0.0305535 0.00150574 -0.00272122)
(0.0114193 0.000617294 -0.00114996)
(0.0308992 0.00148775 -0.00220041)
(0.0112167 0.00051312 -0.000995422)
(0.0314294 0.00135506 -0.00179983)
(0.0106983 0.000342486 -0.000928659)
(0.0321799 0.00105657 -0.00129785)
(0.0300026 0.000663185 -0.00223972)
(0.0134149 0.000314635 -0.00132325)
(0.0318614 0.000649358 -0.00237901)
(0.0159974 0.000243524 -0.00134502)
(0.0334425 0.000488257 -0.00200356)
(0.0180043 7.96409e-05 -0.00137731)
(0.0348895 0.000252337 -0.00166243)
(0.0193865 -0.00018265 -0.00122854)
(0.0361939 -3.23503e-05 -0.00137997)
(0.00458038 -0.000330918 -0.000507535)
(0.0296473 -2.81774e-05 -0.000649032)
(0.0297604 0.00037235 -0.00209094)
(0.00963402 4.80065e-05 -0.000989485)
(0.0289748 0.000131207 -0.00188979)
(0.00644104 -9.79701e-06 -0.000560394)
(0.0283168 -0.000132181 -0.00116429)
(0.00319071 -9.06661e-05 -0.000257476)
(0.02795 -0.000560731 -0.000498442)
(0.000330473 -1.80422e-05 -3.46755e-05)
(0.0273788 -0.000507677 6.33024e-05)
(0.0298398 0.00126925 -0.00186841)
(0.0103641 0.000542832 -0.000918747)
(0.0296145 0.00144543 -0.00169833)
(0.0081791 0.000492009 -0.000624303)
(0.0291909 0.0012455 -0.00110975)
(0.00580428 0.000309107 -0.000355509)
(0.0290338 0.000747657 -0.000549191)
(0.00308639 0.000176178 -0.000157111)
(0.0291023 -0.000106215 -0.000118655)
(0.0299983 0.000717275 -0.00177451)
(0.012468 0.000379573 -0.00103209)
(0.0310131 0.000891879 -0.00173665)
(0.0136514 0.000358193 -0.000989798)
(0.0317581 0.000752173 -0.00129167)
(0.0145692 0.000160796 -0.000806573)
(0.0323929 0.000572059 -0.000788207)
(0.014606 8.13933e-05 -0.000715961)
(0.0328396 0.000193425 -0.000473858)
(0.0297291 0.000576515 -0.00176245)
(0.00919458 0.000311359 -0.000722915)
(0.028926 0.000811946 -0.00143029)
(0.0060399 0.000214033 -0.00049745)
(0.028388 0.000656712 -0.00076731)
(0.00355252 0.000149077 -0.000258182)
(0.028237 0.000509717 -1.62077e-05)
(0.00137477 7.68486e-05 -0.00014016)
(0.0297151 0.00158333 -0.00148985)
(0.0108692 0.000784176 -0.000731988)
(0.0297361 0.00175734 -0.00133665)
(0.00972891 0.000636726 -0.000657622)
(0.0298215 0.00157281 -0.00104468)
(0.00902326 0.000601147 -0.000506413)
(0.0303473 0.0013461 -0.000606253)
(0.0299933 0.00077468 -0.00135585)
(0.0128987 0.000358998 -0.000842899)
(0.0311234 0.000710938 -0.00139872)
(0.0141367 0.00024688 -0.000997278)
(0.0320252 0.000493696 -0.00129926)
(0.0152014 0.000113222 -0.000795552)
)
;

boundaryField
{
    inlet
    {
        type            fixedValue;
        value           uniform (0.01 0 0);
    }
    outlet
    {
        type            zeroGradient;
    }
    wall
    {
        type            fixedValue;
        value           uniform (0 0 0);
    }
    procBoundary2to0
    {
        type            processor;
        value           nonuniform List<vector> 
44
(
(0.0164951 -0.000370255 -0.000913344)
(0.033788 -0.000424205 -0.001658)
(0.0187565 -0.000125983 -0.0008523)
(0.0351895 -0.000289087 -0.00146207)
(0.0201045 -9.77024e-06 -0.000582377)
(0.0361308 -0.000176943 -0.00109463)
(0.0301563 -0.000481106 -0.00161654)
(0.0135528 -0.000170772 -0.000789689)
(0.0322464 -0.000369099 -0.00161618)
(0.0322464 -0.000369099 -0.00161618)
(0.0100455 -8.41695e-06 -0.000962729)
(0.0301918 -4.67629e-05 -0.00199769)
(0.0076687 -1.07618e-05 -0.000494361)
(0.0297552 -6.70108e-05 -0.00101376)
(0.00520278 0.000127902 -0.000208894)
(0.029631 0.000114297 -0.000403991)
(0.0297528 -0.000187405 -0.00274842)
(0.0107716 -8.34416e-05 -0.00128065)
(0.0300214 -0.000195154 -0.00270224)
(0.0100455 -8.41695e-06 -0.000962729)
(0.0301918 -4.67629e-05 -0.00199769)
(0.0301918 -4.67629e-05 -0.00199769)
(0.00524099 -0.000291656 -0.000466939)
(0.0292588 -0.000506653 -0.000826649)
(0.00340189 -9.76888e-05 -0.000508812)
(0.0287461 -0.000341203 3.69729e-05)
(0.029604 -0.000358352 -0.00204526)
(0.00951997 -0.000188149 -0.00108941)
(0.0291143 -0.000468915 -0.0020843)
(0.00694744 -0.000200426 -0.000613553)
(0.0290015 -0.000510786 -0.00123963)
(0.00524099 -0.000291656 -0.000466939)
(0.0292588 -0.000506653 -0.000826649)
(0.0292588 -0.000506653 -0.000826649)
(0.00336416 0.000191899 -0.000406678)
(0.028521 -3.56175e-05 -0.000353815)
(0.0296895 -0.00013859 -0.00139641)
(0.00963795 3.81988e-05 -0.000805861)
(0.0290947 0.000179547 -0.00145025)
(0.00659707 0.000140487 -0.000550447)
(0.0287499 0.000294114 -0.00117026)
(0.00464 0.000155546 -0.00044755)
(0.0288594 -6.01932e-05 -0.000880553)
(0.00336416 0.000191899 -0.000406678)
)
;
    }
    procBoundary2to3
    {
        type            processor;
        value           nonuniform List<vector> 
12
(
(0.0225665 -0.000338062 -0.000239151)
(0.0169267 -0.000435617 -0.00015637)
(0.0222745 0.000620994 0.000120262)
(0.0279854 -0.000650045 7.99661e-05)
(0.00684474 5.72492e-05 -0.000517186)
(0.00223595 -2.92941e-05 -0.000311685)
(0.0102276 0.000471546 -0.000988728)
(0.0202303 -0.000559274 -0.00135089)
(0.00386896 -0.000357482 -0.000725972)
(1.11626e-08 -7.99632e-10 -7.74219e-10)
(0.000878861 8.41544e-05 -4.62819e-05)
(0.0138847 -0.000101248 -0.000651439)
)
;
    }
    procBoundary2to6
    {
        type            processor;
        value           nonuniform List<vector> 
32
(
(0.0282663 0.000602772 -0.000215892)
(0.00881281 0.000660201 -0.000542148)
(0.0310661 0.000960858 -0.000334753)
(0.0329987 0.000240342 -0.000887214)
(0.0160433 -0.000195642 -0.000976088)
(0.0339538 -0.000118571 -0.000949901)
(0.0294776 0.00026605 -0.000579034)
(0.0083588 0.000169016 -0.000182974)
(0.0278161 0.000258609 -0.00039548)
(0.00366917 4.95218e-05 -0.000121062)
(0.02709 4.03839e-05 -0.000221049)
(0.000465206 5.71104e-06 -1.81665e-05)
(0.0265496 -0.000233198 -0.00011183)
(0.0282663 0.000602772 -0.000215892)
(0.00881281 0.000660201 -0.000542148)
(1.08105e-08 2.51481e-10 -3.21575e-10)
(0.0297578 0.00167918 -0.000554043)
(0.00972769 0.000618341 -0.000315267)
(0.0290419 0.00158964 -0.000553757)
(0.00671159 0.000454057 -0.000332975)
(0.0285672 0.000924192 -0.000507441)
(0.00390685 0.000277892 -0.000254165)
(0.00881281 0.000660201 -0.000542148)
(0.0329987 0.000240342 -0.000887214)
(0.028198 0.000107624 -0.000515924)
(0.030074 0.000886936 -0.000573818)
(0.0125565 0.000405279 -0.000389471)
(0.0306626 0.000927526 -0.000614067)
(0.0129645 0.000284229 -0.000594877)
(0.0309778 0.000628245 -0.000626611)
(0.0329987 0.000240342 -0.000887214)
(0.0123768 0.00016345 -0.000617701)
)
;
    }
}


// ************************************************************************* //
