/*--------------------------------*- C++ -*----------------------------------*\
| =========                 |                                                 |
| \\      /  F ield         | OpenFOAM: The Open Source CFD Toolbox           |
|  \\    /   O peration     | Version:  4.x                                   |
|   \\  /    A nd           | Web:      www.OpenFOAM.org                      |
|    \\/     M anipulation  |                                                 |
\*---------------------------------------------------------------------------*/
FoamFile
{
    version     2.0;
    format      ascii;
    class       volScalarField;
    location    "46";
    object      p;
}
// * * * * * * * * * * * * * * * * * * * * * * * * * * * * * * * * * * * * * //

dimensions      [1 -1 -2 0 0 0 0];

internalField   nonuniform List<scalar> 
114
(
5707.73
5728.38
5689.35
5721.34
5670.65
5714.62
5742.51
5725.53
5735.79
5707.93
5728.83
5689.78
5721.84
5671.24
5715.06
5742.09
5725.3
5735.4
5707.69
5728.45
5689.58
5721.52
5671.12
5714.73
5741.81
5725.2
5735.18
5707.65
5728.29
5689.69
5721.45
5671.39
5714.7
3811.64
3844.03
3792.75
3837.11
3865.47
3848.13
3858.71
3830.29
3851.65
3812.02
3844.57
3793.32
3837.62
3865.01
3847.82
3858.17
3829.92
3851.05
3811.65
3843.95
3792.97
3837.04
3864.57
3847.64
3857.81
3829.86
3850.79
3811.75
3843.8
3793.26
3836.98
1915.42
1959.18
1988.39
1970.71
1981.47
1953.03
1974.15
1935.01
1966.73
1916.71
1959.35
1987.97
1970.55
1981.12
1952.69
1973.84
1934.56
1966.65
1916.1
1959.52
1987.49
1970.26
1980.59
1952.52
1973.42
1934.61
1966.29
1916.18
1959.38
111.126
93.3145
103.987
75.2578
96.5383
57.0523
89.0838
38.778
110.52
92.8643
103.347
74.8243
95.8912
56.4653
88.4493
109.983
92.6193
102.927
74.7296
95.593
56.484
)
;

boundaryField
{
    inlet
    {
        type            calculated;
        value           nonuniform List<scalar> 
12
(
5742.51
5742.09
5741.81
3865.47
3865.01
3864.57
1988.39
1987.97
1987.49
111.126
110.52
109.983
)
;
    }
    outlet
    {
        type            calculated;
        value           nonuniform 0();
    }
    wall
    {
        type            calculated;
        value           nonuniform List<scalar> 
66
(
6681.47
6681.05
6680.77
6664.48
6664.26
6664.15
6674.74
6674.35
6674.13
6646.68
6646.89
6646.64
6646.6
6667.34
6667.78
6667.41
6667.25
6628.31
6628.74
6628.54
6628.65
6660.29
6660.79
6660.48
6660.41
6609.61
6610.2
6610.07
6610.35
6653.58
6654.01
6653.68
6653.66
5741.81
3864.57
1987.49
109.983
5725.2
3847.64
1970.26
92.6193
5735.18
3857.81
1980.59
102.927
5707.65
3829.86
1952.52
74.7296
5728.29
3850.79
1973.42
95.593
5689.69
3811.75
1934.61
56.484
5721.45
3843.8
1966.29
5671.39
3793.26
1916.18
5714.7
3836.98
1959.38
)
;
    }
    procBoundary2to0
    {
        type            processor;
        value           nonuniform List<scalar> 
44
(
5707.78
5728.49
5689.52
5721.57
5671.29
5714.92
5742.33
5725.43
5735.54
5735.54
3830.16
3851.32
3811.94
3844.46
3793.45
3837.62
3865.4
3847.91
3858.48
3830.16
3851.32
3851.32
1934.13
1966.28
1915.79
1959.31
1988.34
1970.6
1981.26
1952.64
1973.76
1934.13
1966.28
1966.28
38.4183
81.627
111.007
93.29
103.913
75.1709
96.318
56.9137
88.7493
38.4183
)
;
    }
    procBoundary2to3
    {
        type            processor;
        value           nonuniform List<scalar> 
12
(
5651.66
5652.89
5652.09
5652.61
3773.7
3774.91
3773.97
3774.41
1896.76
1898.86
1897.52
1897.64
)
;
    }
    procBoundary2to6
    {
        type            processor;
        value           nonuniform List<scalar> 
32
(
81.7783
37.742
81.2728
88.3018
38.0417
81.2883
-1766.17
-1784.39
-1773.49
-1801.94
-1781.22
-1819.97
-1789.1
81.7783
37.742
-1837.77
-1766.78
-1784.62
-1773.92
-1802.41
-1781.38
-1820.64
37.742
88.3018
-1788.84
-1767.39
-1784.9
-1774.48
-1802.52
-1781.78
88.3018
-1820.71
)
;
    }
}


// ************************************************************************* //
