/*--------------------------------*- C++ -*----------------------------------*\
| =========                 |                                                 |
| \\      /  F ield         | OpenFOAM: The Open Source CFD Toolbox           |
|  \\    /   O peration     | Version:  4.x                                   |
|   \\  /    A nd           | Web:      www.OpenFOAM.org                      |
|    \\/     M anipulation  |                                                 |
\*---------------------------------------------------------------------------*/
FoamFile
{
    version     2.0;
    format      ascii;
    class       surfaceScalarField;
    location    "46";
    object      phi;
}
// * * * * * * * * * * * * * * * * * * * * * * * * * * * * * * * * * * * * * //

dimensions      [0 3 -1 0 0 0 0];

internalField   nonuniform List<scalar> 
259
(
1.01535e-05
-2.1509e-08
1.07455e-05
-5.61054e-08
1.10057e-05
-6.65819e-08
-2.62743e-07
1.14415e-05
-9.73805e-08
-4.63e-07
1.16711e-05
-8.24888e-08
-1.70313e-07
-8.30221e-08
-2.77898e-07
8.59806e-06
2.12621e-07
-7.29726e-07
8.83553e-06
1.04509e-07
-3.70713e-07
9.34999e-06
2.43549e-07
-7.98161e-07
9.50453e-06
1.3684e-07
-3.12885e-07
9.86004e-06
2.17121e-07
-6.28734e-07
9.95914e-06
7.91119e-08
-2.44801e-07
1.01642e-05
1.45103e-07
-4.47548e-07
1.02194e-05
9.4024e-09
-1.47073e-07
1.04346e-07
-2.06661e-07
8.80911e-06
2.94912e-07
-7.28132e-07
9.15396e-06
1.45575e-07
-3.85921e-07
9.87317e-06
2.9896e-07
-7.74619e-07
1.0175e-05
1.60817e-07
-3.2579e-07
1.07164e-05
2.79565e-07
-6.03896e-07
1.0938e-05
1.12042e-07
-2.54534e-07
1.13362e-05
2.06073e-07
-4.5909e-07
1.15177e-05
2.06504e-08
-1.92797e-07
1.22052e-07
-3.11907e-07
9.10255e-06
-6.44375e-07
9.62518e-06
-3.77054e-07
1.05924e-05
-6.68289e-07
1.11144e-05
-3.61127e-07
1.19393e-05
-5.45311e-07
1.23817e-05
-3.30398e-07
1.30109e-05
-4.2313e-07
1.3278e-05
-2.46463e-07
-3.18944e-07
7.46164e-06
1.7836e-08
7.33183e-06
3.46936e-08
7.37025e-06
7.83809e-09
-1.78989e-07
4.1263e-08
-2.46684e-07
8.01832e-06
3.11809e-07
-8.62433e-07
7.92213e-06
1.34115e-07
-4.09756e-07
7.64803e-06
3.57101e-07
-8.4387e-07
7.50459e-06
1.53777e-07
-2.8627e-07
7.17766e-06
3.72415e-07
-5.86781e-07
7.02938e-06
1.11218e-07
-1.89906e-07
6.64948e-06
2.94709e-07
-3.27666e-07
6.56116e-06
5.58359e-08
-1.06742e-07
2.24405e-07
-5.76405e-08
8.20611e-06
3.73689e-07
-8.32861e-07
8.19681e-06
1.82232e-07
-4.2474e-07
8.20099e-06
4.12675e-07
-8.3437e-07
8.19853e-06
1.6485e-07
-3.34405e-07
8.21107e-06
3.77179e-07
-6.21196e-07
8.20987e-06
1.1356e-07
-2.55678e-07
8.17819e-06
3.05088e-07
-4.37787e-07
8.21708e-06
3.05887e-08
-2.06446e-07
1.94466e-07
-2.65222e-07
8.66283e-06
-7.70253e-07
8.916e-06
-4.47987e-07
9.43703e-06
-7.76646e-07
9.68063e-06
-4.39877e-07
1.01317e-05
-6.19244e-07
1.03264e-05
-4.11516e-07
1.06654e-05
-4.57038e-07
1.08166e-05
-3.67033e-07
-3.45772e-07
6.45056e-06
-6.86618e-08
-1.12649e-07
7.7275e-06
3.13276e-07
-7.27195e-07
7.50755e-06
1.11726e-07
-3.22538e-07
6.94217e-06
2.99479e-07
-6.22608e-07
6.72993e-06
8.95261e-08
-1.99237e-07
6.19323e-06
2.18057e-07
-3.67958e-07
5.99248e-06
3.89612e-08
-1.00084e-07
5.53107e-06
5.62866e-08
-1.09972e-07
5.36759e-06
2.79682e-08
-3.98887e-08
-7.54048e-08
7.91276e-06
3.77882e-07
-6.4696e-07
7.7419e-06
1.74283e-07
-3.16438e-07
7.35315e-06
4.35123e-07
-5.81261e-07
7.19301e-06
1.59004e-07
-2.43742e-07
6.83574e-06
3.71519e-07
-4.17392e-07
6.69529e-06
8.94465e-08
-1.65715e-07
6.28957e-06
2.5415e-07
-2.29934e-07
6.19063e-06
5.46826e-08
5.47146e-08
8.37081e-06
-5.99913e-07
8.45277e-06
-3.55667e-07
8.70436e-06
-5.93118e-07
8.79615e-06
-3.72663e-07
9.03649e-06
-4.88063e-07
9.01384e-06
-2.99419e-07
9.11982e-06
9.12366e-06
7.55137e-06
4.06159e-07
7.26053e-06
2.02219e-07
6.68667e-06
4.75429e-07
6.51515e-06
1.53002e-07
6.10151e-06
4.08576e-07
5.97653e-06
1.30357e-07
5.64338e-06
3.31872e-07
7.85888e-06
4.48303e-07
7.72536e-06
2.1438e-07
7.50462e-06
4.62641e-07
7.4339e-06
1.6272e-07
7.3238e-06
3.85708e-07
7.30155e-06
1.28063e-07
8.3751e-06
8.46303e-06
8.70259e-06
8.78534e-06
9.03056e-06
)
;

boundaryField
{
    inlet
    {
        type            calculated;
        value           nonuniform List<scalar> 
12
(
-8.16327e-06
-8.16327e-06
-8.16327e-06
-8.16327e-06
-8.16327e-06
-8.16327e-06
-8.16327e-06
-8.16327e-06
-8.16327e-06
-8.16327e-06
-8.16327e-06
-8.16327e-06
)
;
    }
    outlet
    {
        type            calculated;
        value           nonuniform 0();
    }
    wall
    {
        type            calculated;
        value           nonuniform List<scalar> 
66
(
0
0
0
0
0
0
0
0
0
0
0
0
0
0
0
0
0
0
0
0
0
0
0
0
0
0
0
0
0
0
0
0
0
0
0
0
0
0
0
0
0
0
0
0
0
0
0
0
0
0
0
0
0
0
-1.2326e-32
0
0
0
0
0
0
0
0
0
0
0
)
;
    }
    procBoundary2to0
    {
        type            processor;
        value           nonuniform List<scalar> 
44
(
1.11051e-07
1.4746e-07
6.91226e-08
1.24592e-07
2.32128e-08
7.81162e-08
8.231e-08
2.87315e-08
-9.89738e-06
4.01511e-08
-3.45664e-07
-6.83391e-07
1.69739e-09
2.70436e-08
-3.758e-08
-3.16334e-08
-3.4159e-08
1.11992e-09
-3.72893e-08
-3.69583e-08
-7.53939e-06
-8.74305e-08
-2.04521e-07
-3.94927e-07
7.78865e-08
8.94528e-08
-1.27496e-08
2.10079e-08
4.46401e-08
3.56778e-08
9.98183e-08
7.19662e-08
-6.47851e-06
1.87433e-07
-1.60266e-07
-1.56772e-07
-8.42862e-08
-6.64788e-08
-1.87497e-07
-6.55842e-08
-1.79131e-07
-5.28234e-08
-8.27816e-08
-4.003e-08
)
;
    }
    procBoundary2to3
    {
        type            processor;
        value           nonuniform List<scalar> 
12
(
1.19539e-05
1.02387e-05
1.18119e-05
1.3719e-05
7.3294e-06
6.22899e-06
8.20034e-06
1.10379e-05
6.38385e-06
5.28919e-06
5.88652e-06
9.08527e-06
)
;
    }
    procBoundary2to6
    {
        type            processor;
        value           nonuniform List<scalar> 
32
(
-1.64907e-08
-1.34212e-07
-9.12365e-08
-3.08865e-07
-3.16189e-07
-2.52676e-07
-4.37174e-07
-1.67434e-07
-3.36678e-07
-1.15136e-07
-1.83768e-07
-5.26326e-08
-2.59119e-08
5.54555e-06
1.23372e-07
-2.53987e-08
-3.84719e-07
-1.95081e-07
-3.47732e-07
-1.82738e-07
-2.84425e-07
-1.41175e-07
7.31914e-06
2.93227e-07
-2.08874e-07
-3.63442e-07
-2.29216e-07
-3.70045e-07
-2.92693e-07
-3.47574e-07
9.1164e-06
-2.57188e-07
)
;
    }
}


// ************************************************************************* //
