/*--------------------------------*- C++ -*----------------------------------*\
| =========                 |                                                 |
| \\      /  F ield         | OpenFOAM: The Open Source CFD Toolbox           |
|  \\    /   O peration     | Version:  4.x                                   |
|   \\  /    A nd           | Web:      www.OpenFOAM.org                      |
|    \\/     M anipulation  |                                                 |
\*---------------------------------------------------------------------------*/
FoamFile
{
    version     2.0;
    format      ascii;
    class       volScalarField;
    location    "46";
    object      pSmooth;
}
// * * * * * * * * * * * * * * * * * * * * * * * * * * * * * * * * * * * * * //

dimensions      [1 -1 -2 0 0 0 0];

internalField   nonuniform List<scalar> 
114
(
74.2499
94.9738
55.9769
87.9751
37.2836
81.2213
108.987
91.9946
102.271
74.448
95.3703
56.3514
88.4298
37.899
81.6415
108.595
91.7983
101.9
74.2034
94.9829
56.1199
88.0526
37.5792
81.2579
108.306
91.6965
101.681
74.1616
94.8131
56.2177
87.9624
37.8898
81.2293
56.1643
88.5687
37.2685
81.6159
109.848
92.546
103.121
74.7223
96.1077
56.5046
89.0655
37.8187
82.0996
109.424
92.2414
102.599
74.3486
95.5052
56.1087
88.4128
37.4204
81.5024
108.987
92.0546
102.235
74.2878
95.2295
56.1937
88.2496
37.7008
81.4517
37.8168
81.5843
110.663
93.0033
103.776
75.3576
96.5026
57.3772
89.1171
39.0771
81.7469
110.277
92.8638
103.44
75.0281
96.1866
56.9143
89.0139
38.466
81.8838
109.8
92.5793
102.915
74.8537
95.7573
56.958
88.639
38.5323
81.7403
111.329
93.5272
104.221
75.5057
96.8157
57.327
89.3852
39.049
110.753
93.102
103.603
75.0846
96.1772
56.749
88.7532
110.219
92.8585
103.179
74.9852
95.8677
56.7573
)
;

boundaryField
{
    inlet
    {
        type            zeroGradient;
    }
    outlet
    {
        type            fixedValue;
        value           nonuniform 0();
    }
    wall
    {
        type            zeroGradient;
    }
    procBoundary2to0
    {
        type            processor;
        value           nonuniform List<scalar> 
44
(
74.358
95.1966
56.242
88.2535
37.9313
81.5145
108.629
91.8061
101.998
101.998
74.594
95.8246
56.5356
89.0344
37.9881
82.1297
109.678
92.2574
102.864
74.594
95.8246
95.8246
56.5318
88.7034
38.2016
81.7141
110.56
92.8525
103.551
74.9755
96.1491
56.5318
88.7034
88.7034
38.7549
81.935
111.188
93.4871
104.149
75.4342
96.6219
57.2326
89.0756
38.7549
)
;
    }
    procBoundary2to3
    {
        type            processor;
        value           nonuniform List<scalar> 
12
(
18.2347
19.444
18.6353
19.1537
18.1797
19.3692
18.3833
18.945
19.1296
21.1936
19.8754
20.0144
)
;
    }
    procBoundary2to6
    {
        type            processor;
        value           nonuniform List<scalar> 
32
(
82.0832
38.0356
81.5732
88.5933
38.3246
81.5855
111.939
93.7363
104.642
76.2158
96.9519
58.2124
89.0999
82.0832
38.0356
40.4136
111.357
93.5231
104.23
75.7519
96.7926
57.5425
38.0356
88.5933
89.342
110.745
93.2387
103.667
75.6407
96.3792
88.5933
57.4726
)
;
    }
}


// ************************************************************************* //
