/*--------------------------------*- C++ -*----------------------------------*\
| =========                 |                                                 |
| \\      /  F ield         | OpenFOAM: The Open Source CFD Toolbox           |
|  \\    /   O peration     | Version:  4.x                                   |
|   \\  /    A nd           | Web:      www.OpenFOAM.org                      |
|    \\/     M anipulation  |                                                 |
\*---------------------------------------------------------------------------*/
FoamFile
{
    version     2.0;
    format      ascii;
    class       volScalarField;
    location    "46";
    object      QWallFluidCoeff;
}
// * * * * * * * * * * * * * * * * * * * * * * * * * * * * * * * * * * * * * //

dimensions      [1 -1 -3 -1 0 0 0];

internalField   nonuniform List<scalar> 
114
(
-1.77357e+06
-3.10979e+06
-1.99163e+06
-3.23068e+06
-2.13124e+06
-3.34876e+06
-2.82627e+06
-1.4154e+06
-2.92639e+06
-1.6216e+06
-3.00187e+06
-1.74512e+06
-3.06546e+06
-1.79405e+06
-3.12146e+06
-2.84257e+06
-1.49126e+06
-2.98149e+06
-1.78152e+06
-3.11024e+06
-1.9783e+06
-3.21729e+06
-2.10351e+06
-3.31824e+06
-5.69989e+06
-3.21433e+06
-6.10773e+06
-3.98903e+06
-6.52377e+06
-4.59744e+06
-6.89412e+06
-5.01829e+06
-7.1539e+06
0
0
0
0
0
0
0
0
0
0
0
0
0
0
0
0
0
0
0
0
0
0
-2.81141e+06
-1.47066e+06
-2.91667e+06
-1.67775e+06
-3.02337e+06
-1.8405e+06
-3.12049e+06
-1.94358e+06
-3.21047e+06
0
0
0
0
0
0
0
0
0
0
0
0
0
0
0
0
0
0
0
0
-2.78194e+06
-1.37188e+06
-2.82354e+06
-1.46517e+06
-2.87488e+06
-1.54173e+06
-2.89211e+06
-1.55067e+06
-2.92851e+06
0
0
0
0
0
0
0
0
0
0
0
0
0
0
0
-2.76359e+06
-1.39241e+06
-2.8073e+06
-1.48124e+06
-2.85633e+06
-1.56003e+06
)
;

boundaryField
{
    inlet
    {
        type            calculated;
        value           uniform 0;
    }
    outlet
    {
        type            calculated;
        value           nonuniform 0();
    }
    wall
    {
        type            calculated;
        value           uniform 0;
    }
    procBoundary2to0
    {
        type            processor;
        value           uniform 0;
    }
    procBoundary2to3
    {
        type            processor;
        value           uniform 0;
    }
    procBoundary2to6
    {
        type            processor;
        value           uniform 0;
    }
}


// ************************************************************************* //
