/*--------------------------------*- C++ -*----------------------------------*\
| =========                 |                                                 |
| \\      /  F ield         | OpenFOAM: The Open Source CFD Toolbox           |
|  \\    /   O peration     | Version:  4.x                                   |
|   \\  /    A nd           | Web:      www.OpenFOAM.org                      |
|    \\/     M anipulation  |                                                 |
\*---------------------------------------------------------------------------*/
FoamFile
{
    version     2.0;
    format      ascii;
    class       volVectorField;
    location    "46";
    object      U;
}
// * * * * * * * * * * * * * * * * * * * * * * * * * * * * * * * * * * * * * //

dimensions      [0 1 -1 0 0 0 0];

internalField   nonuniform List<vector> 
114
(
(0.0169247 -0.000196825 -0.000851)
(0.0341862 -0.000327083 -0.00160259)
(0.019505 -0.000225623 -0.000769257)
(0.0359703 -0.000347736 -0.00119815)
(0.0213232 -0.000107172 -0.000464153)
(0.0377582 -0.000224333 -0.000777945)
(0.030006 6.16519e-05 -0.00133864)
(0.0127159 2.10335e-05 -0.00076583)
(0.0315349 0.000158427 -0.00159518)
(0.0150966 8.65509e-05 -0.000692797)
(0.0328275 3.92593e-05 -0.00136243)
(0.0166323 -0.000115767 -0.000562559)
(0.0338906 -0.000155443 -0.00114096)
(0.0173592 -0.000319122 -0.000295782)
(0.0345992 -0.00020513 -0.000769333)
(0.0300658 0.00101863 -0.0013082)
(0.0135337 0.000514418 -0.000715332)
(0.0322375 0.00109138 -0.00138236)
(0.016974 0.00061673 -0.000585099)
(0.0340795 0.00107708 -0.00104161)
(0.0193872 0.000521726 -0.000374544)
(0.0357702 0.000904098 -0.000701511)
(0.0210561 0.000364465 -0.000122927)
(0.0373522 0.000746207 -0.000404184)
(0.0301019 0.000479112 -0.001096)
(0.0147643 0.000230431 -0.00064426)
(0.0331088 0.000441976 -0.00114738)
(0.0194576 0.000209853 -0.000563708)
(0.0358753 0.000358639 -0.000901509)
(0.0231913 5.5584e-05 -0.000380839)
(0.0384896 0.000160556 -0.000619359)
(0.0260746 -0.000254876 -0.000106403)
(0.0405956 -0.000110141 -0.000364149)
(0.00856956 9.00689e-06 -0.000601727)
(0.0303947 -5.11496e-05 -0.0012375)
(0.00742057 7.46977e-05 -0.000426632)
(0.0310521 6.77858e-05 -0.000683124)
(0.0299312 0.000369705 -0.00242167)
(0.0104772 8.20054e-05 -0.00115707)
(0.0300183 0.000397708 -0.00256242)
(0.00897283 0.000205652 -0.00094067)
(0.0297459 0.000508347 -0.00193351)
(0.00699735 8.73731e-05 -0.000721139)
(0.0296898 0.000239451 -0.00122041)
(0.00461766 -3.04785e-05 -0.00048259)
(0.0294904 0.000154184 -0.00030924)
(0.0299225 0.00124329 -0.00243473)
(0.0114249 0.000618832 -0.00128944)
(0.0305479 0.00148019 -0.00265995)
(0.0113269 0.000604347 -0.00111901)
(0.0308705 0.00145619 -0.00211796)
(0.0110807 0.000498601 -0.000961302)
(0.0313793 0.001322 -0.00171415)
(0.0105182 0.000324482 -0.000898661)
(0.0321079 0.00103334 -0.00124121)
(0.030011 0.000686659 -0.0022055)
(0.0133912 0.000331273 -0.00129678)
(0.0318585 0.000686599 -0.00231836)
(0.0159577 0.000262977 -0.0013121)
(0.0334284 0.000529727 -0.00192908)
(0.0179503 0.000100874 -0.00133966)
(0.0348657 0.000291839 -0.00158283)
(0.0193181 -0.00015959 -0.00118835)
(0.0361637 -1.85228e-06 -0.00130197)
(0.0045212 -0.000320556 -0.000531091)
(0.029667 -0.00014347 -0.000643396)
(0.0297448 0.000402396 -0.00207929)
(0.00975348 6.37346e-05 -0.000991514)
(0.0290223 0.000194877 -0.00189165)
(0.0067411 -1.28995e-06 -0.000575836)
(0.0284254 -4.84856e-05 -0.00118484)
(0.00365942 -0.000102279 -0.000287348)
(0.0281019 -0.000480643 -0.000539989)
(0.000810688 -4.54121e-05 -8.34339e-05)
(0.0275477 -0.000463354 1.70975e-06)
(0.0298287 0.00123827 -0.00189426)
(0.0104372 0.000525334 -0.000940002)
(0.0296363 0.00139888 -0.00175129)
(0.00838329 0.000480734 -0.000654558)
(0.0292418 0.00121576 -0.00117598)
(0.00618745 0.000308386 -0.000392467)
(0.0290959 0.00078162 -0.000614707)
(0.00364941 0.000192773 -0.000195825)
(0.0291412 5.80177e-05 -0.000166836)
(0.0299811 0.00073479 -0.00178238)
(0.0125071 0.00039308 -0.00104056)
(0.0310167 0.000911595 -0.00176031)
(0.0137202 0.000369476 -0.00100329)
(0.0317886 0.000765114 -0.00132743)
(0.0146762 0.000171037 -0.000826778)
(0.0324575 0.000585341 -0.000831981)
(0.0147837 0.000101815 -0.000748537)
(0.0329557 0.000235212 -0.000522751)
(0.0297502 0.000598988 -0.00176017)
(0.00919107 0.000324776 -0.000720121)
(0.0289638 0.000854682 -0.00143939)
(0.00604522 0.000227775 -0.000496299)
(0.0284429 0.000693835 -0.000795455)
(0.00355887 0.000159951 -0.000256257)
(0.0283007 0.00051466 -5.54722e-05)
(0.00136729 8.22441e-05 -0.000136811)
(0.029747 0.00155211 -0.00151001)
(0.0107682 0.000755861 -0.000739355)
(0.0297214 0.00170927 -0.0013626)
(0.00950719 0.000597238 -0.000658918)
(0.0297539 0.00151871 -0.00107363)
(0.00866078 0.000546159 -0.000504996)
(0.0302254 0.00129311 -0.000634963)
(0.0300127 0.0008162 -0.00135606)
(0.0128632 0.000387331 -0.000841183)
(0.0311239 0.000778108 -0.00139292)
(0.0140675 0.00028018 -0.000991421)
(0.031997 0.000566294 -0.00127771)
(0.0150861 0.000149169 -0.000782041)
)
;

boundaryField
{
    inlet
    {
        type            fixedValue;
        value           uniform (0.01 0 0);
    }
    outlet
    {
        type            zeroGradient;
    }
    wall
    {
        type            fixedValue;
        value           uniform (0 0 0);
    }
    procBoundary2to0
    {
        type            processor;
        value           nonuniform List<vector> 
44
(
(0.0164799 -0.000374901 -0.000929165)
(0.0337834 -0.000433395 -0.00168823)
(0.0187233 -0.000131149 -0.000873529)
(0.035186 -0.000296974 -0.00149643)
(0.020056 -1.58051e-05 -0.000616475)
(0.0361341 -0.000183202 -0.00113124)
(0.0301675 -0.000475674 -0.0016477)
(0.0135457 -0.000166245 -0.000811831)
(0.032256 -0.000360847 -0.0016647)
(0.032256 -0.000360847 -0.0016647)
(0.0100083 -9.57317e-06 -0.000947219)
(0.0301926 -4.41632e-05 -0.00197949)
(0.00761049 -1.96532e-05 -0.00046748)
(0.0297324 -9.52381e-05 -0.00094719)
(0.0051407 0.000120712 -0.000185098)
(0.0296076 9.71466e-05 -0.000359256)
(0.0297744 -0.000192352 -0.00273844)
(0.010738 -8.62553e-05 -0.00126908)
(0.030033 -0.000198931 -0.00268766)
(0.0100083 -9.57317e-06 -0.000947219)
(0.0301926 -4.41632e-05 -0.00197949)
(0.0301926 -4.41632e-05 -0.00197949)
(0.0052509 -0.000282992 -0.000493641)
(0.0293001 -0.00053283 -0.000885631)
(0.00388588 -0.00010265 -0.000563273)
(0.0289097 -0.000337951 8.78711e-06)
(0.0296219 -0.000335131 -0.00209096)
(0.00953499 -0.000174668 -0.00111726)
(0.0291502 -0.000432689 -0.00217357)
(0.00697692 -0.00018872 -0.000643039)
(0.0290451 -0.00048788 -0.00133279)
(0.0052509 -0.000282992 -0.000493641)
(0.0293001 -0.00053283 -0.000885631)
(0.0293001 -0.00053283 -0.000885631)
(0.00241459 0.000139003 -0.000334762)
(0.0282858 -8.83739e-05 -0.00020324)
(0.0297236 -0.000150623 -0.00144625)
(0.00945339 3.22913e-05 -0.000827496)
(0.0290434 0.000159478 -0.00151335)
(0.00610477 0.000128879 -0.00055091)
(0.0286138 0.000278926 -0.00121527)
(0.00383473 0.000129666 -0.000413231)
(0.0286624 -6.16267e-05 -0.000862328)
(0.00241459 0.000139003 -0.000334762)
)
;
    }
    procBoundary2to3
    {
        type            processor;
        value           nonuniform List<vector> 
12
(
(0.0225419 -0.000308431 -0.000272658)
(0.0170068 -0.00042046 -0.000175929)
(0.0222427 0.000596785 7.9547e-05)
(0.0280036 -0.00061307 2.63227e-05)
(0.00670752 8.17828e-05 -0.00048312)
(0.00233727 -2.85627e-05 -0.000314798)
(0.0100049 0.000440276 -0.000972324)
(0.0201517 -0.000531847 -0.00130988)
(0.00364424 -0.000334556 -0.000718881)
(1.2422e-08 -1.68011e-09 -7.55413e-10)
(0.00149797 0.000135375 -8.4254e-05)
(0.0142372 -5.53494e-05 -0.000709556)
)
;
    }
    procBoundary2to6
    {
        type            processor;
        value           nonuniform List<vector> 
32
(
(0.0283051 0.000563561 -8.99427e-05)
(0.00831665 0.000584928 -0.000536025)
(0.0308911 0.000917416 -0.000330803)
(0.032929 0.000303147 -0.000830553)
(0.0158739 -0.000159858 -0.000950697)
(0.0338295 -8.28971e-05 -0.000839329)
(0.0294666 0.000324647 -0.000566012)
(0.00846549 0.000204323 -0.000178839)
(0.0278632 0.000362269 -0.000378462)
(0.00389553 7.69651e-05 -0.000125558)
(0.0271902 0.00014524 -0.000203969)
(0.000701717 1.50424e-05 -2.69514e-05)
(0.0267009 -0.000185173 -8.80023e-05)
(0.0283051 0.000563561 -8.99427e-05)
(0.00831665 0.000584928 -0.000536025)
(1.1834e-08 -2.06402e-10 -5.54917e-13)
(0.0297425 0.00164639 -0.000530255)
(0.00976784 0.000598826 -0.000304294)
(0.029041 0.00155743 -0.000511167)
(0.0068238 0.000442207 -0.000329145)
(0.0285757 0.000942549 -0.000469331)
(0.00408816 0.000276616 -0.000261865)
(0.00831665 0.000584928 -0.000536025)
(0.032929 0.000303147 -0.000830553)
(0.0281922 0.000238976 -0.00050488)
(0.0300535 0.000924141 -0.000555377)
(0.0126109 0.000434405 -0.000378271)
(0.0306728 0.000982725 -0.000585095)
(0.0131053 0.000319006 -0.00058482)
(0.0310407 0.000698951 -0.000597664)
(0.032929 0.000303147 -0.000830553)
(0.0127062 0.000208833 -0.000613957)
)
;
    }
}


// ************************************************************************* //
