/*--------------------------------*- C++ -*----------------------------------*\
| =========                 |                                                 |
| \\      /  F ield         | OpenFOAM: The Open Source CFD Toolbox           |
|  \\    /   O peration     | Version:  4.x                                   |
|   \\  /    A nd           | Web:      www.OpenFOAM.org                      |
|    \\/     M anipulation  |                                                 |
\*---------------------------------------------------------------------------*/
FoamFile
{
    version     2.0;
    format      ascii;
    class       volScalarField;
    location    "59.5";
    object      QPartFluidCoeff;
}
// * * * * * * * * * * * * * * * * * * * * * * * * * * * * * * * * * * * * * //

dimensions      [1 -1 -3 -1 0 0 0];

internalField   nonuniform List<scalar> 
114
(
-2.37908e+07
-1.8653e+07
-1.0182e+07
-1.99194e+07
-1.21264e+07
-1.53211e+07
-1.93904e+07
-2.31082e+07
-2.04493e+07
-1.45936e+07
-2.44703e+07
-1.66466e+07
-2.33295e+07
-2.23802e+07
-1.49022e+07
-1.29309e+07
-2.05588e+07
-1.69911e+07
-1.79821e+07
-1.93809e+07
-1.74961e+07
-2.26819e+07
-1.80157e+07
-2.17128e+07
-1.32905e+07
-1.33543e+07
-1.72058e+07
-1.51435e+07
-1.31999e+07
-1.3658e+07
-1.0207e+07
-1.78133e+07
-1.32746e+07
-3.28321e+07
-4.10244e+07
-2.20511e+07
-3.7448e+07
-1.57766e+07
-2.64552e+07
-3.19758e+07
-3.05739e+07
-2.96016e+07
-2.32651e+07
-3.71439e+07
-2.89506e+07
-2.13469e+07
-1.95354e+07
-3.33901e+07
-3.55461e+07
-3.0628e+07
-3.14087e+07
-2.9585e+07
-3.0578e+07
-2.9689e+07
-2.56383e+07
-1.68835e+07
-1.79412e+07
-2.78683e+07
-2.00981e+07
-2.53386e+07
-2.17842e+07
-2.24032e+07
-2.36795e+07
-1.60696e+07
-2.69155e+07
-3.10268e+07
-2.28704e+07
-1.91057e+07
-2.24763e+07
-2.28111e+07
-2.24897e+07
-2.5461e+07
-3.26814e+07
-2.39218e+07
-1.9097e+07
-1.66407e+07
-2.31633e+07
-3.02876e+07
-3.4842e+07
-3.05731e+07
-2.32463e+07
-3.15287e+07
-2.81517e+07
-3.40691e+07
-1.67014e+07
-2.5331e+07
-2.32763e+07
-2.49406e+07
-1.59324e+07
-2.27741e+07
-3.2307e+07
-1.777e+07
-2.57754e+07
-1.63283e+07
-3.16243e+07
-3.43419e+07
-2.3853e+07
-2.74671e+07
-2.0927e+07
-2.52986e+07
-2.50768e+07
-1.95713e+07
-2.63917e+07
-3.50988e+07
-2.20897e+07
-3.04248e+07
-2.57944e+07
-3.438e+07
-1.41971e+07
-2.10209e+07
-2.50503e+07
-2.41915e+07
-2.25291e+07
-2.17022e+07
)
;

boundaryField
{
    inlet
    {
        type            calculated;
        value           uniform 0;
    }
    outlet
    {
        type            calculated;
        value           nonuniform 0();
    }
    wall
    {
        type            calculated;
        value           uniform 0;
    }
    procBoundary2to0
    {
        type            processor;
        value           nonuniform List<scalar> 
44
(
382.796
420.746
369.747
301.014
391.067
643.477
225.16
342.674
265.252
265.252
416.552
855.467
509.617
795.336
521.328
480.212
601.959
531.96
589.3
416.552
855.467
855.467
607.944
663.726
485.247
407.824
521.965
655.266
723.7
680.013
754.041
607.944
663.726
663.726
424.966
198.483
364.983
509.404
744.068
775.275
417.779
747.14
649.591
424.966
)
;
    }
    procBoundary2to3
    {
        type            processor;
        value           nonuniform List<scalar> 
12
(
641.766
467.066
501.993
327.869
648.464
574.451
963.365
637.077
625.921
722.456
455.442
660.313
)
;
    }
    procBoundary2to6
    {
        type            processor;
        value           nonuniform List<scalar> 
32
(
613.981
516.628
678.611
431.33
471.608
425.547
752.433
676.884
459.801
603.215
837.455
458.749
658.383
613.981
516.628
504.679
476.501
696.389
618.02
771.469
668.925
658.818
516.628
431.33
661.329
353.772
572.874
450.558
463.748
657.791
431.33
712.814
)
;
    }
}


// ************************************************************************* //
