/*--------------------------------*- C++ -*----------------------------------*\
| =========                 |                                                 |
| \\      /  F ield         | OpenFOAM: The Open Source CFD Toolbox           |
|  \\    /   O peration     | Version:  4.x                                   |
|   \\  /    A nd           | Web:      www.OpenFOAM.org                      |
|    \\/     M anipulation  |                                                 |
\*---------------------------------------------------------------------------*/
FoamFile
{
    version     2.0;
    format      ascii;
    class       volScalarField;
    location    "36.5";
    object      KslPrev;
}
// * * * * * * * * * * * * * * * * * * * * * * * * * * * * * * * * * * * * * //

dimensions      [1 -3 -1 0 0 0 0];

internalField   nonuniform List<scalar> 
114
(
6301.15
3153.78
5573.35
3047.86
5160.7
2903.37
3403.68
8016.42
3331.65
6913.69
3277.23
6350.9
3203.63
6074.19
3105.32
3348.25
7532.98
3227.26
6185.49
3140.35
5527.74
3037.78
5164.89
2922.19
3295.61
6740.25
3092.76
5265.69
2907.76
4492.06
2734.26
4045.38
2623.86
13192.3
3694.1
15700
3577.54
3447.25
9841.13
3597.18
11563.4
3693
14017.9
3729.61
18091.9
3673.11
3411.41
9174.66
3526.24
9679.34
3545.88
10190.2
3537.9
11114.4
3462.26
3337.79
7565.83
3298.62
6556.54
3173.23
5920.85
3084.74
5548.65
2973.88
40513.1
3738.48
3500.31
10355.5
3692.66
13945.3
3783.62
20225.1
3816.55
36568.7
3802.97
3439.72
9901.36
3629.94
12455.4
3706.53
16062.9
3739.08
24290.9
3706.32
3369.55
8091.45
3384.33
7514.21
3303.66
6995
3284.87
6818.51
3191.49
3511.12
11404.6
3760.63
17344.5
3840.4
28547.2
3862.65
63550.3
3463.39
9905.75
3655.05
11956.4
3695.6
14023.2
3661.81
3360.51
7967.87
3395.56
7541.61
3346.75
7135.01
)
;

boundaryField
{
    inlet
    {
        type            zeroGradient;
    }
    outlet
    {
        type            zeroGradient;
    }
    wall
    {
        type            zeroGradient;
    }
    procBoundary2to0
    {
        type            processor;
        value           uniform 0;
    }
    procBoundary2to3
    {
        type            processor;
        value           uniform 0;
    }
    procBoundary2to6
    {
        type            processor;
        value           uniform 0;
    }
}


// ************************************************************************* //
