/*--------------------------------*- C++ -*----------------------------------*\
| =========                 |                                                 |
| \\      /  F ield         | OpenFOAM: The Open Source CFD Toolbox           |
|  \\    /   O peration     | Version:  4.x                                   |
|   \\  /    A nd           | Web:      www.OpenFOAM.org                      |
|    \\/     M anipulation  |                                                 |
\*---------------------------------------------------------------------------*/
FoamFile
{
    version     2.0;
    format      ascii;
    class       surfaceScalarField;
    location    "36.5";
    object      phi;
}
// * * * * * * * * * * * * * * * * * * * * * * * * * * * * * * * * * * * * * //

dimensions      [0 3 -1 0 0 0 0];

internalField   nonuniform List<scalar> 
259
(
1.01017e-05
-6.25017e-09
1.06711e-05
-1.89844e-08
1.09079e-05
-4.79716e-08
-2.64488e-07
1.13095e-05
-5.63669e-08
-4.76608e-07
1.15056e-05
-5.71608e-08
-1.70721e-07
-3.70408e-08
-2.80108e-07
8.60425e-06
2.10578e-07
-7.17285e-07
8.85127e-06
1.03869e-07
-3.67803e-07
9.37827e-06
2.39443e-07
-7.76962e-07
9.54604e-06
1.38043e-07
-3.12062e-07
9.91834e-06
2.13962e-07
-6.05246e-07
1.00355e-05
8.47249e-08
-2.49905e-07
1.02747e-05
1.45088e-07
-4.40633e-07
1.03582e-05
2.36586e-08
-1.64272e-07
1.09985e-07
-2.81855e-07
8.80713e-06
2.98314e-07
-7.31597e-07
9.14943e-06
1.49536e-07
-3.87973e-07
9.8633e-06
3.04208e-07
-7.78637e-07
1.0161e-05
1.669e-07
-3.26537e-07
1.06931e-05
2.8794e-07
-6.06105e-07
1.09078e-05
1.22606e-07
-2.52547e-07
1.12931e-05
2.21274e-07
-4.61548e-07
1.14641e-05
4.03281e-08
-1.87643e-07
1.48712e-07
-3.19885e-07
9.10466e-06
-6.43082e-07
9.6321e-06
-3.77905e-07
1.06023e-05
-6.66026e-07
1.1131e-05
-3.61718e-07
1.19614e-05
-5.42506e-07
1.2414e-05
-3.29968e-07
1.30565e-05
-4.21222e-07
1.33407e-05
-2.4391e-07
-3.20628e-07
7.38678e-06
1.34917e-08
7.2113e-06
5.19033e-08
7.23289e-06
1.96294e-10
-1.61142e-07
6.83358e-08
-1.70693e-07
8.02846e-06
2.98097e-07
-8.47677e-07
7.93968e-06
1.25807e-07
-4.07835e-07
7.7058e-06
3.32535e-07
-8.34415e-07
7.57551e-06
1.44775e-07
-2.9274e-07
7.32552e-06
3.37122e-07
-5.95508e-07
7.19818e-06
1.00403e-07
-2.09468e-07
6.94197e-06
2.45537e-07
-3.78061e-07
6.89061e-06
3.9578e-08
-1.52292e-07
1.64608e-07
-2.08893e-07
8.18734e-06
3.7453e-07
-8.32104e-07
8.16524e-06
1.84347e-07
-4.24411e-07
8.14139e-06
4.12163e-07
-8.34419e-07
8.12478e-06
1.67723e-07
-3.32878e-07
8.10034e-06
3.73848e-07
-6.18386e-07
8.08246e-06
1.16746e-07
-2.51007e-07
7.99738e-06
2.98398e-07
-4.29337e-07
8.00811e-06
3.40749e-08
-1.9287e-07
1.89108e-07
-2.4899e-07
8.65718e-06
-7.62462e-07
8.90756e-06
-4.43938e-07
9.424e-06
-7.70309e-07
9.66507e-06
-4.35064e-07
1.01131e-05
-6.16653e-07
1.03054e-05
-4.0553e-07
1.06414e-05
-4.58893e-07
1.07905e-05
-3.58883e-07
-3.51913e-07
5.94253e-06
-4.84696e-08
-1.31469e-07
7.79447e-06
3.1894e-07
-7.42661e-07
7.61538e-06
1.15639e-07
-3.39723e-07
7.16425e-06
3.15362e-07
-6.63537e-07
6.99517e-06
9.47286e-08
-2.27161e-07
6.59068e-06
2.4664e-07
-4.41962e-07
6.43378e-06
3.9153e-08
-1.3838e-07
6.05512e-06
1.04852e-07
-2.16519e-07
5.93083e-06
1.96141e-08
-9.60942e-08
3.56958e-08
7.93107e-06
3.7823e-07
-6.59198e-07
7.77251e-06
1.76191e-07
-3.26402e-07
7.41698e-06
4.34402e-07
-5.97927e-07
7.27364e-06
1.61893e-07
-2.56708e-07
6.96437e-06
3.74776e-07
-4.37248e-07
6.84255e-06
9.38229e-08
-1.83859e-07
6.48933e-06
2.81726e-07
-2.52988e-07
6.40157e-06
6.66558e-08
1.72251e-07
8.39114e-06
-6.12112e-07
8.4908e-06
-3.67405e-07
8.77095e-06
-6.16053e-07
8.88776e-06
-3.89978e-07
9.16583e-06
-5.19956e-07
9.17884e-06
-3.24717e-07
9.34684e-06
9.40634e-06
7.555e-06
4.00123e-07
7.25972e-06
1.99057e-07
6.69194e-06
4.66309e-07
6.50586e-06
1.50887e-07
6.09909e-06
3.91858e-07
5.94671e-06
1.27109e-07
5.63343e-06
2.86345e-07
7.81442e-06
4.52502e-07
7.6499e-06
2.18196e-07
7.35937e-06
4.69144e-07
7.25216e-06
1.68745e-07
7.05466e-06
3.93552e-07
6.98944e-06
1.37513e-07
8.36228e-06
8.43871e-06
8.65681e-06
8.72209e-06
8.9377e-06
)
;

boundaryField
{
    inlet
    {
        type            calculated;
        value           nonuniform List<scalar> 
12
(
-8.16327e-06
-8.16327e-06
-8.16327e-06
-8.16327e-06
-8.16327e-06
-8.16327e-06
-8.16327e-06
-8.16327e-06
-8.16327e-06
-8.16327e-06
-8.16327e-06
-8.16327e-06
)
;
    }
    outlet
    {
        type            calculated;
        value           nonuniform 0();
    }
    wall
    {
        type            calculated;
        value           nonuniform List<scalar> 
66
(
0
1.2326e-32
1.2326e-32
0
0
0
0
0
0
0
0
0
0
0
0
0
0
0
0
0
0
0
0
0
0
0
0
0
0
0
0
0
0
0
0
0
0
0
0
0
0
0
0
0
0
0
0
0
0
0
0
0
0
0
2.46519e-32
0
0
0
0
0
0
0
0
0
0
0
)
;
    }
    procBoundary2to0
    {
        type            processor;
        value           nonuniform List<scalar> 
44
(
1.15637e-07
1.53974e-07
7.5709e-08
1.31357e-07
3.17498e-08
8.16239e-08
6.57188e-08
1.69184e-08
-9.86142e-06
1.05198e-08
-3.49668e-07
-7.04384e-07
1.50169e-08
4.58513e-08
-3.13696e-08
-3.33732e-08
-3.29011e-08
3.00797e-09
-4.1199e-08
-3.3807e-08
-7.47868e-06
-9.68778e-08
-2.01101e-07
-3.98877e-07
5.43803e-08
1.40671e-07
-5.51657e-08
-4.65948e-09
-3.51082e-08
8.77183e-09
4.30106e-09
4.66689e-08
-6.02499e-06
1.12266e-07
-8.45981e-08
-5.56129e-08
-8.60717e-08
-6.92923e-08
-1.93965e-07
-6.83144e-08
-1.87936e-07
-5.06594e-08
-8.59253e-08
-2.65751e-08
)
;
    }
    procBoundary2to3
    {
        type            processor;
        value           nonuniform List<scalar> 
12
(
1.17411e-05
1.0493e-05
1.17453e-05
1.381e-05
7.08851e-06
6.72138e-06
7.91272e-06
1.10109e-05
5.81825e-06
5.60219e-06
6.12642e-06
9.50775e-06
)
;
    }
    procBoundary2to6
    {
        type            processor;
        value           nonuniform List<scalar> 
32
(
-4.74106e-08
-1.52159e-07
-1.10394e-07
-3.45163e-07
-3.51731e-07
-2.81065e-07
-4.48444e-07
-1.74214e-07
-3.68103e-07
-1.23646e-07
-2.3912e-07
-6.24445e-08
-1.03663e-07
5.48484e-06
1.12978e-07
-3.39042e-08
-3.62735e-07
-1.81014e-07
-3.10241e-07
-1.67347e-07
-2.41444e-07
-1.29043e-07
6.893e-06
3.00733e-07
-1.70941e-07
-3.58619e-07
-2.2564e-07
-3.6501e-07
-2.86512e-07
-3.42023e-07
8.99803e-06
-2.47532e-07
)
;
    }
}


// ************************************************************************* //
