/*--------------------------------*- C++ -*----------------------------------*\
| =========                 |                                                 |
| \\      /  F ield         | OpenFOAM: The Open Source CFD Toolbox           |
|  \\    /   O peration     | Version:  4.x                                   |
|   \\  /    A nd           | Web:      www.OpenFOAM.org                      |
|    \\/     M anipulation  |                                                 |
\*---------------------------------------------------------------------------*/
FoamFile
{
    version     2.0;
    format      ascii;
    class       volScalarField;
    location    "36.5";
    object      pSmooth;
}
// * * * * * * * * * * * * * * * * * * * * * * * * * * * * * * * * * * * * * //

dimensions      [1 -1 -2 0 0 0 0];

internalField   nonuniform List<scalar> 
114
(
74.1116
94.8435
55.8607
87.8373
37.2208
81.0653
108.689
91.7231
101.924
74.2124
94.9816
56.1417
88.0164
37.7005
81.2168
108.406
91.6131
101.706
74.023
94.7808
55.9459
87.8414
37.4182
81.0388
108.056
91.4628
101.404
73.9472
94.5084
56.0145
87.6333
37.6853
80.8781
56.0635
88.4517
37.2093
81.4823
109.586
92.3147
102.793
74.5423
95.7106
56.3727
88.6003
37.7233
81.6014
109.295
92.111
102.475
74.2311
95.3823
56.0149
88.2903
37.3659
81.3776
108.79
91.8724
102.012
74.1375
94.9793
56.0813
87.9733
37.6349
81.1565
37.844
81.4173
110.287
92.6455
103.337
74.9781
96.0329
56.9321
88.7117
38.491
81.628
110.04
92.6288
103.188
74.7702
95.9122
56.6119
88.7236
38.0952
81.6031
109.492
92.2881
102.572
74.5626
95.3826
56.6384
88.2431
38.1387
81.3344
111.097
93.3274
103.952
75.3746
96.5232
57.2995
89.0774
39.1867
110.673
93.0315
103.542
75.0705
96.123
56.8378
88.6885
110.055
92.7129
103.006
74.8871
95.6868
56.7329
)
;

boundaryField
{
    inlet
    {
        type            zeroGradient;
    }
    outlet
    {
        type            fixedValue;
        value           nonuniform 0();
    }
    wall
    {
        type            zeroGradient;
    }
    procBoundary2to0
    {
        type            processor;
        value           nonuniform List<scalar> 
44
(
74.1261
94.8522
56.0266
87.8893
37.7299
81.1484
108.484
91.661
101.864
101.864
74.478
95.7167
56.3445
88.6339
37.8306
81.7631
109.559
92.1372
102.755
74.478
95.7167
95.7167
56.4269
88.5943
37.7567
81.3888
110.418
92.7053
103.455
74.832
96.0688
56.4269
88.5943
88.5943
39.4287
81.5573
111.15
93.4765
104.144
75.5506
96.6074
57.5718
88.9535
39.4287
)
;
    }
    procBoundary2to3
    {
        type            processor;
        value           nonuniform List<scalar> 
12
(
18.2759
19.2379
18.502
18.9309
18.202
19.2709
18.4116
18.9371
19.4281
20.3683
19.4273
19.469
)
;
    }
    procBoundary2to6
    {
        type            processor;
        value           nonuniform List<scalar> 
32
(
81.7746
38.2947
81.4733
88.4059
38.4093
81.3899
111.596
93.4077
104.278
75.8776
96.6285
57.8361
88.9055
81.7746
38.2947
39.9641
111.116
93.2929
103.963
75.5231
96.5013
57.3052
38.2947
88.4059
89.0486
110.451
92.9613
103.346
75.3677
96.0306
88.4059
57.1735
)
;
    }
}


// ************************************************************************* //
