/*--------------------------------*- C++ -*----------------------------------*\
| =========                 |                                                 |
| \\      /  F ield         | OpenFOAM: The Open Source CFD Toolbox           |
|  \\    /   O peration     | Version:  4.x                                   |
|   \\  /    A nd           | Web:      www.OpenFOAM.org                      |
|    \\/     M anipulation  |                                                 |
\*---------------------------------------------------------------------------*/
FoamFile
{
    version     2.0;
    format      ascii;
    class       volVectorField;
    location    "36.5";
    object      Urel;
}
// * * * * * * * * * * * * * * * * * * * * * * * * * * * * * * * * * * * * * //

dimensions      [0 1 -1 0 0 0 0];

internalField   nonuniform List<vector> 
114
(
(-0.0218804 8.98333e-05 0.00108248)
(-0.0232786 8.38574e-05 0.00104369)
(-0.0222908 7.32268e-05 0.000874155)
(-0.0236983 6.96734e-05 0.000799032)
(-0.0226876 4.82113e-05 0.00063921)
(-0.0240864 3.6537e-05 0.000567807)
(-0.0236511 -0.000130325 0.00129003)
(-0.0218238 -0.000123608 0.00119446)
(-0.0230008 -0.00014117 0.00120254)
(-0.0218492 -0.000129913 0.00105386)
(-0.0232609 -0.000124757 0.00100623)
(-0.0222417 -8.96095e-05 0.000846399)
(-0.0236775 -7.26021e-05 0.000773291)
(-0.0226241 -4.30986e-05 0.000619437)
(-0.0240551 -4.24016e-05 0.000547463)
(-0.0237764 -0.000368411 0.00126004)
(-0.0220404 -0.00032785 0.00116926)
(-0.0232933 -0.000354385 0.00117289)
(-0.0222884 -0.000313911 0.0010314)
(-0.0237536 -0.000314563 0.000979163)
(-0.0228987 -0.000247241 0.000828379)
(-0.0243608 -0.000226987 0.000756567)
(-0.0234772 -0.000156431 0.000617033)
(-0.0249182 -0.000145407 0.000551017)
(-0.0239059 -0.000423565 0.00122296)
(-0.0223127 -0.000388205 0.00114411)
(-0.0236372 -0.000402441 0.00114027)
(-0.0228455 -0.000359193 0.00101876)
(-0.0243654 -0.000349709 0.000962364)
(-0.0237504 -0.000277771 0.000829317)
(-0.0252303 -0.00024616 0.000753045)
(-0.0245973 -0.00015848 0.000629086)
(-0.0259978 -0.000127702 0.000565079)
(-0.020541 5.45748e-05 0.000811207)
(-0.0220814 4.69879e-05 0.000742167)
(-0.0204818 3.19368e-05 0.000582904)
(-0.0221543 1.22735e-05 0.000504593)
(-0.023412 -0.00016771 0.0013436)
(-0.0213583 -0.000145509 0.00120716)
(-0.0223865 -0.000167371 0.00122929)
(-0.0208028 -0.000148697 0.00103615)
(-0.0221771 -0.000156605 0.000994071)
(-0.0206631 -0.000108356 0.000809439)
(-0.0222086 -9.52814e-05 0.000740612)
(-0.0206197 -5.83199e-05 0.000589626)
(-0.0222886 -5.61207e-05 0.000517808)
(-0.0235567 -0.000407662 0.00131852)
(-0.0216074 -0.000358182 0.00119493)
(-0.0227134 -0.000394035 0.00121958)
(-0.0213099 -0.000332919 0.00104096)
(-0.0227311 -0.000345125 0.0010025)
(-0.0214301 -0.000259805 0.000830787)
(-0.0229613 -0.000250504 0.000771909)
(-0.021597 -0.000163249 0.000627711)
(-0.0232154 -0.000152992 0.000564707)
(-0.0237101 -0.00046519 0.00128459)
(-0.0219459 -0.000422044 0.00117886)
(-0.0231318 -0.000443694 0.00119385)
(-0.0220385 -0.000383613 0.00105028)
(-0.0234697 -0.000379508 0.00100356)
(-0.0225308 -0.000294287 0.000864992)
(-0.0239792 -0.000270011 0.000790938)
(-0.02302 -0.000173569 0.000671896)
(-0.0244597 -0.000143552 0.000607415)
(-0.0187635 4.83462e-05 0.000477348)
(-0.0205322 4.90285e-05 0.000386837)
(-0.0231453 -0.000202096 0.00120486)
(-0.020938 -0.000171335 0.00107395)
(-0.021795 -0.000189574 0.00107515)
(-0.0199248 -0.000154464 0.000893813)
(-0.0212034 -0.000154111 0.000843031)
(-0.0193839 -0.000104075 0.000679124)
(-0.0209252 -7.7766e-05 0.000609408)
(-0.0190376 -5.33264e-05 0.000488948)
(-0.0207604 -3.03212e-05 0.000409163)
(-0.0233136 -0.000442167 0.00117453)
(-0.0212134 -0.00038336 0.00105726)
(-0.0221622 -0.000418556 0.00106071)
(-0.0204691 -0.00034326 0.000904874)
(-0.0217924 -0.000350866 0.000855727)
(-0.0201694 -0.000258571 0.000707982)
(-0.02169 -0.000244836 0.000638216)
(-0.0199881 -0.000164561 0.000530795)
(-0.0216762 -0.000142458 0.00045789)
(-0.0234917 -0.000503159 0.00115158)
(-0.021586 -0.000456682 0.00105459)
(-0.0226255 -0.000483699 0.00106186)
(-0.0212779 -0.000410772 0.000938093)
(-0.0225898 -0.000406948 0.000888194)
(-0.0213885 -0.000311818 0.000763929)
(-0.0227635 -0.000293988 0.000692063)
(-0.0215412 -0.000198488 0.000612729)
(-0.0229655 -0.000162735 0.000545924)
(-0.0229604 -0.000231247 0.000914044)
(-0.0206486 -0.000206243 0.0008022)
(-0.0214161 -0.000234389 0.000795728)
(-0.0193602 -0.000182464 0.000660012)
(-0.0205893 -0.000190689 0.000614499)
(-0.0186002 -0.000133192 0.000490058)
(-0.0201251 -0.000117962 0.000430368)
(-0.0181266 -7.55788e-05 0.000348248)
(-0.0231504 -0.000490761 0.000887489)
(-0.0209905 -0.000422739 0.000795465)
(-0.0218409 -0.00045689 0.000790875)
(-0.0200383 -0.000364073 0.000684453)
(-0.0212714 -0.000374196 0.000643626)
(-0.0195553 -0.00027884 0.00053609)
(-0.021007 -0.000267597 0.00048255)
(-0.0233556 -0.000539413 0.000874844)
(-0.0214024 -0.000482156 0.000804683)
(-0.0223424 -0.000499121 0.000809172)
(-0.0208802 -0.000418765 0.000730475)
(-0.0220909 -0.000408285 0.000692691)
(-0.0207631 -0.000320305 0.000595586)
)
;

boundaryField
{
    inlet
    {
        type            calculated;
        value           nonuniform List<vector> 
12
(
(-0.01 7.85196e-10 5.16845e-10)
(-0.01 -2.8953e-11 4.42612e-10)
(-0.01 -1.95981e-10 2.88516e-10)
(-0.01 -2.15741e-10 3.66306e-10)
(-0.01 -1.36434e-10 4.98251e-10)
(-0.01 -1.22111e-10 2.76747e-10)
(-0.01 -5.31142e-10 5.32984e-10)
(-0.01 -1.61244e-10 3.75076e-10)
(-0.01 -1.69046e-10 3.16115e-10)
(-0.01 -3.0064e-10 4.06729e-10)
(-0.01 -9.08284e-11 2.12294e-10)
(-0.01 -1.76581e-10 2.42248e-10)
)
;
    }
    outlet
    {
        type            calculated;
        value           nonuniform 0();
    }
    wall
    {
        type            calculated;
        value           nonuniform List<vector> 
66
(
(-3.0284e-09 7.85196e-10 5.16845e-10)
(-2.84731e-10 -2.8953e-11 4.42612e-10)
(-4.78673e-10 -1.95981e-10 2.88516e-10)
(-4.53732e-10 -6.21353e-10 1.22262e-09)
(-1.5216e-10 -4.6032e-10 1.0431e-09)
(1.61537e-10 -3.46684e-10 6.91837e-10)
(-1.37737e-09 -9.24817e-10 1.92559e-09)
(-1.1773e-09 -5.57858e-10 1.60497e-09)
(-4.73082e-10 -4.59934e-10 5.37492e-10)
(-9.84143e-10 -1.32649e-09 2.27009e-09)
(-2.08497e-09 -1.57487e-09 2.48955e-09)
(-1.87145e-09 -5.65353e-10 1.81769e-09)
(1.82073e-09 -5.71961e-09 7.42629e-10)
(-1.32015e-09 -1.67302e-09 2.71647e-09)
(-3.51863e-09 -2.05638e-09 2.75539e-09)
(-2.80753e-09 -1.24961e-09 2.15166e-09)
(-1.86211e-09 -1.53058e-09 1.82181e-09)
(-2.77567e-09 -2.81529e-09 4.23203e-09)
(-4.07066e-09 -3.04655e-09 3.58371e-09)
(-3.29501e-09 -1.63818e-09 2.35149e-09)
(-1.33538e-09 -8.10024e-10 1.28053e-09)
(-2.64117e-09 -3.39487e-09 4.76622e-09)
(-5.42896e-09 -4.74842e-09 3.73712e-09)
(-4.80405e-09 -2.97952e-09 2.69653e-09)
(-2.24632e-09 -2.37277e-09 1.22227e-09)
(6.87338e-10 -1.8977e-09 7.64345e-09)
(-5.89383e-09 -7.29164e-09 3.06881e-09)
(-4.52095e-09 -1.49752e-09 2.72619e-09)
(-2.29614e-09 -4.33024e-09 2.21667e-09)
(1.60815e-09 -1.37937e-09 8.19706e-09)
(-5.57302e-09 -3.82083e-09 3.19794e-09)
(-4.20572e-09 -2.11556e-09 2.63496e-09)
(-2.53516e-09 -1.57994e-09 1.88467e-09)
(-4.78673e-10 -1.95981e-10 2.88516e-10)
(-2.13723e-10 -1.22111e-10 2.76747e-10)
(-1.81179e-10 -1.69046e-10 3.16115e-10)
(-9.55013e-11 -1.76581e-10 2.42248e-10)
(1.61537e-10 -3.46684e-10 6.91837e-10)
(-3.12468e-10 -2.33563e-10 7.01281e-10)
(-3.74701e-10 -1.29034e-10 7.14198e-10)
(-2.40005e-10 -4.89965e-11 6.57369e-10)
(-4.73082e-10 -4.59934e-10 5.37492e-10)
(-6.7379e-10 -4.0059e-10 9.05233e-10)
(-6.32091e-10 -3.45143e-10 7.5537e-10)
(-5.90508e-10 -1.4371e-10 8.65759e-10)
(1.82073e-09 -5.71961e-09 7.42629e-10)
(-8.98549e-10 -6.20007e-10 1.00338e-09)
(-1.13235e-09 -6.11962e-10 1.14642e-09)
(-4.28708e-10 -2.57253e-10 7.31188e-10)
(-1.86211e-09 -1.53058e-09 1.82181e-09)
(-1.19563e-09 -7.14721e-10 1.66482e-09)
(-1.03188e-09 -2.96645e-10 1.19607e-09)
(-4.77773e-10 -3.16935e-10 9.48655e-10)
(-1.33538e-09 -8.10024e-10 1.28053e-09)
(-1.2362e-09 -8.20393e-10 1.17743e-09)
(-8.40015e-10 -3.38891e-10 1.09254e-09)
(-4.18376e-10 -4.12045e-10 8.03538e-10)
(-2.24632e-09 -2.37277e-09 1.22227e-09)
(-1.69189e-09 -1.14031e-09 9.92692e-10)
(-1.21479e-09 -2.89179e-10 1.25585e-09)
(-2.29614e-09 -4.33024e-09 2.21667e-09)
(-1.83091e-09 -8.84777e-10 1.2778e-09)
(-1.25173e-09 -3.95443e-10 1.35619e-09)
(-2.53516e-09 -1.57994e-09 1.88467e-09)
(-1.64155e-09 -8.41722e-10 8.87739e-10)
(-1.30143e-09 -1.01595e-09 1.45562e-09)
)
;
    }
    procBoundary2to0
    {
        type            processor;
        value           nonuniform List<vector> 
44
(
(-0.0220655 0.000283757 0.00109235)
(-0.0234996 0.000264557 0.00105264)
(-0.0225665 0.00020825 0.000894156)
(-0.0239891 0.000194234 0.000831004)
(-0.0230156 0.000142332 0.000678244)
(-0.0243951 0.000119583 0.000622021)
(-0.0236483 0.000138161 0.00133588)
(-0.0218298 0.000112022 0.0012207)
(-0.0230071 0.000110603 0.00122988)
(-0.0230071 0.000110603 0.00122988)
(-0.0207258 7.46274e-05 0.00105366)
(-0.0220845 6.4415e-05 0.00101507)
(-0.0208552 0.000200753 0.00081216)
(-0.0223896 0.000182759 0.000742956)
(-0.020828 0.000122579 0.00058518)
(-0.0224737 9.97702e-05 0.000511906)
(-0.023373 0.000118358 0.00139061)
(-0.0213034 0.000101638 0.00123701)
(-0.0223206 9.89662e-05 0.00126265)
(-0.0207258 7.46274e-05 0.00105366)
(-0.0220845 6.4415e-05 0.00101507)
(-0.0220845 6.4415e-05 0.00101507)
(-0.0190894 6.2374e-05 0.000674674)
(-0.0206962 6.66059e-05 0.000604929)
(-0.0192314 0.000134055 0.000503526)
(-0.0209603 0.00010952 0.000408025)
(-0.0230827 0.000112681 0.00122454)
(-0.0208181 9.67001e-05 0.00109514)
(-0.0216691 9.4927e-05 0.0011026)
(-0.0197012 7.52695e-05 0.000899594)
(-0.021013 7.20747e-05 0.00084904)
(-0.0190894 6.2374e-05 0.000674674)
(-0.0206962 6.66059e-05 0.000604929)
(-0.0206962 6.66059e-05 0.000604929)
(-0.0177502 3.21329e-05 0.000316288)
(-0.0195431 2.87391e-05 0.000256062)
(-0.0228993 0.000108356 0.000899699)
(-0.0205463 8.42324e-05 0.000804707)
(-0.021278 7.22603e-05 0.000788047)
(-0.0191192 5.71543e-05 0.00064709)
(-0.0203564 4.26402e-05 0.000599364)
(-0.0182474 4.16764e-05 0.00046939)
(-0.0198411 3.64381e-05 0.000420437)
(-0.0177502 3.21329e-05 0.000316288)
)
;
    }
    procBoundary2to3
    {
        type            processor;
        value           nonuniform List<vector> 
12
(
(-0.0229995 2.40487e-05 0.000451335)
(-0.0229358 -2.7196e-05 0.000430225)
(-0.0239725 -0.000107552 0.000438581)
(-0.0253033 -4.28278e-05 0.000470243)
(-0.0204651 3.11775e-07 0.000409058)
(-0.0206333 -3.96053e-05 0.000413459)
(-0.0217722 -9.69571e-05 0.00046612)
(-0.0234467 -4.93742e-05 0.000528486)
(-0.0185817 2.172e-05 0.000317426)
(-0.0188175 -3.05157e-05 0.000326888)
(-0.0198955 -9.01169e-05 0.000397119)
(-0.0217055 -8.42901e-05 0.000513816)
)
;
    }
    procBoundary2to6
    {
        type            processor;
        value           nonuniform List<vector> 
32
(
(-0.0198512 -5.11336e-05 0.000280924)
(-0.0192735 -0.000183026 0.000418186)
(-0.0208824 -0.000149386 0.000364853)
(-0.0220671 -0.000289543 0.000543288)
(-0.020746 -0.000194762 0.000502669)
(-0.0221046 -0.000144685 0.000457283)
(-0.0229106 -0.000226812 0.00049152)
(-0.0205731 -0.000203026 0.000438889)
(-0.0212978 -0.000214585 0.000417552)
(-0.0191857 -0.000165566 0.000358018)
(-0.0204185 -0.000157171 0.00032163)
(-0.0183373 -0.0001091 0.000265826)
(-0.0198943 -8.1315e-05 0.000239024)
(-0.0198512 -5.11336e-05 0.000280924)
(-0.0192735 -0.000183026 0.000418186)
(-0.0178409 -4.77809e-05 0.000197975)
(-0.0231143 -0.000509176 0.000482823)
(-0.0209214 -0.000425912 0.0004467)
(-0.0217455 -0.000455648 0.000427983)
(-0.019871 -0.000354115 0.000388975)
(-0.0211029 -0.000348799 0.000352672)
(-0.0192637 -0.000258759 0.000312855)
(-0.0192735 -0.000183026 0.000418186)
(-0.0220671 -0.000289543 0.000543288)
(-0.0207285 -0.000231441 0.000284146)
(-0.023331 -0.000553663 0.000496005)
(-0.0213632 -0.000489193 0.000467719)
(-0.0222679 -0.000503759 0.000460902)
(-0.0207644 -0.000413306 0.000434334)
(-0.0219315 -0.000397833 0.000404246)
(-0.0220671 -0.000289543 0.000543288)
(-0.0205083 -0.000312341 0.000371486)
)
;
    }
}


// ************************************************************************* //
