/*--------------------------------*- C++ -*----------------------------------*\
| =========                 |                                                 |
| \\      /  F ield         | OpenFOAM: The Open Source CFD Toolbox           |
|  \\    /   O peration     | Version:  4.x                                   |
|   \\  /    A nd           | Web:      www.OpenFOAM.org                      |
|    \\/     M anipulation  |                                                 |
\*---------------------------------------------------------------------------*/
FoamFile
{
    version     2.0;
    format      ascii;
    class       volScalarField;
    location    "55";
    object      Ksl;
}
// * * * * * * * * * * * * * * * * * * * * * * * * * * * * * * * * * * * * * //

dimensions      [1 -3 -1 0 0 0 0];

internalField   nonuniform List<scalar> 
114
(
6223.59
3152.53
5488.79
3036.64
5055.19
2880.25
3406.18
8028.7
3338.6
6946.2
3289.42
6406.9
3223.43
6201.66
3140.76
3359.31
7482.31
3235.71
6145.84
3145.13
5484.64
3038.76
5113.72
2919.54
3302.39
6725.69
3100.3
5263.41
2916.51
4498.78
2745.72
4066.37
2641.39
12639.7
3690.41
14406.6
3565.18
3446.73
9846.65
3599.19
11809.7
3704.73
15203
3760.45
22981
3736.54
3422.61
8977.34
3526.14
9311.56
3533.98
9592.65
3514.53
10118
3424.76
3344.32
7505.01
3301.04
6497.07
3172.53
5865.94
3081.8
5497.53
2970.5
22858.7
3667.76
3507.44
10775.5
3736.65
16395.6
3868.73
32348.7
3944.14
163860
3965.65
3450.55
9966.67
3653.23
13012.9
3746.27
18252
3797.02
33825.4
3777.25
3375.69
8148.77
3402.47
7660.49
3336.98
7240.44
3339.67
7252.09
3279.97
3518.12
11400.3
3770.36
17394.8
3845.84
28770.4
3854.29
63259.7
3475.39
9540.02
3642.19
10856.5
3654.31
11718
3591.87
3370.57
7875.38
3397.01
7383.38
3336.11
6902.98
)
;

boundaryField
{
    inlet
    {
        type            zeroGradient;
    }
    outlet
    {
        type            zeroGradient;
    }
    wall
    {
        type            zeroGradient;
    }
    procBoundary2to0
    {
        type            processor;
        value           nonuniform List<scalar> 
44
(
6362.2
3197.55
5715.38
3086.91
5380.4
3044.65
3376.42
7501.19
3237.68
3237.68
10598.5
3676.23
14064.2
3760.23
20360.9
3727.68
3497.46
9610.68
3584.58
10598.5
3676.23
3676.23
20326.2
3780.42
30205.4
3771.26
3543.23
10973.7
3746.37
15364.8
3816.65
20326.2
3780.42
3780.42
29334.2
3717.16
3515.76
10858.2
3755.78
16133.6
3788.51
22370.5
3769.56
29334.2
)
;
    }
    procBoundary2to3
    {
        type            processor;
        value           nonuniform List<scalar> 
12
(
4877.41
6449.31
4904.39
3805.81
15808.5
44013.2
10774.4
5337.39
26237.8
5.50409e+09
101943
7680.46
)
;
    }
    procBoundary2to6
    {
        type            processor;
        value           nonuniform List<scalar> 
32
(
3821.77
11949.7
3490.43
3227.06
6527.67
3131.2
3585.7
12556.3
3879.36
28126.8
4023.39
140106
4063.8
3821.77
11949.7
9.42379e+09
3494.04
10694
3696.88
15689.8
3804.32
26677.3
11949.7
3227.06
3845.93
3379.28
8113.42
3405.66
8001.49
3446.93
3227.06
8517.76
)
;
    }
}


// ************************************************************************* //
