/*--------------------------------*- C++ -*----------------------------------*\
| =========                 |                                                 |
| \\      /  F ield         | OpenFOAM: The Open Source CFD Toolbox           |
|  \\    /   O peration     | Version:  4.x                                   |
|   \\  /    A nd           | Web:      www.OpenFOAM.org                      |
|    \\/     M anipulation  |                                                 |
\*---------------------------------------------------------------------------*/
FoamFile
{
    version     2.0;
    format      ascii;
    class       volScalarField;
    location    "55";
    object      p;
}
// * * * * * * * * * * * * * * * * * * * * * * * * * * * * * * * * * * * * * //

dimensions      [1 -1 -2 0 0 0 0];

internalField   nonuniform List<scalar> 
114
(
5708.19
5728.96
5689.79
5721.96
5671.09
5715.24
5743.09
5726.05
5736.39
5708.41
5729.43
5690.21
5722.47
5671.8
5715.7
5742.65
5725.8
5735.97
5708.14
5729.03
5689.98
5722.06
5671.31
5715.27
5742.37
5725.7
5735.76
5708.1
5728.87
5690.08
5721.98
5671.67
5715.25
3812.04
3844.6
3793.14
3837.69
3866.04
3848.67
3859.29
3830.76
3852.22
3812.45
3845.16
3793.75
3838.2
3865.54
3848.31
3858.71
3830.36
3851.58
3812.05
3844.47
3793.29
3837.59
3865.12
3848.13
3858.36
3830.31
3851.34
3812.14
3844.33
3793.58
3837.52
1915.81
1959.77
1989
1971.26
1982.11
1953.52
1974.79
1935.45
1967.34
1917.09
1959.93
1988.54
1971.06
1981.72
1953.16
1974.46
1934.97
1967.27
1916.47
1960.12
1988.07
1970.77
1981.2
1952.98
1974.04
1935.01
1966.91
1916.54
1960.01
111.671
93.8097
104.543
75.7342
97.098
57.5169
89.6401
39.2436
111.011
93.3081
103.835
75.2417
96.3828
56.8509
88.9635
110.504
93.088
103.455
75.1683
96.1226
56.8854
)
;

boundaryField
{
    inlet
    {
        type            calculated;
        value           nonuniform List<scalar> 
12
(
5743.09
5742.65
5742.37
3866.04
3865.54
3865.12
1989
1988.54
1988.07
111.671
111.011
110.504
)
;
    }
    outlet
    {
        type            calculated;
        value           nonuniform 0();
    }
    wall
    {
        type            calculated;
        value           nonuniform List<scalar> 
66
(
6682.05
6681.61
6681.33
6665.01
6664.76
6664.66
6675.35
6674.93
6674.72
6647.15
6647.37
6647.1
6647.06
6667.92
6668.38
6667.98
6667.83
6628.75
6629.17
6628.93
6629.04
6660.92
6661.43
6661.01
6660.94
6610.05
6610.75
6610.27
6610.63
6654.19
6654.66
6654.22
6654.21
5742.37
3865.12
1988.07
110.504
5725.7
3848.13
1970.77
93.088
5735.76
3858.36
1981.2
103.455
5708.1
3830.31
1952.98
75.1683
5728.87
3851.34
1974.04
96.1226
5690.08
3812.14
1935.01
56.8854
5721.98
3844.33
1966.91
5671.67
3793.58
1916.54
5715.25
3837.52
1960.01
)
;
    }
    procBoundary2to0
    {
        type            processor;
        value           nonuniform List<scalar> 
44
(
5708.28
5729.14
5690.01
5722.22
5671.71
5715.51
5742.87
5725.92
5736.11
5736.11
3830.61
3851.87
3812.44
3845.08
3793.85
3838.17
3865.92
3848.42
3859.02
3830.61
3851.87
3851.87
1934.56
1966.88
1916.17
1959.92
1988.88
1971.09
1981.82
1953.1
1974.34
1934.56
1966.88
1966.88
38.6465
82.2034
111.476
93.7063
104.376
75.5469
96.7892
57.2228
89.2603
38.6465
)
;
    }
    procBoundary2to3
    {
        type            processor;
        value           nonuniform List<scalar> 
12
(
5652
5653.29
5652.41
5652.94
3774.03
3775.31
3774.29
3774.73
1897.12
1899.1
1897.85
1898.01
)
;
    }
    procBoundary2to6
    {
        type            processor;
        value           nonuniform List<scalar> 
32
(
82.3075
38.0975
81.8206
88.8403
38.4028
81.8442
-1765.59
-1783.87
-1772.88
-1801.47
-1780.61
-1819.58
-1788.48
82.3075
38.0975
-1837.53
-1766.24
-1784.14
-1773.35
-1801.98
-1780.78
-1820.25
38.0975
88.8403
-1788.23
-1766.83
-1784.41
-1773.88
-1802.07
-1781.15
88.8403
-1820.3
)
;
    }
}


// ************************************************************************* //
