/*--------------------------------*- C++ -*----------------------------------*\
| =========                 |                                                 |
| \\      /  F ield         | OpenFOAM: The Open Source CFD Toolbox           |
|  \\    /   O peration     | Version:  4.x                                   |
|   \\  /    A nd           | Web:      www.OpenFOAM.org                      |
|    \\/     M anipulation  |                                                 |
\*---------------------------------------------------------------------------*/
FoamFile
{
    version     2.0;
    format      ascii;
    class       volScalarField;
    location    "55";
    object      particleRelTemp;
}
// * * * * * * * * * * * * * * * * * * * * * * * * * * * * * * * * * * * * * //

dimensions      [0 0 0 0 0 0 0];

internalField   nonuniform List<scalar> 
114
(
3.73117e-09
6.56041e-09
8.74967e-09
1.74796e-08
2.56713e-08
2.54951e-08
2.05576e-09
3.18076e-09
2.79868e-09
2.72623e-09
3.1557e-09
4.40348e-09
6.25263e-09
8.42631e-09
8.8402e-09
1.4829e-09
2.80769e-09
2.29086e-09
2.01253e-09
2.03543e-09
2.35238e-09
2.88594e-09
2.88404e-09
2.5818e-09
1.4491e-09
2.52128e-09
2.10521e-09
1.75364e-09
1.65482e-09
1.9078e-09
1.71857e-09
1.20593e-09
2.99019e-10
8.15325e-09
1.20263e-08
1.66325e-08
1.73727e-08
1.1382e-09
2.94292e-09
2.75776e-09
2.31864e-09
2.0966e-09
3.04056e-09
4.39767e-09
5.65777e-09
6.4326e-09
1.18239e-09
2.55938e-09
2.29923e-09
1.78354e-09
1.35632e-09
1.39769e-09
1.51071e-09
1.35043e-09
1.12017e-09
1.13619e-09
2.37086e-09
1.86799e-09
1.34666e-09
1.13107e-09
1.27808e-09
1.06966e-09
2.45589e-10
-6.9512e-10
4.93296e-09
1.6328e-09
1.0339e-09
2.40394e-09
1.94948e-09
1.29567e-09
9.18145e-10
8.59893e-10
9.74872e-10
1.01505e-09
4.69169e-10
7.97908e-10
1.99652e-09
1.5347e-09
8.31331e-10
1.88369e-10
2.8378e-11
3.80192e-11
-5.8703e-10
-1.66378e-09
9.53133e-10
1.65088e-09
1.10175e-09
4.34048e-10
7.05867e-11
8.95603e-11
-2.16745e-10
-8.25944e-10
-1.61875e-09
8.93247e-10
1.45873e-09
6.21862e-10
-9.60368e-10
-1.01312e-09
-1.03664e-09
-6.6324e-10
-2.00379e-09
2.47296e-10
1.42097e-09
6.10598e-10
-5.29991e-10
-7.94091e-10
-7.77919e-10
-8.60729e-10
2.96543e-10
1.20978e-09
5.43897e-10
-2.35842e-10
-5.4457e-10
-7.52085e-10
)
;

boundaryField
{
    inlet
    {
        type            calculated;
        value           nonuniform List<scalar> 
12
(
2.05576e-09
1.4829e-09
1.4491e-09
1.1382e-09
1.18239e-09
1.13619e-09
1.0339e-09
7.97908e-10
9.53133e-10
8.93247e-10
2.47296e-10
2.96543e-10
)
;
    }
    outlet
    {
        type            calculated;
        value           nonuniform 0();
    }
    wall
    {
        type            calculated;
        value           nonuniform List<scalar> 
66
(
2.05576e-09
1.4829e-09
1.4491e-09
3.18076e-09
2.80769e-09
2.52128e-09
2.79868e-09
2.29086e-09
2.10521e-09
3.73117e-09
2.72623e-09
2.01253e-09
1.75364e-09
6.56041e-09
3.1557e-09
2.03543e-09
1.65482e-09
8.74967e-09
4.40348e-09
2.35238e-09
1.9078e-09
1.74796e-08
6.25263e-09
2.88594e-09
1.71857e-09
2.56713e-08
8.42631e-09
2.88404e-09
1.20593e-09
2.54951e-08
8.8402e-09
2.5818e-09
2.99019e-10
1.4491e-09
1.13619e-09
9.53133e-10
2.96543e-10
2.52128e-09
2.37086e-09
1.65088e-09
1.20978e-09
2.10521e-09
1.86799e-09
1.10175e-09
5.43897e-10
1.75364e-09
1.34666e-09
4.34048e-10
-2.35842e-10
1.65482e-09
1.13107e-09
7.05867e-11
-5.4457e-10
1.9078e-09
1.27808e-09
8.95603e-11
-7.52085e-10
1.71857e-09
1.06966e-09
-2.16745e-10
1.20593e-09
2.45589e-10
-8.25944e-10
2.99019e-10
-6.9512e-10
-1.61875e-09
)
;
    }
    procBoundary2to0
    {
        type            processor;
        value           nonuniform List<scalar> 
44
(
6.32332e-09
9.75864e-09
1.95068e-08
4.17933e-08
5.06154e-08
5.98881e-08
2.34445e-09
3.7866e-09
3.55891e-09
3.55891e-09
3.09965e-09
3.63211e-09
1.59223e-08
3.1588e-08
3.90799e-08
4.13249e-08
1.79894e-09
3.24428e-09
2.93143e-09
3.09965e-09
3.63211e-09
3.63211e-09
2.43703e-09
3.0006e-09
1.00143e-08
1.00275e-08
1.19532e-09
2.6878e-09
2.10678e-09
1.45724e-09
1.67381e-09
2.43703e-09
3.0006e-09
3.0006e-09
-2.79703e-09
-5.97766e-09
8.87032e-10
2.19324e-09
1.2814e-09
-3.3746e-10
-8.18439e-10
-3.92289e-10
-7.51112e-10
-2.79703e-09
)
;
    }
    procBoundary2to3
    {
        type            processor;
        value           nonuniform List<scalar> 
12
(
2.44267e-08
7.40578e-09
6.0154e-10
-9.07612e-10
1.60762e-08
5.37266e-09
-4.29821e-11
-1.64515e-09
-8.10951e-09
-2.85757e-09
-2.78516e-09
-2.6726e-09
)
;
    }
    procBoundary2to6
    {
        type            processor;
        value           nonuniform List<scalar> 
32
(
-4.22877e-09
-1.3719e-09
-2.7445e-09
-9.30485e-10
-1.43484e-09
-2.2981e-09
3.77637e-10
1.03441e-09
-1.49088e-10
-1.40182e-09
-1.66461e-09
-1.68965e-09
-1.67306e-09
-4.22877e-09
-1.3719e-09
-2.34413e-09
4.22231e-10
8.44613e-10
8.12687e-11
-8.97165e-10
-1.15839e-09
-1.33047e-09
-1.3719e-09
-9.30485e-10
-1.42306e-09
2.21095e-10
8.02482e-10
1.87745e-10
-5.38404e-10
-8.61737e-10
-9.30485e-10
-1.12305e-09
)
;
    }
}


// ************************************************************************* //
