/*--------------------------------*- C++ -*----------------------------------*\
| =========                 |                                                 |
| \\      /  F ield         | OpenFOAM: The Open Source CFD Toolbox           |
|  \\    /   O peration     | Version:  4.x                                   |
|   \\  /    A nd           | Web:      www.OpenFOAM.org                      |
|    \\/     M anipulation  |                                                 |
\*---------------------------------------------------------------------------*/
FoamFile
{
    version     2.0;
    format      ascii;
    class       volScalarField;
    location    "55";
    object      QPartFluidCoeff;
}
// * * * * * * * * * * * * * * * * * * * * * * * * * * * * * * * * * * * * * //

dimensions      [1 -1 -3 -1 0 0 0];

internalField   nonuniform List<scalar> 
114
(
-2.37958e+07
-1.86394e+07
-1.01798e+07
-1.99063e+07
-1.2122e+07
-1.5315e+07
-1.93766e+07
-2.31132e+07
-2.04314e+07
-1.46019e+07
-2.44531e+07
-1.6647e+07
-2.33156e+07
-2.23862e+07
-1.48984e+07
-1.29196e+07
-2.05711e+07
-1.69858e+07
-1.79947e+07
-1.93669e+07
-1.75009e+07
-2.26665e+07
-1.80238e+07
-2.17042e+07
-1.32788e+07
-1.33582e+07
-1.71921e+07
-1.51556e+07
-1.31937e+07
-1.36674e+07
-1.02051e+07
-1.78177e+07
-1.32692e+07
-3.28389e+07
-4.0999e+07
-2.20611e+07
-3.74435e+07
-1.57671e+07
-2.64647e+07
-3.19611e+07
-3.05821e+07
-2.95803e+07
-2.32826e+07
-3.7131e+07
-2.89724e+07
-2.13443e+07
-1.95226e+07
-3.34066e+07
-3.55258e+07
-3.06338e+07
-3.14007e+07
-2.95927e+07
-3.05663e+07
-2.97028e+07
-2.56342e+07
-1.68741e+07
-1.7957e+07
-2.78517e+07
-2.01036e+07
-2.53231e+07
-2.17986e+07
-2.23954e+07
-2.36887e+07
-1.60612e+07
-2.69543e+07
-3.1042e+07
-2.28597e+07
-1.91167e+07
-2.24701e+07
-2.2832e+07
-2.2484e+07
-2.54969e+07
-3.2688e+07
-2.39676e+07
-1.91028e+07
-1.66301e+07
-2.31808e+07
-3.02705e+07
-3.48695e+07
-3.05588e+07
-2.32893e+07
-3.15159e+07
-2.81837e+07
-3.40672e+07
-1.66876e+07
-2.53465e+07
-2.32593e+07
-2.49593e+07
-1.59266e+07
-2.2783e+07
-3.22888e+07
-1.77867e+07
-2.57647e+07
-1.6319e+07
-3.16367e+07
-3.43281e+07
-2.38769e+07
-2.74583e+07
-2.09561e+07
-2.52889e+07
-2.51805e+07
-1.95637e+07
-2.64107e+07
-3.50895e+07
-2.21075e+07
-3.04119e+07
-2.58163e+07
-3.43789e+07
-1.41883e+07
-2.10379e+07
-2.50359e+07
-2.42111e+07
-2.25157e+07
-2.17238e+07
)
;

boundaryField
{
    inlet
    {
        type            calculated;
        value           uniform 0;
    }
    outlet
    {
        type            calculated;
        value           nonuniform 0();
    }
    wall
    {
        type            calculated;
        value           uniform 0;
    }
    procBoundary2to0
    {
        type            processor;
        value           nonuniform List<scalar> 
44
(
383.011
420.394
369.784
300.807
390.97
642.888
224.901
342.749
265.108
265.108
416.678
854.989
509.805
794.749
521.552
479.841
601.598
532.232
588.897
416.678
854.989
854.989
608.176
663.378
485.879
407.86
521.677
655.687
723.312
680.675
753.744
608.176
663.378
663.378
424.971
198.587
364.866
509.59
743.687
775.162
417.475
747.08
649.31
424.971
)
;
    }
    procBoundary2to3
    {
        type            processor;
        value           nonuniform List<scalar> 
12
(
641.846
467.488
502.105
327.99
648.929
574.975
963.783
637.308
626.556
722.779
455.7
660.809
)
;
    }
    procBoundary2to6
    {
        type            processor;
        value           nonuniform List<scalar> 
32
(
613.572
516.973
678.206
431.026
471.814
425.257
752.18
677.078
459.689
604.114
837.411
461.081
658.508
613.572
516.973
504.669
476.259
696.87
617.764
772.099
668.734
659.683
516.973
431.026
661.015
353.442
573.479
450.303
464.337
657.418
431.026
713.713
)
;
    }
}


// ************************************************************************* //
