/*--------------------------------*- C++ -*----------------------------------*\
| =========                 |                                                 |
| \\      /  F ield         | OpenFOAM: The Open Source CFD Toolbox           |
|  \\    /   O peration     | Version:  4.x                                   |
|   \\  /    A nd           | Web:      www.OpenFOAM.org                      |
|    \\/     M anipulation  |                                                 |
\*---------------------------------------------------------------------------*/
FoamFile
{
    version     2.0;
    format      ascii;
    class       volVectorField;
    location    "42.5";
    object      GField;
}
// * * * * * * * * * * * * * * * * * * * * * * * * * * * * * * * * * * * * * //

dimensions      [1 -2 -1 0 0 0 0];

internalField   nonuniform List<vector> 
108
(
(72.3027 -0.924407 -0.954317)
(128.786 -0.871598 -1.70088)
(74.2749 -1.13489 -1.07469)
(136.849 -1.98647 0.132442)
(71.8569 -5.05256 -1.75449)
(146.142 -4.13894 4.5389)
(58.5492 -14.206 -5.91921)
(158.892 0.303631 11.2053)
(28.3757 -37.0327 -17.6371)
(55.1604 -1.28844 -0.714143)
(113.44 -0.664584 -0.965331)
(49.7379 -1.17714 -0.943056)
(113.567 -0.496307 2.34828)
(37.7517 -0.888039 -0.759471)
(105.351 0.197331 7.67162)
(15.1898 0.144506 -0.542473)
(78.4222 -0.861087 11.7162)
(-0.000343965 1.62897e-05 -1.4935e-05)
(71.5585 1.92187 -0.00370965)
(126.733 2.4771 -0.237754)
(72.5681 2.57256 1.38571)
(134.724 2.45423 2.04172)
(69.501 7.1152 3.5967)
(145.832 2.55635 6.21491)
(57.6227 17.895 4.58653)
(166.424 -7.271 9.24361)
(30.9079 48.79 -2.07181)
(91.1643 -1.88628 -0.265199)
(139.483 -1.62746 -0.497193)
(92.9057 -4.02775 0.806918)
(144.774 -3.31742 1.15714)
(89.9494 -5.4673 2.13513)
(154.786 -3.75909 3.98948)
(80.1397 -6.79631 4.41621)
(175.158 -3.89825 8.90551)
(46.02 -0.968823 -38.2258)
(20.5534 0.279873 -1.3799)
(101.836 0.553767 -1.08311)
(16.8619 0.412328 -1.78924)
(105.457 0.0717672 1.91265)
(13.8445 0.326466 -2.91849)
(110.094 -0.970417 7.6466)
(12.8014 0.0305803 -6.48759)
(114.584 -3.23958 20.358)
(16.3748 -1.98797 -30.587)
(8.19941 -0.11029 -1.02165)
(94.4148 0.973784 0.861336)
(1.89668 0.042798 -0.396316)
(93.8964 0.657057 2.71728)
(4.022e-05 -3.97941e-07 -1.12839e-05)
(88.9323 -0.983471 5.54415)
(1.45323 0.463396 -0.577573)
(74.8822 -8.93263 8.85735)
(11.909 10.7721 -4.43267)
(30.477 1.29954 -2.83357)
(105.915 2.34004 -2.17246)
(30.6615 2.40675 -4.13458)
(113.761 0.0620317 1.06825)
(32.6107 6.07304 -7.22178)
(127.006 -3.53548 6.42876)
(34.9593 16.9916 -14.8001)
(147.411 -14.2624 16.7749)
(23.7492 59.1543 -44.2555)
(63.56 -1.63274 -3.82291)
(120.098 -1.42429 -2.79277)
(62.9629 -3.70007 -5.14328)
(125.042 -3.33725 -1.82988)
(58.1241 -5.44631 -7.68506)
(135.235 -4.51037 1.41709)
(48.582 -5.50236 -10.478)
(161.675 -2.61879 11.514)
(28.7378 8.83367 -58.45)
(9.90153 -0.877449 -2.10622)
(92.8573 -0.343124 -0.178377)
(7.23857 -1.01094 -2.12512)
(93.1503 -1.11399 1.21118)
(7.34839 -1.96226 -3.3997)
(91.8502 -1.65474 4.03117)
(10.0924 -4.07735 -6.84714)
(83.7562 2.87445 12.4168)
(22.8778 -11.6059 -24.7497)
(4.14736e-05 -5.84975e-06 2.1176e-06)
(85.7404 -0.53613 1.46364)
(4.46509e-05 -9.23908e-06 1.01368e-06)
(85.0968 0.471472 2.36575)
(3.90987e-05 -5.76042e-06 -6.95238e-06)
(82.9111 2.17112 6.43943)
(3.22459e-05 -1.89727e-08 -1.45842e-05)
(71.3637 1.92797 8.7144)
(9.86792 0.536371 -1.2584)
(6.63788 0.561677 -0.408201)
(92.8093 -0.354068 -0.322994)
(2.83587 0.397817 -0.301382)
(95.2924 -0.67723 1.21754)
(6.64014 1.86407 -1.33377)
(97.3896 -0.569449 3.86977)
(17.9132 9.5627 -6.32646)
(94.518 -6.21032 10.0476)
(31.7809 39.7561 -21.6277)
(46.2163 -0.0927205 -2.51065)
(106.814 -0.376864 -1.27483)
(43.5356 -0.891955 -3.0155)
(108.801 -3.15287 0.0629165)
(38.1002 -0.529173 -4.62872)
(113.642 -4.34187 2.36298)
(32.3184 1.9955 -7.48991)
(132.282 -4.80141 8.15433)
(21.0205 14.7916 -15.7516)
)
;

boundaryField
{
    inlet
    {
        type            calculated;
        value           nonuniform 0();
    }
    outlet
    {
        type            calculated;
        value           nonuniform List<vector> 
12
(
(59.1425 -77.186 -36.7604)
(-0.000720586 3.41258e-05 -3.1288e-05)
(64.4976 101.813 -4.32339)
(94.112 -1.98127 -78.1727)
(35.1857 -4.27168 -65.7242)
(25.5516 23.1124 -9.51063)
(50.922 126.836 -94.8909)
(61.2094 18.8151 -124.494)
(49.8776 -25.3029 -53.9588)
(21.4975 1.1685 -2.74145)
(69.0347 86.3584 -46.9798)
(45.8337 32.2521 -34.3454)
)
;
    }
    wall
    {
        type            calculated;
        value           uniform (0 0 0);
    }
    procBoundary3to1
    {
        type            processor;
        value           nonuniform List<vector> 
27
(
(66.1149 0.581634 -2.54332)
(121.434 0.934936 -2.72609)
(64.5263 1.59265 -3.47945)
(125.515 1.94674 -0.441938)
(60.9366 0.704518 -6.79468)
(134.669 2.26678 3.59319)
(54.6287 -3.25826 -14.6431)
(156.933 4.19893 14.8645)
(33.3244 -13.5919 -37.1099)
(8.29944 0.403189 -0.439568)
(95.0841 1.00702 0.764412)
(1.14488 0.10546 -0.100285)
(94.8341 1.42662 2.25804)
(4.4508e-05 -5.92656e-06 -8.33823e-06)
(90.4968 0.789188 5.44066)
(5.60259 0.347505 -2.13935)
(81.3063 0.0198128 13.0626)
(27.6736 -0.374039 -31.7845)
(9.36073 -0.446131 -1.95741)
(92.2308 -0.0948372 0.320682)
(7.44637 -0.580613 -2.39126)
(92.7051 1.42699 0.0681671)
(7.79464 -1.37084 -3.58507)
(92.1625 2.80804 2.10435)
(12.9521 -5.25327 -7.73646)
(86.7693 8.94544 8.43141)
(27.3383 -22.7308 -15.7891)
)
;
    }
    procBoundary3to2
    {
        type            processor;
        value           nonuniform List<vector> 
12
(
(122.595 -0.690491 -2.65429)
(112.517 -0.555861 -2.58708)
(121.322 2.43514 -1.59321)
(133.426 -0.228235 -1.50629)
(98.1386 0.267599 -2.08284)
(94.1122 0.482958 -1.30483)
(101.976 3.15695 -3.67922)
(116.202 0.115207 -3.84397)
(92.5216 -0.778831 -1.96593)
(87.1961 -1.23397 -0.0895882)
(91.4387 0.7474 -0.702015)
(104.472 0.867418 -1.89422)
)
;
    }
    procBoundary3to7
    {
        type            processor;
        value           nonuniform List<vector> 
36
(
(0.53272 0.0634356 -0.112707)
(87.4946 0.960699 -0.117178)
(0.555738 0.123502 -0.185187)
(87.6113 1.43607 0.112077)
(4.13787e-05 6.26955e-06 -1.28641e-05)
(84.8738 2.343 2.33851)
(3.11051e-05 1.06716e-05 -2.09465e-05)
(72.4782 -3.71679 10.605)
(10.1128 4.07467 -4.64916)
(4.45981e-05 3.04985e-06 -4.3482e-07)
(86.2649 0.320306 -0.200791)
(4.69962e-05 3.22618e-06 -1.22781e-06)
(84.4963 0.129547 0.972247)
(2.33927 0.797151 -0.250716)
(81.389 -1.17459 2.92461)
(13.4576 7.51435 -0.838525)
(72.981 -7.98262 5.23427)
(29.0323 30.9923 3.80535)
(24.3847 2.1523 -2.16264)
(97.9816 1.1711 -0.626933)
(23.8138 3.08547 -3.43141)
(102.203 -0.391935 -1.83126)
(24.1334 5.83968 -6.07711)
(107.173 -5.46676 -1.70122)
(23.5086 11.6144 -10.6772)
(114.015 -15.3792 5.74408)
(16.6836 26.926 -15.0148)
(49.0313 -1.40833 -3.76783)
(107.75 -1.09841 -3.00585)
(46.8863 -2.1277 -5.28352)
(110.866 -2.0452 -2.75937)
(42.8058 -2.59341 -8.50283)
(114.558 -2.02887 -0.720891)
(34.0102 -2.12686 -14.7685)
(121.523 -0.0793157 8.34626)
(18.2698 0.179974 -28.5999)
)
;
    }
}


// ************************************************************************* //
