/*--------------------------------*- C++ -*----------------------------------*\
| =========                 |                                                 |
| \\      /  F ield         | OpenFOAM: The Open Source CFD Toolbox           |
|  \\    /   O peration     | Version:  4.x                                   |
|   \\  /    A nd           | Web:      www.OpenFOAM.org                      |
|    \\/     M anipulation  |                                                 |
\*---------------------------------------------------------------------------*/
FoamFile
{
    version     2.0;
    format      ascii;
    class       volScalarField;
    location    "42.5";
    object      KslPrev;
}
// * * * * * * * * * * * * * * * * * * * * * * * * * * * * * * * * * * * * * //

dimensions      [1 -3 -1 0 0 0 0];

internalField   nonuniform List<scalar> 
108
(
4891.53
2750.29
4742.11
2582.45
4863.39
2385.36
5633.42
2100.11
6472.25
6381.99
3111.9
7068.94
3097.35
9231.79
3305.22
22262.7
4178.86
1e+10
4919.78
2790.13
4850.79
2638.82
5050.32
2434.21
5684.72
2033.56
5637.32
3797.72
2506.47
3781.24
2430.04
3891.9
2263.25
4253.75
1901.42
5548.71
16839.8
3445.31
20369.5
3300.26
24232.4
3112.25
23321.7
2851.41
9128.49
41982.2
3712.07
177985
3700.2
9.89637e+09
3856.64
204373
4338.3
18989.2
11402
3327.16
11246.1
3111.44
10297.2
2766.89
8209.2
2263.79
4144.47
5396.07
2900.89
5471.92
2808.08
5902.56
2594.59
6774.42
2069.61
4887.52
32964
3649.02
43844.7
3613.99
39794.9
3610.51
25067.5
3772.41
8667.82
1e+10
3954.28
1e+10
3945.06
1e+10
3988
1e+10
4448.43
30998.2
50835
3686.12
116953
3564.17
47700.3
3456.85
15502.9
3420.65
5649.1
7239.1
3173.14
7686.32
3099.64
8751.76
2956.07
9850.87
2448.72
10312.1
)
;

boundaryField
{
    inlet
    {
        type            zeroGradient;
    }
    outlet
    {
        type            zeroGradient;
    }
    wall
    {
        type            zeroGradient;
    }
    procBoundary3to1
    {
        type            processor;
        value           uniform 0;
    }
    procBoundary3to2
    {
        type            processor;
        value           uniform 0;
    }
    procBoundary3to7
    {
        type            processor;
        value           uniform 0;
    }
}


// ************************************************************************* //
