/*--------------------------------*- C++ -*----------------------------------*\
| =========                 |                                                 |
| \\      /  F ield         | OpenFOAM: The Open Source CFD Toolbox           |
|  \\    /   O peration     | Version:  4.x                                   |
|   \\  /    A nd           | Web:      www.OpenFOAM.org                      |
|    \\/     M anipulation  |                                                 |
\*---------------------------------------------------------------------------*/
FoamFile
{
    version     2.0;
    format      ascii;
    class       volScalarField;
    location    "42.5";
    object      Qsource;
}
// * * * * * * * * * * * * * * * * * * * * * * * * * * * * * * * * * * * * * //

dimensions      [1 -1 -3 0 0 0 0];

internalField   nonuniform List<scalar> 
108
(
9.14533e+09
4.89919e+09
7.40268e+09
4.33193e+09
5.66771e+09
4.95199e+09
6.19919e+09
6.5274e+09
3.3961e+09
6.72553e+09
9.77109e+09
5.43747e+09
6.44742e+09
6.34292e+09
5.79827e+09
6.0512e+09
6.21256e+09
3.58857e+09
7.28917e+09
7.83381e+09
7.75668e+09
6.02091e+09
6.52259e+09
6.56392e+09
7.33528e+09
8.41612e+09
4.67842e+09
5.92316e+09
6.53217e+09
6.27537e+09
8.97289e+09
7.09517e+09
7.94266e+09
5.05905e+09
8.24387e+09
5.52821e+09
8.54728e+09
8.09082e+09
1.02602e+10
1.0648e+10
8.5021e+09
7.9845e+09
6.84187e+09
8.57836e+09
7.65066e+09
7.62003e+09
8.02937e+09
8.03932e+09
8.98831e+09
7.48438e+09
7.86e+09
9.24491e+09
8.63835e+09
5.74947e+09
1.27399e+10
9.91605e+09
9.07034e+09
1.14232e+10
8.5533e+09
1.02398e+10
8.29925e+09
9.90952e+09
7.91226e+09
9.02343e+09
8.1521e+09
7.90054e+09
9.06366e+09
9.73696e+09
8.72465e+09
7.79019e+09
9.942e+09
6.17643e+09
8.22506e+09
1.10147e+10
9.22861e+09
1.03586e+10
6.59957e+09
7.8286e+09
9.13326e+09
8.43482e+09
6.95953e+09
9.54849e+09
6.14717e+09
8.14883e+09
5.01471e+09
4.37706e+09
9.42854e+09
7.61731e+09
1.05902e+10
5.10165e+09
6.04528e+09
1.03306e+10
9.22265e+09
7.29377e+09
7.44478e+09
1.00231e+10
8.14938e+09
9.35779e+09
5.08411e+09
9.24703e+09
5.7823e+09
6.24671e+09
7.91134e+09
6.86705e+09
9.57841e+09
6.76097e+09
1.06947e+10
7.922e+09
)
;

boundaryField
{
    inlet
    {
        type            calculated;
        value           nonuniform 0();
    }
    outlet
    {
        type            calculated;
        value           uniform 0;
    }
    wall
    {
        type            calculated;
        value           uniform 0;
    }
    procBoundary3to1
    {
        type            processor;
        value           nonuniform List<scalar> 
27
(
4.55908e+09
8.09288e+09
6.82616e+09
9.98233e+09
6.87161e+09
6.90636e+09
6.30288e+09
7.53002e+09
4.79138e+09
7.92367e+09
8.48885e+09
7.18714e+09
6.81103e+09
5.7929e+09
9.30515e+09
9.42583e+09
1.31619e+10
4.43068e+09
9.509e+09
7.88816e+09
5.50487e+09
1.11512e+10
8.88385e+09
1.06977e+10
7.48178e+09
9.67027e+09
3.36964e+09
)
;
    }
    procBoundary3to2
    {
        type            processor;
        value           nonuniform List<scalar> 
12
(
5.60329e+09
5.40971e+09
7.50756e+09
6.12864e+09
1.12303e+10
6.41022e+09
7.69719e+09
5.78325e+09
9.28616e+09
5.74362e+09
1.02429e+10
8.63129e+09
)
;
    }
    procBoundary3to7
    {
        type            processor;
        value           nonuniform List<scalar> 
36
(
1.00163e+10
9.13448e+09
6.42835e+09
7.97363e+09
1.10991e+10
1.25185e+10
7.99793e+09
6.52772e+09
6.1349e+09
7.46309e+09
1.14177e+10
7.42537e+09
8.15963e+09
8.37751e+09
6.95321e+09
7.89636e+09
7.67843e+09
6.84064e+09
5.30191e+09
9.44912e+09
6.95095e+09
9.01227e+09
8.39841e+09
1.05633e+10
8.69409e+09
9.18428e+09
6.9565e+09
7.55505e+09
8.43914e+09
9.44057e+09
6.91544e+09
8.38108e+09
9.01693e+09
8.45239e+09
8.06989e+09
4.03729e+09
)
;
    }
}


// ************************************************************************* //
