/*--------------------------------*- C++ -*----------------------------------*\
| =========                 |                                                 |
| \\      /  F ield         | OpenFOAM: The Open Source CFD Toolbox           |
|  \\    /   O peration     | Version:  4.x                                   |
|   \\  /    A nd           | Web:      www.OpenFOAM.org                      |
|    \\/     M anipulation  |                                                 |
\*---------------------------------------------------------------------------*/
FoamFile
{
    version     2.0;
    format      ascii;
    class       volScalarField;
    location    "14.5";
    object      Cs;
}
// * * * * * * * * * * * * * * * * * * * * * * * * * * * * * * * * * * * * * //

dimensions      [1 -3 0 0 0 0 0];

internalField   nonuniform List<scalar> 
114
(
334.861
334.837
334.806
334.815
334.8
334.836
334.919
334.934
334.966
334.983
335.023
335.015
335.202
334.93
334.938
334.968
335.005
335.044
335.085
335.108
335.269
334.973
334.954
334.931
334.908
334.892
334.871
334.876
334.871
334.895
334.966
334.965
334.986
335.012
335.05
335.049
335.08
335.046
335.143
334.956
334.961
334.982
335.015
335.054
335.082
335.111
335.107
335.293
334.947
334.959
334.978
334.967
334.955
334.942
334.934
334.923
334.927
334.925
335.164
334.965
334.965
334.972
334.986
335.004
335.012
335.03
335.017
335.152
334.96
334.96
334.967
334.98
335
335.015
335.041
335.043
335.164
334.951
334.954
334.97
334.996
334.979
334.97
334.96
334.95
334.941
334.934
334.93
334.927
338.29
334.974
334.966
334.956
334.948
334.941
334.936
334.936
334.934
335.02
334.971
334.961
334.952
334.944
334.938
334.933
334.935
334.936
335.063
334.966
334.957
334.95
334.943
334.939
334.936
)
;

boundaryField
{
    inlet
    {
        type            calculated;
        value           nonuniform 0();
    }
    outlet
    {
        type            calculated;
        value           uniform 335;
    }
    wall
    {
        type            calculated;
        value           nonuniform List<scalar> 
66
(
334.979
334.974
334.971
334.966
334.97
334.966
334.961
334.957
334.96
334.956
334.952
334.95
334.95
334.948
334.944
334.943
334.941
334.941
334.938
334.939
334.934
334.936
334.933
334.936
334.93
334.936
334.935
334.927
334.934
334.936
338.29
335.02
335.063
334.973
334.978
334.979
334.954
334.967
334.97
334.931
334.955
334.96
334.861
334.908
334.942
334.95
334.837
334.892
334.934
334.941
334.806
334.871
334.923
334.934
334.815
334.876
334.927
334.93
334.8
334.871
334.925
334.927
334.836
334.895
335.164
338.29
)
;
    }
    procBoundary5to1
    {
        type            processor;
        value           nonuniform List<scalar> 
32
(
334.795
334.769
334.739
334.749
334.738
334.961
334.797
334.854
334.912
334.943
335.004
335.003
335.28
334.886
334.921
334.962
335.024
335.071
335.117
335.136
335.257
334.982
334.938
334.896
334.896
334.896
335.02
334.932
334.932
334.932
334.949
334.949
)
;
    }
    procBoundary5to4
    {
        type            processor;
        value           nonuniform List<scalar> 
12
(
334.978
334.963
334.954
334.947
334.984
334.97
334.965
334.958
334.985
334.981
334.978
334.975
)
;
    }
    procBoundary5to7
    {
        type            processor;
        value           nonuniform List<scalar> 
44
(
334.916
334.926
334.953
334.985
335.024
335.061
335.093
335.215
334.92
334.916
334.983
335.017
335.055
335.087
335.102
335.103
335.199
334.957
334.983
334.97
334.983
335.017
335.031
335.059
335.093
335.084
335.204
334.958
334.959
334.968
335.031
334.982
335.031
335.059
334.942
334.949
335.21
334.966
334.955
334.945
334.938
334.937
334.942
334.946
)
;
    }
}


// ************************************************************************* //
