/*--------------------------------*- C++ -*----------------------------------*\
| =========                 |                                                 |
| \\      /  F ield         | OpenFOAM: The Open Source CFD Toolbox           |
|  \\    /   O peration     | Version:  4.x                                   |
|   \\  /    A nd           | Web:      www.OpenFOAM.org                      |
|    \\/     M anipulation  |                                                 |
\*---------------------------------------------------------------------------*/
FoamFile
{
    version     2.0;
    format      ascii;
    class       volVectorField;
    location    "14.5";
    object      impParticleForces;
}
// * * * * * * * * * * * * * * * * * * * * * * * * * * * * * * * * * * * * * //

dimensions      [1 1 -2 0 0 0 0];

internalField   nonuniform List<vector> 
114
(
(0.00246506 -2.20686e-05 1.56367e-06)
(0.00243707 -3.24957e-05 -1.3436e-06)
(0.00246187 -4.54731e-05 -5.1358e-06)
(0.00241276 -6.68546e-05 -1.9183e-05)
(0.00241878 -8.87982e-05 -3.23294e-05)
(0.00230077 -0.000122381 -5.73746e-05)
(0.00244541 -1.37188e-05 -4.67419e-06)
(0.00246765 -1.88504e-05 -3.37706e-06)
(0.00243945 -2.75384e-05 -8.91188e-06)
(0.00246628 -3.86135e-05 -1.58367e-05)
(0.00241768 -5.76608e-05 -3.08948e-05)
(0.00240753 -7.75366e-05 -4.59031e-05)
(0.00229985 -0.000104664 -6.42261e-05)
(0.00245485 -7.32831e-06 -1.14428e-05)
(0.00241929 -8.35225e-06 -9.85833e-06)
(0.00244633 -1.14587e-05 -1.19745e-05)
(0.00241245 -1.66862e-05 -1.87057e-05)
(0.00241244 -2.29046e-05 -2.86633e-05)
(0.00236692 -3.28661e-05 -4.29912e-05)
(0.00233257 -4.35034e-05 -5.85293e-05)
(0.00225371 -5.68103e-05 -7.27169e-05)
(0.00240123 -2.08733e-05 -1.47566e-05)
(0.00240691 -1.8768e-05 -7.69368e-06)
(0.00240958 -2.05418e-05 -3.40658e-06)
(0.00242356 -2.51639e-05 -9.30209e-07)
(0.00241088 -3.46942e-05 -1.92894e-06)
(0.00243521 -4.6454e-05 -2.64423e-06)
(0.00238943 -6.86644e-05 -1.08142e-05)
(0.00236956 -8.99844e-05 -1.80585e-05)
(0.00227644 -0.000119645 -2.66676e-05)
(0.00242565 -1.87025e-05 -1.3983e-05)
(0.00243495 -1.65637e-05 -8.11261e-06)
(0.00242137 -1.80295e-05 -5.73695e-06)
(0.00244517 -2.20504e-05 -5.41917e-06)
(0.00242021 -3.02353e-05 -8.5929e-06)
(0.00244106 -4.05788e-05 -1.25062e-05)
(0.00238201 -5.8849e-05 -2.09765e-05)
(0.00237371 -7.70332e-05 -2.9592e-05)
(0.00228057 -0.000103101 -3.69339e-05)
(0.00240467 -1.23331e-05 -1.44356e-05)
(0.00240818 -1.1512e-05 -1.07773e-05)
(0.0023949 -1.2805e-05 -1.04317e-05)
(0.00241973 -1.55291e-05 -1.29945e-05)
(0.00238616 -2.07345e-05 -1.78691e-05)
(0.00239353 -2.70895e-05 -2.52755e-05)
(0.00234186 -3.79025e-05 -3.52339e-05)
(0.00231676 -4.88682e-05 -4.6795e-05)
(0.00224088 -6.35027e-05 -5.41967e-05)
(0.00239445 -3.87452e-06 -1.6857e-05)
(0.00239609 -4.44276e-06 -1.40161e-05)
(0.00239021 -2.34152e-05 -1.0445e-05)
(0.00241055 -2.2498e-05 -6.0039e-06)
(0.00239549 -2.50804e-05 -3.4934e-06)
(0.00241646 -3.00606e-05 -1.85155e-06)
(0.00241212 -4.0507e-05 -1.05976e-06)
(0.00243432 -5.37316e-05 -6.68948e-07)
(0.00240546 -8.12678e-05 -5.74582e-07)
(0.00242945 -0.000108685 -2.39341e-06)
(0.00230548 -0.000154894 5.83604e-06)
(0.00240595 -2.09217e-05 -9.74557e-06)
(0.00244167 -2.07664e-05 -6.63139e-06)
(0.00240983 -2.29073e-05 -6.03036e-06)
(0.00243413 -2.79114e-05 -6.27227e-06)
(0.00242257 -3.6889e-05 -7.54016e-06)
(0.00244265 -4.93938e-05 -9.71251e-06)
(0.0024154 -7.27052e-05 -1.11848e-05)
(0.00239961 -9.54148e-05 -1.58538e-05)
(0.00229321 -0.000134346 -1.18829e-05)
(0.00239337 -1.53538e-05 -1.01332e-05)
(0.00241153 -1.57538e-05 -9.32507e-06)
(0.00239619 -1.76512e-05 -9.95182e-06)
(0.00240621 -2.11092e-05 -1.23838e-05)
(0.00240061 -2.79279e-05 -1.60859e-05)
(0.00240331 -3.57929e-05 -2.20365e-05)
(0.00235255 -4.95804e-05 -2.71821e-05)
(0.00233383 -6.37864e-05 -3.56359e-05)
(0.00225137 -8.47769e-05 -3.48222e-05)
(0.00237837 -7.09267e-06 -1.27932e-05)
(0.00241248 -8.3645e-06 -1.20117e-05)
(0.00237969 -8.93836e-06 -1.38121e-05)
(0.00238922 -1.01571e-05 -1.77675e-05)
(0.00233387 -2.28686e-05 -9.83062e-06)
(0.00235604 -2.34354e-05 -7.02554e-06)
(0.00234427 -2.65284e-05 -5.72268e-06)
(0.00237449 -3.23363e-05 -4.58438e-06)
(0.00237475 -4.31341e-05 -4.58218e-06)
(0.00240167 -5.80204e-05 -4.38784e-06)
(0.00239347 -8.92967e-05 -3.84324e-06)
(0.00243945 -0.000120482 -2.13072e-06)
(0.00230885 -0.000176642 1.70674e-06)
(0.00237006 -2.14578e-05 -9.1772e-06)
(0.00239469 -2.22216e-05 -7.57967e-06)
(0.00237077 -2.51818e-05 -7.31457e-06)
(0.00239177 -3.04945e-05 -7.84379e-06)
(0.00239046 -4.04457e-05 -9.1748e-06)
(0.00239908 -5.39163e-05 -1.04948e-05)
(0.00238256 -7.92296e-05 -1.19753e-05)
(0.00238777 -0.000106675 -1.27901e-05)
(0.00229492 -0.000158981 -9.32968e-06)
(0.00235723 -1.63531e-05 -1.00261e-05)
(0.00238047 -1.75093e-05 -9.4686e-06)
(0.00236929 -2.00261e-05 -1.04945e-05)
(0.0023773 -2.39203e-05 -1.26599e-05)
(0.00236483 -3.13207e-05 -1.63847e-05)
(0.0023733 -4.07548e-05 -2.04714e-05)
(0.00232851 -5.57552e-05 -2.50138e-05)
(0.00230854 -7.15575e-05 -2.90132e-05)
(0.00224068 -9.82861e-05 -2.91835e-05)
(0.00234809 -8.48396e-06 -1.18326e-05)
(0.00236477 -9.66567e-06 -1.19911e-05)
(0.0023503 -1.10017e-05 -1.38111e-05)
(0.00235849 -1.29994e-05 -1.72366e-05)
(0.00234402 -1.66708e-05 -2.25748e-05)
(0.00232196 -1.99791e-05 -2.92632e-05)
)
;

boundaryField
{
    inlet
    {
        type            zeroGradient;
    }
    outlet
    {
        type            zeroGradient;
    }
    wall
    {
        type            zeroGradient;
    }
    procBoundary5to1
    {
        type            processor;
        value           nonuniform List<vector> 
32
(
(0.00250239 -2.06948e-05 5.76391e-06)
(0.00246689 -3.2821e-05 2.30971e-06)
(0.00249019 -4.8864e-05 -2.94778e-06)
(0.00245873 -6.99524e-05 -1.77641e-05)
(0.00245506 -9.14819e-05 -3.66924e-05)
(0.00231146 -0.000121484 -6.7355e-05)
(0.00246919 -9.31358e-06 -1.77491e-06)
(0.00250173 -1.6895e-05 1.26481e-06)
(0.00247676 -2.74372e-05 -4.11479e-06)
(0.00249047 -4.00404e-05 -1.31234e-05)
(0.00244156 -5.79156e-05 -3.04122e-05)
(0.00242096 -7.80804e-05 -5.17097e-05)
(0.00229722 -0.000104886 -7.36444e-05)
(0.00247328 -1.15072e-06 -1.12697e-05)
(0.00244418 -3.41429e-06 -6.92558e-06)
(0.00248183 -7.01334e-06 -7.21452e-06)
(0.0024414 -1.34546e-05 -1.52166e-05)
(0.00245284 -1.99493e-05 -2.86778e-05)
(0.00239353 -2.90728e-05 -4.56377e-05)
(0.00236712 -3.81341e-05 -6.69363e-05)
(0.00226334 -5.0086e-05 -8.24304e-05)
(0.00241657 -1.57608e-05 -1.93536e-05)
(0.00242297 -1.32767e-05 -8.68815e-06)
(0.00243176 -1.59369e-05 -2.17232e-06)
(0.00243176 -1.59369e-05 -2.17232e-06)
(0.00243176 -1.59369e-05 -2.17232e-06)
(0.0024487 -1.46656e-05 -1.93806e-05)
(0.00247959 -1.21793e-05 -8.07082e-06)
(0.00247959 -1.21793e-05 -8.07082e-06)
(0.00247959 -1.21793e-05 -8.07082e-06)
(0.00242576 -8.92266e-06 -2.01241e-05)
(0.00242576 -8.92266e-06 -2.01241e-05)
)
;
    }
    procBoundary5to4
    {
        type            processor;
        value           nonuniform List<vector> 
12
(
(0.00243148 -2.49074e-05 -2.21704e-05)
(0.0024659 -2.27671e-05 -2.0968e-05)
(0.00243633 -1.41453e-05 -2.0223e-05)
(0.00241833 -3.75902e-06 -2.22057e-05)
(0.00242381 -2.54807e-05 -1.48227e-05)
(0.00245182 -2.32491e-05 -1.24661e-05)
(0.00243116 -1.61783e-05 -1.21031e-05)
(0.00240893 -6.84621e-06 -1.48493e-05)
(0.00237811 -2.428e-05 -1.32801e-05)
(0.00239226 -2.20741e-05 -1.1869e-05)
(0.00238175 -1.63386e-05 -1.18708e-05)
(0.00237061 -8.12877e-06 -1.35752e-05)
)
;
    }
    procBoundary5to7
    {
        type            processor;
        value           nonuniform List<vector> 
44
(
(0.00244248 -1.00073e-07 -1.4906e-05)
(0.0024078 -4.22292e-07 -1.41716e-05)
(0.0024286 -1.44694e-06 -1.71214e-05)
(0.00241726 -2.38117e-06 -2.5739e-05)
(0.00242721 -3.20742e-06 -3.74888e-05)
(0.00235691 -5.57747e-06 -5.39807e-05)
(0.00231879 -7.09169e-06 -7.15733e-05)
(0.00224441 -8.64849e-06 -8.90662e-05)
(0.0024234 -5.95813e-07 -2.21827e-05)
(0.00244248 -1.00073e-07 -1.4906e-05)
(0.0023767 -4.82136e-06 -1.45844e-05)
(0.00239691 -5.80758e-06 -1.82141e-05)
(0.00236832 -7.10559e-06 -2.49917e-05)
(0.0023723 -8.41558e-06 -3.48376e-05)
(0.00232392 -1.17956e-05 -4.74624e-05)
(0.00229889 -1.42275e-05 -6.12071e-05)
(0.00222468 -1.80942e-05 -7.28329e-05)
(0.0023826 4.09883e-06 -2.04727e-05)
(0.0023767 -4.82136e-06 -1.45844e-05)
(0.00241483 3.22446e-06 -1.74633e-05)
(0.0023767 -4.82136e-06 -1.45844e-05)
(0.00239691 -5.80758e-06 -1.82141e-05)
(0.00234661 -1.22065e-05 -2.34682e-05)
(0.00234856 -1.50262e-05 -3.20018e-05)
(0.00230359 -1.97381e-05 -4.06469e-05)
(0.00227592 -2.35878e-05 -5.10862e-05)
(0.00220239 -2.98406e-05 -5.44666e-05)
(0.00238437 2.20744e-06 -1.67027e-05)
(0.00240338 1.26197e-06 -1.65104e-05)
(0.00236451 1.49793e-06 -1.76449e-05)
(0.00234661 -1.22065e-05 -2.34682e-05)
(0.00237655 2.015e-06 -2.15303e-05)
(0.00234661 -1.22065e-05 -2.34682e-05)
(0.00234856 -1.50262e-05 -3.20018e-05)
(0.00227727 -2.62549e-05 -3.62095e-05)
(0.00225484 -3.04367e-05 -4.33675e-05)
(0.00218621 -3.99769e-05 -4.60294e-05)
(0.00235179 6.14777e-07 -1.52143e-05)
(0.00235856 -5.62678e-08 -1.54179e-05)
(0.00233541 -2.80857e-07 -1.76294e-05)
(0.00235079 -3.23874e-07 -2.16569e-05)
(0.00231543 9.52043e-08 -2.81221e-05)
(0.00227727 -2.62549e-05 -3.62095e-05)
(0.00230737 8.45291e-07 -3.5998e-05)
)
;
    }
}


// ************************************************************************* //
