/*--------------------------------*- C++ -*----------------------------------*\
| =========                 |                                                 |
| \\      /  F ield         | OpenFOAM: The Open Source CFD Toolbox           |
|  \\    /   O peration     | Version:  4.x                                   |
|   \\  /    A nd           | Web:      www.OpenFOAM.org                      |
|    \\/     M anipulation  |                                                 |
\*---------------------------------------------------------------------------*/
FoamFile
{
    version     2.0;
    format      ascii;
    class       volScalarField;
    location    "14.5";
    object      p_rgh;
}
// * * * * * * * * * * * * * * * * * * * * * * * * * * * * * * * * * * * * * //

dimensions      [1 -1 -2 0 0 0 0];

internalField   nonuniform List<scalar> 
114
(
66.127
-18.3573
60.7315
-44.7362
60.7559
-70.4223
9.10689
74.0937
-11.2169
64.4052
-34.8383
59.3284
-52.0971
104.345
30.4576
89.7588
1.3565
76.1292
-26.0436
66.3717
-51.4177
15.2668
59.6261
-7.81897
53.6161
-28.6937
48.4892
-44.9328
49.0941
-51.0653
22.5209
68.3286
-0.262904
56.8256
-18.9141
52.4785
-36.0932
48.5314
-41.2498
41.9756
77.0624
14.1438
70.6649
-7.29707
61.1202
-27.585
53.9897
-39.0541
72.0933
99.3595
2.72234
52.4799
-18.2958
45.1992
-39.1027
41.2594
-59.792
49.37
-69.2342
9.56277
59.7042
-11.4433
49.0501
-31.4764
43.2996
-49.5142
45.4021
-53.079
30.4917
73.8746
0.73644
61.8712
-21.5624
52.6142
-43.5393
51.4055
-49.625
61.2883
95.6745
20.6438
74.8253
-0.86889
48.8016
-25.6599
38.6938
-42.3202
37.0863
-63.1061
47.1746
-23.1686
7.62712
56.6133
-16.4226
42.9649
-36.6515
38.3567
-54.2084
40.5757
-56.3707
26.1233
70.9654
-3.52396
56.0796
-28.1947
45.5525
-48.2994
45.1256
-52.2544
54.8819
91.2526
13.4475
65.2426
-15.6416
52.3017
)
;

boundaryField
{
    inlet
    {
        type            fixedFluxPressure;
        gradient        nonuniform 0();
        value           nonuniform 0();
    }
    outlet
    {
        type            fixedValue;
        value           uniform 0;
    }
    wall
    {
        type            fixedFluxPressure;
        gradient        nonuniform List<scalar> 
66
(
-0.0107812
-0.00876563
-0.0138509
-0.0108787
-0.00692635
-0.0107173
-0.018124
-0.0180355
-0.0043004
-0.219218
-0.0374688
-0.0253593
-0.0010615
-0.00973115
-0.0137723
-0.0123271
-0.00888927
-0.0197273
-0.0129306
-0.0162712
-0.00210205
-0.00467623
-0.00908446
-0.0096518
-0.00501567
-0.0036002
-0.0134808
-0.00241609
-0.0026357
-0.00468306
-0.00303829
-0.00251693
-0.00810155
-0.0208286
-0.0361494
-0.00969322
-0.00166212
-0.00471174
-0.000868469
-0.0150474
0.000623198
-0.0177452
-0.00996406
-0.00774256
-0.00302039
-0.00151705
-0.0189633
-0.0137179
-0.00334051
-0.00310893
-0.00472601
-0.00324187
-0.00458351
-0.00399219
-0.00536878
-0.0123949
-0.00722668
-0.00525608
-0.00170185
-0.00279655
-0.00328082
-0.00132796
0.0275392
-0.0239688
-0.00137317
-0.00026551
)
;
        value           nonuniform List<scalar> 
66
(
-0.869044
7.627
26.1231
54.8817
48.8015
56.6131
70.9651
91.2523
-25.6599
-16.4258
-3.5245
13.4472
38.6938
42.9648
56.0794
65.2424
-42.3204
-36.6518
-28.1949
-15.6419
37.0863
38.3566
45.5524
52.3015
-63.1062
-54.2085
-48.2996
47.1745
40.5757
45.1255
-23.1686
-56.3708
-52.2546
15.2665
2.72182
-0.869028
59.6261
52.4799
48.8016
-7.81918
-18.2958
-25.6601
66.1268
53.616
45.1992
38.6938
-18.3576
-28.6939
-39.1028
-42.3203
60.7314
48.4892
41.2594
37.0862
-44.7363
-44.933
-59.7921
-63.1062
60.7559
49.0941
49.3699
47.1745
-70.4219
-51.0657
-69.2342
-23.1686
)
;
    }
    procBoundary5to1
    {
        type            processor;
        value           nonuniform List<scalar> 
32
(
79.663
-5.26458
69.9313
-31.0177
64.8146
-63.9749
37.3726
92.6078
3.21475
73.9311
-21.9771
62.6796
-47.3584
150.212
69.7057
112.338
22.401
87.0957
-10.7463
71.0056
-38.4289
32.1917
74.6664
-3.05081
-3.05081
-3.05081
37.0896
84.3992
84.3992
84.3992
63.2814
63.2814
)
;
    }
    procBoundary5to4
    {
        type            processor;
        value           nonuniform List<scalar> 
12
(
68.7502
80.6497
102.06
143.327
53.0357
61.6639
84.7835
126.015
48.2668
57.6466
79.7783
117.544
)
;
    }
    procBoundary5to7
    {
        type            processor;
        value           nonuniform List<scalar> 
44
(
130.344
58.64
108.226
19.6512
87.2568
-11.1036
71.9091
-45.0676
93.5072
130.344
35.8965
78.6089
6.13669
67.0924
-14.9176
57.4596
-33.8325
93.8709
35.8965
120.127
35.8965
78.6089
-6.82014
58.8927
-29.3232
55.7858
-37.134
86.4509
120.194
35.9092
-6.82014
87.6677
-6.82014
58.8927
-36.5898
47.6202
-40.0336
79.7556
116.111
31.1344
82.3057
-5.55778
-36.5898
61.7215
)
;
    }
}


// ************************************************************************* //
