/*--------------------------------*- C++ -*----------------------------------*\
| =========                 |                                                 |
| \\      /  F ield         | OpenFOAM: The Open Source CFD Toolbox           |
|  \\    /   O peration     | Version:  4.x                                   |
|   \\  /    A nd           | Web:      www.OpenFOAM.org                      |
|    \\/     M anipulation  |                                                 |
\*---------------------------------------------------------------------------*/
FoamFile
{
    version     2.0;
    format      ascii;
    class       volScalarField;
    location    "14.5";
    object      QWallFluidCoeff;
}
// * * * * * * * * * * * * * * * * * * * * * * * * * * * * * * * * * * * * * //

dimensions      [1 -1 -3 -1 0 0 0];

internalField   nonuniform List<scalar> 
114
(
-3.1605e+06
-1.62209e+06
-3.46912e+06
-1.54753e+06
-4.14412e+06
-1.94057e+06
0
0
0
0
0
0
0
0
0
0
0
0
0
0
0
-1.60816e+06
-2.83953e+06
-1.4596e+06
-2.87167e+06
-1.29411e+06
-2.87411e+06
-1.00583e+06
-2.59208e+06
-558855
0
0
0
0
0
0
0
0
0
0
0
0
0
0
0
0
0
0
0
0
-1.65763e+06
-2.92772e+06
-1.64996e+06
-3.10201e+06
-1.6774e+06
-3.41674e+06
-1.74516e+06
-4.02582e+06
-2.15413e+06
0
0
0
0
0
0
0
0
0
0
0
0
0
0
0
0
0
0
0
0
0
0
-3.78681e+06
-6.07399e+06
-3.91855e+06
-6.47354e+06
-4.06516e+06
-7.31788e+06
-4.05405e+06
-9.66398e+06
-4.83014e+06
-1.74058e+06
-2.89801e+06
-1.77995e+06
-2.988e+06
-1.7396e+06
-3.07919e+06
-1.84819e+06
-3.19554e+06
-2.64714e+06
-1.62614e+06
-2.82272e+06
-1.58724e+06
-2.87237e+06
-1.55623e+06
-2.90141e+06
-1.47882e+06
-2.85164e+06
-1.2227e+06
-1.52646e+06
-2.69284e+06
-1.51002e+06
-2.67033e+06
-1.4599e+06
-2.58265e+06
)
;

boundaryField
{
    inlet
    {
        type            calculated;
        value           nonuniform 0();
    }
    outlet
    {
        type            calculated;
        value           uniform 0;
    }
    wall
    {
        type            calculated;
        value           uniform 0;
    }
    procBoundary5to1
    {
        type            processor;
        value           uniform 0;
    }
    procBoundary5to4
    {
        type            processor;
        value           uniform 0;
    }
    procBoundary5to7
    {
        type            processor;
        value           uniform 0;
    }
}


// ************************************************************************* //
