/*--------------------------------*- C++ -*----------------------------------*\
| =========                 |                                                 |
| \\      /  F ield         | OpenFOAM: The Open Source CFD Toolbox           |
|  \\    /   O peration     | Version:  4.x                                   |
|   \\  /    A nd           | Web:      www.OpenFOAM.org                      |
|    \\/     M anipulation  |                                                 |
\*---------------------------------------------------------------------------*/
FoamFile
{
    version     2.0;
    format      ascii;
    class       volScalarField;
    location    "14.5";
    object      Sm;
}
// * * * * * * * * * * * * * * * * * * * * * * * * * * * * * * * * * * * * * //

dimensions      [1 -3 -1 0 0 0 0];

internalField   nonuniform List<scalar> 
114
(
6.81715e-65
8.05871e-65
6.35475e-65
6.74234e-65
7.59479e-65
8.4471e-65
6.8131e-65
5.65472e-65
5.81119e-65
6.66448e-65
8.21435e-65
8.52452e-65
7.90446e-65
8.4314e-65
6.03857e-65
7.51434e-65
5.73384e-65
4.57203e-65
7.28414e-65
5.42472e-65
8.67932e-65
6.34923e-65
4.80238e-65
6.97165e-65
5.42361e-65
6.43196e-65
6.81984e-65
7.12988e-65
5.6574e-65
5.96726e-65
7.04548e-65
6.81418e-65
8.5203e-65
7.12804e-65
8.36891e-65
8.13699e-65
5.26972e-65
8.60208e-65
6.89712e-65
8.20948e-65
4.56945e-65
7.2809e-65
7.59282e-65
6.1993e-65
7.05195e-65
7.12938e-65
6.89706e-65
5.57963e-65
9.91617e-65
4.41594e-65
6.66219e-65
8.21294e-65
6.74132e-65
7.36193e-65
6.97481e-65
6.89755e-65
6.66503e-65
7.28501e-65
6.58738e-65
5.4228e-65
8.36668e-65
6.04419e-65
7.12927e-65
7.1296e-65
7.05225e-65
9.14485e-65
6.43236e-65
5.50232e-65
6.89492e-65
6.35327e-65
6.89632e-65
5.96694e-65
1.01519e-64
7.36216e-65
8.21463e-65
8.91207e-65
8.67953e-65
4.80418e-65
9.37594e-65
8.98901e-65
7.98192e-65
2.63491e-65
6.89713e-65
4.57253e-65
7.13003e-65
6.04517e-65
4.96015e-65
6.9752e-65
6.2776e-65
6.04502e-65
6.35394e-65
6.58696e-65
4.33969e-65
5.65743e-65
7.44004e-65
6.51003e-65
4.57253e-65
7.05247e-65
6.0449e-65
6.12168e-65
6.4317e-65
8.52435e-65
6.9748e-65
5.88993e-65
8.05989e-65
6.50989e-65
6.74234e-65
6.81979e-65
7.36195e-65
5.65685e-65
7.12967e-65
5.58003e-65
9.68739e-65
7.7499e-65
)
;

boundaryField
{
    inlet
    {
        type            calculated;
        value           nonuniform 0();
    }
    outlet
    {
        type            calculated;
        value           uniform 0;
    }
    wall
    {
        type            calculated;
        value           uniform 0;
    }
    procBoundary5to1
    {
        type            processor;
        value           nonuniform List<scalar> 
32
(
7.97873e-65
5.73436e-65
8.44723e-65
7.05239e-65
5.7348e-65
4.18471e-65
5.64871e-65
6.119e-65
6.97357e-65
6.97457e-65
6.58712e-65
7.207e-65
4.41706e-65
6.33979e-65
5.10732e-65
9.0615e-65
8.29047e-65
8.75652e-65
6.81936e-65
7.90431e-65
3.48714e-65
6.57109e-65
5.26299e-65
8.05205e-65
8.05205e-65
8.05205e-65
7.0314e-65
9.97617e-65
9.97617e-65
9.97617e-65
5.72151e-65
5.72151e-65
)
;
    }
    procBoundary5to4
    {
        type            processor;
        value           nonuniform List<scalar> 
12
(
8.90462e-65
9.05752e-65
5.65402e-65
5.9655e-65
8.2129e-65
8.13509e-65
6.81832e-65
6.8193e-65
7.20828e-65
7.59463e-65
6.27702e-65
6.35478e-65
)
;
    }
    procBoundary5to7
    {
        type            processor;
        value           nonuniform List<scalar> 
44
(
7.82107e-65
6.4285e-65
6.7404e-65
1.03058e-64
1.03839e-64
7.98163e-65
5.65699e-65
8.36909e-65
9.91153e-65
7.82107e-65
6.43051e-65
7.3609e-65
6.7416e-65
6.8969e-65
8.60171e-65
8.4468e-65
7.36191e-65
3.95198e-65
6.43051e-65
8.52323e-65
6.43051e-65
7.3609e-65
5.03711e-65
5.8122e-65
7.36208e-65
6.04463e-65
5.81211e-65
8.05952e-65
7.36166e-65
6.81948e-65
5.03711e-65
5.19215e-65
5.03711e-65
5.8122e-65
5.50236e-65
6.43229e-65
6.12227e-65
6.89729e-65
5.81227e-65
7.67226e-65
7.43992e-65
5.19253e-65
5.50236e-65
3.87501e-65
)
;
    }
}


// ************************************************************************* //
