/*--------------------------------*- C++ -*----------------------------------*\
| =========                 |                                                 |
| \\      /  F ield         | OpenFOAM: The Open Source CFD Toolbox           |
|  \\    /   O peration     | Version:  4.x                                   |
|   \\  /    A nd           | Web:      www.OpenFOAM.org                      |
|    \\/     M anipulation  |                                                 |
\*---------------------------------------------------------------------------*/
FoamFile
{
    version     2.0;
    format      ascii;
    class       volVectorField;
    location    "14.5";
    object      Us;
}
// * * * * * * * * * * * * * * * * * * * * * * * * * * * * * * * * * * * * * //

dimensions      [0 1 -1 0 0 0 0];

internalField   nonuniform List<vector> 
114
(
(9.51695e-06 1.56215e-06 -2.15484e-06)
(3.61355e-06 1.30642e-06 -1.27385e-06)
(4.14374e-06 8.33687e-07 -1.01018e-06)
(2.57263e-06 3.5218e-07 -8.0843e-07)
(1.73736e-06 3.81412e-07 -7.60357e-07)
(9.05212e-07 -2.51055e-06 -3.35445e-07)
(1.0988e-05 2.52628e-06 -2.44908e-06)
(1.02329e-05 2.36023e-06 -2.72878e-06)
(5.3248e-06 1.82603e-06 -2.34891e-06)
(4.66953e-06 1.23974e-06 -1.84526e-06)
(2.25062e-06 5.87568e-07 -1.32703e-06)
(1.28804e-06 6.88344e-07 -1.02944e-06)
(5.17716e-07 -1.28446e-06 -3.93281e-07)
(1.69538e-05 3.37729e-06 -4.74314e-06)
(7.95834e-06 2.11559e-06 -3.76021e-06)
(5.92298e-06 2.29012e-06 -3.95401e-06)
(2.46186e-06 1.29265e-06 -3.17884e-06)
(1.42588e-06 1.176e-06 -2.32532e-06)
(-2.03953e-07 3.52007e-07 -1.83791e-06)
(-6.15292e-08 6.07963e-07 -1.34116e-06)
(-5.8948e-08 7.21739e-07 -4.91966e-07)
(2.01979e-05 1.43868e-06 -7.583e-07)
(1.64665e-05 2.33318e-07 -1.50303e-06)
(1.29754e-05 9.18024e-07 -1.83371e-06)
(9.84754e-06 1.09504e-06 -2.06758e-06)
(5.82661e-06 7.19999e-07 -1.82095e-06)
(5.96661e-06 4.56839e-07 -1.00363e-06)
(3.57377e-06 4.78939e-07 -8.33126e-07)
(1.45366e-06 3.55797e-07 -5.21266e-07)
(3.64209e-07 4.65977e-07 -1.20364e-07)
(2.53565e-05 1.81535e-06 -2.60504e-06)
(1.93257e-05 4.61497e-07 -3.10446e-06)
(1.18779e-05 1.47914e-06 -2.43687e-06)
(1.19957e-05 1.88902e-06 -1.93706e-06)
(6.15718e-06 9.93461e-07 -1.64599e-06)
(5.01578e-06 7.4861e-07 -1.61363e-06)
(1.72802e-06 8.53793e-07 -1.33435e-06)
(1.7446e-06 9.50423e-07 -1.1401e-06)
(7.87405e-07 3.5242e-07 -2.3539e-07)
(1.75815e-05 2.79311e-06 -3.49006e-06)
(1.57254e-05 1.93361e-06 -4.26454e-06)
(8.88138e-06 1.54828e-06 -2.97232e-06)
(7.45614e-06 1.69342e-06 -2.70065e-06)
(2.85166e-06 1.11046e-06 -2.13045e-06)
(2.31216e-06 8.35592e-07 -2.08643e-06)
(3.40004e-07 4.58724e-07 -1.49733e-06)
(7.25929e-07 5.05753e-07 -1.25558e-06)
(8.07465e-07 3.14211e-07 -4.71041e-07)
(1.69827e-05 4.42422e-06 -4.53006e-06)
(1.3717e-05 2.04074e-06 -4.29225e-06)
(2.59314e-05 2.60445e-06 -1.32802e-06)
(1.91859e-05 6.86072e-07 -2.02841e-06)
(1.4798e-05 -4.45744e-08 -1.68374e-06)
(1.00811e-05 4.71765e-07 -1.22448e-06)
(7.54681e-06 2.42334e-07 -1.47209e-06)
(5.54053e-06 8.01929e-07 -6.07763e-07)
(4.20086e-06 5.52288e-07 -6.49806e-07)
(3.28489e-06 7.05574e-07 -7.06823e-07)
(1.29525e-06 1.4214e-07 -8.28281e-08)
(2.72872e-05 2.22197e-06 -2.26484e-06)
(2.55834e-05 1.29006e-06 -3.30693e-06)
(1.71656e-05 1.10692e-06 -1.51859e-06)
(1.56813e-05 1.6098e-06 -1.96985e-06)
(8.32048e-06 6.14605e-07 -1.96022e-06)
(6.72111e-06 9.9026e-07 -1.03747e-06)
(4.92993e-06 9.85925e-07 -8.73855e-07)
(3.84067e-06 1.17031e-06 -1.12025e-06)
(1.90238e-06 -1.69549e-07 -3.42805e-07)
(2.26602e-05 2.3575e-06 -2.33467e-06)
(2.11148e-05 1.85686e-06 -4.35689e-06)
(1.28251e-05 2.06422e-06 -3.06048e-06)
(1.16891e-05 1.71921e-06 -3.04297e-06)
(6.91347e-06 1.0184e-06 -1.80906e-06)
(4.98588e-06 4.48998e-07 -1.96865e-06)
(2.19259e-06 2.4482e-07 -1.26034e-06)
(2.19393e-06 2.40923e-07 -1.15048e-06)
(1.09031e-06 -7.71888e-08 -5.26049e-07)
(2.44577e-05 3.52485e-06 -4.72861e-06)
(2.10249e-05 2.46867e-06 -4.05108e-06)
(1.16994e-05 2.21837e-06 -3.37244e-06)
(1.03376e-05 1.90435e-06 -2.7334e-06)
(1.42146e-05 8.45266e-07 -9.40136e-07)
(1.4084e-05 1.35467e-07 -1.0804e-06)
(1.3898e-05 1.60799e-06 -3.89683e-07)
(8.03944e-06 2.54313e-07 -1.77946e-07)
(4.66256e-06 2.91292e-07 -8.32881e-07)
(4.69417e-06 7.71202e-07 -4.0607e-07)
(3.90369e-06 4.8673e-07 -4.64467e-07)
(3.3833e-06 3.57238e-07 -6.49959e-07)
(1.6074e-06 3.13462e-08 -3.58702e-07)
(2.35403e-05 1.98202e-06 -6.77159e-07)
(2.02413e-05 2.75496e-07 -1.55092e-06)
(8.24812e-05 -1.99933e-05 -1.73531e-05)
(1.86492e-05 3.00577e-06 -1.46499e-06)
(-3.00266e-06 -1.04365e-05 -1.51204e-06)
(4.06788e-06 4.81842e-07 -7.28925e-07)
(5.05289e-06 4.28635e-07 -2.98411e-07)
(3.59486e-06 5.3512e-07 -4.32072e-07)
(1.59326e-06 -1.11184e-07 -3.38731e-07)
(1.91322e-05 2.93032e-07 -9.88326e-07)
(1.80446e-05 2.37145e-07 -2.55319e-06)
(8.7336e-06 -4.92294e-08 -2.5824e-06)
(1.30833e-05 1.31079e-06 -1.98592e-06)
(3.71169e-06 -2.90419e-06 -8.71353e-07)
(4.55761e-06 2.04688e-07 -1.32899e-06)
(2.83488e-06 3.37638e-08 -8.65468e-07)
(2.02442e-06 3.04245e-08 -6.89033e-07)
(1.26381e-06 -2.25113e-07 -4.25718e-07)
(1.56361e-05 5.56843e-07 -7.2014e-07)
(1.60746e-05 6.95189e-07 -2.41149e-06)
(8.87779e-06 -3.4375e-07 -1.65541e-06)
(9.62987e-06 6.20279e-07 -1.63575e-06)
(6.16187e-06 3.78928e-07 -1.02115e-06)
(3.0351e-06 -2.03424e-08 -1.24792e-06)
)
;

boundaryField
{
    inlet
    {
        type            zeroGradient;
    }
    outlet
    {
        type            zeroGradient;
    }
    wall
    {
        type            zeroGradient;
    }
    procBoundary5to1
    {
        type            processor;
        value           nonuniform List<vector> 
32
(
(8.42048e-06 1.72593e-06 -2.13151e-06)
(4.50718e-06 1.24625e-06 -1.17605e-06)
(2.941e-06 6.96612e-07 -7.8394e-07)
(2.63561e-06 4.43081e-07 -6.88574e-07)
(1.98224e-06 5.18536e-07 -6.91977e-07)
(5.57038e-07 4.0708e-07 -2.76485e-07)
(9.13373e-06 1.68561e-06 -3.26129e-06)
(7.93445e-06 1.3938e-06 -3.8176e-06)
(4.05735e-06 1.58143e-06 -2.38872e-06)
(3.12158e-06 8.56521e-07 -1.43898e-06)
(1.51669e-06 9.10173e-07 -1.21502e-06)
(7.44129e-07 5.41758e-07 -1.21739e-06)
(-2.2253e-07 1.5904e-08 -3.1736e-07)
(1.19237e-05 4.33483e-06 -5.40586e-06)
(5.47723e-06 2.14555e-06 -4.42746e-06)
(4.28843e-06 1.86724e-06 -4.63892e-06)
(5.97719e-07 1.15277e-06 -3.63584e-06)
(1.60541e-07 1.06563e-06 -2.86742e-06)
(-2.76616e-07 7.33741e-07 -2.02241e-06)
(-3.16265e-07 5.97018e-07 -1.4238e-06)
(-7.23625e-07 -1.23289e-07 -4.61489e-07)
(1.47785e-05 1.48287e-06 -3.19772e-06)
(1.26292e-05 -3.89698e-07 -5.67449e-07)
(1.08426e-05 6.8614e-07 -1.3556e-06)
(1.08426e-05 6.8614e-07 -1.3556e-06)
(1.08426e-05 6.8614e-07 -1.3556e-06)
(2.31468e-05 3.35174e-06 -4.1749e-06)
(1.97468e-05 1.6683e-06 -3.86231e-06)
(1.97468e-05 1.6683e-06 -3.86231e-06)
(1.97468e-05 1.6683e-06 -3.86231e-06)
(1.75162e-05 3.70795e-06 -4.49197e-06)
(1.75162e-05 3.70795e-06 -4.49197e-06)
)
;
    }
    procBoundary5to4
    {
        type            processor;
        value           nonuniform List<vector> 
12
(
(2.82864e-05 -2.91773e-06 -5.07306e-06)
(4.59624e-05 -6.25603e-06 -1.036e-05)
(2.90581e-05 3.28158e-06 -5.48238e-06)
(2.87605e-05 3.403e-06 -3.92899e-06)
(2.79315e-05 1.44509e-06 -2.70368e-06)
(3.65008e-05 -2.3191e-07 -2.3965e-06)
(3.54175e-05 2.00593e-06 -3.60053e-06)
(3.03669e-05 2.48756e-06 -2.17583e-06)
(2.03603e-05 2.2182e-06 -4.80156e-07)
(2.19213e-05 8.31777e-07 -3.73375e-07)
(2.27735e-05 4.28305e-07 -2.05508e-06)
(2.4088e-05 5.2032e-07 -1.94987e-06)
)
;
    }
    procBoundary5to7
    {
        type            processor;
        value           nonuniform List<vector> 
44
(
(1.31753e-05 4.29072e-06 -6.36342e-06)
(7.61342e-06 2.34756e-06 -4.89631e-06)
(5.04637e-06 2.09726e-06 -4.787e-06)
(1.67834e-06 1.43528e-06 -3.34585e-06)
(1.11081e-06 1.65481e-06 -2.62693e-06)
(-3.59276e-07 6.57749e-07 -2.08453e-06)
(-3.45484e-07 4.03014e-07 -1.38621e-06)
(-2.20476e-07 2.40969e-07 -7.45794e-07)
(1.6522e-05 4.42486e-06 -6.0518e-06)
(1.31753e-05 4.29072e-06 -6.36342e-06)
(8.16945e-06 1.45283e-06 -3.95984e-06)
(8.92081e-06 3.49086e-06 -3.30857e-06)
(1.03335e-05 6.84351e-06 -1.28996e-06)
(1.98731e-06 9.80134e-07 -2.21167e-06)
(5.01856e-07 6.85824e-07 -1.75966e-06)
(4.74609e-07 4.35272e-07 -1.27739e-06)
(3.20885e-07 1.87956e-07 -5.27179e-07)
(1.43583e-05 3.78641e-06 -5.85634e-06)
(8.16945e-06 1.45283e-06 -3.95984e-06)
(1.44713e-05 3.01768e-06 -5.2016e-06)
(8.16945e-06 1.45283e-06 -3.95984e-06)
(8.92081e-06 3.49086e-06 -3.30857e-06)
(8.06104e-06 3.68752e-06 -1.52174e-06)
(4.39603e-06 4.81759e-07 -2.14289e-06)
(1.83844e-06 5.68895e-07 -1.49709e-06)
(1.49973e-06 2.52696e-07 -1.15623e-06)
(4.65638e-07 -4.78211e-08 -3.27942e-07)
(2.36605e-05 2.82512e-06 -4.26507e-06)
(1.79374e-05 2.54979e-06 -4.82451e-06)
(1.16247e-05 2.52489e-06 -2.50299e-06)
(8.06104e-06 3.68752e-06 -1.52174e-06)
(1.00083e-05 1.5776e-06 -2.30662e-06)
(8.06104e-06 3.68752e-06 -1.52174e-06)
(4.39603e-06 4.81759e-07 -2.14289e-06)
(2.13182e-06 7.65944e-08 -1.29874e-06)
(1.09213e-06 1.66829e-07 -7.79425e-07)
(7.82368e-07 -7.93501e-08 -3.09636e-07)
(2.47681e-05 -1.02304e-06 -1.68123e-06)
(1.77587e-05 7.87108e-07 -2.77208e-06)
(9.45778e-06 1.00538e-06 -1.9249e-06)
(8.01386e-06 7.19415e-07 -1.2587e-06)
(5.60295e-06 5.47369e-08 -9.32858e-07)
(2.13182e-06 7.65944e-08 -1.29874e-06)
(4.57387e-06 -1.24423e-07 -6.21712e-07)
)
;
    }
}


// ************************************************************************* //
