/*--------------------------------*- C++ -*----------------------------------*\
  =========                 |
  \\      /  F ield         | OpenFOAM: The Open Source CFD Toolbox
   \\    /   O peration     | Website:  https://openfoam.org
    \\  /    A nd           | Version:  4.x
     \\/     M anipulation  |
\*---------------------------------------------------------------------------*/
FoamFile
{
    version     2.0;
    format      ascii;
    class       Cloud<passiveParticle>;
    location    0;
    object      positions;
}
// * * * * * * * * * * * * * * * * * * * * * * * * * * * * * * * * * * * * * //

356
(
( 0.0742949 -0.0554362 -0.0596096 ) 41
( 0.0860916 -0.0205651 -0.0290967 ) 83
( 0.249932 -0.0571543 -0.0378098 ) 79
( 0.0502533 -0.0383898 -0.0671909 ) 49
( 0.177235 -0.0798296 -0.0518086 ) 36
( 0.0524142 -0.0752683 -0.0488929 ) 31
( 0.192996 -0.0267569 -0.0537282 ) 54
( 0.1454 -0.0834328 -0.0261731 ) 67
( 0.0553106 -0.0674284 -0.0310024 ) 72
( 0.0535464 -0.0265578 -0.0263238 ) 81
( 0.0098114 -0.0395225 -0.0345471 ) 80
( 0.217686 -0.0898215 -0.0610194 ) 37
( 0.203164 -0.0500796 -0.0423793 ) 78
( 0.212025 -0.0255541 -0.0483753 ) 55
( 0.0789855 -0.0210732 -0.0557683 ) 50
( 0.176403 -0.0714175 -0.0698405 ) 45
( 0.186312 -0.0423426 -0.0350519 ) 86
( 0.194252 -0.014835 -0.0696204 ) 54
( 0.109195 -0.0279596 -0.0582709 ) 51
( 0.226061 -0.0496252 -0.0705975 ) 47
( 0.241904 -0.0204822 -0.0591098 ) 56
( 0.242121 -0.0704485 -0.0256058 ) 79
( 0.074333 -0.0367007 -0.028848 ) 82
( 0.137482 -0.0446858 -0.039354 ) 75
( 0.204445 -0.0530935 -0.0637251 ) 46
( 0.0958631 -0.0517332 -0.0335088 ) 74
( 0.0620296 -0.0407753 -0.0437379 ) 50
( 0.215486 -0.0645734 -0.0517717 ) 46
( 0.027296 -0.0143401 -0.0498431 ) 48
( 0.0791351 -0.0729912 -0.0508552 ) 32
( 0.204782 -0.0731438 -0.0374659 ) 69
( 0.119506 -0.0384532 -0.0448935 ) 52
( 0.232788 -0.0560224 -0.0473954 ) 47
( 0.026637 -0.0169546 -0.0301827 ) 80
( 0.138794 -0.057497 -0.0244261 ) 75
( 0.0278802 -0.0765904 -0.036676 ) 63
( 0.141186 -0.0201962 -0.0702922 ) 53
( 0.0384785 -0.0747784 -0.0629057 ) 31
( 0.107965 -0.0802284 -0.0393424 ) 65
( 0.0730009 -0.0766509 -0.0323916 ) 64
( 0.110853 -0.0786139 -0.0197719 ) 65
( 0.135447 -0.0456547 -0.0684011 ) 43
( 0.149411 -0.049188 -0.0546037 ) 44
( 0.240157 -0.0356012 -0.0718081 ) 26
( 0.171179 -0.0274831 -0.0687416 ) 54
( 0.127288 -0.0901816 -0.0207486 ) 66
( 0.233586 -0.0753103 -0.052791 ) 38
( 0.0365974 -0.0626317 -0.0474257 ) 40
( 0.172194 -0.0571399 -0.0515074 ) 45
( 0.107372 -0.0761155 -0.0662805 ) 33
( 0.0937393 -0.0217314 -0.0690172 ) 51
( 0.138297 -0.087825 -0.0550487 ) 34
( 0.187984 -0.0628713 -0.0404597 ) 77
( 0.133251 -0.0181697 -0.0413375 ) 84
( 0.083548 -0.0383016 -0.0646933 ) 51
( 0.112635 -0.0200354 -0.040413 ) 84
( 0.0985258 -0.0584662 -0.06724 ) 42
( 0.150505 -0.0110697 -0.0348452 ) 94
( 0.0401988 -0.0265874 -0.0411157 ) 81
( 0.0666115 -0.0217681 -0.0404516 ) 82
( 0.0341839 -0.0347969 -0.0243225 ) 81
( 0.14875 -0.0793805 -0.0696042 ) 35
( 0.0114753 -0.0272421 -0.0627594 ) 48
( 0.0976304 -0.0660322 -0.0487538 ) 42
( 0.128889 -0.0732969 -0.0308473 ) 66
( 0.00964793 -0.00690682 -0.0306492 ) 89
( 0.23969 -0.0432024 -0.0281777 ) 79
( 0.149991 -0.0624441 -0.0398162 ) 76
( 0.166715 -0.0709259 -0.0333789 ) 77
( 0.200239 -0.0861296 -0.0517074 ) 37
( 0.160755 -0.0281165 -0.0351805 ) 85
( 0.189252 -0.035304 -0.0713411 ) 54
( 0.121315 -0.00644101 -0.0520012 ) 61
( 0.187425 -0.0824466 -0.0351178 ) 68
( 0.0275488 -0.0474671 -0.0382261 ) 71
( 0.0544965 -0.0580077 -0.0586482 ) 40
( 0.0304364 -0.0900414 -0.0511394 ) 31
( 0.0823613 -0.0437116 -0.0456186 ) 41
( 0.157508 -0.0252551 -0.0545301 ) 53
( 0.138882 -0.0319444 -0.054444 ) 52
( 0.0841509 -0.09015 -0.042101 ) 65
( 0.0328281 -0.0308056 -0.0595118 ) 49
( 0.0498612 -0.00882584 -0.0361519 ) 90
( 0.0910704 -0.0364848 -0.0182503 ) 83
( 0.0185976 -0.00910922 -0.0668566 ) 57
( 0.0703454 -0.0585703 -0.0403355 ) 73
( 0.0534621 -0.0228908 -0.0552393 ) 49
( 0.174906 -0.032688 -0.0482271 ) 54
( 0.00991516 -0.0641515 -0.0350734 ) 71
( 0.00990646 -0.0802136 -0.0232054 ) 62
( 0.200321 -0.0502759 -0.0227523 ) 78
( 0.123691 -0.0552115 -0.0556196 ) 43
( 0.187004 -0.0901164 -0.0658839 ) 36
( 0.237103 -0.0901051 -0.0656464 ) 38
( 0.11494 -0.0616498 -0.0390375 ) 75
( 0.0654347 -0.0145642 -0.0688052 ) 50
( 0.00990388 -0.0628663 -0.0617891 ) 39
( 0.0977504 -0.0328904 -0.0391851 ) 83
( 0.224895 -0.0729819 -0.03513 ) 70
( 0.177262 -0.0566453 -0.0249624 ) 77
( 0.224311 -0.0261875 -0.0329174 ) 88
( 0.20808 -0.0308306 -0.0670473 ) 55
( 0.0435649 -0.0794476 -0.0202869 ) 63
( 0.216668 -0.0900798 -0.04117 ) 69
( 0.243079 -0.0902313 -0.043725 ) 38
( 0.0262393 -0.0614387 -0.0240688 ) 71
( 0.0968633 -0.0142086 -0.0508447 ) 60
( 0.20947 -0.0732447 -0.0685458 ) 37
( 0.12646 -0.0683998 -0.0707329 ) 43
( 0.196465 -0.0903056 -0.0194141 ) 69
( 0.169593 -0.0902753 -0.0311157 ) 68
( 0.154347 -0.0877658 -0.043453 ) 35
( 0.179863 -0.023353 -0.0295155 ) 86
( 0.192718 -0.0687867 -0.058777 ) 45
( 0.0797493 -0.0548172 -0.0225161 ) 73
( 0.233942 -0.0678952 -0.0711998 ) 47
( 0.121657 -0.0747348 -0.0525147 ) 34
( 0.188231 -0.0460736 -0.0546614 ) 45
( 0.235421 -0.0359121 -0.0462195 ) 56
( 0.163248 -0.0480587 -0.0363428 ) 76
( 0.0584017 -0.0900874 -0.0631119 ) 32
( 0.216264 -0.0900183 -0.0213863 ) 69
( 0.121401 -0.0901156 -0.0651675 ) 34
( 0.15015 -0.0400014 -0.0233752 ) 85
( 0.043522 -0.044251 -0.0494733 ) 40
( 0.00989452 -0.021904 -0.0436838 ) 48
( 0.16139 -0.0574927 -0.0681332 ) 44
( 0.12164 -0.0168191 -0.0690163 ) 52
( 0.124489 -0.029627 -0.0278868 ) 84
( 0.103118 -0.0471767 -0.051714 ) 42
( 0.20341 -0.0329867 -0.0322266 ) 87
( 0.0446489 -0.0900535 -0.0371021 ) 63
( 0.11449 -0.0438224 -0.0690513 ) 43
( 0.0100177 -0.0448257 -0.0535589 ) 39
( 0.0965269 -0.0902405 -0.0267844 ) 65
( 0.02793 -0.0501186 -0.0603144 ) 40
( 0.0782178 -0.0900524 -0.0610722 ) 32
( 0.0623543 -0.00559708 -0.0513192 ) 59
( 0.0644789 -0.0902175 -0.0442062 ) 32
( 0.119629 -0.0594931 -0.0199412 ) 75
( 0.00972248 -0.0236963 -0.0203814 ) 80
( 0.117929 -0.00258919 -0.0328525 ) 93
( 0.0111144 -0.08241 -0.0584404 ) 30
( 0.220084 -0.0496512 -0.0320661 ) 78
( 0.00985456 -0.00304132 -0.0500942 ) 57
( 0.13089 -0.0420916 0.0067696 ) 118
( 0.110703 -0.0513019 -0.00414669 ) 108
( 0.126402 -0.0172234 0.00203579 ) 118
( 0.17046 -0.0737945 0.00156719 ) 102
( 0.0585519 -0.0723168 0.000459548 ) 98
( 0.0397893 -0.00708699 -0.0191434 ) 90
( 0.225965 -0.0427463 -0.00186957 ) 122
( 0.13421 -0.0623987 0.00495204 ) 109
( 0.0216977 -0.0121393 0.00505631 ) 123
( 0.208185 -0.0191052 -0.0168995 ) 87
( 0.124893 0.00574646 0.00182189 ) 127
( 0.190611 -0.0340521 -0.0167359 ) 86
( 0.0607706 -0.0107531 -0.00638833 ) 125
( 0.0199482 -0.0337314 0.00797542 ) 114
( 0.159936 -0.00404115 -0.0129261 ) 128
( 0.082775 -0.00871493 0.00347402 ) 125
( 0.122436 -0.0126822 -0.0166393 ) 93
( 0.0561905 -0.0565064 0.0138283 ) 107
( 0.110723 -0.0356945 0.00805191 ) 117
( 0.163277 -0.0374339 0.0137026 ) 119
( 0.239506 -0.0566986 0.000919474 ) 113
( 0.0910638 -0.0432625 0.000378253 ) 108
( 0.206257 -0.0618182 0.0114897 ) 112
( 0.205785 -0.0496761 -0.00381779 ) 112
( 0.143207 -0.00865356 -0.00344576 ) 128
( 0.15074 -0.0739161 0.00327952 ) 101
( 0.161988 -0.0901753 0.00874238 ) 101
( 0.186403 -0.0488595 0.0119257 ) 111
( 0.228164 -0.0763511 0.00986976 ) 104
( 0.0353559 -0.0823317 -0.00152261 ) 97
( 0.235024 -0.0353449 0.0137203 ) 122
( 0.176858 -0.0174239 -0.0101309 ) 120
( 0.0382694 -0.0335918 0.000346723 ) 115
( 0.219236 -0.0643885 -0.00281362 ) 112
( 0.0563905 -0.0208846 0.00993876 ) 116
( 0.221716 -0.0902149 -0.00242643 ) 103
( 0.0262122 -0.0646193 -0.00189262 ) 105
( 0.214575 -0.0378691 -0.0169476 ) 87
( 0.09611 -0.0239543 0.0012559 ) 117
( 0.168946 -0.0184328 0.00807846 ) 120
( 0.101327 -0.0713741 0.00560594 ) 108
( 0.150306 -0.0515152 0.00834663 ) 110
( 0.0563536 -0.0306797 -0.00717528 ) 116
( 0.238573 -0.0749264 -0.00672299 ) 104
( 0.158395 -0.0398416 -0.00523308 ) 119
( 0.0789697 -0.0902148 -0.0177908 ) 64
( 0.213264 -0.0130848 0.00141873 ) 130
( 0.0714965 -0.0901465 0.000486987 ) 98
( 0.193559 -0.0129951 -0.00053274 ) 129
( 0.118269 -0.0308318 -0.00935397 ) 118
( 0.206096 -0.0784513 -0.00703282 ) 103
( 0.179323 -0.0809816 -0.0150478 ) 68
( 0.0951476 -0.0901107 0.0123834 ) 99
( 0.0742732 -0.0714905 -0.0133867 ) 98
( 0.149164 -0.0902577 -0.00782396 ) 101
( 0.118306 -0.0902141 -0.00308286 ) 100
( 0.169348 -0.0540316 0.00339363 ) 111
( 0.015082 -0.0902542 -0.00691147 ) 96
( 0.00982988 -0.0843384 0.0111178 ) 96
( 0.190932 -0.0683198 0.000710857 ) 111
( 0.183935 -0.0318633 0.00184118 ) 120
( 0.247348 -0.0414086 -0.00901451 ) 122
( 0.139175 -0.0237236 -0.0158735 ) 85
( 0.00985851 -0.0509832 0.0024263 ) 105
( 0.109955 -0.00686513 -0.00230254 ) 126
( 0.134731 -0.0900507 0.00826597 ) 100
( 0.0656002 -0.00337784 0.011931 ) 125
( 0.0529213 -0.0901724 -0.00638622 ) 97
( 0.071051 -0.0490846 0.00296454 ) 107
( 0.0423322 -0.0707281 0.0130213 ) 106
( 0.0180921 -0.00457682 -0.0128717 ) 123
( 0.230531 -0.056196 -0.0165906 ) 79
( 0.0745147 -0.0287318 0.00460973 ) 116
( 0.185631 -0.0511665 -0.0077889 ) 111
( 0.203566 -0.030227 -0.00115087 ) 121
( 0.160241 -0.0757727 -0.0153311 ) 67
( 0.13368 -0.0425421 -0.012698 ) 118
( 0.0414694 -0.0134511 -0.00049617 ) 124
( 0.181591 -0.0902526 0.00216028 ) 102
( 0.182052 0.00900671 -0.0387627 ) 95
( 0.0877927 0.0117645 -0.0413285 ) 92
( 0.135551 0.0142243 -0.0561537 ) 61
( 0.0586211 0.00902269 -0.024431 ) 91
( 0.00979415 0.0117269 -0.020492 ) 89
( 0.0781752 0.00488104 -0.0572381 ) 59
( 0.124088 0.00380589 -0.0687652 ) 61
( 0.148095 0.013377 -0.031042 ) 94
( 0.0433049 0.0103482 -0.0368446 ) 90
( 0.11356 0.0111014 -0.0463179 ) 61
( 0.0549279 0.0121094 -0.0563216 ) 58
( 0.105466 -0.000573997 -0.0624176 ) 60
( 0.177054 0.00186932 -0.0049146 ) 129
( 0.0110427 0.010079 -0.000647402 ) 123
( 0.0869376 0.0111522 -0.00729092 ) 126
( 0.0435379 0.0110333 -0.0116996 ) 124
( 0.209485 0.00574124 -0.0025974 ) 130
( 0.0630062 0.00877129 -0.00500719 ) 125
( 0.10022 0.00418611 0.0121184 ) 126
( 0.14605 0.0088771 0.005202 ) 128
( 0.10769 0.0127059 -0.00532878 ) 126
( 0.153193 0.0142688 -0.0120454 ) 128
( 0.165941 0.00122062 0.0114772 ) 128
( 0.0330672 0.00394785 0.00353893 ) 124
( 0.13984 -0.0676313 -0.0559909 ) 44
( 0.0665657 -0.00902202 -0.025388 ) 91
( 0.00997889 -0.0901547 -0.0402908 ) 62
( 0.0479231 -0.0486986 -0.0281947 ) 72
( 0.0789637 -0.00608508 -0.0406316 ) 91
( 0.082498 -0.0655054 0.0034243 ) 107
( 0.00987362 0.00866794 -0.0662017 ) 57
( 0.235141 0.00625587 -0.0136787 ) 131
( 0.153813 -0.0372788 -0.0699215 ) 53
( 0.163205 -0.0901983 -0.0611744 ) 35
( 0.043564 -0.00575116 -0.0574297 ) 58
( 0.125119 -0.0902015 -0.0405155 ) 66
( 0.0244206 0.00535122 -0.0342532 ) 89
( 0.093001 -0.0710094 -0.0300208 ) 74
( 0.0736123 -0.0235299 -0.0141406 ) 116
( 0.105635 0.0116377 -0.0265084 ) 92
( 0.0274779 0.00520361 -0.0537838 ) 57
( 0.0492158 -0.0617839 -0.0131951 ) 106
( 0.248975 -0.0474013 -0.0551059 ) 47
( 0.0973054 -0.00481916 -0.033346 ) 92
( 0.0996807 -0.090099 -0.0544733 ) 33
( 0.150161 -0.0251297 0.00490737 ) 119
( 0.173682 -0.00466483 -0.0270034 ) 95
( 0.21847 -0.0436705 -0.053227 ) 46
( 0.192326 0.00532922 0.00726495 ) 129
( 0.231479 -0.0203976 0.00184805 ) 122
( 0.135616 0.00155638 -0.0408038 ) 93
( 0.0973063 -0.0635766 -0.0121515 ) 108
( 0.0602919 -0.0898436 -0.0247663 ) 64
( 0.2129 -0.0655408 -0.0212872 ) 78
( 0.191716 -0.00846041 -0.0199202 ) 95
( 0.151766 -0.0588257 -0.00979483 ) 110
( 0.078527 0.00674172 -0.0246045 ) 91
( 0.0270908 -0.0902402 -0.0225944 ) 62
( 0.192935 -0.0685452 -0.0220871 ) 77
( 0.126606 0.0130706 -0.0244657 ) 93
( 0.109447 -0.0427674 -0.0222779 ) 83
( 0.103403 -0.0208566 -0.0177665 ) 83
( 0.158985 -0.0233658 -0.0160757 ) 85
( 0.159297 -0.0718809 -0.0545117 ) 35
( 0.00984191 -0.0632347 -0.0130734 ) 105
( 0.0629153 -0.047586 -0.0151162 ) 73
( 0.0270527 -0.0221243 -0.0110192 ) 114
( 0.170637 -0.0386368 -0.0205921 ) 86
( 0.13925 -0.00180445 -0.0215001 ) 94
( 0.236305 -0.0901164 -0.0192987 ) 70
( 0.118592 -0.0704785 -0.00362863 ) 109
( 0.0896657 -0.00685111 -0.0150677 ) 92
( 0.232639 -0.0298075 -0.015421 ) 88
( 0.0343764 -0.0491774 -0.0109273 ) 106
( 0.0106227 -0.0427107 -0.0152116 ) 80
( 0.136513 -0.0751191 -0.0104252 ) 100
( 0.193322 0.00992106 -0.0127984 ) 129
( 0.0988758 -0.0892486 -0.00708694 ) 99
( 0.037569 -0.0519231 0.00856278 ) 106
( 0.144031 -0.0614907 -0.0769262 ) 14
( 0.173226 -0.0449857 -0.0780669 ) 15
( 0.0858362 -0.0736474 -0.0694972 ) 33
( 0.00990519 -0.0445518 -0.0734303 ) 9
( 0.0408064 -0.0584748 -0.0739094 ) 10
( 0.0561597 -0.0725098 -0.0721287 ) 2
( 0.0673439 -0.0441244 -0.0755035 ) 11
( 0.0422576 -0.090161 -0.0747759 ) 1
( 0.205195 -0.0901711 -0.0779673 ) 7
( 0.244478 -0.0533166 -0.0797006 ) 17
( 0.224632 -0.0236392 -0.075399 ) 26
( 0.0774348 -0.0263801 -0.0794616 ) 20
( 0.223736 -0.0831124 -0.0788124 ) 8
( 0.0215749 -0.0742365 -0.0732737 ) 0
( 0.0854145 -0.0509171 -0.0800417 ) 12
( 0.109103 -0.028001 -0.0799206 ) 21
( 0.209778 -0.0448751 -0.0810876 ) 16
( 0.192268 -0.0612075 -0.0771971 ) 15
( 0.172031 -0.0899117 -0.0789956 ) 6
( 0.128622 -0.0315685 -0.0806691 ) 22
( 0.0432537 -0.01932 -0.0719762 ) 19
( 0.134222 -0.0879119 -0.0802322 ) 4
( 0.0333962 -0.0403814 -0.0775229 ) 19
( 0.11242 -0.0592821 -0.0814623 ) 13
( 0.0700941 -0.0898513 -0.0792705 ) 2
( 0.0220377 -0.0241683 -0.0793715 ) 18
( 0.095924 -0.0901396 -0.0743678 ) 3
( 0.188817 -0.0799577 -0.082945 ) 6
( 0.161224 -0.0710794 -0.0827202 ) 14
( 0.206374 -0.0209569 -0.0842641 ) 25
( 0.159244 -0.0247887 -0.0844808 ) 23
( 0.0722418 -0.0658027 -0.0817995 ) 11
( 0.022928 -0.0565915 -0.0824579 ) 9
( 0.0578272 -0.0279448 -0.0824077 ) 20
( 0.0343415 0.00089149 -0.0737566 ) 28
( 0.0544666 -0.00839353 -0.0842946 ) 28
( 0.218605 -0.0632078 -0.0831179 ) 16
( 0.113413 -0.0854741 -0.0828288 ) 4
( 0.144285 -0.0437935 -0.0861647 ) 14
( 0.241858 -0.0207982 -0.0850463 ) 26
( 0.0099416 -0.0900534 -0.0767515 ) 0
( 0.0948391 -0.0674481 -0.0861396 ) 12
( 0.228251 -0.0391588 -0.0874187 ) 26
( 0.0615613 0.00985959 -0.0878136 ) 29
( 0.0372768 -0.0741857 -0.0856084 ) 1
( 0.153303 -0.090061 -0.0857647 ) 5
( 0.0505626 -0.046114 -0.0860252 ) 10
( 0.00989572 -0.00186678 -0.0831818 ) 27
( 0.191277 -0.0449222 -0.088663 ) 15
( 0.0350507 -0.0122634 -0.0887212 ) 28
( 0.00991135 -0.0702436 -0.0888817 ) 9
( 0.0927623 -0.0347413 -0.0890729 ) 21
( 0.0256975 -0.0900573 -0.0889499 ) 0
)
