/*--------------------------------*- C++ -*----------------------------------*\
| =========                 |                                                 |
| \\      /  F ield         | OpenFOAM: The Open Source CFD Toolbox           |
|  \\    /   O peration     | Version:  4.x                                   |
|   \\  /    A nd           | Web:      www.OpenFOAM.org                      |
|    \\/     M anipulation  |                                                 |
\*---------------------------------------------------------------------------*/
FoamFile
{
    version     2.0;
    format      ascii;
    class       volVectorField;
    location    "40";
    object      DDtUrel;
}
// * * * * * * * * * * * * * * * * * * * * * * * * * * * * * * * * * * * * * //

dimensions      [0 1 -2 0 0 0 0];

internalField   nonuniform List<vector> 
132
(
(0.00184805 -6.69381e-05 -0.000179031)
(0.00123489 -3.69983e-05 -0.000100183)
(0.000859504 -9.54479e-06 -3.9264e-05)
(0.00065247 7.17903e-06 -2.38455e-06)
(0.000505871 1.65529e-05 1.53506e-05)
(0.000423227 2.02124e-05 2.27075e-05)
(0.000345431 2.30545e-05 2.03741e-05)
(0.000315378 2.98996e-05 2.28395e-05)
(0.000265595 3.94687e-05 1.8151e-05)
(0.00181447 -7.71194e-05 -0.000182526)
(0.00118977 -3.93036e-05 -9.98604e-05)
(0.000811333 -1.03574e-05 -4.01993e-05)
(0.000601713 6.35564e-06 -3.7615e-06)
(0.000456512 1.41044e-05 1.59309e-05)
(0.000377234 1.49808e-05 2.49576e-05)
(0.000302601 1.217e-05 2.53203e-05)
(0.000270167 1.88622e-05 2.70604e-05)
(0.00022132 2.52735e-05 1.84274e-05)
(0.00178097 -5.5536e-05 -0.000186089)
(0.00114637 -2.75873e-05 -9.97289e-05)
(0.000764943 -8.52431e-06 -3.98623e-05)
(0.000548159 5.31957e-06 -3.3781e-06)
(0.000405129 1.07835e-05 1.64251e-05)
(0.000325768 1.11152e-05 2.88585e-05)
(0.000253837 1.10799e-05 3.2508e-05)
(0.000217135 1.34257e-05 3.28762e-05)
(0.000170966 1.59313e-05 2.00703e-05)
(0.00176875 -2.29942e-05 -0.000185165)
(0.0011319 -7.95032e-06 -9.82085e-05)
(0.000748313 -2.76432e-06 -3.80057e-05)
(0.00178778 -7.21507e-05 -0.000191067)
(0.00114826 -3.81341e-05 -9.62225e-05)
(0.000760926 -1.1592e-05 -3.3952e-05)
(0.000544497 4.91935e-06 5.55167e-06)
(0.000400979 1.5639e-05 1.95762e-05)
(0.000322274 2.03697e-05 2.77253e-05)
(0.000252323 2.43347e-05 2.57854e-05)
(0.000222688 2.9121e-05 2.94185e-05)
(0.000178143 3.23707e-05 2.35589e-05)
(0.00174976 -8.24173e-05 -0.000196496)
(0.00109929 -3.94186e-05 -9.62684e-05)
(0.000711144 -1.12861e-05 -3.40221e-05)
(0.000492535 5.05296e-06 5.15471e-06)
(0.000351436 1.32871e-05 1.97544e-05)
(0.000275877 1.69077e-05 2.89369e-05)
(0.00021041 1.71613e-05 2.76081e-05)
(0.000183334 2.08463e-05 3.10577e-05)
(0.000143362 2.02278e-05 2.23033e-05)
(0.0017125 -5.7942e-05 -0.000201538)
(0.00105487 -2.69217e-05 -9.72866e-05)
(0.000665707 -7.92379e-06 -3.37623e-05)
(0.000445006 4.62272e-06 6.82579e-06)
(0.00030774 9.27309e-06 2.09617e-05)
(0.000232223 1.27771e-05 3.34748e-05)
(0.000172735 1.1463e-05 3.02203e-05)
(0.000145501 1.3074e-05 3.23008e-05)
(0.000110438 1.16926e-05 2.09017e-05)
(0.00170026 -1.91216e-05 -0.000205838)
(0.0010399 -8.15456e-06 -9.80191e-05)
(0.000649181 -1.61903e-06 -3.25735e-05)
(0.000429876 2.19816e-06 7.33317e-06)
(0.000292987 1.01709e-06 2.12751e-05)
(0.00174119 -8.10057e-05 -0.000177108)
(0.00108101 -4.1608e-05 -8.95372e-05)
(0.000686385 -1.26159e-05 -3.48649e-05)
(0.000466467 4.66457e-06 6.95589e-07)
(0.000323744 1.49273e-05 1.21155e-05)
(0.000250103 2.02909e-05 2.11313e-05)
(0.000184204 2.33806e-05 1.70679e-05)
(0.000159242 2.85008e-05 1.98035e-05)
(0.000113862 2.9635e-05 1.35227e-05)
(0.001698 -9.155e-05 -0.000182245)
(0.00102871 -4.29562e-05 -8.87842e-05)
(0.000634657 -1.19968e-05 -3.20912e-05)
(0.000414523 6.43677e-06 3.71679e-06)
(0.000276795 1.39929e-05 1.3397e-05)
(0.000206137 1.98356e-05 2.22265e-05)
(0.000146999 1.7542e-05 1.98307e-05)
(0.000126554 2.08838e-05 2.23443e-05)
(8.97873e-05 1.7132e-05 1.49246e-05)
(0.00165611 -6.67011e-05 -0.000186196)
(0.000979474 -3.02391e-05 -8.96445e-05)
(0.000587613 -8.23067e-06 -3.09795e-05)
(0.000369415 5.50974e-06 6.31873e-06)
(0.000239855 8.50392e-06 1.57267e-05)
(0.000170463 1.29328e-05 2.79258e-05)
(0.000119964 1.01676e-05 2.2406e-05)
(9.49696e-05 1.126e-05 2.66501e-05)
(6.58795e-05 9.30044e-06 1.64106e-05)
(0.00163974 -1.94308e-05 -0.000188174)
(0.000960171 -8.77971e-06 -8.93419e-05)
(0.000569422 -3.31252e-06 -2.96596e-05)
(0.00035435 -2.43472e-07 7.73968e-06)
(0.000226608 -6.19208e-07 1.59426e-05)
(0.000159958 -8.20377e-07 2.70998e-05)
(0.000110494 6.88925e-07 2.32185e-05)
(0.0017139 -8.89562e-05 -0.000134538)
(0.00104052 -4.37632e-05 -6.92115e-05)
(0.000638836 -1.20753e-05 -2.91987e-05)
(0.000411334 6.44774e-06 -1.35269e-06)
(0.000268551 1.37441e-05 7.03142e-06)
(0.000189377 1.84755e-05 1.47327e-05)
(0.00012672 2.12404e-05 1.36568e-05)
(9.66315e-05 2.52376e-05 1.97032e-05)
(5.15497e-05 2.26014e-05 2.04553e-05)
(0.00166461 -9.95732e-05 -0.000136444)
(0.000981828 -4.52593e-05 -6.72396e-05)
(0.000584349 -1.20994e-05 -2.64008e-05)
(0.000360889 7.47343e-06 1.69159e-06)
(0.000227657 1.28773e-05 8.77281e-06)
(0.000153704 2.08934e-05 1.57391e-05)
(0.000100962 1.76272e-05 1.46109e-05)
(7.39418e-05 2.29498e-05 1.69437e-05)
(4.365e-05 1.72923e-05 1.61309e-05)
(0.00161905 -6.8594e-05 -0.000136872)
(0.000928946 -3.08818e-05 -6.45902e-05)
(0.000537974 -8.57477e-06 -2.39411e-05)
(0.000317351 6.20992e-06 3.11992e-06)
(0.0001972 8.08392e-06 9.96282e-06)
(0.000123388 1.38938e-05 1.6116e-05)
(8.45652e-05 1.03034e-05 1.57276e-05)
(5.1128e-05 1.23105e-05 1.83702e-05)
(3.43463e-05 8.46665e-06 1.31696e-05)
(0.00160479 -1.55809e-05 -0.000137009)
(0.000910964 -4.67571e-06 -6.5067e-05)
(0.000521956 -1.77821e-06 -2.40886e-05)
(0.000306536 8.97032e-07 2.23767e-06)
(0.000186897 2.17331e-08 1.03721e-05)
(0.000119311 -1.17943e-06 1.762e-05)
(7.76067e-05 -2.57029e-07 1.62797e-05)
(4.88244e-05 -1.6188e-08 1.88467e-05)
(3.10456e-05 8.60505e-08 1.22266e-05)
)
;

boundaryField
{
    inlet
    {
        type            calculated;
        value           nonuniform List<vector> 
16
(
(0.00412176 -0.000116806 -0.000386926)
(0.00403703 -0.000280717 -0.000407417)
(0.00398146 -0.000172255 -0.000432321)
(0.00400658 -0.000112441 -0.000423339)
(0.00393496 -0.000139762 -0.000561442)
(0.0038152 -0.000316397 -0.000608872)
(0.00372947 -0.000182918 -0.000635871)
(0.0037595 -6.14974e-05 -0.000712168)
(0.00395332 -0.000179127 -0.000532714)
(0.00380617 -0.000360778 -0.000585328)
(0.00371117 -0.000274551 -0.000609212)
(0.00367523 -7.87527e-05 -0.000635731)
(0.00395779 -0.000217561 -0.000401092)
(0.00376168 -0.000419936 -0.000436596)
(0.00364037 -0.000254169 -0.00044308)
(0.00366058 -3.44166e-05 -0.000434912)
)
;
    }
    outlet
    {
        type            calculated;
        value           nonuniform 0();
    }
    wall
    {
        type            calculated;
        value           nonuniform List<vector> 
66
(
(0.00412176 -0.000116806 -0.000386926)
(0.00403703 -0.000280717 -0.000407417)
(0.00398146 -0.000172255 -0.000432321)
(0.00400658 -0.000112441 -0.000423339)
(0.000867769 -1.83803e-05 -5.51754e-05)
(0.000663715 -5.3136e-05 -3.57823e-05)
(0.000517757 -2.51087e-05 -2.56149e-05)
(0.000563821 2.28526e-05 -9.20621e-06)
(0.000764486 3.39418e-05 2.5049e-05)
(0.000565838 2.40346e-05 1.2193e-05)
(0.000444231 -5.47032e-06 1.2562e-05)
(0.000491191 -7.86194e-06 2.23736e-05)
(0.000942415 4.04756e-05 3.96074e-05)
(0.000735826 4.0045e-05 1.78212e-05)
(0.000517612 4.52336e-05 1.6507e-05)
(0.000771154 4.53704e-05 3.42656e-05)
(0.000571342 4.15496e-05 3.89606e-05)
(0.000393405 5.4692e-05 1.97094e-05)
(0.000857775 3.83946e-05 3.18039e-05)
(0.000689339 1.6849e-05 3.57291e-05)
(0.00047167 2.91715e-05 3.79672e-05)
(0.00060696 3.95041e-05 -2.69367e-05)
(0.000466374 -6.38938e-05 6.93926e-06)
(0.000272282 2.47714e-05 5.5984e-05)
(0.000801595 5.72633e-05 1.2921e-05)
(0.000613371 -3.45025e-06 4.35033e-05)
(0.000305607 2.65646e-05 7.71325e-05)
(0.00051923 0.000154765 7.17145e-06)
(0.00031045 4.63567e-05 -1.56545e-05)
(6.32183e-05 4.43621e-05 -4.29309e-05)
(0.00412176 -0.000116806 -0.000386926)
(0.00393496 -0.000139762 -0.000561442)
(0.00395332 -0.000179127 -0.000532714)
(0.00395779 -0.000217561 -0.000401092)
(0.000867769 -1.83803e-05 -5.51754e-05)
(0.000421864 -2.79903e-06 1.11461e-06)
(0.00029885 -7.7788e-06 -2.70646e-05)
(0.000243521 1.68355e-06 -2.05901e-05)
(0.000764486 3.39418e-05 2.5049e-05)
(0.000286115 1.68344e-05 5.90628e-05)
(0.000196147 1.86517e-05 -1.61047e-06)
(0.000141027 3.4759e-05 -7.15189e-06)
(0.000942415 4.04756e-05 3.96074e-05)
(0.000375613 1.715e-05 0.000128506)
(0.000305323 1.57368e-05 6.09961e-05)
(0.000173718 4.38414e-05 4.98613e-05)
(0.000771154 4.53704e-05 3.42656e-05)
(0.000258297 4.16182e-05 7.37903e-05)
(0.000176462 3.51038e-05 8.64802e-06)
(7.0449e-05 1.92145e-05 -1.77014e-06)
(0.000857775 3.83946e-05 3.18039e-05)
(0.000347886 3.41897e-05 9.22378e-05)
(0.000324522 3.43797e-05 5.94928e-05)
(0.000100409 1.26343e-05 3.87851e-05)
(0.00060696 3.95041e-05 -2.69367e-05)
(0.000173345 5.04955e-05 4.53609e-05)
(0.000132918 3.83286e-05 -2.97208e-05)
(-4.26441e-05 3.67664e-05 -1.6463e-05)
(0.000801595 5.72633e-05 1.2921e-05)
(0.000302023 5.89822e-05 0.000104725)
(0.000322922 7.28472e-05 1.20661e-05)
(2.99115e-05 7.00045e-05 4.32284e-05)
(0.00051923 0.000154765 7.17145e-06)
(8.8472e-05 7.45344e-05 7.99375e-05)
(5.09031e-05 8.42247e-05 -4.9058e-05)
(-0.000186874 1.97273e-05 5.51289e-05)
)
;
    }
    procBoundary0to1
    {
        type            processor;
        value           nonuniform List<vector> 
12
(
(0.000261946 3.35723e-05 1.14506e-05)
(0.000224338 2.53643e-05 1.53672e-05)
(0.00017029 1.9705e-05 1.87484e-05)
(0.000172188 2.99592e-05 1.60648e-05)
(0.000141063 2.2412e-05 1.90387e-05)
(0.0001012 1.33324e-05 1.97637e-05)
(0.000108873 2.98114e-05 9.18802e-06)
(8.81114e-05 2.15211e-05 1.49358e-05)
(5.30066e-05 1.16254e-05 1.38343e-05)
(2.87729e-05 2.71849e-05 1.84371e-05)
(2.6434e-05 1.92837e-05 1.51533e-05)
(1.23647e-05 8.05026e-06 1.13837e-05)
)
;
    }
    procBoundary0to2
    {
        type            processor;
        value           nonuniform List<vector> 
44
(
(0.00052978 7.99815e-07 -2.06952e-06)
(0.000387614 5.07761e-08 1.91002e-05)
(0.000312432 5.89027e-08 3.44577e-05)
(0.000242948 2.59924e-06 3.77778e-05)
(0.000216849 3.86385e-06 3.87602e-05)
(0.000167782 1.88048e-07 2.9386e-05)
(0.00176823 1.89631e-05 -0.000177815)
(0.00112677 1.22624e-05 -9.76185e-05)
(0.00052978 7.99815e-07 -2.06952e-06)
(0.000740266 5.21099e-06 -3.56503e-05)
(0.00052978 7.99815e-07 -2.06952e-06)
(0.000387614 5.07761e-08 1.91002e-05)
(0.000222358 8.33154e-07 3.48935e-05)
(0.000164303 2.07164e-06 3.15639e-05)
(0.000144569 3.62191e-06 3.4182e-05)
(0.000105635 2.39267e-06 2.32174e-05)
(0.00170642 2.61257e-05 -0.000197249)
(0.00104223 1.32453e-05 -9.72499e-05)
(0.0006504 6.2613e-06 -3.36224e-05)
(0.000429854 -1.16062e-07 6.27354e-06)
(0.000222358 8.33154e-07 3.48935e-05)
(0.000294748 -6.7513e-06 1.975e-05)
(0.000222358 8.33154e-07 3.48935e-05)
(0.000164303 2.07164e-06 3.15639e-05)
(8.62676e-05 2.19343e-06 2.62978e-05)
(5.82591e-05 2.05941e-06 1.76479e-05)
(0.00165225 3.17858e-05 -0.000182085)
(0.000968882 1.34609e-05 -8.54991e-05)
(0.000576611 3.93656e-06 -2.99439e-05)
(0.000357574 -3.44806e-06 5.93882e-06)
(0.000229032 -7.27239e-06 1.5926e-05)
(0.000158849 -1.22717e-05 2.72083e-05)
(8.62676e-05 2.19343e-06 2.62978e-05)
(0.000110412 -9.14227e-06 2.3744e-05)
(8.62676e-05 2.19343e-06 2.62978e-05)
(5.82591e-05 2.05941e-06 1.76479e-05)
(0.00161916 4.12006e-05 -0.000137789)
(0.000925347 1.94019e-05 -6.283e-05)
(0.000534697 4.77504e-06 -2.47219e-05)
(0.000316737 -3.84426e-06 2.61187e-06)
(0.000193578 -6.4446e-06 1.05734e-05)
(0.000123845 -1.11534e-05 1.96162e-05)
(8.0542e-05 -9.60568e-06 1.54281e-05)
(5.37148e-05 -1.0718e-05 1.5777e-05)
)
;
    }
    procBoundary0to4
    {
        type            processor;
        value           nonuniform List<vector> 
36
(
(0.00171567 -9.21068e-05 -7.21565e-05)
(0.00103133 -4.49587e-05 -3.99582e-05)
(0.000624208 -1.2896e-05 -2.06784e-05)
(0.00039466 6.87351e-06 -2.61955e-06)
(0.000251524 1.43815e-05 3.78109e-06)
(0.000175859 1.82506e-05 8.70559e-06)
(0.0001159 1.63478e-05 1.15412e-05)
(9.44392e-05 1.66637e-05 2.02549e-05)
(5.1436e-05 1.41991e-05 2.33302e-05)
(0.00166518 -0.000102058 -6.73368e-05)
(0.00097284 -4.45077e-05 -3.60719e-05)
(0.000571008 -1.17422e-05 -1.80194e-05)
(0.000348183 7.88876e-06 -1.98061e-06)
(0.000213567 1.27333e-05 3.95775e-06)
(0.000143054 1.7749e-05 8.68728e-06)
(9.00407e-05 1.45773e-05 1.03298e-05)
(6.94077e-05 1.70375e-05 1.46531e-05)
(3.55787e-05 1.20253e-05 1.47672e-05)
(0.00162088 -7.18138e-05 -6.43384e-05)
(0.00092093 -3.17025e-05 -3.25167e-05)
(0.000527527 -9.36268e-06 -1.45629e-05)
(0.000309971 3.84218e-06 -4.34134e-07)
(0.000184914 7.57904e-06 4.41533e-06)
(0.000117505 1.2868e-05 6.08538e-06)
(7.22677e-05 1.00002e-05 8.12424e-06)
(4.89143e-05 1.20912e-05 8.51114e-06)
(2.5123e-05 6.50652e-06 8.23235e-06)
(0.00160384 -2.09042e-05 -6.40798e-05)
(0.000899382 -7.06108e-06 -3.12021e-05)
(0.00050957 -3.65519e-06 -1.50454e-05)
(0.000292748 -3.79002e-07 -1.32842e-06)
(0.000172902 7.09529e-07 4.38898e-06)
(0.000105092 2.79462e-06 6.34221e-06)
(6.58722e-05 4.04676e-07 6.8935e-06)
(3.94832e-05 -1.02347e-06 6.47583e-06)
(2.11189e-05 -2.0135e-06 5.20323e-06)
)
;
    }
    procBoundary0to6
    {
        type            processor;
        value           uniform (3.41351e-05 -8.88504e-06 1.02324e-05);
    }
    procBoundary0to7
    {
        type            processor;
        value           uniform (1.35029e-05 2.26313e-06 8.67557e-06);
    }
}


// ************************************************************************* //
