/*--------------------------------*- C++ -*----------------------------------*\
| =========                 |                                                 |
| \\      /  F ield         | OpenFOAM: The Open Source CFD Toolbox           |
|  \\    /   O peration     | Version:  4.x                                   |
|   \\  /    A nd           | Web:      www.OpenFOAM.org                      |
|    \\/     M anipulation  |                                                 |
\*---------------------------------------------------------------------------*/
FoamFile
{
    version     2.0;
    format      ascii;
    class       volVectorField;
    location    "40";
    object      GField;
}
// * * * * * * * * * * * * * * * * * * * * * * * * * * * * * * * * * * * * * //

dimensions      [1 -2 -1 0 0 0 0];

internalField   nonuniform List<vector> 
132
(
(100.349 -1.38985 -4.43801)
(48.806 -0.875569 -3.12399)
(110.645 -1.65477 -5.27367)
(65.2379 -0.551053 -3.08694)
(120.025 -1.06442 -4.62128)
(77.3563 -0.0835326 -2.75282)
(127.723 -0.575069 -4.14229)
(86.5071 0.301629 -3.12059)
(136.125 0.0697272 -3.97089)
(100.726 -3.16739 -5.04732)
(46.0972 -2.28877 -3.01141)
(108.018 -3.98093 -5.5457)
(58.5495 -2.11752 -3.18775)
(115.546 -3.33818 -5.19746)
(68.178 -1.68494 -2.81224)
(121.684 -3.06446 -4.63152)
(75.4112 -2.58042 -2.80764)
(127.505 -3.08809 -4.03902)
(101.359 -2.02544 -5.63252)
(44.3368 -1.20266 -2.94901)
(106.307 -2.32032 -5.92858)
(54.2761 -1.2653 -3.12232)
(111.292 -1.55597 -5.57378)
(61.5792 -0.4571 -2.96549)
(115.811 -1.10402 -4.95417)
(65.8027 -0.0702689 -2.18331)
(117.783 -0.695651 -3.82033)
(100.998 -1.55294 -5.65001)
(44.6739 -0.520652 -2.7809)
(106.836 -1.12373 -5.70169)
(99.1786 -1.94469 -6.78597)
(41.9586 -0.798247 -3.8174)
(102.733 -1.94488 -6.58873)
(48.4388 -0.745144 -3.09035)
(106.486 -1.68021 -4.51055)
(53.4263 -0.298728 -2.1027)
(109.965 -1.18258 -3.13244)
(56.6052 0.293583 -1.51334)
(113.034 -0.351233 -1.65814)
(98.7707 -4.10422 -7.70101)
(37.1286 -1.91179 -3.66166)
(99.7777 -4.46844 -7.28305)
(37.9666 -1.77409 -2.94146)
(100.192 -4.01122 -5.29291)
(36.7008 -1.3418 -1.82533)
(100.963 -3.52783 -3.77292)
(34.153 -1.03701 -1.07005)
(102.12 -2.7948 -1.81555)
(97.9293 -2.46356 -8.21196)
(33.6905 -0.792032 -3.41403)
(97.4658 -2.32057 -7.83886)
(30.5874 -0.642142 -2.63258)
(96.0771 -1.68119 -5.37963)
(25.1426 -0.0974914 -1.37646)
(94.9425 -0.557932 -2.90046)
(17.622 0.402956 -0.434205)
(95.1087 0.106922 -1.04366)
(96.9222 -0.674928 -8.86897)
(34.5522 -0.314871 -4.05087)
(97.2604 -0.68262 -8.70916)
(31.8623 -0.0697104 -2.96196)
(96.1206 -0.133341 -6.33209)
(97.3184 -2.35281 -5.93664)
(40.7777 -1.04028 -3.59008)
(99.8144 -2.4541 -6.21804)
(45.4571 -0.969404 -3.55489)
(103.066 -2.1852 -5.14141)
(49.6881 -0.558527 -3.42031)
(106.421 -1.6458 -4.19601)
(52.3613 -0.0575148 -3.85441)
(110.241 -0.573614 -4.06558)
(96.6472 -4.54157 -6.6901)
(35.2895 -2.09113 -3.5616)
(96.4542 -5.13882 -6.72825)
(33.3882 -1.92521 -2.83595)
(96.2582 -4.19934 -4.9805)
(30.6278 -1.225 -2.52463)
(96.8979 -2.87319 -4.12585)
(27.385 -1.05283 -2.41381)
(98.8284 -2.06111 -3.35556)
(95.5223 -3.23939 -6.83052)
(31.5837 -1.44815 -3.58311)
(93.449 -3.56995 -7.23107)
(23.5785 -0.904366 -2.52481)
(91.4893 -2.42543 -4.95254)
(17.0064 -0.39604 -1.87841)
(91.2544 -1.2751 -2.18826)
(13.4154 -0.295776 -1.95027)
(92.1211 -1.0857 -0.108361)
(95.1302 -0.915625 -6.94494)
(29.9727 -0.456224 -3.68108)
(92.4915 -1.09548 -7.27505)
(20.8653 -0.477037 -2.10904)
(91.0094 -1.26157 -4.52236)
(14.3973 -0.709765 -1.54285)
(91.2783 -1.62217 -2.83801)
(97.1976 -2.78698 -4.29807)
(40.2086 -1.27384 -2.75371)
(98.9279 -2.7324 -4.4727)
(43.3569 -0.928892 -2.67047)
(100.391 -2.01892 -3.52241)
(44.4752 -0.733422 -2.50673)
(101.421 -1.83584 -2.80186)
(43.7752 -0.158841 -2.65595)
(101.511 -0.708835 -1.98045)
(96.0895 -5.03939 -4.88929)
(32.611 -2.44601 -2.54922)
(93.8517 -5.67336 -4.88685)
(26.691 -1.96014 -1.92352)
(92.3378 -4.46323 -3.26531)
(20.6039 -1.54981 -1.37219)
(90.9474 -2.35199 -2.2496)
(12.9193 -1.19871 -1.13535)
(90.4354 0.0478843 -2.09019)
(95.2978 -2.80325 -4.94732)
(28.8667 -1.29141 -2.40878)
(90.4764 -3.04554 -4.32916)
(15.9361 -0.585484 -1.19232)
(86.8161 -1.49395 -2.6026)
(4.84529 -0.1256 -0.395535)
(84.2394 0.372098 -1.88984)
(3.3582e-05 -5.16195e-07 1.59603e-05)
(81.5755 1.33296 -0.440817)
(95.2374 -0.581539 -4.65254)
(28.8925 0.0437388 -2.59783)
(90.4531 0.355892 -4.62447)
(16.2336 0.304549 -1.55685)
(88.4969 0.747471 -3.5387)
(7.50764 0.229104 -0.891479)
(87.6971 -0.198879 -2.33415)
(2.69422 0.140744 -0.418966)
(87.5417 -0.331699 -0.375413)
)
;

boundaryField
{
    inlet
    {
        type            calculated;
        value           uniform (67 0 0);
    }
    outlet
    {
        type            calculated;
        value           nonuniform 0();
    }
    wall
    {
        type            calculated;
        value           uniform (0 0 0);
    }
    procBoundary0to1
    {
        type            processor;
        value           nonuniform List<vector> 
12
(
(93.0173 1.92971 -3.01457)
(79.9646 -2.06356 -2.99436)
(66.2802 0.583955 -2.66358)
(57.8894 1.26286 -0.4165)
(31.1828 -1.08009 -0.326525)
(9.03283 0.453861 -0.390071)
(53.4334 1.13471 -4.5505)
(26.3539 -1.61528 -3.01377)
(10.0866 -0.489497 -2.1081)
(38.1905 0.202427 -1.62065)
(4.91735 -0.7287 -0.509756)
(2.70339e-05 1.07998e-06 2.60137e-05)
)
;
    }
    procBoundary0to2
    {
        type            processor;
        value           nonuniform List<vector> 
44
(
(55.0988 -0.607337 -2.87976)
(111.798 -0.986777 -5.43067)
(63.6569 -0.702898 -2.60655)
(117.176 -1.05554 -4.07876)
(69.1816 -0.302262 -1.57417)
(122.401 -0.634542 -2.68533)
(99.1963 0.29536 -4.57018)
(41.7636 0.132118 -2.6355)
(55.0988 -0.607337 -2.87976)
(103.618 0.684261 -5.38969)
(55.0988 -0.607337 -2.87976)
(111.798 -0.986777 -5.43067)
(26.6815 -0.00282082 -1.79818)
(95.995 -0.0625962 -3.91254)
(22.7681 0.218834 -1.22609)
(98.1531 0.411639 -2.08742)
(97.5159 1.22393 -7.63687)
(33.9105 0.26829 -3.56611)
(96.4469 1.32459 -7.8667)
(28.9987 0.648995 -2.81131)
(26.6815 -0.00282082 -1.79818)
(95.0279 1.66099 -5.83606)
(26.6815 -0.00282082 -1.79818)
(95.995 -0.0625962 -3.91254)
(11.1625 -0.734586 -1.52195)
(92.077 -1.07021 -1.60579)
(95.4744 1.49415 -6.75094)
(31.7995 0.319587 -3.27761)
(92.7566 1.03096 -6.23483)
(22.8873 0.0962987 -2.00996)
(90.5384 0.386366 -4.10492)
(14.0993 -0.31162 -1.16605)
(11.1625 -0.734586 -1.52195)
(88.8471 -0.958076 -2.15108)
(11.1625 -0.734586 -1.52195)
(92.077 -1.07021 -1.60579)
(94.8372 2.01423 -5.69168)
(28.8672 1.08198 -2.30866)
(90.4764 2.86373 -4.6823)
(18.6846 0.76435 -1.5822)
(88.334 2.28826 -2.76529)
(10.7105 0.519024 -0.808725)
(87.2155 1.44193 -0.473573)
(3.80817 0.239607 -0.400205)
)
;
    }
    procBoundary0to4
    {
        type            processor;
        value           nonuniform List<vector> 
36
(
(96.2514 -3.04303 -1.81649)
(40.8615 -1.42141 -1.16528)
(97.6166 -3.22057 -1.73568)
(43.5951 -1.33028 -1.31634)
(99.4727 -2.44049 -0.875599)
(45.4779 -0.798633 -0.965998)
(101.106 -1.74127 -0.739923)
(45.9457 -0.796071 -0.977611)
(102.94 -1.65178 0.489065)
(94.5107 -5.17197 -1.42905)
(33.3121 -2.39694 -0.750691)
(92.3411 -5.27756 -1.01215)
(26.287 -1.77326 -0.7533)
(91.0859 -3.85592 -0.30899)
(21.5379 -1.25901 -0.461853)
(91.3374 -2.87042 0.119112)
(16.9936 -1.22384 -0.42058)
(91.7283 -1.66998 0.99168)
(94.286 -3.02406 -1.38381)
(29.8668 -1.67751 -0.631316)
(89.9246 -3.40314 -0.65893)
(19.4754 -1.19388 -0.181586)
(88.0633 -2.93987 0.182292)
(12.1601 -0.904912 0.176133)
(87.7435 -1.69129 -0.371401)
(4.87451 -0.412961 0.217649)
(87.88 0.362722 -0.611912)
(94.4662 -1.74851 -1.80997)
(29.4826 -0.395869 -0.634286)
(89.0493 -1.50985 -0.843263)
(17.2378 -0.59091 -0.576941)
(86.1929 -1.32932 -0.366778)
(6.75038 -0.308496 -0.136139)
(84.7841 0.0594095 -0.356074)
(0.00056313 -3.96556e-05 6.03224e-06)
(84.2335 0.00906469 -0.00431114)
)
;
    }
    procBoundary0to6
    {
        type            processor;
        value           uniform (86.7623 1.19936 0.291308);
    }
    procBoundary0to7
    {
        type            processor;
        value           uniform (3.54572e-05 5.60698e-06 2.16924e-05);
    }
}


// ************************************************************************* //
