/*--------------------------------*- C++ -*----------------------------------*\
| =========                 |                                                 |
| \\      /  F ield         | OpenFOAM: The Open Source CFD Toolbox           |
|  \\    /   O peration     | Version:  4.x                                   |
|   \\  /    A nd           | Web:      www.OpenFOAM.org                      |
|    \\/     M anipulation  |                                                 |
\*---------------------------------------------------------------------------*/
FoamFile
{
    version     2.0;
    format      ascii;
    class       volScalarField;
    location    "40";
    object      particleRelTemp;
}
// * * * * * * * * * * * * * * * * * * * * * * * * * * * * * * * * * * * * * //

dimensions      [0 0 0 0 0 0 0];

internalField   nonuniform List<scalar> 
132
(
-1.28367e-10
-1.24745e-10
-1.20711e-10
-1.12369e-10
-1.07892e-10
-1.00504e-10
-9.19799e-11
-8.21563e-11
-7.54376e-11
-1.27758e-10
-1.21755e-10
-1.15345e-10
-1.10049e-10
-1.00437e-10
-9.13134e-11
-7.48777e-11
-6.5901e-11
-5.03037e-11
-1.26028e-10
-1.20747e-10
-1.13926e-10
-1.05198e-10
-9.55714e-11
-8.32844e-11
-6.77338e-11
-5.3171e-11
-4.18667e-11
-1.29513e-10
-1.21687e-10
-1.1838e-10
-1.28832e-10
-1.22451e-10
-1.15724e-10
-1.08169e-10
-9.95362e-11
-8.83174e-11
-8.21093e-11
-6.78071e-11
-5.56876e-11
-1.27982e-10
-1.21149e-10
-1.11177e-10
-1.02532e-10
-9.36274e-11
-8.22948e-11
-6.62726e-11
-5.0047e-11
-3.52385e-11
-1.27468e-10
-1.193e-10
-1.0953e-10
-9.99946e-11
-8.68677e-11
-7.67958e-11
-5.64192e-11
-3.89665e-11
-2.05267e-11
-1.26852e-10
-1.19176e-10
-1.09228e-10
-9.6417e-11
-8.58643e-11
-1.27614e-10
-1.22124e-10
-1.13198e-10
-1.02788e-10
-9.24809e-11
-7.79938e-11
-6.63178e-11
-5.33729e-11
-3.87646e-11
-1.267e-10
-1.19193e-10
-1.09557e-10
-9.94896e-11
-8.54693e-11
-7.03114e-11
-5.54193e-11
-3.77771e-11
-2.00763e-11
-1.26648e-10
-1.18777e-10
-1.07262e-10
-9.45493e-11
-8.01266e-11
-5.95227e-11
-4.07668e-11
-1.78302e-11
-7.10736e-12
-1.2623e-10
-1.16738e-10
-1.05894e-10
-9.45853e-11
-7.78275e-11
-6.26999e-11
-3.36998e-11
-1.28582e-10
-1.20725e-10
-1.13545e-10
-1.02542e-10
-9.03279e-11
-7.56558e-11
-6.48324e-11
-4.42879e-11
-3.16015e-11
-1.27337e-10
-1.20172e-10
-1.10737e-10
-9.7102e-11
-8.231e-11
-6.47461e-11
-4.58213e-11
-3.02523e-11
-1.03627e-11
-1.24234e-10
-1.17179e-10
-1.08154e-10
-9.04874e-11
-7.6354e-11
-5.23874e-11
-3.28635e-11
-1.25637e-11
2.9023e-12
-1.26082e-10
-1.18307e-10
-1.06414e-10
-9.03238e-11
-7.56229e-11
-5.39484e-11
-2.61828e-11
-1.06406e-11
1.02933e-11
)
;

boundaryField
{
    inlet
    {
        type            calculated;
        value           nonuniform List<scalar> 
16
(
-1.28367e-10
-1.27758e-10
-1.26028e-10
-1.29513e-10
-1.28832e-10
-1.27982e-10
-1.27468e-10
-1.26852e-10
-1.27614e-10
-1.267e-10
-1.26648e-10
-1.2623e-10
-1.28582e-10
-1.27337e-10
-1.24234e-10
-1.26082e-10
)
;
    }
    outlet
    {
        type            calculated;
        value           nonuniform 0();
    }
    wall
    {
        type            calculated;
        value           nonuniform List<scalar> 
66
(
-1.28367e-10
-1.27758e-10
-1.26028e-10
-1.29513e-10
-1.24745e-10
-1.21755e-10
-1.20747e-10
-1.21687e-10
-1.20711e-10
-1.15345e-10
-1.13926e-10
-1.1838e-10
-1.12369e-10
-1.10049e-10
-1.05198e-10
-1.07892e-10
-1.00437e-10
-9.55714e-11
-1.00504e-10
-9.13134e-11
-8.32844e-11
-9.19799e-11
-7.48777e-11
-6.77338e-11
-8.21563e-11
-6.5901e-11
-5.3171e-11
-7.54376e-11
-5.03037e-11
-4.18667e-11
-1.28367e-10
-1.28832e-10
-1.27614e-10
-1.28582e-10
-1.24745e-10
-1.22451e-10
-1.22124e-10
-1.20725e-10
-1.20711e-10
-1.15724e-10
-1.13198e-10
-1.13545e-10
-1.12369e-10
-1.08169e-10
-1.02788e-10
-1.02542e-10
-1.07892e-10
-9.95362e-11
-9.24809e-11
-9.03279e-11
-1.00504e-10
-8.83174e-11
-7.79938e-11
-7.56558e-11
-9.19799e-11
-8.21093e-11
-6.63178e-11
-6.48324e-11
-8.21563e-11
-6.78071e-11
-5.33729e-11
-4.42879e-11
-7.54376e-11
-5.56876e-11
-3.87646e-11
-3.16015e-11
)
;
    }
    procBoundary0to1
    {
        type            processor;
        value           nonuniform List<scalar> 
12
(
-6.02624e-11
-3.66659e-11
-1.74736e-11
-4.22844e-11
-2.96653e-11
3.35999e-12
-2.29216e-11
8.02882e-13
1.31331e-11
-1.40559e-11
8.53552e-12
2.57829e-11
)
;
    }
    procBoundary0to2
    {
        type            processor;
        value           nonuniform List<scalar> 
44
(
-1.06509e-10
-9.68062e-11
-7.806e-11
-6.5325e-11
-4.70606e-11
-4.268e-11
-1.28165e-10
-1.22536e-10
-1.06509e-10
-1.16004e-10
-1.06509e-10
-9.68062e-11
-7.11842e-11
-5.24773e-11
-3.57034e-11
-2.02457e-11
-1.28474e-10
-1.21926e-10
-1.12484e-10
-1.01633e-10
-7.11842e-11
-9.03912e-11
-7.11842e-11
-5.24773e-11
-1.56667e-11
1.14441e-12
-1.26586e-10
-1.20055e-10
-1.09173e-10
-9.66635e-11
-8.17023e-11
-6.24649e-11
-1.56667e-11
-4.50777e-11
-1.56667e-11
1.14441e-12
-1.26171e-10
-1.16504e-10
-1.0605e-10
-9.44136e-11
-7.8742e-11
-5.83407e-11
-3.78167e-11
-8.8506e-12
)
;
    }
    procBoundary0to4
    {
        type            processor;
        value           nonuniform List<scalar> 
36
(
-1.27887e-10
-1.22748e-10
-1.14543e-10
-1.04247e-10
-9.46707e-11
-8.28283e-11
-6.41766e-11
-4.61992e-11
-3.0879e-11
-1.27113e-10
-1.20897e-10
-1.10594e-10
-9.93859e-11
-8.50096e-11
-6.99286e-11
-5.22784e-11
-3.28304e-11
-1.39528e-11
-1.26771e-10
-1.18642e-10
-1.06018e-10
-9.42992e-11
-7.77421e-11
-6.07975e-11
-3.89817e-11
-1.87359e-11
1.91343e-12
-1.26693e-10
-1.18817e-10
-1.06273e-10
-9.34478e-11
-7.37064e-11
-5.54193e-11
-3.18354e-11
-1.1192e-11
1.00267e-11
)
;
    }
    procBoundary0to6
    {
        type            processor;
        value           uniform 4.7319e-12;
    }
    procBoundary0to7
    {
        type            processor;
        value           uniform 3.8207e-11;
    }
}


// ************************************************************************* //
