/*--------------------------------*- C++ -*----------------------------------*\
| =========                 |                                                 |
| \\      /  F ield         | OpenFOAM: The Open Source CFD Toolbox           |
|  \\    /   O peration     | Version:  4.x                                   |
|   \\  /    A nd           | Web:      www.OpenFOAM.org                      |
|    \\/     M anipulation  |                                                 |
\*---------------------------------------------------------------------------*/
FoamFile
{
    version     2.0;
    format      ascii;
    class       surfaceScalarField;
    location    "40";
    object      phi;
}
// * * * * * * * * * * * * * * * * * * * * * * * * * * * * * * * * * * * * * //

dimensions      [0 3 -1 0 0 0 0];

internalField   nonuniform List<scalar> 
308
(
9.09783e-06
-2.69723e-07
-6.6484e-07
9.6954e-06
-1.86797e-07
-4.10773e-07
1.07291e-05
-3.32291e-07
-7.01387e-07
1.12561e-05
-1.59482e-07
-3.67492e-07
1.20591e-05
-2.61334e-07
-5.41758e-07
1.24518e-05
-1.04793e-07
-2.87847e-07
1.30986e-05
-2.15567e-07
-4.31247e-07
1.3508e-05
-1.34766e-07
-2.74674e-07
-1.78706e-07
-3.3371e-07
8.95623e-06
-3.07457e-07
-7.55233e-07
9.37123e-06
-2.06587e-07
-3.9521e-07
1.01718e-05
-3.72947e-07
-7.59862e-07
1.05766e-05
-2.00907e-07
-3.63452e-07
1.12276e-05
-2.90383e-07
-6.21896e-07
1.15249e-05
-1.27252e-07
-2.74876e-07
1.20547e-05
-2.47186e-07
-4.98179e-07
1.23073e-05
-1.57511e-07
-2.29832e-07
-2.24367e-07
-3.47125e-07
8.88769e-06
-2.11612e-07
-8.20271e-07
9.15981e-06
-1.01712e-07
-3.76996e-07
9.80635e-06
-2.03747e-07
-8.15735e-07
1.00573e-05
-3.41026e-07
1.05666e-05
-6.49227e-07
1.07652e-05
-2.5735e-07
1.11114e-05
-4.65687e-07
1.11304e-05
-1.55087e-07
-2.88514e-07
8.88636e-06
-8.60192e-07
9.21238e-06
-4.04716e-07
-8.53779e-07
8.60976e-06
-3.5818e-07
-7.53157e-07
8.79738e-06
-1.60251e-07
-4.38142e-07
9.23349e-06
-3.79608e-07
-7.57888e-07
9.40922e-06
-1.4944e-07
-3.93781e-07
9.77645e-06
-3.37332e-07
-5.71654e-07
9.91283e-06
-9.71472e-08
-3.2708e-07
1.01943e-05
-2.79022e-07
-4.33732e-07
1.0281e-05
-4.38391e-08
-3.17539e-07
-1.86318e-07
-3.38574e-07
8.29088e-06
-3.88983e-07
-8.5205e-07
8.32297e-06
-1.60122e-07
-4.27428e-07
8.41512e-06
-4.02122e-07
-8.29491e-07
8.38777e-06
-1.434e-07
-3.42148e-07
8.37439e-06
-3.37517e-07
-6.08325e-07
8.34552e-06
-8.5623e-08
-2.57534e-07
8.27813e-06
-2.42308e-07
-4.67504e-07
8.24848e-06
-3.80241e-08
-2.05996e-07
-1.59505e-07
-3.05805e-07
8.0303e-06
-1.85604e-07
-8.90682e-07
7.97252e-06
-6.52153e-08
-4.14127e-07
7.82455e-06
-1.7761e-07
-8.92278e-07
7.68744e-06
-4.20072e-08
-3.05302e-07
7.41962e-06
-1.07312e-07
-6.11618e-07
7.2748e-06
-1.92504e-07
6.90419e-06
-3.00972e-07
6.81444e-06
-1.40795e-07
-6.77937e-08
8.02152e-06
-9.3654e-07
8.01232e-06
-4.57866e-07
7.88967e-06
-9.46615e-07
7.76775e-06
-3.00281e-07
-6.42699e-07
8.42466e-06
-4.08371e-07
-6.06186e-07
8.54775e-06
-1.85405e-07
-3.7582e-07
8.87301e-06
-4.49751e-07
-6.33393e-07
9.01971e-06
-1.7144e-07
-3.69043e-07
9.34003e-06
-3.78281e-07
-5.13695e-07
9.47001e-06
-1.05588e-07
-3.51476e-07
9.71904e-06
-2.67762e-07
-4.14994e-07
9.85334e-06
-6.55722e-08
-3.86271e-07
-1.56058e-07
-3.58725e-07
8.04957e-06
-4.60855e-07
-6.85871e-07
8.00845e-06
-2.09641e-07
-3.62071e-07
7.93323e-06
-5.15882e-07
-6.88135e-07
7.86954e-06
-1.67768e-07
-2.82139e-07
7.76429e-06
-3.92518e-07
-4.88837e-07
7.72867e-06
-9.62476e-08
-2.3125e-07
7.61729e-06
-2.45774e-07
-3.78115e-07
7.63679e-06
-8.02607e-08
-2.10808e-07
-1.8651e-07
-3.23124e-07
7.75538e-06
-2.45971e-07
-6.97681e-07
7.59944e-06
-1.1266e-07
-3.55163e-07
7.15246e-06
-2.76201e-07
-6.84982e-07
6.98153e-06
-8.16377e-08
-2.20506e-07
6.64367e-06
-2.18295e-07
-4.47985e-07
6.55545e-06
-6.52096e-08
-1.35318e-07
6.42214e-06
-1.71494e-07
-2.41946e-07
6.37755e-06
-1.1596e-07
-3.28441e-08
7.63337e-06
-6.86902e-07
7.44291e-06
-3.71997e-07
6.92885e-06
-7.04889e-07
6.78692e-06
-2.17211e-07
6.45554e-06
-4.77612e-07
6.39798e-06
-1.44426e-07
-3.06512e-07
8.38265e-06
-4.63647e-07
8.45897e-06
-2.20297e-07
8.69091e-06
-4.97921e-07
8.72879e-06
-1.71017e-07
8.85922e-06
-3.83982e-07
8.84833e-06
-1.3512e-07
8.8909e-06
-2.48195e-07
8.79936e-06
-8.00482e-08
-3.92769e-08
7.85239e-06
-4.64581e-07
7.68675e-06
-2.21513e-07
7.36648e-06
-5.16584e-07
7.22281e-06
-1.51084e-07
6.91447e-06
-3.53059e-07
6.75612e-06
-9.96536e-08
6.37287e-06
-1.17267e-07
6.24514e-06
-7.13347e-08
8.19098e-08
7.57613e-06
-2.00297e-07
7.25292e-06
-7.37179e-08
6.50558e-06
-1.59112e-07
6.23149e-06
-1.63684e-08
5.61734e-06
-4.39709e-08
5.38851e-06
6.48479e-09
5.15256e-06
1.03906e-08
4.94363e-06
8.61527e-09
5.92687e-08
7.57402e-06
7.25307e-06
6.52224e-06
6.35199e-06
5.88213e-06
5.76113e-06
5.55096e-06
5.44708e-06
)
;

boundaryField
{
    inlet
    {
        type            calculated;
        value           nonuniform List<scalar> 
16
(
-8.16327e-06
-8.16327e-06
-8.16327e-06
-8.16327e-06
-8.16327e-06
-8.16327e-06
-8.16327e-06
-8.16327e-06
-8.16327e-06
-8.16327e-06
-8.16327e-06
-8.16327e-06
-8.16327e-06
-8.16327e-06
-8.16327e-06
-8.16327e-06
)
;
    }
    outlet
    {
        type            calculated;
        value           nonuniform 0();
    }
    wall
    {
        type            calculated;
        value           uniform 0;
    }
    procBoundary0to1
    {
        type            processor;
        value           nonuniform List<scalar> 
12
(
1.40204e-05
1.27001e-05
1.12731e-05
1.04722e-05
8.18035e-06
6.4031e-06
1.00295e-05
7.68456e-06
6.28364e-06
8.56769e-06
5.86546e-06
4.99553e-06
)
;
    }
    procBoundary0to2
    {
        type            processor;
        value           nonuniform List<scalar> 
44
(
-1.10805e-07
-1.50484e-07
-6.85101e-08
-1.27668e-07
-2.14554e-08
-7.8498e-08
-7.45096e-08
-2.30213e-08
9.88852e-06
-2.61062e-08
3.46081e-07
6.97054e-07
-5.64605e-09
-3.64164e-08
3.74362e-08
3.11158e-08
3.24865e-08
-2.86101e-09
3.78707e-08
3.41182e-08
7.51588e-06
9.02021e-08
1.97798e-07
3.99648e-07
-6.05048e-08
-1.27545e-07
3.42901e-08
-8.07053e-09
-3.86481e-09
-2.27847e-08
-5.20011e-08
-6.10224e-08
6.28638e-06
-1.53022e-07
1.15267e-07
1.17611e-07
8.47468e-08
6.6612e-08
1.90589e-07
6.31462e-08
1.79568e-07
4.40413e-08
7.33323e-08
2.19314e-08
)
;
    }
    procBoundary0to4
    {
        type            processor;
        value           nonuniform List<scalar> 
36
(
-3.61925e-07
-2.31839e-07
-3.67415e-07
-2.35903e-07
-2.60144e-07
-2.05469e-07
-2.09373e-07
-2.14681e-07
-8.77742e-08
-3.74059e-07
-1.95214e-07
-3.49202e-07
-1.58403e-07
-2.11426e-07
-1.08361e-07
-1.25794e-07
-9.17892e-08
-6.46313e-08
-3.74826e-07
-1.79747e-07
-2.95116e-07
-8.1129e-08
-1.42926e-07
-1.26257e-08
-1.33657e-07
1.30184e-08
-6.20958e-08
-3.82703e-07
-1.91377e-07
-3.23762e-07
-1.26475e-07
-2.31285e-07
-6.09837e-08
-1.59283e-07
-2.47076e-08
-2.22322e-08
)
;
    }
    procBoundary0to6
    {
        type            processor;
        value           uniform 5.12132e-08;
    }
    procBoundary0to7
    {
        type            processor;
        value           uniform 5.35976e-06;
    }
}


// ************************************************************************* //
