/*--------------------------------*- C++ -*----------------------------------*\
| =========                 |                                                 |
| \\      /  F ield         | OpenFOAM: The Open Source CFD Toolbox           |
|  \\    /   O peration     | Version:  4.x                                   |
|   \\  /    A nd           | Web:      www.OpenFOAM.org                      |
|    \\/     M anipulation  |                                                 |
\*---------------------------------------------------------------------------*/
FoamFile
{
    version     2.0;
    format      ascii;
    class       volVectorField;
    location    "40";
    object      UsPrev;
}
// * * * * * * * * * * * * * * * * * * * * * * * * * * * * * * * * * * * * * //

dimensions      [0 1 -1 0 0 0 0];

internalField   nonuniform List<vector> 
132
(
(6.19403e-10 -1.33724e-10 -3.71058e-10)
(6.65838e-10 -3.96194e-10 -7.9723e-10)
(-1.77455e-09 3.62003e-09 -1.63878e-09)
(-3.74509e-10 1.11837e-09 1.1525e-09)
(2.91218e-09 1.05701e-09 1.01741e-09)
(2.19269e-09 7.1036e-10 1.23289e-09)
(1.871e-09 1.76612e-09 2.09202e-09)
(2.04214e-10 1.11825e-09 1.44446e-09)
(2.03066e-10 8.47511e-10 2.896e-09)
(6.01747e-10 -1.93418e-10 -4.22949e-10)
(9.76434e-10 -9.61724e-10 -4.82073e-10)
(3.59223e-10 -1.15609e-09 -6.20632e-10)
(1.08408e-09 1.08548e-09 4.52751e-10)
(2.63558e-09 5.24462e-10 1.19733e-09)
(3.38111e-09 8.0048e-10 1.99542e-09)
(5.50197e-09 1.02464e-09 4.00025e-09)
(4.04398e-09 2.44064e-09 6.26962e-09)
(2.62266e-09 -1.01888e-09 1.14217e-08)
(1.70617e-09 -2.43494e-10 -1.70595e-10)
(1.53911e-09 -5.68668e-10 -2.54951e-10)
(1.94306e-09 -8.47718e-10 3.19373e-11)
(2.73316e-09 5.06952e-10 5.4275e-11)
(3.77346e-09 6.38444e-10 1.26123e-09)
(4.32687e-09 5.31794e-10 2.9509e-09)
(5.26392e-09 3.21411e-10 5.10796e-09)
(4.71082e-09 -1.5759e-10 8.71117e-09)
(6.43721e-09 -1.63112e-09 1.25033e-08)
(6.18491e-10 -4.50091e-10 -1.69964e-10)
(1.8101e-09 -3.39286e-10 -1.24603e-10)
(3.09438e-09 -8.44281e-10 -2.75563e-10)
(6.48971e-10 -5.88769e-11 -5.4289e-10)
(-5.38276e-12 -1.7101e-10 -1.1752e-09)
(-4.48448e-10 2.00271e-12 -1.4306e-09)
(-6.68111e-10 5.26579e-10 1.59705e-09)
(1.22418e-09 2.14514e-10 1.29011e-09)
(1.41822e-09 2.87784e-10 1.51505e-09)
(1.09488e-09 -2.92492e-12 2.12142e-09)
(-1.95466e-10 4.85933e-10 1.25122e-09)
(-3.30532e-09 -1.95576e-09 6.48745e-09)
(5.64363e-10 -1.5219e-10 -5.28329e-10)
(4.97193e-10 -5.60695e-10 -7.84079e-10)
(7.76785e-10 -9.61251e-10 -4.43345e-10)
(4.86511e-10 5.08317e-10 7.24843e-10)
(2.53366e-09 4.13552e-10 1.41154e-09)
(2.40676e-09 1.60728e-10 2.18427e-09)
(1.7002e-09 3.45391e-10 3.85613e-09)
(7.01955e-10 2.78179e-10 6.08731e-09)
(-1.72692e-09 8.81332e-10 1.15815e-08)
(1.03831e-09 -1.33568e-10 -4.11832e-10)
(1.1957e-09 -4.45295e-10 -4.07267e-10)
(1.83539e-09 -3.34841e-10 -1.85167e-10)
(2.38334e-09 1.23921e-10 2.63356e-10)
(3.07905e-09 1.74196e-10 1.45465e-09)
(3.31908e-09 -9.94482e-12 2.70366e-09)
(3.33774e-09 -6.91028e-13 5.74568e-09)
(2.14555e-09 -7.84226e-11 8.51821e-09)
(2.09647e-09 1.37162e-11 1.25515e-08)
(8.32142e-10 -2.90782e-10 -1.79542e-10)
(1.60954e-09 -3.97734e-10 -1.75611e-10)
(2.27221e-09 -1.59061e-10 -1.55129e-10)
(3.20049e-09 -1.87203e-10 3.51121e-10)
(3.83032e-09 -1.94835e-10 1.38591e-09)
(1.53458e-10 1.71716e-11 -3.71695e-10)
(-1.66105e-10 1.24782e-10 -6.71403e-10)
(-9.18651e-11 1.16407e-10 -6.0316e-10)
(-6.18915e-11 1.66734e-10 3.87775e-10)
(3.85186e-10 2.99894e-11 8.26349e-10)
(4.20386e-10 2.45822e-10 1.55517e-09)
(7.10996e-11 -1.3292e-10 2.38476e-09)
(-4.42107e-10 -1.61535e-11 2.33933e-09)
(-2.73408e-09 -1.39857e-09 7.9412e-09)
(2.73618e-10 -7.47216e-11 -4.76281e-10)
(2.03002e-10 -4.04333e-11 -6.63595e-10)
(7.22313e-10 7.43981e-12 -5.577e-10)
(7.20171e-10 2.88898e-10 3.43113e-10)
(1.15208e-09 1.56308e-10 1.08707e-09)
(1.3233e-09 -1.21376e-11 2.34087e-09)
(8.25781e-10 -1.78556e-10 3.81802e-09)
(-3.09276e-10 -7.38415e-10 5.33027e-09)
(-3.90104e-09 1.71199e-09 1.08268e-08)
(4.93768e-10 -5.78703e-11 -3.95259e-10)
(9.60644e-10 -5.70677e-12 -4.52656e-10)
(1.75532e-09 3.60109e-11 -3.33832e-10)
(1.93274e-09 2.02983e-10 2.73778e-10)
(2.51419e-09 8.22639e-11 1.22947e-09)
(2.21675e-09 3.65774e-10 2.68049e-09)
(2.43162e-09 2.9844e-11 4.75851e-09)
(2.64302e-10 1.76289e-10 7.33971e-09)
(-9.52931e-10 2.23329e-09 1.03339e-08)
(4.75409e-10 -1.75652e-10 -2.5141e-10)
(1.57433e-09 -6.63398e-10 -2.0216e-10)
(2.51611e-09 -3.60462e-10 -1.45282e-10)
(2.86238e-09 -3.24167e-10 4.27913e-10)
(3.09131e-09 -2.15759e-10 1.37235e-09)
(2.67495e-09 -6.37118e-11 2.75887e-09)
(3.30267e-09 -1.23327e-10 5.12073e-09)
(8.13859e-11 1.69854e-11 -2.37074e-10)
(-1.27433e-10 1.9472e-10 -4.17828e-10)
(1.57504e-10 1.57317e-10 -3.62073e-10)
(-3.21926e-10 1.02592e-10 3.90544e-11)
(-1.67099e-10 6.57256e-11 4.53343e-10)
(-5.119e-10 -4.71453e-12 1.13496e-09)
(-5.39828e-10 3.89234e-11 2.07972e-09)
(-1.2633e-09 -5.86634e-10 3.65712e-09)
(-1.60432e-09 -9.19927e-10 6.43316e-09)
(1.1883e-10 4.77949e-11 -3.94252e-10)
(9.76093e-11 1.30142e-10 -5.2883e-10)
(3.76798e-10 -2.6836e-11 -5.71611e-10)
(4.73714e-11 3.90225e-10 2.31512e-11)
(1.65891e-10 2.64984e-10 6.05431e-10)
(-1.40847e-10 2.04243e-10 1.65801e-09)
(-3.24101e-10 3.27833e-11 3.02605e-09)
(-1.40194e-09 -7.5473e-10 4.51957e-09)
(-2.14754e-09 -8.63304e-11 6.72785e-09)
(5.34479e-10 1.31683e-10 -5.87929e-10)
(8.41707e-10 2.06756e-10 -5.37203e-10)
(1.62219e-09 2.30933e-10 -3.33549e-10)
(7.41722e-10 5.34214e-10 8.11176e-11)
(1.61386e-09 4.02646e-10 9.15574e-10)
(1.03187e-09 4.27746e-10 2.2645e-09)
(1.47782e-09 2.36326e-10 3.89887e-09)
(4.91115e-10 3.07981e-11 6.18046e-09)
(-8.46836e-10 3.50434e-10 8.14147e-09)
(4.34495e-10 -3.23882e-11 -3.91127e-10)
(1.01414e-09 -2.849e-10 -5.90587e-10)
(2.22214e-09 1.62749e-10 -5.70929e-10)
(2.39054e-09 3.75225e-10 -1.83789e-10)
(3.12347e-09 5.40859e-10 3.68474e-10)
(2.35908e-09 1.29091e-10 2.43438e-09)
(2.54551e-09 5.80574e-11 4.56943e-09)
(1.73902e-09 -1.0116e-10 6.09303e-09)
(9.10967e-10 2.39812e-10 9.34065e-09)
)
;

boundaryField
{
    inlet
    {
        type            calculated;
        value           uniform (0 0 0);
    }
    outlet
    {
        type            calculated;
        value           nonuniform 0();
    }
    wall
    {
        type            calculated;
        value           uniform (0 0 0);
    }
    procBoundary0to1
    {
        type            processor;
        value           uniform (0 0 0);
    }
    procBoundary0to2
    {
        type            processor;
        value           uniform (0 0 0);
    }
    procBoundary0to4
    {
        type            processor;
        value           uniform (0 0 0);
    }
    procBoundary0to6
    {
        type            processor;
        value           uniform (0 0 0);
    }
    procBoundary0to7
    {
        type            processor;
        value           uniform (0 0 0);
    }
}


// ************************************************************************* //
