/*--------------------------------*- C++ -*----------------------------------*\
| =========                 |                                                 |
| \\      /  F ield         | OpenFOAM: The Open Source CFD Toolbox           |
|  \\    /   O peration     | Version:  4.x                                   |
|   \\  /    A nd           | Web:      www.OpenFOAM.org                      |
|    \\/     M anipulation  |                                                 |
\*---------------------------------------------------------------------------*/
FoamFile
{
    version     2.0;
    format      ascii;
    class       volScalarField;
    location    "40";
    object      Ksl;
}
// * * * * * * * * * * * * * * * * * * * * * * * * * * * * * * * * * * * * * //

dimensions      [1 -3 -1 0 0 0 0];

internalField   nonuniform List<scalar> 
87
(
3816.34
14679.5
3543.17
3241.02
6808.22
3161.79
3569.88
12430.8
3839.16
25856.5
3957.15
109217
3981.94
1e+10
3954.14
3481.68
10741.1
3674.97
15374.6
3769.5
24636.9
3802.23
57926.1
3797.18
3367.66
8125.61
3384.86
7900.4
3410.26
8125.91
3388.46
8362.35
3372.12
3510.12
10706.2
3698.26
15279.5
3747.22
24099
3778.59
49846.3
3747.29
3434.57
9146.2
3558.25
10110.2
3588.56
11273.6
3615.03
13357.8
3575
3354.54
7567.25
3296.15
6965.72
3263.03
6675.06
3223.19
6544.96
3164.84
3422.18
8115.27
3451.86
8124.83
3410.11
8165.56
3400.47
8503.07
3316.68
3365.29
7571.42
3337.65
7052.99
3284.05
6761.61
3250.89
6688.15
3173.69
3311.82
6978.23
3192.79
6013.31
3059.55
5470.66
3005.6
5210.65
2949.27
)
;

boundaryField
{
    inlet
    {
        type            zeroGradient;
    }
    outlet
    {
        type            zeroGradient;
    }
    wall
    {
        type            zeroGradient;
    }
    procBoundary6to0
    {
        type            processor;
        value           uniform 3772.76;
    }
    procBoundary6to2
    {
        type            processor;
        value           nonuniform List<scalar> 
32
(
3848.34
25173.8
3711.02
3294.88
6968.75
3211.84
3502.01
11577.1
3750.55
17939.7
3827.12
31031.4
3841.3
85781.2
85781.2
85781.2
3455.66
9894.93
3638.13
11753.3
3669.18
13447.6
3626.06
3626.06
3626.06
3353.55
8008.28
3387.21
7559.01
3336.51
7128.31
7128.31
)
;
    }
    procBoundary6to4
    {
        type            processor;
        value           nonuniform List<scalar> 
27
(
3489.91
11317.6
3789.48
19324.1
3878.07
48740.7
3895.13
5.74203e+08
3864.62
3492.59
10530.8
3703.19
14851.5
3777.2
21393.6
3755.16
31563.4
3666.83
3463.34
8496.47
3492.23
8625.91
3456.74
8259.88
3326.5
7611.01
3205.14
)
;
    }
    procBoundary6to7
    {
        type            processor;
        value           nonuniform List<scalar> 
12
(
1e+10
14778.4
6778.11
1e+10
1.30592e+07
9381.55
1.19855e+06
16172.7
6481.1
8933.05
6699.08
5116.02
)
;
    }
}


// ************************************************************************* //
