/*--------------------------------*- C++ -*----------------------------------*\
| =========                 |                                                 |
| \\      /  F ield         | OpenFOAM: The Open Source CFD Toolbox           |
|  \\    /   O peration     | Version:  4.x                                   |
|   \\  /    A nd           | Web:      www.OpenFOAM.org                      |
|    \\/     M anipulation  |                                                 |
\*---------------------------------------------------------------------------*/
FoamFile
{
    version     2.0;
    format      ascii;
    class       surfaceScalarField;
    location    "40";
    object      phi;
}
// * * * * * * * * * * * * * * * * * * * * * * * * * * * * * * * * * * * * * //

dimensions      [0 3 -1 0 0 0 0];

internalField   nonuniform List<scalar> 
192
(
2.12518e-07
-9.6995e-09
7.06454e-06
7.96631e-08
-1.23317e-07
1.46296e-07
-1.37481e-07
9.24325e-06
-2.41459e-07
9.28131e-06
-2.94086e-07
-2.15808e-07
7.25755e-06
3.75258e-07
5.64239e-08
6.94329e-06
1.52904e-07
1.43501e-08
6.13485e-06
3.6852e-07
8.54697e-08
5.88013e-06
1.00046e-07
2.35087e-08
5.34201e-06
2.22673e-07
7.62667e-08
5.19474e-06
5.76852e-08
2.28547e-08
5.06924e-06
5.41678e-08
4.96807e-09
4.99173e-06
2.72044e-08
2.64397e-08
-1.01429e-07
-3.67901e-08
7.62954e-06
4.85815e-07
4.90695e-08
7.39847e-06
1.94317e-07
1.91016e-09
6.8782e-06
4.76263e-07
8.49474e-08
6.67969e-06
1.44573e-07
-2.12194e-08
6.24242e-06
3.18416e-07
7.89503e-08
6.08663e-06
9.8677e-08
-2.12646e-08
5.69753e-06
2.00421e-07
4.93086e-08
5.56204e-06
5.80917e-08
-1.87141e-08
1.51284e-08
-1.28357e-10
8.30616e-06
-1.71722e-08
8.31619e-06
-4.17011e-08
8.43955e-06
-1.1693e-08
8.3709e-06
-7.42962e-08
8.36241e-06
-1.2933e-08
8.31016e-06
-9.84378e-08
8.30228e-06
-3.316e-08
8.20023e-06
-1.33939e-07
-3.44271e-08
7.55887e-06
4.32392e-07
3.04807e-07
7.34061e-06
1.84364e-07
1.08999e-07
6.81668e-06
4.41954e-07
3.03599e-07
6.65988e-06
1.28827e-07
8.92864e-08
6.2372e-06
3.34576e-07
2.51818e-07
6.09499e-06
8.94631e-08
6.97877e-08
5.74444e-06
2.25844e-07
1.52304e-07
5.61617e-06
5.60311e-08
8.25372e-08
1.33577e-07
1.01204e-07
7.95772e-06
4.51588e-07
2.3542e-07
7.83872e-06
2.06893e-07
9.8385e-08
7.67348e-06
4.39161e-07
2.52973e-07
7.5721e-06
1.48199e-07
6.07951e-08
7.42609e-06
3.43269e-07
2.16265e-07
7.29918e-06
1.36371e-07
5.87377e-08
7.09534e-06
2.79266e-07
1.99727e-07
7.00952e-06
9.77854e-08
2.53487e-08
1.83298e-07
1.17095e-07
8.44617e-06
1.51513e-07
8.5625e-06
4.88573e-08
8.83705e-06
1.52924e-07
8.85949e-06
5.14633e-08
9.05233e-06
1.37495e-07
9.08023e-06
1.00317e-08
9.22395e-06
1.02382e-07
9.2211e-06
-3.33009e-08
4.71698e-08
8.2147e-06
3.59627e-07
8.20424e-06
1.54801e-07
8.239e-06
3.2747e-07
8.19986e-06
1.27994e-07
8.23649e-06
2.08327e-07
8.17904e-06
7.5105e-08
8.14107e-06
1.00922e-07
8.15028e-06
-9.89718e-09
3.73413e-09
8.40915e-06
3.49161e-07
8.49596e-06
1.66381e-07
8.73641e-06
3.39993e-07
8.76893e-06
1.56262e-07
8.94276e-06
2.50767e-07
8.96717e-06
1.09432e-07
9.07955e-06
1.88265e-07
9.06359e-06
3.14191e-08
5.9784e-08
8.66394e-06
8.87918e-06
9.37209e-06
9.57982e-06
9.96808e-06
1.00875e-05
1.03782e-05
1.03763e-05
)
;

boundaryField
{
    inlet
    {
        type            calculated;
        value           uniform -8.16327e-06;
    }
    outlet
    {
        type            calculated;
        value           nonuniform 0();
    }
    wall
    {
        type            calculated;
        value           nonuniform List<scalar> 
57
(
0
0
0
-7.70372e-34
0
0
0
3.85186e-34
0
0
0
0
0
0
0
0
0
0
0
0
0
0
0
0
0
-2.46519e-32
0
0
0
0
0
0
0
0
0
0
0
0
-1.54074e-33
0
0
0
0
0
0
0
0
0
0
0
0
0
0
1.54074e-33
0
0
0
)
;
    }
    procBoundary6to0
    {
        type            processor;
        value           uniform -5.12132e-08;
    }
    procBoundary6to2
    {
        type            processor;
        value           nonuniform List<scalar> 
32
(
4.1223e-09
1.46534e-07
1.18152e-07
3.27298e-07
3.35687e-07
2.63492e-07
4.41893e-07
1.6889e-07
3.50253e-07
1.16612e-07
2.05161e-07
5.42094e-08
5.03922e-08
-5.46775e-06
-1.08848e-07
2.38679e-08
3.74097e-07
1.87749e-07
3.27582e-07
1.75197e-07
2.62576e-07
1.36068e-07
-7.05857e-06
-2.97554e-07
1.93542e-07
3.60096e-07
2.25985e-07
3.64597e-07
2.87514e-07
3.39842e-07
-9.03153e-06
2.49366e-07
)
;
    }
    procBoundary6to4
    {
        type            processor;
        value           nonuniform List<scalar> 
27
(
3.21363e-08
-2.18759e-08
4.19087e-09
1.45527e-08
3.40187e-08
1.25259e-08
1.59671e-08
3.22994e-12
7.77274e-08
-7.63783e-08
-6.07534e-08
-1.3615e-07
-3.78109e-08
-8.74508e-08
5.82236e-09
-2.26327e-08
1.61376e-08
6.59753e-09
-1.06259e-07
-3.53419e-08
-5.86247e-08
4.30517e-10
6.85651e-09
5.21385e-08
8.93528e-08
8.32204e-08
1.14126e-07
)
;
    }
    procBoundary6to7
    {
        type            processor;
        value           nonuniform List<scalar> 
12
(
5.31202e-06
7.15009e-06
9.37992e-06
5.04252e-06
5.30812e-06
8.03397e-06
5.338e-06
6.84258e-06
9.3228e-06
8.13362e-06
9.12463e-06
1.04833e-05
)
;
    }
}


// ************************************************************************* //
