/*--------------------------------*- C++ -*----------------------------------*\
| =========                 |                                                 |
| \\      /  F ield         | OpenFOAM: The Open Source CFD Toolbox           |
|  \\    /   O peration     | Version:  4.x                                   |
|   \\  /    A nd           | Web:      www.OpenFOAM.org                      |
|    \\/     M anipulation  |                                                 |
\*---------------------------------------------------------------------------*/
FoamFile
{
    version     2.0;
    format      ascii;
    class       volScalarField;
    location    "40";
    object      Qsource;
}
// * * * * * * * * * * * * * * * * * * * * * * * * * * * * * * * * * * * * * //

dimensions      [1 -1 -3 0 0 0 0];

internalField   nonuniform List<scalar> 
87
(
8.08826e+09
6.75187e+09
8.94273e+09
6.56614e+09
6.69635e+09
6.50127e+09
9.95421e+09
8.95464e+09
6.08808e+09
8.00617e+09
1.10676e+10
6.10451e+09
8.70278e+09
6.65853e+09
9.96097e+09
6.30484e+09
9.21919e+09
8.18276e+09
1.02291e+10
8.86036e+09
8.74922e+09
8.75949e+09
9.23216e+09
9.39744e+09
5.5074e+09
7.99415e+09
6.79571e+09
6.57089e+09
9.54661e+09
9.89763e+09
8.19474e+09
6.74209e+09
9.62261e+09
7.35124e+09
9.00042e+09
9.66134e+09
8.63155e+09
6.67244e+09
7.88649e+09
7.93521e+09
6.09711e+09
9.56929e+09
5.3752e+09
8.87316e+09
8.84912e+09
8.03778e+09
7.94915e+09
6.56113e+09
1.00263e+10
6.58632e+09
9.97525e+09
5.63767e+09
7.10702e+09
7.02349e+09
8.30273e+09
9.07218e+09
6.65538e+09
8.49515e+09
6.93149e+09
7.75433e+09
5.73088e+09
5.81613e+09
8.25536e+09
7.43653e+09
7.99523e+09
6.91673e+09
1.11309e+10
9.09697e+09
5.37603e+09
6.02004e+09
6.2619e+09
8.46452e+09
6.64339e+09
1.05182e+10
7.18605e+09
8.06229e+09
6.57234e+09
9.33923e+09
5.90691e+09
7.04366e+09
8.48e+09
7.36244e+09
7.01311e+09
9.59591e+09
7.42814e+09
6.80598e+09
9.02474e+09
)
;

boundaryField
{
    inlet
    {
        type            calculated;
        value           uniform 0;
    }
    outlet
    {
        type            calculated;
        value           nonuniform 0();
    }
    wall
    {
        type            calculated;
        value           uniform 0;
    }
    procBoundary6to0
    {
        type            processor;
        value           uniform 2.60345e+09;
    }
    procBoundary6to2
    {
        type            processor;
        value           nonuniform List<scalar> 
32
(
5.74806e+09
8.50899e+09
1.02503e+10
1.05856e+10
5.85074e+09
8.6449e+09
4.89905e+09
9.48158e+09
1.02987e+10
7.15378e+09
8.23563e+09
6.26428e+09
7.57519e+09
7.46319e+09
7.46319e+09
7.46319e+09
5.87353e+09
7.90346e+09
1.05267e+10
6.6033e+09
9.11971e+09
7.67721e+09
1.03086e+10
1.03086e+10
1.03086e+10
5.08969e+09
6.71636e+09
8.35498e+09
7.68397e+09
7.60637e+09
6.9464e+09
6.9464e+09
)
;
    }
    procBoundary6to4
    {
        type            processor;
        value           nonuniform List<scalar> 
27
(
3.45691e+09
6.72773e+09
9.39302e+09
5.69442e+09
8.7864e+09
6.64309e+09
1.1011e+10
5.9759e+09
7.05018e+09
6.2054e+09
8.58307e+09
7.54435e+09
9.65309e+09
1.05248e+10
7.61767e+09
1.18405e+10
8.49398e+09
8.13997e+09
8.06246e+09
7.40396e+09
7.51281e+09
8.36541e+09
9.25903e+09
9.93653e+09
5.80616e+09
5.60357e+09
7.94074e+09
)
;
    }
    procBoundary6to7
    {
        type            processor;
        value           nonuniform List<scalar> 
12
(
7.44914e+09
5.27078e+09
7.54057e+09
3.84359e+09
6.00177e+09
7.10481e+09
8.54626e+09
8.1847e+09
6.51268e+09
7.67684e+09
6.80089e+09
7.25372e+09
)
;
    }
}


// ************************************************************************* //
