/*--------------------------------*- C++ -*----------------------------------*\
| =========                 |                                                 |
| \\      /  F ield         | OpenFOAM: The Open Source CFD Toolbox           |
|  \\    /   O peration     | Version:  4.x                                   |
|   \\  /    A nd           | Web:      www.OpenFOAM.org                      |
|    \\/     M anipulation  |                                                 |
\*---------------------------------------------------------------------------*/
FoamFile
{
    version     2.0;
    format      ascii;
    class       volVectorField;
    location    "40";
    object      UsPrev;
}
// * * * * * * * * * * * * * * * * * * * * * * * * * * * * * * * * * * * * * //

dimensions      [0 1 -1 0 0 0 0];

internalField   nonuniform List<vector> 
87
(
(1.03922e-09 7.10413e-10 6.73178e-09)
(2.29492e-10 6.3994e-11 3.8642e-09)
(3.14932e-10 -1.78564e-11 5.46432e-09)
(1.45622e-10 2.1226e-10 1.03475e-09)
(8.60069e-11 2.04349e-10 2.33903e-09)
(6.57688e-10 -9.42548e-11 2.08622e-09)
(4.18193e-10 -1.37683e-10 -2.52994e-10)
(4.14312e-10 -2.81131e-10 -4.02022e-10)
(6.21342e-10 -1.32799e-10 -3.04117e-10)
(4.46754e-10 2.03605e-11 4.33646e-11)
(1.01052e-09 3.64315e-11 7.32119e-10)
(-5.65966e-11 2.73663e-11 1.31232e-09)
(2.01219e-10 6.66949e-11 2.51428e-09)
(2.98516e-11 3.82335e-11 3.59074e-09)
(1.14752e-10 4.37759e-10 5.16724e-09)
(4.38975e-10 -5.7202e-11 -3.17347e-10)
(2.32335e-10 -1.68082e-10 -5.01915e-10)
(5.57674e-10 -4.51853e-11 -4.97473e-10)
(5.01563e-11 8.76452e-11 -2.06182e-10)
(3.05083e-10 4.95575e-11 1.6328e-10)
(-1.52159e-10 1.02804e-11 7.59901e-10)
(1.95551e-10 -8.93402e-11 1.72982e-09)
(-3.13778e-10 1.01621e-10 2.6901e-09)
(-2.13045e-10 2.56995e-10 3.64675e-09)
(1.14804e-10 -1.20941e-11 -1.34906e-10)
(-6.72094e-10 -4.86493e-10 -4.90681e-10)
(1.95351e-10 -2.6794e-11 -1.78139e-10)
(1.3917e-10 -1.16406e-10 -2.69653e-10)
(1.02795e-10 -1.47572e-11 2.34555e-11)
(-2.23023e-10 1.56879e-11 3.79519e-10)
(-4.64602e-10 -8.11514e-11 9.05023e-10)
(-6.05137e-10 -2.84602e-10 9.51179e-10)
(-7.59054e-10 5.21525e-11 1.51326e-09)
(2.11048e-10 -1.02146e-10 -9.78843e-11)
(-4.93118e-11 -2.49614e-11 -2.10406e-11)
(7.48806e-11 -5.91607e-11 -1.77866e-10)
(-1.79859e-10 1.17978e-10 7.80979e-12)
(-2.13258e-10 2.03859e-10 3.7859e-10)
(-7.0115e-10 2.92102e-10 8.71472e-10)
(-5.1458e-10 3.59706e-10 1.45704e-09)
(-4.86402e-10 3.88676e-10 2.3953e-09)
(-5.27824e-11 8.57777e-10 3.41483e-09)
(1.74186e-10 -8.89513e-11 -2.00676e-10)
(-7.86671e-11 4.9126e-11 -2.21328e-10)
(-3.14828e-11 -5.79313e-11 -1.81425e-10)
(-3.33773e-10 9.59673e-11 -2.67137e-10)
(-8.08542e-11 1.08384e-10 1.59783e-10)
(-9.16371e-10 1.17551e-10 5.39314e-10)
(-5.12018e-10 1.29282e-10 1.08908e-09)
(-1.22854e-09 3.43198e-10 1.24324e-09)
(-4.08996e-10 5.79197e-10 2.77686e-09)
(4.92948e-10 -1.12257e-10 1.49952e-10)
(-2.8567e-09 -1.11319e-09 -3.13929e-11)
(7.52666e-11 -2.98424e-10 2.13267e-10)
(-2.98981e-10 -1.58914e-11 -1.83e-10)
(-1.46292e-10 4.88413e-11 2.52767e-11)
(-4.7886e-10 8.71377e-11 1.74181e-10)
(-2.39123e-10 2.72312e-11 5.06403e-10)
(-6.41719e-10 3.84004e-10 9.99362e-10)
(-5.62355e-10 2.74032e-10 1.11786e-09)
(1.175e-10 -5.81022e-11 -4.41387e-11)
(6.52681e-11 1.0423e-10 5.80035e-13)
(8.21577e-11 -2.52941e-11 -8.75668e-11)
(-2.9328e-10 3.96707e-11 3.9851e-11)
(-3.13851e-10 9.7139e-11 1.80636e-10)
(-5.93007e-10 9.25298e-11 3.77063e-10)
(-2.13092e-10 4.7034e-10 7.16665e-10)
(-4.52417e-10 7.95634e-11 8.8526e-10)
(2.02218e-10 -6.73978e-12 1.22278e-09)
(8.97029e-10 3.4708e-10 -8.90805e-11)
(-6.27153e-11 3.71818e-11 -1.02436e-10)
(2.35889e-10 -2.1634e-11 -2.54063e-11)
(-4.71004e-10 2.39789e-11 -1.63316e-11)
(-1.99274e-10 2.40568e-11 7.01045e-11)
(-5.34635e-10 1.09182e-10 2.28129e-10)
(-1.56353e-10 7.16325e-10 3.79811e-10)
(-1.83018e-09 -2.20211e-11 9.09162e-10)
(2.59485e-10 4.39639e-11 1.16287e-09)
(3.5734e-09 9.20614e-10 1.64609e-10)
(-3.33672e-11 2.73075e-11 -1.05645e-10)
(8.0509e-11 -1.22139e-10 1.30116e-10)
(-2.17838e-10 3.03052e-11 -1.90567e-11)
(-2.25038e-10 -8.19158e-12 -2.71331e-11)
(-5.2665e-10 1.00705e-10 1.08585e-10)
(-5.37947e-10 1.58967e-10 1.77046e-10)
(-8.36776e-10 6.7555e-11 4.21974e-10)
(-4.53406e-11 2.28417e-10 8.03177e-10)
)
;

boundaryField
{
    inlet
    {
        type            calculated;
        value           uniform (0 0 0);
    }
    outlet
    {
        type            calculated;
        value           nonuniform 0();
    }
    wall
    {
        type            calculated;
        value           uniform (0 0 0);
    }
    procBoundary6to0
    {
        type            processor;
        value           uniform (0 0 0);
    }
    procBoundary6to2
    {
        type            processor;
        value           uniform (0 0 0);
    }
    procBoundary6to4
    {
        type            processor;
        value           uniform (0 0 0);
    }
    procBoundary6to7
    {
        type            processor;
        value           uniform (0 0 0);
    }
}


// ************************************************************************* //
