/*--------------------------------*- C++ -*----------------------------------*\
| =========                 |                                                 |
| \\      /  F ield         | OpenFOAM: The Open Source CFD Toolbox           |
|  \\    /   O peration     | Version:  4.x                                   |
|   \\  /    A nd           | Web:      www.OpenFOAM.org                      |
|    \\/     M anipulation  |                                                 |
\*---------------------------------------------------------------------------*/
FoamFile
{
    version     2.0;
    format      ascii;
    class       volVectorField;
    location    "7.5";
    object      DDtUrel;
}
// * * * * * * * * * * * * * * * * * * * * * * * * * * * * * * * * * * * * * //

dimensions      [0 1 -2 0 0 0 0];

internalField   nonuniform List<vector> 
114
(
(0.000572753 6.20239e-06 0.000187053)
(0.000338682 5.74177e-06 0.000184405)
(0.000210792 5.31753e-06 0.000155748)
(0.000145809 3.92201e-06 8.04061e-05)
(0.000156959 5.95724e-06 7.58212e-06)
(0.000190418 2.93128e-06 -3.5424e-05)
(0.00193441 5.53039e-05 -0.000181049)
(0.00131245 3.95394e-05 -2.86737e-05)
(0.000903862 2.76611e-05 9.63543e-05)
(0.000623443 1.98387e-05 0.000189584)
(0.000384917 1.36371e-05 0.000191588)
(0.000248921 6.27621e-06 0.000164385)
(0.000167228 2.35695e-06 9.06102e-05)
(0.00017176 1.40332e-06 1.53372e-05)
(0.000200285 1.50943e-06 -3.52839e-05)
(0.00199284 9.58415e-05 -0.000181315)
(0.00138837 6.1741e-05 -3.05291e-05)
(0.000997519 4.20432e-05 9.74302e-05)
(0.000730544 3.45544e-05 0.00019425)
(0.000491788 2.69816e-05 0.000210315)
(0.000339616 2.03912e-05 0.000199155)
(0.000226399 1.1844e-05 0.000129626)
(0.000209304 3.93362e-06 5.47241e-05)
(0.000216795 3.82905e-07 -1.15611e-05)
(0.0020572 0.000112023 -0.000176034)
(0.00147478 7.62323e-05 -3.09312e-05)
(0.00110563 5.15271e-05 9.57479e-05)
(0.000865179 4.47169e-05 0.000195619)
(0.000643423 3.81003e-05 0.000231111)
(0.000488646 3.61621e-05 0.000239611)
(0.000347365 2.80205e-05 0.000187701)
(0.000289203 1.25235e-05 0.000119068)
(0.000244522 -2.27223e-06 3.56811e-05)
(0.000270351 3.2727e-06 0.000130688)
(0.00021948 3.05309e-06 6.39592e-05)
(0.000223337 6.30327e-06 -4.53292e-06)
(0.000228449 2.26867e-06 -4.17881e-05)
(0.00181396 5.62189e-05 -0.000218997)
(0.00116342 3.39443e-05 -3.11076e-05)
(0.00077644 2.17795e-05 9.01617e-05)
(0.000539096 1.09664e-05 0.000180685)
(0.000377914 5.43056e-06 0.000168559)
(0.0002958 -2.31101e-06 0.000143022)
(0.000236101 -2.2262e-06 7.52456e-05)
(0.000238485 -1.6888e-06 5.13829e-06)
(0.000239383 -2.38833e-06 -3.90291e-05)
(0.00186926 0.000100924 -0.000220602)
(0.00122853 6.04117e-05 -3.52393e-05)
(0.000848803 3.51733e-05 9.07437e-05)
(0.000617203 2.0767e-05 0.000186594)
(0.0004532 1.34727e-05 0.00018912)
(0.000361191 5.04864e-06 0.000179532)
(0.000288122 -8.30393e-07 0.00011497)
(0.000280919 -8.73223e-06 4.64287e-05)
(0.000270928 -9.696e-06 -1.27209e-05)
(0.00193867 0.000119917 -0.000217658)
(0.00131874 7.66228e-05 -3.76166e-05)
(0.000951518 4.52588e-05 9.09507e-05)
(0.000734603 3.15413e-05 0.000194165)
(0.000573001 2.27656e-05 0.000220331)
(0.000479128 1.4257e-05 0.000234472)
(0.000389064 6.29044e-06 0.000184025)
(0.000368219 -1.06814e-05 0.000124021)
(0.000324057 -1.9145e-05 4.17382e-05)
(0.000247514 4.81864e-06 -7.73197e-06)
(0.000232969 1.0467e-06 -4.08734e-05)
(0.00171459 5.97061e-05 -0.000201712)
(0.00104703 2.99205e-05 -2.92688e-05)
(0.000680159 1.57889e-05 7.07589e-05)
(0.000478516 4.41458e-06 0.000142712)
(0.000363518 7.53369e-07 0.000130566)
(0.000313235 -4.36806e-06 0.00010781)
(0.000272071 -2.80315e-06 5.45166e-05)
(0.000270752 -2.5476e-06 -1.88494e-06)
(0.000256568 -3.58639e-06 -3.8405e-05)
(0.00176488 0.000104476 -0.000203587)
(0.001103 5.79184e-05 -3.4084e-05)
(0.000736073 2.92959e-05 6.99124e-05)
(0.000532684 1.06346e-05 0.000148719)
(0.000418063 3.261e-06 0.000149627)
(0.000363861 -5.34877e-06 0.000141176)
(0.00032281 -8.11553e-06 8.9406e-05)
(0.000321767 -1.53246e-05 3.37771e-05)
(0.000307793 -1.42296e-05 -1.60981e-05)
(0.00183375 0.00012489 -0.000204033)
(0.00118684 7.6127e-05 -3.86047e-05)
(0.000824412 3.98435e-05 7.0737e-05)
(0.000628187 2.01616e-05 0.000159982)
(0.000514843 8.38927e-06 0.000183152)
(0.000463499 -1.93133e-06 0.000194709)
(0.00041918 -8.88066e-06 0.000150287)
(0.00042673 -2.39665e-05 0.000103108)
(0.000398901 -2.5517e-05 2.75408e-05)
(0.00166013 5.65426e-05 -0.000154671)
(0.000986567 2.85839e-05 -1.94985e-05)
(0.000629059 1.21734e-05 5.27476e-05)
(0.000444909 4.07337e-08 0.000105431)
(0.000350585 -1.72205e-06 9.50668e-05)
(0.000312724 -5.92818e-06 7.42473e-05)
(0.000281995 -5.23758e-06 3.42673e-05)
(0.000277855 -4.57848e-06 -9.76862e-06)
(0.00171084 0.000107695 -0.000155717)
(0.00103999 5.43101e-05 -2.40926e-05)
(0.000678467 2.30216e-05 5.18563e-05)
(0.000489269 2.55948e-06 0.000110314)
(0.000394849 -2.9092e-06 0.000111038)
(0.000356662 -1.1492e-05 0.000103658)
(0.000331898 -1.38603e-05 6.10212e-05)
(0.00178312 0.000128145 -0.000159407)
(0.00112361 7.29658e-05 -3.04111e-05)
(0.000762163 3.36806e-05 5.12947e-05)
(0.000574501 1.12768e-05 0.000119118)
(0.000480272 -1.76992e-07 0.000140105)
(0.000449867 -1.3639e-05 0.000148396)
)
;

boundaryField
{
    inlet
    {
        type            calculated;
        value           nonuniform List<vector> 
12
(
(0.00420634 0.000191805 -0.000550546)
(0.00431128 0.00026534 -0.000566582)
(0.00450454 0.000253393 -0.000502535)
(0.00376354 0.00019713 -0.000981428)
(0.00384309 0.00031559 -0.00100749)
(0.00411825 0.000327277 -0.000961266)
(0.00366432 0.000252386 -0.000856784)
(0.00369802 0.000330915 -0.000851496)
(0.00397453 0.000350631 -0.000836451)
(0.00362438 0.000199445 -0.000708338)
(0.00370645 0.000382164 -0.00065373)
(0.00403844 0.000385501 -0.000658716)
)
;
    }
    outlet
    {
        type            calculated;
        value           nonuniform 0();
    }
    wall
    {
        type            calculated;
        value           nonuniform List<vector> 
66
(
(0.00420634 0.000191805 -0.000550546)
(0.00431128 0.00026534 -0.000566582)
(0.00450454 0.000253393 -0.000502535)
(0.00093724 0.000100079 5.54302e-05)
(0.00115343 4.27607e-05 5.35176e-05)
(0.00152633 8.3483e-05 4.80078e-05)
(0.000712751 6.606e-05 0.000213181)
(0.00100797 3.85453e-05 0.000226979)
(0.00149166 4.17271e-05 0.000192079)
(0.000262628 3.62892e-05 0.000498686)
(0.000573177 3.84685e-05 0.000505883)
(0.000901817 9.09351e-05 0.000489503)
(0.00161672 0.000115506 0.000412822)
(-0.000324166 2.21585e-05 0.000287217)
(-0.000111567 2.57964e-05 0.000321376)
(0.000192482 7.2013e-05 0.000356988)
(0.00110662 0.000103887 0.000415145)
(-0.000386335 3.77609e-05 0.000311379)
(-0.000231118 -1.89413e-05 0.000300612)
(-3.10346e-05 6.8542e-05 0.00043088)
(0.000930443 0.000171562 0.000574933)
(-0.000413771 1.78473e-05 3.71938e-05)
(-0.000438531 -2.71411e-05 5.41153e-05)
(-0.000463472 2.80166e-05 0.000133324)
(0.000320678 0.000167795 0.000430845)
(-0.000145434 4.39733e-05 -0.000117184)
(-0.000179828 -1.43242e-05 -0.000130074)
(-0.000219394 9.8561e-06 -2.42047e-05)
(0.000248068 0.000107566 0.000348721)
(3.54272e-05 -5.42175e-06 -5.20849e-05)
(-3.74707e-05 2.60439e-05 -0.000106894)
(-0.000136891 5.14304e-05 -8.59922e-05)
(-0.000169643 5.60338e-05 0.000143844)
(0.00450454 0.000253393 -0.000502535)
(0.00411825 0.000327277 -0.000961266)
(0.00397453 0.000350631 -0.000836451)
(0.00403844 0.000385501 -0.000658716)
(0.00152633 8.3483e-05 4.80078e-05)
(0.000702068 9.03374e-05 0.000104544)
(0.000311781 9.95654e-05 0.000101119)
(0.000300717 8.294e-05 7.71052e-05)
(0.00149166 4.17271e-05 0.000192079)
(0.000696258 1.63622e-05 0.000220839)
(0.000357742 2.06276e-05 0.000135987)
(0.000347776 9.65472e-06 7.62306e-05)
(0.00161672 0.000115506 0.000412822)
(0.000840918 4.29834e-05 0.000567141)
(0.000490811 1.60004e-05 0.000428915)
(0.000453968 1.67545e-06 0.000286018)
(0.00110662 0.000103887 0.000415145)
(0.000682954 4.72793e-05 0.000435632)
(0.000538232 1.48403e-06 0.000341301)
(0.000513376 1.10009e-05 0.000279311)
(0.000930443 0.000171562 0.000574933)
(0.000846922 2.30704e-05 0.000717919)
(0.000739532 -1.63629e-05 0.000559814)
(0.000759309 -5.14586e-05 0.000462999)
(0.000320678 0.000167795 0.000430845)
(0.000509553 3.69855e-05 0.000518443)
(0.000616311 8.06188e-06 0.000371145)
(0.000248068 0.000107566 0.000348721)
(0.000773447 -7.46298e-05 0.000512883)
(0.00100287 -9.76865e-05 0.000448293)
(-0.000169643 5.60338e-05 0.000143844)
(0.000299281 -6.9689e-05 0.000264009)
(0.000731591 -2.6063e-05 0.000184015)
)
;
    }
    procBoundary2to0
    {
        type            processor;
        value           nonuniform List<vector> 
44
(
(0.000627863 -1.14338e-05 0.000190721)
(0.000384515 -5.65645e-06 0.000195476)
(0.000241651 -3.17727e-06 0.000170739)
(0.000152832 -1.83779e-06 9.79789e-05)
(0.000150921 3.06881e-06 2.11401e-05)
(0.000177741 3.32729e-06 -2.49758e-05)
(0.00191261 -1.40624e-05 -0.000183376)
(0.00128221 -9.39212e-07 -2.28536e-05)
(0.000864334 2.31905e-06 9.69499e-05)
(0.000864334 2.31905e-06 9.69499e-05)
(0.000507618 4.96859e-06 0.000177132)
(0.000350923 3.7817e-06 0.00015999)
(0.000292747 5.47866e-06 0.000148128)
(0.000229869 4.48581e-06 8.02873e-05)
(0.000227651 7.39536e-06 8.74772e-06)
(0.00022262 5.65386e-06 -3.12049e-05)
(0.00178925 -1.35389e-05 -0.000222495)
(0.00113541 -3.06583e-06 -2.54891e-05)
(0.000748641 1.47825e-06 9.11283e-05)
(0.000507618 4.96859e-06 0.000177132)
(0.000350923 3.7817e-06 0.00015999)
(0.000350923 3.7817e-06 0.00015999)
(0.000292204 1.58838e-06 9.60673e-05)
(0.000253874 2.60185e-06 4.59271e-05)
(0.0002656 9.68452e-06 2.77568e-06)
(0.000247294 5.51524e-06 -3.18398e-05)
(0.00168921 -9.82391e-06 -0.000198188)
(0.00102244 -2.96642e-06 -2.61229e-05)
(0.000659924 3.63283e-07 7.15165e-05)
(0.000457957 2.71913e-06 0.000139463)
(0.000345796 2.05162e-06 0.000122519)
(0.000292204 1.58838e-06 9.60673e-05)
(0.000253874 2.60185e-06 4.59271e-05)
(0.000253874 2.60185e-06 4.59271e-05)
(0.000253169 1.63979e-06 -1.2102e-05)
(0.000237462 -1.43357e-06 -4.5585e-05)
(0.00164174 -1.42723e-05 -0.000147048)
(0.000968256 -2.36798e-06 -1.69914e-05)
(0.000612934 9.02269e-07 5.49954e-05)
(0.00042849 3.81656e-06 0.000104498)
(0.000336074 2.11426e-06 9.06179e-05)
(0.000294273 1.77622e-06 6.95515e-05)
(0.000265243 1.27557e-06 2.92688e-05)
(0.000253169 1.63979e-06 -1.2102e-05)
)
;
    }
    procBoundary2to3
    {
        type            processor;
        value           nonuniform List<vector> 
12
(
(0.000238583 4.10904e-06 -7.72931e-05)
(0.000258719 -2.544e-06 -8.25897e-05)
(0.000271583 -7.89123e-06 -7.60763e-05)
(0.000278467 -2.16e-05 -4.22188e-05)
(0.000239286 3.87297e-07 -8.37752e-05)
(0.000265164 -6.4929e-06 -8.68555e-05)
(0.00029425 -1.58756e-05 -7.91435e-05)
(0.000342106 -3.08046e-05 -3.8519e-05)
(0.00022144 -1.00385e-06 -8.06813e-05)
(0.000260622 -1.23472e-05 -8.10472e-05)
(0.000317428 -2.01273e-05 -7.25815e-05)
(0.000411246 -3.33851e-05 -4.32268e-05)
)
;
    }
    procBoundary2to6
    {
        type            processor;
        value           nonuniform List<vector> 
32
(
(0.000259439 -4.9924e-06 -4.25349e-05)
(0.000331144 -2.04621e-05 1.44198e-05)
(0.000316132 -1.92512e-05 -2.81102e-05)
(0.000426454 -2.19797e-05 0.000108175)
(0.000439591 -3.62568e-05 6.87887e-05)
(0.000414096 -3.62656e-05 7.43185e-07)
(0.0016445 5.59168e-05 -7.63329e-05)
(0.000963952 2.65271e-05 -1.76088e-06)
(0.000610957 9.21994e-06 3.95879e-05)
(0.000431868 -2.41754e-06 6.8693e-05)
(0.000346096 -3.97838e-06 6.27295e-05)
(0.000307015 -6.80436e-06 4.64722e-05)
(0.000283749 -8.58708e-06 1.76457e-05)
(0.000259439 -4.9924e-06 -4.25349e-05)
(0.000331144 -2.04621e-05 1.44198e-05)
(0.000272136 -1.19712e-05 -2.0091e-05)
(0.00169336 0.000108466 -8.18952e-05)
(0.00101608 5.03463e-05 -6.90322e-06)
(0.000656618 1.87528e-05 3.87477e-05)
(0.000470728 -4.12894e-06 7.39491e-05)
(0.000383379 -7.41414e-06 7.40602e-05)
(0.000344041 -1.35343e-05 6.35579e-05)
(0.000331144 -2.04621e-05 1.44198e-05)
(0.000426454 -2.19797e-05 0.000108175)
(0.000328665 -1.72953e-05 3.4252e-05)
(0.00176633 0.0001262 -9.18925e-05)
(0.00109732 6.83812e-05 -1.36937e-05)
(0.000735386 2.81583e-05 3.7737e-05)
(0.000546767 2.62742e-06 8.19684e-05)
(0.00045293 -7.62106e-06 9.40209e-05)
(0.000426454 -2.19797e-05 0.000108175)
(0.000421061 -2.08509e-05 9.53595e-05)
)
;
    }
}


// ************************************************************************* //
