/*--------------------------------*- C++ -*----------------------------------*\
| =========                 |                                                 |
| \\      /  F ield         | OpenFOAM: The Open Source CFD Toolbox           |
|  \\    /   O peration     | Version:  4.x                                   |
|   \\  /    A nd           | Web:      www.OpenFOAM.org                      |
|    \\/     M anipulation  |                                                 |
\*---------------------------------------------------------------------------*/
FoamFile
{
    version     2.0;
    format      ascii;
    class       volScalarField;
    location    "7.5";
    object      Deff;
}
// * * * * * * * * * * * * * * * * * * * * * * * * * * * * * * * * * * * * * //

dimensions      [0 2 -1 0 0 0 0];

internalField   nonuniform List<scalar> 
114
(
9.92049e-08
9.91822e-08
9.92699e-08
9.91507e-08
9.92737e-08
9.91648e-08
9.94152e-08
9.92913e-08
9.93136e-08
9.9273e-08
9.9133e-08
9.91745e-08
9.90506e-08
9.90614e-08
9.91234e-08
9.95198e-08
9.9372e-08
9.94439e-08
9.92958e-08
9.93097e-08
9.92576e-08
9.93281e-08
9.92171e-08
9.92245e-08
9.95785e-08
9.95247e-08
9.9496e-08
9.94146e-08
9.94646e-08
9.94464e-08
9.9486e-08
9.93411e-08
9.93391e-08
9.85977e-08
9.85058e-08
9.86949e-08
9.8543e-08
9.91178e-08
9.89757e-08
9.88555e-08
9.87761e-08
9.87159e-08
9.86896e-08
9.85266e-08
9.86136e-08
9.86876e-08
9.91517e-08
9.89388e-08
9.88456e-08
9.87931e-08
9.87825e-08
9.87603e-08
9.87299e-08
9.87106e-08
9.86983e-08
9.92363e-08
9.91483e-08
9.89944e-08
9.89705e-08
9.89325e-08
9.894e-08
9.89107e-08
9.88653e-08
9.88812e-08
9.83271e-08
9.82871e-08
9.87943e-08
9.87745e-08
9.86361e-08
9.85166e-08
9.84754e-08
9.83608e-08
9.82492e-08
9.83319e-08
9.83709e-08
9.89185e-08
9.87621e-08
9.85866e-08
9.84342e-08
9.84712e-08
9.84472e-08
9.83451e-08
9.83569e-08
9.82879e-08
9.89949e-08
9.8781e-08
9.87076e-08
9.8603e-08
9.86781e-08
9.85557e-08
9.84417e-08
9.85438e-08
9.83647e-08
9.86594e-08
9.84405e-08
9.83019e-08
9.82754e-08
9.82384e-08
9.81818e-08
9.81313e-08
9.81117e-08
9.86554e-08
9.85036e-08
9.83364e-08
9.83241e-08
9.82486e-08
9.82018e-08
9.8122e-08
9.88116e-08
9.86096e-08
9.84998e-08
9.83804e-08
9.83919e-08
9.83068e-08
)
;

boundaryField
{
    inlet
    {
        type            calculated;
        value           uniform 0;
    }
    outlet
    {
        type            calculated;
        value           nonuniform 0();
    }
    wall
    {
        type            calculated;
        value           uniform 0;
    }
    procBoundary2to0
    {
        type            processor;
        value           uniform 0;
    }
    procBoundary2to3
    {
        type            processor;
        value           uniform 0;
    }
    procBoundary2to6
    {
        type            processor;
        value           uniform 0;
    }
}


// ************************************************************************* //
