/*--------------------------------*- C++ -*----------------------------------*\
| =========                 |                                                 |
| \\      /  F ield         | OpenFOAM: The Open Source CFD Toolbox           |
|  \\    /   O peration     | Version:  4.x                                   |
|   \\  /    A nd           | Web:      www.OpenFOAM.org                      |
|    \\/     M anipulation  |                                                 |
\*---------------------------------------------------------------------------*/
FoamFile
{
    version     2.0;
    format      ascii;
    class       volScalarField;
    location    "7.5";
    object      magGField;
}
// * * * * * * * * * * * * * * * * * * * * * * * * * * * * * * * * * * * * * //

dimensions      [1 -2 -1 0 0 0 0];

internalField   nonuniform List<scalar> 
114
(
62.2772
110.413
55.8913
104.415
34.6021
98.0084
96.523
50.9247
106.236
64.9279
112.037
63.6553
108.725
47.0267
102.465
98.0112
53.1069
109.746
70.8884
118.526
75.2313
118.371
62.5137
110.684
97.7026
57.8363
113.144
81.2107
128.421
96.8072
137.56
99.2336
136.768
21.1456
88.6442
19.1826
90.904
94.8651
39.4698
94.1107
34.7636
90.9641
28.3839
91.2469
24.4212
93.7479
95.8079
40.8423
95.8474
38.5492
93.8203
33.4768
93.8865
27.8357
95.4055
95.8513
49.0882
101.915
58.6593
107.261
65.8863
113.146
72.2049
120.158
11.4575
84.7839
92.5696
35.0358
88.5839
24.9194
85.4959
19.3228
86.195
19.2838
88.9886
93.766
35.6527
89.8778
25.9737
86.2215
19.0466
86.0329
15.7332
87.8969
94.2277
43.9052
95.9345
47.4244
97.975
52.2069
101.172
59.5294
108.828
91.4847
32.433
86.2628
22.1706
84.3337
18.1367
85.4936
17.9564
91.998
34.4864
87.8317
25.355
85.2399
19.1536
85.0476
93.1479
44.2109
94.715
47.5956
96.7654
52.2362
)
;

boundaryField
{
    inlet
    {
        type            calculated;
        value           uniform 67;
    }
    outlet
    {
        type            calculated;
        value           nonuniform 0();
    }
    wall
    {
        type            calculated;
        value           uniform 0;
    }
    procBoundary2to0
    {
        type            processor;
        value           nonuniform List<scalar> 
44
(
66.4484
114.016
63.8241
109.806
43.8012
100.185
99.0094
50.9958
107.617
107.617
29.8126
88.4603
26.9612
91.7351
21.6737
93.5392
94.8781
36.9683
93.3001
29.8126
88.4603
88.4603
11.7563
83.5205
14.651
87.1187
91.9073
30.9186
86.3347
17.8041
82.8423
11.7563
83.5205
83.5205
18.7036
85.5717
91.8041
32.1971
86.0669
20.8136
84.1984
17.4763
84.5262
18.7036
)
;
    }
    procBoundary2to3
    {
        type            processor;
        value           nonuniform List<scalar> 
12
(
19.0851
32.6685
44.8135
90.7146
20.7979
23.3863
21.8647
75.2888
10.0167
19.5235
14.621
67.6765
)
;
    }
    procBoundary2to6
    {
        type            processor;
        value           nonuniform List<scalar> 
32
(
87.7873
17.0464
86.6787
100.972
59.4308
108.005
88.7839
29.9934
83.4436
16.4097
80.3423
9.39343
80.1118
87.7873
17.0464
6.23957
90.9406
32.8345
86.0673
21.8151
82.3919
13.8756
17.0464
100.972
80.8774
92.6744
43.6809
93.3242
46.1979
93.4421
100.972
47.5433
)
;
    }
}


// ************************************************************************* //
