/*--------------------------------*- C++ -*----------------------------------*\
| =========                 |                                                 |
| \\      /  F ield         | OpenFOAM: The Open Source CFD Toolbox           |
|  \\    /   O peration     | Version:  4.x                                   |
|   \\  /    A nd           | Web:      www.OpenFOAM.org                      |
|    \\/     M anipulation  |                                                 |
\*---------------------------------------------------------------------------*/
FoamFile
{
    version     2.0;
    format      ascii;
    class       volScalarField;
    location    "7.5";
    object      Qsource;
}
// * * * * * * * * * * * * * * * * * * * * * * * * * * * * * * * * * * * * * //

dimensions      [1 -1 -3 0 0 0 0];

internalField   nonuniform List<scalar> 
114
(
7.80865e+09
6.47112e+09
3.53429e+09
6.58197e+09
2.97516e+09
3.64427e+09
6.6158e+09
7.50983e+09
7.06542e+09
5.15557e+09
8.32522e+09
5.59976e+09
8.1806e+09
6.89443e+09
5.10873e+09
4.69625e+09
6.79072e+09
4.42866e+09
6.57771e+09
6.13325e+09
6.78293e+09
4.39561e+09
6.09874e+09
4.62469e+09
5.61947e+09
5.14803e+09
6.36955e+09
6.19968e+09
6.11976e+09
5.99584e+09
5.29167e+09
6.72284e+09
6.13749e+09
9.566e+09
1.19325e+10
6.31398e+09
1.10056e+10
4.70711e+09
7.98147e+09
9.5725e+09
9.1207e+09
8.92437e+09
7.03679e+09
1.09998e+10
8.61553e+09
6.26369e+09
5.83164e+09
1.00711e+10
1.06449e+10
9.27263e+09
9.32325e+09
8.96179e+09
9.10235e+09
8.37532e+09
7.9975e+09
5.8581e+09
5.93793e+09
9.22136e+09
6.66208e+09
8.50321e+09
7.28643e+09
7.69467e+09
7.87583e+09
5.82282e+09
8.01454e+09
9.15506e+09
6.80653e+09
5.73181e+09
6.6595e+09
6.80239e+09
6.6354e+09
7.70468e+09
9.77744e+09
7.3619e+09
5.79212e+09
4.95167e+09
6.94399e+09
8.95901e+09
1.0354e+10
8.99387e+09
6.92275e+09
9.35423e+09
8.55308e+09
1.03495e+10
5.77011e+09
8.05314e+09
7.72014e+09
7.95662e+09
5.56354e+09
7.3326e+09
1.04999e+10
6.10344e+09
1.08651e+10
4.85223e+09
9.4396e+09
1.01466e+10
7.10613e+09
7.69355e+09
6.71727e+09
7.55877e+09
8.00546e+09
5.83145e+09
7.86529e+09
1.03716e+10
6.47847e+09
8.91482e+09
7.47895e+09
1.02002e+10
5.02847e+09
6.76361e+09
8.22718e+09
7.71257e+09
7.47339e+09
7.04089e+09
)
;

boundaryField
{
    inlet
    {
        type            calculated;
        value           uniform 0;
    }
    outlet
    {
        type            calculated;
        value           nonuniform 0();
    }
    wall
    {
        type            calculated;
        value           uniform 0;
    }
    procBoundary2to0
    {
        type            processor;
        value           nonuniform List<scalar> 
44
(
5.82741e+09
6.52669e+09
5.46372e+09
4.8051e+09
4.86086e+09
9.18454e+09
2.95008e+09
5.06524e+09
4.42169e+09
4.42169e+09
5.24807e+09
1.12748e+10
7.52953e+09
1.01877e+10
6.73001e+09
6.10965e+09
7.91755e+09
7.04406e+09
7.69445e+09
5.24807e+09
1.12748e+10
1.12748e+10
7.88914e+09
8.62239e+09
6.46033e+09
5.37148e+09
6.84137e+09
8.60338e+09
9.37562e+09
8.58628e+09
9.91391e+09
7.88914e+09
8.62239e+09
8.62239e+09
5.76676e+09
2.68209e+09
4.79001e+09
6.70275e+09
9.51523e+09
1.02736e+10
5.34393e+09
9.94783e+09
8.54825e+09
5.76676e+09
)
;
    }
    procBoundary2to3
    {
        type            processor;
        value           nonuniform List<scalar> 
12
(
7.30702e+09
5.7616e+09
6.64717e+09
5.85686e+09
8.14196e+09
7.34053e+09
1.23915e+10
9.15036e+09
8.43874e+09
9.96629e+09
6.91213e+09
6.94575e+09
)
;
    }
    procBoundary2to6
    {
        type            processor;
        value           nonuniform List<scalar> 
32
(
8.19723e+09
6.68247e+09
8.93066e+09
6.51009e+09
6.89197e+09
6.57268e+09
9.87635e+09
8.90783e+09
6.00172e+09
7.98527e+09
1.09538e+10
6.22525e+09
8.66838e+09
8.19723e+09
6.68247e+09
6.75295e+09
6.24457e+09
9.18972e+09
8.04978e+09
9.74308e+09
9.05517e+09
8.67513e+09
6.68247e+09
6.51009e+09
8.63988e+09
5.42715e+09
8.05673e+09
6.69628e+09
6.63694e+09
9.41173e+09
6.51009e+09
1.0043e+10
)
;
    }
}


// ************************************************************************* //
