/*--------------------------------*- C++ -*----------------------------------*\
| =========                 |                                                 |
| \\      /  F ield         | OpenFOAM: The Open Source CFD Toolbox           |
|  \\    /   O peration     | Version:  4.x                                   |
|   \\  /    A nd           | Web:      www.OpenFOAM.org                      |
|    \\/     M anipulation  |                                                 |
\*---------------------------------------------------------------------------*/
FoamFile
{
    version     2.0;
    format      ascii;
    class       volScalarField;
    location    "7.5";
    object      SPartFluid;
}
// * * * * * * * * * * * * * * * * * * * * * * * * * * * * * * * * * * * * * //

dimensions      [1 -3 -1 0 0 0 0];

internalField   nonuniform List<scalar> 
114
(
6.50921e-65
4.8818e-65
2.55693e-65
4.88146e-65
2.24693e-65
2.63436e-65
5.73494e-65
6.50971e-65
5.11462e-65
3.79705e-65
6.19909e-65
4.41665e-65
6.19874e-65
6.12112e-65
3.95169e-65
4.03001e-65
5.65734e-65
2.78981e-65
5.26949e-65
3.87453e-65
5.19172e-65
2.78954e-65
4.64918e-65
3.09943e-65
4.41751e-65
4.26245e-65
3.87489e-65
4.57224e-65
3.33228e-65
3.79719e-65
2.71224e-65
4.49451e-65
3.09969e-65
8.44544e-65
9.76239e-65
5.73341e-65
9.37485e-65
5.42491e-65
6.81965e-65
7.67169e-65
7.74884e-65
7.05116e-65
6.27605e-65
8.98778e-65
7.59296e-65
5.1912e-65
6.04497e-65
8.60214e-65
8.29186e-65
7.59406e-65
7.36134e-65
7.36121e-65
7.05108e-65
7.12851e-65
6.27615e-65
5.88998e-65
5.19235e-65
6.9746e-65
5.81196e-65
6.89671e-65
5.88919e-65
5.88915e-65
6.50896e-65
4.26187e-65
7.59257e-65
7.98001e-65
7.28486e-65
4.9597e-65
5.5018e-65
6.12143e-65
5.57875e-65
7.12812e-65
8.36767e-65
6.58556e-65
4.88106e-65
5.34743e-65
6.0447e-65
7.12924e-65
9.06618e-65
7.28357e-65
6.43105e-65
7.51569e-65
7.43822e-65
8.36794e-65
5.34745e-65
7.5172e-65
6.04459e-65
6.97416e-65
4.64937e-65
6.50889e-65
8.29105e-65
4.95906e-65
8.91083e-65
4.80487e-65
8.13688e-65
8.36892e-65
6.50885e-65
6.43102e-65
6.27577e-65
6.27563e-65
7.74759e-65
6.89742e-65
6.8971e-65
8.36917e-65
5.81162e-65
7.20603e-65
6.89584e-65
8.36797e-65
5.26996e-65
6.50973e-65
6.27699e-65
7.12913e-65
5.50164e-65
6.3538e-65
)
;

boundaryField
{
    inlet
    {
        type            calculated;
        value           uniform 0;
    }
    outlet
    {
        type            calculated;
        value           nonuniform 0();
    }
    wall
    {
        type            calculated;
        value           uniform 0;
    }
    procBoundary2to0
    {
        type            processor;
        value           nonuniform List<scalar> 
44
(
4.72684e-65
4.2618e-65
4.33916e-65
3.2543e-65
4.18409e-65
7.20595e-65
2.86748e-65
4.41727e-65
3.25478e-65
3.25478e-65
4.57165e-65
9.14307e-65
6.58599e-65
8.29042e-65
6.04341e-65
4.95871e-65
8.05984e-65
6.12213e-65
6.12174e-65
4.57165e-65
9.14307e-65
9.14307e-65
7.12802e-65
7.12775e-65
6.19805e-65
4.57115e-65
7.28484e-65
7.59439e-65
7.67141e-65
7.98099e-65
8.36798e-65
7.12802e-65
7.12775e-65
7.12775e-65
5.42317e-65
2.32418e-65
5.26989e-65
5.88957e-65
7.82645e-65
9.2207e-65
4.41642e-65
9.21979e-65
7.12769e-65
5.42317e-65
)
;
    }
    procBoundary2to3
    {
        type            processor;
        value           nonuniform List<scalar> 
12
(
6.97321e-65
5.03632e-65
5.50149e-65
4.64949e-65
7.51538e-65
6.50826e-65
1.03828e-64
7.74872e-65
7.67015e-65
8.98738e-65
5.6562e-65
5.73395e-65
)
;
    }
    procBoundary2to6
    {
        type            processor;
        value           nonuniform List<scalar> 
32
(
6.74042e-65
6.04353e-65
7.12818e-65
5.11406e-65
5.81136e-65
4.95906e-65
1.03847e-64
7.59451e-65
4.95941e-65
7.43862e-65
9.37527e-65
6.12083e-65
7.3604e-65
6.74042e-65
6.04353e-65
6.5081e-65
5.81237e-65
7.9046e-65
6.43183e-65
8.52365e-65
7.36107e-65
7.82572e-65
6.04353e-65
5.11406e-65
7.05077e-65
4.95997e-65
7.2072e-65
5.42463e-65
6.12174e-65
7.59389e-65
5.11406e-65
8.75587e-65
)
;
    }
}


// ************************************************************************* //
