/*--------------------------------*- C++ -*----------------------------------*\
| =========                 |                                                 |
| \\      /  F ield         | OpenFOAM: The Open Source CFD Toolbox           |
|  \\    /   O peration     | Version:  4.x                                   |
|   \\  /    A nd           | Web:      www.OpenFOAM.org                      |
|    \\/     M anipulation  |                                                 |
\*---------------------------------------------------------------------------*/
FoamFile
{
    version     2.0;
    format      ascii;
    class       volScalarField;
    location    "22.5";
    object      KslPrev;
}
// * * * * * * * * * * * * * * * * * * * * * * * * * * * * * * * * * * * * * //

dimensions      [1 -3 -1 0 0 0 0];

internalField   nonuniform List<scalar> 
108
(
4595.94
2821.28
4414.8
2681.18
4513.49
2525.06
5211.4
2189.91
5971.67
5178.06
2997.25
5042.44
2847.04
5165.46
2775.28
6108.57
2690.11
10071.3
4668.96
2873.06
4578.47
2791.93
4920.64
2826.71
6234.9
3107.83
8998.63
3658.99
2517.99
3587.08
2413.11
3594.02
2214.1
3771.24
1839.06
3808.12
15871.1
3698.01
22156.2
3604.81
28157.7
3461.87
18320.2
3331.17
4608.94
13716.8
3573.62
15549.7
3375.95
17604.5
3097.41
19926.2
2596.79
7299.12
11790.6
3597.83
14485.3
3543.09
20026.3
3462.56
22377.8
3498.52
7715.81
5025.57
2888.65
4936.22
2719.46
5036.79
2391.84
5146.13
1757.44
2990.68
234446
3965.62
1e+10
3957.74
1e+10
3941.48
1e+10
4051.52
19853
94099.3
3913.61
1e+10
3856.03
1e+10
3809.36
44650.6
3654.25
8179.8
47731.4
3890.65
1e+10
3819.48
1e+10
3742.23
103628
3489.32
15518.5
6529.38
3203.47
6712.22
3106.82
7402.45
2960.26
8507.3
2543.51
18373.6
)
;

boundaryField
{
    inlet
    {
        type            zeroGradient;
    }
    outlet
    {
        type            zeroGradient;
    }
    wall
    {
        type            zeroGradient;
    }
    procBoundary3to1
    {
        type            processor;
        value           uniform 0;
    }
    procBoundary3to2
    {
        type            processor;
        value           uniform 0;
    }
    procBoundary3to7
    {
        type            processor;
        value           uniform 0;
    }
}


// ************************************************************************* //
