/*--------------------------------*- C++ -*----------------------------------*\
| =========                 |                                                 |
| \\      /  F ield         | OpenFOAM: The Open Source CFD Toolbox           |
|  \\    /   O peration     | Version:  4.x                                   |
|   \\  /    A nd           | Web:      www.OpenFOAM.org                      |
|    \\/     M anipulation  |                                                 |
\*---------------------------------------------------------------------------*/
FoamFile
{
    version     2.0;
    format      ascii;
    class       volVectorField;
    location    "6";
    object      DDtUrel;
}
// * * * * * * * * * * * * * * * * * * * * * * * * * * * * * * * * * * * * * //

dimensions      [0 1 -2 0 0 0 0];

internalField   nonuniform List<vector> 
108
(
(0.00199208 -0.000154058 -6.29486e-06)
(0.00138563 -8.64998e-05 7.85586e-05)
(0.00110752 -3.95452e-05 0.000123669)
(0.00101426 -4.00848e-06 0.000159621)
(0.0010203 3.05226e-06 0.000151154)
(0.00108815 1.50067e-05 0.000129684)
(0.00115034 3.42161e-06 8.81937e-05)
(0.00124195 2.21858e-07 5.11043e-05)
(0.00124131 1.42354e-05 9.36312e-06)
(0.00191241 -0.000134976 1.99221e-06)
(0.00128727 -6.51681e-05 7.9822e-05)
(0.00100651 -2.43676e-05 0.000112661)
(0.000900646 5.256e-06 0.000132806)
(0.000909945 8.49986e-06 0.00011369)
(0.000946517 1.4851e-05 8.49675e-05)
(0.00101159 1.10886e-05 5.02711e-05)
(0.00105849 1.1979e-05 7.34104e-06)
(0.00114013 9.99527e-06 -1.19583e-05)
(0.00186496 -8.42149e-05 1.57079e-05)
(0.00123523 -3.6077e-05 8.4181e-05)
(0.000952382 -1.1946e-05 0.000106994)
(0.000851321 3.83078e-06 0.000114376)
(0.000846617 7.17882e-06 9.08002e-05)
(0.000881068 1.24741e-05 5.80334e-05)
(0.000921848 9.8683e-06 2.61692e-05)
(0.000954273 1.33985e-05 -1.73755e-05)
(0.000971849 -4.53828e-06 -2.82387e-05)
(0.00184692 -1.60703e-05 2.16494e-05)
(0.00121185 -1.67077e-06 8.54106e-05)
(0.000933581 6.38979e-07 0.000102689)
(0.000827987 3.82677e-06 0.000105799)
(0.000823914 2.91346e-06 8.19595e-05)
(0.000845147 2.94412e-06 4.8432e-05)
(0.000884295 1.43449e-06 1.76712e-05)
(0.000900592 -3.4803e-06 -2.24964e-05)
(0.000906238 -1.06538e-05 -4.1219e-05)
(0.00200606 -0.000137906 4.79448e-05)
(0.00140017 -7.69907e-05 8.10406e-05)
(0.00111835 -3.21633e-05 9.7233e-05)
(0.00103113 -4.9005e-06 0.00011415)
(0.00104621 8.06533e-06 0.000114178)
(0.00111645 2.27741e-05 0.00010174)
(0.00117467 1.56603e-05 7.30141e-05)
(0.00126739 2.16767e-06 4.01023e-05)
(0.00128551 2.36711e-05 -1.29018e-05)
(0.00194282 -0.000119661 6.79597e-05)
(0.00132084 -5.86514e-05 8.89896e-05)
(0.00103361 -1.95977e-05 9.22171e-05)
(0.000937969 3.22853e-06 9.29543e-05)
(0.000948027 1.07706e-05 8.34225e-05)
(0.000994179 2.08494e-05 6.11484e-05)
(0.00105255 1.34467e-05 3.65985e-05)
(0.00110358 9.1636e-06 5.66034e-07)
(0.00116512 6.97946e-06 -3.18332e-05)
(0.00190621 -7.63714e-05 8.1881e-05)
(0.00128031 -3.24831e-05 9.40527e-05)
(0.000992455 -1.13016e-05 9.10053e-05)
(0.000898343 2.64355e-06 8.33639e-05)
(0.000893956 6.31633e-06 6.61845e-05)
(0.000940182 9.96063e-06 4.06436e-05)
(0.000981577 6.06826e-06 1.09148e-05)
(0.00102113 8.56034e-06 -3.09443e-05)
(0.0010328 -9.55094e-06 -5.75105e-05)
(0.00189262 -1.70617e-05 8.73505e-05)
(0.00126115 -3.79879e-06 9.58758e-05)
(0.000975064 -1.73574e-06 8.92984e-05)
(0.000877358 3.1272e-07 8.00494e-05)
(0.000872001 -2.17885e-06 6.10552e-05)
(0.00090664 -2.11084e-06 2.95031e-05)
(0.000941258 -5.76374e-06 3.63132e-08)
(0.000957792 -4.94067e-06 -4.01423e-05)
(0.000954419 -2.44456e-05 -5.69841e-05)
(0.00202901 -0.000117559 6.05863e-05)
(0.00142191 -6.28169e-05 7.73834e-05)
(0.00114103 -2.23324e-05 8.08547e-05)
(0.00106087 2.22052e-06 8.68581e-05)
(0.00108037 1.57861e-05 8.19939e-05)
(0.00116202 2.34111e-05 7.21171e-05)
(0.00123839 2.16309e-05 4.74002e-05)
(0.0013397 1.98753e-05 1.6156e-05)
(0.00136109 4.39703e-05 -6.37468e-05)
(0.00199294 -0.000102414 7.98854e-05)
(0.00137735 -4.84749e-05 8.93273e-05)
(0.00109825 -1.29475e-05 8.42172e-05)
(0.0010163 6.9365e-06 8.23408e-05)
(0.00102518 1.50618e-05 6.9316e-05)
(0.00109104 1.94719e-05 4.62822e-05)
(0.00113357 1.63254e-05 2.22178e-05)
(0.0012025 1.13424e-05 1.98776e-06)
(0.00119143 1.14899e-05 -7.11346e-05)
(0.00196468 -6.85503e-05 9.2362e-05)
(0.00134993 -3.01613e-05 9.59741e-05)
(0.00107436 -1.09882e-05 8.55683e-05)
(0.000992177 3.95469e-06 7.74198e-05)
(0.000992438 7.55911e-06 5.6012e-05)
(0.00105849 8.38438e-06 2.41016e-05)
(0.00109379 6.80437e-07 -4.44621e-06)
(0.00114129 -9.06626e-06 -3.01158e-05)
(0.00110943 -3.01317e-05 -8.89647e-05)
(0.00195059 -1.38742e-05 9.74849e-05)
(0.00133095 -8.17938e-06 9.64572e-05)
(0.00105137 -5.10628e-06 8.40112e-05)
(0.000968847 -4.33279e-06 7.59994e-05)
(0.000969768 -9.47995e-06 5.50641e-05)
(0.00102874 -1.67928e-05 2.22218e-05)
(0.00105315 -2.30026e-05 -1.07822e-05)
(0.0010846 -3.61177e-05 -4.64495e-05)
(0.00105882 -4.59965e-05 -6.3632e-05)
)
;

boundaryField
{
    inlet
    {
        type            calculated;
        value           nonuniform List<vector> 
12
(
(0.00409768 -0.000479062 -0.000339585)
(0.00367503 -0.000483726 -0.000305744)
(0.00365834 -0.000285807 -0.000207588)
(0.00364017 -9.9898e-05 -0.000157398)
(0.00413515 -0.000404065 6.574e-06)
(0.00381608 -0.00040007 0.000183888)
(0.00381015 -0.000267739 0.00023876)
(0.00382605 -0.000108565 0.000260907)
(0.00417686 -0.000279052 -1.44043e-05)
(0.00411742 -0.000281802 0.000106539)
(0.00409215 -0.000232752 0.000135039)
(0.00405331 -4.80127e-05 0.000153702)
)
;
    }
    outlet
    {
        type            calculated;
        value           nonuniform 0();
    }
    wall
    {
        type            calculated;
        value           nonuniform List<vector> 
63
(
(0.00417686 -0.000279052 -1.44043e-05)
(0.00411742 -0.000281802 0.000106539)
(0.00409215 -0.000232752 0.000135039)
(0.00405331 -4.80127e-05 0.000153702)
(0.000567818 -1.71129e-05 7.25212e-05)
(0.000407794 3.01222e-05 0.000153405)
(0.00043878 2.79138e-05 0.000165646)
(0.000356297 -3.29837e-05 0.00016304)
(0.000691302 3.06233e-05 1.17856e-05)
(0.000600443 8.07216e-05 5.49689e-05)
(0.000695984 -8.55872e-06 7.0131e-05)
(0.000573988 -2.64732e-05 6.97255e-05)
(0.000965561 4.50244e-05 5.19989e-05)
(0.000899979 8.02126e-05 8.71485e-05)
(0.00101045 6.10026e-05 9.07531e-05)
(0.000945224 -1.78087e-05 0.000131131)
(0.00115299 6.10146e-05 3.83569e-05)
(0.00100934 6.09395e-05 6.01011e-05)
(0.00105078 4.97129e-05 2.03716e-05)
(0.00111038 -6.3198e-05 0.000108938)
(0.00153527 6.77752e-05 0.000108179)
(0.0013467 6.14105e-05 -7.67055e-06)
(0.00151197 7.42321e-05 -0.000100332)
(0.00162048 -0.000134475 5.68701e-05)
(0.00167383 5.62209e-05 6.69533e-05)
(0.00109642 6.30986e-05 -3.01717e-05)
(0.00139998 1.52137e-05 -0.000123291)
(0.00152032 -0.000129211 -1.67663e-05)
(0.00224001 1.66013e-05 0.000143543)
(0.00153089 3.7793e-05 0.00023236)
(0.00175221 -6.12383e-06 3.15242e-05)
(0.00184876 -0.000246799 -0.000126867)
(0.00239704 0.000169782 -0.000173952)
(0.0013536 -6.39156e-06 -8.48561e-05)
(0.00150006 -0.000232747 -0.00020904)
(0.00173133 -0.000266356 6.88982e-05)
(0.00409768 -0.000479062 -0.000339585)
(0.00413515 -0.000404065 6.574e-06)
(0.00417686 -0.000279052 -1.44043e-05)
(0.000471944 -0.000103225 0.000162969)
(0.000570817 -9.54427e-05 0.000130186)
(0.000567818 -1.71129e-05 7.25212e-05)
(0.000666486 -6.2888e-05 0.000147382)
(0.000711992 -2.11981e-05 7.9224e-05)
(0.000691302 3.06233e-05 1.17856e-05)
(0.000854425 9.00764e-05 0.000342746)
(0.000945778 -8.04917e-06 0.000177739)
(0.000965561 4.50244e-05 5.19989e-05)
(0.000959447 -3.67218e-05 0.000258738)
(0.00114334 -1.43255e-05 0.000233944)
(0.00115299 6.10146e-05 3.83569e-05)
(0.0013511 7.1266e-05 0.000264971)
(0.00147715 0.000121469 0.000283696)
(0.00153527 6.77752e-05 0.000108179)
(0.00133934 -0.000129667 0.000138837)
(0.00131647 6.22854e-05 0.000229836)
(0.00167383 5.62209e-05 6.69533e-05)
(0.00200014 -0.000170258 0.000176536)
(0.00186622 -0.000180867 0.000265623)
(0.00224001 1.66013e-05 0.000143543)
(0.00144527 -0.000186838 0.000147097)
(0.00177691 -5.64426e-05 0.000208827)
(0.00239704 0.000169782 -0.000173952)
)
;
    }
    procBoundary4to0
    {
        type            processor;
        value           nonuniform List<vector> 
36
(
(0.00201176 -0.000154695 -4.98884e-05)
(0.00142043 -9.01668e-05 8.93205e-05)
(0.00114628 -4.24455e-05 0.000162778)
(0.00105827 -1.29382e-05 0.000218926)
(0.00105912 4.49297e-07 0.00020407)
(0.00112147 1.40602e-05 0.000179162)
(0.00117162 1.81037e-05 0.000119964)
(0.0012499 2.40331e-05 6.96038e-05)
(0.00125139 2.98929e-05 1.65133e-05)
(0.00193543 -0.000142002 -5.14755e-05)
(0.00132434 -7.1504e-05 8.60485e-05)
(0.00103955 -2.79949e-05 0.000147423)
(0.000936667 2.44444e-06 0.00018917)
(0.000925029 8.71918e-06 0.000156497)
(0.000969104 2.02046e-05 0.000119553)
(0.00101139 1.58197e-05 7.10832e-05)
(0.00106589 2.06496e-05 1.83224e-05)
(0.0010898 1.65638e-05 -4.59017e-06)
(0.00187489 -9.46086e-05 -4.23108e-05)
(0.00125653 -4.08805e-05 8.75817e-05)
(0.000971435 -1.29835e-05 0.000136733)
(0.000865837 8.10319e-06 0.000162233)
(0.000850759 9.03051e-06 0.000124918)
(0.000884653 1.61559e-05 7.89471e-05)
(0.000916864 1.18128e-05 4.34218e-05)
(0.000954201 1.38853e-05 1.18467e-06)
(0.000963936 -4.18606e-07 -1.69274e-05)
(0.00185351 -1.59308e-05 -3.8635e-05)
(0.00122996 -1.63311e-06 8.64954e-05)
(0.000948811 2.36603e-06 0.00013162)
(0.000842854 6.25045e-06 0.00015272)
(0.000828203 5.28533e-06 0.00011422)
(0.00085425 6.53391e-06 7.36701e-05)
(0.000881659 6.03295e-06 3.43156e-05)
(0.000905285 6.4997e-06 -6.97401e-06)
(0.00091602 -8.38687e-07 -3.34276e-05)
)
;
    }
    procBoundary4to5
    {
        type            processor;
        value           nonuniform List<vector> 
12
(
(0.00122252 7.05751e-05 -4.02015e-05)
(0.0010547 2.19373e-05 -6.37231e-05)
(0.00091003 -2.19958e-05 -5.66664e-05)
(0.000841316 -1.63563e-05 -9.3907e-05)
(0.00123547 7.52467e-05 -8.9367e-05)
(0.0010176 1.48507e-05 -0.000100122)
(0.000925447 -4.03087e-05 -0.000122273)
(0.000887794 -4.16796e-05 -0.000104294)
(0.00129381 7.90511e-05 -0.000151093)
(0.00107183 2.99437e-05 -0.000167654)
(0.00099991 -3.23927e-05 -0.000181498)
(0.00100959 -4.09378e-05 -9.20449e-05)
)
;
    }
    procBoundary4to6
    {
        type            processor;
        value           nonuniform List<vector> 
27
(
(0.00186275 6.49362e-05 1.32624e-05)
(0.00123012 3.08177e-05 7.83272e-05)
(0.00095264 1.22093e-05 9.95494e-05)
(0.00085126 -1.55501e-06 0.00010597)
(0.000843931 -1.73427e-06 8.35295e-05)
(0.000870743 -2.82047e-06 5.26329e-05)
(0.000901959 -5.09137e-06 2.08354e-05)
(0.000925348 -9.70711e-06 -2.09555e-05)
(0.000936175 -8.09916e-06 -4.28181e-05)
(0.00190353 5.38262e-05 8.2391e-05)
(0.00127307 2.51424e-05 8.5413e-05)
(0.000984183 9.82281e-06 8.30584e-05)
(0.00088518 -2.95673e-06 7.26789e-05)
(0.000874501 -6.23482e-06 5.57737e-05)
(0.000903603 -8.0348e-06 2.51817e-05)
(0.000931612 -1.15323e-05 -6.41301e-07)
(0.000948244 -1.39973e-05 -4.01654e-05)
(0.000928027 -1.2399e-05 -6.49314e-05)
(0.00196356 4.90987e-05 9.51414e-05)
(0.00134028 2.0258e-05 8.75106e-05)
(0.00105245 6.79786e-06 7.6737e-05)
(0.000956714 -6.50459e-06 6.57463e-05)
(0.000937998 -1.39932e-05 4.2686e-05)
(0.000964498 -1.94467e-05 1.60207e-06)
(0.000964404 -2.1814e-05 -2.37074e-05)
(0.000965725 -2.91312e-05 -6.23993e-05)
(0.000918673 -2.77109e-05 -7.62549e-05)
)
;
    }
}


// ************************************************************************* //
