/*--------------------------------*- C++ -*----------------------------------*\
| =========                 |                                                 |
| \\      /  F ield         | OpenFOAM: The Open Source CFD Toolbox           |
|  \\    /   O peration     | Version:  4.x                                   |
|   \\  /    A nd           | Web:      www.OpenFOAM.org                      |
|    \\/     M anipulation  |                                                 |
\*---------------------------------------------------------------------------*/
FoamFile
{
    version     2.0;
    format      ascii;
    class       volScalarField;
    location    "6";
    object      KslPrev;
}
// * * * * * * * * * * * * * * * * * * * * * * * * * * * * * * * * * * * * * //

dimensions      [1 -3 -1 0 0 0 0];

internalField   nonuniform List<scalar> 
108
(
3473.58
7157.1
3505.62
6769.07
3508.46
6344.22
3432.91
5805.4
3257.09
3560.86
10093.8
3900.61
17772.6
4143.83
27639.9
4278.88
34087.4
4392.69
3590.07
10455.5
3916.09
17016.8
4018.15
23645.1
4042.56
55182.6
4091.86
3608.64
10537.2
4023.89
17822
4200.68
25865.6
4350.15
37582.1
4409.97
3456.38
6943.06
3432.76
6368.64
3394.11
5626.56
3254.32
5117.96
3106.11
3518.9
8782.17
3697.83
11190.4
3826.01
14488
3955.04
21589.9
4048.61
3548.21
9022.04
3778.16
11441.9
3850.5
13488
3850.3
14979.1
3832.57
3581.4
9302
3832.53
11829.9
3958.11
14118.3
4082.77
20596.6
4281.05
3420.06
6588.21
3325.25
5903.54
3308.37
5443.93
3205.96
4800.74
2998.31
3463.99
7195.5
3495.12
6602.77
3429.44
5929.04
3315.64
5390.73
3196.21
3522.13
7389.82
3565.32
6883.83
3490.13
6005.79
3308.4
5127.85
3119.98
3569.87
7613.14
3629.44
7363.65
3574.08
6401.82
3368.58
5464.67
3198.73
)
;

boundaryField
{
    inlet
    {
        type            zeroGradient;
    }
    outlet
    {
        type            zeroGradient;
    }
    wall
    {
        type            zeroGradient;
    }
    procBoundary4to0
    {
        type            processor;
        value           uniform 0;
    }
    procBoundary4to5
    {
        type            processor;
        value           uniform 0;
    }
    procBoundary4to6
    {
        type            processor;
        value           uniform 0;
    }
}


// ************************************************************************* //
