/*--------------------------------*- C++ -*----------------------------------*\
| =========                 |                                                 |
| \\      /  F ield         | OpenFOAM: The Open Source CFD Toolbox           |
|  \\    /   O peration     | Version:  4.x                                   |
|   \\  /    A nd           | Web:      www.OpenFOAM.org                      |
|    \\/     M anipulation  |                                                 |
\*---------------------------------------------------------------------------*/
FoamFile
{
    version     2.0;
    format      ascii;
    class       volScalarField;
    location    "6";
    object      QPartFluidCoeff;
}
// * * * * * * * * * * * * * * * * * * * * * * * * * * * * * * * * * * * * * //

dimensions      [1 -1 -3 -1 0 0 0];

internalField   nonuniform List<scalar> 
108
(
-1.62036e+07
-2.37637e+07
-2.76533e+07
-1.99413e+07
-2.34846e+07
-2.01661e+07
-2.95395e+07
-2.34465e+07
-3.23448e+07
-2.31617e+07
-2.40319e+07
-3.02898e+07
-3.228e+07
-3.29101e+07
-2.77798e+07
-2.62954e+07
-1.87023e+07
-3.67075e+07
-2.20608e+07
-3.39664e+07
-2.62807e+07
-3.10975e+07
-2.78811e+07
-2.09646e+07
-2.40671e+07
-3.44122e+07
-2.21481e+07
-1.14329e+07
-2.22609e+07
-3.07595e+07
-1.88733e+07
-2.90112e+07
-2.1299e+07
-3.76716e+07
-2.04989e+07
-2.33896e+07
-1.66832e+07
-1.83069e+07
-2.64883e+07
-2.77037e+07
-2.81433e+07
-1.87409e+07
-1.84515e+07
-2.65736e+07
-3.2414e+07
-2.05728e+07
-2.51436e+07
-2.53513e+07
-2.54146e+07
-2.53218e+07
-2.20857e+07
-2.79171e+07
-3.03103e+07
-3.47984e+07
-1.38292e+07
-2.43601e+07
-3.29823e+07
-2.76409e+07
-3.0673e+07
-2.77662e+07
-2.71539e+07
-2.47845e+07
-2.88453e+07
-2.05258e+07
-2.8506e+07
-2.48603e+07
-3.23788e+07
-3.61465e+07
-2.45187e+07
-3.93857e+07
-2.90123e+07
-2.7154e+07
-1.49883e+07
-2.10408e+07
-1.46068e+07
-2.00763e+07
-2.07947e+07
-2.67267e+07
-2.49249e+07
-2.3641e+07
-2.73976e+07
-1.60794e+07
-3.00072e+07
-2.33892e+07
-1.95324e+07
-2.45916e+07
-2.58622e+07
-2.45124e+07
-2.12638e+07
-2.8848e+07
-1.62106e+07
-2.53613e+07
-2.7936e+07
-2.34997e+07
-2.17591e+07
-2.39663e+07
-2.49467e+07
-2.83691e+07
-2.40426e+07
-2.46426e+07
-2.35074e+07
-2.20839e+07
-2.75279e+07
-2.85245e+07
-3.2668e+07
-1.67923e+07
-1.81082e+07
-2.40462e+07
)
;

boundaryField
{
    inlet
    {
        type            calculated;
        value           uniform 0;
    }
    outlet
    {
        type            calculated;
        value           nonuniform 0();
    }
    wall
    {
        type            calculated;
        value           uniform 0;
    }
    procBoundary4to0
    {
        type            processor;
        value           nonuniform List<scalar> 
36
(
324.595
379.394
505.136
396.801
531.555
635.38
451.514
348.301
472.924
385.123
720.88
677.535
603.855
538.219
477.789
788.071
563.883
529.511
387.884
421.659
672.836
462.882
649.975
654.357
625.894
398.729
716.311
361.32
504.163
716.671
774.653
404.026
756.848
647.669
437.584
202.724
)
;
    }
    procBoundary4to5
    {
        type            processor;
        value           nonuniform List<scalar> 
12
(
518.235
622.242
646.887
795.978
595.034
446.366
692.957
294.297
194.98
517.425
513.781
563.171
)
;
    }
    procBoundary4to6
    {
        type            processor;
        value           nonuniform List<scalar> 
27
(
744.934
670.862
452.214
600.362
828.743
474.835
657.334
511.7
755.836
570.245
677.123
735.657
616.458
505.136
598.027
594.983
476.505
722.678
347.169
411.49
540.39
534.398
538.822
498.757
777.919
670.209
340.808
)
;
    }
}


// ************************************************************************* //
