/*--------------------------------*- C++ -*----------------------------------*\
| =========                 |                                                 |
| \\      /  F ield         | OpenFOAM: The Open Source CFD Toolbox           |
|  \\    /   O peration     | Version:  4.x                                   |
|   \\  /    A nd           | Web:      www.OpenFOAM.org                      |
|    \\/     M anipulation  |                                                 |
\*---------------------------------------------------------------------------*/
FoamFile
{
    version     2.0;
    format      ascii;
    class       volVectorField;
    location    "6";
    object      U;
}
// * * * * * * * * * * * * * * * * * * * * * * * * * * * * * * * * * * * * * //

dimensions      [0 1 -1 0 0 0 0];

internalField   nonuniform List<vector> 
108
(
(0.0284945 -0.00150095 -0.00136492)
(0.0139844 -0.000903297 -0.00094581)
(0.029302 -0.00192187 -0.00102503)
(0.015275 -0.000999262 -0.00051519)
(0.0300147 -0.00145394 0.000330989)
(0.0165983 -0.00080728 0.000521511)
(0.0312249 -0.000887897 0.00160096)
(0.0183676 -0.000753299 0.00127396)
(0.0332041 -0.000494906 0.0026773)
(0.0283679 -0.00152655 -0.00129205)
(0.0101425 -0.000634433 -0.000665599)
(0.0269722 -0.00152974 -0.000722639)
(0.00594209 -0.000309341 -0.000160766)
(0.0258092 -0.00079244 0.000499988)
(0.00385037 -9.09649e-05 0.000109768)
(0.0252097 -0.000750508 0.000636897)
(0.00314121 -7.30885e-05 -2.51142e-05)
(0.024888 9.76683e-05 -0.000536531)
(0.0284218 -0.000883771 -0.00113392)
(0.00993748 -0.000508512 -0.000558963)
(0.0270606 -0.000734287 -0.000350675)
(0.00622538 -0.000302751 -2.3813e-06)
(0.0266428 -0.000501596 0.000822074)
(0.00448358 -0.00022289 0.000208284)
(0.0265805 -0.000313146 0.000792089)
(0.00193747 -7.77767e-05 1.04746e-07)
(0.02631 1.55437e-05 -6.61787e-05)
(0.028154 -0.000395787 -0.00107306)
(0.00984908 -7.3314e-06 -0.000450751)
(0.0263655 -0.000168201 -0.000140818)
(0.00592668 -4.07117e-05 -2.50294e-05)
(0.0254743 6.41918e-05 0.00079502)
(0.00410552 8.37495e-06 0.000187616)
(0.0248404 6.41999e-06 0.000513643)
(0.00282436 1.60378e-05 -8.20858e-06)
(0.0242572 -0.000135973 -0.000395596)
(0.0285092 -0.00124114 -0.000111355)
(0.0143619 -0.000748898 -0.000115821)
(0.0297291 -0.00156632 0.000267818)
(0.016218 -0.000800652 4.60632e-05)
(0.030991 -0.00161175 0.000835801)
(0.0186151 -0.000832784 0.000868993)
(0.0327076 -0.0013996 0.00196657)
(0.0209363 -0.000584218 0.00173075)
(0.0350514 -0.00122277 0.0027796)
(0.0285981 -0.00130762 0.000413993)
(0.0116002 -0.000655517 0.000187378)
(0.0281672 -0.00136761 0.00125541)
(0.00934805 -0.000361772 0.000448253)
(0.0277561 -0.00102044 0.00151522)
(0.00730048 -0.000138197 0.000548716)
(0.0272272 -0.000275068 0.00131056)
(0.00499554 6.37247e-05 0.000313668)
(0.0271486 5.48714e-05 0.000289182)
(0.0284697 -0.000971172 0.000440965)
(0.0114131 -0.000468018 0.000178293)
(0.0279601 -0.000786138 0.00116589)
(0.00922226 -0.000347856 0.000480434)
(0.0278165 -0.000444565 0.00154735)
(0.00788586 -0.000248285 0.000600859)
(0.0279385 -0.000246032 0.00189199)
(0.00714481 -0.000296261 0.000534385)
(0.0283627 1.38137e-05 0.000522826)
(0.0284248 -0.000458678 0.000413375)
(0.0111328 -5.21051e-05 0.000403747)
(0.0274907 -0.000255372 0.001317)
(0.00893447 -6.56393e-05 0.000657979)
(0.0271331 -0.000196362 0.00184035)
(0.00750585 -0.000152484 0.00092692)
(0.0265022 -6.22312e-05 0.00174991)
(0.00516585 -0.00010983 0.000512948)
(0.0251141 -0.000158496 0.000325788)
(0.028557 -0.000964431 -5.07258e-05)
(0.0149297 -0.000600041 -5.64272e-05)
(0.0299985 -0.00098455 0.000120152)
(0.0171114 -0.000424847 -0.000114715)
(0.0312471 -0.000730592 0.000207485)
(0.0191542 -0.000309675 8.29102e-05)
(0.0330734 -0.000522091 0.000794318)
(0.0221728 -0.00019139 0.000532445)
(0.0358997 -0.000252037 0.00123026)
(0.0286144 -0.00100532 0.000224432)
(0.0139742 -0.000541729 0.000114349)
(0.0292943 -0.000838991 0.000753077)
(0.0155617 -0.000186627 0.000325101)
(0.0305502 -0.000344936 0.00116583)
(0.0177531 3.11764e-05 0.000585504)
(0.0321015 -9.99366e-05 0.0015074)
(0.0198209 0.000214869 0.000563364)
(0.0337701 6.14391e-05 0.00154648)
(0.0283847 -0.000881296 0.000264355)
(0.0137039 -0.000421716 0.000188027)
(0.0290087 -0.000759125 0.000772765)
(0.0150594 -0.000387162 0.000365933)
(0.0302198 -0.00037111 0.00111129)
(0.0175881 -0.000185811 0.000535447)
(0.0322512 -0.000168994 0.000982672)
(0.0208657 -0.000314568 0.000300371)
(0.0344168 -0.000523916 0.000534279)
(0.0282743 -0.000166811 0.000303137)
(0.0133373 -5.94449e-05 0.000238642)
(0.0285297 -0.000319912 0.000825833)
(0.0141662 -0.000189747 0.000463114)
(0.0296725 -0.000473771 0.00134703)
(0.0165315 -0.000399404 0.000927374)
(0.031442 -0.000914523 0.00179569)
(0.0193427 -0.000631839 0.00112555)
(0.0332629 -0.00144172 0.00138211)
)
;

boundaryField
{
    inlet
    {
        type            fixedValue;
        value           uniform (0.01 0 0);
    }
    outlet
    {
        type            zeroGradient;
    }
    wall
    {
        type            fixedValue;
        value           uniform (0 0 0);
    }
    procBoundary4to0
    {
        type            processor;
        value           nonuniform List<vector> 
36
(
(0.0285142 -0.00130833 -0.00225688)
(0.0139342 -0.000770206 -0.0015631)
(0.0297593 -0.00163422 -0.00177857)
(0.0160876 -0.000787874 -0.000889049)
(0.0311567 -0.00153253 0.000158657)
(0.0187505 -0.00082448 0.00061825)
(0.033241 -0.00140564 0.00234286)
(0.0218691 -0.000622213 0.0019898)
(0.0360693 -0.000826719 0.00381995)
(0.0286449 -0.00152414 -0.00252245)
(0.0110083 -0.000738718 -0.00138362)
(0.0281959 -0.0017075 -0.00178472)
(0.00933215 -0.000534283 -0.000549645)
(0.0278896 -0.00119848 0.000616163)
(0.00840576 -0.000297191 0.000167769)
(0.0281575 -0.000543466 0.00153173)
(0.00760405 -4.3929e-05 -0.000103662)
(0.0283999 -9.1961e-05 0.000623079)
(0.0283811 -0.00117855 -0.00230736)
(0.0102468 -0.000614035 -0.00117383)
(0.0275678 -0.0012478 -0.00119819)
(0.00737318 -0.000387957 -0.00021015)
(0.0273054 -0.000569786 0.000890025)
(0.00598643 -0.000235058 0.000221826)
(0.0275492 2.68988e-05 0.000389306)
(0.00550068 -0.000201313 -0.000174281)
(0.0279966 0.000245796 -9.11404e-05)
(0.0284737 -0.000366277 -0.00218136)
(0.00973134 -8.30959e-05 -0.00115875)
(0.027258 -0.000147207 -0.00113291)
(0.00653151 1.384e-05 -0.000257588)
(0.0267952 0.000118746 0.00103469)
(0.00594718 2.88811e-06 0.000115477)
(0.0270095 5.88565e-05 0.00147441)
(0.00617236 6.46797e-06 -0.00013337)
(0.0266814 0.0002286 0.00108429)
)
;
    }
    procBoundary4to5
    {
        type            processor;
        value           nonuniform List<vector> 
12
(
(0.0194669 -0.000594974 0.00184777)
(0.00252448 -0.000122304 -0.00027233)
(0.00109729 -0.00010942 -0.000102765)
(0.00312554 5.44491e-05 -0.000283736)
(0.0230103 -0.000728768 0.00220745)
(0.0012847 -1.99194e-05 -3.59255e-05)
(0.00631073 -0.000643243 0.000155911)
(0.00270518 -4.54553e-05 0.000105736)
(0.0254158 -0.000166195 0.000521302)
(0.02138 -2.23777e-05 0.000167102)
(0.0228865 -0.00103268 -0.000331382)
(0.0204303 -0.00110626 0.00138402)
)
;
    }
    procBoundary4to6
    {
        type            processor;
        value           nonuniform List<vector> 
27
(
(0.0282135 0.000727189 -0.00120507)
(0.00917451 0.000448294 -0.000478667)
(0.0264621 0.000768694 -0.000472433)
(0.00483747 0.000232712 -6.28611e-05)
(0.0261305 0.000340925 0.000421583)
(0.00373509 0.000193844 7.08682e-05)
(0.0262801 0.00037151 0.000559176)
(0.00199667 0.000104458 -5.89734e-05)
(0.0262907 3.49283e-05 -0.000503501)
(0.0283517 0.000601995 0.000655417)
(0.010702 0.000299588 0.000129364)
(0.027478 0.00048421 0.00103083)
(0.00782733 0.000254128 0.000360169)
(0.0271927 0.000206041 0.00101256)
(0.00595247 0.000152475 0.000294916)
(0.0270546 0.000483383 0.000964306)
(0.00560643 0.000243553 0.000212331)
(0.0273072 0.000265435 -0.000612432)
(0.028488 0.000771248 0.000561286)
(0.0137699 0.00033756 0.000202131)
(0.0288936 0.000569697 0.000721225)
(0.0143396 0.000274124 0.000268589)
(0.0296284 0.000240903 0.000829425)
(0.0148262 5.9705e-05 0.000372829)
(0.0302468 -0.000105967 0.000103959)
(0.0139662 -5.91582e-05 7.02674e-05)
(0.0300457 -0.000263509 -0.000552048)
)
;
    }
}


// ************************************************************************* //
