/*--------------------------------*- C++ -*----------------------------------*\
| =========                 |                                                 |
| \\      /  F ield         | OpenFOAM: The Open Source CFD Toolbox           |
|  \\    /   O peration     | Version:  4.x                                   |
|   \\  /    A nd           | Web:      www.OpenFOAM.org                      |
|    \\/     M anipulation  |                                                 |
\*---------------------------------------------------------------------------*/
FoamFile
{
    version     2.0;
    format      ascii;
    class       volVectorField;
    location    "6";
    object      Us;
}
// * * * * * * * * * * * * * * * * * * * * * * * * * * * * * * * * * * * * * //

dimensions      [0 1 -1 0 0 0 0];

internalField   nonuniform List<vector> 
108
(
(4.77297e-08 3.57907e-09 2.84473e-08)
(6.1838e-08 7.00618e-09 4.74141e-08)
(4.07529e-08 -2.65271e-08 8.22176e-08)
(-1.40623e-07 -2.05494e-08 5.79362e-08)
(-2.59723e-07 -1.09153e-08 1.36875e-07)
(-4.87889e-07 -9.15047e-08 1.90238e-07)
(-7.52291e-07 -1.16958e-07 1.78232e-07)
(-1.00891e-06 -8.14201e-08 1.58707e-07)
(-7.52337e-07 -7.69435e-09 2.47928e-08)
(5.61852e-08 7.20045e-09 5.06756e-08)
(2.67895e-08 -9.42015e-09 8.72806e-08)
(-5.80572e-08 3.07144e-08 1.3293e-07)
(-2.67919e-07 2.00054e-08 1.55994e-07)
(-5.52091e-07 -6.38745e-08 2.30058e-07)
(-8.91596e-07 -2.44506e-07 1.25316e-07)
(-1.2555e-06 -2.79947e-07 2.37182e-07)
(-1.42087e-06 -9.37455e-08 1.3465e-07)
(-1.77358e-06 -1.52825e-07 5.75358e-08)
(6.47669e-08 3.38377e-08 5.13205e-08)
(6.99492e-09 4.57656e-08 1.35126e-07)
(-1.49999e-07 6.1148e-08 1.80568e-07)
(-3.85736e-07 8.32748e-08 2.81119e-07)
(-7.10284e-07 -6.09171e-08 2.49802e-07)
(-1.21687e-06 -2.42026e-07 1.58729e-07)
(-1.58024e-06 -1.90012e-07 1.70904e-07)
(-1.8369e-06 -1.88903e-07 1.16408e-07)
(-2.07115e-06 -2.14917e-07 -5.11852e-08)
(5.202e-08 4.59827e-08 6.54712e-08)
(3.19086e-08 7.01184e-08 1.12312e-07)
(-1.20923e-07 1.10116e-07 1.65461e-07)
(-3.34135e-07 8.03297e-08 2.16547e-07)
(-8.36778e-07 -6.16404e-08 2.17744e-07)
(-1.55232e-06 -1.89769e-07 2.10508e-07)
(-1.83969e-06 -1.81578e-07 1.06604e-07)
(-2.15765e-06 -2.50726e-07 1.53279e-07)
(-2.29854e-06 -1.61276e-07 2.73925e-09)
(4.46107e-08 -8.03816e-09 2.9087e-08)
(6.24724e-08 -1.88477e-08 4.38135e-08)
(2.93537e-08 -1.46416e-08 5.89655e-08)
(-8.18638e-08 -3.01257e-08 7.76448e-08)
(-2.22783e-07 -2.21072e-08 1.13257e-07)
(-3.18242e-07 -6.40662e-08 1.61747e-07)
(-4.67908e-07 -4.75023e-08 1.12393e-07)
(-7.04474e-07 -1.41543e-07 6.21759e-08)
(-6.50718e-07 -4.82449e-08 1.27887e-09)
(6.68069e-08 2.56344e-09 3.81902e-08)
(4.24369e-08 -5.4813e-09 6.86225e-08)
(-2.10068e-08 5.86448e-12 9.43058e-08)
(-2.21731e-07 -2.42388e-09 1.54484e-07)
(-4.34528e-07 -6.81446e-08 1.64419e-07)
(-6.1328e-07 -1.43086e-07 1.91065e-07)
(-9.52559e-07 -2.22973e-07 1.54784e-07)
(-1.05664e-06 -2.44656e-07 4.14479e-08)
(-1.18732e-06 -1.01225e-07 3.40528e-08)
(6.25087e-08 2.10317e-08 3.21571e-08)
(4.10762e-08 1.64193e-08 9.91786e-08)
(-8.0707e-09 5.53005e-08 1.18659e-07)
(-2.06341e-07 6.41711e-08 1.28101e-07)
(-4.44656e-07 -5.52315e-09 1.95071e-07)
(-9.3141e-07 -1.34297e-07 1.67571e-07)
(-1.26279e-06 -1.90892e-07 1.43875e-07)
(-1.42938e-06 -2.3365e-07 1.05264e-07)
(-1.58053e-06 -2.77703e-07 -6.96763e-08)
(7.76946e-08 3.88196e-08 3.79607e-08)
(5.56033e-08 5.35973e-08 7.05336e-08)
(-1.02816e-07 1.00885e-07 1.38737e-07)
(-2.52452e-07 7.15174e-08 1.60303e-07)
(-4.45378e-07 2.42457e-08 2.3056e-07)
(-1.26274e-06 -1.90494e-07 2.05642e-07)
(-1.44218e-06 -2.74855e-07 1.34779e-07)
(-1.6804e-06 -1.90122e-07 4.13367e-09)
(-1.83072e-06 -1.78372e-07 -1.46344e-07)
(5.69587e-08 -3.85892e-09 7.58685e-09)
(7.19824e-08 -1.1463e-08 2.6175e-08)
(6.77074e-08 -2.57849e-08 3.45708e-08)
(-4.5326e-08 -2.62083e-08 4.5363e-08)
(-1.14468e-07 -3.96031e-08 5.51687e-08)
(-1.98313e-07 -4.59839e-08 7.97191e-08)
(-3.17602e-07 -4.56985e-08 9.64251e-08)
(-3.86468e-07 -4.58302e-08 6.16504e-08)
(-3.45113e-07 -5.7804e-09 3.32384e-08)
(8.83667e-08 3.51931e-09 -1.78591e-08)
(6.22656e-08 -4.34972e-09 3.36629e-08)
(5.07566e-10 -2.91494e-09 6.61173e-08)
(-1.01477e-07 -3.39659e-08 6.99704e-08)
(-2.30658e-07 -3.73546e-08 8.51761e-08)
(-4.35508e-07 1.46842e-08 6.54331e-08)
(-5.04148e-07 -9.52572e-08 6.26198e-08)
(-6.66575e-07 -2.5653e-08 3.01031e-08)
(-7.07973e-07 -8.14192e-08 5.27984e-08)
(7.70786e-08 1.97546e-08 6.75476e-09)
(5.69243e-08 1.03123e-08 3.33369e-08)
(1.85356e-08 5.99093e-09 6.01614e-08)
(-1.08003e-07 -2.11285e-08 7.28228e-08)
(-3.12406e-07 -3.59743e-08 9.86685e-08)
(-6.14886e-07 5.57938e-09 1.28321e-07)
(-7.09608e-07 -9.41399e-08 1.38166e-07)
(-8.57611e-07 -1.44341e-07 2.13604e-08)
(-8.63092e-07 -2.55056e-07 -2.79889e-08)
(5.58571e-08 1.91831e-08 1.75935e-08)
(6.15297e-08 3.12326e-08 3.26581e-08)
(-3.80775e-08 -7.23405e-10 9.08462e-08)
(-1.5657e-07 3.42298e-08 9.36551e-08)
(-3.06217e-07 8.41263e-08 1.65785e-07)
(-5.88288e-07 2.45735e-08 1.54942e-07)
(-7.07997e-07 -1.19142e-07 5.5446e-08)
(-2.76431e-06 7.77295e-07 6.56236e-09)
(-1.33646e-06 -2.07524e-07 -1.08216e-08)
)
;

boundaryField
{
    inlet
    {
        type            zeroGradient;
    }
    outlet
    {
        type            zeroGradient;
    }
    wall
    {
        type            zeroGradient;
    }
    procBoundary4to0
    {
        type            processor;
        value           nonuniform List<vector> 
36
(
(6.8176e-08 7.98687e-09 3.8209e-08)
(8.20912e-08 2.6775e-08 8.09828e-08)
(2.47003e-08 -3.60189e-08 7.42773e-08)
(-2.683e-07 -4.43795e-08 4.33692e-08)
(-4.36813e-07 -6.01077e-08 7.88949e-08)
(-8.15257e-07 -1.59984e-07 1.68802e-07)
(-9.70618e-07 -1.17031e-07 2.13631e-07)
(-1.47477e-06 -2.20215e-08 1.48435e-07)
(-1.50667e-06 -9.43061e-08 2.46241e-08)
(7.44348e-08 8.50519e-09 5.26302e-08)
(4.31584e-08 2.94855e-08 1.17142e-07)
(-4.99237e-08 -6.67991e-09 1.44261e-07)
(-5.7784e-07 -1.08378e-07 1.84078e-07)
(-9.19542e-07 -1.41728e-07 2.28246e-07)
(-1.19222e-06 -1.67487e-07 2.08326e-07)
(-1.55259e-06 -1.69627e-07 2.32033e-07)
(-1.85266e-06 -7.82586e-08 1.58598e-07)
(-2.0656e-06 -1.58062e-07 2.48134e-08)
(7.81176e-08 6.91856e-08 9.34453e-08)
(2.72743e-08 6.608e-08 1.50336e-07)
(-1.32901e-07 5.56751e-08 1.70153e-07)
(-5.13442e-07 3.54899e-09 2.75285e-07)
(-9.81859e-07 -2.17058e-07 2.94882e-07)
(-1.4832e-06 -1.69379e-07 1.70481e-07)
(-1.86847e-06 -2.10391e-07 1.83905e-07)
(-2.18173e-06 -1.70253e-07 1.18471e-07)
(-2.31986e-06 -2.25035e-07 2.03095e-08)
(9.34726e-08 7.15857e-08 7.56589e-08)
(4.33403e-09 1.1156e-07 1.29876e-07)
(-1.24752e-07 8.51666e-08 1.96022e-07)
(-5.27709e-07 -7.69082e-09 1.76398e-07)
(-1.02553e-06 -1.59233e-07 1.8968e-07)
(-1.60108e-06 -1.37127e-07 2.09428e-07)
(-2.00646e-06 -1.95175e-07 1.52513e-07)
(-2.16509e-06 -1.98948e-07 1.34464e-07)
(-2.55375e-06 -1.97608e-07 3.33369e-08)
)
;
    }
    procBoundary4to5
    {
        type            processor;
        value           nonuniform List<vector> 
12
(
(-8.70144e-07 7.11362e-08 2.5748e-07)
(-1.78023e-06 -2.86821e-07 9.85606e-09)
(-2.19837e-06 -2.49045e-07 -1.35233e-07)
(-2.39252e-06 -2.23565e-07 -4.26848e-08)
(-7.64691e-07 6.74069e-08 8.64968e-08)
(-1.25974e-06 2.77311e-08 4.02383e-08)
(-1.89039e-06 -2.94353e-07 -7.98496e-08)
(-2.08318e-06 -2.64908e-07 -2.01004e-07)
(-3.40534e-07 -6.2576e-08 5.49928e-08)
(-7.10595e-07 -2.50444e-08 1.09576e-07)
(-7.96779e-07 -2.39554e-07 4.60477e-08)
(-1.31614e-06 -3.17443e-07 1.2e-08)
)
;
    }
    procBoundary4to6
    {
        type            processor;
        value           nonuniform List<vector> 
27
(
(4.58258e-08 6.33114e-08 6.77011e-08)
(6.86784e-10 1.03105e-07 1.08979e-07)
(-1.24991e-07 7.72982e-08 1.54646e-07)
(-3.33177e-07 3.51608e-08 1.86373e-07)
(-8.56565e-07 3.66059e-08 1.83098e-07)
(-1.52357e-06 -1.23872e-07 2.4096e-07)
(-1.74601e-06 -2.04999e-07 1.8986e-07)
(-1.98443e-06 -2.25972e-07 1.28639e-07)
(-2.22242e-06 -1.5725e-07 8.46276e-08)
(6.88891e-08 6.27822e-08 3.15185e-08)
(2.00758e-08 1.0315e-07 8.79579e-08)
(-8.19632e-08 9.28828e-08 1.24759e-07)
(-2.45508e-07 8.2986e-08 1.3616e-07)
(-5.08365e-07 7.73574e-08 1.44261e-07)
(-1.15751e-06 6.73959e-08 1.73378e-07)
(-1.45025e-06 -1.09504e-07 7.05986e-08)
(-1.6994e-06 -2.10302e-07 1.11684e-07)
(-1.81664e-06 -1.99948e-07 3.83244e-08)
(6.21425e-08 5.02614e-08 4.0647e-09)
(6.38282e-08 6.66978e-08 3.93313e-08)
(-9.9329e-09 3.54846e-08 8.22254e-08)
(-1.80072e-07 3.45244e-08 9.21718e-08)
(-3.92938e-07 5.37066e-08 1.06315e-07)
(-6.76897e-07 3.18408e-08 1.22645e-07)
(-1.01479e-06 -9.657e-08 2.48822e-08)
(-1.16848e-06 -1.42926e-07 4.40066e-08)
(-1.3642e-06 -3.70689e-07 -1.59435e-07)
)
;
    }
}


// ************************************************************************* //
