/*--------------------------------*- C++ -*----------------------------------*\
  =========                 |
  \\      /  F ield         | OpenFOAM: The Open Source CFD Toolbox
   \\    /   O peration     | Website:  https://openfoam.org
    \\  /    A nd           | Version:  4.x
     \\/     M anipulation  |
\*---------------------------------------------------------------------------*/
FoamFile
{
    version     2.0;
    format      ascii;
    class       Cloud<passiveParticle>;
    location    0;
    object      positions;
}
// * * * * * * * * * * * * * * * * * * * * * * * * * * * * * * * * * * * * * //

348
(
( 0.256076 -0.0172355 0.0199764 ) 39
( 0.253242 -0.00317273 0.0337026 ) 48
( 0.256958 0.0116425 0.0209287 ) 48
( 0.421221 -0.053226 -0.00939301 ) 10
( 0.328427 -0.0516086 0.035596 ) 32
( 0.439676 -0.0867339 -0.0061709 ) 3
( 0.479817 -0.0721239 0.0133746 ) 5
( 0.429412 -0.0905586 0.0309665 ) 27
( 0.346639 -0.0575922 0.0231276 ) 33
( 0.469065 -0.0594011 0.0236777 ) 37
( 0.438581 -0.0210229 0.017781 ) 45
( 0.477624 -0.0231389 -0.000290569 ) 20
( 0.344233 -0.0902032 0.00357869 ) 0
( 0.431799 -0.0409193 0.0119127 ) 18
( 0.45665 -0.0434037 0.000602424 ) 11
( 0.28771 -0.0166785 -0.0053876 ) 13
( 0.373453 -0.0737793 0.00179897 ) 1
( 0.40279 -0.0578112 -0.00413271 ) 9
( 0.280685 -0.0346722 -0.0097422 ) 13
( 0.344999 -0.0182691 0.00426588 ) 15
( 0.393023 -0.0731032 0.00361896 ) 2
( 0.283137 -0.0296831 0.0090729 ) 13
( 0.321819 -0.0256975 -0.00888192 ) 14
( 0.333701 -0.0747301 -0.00342197 ) 0
( 0.36398 -0.0843417 0.030644 ) 25
( 0.362919 -0.0224687 -0.00298013 ) 16
( 0.48965 -0.0448064 0.0248183 ) 38
( 0.435985 -0.0902634 0.0126726 ) 3
( 0.481813 -0.0718525 -0.00618211 ) 5
( 0.370543 -0.0543977 0.00550302 ) 8
( 0.432823 -0.0550186 0.0260986 ) 36
( 0.448816 -0.0717961 0.00271269 ) 4
( 0.312603 -0.0762259 0.0169585 ) 23
( 0.391676 -0.0907136 0.0243212 ) 26
( 0.348602 -0.0717576 0.00936433 ) 0
( 0.418888 -0.0312225 0.0283519 ) 45
( 0.398043 -0.0880421 -0.00879426 ) 2
( 0.421798 -0.0773467 0.01789 ) 27
( 0.310812 -0.0570009 0.0226782 ) 32
( 0.425171 -0.0298461 -0.00903083 ) 18
( 0.452392 -0.0666549 0.0313997 ) 37
( 0.46589 -0.0316759 -0.0133296 ) 19
( 0.401577 -0.0262151 0.0156785 ) 44
( 0.340142 -0.0562846 -0.00498647 ) 7
( 0.32534 -0.0242215 0.0105983 ) 14
( 0.360494 -0.0862692 -0.00686642 ) 0
( 0.322013 -0.0622528 0.00675103 ) 6
( 0.384225 -0.0385498 0.0238887 ) 43
( 0.383586 -0.0577558 0.0193517 ) 34
( 0.278024 -0.0599583 0.0190206 ) 31
( 0.322379 -0.0593549 -0.0130133 ) 6
( 0.403738 -0.043499 0.0245064 ) 35
( 0.346974 -0.0902479 0.0230659 ) 24
( 0.454992 -0.0175925 0.0285347 ) 46
( 0.391135 -0.0281414 -0.00109397 ) 17
( 0.260573 -0.0718674 0.0226338 ) 21
( 0.454565 -0.0905161 0.00630421 ) 4
( 0.384741 -0.0905179 0.00595958 ) 1
( 0.359383 -0.0416579 -0.00407194 ) 15
( 0.490474 -0.0171314 0.0130709 ) 20
( 0.465503 -0.0618126 0.0045184 ) 11
( 0.489121 -0.0557037 0.00816971 ) 12
( 0.474673 -0.0904774 0.020009 ) 29
( 0.490357 -0.0361528 0.00702453 ) 20
( 0.420442 -0.0901736 -0.00420974 ) 3
( 0.453467 -0.0341093 0.0176243 ) 46
( 0.421102 -0.0245053 0.00973561 ) 18
( 0.417035 -0.0534581 0.0141047 ) 10
( 0.356164 -0.0319167 0.0130812 ) 15
( 0.330692 -0.0475333 0.016516 ) 32
( 0.37644 -0.021157 0.0283831 ) 43
( 0.27222 -0.0274537 0.0251766 ) 39
( 0.449651 -0.0556224 0.0147381 ) 37
( 0.357024 -0.0205134 0.0288194 ) 42
( 0.265295 -0.0459803 0.0248947 ) 30
( 0.381868 -0.0450053 -0.0079542 ) 8
( 0.446947 -0.0263402 0.000498854 ) 19
( 0.403555 -0.0668162 0.0187111 ) 35
( 0.302569 -0.0290679 0.00274837 ) 13
( 0.313159 -0.0385746 0.0162779 ) 41
( 0.458183 -0.0850199 -0.0125423 ) 4
( 0.366305 -0.0471486 0.0242436 ) 34
( 0.3646 -0.0664976 0.0198773 ) 34
( 0.321713 -0.0438074 -0.000828277 ) 6
( 0.473168 -0.0488888 -0.00762928 ) 12
( 0.471772 -0.0294025 0.0248389 ) 46
( 0.479587 -0.0884599 0.0394554 ) 29
( 0.310975 -0.041995 0.0354745 ) 41
( 0.358263 -0.0640456 -0.00605865 ) 7
( 0.458939 -0.0651256 -0.0136911 ) 11
( 0.365543 -0.0900536 0.0118555 ) 1
( 0.332638 -0.0747216 0.0206836 ) 23
( 0.453789 -0.0472822 0.0321732 ) 37
( 0.291009 -0.0718378 0.0280801 ) 22
( 0.341177 -0.0384634 0.00283454 ) 15
( 0.472907 -0.0900618 -0.000564003 ) 5
( 0.490894 -0.0542756 -0.0114798 ) 12
( 0.316082 -0.0224341 0.0280316 ) 41
( 0.410499 -0.0901404 0.0279247 ) 26
( 0.411124 -0.0393402 0.00141533 ) 17
( 0.433008 -0.0603343 0.00494248 ) 10
( 0.489587 -0.0631244 0.0313674 ) 38
( 0.393557 -0.04546 0.00792609 ) 9
( 0.380796 -0.0749663 0.027632 ) 25
( 0.47313 -0.0443006 0.0118723 ) 12
( 0.3394 -0.0294967 0.0232472 ) 42
( 0.461269 -0.0761925 0.0172424 ) 28
( 0.374624 -0.0346502 0.00734164 ) 16
( 0.268954 -0.0900627 0.0190187 ) 21
( 0.489927 -0.0900076 -0.0120046 ) 5
( 0.438391 -0.0440341 -0.00613309 ) 10
( 0.316251 -0.0901259 0.0302889 ) 23
( 0.378854 -0.0901177 -0.0130651 ) 1
( 0.293088 -0.044263 0.0270465 ) 31
( 0.40631 -0.0869657 0.00909172 ) 2
( 0.41728 -0.0710238 -0.000304024 ) 10
( 0.37339 -0.0405881 0.0416347 ) 43
( 0.452908 -0.0904554 0.0274556 ) 28
( 0.472682 -0.0452576 0.0363054 ) 38
( 0.273744 0.00490695 0.0288266 ) 48
( 0.491036 -0.0816986 0.025723 ) 29
( 0.437745 -0.0363773 0.0299589 ) 45
( 0.49044 -0.0901339 0.0078928 ) 5
( 0.341684 -0.0440539 0.0523759 ) 62
( 0.32265 -0.0609923 0.0518866 ) 61
( 0.28213 -0.0108897 0.0551373 ) 78
( 0.26713 -0.089965 0.0394285 ) 21
( 0.382894 -0.0241404 0.0468051 ) 72
( 0.398192 -0.0905007 0.0520489 ) 55
( 0.423261 -0.0351646 0.0571828 ) 74
( 0.347877 -0.0707515 0.0552204 ) 62
( 0.340508 -0.0903485 0.0570193 ) 53
( 0.489779 -0.0339965 -0.0125427 ) 20
( 0.296364 0.00147177 0.048366 ) 78
( 0.289464 -0.0247754 0.0432441 ) 69
( 0.327654 -0.00948493 0.0488994 ) 79
( 0.485103 -0.0234252 0.0484569 ) 76
( 0.271748 -0.0729579 0.0575688 ) 50
( 0.387164 -0.055397 0.0522449 ) 63
( 0.43934 -0.068548 0.0540116 ) 65
( 0.265412 -0.0536715 0.0519322 ) 59
( 0.461573 -0.0904521 0.0454268 ) 57
( 0.454248 -0.0170759 0.0576633 ) 75
( 0.490385 -0.0902824 0.0771898 ) 89
( 0.312431 -0.041911 0.0678887 ) 70
( 0.299008 -0.0581677 0.0590824 ) 60
( 0.362242 -0.0342528 0.0567592 ) 72
( 0.374728 -0.0902922 0.0582606 ) 54
( 0.420636 -0.0739077 0.0571565 ) 56
( 0.370887 -0.0561719 0.0634539 ) 63
( 0.456246 -0.0596613 0.0490479 ) 66
( 0.285063 -0.090175 0.0581348 ) 51
( 0.489745 -0.0551643 0.0589806 ) 67
( 0.326416 -0.0777248 0.0614452 ) 52
( 0.348507 0.0104922 0.0617997 ) 80
( 0.438572 -0.0481324 0.0575652 ) 65
( 0.471336 -0.073406 0.0600531 ) 57
( 0.431433 -0.0901169 0.0611602 ) 56
( 0.335395 -0.0241918 0.0598228 ) 71
( 0.462297 -0.0356309 0.068412 ) 75
( 0.28394 -0.0297818 0.0616099 ) 69
( 0.401131 -0.0432066 0.0581021 ) 64
( 0.368369 -0.0153412 0.0572666 ) 72
( 0.323886 0.00747022 0.0590715 ) 79
( 0.28377 0.006673 0.0638741 ) 78
( 0.386688 -0.0748028 0.0528709 ) 54
( 0.434656 -0.0199477 0.0630975 ) 74
( 0.310459 -0.025866 0.0467388 ) 70
( 0.33547 -0.0570121 0.0662067 ) 62
( 0.38064 -0.0388672 0.0600841 ) 72
( 0.255701 -0.0205772 0.0425124 ) 39
( 0.254546 -0.0417272 0.0408546 ) 39
( 0.265698 -0.0221169 0.0594006 ) 68
( 0.402727 -0.0237472 0.0549693 ) 73
( 0.454986 -0.039846 0.0504917 ) 75
( 0.41747 -0.0902893 0.0467431 ) 56
( 0.310254 -0.00948895 0.057554 ) 79
( 0.367214 -0.0727351 0.0532251 ) 54
( 0.425412 -0.0572382 0.0466155 ) 65
( 0.336551 -0.070386 0.0393894 ) 33
( 0.359022 -0.0520099 0.0486978 ) 62
( 0.472285 -0.0687855 0.0408416 ) 38
( 0.25537 -0.0756455 0.0469344 ) 50
( 0.374011 -0.0600233 0.0384004 ) 34
( 0.296745 -0.0418536 0.0489288 ) 69
( 0.355533 -0.0877622 0.0704458 ) 53
( 0.42088 -0.052949 0.0654712 ) 65
( 0.260567 0.0139192 0.0399572 ) 48
( 0.297703 -0.0256842 0.0215184 ) 40
( 0.299448 -0.0901389 0.0441197 ) 51
( 0.46589 -0.0248452 0.04345 ) 75
( 0.353791 -0.00777552 0.0729062 ) 111
( 0.406544 -0.0618761 0.0505358 ) 64
( 0.412238 -0.0438305 0.041979 ) 35
( 0.434341 -0.0723244 0.0352828 ) 27
( 0.272137 -0.0695944 0.0381807 ) 30
( 0.317555 -0.0705749 0.0351668 ) 32
( 0.473417 -0.0158464 0.0617221 ) 76
( 0.30796 -0.0741166 0.051874 ) 52
( 0.490152 -0.073994 0.0479625 ) 58
( 0.380408 -0.090182 0.0399339 ) 25
( 0.490565 -0.0261535 0.0302221 ) 47
( 0.337951 0.00711405 0.0454284 ) 80
( 0.490639 -0.0418362 0.0443644 ) 76
( 0.348982 -0.0255213 0.0459244 ) 71
( 0.322493 -0.0412458 0.0514369 ) 70
( 0.288824 -0.0736723 0.0476588 ) 51
( 0.261908 -0.0901497 0.0585649 ) 50
( 0.272005 -0.0335476 0.0439719 ) 68
( 0.412059 -0.0894141 0.0659431 ) 55
( 0.402895 -0.0603527 0.0695562 ) 64
( 0.350124 -0.0416701 0.0344657 ) 42
( 0.398115 -0.0775644 0.037099 ) 26
( 0.393025 -0.0401139 0.0409737 ) 44
( 0.334412 -0.0900785 0.0381687 ) 24
( 0.484297 -0.090183 0.0585304 ) 58
( 0.280476 -0.0551386 0.0640988 ) 60
( 0.285008 -0.0903469 0.030754 ) 22
( 0.300439 -0.0114092 0.0345036 ) 49
( 0.41438 -0.0164386 0.0690248 ) 73
( 0.357871 -0.0901848 0.0482785 ) 53
( 0.392401 -0.0896374 0.0710549 ) 55
( 0.44227 -0.0878788 0.0446875 ) 56
( 0.490816 -0.0350857 0.0637961 ) 76
( 0.355372 -0.0469648 0.0723109 ) 93
( 0.415266 -0.0685796 0.0343489 ) 35
( 0.452292 -0.0818062 0.0599528 ) 57
( 0.407111 0.00550806 0.0731065 ) 113
( 0.302195 0.00739329 0.0290361 ) 49
( 0.316056 -0.0231866 0.0731765 ) 101
( 0.282083 -0.0527197 0.0412314 ) 31
( 0.395657 -0.0582868 0.0346639 ) 35
( 0.251327 -0.0601929 0.035637 ) 30
( 0.304522 -0.0901403 0.0636469 ) 51
( 0.294756 -0.0463468 0.0741242 ) 91
( 0.386604 -0.01942 0.0653834 ) 72
( 0.402136 -0.0236074 0.0353504 ) 44
( 0.474426 -0.0392315 0.0543467 ) 76
( 0.44119 -0.0252824 0.0454315 ) 74
( 0.355911 -0.0677212 0.0375113 ) 33
( 0.304132 0.0125431 0.0622196 ) 78
( 0.301409 -0.0597417 0.0397058 ) 31
( 0.272908 -0.0124582 0.0378596 ) 48
( 0.265616 -0.00164105 0.0646583 ) 77
( 0.335728 0.0085664 0.0762412 ) 111
( 0.444601 -0.0610206 0.0713471 ) 66
( 0.288783 -0.0130029 0.0903625 ) 109
( 0.490043 -0.0730005 0.067715 ) 58
( 0.463052 -0.0567361 0.0669271 ) 66
( 0.380107 -0.0729463 0.0714909 ) 85
( 0.329038 -0.00861551 0.0697994 ) 79
( 0.443552 -0.0353725 0.071312 ) 74
( 0.341358 -0.0745349 0.073055 ) 84
( 0.419307 -0.0201195 0.0449205 ) 74
( 0.467022 -0.0905417 0.0689705 ) 57
( 0.347917 -0.00761594 0.0541485 ) 80
( 0.427173 -0.06918 0.075097 ) 96
( 0.318397 -0.0906669 0.0497624 ) 52
( 0.408781 -0.0349873 0.0732653 ) 104
( 0.385459 -0.0546177 0.0760919 ) 94
( 0.370797 -0.0280108 0.0734993 ) 103
( 0.251743 -0.014336 0.0712963 ) 68
( 0.335364 -0.0387373 0.0731025 ) 102
( 0.294414 -0.0272458 0.0782018 ) 100
( 0.478098 -0.0466003 0.0725129 ) 98
( 0.389837 -0.0350963 0.0766203 ) 104
( 0.373486 -0.00840358 0.0751063 ) 112
( 0.288907 -0.0730354 0.0672729 ) 51
( 0.425561 -0.0902239 0.0802317 ) 87
( 0.330323 -0.0271395 0.0405875 ) 41
( 0.267211 -0.0398414 0.0682254 ) 68
( 0.426525 -0.0298768 0.0780308 ) 105
( 0.312005 -0.000428771 0.0747448 ) 110
( 0.477411 -0.0272908 0.0770316 ) 107
( 0.312691 -0.0670198 0.0695083 ) 61
( 0.358888 -0.0897673 0.0902585 ) 84
( 0.351139 -0.0272555 0.0727309 ) 102
( 0.398546 -0.0692496 0.0891796 ) 95
( 0.382964 0.00872436 0.0784576 ) 112
( 0.362212 -0.0642085 0.0796461 ) 94
( 0.277018 -0.0149339 0.0738429 ) 99
( 0.398792 -0.017929 0.0807706 ) 104
( 0.295207 -0.00946854 0.069832 ) 78
( 0.363937 0.0090166 0.0737349 ) 112
( 0.264147 -0.0622567 0.0720965 ) 90
( 0.327962 -0.0732587 0.0900787 ) 83
( 0.322022 -0.0893676 0.0798538 ) 83
( 0.431936 -0.050171 0.0816132 ) 96
( 0.406466 -0.0905345 0.0850426 ) 86
( 0.270884 -0.0903456 0.0759966 ) 81
( 0.37363 -0.0904689 0.0773353 ) 85
( 0.281437 -0.0626078 0.0823184 ) 91
( 0.375246 -0.0455373 0.0902682 ) 94
( 0.344806 -0.00707308 0.0903421 ) 111
( 0.459293 -0.0735683 0.0758795 ) 88
( 0.415713 0.000581847 0.0900586 ) 113
( 0.454808 -0.0473523 0.0821058 ) 97
( 0.287482 0.0056601 0.0843214 ) 109
( 0.386162 -0.00674343 0.0904549 ) 112
( 0.474129 -0.0822895 0.084761 ) 89
( 0.290501 -0.0900866 0.0774184 ) 82
( 0.380182 -0.0258337 0.0906076 ) 103
( 0.413996 -0.0571652 0.085449 ) 95
( 0.332684 -0.0215646 0.0840842 ) 101
( 0.352361 -0.0385967 0.0901228 ) 102
( 0.25113 -0.020462 0.0901732 ) 99
( 0.378855 -0.0665762 0.0902954 ) 94
( 0.447555 -0.019423 0.0823682 ) 106
( 0.438055 -0.0788252 0.0904228 ) 87
( 0.270252 0.0127796 0.0903919 ) 108
( 0.255968 0.00168825 0.0824412 ) 108
( 0.490433 -0.0396337 0.0859134 ) 107
( 0.47279 -0.0630629 0.0900756 ) 98
( 0.339049 -0.0901106 0.0901799 ) 84
( 0.307882 -0.0353636 0.0902282 ) 101
( 0.34008 -0.0542302 0.0900344 ) 93
( 0.268741 -0.0295225 0.0903488 ) 99
( 0.490376 -0.0588659 0.0815446 ) 98
( 0.395771 -0.047224 0.0906553 ) 95
( 0.363734 -0.00119337 0.0904608 ) 112
( 0.414426 -0.0385727 0.0909957 ) 104
( 0.300305 -0.0732081 0.0830651 ) 82
( 0.268992 -0.00993349 0.0906655 ) 108
( 0.320126 -0.0554261 0.0830882 ) 92
( 0.279406 -0.0804007 0.0904466 ) 82
( 0.3987 0.0103388 0.0903062 ) 113
( 0.44469 -0.0902998 0.0758633 ) 88
( 0.325294 -0.00270937 0.0900754 ) 110
( 0.305234 -0.0903142 0.0905317 ) 82
( 0.347912 -0.0723952 0.0907853 ) 84
( 0.451115 -0.0643146 0.0906003 ) 97
( 0.471554 -0.0411527 0.0904117 ) 106
( 0.441802 -0.0358804 0.090844 ) 105
( 0.267816 -0.0486725 0.0859669 ) 90
( 0.30924 -0.0154161 0.0901427 ) 101
( 0.416124 -0.0190263 0.0906489 ) 104
( 0.386174 -0.085045 0.0906937 ) 85
( 0.490351 -0.0204992 0.0902975 ) 107
( 0.465328 -0.0224067 0.0909421 ) 106
( 0.285262 -0.0401116 0.0901853 ) 100
( 0.306063 0.008845 0.0905743 ) 110
( 0.417382 -0.0755379 0.0906629 ) 87
( 0.490826 -0.0761881 0.0908179 ) 89
( 0.327231 -0.0391447 0.0907347 ) 101
( 0.457687 -0.0903198 0.0904649 ) 88
( 0.297627 -0.0555354 0.0907648 ) 91
( 0.264538 -0.0674738 0.0908037 ) 90
( 0.361022 -0.0207734 0.0901523 ) 102
)
