/*--------------------------------*- C++ -*----------------------------------*\
| =========                 |                                                 |
| \\      /  F ield         | OpenFOAM: The Open Source CFD Toolbox           |
|  \\    /   O peration     | Version:  4.x                                   |
|   \\  /    A nd           | Web:      www.OpenFOAM.org                      |
|    \\/     M anipulation  |                                                 |
\*---------------------------------------------------------------------------*/
FoamFile
{
    version     2.0;
    format      ascii;
    class       volVectorField;
    location    "51";
    object      ddtUrel;
}
// * * * * * * * * * * * * * * * * * * * * * * * * * * * * * * * * * * * * * //

dimensions      [0 1 -2 0 0 0 0];

internalField   nonuniform List<vector> 
132
(
(-1.20276e-11 2.02783e-10 1.87141e-10)
(5.53482e-11 2.17437e-10 2.00942e-10)
(2.3741e-10 1.84147e-10 1.6666e-10)
(-1.59543e-10 -9.19701e-11 -1.2341e-10)
(-1.13303e-09 -1.53529e-10 -1.68718e-10)
(-2.48999e-09 -1.30142e-10 -1.16521e-10)
(-5.16695e-09 -1.03156e-10 -2.72053e-11)
(-1.0974e-08 -9.65831e-11 1.22608e-10)
(-2.54577e-08 -1.26393e-10 4.44953e-10)
(2.45565e-11 2.19373e-10 1.45707e-10)
(8.46907e-11 2.30953e-10 1.40571e-10)
(1.74043e-10 1.64631e-10 7.35657e-11)
(-1.5401e-10 -1.02154e-10 -8.02953e-11)
(-8.89405e-10 -1.66094e-10 -1.35318e-10)
(-2.05069e-09 -1.41544e-10 -1.08053e-10)
(-4.1437e-09 -1.05874e-10 -4.52276e-11)
(-8.23309e-09 -9.11857e-11 6.0306e-11)
(-1.67411e-08 -1.0131e-10 2.56075e-10)
(4.19659e-11 2.01906e-10 9.55779e-11)
(7.22101e-11 1.89271e-10 7.82834e-11)
(5.54012e-11 1.22666e-10 2.96571e-11)
(-1.84053e-10 -4.63922e-11 -4.54047e-11)
(-6.8309e-10 -1.28597e-10 -8.92394e-11)
(-1.49507e-09 -1.22025e-10 -8.86697e-11)
(-2.89389e-09 -1.0095e-10 -5.9945e-11)
(-5.25665e-09 -9.2423e-11 -2.5292e-12)
(-9.33913e-09 -1.06188e-10 9.49975e-11)
(3.44956e-11 1.57731e-10 5.28946e-11)
(3.40183e-11 1.32347e-10 3.60308e-11)
(-2.05193e-11 7.94451e-11 5.80435e-12)
(2.73571e-11 1.62676e-10 2.0648e-10)
(8.37014e-11 1.60871e-10 2.18121e-10)
(1.44703e-10 9.57413e-11 1.47018e-10)
(-1.10507e-10 -5.45568e-11 -1.47028e-10)
(-8.51236e-10 -1.08292e-10 -1.90904e-10)
(-1.97347e-09 -1.05645e-10 -1.38057e-10)
(-3.97814e-09 -9.40822e-11 -6.20747e-11)
(-7.91846e-09 -9.35475e-11 5.34781e-11)
(-1.58686e-08 -1.19813e-10 2.46088e-10)
(4.7781e-11 1.73825e-10 1.58201e-10)
(1.02843e-10 1.78235e-10 1.56197e-10)
(1.39514e-10 1.06939e-10 8.45628e-11)
(-1.08138e-10 -5.35077e-11 -8.90782e-11)
(-7.09384e-10 -1.24554e-10 -1.51753e-10)
(-1.65478e-09 -1.16701e-10 -1.27442e-10)
(-3.251e-09 -9.77638e-11 -7.22228e-11)
(-6.1122e-09 -9.39346e-11 1.06157e-11)
(-1.12537e-08 -1.16637e-10 1.386e-10)
(5.23976e-11 1.58617e-10 1.00619e-10)
(8.04151e-11 1.54933e-10 8.60008e-11)
(6.29417e-11 8.75421e-11 3.26566e-11)
(-1.282e-10 -2.73698e-11 -4.98116e-11)
(-5.44972e-10 -9.52182e-11 -9.87008e-11)
(-1.21984e-09 -1.03946e-10 -1.00492e-10)
(-2.30789e-09 -9.55388e-11 -7.67488e-11)
(-4.05372e-09 -9.72352e-11 -3.15219e-11)
(-6.77043e-09 -1.22137e-10 3.41473e-11)
(3.91493e-11 1.30786e-10 5.55335e-11)
(4.50447e-11 1.14337e-10 3.92899e-11)
(9.33652e-12 6.67206e-11 5.89395e-12)
(-1.31765e-10 -4.75165e-12 -3.68666e-11)
(-4.02276e-10 -5.59344e-11 -6.87194e-11)
(5.17361e-11 1.04603e-10 1.71305e-10)
(7.56091e-11 9.43371e-11 1.60579e-10)
(6.28175e-11 5.36674e-11 8.94733e-11)
(-1.49078e-10 -1.58435e-11 -7.56169e-11)
(-6.1818e-10 -6.02844e-11 -1.41943e-10)
(-1.39239e-09 -7.32201e-11 -1.25875e-10)
(-2.67473e-09 -7.83815e-11 -7.97203e-11)
(-4.88664e-09 -9.23052e-11 -9.89528e-12)
(-8.58437e-09 -1.27689e-10 8.50912e-11)
(5.82097e-11 1.15563e-10 1.38981e-10)
(8.05003e-11 1.06191e-10 1.26094e-10)
(6.65424e-11 5.98285e-11 6.08902e-11)
(-1.19295e-10 -1.65399e-11 -5.7246e-11)
(-5.23044e-10 -6.71876e-11 -1.24758e-10)
(-1.18688e-09 -8.02179e-11 -1.20607e-10)
(-2.24211e-09 -8.34544e-11 -8.72991e-11)
(-3.94534e-09 -9.58585e-11 -3.44764e-11)
(-6.5642e-09 -1.37197e-10 3.43651e-11)
(5.07788e-11 1.0971e-10 9.00209e-11)
(6.24314e-11 1.00574e-10 7.48445e-11)
(3.76301e-11 5.78027e-11 2.68251e-11)
(-1.11206e-10 -9.22915e-12 -4.34368e-11)
(-4.11382e-10 -5.80422e-11 -9.13631e-11)
(-9.04584e-10 -7.52947e-11 -9.97912e-11)
(-1.65044e-09 -8.52654e-11 -8.53846e-11)
(-2.75889e-09 -1.04226e-10 -5.59912e-11)
(-4.29229e-09 -1.5155e-10 -1.80448e-11)
(3.51971e-11 9.50735e-11 4.96261e-11)
(3.87352e-11 8.34493e-11 3.51863e-11)
(9.62626e-12 4.95648e-11 3.61106e-12)
(-1.0217e-10 1.08243e-12 -3.63665e-11)
(-3.08548e-10 -3.86625e-11 -6.86699e-11)
(-6.41085e-10 -6.18593e-11 -8.15306e-11)
(-1.12342e-09 -8.32075e-11 -8.14691e-11)
(4.29163e-11 6.51368e-11 1.20187e-10)
(4.80444e-11 5.30489e-11 1.01505e-10)
(1.26455e-11 2.95995e-11 4.9022e-11)
(-1.42388e-10 -6.04954e-12 -3.82715e-11)
(-4.35541e-10 -3.47888e-11 -9.19618e-11)
(-9.17289e-10 -5.24455e-11 -9.98008e-11)
(-1.67547e-09 -6.89492e-11 -8.16699e-11)
(-2.81962e-09 -9.49039e-11 -4.68432e-11)
(-4.4542e-09 -1.43326e-10 -5.56739e-12)
(4.61477e-11 7.11821e-11 1.01761e-10)
(5.18892e-11 6.02609e-11 8.47334e-11)
(2.01406e-11 3.29697e-11 3.51162e-11)
(-1.11928e-10 -5.5114e-12 -3.7405e-11)
(-3.72177e-10 -3.79347e-11 -8.68681e-11)
(-7.95935e-10 -5.70766e-11 -9.71155e-11)
(-1.43432e-09 -7.44416e-11 -8.47407e-11)
(-2.36144e-09 -1.02296e-10 -5.79722e-11)
(-3.6099e-09 -1.58001e-10 -2.6403e-11)
(3.76645e-11 7.27968e-11 6.99863e-11)
(4.10446e-11 6.15578e-11 5.33799e-11)
(1.2498e-11 3.41484e-11 1.61986e-11)
(-9.69326e-11 -3.9359e-12 -3.50558e-11)
(-3.00765e-10 -3.65325e-11 -7.30979e-11)
(-6.31858e-10 -5.82937e-11 -8.59226e-11)
(-1.10257e-09 -8.04832e-11 -8.20238e-11)
(-1.74516e-09 -1.15747e-10 -6.74462e-11)
(-2.54253e-09 -1.83797e-10 -4.95028e-11)
(2.60908e-11 6.41162e-11 3.8582e-11)
(2.67506e-11 5.67307e-11 2.67629e-11)
(2.69573e-12 3.35059e-11 1.40187e-12)
(-8.21649e-11 1.36522e-12 -3.24091e-11)
(-2.30396e-10 -2.86708e-11 -6.06213e-11)
(-4.67003e-10 -5.28497e-11 -7.4317e-11)
(-7.8602e-10 -8.30303e-11 -7.78808e-11)
(-1.18986e-09 -1.29266e-10 -7.43155e-11)
(-1.63978e-09 -2.16152e-10 -7.17826e-11)
)
;

boundaryField
{
    inlet
    {
        type            calculated;
        value           nonuniform List<vector> 
16
(
(-4.75173e-10 2.32988e-10 2.10968e-10)
(-2.39715e-10 4.00013e-10 1.54055e-10)
(-2.1088e-10 4.66599e-10 1.27578e-10)
(3.36412e-11 3.49191e-10 7.15267e-11)
(-1.71288e-10 1.5751e-10 4.83383e-10)
(-2.43907e-11 3.10666e-10 2.94461e-10)
(-9.47415e-12 2.60082e-10 1.64576e-10)
(8.05126e-12 2.33421e-10 1.06256e-10)
(4.05458e-11 6.74863e-11 3.55491e-10)
(4.18632e-11 1.69634e-10 2.8874e-10)
(1.56307e-11 1.5483e-10 1.44341e-10)
(3.16684e-11 1.3906e-10 7.65297e-11)
(1.8004e-11 4.0713e-11 2.20188e-10)
(5.11198e-11 7.16517e-11 1.97464e-10)
(-3.81385e-11 1.09135e-10 1.38912e-10)
(-1.33448e-11 7.13431e-11 5.13363e-11)
)
;
    }
    outlet
    {
        type            calculated;
        value           nonuniform 0();
    }
    wall
    {
        type            calculated;
        value           nonuniform List<vector> 
66
(
(-4.86695e-10 2.32999e-10 2.10959e-10)
(-2.34539e-10 3.9921e-10 1.52306e-10)
(-1.00548e-10 4.6334e-10 1.17244e-10)
(4.97226e-11 3.4879e-10 6.949e-11)
(-5.25158e-10 4.87095e-10 4.90821e-10)
(6.89295e-11 8.19357e-10 3.01291e-10)
(2.18608e-10 5.10727e-10 9.79426e-11)
(1.13558e-10 2.5028e-10 1.72113e-11)
(2.5512e-09 1.28453e-09 1.34174e-09)
(1.65339e-09 1.08934e-09 1.76105e-10)
(4.63378e-10 5.8037e-10 5.03991e-11)
(2.41585e-11 1.58831e-10 4.70886e-12)
(1.47151e-09 -8.48715e-10 -9.73595e-10)
(9.99863e-10 -1.13137e-09 -3.4312e-10)
(2.75729e-10 -3.45433e-10 -5.76524e-11)
(-1.67881e-09 -5.17638e-10 -5.12086e-10)
(-2.41464e-10 -7.41966e-10 -3.8106e-10)
(-3.32677e-10 -5.89774e-10 -1.29771e-10)
(-1.39867e-09 -1.90081e-10 -1.89681e-10)
(-9.19433e-10 -3.3027e-10 -1.85154e-10)
(-4.96385e-10 -2.78876e-10 -1.16584e-10)
(-2.81095e-09 -6.10812e-11 -2.79719e-11)
(-1.99856e-09 -6.01992e-11 -7.5815e-11)
(-1.75856e-09 -1.08597e-10 -8.48343e-11)
(-6.18078e-10 -2.34242e-12 -3.28078e-11)
(-2.65035e-09 6.72937e-11 -2.17671e-11)
(-2.20184e-09 -1.60143e-12 -6.24991e-11)
(-1.43526e-09 -6.53714e-12 -1.22531e-11)
(-1.05914e-08 2.7791e-10 2.25281e-10)
(-5.51206e-09 8.47701e-11 6.69261e-11)
(-4.79924e-10 2.32782e-10 2.1095e-10)
(-1.92579e-10 1.57645e-10 4.84773e-10)
(3.76282e-11 6.73203e-11 3.55484e-10)
(3.36591e-12 4.07138e-11 2.20663e-10)
(-5.11187e-10 4.86721e-10 4.90227e-10)
(1.43671e-10 3.22951e-10 9.04452e-10)
(2.09091e-10 7.84009e-11 4.66626e-10)
(1.38786e-10 1.85387e-11 2.1465e-10)
(1.33705e-09 1.28378e-09 1.39714e-09)
(1.12971e-09 2.31513e-10 1.17986e-09)
(5.70318e-10 5.25443e-11 4.29944e-10)
(3.1527e-10 2.36575e-11 1.57362e-10)
(1.50356e-09 -8.49436e-10 -9.74688e-10)
(1.64867e-09 -3.94313e-10 -1.42511e-09)
(4.53407e-10 -1.62174e-11 -3.47401e-10)
(1.49825e-10 -1.19718e-11 -8.50705e-11)
(-1.71436e-09 -5.19433e-10 -5.10997e-10)
(3.0514e-11 -2.59548e-10 -8.41339e-10)
(2.05447e-10 -6.9882e-11 -4.6342e-10)
(1.0535e-10 -2.8109e-11 -2.08334e-10)
(-1.24402e-09 -1.90654e-10 -1.94741e-10)
(-3.27437e-10 -1.16353e-10 -3.4748e-10)
(-1.04073e-10 -4.07695e-11 -2.77484e-10)
(1.33696e-11 -2.30197e-11 -2.01846e-10)
(-2.24099e-09 -6.49178e-11 -4.83343e-11)
(-2.28566e-10 -6.34761e-11 -2.11903e-10)
(-6.92616e-11 -2.30029e-11 -1.80691e-10)
(-2.7946e-10 -1.36887e-11 -1.74639e-10)
(-1.04929e-09 -1.2372e-11 -1.8304e-11)
(-5.34239e-10 -9.85408e-12 -7.8961e-11)
(-1.43622e-10 -6.57243e-12 -9.34287e-11)
(-4.65971e-11 8.4727e-12 -1.33553e-10)
(-1.03374e-09 -7.08113e-12 -2.6919e-11)
(3.33378e-09 2.16377e-11 -9.76598e-11)
(1.52615e-09 2.61579e-11 -1.48419e-10)
(3.49319e-10 2.94427e-11 -1.80532e-10)
)
;
    }
    procBoundary0to1
    {
        type            processor;
        value           nonuniform List<vector> 
12
(
(-6.4878e-08 -2.27464e-10 1.28152e-09)
(-3.27472e-08 -1.46527e-10 6.07978e-10)
(-1.50897e-08 -1.48238e-10 2.34244e-10)
(-3.13657e-08 -1.77912e-10 6.0348e-10)
(-1.91561e-08 -1.67062e-10 3.29835e-10)
(-1.01696e-08 -1.80639e-10 1.2241e-10)
(-1.40997e-08 -1.94334e-10 2.24117e-10)
(-9.90564e-09 -2.0689e-10 1.23563e-10)
(-5.98102e-09 -2.40955e-10 2.60861e-11)
(-6.40877e-09 -2.30638e-10 4.769e-11)
(-4.93317e-09 -2.57758e-10 8.56822e-12)
(-3.29729e-09 -3.10295e-10 -3.55264e-11)
)
;
    }
    procBoundary0to2
    {
        type            processor;
        value           nonuniform List<vector> 
44
(
(-1.82487e-10 -6.9961e-12 -3.35183e-11)
(-5.13758e-10 -6.64053e-11 -6.19123e-11)
(-1.02079e-09 -8.56087e-11 -7.38516e-11)
(-1.86648e-09 -8.96365e-11 -6.73376e-11)
(-3.12412e-09 -9.93282e-11 -4.68331e-11)
(-4.97147e-09 -1.25881e-10 -5.61058e-12)
(4.52367e-12 1.0542e-10 1.98795e-11)
(-2.37345e-12 8.81605e-11 1.11536e-11)
(-1.82487e-10 -6.9961e-12 -3.35183e-11)
(-5.12413e-11 5.32467e-11 -6.83159e-12)
(-1.82487e-10 -6.9961e-12 -3.35183e-11)
(-5.13758e-10 -6.64053e-11 -6.19123e-11)
(-8.38407e-10 -7.78197e-11 -8.0726e-11)
(-1.51013e-09 -8.81072e-11 -7.7887e-11)
(-2.47555e-09 -1.05928e-10 -6.18484e-11)
(-3.79504e-09 -1.47228e-10 -3.32506e-11)
(1.22178e-11 9.0213e-11 2.19007e-11)
(1.01877e-11 8.0101e-11 1.29433e-11)
(-2.26833e-11 4.85316e-11 -6.24132e-12)
(-1.18262e-10 5.53243e-12 -3.06525e-11)
(-8.38407e-10 -7.78197e-11 -8.0726e-11)
(-2.93096e-10 -3.03509e-11 -5.10576e-11)
(-8.38407e-10 -7.78197e-11 -8.0726e-11)
(-1.51013e-09 -8.81072e-11 -7.7887e-11)
(-1.7778e-09 -1.1686e-10 -7.18247e-11)
(-2.58757e-09 -1.81143e-10 -5.71063e-11)
(1.56924e-11 7.08141e-11 2.14358e-11)
(1.54496e-11 6.30119e-11 1.16089e-11)
(-9.96809e-12 3.89121e-11 -7.62171e-12)
(-8.64798e-11 5.74645e-12 -3.16406e-11)
(-2.23699e-10 -2.46924e-11 -5.29137e-11)
(-4.38317e-10 -5.20003e-11 -6.55344e-11)
(-1.7778e-09 -1.1686e-10 -7.18247e-11)
(-7.28592e-10 -8.22234e-11 -7.35408e-11)
(-1.7778e-09 -1.1686e-10 -7.18247e-11)
(-2.58757e-09 -1.81143e-10 -5.71063e-11)
(1.4488e-11 5.16472e-11 1.71859e-11)
(1.44669e-11 4.57081e-11 8.07022e-12)
(-4.40895e-12 2.8372e-11 -9.16812e-12)
(-6.38265e-11 3.95256e-12 -3.00577e-11)
(-1.67037e-10 -2.14489e-11 -4.94929e-11)
(-3.27414e-10 -4.7803e-11 -6.14406e-11)
(-5.29589e-10 -8.55033e-11 -6.97598e-11)
(-7.75817e-10 -1.46537e-10 -7.43111e-11)
)
;
    }
    procBoundary0to4
    {
        type            processor;
        value           nonuniform List<vector> 
36
(
(2.43808e-11 3.78585e-11 7.42994e-11)
(2.11422e-11 3.03509e-11 5.85587e-11)
(-1.62079e-11 1.63687e-11 2.40062e-11)
(-1.18055e-10 -3.5049e-12 -2.17299e-11)
(-3.04558e-10 -2.31101e-11 -5.7358e-11)
(-5.90044e-10 -4.26363e-11 -7.0165e-11)
(-1.01517e-09 -6.63347e-11 -6.69691e-11)
(-1.59672e-09 -1.04039e-10 -5.15206e-11)
(-2.31538e-09 -1.66893e-10 -3.2691e-11)
(2.83189e-11 4.19566e-11 6.46951e-11)
(2.52742e-11 3.49771e-11 5.12216e-11)
(-5.3127e-12 1.87699e-11 1.86579e-11)
(-9.69789e-11 -2.95107e-12 -2.39776e-11)
(-2.60948e-10 -2.5327e-11 -5.7593e-11)
(-5.21807e-10 -4.6279e-11 -7.11845e-11)
(-8.91312e-10 -7.22544e-11 -7.0649e-11)
(-1.37959e-09 -1.13617e-10 -5.91763e-11)
(-1.95813e-09 -1.85151e-10 -4.56932e-11)
(2.46931e-11 4.32756e-11 4.60917e-11)
(2.31414e-11 3.68322e-11 3.46756e-11)
(-2.85719e-12 2.03115e-11 8.33329e-12)
(-8.16695e-11 -2.12375e-12 -2.52926e-11)
(-2.15954e-10 -2.60231e-11 -5.33443e-11)
(-4.29717e-10 -4.96349e-11 -6.63477e-11)
(-7.12358e-10 -8.06467e-11 -6.96244e-11)
(-1.07203e-09 -1.32091e-10 -6.51661e-11)
(-1.46553e-09 -2.22068e-10 -6.07589e-11)
(1.7576e-11 4.0656e-11 2.62002e-11)
(1.73719e-11 3.56751e-11 1.7969e-11)
(-2.15731e-12 2.08842e-11 -6.55916e-13)
(-6.42602e-11 1.05631e-13 -2.493e-11)
(-1.67369e-10 -2.27582e-11 -4.71784e-11)
(-3.29045e-10 -4.88463e-11 -5.97496e-11)
(-5.28811e-10 -8.62375e-11 -6.61435e-11)
(-7.71621e-10 -1.50429e-10 -6.8386e-11)
(-1.00624e-09 -2.68631e-10 -7.52107e-11)
)
;
    }
    procBoundary0to6
    {
        type            processor;
        value           uniform (-1.00947e-09 -2.57895e-10 -8.32057e-11);
    }
    procBoundary0to7
    {
        type            processor;
        value           uniform (-2.01679e-09 -3.82803e-10 -7.67774e-11);
    }
}


// ************************************************************************* //
