/*--------------------------------*- C++ -*----------------------------------*\
| =========                 |                                                 |
| \\      /  F ield         | OpenFOAM: The Open Source CFD Toolbox           |
|  \\    /   O peration     | Version:  4.x                                   |
|   \\  /    A nd           | Web:      www.OpenFOAM.org                      |
|    \\/     M anipulation  |                                                 |
\*---------------------------------------------------------------------------*/
FoamFile
{
    version     2.0;
    format      ascii;
    class       volScalarField;
    location    "51";
    object      magGField;
}
// * * * * * * * * * * * * * * * * * * * * * * * * * * * * * * * * * * * * * //

dimensions      [1 -2 -1 0 0 0 0];

internalField   nonuniform List<scalar> 
132
(
100.343
49.0262
110.684
65.4517
120.035
77.5705
127.707
86.7331
136.053
100.731
46.4558
108.118
58.9185
115.658
68.5567
121.839
75.889
127.757
101.496
44.4865
106.433
54.4283
111.338
61.7051
115.765
65.8626
117.605
100.922
45.0023
106.813
99.327
42.2451
102.863
48.6535
106.492
53.5873
109.898
56.739
112.882
98.9793
37.5059
99.9659
38.177
100.223
36.7056
100.892
33.9754
101.989
98.2979
33.8188
97.7466
30.4109
96.1025
24.519
94.8039
16.5497
94.9239
97.0403
35.1678
97.4273
32.4731
96.1844
97.4028
41.0273
99.8815
45.6576
103.017
49.8215
106.241
52.4031
109.883
96.8107
35.8364
96.7265
34.0598
96.4527
31.5174
97.085
28.6628
99.078
95.7308
31.5864
93.4463
23.0172
90.9697
15.7439
90.239
11.2338
90.7685
95.052
30.6014
92.4619
22.0232
90.9546
16.5903
91.4125
97.2254
40.4089
98.953
43.5297
100.343
44.5473
101.271
43.4703
101.136
96.1923
32.9037
93.9704
26.6325
92.2768
20.1566
90.8096
12.5921
90.4223
95.378
28.7521
90.3764
15.354
86.5286
4.15496
83.8728
3.27014e-05
81.1581
95.1231
30.5302
91.0646
20.2128
89.6998
13.8022
89.1518
9.85427
88.9189
)
;

boundaryField
{
    inlet
    {
        type            calculated;
        value           uniform 67;
    }
    outlet
    {
        type            calculated;
        value           nonuniform 0();
    }
    wall
    {
        type            calculated;
        value           uniform 0;
    }
    procBoundary0to1
    {
        type            processor;
        value           nonuniform List<scalar> 
12
(
93.1784
80.5513
66.2485
57.9487
30.8378
8.13654
53.2851
28.2243
6.36161
37.2944
5.72141
3.20062e-05
)
;
    }
    procBoundary0to2
    {
        type            processor;
        value           nonuniform List<scalar> 
44
(
55.4689
111.861
64.1225
117.341
69.8085
122.757
99.2916
41.83
55.4689
103.704
55.4689
111.861
27.3839
96.0376
23.8726
98.275
97.8736
34.1709
96.8434
28.9827
27.3839
95.183
27.3839
96.0376
14.534
92.5577
95.673
31.1138
92.3437
20.6366
89.4299
10.3626
14.534
87.1721
14.534
92.5577
94.931
29.08
90.5633
18.9649
88.4524
11.1352
87.523
4.32853
)
;
    }
    procBoundary0to4
    {
        type            processor;
        value           nonuniform List<scalar> 
36
(
96.208
41.0032
97.5755
43.7437
99.3936
45.6124
101.002
46.1096
102.838
94.5505
33.6145
92.4228
26.6
91.1106
21.82
91.3529
17.2766
91.783
94.2324
29.9004
89.7847
19.4162
87.8773
11.9889
87.55
4.2318
87.6421
94.5149
30.0618
89.4057
18.5659
86.7312
8.5584
85.1701
1.3433
84.7902
)
;
    }
    procBoundary0to6
    {
        type            processor;
        value           uniform 87.5146;
    }
    procBoundary0to7
    {
        type            processor;
        value           uniform 5.08026;
    }
}


// ************************************************************************* //
