/*--------------------------------*- C++ -*----------------------------------*\
| =========                 |                                                 |
| \\      /  F ield         | OpenFOAM: The Open Source CFD Toolbox           |
|  \\    /   O peration     | Version:  4.x                                   |
|   \\  /    A nd           | Web:      www.OpenFOAM.org                      |
|    \\/     M anipulation  |                                                 |
\*---------------------------------------------------------------------------*/
FoamFile
{
    version     2.0;
    format      ascii;
    class       volScalarField;
    location    "51";
    object      particleRelTemp;
}
// * * * * * * * * * * * * * * * * * * * * * * * * * * * * * * * * * * * * * //

dimensions      [0 0 0 0 0 0 0];

internalField   nonuniform List<scalar> 
132
(
-1.64484e-12
-1.61128e-12
-1.57705e-12
-1.50349e-12
-1.4613e-12
-1.38871e-12
-1.30176e-12
-1.1983e-12
-1.12087e-12
-1.64189e-12
-1.5813e-12
-1.52467e-12
-1.48058e-12
-1.38913e-12
-1.30256e-12
-1.13076e-12
-1.0319e-12
-8.44651e-13
-1.61907e-12
-1.57048e-12
-1.5109e-12
-1.43136e-12
-1.34441e-12
-1.22483e-12
-1.06049e-12
-9.00947e-13
-7.63765e-13
-1.65368e-12
-1.57793e-12
-1.54896e-12
-1.65216e-12
-1.58875e-12
-1.52892e-12
-1.46311e-12
-1.38033e-12
-1.26896e-12
-1.20483e-12
-1.04765e-12
-8.9981e-13
-1.64349e-12
-1.57738e-12
-1.48378e-12
-1.40778e-12
-1.32382e-12
-1.21119e-12
-1.04466e-12
-8.67557e-13
-6.81153e-13
-1.64214e-12
-1.56054e-12
-1.47064e-12
-1.38306e-12
-1.25944e-12
-1.16057e-12
-9.46127e-13
-7.53323e-13
-5.25191e-13
-1.63507e-12
-1.55898e-12
-1.469e-12
-1.35009e-12
-1.2535e-12
-1.63621e-12
-1.58033e-12
-1.49814e-12
-1.40753e-12
-1.30891e-12
-1.16672e-12
-1.04562e-12
-8.99305e-13
-7.22964e-13
-1.63044e-12
-1.55343e-12
-1.46504e-12
-1.37241e-12
-1.24041e-12
-1.09118e-12
-9.34506e-13
-7.43301e-13
-5.20602e-13
-1.63099e-12
-1.5541e-12
-1.44639e-12
-1.32555e-12
-1.19119e-12
-9.87812e-13
-7.91092e-13
-5.32265e-13
-3.93104e-13
-1.6277e-12
-1.53591e-12
-1.43612e-12
-1.32908e-12
-1.17253e-12
-1.02301e-12
-7.19848e-13
-1.63957e-12
-1.56058e-12
-1.49414e-12
-1.39266e-12
-1.28424e-12
-1.14415e-12
-1.0316e-12
-8.08861e-13
-6.55047e-13
-1.63288e-12
-1.55633e-12
-1.46942e-12
-1.34378e-12
-1.2063e-12
-1.03426e-12
-8.4103e-13
-6.6591e-13
-4.27505e-13
-1.59465e-12
-1.53342e-12
-1.45102e-12
-1.28382e-12
-1.14984e-12
-9.1699e-13
-7.15048e-13
-4.83464e-13
-2.8468e-13
-1.62315e-12
-1.54526e-12
-1.43713e-12
-1.28319e-12
-1.14306e-12
-9.3139e-13
-6.3951e-13
-4.65021e-13
-2.00678e-13
)
;

boundaryField
{
    inlet
    {
        type            calculated;
        value           nonuniform List<scalar> 
16
(
-1.64484e-12
-1.64189e-12
-1.61907e-12
-1.65368e-12
-1.65216e-12
-1.64349e-12
-1.64214e-12
-1.63507e-12
-1.63621e-12
-1.63044e-12
-1.63099e-12
-1.6277e-12
-1.63957e-12
-1.63288e-12
-1.59465e-12
-1.62315e-12
)
;
    }
    outlet
    {
        type            calculated;
        value           nonuniform 0();
    }
    wall
    {
        type            calculated;
        value           nonuniform List<scalar> 
66
(
-1.64484e-12
-1.64189e-12
-1.61907e-12
-1.65368e-12
-1.61128e-12
-1.5813e-12
-1.57048e-12
-1.57793e-12
-1.57705e-12
-1.52467e-12
-1.5109e-12
-1.54896e-12
-1.50349e-12
-1.48058e-12
-1.43136e-12
-1.4613e-12
-1.38913e-12
-1.34441e-12
-1.38871e-12
-1.30256e-12
-1.22483e-12
-1.30176e-12
-1.13076e-12
-1.06049e-12
-1.1983e-12
-1.0319e-12
-9.00947e-13
-1.12087e-12
-8.44651e-13
-7.63765e-13
-1.64484e-12
-1.65216e-12
-1.63621e-12
-1.63957e-12
-1.61128e-12
-1.58875e-12
-1.58033e-12
-1.56058e-12
-1.57705e-12
-1.52892e-12
-1.49814e-12
-1.49414e-12
-1.50349e-12
-1.46311e-12
-1.40753e-12
-1.39266e-12
-1.4613e-12
-1.38033e-12
-1.30891e-12
-1.28424e-12
-1.38871e-12
-1.26896e-12
-1.16672e-12
-1.14415e-12
-1.30176e-12
-1.20483e-12
-1.04562e-12
-1.0316e-12
-1.1983e-12
-1.04765e-12
-8.99305e-13
-8.08861e-13
-1.12087e-12
-8.9981e-13
-7.22964e-13
-6.55047e-13
)
;
    }
    procBoundary0to1
    {
        type            processor;
        value           nonuniform List<scalar> 
12
(
-9.25621e-13
-6.50752e-13
-4.27968e-13
-7.2288e-13
-5.75508e-13
-2.04257e-13
-5.03464e-13
-2.37858e-13
-1.16803e-13
-4.08641e-13
-1.54361e-13
1.12003e-14
)
;
    }
    procBoundary0to2
    {
        type            processor;
        value           nonuniform List<scalar> 
44
(
-1.44445e-12
-1.35927e-12
-1.1767e-12
-1.04036e-12
-8.41956e-13
-7.85492e-13
-1.64168e-12
-1.58736e-12
-1.44445e-12
-1.53317e-12
-1.44445e-12
-1.35927e-12
-1.1079e-12
-9.11811e-13
-7.24143e-13
-5.33865e-13
-1.65452e-12
-1.58627e-12
-1.49671e-12
-1.39894e-12
-1.1079e-12
-1.2946e-12
-1.1079e-12
-9.11811e-13
-5.09064e-13
-2.97102e-13
-1.63785e-12
-1.5706e-12
-1.4661e-12
-1.3463e-12
-1.20706e-12
-1.01973e-12
-5.09064e-13
-8.37409e-13
-5.09064e-13
-2.97102e-13
-1.62917e-12
-1.5325e-12
-1.43464e-12
-1.32374e-12
-1.17325e-12
-9.73328e-13
-7.61912e-13
-4.29189e-13
)
;
    }
    procBoundary0to4
    {
        type            processor;
        value           nonuniform List<scalar> 
36
(
-1.63002e-12
-1.57772e-12
-1.4978e-12
-1.4042e-12
-1.32129e-12
-1.21211e-12
-1.02386e-12
-8.25451e-13
-6.30036e-13
-1.62429e-12
-1.55726e-12
-1.46142e-12
-1.35944e-12
-1.22655e-12
-1.08226e-12
-9.02463e-13
-6.92353e-13
-4.61569e-13
-1.61907e-12
-1.53907e-12
-1.425e-12
-1.31418e-12
-1.15897e-12
-9.93539e-13
-7.70586e-13
-5.45865e-13
-2.88849e-13
-1.62467e-12
-1.54526e-12
-1.42812e-12
-1.30904e-12
-1.12032e-12
-9.41369e-13
-6.96395e-13
-4.61063e-13
-2.04089e-13
)
;
    }
    procBoundary0to6
    {
        type            processor;
        value           uniform -2.60932e-13;
    }
    procBoundary0to7
    {
        type            processor;
        value           uniform 1.73815e-13;
    }
}


// ************************************************************************* //
