/*--------------------------------*- C++ -*----------------------------------*\
| =========                 |                                                 |
| \\      /  F ield         | OpenFOAM: The Open Source CFD Toolbox           |
|  \\    /   O peration     | Version:  4.x                                   |
|   \\  /    A nd           | Web:      www.OpenFOAM.org                      |
|    \\/     M anipulation  |                                                 |
\*---------------------------------------------------------------------------*/
FoamFile
{
    version     2.0;
    format      ascii;
    class       volVectorField;
    location    "51";
    object      UsPrev;
}
// * * * * * * * * * * * * * * * * * * * * * * * * * * * * * * * * * * * * * //

dimensions      [0 1 -1 0 0 0 0];

internalField   nonuniform List<vector> 
132
(
(4.24554e-10 -2.14973e-10 -1.93522e-10)
(5.08095e-10 -4.7369e-10 -4.69179e-10)
(-3.86469e-09 -4.26693e-10 -1.24717e-09)
(-1.51986e-09 9.01463e-10 1.05574e-09)
(1.24025e-09 6.45912e-10 6.37303e-10)
(9.94694e-10 2.85102e-10 4.1455e-10)
(2.89187e-10 3.78021e-10 7.22425e-10)
(-1.77228e-10 4.74455e-10 3.17641e-13)
(-6.19316e-11 1.45402e-10 3.63276e-10)
(1.70421e-10 -3.65168e-10 -1.17896e-10)
(4.85472e-11 -8.57755e-10 -2.48734e-10)
(-1.66881e-09 -1.03864e-09 -8.38952e-11)
(-8.61269e-10 1.15674e-09 4.49756e-10)
(1.23721e-10 8.27204e-10 5.45346e-10)
(9.00714e-10 4.47355e-10 4.78046e-10)
(1.48517e-09 2.01322e-10 6.42661e-10)
(2.13311e-09 7.69628e-11 1.44506e-09)
(2.94943e-09 -2.12015e-09 3.69193e-09)
(6.76199e-11 -4.77865e-10 -4.98893e-11)
(-5.39998e-11 -5.54654e-10 -4.19554e-11)
(-4.24375e-10 -6.02075e-10 4.6621e-11)
(-4.03976e-11 3.88501e-10 1.67449e-10)
(1.5953e-10 6.87368e-10 3.75004e-10)
(9.60298e-10 2.64761e-10 3.67452e-10)
(1.41632e-09 9.37086e-11 6.42803e-10)
(1.94646e-09 -8.06428e-10 1.38733e-09)
(2.09026e-09 -1.77701e-09 2.05589e-09)
(-7.08869e-11 -3.7155e-10 -5.88328e-11)
(2.96636e-11 -3.1211e-10 1.99627e-11)
(6.53061e-11 -2.53092e-10 3.74495e-11)
(1.65739e-10 -1.41084e-10 -4.80128e-10)
(-1.10742e-10 -2.99601e-10 -8.9804e-10)
(-1.16854e-09 -1.85061e-10 -1.16207e-09)
(-1.52963e-09 4.23934e-10 1.4917e-09)
(1.79232e-11 3.00291e-10 9.34279e-10)
(3.74584e-10 1.88178e-10 5.40788e-10)
(2.19458e-10 5.73938e-11 6.91559e-10)
(3.24369e-10 2.58738e-10 -4.80431e-10)
(-1.57498e-09 -1.28266e-09 3.1021e-09)
(2.14809e-11 -3.01304e-10 -2.8714e-10)
(-2.48681e-10 -5.79676e-10 -5.23088e-10)
(-1.17392e-09 -4.59698e-10 -4.43315e-10)
(-9.90218e-10 4.01908e-10 6.0908e-10)
(6.14094e-11 6.2297e-10 7.40091e-10)
(5.32094e-10 3.24384e-10 5.96559e-10)
(4.3988e-10 3.18926e-10 7.02907e-10)
(3.7438e-10 1.95757e-10 1.35286e-09)
(-5.84885e-10 5.86283e-10 4.5211e-09)
(1.45136e-12 -2.55311e-10 -1.67979e-10)
(-1.61385e-10 -4.66601e-10 -1.79737e-10)
(-3.79661e-10 -2.32882e-10 -4.84564e-11)
(-2.71392e-10 1.86759e-10 1.7966e-10)
(1.68215e-10 3.70653e-10 3.69155e-10)
(6.3396e-10 2.91895e-10 4.29335e-10)
(8.64393e-10 1.25103e-10 7.20035e-10)
(7.45924e-10 -3.22226e-11 1.49401e-09)
(1.08363e-09 -8.57541e-11 2.70777e-09)
(-2.17091e-11 -2.46839e-10 -9.51587e-11)
(-5.48662e-11 -2.85475e-10 -4.0698e-11)
(-1.85442e-10 -1.4845e-10 6.58915e-11)
(5.66719e-11 4.20555e-11 1.48607e-10)
(1.85429e-10 1.1127e-10 2.78579e-10)
(-4.98222e-11 -5.6087e-11 -3.55877e-10)
(-1.86568e-10 -6.27412e-11 -4.6975e-10)
(-5.6995e-10 -2.60038e-11 -4.13384e-10)
(-3.75596e-10 3.9287e-11 4.14024e-10)
(-1.79381e-10 9.3964e-11 5.57493e-10)
(5.58041e-11 1.3653e-10 5.48708e-10)
(-8.54107e-11 4.60914e-11 7.25384e-10)
(7.04131e-12 9.71764e-11 5.00175e-10)
(-1.63246e-09 -5.79549e-10 4.03455e-09)
(-4.86992e-11 -1.7956e-10 -2.76589e-10)
(-2.35438e-10 -2.11579e-10 -3.61589e-10)
(-5.13584e-10 -1.26607e-10 -2.18666e-10)
(-3.86938e-10 8.77555e-11 2.97722e-10)
(-2.06987e-10 2.07132e-10 5.65511e-10)
(9.55138e-11 1.766e-10 5.82365e-10)
(1.00493e-10 1.69996e-10 7.52137e-10)
(-1.88107e-10 1.64634e-10 1.22798e-09)
(-2.16537e-09 2.05369e-09 4.5538e-09)
(-2.27663e-11 -1.52346e-10 -1.39228e-10)
(-1.17577e-10 -1.91537e-10 -1.61838e-10)
(-2.52605e-10 -1.26012e-10 -6.42273e-11)
(-1.4856e-10 8.39756e-11 1.85417e-10)
(8.97065e-11 2.25528e-10 3.56829e-10)
(3.51235e-10 2.7204e-10 4.88672e-10)
(1.88092e-10 2.62486e-10 6.51771e-10)
(-1.36846e-10 7.21501e-10 1.4454e-09)
(-6.17548e-10 2.12764e-09 3.03328e-09)
(-3.09792e-11 -1.5961e-10 -4.61085e-11)
(-3.59595e-11 -2.21753e-10 1.43953e-11)
(-1.14749e-10 -1.37285e-10 1.03768e-10)
(3.09327e-11 -4.44712e-11 1.95558e-10)
(1.95058e-10 4.14721e-11 3.35174e-10)
(4.1397e-10 1.43577e-10 3.94259e-10)
(5.93024e-10 4.2683e-10 6.20712e-10)
(-4.26807e-11 -1.77171e-11 -2.22628e-10)
(-1.33758e-10 9.27734e-12 -2.07421e-10)
(-2.92139e-10 -7.69026e-12 -1.45515e-10)
(-1.17787e-10 3.61455e-11 1.4428e-10)
(-1.1935e-10 6.04883e-11 3.08123e-10)
(-8.45652e-11 8.69434e-11 4.10887e-10)
(-9.60102e-11 1.46981e-10 5.30985e-10)
(-7.70451e-11 5.3384e-11 1.10567e-09)
(-3.44105e-10 -1.58564e-10 2.77001e-09)
(-5.33705e-11 -7.87818e-11 -1.90094e-10)
(-1.49448e-10 -5.20295e-11 -1.87427e-10)
(-2.61316e-10 -3.35667e-11 -5.17735e-11)
(-1.51563e-10 5.39651e-11 1.8774e-10)
(-6.84557e-11 1.55517e-10 3.2958e-10)
(5.14316e-11 1.70701e-10 4.47138e-10)
(2.43917e-11 2.7589e-10 6.4172e-10)
(-1.96193e-10 2.73547e-10 1.04216e-09)
(-6.71506e-10 6.90995e-10 1.84772e-09)
(4.39278e-12 -7.28436e-11 -1.26697e-10)
(-2.25198e-11 -5.72252e-11 -7.49084e-11)
(-5.55411e-11 -1.88955e-11 -1.26711e-11)
(8.73803e-11 1.25605e-10 1.4255e-10)
(2.20516e-10 2.43904e-10 2.91598e-10)
(4.69595e-10 2.54721e-10 4.70003e-10)
(4.317e-10 4.4271e-10 6.53328e-10)
(1.99339e-10 6.89472e-10 1.22299e-09)
(-1.05337e-10 1.12628e-09 2.01732e-09)
(1.19084e-12 -7.56697e-11 -6.71648e-12)
(7.05244e-11 -1.58537e-10 2.3332e-11)
(1.28002e-10 -8.57282e-11 4.36267e-11)
(5.00281e-10 4.05028e-11 2.08795e-10)
(6.62652e-10 2.03519e-10 4.18914e-10)
(7.84671e-10 1.94742e-10 4.41181e-10)
(8.55666e-10 5.38374e-10 5.87713e-10)
(7.45333e-10 6.35488e-10 8.79015e-10)
(1.1825e-09 4.1421e-10 9.93923e-10)
)
;

boundaryField
{
    inlet
    {
        type            calculated;
        value           uniform (0 0 0);
    }
    outlet
    {
        type            calculated;
        value           nonuniform 0();
    }
    wall
    {
        type            calculated;
        value           uniform (0 0 0);
    }
    procBoundary0to1
    {
        type            processor;
        value           uniform (0 0 0);
    }
    procBoundary0to2
    {
        type            processor;
        value           uniform (0 0 0);
    }
    procBoundary0to4
    {
        type            processor;
        value           uniform (0 0 0);
    }
    procBoundary0to6
    {
        type            processor;
        value           uniform (0 0 0);
    }
    procBoundary0to7
    {
        type            processor;
        value           uniform (0 0 0);
    }
}


// ************************************************************************* //
