/*--------------------------------*- C++ -*----------------------------------*\
| =========                 |                                                 |
| \\      /  F ield         | OpenFOAM: The Open Source CFD Toolbox           |
|  \\    /   O peration     | Version:  4.x                                   |
|   \\  /    A nd           | Web:      www.OpenFOAM.org                      |
|    \\/     M anipulation  |                                                 |
\*---------------------------------------------------------------------------*/
FoamFile
{
    version     2.0;
    format      ascii;
    class       volVectorField;
    location    "20";
    object      impParticleForces;
}
// * * * * * * * * * * * * * * * * * * * * * * * * * * * * * * * * * * * * * //

dimensions      [1 1 -2 0 0 0 0];

internalField   nonuniform List<vector> 
114
(
(0.00240061 -6.01413e-06 -9.37628e-05)
(0.00243769 -4.95243e-06 -8.8251e-05)
(0.00243878 -3.45086e-06 -7.96492e-05)
(0.00247246 -1.50542e-06 -7.1088e-05)
(0.00244566 1.45537e-06 -5.86141e-05)
(0.00245447 5.09901e-06 -4.6461e-05)
(0.00230247 1.69788e-06 -9.67068e-05)
(0.00233239 2.3384e-06 -9.81167e-05)
(0.00237686 3.10147e-06 -9.72642e-05)
(0.00239767 3.50395e-06 -9.28757e-05)
(0.0024427 3.98132e-06 -8.78294e-05)
(0.00243941 4.02165e-06 -7.92168e-05)
(0.00247496 4.64757e-06 -7.08242e-05)
(0.00245896 5.63682e-06 -5.92179e-05)
(0.00245695 7.56003e-06 -4.72786e-05)
(0.00227582 9.10043e-06 -9.4175e-05)
(0.00231096 9.90582e-06 -9.5846e-05)
(0.00235474 1.05918e-05 -9.51583e-05)
(0.00237745 1.05364e-05 -9.08102e-05)
(0.00242263 1.06843e-05 -8.57651e-05)
(0.0024227 9.86623e-06 -7.75825e-05)
(0.00245905 9.8191e-06 -6.94437e-05)
(0.00245272 9.56354e-06 -5.88395e-05)
(0.0024658 1.05727e-05 -4.82465e-05)
(0.00223804 1.2004e-05 -9.11793e-05)
(0.00226135 1.25934e-05 -9.19138e-05)
(0.00231446 1.34362e-05 -9.16225e-05)
(0.00232898 1.30809e-05 -8.73031e-05)
(0.0023623 1.28772e-05 -8.21583e-05)
(0.00237063 1.20743e-05 -7.46422e-05)
(0.00238735 1.16898e-05 -6.6566e-05)
(0.00240496 1.15128e-05 -5.73247e-05)
(0.00241816 1.21198e-05 -4.72762e-05)
(0.00250153 -4.02225e-06 -8.17216e-05)
(0.00253406 -2.19167e-06 -7.32177e-05)
(0.00247877 6.65324e-07 -5.88466e-05)
(0.00249653 3.7683e-06 -4.66873e-05)
(0.00232953 2.45469e-06 -9.67743e-05)
(0.00237996 3.22112e-06 -9.97413e-05)
(0.00244486 4.23815e-06 -0.000100962)
(0.00245849 4.63565e-06 -9.55688e-05)
(0.00249375 5.10201e-06 -8.99815e-05)
(0.00248021 4.71498e-06 -8.02876e-05)
(0.00252314 5.27076e-06 -7.25197e-05)
(0.00248555 5.97544e-06 -5.97322e-05)
(0.00247995 7.5449e-06 -4.72379e-05)
(0.00231289 1.05732e-05 -9.51026e-05)
(0.00236902 1.19748e-05 -9.83691e-05)
(0.0024394 1.34291e-05 -9.98621e-05)
(0.00244464 1.27593e-05 -9.38882e-05)
(0.00247309 1.25824e-05 -8.7949e-05)
(0.00247086 1.15459e-05 -7.92569e-05)
(0.00250015 1.136e-05 -7.11632e-05)
(0.00248094 1.07789e-05 -6.00108e-05)
(0.00248821 1.14609e-05 -4.88092e-05)
(0.00226391 1.33445e-05 -9.11062e-05)
(0.00230408 1.44486e-05 -9.29782e-05)
(0.00237518 1.59681e-05 -9.44765e-05)
(0.00237356 1.50432e-05 -8.88095e-05)
(0.002397 1.45713e-05 -8.31471e-05)
(0.00240907 1.3713e-05 -7.57765e-05)
(0.00242862 1.33696e-05 -6.7713e-05)
(0.00242487 1.28221e-05 -5.80295e-05)
(0.00242424 1.31781e-05 -4.75165e-05)
(0.00243857 -3.20079e-07 -5.26522e-05)
(0.00244036 2.1506e-06 -4.08027e-05)
(0.00235395 3.42905e-06 -9.14167e-05)
(0.00238731 4.08718e-06 -9.29365e-05)
(0.00244322 5.07173e-06 -9.3433e-05)
(0.00244952 5.22093e-06 -8.83225e-05)
(0.00247119 5.41139e-06 -8.23563e-05)
(0.00245981 5.15397e-06 -7.36016e-05)
(0.00248428 5.67403e-06 -6.53699e-05)
(0.00244477 6.17529e-06 -5.36745e-05)
(0.00243991 7.44232e-06 -4.20334e-05)
(0.00232252 1.16246e-05 -8.88198e-05)
(0.00236979 1.30042e-05 -9.12762e-05)
(0.00244197 1.48221e-05 -9.28998e-05)
(0.00244982 1.42003e-05 -8.82243e-05)
(0.00246659 1.37633e-05 -8.18551e-05)
(0.00244692 1.23083e-05 -7.30216e-05)
(0.00248132 1.25239e-05 -6.55547e-05)
(0.00245064 1.17374e-05 -5.49358e-05)
(0.00246368 1.23491e-05 -4.45462e-05)
(0.00228159 1.47141e-05 -8.59337e-05)
(0.00232255 1.60975e-05 -8.78691e-05)
(0.00237895 1.73913e-05 -8.83539e-05)
(0.00238816 1.6709e-05 -8.42594e-05)
(0.00238902 1.5602e-05 -7.75821e-05)
(0.00240271 1.49109e-05 -7.09193e-05)
(0.00243523 1.50247e-05 -6.38674e-05)
(0.00240583 1.38514e-05 -5.39982e-05)
(0.00241903 1.42318e-05 -4.45001e-05)
(0.00235636 4.05227e-06 -7.98827e-05)
(0.00240768 4.96167e-06 -8.17128e-05)
(0.00245841 6.00796e-06 -8.18619e-05)
(0.00244124 5.57989e-06 -7.65282e-05)
(0.00245768 5.66226e-06 -7.12133e-05)
(0.00242909 5.25098e-06 -6.30859e-05)
(0.00244347 5.70722e-06 -5.53379e-05)
(0.00240297 6.081e-06 -4.523e-05)
(0.00232836 1.25758e-05 -7.80457e-05)
(0.00237667 1.41016e-05 -8.00085e-05)
(0.00244266 1.58175e-05 -8.08073e-05)
(0.00242641 1.42855e-05 -7.5957e-05)
(0.00245422 1.41496e-05 -7.13292e-05)
(0.00242671 1.26591e-05 -6.36416e-05)
(0.00244815 1.27314e-05 -5.66315e-05)
(0.0022752 1.53858e-05 -7.5434e-05)
(0.00231712 1.68068e-05 -7.70915e-05)
(0.00237961 1.83572e-05 -7.78819e-05)
(0.00237945 1.72708e-05 -7.41026e-05)
(0.00240286 1.68228e-05 -6.94744e-05)
(0.00238611 1.54011e-05 -6.2496e-05)
)
;

boundaryField
{
    inlet
    {
        type            zeroGradient;
    }
    outlet
    {
        type            zeroGradient;
    }
    wall
    {
        type            zeroGradient;
    }
    procBoundary2to0
    {
        type            processor;
        value           nonuniform List<vector> 
44
(
(0.00239205 -1.51424e-05 -9.30013e-05)
(0.00244242 -1.35706e-05 -8.80682e-05)
(0.00244219 -1.05725e-05 -7.93501e-05)
(0.00245994 -7.10254e-06 -7.01528e-05)
(0.00245755 -2.1056e-06 -5.83303e-05)
(0.00249024 4.02069e-06 -4.6714e-05)
(0.00229548 -7.79229e-06 -9.723e-05)
(0.00231944 -7.56387e-06 -9.79871e-05)
(0.00235787 -6.96291e-06 -9.69198e-05)
(0.00235787 -6.96291e-06 -9.69198e-05)
(0.00244552 -6.3731e-06 -9.52129e-05)
(0.00250955 -5.21509e-06 -9.16029e-05)
(0.00249148 -1.22436e-05 -8.06438e-05)
(0.00252624 -9.27229e-06 -7.20612e-05)
(0.00248021 -4.24393e-06 -5.84368e-05)
(0.0024897 9.57887e-07 -4.58105e-05)
(0.00235186 -8.06706e-06 -9.95033e-05)
(0.00237978 -7.92312e-06 -0.000100601)
(0.00243459 -7.5286e-06 -0.000101229)
(0.00244552 -6.3731e-06 -9.52129e-05)
(0.00250955 -5.21509e-06 -9.16029e-05)
(0.00250955 -5.21509e-06 -9.16029e-05)
(0.00247485 -4.16183e-06 -7.43066e-05)
(0.0024889 -2.58918e-06 -6.50969e-05)
(0.00243925 -6.39564e-06 -5.23847e-05)
(0.00243907 -2.51947e-06 -4.04774e-05)
(0.00236572 -7.97351e-06 -9.28744e-05)
(0.00240273 -7.97534e-06 -9.4899e-05)
(0.00246142 -7.59449e-06 -9.53705e-05)
(0.00246237 -6.52863e-06 -8.95066e-05)
(0.00249429 -5.50384e-06 -8.38223e-05)
(0.00247485 -4.16183e-06 -7.43066e-05)
(0.0024889 -2.58918e-06 -6.50969e-05)
(0.0024889 -2.58918e-06 -6.50969e-05)
(0.00239199 -1.36108e-06 -4.41429e-05)
(0.00238053 4.74911e-07 -3.3404e-05)
(0.00235095 -8.07566e-06 -7.98906e-05)
(0.00239833 -8.07786e-06 -8.17087e-05)
(0.00246324 -7.88779e-06 -8.20884e-05)
(0.00245683 -6.76786e-06 -7.72529e-05)
(0.00245632 -5.82512e-06 -7.08426e-05)
(0.00244551 -4.55404e-06 -6.33638e-05)
(0.00245037 -3.18198e-06 -5.49467e-05)
(0.00239199 -1.36108e-06 -4.41429e-05)
)
;
    }
    procBoundary2to3
    {
        type            processor;
        value           nonuniform List<vector> 
12
(
(0.00249452 9.23938e-06 -3.40942e-05)
(0.00248989 9.67615e-06 -3.50673e-05)
(0.00247829 1.19672e-05 -3.66516e-05)
(0.00240901 1.31855e-05 -3.61085e-05)
(0.00248797 7.38581e-06 -3.2732e-05)
(0.00249252 9.48238e-06 -3.45792e-05)
(0.002517 1.26617e-05 -3.76512e-05)
(0.00244748 1.42504e-05 -3.74517e-05)
(0.00243387 4.84903e-06 -2.78862e-05)
(0.00244098 8.92253e-06 -3.01362e-05)
(0.00244666 1.28331e-05 -3.29827e-05)
(0.00241747 1.48205e-05 -3.45008e-05)
)
;
    }
    procBoundary2to6
    {
        type            processor;
        value           nonuniform List<vector> 
32
(
(0.00241134 7.27378e-06 -3.49575e-05)
(0.00240861 1.18021e-05 -4.71474e-05)
(0.00242473 1.23182e-05 -3.78616e-05)
(0.00239087 1.48391e-05 -5.5279e-05)
(0.00237479 1.40528e-05 -4.71989e-05)
(0.00238161 1.41606e-05 -3.86838e-05)
(0.00237575 4.79431e-06 -6.61418e-05)
(0.00240297 5.06461e-06 -6.61656e-05)
(0.00242557 5.53084e-06 -6.4863e-05)
(0.00242298 5.19781e-06 -6.16189e-05)
(0.0024468 5.3071e-06 -5.77632e-05)
(0.0024057 4.81321e-06 -5.11028e-05)
(0.00241986 5.11432e-06 -4.45928e-05)
(0.00241134 7.27378e-06 -3.49575e-05)
(0.00240861 1.18021e-05 -4.71474e-05)
(0.00237381 5.15464e-06 -3.63995e-05)
(0.0023402 1.38793e-05 -6.49222e-05)
(0.00237824 1.49081e-05 -6.54251e-05)
(0.0024155 1.56743e-05 -6.46038e-05)
(0.00241923 1.45689e-05 -6.1819e-05)
(0.00243782 1.4105e-05 -5.80663e-05)
(0.00241207 1.27201e-05 -5.23163e-05)
(0.00240861 1.18021e-05 -4.71474e-05)
(0.00239087 1.48391e-05 -5.5279e-05)
(0.00242286 1.24808e-05 -4.60109e-05)
(0.00228383 1.63809e-05 -6.36032e-05)
(0.00231842 1.75546e-05 -6.42723e-05)
(0.00234665 1.77844e-05 -6.3451e-05)
(0.00235863 1.70293e-05 -6.11005e-05)
(0.00239531 1.69321e-05 -5.76824e-05)
(0.00239087 1.48391e-05 -5.5279e-05)
(0.00238738 1.58726e-05 -5.2742e-05)
)
;
    }
}


// ************************************************************************* //
