/*--------------------------------*- C++ -*----------------------------------*\
| =========                 |                                                 |
| \\      /  F ield         | OpenFOAM: The Open Source CFD Toolbox           |
|  \\    /   O peration     | Version:  4.x                                   |
|   \\  /    A nd           | Web:      www.OpenFOAM.org                      |
|    \\/     M anipulation  |                                                 |
\*---------------------------------------------------------------------------*/
FoamFile
{
    version     2.0;
    format      ascii;
    class       volScalarField;
    location    "20";
    object      KslPrev;
}
// * * * * * * * * * * * * * * * * * * * * * * * * * * * * * * * * * * * * * //

dimensions      [1 -3 -1 0 0 0 0];

internalField   nonuniform List<scalar> 
114
(
6068.98
3224.64
5354.73
3106.77
4854.93
2943.13
3489.31
7519.97
3400.79
6476.24
3323.32
5834.77
3211.82
5338.96
3053.25
3430.36
7147.39
3300.91
5935.22
3203.76
5298.64
3093.96
4893.62
2971.94
3370.21
6462.71
3157.15
5157.27
2971.88
4467.08
2803.55
4044.6
2686.36
11477.2
3825.43
13458.2
3776.06
3538.27
8852.44
3672.75
9815.83
3749.05
10865.1
3757.03
12312.4
3662.2
3500.53
8487.66
3618.68
8854.48
3641.89
9162.73
3640.6
9826.51
3603.06
3418.08
7141.72
3368.34
6271.35
3234.09
5692.96
3132.04
5301.8
2999.28
74108.7
3965.77
3584.78
9614.48
3799.41
12622.4
3904.82
17376.8
3948.04
28264.9
3919.01
3522.97
9228.26
3735.98
11547.2
3835.18
14761.7
3890.58
22497.7
3890.83
3443.39
7685.97
3464.8
7257.96
3389.08
6814.99
3371.81
6647.54
3283.15
3601.98
9846.02
3827.32
12554.2
3858.27
15348.8
3820.27
19214.2
3552.96
9143.28
3761.85
10878.8
3809.6
12662.2
3782.38
3437.58
7486.58
3466.48
7157.43
3407.32
6816.25
)
;

boundaryField
{
    inlet
    {
        type            zeroGradient;
    }
    outlet
    {
        type            zeroGradient;
    }
    wall
    {
        type            zeroGradient;
    }
    procBoundary2to0
    {
        type            processor;
        value           uniform 0;
    }
    procBoundary2to3
    {
        type            processor;
        value           uniform 0;
    }
    procBoundary2to6
    {
        type            processor;
        value           uniform 0;
    }
}


// ************************************************************************* //
