/*--------------------------------*- C++ -*----------------------------------*\
| =========                 |                                                 |
| \\      /  F ield         | OpenFOAM: The Open Source CFD Toolbox           |
|  \\    /   O peration     | Version:  4.x                                   |
|   \\  /    A nd           | Web:      www.OpenFOAM.org                      |
|    \\/     M anipulation  |                                                 |
\*---------------------------------------------------------------------------*/
FoamFile
{
    version     2.0;
    format      ascii;
    class       surfaceScalarField;
    location    "20";
    object      phi;
}
// * * * * * * * * * * * * * * * * * * * * * * * * * * * * * * * * * * * * * //

dimensions      [0 3 -1 0 0 0 0];

internalField   nonuniform List<scalar> 
259
(
1.00953e-05
1.54993e-09
1.06977e-05
1.143e-08
1.09679e-05
-3.44406e-08
-3.22524e-07
1.14784e-05
-2.68322e-08
-6.05637e-07
1.17314e-05
-4.78534e-08
-2.57723e-07
-1.04683e-08
-4.16846e-07
8.61069e-06
1.87629e-07
-6.92777e-07
8.88891e-06
9.07586e-08
-3.82387e-07
9.45646e-06
2.01357e-07
-7.62616e-07
9.67804e-06
1.12803e-07
-3.32833e-07
1.01445e-05
1.67521e-07
-6.22569e-07
1.03544e-05
4.06019e-08
-2.84902e-07
1.07826e-05
7.82516e-08
-5.33269e-07
1.10119e-05
-5.8271e-08
-2.18899e-07
1.265e-08
-4.19674e-07
8.78887e-06
2.80433e-07
-7.18409e-07
9.14371e-06
1.44064e-07
-4.08148e-07
9.85604e-06
2.66388e-07
-7.7736e-07
1.01743e-05
1.47217e-07
-3.52637e-07
1.07314e-05
2.33416e-07
-6.22981e-07
1.09658e-05
8.55385e-08
-2.79418e-07
1.14135e-05
1.51357e-07
-5.20745e-07
1.1598e-05
-1.36835e-08
-2.29155e-07
7.11675e-08
-4.23256e-07
9.07388e-06
-6.30184e-07
9.60784e-06
-3.89897e-07
1.05326e-05
-6.58334e-07
1.10517e-05
-3.71947e-07
1.18254e-05
-5.40247e-07
1.2253e-05
-3.42063e-07
1.28646e-05
-4.60257e-07
1.31501e-05
-2.99221e-07
-4.5333e-07
7.42791e-06
3.57381e-09
7.22984e-06
3.60985e-08
7.15096e-06
-1.90762e-08
-1.87134e-07
5.18829e-08
-2.9674e-07
8.08639e-06
2.45317e-07
-8.44672e-07
8.03668e-06
9.86705e-08
-4.45881e-07
7.89461e-06
2.55763e-07
-8.53593e-07
7.81163e-06
1.13335e-07
-3.40949e-07
7.67363e-06
2.55194e-07
-6.5458e-07
7.60397e-06
5.85019e-08
-2.70169e-07
7.45117e-06
1.63817e-07
-5.0818e-07
7.46403e-06
-2.49947e-08
-2.2585e-07
8.9262e-08
-3.28425e-07
8.19262e-06
3.40181e-07
-8.42632e-07
8.17631e-06
1.747e-07
-4.67866e-07
8.17393e-06
3.55509e-07
-8.74728e-07
8.16362e-06
1.5461e-07
-3.836e-07
8.16839e-06
3.14929e-07
-6.87489e-07
8.14592e-06
1.06527e-07
-3.04971e-07
8.07112e-06
2.63775e-07
-5.45899e-07
8.01563e-06
4.57201e-08
-2.4438e-07
2.16511e-07
-3.39498e-07
8.64451e-06
-7.7125e-07
8.90832e-06
-4.79002e-07
9.40818e-06
-8.02691e-07
9.66536e-06
-4.74511e-07
1.01094e-05
-6.69372e-07
1.03284e-05
-4.54497e-07
1.06901e-05
-5.5819e-07
1.08802e-05
-4.43597e-07
-5.15657e-07
5.39451e-06
-6.41811e-09
-4.29401e-08
7.79178e-06
3.16468e-07
-7.04006e-07
7.60046e-06
1.24781e-07
-3.49916e-07
7.15356e-06
3.18253e-07
-6.35576e-07
6.9795e-06
1.05616e-07
-2.49134e-07
6.58428e-06
2.71283e-07
-4.47973e-07
6.42424e-06
4.83772e-08
-1.65488e-07
6.03706e-06
1.4696e-07
-2.71478e-07
5.9303e-06
2.06423e-08
-1.46146e-07
5.82721e-08
7.91747e-06
3.69386e-07
-6.49751e-07
7.74019e-06
1.8323e-07
-3.49036e-07
7.36548e-06
4.21048e-07
-6.02817e-07
7.20213e-06
1.68775e-07
-2.83409e-07
6.87262e-06
3.74068e-07
-4.60762e-07
6.726e-06
1.03565e-07
-2.13541e-07
6.32108e-06
3.11376e-07
-3.05392e-07
6.18605e-06
8.56397e-08
2.28156e-07
8.36496e-06
-6.03559e-07
8.45393e-06
-3.84738e-07
8.69794e-06
-6.25658e-07
8.80443e-06
-4.12224e-07
9.05938e-06
-5.50255e-07
9.06544e-06
-3.56997e-07
9.22448e-06
9.26506e-06
7.67027e-06
3.11791e-07
7.43538e-06
1.57212e-07
7.03483e-06
3.27675e-07
6.92512e-06
1.0569e-07
6.67598e-06
2.51274e-07
6.60898e-06
7.92671e-08
6.403e-06
2.05138e-07
7.81529e-06
4.04788e-07
7.64223e-06
2.02847e-07
7.3495e-06
3.91e-07
7.23725e-06
1.48032e-07
7.02228e-06
3.18296e-07
6.94632e-06
1.18756e-07
8.35476e-06
8.44087e-06
8.63841e-06
8.71785e-06
8.91515e-06
)
;

boundaryField
{
    inlet
    {
        type            calculated;
        value           nonuniform List<scalar> 
12
(
-8.16327e-06
-8.16327e-06
-8.16327e-06
-8.16327e-06
-8.16327e-06
-8.16327e-06
-8.16327e-06
-8.16327e-06
-8.16327e-06
-8.16327e-06
-8.16327e-06
-8.16327e-06
)
;
    }
    outlet
    {
        type            calculated;
        value           nonuniform 0();
    }
    wall
    {
        type            calculated;
        value           uniform 0;
    }
    procBoundary2to0
    {
        type            processor;
        value           nonuniform List<scalar> 
44
(
1.26863e-07
1.42939e-07
8.68558e-08
1.21915e-07
5.2609e-08
8.02632e-08
5.77258e-08
1.34099e-08
-9.83826e-06
-6.29179e-09
-3.85426e-07
-7.56841e-07
5.29535e-08
1.07428e-07
2.73582e-08
7.02031e-08
-1.65483e-08
1.45377e-08
-2.2722e-08
-2.22382e-08
-7.55251e-06
-8.51844e-08
-2.54449e-07
-5.51089e-07
1.62724e-08
7.16207e-08
-8.56545e-08
-2.9423e-08
-8.93687e-08
-2.33658e-08
-8.26748e-08
6.97976e-09
-5.48833e-06
3.51925e-09
-1.03168e-07
-1.22551e-07
-3.99622e-08
-4.74218e-08
-1.15856e-07
-5.77783e-08
-1.10577e-07
-5.70932e-08
-7.18745e-08
-5.88708e-08
)
;
    }
    procBoundary2to3
    {
        type            processor;
        value           nonuniform List<scalar> 
12
(
1.20784e-05
1.14084e-05
1.19628e-05
1.36746e-05
6.90877e-06
7.33541e-06
7.80462e-06
1.1159e-05
5.19164e-06
5.52697e-06
5.78933e-06
9.32894e-06
)
;
    }
    procBoundary2to6
    {
        type            processor;
        value           nonuniform List<scalar> 
32
(
-2.63113e-08
-1.74351e-07
-1.12657e-07
-4.05847e-07
-3.98544e-07
-3.51381e-07
-4.82842e-07
-2.2481e-07
-4.46851e-07
-1.87338e-07
-3.39526e-07
-1.20665e-07
-1.98759e-07
6.34028e-06
6.70406e-08
-9.15965e-08
-3.94777e-07
-2.21605e-07
-3.73414e-07
-2.13499e-07
-3.12819e-07
-1.77068e-07
6.81434e-06
2.7048e-07
-2.38756e-07
-3.90268e-07
-2.68003e-07
-4.32189e-07
-3.43639e-07
-4.29257e-07
8.99904e-06
-3.22127e-07
)
;
    }
}


// ************************************************************************* //
