/*--------------------------------*- C++ -*----------------------------------*\
| =========                 |                                                 |
| \\      /  F ield         | OpenFOAM: The Open Source CFD Toolbox           |
|  \\    /   O peration     | Version:  4.x                                   |
|   \\  /    A nd           | Web:      www.OpenFOAM.org                      |
|    \\/     M anipulation  |                                                 |
\*---------------------------------------------------------------------------*/
FoamFile
{
    version     2.0;
    format      ascii;
    class       volScalarField;
    location    "20";
    object      Sm;
}
// * * * * * * * * * * * * * * * * * * * * * * * * * * * * * * * * * * * * * //

dimensions      [1 -3 -1 0 0 0 0];

internalField   nonuniform List<scalar> 
114
(
6.50995e-65
4.88244e-65
2.55742e-65
4.88234e-65
2.2474e-65
2.63488e-65
5.73506e-65
6.51003e-65
5.115e-65
3.79747e-65
6.1999e-65
4.41738e-65
5.88981e-65
6.12226e-65
3.95235e-65
4.03005e-65
5.65754e-65
4.5725e-65
4.95997e-65
4.49495e-65
4.57241e-65
5.34737e-65
4.41735e-65
5.26983e-65
4.41755e-65
4.26254e-65
4.65003e-65
4.5725e-65
3.33249e-65
3.79747e-65
2.71247e-65
4.80491e-65
3.09995e-65
8.4472e-65
9.76456e-65
5.73469e-65
9.22196e-65
5.42505e-65
6.82003e-65
7.67246e-65
7.82739e-65
6.97484e-65
6.27728e-65
8.98962e-65
7.5946e-65
5.19223e-65
6.04507e-65
8.60255e-65
8.2925e-65
7.59493e-65
7.43987e-65
7.28482e-65
7.05226e-65
7.4397e-65
5.96723e-65
5.89007e-65
5.19254e-65
6.97501e-65
5.81247e-65
6.89743e-65
5.8899e-65
5.88987e-65
6.50981e-65
4.26237e-65
7.5945e-65
8.13695e-65
7.28507e-65
4.96002e-65
5.50246e-65
6.0449e-65
5.57984e-65
7.12971e-65
8.36959e-65
6.58711e-65
4.88218e-65
5.34755e-65
6.04503e-65
7.12997e-65
9.06739e-65
7.28482e-65
6.43228e-65
7.51719e-65
7.43965e-65
8.36953e-65
5.34755e-65
7.51754e-65
6.04501e-65
6.97494e-65
4.64994e-65
6.50985e-65
8.29227e-65
4.95982e-65
6.66473e-65
4.80504e-65
8.13751e-65
8.36994e-65
6.58739e-65
6.8198e-65
5.88975e-65
6.27717e-65
7.74949e-65
6.89757e-65
6.89752e-65
8.36997e-65
5.81243e-65
7.20732e-65
6.89725e-65
8.36965e-65
5.27006e-65
6.51004e-65
6.27749e-65
7.12994e-65
5.50241e-65
6.35483e-65
)
;

boundaryField
{
    inlet
    {
        type            calculated;
        value           uniform 0;
    }
    outlet
    {
        type            calculated;
        value           nonuniform 0();
    }
    wall
    {
        type            calculated;
        value           uniform 0;
    }
    procBoundary2to0
    {
        type            processor;
        value           nonuniform List<scalar> 
44
(
4.72746e-65
4.26244e-65
4.3399e-65
3.25489e-65
4.49484e-65
6.89723e-65
2.86753e-65
4.41752e-65
3.25501e-65
3.25501e-65
4.72741e-65
8.98977e-65
6.58731e-65
8.29216e-65
6.04471e-65
4.95973e-65
8.06007e-65
6.12252e-65
6.12246e-65
4.72741e-65
8.98977e-65
8.98977e-65
7.12971e-65
7.12959e-65
6.1996e-65
4.5722e-65
7.28506e-65
7.59501e-65
7.67243e-65
8.13735e-65
8.21475e-65
7.12971e-65
7.12959e-65
7.12959e-65
5.42464e-65
2.32481e-65
5.27005e-65
5.89001e-65
7.82744e-65
9.22233e-65
4.49487e-65
9.14459e-65
7.12958e-65
5.42464e-65
)
;
    }
    procBoundary2to3
    {
        type            processor;
        value           nonuniform List<scalar> 
12
(
6.97465e-65
5.19227e-65
5.5023e-65
4.64991e-65
7.51703e-65
6.66461e-65
1.03845e-64
7.74971e-65
7.67191e-65
9.06686e-65
5.11471e-65
8.52461e-65
)
;
    }
    procBoundary2to6
    {
        type            processor;
        value           nonuniform List<scalar> 
32
(
6.74202e-65
6.04471e-65
7.12958e-65
5.11485e-65
5.81227e-65
4.95979e-65
1.03851e-64
7.59502e-65
4.95997e-65
7.43987e-65
9.37722e-65
6.12225e-65
7.36215e-65
6.74202e-65
6.04471e-65
6.50961e-65
5.81255e-65
7.90504e-65
6.43248e-65
8.83488e-65
7.05234e-65
7.82724e-65
6.04471e-65
5.11485e-65
7.0522e-65
4.96005e-65
7.20754e-65
5.42501e-65
6.12245e-65
7.59489e-65
5.11485e-65
8.75728e-65
)
;
    }
}


// ************************************************************************* //
