/*--------------------------------*- C++ -*----------------------------------*\
  =========                 |
  \\      /  F ield         | OpenFOAM: The Open Source CFD Toolbox
   \\    /   O peration     | Website:  https://openfoam.org
    \\  /    A nd           | Version:  4.x
     \\/     M anipulation  |
\*---------------------------------------------------------------------------*/
FoamFile
{
    version     2.0;
    format      ascii;
    class       Cloud<passiveParticle>;
    location    0;
    object      positions;
}
// * * * * * * * * * * * * * * * * * * * * * * * * * * * * * * * * * * * * * //

312
(
( 0.211584 -0.00559665 -0.072689 ) 4
( 0.187074 -0.00943848 -0.045703 ) 34
( 0.223453 -0.0130653 -0.0586195 ) 36
( 0.203032 -0.0136575 -0.0353098 ) 64
( 0.235552 -0.00378906 -0.0713057 ) 36
( 0.220392 -0.00513277 -0.032452 ) 64
( 0.176602 -0.00934728 -0.0624315 ) 34
( 0.235986 -0.00904825 -0.0438621 ) 36
( 0.205714 -0.00152238 -0.0507273 ) 35
( 0.167567 -0.0112882 -0.0447191 ) 34
( 0.22626 -0.0111308 -0.0146984 ) 65
( 0.225222 0.0300888 -0.0273277 ) 74
( 0.0457607 0.0271863 -0.0469735 ) 38
( 0.215116 0.0376289 -0.0425444 ) 73
( 0.185334 0.0222859 -0.0700756 ) 43
( 0.11352 0.0388544 -0.0534805 ) 41
( 0.0323747 0.0742176 -0.0323204 ) 85
( 0.201777 0.0640972 -0.0450472 ) 53
( 0.212361 0.0179986 -0.0410184 ) 73
( 0.07491 0.0448108 -0.0509449 ) 48
( 0.0697507 0.0214971 -0.0471337 ) 39
( 0.0322705 0.0515539 -0.0611032 ) 47
( 0.173433 0.018393 -0.0546698 ) 43
( 0.125903 0.0707915 -0.0484768 ) 50
( 0.0266202 0.0590277 -0.0436107 ) 46
( 0.0238039 0.0902936 -0.0398973 ) 84
( 0.0432994 0.0901349 -0.0543219 ) 56
( 0.0625172 0.050168 -0.0659056 ) 48
( 0.0782339 0.0721615 -0.057511 ) 57
( 0.137993 0.0576339 -0.0571809 ) 50
( 0.180622 0.0552001 -0.0492504 ) 52
( 0.0592322 0.0312553 -0.0609002 ) 39
( 0.203197 0.00505228 -0.0291665 ) 64
( 0.100151 0.0434117 -0.0349107 ) 78
( 0.0790103 0.0455051 -0.0254529 ) 77
( 0.239196 0.0524721 -0.0724283 ) 23
( 0.156902 0.055795 -0.0682843 ) 51
( 0.215912 0.0777227 -0.0409682 ) 91
( 0.244064 0.082588 -0.0396648 ) 92
( 0.168056 0.0665591 -0.0389286 ) 81
( 0.0925391 0.0600445 -0.0672857 ) 49
( 0.145275 0.0711029 -0.0444573 ) 51
( 0.110911 0.0824318 -0.0427373 ) 87
( 0.154384 0.0565502 -0.0289535 ) 80
( 0.136335 0.0382228 -0.0531523 ) 41
( 0.210399 0.0742545 -0.0596969 ) 62
( 0.0254403 0.0819935 -0.0577855 ) 55
( 0.1862 0.0389572 -0.0592756 ) 43
( 0.185117 0.089011 -0.0709161 ) 61
( 0.168795 0.0901218 -0.037506 ) 90
( 0.223318 0.0641718 -0.0707442 ) 54
( 0.118316 0.0218121 -0.0623752 ) 41
( 0.113976 0.0888643 -0.0613114 ) 59
( 0.0724405 0.0629146 -0.0321035 ) 77
( 0.0925199 0.077264 -0.0356241 ) 87
( 0.133721 0.0243618 -0.0392046 ) 70
( 0.196286 0.052666 -0.0696209 ) 53
( 0.144852 0.00353995 -0.069996 ) 33
( 0.218391 0.0258929 -0.0582951 ) 44
( 0.0270868 0.024792 -0.0326777 ) 66
( 0.0995888 0.0176938 -0.0675287 ) 40
( 0.0900614 0.0248271 -0.0214962 ) 69
( 0.125502 0.0399832 -0.069747 ) 41
( 0.12407 0.063535 -0.0278321 ) 79
( 0.00983276 0.0177751 -0.0395036 ) 66
( 0.106531 0.0460344 -0.0707856 ) 49
( 0.0581415 0.0798816 -0.0461349 ) 57
( 0.0999937 0.0251782 -0.0491511 ) 40
( 0.154432 0.0242519 -0.0524835 ) 42
( 0.225745 0.0635935 -0.0509115 ) 54
( 0.157028 0.00536545 -0.0468754 ) 33
( 0.1817 0.0316025 -0.0414057 ) 72
( 0.202633 0.0124755 -0.0703724 ) 35
( 0.0881656 0.0572346 -0.042736 ) 78
( 0.0977514 0.0749212 -0.0553203 ) 58
( 0.124663 0.0517379 -0.0436854 ) 50
( 0.0899674 0.0619871 -0.023066 ) 78
( 0.1912 0.0711666 -0.0642263 ) 52
( 0.231421 0.0689538 -0.0325912 ) 83
( 0.0349029 0.0416922 -0.0389764 ) 67
( 0.144525 0.0731589 -0.0678229 ) 60
( 0.0618853 0.0465873 -0.0360535 ) 77
( 0.0762076 0.0886077 -0.0352375 ) 86
( 0.155502 0.0545381 -0.048544 ) 51
( 0.00998416 0.072675 -0.0468367 ) 55
( 0.192982 0.0220086 -0.0284419 ) 72
( 0.0379235 0.0181545 -0.0645002 ) 38
( 0.135947 0.0455806 -0.028723 ) 79
( 0.00989918 0.0813172 -0.0289935 ) 84
( 0.0108113 0.0545523 -0.0549506 ) 46
( 0.16931 0.0438946 -0.0320606 ) 81
( 0.0567083 0.0722491 -0.064457 ) 57
( 0.15098 0.0900399 -0.0594607 ) 60
( 0.0282644 0.0328977 -0.0554505 ) 38
( 0.114652 0.028996 -0.0362496 ) 70
( 0.229965 0.0121093 -0.0340709 ) 65
( 0.248706 0.0608325 -0.024246 ) 83
( 0.027983 0.0556728 -0.0187455 ) 76
( 0.241966 0.0555984 -0.0424917 ) 83
( 0.095976 0.0900502 -0.0694515 ) 58
( 0.165066 0.0708706 -0.0580471 ) 51
( 0.188443 0.0902915 -0.0347469 ) 90
( 0.231993 0.0279868 -0.0742399 ) 14
( 0.239042 0.0160767 -0.059987 ) 45
( 0.19666 0.0449592 -0.0434793 ) 53
( 0.164426 0.0285303 -0.0691606 ) 42
( 0.0637238 0.0612409 -0.0495713 ) 48
( 0.247497 0.0106262 -0.0428809 ) 36
( 0.18487 0.0743529 -0.045738 ) 61
( 0.0835411 0.027019 -0.06032 ) 40
( 0.171143 0.0773794 -0.0226119 ) 90
( 0.167431 0.0393777 -0.0527714 ) 43
( 0.176684 0.0581582 -0.0684978 ) 52
( 0.114068 0.0902967 -0.0250227 ) 88
( 0.227014 0.0901942 -0.0298602 ) 92
( 0.165849 0.020411 -0.0366327 ) 71
( 0.204974 0.0901385 -0.070199 ) 62
( 0.188864 0.00641425 -0.0574735 ) 34
( 0.120845 0.0661746 -0.0671259 ) 50
( 0.0586013 0.0274769 -0.0318592 ) 68
( 0.0472647 0.0567748 -0.0272644 ) 76
( 0.0843613 0.0320265 -0.0390028 ) 69
( 0.00990971 0.0284626 -0.0677838 ) 37
( 0.22236 0.0110265 -0.0709179 ) 36
( 0.1328 0.089755 -0.0675461 ) 59
( 0.0490273 0.0481998 -0.0510635 ) 47
( 0.163262 0.0825321 -0.0740363 ) 29
( 0.185371 0.0613859 -0.030792 ) 81
( 0.00970026 0.0356791 -0.0493273 ) 37
( 0.207144 0.0900397 -0.0282219 ) 91
( 0.211283 0.0510856 -0.0566083 ) 53
( 0.0854095 0.090165 -0.0526865 ) 58
( 0.233284 0.0281751 -0.0453171 ) 45
( 0.202797 0.032949 -0.0684591 ) 44
( 0.128707 0.0902645 -0.0480724 ) 59
( 0.0548799 0.0732229 -0.0190684 ) 85
( 0.0355297 0.069365 -0.0693058 ) 47
( 0.231319 0.0450619 -0.0556323 ) 54
( 0.028255 0.090153 -0.0195194 ) 85
( 0.22871 0.0901197 -0.049752 ) 63
( 0.149082 0.090184 -0.0396946 ) 89
( 0.0104479 0.0351153 -0.0297391 ) 66
( 0.151423 0.0373521 -0.0379293 ) 71
( 0.143454 0.0277947 -0.0686206 ) 42
( 0.0433533 0.0673032 -0.050423 ) 47
( 0.167723 0.00693973 -0.0699079 ) 34
( 0.17076 0.0900741 -0.057214 ) 61
( 0.196773 0.0238262 -0.0518161 ) 44
( 0.137109 0.0900846 -0.0227441 ) 88
( 0.0527635 0.0273162 -0.00503058 ) 94
( 0.135472 0.0700978 8.29482e-05 ) 105
( 0.0832698 0.0549757 -0.00355879 ) 103
( 0.0894403 0.0423313 0.0105546 ) 96
( 0.217797 0.0166333 0.0112671 ) 100
( 0.114788 0.025015 0.00872575 ) 97
( 0.0430249 0.0347497 0.0105563 ) 94
( 0.110137 0.041227 -0.002045 ) 96
( 0.175577 0.0361727 -0.0120129 ) 99
( 0.168801 0.0486505 0.00179471 ) 107
( 0.191112 0.0822236 -0.0167477 ) 90
( 0.124989 0.0510658 0.00638064 ) 105
( 0.153845 0.039419 0.0108615 ) 98
( 0.0490062 0.0902088 0.00758537 ) 109
( 0.125183 0.0234404 -0.00779458 ) 97
( 0.00985178 0.0488415 0.00689911 ) 101
( 0.0110336 0.065992 -0.0165121 ) 75
( 0.103365 0.0901009 -0.00349935 ) 111
( 0.158937 0.0681914 -0.00998626 ) 106
( 0.193269 0.0595637 -0.0127478 ) 107
( 0.029328 0.0881171 0.00606011 ) 109
( 0.0272543 0.0433884 -0.00308714 ) 101
( 0.0907246 0.0902236 0.0119059 ) 111
( 0.0756028 0.018218 0.00723621 ) 95
( 0.0628337 0.0800397 -0.0021452 ) 110
( 0.207041 0.0272401 -0.00114073 ) 100
( 0.13388 0.0427973 -0.00903467 ) 97
( 0.0581661 0.0697159 0.0138865 ) 103
( 0.00990476 0.0682299 0.00299469 ) 101
( 0.124235 0.077635 -0.0140454 ) 112
( 0.232235 0.0781292 -0.0151589 ) 92
( 0.162136 0.0798762 0.00559004 ) 113
( 0.163605 0.0259525 0.000292741 ) 98
( 0.145118 0.0901257 0.00641259 ) 113
( 0.0952494 0.0239283 0.00531807 ) 96
( 0.06433 0.0605349 -0.00572496 ) 103
( 0.0201264 0.0274245 -0.0143911 ) 66
( 0.0466213 0.0898396 -0.0119398 ) 109
( 0.0662987 0.0371183 0.00536071 ) 95
( 0.0927643 0.0732022 -0.00373732 ) 111
( 0.0531897 0.0515883 0.00797659 ) 102
( 0.105694 0.073061 -0.0187516 ) 87
( 0.153628 0.0900488 -0.011565 ) 113
( 0.02922 0.0233356 0.00247269 ) 94
( 0.142446 0.0276188 0.000304007 ) 98
( 0.220999 0.037054 0.00870957 ) 100
( 0.153124 0.0467101 -0.0119383 ) 106
( 0.116922 0.0594642 -0.00963946 ) 105
( 0.076983 0.0702062 0.00781246 ) 103
( 0.0110883 0.086858 -0.00996767 ) 108
( 0.080359 0.0891327 -0.00479275 ) 110
( 0.191276 0.0389438 -0.000702548 ) 99
( 0.125001 0.0903329 0.00071714 ) 112
( 0.211629 0.0529857 -0.0156636 ) 82
( 0.108907 0.0286643 -0.0172515 ) 69
( 0.0823955 0.0340586 -0.00581994 ) 95
( 0.10109 0.0573509 0.00492252 ) 104
( 0.182649 0.0210117 -0.000691473 ) 99
( 0.0360834 0.0604799 0.00214286 ) 102
( 0.178855 0.0712654 -0.00556069 ) 107
( 0.00975506 0.0442727 -0.0122831 ) 101
( 0.107782 0.0577687 -0.0547143 ) 49
( 0.00985052 0.0901751 -0.0670866 ) 55
( 0.216633 0.0558588 -0.0346393 ) 82
( 0.139857 0.0605885 -0.0164171 ) 80
( 0.051766 0.0144457 0.0101153 ) 94
( 0.00983666 0.0296276 0.00234281 ) 93
( 0.00990879 0.0901401 0.00952095 ) 108
( 0.0701954 0.0230235 -0.0165181 ) 68
( 0.220899 0.0444528 -0.0726892 ) 22
( 0.0499441 0.0901442 -0.0313938 ) 85
( 0.158578 -0.0107622 -0.0703354 ) 33
( 0.00983019 0.0560999 -0.0336283 ) 75
( 0.228038 0.0901095 -0.069613 ) 63
( 0.0942138 0.0431385 -0.0554094 ) 49
( 0.224191 0.00562767 -0.0518661 ) 36
( 0.217585 0.0137566 -0.0187249 ) 64
( 0.230853 0.058223 -0.0159768 ) 83
( 0.0671619 0.0900605 -0.060672 ) 57
( 0.240818 0.0425569 -0.0230079 ) 74
( 0.105885 0.0625512 -0.0355473 ) 78
( 0.145659 -0.00926804 -0.0541481 ) 33
( 0.202567 0.0901142 -0.0486937 ) 62
( 0.139565 0.0278556 -0.0206225 ) 71
( 0.249302 -0.00447325 -0.0301065 ) 65
( 0.0928238 0.0900499 -0.0203599 ) 87
( 0.116491 0.0456702 -0.0239078 ) 79
( 0.150082 0.0575904 0.00405024 ) 106
( 0.150643 0.0758986 -0.0260582 ) 89
( 0.159246 0.0304862 -0.021102 ) 71
( 0.188307 0.0424321 -0.0257202 ) 72
( 0.114279 0.0737681 0.00388833 ) 112
( 0.0407271 0.0312917 -0.0200943 ) 67
( 0.0358756 0.0730622 -0.0129426 ) 109
( 0.173135 0.0166714 -0.0176387 ) 72
( 0.175229 0.0641274 0.0124425 ) 107
( 0.172965 0.0556139 -0.0163534 ) 81
( 0.0960788 0.0446744 -0.0154392 ) 78
( 0.0755205 0.0734869 -0.0158083 ) 86
( 0.205338 0.0345774 -0.0193687 ) 73
( 0.203724 0.070363 -0.026416 ) 82
( 0.063678 0.0415573 -0.0137053 ) 95
( 0.0453229 0.0476457 -0.00975287 ) 102
( 0.065347 0.0902181 -0.0188509 ) 86
( 0.0117263 0.0704843 -0.0666197 ) 46
( 0.109954 0.0787641 -0.078078 ) 27
( 0.178175 0.0403691 -0.0774345 ) 12
( 0.0290428 0.0316758 -0.0760812 ) 7
( 0.237926 0.0776559 -0.0814793 ) 32
( 0.198906 0.075068 -0.0821306 ) 31
( 0.178342 -0.0141508 -0.0817045 ) 3
( 0.0516047 0.0238123 -0.077714 ) 7
( 0.112266 0.0290258 -0.0799443 ) 10
( 0.0684919 0.0163306 -0.0702953 ) 39
( 0.0746355 0.0625918 -0.0755122 ) 17
( 0.138879 0.0535176 -0.0765746 ) 19
( 0.218234 0.079413 -0.0833216 ) 31
( 0.0165789 0.0466596 -0.0722074 ) 15
( 0.153429 0.0405231 -0.0806099 ) 11
( 0.0809173 0.0442289 -0.0700933 ) 48
( 0.0503538 0.0601694 -0.0789276 ) 16
( 0.154601 0.0164538 -0.0816021 ) 11
( 0.0456008 0.0419992 -0.0722794 ) 7
( 0.0457554 0.0859897 -0.0736864 ) 25
( 0.0851896 0.00826051 -0.077401 ) 0
( 0.0787509 0.0820184 -0.0751024 ) 26
( 0.129607 0.0192566 -0.0800343 ) 10
( 0.133532 -0.0067226 -0.0828025 ) 1
( 0.160801 0.0660057 -0.0849323 ) 20
( 0.186078 0.00360855 -0.0770381 ) 3
( 0.0267346 0.0900586 -0.0774469 ) 24
( 0.234347 0.012591 -0.0867518 ) 5
( 0.0881425 -0.0102078 -0.0842371 ) 0
( 0.214221 0.0249316 -0.0826825 ) 13
( 0.0184157 0.0161394 -0.082518 ) 6
( 0.209826 0.057048 -0.0835731 ) 22
( 0.0104935 0.0799887 -0.0841576 ) 24
( 0.130417 0.0758767 -0.0816765 ) 28
( 0.0925337 0.0315239 -0.0799359 ) 9
( 0.0656941 0.0374836 -0.0809756 ) 8
( 0.120104 0.0539773 -0.0830827 ) 19
( 0.031496 0.0548321 -0.082563 ) 16
( 0.179133 0.0731218 -0.0814056 ) 30
( 0.10187 0.061767 -0.0847584 ) 18
( 0.196435 0.040735 -0.0856316 ) 13
( 0.108491 0.00600903 -0.0809759 ) 0
( 0.146641 0.0900864 -0.0818212 ) 29
( 0.0626133 0.0901271 -0.0832865 ) 26
( 0.233153 0.0420492 -0.0882841 ) 14
( 0.173227 0.0222276 -0.085907 ) 12
( 0.0913696 0.0891985 -0.0888085 ) 27
( 0.00991205 0.0600991 -0.0851986 ) 15
( 0.0108281 0.0343224 -0.086804 ) 6
( 0.0374622 0.01441 -0.0881052 ) 7
( 0.195331 0.0203724 -0.0871906 ) 13
( 0.0314835 0.0739831 -0.0882497 ) 25
( 0.0851984 0.0513532 -0.088193 ) 18
( 0.0768317 0.0226539 -0.0884024 ) 8
( 0.134881 0.037109 -0.0871621 ) 10
( 0.115018 -0.0111461 -0.0887733 ) 1
( 0.22928 0.06159 -0.0895725 ) 23
( 0.06326 0.0711736 -0.0894289 ) 17
( 0.183464 0.0554056 -0.0894167 ) 21
)
