/*--------------------------------*- C++ -*----------------------------------*\
| =========                 |                                                 |
| \\      /  F ield         | OpenFOAM: The Open Source CFD Toolbox           |
|  \\    /   O peration     | Version:  4.x                                   |
|   \\  /    A nd           | Web:      www.OpenFOAM.org                      |
|    \\/     M anipulation  |                                                 |
\*---------------------------------------------------------------------------*/
FoamFile
{
    version     2.0;
    format      ascii;
    class       volVectorField;
    location    "26";
    object      impParticleForces;
}
// * * * * * * * * * * * * * * * * * * * * * * * * * * * * * * * * * * * * * //

dimensions      [1 1 -2 0 0 0 0];

internalField   nonuniform List<vector> 
108
(
(0.00248005 1.80447e-05 -4.5859e-05)
(0.00247291 2.13513e-05 -3.5857e-05)
(0.00247627 2.29343e-05 -2.22293e-05)
(0.00246717 2.21601e-05 -6.77708e-06)
(0.00245085 2.09495e-05 5.94448e-06)
(0.00243333 1.97861e-05 1.63893e-05)
(0.00239125 2.02123e-05 2.18625e-05)
(0.00234135 2.12386e-05 2.12694e-05)
(0.00224895 2.25828e-05 9.40214e-06)
(0.00248224 1.87278e-05 -4.36214e-05)
(0.00250464 2.0353e-05 -3.62042e-05)
(0.00247948 1.98103e-05 -2.36499e-05)
(0.00247504 1.97298e-05 -9.39375e-06)
(0.00246024 2.14758e-05 2.65201e-06)
(0.00245904 2.45239e-05 1.25e-05)
(0.00239769 3.04667e-05 1.52235e-05)
(0.00234276 3.80231e-05 1.01573e-05)
(0.00224659 4.64353e-05 -4.92525e-06)
(0.00247809 1.91482e-05 -4.16051e-05)
(0.00249584 2.01571e-05 -3.45458e-05)
(0.00248618 1.98032e-05 -2.40206e-05)
(0.00249372 2.02757e-05 -1.21876e-05)
(0.00247688 2.37696e-05 -1.74579e-06)
(0.00247953 3.04054e-05 5.92518e-06)
(0.00241106 4.2555e-05 4.87608e-06)
(0.00236919 5.49345e-05 -6.6988e-06)
(0.00226716 7.33151e-05 -2.75332e-05)
(0.0024144 1.84764e-05 -3.93316e-05)
(0.00243902 1.90953e-05 -3.23909e-05)
(0.0024574 1.88412e-05 -2.32405e-05)
(0.00247288 2.01481e-05 -1.40094e-05)
(0.00245707 2.43113e-05 -5.71583e-06)
(0.00244572 3.1991e-05 -1.17657e-06)
(0.00238137 4.53022e-05 -5.08451e-06)
(0.00232987 6.26802e-05 -2.37298e-05)
(0.00226782 8.76422e-05 -5.73756e-05)
(0.00247688 1.49776e-05 -4.65424e-05)
(0.00248618 1.65918e-05 -3.85584e-05)
(0.00246916 1.94689e-05 -2.25178e-05)
(0.00249244 2.05544e-05 -5.74639e-06)
(0.00245602 1.90758e-05 6.52207e-06)
(0.00246062 1.79843e-05 1.85385e-05)
(0.00240785 1.7682e-05 2.46938e-05)
(0.0023973 1.79474e-05 3.09681e-05)
(0.00228597 2.29385e-05 9.05718e-06)
(0.00249323 1.84424e-05 -4.38011e-05)
(0.00251524 2.04497e-05 -3.67653e-05)
(0.00248255 1.77906e-05 -2.42481e-05)
(0.002497 1.69767e-05 -9.64722e-06)
(0.00246657 1.92873e-05 1.92764e-06)
(0.00247915 2.23732e-05 1.27043e-05)
(0.00242375 2.76322e-05 1.71026e-05)
(0.00239887 3.51264e-05 1.76829e-05)
(0.00228172 4.69948e-05 -3.7715e-06)
(0.00252243 2.00208e-05 -4.23775e-05)
(0.00253898 2.16551e-05 -3.57281e-05)
(0.00251055 1.93024e-05 -2.54043e-05)
(0.00254228 1.84945e-05 -1.22536e-05)
(0.00250072 2.15271e-05 -3.32631e-06)
(0.00251751 2.71307e-05 4.89474e-06)
(0.00244006 3.75869e-05 4.86836e-06)
(0.00241392 5.30898e-05 -3.12571e-06)
(0.00229887 7.86315e-05 -3.12077e-05)
(0.00245606 1.91661e-05 -4.00774e-05)
(0.00248193 2.00843e-05 -3.35484e-05)
(0.00247342 1.91063e-05 -2.53279e-05)
(0.00251186 1.92512e-05 -1.60932e-05)
(0.00249085 2.25928e-05 -8.67651e-06)
(0.00250652 2.87653e-05 -3.45809e-06)
(0.00241574 4.2131e-05 -6.44459e-06)
(0.00239696 5.97025e-05 -1.97171e-05)
(0.00228462 8.99987e-05 -5.92228e-05)
(0.00243146 1.0349e-05 -3.73824e-05)
(0.00243177 1.19868e-05 -3.09685e-05)
(0.00240726 1.45697e-05 -2.32834e-05)
(0.00243678 1.73905e-05 -9.52089e-06)
(0.00240755 1.53271e-05 3.76156e-06)
(0.00242096 1.37383e-05 1.65377e-05)
(0.00237146 1.27048e-05 2.3902e-05)
(0.00234977 1.23857e-05 2.87274e-05)
(0.00226649 1.52094e-05 1.48442e-05)
(0.0024564 1.732e-05 -3.75109e-05)
(0.00246355 1.94493e-05 -3.07199e-05)
(0.00242872 1.46935e-05 -2.3024e-05)
(0.0024245 1.40224e-05 -1.16034e-05)
(0.00240163 1.60045e-05 -8.99158e-08)
(0.00243145 1.8611e-05 1.11919e-05)
(0.00237995 2.22744e-05 1.68676e-05)
(0.00237379 2.87969e-05 2.1558e-05)
(0.00226238 3.85485e-05 4.78671e-06)
(0.00246554 1.88422e-05 -3.72121e-05)
(0.00250237 2.21498e-05 -3.118e-05)
(0.00246084 1.78769e-05 -2.35243e-05)
(0.00246056 1.60763e-05 -1.38671e-05)
(0.00243366 1.8679e-05 -4.97924e-06)
(0.00245904 2.3522e-05 3.01715e-06)
(0.00240258 3.11408e-05 5.97381e-06)
(0.002376 4.27479e-05 4.35463e-06)
(0.00226491 6.15676e-05 -1.22186e-05)
(0.0024351 1.87416e-05 -3.67312e-05)
(0.00244505 2.0224e-05 -3.04324e-05)
(0.00243033 1.8629e-05 -2.39583e-05)
(0.00244485 1.69128e-05 -1.62656e-05)
(0.00243611 2.03059e-05 -9.8443e-06)
(0.00244993 2.57812e-05 -3.83871e-06)
(0.00238151 3.67187e-05 -4.04685e-06)
(0.0023677 5.00841e-05 -8.9443e-06)
(0.00226309 7.22941e-05 -2.85086e-05)
)
;

boundaryField
{
    inlet
    {
        type            zeroGradient;
    }
    outlet
    {
        type            zeroGradient;
    }
    wall
    {
        type            zeroGradient;
    }
    procBoundary3to1
    {
        type            processor;
        value           nonuniform List<vector> 
27
(
(0.0024635 2.21505e-05 -4.27151e-05)
(0.00250229 3.145e-05 -3.151e-05)
(0.00248653 3.1176e-05 -1.82855e-05)
(0.00251636 2.71235e-05 -4.40665e-06)
(0.00246731 2.00292e-05 7.72424e-06)
(0.00246264 1.46848e-05 1.92608e-05)
(0.00240741 9.3231e-06 2.53959e-05)
(0.00237837 7.57894e-06 2.9592e-05)
(0.00226596 -5.41927e-07 1.76456e-05)
(0.00246737 1.32036e-05 -4.22493e-05)
(0.00250316 2.04597e-05 -2.97187e-05)
(0.00248168 2.5701e-05 -1.79952e-05)
(0.00250619 2.5373e-05 -3.97258e-06)
(0.00246475 1.85027e-05 8.27519e-06)
(0.0024808 1.33001e-05 2.11403e-05)
(0.00243537 8.39812e-06 2.96239e-05)
(0.00242495 7.33653e-06 3.90087e-05)
(0.00228297 -1.94804e-06 2.04757e-05)
(0.00242735 2.61257e-06 -3.81132e-05)
(0.00244933 9.0948e-06 -3.00003e-05)
(0.00242838 1.96158e-05 -1.89437e-05)
(0.00247027 2.60797e-05 -6.22123e-06)
(0.0024284 1.5348e-05 6.86488e-06)
(0.00244098 8.7746e-06 2.0168e-05)
(0.00238211 3.92165e-06 3.03186e-05)
(0.00236355 1.65099e-06 3.84092e-05)
(0.00225812 -7.52205e-06 2.72493e-05)
)
;
    }
    procBoundary3to2
    {
        type            processor;
        value           nonuniform List<vector> 
12
(
(0.00245338 1.31794e-05 -5.14037e-05)
(0.00245387 1.55037e-05 -4.92551e-05)
(0.00246605 1.71939e-05 -4.7695e-05)
(0.00242269 1.76942e-05 -4.58566e-05)
(0.00249051 1.18755e-05 -5.18818e-05)
(0.00248142 1.51727e-05 -4.89207e-05)
(0.00249357 1.73429e-05 -4.76659e-05)
(0.00243261 1.77697e-05 -4.55612e-05)
(0.00244331 8.32953e-06 -4.35709e-05)
(0.00245325 1.32929e-05 -4.31829e-05)
(0.00248034 1.60544e-05 -4.34466e-05)
(0.00243563 1.71461e-05 -4.23455e-05)
)
;
    }
    procBoundary3to7
    {
        type            processor;
        value           nonuniform List<vector> 
36
(
(0.0024168 6.52436e-06 -2.73068e-05)
(0.00242767 8.11885e-06 -2.14802e-05)
(0.00238319 9.47602e-06 -2.02869e-05)
(0.00240225 1.02747e-05 -1.20691e-05)
(0.0023859 9.57842e-06 2.15706e-06)
(0.00239569 7.9051e-06 1.63896e-05)
(0.00232005 5.19086e-06 2.43629e-05)
(0.00228832 3.94477e-06 2.96276e-05)
(0.00222127 6.43867e-06 2.31246e-05)
(0.00242029 1.28048e-05 -2.97579e-05)
(0.00245839 1.56208e-05 -2.28232e-05)
(0.00240032 1.23194e-05 -1.99523e-05)
(0.00240671 1.09989e-05 -1.23502e-05)
(0.00237855 1.28369e-05 -1.21521e-06)
(0.00238926 1.50121e-05 1.00731e-05)
(0.00232963 1.80608e-05 1.59937e-05)
(0.00230917 2.17202e-05 2.13482e-05)
(0.0022276 3.34672e-05 1.29725e-05)
(0.00242135 1.54971e-05 -3.14164e-05)
(0.00246377 1.79971e-05 -2.54634e-05)
(0.00241985 1.60171e-05 -2.07188e-05)
(0.00243009 1.50273e-05 -1.43556e-05)
(0.0024032 1.7478e-05 -5.91627e-06)
(0.00242848 2.04904e-05 3.28636e-06)
(0.00236036 2.71448e-05 7.449e-06)
(0.00233352 3.33541e-05 1.14468e-05)
(0.00223045 5.20972e-05 3.83435e-06)
(0.00240531 1.62887e-05 -3.22838e-05)
(0.0024204 1.75805e-05 -2.68387e-05)
(0.00240378 1.71398e-05 -2.19828e-05)
(0.00239724 1.64553e-05 -1.56571e-05)
(0.00239529 1.89296e-05 -9.94956e-06)
(0.00240177 2.27678e-05 -2.3977e-06)
(0.00234439 3.04604e-05 5.71406e-07)
(0.00232534 3.84134e-05 4.45321e-06)
(0.00221532 5.18629e-05 -2.79652e-06)
)
;
    }
}


// ************************************************************************* //
