/*--------------------------------*- C++ -*----------------------------------*\
| =========                 |                                                 |
| \\      /  F ield         | OpenFOAM: The Open Source CFD Toolbox           |
|  \\    /   O peration     | Version:  4.x                                   |
|   \\  /    A nd           | Web:      www.OpenFOAM.org                      |
|    \\/     M anipulation  |                                                 |
\*---------------------------------------------------------------------------*/
FoamFile
{
    version     2.0;
    format      ascii;
    class       volScalarField;
    location    "26";
    object      magGField;
}
// * * * * * * * * * * * * * * * * * * * * * * * * * * * * * * * * * * * * * //

dimensions      [1 -2 -1 0 0 0 0];

internalField   nonuniform List<scalar> 
108
(
62.3063
129.936
83.7984
139.144
74.9621
141.404
59.7705
142.399
24.7305
61.3156
119.499
62.8015
124.585
58.9665
126.072
46.3994
120.803
19.7556
67.809
125.959
73.4814
133.544
67.22
136.135
54.0047
135.717
37.0622
89.4046
140.644
91.7416
147.619
89.7533
159.024
83.4858
181.406
73.302
26.9403
95.3299
1.33801
101.794
5.99276
109.213
8.74817
120.214
38.4283
23.9344
100.706
14.2364
104.006
13.9694
108.028
14.2574
112.335
17.1528
24.1251
104.677
23.2033
107.564
13.1677
114.179
16.9488
123.66
58.2257
62.503
122.038
62.8662
129.912
61.5785
144.302
56.6942
178.744
82.4361
0.369957
24.1821
57.6586
69.1179
4.39269
77.964
8.86138
81.7741
35.831
19.7147
91.9137
10.4578
91.7065
2.3944
91.8215
3.85886
97.3391
14.1664
1.77441
97.8876
0.637988
83.7535
0.00050176
84.6988
0.67059
77.3397
24.03
43.1927
108.702
51.4697
114.793
43.2157
118.528
37.0852
132.324
35.2798
)
;

boundaryField
{
    inlet
    {
        type            calculated;
        value           nonuniform 0();
    }
    outlet
    {
        type            calculated;
        value           nonuniform List<scalar> 
12
(
51.4226
41.0821
77.2537
149.091
82.6036
36.8363
124.929
175.751
78.1232
30.8759
52.223
76.9595
)
;
    }
    wall
    {
        type            calculated;
        value           uniform 0;
    }
    procBoundary3to1
    {
        type            processor;
        value           nonuniform List<scalar> 
27
(
72.018
123.722
63.1147
122.21
52.5779
117.979
36.5762
107.446
20.8315
2.68842
98.2967
6.89216
99.6637
0.001011
94.6665
1.36138
84.139
15.9273
33.6426
72.8064
16.3125
88.0427
1.7269
86.9713
6.70382
80.2555
35.6434
)
;
    }
    procBoundary3to2
    {
        type            processor;
        value           nonuniform List<scalar> 
12
(
119.164
115.83
120.398
133.826
94.2163
97.3127
101.093
117.277
66.6975
90.6192
91.6271
105.259
)
;
    }
    procBoundary3to7
    {
        type            processor;
        value           nonuniform List<scalar> 
36
(
16.8216
95.1617
18.9904
89.3165
7.28686
85.4321
3.71029
76.3921
19.0485
11.4938
92.1807
9.84354
88.0766
1.82303
84.9264
9.72794
77.6204
36.3015
17.3807
96.6767
19.2331
99.2802
16.7238
101.803
18.7985
109.599
34.6188
49.19
110.089
48.3864
115.897
47.7606
122.147
40.9294
129.671
19.7889
)
;
    }
}


// ************************************************************************* //
