/*--------------------------------*- C++ -*----------------------------------*\
| =========                 |                                                 |
| \\      /  F ield         | OpenFOAM: The Open Source CFD Toolbox           |
|  \\    /   O peration     | Version:  4.x                                   |
|   \\  /    A nd           | Web:      www.OpenFOAM.org                      |
|    \\/     M anipulation  |                                                 |
\*---------------------------------------------------------------------------*/
FoamFile
{
    version     2.0;
    format      ascii;
    class       volScalarField;
    location    "26";
    object      Sm;
}
// * * * * * * * * * * * * * * * * * * * * * * * * * * * * * * * * * * * * * //

dimensions      [1 -3 -1 0 0 0 0];

internalField   nonuniform List<scalar> 
108
(
6.97446e-65
3.25483e-65
5.73484e-65
2.55749e-65
4.10752e-65
3.02252e-65
4.72751e-65
4.5725e-65
3.875e-65
5.19219e-65
7.43969e-65
4.1074e-65
4.65e-65
5.42503e-65
3.87502e-65
5.50252e-65
5.11501e-65
5.27001e-65
5.50231e-65
5.50236e-65
6.19992e-65
3.72001e-65
4.88254e-65
3.72003e-65
5.73504e-65
5.27004e-65
4.03003e-65
4.64992e-65
3.87495e-65
3.79749e-65
5.89003e-65
4.80505e-65
4.65005e-65
3.17753e-65
5.65756e-65
4.10755e-65
7.51693e-65
6.27714e-65
9.06719e-65
8.52489e-65
7.59498e-65
6.27751e-65
6.04499e-65
6.58747e-65
8.91245e-65
6.66459e-65
6.19975e-65
7.51734e-65
7.28496e-65
6.82002e-65
6.27751e-65
8.6025e-65
7.05249e-65
6.97498e-65
1.03846e-64
7.51731e-65
7.4399e-65
8.44749e-65
6.82005e-65
7.36255e-65
6.58753e-65
7.20752e-65
7.90502e-65
7.74982e-65
5.65742e-65
6.66495e-65
6.20002e-65
8.06006e-65
5.65755e-65
6.74255e-65
6.82005e-65
5.65754e-65
7.67205e-65
9.067e-65
8.75723e-65
8.52488e-65
6.12248e-65
6.27749e-65
8.52497e-65
7.12995e-65
7.43994e-65
9.06706e-65
5.03733e-65
7.74985e-65
4.33997e-65
4.65001e-65
7.90501e-65
7.28499e-65
8.83496e-65
6.12247e-65
5.11487e-65
8.13731e-65
8.21492e-65
5.81249e-65
6.82003e-65
7.98253e-65
6.66502e-65
7.2075e-65
5.425e-65
8.52485e-65
4.02995e-65
5.42497e-65
6.12252e-65
5.58004e-65
7.13006e-65
6.20004e-65
7.90504e-65
8.52502e-65
)
;

boundaryField
{
    inlet
    {
        type            calculated;
        value           nonuniform 0();
    }
    outlet
    {
        type            calculated;
        value           uniform 0;
    }
    wall
    {
        type            calculated;
        value           uniform 0;
    }
    procBoundary3to1
    {
        type            processor;
        value           nonuniform List<scalar> 
27
(
3.48724e-65
5.57966e-65
5.73476e-65
7.12987e-65
5.50248e-65
4.34e-65
4.96e-65
4.5725e-65
4.49499e-65
7.12938e-65
6.58703e-65
6.1997e-65
5.26986e-65
5.26997e-65
7.36249e-65
8.05998e-65
1.03075e-64
4.88247e-65
8.91175e-65
6.35457e-65
5.11474e-65
9.06727e-65
8.29243e-65
8.75747e-65
6.81997e-65
7.90495e-65
3.48747e-65
)
;
    }
    procBoundary3to2
    {
        type            processor;
        value           nonuniform List<scalar> 
12
(
4.10717e-65
3.95225e-65
5.26979e-65
3.09996e-65
9.22179e-65
5.19218e-65
5.96727e-65
4.26243e-65
8.13696e-65
4.88223e-65
8.36975e-65
6.66489e-65
)
;
    }
    procBoundary3to7
    {
        type            processor;
        value           nonuniform List<scalar> 
36
(
9.9196e-65
7.82723e-65
6.43237e-65
6.74245e-65
1.03075e-64
1.0385e-64
7.98246e-65
5.65745e-65
8.36992e-65
7.67231e-65
9.45478e-65
7.28492e-65
6.89747e-65
8.29251e-65
5.6575e-65
7.51748e-65
6.35496e-65
8.05994e-65
4.80494e-65
7.43992e-65
6.12248e-65
7.13001e-65
7.44003e-65
8.06004e-65
7.51751e-65
7.20749e-65
8.60247e-65
6.50995e-65
6.58747e-65
8.67998e-65
5.50252e-65
7.28505e-65
6.74255e-65
7.90504e-65
5.89002e-65
4.34001e-65
)
;
    }
}


// ************************************************************************* //
