/*--------------------------------*- C++ -*----------------------------------*\
| =========                 |                                                 |
| \\      /  F ield         | OpenFOAM: The Open Source CFD Toolbox           |
|  \\    /   O peration     | Version:  4.x                                   |
|   \\  /    A nd           | Web:      www.OpenFOAM.org                      |
|    \\/     M anipulation  |                                                 |
\*---------------------------------------------------------------------------*/
FoamFile
{
    version     2.0;
    format      ascii;
    class       volVectorField;
    location    "26";
    object      Urel;
}
// * * * * * * * * * * * * * * * * * * * * * * * * * * * * * * * * * * * * * //

dimensions      [0 1 -1 0 0 0 0];

internalField   nonuniform List<vector> 
108
(
(-0.0230965 -3.24852e-05 0.000800027)
(-0.0247573 8.2106e-06 0.000840992)
(-0.0239976 -8.62063e-05 0.000494274)
(-0.0252056 -0.00014992 0.000128099)
(-0.0237036 -0.000220194 -8.20976e-05)
(-0.0247564 -0.000270158 -0.000329998)
(-0.0223888 -0.000340121 -0.000228341)
(-0.0231572 -0.000303688 -0.000270181)
(-0.0190338 -0.000603398 0.000982157)
(-0.02335 -0.000291168 0.000647914)
(-0.024895 -0.000254286 0.000626945)
(-0.0239813 -0.000114254 0.000417888)
(-0.0252976 -4.41548e-05 0.000135763)
(-0.0238511 -0.000148973 -0.000116135)
(-0.0249037 -0.000233184 -0.000348185)
(-0.0224804 -0.000407304 -0.000329034)
(-0.0231196 -0.000577744 -0.000167535)
(-0.0191115 -0.000937975 0.000911198)
(-0.024298 -0.000354111 0.000555884)
(-0.0259162 -0.00032672 0.000539709)
(-0.0251256 -0.000226429 0.000381016)
(-0.0263711 -0.000165416 0.000165921)
(-0.0249636 -0.000309675 -7.74644e-05)
(-0.0259832 -0.000374799 -0.000278202)
(-0.0235798 -0.00087201 -0.000218682)
(-0.0241705 -0.00101 7.49036e-05)
(-0.0200605 -0.00244498 0.00117961)
(-0.025669 -0.00039222 0.00051376)
(-0.0271961 -0.000376053 0.000472417)
(-0.0265712 -0.000239695 0.000339809)
(-0.0278504 -0.000175858 0.000187655)
(-0.0266676 -0.000295929 -2.17438e-05)
(-0.0278435 -0.000418815 -0.000125344)
(-0.0256635 -0.00102989 -6.77172e-05)
(-0.0267333 -0.00138458 0.000646522)
(-0.0219013 -0.00322657 0.00280487)
(-0.0201579 -4.18787e-05 0.00114613)
(-0.0215746 4.53487e-05 0.00129727)
(-0.0198463 -5.12696e-05 0.000518858)
(-0.0220517 -0.000129967 -0.000167923)
(-0.0201855 -0.000185946 -0.000157363)
(-0.0220807 -0.000219009 -0.000575522)
(-0.0196928 -0.000277958 -0.000208013)
(-0.0211326 -0.0002058 -0.000588714)
(-0.0178568 -0.00076293 0.00146552)
(-0.0208573 -0.000334681 0.000779824)
(-0.0224467 -0.00032414 0.000910966)
(-0.020736 -6.41274e-05 0.000510738)
(-0.0226826 4.28394e-05 0.000103505)
(-0.0207956 -0.000137842 -3.17437e-05)
(-0.0226856 -0.000202691 -0.000553175)
(-0.0202386 -0.000406871 -0.000200157)
(-0.0216852 -0.000456487 -0.000407168)
(-0.0180864 -0.00109936 0.00128115)
(-0.0219759 -0.000397291 0.000696338)
(-0.0237517 -0.00040355 0.000836009)
(-0.0222435 -0.000246283 0.000509898)
(-0.0239096 -0.000136227 0.000178735)
(-0.022028 -0.000252541 5.54443e-05)
(-0.0238202 -0.000252247 -0.000388824)
(-0.0213648 -0.000702114 1.63545e-05)
(-0.0226636 -0.000790028 -9.04774e-05)
(-0.0189274 -0.00256805 0.00166394)
(-0.0237736 -0.000443199 0.000668785)
(-0.0253616 -0.000463888 0.000702396)
(-0.0243903 -0.000312086 0.000561107)
(-0.0258555 -0.00020724 0.000360851)
(-0.0244334 -0.000301275 0.000307704)
(-0.0260163 -0.000343693 3.03782e-05)
(-0.0237562 -0.000972477 0.000414521)
(-0.025436 -0.00122018 0.000637049)
(-0.0204945 -0.0033274 0.00326646)
(-0.017065 8.7077e-05 0.000637007)
(-0.0175692 0.000187803 0.000742979)
(-0.0146893 1.08432e-05 0.000690057)
(-0.0186896 -3.90697e-05 0.000288142)
(-0.0165784 -0.000146843 0.000168604)
(-0.019215 -0.000227228 -0.000197061)
(-0.0167331 -0.00013391 -4.98015e-05)
(-0.0187121 -1.54571e-05 -0.000524046)
(-0.0163916 -0.000324996 0.000797514)
(-0.0185844 -0.000568145 0.000512356)
(-0.0199699 -0.000611522 0.000547173)
(-0.017273 0.000233467 0.000548759)
(-0.0199239 0.000440792 0.000280988)
(-0.0175341 -2.62438e-05 0.000179566)
(-0.0200841 -0.00015702 -0.000210342)
(-0.0178711 -0.000266198 -0.000104408)
(-0.0195183 -0.000246528 -0.00035048)
(-0.0168146 -0.000868491 0.000823822)
(-0.019853 -0.00048316 0.00048134)
(-0.0218035 -0.000635295 0.000494262)
(-0.0195533 -0.00020366 0.000451243)
(-0.0213842 -2.70164e-05 0.000263773)
(-0.0190836 -0.00015692 0.000225864)
(-0.0213737 -1.37557e-05 -7.16719e-05)
(-0.0191343 -0.000449487 5.61673e-05)
(-0.0204927 -0.000522449 -5.79764e-05)
(-0.0175394 -0.0017836 0.000822172)
(-0.0218701 -0.000549997 0.000516659)
(-0.0235157 -0.00070826 0.000508806)
(-0.0223801 -0.000365806 0.000478186)
(-0.023684 -0.000140053 0.000372426)
(-0.0221555 -0.000170802 0.000371512)
(-0.023591 -0.000113853 0.000191148)
(-0.0213694 -0.000717579 0.000414631)
(-0.0227201 -0.000819359 0.00032772)
(-0.018594 -0.00228959 0.00144135)
)
;

boundaryField
{
    inlet
    {
        type            calculated;
        value           nonuniform 0();
    }
    outlet
    {
        type            calculated;
        value           nonuniform List<vector> 
12
(
(-0.00939062 -0.00374724 0.00538028)
(-0.00659976 0.00197947 0.00223316)
(-0.00747668 -0.00893903 -0.000878467)
(-0.0161901 -0.0112766 0.0133642)
(-0.00719089 -0.00751249 0.014623)
(-0.00530475 -0.000916347 0.00754581)
(-0.0053798 -0.0132809 0.00767295)
(-0.0107898 -0.0159673 0.0236944)
(-0.00491825 -0.00227171 0.00567443)
(-0.00581637 -0.000448949 0.00468218)
(-0.0046455 -0.0037014 0.000131182)
(-0.00465911 -0.00616993 0.00358404)
)
;
    }
    wall
    {
        type            calculated;
        value           nonuniform List<vector> 
63
(
(-2.1228e-06 9.14562e-07 2.73462e-06)
(-3.2163e-06 2.2267e-07 1.87637e-06)
(-4.15492e-06 -4.61851e-07 1.3584e-06)
(-4.61004e-06 -3.22483e-07 -1.07421e-07)
(-2.0462e-06 1.15099e-06 1.14248e-06)
(-3.16661e-06 9.74471e-07 1.39117e-06)
(-1.08375e-06 1.38978e-07 1.36559e-06)
(-5.70682e-06 1.63563e-06 1.07379e-06)
(-1.5641e-06 1.97317e-06 1.06489e-06)
(-3.25393e-06 1.61327e-06 1.48917e-06)
(-4.3187e-06 2.47558e-06 1.89417e-06)
(-6.26864e-06 -4.35222e-06 2.76518e-06)
(-1.63557e-06 1.74596e-06 3.53248e-06)
(-1.79021e-06 1.92393e-06 2.83968e-06)
(-4.53487e-06 1.62655e-06 2.01085e-06)
(-5.91044e-06 7.73892e-07 1.77481e-06)
(-1.44116e-06 -1.60375e-06 9.53197e-08)
(-2.6147e-06 -1.1978e-06 -7.55037e-08)
(-4.46802e-06 -4.49027e-07 6.96753e-07)
(-7.34879e-06 1.9632e-07 1.88853e-06)
(-2.31788e-06 -1.46263e-06 4.79992e-07)
(-2.9865e-06 -1.22439e-06 4.30868e-07)
(-3.16148e-06 -1.6854e-06 2.73036e-06)
(-4.25846e-06 -3.59421e-07 2.09949e-06)
(-1.60409e-06 -6.2183e-07 1.14163e-06)
(-1.73301e-06 -7.65348e-08 2.14385e-06)
(-2.10998e-06 7.86134e-08 3.81155e-06)
(-1.76514e-06 8.07295e-07 1.763e-07)
(-1.68527e-06 4.53671e-08 1.38321e-06)
(-1.22194e-06 2.50052e-07 2.39918e-06)
(-2.87846e-07 -4.9202e-07 1.88983e-06)
(-1.12408e-06 -3.95646e-07 1.06392e-06)
(-3.73871e-07 4.2305e-07 9.71726e-07)
(-3.94415e-07 -2.62673e-07 9.2209e-07)
(-3.54902e-07 -1.69139e-06 1.20616e-06)
(-2.59357e-07 3.48467e-06 1.03353e-07)
(-4.61004e-06 -3.22483e-07 -1.07421e-07)
(-3.8391e-06 -3.31153e-09 1.26564e-06)
(-2.08169e-06 -9.02095e-08 1.58622e-06)
(-5.70682e-06 1.63563e-06 1.07379e-06)
(-5.66462e-06 1.05026e-06 1.94992e-06)
(-3.45807e-06 1.74566e-07 1.95981e-06)
(-6.26864e-06 -4.35222e-06 2.76518e-06)
(-5.37921e-06 2.8492e-08 1.83452e-06)
(-4.34163e-06 3.62032e-07 2.19805e-06)
(-5.91044e-06 7.73892e-07 1.77481e-06)
(-5.0608e-06 5.84791e-07 1.46408e-06)
(-2.69819e-06 5.36781e-07 1.20399e-06)
(-7.34879e-06 1.9632e-07 1.88853e-06)
(-4.42259e-06 -2.96375e-07 6.29341e-07)
(-3.62667e-06 -9.79246e-07 6.52529e-07)
(-4.25846e-06 -3.59421e-07 2.09949e-06)
(-3.58773e-06 -2.39764e-07 8.36509e-07)
(-2.70413e-06 5.81445e-07 5.49819e-07)
(-1.76514e-06 8.07295e-07 1.763e-07)
(-3.25525e-06 -4.90243e-08 -4.75502e-07)
(-2.3242e-06 -2.4958e-08 1.15461e-07)
(-1.12408e-06 -3.95646e-07 1.06392e-06)
(-1.98011e-06 1.99706e-07 3.1411e-07)
(-1.41419e-06 -1.68955e-07 -1.51303e-07)
(-2.59357e-07 3.48467e-06 1.03353e-07)
(-5.12238e-07 6.70323e-09 -1.71068e-07)
(-1.71584e-07 1.06137e-07 -2.10877e-07)
)
;
    }
    procBoundary3to1
    {
        type            processor;
        value           nonuniform List<vector> 
27
(
(-0.0236232 0.000316499 0.000805122)
(-0.0250733 0.000275029 0.000656682)
(-0.0240585 2.60706e-05 0.000409554)
(-0.0252979 -0.000143923 0.00014138)
(-0.0236981 -9.6991e-05 -7.03505e-05)
(-0.0246751 -0.000170975 -0.000325086)
(-0.0221793 5.93527e-05 -0.000282014)
(-0.0226482 -8.59488e-05 -0.000340037)
(-0.0189084 0.00059968 0.000458653)
(-0.0203269 0.000352194 0.000864682)
(-0.0222849 0.00032002 0.000597828)
(-0.0206308 -3.59936e-05 0.00034663)
(-0.0225828 -0.0002254 -2.60453e-05)
(-0.0205153 -0.000140712 -9.34293e-05)
(-0.0223746 -0.00021719 -0.000544648)
(-0.0198999 -2.96014e-05 -0.000290519)
(-0.0210498 -0.00017289 -0.000633477)
(-0.017928 0.000591042 0.000679685)
(-0.0167684 0.000783341 0.000872563)
(-0.0191914 0.000711334 0.000811039)
(-0.0169266 -0.000352932 0.000548514)
(-0.0197778 -0.000577384 0.000169608)
(-0.0174226 -0.00020244 0.000134477)
(-0.0198725 -0.00025418 -0.000147438)
(-0.0175742 -1.69969e-06 -0.000220845)
(-0.0190076 -0.000130839 -0.000617986)
(-0.0167937 0.000727618 0.000549193)
)
;
    }
    procBoundary3to2
    {
        type            processor;
        value           nonuniform List<vector> 
12
(
(-0.0240107 -9.08122e-05 0.000750994)
(-0.024226 -0.000267391 0.000652347)
(-0.0250589 -0.000361969 0.000588113)
(-0.0261777 -0.000414005 0.000556279)
(-0.0218143 -0.000149753 0.00101661)
(-0.0223338 -0.000295269 0.000809026)
(-0.0232861 -0.000394221 0.00074966)
(-0.0246235 -0.000451873 0.000724013)
(-0.0195648 -0.000287935 0.000597294)
(-0.0206022 -0.000457337 0.000512069)
(-0.0216301 -0.000462894 0.000509149)
(-0.0230423 -0.000521132 0.000542639)
)
;
    }
    procBoundary3to7
    {
        type            processor;
        value           nonuniform List<vector> 
36
(
(-0.017052 1.44397e-05 2.87631e-05)
(-0.0185724 -0.000110923 -4.70976e-05)
(-0.0155635 -1.71717e-05 0.000861536)
(-0.0182982 1.32072e-05 0.000804348)
(-0.0157262 -7.87035e-05 0.000324106)
(-0.0181631 -0.000150768 -0.000105044)
(-0.0154122 -7.67859e-06 -6.30276e-05)
(-0.0173883 0.000261908 -0.000368668)
(-0.0153909 -8.69723e-05 0.000156857)
(-0.0179734 -0.000351572 0.000240846)
(-0.0196439 -0.000504836 0.000114287)
(-0.0173769 -0.000117273 0.000459957)
(-0.0192744 4.4522e-05 0.00041543)
(-0.0170683 -0.000105368 0.000258204)
(-0.0190501 -0.000157088 2.78249e-05)
(-0.0168877 -0.000273815 -2.94356e-06)
(-0.0182677 -0.000118521 -0.000282277)
(-0.01597 -0.00106095 0.000378085)
(-0.0193073 -0.00041445 0.000303838)
(-0.021054 -0.000480507 0.00021961)
(-0.0192397 -0.000284686 0.000404176)
(-0.0208653 -0.000174595 0.000348456)
(-0.0188896 -0.000247812 0.000350596)
(-0.0206414 -0.000200549 0.000198617)
(-0.0185084 -0.000609082 0.000184377)
(-0.0197921 -0.000507912 -0.000113907)
(-0.0169013 -0.00211438 0.000516009)
(-0.021111 -0.000456344 0.000412844)
(-0.0226473 -0.000525759 0.000370672)
(-0.021371 -0.000360463 0.00047259)
(-0.022778 -0.000224548 0.000432933)
(-0.021184 -0.000265738 0.000486356)
(-0.0226694 -0.000245995 0.000329898)
(-0.0204899 -0.000675781 0.000464458)
(-0.0218649 -0.00072052 9.04018e-05)
(-0.0179362 -0.0020443 0.000714846)
)
;
    }
}


// ************************************************************************* //
