/*--------------------------------*- C++ -*----------------------------------*\
| =========                 |                                                 |
| \\      /  F ield         | OpenFOAM: The Open Source CFD Toolbox           |
|  \\    /   O peration     | Version:  4.x                                   |
|   \\  /    A nd           | Web:      www.OpenFOAM.org                      |
|    \\/     M anipulation  |                                                 |
\*---------------------------------------------------------------------------*/
FoamFile
{
    version     2.0;
    format      ascii;
    class       volVectorField;
    location    "27.5";
    object      DDtUrel;
}
// * * * * * * * * * * * * * * * * * * * * * * * * * * * * * * * * * * * * * //

dimensions      [0 1 -2 0 0 0 0];

internalField   nonuniform List<vector> 
87
(
(7.98233e-05 6.59556e-06 1.34498e-05)
(0.000110591 -1.18728e-05 1.30264e-05)
(8.9128e-05 -2.30999e-06 8.08553e-06)
(0.0001548 -1.47355e-05 9.39816e-06)
(0.00014035 -1.65357e-05 9.73118e-06)
(0.000109808 -9.33755e-06 1.78659e-06)
(0.00162021 4.20102e-05 -6.59973e-05)
(0.000917685 1.85553e-05 -3.50461e-05)
(0.000526972 4.43876e-06 -1.78976e-05)
(0.000310071 -5.16194e-06 -4.95946e-06)
(0.000189087 -5.55858e-06 8.89515e-07)
(0.0001234 -9.01923e-06 4.12927e-06)
(9.58012e-05 -4.58289e-06 4.97416e-06)
(6.15061e-05 -8.82167e-07 3.23502e-06)
(3.69857e-05 -1.43701e-06 3.68188e-06)
(0.00166094 8.48861e-05 -6.58414e-05)
(0.000962934 3.36154e-05 -3.73917e-05)
(0.000563587 8.91915e-06 -2.04703e-05)
(0.000340306 -8.38478e-06 -7.41535e-06)
(0.0002091 -7.78946e-06 -3.70434e-07)
(0.000139948 -6.50454e-06 2.71371e-06)
(9.806e-05 -1.04922e-05 3.37324e-06)
(7.29091e-05 -1.89509e-05 2.94667e-06)
(5.19921e-05 -7.25916e-06 2.04141e-06)
(0.00171591 9.0335e-05 -6.97344e-05)
(0.00102229 4.22327e-05 -4.08937e-05)
(0.000615078 1.17463e-05 -2.44116e-05)
(0.000383484 -5.90404e-06 -9.89867e-06)
(0.000240206 -9.18353e-06 -1.95575e-06)
(0.000166917 -1.11776e-05 2.07748e-06)
(0.000119258 -1.38327e-05 7.10217e-07)
(9.53004e-05 -1.77363e-05 8.14849e-07)
(6.22105e-05 -1.07128e-05 -1.75903e-06)
(0.00165207 4.45598e-05 1.95765e-06)
(0.000949838 1.86841e-05 -1.09393e-05)
(0.000547827 3.91168e-06 -1.14127e-05)
(0.00032704 -5.80642e-06 -1.08343e-05)
(0.000193499 -7.62674e-06 -4.98805e-06)
(0.000125351 -1.08647e-05 7.40761e-07)
(7.88276e-05 -7.81465e-06 -2.71466e-06)
(4.94681e-05 -6.65248e-06 -1.36047e-05)
(2.77088e-05 -3.45989e-06 -5.37988e-06)
(0.00169393 8.23348e-05 -1.75264e-06)
(0.000995015 3.29893e-05 -1.20662e-05)
(0.000588768 7.73112e-06 -1.34736e-05)
(0.000360461 -6.91456e-06 -1.06611e-05)
(0.000219205 -8.53916e-06 -6.58087e-06)
(0.000143469 -1.17889e-05 -5.4052e-06)
(9.09878e-05 -1.19868e-05 -6.08917e-06)
(7.00251e-05 -1.2181e-05 -9.18173e-06)
(4.30937e-05 -7.47284e-06 -6.79198e-06)
(0.00174356 8.57995e-05 -1.01641e-05)
(0.00105242 4.00963e-05 -1.5002e-05)
(0.000640913 1.11183e-05 -1.39387e-05)
(0.000405925 -4.89169e-06 -1.02431e-05)
(0.000256741 -9.28681e-06 -8.85617e-06)
(0.000175887 -1.29739e-05 -8.15068e-06)
(0.000117314 -1.51542e-05 -9.37732e-06)
(9.46722e-05 -1.72322e-05 -1.09657e-05)
(6.49347e-05 -1.43931e-05 -1.07658e-05)
(0.00169688 4.33573e-05 1.41098e-05)
(0.000995037 1.57291e-05 -3.73773e-06)
(0.000585065 2.37922e-06 -9.62582e-06)
(0.000356278 -7.36508e-06 -1.03573e-05)
(0.000212204 -9.52366e-06 -6.90352e-06)
(0.000137234 -1.28972e-05 -4.81873e-06)
(8.53882e-05 -1.05218e-05 -6.6229e-06)
(5.84313e-05 -8.63978e-06 -8.90933e-06)
(2.37814e-05 -6.20613e-06 -1.08786e-05)
(0.00173561 7.58574e-05 8.69553e-06)
(0.00103942 3.20747e-05 -6.18038e-06)
(0.000628201 8.37713e-06 -1.12952e-05)
(0.000394991 -6.75846e-06 -1.13423e-05)
(0.000244669 -9.83133e-06 -8.10958e-06)
(0.00016025 -1.34274e-05 -7.56508e-06)
(0.000100205 -1.53028e-05 -1.08498e-05)
(7.46729e-05 -1.48878e-05 -1.31859e-05)
(4.22401e-05 -6.73097e-06 -1.56957e-05)
(0.00177492 7.89856e-05 7.29034e-07)
(0.00108794 3.84025e-05 -8.88362e-06)
(0.000676291 1.22015e-05 -1.11341e-05)
(0.000442491 -4.3074e-06 -1.1699e-05)
(0.000287042 -1.13826e-05 -1.09775e-05)
(0.000195906 -1.44305e-05 -9.83945e-06)
(0.000129411 -1.65733e-05 -1.37599e-05)
(9.84314e-05 -1.89021e-05 -1.67676e-05)
(6.46126e-05 -1.53081e-05 -1.96439e-05)
)
;

boundaryField
{
    inlet
    {
        type            calculated;
        value           nonuniform List<vector> 9((0.0036974 0.000156935 -0.000174753) (0.00376134 0.000383145 -0.000153076) (0.00403502 0.000282564 -0.000179588) (0.0038054 0.000205413 0.000233196) (0.0039076 0.00035932 0.000210242) (0.00412348 0.000251494 0.000128773) (0.00404182 0.0001999 0.00012518) (0.00411719 0.000287848 9.66681e-05) (0.00421775 0.000199166 4.08097e-05));
    }
    outlet
    {
        type            calculated;
        value           nonuniform 0();
    }
    wall
    {
        type            calculated;
        value           nonuniform List<vector> 
57
(
(0.00404182 0.0001999 0.00012518)
(0.00411719 0.000287848 9.66681e-05)
(0.00421775 0.000199166 4.08097e-05)
(0.000101558 -1.91686e-05 -2.87705e-05)
(0.000239665 -5.14071e-06 -1.90172e-05)
(0.000453628 5.98222e-06 -2.23051e-05)
(2.25633e-05 -1.07645e-05 -2.5197e-05)
(0.000157513 -1.07583e-05 -2.6702e-05)
(0.000355653 -4.18368e-06 -7.55723e-06)
(7.4735e-05 -5.37625e-05 -2.65939e-05)
(0.000205419 -5.10191e-05 -2.60826e-05)
(0.00044613 -2.55643e-05 -2.14814e-05)
(-4.97e-05 -3.17455e-05 -8.50227e-06)
(7.89222e-05 -8.29015e-06 8.97592e-07)
(0.000301214 -3.55947e-05 -2.76479e-05)
(9.39082e-06 -6.44518e-05 -1.89007e-06)
(9.4046e-05 -2.25895e-05 -3.32622e-06)
(0.000286675 -2.49217e-05 -5.63052e-06)
(-3.63052e-05 -2.34172e-05 -7.02676e-06)
(-2.7385e-05 -4.36629e-05 -3.26509e-05)
(0.000140901 -2.42286e-05 -3.91165e-05)
(1.83101e-05 -5.39101e-06 1.01298e-05)
(8.82617e-05 -5.51261e-05 -2.71136e-05)
(0.000191864 -5.55413e-05 -4.59627e-05)
(-0.000170358 -3.74419e-06 -2.96125e-05)
(-4.41725e-05 3.98192e-05 -4.31043e-05)
(6.28602e-05 -4.10583e-05 -5.66012e-05)
(0.00403502 0.000282564 -0.000179588)
(0.00412348 0.000251494 0.000128773)
(0.00421775 0.000199166 4.08097e-05)
(0.000137546 1.68105e-05 -1.42843e-05)
(0.000305936 6.29916e-06 1.73887e-05)
(0.000453628 5.98222e-06 -2.23051e-05)
(6.55577e-05 -2.46542e-05 -3.99626e-05)
(0.000199892 -2.57857e-05 -4.61322e-07)
(0.000355653 -4.18368e-06 -7.55723e-06)
(7.56808e-05 -5.69146e-05 -6.73771e-06)
(0.000224039 -3.50194e-05 1.86307e-06)
(0.00044613 -2.55643e-05 -2.14814e-05)
(-4.42736e-05 -1.80639e-05 -2.3777e-06)
(0.000108246 -7.78594e-06 -2.83098e-05)
(0.000301214 -3.55947e-05 -2.76479e-05)
(1.54464e-05 -1.01867e-05 7.58448e-06)
(0.000169143 -2.25302e-05 -3.65332e-05)
(0.000286675 -2.49217e-05 -5.63052e-06)
(0.000106199 -3.53485e-05 -2.58954e-05)
(4.5302e-06 -1.32922e-05 -7.96767e-06)
(3.84994e-05 -2.49421e-05 -3.58207e-05)
(0.000140901 -2.42286e-05 -3.91165e-05)
(0.00028169 -5.57278e-05 2.01855e-05)
(5.72479e-05 -5.46994e-05 1.17419e-05)
(0.000179741 -4.20202e-05 -4.05849e-05)
(0.000191864 -5.55413e-05 -4.59627e-05)
(4.91993e-05 -1.66807e-05 -5.79699e-05)
(-0.00015371 -1.55179e-06 -3.96e-07)
(5.36024e-05 -3.92169e-05 -1.63981e-05)
(6.28602e-05 -4.10583e-05 -5.66012e-05)
)
;
    }
    procBoundary6to0
    {
        type            processor;
        value           uniform (8.68939e-05 9.3937e-06 1.89648e-05);
    }
    procBoundary6to2
    {
        type            processor;
        value           nonuniform List<vector> 
32
(
(0.000132439 1.13795e-05 1.73029e-05)
(0.000150888 -9.16777e-06 2.27961e-05)
(0.000135318 -1.26151e-06 1.51419e-05)
(0.000197534 -1.37715e-05 2.01472e-05)
(0.000185976 -1.67852e-05 2.06959e-05)
(0.000156799 -8.19396e-06 1.19644e-05)
(0.00162477 4.1488e-05 -0.000130665)
(0.000932539 1.97166e-05 -5.98096e-05)
(0.000541362 6.10098e-06 -2.39751e-05)
(0.000326275 -3.12454e-06 1.41743e-06)
(0.000204142 -4.08618e-06 7.50297e-06)
(0.000142573 -8.08054e-06 8.28333e-06)
(0.000106726 -2.41749e-06 1.34737e-05)
(9.5359e-05 2.31775e-06 2.3743e-05)
(9.5359e-05 2.31775e-06 2.3743e-05)
(9.5359e-05 2.31775e-06 2.3743e-05)
(0.00166644 8.17e-05 -0.000127504)
(0.000977464 3.51354e-05 -6.17031e-05)
(0.000579896 1.03605e-05 -2.69155e-05)
(0.000360953 -4.0243e-06 -2.16775e-06)
(0.000231227 -6.99114e-06 7.28241e-06)
(0.000168627 -1.0347e-05 1.41222e-05)
(0.000123234 -9.1135e-06 1.19948e-05)
(0.000123234 -9.1135e-06 1.19948e-05)
(0.000123234 -9.1135e-06 1.19948e-05)
(0.00171983 8.84414e-05 -0.000127862)
(0.00103749 4.2663e-05 -6.59032e-05)
(0.000634475 1.35215e-05 -3.16957e-05)
(0.000411482 -2.99567e-06 -6.14537e-06)
(0.000273689 -8.93951e-06 7.59702e-06)
(0.000207284 -1.3694e-05 1.55591e-05)
(0.000207284 -1.3694e-05 1.55591e-05)
)
;
    }
    procBoundary6to4
    {
        type            processor;
        value           nonuniform List<vector> 
27
(
(0.00160781 -1.56314e-05 -6.66944e-05)
(0.000903959 -4.04659e-06 -3.40348e-05)
(0.000515011 -2.41177e-06 -1.64824e-05)
(0.000299775 6.52097e-07 -3.94171e-06)
(0.000181646 9.27581e-09 2.76945e-06)
(0.000118988 -3.60565e-06 5.181e-06)
(8.50658e-05 2.0949e-06 7.85025e-06)
(6.65086e-05 1.08446e-05 1.03384e-05)
(5.2537e-05 4.34429e-06 7.64207e-06)
(0.00163716 -1.46314e-05 -4.1191e-07)
(0.000932856 -4.20829e-06 -6.97858e-06)
(0.000533721 -2.88576e-06 -1.01222e-05)
(0.000315493 -1.01579e-06 -8.39074e-06)
(0.000187914 -1.40763e-06 -3.55582e-06)
(0.000124995 -2.15566e-06 -2.33886e-06)
(8.10439e-05 -1.23732e-06 -2.13585e-07)
(6.45958e-05 -2.05695e-06 1.12255e-06)
(3.88321e-05 -3.1757e-06 5.82452e-07)
(0.00167991 -1.22539e-05 1.42424e-05)
(0.000978905 -7.31435e-06 1.41362e-06)
(0.000571291 -4.66236e-06 -6.54803e-06)
(0.000349306 -2.41174e-06 -8.06199e-06)
(0.000210989 -2.56663e-06 -5.72251e-06)
(0.000143505 -3.67053e-06 -4.57006e-06)
(9.05785e-05 -3.71459e-06 -5.73588e-06)
(7.24148e-05 -6.02044e-06 -6.50911e-06)
(4.16711e-05 -9.51683e-06 -4.44902e-06)
)
;
    }
    procBoundary6to7
    {
        type            processor;
        value           nonuniform List<vector> 
12
(
(7.4244e-05 1.23465e-05 1.61982e-05)
(9.32108e-05 1.41511e-06 9.916e-06)
(0.000118103 -6.49519e-06 3.39209e-08)
(2.96738e-05 1.2682e-06 7.78939e-06)
(4.05309e-05 8.92435e-08 2.45544e-06)
(5.79645e-05 -7.61806e-06 -3.21377e-06)
(1.60168e-05 1.76076e-06 -4.56603e-07)
(4.10777e-05 -6.39551e-06 -7.52353e-06)
(6.22652e-05 -1.30314e-05 -1.27646e-05)
(1.1165e-05 -3.44536e-06 -1.37306e-05)
(3.19645e-05 -4.60617e-06 -1.89934e-05)
(5.20849e-05 -1.27438e-05 -2.32485e-05)
)
;
    }
}


// ************************************************************************* //
