/*--------------------------------*- C++ -*----------------------------------*\
| =========                 |                                                 |
| \\      /  F ield         | OpenFOAM: The Open Source CFD Toolbox           |
|  \\    /   O peration     | Version:  4.x                                   |
|   \\  /    A nd           | Web:      www.OpenFOAM.org                      |
|    \\/     M anipulation  |                                                 |
\*---------------------------------------------------------------------------*/
FoamFile
{
    version     2.0;
    format      ascii;
    class       volScalarField;
    location    "27.5";
    object      Sm;
}
// * * * * * * * * * * * * * * * * * * * * * * * * * * * * * * * * * * * * * //

dimensions      [1 -3 -1 0 0 0 0];

internalField   nonuniform List<scalar> 
87
(
6.74243e-65
6.04498e-65
7.12996e-65
5.11501e-65
5.8125e-65
4.96e-65
1.03851e-64
7.59507e-65
4.96004e-65
7.44003e-65
9.37751e-65
6.1225e-65
7.36248e-65
6.50997e-65
8.52495e-65
5.81257e-65
7.90508e-65
6.43255e-65
8.83505e-65
7.05252e-65
7.82751e-65
7.0525e-65
8.60249e-65
7.59499e-65
4.96006e-65
7.20758e-65
5.42505e-65
6.12254e-65
7.59505e-65
8.75753e-65
6.51002e-65
6.66501e-65
7.51751e-65
7.67259e-65
7.67258e-65
7.75006e-65
7.67254e-65
5.34752e-65
7.05252e-65
6.27751e-65
5.89e-65
7.90499e-65
5.65757e-65
7.28508e-65
6.82006e-65
6.89755e-65
5.96754e-65
5.58002e-65
7.75002e-65
5.73501e-65
7.75001e-65
5.19257e-65
6.74257e-65
5.58005e-65
7.59506e-65
7.28505e-65
5.96754e-65
6.66504e-65
5.96753e-65
5.65753e-65
5.03756e-65
5.27006e-65
6.12256e-65
6.89755e-65
6.51004e-65
6.43253e-65
8.68003e-65
8.75752e-65
3.79751e-65
6.04508e-65
5.50256e-65
6.82007e-65
5.65755e-65
8.60256e-65
6.35504e-65
6.20003e-65
5.58002e-65
7.82753e-65
4.41756e-65
6.27757e-65
6.12257e-65
6.43256e-65
4.96004e-65
8.21506e-65
4.80504e-65
5.19254e-65
6.04504e-65
)
;

boundaryField
{
    inlet
    {
        type            calculated;
        value           uniform 0;
    }
    outlet
    {
        type            calculated;
        value           nonuniform 0();
    }
    wall
    {
        type            calculated;
        value           uniform 0;
    }
    procBoundary6to0
    {
        type            processor;
        value           uniform 2.32496e-65;
    }
    procBoundary6to2
    {
        type            processor;
        value           nonuniform List<scalar> 
32
(
4.88244e-65
7.43996e-65
8.36994e-65
8.29251e-65
4.95999e-65
6.66499e-65
4.80505e-65
8.13757e-65
8.37005e-65
6.51002e-65
6.82e-65
5.88998e-65
6.27746e-65
7.74993e-65
7.74993e-65
7.74993e-65
6.89758e-65
6.89757e-65
8.37006e-65
5.81253e-65
7.20751e-65
6.89749e-65
8.36998e-65
8.36998e-65
8.36998e-65
5.27006e-65
6.51007e-65
6.27755e-65
7.13004e-65
5.50252e-65
6.35502e-65
6.35502e-65
)
;
    }
    procBoundary6to4
    {
        type            processor;
        value           nonuniform List<scalar> 
27
(
4.34005e-65
5.73505e-65
7.59505e-65
5.19252e-65
7.3625e-65
6.35499e-65
9.22246e-65
5.96746e-65
5.96745e-65
6.66508e-65
7.20757e-65
5.96754e-65
8.52505e-65
8.44753e-65
6.74251e-65
9.60999e-65
7.90498e-65
6.81998e-65
7.44009e-65
7.05258e-65
5.81255e-65
7.67255e-65
6.97504e-65
9.22253e-65
4.49501e-65
4.88251e-65
6.355e-65
)
;
    }
    procBoundary6to7
    {
        type            processor;
        value           nonuniform List<scalar> 
12
(
7.67242e-65
4.80497e-65
6.50999e-65
3.95247e-65
5.50249e-65
6.7425e-65
8.05999e-65
7.05251e-65
5.58003e-65
6.89751e-65
5.96753e-65
6.04504e-65
)
;
    }
}


// ************************************************************************* //
