/*--------------------------------*- C++ -*----------------------------------*\
| =========                 |                                                 |
| \\      /  F ield         | OpenFOAM: The Open Source CFD Toolbox           |
|  \\    /   O peration     | Version:  4.x                                   |
|   \\  /    A nd           | Web:      www.OpenFOAM.org                      |
|    \\/     M anipulation  |                                                 |
\*---------------------------------------------------------------------------*/
FoamFile
{
    version     2.0;
    format      ascii;
    class       volVectorField;
    location    "47.5";
    object      ddtUrel;
}
// * * * * * * * * * * * * * * * * * * * * * * * * * * * * * * * * * * * * * //

dimensions      [0 1 -2 0 0 0 0];

internalField   nonuniform List<vector> 
114
(
(5.62883e-09 -2.94102e-08 -4.04824e-09)
(1.15921e-08 -4.15184e-08 -5.79248e-09)
(1.7952e-08 -5.60196e-08 -7.84177e-09)
(2.42669e-08 -7.14203e-08 -9.99604e-09)
(2.9583e-08 -8.49645e-08 -1.18716e-08)
(3.26074e-08 -9.30304e-08 -1.29845e-08)
(2.91639e-09 -2.33566e-08 -3.20538e-09)
(8.41421e-09 -3.52091e-08 -4.9222e-09)
(1.53085e-08 -5.1236e-08 -7.23258e-09)
(2.3305e-08 -7.13021e-08 -1.00904e-08)
(3.17984e-08 -9.36246e-08 -1.32582e-08)
(3.93707e-08 -1.14133e-07 -1.61594e-08)
(4.40635e-08 -1.26784e-07 -1.7932e-08)
(2.43322e-09 -1.84607e-08 -2.55823e-09)
(6.77312e-09 -2.98117e-08 -4.20556e-09)
(1.34796e-08 -4.68534e-08 -6.6765e-09)
(2.27755e-08 -7.12661e-08 -1.02061e-08)
(3.46937e-08 -1.03727e-07 -1.48773e-08)
(4.84922e-08 -1.42126e-07 -2.03997e-08)
(6.17491e-08 -1.79514e-07 -2.5787e-08)
(7.03998e-08 -2.03811e-07 -2.92859e-08)
(6.77775e-11 -9.58598e-09 -1.31776e-09)
(1.63799e-09 -1.53442e-08 -2.11467e-09)
(4.96654e-09 -2.38038e-08 -3.32488e-09)
(9.85849e-09 -3.56818e-08 -5.04105e-09)
(1.6113e-08 -5.15548e-08 -7.32795e-09)
(2.35137e-08 -7.11162e-08 -1.0141e-08)
(3.13489e-08 -9.24873e-08 -1.32137e-08)
(3.82344e-08 -1.11724e-07 -1.60309e-08)
(4.23763e-08 -1.23419e-07 -1.76941e-08)
(1.04877e-09 -1.08537e-08 -1.5117e-09)
(3.15654e-09 -1.7749e-08 -2.48152e-09)
(7.03203e-09 -2.82862e-08 -3.99133e-09)
(1.29554e-08 -4.37734e-08 -6.22451e-09)
(2.10583e-08 -6.54801e-08 -9.35328e-09)
(3.12979e-08 -9.36644e-08 -1.34144e-08)
(4.29064e-08 -1.26225e-07 -1.81024e-08)
(5.38075e-08 -1.57216e-07 -2.25997e-08)
(6.07469e-08 -1.77001e-07 -2.54198e-08)
(2.55869e-09 -1.3286e-08 -1.87665e-09)
(5.54924e-09 -2.24711e-08 -3.18582e-09)
(1.07887e-08 -3.72075e-08 -5.31848e-09)
(1.91032e-08 -6.03321e-08 -8.65767e-09)
(3.14161e-08 -9.49183e-08 -1.36474e-08)
(4.83539e-08 -1.43083e-07 -2.06044e-08)
(6.92787e-08 -2.03018e-07 -2.92695e-08)
(9.06559e-08 -2.64603e-07 -3.82007e-08)
(1.05267e-07 -3.06761e-07 -4.4285e-08)
(4.31843e-09 -1.65997e-08 -2.37655e-09)
(8.51097e-09 -2.9047e-08 -4.18001e-09)
(1.94927e-09 -1.06859e-08 -1.50889e-09)
(4.04745e-09 -1.72313e-08 -2.43576e-09)
(7.55556e-09 -2.70523e-08 -3.84435e-09)
(1.27474e-08 -4.1231e-08 -5.88873e-09)
(1.97655e-08 -6.05975e-08 -8.67744e-09)
(2.84555e-08 -8.49821e-08 -1.21961e-08)
(3.80023e-08 -1.12201e-07 -1.61456e-08)
(4.66462e-08 -1.37214e-07 -1.98157e-08)
(5.21921e-08 -1.52698e-07 -2.21049e-08)
(2.67173e-09 -1.22073e-08 -1.73366e-09)
(5.30042e-09 -2.01761e-08 -2.86935e-09)
(9.66585e-09 -3.26424e-08 -4.65778e-09)
(1.64071e-08 -5.15138e-08 -7.37943e-09)
(2.60466e-08 -7.87054e-08 -1.12975e-08)
(3.88051e-08 -1.1506e-07 -1.6551e-08)
(5.39056e-08 -1.58419e-07 -2.2832e-08)
(6.86986e-08 -2.01137e-07 -2.90511e-08)
(7.84583e-08 -2.29364e-07 -3.31605e-08)
(3.97556e-09 -1.51594e-08 -2.16557e-09)
(7.62619e-09 -2.6014e-08 -3.72601e-09)
(1.38444e-08 -4.395e-08 -6.31301e-09)
(2.39577e-08 -7.29383e-08 -1.0494e-08)
(3.95682e-08 -1.17878e-07 -1.69685e-08)
(6.21152e-08 -1.83033e-07 -2.63835e-08)
(9.14737e-08 -2.67954e-07 -3.86906e-08)
(1.23225e-07 -3.6e-07 -5.20611e-08)
(1.4615e-07 -4.26689e-07 -6.17205e-08)
(5.68262e-09 -1.9233e-08 -2.77328e-09)
(1.07974e-08 -3.42951e-08 -4.95204e-09)
(1.98671e-08 -6.0641e-08 -8.76574e-09)
(3.55351e-08 -1.06168e-07 -1.53264e-08)
(2.75032e-09 -1.12944e-08 -1.61283e-09)
(5.09349e-09 -1.8314e-08 -2.61433e-09)
(8.76576e-09 -2.89727e-08 -4.1463e-09)
(1.42736e-08 -4.45536e-08 -6.38948e-09)
(2.18545e-08 -6.60761e-08 -9.48797e-09)
(3.13959e-08 -9.35005e-08 -1.34505e-08)
(4.20555e-08 -1.24508e-07 -1.79703e-08)
(5.16343e-08 -1.53392e-07 -2.2223e-08)
(5.82231e-08 -1.71407e-07 -2.51721e-08)
(3.42911e-09 -1.2968e-08 -1.8583e-09)
(6.33534e-09 -2.1593e-08 -3.09266e-09)
(1.10332e-08 -3.52581e-08 -5.05382e-09)
(1.83479e-08 -5.6222e-08 -8.07779e-09)
(2.90328e-08 -8.68819e-08 -1.25005e-08)
(4.34982e-08 -1.28609e-07 -1.85383e-08)
(6.10386e-08 -1.79482e-07 -2.59178e-08)
(7.86527e-08 -2.30865e-07 -3.33905e-08)
(9.07917e-08 -2.65744e-07 -3.85296e-08)
(4.70843e-09 -1.62365e-08 -2.33554e-09)
(8.7299e-09 -2.81164e-08 -4.04533e-09)
(1.55766e-08 -4.80404e-08 -6.91791e-09)
(2.68798e-08 -8.0736e-08 -1.16389e-08)
(4.47295e-08 -1.32462e-07 -1.91054e-08)
(7.12654e-08 -2.09517e-07 -3.02496e-08)
(1.0703e-07 -3.1354e-07 -4.5308e-08)
(1.47328e-07 -4.30879e-07 -6.23286e-08)
(1.77964e-07 -5.19967e-07 -7.52764e-08)
(6.43737e-09 -2.07791e-08 -3.00008e-09)
(1.21144e-08 -3.74614e-08 -5.41219e-09)
(2.22833e-08 -6.71197e-08 -9.70368e-09)
(4.02264e-08 -1.19356e-07 -1.72469e-08)
(7.10328e-08 -2.09172e-07 -3.02035e-08)
(1.2171e-07 -3.57011e-07 -5.15506e-08)
)
;

boundaryField
{
    inlet
    {
        type            calculated;
        value           nonuniform 0();
    }
    outlet
    {
        type            calculated;
        value           nonuniform List<vector> 
12
(
(-1.1956e-09 -3.38717e-10 1.39842e-10)
(-3.84263e-10 -5.2635e-10 5.04248e-10)
(-2.30549e-10 4.37984e-11 2.97378e-10)
(-5.75242e-10 -8.68113e-11 -3.42518e-10)
(-3.26395e-10 -3.79381e-10 4.22083e-10)
(-5.34986e-11 -2.23009e-10 3.29658e-10)
(1.71033e-10 -6.00885e-11 4.66305e-10)
(-3.33074e-10 2.3462e-10 -1.35221e-10)
(-1.16641e-10 -7.86867e-11 2.36582e-10)
(-2.91104e-09 1.64372e-09 -2.83104e-09)
(-7.0654e-11 -3.28398e-10 1.63431e-10)
(-3.66272e-10 1.2481e-10 -2.24653e-10)
)
;
    }
    wall
    {
        type            calculated;
        value           nonuniform List<vector> 
66
(
(-6.57657e-11 -3.16279e-12 3.74794e-12)
(-7.54593e-11 -4.15781e-12 9.39406e-12)
(-8.67753e-11 7.12603e-12 1.98147e-11)
(-1.04859e-10 1.34942e-11 6.50125e-12)
(5.49686e-10 -3.53635e-12 2.18481e-11)
(6.28119e-10 -1.69884e-11 2.06595e-11)
(1.28095e-10 -9.99428e-12 9.94068e-12)
(1.03459e-10 1.58084e-11 2.3091e-12)
(-3.90118e-10 4.42219e-11 -3.9889e-12)
(3.60467e-11 -7.57004e-11 8.60199e-11)
(-2.87334e-11 -3.00665e-11 3.04194e-11)
(-2.3e-10 6.30593e-11 7.98812e-12)
(-2.60788e-10 -7.9748e-12 -2.27428e-12)
(-2.34061e-10 -5.60776e-11 2.13529e-11)
(-3.49417e-12 -3.03398e-11 1.13319e-11)
(-2.03935e-10 -2.70368e-11 1.3468e-11)
(-1.9295e-11 -1.43148e-11 3.19495e-11)
(-2.19872e-10 -9.82767e-11 3.04181e-11)
(-1.79896e-10 -5.91546e-11 3.48e-11)
(-2.41513e-10 -3.463e-11 3.00447e-11)
(-6.27779e-10 -5.07429e-11 8.82713e-11)
(-3.9042e-10 -6.81479e-11 4.01097e-11)
(-2.59687e-10 -5.46756e-11 1.62219e-11)
(-2.29988e-10 -7.25186e-12 5.05093e-13)
(-4.62934e-10 3.37558e-11 -1.34667e-10)
(-6.80647e-10 5.69541e-11 -4.83953e-11)
(-3.34953e-10 -1.05594e-11 -2.67107e-11)
(-1.07625e-08 -4.18618e-10 5.72985e-10)
(-2.55794e-09 -3.44403e-10 3.43884e-10)
(-1.82125e-09 -9.06153e-11 2.65044e-10)
(-4.37235e-09 3.86191e-09 -6.28988e-09)
(3.35813e-10 2.27885e-10 -1.90964e-10)
(-6.37633e-10 1.82457e-10 -5.25644e-10)
(-4.02045e-10 2.02244e-12 -9.75783e-12)
(-1.07458e-10 1.34067e-12 1.00923e-11)
(-1.06271e-10 -3.30635e-12 2.11996e-12)
(-1.00079e-09 1.58034e-11 -6.47283e-12)
(-2.6894e-10 -1.56004e-11 1.26553e-11)
(2.27068e-10 -1.2536e-12 1.11259e-11)
(-2.60154e-10 -2.81201e-11 -1.5257e-11)
(-6.69347e-11 -2.87458e-11 3.42981e-11)
(-7.04866e-10 3.87182e-11 -2.08464e-11)
(4.78595e-10 6.45431e-11 -3.09348e-11)
(1.99721e-10 5.27146e-12 1.07261e-11)
(-2.39148e-10 -2.90603e-11 1.40386e-11)
(-1.74953e-10 -8.44924e-12 -3.27567e-13)
(-4.11555e-12 3.83735e-11 2.80713e-11)
(-8.55994e-11 -2.06927e-11 1.38323e-11)
(-3.57789e-11 -1.71027e-11 4.15561e-11)
(7.177e-12 -1.42588e-11 3.48673e-11)
(1.07336e-10 -2.72883e-11 1.29477e-10)
(1.95377e-10 5.80777e-12 -2.02862e-11)
(2.04555e-10 1.1393e-11 6.90426e-11)
(-2.91998e-10 -5.0724e-11 8.89458e-11)
(4.88527e-10 -7.57025e-11 1.77409e-10)
(2.87408e-10 -5.33659e-11 2.37377e-11)
(1.1339e-10 -2.47907e-11 9.69772e-12)
(-4.64165e-10 2.22051e-11 -1.37211e-10)
(4.33809e-10 -6.3172e-10 2.43946e-11)
(5.78039e-11 -3.01342e-10 -7.62311e-10)
(-1.15929e-09 -1.49213e-10 -1.73496e-10)
(-1.00664e-08 -3.39075e-10 5.20735e-10)
(-1.84839e-09 -2.95545e-10 6.53802e-11)
(-6.66751e-10 -7.1924e-11 -3.77781e-10)
(1.20248e-09 -4.23904e-11 2.31966e-10)
(-3.87874e-09 3.11262e-09 -5.89632e-09)
)
;
    }
    procBoundary5to1
    {
        type            processor;
        value           nonuniform List<vector> 
32
(
(-4.13598e-10 -2.36309e-08 -3.07259e-09)
(6.67066e-09 -3.25398e-08 -4.3736e-09)
(1.28987e-08 -4.28571e-08 -5.76397e-09)
(1.84471e-08 -5.34769e-08 -7.10253e-09)
(2.30818e-08 -6.25265e-08 -8.09733e-09)
(2.58366e-08 -6.78466e-08 -8.75157e-09)
(-3.6383e-09 -1.89044e-08 -2.40592e-09)
(2.8987e-09 -2.76535e-08 -3.71385e-09)
(9.67489e-09 -3.90075e-08 -5.36319e-09)
(1.64463e-08 -5.26725e-08 -7.25724e-09)
(2.29687e-08 -6.73123e-08 -9.23017e-09)
(2.85183e-08 -8.02497e-08 -1.09086e-08)
(3.19358e-08 -8.80481e-08 -1.19558e-08)
(-2.14528e-09 -1.5149e-08 -1.95186e-09)
(1.83907e-09 -2.36265e-08 -3.17434e-09)
(7.83855e-09 -3.57012e-08 -4.94568e-09)
(1.52268e-08 -5.21422e-08 -7.34088e-09)
(2.37528e-08 -7.2957e-08 -1.03088e-08)
(3.28604e-08 -9.64444e-08 -1.36305e-08)
(4.10912e-08 -1.18219e-07 -1.66803e-08)
(4.62777e-08 -1.3187e-07 -1.86013e-08)
(-3.7997e-09 -8.38056e-09 -1.06153e-09)
(-3.46414e-09 -1.31966e-08 -1.68874e-09)
(2.95165e-10 -2.0138e-08 -2.68549e-09)
(2.95165e-10 -2.0138e-08 -2.68549e-09)
(2.95165e-10 -2.0138e-08 -2.68549e-09)
(-1.98546e-09 -9.40865e-09 -1.22961e-09)
(-8.12554e-10 -1.51594e-08 -1.99979e-09)
(-8.12554e-10 -1.51594e-08 -1.99979e-09)
(-8.12554e-10 -1.51594e-08 -1.99979e-09)
(2.96773e-10 -1.13429e-08 -1.53512e-09)
(2.96773e-10 -1.13429e-08 -1.53512e-09)
)
;
    }
    procBoundary5to4
    {
        type            processor;
        value           nonuniform List<vector> 
12
(
(-4.39186e-10 -5.90046e-09 -8.22679e-10)
(1.24149e-10 -6.56874e-09 -9.20373e-10)
(1.0224e-09 -7.84147e-09 -1.10543e-09)
(2.0426e-09 -9.54656e-09 -1.36096e-09)
(8.39006e-10 -6.48102e-09 -9.28736e-10)
(1.24342e-09 -7.25684e-09 -1.04297e-09)
(1.96866e-09 -8.75006e-09 -1.26058e-09)
(2.88557e-09 -1.07917e-08 -1.55852e-09)
(1.4088e-09 -6.82054e-09 -9.84309e-10)
(1.77976e-09 -7.66539e-09 -1.10873e-09)
(2.45976e-09 -9.29326e-09 -1.34678e-09)
(3.34542e-09 -1.15236e-08 -1.67257e-09)
)
;
    }
    procBoundary5to7
    {
        type            processor;
        value           nonuniform List<vector> 
44
(
(5.59557e-09 -2.37716e-08 -3.32628e-09)
(1.12526e-08 -3.9578e-08 -5.61705e-09)
(2.03168e-08 -6.45341e-08 -9.25142e-09)
(3.38958e-08 -1.02384e-07 -1.47537e-08)
(5.28182e-08 -1.55972e-07 -2.25174e-08)
(7.65317e-08 -2.23835e-07 -3.23337e-08)
(1.011e-07 -2.94596e-07 -4.25724e-08)
(1.18141e-07 -3.43637e-07 -4.96653e-08)
(2.44171e-09 -1.3933e-08 -1.94637e-09)
(5.59557e-09 -2.37716e-08 -3.32628e-09)
(1.58613e-08 -5.04697e-08 -7.25248e-09)
(2.81534e-08 -8.55165e-08 -1.23467e-08)
(4.77279e-08 -1.41622e-07 -2.0481e-08)
(7.69616e-08 -2.25999e-07 -3.26903e-08)
(1.16406e-07 -3.40414e-07 -4.92229e-08)
(1.60615e-07 -4.68929e-07 -6.78315e-08)
(1.93617e-07 -5.64902e-07 -8.17071e-08)
(6.0481e-09 -2.05881e-08 -2.96223e-09)
(1.58613e-08 -5.04697e-08 -7.25248e-09)
(1.16391e-08 -3.70298e-08 -5.33806e-09)
(1.58613e-08 -5.04697e-08 -7.25248e-09)
(2.81534e-08 -8.55165e-08 -1.23467e-08)
(6.16855e-08 -1.81568e-07 -2.63157e-08)
(1.031e-07 -3.01736e-07 -4.37293e-08)
(1.6294e-07 -4.76225e-07 -6.89134e-08)
(2.35664e-07 -6.88466e-07 -9.95953e-08)
(2.94985e-07 -8.6161e-07 -1.24625e-07)
(7.49995e-09 -2.39689e-08 -3.4683e-09)
(1.43844e-08 -4.4137e-08 -6.3907e-09)
(2.71273e-08 -8.12274e-08 -1.17758e-08)
(6.16855e-08 -1.81568e-07 -2.63157e-08)
(5.04802e-08 -1.49096e-07 -2.16213e-08)
(6.16855e-08 -1.81568e-07 -2.63157e-08)
(1.031e-07 -3.01736e-07 -4.37293e-08)
(1.98705e-07 -5.80425e-07 -8.40573e-08)
(2.98694e-07 -8.72687e-07 -1.26261e-07)
(3.87637e-07 -1.13259e-06 -1.6381e-07)
(8.34879e-09 -2.60005e-08 -3.76739e-09)
(1.60388e-08 -4.85103e-08 -7.03135e-09)
(3.05412e-08 -9.07822e-08 -1.31634e-08)
(5.78566e-08 -1.70264e-07 -2.4695e-08)
(1.08953e-07 -3.19046e-07 -4.62533e-08)
(1.98705e-07 -5.80425e-07 -8.40573e-08)
(2.02691e-07 -5.92356e-07 -8.58211e-08)
)
;
    }
}


// ************************************************************************* //
