/*--------------------------------*- C++ -*----------------------------------*\
| =========                 |                                                 |
| \\      /  F ield         | OpenFOAM: The Open Source CFD Toolbox           |
|  \\    /   O peration     | Version:  4.x                                   |
|   \\  /    A nd           | Web:      www.OpenFOAM.org                      |
|    \\/     M anipulation  |                                                 |
\*---------------------------------------------------------------------------*/
FoamFile
{
    version     2.0;
    format      ascii;
    class       volVectorField;
    location    "47.5";
    object      GField;
}
// * * * * * * * * * * * * * * * * * * * * * * * * * * * * * * * * * * * * * //

dimensions      [1 -2 -1 0 0 0 0];

internalField   nonuniform List<vector> 
114
(
(90.9624 3.50015 0.596209)
(8.87011 0.742422 -0.888547)
(77.9432 1.53538 2.87445)
(2.78053e-05 5.85824e-06 -6.72407e-06)
(54.5077 -1.55655 6.26618)
(4.40551 1.49193 -0.29492)
(0.606046 -0.125087 -0.0922864)
(89.1315 3.53765 0.977787)
(1.21277 -0.33407 -0.309602)
(85.7388 3.65679 5.03663)
(4.93673 -1.45062 -2.17691)
(74.1912 8.50727 12.8311)
(19.7138 -2.90065 -16.1584)
(79.446 1.86409 0.246417)
(3.86051e-05 1.75914e-06 4.21297e-06)
(77.9932 0.700859 1.0059)
(3.69501e-05 -5.85106e-07 -4.52173e-06)
(75.1109 -1.1064 2.34671)
(3.47654e-05 1.35702e-06 -9.01843e-06)
(64.2422 -4.48638 3.70169)
(19.7046 0.610806 -1.73271)
(45.4351 -0.923432 0.701339)
(106.503 -1.01746 2.3131)
(43.7735 -1.27221 2.54264)
(110.358 0.34796 3.59207)
(39.5519 -2.79308 5.26556)
(115.481 2.67305 2.00792)
(31.4621 -6.58677 10.1312)
(126.659 6.90064 -3.00743)
(21.2199 -19.6788 23.3779)
(10.0551 -1.21774 0.186637)
(92.4522 -0.13435 0.752763)
(4.11185 -0.772762 0.200167)
(93.3088 1.77472 0.146827)
(2.40689 -0.728499 0.312067)
(92.8755 5.49271 -0.493197)
(9.07236 -4.82633 2.72598)
(88.3004 11.8305 -3.30389)
(27.7126 -29.1057 18.8223)
(7.26562e-05 -8.70137e-06 1.29852e-05)
(87.3364 0.926485 0.12333)
(3.88491e-05 -5.79862e-06 1.20705e-05)
(87.7049 0.820851 0.95792)
(2.237 -0.743991 0.690723)
(89.611 0.343324 2.05872)
(8.55093 -3.86542 3.6092)
(85.382 6.04951 -2.0961)
(19.7899 -9.99337 9.2413)
(3.70569e-05 -3.05028e-06 3.27509e-06)
(84.2417 -0.794319 -0.34265)
(41.9421 0.317241 -0.979015)
(101.117 0.273282 0.149494)
(39.3152 0.998515 -0.767712)
(102.942 1.08153 0.166552)
(35.8226 1.41681 0.35554)
(104.736 1.87235 -0.178388)
(27.6551 1.32749 3.53713)
(105.099 2.17563 -5.92676)
(14.0586 0.329688 14.3359)
(21.4578 -0.953161 -0.233804)
(94.4906 -0.235736 0.845948)
(17.7311 -1.18808 0.162171)
(96.717 1.42769 -0.320752)
(14.0281 -1.75166 0.931216)
(98.6983 5.37183 -2.51974)
(12.6796 -3.18315 3.12493)
(101.09 12.6626 -9.03539)
(15.6692 -12.2247 18.1544)
(3.94983 -0.155907 0.150557)
(88.5456 0.856892 -0.149493)
(3.7352e-05 3.23223e-07 6.03931e-06)
(86.6274 2.05487 -0.219932)
(3.54211e-05 -1.85168e-06 5.31884e-06)
(82.2962 2.04783 -1.09004)
(7.17014 -1.08635 2.72331)
(74.9324 1.96917 -5.3779)
(26.5333 -9.17503 29.1519)
(5.91092 -0.228893 0.513028)
(89.4239 0.774001 0.0137387)
(3.39028 -0.131975 0.565097)
(91.0418 0.466446 -0.342108)
(66.3731 -0.408027 2.21998)
(117.204 -0.468221 2.78988)
(69.1498 -0.200354 3.20138)
(125.149 -0.0411472 2.08114)
(69.1945 -1.31655 6.49128)
(140.455 0.663448 0.149198)
(63.3229 -5.23132 14.7319)
(174.906 3.23772 -7.29811)
(33.9043 -22.3601 39.4485)
(52.4778 -2.41624 1.15808)
(108.779 -1.64577 1.81988)
(53.3899 -3.11426 1.30078)
(114.549 -0.405598 0.389749)
(51.301 -4.64612 2.50558)
(122.451 2.11733 -2.3067)
(43.2692 -8.26489 5.98488)
(134.26 9.61521 -9.70772)
(19.917 -18.5979 13.703)
(44.3515 -1.59078 1.23116)
(102.962 -0.928041 1.61397)
(43.4438 -2.24645 2.06369)
(106.948 -0.459677 0.66315)
(42.6479 -3.11977 5.02399)
(114.557 0.937855 -2.65782)
(39.158 -4.78541 11.5406)
(133.353 4.63145 -11.9158)
(24.3166 -6.82554 29.9472)
(42.6371 -1.88774 0.709719)
(102.477 -1.39271 0.55838)
(40.8861 -2.81931 0.66749)
(105.387 -1.70052 -1.26028)
(37.4294 -4.67434 1.54885)
(110.924 -1.08955 -2.42099)
)
;

boundaryField
{
    inlet
    {
        type            calculated;
        value           nonuniform 0();
    }
    outlet
    {
        type            calculated;
        value           nonuniform List<vector> 
12
(
(9.66752 3.27392 -0.647178)
(43.3436 -6.37749 -35.5265)
(43.4872 1.34802 -3.82403)
(46.596 -43.212 51.3346)
(61.1877 -64.2637 41.5586)
(43.7591 -22.0972 20.4342)
(30.9529 0.725878 31.5634)
(34.5469 -26.9525 40.0261)
(59.1834 -20.4652 65.0243)
(74.4228 -49.0823 86.5928)
(43.8861 -40.9795 30.1939)
(53.9445 -15.1419 66.4355)
)
;
    }
    wall
    {
        type            calculated;
        value           uniform (0 0 0);
    }
    procBoundary5to1
    {
        type            processor;
        value           nonuniform List<vector> 
32
(
(116.881 2.21033 -3.91078)
(44.8491 1.93647 -10.3354)
(122.091 3.31356 0.198973)
(34.6869 0.759105 -16.835)
(127.996 4.18037 10.7248)
(19.7925 -1.26867 -29.3154)
(27.7743 -3.12846 -3.71602)
(108.048 0.759748 0.481601)
(26.6654 -5.65047 -6.61208)
(113.289 4.13629 3.62055)
(25.2194 -10.8116 -12.2242)
(120.402 12.9546 12.2516)
(19.7904 -25.0601 -26.2942)
(91.445 -0.0638536 0.466745)
(5.45941 -0.438637 -1.78616)
(91.9358 1.54572 0.26059)
(6.40827 -1.06929 -2.96794)
(91.7044 2.95556 1.97344)
(12.5109 -4.75907 -7.43)
(86.7935 8.87525 7.87952)
(27.5946 -22.1386 -16.6912)
(37.4805 0.360103 -1.37311)
(98.4801 1.67335 -0.515528)
(25.5308 1.26763 -1.31797)
(25.5308 1.26763 -1.31797)
(25.5308 1.26763 -1.31797)
(5.48069 -0.80351 -0.531588)
(89.4836 1.85756 -1.14474)
(89.4836 1.85756 -1.14474)
(89.4836 1.85756 -1.14474)
(3.37384e-05 2.74859e-07 3.87773e-06)
(3.37384e-05 2.74859e-07 3.87773e-06)
)
;
    }
    procBoundary5to4
    {
        type            processor;
        value           nonuniform List<vector> 
12
(
(102.836 -1.58373 0.621576)
(91.6845 -1.86783 0.870766)
(87.7254 0.428299 -0.554076)
(84.4892 0.100958 0.206579)
(100.079 -0.412252 0.464176)
(93.0505 -1.46826 1.23217)
(88.5753 0.193761 0.944846)
(88.3614 -0.163345 0.518765)
(111.315 -0.929285 3.01673)
(104.799 -2.02054 2.4238)
(100.246 -0.722912 2.60206)
(99.9855 -1.23337 1.51956)
)
;
    }
    procBoundary5to7
    {
        type            processor;
        value           nonuniform List<vector> 
44
(
(88.2242 1.1475 -0.339047)
(3.05335 0.67534 -0.933067)
(88.0639 1.61817 -0.134544)
(0.66541 0.207065 -0.285745)
(85.8367 2.22444 2.31232)
(0.109077 0.0472351 -0.0612355)
(73.9979 -3.89189 10.229)
(9.98793 4.15316 -5.24883)
(3.74711 0.42996 -0.700279)
(88.2242 1.1475 -0.339047)
(3.8109e-05 -4.65805e-06 3.40107e-06)
(83.8883 -1.21208 1.40089)
(3.37602e-05 -5.546e-06 1.97761e-06)
(82.4663 -0.493626 2.5799)
(3.03955e-05 -6.01742e-06 7.92193e-07)
(73.7942 5.86858 2.95067)
(17.656 -4.13919 4.51882)
(3.64519e-05 1.25471e-06 3.76526e-07)
(3.8109e-05 -4.65805e-06 3.40107e-06)
(81.8852 -0.472069 -0.0519903)
(3.8109e-05 -4.65805e-06 3.40107e-06)
(83.8883 -1.21208 1.40089)
(6.04614 -0.330589 1.76171)
(92.205 0.575905 -0.140769)
(12.0751 -0.705077 6.51182)
(87.254 -0.466426 -7.28183)
(26.5376 -2.02668 33.5952)
(1.28833 0.00362815 0.153936)
(86.542 0.431736 0.0559266)
(3.78785e-05 1.06024e-06 5.69324e-06)
(6.04614 -0.330589 1.76171)
(85.9232 -0.521962 0.591573)
(6.04614 -0.330589 1.76171)
(92.205 0.575905 -0.140769)
(34.2122 -9.96833 5.025)
(125.055 3.82254 -5.58372)
(22.3596 -20.358 18.0078)
(36.6646 -0.969495 0.554531)
(97.4205 -0.697889 -0.0456421)
(33.2511 -1.64187 0.375505)
(97.2255 -1.07424 -1.04378)
(29.5629 -2.69099 1.33754)
(34.2122 -9.96833 5.025)
(97.3691 -1.37797 -4.33264)
)
;
    }
}


// ************************************************************************* //
