/*--------------------------------*- C++ -*----------------------------------*\
| =========                 |                                                 |
| \\      /  F ield         | OpenFOAM: The Open Source CFD Toolbox           |
|  \\    /   O peration     | Version:  4.x                                   |
|   \\  /    A nd           | Web:      www.OpenFOAM.org                      |
|    \\/     M anipulation  |                                                 |
\*---------------------------------------------------------------------------*/
FoamFile
{
    version     2.0;
    format      ascii;
    class       volVectorField;
    location    "47.5";
    object      impParticleForces;
}
// * * * * * * * * * * * * * * * * * * * * * * * * * * * * * * * * * * * * * //

dimensions      [1 1 -2 0 0 0 0];

internalField   nonuniform List<vector> 
114
(
(0.00242218 2.53978e-05 -1.33978e-05)
(0.0023803 1.88141e-05 -8.94573e-06)
(0.00238128 1.29652e-05 -4.1873e-06)
(0.00232575 5.46015e-06 -1.49231e-06)
(0.0023036 -1.66438e-06 1.63539e-06)
(0.00222166 -1.06859e-05 -2.51823e-07)
(0.00242474 2.4732e-05 -1.83675e-05)
(0.00244173 2.22413e-05 -1.34986e-05)
(0.00240121 1.68837e-05 -8.85543e-06)
(0.00241527 1.27334e-05 -3.45213e-06)
(0.00235852 5.56189e-06 -1.91623e-06)
(0.00234165 2.29857e-08 1.38933e-06)
(0.00225005 -1.04285e-05 -3.75208e-06)
(0.00244847 1.9437e-05 -2.3349e-05)
(0.00241158 1.92108e-05 -1.83055e-05)
(0.00243641 1.74166e-05 -1.34361e-05)
(0.00239836 1.38977e-05 -9.16889e-06)
(0.00239716 1.06078e-05 -4.64948e-06)
(0.00234822 6.38512e-06 -2.67359e-06)
(0.00231833 2.42197e-06 -1.92568e-06)
(0.00224419 -3.42493e-06 -6.30218e-06)
(0.00239013 1.08142e-05 -2.05399e-05)
(0.00239684 1.49858e-05 -1.51673e-05)
(0.00238928 1.61658e-05 -1.00802e-05)
(0.002397 1.51187e-05 -4.74487e-06)
(0.00236935 1.18911e-05 5.07702e-07)
(0.00238611 8.61029e-06 6.45619e-06)
(0.00232473 9.75671e-07 1.32462e-05)
(0.00230507 -4.97454e-06 1.83571e-05)
(0.00221193 -1.78167e-05 2.76893e-05)
(0.00241749 9.4818e-06 -2.08906e-05)
(0.00242897 1.32918e-05 -1.59128e-05)
(0.00240851 1.44312e-05 -1.10258e-05)
(0.00242972 1.40218e-05 -5.80273e-06)
(0.00239074 1.11276e-05 -5.19171e-07)
(0.00240882 8.85228e-06 5.57525e-06)
(0.0023402 1.86778e-06 1.15707e-05)
(0.00233702 -2.88172e-06 1.89649e-05)
(0.0022416 -1.72875e-05 2.74126e-05)
(0.00239668 8.91735e-06 -2.14794e-05)
(0.00240577 1.14759e-05 -1.70432e-05)
(0.00238831 1.1928e-05 -1.24518e-05)
(0.00241528 1.13096e-05 -7.39098e-06)
(0.0023761 9.05143e-06 -2.43335e-06)
(0.0023884 6.71547e-06 3.7268e-06)
(0.00233196 2.64552e-06 9.45628e-06)
(0.00231317 -1.0402e-06 1.68866e-05)
(0.00223127 -8.82308e-06 2.3116e-05)
(0.0023898 8.47899e-06 -2.26015e-05)
(0.00239934 9.43812e-06 -1.86222e-05)
(0.00238404 4.34159e-06 -1.46983e-05)
(0.00240486 7.30004e-06 -9.90366e-06)
(0.00237915 8.84845e-06 -5.53162e-06)
(0.00239179 8.61164e-06 -1.47546e-07)
(0.0023718 6.89937e-06 5.66901e-06)
(0.00237589 4.01545e-06 1.22259e-05)
(0.00233076 -2.23101e-06 2.14158e-05)
(0.00232732 -9.13579e-06 2.97332e-05)
(0.00221675 -2.05425e-05 4.56105e-05)
(0.00240191 3.61674e-06 -1.47541e-05)
(0.00244109 6.05061e-06 -1.01394e-05)
(0.00240004 7.30748e-06 -6.11108e-06)
(0.00241985 7.36532e-06 -1.02525e-06)
(0.00239597 5.73213e-06 4.54405e-06)
(0.0024103 4.19103e-06 1.09424e-05)
(0.00236852 -1.72616e-06 2.00082e-05)
(0.00235224 -5.89331e-06 2.90564e-05)
(0.00223718 -1.94409e-05 4.57143e-05)
(0.00238563 4.04999e-06 -1.57096e-05)
(0.00241142 5.73137e-06 -1.19705e-05)
(0.00239158 6.0602e-06 -7.96825e-06)
(0.002404 5.676e-06 -3.37084e-06)
(0.00239222 4.01531e-06 2.1209e-06)
(0.00239884 2.27329e-06 8.56549e-06)
(0.00234933 -1.70587e-06 1.72632e-05)
(0.0023379 -6.23978e-06 2.97385e-05)
(0.00224697 -1.55e-05 4.8941e-05)
(0.00237594 4.68414e-06 -1.71918e-05)
(0.00242272 5.2238e-06 -1.40205e-05)
(0.00238651 4.63665e-06 -1.04753e-05)
(0.00240669 3.73766e-06 -6.5416e-06)
(0.00233403 1.65745e-06 -1.13559e-05)
(0.00235667 3.87391e-06 -6.96167e-06)
(0.00233754 5.04867e-06 -2.62445e-06)
(0.00235951 4.86568e-06 2.48105e-06)
(0.00234602 3.1972e-06 8.76395e-06)
(0.00235961 3.63405e-07 1.56789e-05)
(0.00232906 -6.39457e-06 2.80934e-05)
(0.00234551 -1.17733e-05 3.48706e-05)
(0.00221547 -2.55773e-05 5.65099e-05)
(0.00236913 7.66786e-07 -1.13865e-05)
(0.00239688 2.5126e-06 -7.25624e-06)
(0.00236551 3.28572e-06 -3.47942e-06)
(0.00238282 3.48491e-06 1.27315e-06)
(0.00237106 1.74471e-06 7.25172e-06)
(0.00237407 1.38755e-07 1.36012e-05)
(0.00234276 -5.31085e-06 2.36252e-05)
(0.00234418 -8.27248e-06 3.19162e-05)
(0.00222813 -2.21838e-05 5.22742e-05)
(0.00235305 1.42788e-06 -1.26377e-05)
(0.0023825 2.37904e-06 -9.07941e-06)
(0.00236821 2.48685e-06 -5.50736e-06)
(0.00237829 2.0284e-06 -1.19565e-06)
(0.00236241 2.30528e-07 4.6577e-06)
(0.00237648 -1.28834e-06 1.06437e-05)
(0.00233129 -5.01274e-06 2.04739e-05)
(0.00232128 -7.97778e-06 3.00196e-05)
(0.00222908 -1.76509e-05 5.31679e-05)
(0.00234773 2.38905e-06 -1.44481e-05)
(0.00237473 2.43019e-06 -1.17105e-05)
(0.00235927 1.58969e-06 -8.63465e-06)
(0.00237549 3.80295e-07 -5.09785e-06)
(0.00236006 -1.96139e-06 1.89581e-07)
(0.00234973 -2.7071e-06 5.52452e-06)
)
;

boundaryField
{
    inlet
    {
        type            zeroGradient;
    }
    outlet
    {
        type            zeroGradient;
    }
    wall
    {
        type            zeroGradient;
    }
    procBoundary5to1
    {
        type            processor;
        value           nonuniform List<vector> 
32
(
(0.00248878 3.84522e-05 -2.28866e-05)
(0.00243889 2.68071e-05 -1.9266e-05)
(0.00244535 1.82458e-05 -1.72556e-05)
(0.00239959 1.00727e-05 -1.85981e-05)
(0.00237814 3.54785e-06 -1.55222e-05)
(0.00225954 -6.29315e-06 -2.5716e-05)
(0.00247148 3.90146e-05 -2.51833e-05)
(0.0025094 3.16261e-05 -2.10536e-05)
(0.00247235 2.26913e-05 -1.83212e-05)
(0.0024818 1.66761e-05 -1.515e-05)
(0.00242496 8.58215e-06 -1.68022e-05)
(0.0024102 4.7536e-06 -1.67227e-05)
(0.00227942 -8.11917e-06 -2.98614e-05)
(0.00248925 2.92383e-05 -2.87582e-05)
(0.00245998 2.80401e-05 -2.38712e-05)
(0.00250394 2.41318e-05 -1.95302e-05)
(0.00245858 1.82709e-05 -1.64389e-05)
(0.00247213 1.3931e-05 -1.33947e-05)
(0.00241097 8.8005e-06 -1.48391e-05)
(0.00239232 6.30308e-06 -1.7051e-05)
(0.00228103 -2.59792e-06 -3.15114e-05)
(0.00239757 2.30822e-05 -2.85453e-05)
(0.00240564 2.98148e-05 -2.29195e-05)
(0.00240211 2.91871e-05 -1.83342e-05)
(0.00240211 2.91871e-05 -1.83342e-05)
(0.00240211 2.91871e-05 -1.83342e-05)
(0.00243148 1.92812e-05 -2.89605e-05)
(0.00246606 2.50134e-05 -2.38097e-05)
(0.00246606 2.50134e-05 -2.38097e-05)
(0.00246606 2.50134e-05 -2.38097e-05)
(0.00241475 1.56385e-05 -2.85301e-05)
(0.00241475 1.56385e-05 -2.85301e-05)
)
;
    }
    procBoundary5to4
    {
        type            processor;
        value           nonuniform List<vector> 
12
(
(0.00241754 4.5861e-06 -2.55895e-05)
(0.00244998 3.98334e-06 -2.59095e-05)
(0.00241721 5.31665e-06 -2.60562e-05)
(0.00240259 6.77121e-06 -2.6729e-05)
(0.00241892 -1.5482e-07 -1.83887e-05)
(0.00244626 -4.51208e-07 -1.82249e-05)
(0.00241971 1.5297e-06 -1.88833e-05)
(0.00239909 3.70008e-06 -2.01699e-05)
(0.00238208 -1.93784e-06 -1.41323e-05)
(0.00239149 -1.97747e-06 -1.45169e-05)
(0.00237518 -2.91125e-07 -1.53588e-05)
(0.002365 1.99522e-06 -1.68409e-05)
)
;
    }
    procBoundary5to7
    {
        type            processor;
        value           nonuniform List<vector> 
44
(
(0.00244513 1.49723e-05 -2.41839e-05)
(0.00241023 1.47349e-05 -1.95131e-05)
(0.00243374 1.36271e-05 -1.4899e-05)
(0.00241604 1.19925e-05 -1.05181e-05)
(0.00242752 1.12814e-05 -6.14344e-06)
(0.00234973 9.96282e-06 -5.50263e-06)
(0.00231452 9.73911e-06 -5.10704e-06)
(0.00224137 1.1229e-05 -1.21735e-05)
(0.00241463 1.31755e-05 -2.90475e-05)
(0.00244513 1.49723e-05 -2.41839e-05)
(0.00238052 9.35656e-06 -1.44363e-05)
(0.00240575 8.48282e-06 -9.80528e-06)
(0.00237354 7.48346e-06 -5.29725e-06)
(0.00238267 6.59592e-06 2.81147e-07)
(0.00232911 5.80027e-06 4.61511e-06)
(0.00231005 6.57531e-06 1.08742e-05)
(0.00222564 4.67863e-06 1.5018e-05)
(0.00238079 8.4092e-06 -2.42687e-05)
(0.00238052 9.35656e-06 -1.44363e-05)
(0.00242336 8.03745e-06 -2.07924e-05)
(0.00238052 9.35656e-06 -1.44363e-05)
(0.00240575 8.48282e-06 -9.80528e-06)
(0.00236029 2.55565e-06 -1.6914e-06)
(0.00237395 1.34886e-06 3.97054e-06)
(0.00233149 -3.89646e-07 1.11591e-05)
(0.00231451 -1.27673e-06 1.92157e-05)
(0.00221941 -3.07082e-06 3.52553e-05)
(0.00238495 5.73115e-06 -1.91609e-05)
(0.00241493 5.14275e-06 -1.65638e-05)
(0.00237443 3.99387e-06 -1.36496e-05)
(0.00236029 2.55565e-06 -1.6914e-06)
(0.00239222 2.6889e-06 -1.02711e-05)
(0.00236029 2.55565e-06 -1.6914e-06)
(0.00237395 1.34886e-06 3.97054e-06)
(0.0023074 -5.30872e-06 1.38935e-05)
(0.00230479 -5.58065e-06 2.33921e-05)
(0.00220223 -1.05855e-05 3.85015e-05)
(0.00235649 3.95743e-06 -1.65457e-05)
(0.00237294 3.06789e-06 -1.45363e-05)
(0.00235038 1.67028e-06 -1.20962e-05)
(0.00237248 1.03655e-07 -9.48956e-06)
(0.00233411 -1.2887e-06 -5.47321e-06)
(0.0023074 -5.30872e-06 1.38935e-05)
(0.00233366 -2.07633e-06 -1.66306e-06)
)
;
    }
}


// ************************************************************************* //
