/*--------------------------------*- C++ -*----------------------------------*\
| =========                 |                                                 |
| \\      /  F ield         | OpenFOAM: The Open Source CFD Toolbox           |
|  \\    /   O peration     | Version:  4.x                                   |
|   \\  /    A nd           | Web:      www.OpenFOAM.org                      |
|    \\/     M anipulation  |                                                 |
\*---------------------------------------------------------------------------*/
FoamFile
{
    version     2.0;
    format      ascii;
    class       volScalarField;
    location    "47.5";
    object      p;
}
// * * * * * * * * * * * * * * * * * * * * * * * * * * * * * * * * * * * * * //

dimensions      [1 -1 -2 0 0 0 0];

internalField   nonuniform List<scalar> 
114
(
69.0522
-16.2615
62.3235
-33.3313
54.7834
-49.0587
1.33538
68.3361
-17.1487
62.0443
-35.2405
56.0723
-50.5516
74.937
4.73839
68.2604
-12.5932
61.5331
-29.4093
53.6904
-44.4736
-1858.53
-1803.21
-1877.72
-1809.38
-1897.91
-1814.56
-1919.59
-1817.91
-1943.19
-1858.32
-1803.07
-1877.28
-1809.59
-1896.64
-1815.49
-1915.9
-1819.98
-1933.45
-1856.98
-1803.29
-1875.2
-1809.81
-1893.89
-1815.8
-1912.72
-1820.62
-1930.46
-1856.39
-1803.29
-3735.67
-3680.87
-3754.63
-3687.34
-3774.06
-3693.31
-3793.98
-3698.34
-3813.3
-3735.86
-3680.9
-3755.03
-3687.49
-3774.64
-3693.62
-3794.61
-3698.63
-3813.99
-3735.12
-3680.88
-3753.65
-3687.75
-3772.12
-3694.69
-3790.03
-3701.41
-3805.8
-3735.3
-3681.1
-3754.24
-3687.93
-5613.9
-5559.18
-5633.2
-5565.33
-5653.91
-5570.38
-5677.29
-5571.75
-5709.03
-5613.9
-5559.12
-5633.21
-5565.34
-5653.46
-5570.67
-5675.27
-5573.48
-5699.21
-5613.25
-5559.05
-5632.25
-5565.59
-5652.1
-5571.37
-5673.43
-5575.08
-5697.81
-5613.34
-5559.07
-5632.38
-5565.47
-5652.16
-5571.21
)
;

boundaryField
{
    inlet
    {
        type            calculated;
        value           nonuniform 0();
    }
    outlet
    {
        type            calculated;
        value           nonuniform List<scalar> 
12
(
0
0
0
-1877.91
-1877.91
-1877.91
-3755.83
-3755.83
-3755.83
-5633.74
-5633.74
-5633.74
)
;
    }
    wall
    {
        type            calculated;
        value           nonuniform List<scalar> 
66
(
-6552.86
-6552.86
-6552.21
-6552.3
-6498.13
-6498.08
-6498.01
-6498.03
-6572.16
-6572.17
-6571.21
-6571.34
-6504.28
-6504.3
-6504.54
-6504.42
-6592.86
-6592.42
-6591.06
-6591.12
-6509.33
-6509.63
-6510.33
-6510.16
-6616.24
-6614.22
-6612.38
-6510.71
-6512.44
-6514.04
-6648.37
-6637.71
-6636.08
-1858.53
-3735.67
-5613.9
-1803.21
-3680.87
-5559.18
-1877.72
-3754.63
-5633.2
69.0522
-1809.38
-3687.34
-5565.33
-16.2615
-1897.91
-3774.06
-5653.91
62.3235
-1814.56
-3693.31
-5570.38
-33.3202
-1919.59
-3793.98
-5677.29
54.7834
-1817.91
-3698.34
-5571.75
-49.0587
-1943.19
-3813.3
-5709.03
)
;
    }
    procBoundary5to1
    {
        type            processor;
        value           nonuniform List<scalar> 
32
(
1946.71
1856.53
1942.04
1834.37
1939.61
1811.31
1876.6
1946.45
1855.97
1941.54
1834.42
1939.03
1812.2
1952.59
1879.04
1946.19
1859.9
1940.61
1841.03
1936.04
1823.59
20.3637
75.4194
1.99277
1.99277
1.99277
20.1681
75.0572
75.0572
75.0572
22.3325
22.3325
)
;
    }
    procBoundary5to4
    {
        type            processor;
        value           nonuniform List<scalar> 
12
(
-1796.56
-1796.26
-1796.23
-1796.36
-3674.12
-3674.03
-3673.83
-3674.06
-5552.57
-5552.39
-5552.24
-5552.27
)
;
    }
    procBoundary5to7
    {
        type            processor;
        value           nonuniform List<scalar> 
44
(
74.6315
1.92225
68.1889
-16.7581
62.3168
-35.3758
57.4967
-51.4322
20.6637
74.6315
-1874.33
-1809.78
-1892.51
-1815.58
-1910.46
-1821.43
-1926.87
-1855.2
-1874.33
-1803.11
-1874.33
-1809.78
-3773.41
-3694.04
-3792.5
-3698.96
-3810.21
-3734.61
-3681.08
-3753.08
-3773.41
-3687.83
-3773.41
-3694.04
-5673.05
-5575.07
-5696.06
-5612.6
-5558.93
-5631.18
-5565.47
-5650.04
-5673.05
-5571.59
)
;
    }
}


// ************************************************************************* //
