/*--------------------------------*- C++ -*----------------------------------*\
| =========                 |                                                 |
| \\      /  F ield         | OpenFOAM: The Open Source CFD Toolbox           |
|  \\    /   O peration     | Version:  4.x                                   |
|   \\  /    A nd           | Web:      www.OpenFOAM.org                      |
|    \\/     M anipulation  |                                                 |
\*---------------------------------------------------------------------------*/
FoamFile
{
    version     2.0;
    format      ascii;
    class       volScalarField;
    location    "47.5";
    object      p_rgh;
}
// * * * * * * * * * * * * * * * * * * * * * * * * * * * * * * * * * * * * * //

dimensions      [1 -1 -2 0 0 0 0];

internalField   nonuniform List<scalar> 
114
(
69.0522
-16.2615
62.3235
-33.3313
54.7834
-49.0587
1.33538
68.3361
-17.1487
62.0443
-35.2405
56.0723
-50.5516
74.937
4.73839
68.2604
-12.5932
61.5331
-29.4093
53.6904
-44.4736
19.3842
74.702
0.193382
68.5389
-19.9992
63.3582
-41.6792
60.0029
-65.5118
19.5904
74.8438
0.637743
68.3245
-18.722
62.4217
-37.9923
57.9329
-55.6036
20.9338
74.6267
2.71016
68.0998
-15.9755
62.1088
-34.8177
57.2853
-52.6364
21.5216
74.6242
20.1582
74.961
1.20296
68.4896
-18.2277
62.5208
-38.155
57.49
-58.0953
19.9646
74.9272
0.796513
68.3418
-18.8103
62.2062
-38.7869
57.1927
-58.5137
20.704
74.9458
2.18014
68.0777
-16.2926
61.1378
-34.2052
54.4124
-50.1381
20.5304
74.7274
1.58447
67.8965
19.8394
74.566
0.540732
68.4166
-20.1635
63.3673
-43.5428
61.9942
-73.011
19.8394
74.6244
0.532943
68.4028
-19.7189
63.0697
-41.523
60.2629
-68.2577
20.4939
74.6915
1.49212
68.1549
-18.3617
62.3711
-39.6852
58.6559
-68.162
20.4021
74.6742
1.36346
68.275
-18.4182
62.5368
)
;

boundaryField
{
    inlet
    {
        type            fixedFluxPressure;
        gradient        nonuniform 0();
        value           nonuniform 0();
    }
    outlet
    {
        type            fixedValue;
        value           uniform 0;
    }
    wall
    {
        type            fixedFluxPressure;
        gradient        nonuniform List<scalar> 
66
(
1.39854e-07
4.42235e-07
3.99988e-07
6.69401e-07
1.41766e-06
1.9672e-06
7.66288e-07
6.11508e-07
-2.41572e-07
3.69589e-06
1.87565e-06
-3.26235e-07
-2.49662e-07
3.48089e-08
5.11253e-07
1.0069e-09
2.13795e-07
-1.08779e-06
-1.01241e-06
-1.32742e-06
-4.72736e-07
-6.98859e-07
-3.73934e-07
-4.39846e-07
-2.42087e-06
-1.08518e-05
-4.94926e-06
-7.48407e-06
-5.03123e-06
-2.56505e-06
-5.81531e-05
-2.92586e-05
-1.28991e-05
-4.66493e-06
-1.91801e-07
-3.74153e-07
-2.50526e-06
-4.9823e-07
1.72099e-08
-8.54718e-07
1.69721e-06
-4.32288e-06
1.67443e-06
7.8721e-07
-3.92669e-07
3.79657e-08
1.4717e-05
-9.99238e-09
1.83274e-07
3.98113e-07
1.03172e-06
1.28638e-07
2.06703e-07
2.23975e-07
0.780589
-9.20317e-07
-2.39585e-06
-2.48631e-06
9.4613e-06
1.56464e-06
-3.14725e-06
-6.434e-06
5.63718e-05
-8.48076e-07
-1.97234e-06
-5.1054e-05
)
;
        value           nonuniform List<scalar> 
66
(
19.8394
19.8394
20.4939
20.4021
74.566
74.6244
74.6915
74.6742
0.540732
0.532943
1.49213
1.36346
68.4166
68.4028
68.1549
68.275
-20.1635
-19.7189
-18.3617
-18.4182
63.3673
63.0697
62.3711
62.5368
-43.5428
-41.523
-39.6852
61.9942
60.2629
58.6559
-73.011
-68.2577
-68.162
19.3842
20.1582
19.8394
74.702
74.961
74.566
0.193382
1.20296
0.540732
69.0522
68.5389
68.4896
68.4166
-16.2615
-19.9992
-18.2277
-20.1635
62.3235
63.3582
62.5208
63.3673
-33.3202
-41.6792
-38.155
-43.5428
54.7834
60.0029
57.49
61.9942
-49.0587
-65.5118
-58.0953
-73.011
)
;
    }
    procBoundary5to1
    {
        type            processor;
        value           nonuniform List<scalar> 
32
(
68.7984
-21.385
64.1261
-43.5461
61.6918
-66.3245
-1.31682
68.5327
-21.9458
63.6266
-43.4955
61.1179
-65.4928
74.6779
1.12721
68.2809
-18.0147
62.699
-36.8708
58.1396
-54.1916
20.3637
75.4194
1.99277
1.99277
1.99277
20.1681
75.0572
75.0572
75.0572
22.3325
22.3325
)
;
    }
    procBoundary5to4
    {
        type            processor;
        value           nonuniform List<scalar> 
12
(
81.3563
81.659
81.685
81.5545
81.7134
81.7962
81.9945
81.7712
81.1704
81.3553
81.5023
81.4738
)
;
    }
    procBoundary5to7
    {
        type            processor;
        value           nonuniform List<scalar> 
44
(
74.6315
1.92225
68.1889
-16.7581
62.3168
-35.3758
57.4967
-51.4322
20.6637
74.6315
3.58494
68.1361
-14.6014
62.3301
-32.5605
56.4681
-49.0795
22.7099
3.58494
74.8024
3.58494
68.1361
-17.5795
61.7877
-36.683
56.8549
-54.5604
21.2228
74.7497
2.74685
-17.5795
67.994
-17.5795
61.7877
-39.3116
58.6714
-66.1796
21.1414
74.8177
2.56635
68.2759
-16.2929
-39.3116
62.1568
)
;
    }
}


// ************************************************************************* //
