/*--------------------------------*- C++ -*----------------------------------*\
| =========                 |                                                 |
| \\      /  F ield         | OpenFOAM: The Open Source CFD Toolbox           |
|  \\    /   O peration     | Version:  4.x                                   |
|   \\  /    A nd           | Web:      www.OpenFOAM.org                      |
|    \\/     M anipulation  |                                                 |
\*---------------------------------------------------------------------------*/
FoamFile
{
    version     2.0;
    format      ascii;
    class       volScalarField;
    location    "47.5";
    object      QPartFluidCoeff;
}
// * * * * * * * * * * * * * * * * * * * * * * * * * * * * * * * * * * * * * //

dimensions      [1 -1 -3 -1 0 0 0];

internalField   nonuniform List<scalar> 
114
(
-2.61914e+07
-2.4159e+07
-2.34335e+07
-1.9055e+07
-2.62863e+07
-1.95123e+07
-2.42184e+07
-2.35113e+07
-1.96895e+07
-2.75806e+07
-2.84012e+07
-3.38184e+07
-2.18667e+07
-3.31924e+07
-2.04974e+07
-2.90594e+07
-1.96326e+07
-1.77371e+07
-2.48965e+07
-2.08625e+07
-2.21521e+07
-2.21655e+07
-1.89992e+07
-2.52486e+07
-2.12754e+07
-2.19547e+07
-2.79166e+07
-2.41718e+07
-2.26665e+07
-1.62833e+07
-2.70307e+07
-2.74629e+07
-3.07566e+07
-3.00031e+07
-2.9452e+07
-3.38683e+07
-1.79813e+07
-3.55793e+07
-2.11897e+07
-2.83743e+07
-1.83728e+07
-2.42849e+07
-3.03952e+07
-2.06782e+07
-2.81498e+07
-2.44631e+07
-2.71463e+07
-1.50485e+07
-3.4259e+07
-1.69061e+07
-2.41923e+07
-3.18165e+07
-2.45005e+07
-2.85933e+07
-2.53118e+07
-2.68188e+07
-2.23587e+07
-2.92111e+07
-1.71879e+07
-2.06595e+07
-3.63548e+07
-2.33829e+07
-3.04185e+07
-2.77235e+07
-3.06684e+07
-3.58916e+07
-2.91037e+07
-1.5986e+07
-2.4712e+07
-2.59531e+07
-2.60733e+07
-2.46456e+07
-3.78927e+07
-3.09219e+07
-3.02089e+07
-3.67002e+07
-2.75833e+07
-1.7668e+07
-3.91346e+07
-3.1816e+07
-3.32826e+07
-8.30007e+06
-2.29111e+07
-1.51012e+07
-2.57619e+07
-2.02157e+07
-1.95402e+07
-2.39324e+07
-2.64765e+07
-1.67324e+07
-2.32309e+07
-2.7417e+07
-1.67999e+07
-2.31264e+07
-2.73024e+07
-2.56621e+07
-1.82561e+07
-3.01026e+07
-1.78303e+07
-2.02995e+07
-2.44427e+07
-2.91163e+07
-2.6249e+07
-2.0942e+07
-3.1621e+07
-2.34881e+07
-2.74676e+07
-2.15549e+07
-2.40062e+07
-2.16314e+07
-2.44819e+07
-2.2506e+07
-3.47715e+07
-2.85363e+07
)
;

boundaryField
{
    inlet
    {
        type            calculated;
        value           nonuniform 0();
    }
    outlet
    {
        type            calculated;
        value           uniform 0;
    }
    wall
    {
        type            calculated;
        value           uniform 0;
    }
    procBoundary5to1
    {
        type            processor;
        value           nonuniform List<scalar> 
32
(
727.56
461.024
731.551
574.851
562.478
241.669
491.483
613.089
619.733
687.649
578.181
715.602
280.743
595.24
414.174
842.22
670.69
809.65
566.905
732.684
255.677
488.998
418.21
574.237
574.237
574.237
593.926
922.049
922.049
922.049
445.876
445.876
)
;
    }
    procBoundary5to4
    {
        type            processor;
        value           nonuniform List<scalar> 
12
(
729.467
839.756
509.773
534.276
724.146
793.969
652.771
615.251
620.47
648.825
533.171
536.063
)
;
    }
    procBoundary5to7
    {
        type            processor;
        value           nonuniform List<scalar> 
44
(
693.389
489.984
603.956
840.605
948.706
605.718
494.696
464.614
765.005
693.389
495.32
653.395
528.989
621.153
667.26
748.279
460.259
291.252
495.32
763.738
495.32
653.395
379.391
551.478
624.431
580.369
352.736
648.466
692.438
536.09
379.391
494.166
379.391
551.478
445.742
613.857
369.561
554.449
531.089
572.48
656.025
395.446
445.742
374.342
)
;
    }
}


// ************************************************************************* //
