/*--------------------------------*- C++ -*----------------------------------*\
| =========                 |                                                 |
| \\      /  F ield         | OpenFOAM: The Open Source CFD Toolbox           |
|  \\    /   O peration     | Version:  4.x                                   |
|   \\  /    A nd           | Web:      www.OpenFOAM.org                      |
|    \\/     M anipulation  |                                                 |
\*---------------------------------------------------------------------------*/
FoamFile
{
    version     2.0;
    format      ascii;
    class       volScalarField;
    location    "47.5";
    object      QPartFluid;
}
// * * * * * * * * * * * * * * * * * * * * * * * * * * * * * * * * * * * * * //

dimensions      [1 -1 -3 0 0 0 0];

internalField   nonuniform List<scalar> 
114
(
7.85741e+09
7.24771e+09
7.03006e+09
5.71649e+09
7.88588e+09
5.8537e+09
7.26552e+09
7.0534e+09
5.90684e+09
8.27419e+09
8.52035e+09
1.01455e+10
6.56e+09
9.95771e+09
6.14922e+09
8.71783e+09
5.88977e+09
5.32113e+09
7.46895e+09
6.25875e+09
6.64563e+09
6.64966e+09
5.69976e+09
7.57457e+09
6.38263e+09
6.58642e+09
8.37498e+09
7.25155e+09
6.79996e+09
4.88499e+09
8.10921e+09
8.23888e+09
9.22698e+09
9.00092e+09
8.8356e+09
1.01605e+10
5.39438e+09
1.06738e+10
6.3569e+09
8.51228e+09
5.51184e+09
7.28548e+09
9.11857e+09
6.20347e+09
8.44494e+09
7.33894e+09
8.14388e+09
4.51456e+09
1.02777e+10
5.07182e+09
7.25769e+09
9.54496e+09
7.35015e+09
8.57799e+09
7.59355e+09
8.04565e+09
6.70761e+09
8.76332e+09
5.15636e+09
6.19784e+09
1.09064e+10
7.01488e+09
9.12555e+09
8.31705e+09
9.20053e+09
1.07675e+10
8.73112e+09
4.79581e+09
7.41361e+09
7.78592e+09
7.82198e+09
7.39368e+09
1.13678e+10
9.27656e+09
9.06267e+09
1.10101e+10
8.27499e+09
5.3004e+09
1.17404e+10
9.5448e+09
9.98477e+09
2.49002e+09
6.87333e+09
4.53035e+09
7.72856e+09
6.0647e+09
5.86205e+09
7.17972e+09
7.94296e+09
5.01973e+09
6.96926e+09
8.22511e+09
5.03996e+09
6.93792e+09
8.19073e+09
7.69864e+09
5.47683e+09
9.03078e+09
5.34908e+09
6.08985e+09
7.3328e+09
8.73489e+09
7.8747e+09
6.28261e+09
9.48631e+09
7.04643e+09
8.24028e+09
6.46648e+09
7.20185e+09
6.48942e+09
7.34456e+09
6.75181e+09
1.04315e+10
8.56088e+09
)
;

boundaryField
{
    inlet
    {
        type            calculated;
        value           nonuniform 0();
    }
    outlet
    {
        type            calculated;
        value           uniform 0;
    }
    wall
    {
        type            calculated;
        value           uniform 0;
    }
    procBoundary5to1
    {
        type            processor;
        value           nonuniform List<scalar> 
32
(
9.62562e+09
6.09934e+09
9.67842e+09
7.60528e+09
7.44159e+09
3.19728e+09
6.50232e+09
8.11117e+09
8.19907e+09
9.0976e+09
7.64934e+09
9.46741e+09
3.71423e+09
7.87502e+09
5.47952e+09
1.11426e+10
8.87323e+09
1.07117e+10
7.50015e+09
9.69341e+09
3.38261e+09
6.46944e+09
5.53292e+09
7.59715e+09
7.59715e+09
7.59715e+09
7.85764e+09
1.21987e+10
1.21987e+10
1.21987e+10
5.89894e+09
5.89894e+09
)
;
    }
    procBoundary5to4
    {
        type            processor;
        value           nonuniform List<scalar> 
12
(
9.65085e+09
1.111e+10
6.7443e+09
7.06847e+09
9.58045e+09
1.05042e+10
8.63615e+09
8.13977e+09
8.20882e+09
8.58395e+09
7.05386e+09
7.09211e+09
)
;
    }
    procBoundary5to7
    {
        type            processor;
        value           nonuniform List<scalar> 
44
(
9.17353e+09
6.48248e+09
7.99034e+09
1.11212e+10
1.25514e+10
8.01365e+09
6.54483e+09
6.14684e+09
1.0121e+10
9.17353e+09
6.55308e+09
8.64441e+09
6.99852e+09
8.21786e+09
8.82785e+09
9.89973e+09
6.08923e+09
3.85326e+09
6.55308e+09
1.01043e+10
6.55308e+09
8.64441e+09
5.01934e+09
7.29605e+09
8.26122e+09
7.67829e+09
4.6667e+09
8.5792e+09
9.16096e+09
7.09247e+09
5.01934e+09
6.53782e+09
5.01934e+09
7.29605e+09
5.89716e+09
8.12133e+09
4.8893e+09
7.33536e+09
7.02631e+09
7.57392e+09
8.67922e+09
5.23175e+09
5.89716e+09
4.95254e+09
)
;
    }
}


// ************************************************************************* //
