/*--------------------------------*- C++ -*----------------------------------*\
| =========                 |                                                 |
| \\      /  F ield         | OpenFOAM: The Open Source CFD Toolbox           |
|  \\    /   O peration     | Version:  4.x                                   |
|   \\  /    A nd           | Web:      www.OpenFOAM.org                      |
|    \\/     M anipulation  |                                                 |
\*---------------------------------------------------------------------------*/
FoamFile
{
    version     2.0;
    format      ascii;
    class       volScalarField;
    location    "47.5";
    object      QWallFluid;
}
// * * * * * * * * * * * * * * * * * * * * * * * * * * * * * * * * * * * * * //

dimensions      [1 -1 -3 0 0 0 0];

internalField   nonuniform List<scalar> 
114
(
7.90993e+08
1.23622e+08
6.99109e+08
5048.12
5.27722e+08
7.33792e+07
0
0
0
0
0
0
0
0
0
0
0
0
0
0
0
4.5378e+08
8.97031e+08
4.41082e+08
9.23095e+08
4.09688e+08
9.57131e+08
3.57234e+08
1.03167e+09
3.86617e+08
0
0
0
0
0
0
0
0
0
0
0
0
0
0
0
0
0
0
0
0
4.25641e+08
8.60362e+08
4.04246e+08
8.72796e+08
3.75347e+08
8.85015e+08
3.07221e+08
8.88636e+08
2.36079e+08
0
0
0
0
0
0
0
0
0
0
0
0
0
0
0
0
0
0
0
0
0
0
1.22926e+09
1.93688e+09
1.27074e+09
2.04098e+09
1.27494e+09
2.23812e+09
1.21164e+09
2.66965e+09
1.08197e+09
5.09625e+08
9.12314e+08
5.16986e+08
9.5064e+08
5.02052e+08
1.003e+09
4.45824e+08
1.08384e+09
3.29819e+08
4.45351e+08
8.73007e+08
4.38546e+08
8.99843e+08
4.34556e+08
9.50916e+08
4.18712e+08
1.07748e+09
4.02931e+08
4.31556e+08
8.69676e+08
4.17781e+08
8.8944e+08
3.91174e+08
9.26699e+08
)
;

boundaryField
{
    inlet
    {
        type            calculated;
        value           nonuniform 0();
    }
    outlet
    {
        type            calculated;
        value           uniform 0;
    }
    wall
    {
        type            calculated;
        value           uniform 0;
    }
    procBoundary5to1
    {
        type            processor;
        value           nonuniform List<scalar> 
32
(
9.66654e+08
4.58689e+08
1.00068e+09
3.9789e+08
1.04226e+09
3.71504e+08
0
0
0
0
0
0
0
0
0
0
0
0
0
0
0
3.89146e+08
8.42466e+08
2.86655e+08
2.86655e+08
2.86655e+08
0
0
0
0
0
0
)
;
    }
    procBoundary5to4
    {
        type            processor;
        value           nonuniform List<scalar> 
12
(
8.72134e+08
0
0
0
8.53293e+08
0
0
0
1.85879e+09
8.85649e+08
8.54668e+08
8.52775e+08
)
;
    }
    procBoundary5to7
    {
        type            processor;
        value           nonuniform List<scalar> 
44
(
0
0
0
0
0
0
0
0
0
0
0
0
0
0
0
0
0
0
0
0
0
0
0
0
0
0
0
0
0
0
0
0
0
0
3.76478e+08
1.02096e+09
3.69831e+08
3.82276e+08
8.35118e+08
3.5376e+08
8.33842e+08
3.22999e+08
3.76478e+08
8.35476e+08
)
;
    }
}


// ************************************************************************* //
