/*--------------------------------*- C++ -*----------------------------------*\
  =========                 |
  \\      /  F ield         | OpenFOAM: The Open Source CFD Toolbox
   \\    /   O peration     | Website:  https://openfoam.org
    \\  /    A nd           | Version:  4.x
     \\/     M anipulation  |
\*---------------------------------------------------------------------------*/
FoamFile
{
    version     2.0;
    format      ascii;
    class       Cloud<passiveParticle>;
    location    0;
    object      positions;
}
// * * * * * * * * * * * * * * * * * * * * * * * * * * * * * * * * * * * * * //

357
(
( 0.0742927 -0.0554358 -0.0596102 ) 41
( 0.0860886 -0.0205642 -0.0290973 ) 83
( 0.249875 -0.0571592 -0.0379074 ) 79
( 0.0502495 -0.0383886 -0.0671915 ) 49
( 0.177223 -0.0798243 -0.0518172 ) 36
( 0.0524131 -0.0752685 -0.0488925 ) 31
( 0.192971 -0.026744 -0.0537541 ) 54
( 0.145392 -0.0834347 -0.0261749 ) 67
( 0.0553094 -0.0674285 -0.031002 ) 72
( 0.0535447 -0.0265577 -0.0263237 ) 81
( 0.00981103 -0.0395225 -0.034547 ) 80
( 0.21764 -0.0898311 -0.0610185 ) 37
( 0.203133 -0.0500734 -0.0424009 ) 78
( 0.211995 -0.0255457 -0.0484057 ) 55
( 0.0789811 -0.0210718 -0.0557689 ) 50
( 0.176373 -0.0714244 -0.0698588 ) 45
( 0.186286 -0.0423379 -0.0350675 ) 86
( 0.194231 -0.0148257 -0.0696436 ) 54
( 0.109188 -0.0279568 -0.058273 ) 51
( 0.226022 -0.0496374 -0.0706238 ) 47
( 0.241889 -0.0204908 -0.0591625 ) 56
( 0.242104 -0.0704085 -0.0256542 ) 79
( 0.0743304 -0.0367002 -0.028848 ) 82
( 0.137476 -0.0446832 -0.0393573 ) 75
( 0.204395 -0.0530958 -0.0637502 ) 46
( 0.0958604 -0.0517323 -0.0335097 ) 74
( 0.0620275 -0.0407749 -0.0437381 ) 50
( 0.215433 -0.064571 -0.0518029 ) 46
( 0.0272946 -0.0143397 -0.0498428 ) 48
( 0.0791329 -0.0729914 -0.0508553 ) 32
( 0.204757 -0.0731381 -0.0374747 ) 69
( 0.1195 -0.0384501 -0.0448969 ) 52
( 0.232738 -0.0560388 -0.0474767 ) 47
( 0.0266361 -0.0169543 -0.0301823 ) 80
( 0.138788 -0.0574956 -0.02443 ) 75
( 0.02788 -0.0765904 -0.0366758 ) 63
( 0.141173 -0.0201913 -0.0702976 ) 53
( 0.0384779 -0.0747783 -0.0629057 ) 31
( 0.107961 -0.0802282 -0.0393432 ) 65
( 0.073 -0.0766509 -0.0323917 ) 64
( 0.11085 -0.0786138 -0.0197727 ) 65
( 0.135435 -0.0456525 -0.0684035 ) 43
( 0.1494 -0.0491875 -0.05461 ) 44
( 0.240125 -0.0356147 -0.0718409 ) 26
( 0.171159 -0.0274762 -0.0687574 ) 54
( 0.127285 -0.0901808 -0.0207495 ) 66
( 0.233572 -0.0753085 -0.0527723 ) 38
( 0.0365967 -0.0626316 -0.0474258 ) 40
( 0.172168 -0.0571289 -0.0515162 ) 45
( 0.107366 -0.0761153 -0.0662823 ) 33
( 0.0937337 -0.0217297 -0.0690185 ) 51
( 0.138291 -0.087824 -0.0550518 ) 34
( 0.18796 -0.0628721 -0.0404726 ) 77
( 0.133244 -0.0181659 -0.0413394 ) 84
( 0.083543 -0.0383002 -0.0646938 ) 51
( 0.11263 -0.020033 -0.0404146 ) 84
( 0.0985196 -0.0584655 -0.0672414 ) 42
( 0.150499 -0.0110648 -0.0348509 ) 94
( 0.0401972 -0.0265871 -0.0411156 ) 81
( 0.0666089 -0.0217674 -0.0404517 ) 82
( 0.034183 -0.0347969 -0.0243223 ) 81
( 0.148738 -0.0793807 -0.0696113 ) 35
( 0.0114739 -0.0272419 -0.0627592 ) 48
( 0.0976274 -0.0660316 -0.0487544 ) 42
( 0.128883 -0.0732962 -0.0308488 ) 66
( 0.00964752 -0.00690666 -0.0306489 ) 89
( 0.239641 -0.0432113 -0.0282825 ) 79
( 0.14998 -0.0624454 -0.0398227 ) 76
( 0.166701 -0.0709281 -0.0333851 ) 77
( 0.200227 -0.0861254 -0.0517147 ) 37
( 0.160744 -0.0281121 -0.0351889 ) 85
( 0.189227 -0.0353 -0.0713649 ) 54
( 0.121309 -0.00643824 -0.0520031 ) 61
( 0.18741 -0.0824475 -0.0351258 ) 68
( 0.027548 -0.0474671 -0.038226 ) 71
( 0.0544947 -0.0580079 -0.0586484 ) 40
( 0.0304362 -0.0900414 -0.0511392 ) 31
( 0.0823581 -0.043711 -0.0456191 ) 41
( 0.157494 -0.025249 -0.0545389 ) 53
( 0.138871 -0.0319397 -0.0544476 ) 52
( 0.0841496 -0.0901505 -0.0421007 ) 65
( 0.0328262 -0.0308052 -0.0595115 ) 49
( 0.049859 -0.00882491 -0.0361517 ) 90
( 0.0910676 -0.0364838 -0.0182508 ) 83
( 0.0185964 -0.00910902 -0.0668563 ) 57
( 0.0703433 -0.0585702 -0.0403358 ) 73
( 0.0534594 -0.0228902 -0.0552394 ) 49
( 0.174886 -0.0326803 -0.0482426 ) 54
( 0.00991513 -0.0641516 -0.0350733 ) 71
( 0.00990635 -0.0802137 -0.0232054 ) 62
( 0.200298 -0.0502665 -0.0227716 ) 78
( 0.12368 -0.0552099 -0.0556211 ) 43
( 0.186995 -0.0901159 -0.0658941 ) 36
( 0.237056 -0.0901002 -0.0656323 ) 38
( 0.114933 -0.0616497 -0.0390382 ) 75
( 0.0654305 -0.0145631 -0.0688054 ) 50
( 0.00990358 -0.0628664 -0.0617891 ) 39
( 0.0977465 -0.0328892 -0.0391865 ) 83
( 0.224867 -0.0729628 -0.0351312 ) 70
( 0.177244 -0.0566434 -0.0249731 ) 77
( 0.224287 -0.0261822 -0.0329559 ) 88
( 0.208055 -0.0308239 -0.0670774 ) 55
( 0.0435644 -0.0794476 -0.0202865 ) 63
( 0.216655 -0.0900772 -0.0411725 ) 69
( 0.243084 -0.0902586 -0.0437401 ) 38
( 0.0262391 -0.0614387 -0.0240686 ) 71
( 0.0968581 -0.0142063 -0.0508461 ) 60
( 0.209427 -0.0732533 -0.0685659 ) 37
( 0.126447 -0.0683995 -0.0707364 ) 43
( 0.196456 -0.0903048 -0.019422 ) 69
( 0.169587 -0.0902762 -0.0311189 ) 68
( 0.154341 -0.0877673 -0.0434557 ) 35
( 0.179846 -0.0233481 -0.029529 ) 86
( 0.192681 -0.0687919 -0.058795 ) 45
( 0.0797474 -0.0548168 -0.0225163 ) 73
( 0.233915 -0.0679134 -0.0711936 ) 47
( 0.12165 -0.0747347 -0.0525169 ) 34
( 0.1882 -0.0460623 -0.0546797 ) 45
( 0.235354 -0.0358938 -0.0462883 ) 56
( 0.163225 -0.0480525 -0.0363465 ) 76
( 0.0584008 -0.0900878 -0.0631115 ) 32
( 0.216255 -0.0900235 -0.0213929 ) 69
( 0.121395 -0.0901162 -0.0651677 ) 34
( 0.150144 -0.039998 -0.0233807 ) 85
( 0.0435205 -0.0442507 -0.0494736 ) 40
( 0.00989423 -0.0219039 -0.0436835 ) 48
( 0.161372 -0.0574934 -0.0681427 ) 44
( 0.121629 -0.0168148 -0.0690204 ) 52
( 0.124484 -0.0296247 -0.0278889 ) 84
( 0.103114 -0.0471756 -0.0517158 ) 42
( 0.203384 -0.0329788 -0.0322526 ) 87
( 0.0446486 -0.0900535 -0.0371019 ) 63
( 0.114482 -0.0438204 -0.0690538 ) 43
( 0.0100171 -0.0448258 -0.0535589 ) 39
( 0.0965252 -0.0902404 -0.0267847 ) 65
( 0.0279288 -0.0501185 -0.0603144 ) 40
( 0.0782164 -0.0900525 -0.0610721 ) 32
( 0.0623516 -0.00559648 -0.0513193 ) 59
( 0.0644781 -0.0902178 -0.0442061 ) 32
( 0.119624 -0.0594925 -0.0199421 ) 75
( 0.00972224 -0.0236962 -0.0203812 ) 80
( 0.117924 -0.00258662 -0.0328537 ) 93
( 0.0111142 -0.0824101 -0.0584403 ) 30
( 0.220057 -0.0496445 -0.0320956 ) 78
( 0.00985395 -0.00304115 -0.050094 ) 57
( 0.130888 -0.0420909 0.00676761 ) 118
( 0.1107 -0.051301 -0.00414706 ) 108
( 0.1264 -0.0172216 0.00203367 ) 118
( 0.170453 -0.0737945 0.00156226 ) 102
( 0.0585515 -0.0723167 0.000459752 ) 98
( 0.0397882 -0.00708648 -0.0191431 ) 90
( 0.225952 -0.042744 -0.00191939 ) 122
( 0.134206 -0.062398 0.00494996 ) 109
( 0.0216975 -0.012139 0.00505654 ) 123
( 0.208178 -0.0191014 -0.016926 ) 87
( 0.124892 0.00574797 0.00182058 ) 127
( 0.19059 -0.0340472 -0.01675 ) 86
( 0.0607693 -0.0107524 -0.00638801 ) 125
( 0.0199479 -0.0337313 0.00797564 ) 114
( 0.159933 -0.00403816 -0.0129333 ) 128
( 0.0827736 -0.00871424 0.00347386 ) 125
( 0.122432 -0.0126803 -0.0166412 ) 93
( 0.0561899 -0.0565063 0.0138284 ) 107
( 0.110722 -0.0356934 0.00805131 ) 117
( 0.163274 -0.0374321 0.0136967 ) 119
( 0.239469 -0.0566923 0.000897198 ) 113
( 0.091062 -0.0432618 0.000377783 ) 108
( 0.206242 -0.0618124 0.0114727 ) 112
( 0.205768 -0.0496662 -0.00383792 ) 112
( 0.143205 -0.00865151 -0.00344937 ) 128
( 0.150734 -0.0739163 0.00327685 ) 101
( 0.161984 -0.0901759 0.00874122 ) 101
( 0.1864 -0.0488573 0.0119155 ) 111
( 0.228147 -0.0763459 0.0098372 ) 104
( 0.0353558 -0.0823317 -0.00152244 ) 97
( 0.235011 -0.0353583 0.0136838 ) 122
( 0.176855 -0.0174204 -0.0101412 ) 120
( 0.0382689 -0.0335917 0.000347032 ) 115
( 0.219219 -0.0643711 -0.00283633 ) 112
( 0.0563897 -0.0208842 0.00993905 ) 116
( 0.221694 -0.0902177 -0.00243535 ) 103
( 0.0262119 -0.0646193 -0.0018925 ) 105
( 0.214557 -0.0378597 -0.0169798 ) 87
( 0.0961084 -0.0239535 0.00125555 ) 117
( 0.168944 -0.0184293 0.00806991 ) 120
( 0.101324 -0.0713743 0.00560566 ) 108
( 0.150301 -0.0515142 0.00834225 ) 110
( 0.0563525 -0.0306793 -0.0071751 ) 116
( 0.238575 -0.0749303 -0.00675581 ) 104
( 0.158389 -0.0398387 -0.00523876 ) 119
( 0.0789691 -0.090215 -0.0177907 ) 64
( 0.213266 -0.0130888 0.00139009 ) 130
( 0.0714963 -0.0901465 0.000487155 ) 98
( 0.193558 -0.0129915 -0.000546478 ) 129
( 0.118266 -0.0308306 -0.00935506 ) 118
( 0.206087 -0.0784374 -0.00705572 ) 103
( 0.179315 -0.0809815 -0.015052 ) 68
( 0.0951467 -0.0901105 0.0123835 ) 99
( 0.0742719 -0.0714905 -0.0133869 ) 98
( 0.149159 -0.0902584 -0.00782511 ) 101
( 0.118304 -0.0902142 -0.0030832 ) 100
( 0.169342 -0.0540292 0.00338604 ) 111
( 0.0150819 -0.0902543 -0.00691142 ) 96
( 0.00982983 -0.0843384 0.0111178 ) 96
( 0.190919 -0.0683177 0.000700489 ) 111
( 0.183925 -0.0318607 0.00183084 ) 120
( 0.247331 -0.0414274 -0.00906163 ) 122
( 0.139171 -0.0237213 -0.0158769 ) 85
( 0.00985847 -0.0509832 0.00242637 ) 105
( 0.109953 -0.00686345 -0.00230329 ) 126
( 0.13473 -0.0900504 0.0082659 ) 100
( 0.0655993 -0.00337735 0.0119313 ) 125
( 0.052921 -0.0901725 -0.00638598 ) 97
( 0.07105 -0.0490841 0.00296467 ) 107
( 0.0423319 -0.070728 0.0130215 ) 106
( 0.0180918 -0.00457661 -0.0128715 ) 123
( 0.230521 -0.0562002 -0.0166355 ) 79
( 0.0745134 -0.0287312 0.00460963 ) 116
( 0.18562 -0.0511653 -0.00780067 ) 111
( 0.203556 -0.030223 -0.00117205 ) 121
( 0.160233 -0.0757742 -0.0153353 ) 67
( 0.133677 -0.0425408 -0.0127008 ) 118
( 0.0414688 -0.0134508 -0.00049596 ) 124
( 0.181586 -0.0902525 0.00215747 ) 102
( 0.182047 0.0090116 -0.0387736 ) 95
( 0.0877894 0.0117659 -0.0413292 ) 92
( 0.135545 0.0142274 -0.0561565 ) 61
( 0.0586197 0.00902352 -0.0244308 ) 91
( 0.00979402 0.011727 -0.0204918 ) 89
( 0.0781722 0.00488157 -0.0572385 ) 59
( 0.124081 0.0038083 -0.0687682 ) 61
( 0.148091 0.01338 -0.0310467 ) 94
( 0.0433039 0.0103488 -0.0368446 ) 90
( 0.113554 0.0111035 -0.0463192 ) 61
( 0.0549257 0.0121101 -0.0563216 ) 58
( 0.10546 -0.00057165 -0.0624191 ) 60
( 0.177052 0.00187196 -0.0049239 ) 129
( 0.0110426 0.010079 -0.000647237 ) 123
( 0.0869362 0.0111531 -0.00729128 ) 126
( 0.0435369 0.011034 -0.0116993 ) 124
( 0.209486 0.00574067 -0.0026162 ) 130
( 0.0630053 0.00877192 -0.00500696 ) 125
( 0.100219 0.00418728 0.0121178 ) 126
( 0.146049 0.00887883 0.00519853 ) 128
( 0.107689 0.0127073 -0.00532943 ) 126
( 0.153191 0.0142712 -0.01205 ) 128
( 0.16594 0.00122139 0.0114703 ) 128
( 0.0330668 0.00394814 0.00353924 ) 124
( 0.139829 -0.0676305 -0.0559963 ) 44
( 0.0665635 -0.00902132 -0.025388 ) 91
( 0.00997885 -0.0901547 -0.0402908 ) 62
( 0.0479223 -0.0486986 -0.0281945 ) 72
( 0.0789606 -0.0060842 -0.0406319 ) 91
( 0.082496 -0.0655052 0.00342438 ) 107
( 0.00987329 0.00866815 -0.0662015 ) 57
( 0.23514 0.00625367 -0.0137068 ) 131
( 0.153797 -0.0372758 -0.069929 ) 53
( 0.163197 -0.090198 -0.0611796 ) 35
( 0.0435618 -0.00575053 -0.0574298 ) 58
( 0.125116 -0.0902008 -0.0405166 ) 66
( 0.0244201 0.00535133 -0.0342531 ) 89
( 0.0929982 -0.0710088 -0.0300211 ) 74
( 0.0736102 -0.0235293 -0.0141408 ) 116
( 0.105631 0.0116397 -0.0265088 ) 92
( 0.0274764 0.00520422 -0.0537836 ) 57
( 0.049215 -0.0617838 -0.0131946 ) 106
( 0.248886 -0.0473786 -0.0552047 ) 47
( 0.0973016 -0.00481726 -0.0333468 ) 92
( 0.0996766 -0.0900986 -0.0544741 ) 33
( 0.150158 -0.0251278 0.00490363 ) 119
( 0.173676 -0.00465884 -0.027015 ) 95
( 0.218423 -0.0436648 -0.0532653 ) 46
( 0.192328 0.00532883 0.00725299 ) 129
( 0.231482 -0.0204089 0.00180828 ) 122
( 0.135609 0.00155984 -0.0408066 ) 93
( 0.0973031 -0.0635763 -0.0121514 ) 108
( 0.0602914 -0.0898438 -0.024766 ) 64
( 0.212874 -0.0655215 -0.0213061 ) 78
( 0.191712 -0.00845405 -0.0199369 ) 95
( 0.151761 -0.0588251 -0.00979953 ) 110
( 0.0785247 0.00674263 -0.0246046 ) 91
( 0.0270907 -0.0902403 -0.0225942 ) 62
( 0.192919 -0.0685396 -0.0220978 ) 77
( 0.126602 0.0130731 -0.0244672 ) 93
( 0.109443 -0.0427664 -0.0222783 ) 83
( 0.1034 -0.0208558 -0.0177672 ) 83
( 0.15898 -0.0233621 -0.0160822 ) 85
( 0.159284 -0.0718806 -0.0545191 ) 35
( 0.00984179 -0.0632348 -0.0130733 ) 105
( 0.0629142 -0.0475857 -0.0151158 ) 73
( 0.0270522 -0.0221241 -0.0110189 ) 114
( 0.170627 -0.0386342 -0.020601 ) 86
( 0.139246 -0.00180163 -0.0215035 ) 94
( 0.23628 -0.090111 -0.0193271 ) 70
( 0.118588 -0.0704782 -0.00362971 ) 109
( 0.0896634 -0.00685018 -0.0150682 ) 92
( 0.23264 -0.0298154 -0.0154708 ) 88
( 0.0343758 -0.0491772 -0.010927 ) 106
( 0.0106225 -0.0427107 -0.0152115 ) 80
( 0.136507 -0.0751198 -0.0104266 ) 100
( 0.19332 0.00992401 -0.0128116 ) 129
( 0.0988744 -0.0892484 -0.0070871 ) 99
( 0.0375685 -0.0519229 0.00856302 ) 106
( 0.144014 -0.0614908 -0.0769335 ) 14
( 0.249892 -0.0799584 -0.0769437 ) 8
( 0.173201 -0.0449836 -0.0780809 ) 15
( 0.0858314 -0.0736476 -0.0694978 ) 33
( 0.00990458 -0.0445523 -0.0734305 ) 9
( 0.0408049 -0.0584742 -0.0739091 ) 10
( 0.0561559 -0.0725109 -0.072128 ) 2
( 0.0673388 -0.0441223 -0.0755051 ) 11
( 0.0422573 -0.0901609 -0.0747758 ) 1
( 0.205174 -0.0901773 -0.077983 ) 7
( 0.244446 -0.0533429 -0.0797091 ) 17
( 0.224612 -0.0236401 -0.0754343 ) 26
( 0.0774292 -0.0263792 -0.0794624 ) 20
( 0.223717 -0.0831325 -0.0788036 ) 8
( 0.0215745 -0.0742366 -0.0732737 ) 0
( 0.0854079 -0.0509164 -0.0800417 ) 12
( 0.109095 -0.0279984 -0.0799243 ) 21
( 0.209735 -0.0448782 -0.0811142 ) 16
( 0.192222 -0.0612127 -0.0772209 ) 15
( 0.172015 -0.0899187 -0.0790024 ) 6
( 0.128613 -0.0315673 -0.080675 ) 22
( 0.0432505 -0.019319 -0.071976 ) 19
( 0.134209 -0.0879103 -0.0802353 ) 4
( 0.0333927 -0.0403811 -0.0775231 ) 19
( 0.11241 -0.0592803 -0.0814649 ) 13
( 0.0700926 -0.0898513 -0.0792702 ) 2
( 0.0220347 -0.0241676 -0.0793721 ) 18
( 0.09592 -0.0901398 -0.0743694 ) 3
( 0.188795 -0.0799678 -0.0829622 ) 6
( 0.161195 -0.0710755 -0.0827369 ) 14
( 0.20634 -0.0209494 -0.0842954 ) 25
( 0.159217 -0.0247817 -0.084489 ) 23
( 0.0722361 -0.0658026 -0.0818001 ) 11
( 0.0229269 -0.0565921 -0.082458 ) 9
( 0.0578223 -0.0279431 -0.0824084 ) 20
( 0.0343395 0.000892191 -0.0737566 ) 28
( 0.0544624 -0.00839191 -0.0842947 ) 28
( 0.218587 -0.0632355 -0.0831318 ) 16
( 0.113409 -0.0854745 -0.0828295 ) 4
( 0.144266 -0.0437916 -0.0861697 ) 14
( 0.241844 -0.0208338 -0.08511 ) 26
( 0.00994157 -0.0900535 -0.0767514 ) 0
( 0.0948302 -0.067446 -0.0861416 ) 12
( 0.228213 -0.0391734 -0.0874475 ) 26
( 0.0615574 0.00986106 -0.0878141 ) 29
( 0.0372765 -0.0741854 -0.0856084 ) 1
( 0.153289 -0.0900628 -0.0857706 ) 5
( 0.0505578 -0.0461122 -0.0860259 ) 10
( 0.00989537 -0.00186651 -0.0831816 ) 27
( 0.191232 -0.0449257 -0.0886858 ) 15
( 0.0350487 -0.0122629 -0.0887212 ) 28
( 0.00991103 -0.0702442 -0.0888818 ) 9
( 0.0927557 -0.0347408 -0.0890736 ) 21
( 0.0256976 -0.0900573 -0.0889498 ) 0
)
