/*--------------------------------*- C++ -*----------------------------------*\
| =========                 |                                                 |
| \\      /  F ield         | OpenFOAM: The Open Source CFD Toolbox           |
|  \\    /   O peration     | Version:  4.x                                   |
|   \\  /    A nd           | Web:      www.OpenFOAM.org                      |
|    \\/     M anipulation  |                                                 |
\*---------------------------------------------------------------------------*/
FoamFile
{
    version     2.0;
    format      ascii;
    class       volScalarField;
    location    "25.5";
    object      KslPrev;
}
// * * * * * * * * * * * * * * * * * * * * * * * * * * * * * * * * * * * * * //

dimensions      [1 -3 -1 0 0 0 0];

internalField   nonuniform List<scalar> 
108
(
5533.8
2565.82
3447.8
2470.9
4056.71
2458.44
4994.58
2242.97
10531.1
5292.58
2921.81
4609.24
2786.7
4760.41
2712.35
6646.87
2671.95
15945.9
5070.29
2762.32
4159.06
2648.29
4349.74
2621.4
5926.17
2520.06
8899.11
3749.56
2470.13
3495.89
2355.69
3494.97
2165.34
3859.18
1790.45
4452.62
8413.78
3456.8
25686.5
3297.39
16356.5
3083.47
17026.5
2607.48
6366.26
11665.9
3385.04
14346
3233.81
13860
2914.91
15658.8
2695.17
14209
12339.6
3301.09
11190
3349.19
15759.8
3015.02
16617.3
2713.72
5543.74
5180.93
2840.37
4897.95
2666.39
4934.82
2361.15
5292.91
1784.87
3498.94
11124
4504.08
1870.6
5997.54
5424.68
4242.76
6867.1
3557.3
10556
11611.2
3563.45
5101.3
3291.43
7208.61
3474.63
659693
3205.6
18675.6
114673
3095.99
1e+10
4535.97
7994.89
3869.74
1e+10
4205.98
17303.5
7449.41
3048.98
5021.67
2957.83
5322.32
2833.4
8576.65
2480.08
9874.43
)
;

boundaryField
{
    inlet
    {
        type            zeroGradient;
    }
    outlet
    {
        type            zeroGradient;
    }
    wall
    {
        type            zeroGradient;
    }
    procBoundary3to1
    {
        type            processor;
        value           uniform 0;
    }
    procBoundary3to2
    {
        type            processor;
        value           uniform 0;
    }
    procBoundary3to7
    {
        type            processor;
        value           uniform 0;
    }
}


// ************************************************************************* //
