/*--------------------------------*- C++ -*----------------------------------*\
| =========                 |                                                 |
| \\      /  F ield         | OpenFOAM: The Open Source CFD Toolbox           |
|  \\    /   O peration     | Version:  4.x                                   |
|   \\  /    A nd           | Web:      www.OpenFOAM.org                      |
|    \\/     M anipulation  |                                                 |
\*---------------------------------------------------------------------------*/
FoamFile
{
    version     2.0;
    format      ascii;
    class       volScalarField;
    location    "25.5";
    object      particleRelTemp;
}
// * * * * * * * * * * * * * * * * * * * * * * * * * * * * * * * * * * * * * //

dimensions      [0 0 0 0 0 0 0];

internalField   nonuniform List<scalar> 
108
(
1.57684e-07
7.10984e-08
-2.51418e-09
-2.35877e-08
-3.34745e-08
-2.05265e-08
-5.59548e-09
-4.48428e-09
-1.49944e-08
1.13898e-07
4.38209e-08
-3.50087e-09
-3.24082e-08
-3.27205e-08
-2.28331e-08
-1.0475e-08
-8.72971e-09
-2.09481e-08
5.99426e-08
3.24095e-08
-8.69293e-09
-3.14345e-08
-3.34965e-08
-2.73688e-08
-1.99619e-08
-2.3213e-08
-3.2016e-08
4.07745e-08
2.27551e-08
-9.54674e-09
-3.07614e-08
-3.61744e-08
-3.18523e-08
-2.65546e-08
-3.06629e-08
-4.51422e-08
1.20905e-07
5.45568e-08
8.46248e-09
-1.9198e-08
-2.44104e-08
-1.73051e-08
-3.3472e-09
1.69376e-09
-6.39567e-09
9.42319e-08
3.36313e-08
-1.06619e-08
-2.73357e-08
-2.87037e-08
-1.611e-08
-7.25117e-09
-5.60195e-09
-1.23381e-08
5.65373e-08
2.04761e-08
-9.71328e-09
-2.84278e-08
-3.07167e-08
-2.48813e-08
-1.90471e-08
-1.88515e-08
-2.33463e-08
3.44674e-08
1.89251e-08
-1.45711e-09
-2.79592e-08
-3.4048e-08
-3.05484e-08
-2.66358e-08
-2.7909e-08
-3.41742e-08
8.24441e-08
6.49396e-08
1.38658e-08
-1.2017e-08
-1.76051e-08
-9.85609e-09
-1.35401e-09
3.08067e-09
1.31377e-09
5.6451e-08
2.1347e-08
-1.2086e-08
-2.3861e-08
-1.837e-08
-1.17348e-08
-4.10063e-09
-3.24395e-09
-6.16943e-09
2.42716e-08
1.11354e-08
-1.65424e-08
-2.76304e-08
-2.52287e-08
-1.9549e-08
-1.61519e-08
-1.39677e-08
-1.70501e-08
1.41822e-08
6.78951e-09
-9.87843e-09
-2.62795e-08
-3.01604e-08
-2.86809e-08
-2.52913e-08
-2.26656e-08
-2.096e-08
)
;

boundaryField
{
    inlet
    {
        type            calculated;
        value           nonuniform 0();
    }
    outlet
    {
        type            calculated;
        value           nonuniform List<scalar> 
12
(
-1.49944e-08
-2.09481e-08
-3.2016e-08
-4.51422e-08
-6.39567e-09
-1.23381e-08
-2.33463e-08
-3.41742e-08
1.31377e-09
-6.16943e-09
-1.70501e-08
-2.096e-08
)
;
    }
    wall
    {
        type            calculated;
        value           nonuniform List<scalar> 
63
(
1.57684e-07
1.13898e-07
5.99426e-08
4.07745e-08
7.10984e-08
4.38209e-08
3.24095e-08
2.27551e-08
-2.51418e-09
-3.50087e-09
-8.69293e-09
-9.54674e-09
-2.35877e-08
-3.24082e-08
-3.14345e-08
-3.07614e-08
-3.34745e-08
-3.27205e-08
-3.34965e-08
-3.61744e-08
-2.05265e-08
-2.28331e-08
-2.73688e-08
-3.18523e-08
-5.59548e-09
-1.0475e-08
-1.99619e-08
-2.65546e-08
-4.48428e-09
-8.72971e-09
-2.3213e-08
-3.06629e-08
-1.49944e-08
-2.09481e-08
-3.2016e-08
-4.51422e-08
4.07745e-08
3.44674e-08
1.41822e-08
2.27551e-08
1.89251e-08
6.78951e-09
-9.54674e-09
-1.45711e-09
-9.87843e-09
-3.07614e-08
-2.79592e-08
-2.62795e-08
-3.61744e-08
-3.4048e-08
-3.01604e-08
-3.18523e-08
-3.05484e-08
-2.86809e-08
-2.65546e-08
-2.66358e-08
-2.52913e-08
-3.06629e-08
-2.7909e-08
-2.26656e-08
-4.51422e-08
-3.41742e-08
-2.096e-08
)
;
    }
    procBoundary3to1
    {
        type            processor;
        value           nonuniform List<scalar> 
27
(
1.17433e-07
7.59597e-08
2.8396e-08
-1.31094e-08
-2.31292e-08
-1.93888e-08
-5.91258e-09
-6.68454e-09
-9.84327e-09
1.4685e-07
1.03232e-07
3.67713e-08
-4.00705e-09
-2.18635e-08
-1.62888e-08
-8.20169e-09
-1.15599e-09
-2.52224e-09
1.66165e-07
9.93127e-08
5.16136e-08
4.44903e-09
-1.53248e-08
-1.33576e-08
-5.16384e-09
-4.11128e-10
7.94708e-10
)
;
    }
    procBoundary3to2
    {
        type            processor;
        value           nonuniform List<scalar> 
12
(
2.06417e-07
1.42131e-07
7.8612e-08
3.77233e-08
1.54663e-07
1.19883e-07
6.31368e-08
2.57185e-08
1.05108e-07
6.59169e-08
2.93498e-08
1.66179e-08
)
;
    }
    procBoundary3to7
    {
        type            processor;
        value           nonuniform List<scalar> 
36
(
4.75816e-08
3.05107e-08
1.18374e-08
-1.52762e-08
-1.67331e-08
-9.54016e-09
-1.45911e-09
1.63885e-09
2.92105e-09
1.1747e-08
5.69092e-09
-1.40555e-08
-2.18437e-08
-1.94268e-08
-1.18354e-08
-2.90813e-09
2.43102e-10
6.87896e-10
-5.76163e-09
-7.9885e-09
-1.94456e-08
-2.55258e-08
-2.52644e-08
-2.19158e-08
-1.50926e-08
-9.40179e-09
-7.76072e-09
-4.0148e-09
-1.1589e-08
-1.72427e-08
-2.65777e-08
-2.93495e-08
-2.8306e-08
-2.42621e-08
-1.89431e-08
-1.52105e-08
)
;
    }
}


// ************************************************************************* //
