/*--------------------------------*- C++ -*----------------------------------*\
| =========                 |                                                 |
| \\      /  F ield         | OpenFOAM: The Open Source CFD Toolbox           |
|  \\    /   O peration     | Version:  4.x                                   |
|   \\  /    A nd           | Web:      www.OpenFOAM.org                      |
|    \\/     M anipulation  |                                                 |
\*---------------------------------------------------------------------------*/
FoamFile
{
    version     2.0;
    format      ascii;
    class       volVectorField;
    location    "25.5";
    object      UsPrev;
}
// * * * * * * * * * * * * * * * * * * * * * * * * * * * * * * * * * * * * * //

dimensions      [0 1 -1 0 0 0 0];

internalField   nonuniform List<vector> 
108
(
(-8.53337e-07 -2.5191e-07 6.31746e-07)
(-1.45303e-06 1.81994e-08 6.17371e-07)
(-2.80713e-06 8.27486e-07 3.20546e-07)
(-2.5902e-06 1.74566e-07 3.06417e-08)
(-2.7789e-06 1.16211e-07 -2.19872e-07)
(-2.30268e-06 7.18669e-08 -7.79079e-07)
(-1.79015e-06 -1.00596e-07 -2.43193e-07)
(-6.18845e-07 -1.5445e-08 -2.95291e-07)
(-8.17e-08 3.64574e-08 -1.43356e-07)
(-1.03852e-06 -2.91231e-07 4.61017e-07)
(-1.48417e-06 -3.15164e-07 4.9684e-07)
(-1.87498e-06 -5.70372e-08 2.88977e-07)
(-2.60396e-06 3.99399e-08 -3.10809e-08)
(-2.4774e-06 1.68641e-07 -3.04485e-07)
(-2.19099e-06 1.94078e-07 -6.42043e-07)
(-1.50149e-06 4.3908e-08 -3.9399e-07)
(-9.06773e-07 -8.41486e-09 -2.28917e-07)
(-3.37586e-07 -1.40829e-07 -1.75811e-07)
(-1.07766e-06 -3.76722e-07 2.80794e-07)
(-1.21086e-06 -1.14053e-07 3.45319e-07)
(-2.07194e-06 9.8076e-08 2.13245e-07)
(-2.27596e-06 2.17087e-08 8.34275e-08)
(-2.30207e-06 1.98177e-07 -8.1125e-08)
(-1.72154e-06 1.41917e-07 -5.2664e-07)
(-1.66439e-06 -4.29338e-08 -2.25739e-07)
(-1.02604e-06 -2.69355e-07 -8.88183e-08)
(-5.12336e-08 -1.14638e-07 -1.14861e-07)
(-5.12587e-07 -2.1929e-07 1.21868e-07)
(-1.0447e-06 -1.52444e-07 2.78153e-07)
(-1.42217e-06 8.01831e-07 1.0706e-07)
(-1.6745e-06 -3.78869e-08 7.71488e-08)
(-1.8758e-06 -9.28925e-08 3.27437e-08)
(-1.11784e-06 9.19321e-08 -1.25331e-07)
(-4.55899e-07 -7.38485e-08 -1.81724e-07)
(-2.12902e-07 -4.59963e-08 -9.77829e-09)
(-7.27655e-08 3.17857e-06 -1.93559e-07)
(-7.28482e-07 -1.80082e-07 6.65202e-07)
(-8.86499e-07 -7.88052e-08 6.72596e-07)
(-1.48556e-06 -5.88173e-08 2.78475e-07)
(-1.84603e-06 8.92301e-08 4.80965e-08)
(-1.8704e-06 2.48511e-08 -3.13439e-07)
(-1.63494e-06 -2.5367e-08 -6.8008e-07)
(-1.10661e-06 4.84044e-09 -4.69064e-07)
(-5.14998e-07 -2.04276e-08 -4.67611e-07)
(-7.17226e-08 -6.83971e-08 -1.80229e-07)
(-7.32437e-07 -2.30837e-07 4.25024e-07)
(-1.14561e-06 -9.92884e-08 5.30457e-07)
(-1.54721e-06 -1.12987e-07 1.74166e-07)
(-1.7897e-06 4.15346e-08 2.34015e-08)
(-1.79191e-06 2.54036e-08 -2.38298e-07)
(-1.43274e-06 1.55042e-08 -6.3415e-07)
(-1.31164e-06 -3.01766e-07 -4.15739e-07)
(-5.45952e-07 -1.66913e-08 -3.635e-07)
(-6.85387e-08 -7.95492e-08 -1.97979e-07)
(-9.00964e-07 -2.6458e-07 2.68711e-07)
(-1.20327e-06 -6.1774e-08 3.50737e-07)
(-1.593e-06 -1.18539e-08 1.5172e-07)
(-1.7038e-06 -6.1636e-08 8.84338e-08)
(-1.56069e-06 5.15262e-08 -1.49763e-07)
(-1.35762e-06 1.16287e-07 -4.64826e-07)
(-1.04548e-06 -3.62411e-08 -3.21354e-07)
(-5.22248e-07 1.12482e-08 -2.05811e-07)
(-1.18151e-07 -2.83936e-08 -1.73487e-07)
(-6.77631e-07 -1.23889e-07 9.83919e-08)
(-1.14653e-06 -8.00131e-08 2.12689e-07)
(-1.02294e-06 6.90036e-08 1.59728e-07)
(-1.29839e-06 -3.63807e-08 8.84794e-08)
(-1.06296e-06 -1.08649e-07 -1.3359e-07)
(-7.99757e-07 5.50786e-10 -2.25594e-07)
(-5.27369e-07 -6.34558e-08 -1.64183e-07)
(-3.198e-07 -4.66857e-08 -1.05482e-07)
(-6.08769e-08 -9.44957e-09 -1.42224e-07)
(-2.10611e-07 -1.79076e-07 4.2856e-07)
(-2.71926e-07 1.03043e-08 5.44789e-07)
(-4.11706e-07 -8.01911e-08 2.38958e-07)
(-9.72801e-07 7.18734e-08 2.22388e-08)
(-9.71189e-07 -3.39274e-09 -3.46342e-07)
(-6.45323e-07 -3.22941e-08 -3.97502e-07)
(-5.36085e-07 1.28453e-08 -4.47791e-07)
(-1.7142e-07 -5.83437e-09 -4.3177e-07)
(-1.76822e-08 -7.53163e-08 -2.5997e-07)
(-4.19782e-07 -2.51536e-07 3.39173e-07)
(-6.64335e-07 -9.45804e-08 4.07702e-07)
(-7.61998e-07 1.18138e-08 1.69318e-07)
(-1.01436e-06 1.11252e-07 5.0621e-08)
(-8.93839e-07 -7.58467e-09 -1.49739e-07)
(-7.1145e-07 2.91156e-09 -4.05656e-07)
(-4.94503e-07 4.65529e-08 -4.08238e-07)
(-3.22114e-07 3.47329e-08 -3.55747e-07)
(-1.5515e-07 -1.97175e-08 -2.21365e-07)
(-7.1491e-07 -1.5445e-07 2.22836e-07)
(-9.30457e-07 -1.17402e-07 3.23325e-07)
(-1.25814e-06 -7.52098e-08 1.42168e-07)
(-1.18899e-06 3.34017e-08 1.38802e-07)
(-1.03048e-06 3.27643e-08 -1.34073e-07)
(-8.0433e-07 4.70602e-09 -2.80217e-07)
(-7.4477e-07 3.10304e-08 -3.45011e-07)
(-2.68974e-07 9.64513e-08 -2.63281e-07)
(-6.12265e-08 1.0737e-08 -1.14882e-07)
(-5.61434e-07 2.19224e-08 8.64073e-08)
(-7.1938e-07 -3.15672e-08 1.15865e-07)
(-1.07863e-06 1.17548e-07 1.36086e-07)
(-8.79717e-07 -5.93238e-08 3.07069e-08)
(-8.7364e-07 -1.91291e-08 -9.39161e-08)
(-5.53011e-07 -2.61437e-08 -1.98262e-07)
(-4.32224e-07 4.47336e-09 -1.84077e-07)
(-1.88742e-07 -2.70715e-08 -1.01719e-07)
(-3.9626e-08 -1.21298e-08 -9.58531e-08)
)
;

boundaryField
{
    inlet
    {
        type            calculated;
        value           nonuniform 0();
    }
    outlet
    {
        type            calculated;
        value           uniform (0 0 0);
    }
    wall
    {
        type            calculated;
        value           uniform (0 0 0);
    }
    procBoundary3to1
    {
        type            processor;
        value           uniform (0 0 0);
    }
    procBoundary3to2
    {
        type            processor;
        value           uniform (0 0 0);
    }
    procBoundary3to7
    {
        type            processor;
        value           uniform (0 0 0);
    }
}


// ************************************************************************* //
