/*--------------------------------*- C++ -*----------------------------------*\
| =========                 |                                                 |
| \\      /  F ield         | OpenFOAM: The Open Source CFD Toolbox           |
|  \\    /   O peration     | Version:  4.x                                   |
|   \\  /    A nd           | Web:      www.OpenFOAM.org                      |
|    \\/     M anipulation  |                                                 |
\*---------------------------------------------------------------------------*/
FoamFile
{
    version     2.0;
    format      ascii;
    class       volScalarField;
    location    "53";
    object      QPartFluid;
}
// * * * * * * * * * * * * * * * * * * * * * * * * * * * * * * * * * * * * * //

dimensions      [1 -1 -3 0 0 0 0];

internalField   nonuniform List<scalar> 
132
(
5.18414e+09
4.25723e+09
3.7001e+09
2.9645e+09
4.31971e+09
4.48832e+09
5.88006e+09
3.93888e+09
2.01749e+09
4.64962e+09
5.10188e+09
5.52569e+09
5.59646e+09
3.84053e+09
6.71675e+09
5.31355e+09
5.79083e+09
5.24387e+09
3.11691e+09
5.87421e+09
5.74716e+09
5.06417e+09
5.56514e+09
4.89007e+09
3.98094e+09
5.17228e+09
8.50687e+09
2.9785e+09
4.53321e+09
3.50892e+09
4.26783e+09
6.97444e+09
8.63769e+09
7.57139e+09
7.74646e+09
7.59994e+09
7.12057e+09
6.77134e+09
7.25923e+09
4.98219e+09
9.45803e+09
8.01661e+09
8.49945e+09
9.60433e+09
8.61412e+09
9.20057e+09
9.19227e+09
8.968e+09
5.30176e+09
9.4483e+09
8.40854e+09
7.5314e+09
9.07276e+09
6.73969e+09
1.05156e+10
6.89143e+09
6.34528e+09
7.96332e+09
7.03756e+09
7.79552e+09
5.51099e+09
1.1316e+10
5.58585e+09
6.97052e+09
8.13858e+09
6.96915e+09
7.49147e+09
5.67229e+09
8.05712e+09
7.06563e+09
5.41658e+09
6.24741e+09
8.28123e+09
7.98825e+09
6.92309e+09
9.2785e+09
6.719e+09
9.45242e+09
1.01835e+10
1.01385e+10
6.7088e+09
7.20511e+09
8.09161e+09
9.29863e+09
9.83128e+09
8.06998e+09
9.19919e+09
6.41932e+09
5.39112e+09
6.90505e+09
8.66989e+09
9.57382e+09
8.99906e+09
9.97444e+09
8.04115e+09
8.77772e+09
4.35433e+09
4.98791e+09
6.76902e+09
5.18529e+09
7.0843e+09
7.77072e+09
5.90166e+09
4.3274e+09
6.03804e+09
5.13647e+09
9.59512e+09
9.09159e+09
8.08423e+09
7.19771e+09
6.62217e+09
1.04273e+10
7.17928e+09
6.92795e+09
5.18856e+09
5.58353e+09
9.05269e+09
6.09912e+09
8.69411e+09
8.39888e+09
8.24372e+09
4.94527e+09
9.33317e+09
4.82823e+09
6.7372e+09
9.8396e+09
1.02473e+10
5.52189e+09
9.863e+09
8.58294e+09
5.6016e+09
2.6245e+09
)
;

boundaryField
{
    inlet
    {
        type            calculated;
        value           uniform 0;
    }
    outlet
    {
        type            calculated;
        value           nonuniform 0();
    }
    wall
    {
        type            calculated;
        value           uniform 0;
    }
    procBoundary0to1
    {
        type            processor;
        value           nonuniform List<scalar> 
12
(
4.29714e+09
4.53415e+09
3.94926e+09
7.42614e+09
9.01754e+09
7.91367e+09
7.11745e+09
6.47923e+09
9.42989e+09
6.4662e+09
7.86057e+09
5.90205e+09
)
;
    }
    procBoundary0to2
    {
        type            processor;
        value           nonuniform List<scalar> 
44
(
7.13638e+09
5.59369e+09
3.05351e+09
5.97216e+09
3.63761e+09
4.5997e+09
5.81642e+09
6.93175e+09
7.13638e+09
6.13344e+09
7.13638e+09
5.59369e+09
9.84815e+09
1.23013e+10
6.61343e+09
1.12267e+10
4.73254e+09
7.93589e+09
9.5915e+09
9.17088e+09
9.84815e+09
8.87891e+09
9.84815e+09
1.23013e+10
8.07338e+09
9.30126e+09
6.86059e+09
5.73211e+09
6.74269e+09
6.84493e+09
6.74733e+09
7.64206e+09
8.07338e+09
9.80422e+09
8.07338e+09
9.30126e+09
4.89809e+09
9.48634e+09
1.03007e+10
7.15544e+09
8.23876e+09
6.27704e+09
7.58737e+09
7.51243e+09
)
;
    }
    procBoundary0to4
    {
        type            processor;
        value           nonuniform List<scalar> 
36
(
4.92446e+09
7.10875e+09
8.42686e+09
5.98055e+09
7.15795e+09
5.99403e+09
8.94463e+09
6.87594e+09
9.65284e+09
7.01789e+09
7.29859e+09
9.38913e+09
1.00427e+10
1.01159e+10
8.59525e+09
8.14496e+09
5.78186e+09
1.11137e+10
6.68875e+09
1.02797e+10
8.31681e+09
9.37705e+09
8.12914e+09
6.31186e+09
7.31474e+09
1.03018e+10
6.74696e+09
3.4587e+09
6.73608e+09
9.4054e+09
5.71999e+09
8.81828e+09
6.7042e+09
1.10535e+10
6.0197e+09
7.08337e+09
)
;
    }
    procBoundary0to6
    {
        type            processor;
        value           uniform 8.11821e+09;
    }
    procBoundary0to7
    {
        type            processor;
        value           uniform 1.01742e+10;
    }
}


// ************************************************************************* //
