/*--------------------------------*- C++ -*----------------------------------*\
| =========                 |                                                 |
| \\      /  F ield         | OpenFOAM: The Open Source CFD Toolbox           |
|  \\    /   O peration     | Version:  4.x                                   |
|   \\  /    A nd           | Web:      www.OpenFOAM.org                      |
|    \\/     M anipulation  |                                                 |
\*---------------------------------------------------------------------------*/
FoamFile
{
    version     2.0;
    format      ascii;
    class       volScalarField;
    location    "53";
    object      QWallFluid;
}
// * * * * * * * * * * * * * * * * * * * * * * * * * * * * * * * * * * * * * //

dimensions      [1 -1 -3 0 0 0 0];

internalField   nonuniform List<scalar> 
132
(
1.71018e+09
9.64228e+08
1.84979e+09
1.21502e+09
1.97377e+09
1.39189e+09
2.07402e+09
1.52185e+09
2.18159e+09
8.57715e+08
4.61806e+08
9.0769e+08
5.5851e+08
9.58002e+08
6.30488e+08
9.98763e+08
6.83898e+08
1.03741e+09
0
4.46048e+08
8.96383e+08
5.24231e+08
9.29293e+08
5.79678e+08
9.58746e+08
6.10799e+08
9.70906e+08
8.59006e+08
4.50191e+08
8.98896e+08
8.48148e+08
4.28029e+08
8.72235e+08
4.79248e+08
8.96779e+08
5.17742e+08
9.19654e+08
5.41908e+08
9.39551e+08
0
0
0
0
0
0
0
0
0
0
0
0
0
0
0
0
0
0
0
0
0
0
0
8.35005e+08
4.18046e+08
8.51938e+08
4.55371e+08
8.73225e+08
4.8827e+08
8.94953e+08
5.08293e+08
9.19292e+08
0
0
0
0
0
0
0
0
0
0
0
0
0
0
0
0
0
0
0
0
0
0
0
0
0
8.3375e+08
4.13047e+08
8.45578e+08
4.38368e+08
8.55064e+08
4.46474e+08
8.61354e+08
4.37506e+08
8.60338e+08
0
0
0
0
0
0
0
0
0
0
0
0
0
0
0
0
0
0
0
0
0
0
0
0
0
0
0
)
;

boundaryField
{
    inlet
    {
        type            calculated;
        value           uniform 0;
    }
    outlet
    {
        type            calculated;
        value           nonuniform 0();
    }
    wall
    {
        type            calculated;
        value           uniform 0;
    }
    procBoundary0to1
    {
        type            processor;
        value           nonuniform List<scalar> 
12
(
1.61139e+09
7.17349e+08
6.13751e+08
5.51024e+08
0
0
5.14864e+08
0
0
3.86484e+08
0
0
)
;
    }
    procBoundary0to2
    {
        type            processor;
        value           nonuniform List<scalar> 
44
(
5.32153e+08
9.32737e+08
5.97601e+08
9.69142e+08
6.39653e+08
1.0048e+09
8.47937e+08
4.24603e+08
5.32153e+08
8.77949e+08
5.32153e+08
9.32737e+08
0
0
0
0
0
0
0
0
0
0
0
0
0
0
0
0
0
0
0
0
0
0
0
0
0
0
0
0
0
0
0
0
)
;
    }
    procBoundary0to4
    {
        type            processor;
        value           nonuniform List<scalar> 
36
(
8.26786e+08
4.17872e+08
8.36159e+08
4.40095e+08
8.48582e+08
4.55102e+08
8.59515e+08
4.59042e+08
8.71916e+08
0
0
0
0
0
0
0
0
0
0
0
0
0
0
0
0
0
0
0
0
0
0
0
0
0
0
0
)
;
    }
    procBoundary0to6
    {
        type            processor;
        value           uniform 0;
    }
    procBoundary0to7
    {
        type            processor;
        value           uniform 0;
    }
}


// ************************************************************************* //
