/*--------------------------------*- C++ -*----------------------------------*\
  =========                 |
  \\      /  F ield         | OpenFOAM: The Open Source CFD Toolbox
   \\    /   O peration     | Website:  https://openfoam.org
    \\  /    A nd           | Version:  4.x
     \\/     M anipulation  |
\*---------------------------------------------------------------------------*/
FoamFile
{
    version     2.0;
    format      ascii;
    class       vectorField;
    location    0;
    object      v;
}
// * * * * * * * * * * * * * * * * * * * * * * * * * * * * * * * * * * * * * //

348
(
( 2.75588e-09 1.13422e-09 2.71908e-09 )  
( 3.26934e-09 1.34845e-09 2.15356e-09 )  
( 4.16535e-09 9.26805e-10 1.84762e-09 )  
( 2.56316e-09 2.57042e-10 -2.7417e-09 )  
( 4.72587e-09 9.92393e-10 5.439e-09 )  
( 1.13124e-09 -1.44745e-10 -1.29948e-09 )  
( 1.61595e-09 2.86271e-10 -4.46542e-09 )  
( 6.08284e-10 5.99807e-11 -7.21223e-10 )  
( 4.39008e-09 -3.59513e-10 2.3507e-09 )  
( 1.85259e-09 6.36512e-11 -2.28284e-09 )  
( 2.61574e-09 8.41408e-10 -1.9902e-09 )  
( 1.58587e-09 -5.18523e-10 -2.06724e-09 )  
( 1.81837e-09 -4.12062e-10 1.48106e-09 )  
( 2.85256e-09 3.36589e-10 -1.93057e-09 )  
( 2.0675e-09 4.41599e-10 -2.70748e-09 )  
( 4.47597e-09 6.66526e-10 5.66129e-09 )  
( 3.54984e-09 -1.00999e-09 1.19956e-09 )  
( 2.73129e-09 -1.78407e-10 -1.22843e-09 )  
( 3.18743e-09 8.57805e-10 7.42425e-09 )  
( 5.66731e-09 8.32379e-10 2.28011e-09 )  
( 3.33349e-09 -4.6725e-10 -4.39932e-10 )  
( 3.13966e-09 1.00869e-09 6.18101e-09 )  
( 5.63132e-09 1.38106e-09 5.98267e-09 )  
( 3.98098e-09 -2.70116e-10 5.35625e-09 )  
( 2.11515e-09 -3.47072e-11 8.13352e-10 )  
( 4.98381e-09 5.35842e-11 1.49825e-09 )  
( 1.29466e-09 6.55069e-10 -8.69319e-10 )  
( 7.2927e-10 -1.1687e-10 -8.66882e-10 )  
( -9.82438e-10 -1.30165e-09 -4.61428e-09 )  
( 4.3471e-09 -8.05782e-10 8.1953e-10 )  
( 3.36404e-09 2.97571e-10 -2.03821e-09 )  
( 1.69731e-09 -2.17498e-10 -1.89139e-09 )  
( 2.94647e-09 3.87411e-10 3.37091e-09 )  
( 9.50173e-10 -1.44453e-10 8.22223e-11 )  
( 3.70647e-09 -1.03236e-09 2.97997e-09 )  
( 2.64631e-09 5.67348e-10 -9.7939e-10 )  
( 2.23232e-09 -4.68419e-10 -7.62151e-10 )  
( 1.71382e-09 1.76968e-10 -1.21697e-09 )  
( 4.95211e-09 4.58055e-10 4.32105e-09 )  
( 3.01119e-09 -1.25524e-10 -1.46237e-09 )  
( 2.47283e-09 1.8195e-10 -1.94207e-09 )  
( 2.28017e-09 -5.50185e-10 -3.39003e-09 )  
( 3.83265e-09 2.5067e-10 -6.86927e-10 )  
( 5.96501e-09 2.27562e-10 6.73132e-09 )  
( 4.67805e-09 1.96993e-09 4.44281e-09 )  
( 2.11941e-09 -4.14408e-10 1.1902e-09 )  
( 4.56736e-09 1.42325e-09 7.89852e-09 )  
( 4.08885e-09 1.95089e-11 -2.33566e-11 )  
( 3.83616e-09 -1.49555e-10 4.11458e-10 )  
( 8.74142e-09 6.21268e-09 1.16173e-09 )  
( 5.9631e-09 1.47032e-09 1.45633e-08 )  
( 3.4724e-09 3.0676e-10 -3.40282e-10 )  
( 1.80488e-09 -4.6903e-10 5.96157e-10 )  
( 1.60592e-09 1.57559e-09 -2.10807e-09 )  
( 4.21858e-09 -4.00831e-10 -4.97961e-10 )  
( -4.58573e-10 8.53241e-10 1.30137e-09 )  
( 8.60971e-10 -1.91769e-10 -8.8344e-10 )  
( 1.59735e-09 1.25989e-10 -2.11024e-10 )  
( 4.86039e-09 -1.1114e-11 2.48315e-09 )  
( 4.71723e-10 -6.38622e-11 -8.39269e-10 )  
( 1.52126e-09 2.91013e-10 -2.39748e-09 )  
( 1.24626e-09 8.00247e-10 -1.38999e-09 )  
( 4.76894e-10 -6.87594e-11 -2.14237e-09 )  
( 8.902e-10 2.98049e-10 -8.07734e-10 )  
( 1.12242e-09 1.11685e-10 -6.98173e-10 )  
( 2.43889e-09 7.22357e-10 -2.25456e-09 )  
( 2.9143e-09 3.6969e-10 -1.54809e-09 )  
( 3.11675e-09 3.04119e-10 -9.35624e-10 )  
( 5.5668e-09 1.30108e-09 2.49714e-09 )  
( 6.44939e-09 1.41815e-09 6.16374e-09 )  
( 4.73314e-09 5.25453e-10 3.0971e-10 )  
( 1.84114e-09 8.91888e-10 4.14956e-09 )  
( 1.81503e-09 6.63525e-10 -2.67489e-09 )  
( 5.0599e-09 9.23355e-10 1.47333e-09 )  
( 2.16592e-09 4.61609e-10 3.09685e-09 )  
( 3.70743e-09 -8.96021e-10 1.56365e-10 )  
( 2.64446e-09 6.87438e-10 -2.06489e-09 )  
( 2.90243e-09 2.70834e-10 -5.75952e-10 )  
( 4.63453e-09 9.55737e-10 5.65639e-09 )  
( 5.18533e-09 1.27226e-09 5.73732e-09 )  
( 1.56028e-09 -4.71605e-10 -1.24828e-09 )  
( 3.61417e-09 -1.41092e-10 6.56653e-10 )  
( 3.78288e-09 5.74354e-11 1.27678e-09 )  
( 5.30493e-09 2.56996e-09 7.92933e-09 )  
( 1.49629e-09 -1.80127e-10 -2.73756e-09 )  
( -3.72936e-11 4.38192e-10 -2.21532e-09 )  
( -6.73598e-10 -2.90676e-10 -7.02613e-09 )  
( 4.23746e-09 5.38252e-10 4.46286e-09 )  
( 3.58412e-09 -8.81533e-10 1.74213e-09 )  
( 1.66828e-09 -2.83808e-10 -2.67788e-09 )  
( 1.79648e-09 -3.05585e-10 8.84202e-10 )  
( 2.85464e-09 -1.25565e-10 2.19109e-09 )  
( 1.5409e-09 4.48157e-10 -2.51045e-09 )  
( 3.37883e-09 7.63427e-10 3.07496e-09 )  
( 6.29645e-09 -5.36495e-11 4.69471e-09 )  
( 7.95859e-10 -4.4865e-10 -4.19587e-10 )  
( 5.98314e-10 -6.21687e-10 -6.17898e-10 )  
( 4.88282e-09 8.20349e-10 3.62098e-09 )  
( 9.20421e-10 -8.35963e-11 -6.38754e-10 )  
( 3.44956e-09 1.05523e-10 -8.85359e-10 )  
( 2.12865e-09 3.54295e-10 -2.4464e-09 )  
( 2.97714e-09 -5.92617e-10 -5.61e-09 )  
( 3.98425e-09 -2.9481e-10 -1.6907e-10 )  
( 2.58955e-09 1.12687e-10 8.8834e-10 )  
( 1.6326e-09 8.08101e-11 -1.8662e-09 )  
( 5.06506e-09 9.65256e-10 2.86445e-09 )  
( 1.94532e-09 -1.11231e-10 -2.2286e-09 )  
( 4.74546e-09 1.53329e-10 5.81347e-10 )  
( -5.5219e-10 6.69613e-10 1.49816e-09 )  
( 1.29845e-08 2.7999e-10 4.71124e-10 )  
( 2.61431e-09 4.94524e-10 -2.32697e-09 )  
( 4.68189e-10 -1.54016e-10 1.22567e-09 )  
( 1.88775e-09 -4.0616e-10 3.36574e-10 )  
( 5.10368e-09 -2.88382e-10 2.82063e-09 )  
( 1.59707e-09 -1.0947e-10 -5.30019e-10 )  
( 1.95022e-09 3.02616e-10 -1.56213e-09 )  
( 3.38669e-09 -5.24821e-11 2.81524e-10 )  
( 1.41742e-09 1.26346e-10 -1.19559e-09 )  
( 6.20841e-10 7.20622e-10 -2.23116e-09 )  
( 4.09508e-09 4.92737e-10 2.09743e-09 )  
( -3.72943e-10 7.11161e-10 -3.96638e-09 )  
( 2.58177e-09 8.62134e-10 -1.86521e-09 )  
( 5.69575e-10 -8.3197e-10 -4.97179e-10 )  
( 3.80271e-09 -7.34702e-10 2.60591e-09 )  
( 1.96206e-09 4.52605e-11 3.6917e-09 )  
( 3.75918e-09 8.21603e-10 1.60887e-09 )  
( 4.47999e-10 5.01838e-10 4.76908e-10 )  
( 3.7204e-09 9.68746e-11 1.48623e-10 )  
( 1.49341e-09 -5.5995e-11 -2.09646e-10 )  
( 1.26023e-09 8.65232e-10 -1.4237e-09 )  
( 2.94901e-09 -9.31733e-10 1.20944e-09 )  
( 1.12246e-09 -1.56614e-10 2.63743e-10 )  
( 1.41557e-09 8.70049e-10 -8.19655e-10 )  
( 3.61935e-09 7.35143e-10 1.92492e-09 )  
( 3.35163e-09 1.66969e-10 2.18142e-09 )  
( 4.22101e-09 3.71614e-10 1.3841e-09 )  
( -4.63612e-10 1.50683e-09 -1.59694e-09 )  
( 1.05646e-09 -3.00588e-10 7.64433e-10 )  
( 3.51515e-09 2.37563e-10 1.92309e-10 )  
( 1.22853e-09 9.36972e-10 -2.34239e-09 )  
( 1.51797e-09 -3.69825e-10 1.6499e-09 )  
( 6.03151e-10 -1.58284e-10 -1.1185e-09 )  
( 1.31044e-11 1.0653e-09 -7.39705e-10 )  
( 3.37755e-09 7.4069e-09 -1.04728e-08 )  
( 1.49594e-09 2.44385e-09 3.10668e-09 )  
( 1.80743e-09 -3.50753e-10 2.21839e-09 )  
( 3.65174e-09 -9.03483e-11 5.2169e-10 )  
( 1.33813e-09 -3.74832e-10 3.09026e-10 )  
( 1.12726e-09 2.14343e-10 -9.89126e-10 )  
( 3.33078e-09 -1.41831e-12 5.30015e-10 )  
( 1.72469e-09 2.38908e-09 -2.37863e-09 )  
( 7.49873e-10 2.7474e-11 5.50459e-10 )  
( -1.41298e-09 4.08208e-09 -3.93597e-09 )  
( 1.45171e-09 -7.51501e-10 1.63433e-09 )  
( 2.76095e-09 7.74321e-10 4.56269e-10 )  
( 5.85249e-10 1.38558e-09 -1.71417e-09 )  
( 2.02035e-09 2.48592e-09 -1.56449e-09 )  
( -4.61028e-10 -4.21788e-11 -6.53948e-10 )  
( 4.40804e-09 1.13434e-10 1.29005e-09 )  
( -2.33847e-10 2.89322e-09 -2.05007e-09 )  
( 1.33247e-09 5.12376e-10 1.07289e-09 )  
( 2.72861e-09 7.30981e-10 -1.55056e-10 )  
( 2.9375e-09 1.134e-11 -8.24316e-11 )  
( 3.83788e-09 3.00909e-10 9.67526e-10 )  
( 4.08364e-09 1.0579e-09 3.55495e-10 )  
( 3.06361e-09 2.79267e-10 -9.472e-11 )  
( 3.56267e-11 1.20459e-09 -9.71633e-10 )  
( 3.26784e-09 8.62653e-10 2.8021e-09 )  
( 3.58848e-09 -8.48909e-10 2.18671e-09 )  
( 3.11891e-09 1.66132e-10 2.77037e-10 )  
( 1.62908e-09 1.91504e-09 2.73781e-09 )  
( 2.46141e-09 7.35373e-10 2.76829e-09 )  
( 1.86744e-09 2.26974e-09 2.2219e-09 )  
( 1.9665e-09 5.25808e-10 -3.77905e-10 )  
( 2.84234e-10 1.52087e-09 -2.4705e-09 )  
( 4.21402e-10 1.30152e-10 -3.92678e-10 )  
( 3.82433e-09 7.34613e-10 1.24951e-09 )  
( 2.9557e-09 1.04607e-10 7.66916e-10 )  
( 1.66923e-09 6.4139e-10 -1.27915e-09 )  
( 2.68052e-09 -4.64081e-10 2.16911e-09 )  
( 3.59799e-09 -2.5901e-10 1.07758e-09 )  
( 4.33228e-09 1.91635e-09 -2.5858e-09 )  
( 8.19566e-10 2.29152e-10 1.08228e-09 )  
( 3.35999e-09 -9.65647e-11 8.72943e-10 )  
( 2.37855e-09 -3.69461e-10 2.53681e-09 )  
( 2.12112e-09 -6.88792e-11 -2.62301e-10 )  
( 7.18846e-10 7.36282e-10 -1.36505e-09 )  
( 3.9444e-09 7.319e-10 1.56707e-09 )  
( 4.63647e-09 5.65982e-10 4.52513e-09 )  
( 8.16423e-10 2.76824e-10 8.44402e-10 )  
( 7.31178e-11 1.70504e-09 -1.92319e-09 )  
( 2.47245e-09 3.23203e-10 4.81321e-10 )  
( 2.24555e-09 1.83987e-10 -8.54701e-10 )  
( 2.71077e-09 6.78681e-10 -3.85953e-10 )  
( 2.30117e-09 3.15587e-10 -1.66174e-09 )  
( 1.23632e-09 1.98678e-10 8.65738e-10 )  
( 2.52272e-09 -5.51707e-10 3.58322e-09 )  
( -3.43553e-10 2.19279e-09 -1.13554e-09 )  
( 1.60496e-09 -5.15246e-11 2.20535e-09 )  
( 2.77513e-09 -4.22552e-10 -9.15062e-09 )  
( 1.47285e-09 -1.81394e-10 4.73907e-10 )  
( -3.28659e-10 7.56899e-10 -9.84577e-10 )  
( 3.35323e-09 4.84848e-10 4.68215e-10 )  
( -1.95577e-10 1.36674e-09 -2.14623e-09 )  
( 4.54392e-09 3.50454e-10 1.45083e-09 )  
( 3.9566e-09 9.19473e-10 4.38911e-09 )  
( 1.30369e-09 1.41667e-10 1.41926e-09 )  
( 4.40923e-10 -9.93551e-11 3.43327e-10 )  
( 3.00232e-09 1.95465e-11 2.80659e-09 )  
( 3.90409e-10 -1.70832e-10 -3.75439e-10 )  
( 2.20077e-09 -1.73792e-11 -8.25755e-10 )  
( 4.19628e-09 -1.12891e-10 1.65735e-09 )  
( 2.57467e-09 -7.74427e-11 -3.552e-10 )  
( 3.06585e-09 3.32642e-10 -4.53902e-11 )  
( 1.21397e-09 -6.76021e-11 5.2545e-10 )  
( 8.40009e-09 -2.11961e-09 -1.3973e-08 )  
( 1.55445e-09 -7.05595e-10 7.39242e-10 )  
( 3.67033e-10 7.57205e-10 8.09355e-10 )  
( 4.41753e-09 4.29451e-10 3.25919e-09 )  
( 1.27372e-09 7.43275e-10 -1.50923e-10 )  
( 1.20478e-09 6.06581e-11 3.49198e-10 )  
( 8.21636e-10 -3.42743e-10 -3.26478e-10 )  
( 5.61213e-10 1.1868e-10 -1.40715e-09 )  
( 1.83277e-10 2.84221e-09 -3.2627e-09 )  
( -1.01945e-08 -5.16985e-09 3.39243e-10 )  
( 2.43997e-09 4.43671e-10 -1.0858e-09 )  
( -1.49384e-09 5.35057e-10 -2.30264e-09 )  
( 1.52559e-09 6.37148e-10 -7.63383e-11 )  
( 4.18939e-09 1.38629e-10 1.99017e-09 )  
( 8.08911e-10 3.20036e-09 3.59474e-10 )  
( 2.44964e-09 -3.9119e-10 1.24332e-09 )  
( 3.15125e-09 3.39982e-10 -2.31795e-10 )  
( 1.11617e-09 6.21683e-10 2.33807e-09 )  
( 8.31603e-10 -3.04133e-11 8.02094e-10 )  
( 8.78376e-10 4.44184e-11 8.4337e-10 )  
( 2.21173e-09 4.21473e-10 1.00282e-11 )  
( 2.70545e-09 5.38031e-10 -6.37544e-10 )  
( -2.64545e-10 2.57598e-09 -2.93609e-09 )  
( 1.01776e-09 9.78931e-10 -1.14685e-09 )  
( 3.19901e-09 -1.13575e-10 1.22352e-09 )  
( 3.44831e-09 6.53593e-10 1.10624e-09 )  
( 3.21553e-09 -6.01622e-11 3.22694e-09 )  
( 2.28605e-09 9.42319e-10 2.81391e-09 )  
( 4.086e-09 1.00727e-09 9.36195e-10 )  
( 2.94281e-09 7.12335e-10 5.63906e-10 )  
( -8.42699e-11 2.21604e-09 -2.4551e-09 )  
( 1.81941e-09 3.17052e-10 3.4112e-11 )  
( 3.1219e-09 3.97598e-09 -1.02672e-08 )  
( 3.19208e-12 2.95867e-09 -2.15471e-09 )  
( 2.78711e-09 -2.49392e-10 3.56066e-11 )  
( 3.83754e-09 4.09157e-10 7.38123e-10 )  
( 2.15922e-10 1.73255e-09 -1.19754e-09 )  
( 2.15999e-09 -1.14003e-09 8.72837e-10 )  
( 1.55927e-09 1.00268e-09 -1.16433e-09 )  
( -1.69857e-09 1.71584e-09 -3.42723e-09 )  
( 3.62398e-09 5.52171e-10 1.00847e-09 )  
( 9.1027e-10 8.01965e-10 -1.01634e-09 )  
( 9.26774e-10 -1.74214e-10 8.2568e-10 )  
( 1.48401e-09 6.76626e-10 1.45457e-10 )  
( 2.8697e-09 -3.19903e-10 1.62915e-10 )  
( 2.58191e-09 2.61182e-10 -8.02342e-11 )  
( 2.76158e-09 1.16215e-09 -3.55417e-10 )  
( 3.38144e-09 -3.1316e-10 1.25574e-09 )  
( 1.54731e-09 1.65692e-10 4.52026e-10 )  
( 3.13249e-10 5.41549e-09 -2.56216e-09 )  
( 1.86943e-09 4.47475e-10 3.02543e-10 )  
( 2.2226e-09 4.73853e-10 -4.40266e-11 )  
( 1.00899e-09 -1.5978e-10 1.0252e-09 )  
( -1.20257e-09 -3.98023e-12 -1.12063e-10 )  
( 4.61973e-09 1.31836e-10 2.93546e-09 )  
( 5.44384e-10 1.78689e-09 1.02239e-09 )  
( 9.07938e-10 1.00762e-09 -3.52813e-10 )  
( 4.04873e-09 4.5239e-10 6.77911e-10 )  
( -5.21836e-10 3.55762e-09 -1.35844e-09 )  
( 1.37917e-09 -1.31932e-09 2.46422e-09 )  
( 6.96181e-10 1.57204e-10 -2.67578e-11 )  
( 2.79663e-09 2.84199e-10 1.01071e-09 )  
( 1.19831e-09 9.15714e-11 3.5949e-11 )  
( 2.07908e-09 7.08397e-10 -2.5172e-10 )  
( 1.08179e-09 -6.60578e-10 -1.77373e-10 )  
( 3.7265e-09 8.83352e-10 1.04172e-09 )  
( 1.54453e-09 6.38517e-10 4.07551e-11 )  
( 3.89645e-09 5.65488e-10 1.35182e-09 )  
( 2.30503e-09 6.3774e-10 3.62094e-10 )  
( 1.06164e-09 -3.08725e-10 2.97971e-10 )  
( 5.67352e-10 7.02374e-10 -5.18206e-11 )  
( -6.47071e-11 1.44247e-09 -1.3879e-10 )  
( 7.63087e-10 1.1861e-09 -1.26049e-09 )  
( -3.24251e-10 -1.11856e-11 -1.99501e-10 )  
( 2.54375e-10 5.32272e-11 3.73162e-11 )  
( 1.35623e-09 -3.29819e-11 -1.30145e-11 )  
( 7.26337e-10 -4.17854e-11 5.54335e-10 )  
( 9.54346e-10 -1.01314e-09 -2.75742e-10 )  
( 1.37292e-09 -6.48491e-10 -1.29439e-10 )  
( -3.86405e-09 2.43086e-09 -4.10074e-09 )  
( 7.6561e-10 3.36184e-10 1.87666e-10 )  
( -7.71771e-11 2.03231e-09 -1.41834e-09 )  
( 2.54353e-09 5.30509e-10 9.15635e-11 )  
( 1.22311e-09 4.33728e-10 -2.16234e-11 )  
( 1.86465e-09 1.14575e-08 -1.20445e-08 )  
( 2.57335e-10 -1.95157e-11 3.95345e-10 )  
( 1.05846e-09 3.79303e-10 1.75384e-10 )  
( 1.55964e-09 2.10075e-10 -6.03582e-10 )  
( 1.58029e-09 -3.26626e-10 4.26735e-10 )  
( 8.99992e-10 -3.60305e-10 -9.76924e-11 )  
( 3.73212e-10 6.47206e-10 -1.29881e-10 )  
( 1.30508e-09 3.24468e-11 -1.29845e-10 )  
( -2.80236e-10 1.52843e-09 -2.86431e-10 )  
( -1.94983e-09 9.07862e-10 -3.14438e-10 )  
( 2.11258e-09 5.37136e-10 3.96034e-10 )  
( 2.77749e-09 7.13042e-10 -1.18073e-10 )  
( 5.14254e-10 3.83249e-09 -2.07213e-09 )  
( 4.64913e-09 3.27537e-08 -8.53633e-10 )  
( 5.30172e-10 7.18579e-11 -8.93664e-11 )  
( 5.02516e-10 -3.00147e-10 -9.03375e-11 )  
( 8.74088e-10 -1.5939e-10 -2.62481e-11 )  
( 3.9771e-10 2.33186e-10 -9.50871e-11 )  
( 3.0839e-09 7.15588e-09 -2.5459e-09 )  
( 1.49275e-09 3.41496e-10 3.92485e-10 )  
( 1.27225e-09 2.68517e-10 1.79764e-10 )  
( 8.54532e-10 2.11626e-10 -1.07888e-10 )  
( 3.08812e-10 -1.37518e-10 1.14774e-09 )  
( 1.92956e-09 1.97553e-10 1.92274e-10 )  
( 4.67883e-09 -1.96916e-09 7.23273e-10 )  
( 2.28785e-10 -2.46182e-11 2.13335e-10 )  
( 1.03394e-09 4.94954e-10 -6.41831e-12 )  
( -3.28179e-09 1.13613e-09 -9.04036e-10 )  
( 1.51456e-09 -4.14326e-09 -5.29026e-10 )  
( -1.22045e-10 4.03738e-11 4.54231e-10 )  
( 1.21017e-09 -4.87126e-10 4.82381e-10 )  
( -1.49648e-09 1.54382e-09 -1.21448e-09 )  
( -7.61573e-11 2.04929e-09 -1.64889e-09 )  
( 1.46435e-10 1.0103e-09 -5.72396e-10 )  
( 5.00962e-10 -1.15366e-12 -1.87722e-11 )  
( 3.91796e-10 2.27543e-09 2.5201e-10 )  
( 6.71316e-10 2.99394e-10 -4.60665e-11 )  
( 9.08531e-10 -1.08454e-10 2.0646e-10 )  
( 2.34774e-10 2.03063e-09 -1.8134e-10 )  
( -5.73246e-10 1.25186e-09 -1.53496e-10 )  
( 2.98874e-10 1.76315e-10 2.29383e-10 )  
( 2.39823e-09 3.48713e-11 1.62993e-10 )  
( 3.47176e-10 5.69432e-11 -4.41753e-10 )  
( 2.57141e-09 8.69264e-09 -7.30997e-09 )  
( 5.6262e-10 -1.11605e-10 9.8774e-11 )  
( -5.06876e-10 2.38802e-09 -1.64697e-09 )  
( 4.47894e-10 1.48243e-10 6.17563e-10 )  
( 4.5514e-10 -2.92181e-11 1.35064e-10 )  
( 8.97129e-10 3.73777e-11 -3.55951e-10 )  
)
