/*--------------------------------*- C++ -*----------------------------------*\
| =========                 |                                                 |
| \\      /  F ield         | OpenFOAM: The Open Source CFD Toolbox           |
|  \\    /   O peration     | Version:  4.x                                   |
|   \\  /    A nd           | Web:      www.OpenFOAM.org                      |
|    \\/     M anipulation  |                                                 |
\*---------------------------------------------------------------------------*/
FoamFile
{
    version     2.0;
    format      ascii;
    class       volVectorField;
    location    "3.5";
    object      DDtUrel;
}
// * * * * * * * * * * * * * * * * * * * * * * * * * * * * * * * * * * * * * //

dimensions      [0 1 -2 0 0 0 0];

internalField   nonuniform List<vector> 
87
(
(0.0117522 0.000130937 0.000619879)
(0.0111538 0.000129844 0.000583689)
(0.00970655 0.000164183 0.00055042)
(0.00710013 0.000216243 0.000545399)
(0.00397048 0.000384491 0.0006151)
(0.000426629 0.00022709 0.000690572)
(-0.00372779 -3.92591e-05 0.000750185)
(-0.00971784 -0.00075777 0.000855844)
(-0.0123807 -0.00156293 0.00140612)
(0.0113322 -4.01902e-06 0.000561997)
(0.0106651 -5.11885e-05 0.000473569)
(0.00924627 -0.000120223 0.000389276)
(0.00698784 -0.000145718 0.000303143)
(0.00405234 -0.000110559 0.000264728)
(0.000835023 -9.99587e-05 0.00031638)
(-0.00320501 -0.000167996 0.000452451)
(-0.00905669 -0.000576521 0.000516267)
(-0.0111905 -0.00110012 0.000730669)
(0.0108124 3.07059e-05 0.000553172)
(0.0101968 -6.73405e-05 0.000436327)
(0.00890154 -0.000192251 0.000341508)
(0.00694675 -0.000229461 0.000214673)
(0.00418864 -0.000203866 0.000115994)
(0.00104792 -9.56145e-05 0.000103109)
(-0.00296502 2.54803e-05 0.000127599)
(-0.00859169 -6.8372e-05 0.000109026)
(-0.0106454 -0.00026429 0.000205979)
(0.0113023 0.000133455 0.000512833)
(0.0106972 0.000141858 0.000413052)
(0.00941426 0.000177917 0.000366114)
(0.00708838 0.000200682 0.000364085)
(0.00424508 0.000279664 0.00040719)
(0.000686153 9.5921e-06 0.000562762)
(-0.00347653 -0.000304895 0.00052291)
(-0.0101467 -0.00143415 0.000826367)
(-0.012971 -0.00259218 0.00170723)
(0.0107737 6.19057e-05 0.000511257)
(0.010162 1.89474e-05 0.000425886)
(0.00881717 -6.01929e-05 0.000343301)
(0.00666538 -0.000132933 0.000244115)
(0.00386932 -0.000184961 0.000173651)
(0.000629411 -0.000302301 0.000209491)
(-0.00337672 -0.000548312 0.000310487)
(-0.00944267 -0.00124152 0.000555013)
(-0.0113513 -0.0019416 0.00100682)
(0.0102226 0.000106966 0.000500491)
(0.00961707 -4.24927e-06 0.000371582)
(0.00837813 -0.000142639 0.000284177)
(0.00648609 -0.000195372 0.000171923)
(0.00388355 -0.000248137 6.77638e-05)
(0.000831984 -0.000269839 3.53264e-05)
(-0.00308915 -0.000323287 9.57502e-05)
(-0.00859474 -0.000571897 0.00017262)
(-0.0103788 -0.000872364 0.000411043)
(0.0111253 0.00019916 0.000324403)
(0.0102756 0.000300601 0.000184468)
(0.00872679 0.000329824 5.36937e-05)
(0.00647155 0.000252529 -4.88227e-07)
(0.00400853 0.000200263 -6.78521e-07)
(0.000725488 -0.000261601 0.000148931)
(-0.00268804 -0.000723623 -2.21417e-05)
(-0.0104976 -0.00249436 0.000407839)
(-0.0143648 -0.00404676 0.0010994)
(0.0102303 9.3254e-05 0.000347312)
(0.00953799 6.16029e-05 0.000296048)
(0.00806574 3.1467e-05 0.000196137)
(0.00603934 -3.33024e-05 9.55802e-05)
(0.00358695 -0.000167593 1.04754e-05)
(0.000571237 -0.000455843 4.45322e-05)
(-0.00297023 -0.000847263 4.79497e-05)
(-0.00939256 -0.00220132 0.000353833)
(-0.011441 -0.00334739 0.000892715)
(0.00951352 6.30258e-05 0.0003251)
(0.00894066 4.19075e-05 0.000260933)
(0.00765944 -2.97347e-05 0.000179212)
(0.00583969 -0.000102456 9.10561e-05)
(0.00355143 -0.000207417 1.29419e-05)
(0.000860368 -0.000376477 1.01193e-05)
(-0.00261053 -0.000603262 8.72663e-05)
(-0.00801458 -0.00119482 0.000290699)
(-0.00959172 -0.00181155 0.000636512)
(0.0106908 0.000218999 0.00011467)
(0.00972574 0.00038689 6.35534e-05)
(0.00807602 0.00048314 -0.000124646)
(0.0096975 0.000111643 0.000173215)
(0.00893397 0.000124588 0.000138911)
(0.00895111 6.31508e-05 0.000192227)
)
;

boundaryField
{
    inlet
    {
        type            calculated;
        value           nonuniform 0();
    }
    outlet
    {
        type            calculated;
        value           nonuniform List<vector> 9((-0.0228588 -0.00243806 0.00433577) (-0.0156239 -0.00135554 0.000124202) (-0.0166895 0.000333 0.00013162) (-0.0246266 -0.00703606 0.00949787) (-0.0157913 -0.00376149 0.00334877) (-0.0165416 -0.00128246 0.0004025) (-0.039144 -0.0106586 0.010889) (-0.0180218 -0.0103797 0.0066941) (-0.0167835 -0.005162 0.00170624));
    }
    wall
    {
        type            calculated;
        value           nonuniform List<vector> 
57
(
(0.0158204 0.000707964 0.00101732)
(0.0147472 -0.00055888 0.000582978)
(0.0122704 0.000519908 0.000435889)
(0.0168025 0.000534853 0.00143801)
(0.0145838 -0.000699704 0.000387898)
(0.0134576 -0.000320317 0.000447756)
(0.0157611 0.000936828 0.00151445)
(0.0129266 -0.00109472 0.000191746)
(0.0120167 -0.00126436 0.000651278)
(0.00917688 0.000993141 0.00160183)
(0.00997056 -0.00123298 -0.000145985)
(0.0106674 -0.00135205 0.000182901)
(0.00422999 0.00327869 0.00230368)
(0.00536113 -0.00103293 -0.000371371)
(0.00626937 -0.00147324 -9.26358e-05)
(0.000370595 0.00224655 0.00227899)
(0.00473037 -0.000238298 -0.000127483)
(0.00469058 -0.000622093 0.000149219)
(-0.000135733 0.00262901 0.00220785)
(0.00405954 0.00111962 0.00120652)
(0.00334187 0.00102656 0.000363769)
(-0.0211935 0.00104396 0.000553332)
(-0.0193187 0.000828461 0.000116457)
(-0.0185105 0.0011315 -0.000374959)
(-0.0228588 -0.00243806 0.00433577)
(-0.0156239 -0.00135554 0.000124202)
(-0.0166895 0.000333 0.00013162)
(0.0158204 0.000707964 0.00101732)
(0.0138224 0.000223865 0.000659319)
(0.0175062 0.000543395 0.000162778)
(0.0180637 0.000157119 -0.00038593)
(0.0168025 0.000534853 0.00143801)
(0.0144247 -1.67342e-05 0.000382208)
(0.0151866 0.00148842 -0.000514815)
(0.0149709 0.001168 0.000515668)
(0.0157611 0.000936828 0.00151445)
(0.0158306 0.000525159 0.00068621)
(0.0129312 0.00158088 -0.00104324)
(0.0131732 0.00199877 -0.000550548)
(0.00917688 0.000993141 0.00160183)
(0.0119248 0.000835802 0.00114092)
(0.00902281 0.000774338 -0.000576764)
(0.00422999 0.00327869 0.00230368)
(0.00927439 0.00275329 0.00137451)
(0.00949683 0.00232979 -0.000391232)
(0.000370595 0.00224655 0.00227899)
(0.00347545 0.00127463 0.00314566)
(0.00385412 -0.000120611 0.00217687)
(-0.000135733 0.00262901 0.00220785)
(0.00271408 0.00355209 0.00103853)
(0.0158215 0.00357692 -0.0017764)
(-0.0211935 0.00104396 0.000553332)
(-0.024994 -0.000757183 0.000983231)
(-0.0266262 -0.00336718 0.00431758)
(-0.0228588 -0.00243806 0.00433577)
(-0.0246266 -0.00703606 0.00949787)
(-0.039144 -0.0106586 0.010889)
)
;
    }
    procBoundary1to0
    {
        type            processor;
        value           nonuniform List<vector> 
12
(
(0.0119126 7.96799e-05 0.000690698)
(0.0115652 -9.29827e-06 0.000649028)
(0.0110721 -1.36596e-05 0.00061683)
(0.0113679 0.000104178 0.000647369)
(0.0110095 5.2427e-05 0.000617431)
(0.0105384 2.76228e-05 0.000582062)
(0.0110893 0.000135667 0.00051076)
(0.0104019 7.15625e-05 0.00045924)
(0.00983065 2.40175e-05 0.000408211)
(0.0106436 0.000140205 0.000241287)
(0.00984941 8.15621e-05 0.00028102)
(0.00925675 2.43628e-05 0.000268434)
)
;
    }
    procBoundary1to3
    {
        type            processor;
        value           nonuniform List<vector> 
27
(
(0.0107629 -1.96357e-05 0.000697272)
(0.00996303 -3.48897e-05 0.000438301)
(0.00875356 -5.58817e-05 0.000282025)
(0.00700431 -4.60238e-05 0.000149187)
(0.00435579 7.52834e-05 -1.25022e-05)
(0.00121491 0.000240281 -9.09863e-05)
(-0.00295867 0.000467679 -0.000195434)
(-0.00867528 0.000661372 -0.000323861)
(-0.0105607 0.000779153 -0.000398752)
(0.00994372 1.2563e-05 0.000495899)
(0.009175 7.04921e-06 0.000326374)
(0.00828876 -3.77262e-05 0.000297922)
(0.00660673 -5.00091e-05 0.00016825)
(0.00407924 1.18678e-05 1.29357e-05)
(0.00103698 0.000102265 -6.33282e-05)
(-0.00280492 0.000205545 -0.000123284)
(-0.00815513 0.00028492 -0.000105396)
(-0.00979744 0.000341504 4.68789e-05)
(0.00898015 2.05801e-05 0.000150437)
(0.00856513 2.63293e-05 0.00020118)
(0.00756391 -2.86722e-06 0.000160159)
(0.00588316 -1.84196e-05 2.89357e-05)
(0.00375302 6.16526e-06 -9.91448e-05)
(0.00131561 5.28089e-05 -5.15996e-05)
(-0.001821 2.95823e-05 0.000114089)
(-0.00674187 4.03058e-05 0.000292263)
(-0.00818631 0.000141528 0.000794309)
)
;
    }
    procBoundary1to5
    {
        type            processor;
        value           nonuniform List<vector> 
32
(
(0.00568207 0.000392762 -0.000332959)
(0.00327254 0.000226734 -0.000454064)
(2.71789e-05 -0.000383209 -0.000483205)
(-0.00302732 -0.00103533 -0.000703229)
(-0.010869 -0.00379457 -0.00150746)
(-0.0146812 -0.00568438 -0.00176646)
(0.00740006 0.000122637 6.24277e-05)
(0.00529345 4.03068e-05 -0.000133063)
(0.00305163 -0.000143087 -0.000276349)
(0.000307463 -0.000529029 -0.000253267)
(-0.00290005 -0.00102193 -0.000259334)
(-0.00890733 -0.0029781 -0.000419583)
(-0.0104567 -0.00450734 -0.000494639)
(0.00820943 8.05133e-05 0.000104046)
(0.00693784 4.65902e-05 4.09749e-06)
(0.00527644 -4.7618e-05 -8.48437e-05)
(0.00322106 -0.000233003 -0.000148045)
(0.000958193 -0.000487482 -0.00010716)
(-0.00193823 -0.000775939 4.3429e-05)
(-0.00669076 -0.00161368 0.000199401)
(-0.0076951 -0.00272849 0.000468057)
(0.00991599 0.0002733 -6.58354e-05)
(0.00898176 0.000556689 -0.000138612)
(0.00568207 0.000392762 -0.000332959)
(0.00740006 0.000122637 6.24277e-05)
(0.0072397 0.000698554 -0.000335191)
(0.00918794 0.000127498 3.83107e-05)
(0.00740006 0.000122637 6.24277e-05)
(0.00820943 8.05133e-05 0.000104046)
(0.00864851 0.000192276 -2.60899e-05)
(0.00820943 8.05133e-05 0.000104046)
(0.00856099 7.61983e-05 4.34794e-05)
)
;
    }
    procBoundary1to7
    {
        type            processor;
        value           uniform (0.00867492 -4.27549e-06 0.000123968);
    }
}


// ************************************************************************* //
