/*--------------------------------*- C++ -*----------------------------------*\
| =========                 |                                                 |
| \\      /  F ield         | OpenFOAM: The Open Source CFD Toolbox           |
|  \\    /   O peration     | Version:  4.x                                   |
|   \\  /    A nd           | Web:      www.OpenFOAM.org                      |
|    \\/     M anipulation  |                                                 |
\*---------------------------------------------------------------------------*/
FoamFile
{
    version     2.0;
    format      ascii;
    class       volScalarField;
    location    "3.5";
    object      Ksl;
}
// * * * * * * * * * * * * * * * * * * * * * * * * * * * * * * * * * * * * * //

dimensions      [1 -3 -1 0 0 0 0];

internalField   nonuniform List<scalar> 
87
(
5237.27
2768.29
4824.43
2490.84
4065.09
2119.89
3839.75
1823.64
5308.27
16307.4
3322.32
23751.1
3314.17
62812
3454.24
32861.2
3829.44
6319.86
32824.7
3836.3
124365
3730.81
186906
3487.45
249068
3480.37
24183
5950.87
2913.37
6235.71
2756.28
6172.34
2436.34
5538.24
2022.05
5015.87
22492.8
3623.38
81245.7
3585.1
285109
3600.09
32269.2
3688.03
4623.93
105049
3897.76
133068
3724.03
89425.9
3483.07
23105.5
3533.33
7688.76
4989.38
2858.14
5726.73
2799.07
6693.69
2570.57
6108.68
2007.06
5328.28
640727
3725.16
60959.8
3629.88
299973
3394.36
20181.5
2355.32
4137.84
65330.7
4082.82
228678
3804.23
57264.6
3479.85
8846.16
2966.67
3620.41
4269.52
2645.64
4333.43
38404.1
3948.57
161012
)
;

boundaryField
{
    inlet
    {
        type            zeroGradient;
    }
    outlet
    {
        type            zeroGradient;
    }
    wall
    {
        type            zeroGradient;
    }
    procBoundary1to0
    {
        type            processor;
        value           nonuniform List<scalar> 
12
(
2861.92
3493.03
3795.66
3014.96
3662.2
3815.65
2949.14
3808.7
4135.2
2834.17
4026.09
3951.86
)
;
    }
    procBoundary1to3
    {
        type            processor;
        value           nonuniform List<scalar> 
27
(
23288.5
3343.85
273521
3378.63
1.34605e+06
3528.75
19982
3752.35
5143.35
11913.4
4481.82
267709
4397.63
222371
4220.84
36861.7
4071.9
5865.48
30284.8
5011.08
48124.3
4279.18
271787
3791.82
12299.9
3302.65
4060.51
)
;
    }
    procBoundary1to5
    {
        type            processor;
        value           nonuniform List<scalar> 
32
(
2517.4
4802.13
2265.01
4934.34
1648.68
2307.96
231739
3566.57
163565
3394.05
9751.03
2515.22
2223.58
3824.57
123025
3527.65
37634.4
3044.52
5027.73
3051.84
2410.93
4876.05
2832.34
2517.4
231739
4624.16
471382
231739
3824.57
8021.56
3824.57
72667.6
)
;
    }
    procBoundary1to7
    {
        type            processor;
        value           uniform 15385.2;
    }
}


// ************************************************************************* //
