/*--------------------------------*- C++ -*----------------------------------*\
| =========                 |                                                 |
| \\      /  F ield         | OpenFOAM: The Open Source CFD Toolbox           |
|  \\    /   O peration     | Version:  4.x                                   |
|   \\  /    A nd           | Web:      www.OpenFOAM.org                      |
|    \\/     M anipulation  |                                                 |
\*---------------------------------------------------------------------------*/
FoamFile
{
    version     2.0;
    format      ascii;
    class       volScalarField;
    location    "3.5";
    object      nu;
}
// * * * * * * * * * * * * * * * * * * * * * * * * * * * * * * * * * * * * * //

dimensions      [0 2 -1 0 0 0 0];

internalField   nonuniform List<scalar> 
87
(
1.00115e-06
1.0008e-06
1.0005e-06
1.00027e-06
1.00014e-06
1.00011e-06
1.00011e-06
1.00009e-06
9.99982e-07
1.00011e-06
9.99724e-07
9.99461e-07
9.99365e-07
9.99457e-07
9.99632e-07
9.99784e-07
9.99891e-07
9.99961e-07
9.99717e-07
9.994e-07
9.99264e-07
9.99293e-07
9.99433e-07
9.99598e-07
9.99763e-07
9.99892e-07
9.99963e-07
1.00067e-06
1.0004e-06
1.00014e-06
9.99938e-07
9.99818e-07
9.99813e-07
9.99841e-07
9.99899e-07
9.9949e-07
9.9967e-07
9.99422e-07
9.99254e-07
9.99213e-07
9.99286e-07
9.99395e-07
9.99527e-07
9.99586e-07
9.99706e-07
9.99464e-07
9.99283e-07
9.99204e-07
9.99222e-07
9.99293e-07
9.99391e-07
9.99529e-07
9.99648e-07
9.99773e-07
1.00049e-06
1.00031e-06
1.00011e-06
9.99942e-07
9.99804e-07
9.99739e-07
9.99716e-07
9.9974e-07
9.92915e-07
9.99651e-07
9.9946e-07
9.99307e-07
9.99234e-07
9.99233e-07
9.99282e-07
9.99379e-07
9.99458e-07
9.99023e-07
9.99474e-07
9.99324e-07
9.99251e-07
9.99273e-07
9.99329e-07
9.99411e-07
9.99473e-07
9.99549e-07
9.99354e-07
1.00035e-06
1.00025e-06
1.00013e-06
9.99665e-07
9.99507e-07
9.99574e-07
)
;

boundaryField
{
    inlet
    {
        type            calculated;
        value           nonuniform 0();
    }
    outlet
    {
        type            calculated;
        value           uniform 1e-06;
    }
    wall
    {
        type            calculated;
        value           nonuniform List<scalar> 
57
(
1.00115e-06
1.00011e-06
9.99717e-07
1.0008e-06
9.99724e-07
9.994e-07
1.0005e-06
9.99461e-07
9.99264e-07
1.00027e-06
9.99365e-07
9.99293e-07
1.00014e-06
9.99457e-07
9.99433e-07
1.00011e-06
9.99632e-07
9.99598e-07
1.00011e-06
9.99784e-07
9.99763e-07
1.00009e-06
9.99891e-07
9.99892e-07
9.99982e-07
9.99961e-07
9.99963e-07
1.00115e-06
1.00067e-06
1.00049e-06
1.00035e-06
1.0008e-06
1.0004e-06
1.00031e-06
1.00025e-06
1.0005e-06
1.00014e-06
1.00011e-06
1.00013e-06
1.00027e-06
9.99938e-07
9.99942e-07
1.00014e-06
9.99818e-07
9.99804e-07
1.00011e-06
9.99813e-07
9.99739e-07
1.00011e-06
9.99841e-07
9.99716e-07
1.00009e-06
9.99899e-07
9.9974e-07
9.99982e-07
9.9949e-07
9.92915e-07
)
;
    }
    procBoundary1to0
    {
        type            processor;
        value           nonuniform List<scalar> 
12
(
1.00146e-06
1.0006e-06
1.00012e-06
1.00091e-06
9.99955e-07
9.99741e-07
1.00065e-06
9.99889e-07
9.99697e-07
1.00044e-06
9.99838e-07
9.99737e-07
)
;
    }
    procBoundary1to3
    {
        type            processor;
        value           nonuniform List<scalar> 
27
(
9.99719e-07
9.99449e-07
9.99307e-07
9.99308e-07
9.99403e-07
9.99525e-07
9.99659e-07
9.99741e-07
9.99824e-07
9.99567e-07
9.99373e-07
9.99231e-07
9.9923e-07
9.99297e-07
9.99369e-07
9.99512e-07
9.99626e-07
9.99312e-07
9.99817e-07
9.99659e-07
9.99455e-07
9.99302e-07
9.99188e-07
9.99228e-07
9.99367e-07
9.99497e-07
9.99019e-07
)
;
    }
    procBoundary1to5
    {
        type            processor;
        value           nonuniform List<scalar> 
32
(
1.00001e-06
9.99889e-07
9.99816e-07
9.99726e-07
9.99718e-07
9.86675e-07
9.99398e-07
9.99328e-07
9.99285e-07
9.99334e-07
9.99412e-07
9.99485e-07
9.99221e-07
9.99454e-07
9.99333e-07
9.99277e-07
9.99297e-07
9.99392e-07
9.99502e-07
9.99598e-07
9.9963e-07
1.00019e-06
1.00011e-06
1.00001e-06
9.99398e-07
1.00006e-06
9.99562e-07
9.99398e-07
9.99454e-07
9.99406e-07
9.99454e-07
9.99612e-07
)
;
    }
    procBoundary1to7
    {
        type            processor;
        value           uniform 9.99782e-07;
    }
}


// ************************************************************************* //
