/*--------------------------------*- C++ -*----------------------------------*\
| =========                 |                                                 |
| \\      /  F ield         | OpenFOAM: The Open Source CFD Toolbox           |
|  \\    /   O peration     | Version:  4.x                                   |
|   \\  /    A nd           | Web:      www.OpenFOAM.org                      |
|    \\/     M anipulation  |                                                 |
\*---------------------------------------------------------------------------*/
FoamFile
{
    version     2.0;
    format      ascii;
    class       volVectorField;
    location    "3.5";
    object      UsPrev;
}
// * * * * * * * * * * * * * * * * * * * * * * * * * * * * * * * * * * * * * //

dimensions      [0 1 -1 0 0 0 0];

internalField   nonuniform List<vector> 
87
(
(-1.45296e-05 1.63906e-07 -8.02991e-08)
(-1.98945e-05 -8.9572e-07 4.90305e-07)
(-1.193e-05 -9.76671e-07 9.42642e-07)
(-9.84956e-06 -5.1881e-07 1.70252e-06)
(-6.78628e-06 1.66872e-06 2.82502e-06)
(-7.09614e-06 1.23821e-06 3.64464e-06)
(-4.25437e-06 1.2726e-07 6.27434e-07)
(-1.0561e-06 7.14318e-07 9.42324e-07)
(-2.01508e-07 4.32779e-07 7.74148e-09)
(-1.73741e-05 -1.14787e-06 -4.05436e-07)
(-1.5116e-05 -1.62227e-06 4.7292e-07)
(-1.35639e-05 -7.76633e-07 9.50142e-08)
(-1.25696e-05 -8.21836e-07 7.54232e-07)
(-9.33181e-06 -1.5409e-06 2.60409e-06)
(-7.32467e-06 -6.58154e-07 3.36724e-06)
(-5.78337e-06 3.01081e-07 1.73756e-06)
(-2.77835e-06 7.47995e-07 8.17819e-07)
(-1.62841e-06 5.04427e-07 2.44778e-07)
(-1.42563e-05 -1.76894e-06 3.32618e-07)
(-1.47245e-05 -1.13802e-06 4.98594e-07)
(-1.77442e-05 2.39298e-06 -5.0784e-07)
(-1.24613e-05 -6.19869e-07 -5.28173e-07)
(-1.10584e-05 -1.36954e-06 3.23673e-07)
(-8.77028e-06 -7.09263e-07 1.89587e-06)
(-6.36969e-06 -7.06077e-08 2.78706e-06)
(-2.72813e-06 9.94674e-07 1.768e-06)
(-1.23319e-06 6.53046e-07 1.22433e-06)
(-1.43836e-05 2.18009e-07 4.79253e-07)
(-1.30496e-05 -9.68191e-08 9.37584e-07)
(-1.16903e-05 -6.10363e-07 8.0576e-07)
(-1.02522e-05 -1.12142e-06 1.74009e-06)
(-7.33847e-06 -2.37704e-07 2.98428e-06)
(-5.91676e-06 2.22239e-08 2.89554e-06)
(-4.40335e-06 9.20697e-08 6.63917e-07)
(-2.44725e-06 5.35559e-08 4.07844e-07)
(-1.09993e-06 1.7465e-07 1.20331e-07)
(-1.69163e-05 -6.5158e-07 2.79372e-07)
(-1.54003e-05 -8.47456e-07 5.76446e-07)
(-1.39758e-05 -2.93206e-09 5.01587e-07)
(-1.28153e-05 -7.02673e-08 8.01623e-07)
(-9.39277e-06 -8.70635e-07 1.46157e-06)
(-7.64004e-06 -2.88781e-07 2.19902e-06)
(-5.93017e-06 1.16045e-07 1.75695e-06)
(-3.08371e-06 -9.19183e-09 6.04957e-07)
(-9.43635e-07 -7.96692e-08 7.5189e-07)
(-1.59872e-05 -2.11611e-06 9.61265e-07)
(-1.47039e-05 -1.26669e-06 4.15412e-07)
(-1.33488e-05 -5.80203e-07 2.447e-08)
(-1.20012e-05 -1.89443e-07 -1.70831e-07)
(-1.07056e-05 -6.53578e-07 7.76499e-09)
(-8.86005e-06 -3.3294e-07 8.54922e-07)
(-6.34596e-06 -3.71999e-07 1.8231e-06)
(-4.23653e-06 -4.321e-07 1.55085e-06)
(-9.82055e-07 -2.79357e-07 1.87919e-06)
(-1.42143e-05 -7.59913e-07 4.76642e-07)
(-1.25715e-05 3.86337e-07 2.41699e-06)
(-9.55607e-06 -2.89116e-07 2.73559e-07)
(-1.00482e-05 -1.56241e-07 8.53907e-07)
(-8.74317e-06 3.74533e-07 1.54258e-06)
(-6.72851e-06 1.74185e-07 8.0737e-07)
(-4.49057e-06 -9.75281e-08 5.62423e-07)
(-2.84611e-06 4.90816e-07 3.32285e-07)
(-1.29813e-06 1.28011e-07 4.0129e-07)
(-1.62793e-05 -1.48681e-06 7.19284e-07)
(-1.44449e-05 -5.56776e-07 1.28709e-06)
(-1.29645e-05 -4.00834e-07 8.10514e-07)
(-1.12742e-05 -4.31865e-07 3.61465e-07)
(-9.56313e-06 5.66666e-07 7.77465e-07)
(-7.80498e-06 -1.95706e-08 1.31761e-06)
(-5.33745e-06 -3.04829e-07 1.25762e-06)
(-3.99376e-06 -3.69764e-08 6.37119e-07)
(-2.14289e-06 -1.77589e-07 5.62788e-07)
(-1.61157e-05 -2.26554e-06 1.07151e-06)
(-1.37589e-05 -1.43222e-06 1.29649e-06)
(-1.28417e-05 -1.03556e-06 7.99346e-07)
(-1.07427e-05 -5.97768e-07 2.52276e-07)
(-9.2859e-06 7.08522e-08 1.52627e-07)
(-7.50937e-06 1.09166e-07 7.51419e-07)
(-5.35542e-06 -6.80676e-07 1.05544e-06)
(-3.78903e-06 1.23889e-07 8.84469e-07)
(-2.4736e-06 -1.14611e-07 1.08086e-06)
(-1.07828e-05 -7.61473e-07 2.90132e-07)
(-8.82604e-06 2.31432e-07 1.36368e-06)
(-8.67174e-06 -7.4994e-08 1.27875e-06)
(-1.4891e-05 -7.48797e-07 1.21381e-06)
(-1.31372e-05 -7.91835e-07 1.64543e-06)
(-1.54459e-05 -1.46015e-06 2.03176e-06)
)
;

boundaryField
{
    inlet
    {
        type            calculated;
        value           nonuniform 0();
    }
    outlet
    {
        type            calculated;
        value           uniform (0 0 0);
    }
    wall
    {
        type            calculated;
        value           uniform (0 0 0);
    }
    procBoundary1to0
    {
        type            processor;
        value           uniform (0 0 0);
    }
    procBoundary1to3
    {
        type            processor;
        value           uniform (0 0 0);
    }
    procBoundary1to5
    {
        type            processor;
        value           uniform (0 0 0);
    }
    procBoundary1to7
    {
        type            processor;
        value           uniform (0 0 0);
    }
}


// ************************************************************************* //
