/*--------------------------------*- C++ -*----------------------------------*\
  =========                 |
  \\      /  F ield         | OpenFOAM: The Open Source CFD Toolbox
   \\    /   O peration     | Website:  https://openfoam.org
    \\  /    A nd           | Version:  4.x
     \\/     M anipulation  |
\*---------------------------------------------------------------------------*/
FoamFile
{
    version     2.0;
    format      ascii;
    class       Cloud<passiveParticle>;
    location    0;
    object      positions;
}
// * * * * * * * * * * * * * * * * * * * * * * * * * * * * * * * * * * * * * //

348
(
( 0.256175 -0.0172346 0.0199729 ) 39
( 0.253338 -0.00317087 0.0337014 ) 48
( 0.257051 0.011643 0.0209254 ) 48
( 0.421264 -0.0532213 -0.00940917 ) 10
( 0.328498 -0.0516051 0.0355882 ) 32
( 0.439704 -0.0867308 -0.00617158 ) 3
( 0.479835 -0.0721221 0.0133742 ) 5
( 0.429431 -0.0905582 0.0309668 ) 27
( 0.346714 -0.0575871 0.0231142 ) 33
( 0.469084 -0.0594019 0.0236793 ) 37
( 0.438616 -0.0210285 0.0177854 ) 45
( 0.477639 -0.0231365 -0.000291213 ) 20
( 0.344301 -0.0902066 0.00356891 ) 0
( 0.431841 -0.040924 0.0119115 ) 18
( 0.456679 -0.0434054 0.000601882 ) 11
( 0.287811 -0.0166773 -0.00540334 ) 13
( 0.373532 -0.0737829 0.00176473 ) 1
( 0.402842 -0.0578154 -0.00414463 ) 9
( 0.280788 -0.0346707 -0.00975975 ) 13
( 0.345079 -0.0182674 0.00425299 ) 15
( 0.393091 -0.0731112 0.00361376 ) 2
( 0.283233 -0.0296829 0.00905775 ) 13
( 0.321913 -0.0257012 -0.00889148 ) 14
( 0.333789 -0.0747361 -0.00344345 ) 0
( 0.364023 -0.0843414 0.0306488 ) 25
( 0.362998 -0.0224655 -0.00298935 ) 16
( 0.489656 -0.0448071 0.0248192 ) 38
( 0.436008 -0.0902663 0.0126728 ) 3
( 0.481827 -0.0718656 -0.00618365 ) 5
( 0.370614 -0.0543984 0.00549354 ) 8
( 0.432863 -0.0550236 0.0260983 ) 36
( 0.448845 -0.0717951 0.00271141 ) 4
( 0.312686 -0.0762291 0.0169519 ) 23
( 0.391697 -0.0907165 0.0243219 ) 26
( 0.348675 -0.071761 0.00935648 ) 0
( 0.418931 -0.031225 0.028352 ) 45
( 0.398107 -0.0880516 -0.00881023 ) 2
( 0.421821 -0.0773471 0.0178864 ) 27
( 0.310893 -0.0569995 0.0226719 ) 32
( 0.425219 -0.0298431 -0.00903633 ) 18
( 0.452418 -0.0666608 0.0314031 ) 37
( 0.465921 -0.0316787 -0.0133374 ) 19
( 0.401634 -0.0262191 0.0156763 ) 44
( 0.340224 -0.0562875 -0.00500268 ) 7
( 0.325426 -0.0242214 0.0105902 ) 14
( 0.360569 -0.0862689 -0.00685871 ) 0
( 0.322103 -0.0622591 0.00674065 ) 6
( 0.384288 -0.0385513 0.0238834 ) 43
( 0.383637 -0.0577594 0.0193529 ) 34
( 0.278117 -0.0599487 0.0190142 ) 31
( 0.322466 -0.0593578 -0.013032 ) 6
( 0.403789 -0.043501 0.0245069 ) 35
( 0.347023 -0.0902473 0.0230591 ) 24
( 0.455021 -0.0175933 0.0285353 ) 46
( 0.391201 -0.0281503 -0.00109936 ) 17
( 0.260656 -0.0718673 0.0226313 ) 21
( 0.454583 -0.0905144 0.00630611 ) 4
( 0.384775 -0.0905146 0.00595182 ) 1
( 0.359469 -0.0416552 -0.00408519 ) 15
( 0.490479 -0.0171304 0.013074 ) 20
( 0.465524 -0.0618112 0.00451865 ) 11
( 0.489135 -0.0557043 0.0081715 ) 12
( 0.474686 -0.0904818 0.0200096 ) 29
( 0.490362 -0.036155 0.00702425 ) 20
( 0.420487 -0.0901792 -0.00420868 ) 3
( 0.453498 -0.0341158 0.0176275 ) 46
( 0.421149 -0.0245098 0.00973582 ) 18
( 0.417079 -0.0534591 0.0141065 ) 10
( 0.356239 -0.0319153 0.0130742 ) 15
( 0.330773 -0.0475352 0.0165051 ) 32
( 0.376507 -0.0211568 0.0283733 ) 43
( 0.27232 -0.0274555 0.0251677 ) 39
( 0.449682 -0.0556203 0.0147417 ) 37
( 0.357094 -0.0205112 0.0288122 ) 42
( 0.265383 -0.045977 0.0248945 ) 30
( 0.381933 -0.0450049 -0.00796011 ) 8
( 0.446981 -0.0263396 0.000502481 ) 19
( 0.403602 -0.0668151 0.01871 ) 35
( 0.302663 -0.0290661 0.00273525 ) 13
( 0.313242 -0.0385739 0.0162673 ) 41
( 0.458207 -0.0850226 -0.0125416 ) 4
( 0.366365 -0.0471396 0.0242359 ) 34
( 0.364663 -0.0664859 0.0198694 ) 34
( 0.321797 -0.0438112 -0.0008402 ) 6
( 0.47319 -0.0488897 -0.00762759 ) 12
( 0.471778 -0.0294049 0.0248357 ) 46
( 0.479598 -0.0884639 0.0394542 ) 29
( 0.311049 -0.0419899 0.0354631 ) 41
( 0.358341 -0.0640458 -0.00607149 ) 7
( 0.458968 -0.0651238 -0.0136927 ) 11
( 0.365594 -0.0900574 0.0118664 ) 1
( 0.332707 -0.0747272 0.0206759 ) 23
( 0.453812 -0.0472899 0.0321797 ) 37
( 0.29109 -0.0718427 0.0280693 ) 22
( 0.341262 -0.0384696 0.00282334 ) 15
( 0.472923 -0.0900646 -0.000560939 ) 5
( 0.490904 -0.0542787 -0.0114762 ) 12
( 0.316162 -0.0224282 0.0280222 ) 41
( 0.410522 -0.0901445 0.0279176 ) 26
( 0.411183 -0.0393454 0.00140983 ) 17
( 0.433043 -0.0603326 0.00493588 ) 10
( 0.489595 -0.0631241 0.031367 ) 38
( 0.393616 -0.0454694 0.00792316 ) 9
( 0.380838 -0.074962 0.0276426 ) 25
( 0.473143 -0.0443052 0.0118758 ) 12
( 0.339476 -0.0294936 0.0232401 ) 42
( 0.461293 -0.0761945 0.0172433 ) 28
( 0.374694 -0.0346498 0.00733616 ) 16
( 0.26901 -0.0900675 0.0190143 ) 21
( 0.490001 -0.0900083 -0.0120043 ) 5
( 0.438428 -0.0440357 -0.00613422 ) 10
( 0.316298 -0.0901256 0.0302915 ) 23
( 0.378921 -0.0901145 -0.0130775 ) 1
( 0.29316 -0.044259 0.0270416 ) 31
( 0.406352 -0.0869836 0.00908198 ) 2
( 0.417324 -0.0710256 -0.000310429 ) 10
( 0.373447 -0.0405848 0.0416276 ) 43
( 0.452924 -0.0904544 0.0274574 ) 28
( 0.472698 -0.0452555 0.0363058 ) 38
( 0.273834 0.0049082 0.0288215 ) 48
( 0.491042 -0.081697 0.0257217 ) 29
( 0.43778 -0.0363818 0.0299602 ) 45
( 0.490448 -0.0901322 0.00789442 ) 5
( 0.341745 -0.0440435 0.0523721 ) 62
( 0.322711 -0.0609824 0.0518838 ) 61
( 0.28222 -0.0108815 0.0551394 ) 78
( 0.267175 -0.0899833 0.0394248 ) 21
( 0.382945 -0.0241387 0.0467983 ) 72
( 0.398217 -0.0905051 0.0520411 ) 55
( 0.423292 -0.0351685 0.0571803 ) 74
( 0.347937 -0.0707407 0.0552137 ) 62
( 0.340546 -0.0903532 0.0570151 ) 53
( 0.489801 -0.0339851 -0.0125422 ) 20
( 0.296456 0.0014712 0.0483586 ) 78
( 0.28955 -0.0247652 0.0432411 ) 69
( 0.327734 -0.00947695 0.0488955 ) 79
( 0.485112 -0.0234283 0.0484584 ) 76
( 0.27182 -0.0729693 0.0575648 ) 50
( 0.387216 -0.0553925 0.0522473 ) 63
( 0.439363 -0.068551 0.0540138 ) 65
( 0.265485 -0.0536658 0.0519359 ) 59
( 0.461587 -0.090454 0.0454288 ) 57
( 0.454266 -0.0170782 0.0576673 ) 75
( 0.490387 -0.0902822 0.077191 ) 89
( 0.312482 -0.0418649 0.0678701 ) 70
( 0.299071 -0.0581597 0.0590782 ) 60
( 0.362303 -0.0342442 0.0567494 ) 72
( 0.374758 -0.0902939 0.0582656 ) 54
( 0.420662 -0.0739144 0.0571574 ) 56
( 0.370933 -0.0561733 0.0634479 ) 63
( 0.45627 -0.0596696 0.049052 ) 66
( 0.285109 -0.0901733 0.0581329 ) 51
( 0.489752 -0.0551667 0.0589823 ) 67
( 0.32647 -0.0777218 0.0614361 ) 52
( 0.348557 0.010498 0.0618007 ) 80
( 0.438594 -0.0481347 0.0575673 ) 65
( 0.471341 -0.0734112 0.0600516 ) 57
( 0.431456 -0.0901205 0.061161 ) 56
( 0.335472 -0.0241755 0.0598319 ) 71
( 0.462311 -0.0356345 0.0684133 ) 75
( 0.284033 -0.0297727 0.0616081 ) 69
( 0.401175 -0.0431977 0.0581035 ) 64
( 0.368437 -0.0153286 0.0572609 ) 72
( 0.323963 0.00748753 0.0590668 ) 79
( 0.283845 0.00668317 0.0638689 ) 78
( 0.386738 -0.0747974 0.0528678 ) 54
( 0.434679 -0.0199496 0.0631013 ) 74
( 0.310536 -0.0258601 0.046733 ) 70
( 0.335527 -0.0569946 0.0662049 ) 62
( 0.380693 -0.0388587 0.0600803 ) 72
( 0.255797 -0.0205768 0.0425054 ) 39
( 0.254632 -0.0417172 0.040856 ) 39
( 0.265798 -0.0221191 0.059388 ) 68
( 0.402766 -0.0237394 0.054964 ) 73
( 0.455004 -0.039855 0.0504986 ) 75
( 0.417487 -0.0902906 0.046738 ) 56
( 0.310339 -0.00948534 0.0575609 ) 79
( 0.36727 -0.0727312 0.0532231 ) 54
( 0.425445 -0.0572421 0.0466167 ) 65
( 0.336618 -0.07039 0.0393823 ) 33
( 0.359079 -0.0520029 0.048691 ) 62
( 0.472289 -0.0687936 0.0408406 ) 38
( 0.255442 -0.075641 0.0469251 ) 50
( 0.374066 -0.0600146 0.0384026 ) 34
( 0.296821 -0.0418471 0.04892 ) 69
( 0.355579 -0.0877375 0.0704323 ) 53
( 0.420906 -0.0529535 0.0654699 ) 65
( 0.260657 0.0139205 0.0399584 ) 48
( 0.29779 -0.0256827 0.0215074 ) 40
( 0.299505 -0.0901454 0.0441117 ) 51
( 0.4659 -0.0248565 0.0434516 ) 75
( 0.353839 -0.00776372 0.0729146 ) 111
( 0.406577 -0.0618797 0.050533 ) 64
( 0.412283 -0.0438287 0.0419819 ) 35
( 0.434372 -0.0723278 0.0352846 ) 27
( 0.272212 -0.0695983 0.0381783 ) 30
( 0.317627 -0.0705714 0.0351629 ) 32
( 0.473431 -0.0158462 0.0617253 ) 76
( 0.308022 -0.0741104 0.0518676 ) 52
( 0.490156 -0.0739948 0.0479616 ) 58
( 0.380444 -0.0901807 0.0399424 ) 25
( 0.490567 -0.0261543 0.0302227 ) 47
( 0.338021 0.0071228 0.0454162 ) 80
( 0.490644 -0.0418393 0.044367 ) 76
( 0.349048 -0.0255159 0.0459194 ) 71
( 0.322556 -0.0412375 0.0514258 ) 70
( 0.288895 -0.0736753 0.0476519 ) 51
( 0.261948 -0.0901503 0.0585595 ) 50
( 0.272089 -0.0335301 0.0439712 ) 68
( 0.412081 -0.0894235 0.0659368 ) 55
( 0.402923 -0.0603519 0.069551 ) 64
( 0.350191 -0.0416649 0.0344602 ) 42
( 0.398156 -0.0775637 0.0370949 ) 26
( 0.393077 -0.0401106 0.0409734 ) 44
( 0.334459 -0.090081 0.0381635 ) 24
( 0.484306 -0.0901834 0.0585298 ) 58
( 0.280543 -0.055137 0.0641034 ) 60
( 0.285054 -0.0903401 0.0307536 ) 22
( 0.300527 -0.0114055 0.034492 ) 49
( 0.414403 -0.0164358 0.0690312 ) 73
( 0.357911 -0.090191 0.0482754 ) 53
( 0.392424 -0.0896424 0.0710445 ) 55
( 0.442288 -0.087882 0.0446888 ) 56
( 0.490822 -0.0350916 0.0637975 ) 76
( 0.355676 -0.0468481 0.07233 ) 93
( 0.415302 -0.0685784 0.0343481 ) 35
( 0.45231 -0.0818058 0.0599549 ) 57
( 0.407145 0.00551271 0.0731062 ) 113
( 0.302282 0.00739594 0.0290278 ) 49
( 0.31612 -0.0231491 0.0731518 ) 101
( 0.282156 -0.0527186 0.0412294 ) 31
( 0.395702 -0.0582827 0.0346611 ) 35
( 0.251413 -0.0601817 0.0356324 ) 30
( 0.304551 -0.090129 0.0636434 ) 51
( 0.294823 -0.0463386 0.0741255 ) 91
( 0.386647 -0.0194096 0.0653777 ) 72
( 0.402184 -0.0236077 0.035348 ) 44
( 0.474438 -0.039236 0.0543483 ) 76
( 0.441216 -0.0252879 0.0454357 ) 74
( 0.355974 -0.0677141 0.0375052 ) 33
( 0.304213 0.0125427 0.0622184 ) 78
( 0.301479 -0.0597377 0.0396983 ) 31
( 0.273006 -0.0124604 0.0378523 ) 48
( 0.265693 -0.00163318 0.0646729 ) 77
( 0.335801 0.00858076 0.0762596 ) 111
( 0.444619 -0.0610232 0.0713489 ) 66
( 0.288813 -0.0129974 0.0903619 ) 109
( 0.490045 -0.0730012 0.0677159 ) 58
( 0.463069 -0.0567395 0.0669312 ) 66
( 0.380153 -0.0729508 0.0714909 ) 85
( 0.329131 -0.00860245 0.0698181 ) 79
( 0.443571 -0.0353745 0.071314 ) 74
( 0.341408 -0.0745184 0.0730444 ) 84
( 0.419345 -0.0201183 0.0449181 ) 74
( 0.467031 -0.0905437 0.0689749 ) 57
( 0.347977 -0.00761067 0.0541496 ) 80
( 0.427195 -0.069185 0.0751005 ) 96
( 0.318437 -0.0906693 0.0497643 ) 52
( 0.408814 -0.0349847 0.0732713 ) 104
( 0.385493 -0.0546188 0.0760933 ) 94
( 0.370848 -0.0279964 0.0734886 ) 103
( 0.25187 -0.0143749 0.0713067 ) 68
( 0.335431 -0.038726 0.0731122 ) 102
( 0.294481 -0.0272368 0.0782101 ) 100
( 0.478107 -0.0466015 0.0725157 ) 98
( 0.389873 -0.0350865 0.0766227 ) 104
( 0.373532 -0.00839201 0.0751068 ) 112
( 0.288975 -0.0730369 0.0672684 ) 51
( 0.425576 -0.0902244 0.0802296 ) 87
( 0.330397 -0.0271314 0.04058 ) 41
( 0.267288 -0.0398468 0.0682175 ) 68
( 0.426551 -0.0298792 0.0780377 ) 105
( 0.312095 -0.000419056 0.0747509 ) 110
( 0.477419 -0.0272913 0.0770338 ) 107
( 0.312751 -0.0670199 0.0695012 ) 61
( 0.358909 -0.0897541 0.0902544 ) 84
( 0.351198 -0.0272467 0.0727337 ) 102
( 0.398563 -0.0692636 0.0891244 ) 95
( 0.383009 0.00873688 0.0784575 ) 112
( 0.362233 -0.0642063 0.0796504 ) 94
( 0.277102 -0.0149292 0.0738476 ) 99
( 0.398815 -0.0179136 0.0807751 ) 104
( 0.295294 -0.00945935 0.0698414 ) 78
( 0.363984 0.00902919 0.0737357 ) 112
( 0.264217 -0.0622701 0.0720943 ) 90
( 0.327995 -0.0732715 0.09008 ) 83
( 0.322048 -0.0893785 0.0798562 ) 83
( 0.431956 -0.0501734 0.0816137 ) 96
( 0.406482 -0.0905349 0.0850357 ) 86
( 0.270913 -0.0903469 0.0759914 ) 81
( 0.373659 -0.0904696 0.0773361 ) 85
( 0.281486 -0.0626212 0.0823201 ) 91
( 0.375295 -0.0455077 0.0902654 ) 94
( 0.344834 -0.00706046 0.0903419 ) 111
( 0.459306 -0.0735698 0.0758836 ) 88
( 0.415738 0.00057699 0.0900606 ) 113
( 0.454821 -0.0473532 0.08211 ) 97
( 0.287526 0.00567047 0.0843249 ) 109
( 0.386187 -0.00673233 0.0904573 ) 112
( 0.474136 -0.0822929 0.0847662 ) 89
( 0.290531 -0.0900895 0.0774173 ) 82
( 0.380203 -0.0258263 0.0906073 ) 103
( 0.414017 -0.057169 0.0854479 ) 95
( 0.332726 -0.0215659 0.0841007 ) 101
( 0.352403 -0.0385787 0.0901279 ) 102
( 0.251179 -0.0204607 0.0901794 ) 99
( 0.378877 -0.0665763 0.0902933 ) 94
( 0.447571 -0.0194237 0.0823706 ) 106
( 0.438062 -0.0788245 0.0904232 ) 87
( 0.270291 0.0127894 0.0903915 ) 108
( 0.256029 0.00169005 0.0824193 ) 108
( 0.490438 -0.0396338 0.0859156 ) 107
( 0.472793 -0.0630641 0.0900757 ) 98
( 0.339073 -0.0901101 0.0901821 ) 84
( 0.307929 -0.0353731 0.0902352 ) 101
( 0.340135 -0.0542191 0.0900378 ) 93
( 0.268787 -0.0295249 0.0903453 ) 99
( 0.490379 -0.0588665 0.0815474 ) 98
( 0.39579 -0.047219 0.0906591 ) 95
( 0.363761 -0.00118668 0.0904566 ) 112
( 0.414443 -0.0385768 0.0909988 ) 104
( 0.300365 -0.0732012 0.0830635 ) 82
( 0.269035 -0.00993654 0.0906617 ) 108
( 0.32024 -0.0554475 0.0830646 ) 92
( 0.279426 -0.0804082 0.0904462 ) 82
( 0.398735 0.0103413 0.0903087 ) 113
( 0.444704 -0.0902998 0.0758647 ) 88
( 0.325325 -0.00269492 0.0900748 ) 110
( 0.305259 -0.090315 0.0905329 ) 82
( 0.347937 -0.0723958 0.0907853 ) 84
( 0.451122 -0.0643146 0.0905999 ) 97
( 0.471564 -0.0411542 0.0904146 ) 106
( 0.441813 -0.0358804 0.0908446 ) 105
( 0.267869 -0.0486783 0.0859631 ) 90
( 0.30935 -0.01542 0.0901472 ) 101
( 0.416141 -0.0190302 0.090648 ) 104
( 0.386195 -0.0850481 0.0906977 ) 85
( 0.490354 -0.0205009 0.0902973 ) 107
( 0.465336 -0.0224077 0.0909424 ) 106
( 0.285308 -0.0401095 0.0901799 ) 100
( 0.306105 0.00884704 0.0905707 ) 110
( 0.417399 -0.0755416 0.0906632 ) 87
( 0.490829 -0.0761888 0.0908182 ) 89
( 0.327271 -0.0391485 0.0907328 ) 101
( 0.457697 -0.0903205 0.0904666 ) 88
( 0.297669 -0.0555324 0.0907662 ) 91
( 0.264568 -0.0674761 0.0908032 ) 90
( 0.361046 -0.0207577 0.0901535 ) 102
)
