/*--------------------------------*- C++ -*----------------------------------*\
| =========                 |                                                 |
| \\      /  F ield         | OpenFOAM: The Open Source CFD Toolbox           |
|  \\    /   O peration     | Version:  4.x                                   |
|   \\  /    A nd           | Web:      www.OpenFOAM.org                      |
|    \\/     M anipulation  |                                                 |
\*---------------------------------------------------------------------------*/
FoamFile
{
    version     2.0;
    format      ascii;
    class       volScalarField;
    location    "31";
    object      SPartFluid;
}
// * * * * * * * * * * * * * * * * * * * * * * * * * * * * * * * * * * * * * //

dimensions      [1 -3 -1 0 0 0 0];

internalField   nonuniform List<scalar> 
114
(
6.51008e-65
4.88256e-65
2.55753e-65
4.88255e-65
3.02253e-65
4.10754e-65
5.73508e-65
6.51008e-65
5.11506e-65
3.79755e-65
6.20007e-65
4.41755e-65
5.89006e-65
6.12256e-65
3.95254e-65
4.03005e-65
5.65757e-65
4.57256e-65
4.96006e-65
4.49505e-65
4.57255e-65
5.34756e-65
4.41755e-65
5.27006e-65
4.41756e-65
4.26256e-65
4.65006e-65
4.57256e-65
3.33254e-65
3.79755e-65
2.71253e-65
4.80506e-65
3.10004e-65
8.44759e-65
9.7651e-65
5.73505e-65
9.22258e-65
5.42507e-65
6.82009e-65
7.6726e-65
7.82759e-65
6.97508e-65
6.27757e-65
8.99009e-65
7.59507e-65
5.19255e-65
6.04508e-65
8.60261e-65
8.2926e-65
7.59509e-65
7.44009e-65
7.28508e-65
7.05258e-65
7.44008e-65
5.96756e-65
5.89008e-65
5.19257e-65
6.97509e-65
5.81257e-65
6.89758e-65
5.89007e-65
5.89007e-65
6.51007e-65
4.26255e-65
7.59506e-65
8.13757e-65
7.2851e-65
4.96006e-65
5.50257e-65
6.12257e-65
5.58006e-65
7.13007e-65
8.37008e-65
6.58756e-65
4.88254e-65
5.34757e-65
6.04508e-65
7.13009e-65
9.06761e-65
7.28508e-65
6.43257e-65
7.51758e-65
7.44007e-65
8.37008e-65
5.34757e-65
7.5176e-65
6.04508e-65
6.97508e-65
4.65006e-65
6.51007e-65
8.29259e-65
4.96005e-65
6.66507e-65
4.80506e-65
8.1376e-65
8.3701e-65
6.51008e-65
6.82007e-65
5.89006e-65
6.27756e-65
7.75007e-65
6.89759e-65
6.89759e-65
8.3701e-65
5.81257e-65
7.20758e-65
6.89757e-65
8.37008e-65
5.27007e-65
6.51008e-65
6.27758e-65
7.13009e-65
5.50256e-65
6.35507e-65
)
;

boundaryField
{
    inlet
    {
        type            calculated;
        value           uniform 0;
    }
    outlet
    {
        type            calculated;
        value           nonuniform 0();
    }
    wall
    {
        type            calculated;
        value           uniform 0;
    }
    procBoundary2to0
    {
        type            processor;
        value           nonuniform List<scalar> 
44
(
4.72756e-65
4.26255e-65
4.34005e-65
3.25503e-65
4.49505e-65
6.89757e-65
2.86754e-65
4.41756e-65
3.25504e-65
3.25504e-65
4.72755e-65
8.9901e-65
5.89006e-65
8.29258e-65
6.04506e-65
4.96005e-65
8.06011e-65
6.12258e-65
6.12258e-65
4.72755e-65
8.9901e-65
8.9901e-65
7.13007e-65
7.13006e-65
6.20005e-65
4.57254e-65
7.2851e-65
7.5951e-65
7.67259e-65
8.13759e-65
8.21509e-65
7.13007e-65
7.13006e-65
7.13006e-65
5.42505e-65
2.32502e-65
5.27007e-65
5.89008e-65
7.9826e-65
9.0676e-65
4.49505e-65
9.14509e-65
7.13006e-65
5.42505e-65
)
;
    }
    procBoundary2to3
    {
        type            processor;
        value           nonuniform List<scalar> 
12
(
6.97507e-65
5.19255e-65
5.50256e-65
4.65005e-65
7.51756e-65
6.66506e-65
1.03851e-64
7.75008e-65
7.67256e-65
9.06757e-65
5.11505e-65
8.52508e-65
)
;
    }
    procBoundary2to6
    {
        type            processor;
        value           nonuniform List<scalar> 
32
(
6.74255e-65
6.04506e-65
7.13006e-65
5.11506e-65
5.81256e-65
4.96005e-65
1.03851e-64
7.5951e-65
4.96006e-65
7.44009e-65
9.3776e-65
6.12256e-65
7.36257e-65
6.74255e-65
6.04506e-65
6.51006e-65
5.81258e-65
7.9051e-65
6.43258e-65
8.8351e-65
7.05258e-65
7.82758e-65
6.04506e-65
5.11506e-65
7.05257e-65
4.96007e-65
7.20759e-65
5.42507e-65
6.12257e-65
7.59509e-65
5.11506e-65
8.7576e-65
)
;
    }
}


// ************************************************************************* //
