/*--------------------------------*- C++ -*----------------------------------*\
| =========                 |                                                 |
| \\      /  F ield         | OpenFOAM: The Open Source CFD Toolbox           |
|  \\    /   O peration     | Version:  4.x                                   |
|   \\  /    A nd           | Web:      www.OpenFOAM.org                      |
|    \\/     M anipulation  |                                                 |
\*---------------------------------------------------------------------------*/
FoamFile
{
    version     2.0;
    format      ascii;
    class       volVectorField;
    location    "31";
    object      U;
}
// * * * * * * * * * * * * * * * * * * * * * * * * * * * * * * * * * * * * * //

dimensions      [0 1 -1 0 0 0 0];

internalField   nonuniform List<vector> 
114
(
(0.0167898 -0.000131803 -0.000799948)
(0.0339816 -0.000176777 -0.0014964)
(0.0192572 -0.000135416 -0.000697947)
(0.0355765 -0.000165956 -0.00111394)
(0.0208444 3.99754e-05 -0.000380371)
(0.0370381 9.03134e-06 -0.000758953)
(0.0299112 0.000150589 -0.00133651)
(0.0128844 9.56928e-05 -0.000788529)
(0.031535 0.000294608 -0.00155954)
(0.015412 0.000201325 -0.000737236)
(0.0329737 0.000203973 -0.00129694)
(0.0171525 5.48376e-05 -0.000632599)
(0.0342591 2.77852e-05 -0.00104289)
(0.01822 -4.64459e-05 -0.000380976)
(0.0353257 3.36845e-06 -0.00067645)
(0.0300388 0.000934435 -0.00135477)
(0.0135512 0.000453494 -0.000761643)
(0.0322035 0.000945808 -0.00144913)
(0.0169794 0.000534104 -0.000664722)
(0.034033 0.000893537 -0.00114524)
(0.0193625 0.000411234 -0.000501882)
(0.0356866 0.000687226 -0.000870286)
(0.0209687 0.000205355 -0.000312498)
(0.0371805 0.000493801 -0.000659015)
(0.0300452 0.00059928 -0.00114712)
(0.0148507 0.000330752 -0.000701392)
(0.0331025 0.00063702 -0.00121279)
(0.0195948 0.000350226 -0.000661795)
(0.0359447 0.00060547 -0.000990465)
(0.0234016 0.000253209 -0.000543219)
(0.0386695 0.000469387 -0.000756147)
(0.0264087 5.13016e-05 -0.000371162)
(0.0409484 0.000292535 -0.000590278)
(0.0087168 -2.83925e-05 -0.000734359)
(0.0302081 7.22171e-05 -0.00142109)
(0.00737255 4.94613e-05 -0.000585845)
(0.0305787 0.000306356 -0.000694293)
(0.0297953 0.00036463 -0.00235077)
(0.0107573 8.68222e-05 -0.00112313)
(0.0299842 0.000382998 -0.00248446)
(0.00959116 0.000218948 -0.000896008)
(0.0298688 0.000480105 -0.00186781)
(0.0081967 0.00010655 -0.000673183)
(0.0300648 0.000197367 -0.00126032)
(0.00674735 -1.15502e-05 -0.000455846)
(0.0303346 0.00010445 -0.000805725)
(0.0298755 0.00111438 -0.00241069)
(0.0113911 0.000537323 -0.00126294)
(0.030446 0.00125548 -0.00264143)
(0.0111384 0.00050687 -0.00105201)
(0.0307023 0.00115171 -0.00206909)
(0.0106484 0.000369674 -0.000822855)
(0.0311128 0.000925773 -0.00161122)
(0.00969576 0.000137649 -0.000650452)
(0.0316397 0.000566049 -0.00108497)
(0.0299303 0.000798208 -0.00214679)
(0.0134599 0.000417071 -0.00125075)
(0.0317868 0.000873661 -0.00225201)
(0.0160207 0.000371448 -0.00123192)
(0.0333781 0.000778617 -0.00184711)
(0.0180163 0.000242208 -0.00119908)
(0.0348476 0.000617165 -0.00147154)
(0.019395 4.18241e-05 -0.000945816)
(0.0362004 0.000415231 -0.00114471)
(0.001079 -3.14771e-05 -0.000227476)
(0.0282122 -0.000208656 -0.000346283)
(0.0297246 0.000619631 -0.00212468)
(0.0101495 0.000212179 -0.00106741)
(0.0292567 0.000581627 -0.00198639)
(0.00781496 0.000174141 -0.00072424)
(0.0289818 0.000407889 -0.00137182)
(0.00566414 5.28589e-05 -0.000530453)
(0.0291008 -0.000120187 -0.000867306)
(0.00377089 3.26361e-05 -0.000506054)
(0.0290995 -0.000325475 -0.000491087)
(0.0298445 0.00115102 -0.00197886)
(0.0104885 0.00046449 -0.00101607)
(0.0297043 0.00125071 -0.00186823)
(0.00855712 0.000406729 -0.000768769)
(0.0293973 0.00104602 -0.00131608)
(0.00654856 0.000220211 -0.000552358)
(0.0293697 0.000687977 -0.000765583)
(0.004185 0.000105671 -0.000375472)
(0.029509 0.000395603 -0.000271009)
(0.0299556 0.000884043 -0.00183933)
(0.0126718 0.000504236 -0.0011057)
(0.0311094 0.00114287 -0.00185725)
(0.0140757 0.00049813 -0.00111758)
(0.0320484 0.00102483 -0.00147544)
(0.0152693 0.000312138 -0.00101968)
(0.0329625 0.000853495 -0.00105315)
(0.0157265 0.000272369 -0.00106846)
(0.0338393 0.000545537 -0.000841351)
(0.0295733 0.000617582 -0.0017803)
(0.00943999 0.00037643 -0.000757406)
(0.0287896 0.000842862 -0.00152275)
(0.00641914 0.000330468 -0.000557711)
(0.0282278 0.000656407 -0.00104797)
(0.00410435 0.00031172 -0.00034104)
(0.0279568 0.000419167 -0.000602187)
(0.00228148 0.000262223 -0.000285354)
(0.0296333 0.0014152 -0.00148835)
(0.0106028 0.000670212 -0.00072799)
(0.0294136 0.00147761 -0.00131358)
(0.00888547 0.000498611 -0.000632785)
(0.0292084 0.00124905 -0.00102366)
(0.00743182 0.000428203 -0.000468249)
(0.0293632 0.00100501 -0.000620319)
(0.0299124 0.000951418 -0.00137402)
(0.012891 0.000497995 -0.000864033)
(0.0309695 0.000988552 -0.00143365)
(0.0139687 0.000434474 -0.0010251)
(0.0317576 0.000830311 -0.00134389)
(0.0148194 0.000377048 -0.00082907)
)
;

boundaryField
{
    inlet
    {
        type            fixedValue;
        value           uniform (0.01 0 0);
    }
    outlet
    {
        type            zeroGradient;
    }
    wall
    {
        type            fixedValue;
        value           uniform (0 0 0);
    }
    procBoundary2to0
    {
        type            processor;
        value           nonuniform List<vector> 
44
(
(0.0166193 -0.00043142 -0.000850173)
(0.033847 -0.000561371 -0.00148785)
(0.0189618 -0.000207666 -0.000779729)
(0.0353443 -0.000442643 -0.00131144)
(0.0204105 -0.000142324 -0.000501148)
(0.0363877 -0.000360477 -0.0010104)
(0.0301359 -0.000416411 -0.00159667)
(0.0134921 -0.00012105 -0.000778499)
(0.0321587 -0.000247903 -0.00157049)
(0.0321587 -0.000247903 -0.00157049)
(0.0101744 -4.43501e-05 -0.00106484)
(0.0301372 -1.24546e-05 -0.00227239)
(0.00863125 -8.41113e-05 -0.000560304)
(0.0301527 -0.000384994 -0.00120878)
(0.0066362 6.39836e-05 -0.000243979)
(0.0301582 -0.000275218 -0.000544753)
(0.0297258 -0.000223774 -0.00285111)
(0.010861 -0.000113053 -0.00135444)
(0.030004 -0.000213479 -0.00294598)
(0.0101744 -4.43501e-05 -0.00106484)
(0.0301372 -1.24546e-05 -0.00227239)
(0.0301372 -1.24546e-05 -0.00227239)
(0.00250228 -6.95159e-05 -0.000371888)
(0.0282713 -0.000144009 -0.000848355)
(0.0021788 -9.44309e-05 -0.000387286)
(0.0287617 -0.000167118 -6.86986e-05)
(0.0296311 -0.000131838 -0.0022023)
(0.00902345 -4.9029e-05 -0.00117022)
(0.0288598 -5.65927e-05 -0.00227041)
(0.00541874 -4.43183e-05 -0.000646442)
(0.0284001 -3.00627e-05 -0.00139697)
(0.00250228 -6.95159e-05 -0.000371888)
(0.0282713 -0.000144009 -0.000848355)
(0.0282713 -0.000144009 -0.000848355)
(0.000992492 5.04411e-05 -0.00014246)
(0.0269786 -2.7701e-05 -0.000278253)
(0.0294633 -0.000225204 -0.00134358)
(0.00934418 -2.5063e-06 -0.000790955)
(0.0284528 2.99499e-05 -0.00126498)
(0.00554514 0.000100096 -0.000501457)
(0.027611 0.00020094 -0.000910374)
(0.00276369 8.66859e-05 -0.000313449)
(0.0273276 0.000105876 -0.000692432)
(0.000992492 5.04411e-05 -0.00014246)
)
;
    }
    procBoundary2to3
    {
        type            processor;
        value           nonuniform List<vector> 
12
(
(0.0216687 -1.86591e-05 -0.000195347)
(0.01874 2.53987e-05 -0.000240927)
(0.0220578 0.000348667 -0.000197982)
(0.0285634 -9.44479e-05 -0.000398498)
(0.00607138 0.000110776 -0.000647037)
(0.0057471 9.70938e-06 -0.000427788)
(0.00854535 0.000121793 -0.000572149)
(0.020267 -0.000201327 -0.000896676)
(0.000276125 -6.27055e-06 -8.95053e-05)
(0.00189765 8.2867e-05 -0.000354474)
(0.00203487 9.78385e-05 -0.000228779)
(0.0159634 0.0002214 -0.00124349)
)
;
    }
    procBoundary2to6
    {
        type            processor;
        value           nonuniform List<vector> 
32
(
(0.0276042 0.000346337 -5.28652e-05)
(0.0063122 0.000431917 -0.000468418)
(0.0296296 0.000630168 -0.000347734)
(0.0325552 0.00062575 -0.000902908)
(0.0153942 0.000200098 -0.00100053)
(0.0332614 0.000289647 -0.00081771)
(0.0294676 0.000466912 -0.000620494)
(0.00885256 0.000312518 -0.000211805)
(0.0280944 0.000552423 -0.000494846)
(0.004808 0.000192005 -0.000166866)
(0.0276452 0.000342854 -0.000372734)
(0.00174789 9.99738e-05 -7.04122e-05)
(0.0273128 1.43573e-05 -0.000332189)
(0.0276042 0.000346337 -5.28652e-05)
(0.0063122 0.000431917 -0.000468418)
(4.00848e-09 -1.10505e-09 2.26102e-09)
(0.0297284 0.00156677 -0.000450313)
(0.00987952 0.000550534 -0.000248151)
(0.029097 0.00145782 -0.000388964)
(0.00709837 0.000402088 -0.000258741)
(0.0287387 0.000965877 -0.000296036)
(0.00455457 0.000261717 -0.000189914)
(0.0063122 0.000431917 -0.000468418)
(0.0325552 0.00062575 -0.000902908)
(0.0284698 0.000633377 -0.000278656)
(0.030031 0.00103097 -0.000539168)
(0.0127343 0.000519507 -0.000366008)
(0.0307439 0.00112455 -0.000572254)
(0.0133625 0.000414427 -0.000560574)
(0.0312608 0.000845119 -0.000578506)
(0.0325552 0.00062575 -0.000902908)
(0.0132355 0.000318391 -0.000565452)
)
;
    }
}


// ************************************************************************* //
