/*--------------------------------*- C++ -*----------------------------------*\
| =========                 |                                                 |
| \\      /  F ield         | OpenFOAM: The Open Source CFD Toolbox           |
|  \\    /   O peration     | Version:  4.x                                   |
|   \\  /    A nd           | Web:      www.OpenFOAM.org                      |
|    \\/     M anipulation  |                                                 |
\*---------------------------------------------------------------------------*/
FoamFile
{
    version     2.0;
    format      ascii;
    class       volVectorField;
    location    "31";
    object      UsPrev;
}
// * * * * * * * * * * * * * * * * * * * * * * * * * * * * * * * * * * * * * //

dimensions      [0 1 -1 0 0 0 0];

internalField   nonuniform List<vector> 
114
(
(-2.23439e-09 -1.03146e-09 1.2503e-09)
(-2.61489e-09 -1.40241e-09 1.23917e-09)
(-5.64246e-09 -1.92921e-09 3.61337e-09)
(-7.11177e-09 -2.12018e-09 4.31604e-09)
(-1.0065e-08 -3.00835e-09 5.1429e-09)
(-1.22305e-08 -2.70226e-09 4.89875e-09)
(6.43789e-09 -2.83153e-09 -3.05523e-10)
(-1.00747e-09 -3.76973e-10 2.72553e-10)
(-1.36678e-09 -4.92901e-10 6.11473e-10)
(-2.22159e-09 -8.51306e-10 1.29644e-09)
(-3.35669e-09 -7.6168e-10 1.61605e-09)
(-5.99504e-09 -1.44058e-09 3.36191e-09)
(-8.16307e-09 -2.14817e-09 4.17513e-09)
(-1.10633e-08 -4.22411e-09 3.77358e-09)
(-1.24808e-08 -2.7593e-09 4.88767e-09)
(-7.88636e-11 -3.70436e-10 1.20721e-10)
(-1.18776e-09 -2.94727e-10 1.8294e-10)
(-1.61857e-09 -5.40463e-10 4.21878e-10)
(-2.98801e-09 -4.75605e-10 5.22252e-10)
(-3.69346e-09 -1.34815e-10 9.54034e-10)
(-6.18177e-09 -1.08804e-09 2.64267e-09)
(-7.5702e-09 -2.58629e-09 2.75368e-09)
(-1.2123e-08 -1.7283e-09 2.64969e-09)
(-1.08383e-08 -2.44159e-09 3.08959e-09)
(1.2999e-09 -2.05355e-10 7.53769e-11)
(-8.29746e-10 -2.84044e-10 -1.88218e-11)
(-7.21589e-10 -3.22444e-10 -4.18752e-10)
(-3.11832e-09 2.98676e-09 5.93396e-10)
(-2.5661e-09 -1.90904e-10 1.46424e-09)
(-3.7285e-09 -3.07504e-10 1.5079e-09)
(-5.67135e-09 -1.76279e-09 6.2814e-10)
(-7.52297e-09 7.30297e-10 1.3062e-09)
(-7.92526e-09 -2.11928e-10 1.63142e-09)
(-3.65875e-09 -1.75418e-09 3.52705e-09)
(-5.97329e-09 -2.23761e-09 4.63118e-09)
(-9.29701e-09 -2.17006e-09 5.64068e-09)
(-1.04398e-08 -2.1395e-09 5.98052e-09)
(-1.94005e-10 -2.93209e-10 1.94501e-10)
(-9.50927e-10 -4.66862e-10 4.09012e-10)
(-1.52805e-09 -4.81654e-10 7.17947e-10)
(-2.09815e-09 -7.43658e-10 1.26046e-09)
(-2.57719e-09 -5.40077e-10 1.74262e-09)
(-5.57493e-09 -1.89402e-09 3.79917e-09)
(-7.71693e-09 -1.91881e-09 4.14826e-09)
(-9.57749e-09 -2.30164e-09 4.09381e-09)
(-1.24157e-08 -2.33959e-09 5.64948e-09)
(-2.57317e-10 -1.91513e-10 4.7223e-10)
(-8.9471e-10 -2.18395e-10 5.07761e-10)
(-1.46105e-09 -2.99619e-10 7.91288e-10)
(-2.15227e-09 -7.07678e-10 1.04673e-09)
(-3.09005e-09 -1.01815e-11 2.1124e-09)
(-4.69537e-09 -4.50037e-10 2.45534e-09)
(-6.7243e-09 -1.04346e-09 3.01876e-09)
(-9.02681e-09 -1.65839e-09 2.96028e-09)
(-1.14282e-08 -1.85292e-09 3.79998e-09)
(-7.00314e-11 -3.1429e-11 2.18673e-10)
(-5.0248e-10 -6.11441e-11 1.60332e-10)
(-7.32878e-10 -8.01502e-11 4.33099e-10)
(-1.52955e-09 -3.11182e-10 6.94721e-10)
(-2.12967e-09 -1.27898e-10 1.88339e-09)
(-2.61213e-09 -1.66244e-10 1.3111e-09)
(-3.74842e-09 -5.17723e-10 6.32845e-10)
(-5.04687e-09 -2.84171e-10 1.1427e-09)
(-4.38204e-09 -1.90876e-10 5.50768e-10)
(-7.51592e-09 -1.57746e-09 4.9933e-09)
(-9.65468e-09 -1.84149e-09 6.73888e-09)
(-1.91043e-10 -4.68405e-10 -6.29836e-11)
(-8.1764e-10 -3.14284e-10 1.17948e-10)
(-1.21172e-09 -4.12785e-10 3.35039e-10)
(-2.09992e-09 -6.18768e-10 4.94232e-10)
(-2.42092e-09 -7.48793e-10 1.25326e-09)
(-4.53137e-09 -1.66888e-09 2.77e-09)
(-5.47767e-09 -1.47969e-09 3.11346e-09)
(-7.6886e-09 -2.00322e-09 3.68781e-09)
(-9.68075e-09 -1.89869e-09 4.98281e-09)
(-2.45695e-10 -2.03088e-10 1.34604e-10)
(-8.90311e-10 -1.2143e-10 1.78657e-10)
(-1.19478e-09 -2.9575e-10 4.36157e-10)
(-1.56791e-09 -6.42831e-10 6.46159e-10)
(-2.49547e-09 -4.49095e-10 1.36196e-09)
(-3.76345e-09 -5.5224e-10 1.92848e-09)
(-4.60418e-09 -4.66233e-10 2.25499e-09)
(-6.57191e-09 -1.54596e-09 2.74916e-09)
(-9.10994e-09 -1.34188e-09 3.63395e-09)
(-2.65942e-11 -3.5887e-11 8.8457e-11)
(-5.2904e-10 -6.0677e-12 1.34669e-10)
(-4.64926e-10 -2.48288e-11 2.42625e-10)
(-1.44983e-09 -2.80015e-10 5.42385e-10)
(-1.51276e-09 1.45408e-10 8.25872e-10)
(-1.57992e-09 8.75915e-11 8.74207e-10)
(-2.29612e-09 2.35437e-10 1.31113e-09)
(-3.65425e-09 3.23256e-10 8.43313e-10)
(-5.03873e-09 -6.22568e-10 1.56734e-09)
(-2.76795e-10 -1.64784e-10 -1.00116e-10)
(-1.17973e-09 -9.36394e-11 -3.257e-11)
(-1.60318e-09 1.41493e-11 1.18677e-10)
(-2.64848e-09 -1.98954e-10 4.95615e-10)
(-3.59921e-09 -6.043e-10 9.80497e-10)
(-5.09843e-09 -5.5972e-10 1.83949e-09)
(-5.95572e-09 -9.88279e-10 2.78311e-09)
(-7.34176e-09 -1.50183e-09 3.23328e-09)
(-1.25871e-10 -7.56684e-11 -6.80101e-12)
(-1.12105e-09 1.26404e-10 1.33546e-10)
(-1.1605e-09 2.91983e-10 1.07407e-10)
(-1.93535e-09 5.17926e-11 4.42701e-10)
(-2.56953e-09 7.37627e-11 8.45234e-10)
(-3.4528e-09 -4.21887e-10 1.48228e-09)
(-3.66091e-09 -2.84929e-10 1.54302e-09)
(-9.13358e-11 -1.11558e-11 -3.79968e-12)
(-5.17384e-10 9.1148e-11 8.95786e-11)
(-6.432e-10 1.11541e-10 9.5467e-11)
(-7.58853e-10 1.36174e-10 2.05251e-10)
(-1.19072e-09 1.79056e-10 4.1623e-10)
(-1.44438e-09 1.3616e-11 6.24522e-10)
)
;

boundaryField
{
    inlet
    {
        type            calculated;
        value           uniform (0 0 0);
    }
    outlet
    {
        type            calculated;
        value           nonuniform 0();
    }
    wall
    {
        type            calculated;
        value           uniform (0 0 0);
    }
    procBoundary2to0
    {
        type            processor;
        value           uniform (0 0 0);
    }
    procBoundary2to3
    {
        type            processor;
        value           uniform (0 0 0);
    }
    procBoundary2to6
    {
        type            processor;
        value           uniform (0 0 0);
    }
}


// ************************************************************************* //
