/*--------------------------------*- C++ -*----------------------------------*\
| =========                 |                                                 |
| \\      /  F ield         | OpenFOAM: The Open Source CFD Toolbox           |
|  \\    /   O peration     | Version:  4.x                                   |
|   \\  /    A nd           | Web:      www.OpenFOAM.org                      |
|    \\/     M anipulation  |                                                 |
\*---------------------------------------------------------------------------*/
FoamFile
{
    version     2.0;
    format      ascii;
    class       volVectorField;
    location    "42";
    object      ddtUrel;
}
// * * * * * * * * * * * * * * * * * * * * * * * * * * * * * * * * * * * * * //

dimensions      [0 1 -2 0 0 0 0];

internalField   nonuniform List<vector> 
132
(
(-3.22488e-10 2.4773e-10 3.46958e-10)
(-3.95518e-10 2.70723e-10 3.84663e-10)
(-6.25181e-10 2.52079e-10 3.89655e-10)
(-8.56001e-10 3.78198e-11 1.04962e-10)
(-1.88773e-09 3.23639e-11 8.51491e-11)
(-3.30438e-09 1.18223e-10 1.65273e-10)
(-6.12033e-09 2.27803e-10 2.883e-10)
(-1.21117e-08 3.1153e-10 4.46218e-10)
(-2.70128e-08 3.67925e-10 7.41491e-10)
(-2.75737e-10 2.72359e-10 3.10981e-10)
(-3.10728e-10 3.04731e-10 3.30689e-10)
(-4.08834e-10 2.76288e-10 3.01651e-10)
(-7.94856e-10 5.4161e-11 1.69515e-10)
(-1.63786e-09 5.43195e-11 1.48123e-10)
(-2.90501e-09 1.48259e-10 2.16206e-10)
(-5.18435e-09 2.83044e-10 3.22692e-10)
(-9.42617e-09 3.9368e-10 4.44203e-10)
(-1.81869e-08 4.512e-10 6.22114e-10)
(-2.67432e-10 2.73682e-10 2.64951e-10)
(-3.09294e-10 2.79085e-10 2.74339e-10)
(-4.57292e-10 2.50279e-10 2.61864e-10)
(-7.89252e-10 1.28482e-10 2.2878e-10)
(-1.42454e-09 1.20501e-10 2.28885e-10)
(-2.34689e-09 2.09379e-10 2.82878e-10)
(-3.91506e-09 3.38135e-10 3.58327e-10)
(-6.37641e-09 4.59102e-10 4.51429e-10)
(-1.06292e-08 5.14021e-10 5.41084e-10)
(-2.44711e-10 2.48857e-10 2.20678e-10)
(-3.21614e-10 2.38734e-10 2.33107e-10)
(-4.96676e-10 2.16585e-10 2.44005e-10)
(-2.29757e-10 2.04388e-10 3.60137e-10)
(-2.55361e-10 2.14244e-10 3.96077e-10)
(-3.51207e-10 1.76961e-10 3.50651e-10)
(-6.57935e-10 6.69851e-11 7.34102e-11)
(-1.48188e-09 6.62686e-11 5.74422e-11)
(-2.69706e-09 1.26133e-10 1.43829e-10)
(-4.82346e-09 2.14623e-10 2.47162e-10)
(-8.94174e-09 2.87185e-10 3.67545e-10)
(-1.71598e-08 3.09908e-10 5.25757e-10)
(-2.10402e-10 2.29782e-10 3.22344e-10)
(-2.29784e-10 2.47018e-10 3.42714e-10)
(-3.1637e-10 2.12109e-10 3.02667e-10)
(-6.47879e-10 9.24784e-11 1.57207e-10)
(-1.36254e-09 8.04127e-11 1.29684e-10)
(-2.41814e-09 1.51911e-10 1.9131e-10)
(-4.16165e-09 2.66503e-10 2.80209e-10)
(-7.19084e-09 3.62427e-10 3.77302e-10)
(-1.25275e-08 4.00442e-10 4.84675e-10)
(-2.08673e-10 2.29552e-10 2.70346e-10)
(-2.45882e-10 2.39357e-10 2.81209e-10)
(-3.69786e-10 2.09572e-10 2.64715e-10)
(-6.59284e-10 1.44028e-10 2.20323e-10)
(-1.19288e-09 1.438e-10 2.17086e-10)
(-1.97336e-09 2.11346e-10 2.61991e-10)
(-3.19129e-09 3.26361e-10 3.26726e-10)
(-5.05907e-09 4.28784e-10 4.03124e-10)
(-7.92135e-09 4.77152e-10 4.6751e-10)
(-2.08751e-10 2.13249e-10 2.23084e-10)
(-2.65099e-10 2.17087e-10 2.33951e-10)
(-3.96307e-10 1.97116e-10 2.44147e-10)
(-6.29846e-10 1.7652e-10 2.44156e-10)
(-1.00167e-09 1.91482e-10 2.70386e-10)
(-1.5654e-10 1.4833e-10 3.20979e-10)
(-1.80792e-10 1.46056e-10 3.3183e-10)
(-2.78811e-10 1.25016e-10 2.83088e-10)
(-5.68612e-10 9.32006e-11 1.42003e-10)
(-1.14097e-09 9.75922e-11 1.0473e-10)
(-2.02781e-09 1.389e-10 1.58819e-10)
(-3.41968e-09 2.05726e-10 2.26169e-10)
(-5.75265e-09 2.62043e-10 2.91155e-10)
(-9.62421e-09 2.81781e-10 3.53928e-10)
(-1.49871e-10 1.67532e-10 3.01023e-10)
(-1.79908e-10 1.69669e-10 3.10843e-10)
(-2.86754e-10 1.49892e-10 2.76475e-10)
(-5.57013e-10 1.14206e-10 1.88357e-10)
(-1.07528e-09 1.13671e-10 1.55037e-10)
(-1.85055e-09 1.64264e-10 1.92741e-10)
(-3.02438e-09 2.49564e-10 2.48781e-10)
(-4.85682e-09 3.3109e-10 3.1385e-10)
(-7.62375e-09 3.55778e-10 3.6141e-10)
(-1.61164e-10 1.74731e-10 2.60504e-10)
(-2.03339e-10 1.78728e-10 2.70067e-10)
(-3.19041e-10 1.67517e-10 2.58373e-10)
(-5.54527e-10 1.46597e-10 2.26322e-10)
(-9.53487e-10 1.59389e-10 2.2217e-10)
(-1.53434e-09 2.16913e-10 2.56208e-10)
(-2.38889e-09 3.06025e-10 2.91284e-10)
(-3.59283e-09 3.95238e-10 3.51551e-10)
(-5.23563e-09 4.39255e-10 3.81819e-10)
(-1.63364e-10 1.68558e-10 2.17981e-10)
(-2.18142e-10 1.79124e-10 2.31121e-10)
(-3.3368e-10 1.74328e-10 2.40686e-10)
(-5.18638e-10 1.73752e-10 2.41881e-10)
(-8.01303e-10 1.94898e-10 2.64768e-10)
(-1.18602e-09 2.50406e-10 2.95852e-10)
(-1.73069e-09 3.38911e-10 3.37868e-10)
(-1.13412e-10 1.03051e-10 2.57648e-10)
(-1.39128e-10 1.01883e-10 2.60175e-10)
(-2.36306e-10 9.69703e-11 2.27227e-10)
(-4.61133e-10 9.51597e-11 1.64925e-10)
(-8.41984e-10 1.06631e-10 1.40302e-10)
(-1.41871e-09 1.40126e-10 1.6456e-10)
(-2.26845e-09 1.96474e-10 1.99572e-10)
(-3.50754e-09 2.49037e-10 2.33943e-10)
(-5.25364e-09 2.76031e-10 2.4351e-10)
(-1.09457e-10 1.16734e-10 2.50576e-10)
(-1.42247e-10 1.18808e-10 2.58134e-10)
(-2.41641e-10 1.17593e-10 2.36086e-10)
(-4.44474e-10 1.13643e-10 1.94162e-10)
(-7.91548e-10 1.27421e-10 1.75815e-10)
(-1.29939e-09 1.69786e-10 1.94489e-10)
(-2.03619e-09 2.37811e-10 2.2251e-10)
(-3.06431e-09 3.0971e-10 2.56658e-10)
(-4.4184e-09 3.43802e-10 2.6983e-10)
(-1.19907e-10 1.29307e-10 2.33189e-10)
(-1.5689e-10 1.31375e-10 2.40845e-10)
(-2.54411e-10 1.34667e-10 2.34611e-10)
(-4.1958e-10 1.35149e-10 2.21867e-10)
(-6.96433e-10 1.57856e-10 2.21132e-10)
(-1.08889e-09 2.12016e-10 2.45797e-10)
(-1.63651e-09 2.9392e-10 2.70294e-10)
(-2.35583e-09 3.70052e-10 2.97347e-10)
(-3.22611e-09 4.14877e-10 3.03177e-10)
(-1.22216e-10 1.28479e-10 2.03202e-10)
(-1.61451e-10 1.37734e-10 2.18693e-10)
(-2.54441e-10 1.42742e-10 2.27225e-10)
(-3.79892e-10 1.54796e-10 2.35297e-10)
(-5.79805e-10 1.84156e-10 2.51384e-10)
(-8.41751e-10 2.45027e-10 2.78447e-10)
(-1.18718e-09 3.23083e-10 3.03015e-10)
(-1.62539e-09 3.93241e-10 3.26417e-10)
(-2.11125e-09 4.40443e-10 3.33579e-10)
)
;

boundaryField
{
    inlet
    {
        type            calculated;
        value           nonuniform List<vector> 
16
(
(-4.65163e-10 2.27744e-10 2.86755e-10)
(-2.87338e-10 3.84134e-10 2.69501e-10)
(-4.37681e-10 4.6731e-10 2.0894e-10)
(-1.42096e-11 4.00921e-10 1.4199e-10)
(1.18313e-11 1.45486e-10 5.25754e-10)
(-7.4644e-11 2.99796e-10 3.85734e-10)
(-3.35762e-11 2.6662e-10 2.58275e-10)
(-1.32005e-10 2.8627e-10 1.87328e-10)
(9.00809e-11 5.16982e-11 4.12064e-10)
(8.18714e-11 1.53212e-10 3.98033e-10)
(-7.53823e-11 1.68205e-10 2.77321e-10)
(2.92363e-11 1.68538e-10 1.80911e-10)
(4.33303e-11 1.89781e-11 2.67837e-10)
(1.03569e-10 5.56452e-11 2.83499e-10)
(-1.8971e-10 1.46221e-10 3.27224e-10)
(7.49418e-12 1.10334e-10 1.99282e-10)
)
;
    }
    outlet
    {
        type            calculated;
        value           nonuniform 0();
    }
    wall
    {
        type            calculated;
        value           nonuniform List<vector> 
66
(
(-5.79389e-10 2.29227e-10 2.91427e-10)
(-3.70111e-10 3.86137e-10 2.7192e-10)
(-4.81081e-10 4.67024e-10 2.06794e-10)
(-1.63554e-10 4.03935e-10 1.4901e-10)
(-6.75953e-10 4.84304e-10 6.41002e-10)
(-2.18668e-10 8.67458e-10 4.74654e-10)
(-3.00993e-10 5.6328e-10 2.83254e-10)
(-3.85304e-10 3.23685e-10 1.70973e-10)
(-2.4415e-09 1.05639e-09 1.74499e-09)
(7.28273e-10 1.25039e-09 4.71515e-10)
(-6.84297e-10 7.07004e-10 2.9562e-10)
(-1.19024e-09 3.33661e-10 2.56995e-10)
(7.26062e-10 -7.84104e-10 -8.63677e-10)
(1.13209e-10 -9.44938e-10 -1.02368e-10)
(-7.60601e-10 -1.94313e-10 2.86189e-10)
(-2.9554e-09 -4.42491e-10 -3.40812e-10)
(-1.6463e-09 -4.44073e-10 -1.10588e-10)
(-2.10203e-09 -2.80692e-10 2.22454e-10)
(-2.37033e-09 -7.21878e-11 -4.01649e-11)
(-2.26246e-09 -8.18146e-11 1.32039e-10)
(-1.85897e-09 9.65605e-11 3.97922e-10)
(-4.20198e-09 1.81711e-10 2.46362e-10)
(-4.62655e-09 4.3822e-10 4.55313e-10)
(-4.22468e-09 4.83899e-10 5.2192e-10)
(-1.2156e-09 2.19053e-10 2.46278e-10)
(-4.52245e-09 7.69694e-10 5.08011e-10)
(-3.81882e-09 8.73667e-10 6.85042e-10)
(-2.07664e-09 5.8879e-10 1.38082e-10)
(-1.19084e-08 9.98218e-10 8.09307e-10)
(-7.21332e-09 8.48624e-10 9.67089e-10)
(-5.61202e-10 2.28716e-10 2.91323e-10)
(-2.23732e-10 1.50593e-10 5.45032e-10)
(-3.64033e-12 5.38799e-11 4.1844e-10)
(-4.35285e-11 2.10585e-11 2.71826e-10)
(-6.3069e-10 4.83019e-10 6.39018e-10)
(4.7091e-11 3.09191e-10 1.05102e-09)
(1.65886e-10 5.77575e-11 6.18383e-10)
(1.20992e-10 3.69751e-12 3.45013e-10)
(-7.69442e-09 1.07233e-09 1.98769e-09)
(7.23291e-10 2.19242e-10 1.32644e-09)
(3.95329e-10 1.80228e-11 5.5709e-10)
(1.7681e-10 -1.61859e-11 2.94975e-10)
(8.51796e-10 -7.86095e-10 -8.68535e-10)
(1.31269e-09 -3.54939e-10 -1.32251e-09)
(2.42757e-10 -1.35005e-11 -1.97649e-10)
(-4.97232e-11 1.38871e-11 6.75525e-11)
(-3.42693e-09 -4.4536e-10 -3.24466e-10)
(-4.7829e-10 -1.62462e-10 -7.09387e-10)
(-2.31133e-10 -6.2656e-12 -3.11318e-10)
(-2.23834e-10 -2.66535e-11 -1.5704e-11)
(-1.97974e-09 -7.28285e-11 -5.36321e-11)
(-8.16712e-10 -6.98471e-11 -1.76566e-10)
(-8.43534e-10 8.10497e-12 4.64424e-11)
(-5.48432e-10 -2.8402e-11 1.00069e-10)
(-3.02494e-09 1.77555e-10 2.0465e-10)
(-4.92361e-10 8.64742e-11 1.88995e-11)
(-8.53606e-10 1.02365e-10 1.84549e-10)
(-8.6284e-10 8.52038e-11 1.50037e-10)
(-1.47811e-09 2.13015e-10 2.55473e-10)
(-1.04154e-09 2.15752e-10 2.0835e-10)
(-6.37208e-10 1.32411e-10 1.70762e-10)
(-6.51173e-10 1.73131e-10 2.42494e-10)
(-1.04802e-09 5.94954e-10 1.04391e-10)
(2.28778e-09 -1.16341e-12 4.89839e-12)
(6.18004e-10 1.69796e-11 8.37528e-12)
(-2.19198e-10 2.21702e-10 1.50945e-11)
)
;
    }
    procBoundary0to1
    {
        type            processor;
        value           nonuniform List<vector> 
12
(
(-6.7469e-08 3.33947e-10 1.55038e-09)
(-3.46628e-08 4.49525e-10 8.98521e-10)
(-1.65907e-08 5.2763e-10 5.76493e-10)
(-3.30895e-08 3.23232e-10 8.34873e-10)
(-2.06899e-08 3.96199e-10 6.03607e-10)
(-1.14949e-08 4.92274e-10 4.6779e-10)
(-1.53355e-08 2.91064e-10 4.53102e-10)
(-1.112e-08 3.58631e-10 4.09093e-10)
(-7.04828e-09 4.55612e-10 3.9075e-10)
(-7.33675e-09 2.75712e-10 2.64708e-10)
(-5.86881e-09 3.50179e-10 2.69045e-10)
(-4.08071e-09 4.43308e-10 2.86277e-10)
)
;
    }
    procBoundary0to2
    {
        type            processor;
        value           nonuniform List<vector> 
44
(
(-7.565e-10 1.7664e-10 2.49426e-10)
(-1.2306e-09 1.91971e-10 2.78406e-10)
(-1.82533e-09 2.64543e-10 3.23316e-10)
(-2.81313e-09 3.73e-10 3.80091e-10)
(-4.13468e-09 4.91818e-10 4.52337e-10)
(-6.08976e-09 5.56617e-10 4.91642e-10)
(-2.41464e-10 2.20293e-10 1.87173e-10)
(-3.24808e-10 1.9949e-10 2.11213e-10)
(-7.565e-10 1.7664e-10 2.49426e-10)
(-5.01691e-10 1.88193e-10 2.35942e-10)
(-7.565e-10 1.7664e-10 2.49426e-10)
(-1.2306e-09 1.91971e-10 2.78406e-10)
(-1.52005e-09 2.56913e-10 3.05255e-10)
(-2.28502e-09 3.5386e-10 3.56482e-10)
(-3.32612e-09 4.58096e-10 4.161e-10)
(-4.74142e-09 5.27491e-10 4.51288e-10)
(-2.0158e-10 1.8044e-10 1.87377e-10)
(-2.64904e-10 1.8358e-10 2.06353e-10)
(-3.9294e-10 1.7575e-10 2.31918e-10)
(-5.66997e-10 1.76779e-10 2.54953e-10)
(-1.52005e-09 2.56913e-10 3.05255e-10)
(-8.17556e-10 2.00992e-10 2.89947e-10)
(-1.52005e-09 2.56913e-10 3.05255e-10)
(-2.28502e-09 3.5386e-10 3.56482e-10)
(-2.44652e-09 4.2107e-10 3.77562e-10)
(-3.32341e-09 4.86319e-10 4.02679e-10)
(-1.58054e-10 1.46285e-10 1.86028e-10)
(-2.072e-10 1.55028e-10 2.03307e-10)
(-3.1021e-10 1.57393e-10 2.27373e-10)
(-4.43099e-10 1.6701e-10 2.49831e-10)
(-6.36724e-10 1.97747e-10 2.77671e-10)
(-8.73961e-10 2.50295e-10 3.07926e-10)
(-2.44652e-09 4.2107e-10 3.77562e-10)
(-1.1948e-09 3.16344e-10 3.39937e-10)
(-2.44652e-09 4.2107e-10 3.77562e-10)
(-3.32341e-09 4.86319e-10 4.02679e-10)
(-1.16367e-10 1.17079e-10 1.7583e-10)
(-1.50395e-10 1.28736e-10 1.95417e-10)
(-2.23334e-10 1.39266e-10 2.12288e-10)
(-3.12548e-10 1.57849e-10 2.27175e-10)
(-4.43161e-10 1.91971e-10 2.47587e-10)
(-6.04659e-10 2.43045e-10 2.71866e-10)
(-8.02697e-10 3.03671e-10 2.92441e-10)
(-1.03688e-09 3.76849e-10 3.13222e-10)
)
;
    }
    procBoundary0to4
    {
        type            processor;
        value           nonuniform List<vector> 
36
(
(-8.47239e-11 7.34739e-11 1.95845e-10)
(-1.14325e-10 7.54643e-11 1.94372e-10)
(-1.96823e-10 8.09194e-11 1.79786e-10)
(-3.49221e-10 9.05511e-11 1.53644e-10)
(-6.04782e-10 1.13925e-10 1.40303e-10)
(-9.58686e-10 1.42382e-10 1.52653e-10)
(-1.45838e-09 1.8474e-10 1.68363e-10)
(-2.10843e-09 2.25162e-10 1.77797e-10)
(-2.91318e-09 2.52844e-10 1.73926e-10)
(-8.10632e-11 8.22513e-11 1.97531e-10)
(-1.09696e-10 8.48211e-11 2.01254e-10)
(-1.87493e-10 9.46943e-11 1.92981e-10)
(-3.30989e-10 1.05401e-10 1.75648e-10)
(-5.56511e-10 1.27413e-10 1.67232e-10)
(-8.76603e-10 1.65669e-10 1.76141e-10)
(-1.32106e-09 2.20806e-10 1.90298e-10)
(-1.88797e-09 2.79824e-10 1.9677e-10)
(-2.55451e-09 3.11143e-10 1.9485e-10)
(-8.30027e-11 9.27491e-11 1.89278e-10)
(-1.10989e-10 9.67765e-11 1.99477e-10)
(-1.79789e-10 1.08884e-10 1.99344e-10)
(-3.00371e-10 1.21988e-10 1.97133e-10)
(-4.80956e-10 1.48866e-10 1.97023e-10)
(-7.34909e-10 2.002e-10 2.11515e-10)
(-1.06277e-09 2.67466e-10 2.24969e-10)
(-1.48077e-09 3.35953e-10 2.2521e-10)
(-1.93077e-09 3.78063e-10 2.13753e-10)
(-8.17924e-11 9.61631e-11 1.7312e-10)
(-1.03309e-10 1.04082e-10 1.87589e-10)
(-1.61944e-10 1.17687e-10 1.96041e-10)
(-2.49564e-10 1.34628e-10 2.04219e-10)
(-3.80763e-10 1.70113e-10 2.12782e-10)
(-5.49335e-10 2.23896e-10 2.33735e-10)
(-7.37809e-10 2.89199e-10 2.45392e-10)
(-9.97035e-10 3.56995e-10 2.47892e-10)
(-1.27734e-09 4.19701e-10 2.40443e-10)
)
;
    }
    procBoundary0to6
    {
        type            processor;
        value           uniform (-1.28836e-09 4.34495e-10 3.26287e-10);
    }
    procBoundary0to7
    {
        type            processor;
        value           uniform (-2.56622e-09 4.91043e-10 3.0277e-10);
    }
}


// ************************************************************************* //
