/*--------------------------------*- C++ -*----------------------------------*\
| =========                 |                                                 |
| \\      /  F ield         | OpenFOAM: The Open Source CFD Toolbox           |
|  \\    /   O peration     | Version:  4.x                                   |
|   \\  /    A nd           | Web:      www.OpenFOAM.org                      |
|    \\/     M anipulation  |                                                 |
\*---------------------------------------------------------------------------*/
FoamFile
{
    version     2.0;
    format      ascii;
    class       volScalarField;
    location    "42";
    object      p;
}
// * * * * * * * * * * * * * * * * * * * * * * * * * * * * * * * * * * * * * //

dimensions      [1 -1 -2 0 0 0 0];

internalField   nonuniform List<scalar> 
132
(
5742.63
5726.5
5737.24
5705.99
5727.34
5689.33
5721.18
5671.09
5714.7
5742.66
5726.06
5736
5707.42
5728.04
5689.38
5721.31
5670.95
5714.71
5742.84
5726.07
5736.02
5708.07
5728.74
5689.78
5721.81
5671.52
5715.13
5742.68
5725.78
5735.89
3865.34
3848.6
3858.62
3829.85
3850.63
3811.78
3843.91
3793.5
3837.27
3865.56
3848.48
3858.66
3830.18
3851.11
3811.8
3844.15
3793.29
3837.39
3865.91
3848.63
3859.02
3830.59
3851.78
3812.21
3844.7
3793.7
3837.86
3865.77
3848.33
3858.85
3830.47
3851.65
1987.73
1970.54
1980.61
1952.43
1973.07
1934.08
1965.94
1915.49
1959.09
1988.11
1970.65
1980.98
1952.57
1973.49
1934.09
1966.25
1915.33
1959.2
1988.57
1970.93
1981.51
1952.97
1974
1934.48
1966.57
1915.94
1959.51
1988.65
1970.92
1981.57
1952.9
1974.05
1934.35
1966.55
110.36
93.0989
103.35
75.1713
96.0678
56.9175
88.8171
38.652
82.0022
110.876
93.3144
103.796
75.2578
96.4198
57.0091
89.1552
38.5177
82.1224
111.409
93.7787
104.431
75.8222
96.9648
57.7029
89.251
39.7816
81.9178
111.373
93.6545
104.298
75.5319
96.6877
57.2967
89.0758
38.8564
81.8937
)
;

boundaryField
{
    inlet
    {
        type            calculated;
        value           nonuniform List<scalar> 
16
(
5742.63
5742.66
5742.84
5742.68
3865.34
3865.56
3865.91
3865.77
1987.73
1988.11
1988.57
1988.65
110.36
110.876
111.409
111.373
)
;
    }
    outlet
    {
        type            calculated;
        value           nonuniform 0();
    }
    wall
    {
        type            calculated;
        value           nonuniform List<scalar> 
66
(
6681.59
6681.62
6681.79
6681.64
6665.45
6665.02
6665.03
6664.74
6676.2
6674.96
6674.98
6674.85
6644.95
6646.38
6647.03
6666.29
6667
6667.7
6628.29
6628.34
6628.74
6660.13
6660.27
6660.76
6610.05
6609.9
6610.48
6653.65
6653.67
6654.09
5742.63
3865.34
1987.73
110.36
5726.5
3848.6
1970.54
93.0989
5737.24
3858.62
1980.61
103.35
5705.99
3829.85
1952.43
75.1713
5727.34
3850.63
1973.07
96.0678
5689.33
3811.78
1934.08
56.9175
5721.18
3843.91
1965.94
88.8171
5671.09
3793.5
1915.49
38.652
5714.7
3837.27
1959.09
82.0022
)
;
    }
    procBoundary0to1
    {
        type            processor;
        value           nonuniform List<scalar> 
12
(
5652.64
5652.13
5652.86
3774.95
3774.6
3775.32
1896.8
1896.32
1897.69
20.3675
20.1778
22.3501
)
;
    }
    procBoundary0to2
    {
        type            processor;
        value           nonuniform List<scalar> 
44
(
5708.03
5728.68
5689.61
5721.61
5670.89
5714.87
5742.8
5725.82
5708.03
5736.05
5708.03
5728.68
3811.91
3844.33
3793
3837.39
3865.79
3848.46
3859.01
3830.59
3811.91
3851.91
3811.91
3844.33
1915.59
1959.43
1988.64
1970.97
1981.69
1953.25
1974.35
1935.18
1915.59
1966.95
1915.59
1959.43
111.438
93.6259
104.294
75.557
96.8303
57.3349
89.354
39.0401
)
;
    }
    procBoundary0to4
    {
        type            processor;
        value           nonuniform List<scalar> 
36
(
-1767.45
-1784.83
-1774.6
-1802.72
-1782.04
-1820.97
-1789.4
-1839.52
-1796.51
-1766.84
-1784.57
-1774.03
-1802.52
-1781.62
-1820.91
-1789.07
-1839.39
-1796.2
-1766.3
-1784.17
-1773.58
-1802.11
-1781.28
-1820.37
-1788.82
-1838.67
-1796.21
-1766.21
-1784
-1773.4
-1801.9
-1781.02
-1820.08
-1788.73
-1838.38
-1796.31
)
;
    }
    procBoundary0to6
    {
        type            processor;
        value           uniform 82.0212;
    }
    procBoundary0to7
    {
        type            processor;
        value           uniform 21.0062;
    }
}


// ************************************************************************* //
