/*--------------------------------*- C++ -*----------------------------------*\
| =========                 |                                                 |
| \\      /  F ield         | OpenFOAM: The Open Source CFD Toolbox           |
|  \\    /   O peration     | Version:  4.x                                   |
|   \\  /    A nd           | Web:      www.OpenFOAM.org                      |
|    \\/     M anipulation  |                                                 |
\*---------------------------------------------------------------------------*/
FoamFile
{
    version     2.0;
    format      ascii;
    class       volScalarField;
    location    "42";
    object      QPartFluid;
}
// * * * * * * * * * * * * * * * * * * * * * * * * * * * * * * * * * * * * * //

dimensions      [1 -1 -3 0 0 0 0];

internalField   nonuniform List<scalar> 
132
(
5.18464e+09
4.25702e+09
3.70045e+09
2.96424e+09
4.31988e+09
4.48737e+09
5.88047e+09
3.93847e+09
2.01759e+09
4.65025e+09
5.10137e+09
5.52596e+09
5.59572e+09
3.84071e+09
6.716e+09
5.31373e+09
5.79013e+09
5.24351e+09
3.11694e+09
5.87381e+09
5.74713e+09
5.06353e+09
5.56525e+09
4.8891e+09
3.98087e+09
5.17091e+09
8.50663e+09
2.97985e+09
4.53247e+09
3.5092e+09
4.26838e+09
6.97375e+09
8.63799e+09
7.56975e+09
7.74673e+09
7.59908e+09
7.12096e+09
6.7704e+09
7.26017e+09
4.98324e+09
9.45792e+09
8.01871e+09
8.50021e+09
9.60706e+09
8.61619e+09
9.20531e+09
9.19848e+09
8.97603e+09
5.30205e+09
9.44893e+09
8.41024e+09
7.53407e+09
9.07716e+09
6.74372e+09
1.05194e+10
6.89965e+09
6.34839e+09
7.96625e+09
7.0356e+09
7.79945e+09
5.51146e+09
1.13235e+10
5.58633e+09
6.97055e+09
8.13992e+09
6.96985e+09
7.4934e+09
5.67411e+09
8.06078e+09
7.06889e+09
5.41924e+09
6.24859e+09
8.28138e+09
7.99171e+09
6.9227e+09
9.28464e+09
6.72433e+09
9.45769e+09
1.01842e+10
1.01517e+10
6.70904e+09
7.20846e+09
8.09547e+09
9.31105e+09
9.84312e+09
8.08956e+09
9.21914e+09
6.46517e+09
5.39833e+09
6.90753e+09
8.66799e+09
9.57754e+09
8.99198e+09
9.97461e+09
8.02764e+09
8.77357e+09
4.35507e+09
4.98728e+09
6.77015e+09
5.1851e+09
7.08632e+09
7.77269e+09
5.90434e+09
4.33138e+09
6.04148e+09
5.13767e+09
9.59573e+09
9.09522e+09
8.08945e+09
7.20344e+09
6.63335e+09
1.04374e+10
7.18953e+09
6.93431e+09
5.18853e+09
5.58421e+09
9.04986e+09
6.10547e+09
8.69337e+09
8.40154e+09
8.23631e+09
4.93895e+09
9.33282e+09
4.82752e+09
6.72273e+09
9.82223e+09
1.0197e+10
5.49757e+09
9.74826e+09
8.53487e+09
5.4835e+09
2.609e+09
)
;

boundaryField
{
    inlet
    {
        type            calculated;
        value           uniform 0;
    }
    outlet
    {
        type            calculated;
        value           nonuniform 0();
    }
    wall
    {
        type            calculated;
        value           uniform 0;
    }
    procBoundary0to1
    {
        type            processor;
        value           nonuniform List<scalar> 
12
(
4.29746e+09
4.53264e+09
3.94633e+09
7.42753e+09
9.02275e+09
7.92558e+09
7.12607e+09
6.48493e+09
9.51274e+09
6.47494e+09
7.85831e+09
5.8903e+09
)
;
    }
    procBoundary0to2
    {
        type            processor;
        value           nonuniform List<scalar> 
44
(
7.13449e+09
5.59371e+09
3.05261e+09
5.97111e+09
3.6367e+09
4.59951e+09
5.81599e+09
6.93066e+09
7.13449e+09
6.13275e+09
7.13449e+09
5.59371e+09
9.84829e+09
1.23075e+10
6.60996e+09
1.12304e+10
4.73255e+09
7.93643e+09
9.59436e+09
9.17682e+09
9.84829e+09
8.88623e+09
9.84829e+09
1.23075e+10
8.03833e+09
9.28319e+09
6.86177e+09
5.73993e+09
6.75027e+09
6.87253e+09
6.76568e+09
7.704e+09
8.03833e+09
9.82916e+09
8.03833e+09
9.28319e+09
4.89889e+09
9.48239e+09
1.02993e+10
7.15265e+09
8.2372e+09
6.26624e+09
7.5802e+09
7.46692e+09
)
;
    }
    procBoundary0to4
    {
        type            processor;
        value           nonuniform List<scalar> 
36
(
4.92484e+09
7.10807e+09
8.42727e+09
5.97989e+09
7.15857e+09
5.99294e+09
8.94511e+09
6.87397e+09
9.65092e+09
7.01851e+09
7.29695e+09
9.39029e+09
1.00429e+10
1.01194e+10
8.59502e+09
8.14536e+09
5.77787e+09
1.11126e+10
6.6886e+09
1.02777e+10
8.31759e+09
9.36788e+09
8.12477e+09
6.3088e+09
7.3089e+09
1.03008e+10
6.74224e+09
3.45714e+09
6.72891e+09
9.39358e+09
5.69706e+09
8.78992e+09
6.64863e+09
1.10125e+10
5.97568e+09
7.04768e+09
)
;
    }
    procBoundary0to6
    {
        type            processor;
        value           uniform 8.0975e+09;
    }
    procBoundary0to7
    {
        type            processor;
        value           uniform 1.00061e+10;
    }
}


// ************************************************************************* //
