/*--------------------------------*- C++ -*----------------------------------*\
| =========                 |                                                 |
| \\      /  F ield         | OpenFOAM: The Open Source CFD Toolbox           |
|  \\    /   O peration     | Version:  4.x                                   |
|   \\  /    A nd           | Web:      www.OpenFOAM.org                      |
|    \\/     M anipulation  |                                                 |
\*---------------------------------------------------------------------------*/
FoamFile
{
    version     2.0;
    format      ascii;
    class       volScalarField;
    location    "35";
    object      Cs;
}
// * * * * * * * * * * * * * * * * * * * * * * * * * * * * * * * * * * * * * //

dimensions      [1 -3 0 0 0 0 0];

internalField   nonuniform List<scalar> 
108
(
335
335
334.999
334.999
334.998
334.997
334.996
334.995
335.068
335
335
335
334.999
334.999
334.999
334.998
334.997
335.223
335
335
334.999
334.999
334.999
334.998
334.997
334.996
335.332
335
335
335
335
335
334.999
334.999
334.999
341.731
335
334.999
334.998
334.996
334.992
334.988
334.981
334.979
334.825
335
334.999
334.999
334.998
334.996
334.993
334.988
334.986
334.866
335
335
334.999
334.999
334.998
334.997
334.993
334.992
334.811
335
335
335
335
334.999
334.999
334.998
334.998
334.631
334.999
334.996
334.991
334.984
334.973
334.965
334.953
334.953
334.878
334.999
334.999
334.997
334.994
334.989
334.983
334.974
334.969
334.85
335
334.999
334.998
334.996
334.993
334.989
334.983
334.981
334.87
335
335
335
335
334.999
334.999
334.997
334.996
334.735
)
;

boundaryField
{
    inlet
    {
        type            calculated;
        value           nonuniform 0();
    }
    outlet
    {
        type            calculated;
        value           uniform 335;
    }
    wall
    {
        type            calculated;
        value           nonuniform List<scalar> 
63
(
335
335
335
335
335
335
335
335
334.999
335
334.999
335
334.999
334.999
334.999
335
334.998
334.999
334.999
335
334.997
334.999
334.998
334.999
334.996
334.998
334.997
334.999
334.995
334.997
334.996
334.999
335.068
335.223
335.332
341.731
335
335
335
335
335
335
335
335
335
335
335
335
335
334.999
334.999
334.999
334.999
334.999
334.999
334.998
334.997
334.999
334.998
334.996
341.731
334.631
334.735
)
;
    }
    procBoundary3to1
    {
        type            processor;
        value           nonuniform List<scalar> 
27
(
335
335
335
334.999
334.999
334.999
334.996
334.996
334.936
334.999
334.999
334.997
334.995
334.991
334.987
334.979
334.98
334.888
334.999
334.997
334.993
334.988
334.982
334.976
334.967
334.965
334.87
)
;
    }
    procBoundary3to2
    {
        type            processor;
        value           nonuniform List<scalar> 
12
(
335
335
335
335
335
335
335
335
335
335
335
335
)
;
    }
    procBoundary3to7
    {
        type            processor;
        value           nonuniform List<scalar> 
36
(
334.999
334.998
334.996
334.993
334.988
334.98
334.971
334.96
334.904
334.999
334.999
334.998
334.995
334.992
334.987
334.981
334.975
334.884
335
334.999
334.999
334.998
334.996
334.995
334.99
334.987
334.82
335
335
335
335
334.999
334.999
334.998
334.997
334.813
)
;
    }
}


// ************************************************************************* //
