/*--------------------------------*- C++ -*----------------------------------*\
| =========                 |                                                 |
| \\      /  F ield         | OpenFOAM: The Open Source CFD Toolbox           |
|  \\    /   O peration     | Version:  4.x                                   |
|   \\  /    A nd           | Web:      www.OpenFOAM.org                      |
|    \\/     M anipulation  |                                                 |
\*---------------------------------------------------------------------------*/
FoamFile
{
    version     2.0;
    format      ascii;
    class       volVectorField;
    location    "35";
    object      DDtUrel;
}
// * * * * * * * * * * * * * * * * * * * * * * * * * * * * * * * * * * * * * //

dimensions      [0 1 -2 0 0 0 0];

internalField   nonuniform List<vector> 
108
(
(0.000151477 9.11375e-06 2.78114e-05)
(7.07926e-05 7.15001e-06 1.70088e-05)
(3.75521e-05 -3.71791e-06 2.02154e-05)
(-0.000125902 -2.33463e-05 -1.24669e-05)
(-0.000239271 -3.16178e-05 -2.74191e-05)
(-0.000585672 -6.18487e-05 -0.000153585)
(-0.000931758 -5.64118e-05 -0.000266935)
(-0.00177007 -0.000166988 -0.000608246)
(-0.00283629 -0.000269371 -0.000985352)
(0.000148997 3.05772e-07 3.27459e-05)
(6.74821e-05 5.19839e-06 2.29248e-05)
(2.63646e-05 6.70946e-06 2.68292e-05)
(-0.000128828 1.8688e-05 -2.89104e-06)
(-0.000265056 2.90106e-05 -2.71806e-05)
(-0.000586602 6.09584e-05 -0.000148188)
(-0.00100833 8.98831e-05 -0.000301105)
(-0.00170939 0.000207535 -0.000615864)
(-0.00263385 0.000349832 -0.00094089)
(0.000198702 -1.20722e-05 3.41882e-05)
(0.000113311 -5.86573e-06 2.94044e-05)
(9.06343e-05 2.3975e-06 2.94287e-05)
(-6.72358e-05 4.47276e-05 2.38102e-06)
(-0.000132031 6.30199e-05 -3.27584e-05)
(-0.000497008 0.000159937 -0.000178238)
(-0.000779014 0.000197828 -0.000392573)
(-0.0018929 0.000570487 -0.000883571)
(-0.00324819 0.000866485 -0.00131183)
(0.000253308 -2.84481e-05 3.14958e-05)
(0.0001578 -2.62507e-05 2.65991e-05)
(0.000139383 -1.39111e-05 2.39287e-05)
(-1.92099e-05 2.6631e-05 -5.99762e-06)
(-5.06389e-05 6.15798e-05 -4.85994e-05)
(-0.000438171 0.000156365 -0.000208223)
(-0.000654226 0.000246155 -0.000518326)
(-0.00205265 0.000573331 -0.00139272)
(-0.00373217 0.000725961 -0.0019398)
(9.08959e-05 7.54866e-06 2.50783e-05)
(2.84587e-05 4.15418e-06 1.56369e-05)
(-1.50772e-05 -2.59125e-06 1.6747e-05)
(-0.000135183 -9.63484e-06 -1.12512e-05)
(-0.000269565 -2.01711e-05 -3.36136e-05)
(-0.000540953 -2.49783e-05 -0.000132129)
(-0.000909487 -4.13269e-05 -0.00023917)
(-0.00153582 -3.85095e-05 -0.000558833)
(-0.00230444 -4.74941e-05 -0.000853171)
(9.80794e-05 -3.56075e-07 2.70996e-05)
(3.5741e-05 1.49699e-06 1.69821e-05)
(-8.05119e-06 1.67653e-06 1.821e-05)
(-0.000125303 1.25441e-05 -1.16774e-05)
(-0.000254023 2.09346e-05 -3.98645e-05)
(-0.000523635 5.85743e-05 -0.000142501)
(-0.000900766 9.28921e-05 -0.00027883)
(-0.00153736 0.000268565 -0.000580316)
(-0.00233861 0.000451354 -0.000902986)
(0.00013671 -1.41797e-05 2.65806e-05)
(6.98825e-05 -7.98577e-06 1.56009e-05)
(5.11038e-05 -5.41014e-06 1.86633e-05)
(-7.6107e-05 2.69443e-05 -1.8939e-05)
(-0.000139003 4.31635e-05 -4.35938e-05)
(-0.000453504 0.000137057 -0.000185962)
(-0.000734409 0.000197376 -0.000346791)
(-0.00172351 0.000601654 -0.000872767)
(-0.00288225 0.000898704 -0.00137287)
(0.000181849 -2.81783e-05 2.53535e-05)
(0.000103211 -2.52875e-05 1.13249e-05)
(9.25434e-05 -1.78032e-05 1.10915e-05)
(-4.28249e-05 1.70613e-05 -2.75362e-05)
(-6.54404e-05 4.69246e-05 -5.50913e-05)
(-0.000403091 0.0001466 -0.000203623)
(-0.000585375 0.000247005 -0.000432206)
(-0.0018491 0.000595747 -0.00120157)
(-0.00338533 0.000743751 -0.00179322)
(3.67788e-05 4.1746e-06 1.9278e-05)
(-5.53152e-06 1.92261e-06 1.32561e-05)
(-5.81645e-05 -4.19273e-07 1.0229e-05)
(-0.000146433 -6.11409e-06 -1.03101e-05)
(-0.000284778 -1.17652e-05 -3.05838e-05)
(-0.00050009 -1.57911e-05 -9.77696e-05)
(-0.000849673 -1.93273e-05 -0.000180288)
(-0.00128995 -2.76653e-05 -0.000410662)
(-0.00187002 -4.25139e-05 -0.00060852)
(4.54692e-05 -2.66119e-06 2.00917e-05)
(6.5078e-07 -1.84128e-06 1.29688e-05)
(-4.78745e-05 2.05304e-06 1.02966e-05)
(-0.00013555 9.17936e-06 -1.36381e-05)
(-0.000257085 2.37651e-05 -3.48316e-05)
(-0.000481358 5.16792e-05 -0.000114784)
(-0.000819196 8.98651e-05 -0.000210438)
(-0.00132319 0.000239015 -0.000443989)
(-0.00199944 0.000376812 -0.000677659)
(7.43288e-05 -1.39957e-05 1.45686e-05)
(2.35174e-05 -9.4474e-06 7.01987e-06)
(-9.88456e-06 -6.58268e-06 3.21667e-06)
(-0.000106723 1.76449e-05 -2.56011e-05)
(-0.000200899 4.0341e-05 -5.31985e-05)
(-0.000443868 0.000116473 -0.000158373)
(-0.000774683 0.000186163 -0.000274768)
(-0.00147153 0.000510683 -0.00060586)
(-0.00232597 0.000765948 -0.000952764)
(0.000113393 -2.29599e-05 1.0158e-05)
(4.98787e-05 -1.77888e-05 -3.03056e-06)
(3.58725e-05 -1.68592e-05 -3.82639e-06)
(-7.84751e-05 2.01521e-05 -4.14283e-05)
(-0.000116663 4.21223e-05 -6.23953e-05)
(-0.000395341 0.000136867 -0.000179925)
(-0.000591984 0.000213708 -0.000302114)
(-0.00163554 0.000547178 -0.000735371)
(-0.00292382 0.000783522 -0.00120559)
)
;

boundaryField
{
    inlet
    {
        type            calculated;
        value           nonuniform 0();
    }
    outlet
    {
        type            calculated;
        value           nonuniform List<vector> 
12
(
(-0.00737058 -0.00218009 -0.00206975)
(-0.00403144 0.000813866 -0.000837773)
(-0.00915925 0.0037395 -0.00172538)
(-0.0117189 0.000735573 -0.00608452)
(-0.00399607 0.000216377 -0.00175912)
(-0.00350782 0.00174075 -0.00123674)
(-0.00734343 0.00421059 -0.00461842)
(-0.0102535 0.000681577 -0.00634759)
(-0.00227105 -0.000409371 -0.0012286)
(-0.00330718 0.000746841 -0.00101874)
(-0.00317952 0.00309577 -0.00212243)
(-0.00917065 0.00271035 -0.00329267)
)
;
    }
    wall
    {
        type            calculated;
        value           nonuniform List<vector> 
63
(
(0.000547322 2.18752e-05 6.25013e-05)
(0.000372379 5.86896e-06 9.29957e-05)
(0.000629257 -1.73358e-05 9.27923e-05)
(0.000918737 -9.45424e-05 6.66562e-05)
(6.86401e-06 3.63775e-05 -9.58384e-06)
(-0.000116343 5.53775e-05 -5.06261e-06)
(4.7361e-05 2.25208e-05 8.44691e-05)
(0.000211518 -0.000124468 5.75374e-05)
(0.000564948 -2.41789e-05 0.000164113)
(0.00027058 3.33708e-05 0.000174411)
(0.000697633 -4.72327e-05 0.000174942)
(0.000886547 -0.000143212 0.000134681)
(-0.000378548 -0.000208435 -3.46477e-05)
(-0.000398645 9.19676e-05 1.96104e-05)
(-0.000300175 0.000312385 0.000135528)
(-0.000211976 1.88008e-05 7.52038e-05)
(0.000421585 -0.000133141 0.000393903)
(-0.000184946 6.5267e-05 0.000342636)
(0.00101979 -2.21727e-05 0.000389217)
(0.00139754 -9.15995e-05 0.000301836)
(-0.000957133 -0.000504337 -0.000200863)
(-0.000732588 0.000151044 4.62289e-05)
(-0.000805014 0.000735401 6.8118e-05)
(-0.000920885 0.000191518 0.000173608)
(0.000367123 9.23059e-05 0.000465396)
(-0.00136847 -8.9221e-05 0.000330645)
(0.00210037 -0.000702892 0.000468961)
(0.0033485 -0.000378024 0.000661033)
(-0.00152867 -0.00107795 -0.000254855)
(-0.000764699 -2.39739e-05 0.00010514)
(-0.00170279 0.00182583 -0.000380827)
(-0.00225513 0.00107892 -0.00459843)
(-0.00737058 -0.00218009 -0.00206975)
(-0.00403144 0.000813866 -0.000837773)
(-0.00915925 0.0037395 -0.00172538)
(-0.0117189 0.000735573 -0.00608452)
(0.000918737 -9.45424e-05 6.66562e-05)
(0.00054669 -0.00010279 0.000100185)
(0.0003767 -5.98247e-05 2.993e-05)
(0.000211518 -0.000124468 5.75374e-05)
(-1.89328e-05 -0.00011311 -4.93897e-05)
(-4.41876e-05 -1.434e-05 -8.76975e-05)
(0.000886547 -0.000143212 0.000134681)
(0.000653898 -0.000159043 0.000118613)
(0.000508178 -0.000175256 8.28893e-05)
(-0.000211976 1.88008e-05 7.52038e-05)
(-0.000270071 -3.55095e-05 -0.00011335)
(-0.000202145 0.000117689 -0.000191826)
(0.00139754 -9.15995e-05 0.000301836)
(0.00129307 -0.000197807 0.000304368)
(0.00100865 -0.000160677 0.000162977)
(-0.000920885 0.000191518 0.000173608)
(-0.000668485 0.000172951 -5.68891e-05)
(-0.000360745 0.000396099 -0.000336048)
(0.0033485 -0.000378024 0.000661033)
(0.00360398 -0.000301024 0.000923707)
(0.00305888 -0.000431927 0.000613861)
(-0.00225513 0.00107892 -0.00459843)
(-0.00138104 0.00144563 -0.0036269)
(-0.00132428 0.00156713 -0.000600759)
(-0.0117189 0.000735573 -0.00608452)
(-0.0102535 0.000681577 -0.00634759)
(-0.00917065 0.00271035 -0.00329267)
)
;
    }
    procBoundary3to1
    {
        type            processor;
        value           nonuniform List<vector> 
27
(
(0.000161864 2.14841e-05 2.21315e-05)
(8.70453e-05 1.19663e-05 6.2904e-06)
(6.7054e-05 6.81901e-07 8.03339e-06)
(-8.4008e-05 -3.06469e-05 -3.47751e-05)
(-0.000152387 -4.72613e-05 -4.13008e-05)
(-0.000508884 -0.000114829 -0.000178619)
(-0.000780929 -0.000143665 -0.000258389)
(-0.0019027 -0.00038124 -0.000727478)
(-0.00321881 -0.000594887 -0.0012069)
(9.41301e-05 1.48469e-05 2.46803e-05)
(3.91544e-05 7.06722e-06 1.20404e-05)
(-1.42112e-07 6.23595e-07 8.90753e-06)
(-0.000111061 -1.98761e-05 -1.83961e-05)
(-0.000239348 -3.70982e-05 -4.17694e-05)
(-0.00051296 -8.1844e-05 -0.000139505)
(-0.000890672 -0.000130519 -0.000255611)
(-0.00161198 -0.000294451 -0.000621594)
(-0.00243327 -0.00042512 -0.000931174)
(4.78222e-05 1.19934e-05 1.82642e-05)
(2.25661e-06 4.31069e-06 8.82093e-06)
(-3.95058e-05 -9.03943e-07 5.26559e-06)
(-0.00013472 -2.03841e-05 -1.70122e-05)
(-0.000262663 -3.64559e-05 -3.22643e-05)
(-0.000490802 -8.32993e-05 -0.000107014)
(-0.000841892 -0.000110885 -0.000172992)
(-0.00134948 -0.000287611 -0.000405219)
(-0.00202133 -0.000423272 -0.000645212)
)
;
    }
    procBoundary3to2
    {
        type            processor;
        value           nonuniform List<vector> 
12
(
(0.000159353 5.27744e-06 3.12022e-05)
(0.000160289 -2.33502e-06 3.25924e-05)
(0.000205179 -1.09147e-05 3.19786e-05)
(0.000262699 -2.60049e-05 2.88012e-05)
(0.000100304 5.56683e-06 2.52822e-05)
(0.000107617 -3.37592e-06 2.61826e-05)
(0.000139918 -1.35153e-05 2.53363e-05)
(0.000187711 -2.59769e-05 2.36602e-05)
(5.51142e-05 3.43485e-06 2.10223e-05)
(5.98926e-05 -4.47127e-06 2.06933e-05)
(8.29222e-05 -1.31777e-05 1.69756e-05)
(0.00011729 -2.12174e-05 1.1412e-05)
)
;
    }
    procBoundary3to7
    {
        type            processor;
        value           nonuniform List<vector> 
36
(
(1.27369e-05 3.79049e-06 1.17436e-05)
(-2.32554e-05 3.7987e-08 8.3468e-06)
(-6.79159e-05 -8.08618e-07 6.99926e-06)
(-0.000148494 -6.24659e-06 -2.50036e-06)
(-0.000273172 -1.24322e-05 -9.4367e-06)
(-0.00046425 -1.62615e-05 -4.45584e-05)
(-0.000780768 -2.86357e-05 -8.02217e-05)
(-0.00112515 -5.57033e-08 -0.000178433)
(-0.00163748 2.80851e-05 -0.000265016)
(1.44642e-05 -4.7836e-06 8.71889e-06)
(-2.2717e-05 -4.04931e-06 4.34955e-06)
(-6.84888e-05 -2.07401e-06 -6.35391e-08)
(-0.000146036 8.07181e-06 -1.38441e-05)
(-0.000262685 1.47319e-05 -2.41587e-05)
(-0.000453048 5.00909e-05 -7.47278e-05)
(-0.000762621 6.33311e-05 -0.000116397)
(-0.00117352 0.000227014 -0.00024658)
(-0.00175187 0.000357074 -0.000382341)
(3.87374e-05 -1.6002e-05 4.98012e-06)
(-9.67368e-06 -8.9501e-06 -3.96256e-06)
(-4.15045e-05 -9.80754e-06 -1.04883e-05)
(-0.00013017 1.1411e-05 -2.73768e-05)
(-0.000217181 1.86322e-05 -4.4047e-05)
(-0.000437743 7.81629e-05 -0.000102353)
(-0.000723332 0.000109663 -0.000146219)
(-0.00131578 0.000321353 -0.000330148)
(-0.00212405 0.000514096 -0.000540044)
(6.12106e-05 -2.20384e-05 -3.27814e-06)
(1.26232e-06 -1.51357e-05 -1.29174e-05)
(-2.3152e-05 -1.25448e-05 -1.51616e-05)
(-0.000125844 9.83412e-06 -3.95125e-05)
(-0.000196564 2.81236e-05 -5.02869e-05)
(-0.000437376 8.19019e-05 -0.000121929)
(-0.000712198 0.000147275 -0.000169498)
(-0.00142848 0.000304838 -0.000403595)
(-0.00238301 0.000461719 -0.000686563)
)
;
    }
}


// ************************************************************************* //
