/*--------------------------------*- C++ -*----------------------------------*\
  =========                 |
  \\      /  F ield         | OpenFOAM: The Open Source CFD Toolbox
   \\    /   O peration     | Website:  https://openfoam.org
    \\  /    A nd           | Version:  4.x
     \\/     M anipulation  |
\*---------------------------------------------------------------------------*/
FoamFile
{
    version     2.0;
    format      ascii;
    class       vectorField;
    location    0;
    object      v;
}
// * * * * * * * * * * * * * * * * * * * * * * * * * * * * * * * * * * * * * //

325
(
( 4.24898e-10 1.24074e-10 3.52859e-10 )  
( 5.27307e-10 2.64185e-10 5.41874e-10 )  
( 4.76742e-09 1.637e-11 1.99012e-09 )  
( 7.57154e-10 1.57805e-10 3.8551e-10 )  
( 1.36199e-09 4.06792e-10 8.30104e-10 )  
( 1.23798e-09 3.85559e-10 7.11402e-10 )  
( 1.75684e-10 9.8904e-11 3.00714e-10 )  
( 1.63286e-10 1.85031e-10 3.09211e-10 )  
( 5.88982e-09 -4.17339e-10 8.33857e-10 )  
( 1.40837e-10 1.14154e-11 3.51501e-10 )  
( 7.44547e-09 -9.61029e-11 1.06041e-09 )  
( 5.51372e-10 1.75268e-10 2.32242e-09 )  
( 2.40111e-09 4.32779e-10 1.17859e-09 )  
( 1.57021e-09 -3.20153e-10 2.38816e-09 )  
( -1.26809e-09 1.54873e-09 4.83088e-09 )  
( 1.11125e-09 1.32828e-10 5.85836e-10 )  
( 7.16182e-10 1.76675e-10 3.18543e-10 )  
( 7.51913e-10 2.21325e-10 5.23402e-10 )  
( 9.97779e-10 3.20607e-10 7.73126e-10 )  
( 3.79002e-09 5.25669e-10 8.60527e-10 )  
( 6.158e-10 2.52222e-10 2.70286e-10 )  
( 2.98588e-09 4.32684e-10 9.73561e-10 )  
( 5.35125e-09 -7.8511e-11 1.86494e-10 )  
( 2.39033e-09 4.84925e-10 8.40342e-10 )  
( 2.67482e-10 4.43039e-11 1.17834e-10 )  
( 2.94651e-09 4.15732e-10 1.97829e-09 )  
( 7.84605e-10 3.61912e-10 5.54184e-10 )  
( 1.92257e-09 1.44561e-11 2.20983e-09 )  
( 1.8806e-09 2.28128e-11 2.60713e-10 )  
( 3.5908e-10 -9.69315e-11 1.39179e-09 )  
( 1.28512e-09 2.27747e-10 5.71996e-10 )  
( 1.78875e-09 -2.89396e-11 -7.93362e-11 )  
( 8.0241e-11 1.77121e-10 8.34146e-10 )  
( 8.36918e-10 2.46124e-10 5.28437e-10 )  
( 5.82577e-10 2.29072e-10 4.49834e-10 )  
( 2.82834e-10 9.41289e-11 2.05393e-10 )  
( 5.81766e-10 2.29327e-11 4.38773e-10 )  
( 1.52924e-09 3.77916e-10 8.18135e-10 )  
( 1.17919e-09 3.88187e-10 6.5779e-10 )  
( 1.6367e-10 1.10497e-10 1.45323e-09 )  
( 4.97589e-10 -1.4772e-11 2.59502e-10 )  
( 9.87197e-10 1.7523e-10 3.252e-10 )  
( 3.97917e-10 2.69997e-10 4.56086e-10 )  
( 1.75512e-09 3.3414e-10 4.92382e-10 )  
( 2.8125e-10 1.00573e-10 1.79396e-10 )  
( 1.00199e-09 1.50121e-10 1.21882e-09 )  
( 2.3131e-09 8.48063e-10 1.06381e-09 )  
( 3.18608e-10 3.70144e-10 2.922e-10 )  
( 2.25633e-10 1.76241e-10 6.06838e-10 )  
( 9.88744e-10 1.18863e-10 4.4852e-10 )  
( 4.50891e-10 1.14286e-10 3.29329e-10 )  
( 2.45018e-09 3.86135e-10 3.89406e-10 )  
( 2.69943e-09 2.02026e-10 7.18627e-10 )  
( 3.12046e-09 2.07065e-10 1.46456e-09 )  
( 6.821e-11 1.90595e-10 1.38511e-09 )  
( 7.67895e-10 2.21892e-10 6.2832e-10 )  
( 4.6774e-09 5.31418e-10 1.09251e-09 )  
( 4.73791e-11 4.59816e-11 2.61081e-10 )  
( 4.2376e-09 1.33863e-09 1.16005e-09 )  
( 6.4267e-11 4.88635e-11 2.40715e-10 )  
( 1.2511e-09 -5.17214e-11 4.06939e-10 )  
( 3.56451e-10 5.44104e-11 1.69285e-10 )  
( 4.60718e-10 6.84814e-11 3.17629e-10 )  
( 2.13194e-09 1.7961e-10 1.27896e-09 )  
( 7.63945e-10 3.57839e-10 5.74628e-10 )  
( 1.56242e-10 1.53548e-10 1.58379e-09 )  
( 2.49799e-09 -5.33185e-10 1.42478e-09 )  
( 1.29902e-09 2.95618e-10 7.44378e-10 )  
( -1.97679e-10 5.69459e-10 2.92787e-09 )  
( 6.58938e-10 4.5323e-11 2.52043e-10 )  
( 5.72491e-10 3.47765e-11 2.75637e-10 )  
( 1.6434e-09 1.33284e-10 4.14591e-10 )  
( 1.03996e-10 4.73078e-11 6.59101e-10 )  
( 1.11225e-09 1.53425e-10 5.91164e-10 )  
( 1.12386e-09 -3.57941e-10 6.83245e-11 )  
( 3.94928e-09 4.54022e-10 8.11275e-10 )  
( -2.61629e-10 -1.046e-10 1.8713e-09 )  
( 6.48799e-09 -8.49916e-10 6.12616e-10 )  
( 1.18128e-09 -9.94704e-11 3.1288e-10 )  
( 4.62117e-09 3.35197e-10 4.8929e-10 )  
( 1.77295e-09 -6.728e-11 -4.7286e-10 )  
( 3.77304e-09 -1.31272e-10 9.66035e-10 )  
( 4.50108e-09 3.14387e-10 1.07152e-09 )  
( 5.84055e-09 -3.48806e-10 7.65179e-11 )  
( 3.41296e-09 4.29939e-10 8.15924e-10 )  
( 8.01939e-10 -4.39097e-10 1.10171e-10 )  
( 2.96312e-10 3.63138e-10 2.09009e-09 )  
( 5.96399e-11 5.36431e-11 3.05236e-10 )  
( 1.17591e-09 1.81663e-10 5.30587e-10 )  
( -5.41146e-10 -5.09955e-10 2.12534e-09 )  
( 1.72244e-10 1.35295e-10 2.3458e-10 )  
( 3.08148e-10 2.11078e-10 3.29496e-10 )  
( 6.35843e-10 7.45585e-11 7.2187e-10 )  
( 1.74236e-10 9.9206e-11 2.46648e-10 )  
( 1.13212e-10 4.43956e-11 2.20106e-10 )  
( 7.24159e-10 4.52748e-10 4.91446e-10 )  
( 1.75425e-10 3.41454e-11 3.58994e-10 )  
( 5.71951e-10 5.39178e-11 3.99542e-10 )  
( 4.36817e-09 -4.00703e-10 2.41483e-10 )  
( 9.76528e-10 1.07327e-10 5.11344e-10 )  
( 8.15129e-10 1.54796e-10 3.96974e-10 )  
( -3.44574e-12 1.02734e-10 4.76495e-10 )  
( 2.31323e-09 1.43837e-10 6.308e-10 )  
( 3.23646e-10 8.74251e-11 2.78571e-10 )  
( 4.12733e-10 8.9641e-11 1.76625e-10 )  
( 3.08639e-10 5.64449e-11 2.22661e-10 )  
( 9.16735e-10 1.99609e-10 5.5764e-10 )  
( 9.20519e-10 -7.0838e-11 -9.65846e-11 )  
( 2.22432e-09 2.87152e-10 1.10485e-09 )  
( 2.90011e-10 1.06624e-10 1.68377e-10 )  
( 9.09718e-10 1.00983e-10 2.71901e-10 )  
( 4.48964e-10 2.0062e-11 1.67306e-10 )  
( 7.33091e-10 1.00592e-10 5.04416e-10 )  
( 2.30467e-09 8.8329e-10 6.24129e-10 )  
( 2.0899e-09 -5.2869e-10 1.63201e-09 )  
( 6.9527e-10 -7.99437e-11 3.05038e-11 )  
( 5.09446e-10 2.45594e-10 2.99703e-10 )  
( 2.16046e-10 2.4442e-11 5.50305e-10 )  
( 5.63741e-11 1.17681e-10 3.21118e-11 )  
( 2.93354e-09 1.42118e-09 -2.75005e-10 )  
( 4.67608e-10 1.98827e-11 2.29101e-10 )  
( 6.11714e-10 -2.29741e-11 7.23792e-10 )  
( 1.25431e-09 4.0709e-11 7.87902e-10 )  
( 3.4104e-10 4.2017e-11 1.35412e-10 )  
( 8.76308e-10 2.32011e-11 3.35484e-10 )  
( 2.11513e-09 6.6105e-12 1.47093e-09 )  
( 3.07854e-09 -1.44912e-10 8.31403e-10 )  
( 2.15266e-09 7.29921e-10 6.52437e-10 )  
( 1.03938e-10 1.00839e-10 3.93214e-11 )  
( 5.09727e-10 1.11194e-10 2.17299e-10 )  
( 2.07368e-10 6.74648e-11 8.83358e-11 )  
( 2.16517e-09 3.26073e-10 5.92012e-10 )  
( 1.07086e-09 3.44793e-10 5.17821e-10 )  
( 2.42446e-10 5.91718e-11 1.88734e-10 )  
( 7.60802e-10 1.25725e-10 4.58663e-10 )  
( 1.65103e-09 5.70266e-10 8.24063e-10 )  
( 5.71963e-10 2.92347e-11 2.01746e-10 )  
( 1.99969e-10 -9.92673e-11 8.06008e-10 )  
( 5.00187e-09 -6.42328e-10 1.367e-09 )  
( 1.05284e-09 1.55107e-11 2.82467e-10 )  
( 2.60216e-10 -7.69887e-11 1.12139e-11 )  
( 2.76653e-09 2.53859e-10 6.7065e-10 )  
( 8.52714e-10 -8.24172e-11 5.42993e-11 )  
( 6.46286e-10 -3.72969e-11 2.66792e-10 )  
( 1.03193e-09 -1.00355e-10 1.96042e-10 )  
( 1.17887e-09 -1.99399e-10 1.7048e-10 )  
( 1.14187e-09 3.42447e-10 1.27557e-09 )  
( 9.77079e-11 1.56679e-10 6.29101e-11 )  
( 1.68045e-10 6.56504e-11 3.65186e-11 )  
( 3.00419e-10 4.22383e-11 1.31569e-10 )  
( 4.14744e-10 1.33954e-10 1.43162e-10 )  
( 8.15851e-10 2.32347e-10 6.66857e-10 )  
( 2.5978e-10 4.71066e-10 1.01773e-09 )  
( 8.78496e-10 2.84369e-10 1.03102e-09 )  
( 1.16357e-10 4.06823e-10 3.84734e-10 )  
( 6.41805e-10 2.36186e-10 3.72708e-10 )  
( 1.28723e-09 -3.47219e-10 -5.39529e-11 )  
( 6.19935e-11 6.3193e-11 1.7522e-10 )  
( 9.22578e-10 -4.31985e-11 5.31492e-10 )  
( 1.97635e-09 2.87887e-10 1.00423e-09 )  
( 6.31734e-10 1.06676e-10 2.58284e-10 )  
( 4.52712e-10 4.89149e-11 3.03429e-10 )  
( 4.64684e-10 1.92529e-10 2.5785e-10 )  
( 3.48778e-10 -1.09097e-09 1.57288e-09 )  
( 4.66564e-10 9.12753e-11 3.23871e-10 )  
( 1.29857e-09 4.4123e-10 1.28389e-09 )  
( 1.38738e-10 1.11634e-10 2.49499e-10 )  
( 3.83052e-09 2.49316e-11 1.35199e-09 )  
( 1.77755e-09 2.46021e-10 7.38297e-10 )  
( 1.88115e-09 5.52078e-11 3.93204e-10 )  
( 1.92845e-09 4.08712e-10 1.23186e-09 )  
( 1.28934e-09 -1.40051e-10 4.4178e-11 )  
( 1.15678e-09 2.1555e-10 4.67368e-10 )  
( 8.21209e-10 7.20063e-11 3.69141e-10 )  
( 5.86954e-10 -3.33648e-11 1.16331e-10 )  
( 1.99013e-10 6.2082e-11 1.20293e-10 )  
( 3.25506e-09 -1.92645e-10 1.47651e-09 )  
( 1.82223e-10 1.59301e-11 2.05284e-10 )  
( 4.13369e-10 -4.86247e-11 1.56127e-10 )  
( 9.79862e-10 1.85555e-10 1.21895e-09 )  
( 1.13454e-09 3.48485e-10 5.90207e-10 )  
( 2.00265e-09 3.44397e-10 9.07352e-10 )  
( 1.9494e-09 -2.11237e-10 6.72236e-10 )  
( 1.10043e-09 3.38881e-10 9.53663e-10 )  
( 7.98888e-10 1.34945e-10 4.87114e-10 )  
( 2.17393e-12 -2.61973e-11 1.26214e-10 )  
( 6.01376e-10 -2.15075e-12 1.13199e-10 )  
( 3.86392e-10 -4.01954e-12 1.07038e-09 )  
( 4.14359e-10 1.01566e-11 2.98901e-10 )  
( 2.4788e-10 2.9387e-11 9.36138e-11 )  
( 7.47695e-11 5.68e-11 1.51566e-10 )  
( 1.43043e-10 2.92116e-11 1.01924e-10 )  
( 3.84178e-10 3.75795e-10 1.81658e-10 )  
( 4.66454e-09 -3.44839e-10 1.5217e-09 )  
( 2.59064e-09 2.54065e-10 8.25594e-10 )  
( 1.4333e-09 1.73796e-10 4.44123e-10 )  
( 2.37499e-10 2.83628e-11 1.01124e-10 )  
( 1.09703e-09 -2.38174e-10 -8.45555e-12 )  
( 4.32416e-09 6.93542e-10 6.05925e-10 )  
( 2.5691e-10 8.11068e-11 2.57568e-10 )  
( 5.68226e-10 -2.22641e-11 2.77921e-10 )  
( 8.83117e-10 -7.22166e-11 1.49268e-10 )  
( 3.76441e-09 1.2348e-10 3.55544e-10 )  
( 6.15943e-11 1.22481e-10 2.02193e-10 )  
( 1.33967e-09 5.20963e-10 8.72742e-10 )  
( 1.42716e-11 6.37616e-10 9.98249e-10 )  
( 3.55669e-10 8.70325e-11 1.0676e-10 )  
( 4.36178e-10 -5.4608e-11 1.15446e-10 )  
( 7.98427e-10 6.26123e-11 1.09332e-09 )  
( 1.67965e-09 2.14092e-10 1.12684e-09 )  
( 1.60716e-10 3.01239e-11 5.55629e-11 )  
( 4.58975e-10 -6.17468e-11 6.37309e-10 )  
( 2.79223e-09 5.8886e-10 8.92274e-10 )  
( 1.61937e-09 -1.20481e-10 5.1337e-10 )  
( 2.44156e-10 7.87467e-11 2.16096e-10 )  
( 2.3333e-09 6.5727e-10 8.93864e-10 )  
( 6.75407e-11 3.66864e-11 1.555e-10 )  
( 3.66222e-10 1.64901e-10 1.16275e-10 )  
( 2.0904e-09 7.87609e-10 5.02298e-10 )  
( 9.10934e-10 4.51204e-10 4.31374e-10 )  
( 6.04113e-10 4.23316e-11 5.46304e-11 )  
( 1.3092e-09 -1.66585e-10 3.07892e-10 )  
( 7.96324e-10 -1.57964e-10 4.02897e-10 )  
( 1.06331e-09 -6.61543e-10 7.77165e-10 )  
( 4.41434e-10 6.62585e-11 1.28847e-10 )  
( 1.00093e-09 -8.83602e-10 8.51912e-10 )  
( 4.88441e-10 2.28264e-11 1.6932e-10 )  
( 1.30525e-09 3.18919e-10 7.57042e-10 )  
( 6.07289e-10 2.25163e-10 3.90311e-10 )  
( 2.28812e-09 3.49047e-10 -3.45463e-10 )  
( 9.18659e-10 1.49848e-10 3.65351e-10 )  
( 4.01262e-10 -2.15715e-10 -1.40414e-10 )  
( 1.07559e-09 -2.88453e-10 2.12997e-10 )  
( 2.33877e-10 4.44967e-11 2.12588e-11 )  
( 1.4217e-09 5.7952e-10 1.03475e-09 )  
( 2.90868e-09 1.01148e-10 1.096e-09 )  
( 1.80957e-09 5.7775e-10 3.10847e-10 )  
( 2.33338e-10 7.37215e-11 -3.12055e-11 )  
( 3.58081e-10 -1.44207e-10 3.52805e-10 )  
( 2.03473e-09 1.40201e-10 3.91843e-10 )  
( 9.94563e-10 2.64646e-11 1.43922e-10 )  
( 7.16621e-11 -1.57936e-11 -1.47752e-10 )  
( 2.15727e-09 2.20135e-10 3.42455e-10 )  
( 3.26553e-10 -2.09192e-10 3.12725e-10 )  
( 1.7611e-10 7.40245e-11 1.31655e-11 )  
( 2.98663e-10 7.45905e-11 1.26716e-10 )  
( 5.45898e-10 -1.08319e-10 8.49344e-11 )  
( 1.21803e-09 3.56842e-10 3.75914e-10 )  
( 5.60914e-10 1.43667e-10 5.32675e-11 )  
( 2.50819e-10 1.30512e-11 4.57449e-10 )  
( 3.09608e-10 6.28443e-11 8.7014e-11 )  
( 1.28004e-11 -6.34757e-11 -3.93941e-11 )  
( 3.93019e-11 2.32602e-11 -8.90158e-11 )  
( 1.0111e-09 7.49958e-12 1.17803e-10 )  
( 3.40441e-09 3.19909e-10 6.60499e-10 )  
( 1.14337e-09 -2.904e-10 4.48663e-11 )  
( 6.66704e-10 5.97933e-11 2.03458e-10 )  
( 9.82414e-10 2.74292e-11 2.642e-10 )  
( 2.67398e-10 6.9396e-11 1.74308e-10 )  
( 5.50363e-10 7.08825e-11 -2.26274e-11 )  
( 3.14732e-10 -3.13756e-11 8.55697e-11 )  
( 2.71525e-09 1.36172e-09 1.66823e-09 )  
( 2.9751e-10 -7.22648e-11 9.24173e-11 )  
( 3.15751e-10 6.3919e-11 6.31024e-11 )  
( 5.57176e-10 -9.39088e-11 3.35569e-10 )  
( 7.79238e-11 4.58141e-11 5.89902e-11 )  
( 8.94631e-10 3.47787e-10 2.18975e-10 )  
( 6.42965e-10 4.9738e-11 5.53897e-11 )  
( 1.59386e-10 3.68369e-11 2.93261e-11 )  
( 1.95163e-10 3.74576e-11 5.44342e-11 )  
( 3.39431e-09 3.50319e-11 6.37744e-10 )  
( 4.78248e-10 -6.06084e-11 6.8131e-11 )  
( 1.97843e-10 -1.74113e-12 4.35376e-11 )  
( 3.1747e-10 8.21429e-11 -5.6284e-11 )  
( 4.21534e-10 -3.65374e-11 3.84761e-10 )  
( 8.58803e-10 -1.03505e-10 9.11482e-11 )  
( 7.99185e-10 -1.13821e-10 4.60973e-10 )  
( 1.00007e-09 -1.41947e-11 3.66237e-10 )  
( 2.15162e-10 1.38221e-11 1.61526e-11 )  
( 5.83971e-10 5.53219e-12 1.32018e-10 )  
( 7.24355e-10 1.53882e-10 1.92936e-10 )  
( 1.47099e-10 -2.08367e-10 -1.10454e-10 )  
( 9.79684e-10 2.11716e-10 -2.57213e-11 )  
( 5.11576e-10 -1.99292e-10 -3.51371e-11 )  
( 9.51725e-10 -8.87523e-11 3.26222e-10 )  
( 3.35455e-10 2.42998e-10 1.23138e-10 )  
( 4.4895e-10 3.76323e-11 1.58618e-10 )  
( 1.94414e-10 -9.01014e-12 -5.38855e-11 )  
( 3.5577e-11 3.07049e-11 1.23706e-11 )  
( 1.93253e-09 4.20228e-10 7.09631e-10 )  
( 2.35328e-10 8.14353e-11 2.55563e-10 )  
( 1.28548e-10 1.0958e-11 7.28183e-12 )  
( 4.81277e-10 -1.01218e-10 6.4328e-12 )  
( 5.25148e-10 -2.79178e-11 5.07154e-11 )  
( 6.23335e-10 5.79105e-11 1.09798e-10 )  
( 8.55352e-10 -2.0174e-10 4.20143e-10 )  
( 1.69642e-10 -8.67681e-11 1.99148e-10 )  
( 7.45521e-10 1.98721e-10 -1.50528e-10 )  
( 7.23684e-10 -6.77864e-10 1.03804e-10 )  
( 1.56698e-10 2.79827e-11 4.27731e-11 )  
( 2.71576e-10 2.0099e-11 2.54199e-11 )  
( 4.13545e-10 -7.78205e-11 1.06061e-10 )  
( 4.09994e-10 2.81845e-11 -5.09431e-11 )  
( 4.69981e-10 -3.32744e-11 3.47887e-11 )  
( 3.48072e-10 -2.35853e-11 7.45375e-11 )  
( 5.93086e-10 -1.15103e-10 3.05031e-11 )  
( 2.44997e-10 8.15591e-11 1.29839e-10 )  
( 2.43752e-10 9.0621e-11 5.19625e-11 )  
( 4.39644e-10 -7.57742e-12 9.89395e-11 )  
( 3.5518e-11 2.00615e-11 -2.80571e-11 )  
( 3.60555e-11 -2.90023e-11 -1.02439e-11 )  
( 4.27782e-10 1.24554e-10 7.9365e-12 )  
( 2.01488e-10 -2.1538e-11 1.75118e-11 )  
( 2.79045e-10 -1.53629e-11 5.13522e-11 )  
( 1.41309e-10 9.95822e-11 1.23477e-13 )  
( 1.22276e-08 -5.89075e-09 -1.02115e-10 )  
( 2.69189e-10 7.34565e-12 5.88873e-11 )  
( 1.69186e-10 -1.32781e-10 1.62204e-10 )  
( 9.97117e-10 1.72155e-10 3.94477e-10 )  
( 2.18224e-10 4.55274e-11 3.02029e-11 )  
( 3.79543e-11 1.46607e-11 1.5071e-11 )  
( 7.03077e-10 -3.67526e-10 3.37929e-10 )  
( 2.88524e-09 -3.3981e-10 -8.36453e-11 )  
( 9.69597e-10 2.12615e-10 8.60523e-11 )  
( 6.91583e-10 -3.03694e-12 -2.96777e-11 )  
)
