/*--------------------------------*- C++ -*----------------------------------*\
| =========                 |                                                 |
| \\      /  F ield         | OpenFOAM: The Open Source CFD Toolbox           |
|  \\    /   O peration     | Version:  4.x                                   |
|   \\  /    A nd           | Web:      www.OpenFOAM.org                      |
|    \\/     M anipulation  |                                                 |
\*---------------------------------------------------------------------------*/
FoamFile
{
    version     2.0;
    format      ascii;
    class       volScalarField;
    location    "22.5";
    object      p;
}
// * * * * * * * * * * * * * * * * * * * * * * * * * * * * * * * * * * * * * //

dimensions      [1 -1 -2 0 0 0 0];

internalField   nonuniform List<scalar> 
114
(
65.7308
-15.5696
60.164
-35.671
56.3641
-56.3772
3.71798
65.2524
-14.872
58.9661
-33.3044
53.7849
-49.7596
72.5936
5.61356
65.569
-12.1648
59.4355
-29.309
52.9942
-45.0446
-1854.98
-1805.39
-1872.97
-1812.35
-1891.51
-1818.91
-1910.16
-1825.06
-1927.26
-1854.67
-1805.33
-1872.37
-1812.74
-1889.9
-1819.55
-1906.66
-1825.65
-1919.47
-1853.55
-1805.64
-1870.68
-1812.54
-1888.01
-1819.24
-1904.99
-1826.65
-1921.03
-1853.16
-1805.53
-3732.98
-3683.59
-3751.64
-3690.43
-3771.53
-3696.33
-3794.15
-3699.27
-3823.9
-3732.52
-3683.53
-3750.79
-3690.8
-3769.48
-3697.67
-3788.59
-3703.42
-3806.57
-3732.4
-3683.4
-3750.5
-3690.45
-3768.96
-3696.97
-3787.58
-3702.36
-3804.65
-3731.33
-3683.41
-3748.84
-3690.85
-5610.62
-5561.54
-5629
-5568.34
-5648.79
-5574.22
-5671.92
-5576.69
-5708.69
-5610.26
-5561.48
-5628.3
-5568.57
-5646.83
-5575.38
-5666.04
-5581.18
-5685.11
-5609.98
-5561.29
-5627.89
-5568.28
-5646.3
-5574.78
-5665.13
-5580.37
-5683.31
-5609.35
-5561.31
-5626.79
-5568.62
-5644.26
-5575.97
)
;

boundaryField
{
    inlet
    {
        type            calculated;
        value           nonuniform 0();
    }
    outlet
    {
        type            calculated;
        value           nonuniform List<scalar> 
12
(
0
0
0
-1877.91
-1877.91
-1877.91
-3755.83
-3755.83
-3755.83
-5633.74
-5633.74
-5633.74
)
;
    }
    wall
    {
        type            calculated;
        value           nonuniform List<scalar> 
66
(
-6549.58
-6549.21
-6548.93
-6548.3
-6500.49
-6500.43
-6500.24
-6500.25
-6567.95
-6567.24
-6566.82
-6565.72
-6507.29
-6507.51
-6507.2
-6507.53
-6587.73
-6585.75
-6585.21
-6583.15
-6513.14
-6514.29
-6513.67
-6514.85
-6610.84
-6604.93
-6604.01
-6515.6
-6520.06
-6519.23
-6654.09
-6623.86
-6622.06
-1854.98
-3732.98
-5610.62
-1805.39
-3683.59
-5561.54
-1872.97
-3751.64
-5629
65.7308
-1812.35
-3690.43
-5568.34
-15.5696
-1891.51
-3771.53
-5648.79
60.164
-1818.91
-3696.33
-5574.22
-35.671
-1910.16
-3794.15
-5671.92
56.3641
-1825.06
-3699.27
-5576.69
-56.3772
-1927.26
-3823.9
-5708.69
)
;
    }
    procBoundary5to1
    {
        type            processor;
        value           nonuniform List<scalar> 
32
(
1943.47
1862.83
1937.41
1843.13
1932.68
1823.51
1881.69
1942.96
1862.98
1936.33
1844.36
1930.94
1828.22
1949.97
1883.6
1943.18
1866.12
1936.94
1849.17
1929.6
1833.88
22.308
72.3398
3.78301
3.78301
3.78301
22.3639
72.2423
72.2423
72.2423
23.4608
23.4608
)
;
    }
    procBoundary5to4
    {
        type            processor;
        value           nonuniform List<scalar> 
12
(
-1798.16
-1797.79
-1797.94
-1797.82
-3676.35
-3676.04
-3676.04
-3675.8
-5554.42
-5554.14
-5554.07
-5553.9
)
;
    }
    procBoundary5to7
    {
        type            processor;
        value           nonuniform List<scalar> 
44
(
72.2202
6.5242
65.0111
-10.9248
58.4733
-28.3888
51.9887
-45.0534
24.1521
72.2202
-1870.45
-1812.83
-1888.12
-1819.97
-1905.94
-1827.17
-1924.23
-1852.98
-1870.45
-1805.65
-1870.45
-1812.83
-3766.11
-3697.89
-3782.68
-3705.8
-3797.58
-3731.73
-3683.32
-3749.63
-3766.11
-3690.47
-3766.11
-3697.89
-5661.36
-5583.21
-5677.14
-5609.39
-5561.21
-5626.95
-5568.31
-5644.62
-5661.36
-5575.28
)
;
    }
}


// ************************************************************************* //
