/*--------------------------------*- C++ -*----------------------------------*\
| =========                 |                                                 |
| \\      /  F ield         | OpenFOAM: The Open Source CFD Toolbox           |
|  \\    /   O peration     | Version:  4.x                                   |
|   \\  /    A nd           | Web:      www.OpenFOAM.org                      |
|    \\/     M anipulation  |                                                 |
\*---------------------------------------------------------------------------*/
FoamFile
{
    version     2.0;
    format      ascii;
    class       volScalarField;
    location    "22.5";
    object      particleRelTemp;
}
// * * * * * * * * * * * * * * * * * * * * * * * * * * * * * * * * * * * * * //

dimensions      [0 0 0 0 0 0 0];

internalField   nonuniform List<scalar> 
114
(
8.59629e-09
9.2917e-09
9.55076e-09
1.02252e-08
1.08346e-08
1.23568e-08
1.32324e-08
1.34571e-08
1.57333e-08
1.59817e-08
1.67396e-08
1.64818e-08
1.8341e-08
1.61474e-08
1.81811e-08
1.9278e-08
1.97679e-08
2.01172e-08
2.10196e-08
2.13412e-08
2.29532e-08
3.69024e-09
4.3757e-09
7.27354e-09
6.76046e-09
8.22932e-09
7.99337e-09
8.93339e-09
8.49762e-09
9.91653e-09
7.48016e-09
9.6402e-09
1.18157e-08
1.1897e-08
1.40169e-08
1.42147e-08
1.43841e-08
1.49325e-08
1.57085e-08
1.27925e-08
1.63262e-08
1.66886e-08
1.81952e-08
1.86599e-08
1.88987e-08
1.98827e-08
2.07539e-08
2.08513e-08
1.43326e-08
1.82101e-08
9.71654e-10
1.74701e-09
3.24213e-09
2.98466e-09
4.37365e-09
1.96249e-09
3.83757e-09
2.87441e-09
5.03696e-09
5.11384e-09
6.16524e-09
7.05707e-09
8.68933e-09
9.42765e-09
1.03983e-08
8.87279e-09
8.24362e-09
1.02863e-08
9.77807e-09
1.13592e-08
1.25482e-08
1.35343e-08
1.50248e-08
1.52283e-08
1.55361e-08
1.56551e-08
1.63099e-08
9.17255e-09
1.25541e-08
1.44374e-08
1.61702e-08
-3.72808e-09
-2.7393e-09
-3.37849e-09
-1.65481e-09
-7.98225e-10
-2.53442e-09
-1.45792e-09
-2.26799e-09
-6.63596e-10
4.71992e-10
1.47905e-09
2.52699e-09
3.67593e-09
3.9563e-09
4.50666e-09
4.92441e-09
4.22988e-09
5.41081e-09
4.65388e-09
5.79459e-09
7.67424e-09
8.82581e-09
1.04907e-08
1.11647e-08
1.04139e-08
1.03653e-08
1.07318e-08
5.72879e-09
7.61761e-09
1.00002e-08
1.14257e-08
1.33661e-08
1.31176e-08
)
;

boundaryField
{
    inlet
    {
        type            calculated;
        value           nonuniform 0();
    }
    outlet
    {
        type            calculated;
        value           nonuniform List<scalar> 
12
(
1.23568e-08
1.8341e-08
2.29532e-08
9.91653e-09
1.57085e-08
2.08513e-08
5.03696e-09
1.02863e-08
1.63099e-08
-6.63596e-10
5.41081e-09
1.07318e-08
)
;
    }
    wall
    {
        type            calculated;
        value           nonuniform List<scalar> 
66
(
-3.72808e-09
4.71992e-10
4.65388e-09
5.72879e-09
-2.7393e-09
1.47905e-09
5.79459e-09
7.61761e-09
-3.37849e-09
2.52699e-09
7.67424e-09
1.00002e-08
-1.65481e-09
3.67593e-09
8.82581e-09
1.14257e-08
-7.98225e-10
3.9563e-09
1.04907e-08
1.33661e-08
-2.53442e-09
4.50666e-09
1.11647e-08
1.31176e-08
-1.45792e-09
4.92441e-09
1.04139e-08
-2.26799e-09
4.22988e-09
1.03653e-08
-6.63596e-10
5.41081e-09
1.07318e-08
3.69024e-09
9.71654e-10
-3.72808e-09
4.3757e-09
1.74701e-09
-2.7393e-09
7.27354e-09
3.24213e-09
-3.37849e-09
8.59629e-09
6.76046e-09
2.98466e-09
-1.65481e-09
9.2917e-09
8.22932e-09
4.37365e-09
-7.98225e-10
9.55076e-09
7.99337e-09
1.96249e-09
-2.53442e-09
1.02252e-08
8.93339e-09
3.83757e-09
-1.45792e-09
1.08346e-08
8.49762e-09
2.87441e-09
-2.26799e-09
1.23568e-08
9.91653e-09
5.03696e-09
-6.63596e-10
)
;
    }
    procBoundary5to1
    {
        type            processor;
        value           nonuniform List<scalar> 
32
(
6.78096e-09
7.60383e-09
8.84287e-09
9.55986e-09
9.19865e-09
1.06387e-08
9.95552e-09
1.11298e-08
1.26882e-08
1.31832e-08
1.41861e-08
1.52915e-08
1.71085e-08
1.39874e-08
1.43397e-08
1.71008e-08
1.78055e-08
1.8526e-08
1.88788e-08
2.05471e-08
2.05678e-08
3.65314e-09
5.0904e-09
7.07024e-09
7.07024e-09
7.07024e-09
8.66075e-09
1.12749e-08
1.12749e-08
1.12749e-08
1.36676e-08
1.36676e-08
)
;
    }
    procBoundary5to4
    {
        type            processor;
        value           nonuniform List<scalar> 
12
(
9.70712e-10
5.65938e-09
9.56347e-09
1.17952e-08
-1.79372e-09
2.18135e-09
5.76574e-09
7.72574e-09
-5.78494e-09
-1.70254e-09
1.74968e-09
3.37865e-09
)
;
    }
    procBoundary5to7
    {
        type            processor;
        value           nonuniform List<scalar> 
44
(
1.82318e-08
2.00067e-08
2.13814e-08
2.16145e-08
2.25109e-08
2.28832e-08
2.38264e-08
2.41032e-08
1.57551e-08
1.82318e-08
1.97874e-08
2.03819e-08
2.09875e-08
2.17101e-08
2.1995e-08
2.26749e-08
2.29218e-08
1.41301e-08
1.97874e-08
1.61702e-08
1.97874e-08
2.03819e-08
1.91122e-08
1.83418e-08
1.79081e-08
1.81022e-08
1.96596e-08
8.55342e-09
1.30131e-08
1.37193e-08
1.91122e-08
1.4707e-08
1.91122e-08
1.83418e-08
1.33305e-08
1.37395e-08
1.31198e-08
4.6459e-09
6.78328e-09
9.27759e-09
1.00937e-08
1.1213e-08
1.33305e-08
1.17082e-08
)
;
    }
}


// ************************************************************************* //
