/*--------------------------------*- C++ -*----------------------------------*\
| =========                 |                                                 |
| \\      /  F ield         | OpenFOAM: The Open Source CFD Toolbox           |
|  \\    /   O peration     | Version:  4.x                                   |
|   \\  /    A nd           | Web:      www.OpenFOAM.org                      |
|    \\/     M anipulation  |                                                 |
\*---------------------------------------------------------------------------*/
FoamFile
{
    version     2.0;
    format      ascii;
    class       volScalarField;
    location    "22.5";
    object      Sm;
}
// * * * * * * * * * * * * * * * * * * * * * * * * * * * * * * * * * * * * * //

dimensions      [1 -3 -1 0 0 0 0];

internalField   nonuniform List<scalar> 
114
(
6.81993e-65
8.0599e-65
6.35493e-65
6.74241e-65
7.59491e-65
8.44737e-65
6.81989e-65
5.65741e-65
5.8124e-65
6.66488e-65
8.21484e-65
8.52484e-65
7.90484e-65
8.44734e-65
6.04488e-65
7.51734e-65
5.73487e-65
4.5724e-65
7.28483e-65
5.42488e-65
8.67979e-65
6.35495e-65
4.80497e-65
6.97492e-65
5.42495e-65
6.43243e-65
6.81993e-65
7.12992e-65
5.65744e-65
5.96743e-65
7.05242e-65
6.81991e-65
8.52487e-65
7.12989e-65
8.36986e-65
8.13736e-65
5.26991e-65
8.60235e-65
6.89737e-65
8.21487e-65
4.57242e-65
7.28486e-65
7.59484e-65
6.19987e-65
7.05235e-65
7.12985e-65
6.89735e-65
5.57988e-65
9.99733e-65
4.33991e-65
6.66496e-65
8.21495e-65
6.74245e-65
7.36245e-65
6.97495e-65
6.89746e-65
6.66495e-65
7.28496e-65
6.58745e-65
5.42495e-65
8.36991e-65
6.04492e-65
7.12991e-65
7.12991e-65
7.0524e-65
9.14489e-65
6.43242e-65
5.50243e-65
6.8974e-65
6.35491e-65
6.89739e-65
6.04491e-65
1.00748e-64
7.36237e-65
8.21485e-65
8.91234e-65
8.67983e-65
4.80493e-65
9.37735e-65
8.98985e-65
7.98236e-65
2.635e-65
6.8975e-65
4.5725e-65
7.12999e-65
6.04499e-65
4.95999e-65
6.97499e-65
6.2775e-65
6.04499e-65
6.35497e-65
6.58747e-65
4.33997e-65
5.65747e-65
7.43995e-65
6.50995e-65
4.57246e-65
7.05245e-65
6.04495e-65
6.12244e-65
6.43244e-65
8.5249e-65
6.97493e-65
5.88993e-65
8.0599e-65
6.50991e-65
6.74241e-65
6.81991e-65
7.36243e-65
5.65744e-65
7.12991e-65
5.57993e-65
9.68735e-65
7.74989e-65
)
;

boundaryField
{
    inlet
    {
        type            calculated;
        value           nonuniform 0();
    }
    outlet
    {
        type            calculated;
        value           uniform 0;
    }
    wall
    {
        type            calculated;
        value           uniform 0;
    }
    procBoundary5to1
    {
        type            processor;
        value           nonuniform List<scalar> 
32
(
7.98243e-65
5.73494e-65
8.4474e-65
7.05242e-65
5.73494e-65
4.18494e-65
5.65743e-65
6.12241e-65
6.97489e-65
6.97489e-65
6.58739e-65
7.20737e-65
4.41741e-65
6.35489e-65
5.11491e-65
9.06732e-65
8.29233e-65
8.75732e-65
6.81986e-65
7.90483e-65
3.48742e-65
6.58745e-65
5.26996e-65
8.05992e-65
8.05992e-65
8.05992e-65
7.05241e-65
9.99735e-65
9.99735e-65
9.99735e-65
5.7349e-65
5.7349e-65
)
;
    }
    procBoundary5to4
    {
        type            processor;
        value           nonuniform List<scalar> 
12
(
8.91245e-65
9.06741e-65
5.65742e-65
5.96741e-65
8.21498e-65
8.13744e-65
6.81993e-65
6.81992e-65
7.20751e-65
7.59497e-65
6.27747e-65
6.35496e-65
)
;
    }
    procBoundary5to7
    {
        type            processor;
        value           nonuniform List<scalar> 
44
(
7.82734e-65
6.43235e-65
6.74234e-65
1.03073e-64
1.03848e-64
7.9823e-65
5.65736e-65
8.36978e-65
9.91981e-65
7.82734e-65
6.43235e-65
7.36233e-65
6.74234e-65
6.89734e-65
8.60229e-65
8.4473e-65
7.36232e-65
3.95243e-65
6.43235e-65
8.52484e-65
6.43235e-65
7.36233e-65
5.03739e-65
5.81238e-65
7.36235e-65
6.04487e-65
5.81237e-65
8.0599e-65
7.36238e-65
6.81989e-65
5.03739e-65
5.1924e-65
5.03739e-65
5.81238e-65
5.50241e-65
6.4324e-65
6.12241e-65
6.89744e-65
5.81245e-65
7.6724e-65
7.43991e-65
5.19243e-65
5.50241e-65
3.87495e-65
)
;
    }
}


// ************************************************************************* //
