/*--------------------------------*- C++ -*----------------------------------*\
| =========                 |                                                 |
| \\      /  F ield         | OpenFOAM: The Open Source CFD Toolbox           |
|  \\    /   O peration     | Version:  4.x                                   |
|   \\  /    A nd           | Web:      www.OpenFOAM.org                      |
|    \\/     M anipulation  |                                                 |
\*---------------------------------------------------------------------------*/
FoamFile
{
    version     2.0;
    format      ascii;
    class       volVectorField;
    location    "53";
    object      Us;
}
// * * * * * * * * * * * * * * * * * * * * * * * * * * * * * * * * * * * * * //

dimensions      [0 1 -1 0 0 0 0];

internalField   nonuniform List<vector> 
108
(
(1.89724e-09 -3.03354e-09 1.31946e-09)
(2.27949e-09 -4.7766e-09 1.89997e-09)
(1.85168e-09 -4.11038e-09 8.19298e-10)
(1.0351e-09 -1.47409e-09 3.61172e-10)
(5.06358e-10 -8.188e-10 -1.40773e-10)
(1.04831e-09 -2.52855e-10 -3.14704e-10)
(7.42549e-10 -1.16583e-10 2.97269e-10)
(-3.60854e-09 -2.4985e-10 1.02701e-09)
(-6.9843e-10 -3.36335e-10 1.09354e-09)
(1.37686e-09 -1.23603e-09 5.31426e-10)
(1.24883e-09 -1.36051e-09 4.48583e-10)
(1.18262e-09 -1.29367e-09 2.38912e-10)
(9.2388e-10 -7.40539e-10 -2.527e-11)
(7.29466e-10 -4.7724e-10 -2.06189e-10)
(5.54365e-10 -2.07099e-10 -3.97806e-10)
(1.15743e-10 -2.03844e-10 -2.32549e-10)
(-1.91131e-09 -2.91649e-10 -3.45664e-10)
(-2.44048e-09 -6.2938e-11 2.65357e-10)
(1.20733e-09 -3.70741e-10 1.29589e-10)
(1.28108e-09 -8.87105e-10 1.91209e-10)
(8.73459e-10 -5.44686e-10 4.99626e-11)
(8.76995e-10 -3.50254e-10 -1.30822e-10)
(7.02068e-10 -3.10759e-10 -1.66907e-10)
(9.77184e-11 -1.31893e-10 -4.53522e-10)
(-4.99169e-10 6.64109e-11 -2.2423e-10)
(-3.14624e-09 -1.12608e-09 -1.30604e-09)
(-2.10587e-09 6.5622e-09 -2.49223e-09)
(6.07298e-10 -3.10531e-10 1.4672e-10)
(9.22046e-10 -6.16488e-10 -3.79257e-11)
(8.39775e-10 -1.01302e-09 -3.26719e-11)
(5.46867e-10 -1.1981e-10 -2.6659e-11)
(6.87465e-10 -5.57097e-11 -2.31846e-11)
(3.14956e-10 1.01921e-10 -4.36098e-10)
(2.75568e-09 8.38592e-10 -3.59657e-10)
(2.62593e-09 8.80524e-10 -1.66332e-09)
(-1.788e-09 2.8775e-07 -1.15346e-08)
(1.742e-09 -1.77311e-09 1.13505e-09)
(1.69482e-09 -7.71191e-10 1.30808e-09)
(1.33242e-09 -1.12767e-09 1.11928e-09)
(1.2321e-09 -6.47918e-10 5.11291e-10)
(1.26765e-09 -5.68173e-10 -1.27294e-10)
(1.22369e-09 -3.19441e-10 -5.33147e-10)
(1.08253e-09 -3.26869e-11 -6.44515e-10)
(3.31033e-10 3.11704e-10 7.34537e-10)
(7.37976e-10 -3.60942e-10 7.03119e-10)
(1.3901e-09 -7.82568e-10 4.53879e-10)
(1.41726e-09 -8.37132e-10 3.44446e-10)
(1.29598e-09 -8.98418e-10 1.44796e-10)
(1.22374e-09 -6.18166e-10 -7.31354e-11)
(1.17012e-09 -3.49531e-10 -1.80281e-10)
(9.47834e-10 -3.83806e-10 -4.64739e-10)
(1.30417e-09 3.07168e-10 -5.33963e-10)
(1.30826e-11 8.37875e-11 -5.67798e-10)
(1.24395e-10 2.64682e-10 -4.41294e-10)
(1.14975e-09 -4.18127e-10 2.27951e-10)
(1.17942e-09 -4.60651e-10 1.23259e-10)
(1.11657e-09 -5.37923e-10 -1.94156e-11)
(9.6419e-10 -3.66527e-10 -1.28317e-10)
(8.84489e-10 -2.21666e-10 -1.41758e-10)
(5.89553e-10 -2.28715e-10 -2.28844e-10)
(-3.42919e-10 -3.06935e-10 -4.89687e-10)
(-9.02555e-10 -3.73563e-11 -1.46317e-09)
(-8.16447e-10 3.54013e-11 -1.49835e-09)
(7.27434e-10 -9.12734e-11 1.74212e-10)
(9.08374e-10 -3.20038e-10 2.22818e-11)
(6.08442e-10 -1.998e-10 -1.93877e-11)
(6.26574e-10 -1.7623e-10 -4.96647e-11)
(6.53186e-10 -4.64768e-11 -7.19889e-11)
(8.01315e-10 -1.5538e-10 -1.56054e-10)
(6.32714e-10 1.97917e-10 -4.9294e-10)
(9.76435e-11 1.70796e-10 -1.86778e-09)
(-3.97429e-10 5.80924e-11 -6.83879e-09)
(1.43114e-09 -7.6569e-12 1.03921e-09)
(1.53745e-09 2.22696e-10 1.50797e-09)
(1.39068e-09 1.14793e-09 2.14182e-09)
(1.60385e-09 -2.09443e-10 7.90974e-10)
(1.5339e-09 -3.39888e-10 6.07782e-11)
(1.39757e-09 3.83846e-11 -5.88192e-10)
(1.15697e-09 4.39486e-12 -7.30316e-10)
(7.8875e-10 8.99579e-11 -2.64382e-10)
(6.16304e-10 -3.01785e-11 8.42938e-12)
(1.29691e-09 -1.8861e-10 4.54174e-10)
(1.49043e-09 -2.53247e-10 3.63051e-10)
(1.71502e-09 8.17165e-11 4.12988e-10)
(1.51958e-09 -4.23155e-11 9.37952e-11)
(1.40878e-09 -1.5071e-10 -1.66856e-10)
(1.22114e-09 -3.17783e-11 -3.57629e-10)
(8.66087e-10 -3.91367e-11 -4.67617e-10)
(4.91774e-10 7.32131e-11 -4.71508e-10)
(2.77972e-10 -1.93668e-11 -4.47776e-11)
(1.16486e-09 -1.9882e-10 1.72145e-10)
(1.21576e-09 -2.49062e-10 8.969e-11)
(1.22568e-09 2.03351e-13 1.0839e-10)
(1.11514e-09 9.87911e-12 -1.5633e-11)
(1.00912e-09 -1.79222e-11 -4.70539e-11)
(6.84942e-10 1.52093e-11 -1.12437e-10)
(2.56868e-10 -9.4214e-11 -3.60301e-10)
(2.09504e-10 5.90859e-11 -1.22079e-09)
(8.22638e-11 -2.01199e-10 -1.24538e-09)
(6.99345e-10 -2.13985e-10 7.3947e-11)
(7.85005e-10 -1.65128e-10 3.55898e-11)
(7.1796e-10 -4.56915e-12 6.61479e-11)
(5.53118e-10 1.47756e-10 1.74686e-11)
(5.45223e-10 4.32822e-12 -3.74029e-11)
(2.95574e-10 5.08965e-11 -3.4142e-11)
(-7.28294e-11 2.52456e-11 -2.59285e-10)
(-2.61835e-10 -1.10961e-10 -1.19288e-09)
(-1.51979e-10 -7.19486e-10 -2.33e-09)
)
;

boundaryField
{
    inlet
    {
        type            zeroGradient;
    }
    outlet
    {
        type            zeroGradient;
    }
    wall
    {
        type            zeroGradient;
    }
    procBoundary3to1
    {
        type            processor;
        value           nonuniform List<vector> 
27
(
(3.04858e-09 -5.97597e-09 4.48378e-09)
(1.02077e-09 -9.01788e-09 7.36954e-09)
(7.18219e-10 -4.84308e-09 4.38514e-09)
(-4.51937e-10 -1.20186e-09 1.3166e-09)
(-1.03933e-10 -1.0343e-09 2.11323e-10)
(7.10663e-10 -9.30823e-11 -1.66716e-10)
(1.4242e-09 -9.79196e-11 -4.1456e-10)
(1.4622e-09 -1.63878e-09 -1.85539e-09)
(2.88036e-09 2.62815e-10 -6.90595e-11)
(9.6545e-10 -1.03613e-09 3.71242e-09)
(1.52443e-09 -1.31063e-09 6.58992e-09)
(1.49167e-09 -9.17188e-10 3.66755e-09)
(7.48734e-11 -1.43271e-09 1.60348e-09)
(4.18636e-10 -1.06952e-09 1.04467e-12)
(7.87071e-10 -4.02874e-10 -4.07458e-10)
(1.65342e-09 -1.26749e-10 -1.06591e-09)
(2.13173e-09 -3.31616e-10 -3.72546e-10)
(8.75354e-10 -1.19378e-09 -1.40265e-09)
(7.96154e-10 8.96295e-10 2.99026e-09)
(1.5875e-09 1.35623e-09 4.24461e-09)
(2.01679e-09 1.59116e-09 4.90766e-09)
(1.58082e-09 3.07895e-10 1.88643e-09)
(1.20547e-09 -1.03858e-10 3.33852e-10)
(1.16029e-09 5.83018e-11 -2.48926e-10)
(1.05669e-09 5.04569e-12 -5.71558e-10)
(9.42786e-10 8.38695e-11 -4.08163e-10)
(6.27035e-10 -5.40975e-10 -3.39192e-12)
)
;
    }
    procBoundary3to2
    {
        type            processor;
        value           nonuniform List<vector> 
12
(
(1.96276e-09 -1.76004e-09 1.04533e-09)
(1.43535e-09 -1.17548e-09 5.87073e-10)
(1.26745e-09 -8.24322e-10 4.18797e-10)
(7.17601e-10 -4.57345e-10 2.33318e-10)
(1.39545e-09 -7.67469e-10 1.00959e-09)
(1.35018e-09 -6.98216e-10 4.67954e-10)
(1.05972e-09 -4.91888e-10 2.76948e-10)
(5.07233e-10 -1.20816e-10 9.95349e-11)
(8.866e-10 1.76658e-10 1.15105e-09)
(1.01876e-09 -6.7373e-11 3.20555e-10)
(9.1615e-10 -9.14129e-11 1.40615e-10)
(5.41033e-10 -5.47431e-11 7.82899e-11)
)
;
    }
    procBoundary3to7
    {
        type            processor;
        value           nonuniform List<vector> 
36
(
(1.37652e-09 4.88496e-10 1.11599e-09)
(1.54136e-09 5.11834e-10 1.18964e-09)
(1.85448e-09 8.50331e-10 1.59811e-09)
(1.86785e-09 4.95706e-10 5.61363e-10)
(1.66884e-09 3.52473e-10 2.22334e-10)
(1.30666e-09 3.18155e-10 -3.62626e-10)
(8.06185e-10 3.17946e-10 -4.15287e-10)
(6.22397e-10 2.75215e-10 -4.45724e-10)
(3.03844e-10 6.60282e-11 4.11396e-11)
(1.33045e-09 1.35477e-10 3.53261e-10)
(1.58771e-09 2.83046e-10 4.82248e-10)
(1.70423e-09 3.74985e-10 4.56366e-10)
(1.8408e-09 4.47971e-10 2.44231e-10)
(1.5154e-09 2.67241e-10 8.19946e-11)
(1.22118e-09 2.80612e-10 -1.29147e-10)
(1.02346e-09 2.1129e-10 -1.88213e-10)
(6.25187e-10 2.49007e-10 -2.31446e-10)
(2.84378e-10 2.05461e-10 4.31256e-11)
(1.06447e-09 2.11963e-10 1.32791e-10)
(1.30604e-09 5.65571e-11 4.16135e-11)
(1.29675e-09 2.75879e-10 2.55786e-10)
(1.22377e-09 3.57399e-10 1.5193e-10)
(1.10333e-09 2.19484e-10 3.38654e-11)
(8.39092e-10 1.73655e-10 4.52684e-11)
(6.06583e-10 1.8314e-10 -1.89636e-10)
(5.70103e-10 2.66773e-10 -5.83152e-10)
(2.56086e-10 3.23956e-10 -2.20831e-10)
(5.84197e-10 -2.91094e-11 6.15367e-11)
(7.84034e-10 -5.92334e-11 7.18854e-11)
(6.78306e-10 1.66825e-10 1.05936e-10)
(6.53065e-10 1.91375e-10 1.14576e-10)
(5.81233e-10 1.26449e-10 1.1494e-10)
(4.26477e-10 9.21952e-11 1.3426e-10)
(2.89407e-10 7.16548e-11 -1.44466e-10)
(2.76134e-10 1.10608e-10 -6.12749e-10)
(1.63958e-10 1.16625e-10 -2.83338e-11)
)
;
    }
}


// ************************************************************************* //
