/*--------------------------------*- C++ -*----------------------------------*\
  =========                 |
  \\      /  F ield         | OpenFOAM: The Open Source CFD Toolbox
   \\    /   O peration     | Website:  https://openfoam.org
    \\  /    A nd           | Version:  4.x
     \\/     M anipulation  |
\*---------------------------------------------------------------------------*/
FoamFile
{
    version     2.0;
    format      ascii;
    class       Cloud<passiveParticle>;
    location    0;
    object      positions;
}
// * * * * * * * * * * * * * * * * * * * * * * * * * * * * * * * * * * * * * //

348
(
( 0.255993 -0.0172345 0.0199754 ) 39
( 0.253165 -0.00315313 0.0336778 ) 48
( 0.25691 0.0116551 0.0209083 ) 48
( 0.421197 -0.0532326 -0.00938437 ) 10
( 0.32837 -0.0516073 0.0356117 ) 32
( 0.439661 -0.0867363 -0.00616908 ) 3
( 0.479808 -0.0721246 0.0133757 ) 5
( 0.429401 -0.09056 0.0309656 ) 27
( 0.346588 -0.0575996 0.0231384 ) 33
( 0.469054 -0.0594006 0.0236775 ) 37
( 0.43856 -0.0210221 0.0177777 ) 45
( 0.477617 -0.023141 -0.000290212 ) 20
( 0.344181 -0.0902026 0.00358795 ) 0
( 0.431776 -0.0409192 0.0119135 ) 18
( 0.456635 -0.0434045 0.000603501 ) 11
( 0.287647 -0.016682 -0.0053675 ) 13
( 0.373404 -0.0737873 0.00181807 ) 1
( 0.402759 -0.0578128 -0.00412844 ) 9
( 0.280611 -0.0346781 -0.00972129 ) 13
( 0.344954 -0.0182742 0.00427391 ) 15
( 0.392983 -0.0730993 0.00362095 ) 2
( 0.283066 -0.0296828 0.00909565 ) 13
( 0.321762 -0.0257004 -0.00887178 ) 14
( 0.333635 -0.0747298 -0.00339749 ) 0
( 0.363948 -0.0843424 0.0306373 ) 25
( 0.362875 -0.0224786 -0.0029752 ) 16
( 0.489648 -0.0448063 0.0248185 ) 38
( 0.435974 -0.090262 0.0126718 ) 3
( 0.481808 -0.0718509 -0.00618053 ) 5
( 0.370501 -0.0544075 0.00550859 ) 8
( 0.4328 -0.0550172 0.0260994 ) 36
( 0.448801 -0.0717969 0.00271465 ) 4
( 0.312536 -0.0762246 0.0169623 ) 23
( 0.391662 -0.0907119 0.0243213 ) 26
( 0.348552 -0.071761 0.00937329 ) 0
( 0.418863 -0.0312244 0.0283523 ) 45
( 0.398007 -0.0880413 -0.00878789 ) 2
( 0.421787 -0.0773488 0.0178927 ) 27
( 0.310745 -0.0570053 0.0226848 ) 32
( 0.425145 -0.0298512 -0.0090275 ) 18
( 0.452377 -0.0666516 0.0313982 ) 37
( 0.465875 -0.0316752 -0.0133249 ) 19
( 0.401546 -0.0262173 0.0156788 ) 44
( 0.340091 -0.0562894 -0.0049719 ) 7
( 0.325284 -0.0242309 0.0106076 ) 14
( 0.360434 -0.0862765 -0.00687855 ) 0
( 0.321951 -0.0622474 0.00676489 ) 6
( 0.38419 -0.038553 0.02389 ) 43
( 0.383556 -0.0577565 0.0193526 ) 34
( 0.277948 -0.0599758 0.0190065 ) 31
( 0.322317 -0.0593538 -0.0129894 ) 6
( 0.403709 -0.043502 0.0245053 ) 35
( 0.346932 -0.090249 0.0230725 ) 24
( 0.454974 -0.0175944 0.0285339 ) 46
( 0.391097 -0.0281402 -0.00109214 ) 17
( 0.260475 -0.0718584 0.0226399 ) 21
( 0.454557 -0.090517 0.00630422 ) 4
( 0.384723 -0.0905207 0.00596367 ) 1
( 0.359333 -0.0416696 -0.00406627 ) 15
( 0.490472 -0.0171325 0.0130689 ) 20
( 0.465492 -0.0618134 0.00451963 ) 11
( 0.489115 -0.0557042 0.00816967 ) 12
( 0.474667 -0.0904756 0.0200092 ) 29
( 0.490356 -0.0361526 0.00702521 ) 20
( 0.420418 -0.0901713 -0.00420886 ) 3
( 0.45345 -0.0341074 0.0176224 ) 46
( 0.421076 -0.0245061 0.00973528 ) 18
( 0.417009 -0.0534605 0.0141045 ) 10
( 0.356121 -0.0319231 0.0130867 ) 15
( 0.330637 -0.0475294 0.0165319 ) 32
( 0.376404 -0.0211609 0.0283875 ) 43
( 0.272126 -0.0274613 0.0251968 ) 39
( 0.449634 -0.0556248 0.0147369 ) 37
( 0.356985 -0.0205186 0.0288231 ) 42
( 0.26522 -0.0460018 0.0248872 ) 30
( 0.381825 -0.0450141 -0.00795324 ) 8
( 0.446928 -0.0263429 0.000496981 ) 19
( 0.403527 -0.0668191 0.0187115 ) 35
( 0.302502 -0.0290748 0.00276081 ) 13
( 0.313096 -0.0385797 0.0162896 ) 41
( 0.458172 -0.0850182 -0.0125408 ) 4
( 0.366268 -0.0471599 0.0242492 ) 34
( 0.364556 -0.0665109 0.0198855 ) 34
( 0.321661 -0.0438075 -0.000812075 ) 6
( 0.473157 -0.0488892 -0.00762867 ) 12
( 0.471769 -0.0294031 0.024841 ) 46
( 0.479581 -0.0884577 0.039456 ) 29
( 0.310912 -0.0420012 0.0354878 ) 41
( 0.358211 -0.0640548 -0.00604811 ) 7
( 0.458924 -0.0651264 -0.0136887 ) 11
( 0.365507 -0.0900526 0.0118428 ) 1
( 0.332581 -0.074715 0.0206885 ) 23
( 0.453776 -0.0472784 0.0321695 ) 37
( 0.290935 -0.0718357 0.0280872 ) 22
( 0.341125 -0.0384635 0.0028439 ) 15
( 0.4729 -0.09006 -0.000564607 ) 5
( 0.49089 -0.0542746 -0.0114802 ) 12
( 0.31603 -0.0224459 0.0280422 ) 41
( 0.410485 -0.0901375 0.0279295 ) 26
( 0.411092 -0.0393417 0.00141645 ) 17
( 0.432988 -0.0603359 0.00494751 ) 10
( 0.489584 -0.0631246 0.0313686 ) 38
( 0.393522 -0.0454593 0.00792513 ) 9
( 0.380767 -0.0749716 0.0276253 ) 25
( 0.473125 -0.044299 0.0118699 ) 12
( 0.33935 -0.0295095 0.0232546 ) 42
( 0.461258 -0.0761916 0.0172433 ) 28
( 0.374584 -0.0346573 0.00734285 ) 16
( 0.268877 -0.0900516 0.0190449 ) 21
( 0.489929 -0.0900077 -0.0120055 ) 5
( 0.438372 -0.0440352 -0.00613176 ) 10
( 0.316211 -0.0901267 0.0302863 ) 23
( 0.378809 -0.0901225 -0.0130493 ) 1
( 0.293024 -0.0442698 0.0270563 ) 31
( 0.406284 -0.0869567 0.00909708 ) 2
( 0.417257 -0.0710228 -0.000300368 ) 10
( 0.373354 -0.0405944 0.0416374 ) 43
( 0.4529 -0.0904562 0.0274552 ) 28
( 0.472673 -0.0452599 0.0363064 ) 38
( 0.273687 0.00489426 0.0288225 ) 48
( 0.491033 -0.0816992 0.0257237 ) 29
( 0.437726 -0.0363763 0.0299582 ) 45
( 0.490437 -0.0901345 0.00789205 ) 5
( 0.341636 -0.044063 0.0523879 ) 62
( 0.322591 -0.0609995 0.0518945 ) 61
( 0.282074 -0.0108955 0.0551399 ) 78
( 0.267086 -0.0899181 0.0394325 ) 21
( 0.382864 -0.024146 0.0468083 ) 72
( 0.398174 -0.0904984 0.0520559 ) 55
( 0.423246 -0.0351644 0.0571841 ) 74
( 0.347826 -0.07076 0.0552261 ) 62
( 0.340471 -0.0903422 0.0570218 ) 53
( 0.48977 -0.0339993 -0.0125418 ) 20
( 0.296313 0.00146504 0.0483762 ) 78
( 0.289394 -0.0247827 0.043249 ) 69
( 0.327613 -0.00949188 0.0489031 ) 79
( 0.485099 -0.0234235 0.0484561 ) 76
( 0.271674 -0.0729578 0.0575819 ) 50
( 0.38713 -0.0554036 0.0522419 ) 63
( 0.439327 -0.0685477 0.0540103 ) 65
( 0.265325 -0.0536672 0.051944 ) 59
( 0.461566 -0.090451 0.045426 ) 57
( 0.454239 -0.0170755 0.0576609 ) 75
( 0.490383 -0.0902827 0.0771892 ) 89
( 0.312369 -0.0419372 0.0679155 ) 70
( 0.29894 -0.0581753 0.0590877 ) 60
( 0.362207 -0.0342615 0.0567633 ) 72
( 0.374702 -0.0902925 0.0582557 ) 54
( 0.420621 -0.073904 0.0571562 ) 56
( 0.370857 -0.056174 0.0634545 ) 63
( 0.45623 -0.0596562 0.0490458 ) 66
( 0.285022 -0.0901808 0.0581362 ) 51
( 0.489743 -0.055164 0.0589797 ) 67
( 0.326363 -0.077726 0.0614566 ) 52
( 0.348484 0.0104842 0.0617994 ) 80
( 0.43856 -0.0481325 0.0575633 ) 65
( 0.471334 -0.0734027 0.0600545 ) 57
( 0.431419 -0.0901152 0.0611593 ) 56
( 0.335357 -0.0242045 0.0598205 ) 71
( 0.46229 -0.0356289 0.0684111 ) 75
( 0.283836 -0.0297764 0.0616179 ) 69
( 0.401104 -0.0432166 0.0581014 ) 64
( 0.368334 -0.015351 0.0572702 ) 72
( 0.323849 0.00746132 0.059074 ) 79
( 0.283735 0.00665621 0.0638923 ) 78
( 0.386651 -0.0748099 0.0528713 ) 54
( 0.434643 -0.0199481 0.0630945 ) 74
( 0.310405 -0.0258722 0.0467465 ) 70
( 0.335423 -0.0570274 0.0662106 ) 62
( 0.380607 -0.0388759 0.0600847 ) 72
( 0.255554 -0.0205502 0.0425336 ) 39
( 0.254478 -0.0417299 0.0408407 ) 39
( 0.265573 -0.0221005 0.0594368 ) 68
( 0.402704 -0.0237557 0.0549718 ) 73
( 0.454976 -0.0398411 0.0504868 ) 75
( 0.41746 -0.090289 0.0467461 ) 56
( 0.310209 -0.00949398 0.0575536 ) 79
( 0.36717 -0.0727408 0.0532251 ) 54
( 0.425393 -0.0572382 0.0466147 ) 65
( 0.336493 -0.0703797 0.0393966 ) 33
( 0.358982 -0.052017 0.0487025 ) 62
( 0.472285 -0.0687802 0.0408427 ) 38
( 0.255277 -0.0756538 0.0469579 ) 50
( 0.373971 -0.0600325 0.0383995 ) 34
( 0.296672 -0.0418611 0.0489408 ) 69
( 0.355498 -0.0877759 0.0704439 ) 53
( 0.420865 -0.0529474 0.0654728 ) 65
( 0.260525 0.0139204 0.0399361 ) 48
( 0.297644 -0.0256901 0.0215309 ) 40
( 0.299389 -0.0901301 0.0441255 ) 51
( 0.465885 -0.0248379 0.0434492 ) 75
( 0.353766 -0.00778715 0.0729033 ) 111
( 0.406524 -0.061875 0.0505375 ) 64
( 0.41221 -0.0438351 0.0419779 ) 35
( 0.434323 -0.0723239 0.0352814 ) 27
( 0.272044 -0.0695888 0.0381898 ) 30
( 0.317491 -0.0705795 0.0351732 ) 32
( 0.473411 -0.015847 0.0617205 ) 76
( 0.307896 -0.0741223 0.0518816 ) 52
( 0.490151 -0.073994 0.0479635 ) 58
( 0.380379 -0.0901851 0.0399269 ) 25
( 0.490563 -0.0261531 0.0302216 ) 47
( 0.337918 0.00710469 0.0454343 ) 80
( 0.490636 -0.0418346 0.0443635 ) 76
( 0.348944 -0.0255302 0.0459275 ) 71
( 0.322436 -0.0412525 0.0514563 ) 70
( 0.288747 -0.0736738 0.0476624 ) 51
( 0.261862 -0.0901562 0.05857 ) 50
( 0.271936 -0.0335646 0.0439773 ) 68
( 0.412045 -0.089408 0.0659479 ) 55
( 0.402877 -0.0603534 0.06956 ) 64
( 0.350082 -0.0416781 0.0344712 ) 42
( 0.398088 -0.0775673 0.0371024 ) 26
( 0.392994 -0.0401202 0.0409737 ) 44
( 0.334371 -0.0900749 0.0381736 ) 24
( 0.484292 -0.0901829 0.0585306 ) 58
( 0.280399 -0.055137 0.0640937 ) 60
( 0.284961 -0.0903557 0.0307504 ) 22
( 0.300385 -0.0114191 0.0345167 ) 49
( 0.414369 -0.0164435 0.0690195 ) 73
( 0.357836 -0.0901794 0.0482786 ) 53
( 0.392385 -0.0896323 0.0710648 ) 55
( 0.44226 -0.0878774 0.0446862 ) 56
( 0.490813 -0.0350819 0.0637953 ) 76
( 0.355105 -0.0470492 0.0723185 ) 93
( 0.415243 -0.0685839 0.0343497 ) 35
( 0.452282 -0.0818071 0.0599517 ) 57
( 0.407096 0.00550359 0.0731063 ) 113
( 0.302152 0.00738531 0.0290421 ) 49
( 0.316012 -0.023205 0.0731957 ) 101
( 0.282004 -0.0527237 0.0412374 ) 31
( 0.39563 -0.0582931 0.0346658 ) 35
( 0.251217 -0.060205 0.0356513 ) 30
( 0.304489 -0.0901541 0.0636524 ) 51
( 0.294664 -0.0463504 0.074122 ) 91
( 0.386579 -0.0194295 0.0653867 ) 72
( 0.402107 -0.0236109 0.0353513 ) 44
( 0.47442 -0.0392296 0.0543463 ) 76
( 0.441176 -0.0252811 0.0454292 ) 74
( 0.355863 -0.0677296 0.0375172 ) 33
( 0.304091 0.0125401 0.0622218 ) 78
( 0.301343 -0.0597472 0.0397127 ) 31
( 0.272802 -0.0124593 0.0378913 ) 48
( 0.26557 -0.00169214 0.0646438 ) 77
( 0.335692 0.00855587 0.0762318 ) 111
( 0.44459 -0.0610197 0.071346 ) 66
( 0.288757 -0.0130022 0.0903642 ) 109
( 0.490043 -0.0730007 0.0677148 ) 58
( 0.463043 -0.0567343 0.0669246 ) 66
( 0.380071 -0.0729425 0.0714895 ) 85
( 0.32899 -0.00862669 0.069788 ) 79
( 0.443541 -0.0353724 0.0713101 ) 74
( 0.341315 -0.0745497 0.0730643 ) 84
( 0.419287 -0.0201237 0.0449217 ) 74
( 0.467016 -0.0905406 0.0689677 ) 57
( 0.347886 -0.00762464 0.0541491 ) 80
( 0.42716 -0.0691779 0.0750954 ) 96
( 0.318356 -0.0906634 0.0497617 ) 52
( 0.40876 -0.0349914 0.0732617 ) 104
( 0.385436 -0.0546178 0.0760896 ) 94
( 0.370766 -0.0280255 0.0735044 ) 103
( 0.251416 -0.0141566 0.0712499 ) 77
( 0.335314 -0.0387462 0.0731002 ) 102
( 0.294338 -0.0272551 0.078198 ) 100
( 0.478093 -0.0465998 0.0725111 ) 98
( 0.389814 -0.0351033 0.0766188 ) 104
( 0.373462 -0.00841544 0.075108 ) 112
( 0.288834 -0.0730396 0.0672754 ) 51
( 0.425551 -0.0902237 0.0802323 ) 87
( 0.330275 -0.0271508 0.0405982 ) 41
( 0.267164 -0.0398452 0.068208 ) 68
( 0.426509 -0.0298766 0.0780259 ) 105
( 0.311961 -0.000436979 0.0747425 ) 110
( 0.477406 -0.0272911 0.0770307 ) 107
( 0.312625 -0.0670205 0.0695194 ) 61
( 0.358867 -0.0897798 0.0902622 ) 84
( 0.351101 -0.0272663 0.0727419 ) 102
( 0.398538 -0.0692263 0.0892709 ) 95
( 0.382944 0.00871418 0.0784583 ) 112
( 0.362192 -0.0641942 0.0796504 ) 94
( 0.276977 -0.0149613 0.0738394 ) 99
( 0.39878 -0.0179412 0.0807672 ) 104
( 0.295161 -0.00948048 0.0698291 ) 78
( 0.363915 0.00900538 0.0737351 ) 112
( 0.264069 -0.0622589 0.0721066 ) 90
( 0.327932 -0.0732175 0.090078 ) 83
( 0.321993 -0.089331 0.0798529 ) 83
( 0.431925 -0.0501702 0.0816138 ) 96
( 0.406456 -0.0905345 0.0850484 ) 86
( 0.270842 -0.0903411 0.0760021 ) 81
( 0.373605 -0.0904676 0.0773338 ) 85
( 0.281369 -0.0625846 0.0823129 ) 91
( 0.375224 -0.0455455 0.0902693 ) 94
( 0.344792 -0.0070841 0.0903439 ) 111
( 0.459285 -0.0735678 0.0758771 ) 88
( 0.415703 0.000583234 0.0900574 ) 113
( 0.4548 -0.0473519 0.0821033 ) 97
( 0.28747 0.00565962 0.0843283 ) 109
( 0.386153 -0.0067512 0.0904539 ) 112
( 0.474125 -0.0822877 0.0847577 ) 89
( 0.29046 -0.0900824 0.0774197 ) 82
( 0.380163 -0.0258401 0.0906081 ) 103
( 0.413983 -0.0571637 0.0854497 ) 95
( 0.332661 -0.0215683 0.0840723 ) 101
( 0.352298 -0.0386009 0.0901256 ) 102
( 0.251036 -0.0204097 0.0901435 ) 99
( 0.378838 -0.0665767 0.0902961 ) 94
( 0.447546 -0.0194235 0.0823658 ) 106
( 0.43805 -0.0788253 0.0904224 ) 87
( 0.270248 0.0127819 0.0903979 ) 108
( 0.255983 0.0017102 0.0824525 ) 108
( 0.490431 -0.039634 0.0859121 ) 107
( 0.47279 -0.0630629 0.0900755 ) 98
( 0.339023 -0.0901102 0.0901769 ) 84
( 0.307824 -0.035364 0.0902209 ) 101
( 0.340019 -0.0542412 0.0900308 ) 93
( 0.268642 -0.0295193 0.090348 ) 99
( 0.490375 -0.0588658 0.0815427 ) 98
( 0.395757 -0.0472274 0.0906528 ) 95
( 0.36372 -0.00120009 0.0904638 ) 112
( 0.414416 -0.0385708 0.0909937 ) 104
( 0.300233 -0.073212 0.0830683 ) 82
( 0.26898 -0.00994124 0.0906678 ) 108
( 0.320008 -0.0554018 0.0831103 ) 92
( 0.279375 -0.080388 0.0904487 ) 82
( 0.398686 0.010336 0.090305 ) 113
( 0.444681 -0.0903001 0.0758624 ) 88
( 0.325261 -0.00280358 0.0900752 ) 110
( 0.305203 -0.0903109 0.0905308 ) 82
( 0.347892 -0.0723952 0.0907851 ) 84
( 0.451112 -0.0643146 0.0906006 ) 97
( 0.471548 -0.0411521 0.0904099 ) 106
( 0.441796 -0.0358809 0.0908435 ) 105
( 0.267712 -0.0486535 0.0859625 ) 90
( 0.309157 -0.0154176 0.0901413 ) 101
( 0.416115 -0.0190243 0.0906491 ) 104
( 0.386155 -0.0850428 0.0906907 ) 85
( 0.490349 -0.0204986 0.0902977 ) 107
( 0.465324 -0.0224062 0.0909419 ) 106
( 0.285191 -0.0401126 0.0902035 ) 100
( 0.306048 0.00884179 0.0905763 ) 110
( 0.417373 -0.0755362 0.090663 ) 87
( 0.490824 -0.0761878 0.0908178 ) 89
( 0.327184 -0.0391388 0.0907361 ) 101
( 0.457682 -0.0903195 0.0904638 ) 88
( 0.297569 -0.0555348 0.0907636 ) 91
( 0.264489 -0.0674625 0.0908109 ) 90
( 0.360995 -0.0207858 0.0901459 ) 102
)
