/*--------------------------------*- C++ -*----------------------------------*\
  =========                 |
  \\      /  F ield         | OpenFOAM: The Open Source CFD Toolbox
   \\    /   O peration     | Website:  https://openfoam.org
    \\  /    A nd           | Version:  4.x
     \\/     M anipulation  |
\*---------------------------------------------------------------------------*/
FoamFile
{
    version     2.0;
    format      ascii;
    class       Cloud<passiveParticle>;
    location    0;
    object      positions;
}
// * * * * * * * * * * * * * * * * * * * * * * * * * * * * * * * * * * * * * //

310
(
( 0.211681 -0.0056022 -0.0726891 ) 4
( 0.18719 -0.00943512 -0.0456944 ) 34
( 0.223568 -0.0130743 -0.0586383 ) 36
( 0.203157 -0.0136609 -0.0353175 ) 64
( 0.235667 -0.00380113 -0.0713255 ) 36
( 0.220516 -0.005143 -0.0324761 ) 64
( 0.176697 -0.00935445 -0.0624124 ) 34
( 0.236107 -0.00905613 -0.043882 ) 36
( 0.205832 -0.00152637 -0.0507373 ) 35
( 0.167686 -0.0112912 -0.044691 ) 34
( 0.226404 -0.0111477 -0.0147397 ) 65
( 0.225338 0.0300849 -0.0273529 ) 74
( 0.0458022 0.0271914 -0.0469687 ) 38
( 0.21524 0.037624 -0.0425789 ) 73
( 0.185454 0.0222804 -0.0700943 ) 43
( 0.113583 0.038851 -0.0534925 ) 41
( 0.0323512 0.0742096 -0.0323394 ) 85
( 0.201911 0.0641005 -0.0451032 ) 53
( 0.212476 0.0179982 -0.0410437 ) 73
( 0.0749695 0.0448072 -0.0509562 ) 48
( 0.0698119 0.0214957 -0.0471449 ) 39
( 0.0323161 0.0515489 -0.0611196 ) 47
( 0.173556 0.0184023 -0.0546819 ) 43
( 0.125989 0.0707833 -0.0485178 ) 50
( 0.0266326 0.0590173 -0.0436368 ) 46
( 0.0238077 0.0902949 -0.0399191 ) 84
( 0.0433259 0.0901327 -0.0543641 ) 56
( 0.0625658 0.0501656 -0.0659347 ) 48
( 0.0782922 0.0721548 -0.0575368 ) 57
( 0.138084 0.0576157 -0.0571975 ) 50
( 0.180733 0.0551968 -0.0492821 ) 52
( 0.0592821 0.0312514 -0.0608981 ) 39
( 0.20331 0.00506167 -0.0291822 ) 64
( 0.100207 0.043416 -0.0349083 ) 78
( 0.0790529 0.0455021 -0.0254569 ) 77
( 0.23935 0.0524654 -0.0725215 ) 23
( 0.157019 0.0557706 -0.0683013 ) 51
( 0.216007 0.0776826 -0.0410423 ) 91
( 0.244127 0.0826055 -0.0399062 ) 92
( 0.16817 0.0665535 -0.0389526 ) 81
( 0.0925825 0.0600503 -0.0672985 ) 49
( 0.145357 0.0710979 -0.0444833 ) 51
( 0.111003 0.0824323 -0.0427737 ) 87
( 0.15448 0.0565539 -0.028977 ) 80
( 0.1364 0.0382067 -0.0531669 ) 41
( 0.210526 0.0742364 -0.0597894 ) 62
( 0.025459 0.0819979 -0.0578111 ) 55
( 0.186321 0.0389647 -0.0593088 ) 43
( 0.185196 0.088966 -0.0709487 ) 61
( 0.168879 0.0901215 -0.0375185 ) 90
( 0.223459 0.0641702 -0.0708757 ) 54
( 0.118374 0.0217996 -0.0623732 ) 41
( 0.114035 0.0888454 -0.0613569 ) 59
( 0.0724902 0.0629151 -0.032122 ) 77
( 0.0925719 0.0772657 -0.0356216 ) 87
( 0.133792 0.0243536 -0.039208 ) 70
( 0.196422 0.05266 -0.069666 ) 53
( 0.144943 0.00354314 -0.0699929 ) 33
( 0.218511 0.0258869 -0.0583255 ) 44
( 0.027095 0.0248084 -0.0326865 ) 66
( 0.0996483 0.0176756 -0.067516 ) 40
( 0.0901316 0.0248108 -0.0214952 ) 69
( 0.125573 0.0399825 -0.0697637 ) 41
( 0.124139 0.0635333 -0.0278552 ) 79
( 0.00983654 0.0177907 -0.0395178 ) 66
( 0.106595 0.0460269 -0.0707965 ) 49
( 0.0581625 0.0798826 -0.0461589 ) 57
( 0.100053 0.0251748 -0.0491454 ) 40
( 0.154556 0.0242546 -0.0525081 ) 42
( 0.225889 0.0635894 -0.0510068 ) 54
( 0.157149 0.00536539 -0.0468846 ) 33
( 0.18181 0.0316156 -0.0414366 ) 72
( 0.202749 0.0124659 -0.0703884 ) 35
( 0.0882227 0.0572327 -0.0427477 ) 78
( 0.0978094 0.0749241 -0.0553254 ) 58
( 0.124741 0.0517331 -0.0437072 ) 50
( 0.0900116 0.0619843 -0.0230695 ) 78
( 0.191313 0.07114 -0.0642702 ) 52
( 0.231553 0.0689422 -0.0326842 ) 83
( 0.0349334 0.0416951 -0.0389904 ) 67
( 0.144584 0.0731572 -0.0678336 ) 60
( 0.0619422 0.046582 -0.0360702 ) 77
( 0.0762481 0.0886045 -0.0352404 ) 86
( 0.155601 0.0545441 -0.0485633 ) 51
( 0.00997544 0.0726672 -0.0468576 ) 55
( 0.193086 0.0220153 -0.0284633 ) 72
( 0.0379529 0.0181541 -0.0644886 ) 38
( 0.136028 0.0455731 -0.0287417 ) 79
( 0.00989931 0.0813165 -0.0290171 ) 84
( 0.0108265 0.0545519 -0.0549748 ) 46
( 0.169411 0.0439053 -0.0320902 ) 81
( 0.0567492 0.0722449 -0.0644823 ) 57
( 0.151058 0.0900395 -0.0594874 ) 60
( 0.0282718 0.0329047 -0.0554563 ) 38
( 0.114722 0.0289907 -0.0362558 ) 70
( 0.230084 0.0120962 -0.034101 ) 65
( 0.248903 0.0607989 -0.0242817 ) 83
( 0.0279789 0.0556814 -0.0187709 ) 76
( 0.242108 0.055591 -0.0425683 ) 83
( 0.0960161 0.0900453 -0.0694636 ) 58
( 0.16549 0.0708274 -0.0581216 ) 51
( 0.18853 0.0902887 -0.0347844 ) 90
( 0.23212 0.0279726 -0.0742832 ) 14
( 0.239162 0.0160661 -0.0600168 ) 45
( 0.196784 0.0449607 -0.0435049 ) 53
( 0.164545 0.0285308 -0.0691849 ) 42
( 0.0637729 0.0612415 -0.0495947 ) 48
( 0.247616 0.0106216 -0.0429042 ) 36
( 0.184988 0.0743418 -0.0457793 ) 61
( 0.0836035 0.0270163 -0.0603237 ) 40
( 0.171235 0.0773749 -0.022634 ) 90
( 0.167544 0.0393937 -0.0528037 ) 43
( 0.176805 0.0581048 -0.0685467 ) 52
( 0.114117 0.0902915 -0.0250457 ) 88
( 0.227158 0.0901906 -0.0299121 ) 92
( 0.165954 0.0204048 -0.0366486 ) 71
( 0.205052 0.090134 -0.0702509 ) 62
( 0.188982 0.00641418 -0.0574798 ) 34
( 0.120888 0.0661731 -0.0671564 ) 50
( 0.0586622 0.0274644 -0.0318741 ) 68
( 0.0473222 0.0567639 -0.0272782 ) 76
( 0.0844214 0.0320221 -0.0390018 ) 69
( 0.249985 0.0885782 -0.0220564 ) 92
( 0.00990956 0.0284659 -0.0677904 ) 37
( 0.222475 0.0110161 -0.0709459 ) 36
( 0.132877 0.0897359 -0.0675781 ) 59
( 0.0490714 0.0481959 -0.0510722 ) 47
( 0.163372 0.0824838 -0.0740687 ) 29
( 0.185489 0.0613884 -0.0308172 ) 81
( 0.00970312 0.035684 -0.0493386 ) 37
( 0.207263 0.0900348 -0.0282881 ) 91
( 0.211415 0.0510735 -0.0566494 ) 53
( 0.0854545 0.0901582 -0.0526877 ) 58
( 0.233404 0.0281678 -0.0453441 ) 45
( 0.202913 0.0329428 -0.0685067 ) 44
( 0.12875 0.090264 -0.0481057 ) 59
( 0.0549077 0.0732211 -0.0190742 ) 85
( 0.0355575 0.0693646 -0.0693274 ) 47
( 0.231468 0.0450421 -0.0556965 ) 54
( 0.0282746 0.0901551 -0.0195276 ) 85
( 0.228735 0.0900958 -0.0498779 ) 63
( 0.149169 0.0901876 -0.0397256 ) 89
( 0.0104553 0.0351334 -0.0297524 ) 66
( 0.151518 0.0373484 -0.0379475 ) 71
( 0.14354 0.0277819 -0.0686238 ) 42
( 0.0433714 0.0672981 -0.0504427 ) 47
( 0.167835 0.00693046 -0.0699032 ) 34
( 0.170845 0.0900641 -0.0572356 ) 61
( 0.196891 0.0238363 -0.0518439 ) 44
( 0.137191 0.0900798 -0.0227787 ) 88
( 0.0527856 0.0273101 -0.00504681 ) 94
( 0.135546 0.070097 6.02313e-05 ) 105
( 0.0833089 0.0549696 -0.00356503 ) 103
( 0.0894869 0.0423301 0.010542 ) 96
( 0.217889 0.0165958 0.0112921 ) 100
( 0.114855 0.0250218 0.00870285 ) 97
( 0.043046 0.0347637 0.0105333 ) 94
( 0.110201 0.0412444 -0.00206944 ) 96
( 0.175683 0.0361705 -0.0120409 ) 99
( 0.168902 0.0486553 0.00176089 ) 107
( 0.191244 0.0822023 -0.0167912 ) 90
( 0.125048 0.0510787 0.00636178 ) 105
( 0.153945 0.039414 0.010828 ) 98
( 0.0490191 0.0902059 0.00757907 ) 109
( 0.125273 0.023433 -0.00779954 ) 97
( 0.00985499 0.0488477 0.0068922 ) 101
( 0.0110374 0.0659965 -0.0165302 ) 75
( 0.10339 0.0901088 -0.00349766 ) 111
( 0.159018 0.068194 -0.0100096 ) 106
( 0.1934 0.0595751 -0.0127774 ) 107
( 0.0293385 0.0881053 0.00603959 ) 109
( 0.0272732 0.043413 -0.00310235 ) 101
( 0.0907429 0.0902266 0.0119013 ) 111
( 0.0756503 0.0182148 0.00723231 ) 95
( 0.0628646 0.0800451 -0.00215639 ) 110
( 0.207141 0.0272438 -0.00112398 ) 100
( 0.133966 0.0427894 -0.00903619 ) 97
( 0.0582156 0.0697184 0.0138763 ) 103
( 0.00989977 0.0682371 0.00298043 ) 101
( 0.124301 0.0776402 -0.0140649 ) 112
( 0.232457 0.0780779 -0.0152638 ) 92
( 0.162202 0.0798812 0.00557411 ) 113
( 0.163707 0.0259434 0.000279185 ) 98
( 0.145168 0.09012 0.00640227 ) 113
( 0.0953143 0.0239167 0.00530241 ) 96
( 0.0643742 0.0605427 -0.00573587 ) 103
( 0.0201258 0.0274385 -0.0144061 ) 66
( 0.0466422 0.0898352 -0.0119483 ) 109
( 0.0663371 0.0371133 0.0053464 ) 95
( 0.0928247 0.0732025 -0.00374042 ) 111
( 0.0532268 0.0515938 0.0079585 ) 102
( 0.105753 0.0730519 -0.0187595 ) 87
( 0.153688 0.0900482 -0.011573 ) 113
( 0.0292406 0.0233626 0.0024468 ) 94
( 0.142547 0.0275996 0.000288963 ) 98
( 0.221118 0.037053 0.00870711 ) 100
( 0.153208 0.04671 -0.0119663 ) 106
( 0.117006 0.0594713 -0.0096612 ) 105
( 0.0770308 0.0702172 0.00779604 ) 103
( 0.0110956 0.0868716 -0.00999335 ) 108
( 0.0803853 0.0891397 -0.00479959 ) 110
( 0.191389 0.0389673 -0.000742949 ) 99
( 0.125038 0.0903338 0.000708933 ) 112
( 0.211768 0.0529971 -0.0157023 ) 82
( 0.108987 0.0286568 -0.0172538 ) 69
( 0.0824437 0.0340369 -0.00582682 ) 95
( 0.101135 0.0573482 0.00491366 ) 104
( 0.182756 0.0210219 -0.000701856 ) 99
( 0.0361309 0.0604919 0.00211798 ) 102
( 0.178962 0.0712738 -0.00558835 ) 107
( 0.00975726 0.0442871 -0.0122911 ) 101
( 0.107833 0.0577687 -0.0547273 ) 49
( 0.00985828 0.0901754 -0.0670981 ) 55
( 0.216766 0.0558415 -0.0346884 ) 82
( 0.139935 0.0605883 -0.0164456 ) 80
( 0.0518188 0.0144504 0.0101095 ) 94
( 0.00984083 0.0296386 0.00233429 ) 93
( 0.00991338 0.0901381 0.00949996 ) 108
( 0.0702409 0.0230063 -0.0165265 ) 68
( 0.221039 0.0444454 -0.0727322 ) 22
( 0.0499596 0.0901378 -0.0314067 ) 85
( 0.158671 -0.0107602 -0.0703171 ) 33
( 0.00983612 0.0560923 -0.0336444 ) 75
( 0.228118 0.0901255 -0.0697347 ) 63
( 0.0942737 0.0431362 -0.0554188 ) 49
( 0.224312 0.00561898 -0.0518935 ) 36
( 0.217711 0.0137877 -0.0187643 ) 64
( 0.23101 0.0582092 -0.0160234 ) 83
( 0.0672132 0.090061 -0.0606821 ) 57
( 0.240978 0.0425465 -0.0230337 ) 74
( 0.105942 0.0625499 -0.03556 ) 78
( 0.14576 -0.00926748 -0.0541402 ) 33
( 0.202658 0.0901035 -0.0487115 ) 62
( 0.13966 0.0278513 -0.0206309 ) 71
( 0.249424 -0.00447221 -0.0301257 ) 65
( 0.0928554 0.090053 -0.0203588 ) 87
( 0.11656 0.0456694 -0.0239201 ) 79
( 0.150149 0.0575843 0.00401834 ) 106
( 0.150747 0.0759049 -0.0260921 ) 89
( 0.159342 0.0304834 -0.0211185 ) 71
( 0.188415 0.0424326 -0.0257459 ) 72
( 0.114337 0.0737639 0.00387699 ) 112
( 0.04074 0.0312947 -0.0201028 ) 67
( 0.0359002 0.0730591 -0.0129745 ) 109
( 0.173215 0.0166525 -0.0176233 ) 72
( 0.175307 0.0641399 0.0124131 ) 107
( 0.173065 0.0556272 -0.0163809 ) 81
( 0.0961169 0.044676 -0.0154346 ) 78
( 0.0755586 0.0734955 -0.0158242 ) 86
( 0.205449 0.0345785 -0.0193748 ) 73
( 0.203896 0.0703873 -0.0264757 ) 82
( 0.0637115 0.0415429 -0.0137185 ) 95
( 0.0453553 0.0476416 -0.00976814 ) 102
( 0.0653657 0.0902183 -0.0188648 ) 86
( 0.0117514 0.0704824 -0.0666424 ) 46
( 0.10996 0.0787274 -0.0781084 ) 27
( 0.178315 0.0403379 -0.0774983 ) 12
( 0.0290796 0.0316652 -0.0760859 ) 7
( 0.238055 0.0776456 -0.0815417 ) 32
( 0.199034 0.0750064 -0.0821787 ) 31
( 0.178442 -0.014172 -0.081683 ) 3
( 0.051648 0.0237934 -0.0776983 ) 7
( 0.112326 0.0290178 -0.0799356 ) 10
( 0.0685412 0.0163187 -0.0702886 ) 39
( 0.0746858 0.062589 -0.0755753 ) 17
( 0.138968 0.053481 -0.0765833 ) 20
( 0.218361 0.0793537 -0.0834219 ) 31
( 0.0166213 0.0466533 -0.0722201 ) 15
( 0.153529 0.0405085 -0.080629 ) 11
( 0.0809709 0.0442232 -0.0701116 ) 48
( 0.0503932 0.060168 -0.0789607 ) 16
( 0.154719 0.0164342 -0.0816054 ) 11
( 0.0456448 0.0419913 -0.0722948 ) 7
( 0.0457833 0.0859649 -0.073727 ) 25
( 0.0852435 0.00825547 -0.0773882 ) 0
( 0.0787846 0.0820204 -0.0751282 ) 26
( 0.129671 0.0192505 -0.0800171 ) 10
( 0.133606 -0.0067261 -0.0827828 ) 1
( 0.160923 0.0659566 -0.0849591 ) 20
( 0.186185 0.00359197 -0.0770337 ) 3
( 0.026753 0.0900562 -0.0774597 ) 24
( 0.234462 0.012567 -0.0867809 ) 5
( 0.0882178 -0.0102117 -0.0842165 ) 0
( 0.21434 0.0249136 -0.082723 ) 13
( 0.0184522 0.0161204 -0.0825143 ) 6
( 0.209944 0.0569955 -0.0836532 ) 22
( 0.0104506 0.0799838 -0.0841681 ) 24
( 0.13049 0.0758539 -0.0817053 ) 28
( 0.0925931 0.031501 -0.0799363 ) 9
( 0.0657441 0.0374534 -0.0809804 ) 8
( 0.120184 0.0539769 -0.0830729 ) 19
( 0.0315299 0.0548245 -0.0826035 ) 16
( 0.179257 0.0730528 -0.0814674 ) 30
( 0.101918 0.0616949 -0.0847693 ) 18
( 0.196534 0.0407796 -0.0856813 ) 13
( 0.108552 0.00598847 -0.0809601 ) 0
( 0.146754 0.0900844 -0.0818324 ) 29
( 0.0626488 0.0901106 -0.0833293 ) 26
( 0.233255 0.0420359 -0.0883506 ) 14
( 0.173344 0.0221997 -0.0859223 ) 12
( 0.0914372 0.0891521 -0.0888258 ) 27
( 0.00991346 0.06009 -0.0851962 ) 15
( 0.0108437 0.0343221 -0.0868107 ) 6
( 0.0375013 0.0143982 -0.0880909 ) 7
( 0.195445 0.0203473 -0.0872139 ) 13
( 0.0315025 0.0739829 -0.0882701 ) 25
( 0.0860911 0.0500974 -0.0884379 ) 18
( 0.0768901 0.0226376 -0.0884089 ) 8
( 0.13498 0.0370779 -0.0871845 ) 10
( 0.115096 -0.0111553 -0.0887693 ) 1
)
