/*--------------------------------*- C++ -*----------------------------------*\
| =========                 |                                                 |
| \\      /  F ield         | OpenFOAM: The Open Source CFD Toolbox           |
|  \\    /   O peration     | Version:  4.x                                   |
|   \\  /    A nd           | Web:      www.OpenFOAM.org                      |
|    \\/     M anipulation  |                                                 |
\*---------------------------------------------------------------------------*/
FoamFile
{
    version     2.0;
    format      ascii;
    class       volVectorField;
    location    "59.5";
    object      GField;
}
// * * * * * * * * * * * * * * * * * * * * * * * * * * * * * * * * * * * * * //

dimensions      [1 -2 -1 0 0 0 0];

internalField   nonuniform List<vector> 
132
(
(100.252 -1.20782 -4.34727)
(48.8765 -0.733586 -3.04683)
(110.52 -1.36052 -5.1608)
(65.2645 -0.361684 -2.9747)
(119.813 -0.715685 -4.48965)
(77.3055 0.158036 -2.58155)
(127.252 -0.214499 -3.99049)
(86.3575 0.654569 -2.81863)
(135.081 0.232182 -3.94142)
(100.568 -3.33008 -4.94346)
(46.2579 -2.41167 -2.9416)
(107.889 -4.25443 -5.42258)
(58.7118 -2.24734 -3.11365)
(115.443 -3.63881 -5.0841)
(68.3545 -1.77885 -2.73496)
(121.623 -3.35105 -4.53521)
(75.6587 -2.59848 -2.72786)
(127.636 -3.59125 -4.02062)
(101.354 -1.9339 -5.50712)
(44.3409 -1.13777 -2.8454)
(106.265 -2.14987 -5.78833)
(54.2935 -1.17755 -2.99084)
(111.197 -1.358 -5.43187)
(61.6165 -0.35834 -2.77958)
(115.679 -0.936176 -4.79216)
(65.8495 -0.00819603 -1.8961)
(117.694 -0.71027 -3.61085)
(100.788 -1.59195 -5.37729)
(44.8911 -0.551671 -2.59699)
(106.696 -1.2025 -5.30766)
(99.088 -1.75756 -6.8696)
(42.0202 -0.676328 -3.88344)
(102.623 -1.66363 -6.69397)
(48.4613 -0.627111 -3.15921)
(106.338 -1.38176 -4.60961)
(53.4082 -0.194365 -2.16423)
(109.772 -0.90543 -3.24664)
(56.5917 0.386037 -1.57794)
(112.904 -0.18444 -2.09638)
(98.5971 -4.22193 -7.71526)
(37.2332 -1.98309 -3.68418)
(99.5879 -4.68216 -7.27871)
(37.9398 -1.82191 -2.94478)
(99.9906 -4.24644 -5.26251)
(36.5228 -1.33884 -1.81022)
(100.779 -3.74687 -3.73749)
(33.8227 -0.980444 -1.06837)
(102.033 -3.01999 -1.9102)
(97.9333 -2.23124 -8.46319)
(33.6365 -0.656954 -3.57417)
(97.4276 -1.93746 -8.19015)
(30.3515 -0.513876 -2.81109)
(95.9857 -1.26655 -5.74692)
(24.6229 -0.00976161 -1.58264)
(94.8489 -0.200317 -3.23674)
(16.7492 0.415014 -0.674596)
(95.0441 0.307274 -1.31559)
(96.6401 -0.590448 -8.9253)
(34.9296 -0.257647 -4.15208)
(97.0689 -0.611095 -8.7353)
(32.3317 -0.0127342 -3.09698)
(96.0411 -0.136945 -6.35098)
(97.2266 -2.12091 -5.88456)
(40.814 -0.882412 -3.54391)
(99.6741 -2.09592 -6.12954)
(45.4444 -0.787301 -3.47672)
(102.859 -1.77338 -5.02726)
(49.6222 -0.341662 -3.31516)
(106.13 -1.2123 -4.09879)
(52.1763 0.21958 -3.77454)
(109.853 -0.166563 -4.17496)
(96.485 -4.84893 -6.55725)
(35.5603 -2.30874 -3.48779)
(96.3557 -5.62351 -6.56553)
(33.8429 -2.18103 -2.7636)
(96.2425 -4.73904 -4.81889)
(31.3723 -1.53138 -2.45645)
(97.0115 -3.37969 -3.94127)
(28.5672 -1.4575 -2.36317)
(99.1204 -2.48023 -3.15896)
(95.4875 -3.21348 -6.85617)
(31.2537 -1.43903 -3.56562)
(93.1375 -3.45351 -7.18932)
(22.6826 -0.903468 -2.444)
(90.8225 -2.28814 -4.74966)
(15.3548 -0.41637 -1.71381)
(90.1913 -1.20193 -1.73812)
(10.7156 -0.305659 -1.60665)
(90.7114 -1.10939 0.0984409)
(94.8362 -1.14324 -6.50201)
(30.2848 -0.596802 -3.43993)
(92.1944 -1.48547 -6.50637)
(21.6923 -0.627667 -1.89181)
(90.8354 -1.61091 -3.77974)
(16.1887 -0.909958 -1.42322)
(91.375 -1.60858 -2.51012)
(97.1203 -2.52581 -4.25086)
(40.2731 -1.09834 -2.71348)
(98.8465 -2.37378 -4.40203)
(43.413 -0.763829 -2.60148)
(100.3 -1.65401 -3.43672)
(44.4378 -0.569786 -2.40132)
(101.279 -1.42661 -2.71492)
(43.3071 0.0741126 -2.50704)
(101.19 -0.146638 -1.90715)
(95.935 -5.21816 -4.8074)
(32.6941 -2.55874 -2.48916)
(93.6744 -5.91577 -4.82449)
(26.4412 -2.0279 -1.83441)
(92.1523 -4.60482 -3.24958)
(19.9908 -1.55497 -1.25918)
(90.875 -2.23486 -2.29276)
(12.5018 -1.18573 -1.03786)
(90.6243 0.0494823 -2.16245)
(95.2465 -2.26813 -4.9089)
(28.561 -0.985013 -2.36746)
(90.2504 -2.08138 -4.19975)
(15.1846 -0.336467 -1.11845)
(86.4793 -0.507637 -2.38809)
(4.03722 -0.0314249 -0.31386)
(83.8359 0.859228 -1.66706)
(3.36547e-05 -3.96362e-07 -3.71557e-06)
(81.1107 0.93159 -0.300348)
(94.9911 -0.428214 -4.38904)
(30.6628 0.128876 -2.51625)
(91.0591 0.580745 -4.41496)
(20.8321 0.445627 -1.69263)
(89.8818 0.937472 -3.55362)
(14.9126 0.495014 -1.39846)
(89.498 -0.1582 -2.74412)
(11.2125 0.626331 -1.32387)
(89.3907 -0.0980606 -1.33236)
)
;

boundaryField
{
    inlet
    {
        type            calculated;
        value           uniform (67 0 0);
    }
    outlet
    {
        type            calculated;
        value           nonuniform 0();
    }
    wall
    {
        type            calculated;
        value           uniform (0 0 0);
    }
    procBoundary0to1
    {
        type            processor;
        value           nonuniform List<vector> 
12
(
(93.6108 1.8955 -3.17781)
(80.4711 -2.66306 -3.04013)
(66.1442 0.418339 -2.25702)
(58.0773 1.28216 -1.1508)
(30.6594 -1.04274 -0.498244)
(8.18835 0.396484 -0.566478)
(52.7722 1.45653 -4.68708)
(27.9446 -2.23089 -3.0453)
(5.70077 -0.319341 -1.28369)
(36.9455 0.520496 -1.44618)
(5.76594 -0.879257 -0.547022)
(3.12735e-05 -1.30909e-06 -2.53379e-06)
)
;
    }
    procBoundary0to2
    {
        type            processor;
        value           nonuniform List<vector> 
44
(
(55.3633 -0.639611 -2.66916)
(111.773 -1.08323 -5.02737)
(64.0396 -0.744173 -2.39687)
(117.335 -1.17501 -3.71134)
(69.765 -0.422438 -1.38378)
(122.828 -0.88041 -2.37839)
(99.2334 0.165897 -4.31583)
(41.7283 0.0423861 -2.43479)
(55.3633 -0.639611 -2.66916)
(103.615 0.446808 -5.09153)
(55.3633 -0.639611 -2.66916)
(111.773 -1.08323 -5.02737)
(27.309 0.0262222 -1.9685)
(96.0631 -0.204082 -3.97401)
(23.838 0.189121 -1.44067)
(98.408 0.166295 -2.23839)
(97.5687 1.19413 -8.0912)
(33.9772 0.257735 -3.87458)
(96.5194 1.24997 -8.56153)
(28.8861 0.652411 -3.15799)
(27.309 0.0262222 -1.9685)
(95.016 1.58943 -6.48936)
(27.309 0.0262222 -1.9685)
(96.0631 -0.204082 -3.97401)
(14.1954 -1.04619 -1.55897)
(92.6234 -0.154921 -2.04088)
(95.4873 1.18301 -6.72045)
(30.8001 0.147208 -3.17228)
(92.1469 0.387947 -6.02211)
(20.2428 -0.0356766 -1.76714)
(89.3005 -0.461922 -3.67554)
(9.86112 -0.28508 -0.800256)
(14.1954 -1.04619 -1.55897)
(87.0631 -1.80107 -1.547)
(14.1954 -1.04619 -1.55897)
(92.6234 -0.154921 -2.04088)
(94.7668 1.81646 -5.64201)
(28.9333 0.96735 -2.2917)
(90.4205 2.48876 -4.50015)
(18.8424 0.65335 -1.56921)
(88.3819 1.98334 -2.41684)
(11.0843 0.450349 -0.824345)
(87.4838 1.52974 -0.0739821)
(4.38933 0.235166 -0.462166)
)
;
    }
    procBoundary0to4
    {
        type            processor;
        value           nonuniform List<vector> 
36
(
(96.1771 -2.78348 -1.83277)
(40.93 -1.23254 -1.17812)
(97.5351 -2.87647 -1.75238)
(43.6746 -1.12438 -1.32823)
(99.3768 -2.10215 -0.883843)
(45.562 -0.570568 -0.970881)
(100.98 -1.43524 -0.719189)
(45.9951 -0.523203 -0.964759)
(102.751 -1.37241 0.622288)
(94.4036 -5.4761 -1.49213)
(33.5358 -2.61746 -0.782386)
(92.2968 -5.69237 -1.10506)
(26.589 -1.98772 -0.757997)
(91.0872 -4.24564 -0.384959)
(21.8959 -1.45451 -0.444317)
(91.3887 -3.18214 0.0359582)
(17.5305 -1.39104 -0.411446)
(91.8889 -1.84357 0.861896)
(94.2086 -2.83421 -1.37634)
(29.6802 -1.52643 -0.634467)
(89.6713 -3.10915 -0.627777)
(19.0334 -0.993896 -0.199479)
(87.7323 -2.69624 0.113907)
(11.4854 -0.683298 0.130381)
(87.4568 -1.70415 -0.669647)
(3.75748 -0.238105 0.146764)
(87.649 -0.134488 -0.633348)
(94.511 -1.96799 -2.19107)
(30.3526 -0.540751 -0.84337)
(89.6181 -1.83764 -1.62634)
(19.4399 -0.778184 -0.798444)
(87.1244 -1.53176 -1.20114)
(9.95615 -0.550871 -0.275145)
(85.6531 0.272288 -0.7685)
(2.63287 -0.237077 -0.0535752)
(85.2502 -0.188584 0.367746)
)
;
    }
    procBoundary0to6
    {
        type            processor;
        value           uniform (87.504 1.87081 -0.768155);
    }
    procBoundary0to7
    {
        type            processor;
        value           uniform (6.21722 0.719747 -1.0424);
    }
}


// ************************************************************************* //
