/*--------------------------------*- C++ -*----------------------------------*\
| =========                 |                                                 |
| \\      /  F ield         | OpenFOAM: The Open Source CFD Toolbox           |
|  \\    /   O peration     | Version:  4.x                                   |
|   \\  /    A nd           | Web:      www.OpenFOAM.org                      |
|    \\/     M anipulation  |                                                 |
\*---------------------------------------------------------------------------*/
FoamFile
{
    version     2.0;
    format      ascii;
    class       volScalarField;
    location    "59.5";
    object      KslNext;
}
// * * * * * * * * * * * * * * * * * * * * * * * * * * * * * * * * * * * * * //

dimensions      [1 -3 -1 0 0 0 0];

internalField   nonuniform List<scalar> 
132
(
3318.3
6841.34
3089.66
5266.43
2909.5
4543.45
2800.08
4103.59
2635.67
3337.32
7307.65
3196.89
5897.13
3050.91
5172.84
2932.9
4704.26
2818.7
3347.5
7676.89
3259.85
6400.06
3188.45
5736.49
3078.14
5388.83
3035.95
3366.26
7563.62
3228.7
3369.09
7942.76
3298.93
7046.25
3263.44
6517.51
3221.17
6173
3116.82
3400.8
9092.19
3470.13
9128.48
3537
9648.46
3536.35
10422.4
3484.69
3436.43
10102.3
3558.2
11447.9
3673.63
14251.9
3743.21
20919.7
3711.16
3486.86
9710.17
3572.86
10715
3663.46
3401.42
8117.35
3379.94
7418.19
3327.39
6897.92
3253.88
6529.5
3120.61
3457.68
9449.56
3552.83
10102.6
3609.66
10991.5
3598.2
11984.8
3481.47
3499.13
10778
3690.3
15051.3
3824.88
22242.6
3843.73
31436.1
3767.28
3532.34
11127.8
3734.17
15723.8
3803.31
21035.6
3767.62
3386.01
8186.4
3392.39
7693.03
3369.92
7562.45
3357.43
7745.67
3325.69
3458.35
10211.2
3628.04
12787
3702.8
16859.8
3757.23
26671.1
3725.85
3512.72
11754.1
3783.45
22233.5
3935.43
82938
4040.18
1e+10
4108.38
3506.97
10945.2
3744.33
16156.8
3776.77
22313.7
3759.96
29292.2
3707.77
)
;

boundaryField
{
    inlet
    {
        type            zeroGradient;
    }
    outlet
    {
        type            zeroGradient;
    }
    wall
    {
        type            zeroGradient;
    }
    procBoundary0to1
    {
        type            processor;
        value           uniform 0;
    }
    procBoundary0to2
    {
        type            processor;
        value           uniform 0;
    }
    procBoundary0to4
    {
        type            processor;
        value           uniform 0;
    }
    procBoundary0to6
    {
        type            processor;
        value           uniform 0;
    }
    procBoundary0to7
    {
        type            processor;
        value           uniform 0;
    }
}


// ************************************************************************* //
