/*--------------------------------*- C++ -*----------------------------------*\
  =========                 |
  \\      /  F ield         | OpenFOAM: The Open Source CFD Toolbox
   \\    /   O peration     | Website:  https://openfoam.org
    \\  /    A nd           | Version:  4.x
     \\/     M anipulation  |
\*---------------------------------------------------------------------------*/
FoamFile
{
    version     2.0;
    format      ascii;
    class       Cloud<passiveParticle>;
    location    0;
    object      positions;
}
// * * * * * * * * * * * * * * * * * * * * * * * * * * * * * * * * * * * * * //

407
(
( 0.258239 -0.00231485 0.00717613 ) 0
( 0.254438 0.0363061 0.00410817 ) 9
( 0.260088 0.0751892 -0.011507 ) 27
( 0.259413 0.0469569 0.0238869 ) 52
( 0.262349 0.0894539 0.0153938 ) 61
( 0.250823 0.0131561 -0.00387068 ) 0
( 0.309338 -0.00715665 0.0175702 ) 36
( 0.33558 -0.00728707 0.0174778 ) 37
( 0.467305 -0.00658994 -0.00275027 ) 7
( 0.386389 -0.0140851 0.0128374 ) 4
( 0.439593 -0.00882415 -0.00443428 ) 6
( 0.398313 -0.00655326 0.0265472 ) 39
( 0.420216 -0.0111171 -0.00555357 ) 6
( 0.400545 -0.0119295 -0.00720427 ) 5
( 0.40916 -0.00887069 0.0103919 ) 5
( 0.322354 -0.00644463 0.00309141 ) 2
( 0.471689 -0.0120892 0.0157442 ) 41
( 0.294144 0.00296555 0.0100842 ) 1
( 0.490171 -0.0125457 -0.0113106 ) 8
( 0.366713 -0.0128573 0.0135344 ) 4
( 0.485926 -0.000563775 0.00401278 ) 8
( 0.359096 -0.0034425 -0.00706219 ) 3
( 0.419356 -0.0111067 0.0273468 ) 40
( 0.307043 -0.0127539 -0.0074045 ) 2
( 0.429109 -0.00399172 0.0116659 ) 6
( 0.45285 -0.0100031 0.0102246 ) 7
( 0.379863 -0.012604 -0.0056621 ) 4
( 0.311932 0.0461115 0.0294673 ) 54
( 0.281457 0.0837402 0.015682 ) 62
( 0.486895 0.0276303 0.0214407 ) 51
( 0.34409 0.0700622 -0.00228814 ) 21
( 0.45903 0.059913 -0.00737233 ) 25
( 0.420826 0.0522433 0.021166 ) 58
( 0.380328 0.0560126 -0.00642097 ) 22
( 0.300437 0.0547211 -0.0119562 ) 19
( 0.352542 0.0132257 0.00118371 ) 3
( 0.301659 0.0187124 0.000361929 ) 10
( 0.392888 0.0669933 0.003792 ) 23
( 0.284623 0.0216894 -0.0129006 ) 10
( 0.368303 0.0207327 0.0159965 ) 47
( 0.398547 0.0834884 0.0130692 ) 32
( 0.437387 0.026065 0.00860074 ) 15
( 0.468764 0.0167069 0.0149702 ) 50
( 0.421743 0.0219811 -0.00305986 ) 15
( 0.376651 0.00382729 0.0107664 ) 4
( 0.415283 0.0573217 0.00318616 ) 23
( 0.296753 0.051908 0.0181928 ) 53
( 0.34541 0.0251037 -0.0132867 ) 12
( 0.330189 0.027839 0.0186817 ) 45
( 0.299387 0.0886767 0.0230049 ) 62
( 0.442366 0.069396 -0.00407887 ) 24
( 0.326604 0.0329216 0.000281011 ) 11
( 0.360142 0.0718309 0.00930898 ) 30
( 0.364739 0.0549397 0.0291933 ) 56
( 0.431321 0.039253 -0.0052588 ) 15
( 0.313936 0.0906433 -0.0108075 ) 29
( 0.336843 0.0470842 -0.00896492 ) 21
( 0.399292 0.0500015 -0.00558726 ) 23
( 0.31582 0.0491344 -0.00119249 ) 20
( 0.348922 0.0222167 0.0184818 ) 46
( 0.428144 0.0576458 -0.0119612 ) 24
( 0.287891 0.0477332 0.00126225 ) 19
( 0.387695 0.0447424 0.009461 ) 22
( 0.314339 0.0599389 0.0155896 ) 54
( 0.49084 0.0630037 -0.00976422 ) 26
( 0.449206 0.0447087 0.000732246 ) 25
( 0.349104 0.0726537 0.025358 ) 64
( 0.447674 0.0904992 0.018157 ) 68
( 0.471553 0.0906147 0.0117057 ) 34
( 0.312744 0.0183107 0.0164565 ) 45
( 0.274381 0.0389867 -0.0100301 ) 9
( 0.452629 0.0597689 0.0131197 ) 25
( 0.332457 0.0899624 -0.00445244 ) 29
( 0.411684 0.0902199 9.07614e-05 ) 32
( 0.483982 0.0451235 -0.00915072 ) 26
( 0.390435 0.0332788 -0.0112077 ) 14
( 0.329957 0.0421263 0.036082 ) 45
( 0.375757 0.00468283 -0.0138076 ) 4
( 0.460378 0.00112684 0.0246377 ) 41
( 0.308162 0.0724526 -0.0131131 ) 29
( 0.28732 0.0670603 -0.00314053 ) 19
( 0.399076 0.0128938 0.0254534 ) 39
( 0.490455 0.0184111 0.00464171 ) 17
( 0.299366 0.0723231 0.0116666 ) 28
( 0.274988 0.00812558 0.00955683 ) 0
( 0.35885 0.0901356 0.00176065 ) 30
( 0.438433 0.0414751 0.0208029 ) 49
( 0.412153 0.0105795 0.010033 ) 5
( 0.33912 0.0556871 0.0252582 ) 55
( 0.319128 0.0903893 0.0102358 ) 29
( 0.468042 0.0470793 0.0145231 ) 59
( 0.473303 0.0128407 -0.00370813 ) 8
( 0.278783 0.0476777 0.0243478 ) 53
( 0.318958 0.0171191 -0.00912861 ) 11
( 0.402792 0.0256826 0.00196091 ) 14
( 0.357833 0.0901805 0.0215325 ) 64
( 0.406926 0.0692431 -0.00967393 ) 23
( 0.364746 0.0211651 -0.0121726 ) 13
( 0.380835 0.0775889 0.0369186 ) 65
( 0.413017 0.0263902 0.023473 ) 48
( 0.465187 0.0398287 -0.00895195 ) 16
( 0.485399 0.0783227 0.000794471 ) 35
( 0.426637 0.0122817 0.0228904 ) 40
( 0.43432 0.0554076 0.00726834 ) 24
( 0.490023 0.00824851 0.0214591 ) 42
( 0.369764 0.0349404 0.00213637 ) 13
( 0.43391 0.0765353 0.0152297 ) 67
( 0.326095 0.0749656 0.0202265 ) 63
( 0.477225 0.0325808 0.00449778 ) 17
( 0.381086 0.0189866 -0.0013754 ) 13
( 0.394952 0.00324728 0.00420508 ) 5
( 0.269839 0.0713522 0.00538437 ) 18
( 0.287166 0.0174237 0.0216779 ) 44
( 0.269314 0.0317179 0.016336 ) 43
( 0.377448 0.0789545 0.0034341 ) 31
( 0.370044 0.0531458 0.0100378 ) 22
( 0.374328 0.0383863 0.0227584 ) 47
( 0.475918 0.060265 0.00232264 ) 26
( 0.321888 0.0732737 0.000873636 ) 29
( 0.361316 0.0521716 -0.00991858 ) 22
( 0.333156 0.0146689 0.0044254 ) 11
( 0.269162 0.0493419 0.00669176 ) 18
( 0.306673 0.03634 0.0108842 ) 11
( 0.291924 0.0835732 -0.0133721 ) 28
( 0.403283 0.0435213 0.0215046 ) 57
( 0.438111 0.0894436 0.000732779 ) 33
( 0.346266 0.0351328 0.00379949 ) 12
( 0.486098 0.026147 -0.0129621 ) 17
( 0.409884 0.00562496 -0.00911665 ) 5
( 0.440293 0.0105813 -0.00325868 ) 6
( 0.405244 0.0641198 0.0186061 ) 57
( 0.425308 0.0902838 -0.0141916 ) 33
( 0.267756 0.0226687 -0.00135352 ) 9
( 0.393898 0.0842009 -0.0064826 ) 32
( 0.490176 0.00702867 -0.0137169 ) 8
( 0.373339 0.0904882 -0.0118446 ) 31
( 0.489907 0.0679175 0.0172478 ) 60
( 0.41676 0.0381678 0.00797001 ) 15
( 0.353143 0.0106111 0.0336681 ) 37
( 0.276967 0.0902782 -0.00232512 ) 27
( 0.298768 0.0352959 -0.00968617 ) 10
( 0.38827 0.0259065 0.0155164 ) 47
( 0.26739 0.073686 0.0265836 ) 61
( 0.350855 0.0540546 0.00746229 ) 21
( 0.471386 0.0901136 -0.00789217 ) 34
( 0.467679 0.0719852 0.0153194 ) 68
( 0.455846 0.0318018 0.0143328 ) 50
( 0.283552 0.00262512 -0.00711897 ) 1
( 0.444542 0.00860678 0.0160458 ) 41
( 0.285515 0.0286761 0.00568236 ) 10
( 0.41878 0.0892107 0.0187379 ) 67
( 0.454752 0.023894 -0.00363932 ) 16
( 0.423856 0.0748495 -0.00177809 ) 33
( 0.343132 0.0273998 0.0368722 ) 46
( 0.254135 0.0609854 0.0116378 ) 18
( 0.300288 0.0902706 0.00338104 ) 28
( 0.340747 0.0859527 0.0129141 ) 30
( 0.302062 0.00509666 -0.0137633 ) 1
( 0.49047 0.0493347 0.00907897 ) 26
( 0.394206 0.0908507 0.0306145 ) 66
( 0.364641 0.0717369 -0.00998252 ) 31
( 0.490577 0.0902276 0.0151644 ) 69
( 0.25767 -0.00484335 -0.0122642 ) 0
( 0.275486 -0.0115607 0.0105504 ) 0
( 0.307842 0.0725329 0.0311004 ) 63
( 0.353356 0.00102422 0.0166718 ) 37
( 0.339655 -0.001431 -0.00479403 ) 3
( 0.338322 0.0902319 0.0320065 ) 64
( 0.456081 0.0816241 0.00298282 ) 34
( 0.317501 0.0273488 0.0333114 ) 45
( 0.490199 0.0482959 0.0288101 ) 60
( 0.328157 0.00925932 0.0246683 ) 36
( 0.458522 0.0477116 0.0321708 ) 59
( 0.283418 0.0385218 0.0410537 ) 44
( 0.436597 0.0666675 0.0444413 ) 90
( 0.331777 0.0575759 0.00705105 ) 20
( 0.36323 -0.00488754 0.0411338 ) 38
( 0.254299 0.0363332 0.0525366 ) 75
( 0.472456 -0.00322958 0.0457942 ) 74
( 0.318216 0.0509974 0.0496188 ) 86
( 0.301937 0.0904664 0.0424154 ) 62
( 0.382495 0.0618847 0.0479579 ) 88
( 0.354962 0.0843434 0.0536616 ) 96
( 0.490342 0.032704 0.0595718 ) 83
( 0.433873 -0.00719408 0.0483331 ) 72
( 0.430162 0.0897035 0.0516735 ) 99
( 0.364268 0.0559824 0.0525511 ) 88
( 0.352231 0.0411469 0.0223056 ) 46
( 0.284907 0.0898888 0.0541464 ) 94
( 0.475753 0.023157 0.049786 ) 83
( 0.26771 0.0494576 0.0459921 ) 84
( 0.393107 0.0140138 0.0624769 ) 71
( 0.46859 0.0901705 0.0487684 ) 100
( 0.417416 -0.00068718 0.05725 ) 72
( 0.443312 0.0273875 0.0509666 ) 81
( 0.364044 0.0342539 0.0540245 ) 79
( 0.413988 0.0522871 0.054456 ) 89
( 0.455148 0.0609631 0.0467735 ) 91
( 0.285771 0.0516479 0.05644 ) 85
( 0.405745 0.0864687 0.0555704 ) 98
( 0.270241 0.025013 0.0533117 ) 75
( 0.254941 0.0604249 0.056311 ) 84
( 0.405239 0.0356524 0.0601829 ) 80
( 0.344413 0.0332104 0.0557885 ) 78
( 0.490525 0.090331 0.0544454 ) 101
( 0.398024 -0.00473307 0.0586358 ) 71
( 0.419925 0.0707301 0.0690454 ) 90
( 0.382041 0.0400838 0.0598785 ) 79
( 0.286301 0.0676741 0.0258996 ) 53
( 0.426476 0.0361902 0.0558149 ) 81
( 0.375903 0.0808102 0.0556501 ) 97
( 0.376804 0.00344106 0.0596452 ) 70
( 0.377345 0.0887215 0.0208469 ) 65
( 0.312633 0.0302058 0.0604569 ) 77
( 0.333951 0.0765062 0.0610133 ) 96
( 0.268791 0.0728763 0.0633798 ) 93
( 0.474104 0.0646283 0.0479885 ) 92
( 0.345559 0.0612956 0.0650902 ) 87
( 0.461344 0.00238912 0.0606483 ) 73
( 0.450229 0.0905217 0.0563325 ) 100
( 0.443365 0.008306 0.055246 ) 72
( 0.311589 0.0697305 0.0522436 ) 86
( 0.389755 0.055676 0.0304553 ) 57
( 0.490252 -0.00518527 0.0539743 ) 74
( 0.400812 0.0664907 0.0532709 ) 89
( 0.474612 0.0441752 0.0619864 ) 92
( 0.418713 0.0730002 0.0490278 ) 99
( 0.45507 0.0717519 0.0304463 ) 68
( 0.436539 0.0549336 0.0609255 ) 90
( 0.379384 0.0252437 0.0464851 ) 79
( 0.490402 0.0663109 0.0370786 ) 60
( 0.469183 0.0309979 0.030056 ) 50
( 0.308676 0.0875759 0.0605891 ) 95
( 0.438118 0.0746293 0.0621146 ) 99
( 0.303253 0.0200586 0.0441226 ) 76
( 0.260104 0.0901076 0.0351503 ) 61
( 0.291719 0.0216704 0.0738478 ) 106
( 0.265424 0.0324809 0.0357417 ) 43
( 0.457877 0.0230843 0.0627182 ) 82
( 0.449442 0.0301388 0.032649 ) 50
( 0.337512 0.054841 0.0487421 ) 87
( 0.426883 0.016975 0.0494605 ) 81
( 0.292597 0.0734089 0.0438854 ) 94
( 0.395477 0.047324 0.0476432 ) 89
( 0.341881 -0.0103271 0.0356757 ) 37
( 0.363528 0.0141736 0.0497955 ) 70
( 0.3669 0.0906257 0.0391021 ) 65
( 0.490505 0.0131842 0.0623166 ) 74
( 0.490588 0.0108879 0.0426452 ) 42
( 0.458406 0.0153343 0.0447758 ) 82
( 0.407749 0.0188105 0.0502797 ) 80
( 0.401119 0.0536861 0.0716613 ) 119
( 0.391636 0.010621 0.0433587 ) 71
( 0.383103 -0.00621254 0.0389719 ) 38
( 0.425273 0.04699 0.0393361 ) 58
( 0.470643 0.0844507 0.030253 ) 68
( 0.438422 -0.00526212 0.0292715 ) 40
( 0.379396 0.0582608 0.0668661 ) 88
( 0.433576 0.0893906 0.0321198 ) 67
( 0.376528 0.0684828 0.0202515 ) 56
( 0.284551 0.0155001 0.0410237 ) 44
( 0.301802 0.0401285 0.0479862 ) 76
( 0.376162 0.0443394 0.041534 ) 56
( 0.345947 0.0901368 0.0703556 ) 96
( 0.362442 0.070609 0.0658358 ) 88
( 0.490104 0.0898679 0.0348347 ) 69
( 0.36222 0.0713022 0.0401826 ) 56
( 0.490562 0.0513642 0.0527069 ) 92
( 0.273494 0.068427 0.0447409 ) 84
( 0.437986 0.0604588 0.0261025 ) 58
( 0.326708 0.090089 0.0484982 ) 95
( 0.490278 0.0320032 0.0399942 ) 51
( 0.264969 0.0901398 0.0543932 ) 93
( 0.270173 0.0421731 0.0643284 ) 75
( 0.322995 0.0610525 0.0660695 ) 86
( 0.341135 0.0741884 0.0431195 ) 96
( 0.414585 0.0900329 0.0381742 ) 66
( 0.459973 0.0378685 0.050186 ) 82
( 0.452905 -0.00395844 0.0427931 ) 41
( 0.408861 0.0565626 0.0362304 ) 57
( 0.484195 -0.00780278 0.0308856 ) 42
( 0.440968 0.012831 0.0362341 ) 40
( 0.360043 0.0459373 0.0689257 ) 87
( 0.399751 0.073298 0.0351492 ) 66
( 0.288332 0.070317 0.0628575 ) 85
( 0.395912 0.0729412 0.0707173 ) 98
( 0.473774 0.0121541 0.0332954 ) 42
( 0.415344 0.00498623 0.0382553 ) 39
( 0.317956 0.0899492 0.0305998 ) 63
( 0.327934 0.0248849 0.049605 ) 77
( 0.473916 0.0595456 0.0287845 ) 60
( 0.362967 0.0278676 0.035259 ) 47
( 0.476438 0.0809428 0.063752 ) 101
( 0.475739 0.0235319 0.0693734 ) 83
( 0.282756 0.0900846 0.0344348 ) 62
( 0.421413 0.0708707 0.029572 ) 58
( 0.45294 0.0901962 0.0369332 ) 68
( 0.409425 0.0357729 0.0403246 ) 48
( 0.325092 0.0642631 0.0366893 ) 54
( 0.424219 0.0900705 0.0705638 ) 99
( 0.458491 0.0735541 0.0614347 ) 100
( 0.429776 0.0288481 0.033657 ) 49
( 0.296107 0.0552643 0.0374568 ) 53
( 0.425372 0.0121525 0.0702143 ) 72
( 0.292064 0.0892931 0.0725921 ) 124
( 0.304302 0.0546681 0.0630788 ) 85
( 0.404959 0.0901735 0.074905 ) 128
( 0.355828 0.0267423 0.0703141 ) 78
( 0.365891 0.0901197 0.0710397 ) 97
( 0.375509 0.0224861 0.0657121 ) 79
( 0.390972 0.0338577 0.0333573 ) 48
( 0.26834 0.0169217 0.0712243 ) 75
( 0.489904 0.0542037 0.0722439 ) 122
( 0.47582 0.0451669 0.0419774 ) 60
( 0.297935 0.0322456 0.0291932 ) 44
( 0.352644 0.0444821 0.0416242 ) 55
( 0.252381 0.0887529 0.0726052 ) 123
( 0.446365 0.0385768 0.0673593 ) 82
( 0.418979 0.0450174 0.0716275 ) 120
( 0.327248 0.0417097 0.0666041 ) 77
( 0.445406 -0.00452374 0.0699556 ) 73
( 0.416956 0.0605277 0.0857702 ) 120
( 0.458088 0.0542945 0.0650785 ) 91
( 0.289382 0.0272096 0.0558789 ) 76
( 0.37433 0.0108195 0.0334153 ) 38
( 0.339674 0.0737716 0.0797414 ) 126
( 0.317638 0.00537395 0.0407926 ) 36
( 0.490733 0.0297924 0.0793276 ) 113
( 0.305193 0.0725838 0.0729659 ) 124
( 0.306868 0.0318658 0.0821318 ) 107
( 0.250858 0.0264881 0.0720138 ) 105
( 0.278019 0.0575475 0.0742445 ) 115
( 0.391869 0.0301149 0.0735594 ) 110
( 0.490565 -0.0142532 0.0714878 ) 104
( 0.434633 0.0529527 0.0804109 ) 120
( 0.385811 0.0907744 0.0695636 ) 97
( 0.325111 0.0904192 0.0711036 ) 95
( 0.44453 0.0147217 0.073712 ) 112
( 0.463307 -0.00902772 0.0768433 ) 103
( 0.377607 0.0751884 0.0767977 ) 127
( 0.443371 0.0458917 0.0447458 ) 90
( 0.449375 0.0699734 0.0782548 ) 121
( 0.443493 0.088493 0.074626 ) 129
( 0.490721 0.0705846 0.0561029 ) 92
( 0.385437 0.046826 0.0817267 ) 118
( 0.272273 0.0900796 0.0727779 ) 123
( 0.272857 0.0332664 0.0818116 ) 105
( 0.342554 0.0468629 0.0777849 ) 117
( 0.358824 0.0768866 0.0842071 ) 126
( 0.490084 0.0104915 0.0896795 ) 104
( 0.467355 0.0381539 0.079198 ) 112
( 0.31418 0.0500989 0.0798136 ) 116
( 0.465264 0.0102385 0.0781248 ) 103
( 0.318484 0.0181029 0.0742456 ) 107
( 0.370583 0.0340386 0.0808674 ) 109
( 0.258491 0.0618202 0.0757553 ) 114
( 0.400003 0.0716212 0.0898334 ) 128
( 0.28796 0.0725764 0.0826129 ) 124
( 0.462493 0.0905179 0.0720036 ) 130
( 0.490756 0.0754968 0.0751257 ) 131
( 0.417172 0.0803323 0.0873972 ) 129
( 0.4311 0.030122 0.0766608 ) 111
( 0.392909 0.0900836 0.0903638 ) 128
( 0.366458 0.0590865 0.0814432 ) 118
( 0.338913 0.0276969 0.0801857 ) 108
( 0.42982 -0.0108483 0.0796548 ) 102
( 0.472922 0.0642301 0.0738423 ) 122
( 0.305341 0.0900624 0.0871945 ) 124
( 0.450936 0.0329242 0.0900737 ) 112
( 0.292612 0.0424981 0.0732143 ) 106
( 0.490284 0.0461837 0.0902478 ) 122
( 0.403227 0.0470044 0.0903089 ) 119
( 0.453628 0.0517097 0.0842602 ) 121
( 0.263113 0.089904 0.0902549 ) 123
( 0.41073 0.0281677 0.0774922 ) 110
( 0.264589 0.0498358 0.0902466 ) 114
( 0.320721 0.0715891 0.0849273 ) 125
( 0.4777 -0.00509061 0.0900997 ) 104
( 0.384628 0.0242731 0.0905906 ) 109
( 0.330609 0.0555829 0.0905514 ) 116
( 0.269726 0.0707813 0.0901037 ) 114
( 0.34606 0.0903105 0.0902455 ) 126
( 0.32442 0.0367916 0.0901932 ) 107
( 0.256314 0.027083 0.0905695 ) 105
( 0.434024 0.070228 0.0903589 ) 120
( 0.465538 0.0725262 0.0901927 ) 130
( 0.356468 0.0173303 0.0901502 ) 108
( 0.434582 0.00548911 0.0884799 ) 102
( 0.289734 0.0286225 0.091092 ) 106
( 0.475184 0.0236871 0.0902128 ) 113
( 0.490006 0.0900013 0.0900751 ) 131
( 0.282997 0.0900802 0.0902321 ) 124
( 0.382376 0.0637777 0.0911596 ) 118
( 0.451877 0.0131276 0.0912593 ) 103
( 0.303592 0.0629735 0.0902768 ) 115
( 0.486335 0.0658851 0.0906878 ) 122
( 0.422255 0.0419692 0.0905926 ) 111
( 0.284152 0.047469 0.0902469 ) 115
( 0.47185 0.0531026 0.0907639 ) 121
( 0.34957 0.0604861 0.0905036 ) 117
( 0.372915 0.0900001 0.0900752 ) 127
( 0.324783 0.0901532 0.0905439 ) 125
( 0.456476 0.0902626 0.090471 ) 130
( 0.421901 0.0197887 0.090693 ) 111
( 0.326671 0.017211 0.0911855 ) 107
( 0.353968 0.0370758 0.0905034 ) 108
( 0.433358 0.0905403 0.0906395 ) 129
)
