/*--------------------------------*- C++ -*----------------------------------*\
  =========                 |
  \\      /  F ield         | OpenFOAM: The Open Source CFD Toolbox
   \\    /   O peration     | Website:  https://openfoam.org
    \\  /    A nd           | Version:  4.x
     \\/     M anipulation  |
\*---------------------------------------------------------------------------*/
FoamFile
{
    version     2.0;
    format      ascii;
    class       Cloud<passiveParticle>;
    location    0;
    object      positions;
}
// * * * * * * * * * * * * * * * * * * * * * * * * * * * * * * * * * * * * * //

300
(
( 0.253396 0.0900609 -0.0561283 ) 63
( 0.251097 0.0316012 -0.0550581 ) 45
( 0.250907 0.0299964 -0.0352627 ) 81
( 0.254658 0.0693035 -0.0506177 ) 54
( 0.251693 0.0682533 -0.0701601 ) 54
( 0.251183 0.0107686 -0.0753903 ) 0
( 0.250409 0.0885988 -0.0220609 ) 99
( 0.250763 0.0359334 -0.0744798 ) 9
( 0.256618 0.0313081 -0.0151527 ) 81
( 0.381647 -0.0139508 -0.0338567 ) 76
( 0.421448 -0.0110357 -0.081044 ) 6
( 0.473749 -0.00610434 -0.0416395 ) 80
( 0.325154 -0.0105518 -0.0765384 ) 2
( 0.404453 -0.00380696 -0.0736654 ) 5
( 0.49005 -0.0109498 -0.0580162 ) 44
( 0.372232 -0.00593153 -0.0493543 ) 40
( 0.470036 -0.00165365 -0.0860661 ) 7
( 0.343258 -0.00286833 -0.0732472 ) 3
( 0.335256 -0.0140464 -0.032952 ) 75
( 0.439711 -0.00173756 -0.0580235 ) 42
( 0.322253 -0.0118471 -0.0475395 ) 38
( 0.361392 -0.000852838 -0.0652324 ) 40
( 0.311282 -0.00602135 -0.0629394 ) 38
( 0.354751 -0.012283 -0.0387644 ) 75
( 0.2728 -0.00314157 -0.0687242 ) 36
( 0.284458 -0.0122632 -0.0391009 ) 73
( 0.437117 0.00066961 -0.077572 ) 6
( 0.490076 -0.0122989 -0.0779333 ) 8
( 0.303026 -0.008519 -0.044609 ) 37
( 0.394572 -0.00440117 -0.0449322 ) 41
( 0.472449 -0.0115859 -0.068744 ) 44
( 0.275996 -0.0101058 -0.0201742 ) 72
( 0.473199 -0.0126646 -0.0212918 ) 80
( 0.388115 0.0265855 -0.0549122 ) 49
( 0.304588 0.0717943 -0.0649777 ) 64
( 0.337672 0.0639544 -0.0469369 ) 57
( 0.326126 0.0164746 -0.0485958 ) 47
( 0.443631 0.0376308 -0.0468116 ) 51
( 0.287311 0.0647001 -0.0583984 ) 55
( 0.331887 0.05083 -0.0606951 ) 56
( 0.456247 0.0127965 -0.0860873 ) 7
( 0.370187 0.0348921 -0.0533595 ) 49
( 0.490026 0.0228125 -0.0532571 ) 53
( 0.325126 0.0376165 -0.0748322 ) 11
( 0.293901 0.0258424 -0.0576477 ) 46
( 0.379758 0.00963583 -0.0643722 ) 40
( 0.471502 0.0672524 -0.0581232 ) 61
( 0.431784 0.0709783 -0.0625388 ) 60
( 0.456269 0.071082 -0.078666 ) 25
( 0.343355 0.0322375 -0.0690833 ) 48
( 0.320793 0.0461078 -0.0448091 ) 56
( 0.301658 0.0613275 -0.0452979 ) 55
( 0.369227 0.0542931 -0.0494327 ) 58
( 0.354386 0.0455038 -0.0593776 ) 57
( 0.325046 0.0853439 -0.0377406 ) 101
( 0.353739 0.0835668 -0.0696883 ) 66
( 0.452929 0.0771096 -0.0555704 ) 70
( 0.287101 0.0901204 -0.0314019 ) 100
( 0.417521 0.0203893 -0.048123 ) 51
( 0.335046 0.0725041 -0.0647189 ) 66
( 0.388893 0.0701977 -0.0537834 ) 59
( 0.471347 0.0901438 -0.0645619 ) 70
( 0.474172 0.067774 -0.0383939 ) 98
( 0.490001 0.0147805 -0.0839592 ) 17
( 0.265976 0.0160306 -0.0367183 ) 81
( 0.400527 0.0667813 -0.0696091 ) 59
( 0.327661 0.0285046 -0.0322687 ) 83
( 0.349781 0.0642442 -0.0207199 ) 93
( 0.396068 0.0137681 -0.0780513 ) 5
( 0.306972 0.031745 -0.040419 ) 83
( 0.303597 0.034914 -0.0724972 ) 10
( 0.458445 0.0433528 -0.0609142 ) 61
( 0.27317 0.0513627 -0.0544282 ) 54
( 0.411492 0.0510267 -0.0600518 ) 59
( 0.457558 0.024321 -0.0517604 ) 52
( 0.430699 0.0820271 -0.0789798 ) 33
( 0.366211 0.0410876 -0.0349237 ) 85
( 0.316656 0.0314664 -0.0578059 ) 47
( 0.47367 0.0304306 -0.0617836 ) 53
( 0.367196 0.0115429 -0.0797482 ) 4
( 0.291628 0.0900748 -0.0506947 ) 64
( 0.26979 0.0164651 -0.0712109 ) 45
( 0.405771 0.0262455 -0.0641814 ) 50
( 0.474359 0.0474086 -0.0502017 ) 62
( 0.441481 0.0387635 -0.0698878 ) 51
( 0.419978 0.0137928 -0.0705988 ) 42
( 0.347104 0.0806804 -0.0511252 ) 66
( 0.439121 0.0558723 -0.0405721 ) 96
( 0.437757 0.0205061 -0.0766974 ) 15
( 0.478592 0.0749159 -0.0751618 ) 35
( 0.335186 0.033879 -0.050927 ) 48
( 0.381295 0.0382082 -0.0695182 ) 49
( 0.461072 0.040622 -0.0376612 ) 88
( 0.402085 0.0837389 -0.0595015 ) 68
( 0.363863 0.0533809 -0.0749415 ) 22
( 0.281105 0.068253 -0.039727 ) 91
( 0.422936 0.0628148 -0.0783409 ) 24
( 0.372066 0.0898253 -0.0744552 ) 31
( 0.397403 0.02113 -0.0383213 ) 86
( 0.347672 0.0156367 -0.0791954 ) 12
( 0.353276 0.0296088 -0.0443791 ) 48
( 0.274172 0.0790418 -0.0547992 ) 63
( 0.489905 0.0339957 -0.0785722 ) 17
( 0.387395 0.0732862 -0.0849038 ) 31
( 0.458422 0.0291257 -0.0747735 ) 16
( 0.424545 0.0429613 -0.0795444 ) 24
( 0.28819 0.082517 -0.0687428 ) 64
( 0.431388 0.0737561 -0.0429923 ) 69
( 0.490016 0.0900057 -0.0822686 ) 35
( 0.294189 0.0526978 -0.0726685 ) 19
( 0.327157 0.005817 -0.0653084 ) 38
( 0.294398 0.0110432 -0.0710246 ) 37
( 0.351564 0.0159284 -0.0301603 ) 84
( 0.490031 0.0541346 -0.0823756 ) 26
( 0.413555 0.0679699 -0.0496847 ) 59
( 0.320003 0.0690218 -0.077282 ) 20
( 0.458143 0.0583357 -0.0462662 ) 61
( 0.381316 0.00958718 -0.0400611 ) 76
( 0.473326 0.0109298 -0.053867 ) 44
( 0.472449 0.0135954 -0.0735143 ) 8
( 0.28459 0.021074 -0.0408575 ) 82
( 0.269896 0.0318255 -0.0485831 ) 45
( 0.362358 0.0187777 -0.0618383 ) 49
( 0.472183 0.0230834 -0.0383689 ) 88
( 0.308835 0.0495757 -0.029407 ) 92
( 0.371641 0.0728902 -0.0630796 ) 67
( 0.438166 0.0900924 -0.0615721 ) 69
( 0.429287 0.00667276 -0.0396816 ) 78
( 0.488757 0.076534 -0.0485567 ) 71
( 0.391791 0.0508549 -0.0567733 ) 59
( 0.475055 0.0498155 -0.0699194 ) 62
( 0.406623 0.0515665 -0.0808115 ) 23
( 0.3989 0.0716535 -0.0367178 ) 104
( 0.393119 0.0901334 -0.0760337 ) 32
( 0.413012 0.0900857 -0.0749004 ) 32
( 0.274605 0.00934069 -0.0533121 ) 36
( 0.436942 0.0200255 -0.0540848 ) 51
( 0.444582 0.090042 -0.0429863 ) 70
( 0.356731 0.00638963 -0.0472692 ) 39
( 0.330415 0.0900869 -0.0562487 ) 65
( 0.490258 0.0414013 -0.0601362 ) 53
( 0.433346 0.0252873 -0.0352145 ) 87
( 0.343169 0.0155163 -0.0584393 ) 48
( 0.364308 0.0728008 -0.0446156 ) 67
( 0.490272 0.0380251 -0.0406138 ) 89
( 0.469961 0.0900637 -0.0847518 ) 34
( 0.419872 0.0507244 -0.041975 ) 96
( 0.284135 0.0519596 -0.0220687 ) 91
( 0.42608 0.0903012 -0.0339905 ) 105
( 0.3642 0.0902224 -0.0541632 ) 67
( 0.301161 0.0105721 -0.03955 ) 73
( 0.266247 0.0902106 -0.0404373 ) 99
( 0.301406 0.0440393 -0.0549459 ) 55
( 0.343477 0.0554532 -0.0761623 ) 21
( 0.353377 0.0652201 -0.0619246 ) 57
( 0.398813 0.00854355 -0.0590811 ) 41
( 0.383493 0.0900502 -0.0581931 ) 67
( 0.417757 0.00166446 -0.0550369 ) 42
( 0.448998 0.00808629 -0.0435779 ) 43
( 0.296236 0.0668353 -0.0272037 ) 91
( 0.385872 0.0567159 -0.0387872 ) 94
( 0.490579 0.0901668 -0.0623723 ) 71
( 0.39956 0.032997 -0.0818623 ) 14
( 0.308921 0.0129207 -0.0575345 ) 38
( 0.49014 0.0524251 -0.0264295 ) 98
( 0.490072 0.0903624 -0.0346495 ) 107
( 0.271417 0.0663664 -0.0700206 ) 54
( 0.308357 0.0799861 -0.0472277 ) 65
( 0.464525 0.0900903 -0.045952 ) 70
( 0.322618 0.0657189 -0.0341197 ) 92
( 0.490108 0.00465627 -0.0450856 ) 44
( 0.49004 0.0627528 -0.0643977 ) 62
( 0.267022 0.047186 -0.072875 ) 18
( 0.431386 0.0512455 -0.0582013 ) 60
( 0.347563 0.0904153 -0.0340589 ) 102
( 0.312158 0.0901426 -0.0639824 ) 65
( 0.405787 0.0902276 -0.0411163 ) 104
( 0.490374 0.057349 -0.0453232 ) 62
( 0.383201 0.0576863 -0.0733187 ) 22
( 0.455658 0.0495487 -0.0796024 ) 25
( 0.47346 0.0274882 -0.0877823 ) 17
( 0.267798 0.0901245 -0.0698916 ) 63
( 0.381954 0.08257 -0.0398517 ) 103
( 0.452609 0.0119784 -0.0665369 ) 43
( 0.445333 0.0892261 -0.0904063 ) 34
( 0.375617 0.0248493 -0.0287229 ) 85
( 0.335803 0.0900431 -0.0753876 ) 30
( 0.453876 0.0900113 -0.0729293 ) 34
( 0.319246 0.0646469 -0.0537262 ) 56
( 0.287525 0.0479824 -0.0412015 ) 91
( 0.448179 0.0599335 -0.0642963 ) 61
( 0.316369 0.0197341 -0.0746652 ) 11
( 0.474097 0.0715432 -0.0148474 ) 107
( 0.39377 0.06069 -0.0210417 ) 95
( 0.410955 0.0815019 -0.0243636 ) 104
( 0.318041 0.036973 -0.0169807 ) 83
( 0.455711 0.077705 -0.0162456 ) 106
( 0.391025 0.0155948 -0.0203371 ) 86
( 0.490031 0.0185673 -0.0308436 ) 89
( 0.324236 0.0606073 -0.0150724 ) 92
( 0.363733 0.0819388 -0.027146 ) 103
( 0.408038 0.0247076 -0.0172024 ) 86
( 0.440816 0.00388007 -0.0236203 ) 78
( 0.466978 0.0229207 -0.0192324 ) 88
( 0.349023 0.0850566 -0.0145612 ) 102
( 0.381033 0.0455836 -0.0230676 ) 94
( 0.448025 0.0607513 -0.023626 ) 97
( 0.431384 0.0440637 -0.0266054 ) 96
( 0.393393 0.0902849 -0.0255284 ) 104
( 0.415084 0.0430825 -0.0155581 ) 95
( 0.458397 0.00596014 -0.0147416 ) 79
( 0.490071 0.0722023 -0.0271202 ) 107
( 0.439836 0.025156 -0.0165186 ) 87
( 0.306298 0.0221365 -0.023162 ) 83
( 0.424128 0.0142768 -0.0213226 ) 78
( 0.270205 0.0900493 -0.020923 ) 99
( 0.333765 0.0124402 -0.0221691 ) 75
( 0.415322 0.0620384 -0.0263085 ) 95
( 0.331345 0.0782734 -0.0203807 ) 101
( 0.271121 0.0348118 -0.0289826 ) 81
( 0.381072 0.0751822 -0.0214808 ) 103
( 0.47153 0.0895795 -0.0275128 ) 106
( 0.490074 0.089944 -0.0146802 ) 107
( 0.260131 0.0468911 -0.0401188 ) 90
( 0.256552 -0.000260489 -0.0573471 ) 36
( 0.45967 -0.00327382 -0.0560507 ) 43
( 0.321924 -0.00176926 -0.0157772 ) 74
( 0.362828 0.0334265 -0.0753152 ) 13
( 0.419964 0.0900849 -0.0547083 ) 69
( 0.319275 0.0053609 -0.033862 ) 74
( 0.489767 0.00731984 -0.0655032 ) 44
( 0.409698 0.00579087 -0.0369374 ) 77
( 0.280846 0.0330703 -0.0707058 ) 46
( 0.266384 0.0564267 -0.0145712 ) 90
( 0.442973 0.0903768 -0.0234591 ) 105
( 0.474832 0.00633341 -0.0262273 ) 80
( 0.262974 0.0722185 -0.0328717 ) 99
( 0.388151 -0.00838224 -0.0632042 ) 40
( 0.424111 0.0332123 -0.0622067 ) 51
( 0.269521 0.0104132 -0.0180479 ) 72
( 0.428321 -0.0127681 -0.0422378 ) 78
( 0.266697 -0.0036653 -0.0405529 ) 72
( 0.397016 -0.00295012 -0.0244371 ) 77
( 0.337806 0.000481948 -0.0462861 ) 39
( 0.254964 -0.00878917 -0.0753331 ) 0
( 0.331814 0.0475864 -0.0281635 ) 92
( 0.455796 0.0751408 -0.0359098 ) 106
( 0.377427 -0.00558978 -0.0797002 ) 4
( 0.313559 0.05239 -0.0682633 ) 56
( 0.403289 0.0374049 -0.047977 ) 50
( 0.253741 0.0510316 -0.0584783 ) 54
( 0.289444 -0.00310601 -0.0579224 ) 37
( 0.349443 0.0495911 -0.0406315 ) 93
( 0.314353 -0.013848 -0.0292648 ) 74
( 0.41578 0.0334164 -0.0331797 ) 86
( 0.347783 -0.00226404 -0.023066 ) 75
( 0.490169 -0.00979197 -0.0311512 ) 80
( 0.290967 0.0340642 -0.0275216 ) 82
( 0.27819 0.0714431 -0.020061 ) 100
( 0.36847 0.0606659 -0.0267887 ) 94
( 0.365773 0.00204339 -0.0303052 ) 76
( 0.452485 0.0238524 -0.03222 ) 88
( 0.306302 0.0853948 -0.028248 ) 101
( 0.477109 0.0378107 -0.0261572 ) 89
( 0.250938 0.0141053 -0.0235763 ) 72
( 0.420446 -0.00484849 -0.0242866 ) 78
( 0.350614 0.0418158 -0.0225542 ) 84
( 0.468382 0.0552372 -0.0242494 ) 97
( 0.295719 -0.011031 -0.0231187 ) 73
( 0.432215 0.0736854 -0.0230026 ) 105
( 0.287169 0.00670757 -0.0262529 ) 73
( 0.457034 -0.00498763 -0.0311072 ) 79
( 0.399941 0.0437245 -0.0284628 ) 95
( 0.450168 0.0411943 -0.0213191 ) 88
( 0.346855 -0.0137694 -0.0569838 ) 39
( 0.282305 -0.0120116 -0.0837875 ) 1
( 0.471114 0.060243 -0.0864217 ) 25
( 0.381009 0.0251257 -0.0845488 ) 13
( 0.384488 0.0444672 -0.0881797 ) 22
( 0.301285 0.06744 -0.0841264 ) 19
( 0.347907 0.0394026 -0.0871146 ) 12
( 0.445363 0.0343529 -0.0889289 ) 16
( 0.27626 0.0793185 -0.0843729 ) 27
( 0.283563 0.0197308 -0.0852896 ) 10
( 0.329956 0.00835823 -0.0848586 ) 2
( 0.279379 0.0565178 -0.0854271 ) 19
( 0.364779 0.0721323 -0.0817554 ) 31
( 0.302872 0.0873429 -0.0813808 ) 28
( 0.311688 0.0459534 -0.0870262 ) 20
( 0.266975 0.0307949 -0.084828 ) 9
( 0.343717 0.0738166 -0.0838837 ) 30
( 0.357575 0.0900285 -0.088145 ) 30
( 0.408619 0.0742562 -0.0862196 ) 32
( 0.253932 0.0900496 -0.0841663 ) 27
( 0.417556 0.0256121 -0.0864332 ) 15
( 0.309272 0.0021745 -0.0809773 ) 2
( 0.438332 0.0546569 -0.0880286 ) 24
( 0.261536 0.065697 -0.0873124 ) 18
( 0.290575 0.0392699 -0.086974 ) 10
( 0.302849 0.0234584 -0.0888231 ) 10
)
