/*--------------------------------*- C++ -*----------------------------------*\
  =========                 |
  \\      /  F ield         | OpenFOAM: The Open Source CFD Toolbox
   \\    /   O peration     | Website:  https://openfoam.org
    \\  /    A nd           | Version:  4.x
     \\/     M anipulation  |
\*---------------------------------------------------------------------------*/
FoamFile
{
    version     2.0;
    format      ascii;
    class       vectorField;
    location    0;
    object      v;
}
// * * * * * * * * * * * * * * * * * * * * * * * * * * * * * * * * * * * * * //

300
(
( -1.37049e-05 -2.46453e-05 5.41663e-05 )  
( -0.000117375 -6.01838e-05 -1.675e-05 )  
( -0.000148795 -3.99104e-05 -1.20616e-05 )  
( -9.18963e-05 -6.82266e-05 1.1738e-05 )  
( -0.000102924 -6.20112e-05 2.17992e-06 )  
( -0.000119886 -1.79477e-05 -3.3655e-05 )  
( -8.1605e-05 -4.14648e-05 2.00542e-05 )  
( -0.000104415 -5.24488e-05 -3.5537e-05 )  
( -0.000158435 -9.92558e-06 -1.82216e-08 )  
( -0.000148209 1.22031e-05 2.13251e-05 )  
( -0.000155186 -2.36051e-06 8.84989e-05 )  
( -1.41458e-05 -4.73176e-05 7.47025e-05 )  
( -0.00012261 3.59793e-05 4.78186e-06 )  
( -0.000184694 1.76703e-05 3.44849e-05 )  
( 5.45857e-06 -2.6361e-05 0.000120234 )  
( -0.000143771 3.42846e-05 1.9729e-05 )  
( -0.000798828 -0.000100128 0.000334815 )  
( -0.000136364 3.71877e-05 1.36923e-05 )  
( -0.000139153 2.61193e-05 1.04306e-05 )  
( -0.000164824 -2.88723e-05 7.42293e-05 )  
( -0.000141078 3.76737e-05 8.55598e-06 )  
( -0.000143831 3.94905e-05 1.82037e-05 )  
( -0.000125463 3.7698e-05 -3.42403e-06 )  
( -0.000141699 2.23316e-05 1.25511e-05 )  
( -0.000131955 6.41581e-06 -3.54618e-05 )  
( -0.000135097 2.4657e-05 -2.57076e-05 )  
( -0.000189944 1.97832e-05 9.52998e-05 )  
( -9.38426e-06 3.65367e-05 0.000122028 )  
( -0.000137285 1.97479e-05 -1.56638e-05 )  
( -0.000149868 1.08889e-05 3.35459e-05 )  
( 3.41686e-07 -8.36881e-06 0.000162254 )  
( -0.000173289 -5.63779e-06 -8.6043e-06 )  
( -4.95459e-05 1.36128e-05 4.13358e-05 )  
( -0.000197028 2.21277e-05 3.7419e-05 )  
( -0.000125124 3.70229e-05 7.23989e-06 )  
( -0.000187939 3.77687e-06 2.54207e-05 )  
( -0.0001542 1.81835e-05 1.6268e-05 )  
( -0.000134065 3.50389e-05 6.23858e-05 )  
( -0.000102432 -7.76633e-06 1.6781e-06 )  
( -0.000171957 1.21159e-05 1.08194e-05 )  
( -0.000559845 0.000127189 9.85058e-05 )  
( -0.00019246 2.57407e-05 2.63457e-05 )  
( -1.96222e-05 -2.98231e-05 3.58748e-05 )  
( -0.000140572 3.31176e-05 1.26332e-05 )  
( -0.000120535 1.58033e-05 -1.07424e-05 )  
( -0.000173303 2.5432e-05 3.47631e-05 )  
( -0.000263588 0.000360829 0.000123134 )  
( -0.000232683 4.39438e-05 1.76468e-05 )  
( -0.000144349 -1.48548e-05 7.75169e-05 )  
( -0.000169025 2.34596e-05 2.61157e-05 )  
( -0.000212679 2.11032e-06 -2.619e-05 )  
( -0.000107467 2.07511e-05 -4.27792e-06 )  
( -0.000198734 1.27441e-05 1.3211e-05 )  
( -0.000206539 2.03633e-05 3.47618e-05 )  
( -0.000216123 5.15332e-05 4.13132e-05 )  
( -0.000293156 3.43597e-05 3.77102e-05 )  
( -0.000208907 6.96401e-05 -1.61051e-05 )  
( -6.0822e-05 2.12916e-05 1.45524e-06 )  
( -0.000176634 -1.1513e-05 2.8661e-05 )  
( -0.000218942 1.69222e-05 2.20413e-05 )  
( -0.000278744 4.3285e-06 3.94281e-05 )  
( -6.49363e-05 -9.00059e-06 1.64416e-06 )  
( -8.50188e-05 0.000147216 0.00010168 )  
( -1.07699e-05 -8.88321e-05 6.20217e-05 )  
( -0.000146828 -6.72303e-06 -2.39693e-05 )  
( -0.000282525 2.636e-06 5.59123e-05 )  
( -0.000148579 2.19246e-05 -4.7693e-07 )  
( -0.000181237 -2.05875e-05 1.51979e-05 )  
( -0.000191719 2.63857e-05 4.46109e-05 )  
( -0.000134774 3.37835e-05 -7.41234e-06 )  
( -0.00012826 3.29421e-05 -8.47532e-06 )  
( -0.000163864 7.16224e-05 0.000126082 )  
( -8.58274e-05 -2.9692e-05 -1.09237e-05 )  
( -0.000238937 1.16097e-05 1.26899e-05 )  
( -0.000149342 -1.71257e-07 0.000168 )  
( -0.00020175 6.97156e-05 8.5509e-06 )  
( -0.000188477 1.003e-05 2.15566e-05 )  
( -0.000160788 2.48731e-05 -8.89034e-07 )  
( -0.00012112 8.40929e-05 0.000300737 )  
( -0.000161788 3.69954e-05 1.8956e-05 )  
( -5.5723e-05 4.39363e-05 -8.76208e-06 )  
( -0.000114194 -1.88295e-05 -2.84129e-05 )  
( -0.000200666 2.10661e-05 5.2654e-05 )  
( -5.51748e-05 9.61943e-06 4.8349e-05 )  
( -0.00018946 1.8802e-05 0.000147864 )  
( -0.000201529 2.34522e-05 6.00469e-05 )  
( -0.000264724 1.54005e-05 4.24106e-05 )  
( -0.000207374 2.28988e-05 5.56118e-05 )  
( -0.000162796 -2.28028e-08 0.000167053 )  
( -9.62305e-05 -3.73523e-05 1.44289e-05 )  
( -0.000179174 2.41059e-05 1.63745e-05 )  
( -0.000214097 2.52369e-05 3.05662e-05 )  
( -0.000102095 3.45211e-05 3.35504e-05 )  
( -0.000284423 1.00163e-06 2.49889e-05 )  
( -0.000247 2.2183e-05 3.88191e-05 )  
( -6.72852e-05 -9.78423e-06 1.04833e-05 )  
( -0.000268501 4.70096e-05 3.67001e-05 )  
( -0.000305439 3.95469e-05 5.26975e-05 )  
( -0.000165003 1.47246e-05 3.19759e-05 )  
( -0.000145239 4.35862e-05 1.31237e-05 )  
( -0.000188403 2.55437e-05 1.58174e-05 )  
( -3.9637e-05 1.13174e-05 1.70684e-05 )  
( -6.23874e-05 -7.74988e-05 2.78723e-05 )  
( -0.000748592 0.000166277 8.89035e-05 )  
( -0.000197539 2.60488e-05 0.000176525 )  
( -0.000206973 2.84388e-05 0.000104464 )  
( -6.73906e-05 3.29361e-05 1.61641e-05 )  
( -0.000275616 -1.72319e-05 3.28525e-05 )  
( -2.58209e-06 2.12984e-06 -1.01734e-05 )  
( -8.28081e-05 3.29964e-05 -7.20576e-06 )  
( -0.000141768 3.03934e-05 1.06233e-05 )  
( -9.95218e-05 9.39845e-06 -1.96509e-05 )  
( -0.000161841 1.50929e-05 9.72319e-06 )  
( 1.23608e-06 -0.000253548 0.000150124 )  
( -0.000248367 -6.67887e-06 -1.63927e-07 )  
( -0.000156958 3.53954e-05 -8.63488e-06 )  
( -0.000150759 -1.49807e-05 -4.09896e-05 )  
( -0.00015388 8.14052e-06 2.72916e-05 )  
( -3.16292e-05 -8.37125e-05 9.01695e-05 )  
( -0.000227541 -1.45959e-05 0.000113296 )  
( -0.000130311 -4.99704e-07 -1.5247e-05 )  
( -0.000127262 -3.94377e-05 -5.12601e-06 )  
( -0.000167676 3.30729e-05 1.75171e-05 )  
( -2.73629e-05 -1.17692e-05 2.31524e-05 )  
( -0.000183844 -5.87052e-06 -1.28383e-05 )  
( -0.00026363 3.19011e-05 1.48283e-05 )  
( -0.000212464 1.78923e-06 -2.76333e-05 )  
( -0.00014648 8.95276e-06 2.68535e-05 )  
( -3.88051e-05 -1.31439e-05 3.22306e-06 )  
( -0.000244811 1.07538e-05 3.09009e-05 )  
( -0.000123161 -6.9607e-05 6.29276e-05 )  
( -0.000226356 1.72398e-05 7.6419e-05 )  
( -0.000223158 1.73847e-05 1.59617e-05 )  
( -0.000248619 1.71022e-05 3.30836e-05 )  
( -0.000239994 7.96304e-06 5.21267e-05 )  
( -0.000135309 -8.3067e-06 -1.92367e-05 )  
( -0.000242502 -8.26394e-05 3.50841e-05 )  
( -0.000236232 1.91386e-05 -1.75322e-05 )  
( -0.000146863 2.90942e-05 2.04036e-05 )  
( -0.000226021 3.26112e-05 4.39693e-05 )  
( -3.37101e-05 -3.03637e-05 5.06592e-06 )  
( -0.000148361 1.94003e-05 1.88795e-05 )  
( -0.000153309 2.13401e-05 2.19535e-05 )  
( -0.000238061 -2.05925e-05 1.13525e-05 )  
( -1.31151e-05 -1.26062e-05 1.80729e-05 )  
( -0.000142145 -2.05454e-05 3.98859e-05 )  
( -0.000232497 4.32269e-06 2.64175e-05 )  
( -0.000117159 3.53696e-06 -1.45277e-05 )  
( -0.000158308 1.10389e-05 1.12632e-05 )  
( -0.000278641 1.38681e-05 5.49703e-05 )  
( -0.000141984 1.30791e-05 -9.23905e-06 )  
( -1.81193e-05 -1.00283e-05 5.86618e-07 )  
( -0.000123859 3.61638e-05 -3.476e-06 )  
( -0.000213612 1.9999e-05 1.99157e-05 )  
( -0.000248766 3.26314e-05 3.10669e-05 )  
( -0.000177053 1.7395e-05 4.21396e-05 )  
( -0.000291917 -1.50577e-06 4.86756e-05 )  
( -0.000160675 -9.82416e-06 3.12059e-05 )  
( -0.00014035 4.14797e-07 3.12863e-05 )  
( -0.000105925 1.22152e-05 1.1427e-05 )  
( -0.000217515 1.66408e-05 2.53941e-05 )  
( -2.56884e-05 -1.11755e-05 -1.56709e-05 )  
( -0.000206139 2.24075e-05 5.46428e-05 )  
( -0.00012855 2.44017e-05 -5.34299e-07 )  
( -8.01408e-06 -1.61244e-05 1.64647e-05 )  
( -6.76939e-06 -4.75067e-06 -1.95936e-06 )  
( -8.43839e-05 -3.62384e-05 -5.39519e-06 )  
( -0.000120254 2.48625e-05 5.37684e-06 )  
( -9.83542e-05 -7.50651e-06 -1.05978e-05 )  
( -0.000176822 1.02138e-05 1.28873e-05 )  
( 1.61235e-06 -4.43017e-05 5.04636e-05 )  
( -2.70783e-05 6.17583e-08 2.274e-05 )  
( -8.13344e-05 -4.30776e-05 -1.47142e-05 )  
( -0.0002144 3.35342e-05 7.20584e-05 )  
( -0.000163475 1.8148e-05 3.07146e-05 )  
( -0.000164819 4.32181e-05 2.58059e-05 )  
( -0.000167652 2.18538e-05 7.56602e-06 )  
( -1.19899e-05 -2.49187e-05 1.60204e-05 )  
( -0.000262379 1.27263e-05 4.1221e-05 )  
( -0.000240885 1.48064e-05 0.000109873 )  
( -0.000198888 4.9928e-05 0.000183237 )  
( -3.55064e-06 1.28689e-05 3.3701e-05 )  
( -0.000249578 -2.02028e-06 4.56046e-05 )  
( -0.000145982 -9.75409e-06 0.000164711 )  
( -9.61288e-05 2.16766e-05 2.26597e-05 )  
( -0.000162779 1.36554e-05 1.69876e-05 )  
( -0.000311249 -5.00584e-06 4.70247e-05 )  
( -0.000128494 -6.39807e-06 6.06464e-05 )  
( -0.000136238 1.66023e-05 2.30089e-06 )  
( -9.12553e-05 1.98327e-05 -3.25073e-06 )  
( -0.000223673 4.11801e-05 6.40092e-05 )  
( -0.000125175 3.51164e-05 6.19434e-06 )  
( -4.55978e-05 3.68033e-05 -2.21745e-05 )  
( -0.000169896 -4.33314e-07 1.17762e-05 )  
( -0.000185793 1.68345e-05 7.81012e-06 )  
( -0.000148337 1.45078e-05 -9.23338e-06 )  
( -9.32726e-05 -2.06845e-05 -8.44207e-06 )  
( -0.000149362 1.13885e-06 1.7778e-05 )  
( -1.76873e-05 -1.4324e-05 8.57516e-06 )  
( -0.000146331 1.43972e-05 2.98403e-06 )  
( -0.000201337 -5.32806e-05 -1.48904e-06 )  
( -0.000140314 -1.7155e-05 2.13366e-05 )  
( -9.79479e-05 -8.32225e-06 1.13764e-05 )  
( -9.38855e-05 2.7358e-05 -1.0475e-05 )  
( -0.000141426 2.54729e-05 4.9455e-06 )  
( -0.000174271 -4.84603e-07 1.51826e-05 )  
( -0.00015648 1.356e-05 4.81661e-05 )  
( -0.000151913 -1.58255e-05 2.49012e-05 )  
( -0.000196203 -4.97922e-06 1.89716e-05 )  
( -0.000153698 -1.81159e-05 7.13765e-06 )  
( -7.06613e-05 8.81886e-06 5.2464e-06 )  
( -2.11916e-07 -1.32885e-05 -1.38858e-05 )  
( -0.000126804 5.81021e-06 1.44293e-05 )  
( -0.000149396 1.14867e-05 -1.27176e-05 )  
( -0.000120643 2.73934e-06 9.71109e-06 )  
( -8.3336e-05 1.10482e-05 -1.14141e-05 )  
( -0.000154137 1.32723e-05 2.99343e-06 )  
( -0.000216833 -1.63653e-06 5.68844e-06 )  
( -0.000149024 2.43523e-05 -2.76107e-06 )  
( -0.00010847 -3.05488e-05 -5.80334e-06 )  
( -0.000193657 -1.92896e-05 1.66239e-05 )  
( -3.41581e-05 -1.28884e-05 -3.24226e-05 )  
( -4.54298e-07 9.50758e-08 5.45725e-07 )  
( -0.000120417 -6.12312e-05 -1.31593e-05 )  
( -0.000149968 -2.11858e-05 -2.60059e-05 )  
( -8.12458e-05 -3.46716e-05 0.000114629 )  
( -0.000157071 2.01808e-05 5.38572e-06 )  
( -0.000204549 2.32582e-05 2.0886e-05 )  
( -0.000250579 -8.2771e-06 -8.1437e-05 )  
( -0.000153369 1.54204e-05 3.08856e-06 )  
( -3.94943e-05 -5.31871e-05 7.05473e-05 )  
( -0.000144618 1.2631e-05 2.43064e-05 )  
( -0.000107933 -2.45836e-05 -2.6087e-05 )  
( -0.000106813 6.60961e-06 7.2291e-06 )  
( -0.000117783 -1.31279e-05 -1.56239e-05 )  
( -5.89541e-05 2.14962e-05 2.08235e-05 )  
( -6.6845e-05 -4.23473e-05 1.43328e-05 )  
( -0.00017984 1.86915e-05 4.27435e-05 )  
( -0.000217334 3.24504e-05 9.21507e-05 )  
( -0.000166838 -1.97409e-06 -2.13309e-05 )  
( -0.000146437 -3.57093e-06 4.62653e-05 )  
( -0.000146229 1.33965e-05 -2.05771e-05 )  
( -0.000140003 2.05035e-07 2.34547e-05 )  
( -0.000142071 3.1318e-05 1.51184e-05 )  
( -0.000114186 2.37988e-05 -6.51411e-05 )  
( -0.000156012 2.57147e-05 -1.84779e-06 )  
( -0.000192565 -8.57422e-07 -3.02986e-05 )  
( -0.000162262 3.05874e-05 2.96528e-05 )  
( -0.000124217 3.57995e-05 -6.61429e-06 )  
( -0.000206395 3.62853e-05 3.95252e-05 )  
( -9.70946e-05 -6.06714e-05 -1.21467e-05 )  
( -0.000121201 -4.57505e-06 -3.07831e-05 )  
( -0.000184192 2.13423e-05 2.9261e-05 )  
( -0.000147665 2.78425e-05 1.23929e-07 )  
( -0.000175874 -1.31215e-05 1.85662e-05 )  
( -0.00014016 1.05402e-05 1.51373e-05 )  
( -4.50429e-06 -1.1997e-05 9.08636e-05 )  
( -0.00012589 5.22857e-06 -1.62639e-05 )  
( -0.000102924 3.68887e-06 1.70429e-05 )  
( -0.000180402 -1.61468e-05 6.06561e-06 )  
( -0.000149984 1.93702e-05 2.02915e-05 )  
( -0.000125819 2.20879e-05 5.70989e-07 )  
( -0.000116334 3.86598e-05 5.0642e-06 )  
( -6.18986e-05 2.44665e-05 -7.84512e-06 )  
( -0.000164379 -1.77802e-05 -1.0807e-05 )  
( -0.000119617 5.20816e-06 1.68293e-05 )  
( -0.000170631 7.98406e-06 1.34095e-05 )  
( -8.30635e-05 2.94805e-05 -2.9563e-06 )  
( -0.000147831 6.7473e-06 -1.56185e-05 )  
( -0.000200803 2.20862e-05 -3.78623e-05 )  
( -0.000163434 4.06908e-06 -1.67266e-05 )  
( -6.76415e-05 1.53385e-05 1.07709e-05 )  
( -0.000181125 -1.50834e-05 8.45029e-06 )  
( -0.00013588 1.28144e-05 1.88682e-05 )  
( -0.000137695 2.736e-05 1.36535e-05 )  
( -0.000111086 5.0832e-05 -4.62634e-05 )  
( -0.000186298 -6.57597e-05 7.64656e-05 )  
( -0.000187774 2.38015e-05 3.30415e-05 )  
( -0.000214967 2.06298e-05 3.37991e-05 )  
( -0.000177551 0.000139524 1.94357e-05 )  
( -0.000208331 2.42048e-05 2.29852e-05 )  
( -0.000190295 -2.51657e-05 0.000163474 )  
( -2.6232e-05 -2.16275e-05 1.24794e-05 )  
( -8.11325e-05 -2.12398e-05 -2.40561e-05 )  
( -0.000169524 0.000127539 1.2431e-05 )  
( -5.94339e-05 -4.43148e-06 3.07804e-06 )  
( -0.000305278 2.14983e-05 2.94769e-05 )  
( -0.000159053 0.000201589 1.16813e-05 )  
( -0.000119006 3.22245e-05 -6.7935e-06 )  
( -0.000108932 -4.2141e-05 -3.66787e-05 )  
( -0.000289587 2.06746e-05 3.62187e-05 )  
( -0.000297753 1.01303e-05 4.43841e-05 )  
( -0.000321337 2.7133e-05 5.0411e-05 )  
( -7.8464e-05 -2.01483e-05 8.9352e-05 )  
( -0.000196895 4.12368e-05 7.05331e-05 )  
( -8.71985e-05 3.20589e-05 -6.2861e-06 )  
( -0.000245776 7.77942e-06 9.07257e-05 )  
( -8.0661e-05 -0.000148762 7.19268e-06 )  
( -9.9343e-05 1.56201e-05 -9.49756e-06 )  
( -9.38331e-05 5.93736e-06 -5.99939e-06 )  
)
