/*--------------------------------*- C++ -*----------------------------------*\
| =========                 |                                                 |
| \\      /  F ield         | OpenFOAM: The Open Source CFD Toolbox           |
|  \\    /   O peration     | Version:  4.x                                   |
|   \\  /    A nd           | Web:      www.OpenFOAM.org                      |
|    \\/     M anipulation  |                                                 |
\*---------------------------------------------------------------------------*/
FoamFile
{
    version     2.0;
    format      ascii;
    class       volVectorField;
    location    "17.5";
    object      U;
}
// * * * * * * * * * * * * * * * * * * * * * * * * * * * * * * * * * * * * * //

dimensions      [0 1 -1 0 0 0 0];

internalField   nonuniform List<vector> 
114
(
(0.0368593 0.000386829 -1.99046e-05)
(0.0157102 -0.000942339 -0.000929348)
(0.0404001 0.00130929 0.00144103)
(0.0139232 -0.00262999 -0.00204423)
(0.0481283 0.0031354 0.00410223)
(0.00931809 -0.0102196 -0.00807039)
(0.00537433 -0.000540709 -0.000273338)
(0.0311415 -0.000270903 0.00103937)
(0.00639505 -0.00139987 -0.000804205)
(0.0320091 0.00048763 0.000757171)
(0.00768988 -0.00401391 -0.00249384)
(0.0302027 0.00335329 0.00168195)
(0.00890022 -0.0158506 -0.00822792)
(0.0293022 -0.000471381 0.000391797)
(0.00339633 -0.000650859 -0.000178378)
(0.0295177 -0.000284419 0.000728542)
(0.00235176 -0.000728946 -0.000198952)
(0.0289854 0.000511835 0.000337279)
(0.00163443 -0.000776563 -0.000280675)
(0.0259731 0.0028892 0.000382811)
(0.00461812 -0.00243215 -0.00148649)
(0.0137482 -0.000630179 -0.000605674)
(0.0321636 -0.000549342 -9.88235e-05)
(0.0124151 -0.000726137 -0.000403541)
(0.0326625 0.000292593 0.000729982)
(0.010047 -0.00111512 9.36375e-06)
(0.0322012 0.00124597 0.00202166)
(0.00643549 -0.00150993 0.000629124)
(0.0267159 0.00282352 0.00259075)
(0.00304067 -0.00116082 0.0013471)
(0.00209566 -0.000228092 -9.43524e-05)
(0.0276468 0.000196419 0.000461618)
(-2.71659e-07 2.20448e-08 -1.7237e-08)
(0.0269881 0.000409427 0.000929373)
(-2.17414e-07 7.57414e-09 -2.5054e-08)
(0.0250787 0.0012801 0.00122764)
(-1.24075e-07 1.55478e-08 -1.729e-08)
(0.0194878 0.0033081 0.00196721)
(0.00166515 -0.000427244 -0.000422666)
(0.00032116 -3.41769e-05 -4.50003e-06)
(0.0270603 0.00040475 0.000888072)
(-3.49929e-07 2.43456e-08 -9.33521e-09)
(0.0271126 0.000223994 0.00088755)
(-2.77416e-07 2.02519e-08 -1.46914e-08)
(0.0266293 0.000972584 0.00053948)
(-1.40856e-07 1.25104e-08 -1.43787e-08)
(0.0256762 0.00211712 -0.000243148)
(0.00328352 0.000901309 -0.000358911)
(-3.36221e-07 -6.75985e-09 -3.82759e-08)
(0.0265362 -4.59095e-05 0.000715514)
(0.0166827 -0.00061938 -8.42142e-05)
(0.0343806 -0.00028579 0.000460876)
(0.0167108 -0.000914251 0.000403169)
(0.0368079 0.000402976 0.000998626)
(0.0167198 -0.00176419 0.00182514)
(0.0413111 0.00140625 0.00175639)
(0.0159993 -0.0043788 0.00599342)
(0.0507606 0.00379629 0.000443741)
(0.0103734 -0.0152189 0.0166896)
(0.00474195 -0.000248719 8.60733e-05)
(0.029137 -0.000208303 0.00106041)
(0.00474484 -0.000430994 0.000230857)
(0.0300857 1.43872e-05 0.000738747)
(0.00620627 -0.00114933 0.000648756)
(0.0311991 0.000724487 0.00060928)
(0.00848756 -0.00383066 0.00221494)
(0.0306151 0.00345616 -5.06893e-05)
(0.0108509 -0.0174415 0.00752422)
(0.00461396 -0.0004925 0.000310467)
(0.0291882 -0.000550927 0.000508584)
(0.00486767 -0.000810717 0.000504604)
(0.0299844 -0.000466576 0.000647959)
(0.00516063 -0.0013677 0.00081481)
(0.0301492 0.000135365 -6.90626e-05)
(0.00538189 -0.00252894 0.00136321)
(0.0274166 0.00287897 -0.00263138)
(0.00621021 -0.00453883 0.00159282)
(0.00287927 -0.000164078 0.000183361)
(0.0267609 -0.000239628 0.000866364)
(0.00118924 -8.97364e-05 9.8569e-05)
(0.026018 -7.84616e-05 0.00077531)
(0.0206922 -0.000574943 -0.000298185)
(0.0363652 -0.000203196 -0.000191978)
(0.0211171 -0.000801542 -0.000618923)
(0.0390612 0.000136795 -0.000344254)
(0.0214782 -0.00192166 -0.000643091)
(0.0451449 0.000812171 -0.000299868)
(0.0213015 -0.00530047 0.000257117)
(0.0635871 0.00230146 -0.000183458)
(0.0158279 -0.0223562 0.00125208)
(0.0169295 -0.000640047 -5.05366e-05)
(0.0334279 -0.000414859 0.000103913)
(0.0175816 -0.00109557 -0.000231343)
(0.0347921 -0.000362622 -0.000404871)
(0.0179065 -0.00232482 -0.000489539)
(0.0362546 -8.52777e-05 -0.000692496)
(0.0175925 -0.00610348 -0.000370411)
(0.0373472 0.00220832 -0.000660144)
(0.0166583 -0.0252754 0.00129017)
(0.0142111 -0.000811693 -5.70996e-05)
(0.0321011 -0.00035675 5.42474e-05)
(0.0141578 -0.00132618 -0.000184641)
(0.0331057 -0.000331624 -3.05688e-05)
(0.0140222 -0.00217598 -0.000195539)
(0.0339055 5.77674e-05 -0.000173107)
(0.0127184 -0.00365998 5.46693e-05)
(0.0329536 0.00153243 -6.57871e-05)
(0.00926922 -0.0052237 0.000804178)
(0.0113345 -0.000510944 0.00043316)
(0.0299311 -0.000251711 0.000766183)
(0.0120784 -0.00079935 0.000530521)
(0.0301215 -0.000332299 0.00041944)
(0.012368 -0.00142215 0.00059631)
(0.0294233 8.66167e-05 0.000185139)
)
;

boundaryField
{
    inlet
    {
        type            fixedValue;
        value           nonuniform 0();
    }
    outlet
    {
        type            zeroGradient;
    }
    wall
    {
        type            fixedValue;
        value           uniform (0 0 0);
    }
    procBoundary5to1
    {
        type            processor;
        value           nonuniform List<vector> 
32
(
(0.0349636 0.000162858 0.00060536)
(0.0138609 -0.000836771 0.000163419)
(0.0387675 0.00089367 0.00290071)
(0.0135452 -0.00246357 0.000656229)
(0.0483962 0.00221552 0.00546968)
(0.00948582 -0.0103646 0.000876175)
(0.00477006 -0.000585648 0.000181197)
(0.0302912 -0.000498177 0.00204483)
(0.00464898 -0.00121445 -5.46292e-05)
(0.0310788 8.31164e-05 0.00257646)
(0.00744145 -0.00393881 -0.00123501)
(0.0305822 0.00323385 0.00400255)
(0.0114292 -0.0172622 -0.00835129)
(0.0272923 0.000174528 0.000977046)
(-4.52821e-07 5.70579e-08 -2.29633e-08)
(0.027408 -2.50412e-05 0.00105249)
(-3.83684e-07 4.87226e-08 -1.66693e-08)
(0.0269401 6.92447e-05 0.000428196)
(0.000514615 -0.000118213 -0.000161607)
(0.0241213 0.00159939 0.000206244)
(0.00409797 -0.00096922 -0.00295413)
(0.0165623 -0.000543402 -0.000772837)
(0.0348466 -0.000406319 -0.000701382)
(0.016621 -0.000430101 -0.000838853)
(0.016621 -0.000430101 -0.000838853)
(0.016621 -0.000430101 -0.000838853)
(0.0054057 -0.000324945 -0.000266238)
(0.0301333 -0.000569322 0.000337213)
(0.0301333 -0.000569322 0.000337213)
(0.0301333 -0.000569322 0.000337213)
(0.00468755 -0.000550701 -0.000230932)
(0.00468755 -0.000550701 -0.000230932)
)
;
    }
    procBoundary5to4
    {
        type            processor;
        value           nonuniform List<vector> 
12
(
(0.0316477 -0.000826209 -0.00047865)
(0.0280007 -0.000830537 0.000159732)
(0.0271956 -0.000371364 0.000396373)
(0.0265195 0.000527737 0.000418759)
(0.033236 -0.000598202 0.000386266)
(0.028675 -0.000384495 0.00100032)
(0.0285104 -0.000382269 0.00115196)
(0.0269107 -0.000242253 0.0013609)
(0.0350342 -0.000515909 6.73467e-05)
(0.0326512 -0.000462553 0.000283558)
(0.0312474 -0.000272142 0.000216428)
(0.0293613 -0.000235283 0.000609451)
)
;
    }
    procBoundary5to7
    {
        type            processor;
        value           nonuniform List<vector> 
44
(
(0.027556 0.000227258 0.000514128)
(0.00121238 8.27805e-05 -0.00015093)
(0.0270953 0.00021045 0.000855907)
(-3.66972e-07 2.46795e-08 -1.09257e-08)
(0.0262808 0.000208371 0.0010784)
(-1.52053e-07 -2.60148e-09 5.96337e-09)
(0.0243804 -0.000344734 0.00131162)
(0.00286914 0.00111875 -0.00121927)
(0.00285445 6.32253e-05 -0.000230712)
(0.027556 0.000227258 0.000514128)
(-3.98037e-07 1.32849e-08 -1.64215e-08)
(0.0269604 0.000115284 0.000803581)
(-2.87568e-07 5.27178e-09 -2.38786e-08)
(0.0274792 0.00125052 0.000649183)
(0.00138714 -0.000179865 -0.000303549)
(0.0286435 0.00217914 0.00177255)
(0.0044465 -0.000759656 -0.00271663)
(-3.21093e-07 -6.99717e-09 -3.5505e-08)
(-3.98037e-07 1.32849e-08 -1.64215e-08)
(0.0257291 -0.000257724 0.000510906)
(-3.98037e-07 1.32849e-08 -1.64215e-08)
(0.0269604 0.000115284 0.000803581)
(1.84565e-05 -2.21154e-06 1.09962e-06)
(0.0244744 0.000286344 0.000171969)
(-8.55282e-08 -2.14607e-10 -9.58154e-09)
(0.0209443 0.00133322 -0.000502316)
(0.00656781 -0.000874377 -0.00246464)
(0.00337114 0.000157338 0.000175387)
(0.028325 0.000535579 0.00048364)
(0.00218936 0.000203791 0.000193339)
(1.84565e-05 -2.21154e-06 1.09962e-06)
(0.0287031 0.000464586 0.000417438)
(1.84565e-05 -2.21154e-06 1.09962e-06)
(0.0244744 0.000286344 0.000171969)
(0.0121351 -0.00291856 0.000883433)
(0.0273012 0.0019871 -0.000831399)
(0.0119307 -0.00506803 0.00109193)
(0.01012 3.03463e-05 7.58647e-06)
(0.0299312 -2.73236e-07 0.000247166)
(0.00987487 5.98562e-05 -0.000159646)
(0.0298233 -5.48303e-05 6.6462e-05)
(0.00878852 0.000127786 -0.000348502)
(0.0121351 -0.00291856 0.000883433)
(0.0280726 -0.000324151 0.000198733)
)
;
    }
}


// ************************************************************************* //
