/*--------------------------------*- C++ -*----------------------------------*\
| =========                 |                                                 |
| \\      /  F ield         | OpenFOAM: The Open Source CFD Toolbox           |
|  \\    /   O peration     | Version:  4.x                                   |
|   \\  /    A nd           | Web:      www.OpenFOAM.org                      |
|    \\/     M anipulation  |                                                 |
\*---------------------------------------------------------------------------*/
FoamFile
{
    version     2.0;
    format      ascii;
    class       volVectorField;
    location    "32";
    object      U;
}
// * * * * * * * * * * * * * * * * * * * * * * * * * * * * * * * * * * * * * //

dimensions      [0 1 -1 0 0 0 0];

internalField   nonuniform List<vector> 
132
(
(-2.84647e-10 -1.91693e-09 6.33153e-09)
(0.0276144 0.000316337 -1.28002e-05)
(-2.69377e-09 2.82339e-10 6.38088e-09)
(0.0279538 0.000666828 0.000369447)
(-2.02228e-09 2.48029e-09 -2.2213e-09)
(0.0280577 0.00047471 0.00135204)
(2.11716e-09 3.61212e-09 -9.54428e-09)
(0.0251902 -0.00150697 0.00322154)
(0.00672454 0.00142104 -0.000174505)
(0.000769264 0.000161583 -0.000127349)
(0.0277982 0.000198702 -4.25213e-05)
(0.000281682 8.36114e-05 -6.50159e-05)
(0.0275407 0.000158127 0.000102782)
(0.0017536 0.00068995 -0.000465582)
(0.02721 0.00011787 0.000858011)
(0.00548231 0.00293573 -0.00170267)
(0.0252556 -0.00236305 0.0028033)
(0.0113969 0.00847132 -0.00330364)
(0.00563591 0.000586975 -0.000568332)
(0.0305611 0.000217135 -0.000103662)
(0.00503395 0.00079331 -0.000785379)
(0.0314071 -0.000491749 -0.000305007)
(0.00488745 0.00130053 -0.00122577)
(0.0329525 -0.00184114 -0.000157645)
(0.00543701 0.00261244 -0.0021875)
(0.0347576 -0.00475834 0.00274464)
(0.00495748 0.00545529 -0.00276717)
(0.0153158 1.83891e-05 -0.00126259)
(0.0343672 4.92268e-05 -0.000964007)
(0.014645 -7.83083e-06 -0.00170384)
(0.0351748 -0.000226615 -0.000887583)
(0.012945 8.97508e-05 -0.0025308)
(0.036054 -0.000468366 -0.000228993)
(0.00982684 0.000267566 -0.00398489)
(0.0365209 -0.000597711 0.00279998)
(0.00472985 0.000241164 -0.00542137)
(-7.51467e-10 -3.70249e-09 8.0234e-09)
(0.0279335 -0.000158206 0.000759181)
(1.63364e-09 -4.28666e-10 3.23628e-09)
(0.0275736 -0.000193063 0.00139586)
(4.1557e-09 -9.90861e-10 -7.88594e-10)
(0.0244432 0.000744009 0.000189762)
(0.00672855 -0.00102871 0.00242566)
(-1.45948e-10 -1.63469e-09 5.01499e-09)
(0.0275404 -5.23657e-05 -5.51303e-05)
(-1.17123e-09 -1.69204e-09 5.72757e-09)
(0.0279226 -1.34099e-05 -0.00019079)
(4.02136e-10 1.24104e-09 -1.10748e-09)
(0.0280258 0.000118286 0.000258497)
(3.57778e-09 1.03377e-09 -4.80749e-09)
(0.0266246 -1.08666e-05 0.00170051)
(0.00277268 -8.18731e-05 -2.25418e-05)
(0.00032203 3.61486e-05 -2.08394e-05)
(0.0285064 -0.000176492 2.97691e-05)
(-1.19808e-09 -1.43525e-09 2.41306e-09)
(0.0278364 -0.000316405 0.000269814)
(-1.38276e-09 8.68841e-10 -1.00492e-09)
(0.0262472 -0.00035266 0.000547972)
(3.30038e-09 2.69231e-09 -4.82838e-09)
(0.021654 -0.00137769 0.000752442)
(0.00673989 0.00301229 0.00172694)
(0.0120446 0.000222565 -0.000676913)
(0.0322029 -0.000170078 -0.000324727)
(0.0103006 0.000317968 -0.000900824)
(0.0323929 -0.000387436 -0.000255905)
(0.00825772 0.000777694 -0.00101526)
(0.0326652 -0.000260647 6.05557e-05)
(0.00673415 0.0014951 -0.00127913)
(0.0328715 -0.00245436 0.00074985)
(0.0044159 0.00274329 0.00102347)
(0.00304022 -0.000192772 0.00092136)
(0.0304501 -0.00024453 0.000431882)
(0.00569777 -0.000564819 0.00310297)
(0.028888 0.000223874 -0.00226437)
(0.00976783 -0.00120303 0.0111705)
(6.55637e-07 3.28393e-09 3.29691e-08)
(0.0281126 6.22888e-05 -0.000382746)
(1.63502e-09 -2.06676e-09 5.83665e-09)
(0.0277872 -0.000261043 -0.000150325)
(4.34149e-09 -1.04978e-09 1.03439e-09)
(0.0267462 -0.000699132 0.000533024)
(0.00174708 0.000351838 0.000291561)
(0.0245776 -0.00232325 0.00121852)
(0.00979894 0.00549493 0.00240823)
(0.00716899 0.000391344 -4.06179e-05)
(0.0308212 0.00025447 -0.000153015)
(0.00682627 0.000538375 -3.62813e-05)
(0.0324514 -5.03292e-05 -0.000347292)
(0.00718272 0.00109544 0.000421731)
(0.0353237 -0.00129739 -0.000255544)
(0.00790106 0.00222364 0.00142533)
(0.0402589 -0.00477659 -0.00249968)
(0.00656112 0.0052161 0.0052367)
(0.016396 1.75728e-06 -0.000470759)
(0.0341584 -1.19793e-05 -0.00014011)
(0.0160921 -0.000297482 -0.000714081)
(0.0348867 -0.000428034 -0.000272311)
(0.0150917 -0.000791619 -0.000999956)
(0.0359259 -0.000814979 -0.000247048)
(0.0126115 -0.00168673 -0.00155801)
(0.0382512 -0.000928373 0.000177289)
(0.00584989 -0.00187241 0.00166827)
(0.0110318 -0.00302885 0.00186292)
(0.041937 0.00159648 -0.00156622)
(0.00765704 -0.00636309 0.00627815)
(0.010081 -0.000129232 0.00012743)
(0.0309947 -0.000103595 -0.00033149)
(0.00777896 -0.000285234 0.000123683)
(0.0308417 -0.000273489 -0.000539913)
(0.00531601 -0.000469147 0.000391291)
(0.0301356 -0.000442776 -0.00117067)
(0.00348934 -0.000744432 0.000518362)
(0.0289113 0.000208942 -0.00256861)
(0.00382729 -0.00211512 0.00148044)
(0.0154143 0.000441759 -7.28191e-05)
(0.0335955 0.000537794 -0.000177796)
(0.0145049 0.000538674 -0.000470794)
(0.0339556 0.000325311 -0.000712284)
(0.0126352 0.000441794 -0.000969552)
(0.0344453 -0.000123067 -0.00103953)
(0.0100399 0.000295386 -0.00188342)
(0.035536 -0.00122567 -0.000517801)
(0.00541421 -0.000404877 -0.00182876)
(0.0201947 -0.00011552 -0.000213201)
(0.0360356 -8.17695e-05 -0.000264582)
(0.0197005 -0.000180821 -0.000427179)
(0.0360443 -0.000152188 -0.000491732)
(0.018451 -0.000472802 -0.000850955)
(0.0353148 -1.93617e-05 -0.000387604)
(0.0168051 -0.00122396 -0.00191894)
(0.0319664 0.000752276 0.000747339)
(0.0159181 -0.00402361 -0.00178933)
)
;

boundaryField
{
    inlet
    {
        type            fixedValue;
        value           nonuniform 0();
    }
    outlet
    {
        type            zeroGradient;
    }
    wall
    {
        type            fixedValue;
        value           uniform (0 0 0);
    }
    procBoundary7to0
    {
        type            processor;
        value           uniform (0.0269431 -9.641e-05 -0.000169951);
    }
    procBoundary7to1
    {
        type            processor;
        value           uniform (1.1895e-09 -2.71738e-09 7.09661e-09);
    }
    procBoundary7to3
    {
        type            processor;
        value           nonuniform List<vector> 
36
(
(0.000415188 -1.36938e-05 -0.00013342)
(0.028492 -0.000279825 0.00022118)
(-8.28818e-09 -1.72646e-09 7.29085e-09)
(0.0280572 -0.000223868 0.000842428)
(-6.3301e-09 -2.72955e-09 -6.43678e-09)
(0.0271459 -0.000277748 0.00175182)
(4.39553e-10 -3.60486e-11 -1.92114e-08)
(0.0239742 -0.000249445 0.00483055)
(0.00639167 0.000139524 -0.00297438)
(0.00179891 7.07776e-05 -0.000335909)
(0.0296847 -0.000216352 1.84522e-05)
(0.000379417 3.59819e-05 -0.000104115)
(0.0298417 0.000179637 0.00093316)
(8.69768e-05 1.63816e-05 -3.61252e-05)
(0.0305009 0.000832989 0.00265456)
(0.000725359 0.0002717 -0.000398111)
(0.0304041 -0.000788458 0.0054723)
(0.00333902 0.00168494 -0.00190259)
(0.00213531 0.000101376 -0.000233689)
(0.0302647 0.000191776 -9.12695e-05)
(0.000505574 3.93904e-05 -8.75011e-05)
(0.0308477 -0.000310454 0.000538015)
(0.00110376 0.000221118 -0.000311154)
(0.031303 -0.000813514 0.00149177)
(0.00454803 0.00209384 -0.00184863)
(0.0295059 -0.00269724 0.00321892)
(0.0086609 0.0115414 -0.00504682)
(0.0160034 0.00021685 -0.00123356)
(0.0352114 0.000291602 -0.000748394)
(0.0159648 0.000188835 -0.00169795)
(0.0370696 -0.000430732 -0.000457649)
(0.0151099 0.000836456 -0.00274178)
(0.0403502 -0.00102023 9.67206e-05)
(0.0134936 0.00286922 -0.00458281)
(0.0485671 -0.00265869 0.00211675)
(0.00788065 0.0105639 -0.00820181)
)
;
    }
    procBoundary7to5
    {
        type            processor;
        value           nonuniform List<vector> 
44
(
(0.0264713 0.00047112 -8.62473e-05)
(-1.94404e-09 -1.63154e-09 7.06613e-09)
(0.026195 0.000467551 9.37748e-05)
(-1.77104e-09 -1.29352e-09 -1.81153e-09)
(0.0254589 0.000203187 0.000936385)
(0.00128164 -0.000245635 -0.000271152)
(0.0231088 0.000668455 0.00233925)
(0.00896447 -0.00103161 -0.00105464)
(1.33029e-09 -3.14755e-09 7.49761e-09)
(0.0275446 -0.000171242 0.000156232)
(9.57331e-10 -2.93376e-09 8.79129e-09)
(0.0290216 2.82264e-05 0.000417556)
(3.96413e-05 -1.39753e-05 9.5241e-06)
(0.0296156 -0.000322278 0.000926557)
(0.00152466 -0.000691745 0.000527018)
(0.0273985 0.00219173 -0.000161369)
(0.00575689 -0.00250099 0.00191412)
(1.33029e-09 -3.14755e-09 7.49761e-09)
(0.0275446 -0.000171242 0.000156232)
(0.0275446 -0.000171242 0.000156232)
(0.00175131 -5.2236e-05 0.000320141)
(0.0301342 8.38986e-06 8.80439e-06)
(0.000215692 -1.93481e-05 3.18298e-05)
(0.0275119 0.00090871 4.63416e-05)
(0.00323932 -0.000513581 0.00106962)
(0.0249387 0.00131997 -0.000811845)
(0.00967086 -0.00354826 0.0082836)
(0.00216762 -5.57882e-05 0.000233934)
(0.0294941 0.000328669 -3.28216e-05)
(0.00175131 -5.2236e-05 0.000320141)
(0.0301342 8.38986e-06 8.80439e-06)
(0.0301342 8.38986e-06 8.80439e-06)
(0.0114806 -0.00137391 0.000558238)
(0.0365754 -0.000405652 -0.000689833)
(0.0113808 -0.00109401 0.00343228)
(0.0422859 0.00181513 -0.00367856)
(0.00749465 -0.00100364 0.00825025)
(0.0132004 -0.000504183 0.000209936)
(0.03317 -0.000516177 7.13881e-05)
(0.0124751 -0.000795636 0.000215446)
(0.0343562 -0.000672069 -0.000459173)
(0.0114806 -0.00137391 0.000558238)
(0.0365754 -0.000405652 -0.000689833)
(0.0365754 -0.000405652 -0.000689833)
)
;
    }
    procBoundary7to6
    {
        type            processor;
        value           nonuniform List<vector> 
12
(
(0.0276108 0.000252268 -3.75e-05)
(0.0296727 0.000627238 -0.000331465)
(0.0332585 0.000268434 -0.000806495)
(0.0271472 -0.000339195 -0.00035921)
(0.0283811 8.27123e-06 -0.000201386)
(0.0317821 0.000351563 -0.000395381)
(0.028137 4.83598e-05 -0.000280773)
(0.0299307 0.000844613 0.00031184)
(0.0332278 0.00030112 1.8945e-05)
(0.030827 -0.000128871 0.00041244)
(0.0329717 0.000553128 0.000185277)
(0.0353154 0.00010866 -2.21925e-05)
)
;
    }
}


// ************************************************************************* //
