/*--------------------------------*- C++ -*----------------------------------*\
| =========                 |                                                 |
| \\      /  F ield         | OpenFOAM: The Open Source CFD Toolbox           |
|  \\    /   O peration     | Version:  4.x                                   |
|   \\  /    A nd           | Web:      www.OpenFOAM.org                      |
|    \\/     M anipulation  |                                                 |
\*---------------------------------------------------------------------------*/
FoamFile
{
    version     2.0;
    format      ascii;
    class       volVectorField;
    location    "32";
    object      Us;
}
// * * * * * * * * * * * * * * * * * * * * * * * * * * * * * * * * * * * * * //

dimensions      [0 1 -1 0 0 0 0];

internalField   nonuniform List<vector> 
132
(
(-1.00676e-08 -2.63411e-09 8.07194e-09)
(-1.2032e-08 -1.70616e-09 9.06613e-09)
(-1.22954e-08 -1.04148e-09 8.61332e-09)
(-1.29156e-08 -8.17169e-10 3.59797e-09)
(-1.11014e-08 7.23291e-10 -6.75872e-11)
(-8.75978e-09 1.41025e-09 -4.26696e-09)
(-7.16446e-09 1.20965e-09 -7.9046e-09)
(-5.57631e-09 1.44028e-09 -8.88067e-09)
(-2.50388e-09 4.21687e-10 -7.61041e-09)
(-1.18032e-08 -2.00381e-09 6.70914e-09)
(-1.34246e-08 -1.66664e-09 8.74737e-09)
(-1.3513e-08 -2.22035e-09 8.04185e-09)
(-1.40865e-08 -2.32597e-09 5.14906e-09)
(-9.40225e-09 6.30634e-11 -2.88313e-10)
(-6.87313e-09 4.70032e-10 -3.65168e-09)
(-4.33167e-09 1.11526e-09 -7.60042e-09)
(-2.89791e-09 1.45403e-09 -1.32788e-08)
(-1.51467e-09 -7.02296e-11 -1.16706e-08)
(-1.02163e-08 -3.36547e-09 3.70628e-09)
(-1.21889e-08 -1.26932e-09 7.16542e-09)
(-1.25892e-08 -2.08981e-09 7.18498e-09)
(-1.22771e-08 -2.63539e-09 4.06335e-09)
(-9.56761e-09 -4.40742e-10 1.11129e-10)
(-6.26182e-09 -5.49545e-10 -3.82095e-09)
(-3.9837e-09 5.98536e-10 -6.2188e-09)
(-1.77186e-09 8.71975e-10 -8.85709e-09)
(7.7386e-09 2.91005e-09 -7.62253e-09)
(-8.05123e-09 -2.22128e-09 1.38413e-09)
(-7.74525e-09 -4.74537e-10 1.69204e-09)
(-7.75385e-09 -2.15143e-09 4.05295e-09)
(-8.53508e-09 -1.97921e-09 1.92051e-09)
(-6.96016e-09 -8.80095e-10 4.84403e-10)
(-4.41966e-09 -8.76419e-10 -1.44144e-09)
(-2.32563e-09 -7.02798e-10 -3.48442e-09)
(1.65349e-10 2.62483e-10 -3.19878e-09)
(4.95038e-09 1.50741e-09 -2.6611e-09)
(-1.02691e-08 -2.84792e-09 6.04308e-09)
(-1.02572e-08 -1.19639e-09 3.29559e-09)
(-7.36588e-09 8.1316e-10 4.64829e-10)
(-6.44975e-09 9.71451e-10 -2.6969e-09)
(-5.29622e-09 6.7077e-10 -4.2007e-09)
(-3.16396e-09 1.36199e-09 -6.17247e-09)
(2.03373e-10 6.0756e-10 -4.37119e-09)
(-9.93006e-09 -2.68426e-09 5.10169e-09)
(-9.69096e-09 -2.40223e-09 5.87152e-09)
(-1.05739e-08 -3.20391e-09 5.84048e-09)
(-1.05602e-08 -2.19098e-09 2.87224e-09)
(-8.65869e-09 -1.35521e-10 -9.88805e-10)
(-6.11638e-09 -3.28281e-10 -3.16807e-09)
(-5.23412e-09 -4.6842e-11 -4.54953e-09)
(-3.73434e-09 1.10322e-09 -7.05044e-09)
(-5.15208e-11 6.54128e-10 -4.27954e-09)
(-9.95452e-09 -2.60069e-09 3.66109e-09)
(-9.76919e-09 -8.15685e-10 4.69496e-09)
(-1.10248e-08 -3.10272e-09 3.20776e-09)
(-1.13371e-08 -1.6227e-09 2.32761e-09)
(-1.04725e-08 -1.45249e-09 -4.2469e-10)
(-7.99178e-09 -2.50537e-09 -3.68971e-09)
(-5.78479e-09 -5.0681e-10 -4.80263e-09)
(-3.08552e-09 1.90787e-10 -5.04214e-09)
(1.72835e-08 7.83551e-09 -3.53469e-09)
(-7.0204e-09 -1.47204e-09 1.71656e-09)
(-8.32166e-09 -1.20059e-09 1.0524e-09)
(-9.36647e-09 -2.4526e-09 1.98081e-09)
(-1.02475e-08 -3.26804e-10 1.38058e-09)
(-7.94073e-09 -9.22593e-10 1.61715e-10)
(-7.08287e-09 -1.869e-09 -2.64681e-09)
(-5.19857e-09 -1.68761e-09 -3.24898e-09)
(-2.6528e-09 -4.27579e-10 -2.09868e-09)
(6.88824e-09 2.29229e-09 -1.66202e-09)
(-4.16209e-09 -1.16711e-09 4.96024e-10)
(-2.03215e-09 -3.10047e-10 -5.15897e-10)
(-9.19796e-10 -1.60814e-10 -1.95248e-09)
(9.5471e-11 -4.31062e-10 -3.08695e-09)
(5.61664e-10 -2.06412e-10 -9.16631e-10)
(-6.32999e-09 -2.8237e-09 3.08299e-09)
(-8.24038e-09 -2.51149e-09 4.9451e-09)
(-8.18117e-09 -2.2577e-09 5.09852e-09)
(-6.77383e-09 -2.72066e-09 2.30582e-09)
(-5.39044e-09 -1.64825e-09 -2.55952e-10)
(-3.71495e-09 -1.18766e-09 -1.4352e-09)
(-2.78109e-09 -5.98839e-10 -2.66447e-09)
(-1.73933e-09 5.25946e-10 -3.92623e-09)
(-2.49656e-10 -4.87062e-10 -2.33272e-09)
(-7.73067e-09 -2.77621e-09 2.64896e-09)
(-7.81045e-09 -1.90906e-09 1.80482e-09)
(-8.98756e-09 -3.1953e-09 3.3744e-09)
(-9.66029e-09 -2.22999e-09 1.23046e-09)
(-8.16287e-09 -2.07148e-09 -6.72018e-10)
(-7.75186e-09 -2.07914e-09 -2.42643e-09)
(-7.25849e-09 -1.25635e-09 -2.63137e-09)
(-4.32087e-09 6.91e-11 -2.36132e-09)
(-1.40772e-09 -3.38936e-10 -2.7934e-09)
(-5.29023e-09 -7.035e-10 1.87849e-09)
(-6.45101e-09 -1.29986e-09 1.0438e-09)
(-8.59947e-09 -9.26783e-10 1.29014e-09)
(-9.93401e-09 -6.36909e-10 7.92878e-10)
(-7.0141e-09 -9.14236e-10 -4.34995e-10)
(-7.9715e-09 -1.12094e-09 -2.90786e-09)
(-7.08367e-09 -1.20111e-09 -2.37008e-09)
(-3.50555e-09 -5.10728e-10 -1.06092e-09)
(-1.9385e-09 -1.90734e-10 -1.00463e-09)
(1.34895e-09 4.07873e-10 -1.00433e-09)
(2.62708e-09 -1.37039e-09 -1.99314e-09)
(2.43699e-09 -3.80951e-10 5.97627e-10)
(-2.31319e-09 -2.62968e-09 1.63079e-09)
(-3.23049e-09 -2.73772e-09 2.53828e-09)
(-3.38911e-09 -2.10188e-09 2.19705e-09)
(-3.09552e-09 -1.65301e-09 8.54518e-10)
(-2.29481e-09 -1.49724e-09 -2.4336e-10)
(-1.71803e-09 -1.45534e-09 -7.54101e-10)
(-5.9341e-10 -7.6812e-10 -6.98588e-10)
(2.92695e-09 2.84311e-10 -1.82588e-09)
(1.4061e-09 8.12853e-10 -1.13529e-09)
(-3.19841e-09 -3.54072e-09 1.10711e-09)
(-3.57606e-09 -2.66617e-09 5.78783e-10)
(-4.86643e-09 -2.8233e-09 1.48934e-09)
(-5.10034e-09 -1.59179e-09 4.31455e-10)
(-4.9301e-09 -1.45502e-09 -3.96728e-10)
(-3.97671e-09 -1.49428e-09 -7.08076e-10)
(-3.7963e-09 -1.34428e-09 -7.5314e-10)
(-2.22115e-09 7.56767e-10 -1.51101e-09)
(-1.34204e-10 3.33207e-09 -1.11692e-09)
(-2.27009e-09 -6.71714e-10 6.58647e-10)
(-3.21208e-09 -1.27536e-09 4.95926e-10)
(-4.69712e-09 -7.22869e-10 3.41418e-10)
(-5.66685e-09 -3.234e-10 7.61856e-11)
(-6.09234e-09 1.15697e-08 -2.41266e-10)
(-4.13528e-09 -5.92731e-10 -1.43728e-09)
(-3.98303e-09 -6.74019e-10 -2.62815e-10)
(-1.87784e-09 -4.04942e-10 -8.39182e-10)
(-1.76571e-09 1.03239e-08 2.06057e-09)
)
;

boundaryField
{
    inlet
    {
        type            zeroGradient;
    }
    outlet
    {
        type            zeroGradient;
    }
    wall
    {
        type            zeroGradient;
    }
    procBoundary7to0
    {
        type            processor;
        value           uniform (-1.17192e-08 -1.77093e-09 7.17259e-09);
    }
    procBoundary7to1
    {
        type            processor;
        value           uniform (-8.47336e-09 -1.0021e-09 8.39454e-09);
    }
    procBoundary7to3
    {
        type            processor;
        value           nonuniform List<vector> 
36
(
(-1.45687e-08 -3.62365e-09 1.02401e-08)
(-1.60362e-08 -1.51427e-09 1.22835e-08)
(-1.81148e-08 -1.41488e-09 1.14272e-08)
(-1.89742e-08 -2.5105e-09 6.13587e-09)
(-1.51724e-08 -2.01926e-09 -1.33867e-09)
(-1.15942e-08 -3.00837e-10 -6.44634e-09)
(-8.23876e-09 6.85186e-10 -1.38129e-08)
(-1.64701e-09 1.27166e-09 -1.79519e-08)
(-1.98945e-11 1.48653e-09 -1.25925e-08)
(-1.59089e-08 -3.29892e-09 8.42791e-09)
(-1.95032e-08 -1.07008e-09 1.18362e-08)
(-2.11359e-08 -3.47789e-09 1.22816e-08)
(-1.86656e-08 -1.95731e-09 6.90794e-09)
(-1.53838e-08 -8.03307e-10 8.19074e-10)
(-1.12614e-08 1.20705e-10 -5.39277e-09)
(-7.29087e-09 1.64696e-09 -1.4169e-08)
(-4.285e-09 1.27073e-09 -2.23907e-08)
(-4.71804e-09 2.6258e-09 -2.5251e-08)
(-1.51515e-08 -3.20588e-10 7.42517e-09)
(-1.61452e-08 -1.72706e-10 1.00422e-08)
(-1.81771e-08 -5.04395e-09 1.07256e-08)
(-1.77603e-08 -2.75527e-09 6.60073e-09)
(-1.39274e-08 -5.69547e-10 2.14198e-10)
(-8.62198e-09 -3.73089e-10 -4.43004e-09)
(-7.07197e-09 1.81343e-09 -9.67023e-09)
(-1.63075e-09 2.97564e-09 -1.53382e-08)
(-8.12654e-10 -2.11453e-09 -1.55746e-08)
(-9.81145e-09 9.34566e-10 2.86965e-09)
(-1.17429e-08 -1.019e-09 4.4304e-09)
(-1.20307e-08 -5.33867e-09 5.89281e-09)
(-8.79798e-09 -2.93775e-09 2.43911e-09)
(-8.64548e-09 -6.06081e-10 5.43224e-10)
(-4.89001e-09 -1.28845e-09 -2.41844e-09)
(-3.33831e-09 7.08078e-11 -4.73969e-09)
(-9.44215e-10 -1.56996e-09 -6.05631e-09)
(1.28491e-09 -1.85826e-09 -5.9295e-09)
)
;
    }
    procBoundary7to5
    {
        type            processor;
        value           nonuniform List<vector> 
44
(
(-9.79789e-09 -8.97104e-10 1.07584e-08)
(-1.13157e-08 4.95754e-10 8.80179e-09)
(-1.17343e-08 7.87865e-10 4.18059e-09)
(-1.11213e-08 1.00221e-09 2.39906e-10)
(-9.82213e-09 1.33606e-09 -3.0708e-09)
(-8.61806e-09 1.28784e-09 -6.07175e-09)
(-6.1979e-09 1.03994e-09 -8.76774e-09)
(-2.4819e-09 2.99212e-10 -6.58799e-09)
(-8.51098e-09 -2.39999e-09 6.12519e-09)
(-8.882e-09 -2.27754e-09 7.02582e-09)
(-8.75143e-09 -3.50009e-10 7.27801e-09)
(-9.75422e-09 2.29539e-10 3.58283e-09)
(-9.09617e-09 1.37631e-09 6.81483e-10)
(-8.07837e-09 1.64772e-09 -1.86558e-09)
(-7.49982e-09 1.51457e-09 -4.56023e-09)
(-5.09423e-09 1.26649e-09 -4.69789e-09)
(-1.65882e-09 5.18954e-10 -3.1911e-09)
(-8.51098e-09 -2.39999e-09 6.12519e-09)
(-8.882e-09 -2.27754e-09 7.02582e-09)
(-8.882e-09 -2.27754e-09 7.02582e-09)
(-5.94287e-09 -1.66369e-09 3.72306e-09)
(-5.79221e-09 -1.13512e-09 2.40108e-09)
(-5.33825e-09 7.31943e-10 1.28962e-09)
(-3.34201e-09 9.08379e-10 -7.8567e-10)
(-3.34312e-09 6.33089e-10 -1.73303e-09)
(-1.66388e-09 -6.63676e-10 -2.31961e-09)
(-1.10001e-12 -9.98623e-10 -1.81882e-09)
(-2.70715e-09 -1.74726e-09 1.63082e-09)
(-5.0029e-09 -2.15784e-09 4.84553e-09)
(-5.94287e-09 -1.66369e-09 3.72306e-09)
(-5.79221e-09 -1.13512e-09 2.40108e-09)
(-5.79221e-09 -1.13512e-09 2.40108e-09)
(-1.03768e-09 -7.74283e-10 4.87141e-10)
(8.4258e-10 4.04489e-10 -3.81167e-10)
(1.51038e-10 3.87394e-12 -7.03561e-10)
(1.03392e-09 -2.93631e-10 -1.01516e-09)
(1.37617e-09 -3.16484e-10 -6.88704e-11)
(-1.29157e-09 -1.79448e-09 1.36868e-09)
(-1.10768e-09 -2.04516e-09 1.95055e-09)
(-1.26744e-09 -2.25234e-09 1.58856e-09)
(-2.26419e-09 -6.32512e-10 1.18834e-09)
(-1.03768e-09 -7.74283e-10 4.87141e-10)
(8.4258e-10 4.04489e-10 -3.81167e-10)
(8.4258e-10 4.04489e-10 -3.81167e-10)
)
;
    }
    procBoundary7to6
    {
        type            processor;
        value           nonuniform List<vector> 
12
(
(-9.53157e-09 -1.98827e-09 5.41592e-09)
(-9.6926e-09 -1.6923e-09 3.84446e-09)
(-2.78464e-09 -4.64266e-10 1.33742e-09)
(-8.15365e-09 -2.10756e-09 4.41711e-09)
(-7.77263e-09 -1.30634e-09 3.11467e-09)
(-4.43885e-09 -3.60026e-10 1.18186e-09)
(-4.2861e-09 -1.95068e-09 3.23327e-09)
(-6.15694e-09 -1.84107e-09 2.9622e-09)
(-3.08261e-09 -1.14027e-09 1.58859e-09)
(-2.09968e-09 -2.67817e-09 7.89367e-10)
(-2.39359e-09 -2.92973e-09 1.46053e-09)
(-1.39152e-09 -7.87499e-10 1.29243e-09)
)
;
    }
}


// ************************************************************************* //
