/*--------------------------------*- C++ -*----------------------------------*\
| =========                 |                                                 |
| \\      /  F ield         | OpenFOAM: The Open Source CFD Toolbox           |
|  \\    /   O peration     | Version:  4.x                                   |
|   \\  /    A nd           | Web:      www.OpenFOAM.org                      |
|    \\/     M anipulation  |                                                 |
\*---------------------------------------------------------------------------*/
FoamFile
{
    version     2.0;
    format      ascii;
    class       volVectorField;
    location    "31";
    object      ddtUrel;
}
// * * * * * * * * * * * * * * * * * * * * * * * * * * * * * * * * * * * * * //

dimensions      [0 1 -2 0 0 0 0];

internalField   nonuniform List<vector> 
132
(
(2.19864e-09 -7.08025e-09 -4.03278e-09)
(2.64198e-10 -4.9691e-09 -2.91738e-09)
(3.00002e-09 -3.77456e-09 -4.57557e-09)
(1.57268e-09 -1.92839e-09 -1.60206e-09)
(-2.30704e-09 -2.29018e-10 -3.96504e-11)
(-8.74448e-09 6.77217e-10 -2.02357e-09)
(-2.04961e-08 2.08454e-09 -1.89988e-09)
(-2.54091e-08 1.90102e-09 -2.37554e-09)
(-2.34381e-08 2.1008e-09 -1.81821e-09)
(5.06494e-09 -5.80776e-09 -5.29275e-09)
(4.33397e-09 -4.27437e-09 -3.08035e-09)
(5.1272e-09 -3.81717e-09 -2.74838e-09)
(4.0248e-09 -2.30493e-09 -2.04563e-09)
(-1.90054e-09 1.51042e-10 -1.62438e-09)
(-6.73697e-09 7.47551e-10 -2.17109e-09)
(-1.98484e-08 2.07371e-09 -2.6684e-09)
(-2.60008e-08 2.77126e-09 -2.79231e-09)
(-2.20266e-08 2.60497e-09 -2.08214e-09)
(8.92071e-09 -4.18878e-09 -4.19757e-09)
(8.07439e-09 -3.35799e-09 -3.9722e-09)
(7.69238e-09 -2.70192e-09 -3.83933e-09)
(5.45185e-09 -2.03589e-09 -2.08716e-09)
(-8.62152e-10 2.31544e-11 -1.55041e-09)
(-5.73486e-09 7.62553e-10 -2.5408e-09)
(-1.75413e-08 1.14256e-09 -3.65443e-09)
(-2.38183e-08 2.15057e-09 -2.44264e-09)
(-1.98674e-08 2.17362e-09 -1.53881e-09)
(9.59151e-09 -3.38207e-09 -4.74062e-09)
(1.07078e-08 -2.87424e-09 -4.67049e-09)
(9.83087e-09 -2.61379e-09 -3.9613e-09)
(6.83156e-09 -1.94887e-09 -2.65649e-09)
(1.46799e-09 3.45695e-11 -2.4179e-09)
(-4.69916e-09 7.88207e-10 -2.55702e-09)
(-1.5419e-08 1.33237e-09 -2.82442e-09)
(-2.10772e-08 1.75081e-09 -1.75449e-09)
(-1.92799e-08 1.95724e-09 -1.31664e-09)
(5.63952e-09 -3.24743e-09 -4.63015e-10)
(2.55421e-09 -1.83129e-09 -5.83989e-10)
(-1.93186e-09 -5.61164e-10 -6.29517e-10)
(-5.95563e-09 9.10794e-10 -1.20869e-09)
(-1.65555e-08 1.87338e-09 -1.2101e-09)
(-1.98556e-08 2.3308e-09 -7.99601e-10)
(-1.68181e-08 2.1086e-09 -5.02517e-10)
(9.63117e-09 -3.66015e-09 -2.45304e-09)
(7.71619e-09 -3.69149e-09 -1.39261e-09)
(6.37593e-09 -3.5217e-09 -6.53755e-10)
(3.37524e-09 -1.33127e-09 -9.46985e-10)
(-7.52636e-10 5.07342e-10 -1.06883e-09)
(-4.82542e-09 8.77145e-10 -1.47036e-09)
(-1.66734e-08 1.58921e-09 -1.55171e-09)
(-2.20862e-08 3.09237e-09 -5.98003e-10)
(-1.82722e-08 3.4695e-09 3.30645e-11)
(1.01365e-08 -2.77731e-09 -2.8959e-09)
(8.63567e-09 -2.72816e-09 -2.34042e-09)
(7.17368e-09 -1.55867e-09 -1.32539e-09)
(4.23154e-09 -1.01955e-09 -9.70535e-10)
(-6.89153e-10 5.03845e-10 -1.02286e-09)
(-5.64545e-09 8.73112e-10 -1.44572e-09)
(-1.50283e-08 1.62342e-09 -1.24064e-09)
(-1.93662e-08 3.6568e-09 -1.56995e-10)
(-1.66833e-08 5.04426e-09 6.69058e-10)
(1.07541e-08 -2.5191e-09 -3.44858e-09)
(9.53853e-09 -2.22149e-09 -3.29071e-09)
(6.83403e-09 -1.74249e-09 -2.19454e-09)
(4.56541e-09 -8.15025e-10 -1.58422e-09)
(-1.46426e-11 3.88495e-10 -1.42115e-09)
(-5.53295e-09 1.26002e-09 -1.24686e-09)
(-1.36198e-08 2.95005e-09 -6.77375e-10)
(-1.77399e-08 5.04807e-09 3.31864e-10)
(-1.64686e-08 7.19522e-09 1.31778e-09)
(-1.29772e-09 -5.56138e-10 7.44507e-10)
(-6.83544e-09 4.93076e-10 1.38567e-10)
(-1.52058e-08 1.59164e-09 -1.38412e-10)
(-1.74757e-08 2.47483e-09 4.1598e-10)
(-1.42657e-08 2.6156e-09 7.71129e-11)
(9.37121e-09 -2.81589e-09 -1.84865e-09)
(7.72663e-09 -2.53186e-09 -6.8093e-10)
(6.33173e-09 -2.02372e-09 5.32994e-11)
(4.11068e-09 -6.44048e-10 -1.23675e-10)
(-7.12248e-10 6.76066e-10 1.25131e-10)
(-5.43792e-09 1.27457e-09 -3.48112e-10)
(-1.50287e-08 2.67619e-09 -5.20796e-10)
(-1.92914e-08 4.30754e-09 3.44383e-10)
(-1.60476e-08 5.25301e-09 1.00313e-09)
(9.0806e-09 -1.79696e-09 -1.99742e-09)
(7.553e-09 -1.34656e-09 -1.51935e-09)
(5.68562e-09 -9.76529e-10 -6.83704e-10)
(3.14676e-09 -2.04477e-10 -7.11961e-10)
(-7.40461e-10 1.00477e-09 -3.12767e-10)
(-5.00398e-09 1.79885e-09 -1.55486e-10)
(-1.36014e-08 3.68098e-09 5.26172e-10)
(-1.87863e-08 6.8687e-09 1.72685e-09)
(-1.72662e-08 1.03968e-08 2.78814e-09)
(8.45951e-09 -1.45459e-09 -2.30126e-09)
(6.45667e-09 -1.37736e-09 -2.03236e-09)
(4.61637e-09 -8.26709e-10 -1.28132e-09)
(2.40212e-09 7.01627e-11 -9.53838e-10)
(-1.35596e-09 1.17892e-09 -5.52307e-10)
(-4.82621e-09 2.4941e-09 6.72494e-11)
(-1.27135e-08 5.17521e-09 7.80287e-10)
(-1.78631e-08 1.05728e-08 2.76425e-09)
(-1.90033e-08 1.91188e-08 5.50195e-09)
(-1.4952e-08 1.05874e-09 9.48477e-10)
(-1.77993e-08 2.33392e-09 6.73404e-10)
(-1.46541e-08 3.09252e-09 3.13048e-10)
(7.55946e-09 -1.95199e-09 -1.60488e-09)
(7.8034e-09 -2.31553e-09 -2.77787e-10)
(5.59243e-09 -2.10211e-09 2.09904e-10)
(2.21562e-09 -4.80388e-10 -1.7588e-11)
(-1.71836e-09 8.55359e-10 5.5903e-10)
(-6.5618e-09 1.39846e-09 6.28375e-10)
(-1.44093e-08 2.70186e-09 7.27204e-10)
(-1.78156e-08 5.20989e-09 1.09177e-09)
(-1.55784e-08 7.60179e-09 1.88703e-09)
(7.99508e-09 -1.07594e-09 -1.65181e-09)
(6.72399e-09 -1.37145e-09 -9.23706e-10)
(5.48636e-09 -9.94543e-10 -2.91009e-10)
(2.55852e-09 2.47847e-10 -5.09012e-10)
(-1.18655e-09 1.45454e-09 1.77158e-10)
(-5.61388e-09 2.26863e-09 4.20046e-10)
(-1.34558e-08 5.14148e-09 1.09939e-09)
(-1.86877e-08 1.06354e-08 2.94762e-09)
(-1.92472e-08 1.92866e-08 5.69614e-09)
(6.73068e-09 -9.63709e-10 -1.8208e-09)
(5.83102e-09 -1.07476e-09 -1.24922e-09)
(4.82525e-09 -7.82581e-10 -8.20151e-10)
(1.99111e-09 7.3192e-10 -4.73188e-10)
(-2.35415e-09 2.79612e-09 5.19427e-11)
(-6.06659e-09 3.48764e-09 5.0653e-10)
(-1.24971e-08 7.95323e-09 1.85922e-09)
(-1.968e-08 1.98889e-08 5.79058e-09)
(-3.09672e-08 5.4994e-08 1.70402e-08)
)
;

boundaryField
{
    inlet
    {
        type            calculated;
        value           nonuniform 0();
    }
    outlet
    {
        type            calculated;
        value           nonuniform List<vector> 
16
(
(9.18119e-10 3.86967e-09 3.83944e-09)
(2.99735e-09 3.32747e-09 3.40934e-09)
(3.40957e-09 -2.83437e-11 1.86501e-09)
(2.18722e-09 -2.93911e-10 1.5989e-09)
(-2.14532e-10 -1.18486e-09 3.93208e-09)
(-7.53358e-10 -3.99889e-10 2.35128e-09)
(4.57986e-09 1.98896e-09 1.2332e-09)
(4.0378e-09 7.74801e-10 7.88447e-10)
(4.91817e-10 -1.4429e-09 2.62054e-10)
(-1.35007e-11 -1.6948e-11 -3.55921e-10)
(-5.58577e-11 -2.68092e-10 -2.17949e-10)
(4.33265e-09 -4.65827e-10 -2.01653e-10)
(1.96238e-09 -7.36487e-10 -2.26472e-10)
(5.44564e-10 -4.35104e-10 -1.42927e-11)
(1.19297e-09 -1.02193e-10 1.81867e-11)
(-1.32065e-07 3.88176e-07 1.23838e-07)
)
;
    }
    wall
    {
        type            calculated;
        value           nonuniform List<vector> 
66
(
(6.22168e-09 -1.89836e-09 -1.08622e-09)
(9.99659e-09 3.50092e-10 2.03757e-11)
(4.58736e-09 -1.84326e-09 4.89682e-10)
(2.07379e-08 -5.54506e-09 4.72074e-09)
(4.44836e-09 -3.14718e-09 2.60225e-09)
(2.05046e-09 -1.60376e-09 -6.16577e-10)
(1.17914e-08 -4.97763e-09 4.02415e-09)
(1.72479e-08 -1.11886e-09 3.4678e-09)
(8.19396e-09 -3.57101e-09 8.13074e-10)
(4.07205e-10 1.97712e-09 -3.14323e-10)
(8.65415e-09 1.55384e-09 -2.35078e-09)
(6.67929e-09 4.02553e-10 -6.91476e-11)
(-7.92569e-09 1.37537e-09 3.45715e-09)
(-6.17863e-09 6.59812e-10 2.71637e-09)
(-1.74285e-08 1.69202e-08 3.788e-09)
(5.16589e-09 -2.89398e-10 2.51309e-10)
(1.60694e-09 -2.46708e-09 4.27361e-10)
(-6.72752e-09 -4.69948e-10 2.7597e-10)
(-3.76742e-08 -3.54203e-09 2.26388e-09)
(-4.00873e-08 -9.51173e-10 6.70561e-10)
(-2.46248e-08 -4.48877e-10 3.14427e-10)
(-1.00288e-08 3.97759e-10 -6.58674e-10)
(-4.77838e-08 8.19566e-10 1.66734e-09)
(-4.09939e-08 1.02482e-09 7.25313e-10)
(-3.81e-08 -2.09124e-10 -3.70566e-10)
(-2.06305e-08 -3.2303e-10 -1.38349e-09)
(4.61456e-10 -6.92406e-10 -1.09638e-09)
(-3.52739e-09 -3.86954e-10 -8.26292e-10)
(-3.61097e-09 -1.76867e-10 -2.71697e-10)
(-1.33721e-07 3.87351e-07 1.23372e-07)
(1.34442e-09 3.03844e-09 -1.44836e-08)
(1.29192e-08 -3.04984e-09 -1.13217e-08)
(1.25987e-09 -1.41474e-09 -3.77419e-09)
(5.31852e-10 -1.72903e-09 3.15476e-10)
(3.46335e-08 4.54675e-09 -1.05036e-08)
(3.47299e-08 1.73321e-09 -8.96676e-09)
(3.04111e-09 2.47505e-10 -3.26237e-09)
(1.28116e-09 -1.4863e-09 -5.9985e-10)
(2.16274e-08 -2.38589e-09 -1.05042e-08)
(-1.14429e-08 -3.79474e-09 2.57278e-10)
(6.48166e-10 -5.97699e-10 5.29296e-11)
(1.0909e-08 -3.51181e-09 6.67347e-10)
(2.94131e-08 -5.23407e-09 -1.24479e-09)
(1.61794e-08 -9.51396e-10 6.86429e-11)
(-7.56362e-10 1.96771e-10 -3.64236e-10)
(5.88637e-09 3.61466e-10 4.47474e-11)
(5.31988e-09 1.05488e-09 -3.00393e-09)
(9.55371e-10 -9.34725e-10 -2.15605e-09)
(-3.73899e-09 -3.81729e-10 -1.12738e-09)
(-2.63842e-08 1.73984e-08 4.03043e-09)
(1.09892e-08 3.83405e-09 -5.88516e-10)
(-1.14707e-08 2.34861e-09 -2.5055e-09)
(1.29834e-08 9.75184e-10 2.41019e-09)
(-2.82473e-09 -4.7417e-10 1.01172e-09)
(-3.19482e-08 3.78664e-10 -5.42759e-09)
(-2.64449e-08 1.60796e-09 2.02052e-09)
(-2.24993e-08 9.35681e-10 2.22205e-09)
(-1.10624e-08 3.75236e-10 -4.70015e-10)
(-4.38155e-08 -1.97131e-09 3.75159e-09)
(-3.35228e-08 3.03128e-09 2.1021e-09)
(-2.38869e-08 -6.36784e-10 1.05692e-09)
(-2.12195e-08 -3.09573e-10 -1.30278e-09)
(-8.38092e-10 -1.09816e-09 3.6154e-09)
(4.72431e-09 -6.03373e-10 5.67118e-10)
(2.1689e-09 -8.21248e-10 8.15355e-10)
(-5.02424e-07 4.42019e-07 3.84785e-07)
)
;
    }
    procBoundary7to0
    {
        type            processor;
        value           uniform (2.79251e-09 -7.1769e-09 -5.87321e-09);
    }
    procBoundary7to1
    {
        type            processor;
        value           uniform (-1.54088e-09 -7.34709e-09 -4.66873e-09);
    }
    procBoundary7to3
    {
        type            processor;
        value           nonuniform List<vector> 
36
(
(-9.75443e-09 -1.3305e-08 -8.36591e-09)
(-3.25435e-09 -7.0098e-09 -6.257e-09)
(-9.40742e-10 -4.62435e-09 -4.28265e-09)
(-8.52394e-09 -2.14331e-09 -2.60001e-09)
(-5.94851e-09 -9.62953e-11 -2.64897e-09)
(-1.06024e-08 1.24798e-09 -3.36209e-09)
(-2.5386e-08 2.16771e-09 -4.35737e-09)
(-3.34805e-08 2.05808e-09 -5.59252e-09)
(-3.31245e-08 2.21143e-09 -5.69612e-09)
(-9.03632e-10 -8.87413e-09 -7.76071e-09)
(-1.82341e-09 -7.45448e-09 -6.80439e-09)
(1.6449e-09 -8.46908e-09 -5.04353e-09)
(-7.35377e-10 -2.60933e-09 -2.9919e-09)
(-5.86263e-09 1.3412e-09 -2.70931e-09)
(-9.12848e-09 1.24628e-09 -3.57672e-09)
(-2.42443e-08 3.52777e-09 -4.81579e-09)
(-3.40113e-08 1.78902e-09 -6.04824e-09)
(-3.3121e-08 1.26876e-09 -6.19611e-09)
(6.17787e-09 -7.15254e-09 -6.04093e-09)
(6.23565e-09 -5.0146e-09 -6.09726e-09)
(5.59623e-09 -4.05569e-09 -5.11601e-09)
(2.57994e-09 -1.75761e-09 -3.73072e-09)
(-2.23133e-09 1.51938e-10 -3.30109e-09)
(-6.57481e-09 6.31822e-10 -4.20972e-09)
(-2.19763e-08 9.6658e-10 -5.17994e-09)
(-2.9799e-08 3.48247e-10 -5.83392e-09)
(-2.60672e-08 5.06581e-11 -6.00617e-09)
(9.75277e-09 -4.79184e-09 -5.93901e-09)
(1.20889e-08 -4.09752e-09 -6.21459e-09)
(1.04471e-08 -4.07803e-09 -5.67038e-09)
(6.31415e-09 -2.28114e-09 -4.355e-09)
(1.09433e-09 1.07222e-10 -3.65144e-09)
(-5.98387e-09 -5.50297e-11 -4.3753e-09)
(-1.69174e-08 -5.27444e-10 -4.86378e-09)
(-2.43765e-08 -3.63395e-10 -5.0704e-09)
(-2.12095e-08 -1.50159e-09 -5.35714e-09)
)
;
    }
    procBoundary7to5
    {
        type            processor;
        value           nonuniform List<vector> 
44
(
(-2.15186e-09 -5.24839e-09 -1.18626e-09)
(2.33246e-09 -3.28526e-09 -9.22662e-10)
(4.62252e-10 -1.82934e-09 -8.90987e-10)
(-3.35262e-09 -1.54556e-09 -8.61844e-10)
(-9.06987e-09 1.67521e-10 -1.62451e-09)
(-1.85738e-08 9.68461e-10 -1.996e-09)
(-2.28023e-08 9.48495e-10 -2.04277e-09)
(-1.97909e-08 1.96685e-09 -1.36167e-09)
(7.22213e-09 -4.41418e-09 -1.61141e-09)
(7.52895e-09 -3.47089e-09 -6.04634e-10)
(4.44772e-09 -2.49306e-09 2.17299e-10)
(3.1756e-09 -1.7041e-09 -1.72636e-10)
(-2.86308e-09 -1.03492e-09 1.16272e-10)
(-6.15795e-09 6.32469e-11 -5.54805e-10)
(-1.48827e-08 1.01729e-09 -8.31352e-10)
(-1.74085e-08 8.35676e-10 -5.79247e-10)
(-1.42532e-08 1.07494e-09 -6.41922e-10)
(7.22213e-09 -4.41418e-09 -1.61141e-09)
(7.52895e-09 -3.47089e-09 -6.04634e-10)
(7.52895e-09 -3.47089e-09 -6.04634e-10)
(6.16689e-09 -2.34432e-09 -3.56638e-10)
(3.68644e-09 -1.22516e-09 -8.09474e-11)
(-2.0785e-10 -8.84594e-10 6.32171e-10)
(-4.66276e-09 -1.73486e-10 2.00907e-11)
(-1.29724e-08 2.05833e-10 1.16428e-11)
(-1.5283e-08 4.79186e-10 3.92951e-10)
(-1.2975e-08 9.32818e-10 -9.52055e-11)
(8.77849e-09 -2.12945e-09 -6.41859e-10)
(6.93093e-09 -2.65285e-09 -1.19935e-10)
(6.16689e-09 -2.34432e-09 -3.56638e-10)
(3.68644e-09 -1.22516e-09 -8.09474e-11)
(3.68644e-09 -1.22516e-09 -8.09474e-11)
(-1.57461e-09 1.96676e-10 5.45294e-10)
(-6.18308e-09 8.62186e-10 3.96539e-10)
(-1.27642e-08 4.89643e-11 7.34397e-10)
(-1.53869e-08 6.92294e-10 2.54652e-10)
(-1.21123e-08 1.18191e-09 -3.66517e-10)
(8.54185e-09 -1.555e-09 -3.83818e-10)
(7.6627e-09 -2.49277e-09 4.07712e-10)
(5.3005e-09 -3.33608e-09 4.90268e-10)
(1.89716e-09 -1.16235e-09 2.68545e-10)
(-1.57461e-09 1.96676e-10 5.45294e-10)
(-6.18308e-09 8.62186e-10 3.96539e-10)
(-6.18308e-09 8.62186e-10 3.96539e-10)
)
;
    }
    procBoundary7to6
    {
        type            processor;
        value           nonuniform List<vector> 
12
(
(8.94699e-09 -5.09406e-09 -4.63239e-09)
(1.0673e-08 -4.23926e-09 -4.29972e-09)
(9.37794e-09 -3.55344e-09 -4.27329e-09)
(1.08202e-08 -2.48279e-09 -2.12619e-09)
(1.20251e-08 -2.27601e-09 -2.50905e-09)
(1.10866e-08 -2.09731e-09 -2.93262e-09)
(1.12437e-08 -7.80794e-10 -1.13928e-09)
(1.08171e-08 -9.90738e-10 -1.81247e-09)
(9.15868e-09 -1.03446e-09 -2.28342e-09)
(9.90106e-09 -1.73118e-10 -6.84265e-10)
(9.86003e-09 -3.66045e-10 -1.41393e-09)
(8.25577e-09 -6.87038e-10 -1.69549e-09)
)
;
    }
}


// ************************************************************************* //
