/*--------------------------------*- C++ -*----------------------------------*\
| =========                 |                                                 |
| \\      /  F ield         | OpenFOAM: The Open Source CFD Toolbox           |
|  \\    /   O peration     | Version:  4.x                                   |
|   \\  /    A nd           | Web:      www.OpenFOAM.org                      |
|    \\/     M anipulation  |                                                 |
\*---------------------------------------------------------------------------*/
FoamFile
{
    version     2.0;
    format      ascii;
    class       volScalarField;
    location    "31";
    object      p_rgh;
}
// * * * * * * * * * * * * * * * * * * * * * * * * * * * * * * * * * * * * * //

dimensions      [1 -1 -2 0 0 0 0];

internalField   nonuniform List<scalar> 
132
(
22.8754
75.0172
4.68459
68.4704
-13.5959
62.562
-32.0494
56.4001
-48.6892
21.6423
74.9012
3.24957
68.019
-14.7961
61.3436
-32.5698
54.9912
-48.2951
20.2504
74.9289
1.05332
68.394
-18.4117
62.6088
-38.709
58.5166
-59.5651
20.3156
74.9002
1.07381
68.5526
-18.5932
62.9625
-39.1573
58.996
-59.3946
4.5165
68.2823
-13.767
62.3391
-31.8213
55.5932
-47.6418
22.1944
74.9397
3.97826
68.4054
-14.3219
62.3922
-32.5834
56.7072
-49.7695
20.9558
74.9105
2.39871
68.3092
-15.7967
62.28
-33.5825
55.444
-48.7435
20.766
75.1107
1.87297
68.7167
-17.3292
62.7648
-36.866
57.713
-57.1041
-16.8685
61.7154
-35.9536
56.4605
-52.9672
21.8514
74.9505
3.5303
68.2132
-14.5642
61.2542
-32.1353
54.0306
-47.9015
21.0091
74.9169
1.97917
68.2429
-17.7542
62.3014
-38.7958
58.2252
-62.9258
21.14
74.9217
2.36472
68.4653
-16.8656
62.6522
-36.6774
58.3585
-70.7484
-38.5443
58.223
-63.5477
21.7369
75.2746
3.29232
68.7044
-15.4424
62.3051
-33.7914
55.9221
-52.7148
21.1675
75.0323
2.53094
68.6241
-16.5949
62.7668
-36.021
58.0721
-60.9252
21.343
75.0466
2.70859
68.6705
-16.1156
62.6192
-34.6415
57.1556
-55.0821
)
;

boundaryField
{
    inlet
    {
        type            fixedFluxPressure;
        gradient        nonuniform 0();
        value           nonuniform 0();
    }
    outlet
    {
        type            fixedValue;
        value           uniform 0;
    }
    wall
    {
        type            fixedFluxPressure;
        gradient        nonuniform List<scalar> 
66
(
2.81318e-05
1.04057e-05
5.60886e-06
1.39802e-05
2.02258e-06
1.66487e-06
5.07963e-05
1.52186e-05
2.3105e-06
4.50173e-06
1.12897e-06
-5.05154e-07
-1.28908e-05
-7.6123e-06
-3.18805e-06
-6.10178e-06
-4.65252e-06
-8.76719e-06
-3.49714e-06
-1.62303e-05
-1.67263e-05
-2.68959e-06
-6.05381e-06
-1.1459e-05
-1.06075e-05
-5.8387e-06
2.3169e-05
-3.19675e-05
-5.06836e-05
3.0742e-05
-2.57008e-05
-2.03165e-05
-7.96162e-06
-7.2186e-06
-1.08902e-06
-5.8714e-06
-6.90028e-06
-7.08529e-06
-1.69515e-05
-4.28493e-05
-1.1501e-05
-7.27604e-06
-6.81817e-06
-1.30957e-06
-3.95947e-06
-2.52306e-06
-1.14471e-05
-2.32566e-05
-1.25086e-05
1.20155e-05
-5.85401e-06
-1.24298e-05
-7.37783e-06
-3.75777e-06
-1.34367e-05
-5.50604e-05
-1.89512e-05
-9.3772e-06
7.67237e-08
-6.34352e-06
-4.62388e-06
-3.68854e-06
4.05807e-05
5.7488e-05
-1.49297e-05
0.000145828
)
;
        value           nonuniform List<scalar> 
66
(
21.7369
21.1675
21.343
75.2746
75.0323
75.0466
3.29232
2.53094
2.70859
68.7044
68.6241
68.6705
-15.4424
-16.5949
-16.1156
62.3051
62.7668
62.6192
-38.5443
-33.7914
-36.021
-34.6415
58.223
55.9221
58.0721
57.1556
-63.5477
-52.7148
-60.9252
-55.0821
20.3156
20.766
21.14
21.343
74.9002
75.1107
74.9217
75.0466
1.07381
1.87297
2.36472
2.70859
68.5526
68.7167
68.4653
68.6705
-18.5932
-17.3292
-16.8656
-16.1156
62.9625
62.7648
62.6522
62.6192
-39.1573
-36.866
-36.6774
-34.6415
58.996
57.713
58.3585
57.1556
-59.3946
-57.1041
-70.7484
-55.0821
)
;
    }
    procBoundary7to0
    {
        type            processor;
        value           uniform 82.0009;
    }
    procBoundary7to1
    {
        type            processor;
        value           uniform 22.6288;
    }
    procBoundary7to3
    {
        type            processor;
        value           nonuniform List<scalar> 
36
(
20.274
74.8547
1.70212
68.5769
-16.6129
63.3008
-34.2806
57.663
-49.2712
20.0976
74.9405
1.12569
68.5159
-17.6207
63.0905
-36.7062
58.9918
-54.6125
19.6064
74.9778
0.261465
68.331
-19.0574
62.5523
-38.4654
57.9542
-54.5916
19.5332
74.8309
0.0968511
68.6568
-20.4165
63.4588
-42.9714
60.9033
-68.4551
)
;
    }
    procBoundary7to5
    {
        type            processor;
        value           nonuniform List<scalar> 
44
(
75.0981
4.89877
68.4632
-12.6702
61.6904
-29.6871
53.9948
-45.2725
22.464
74.8583
3.16674
68.3075
-15.5492
62.2733
-34.4188
57.3272
-51.6611
22.464
74.8583
74.8583
2.27387
68.0123
-15.2609
61.2151
-33.1924
54.3833
-48.7065
21.1723
74.9428
2.27387
68.0123
68.0123
-17.6447
62.5405
-38.1585
58.1527
-63.3342
21.0386
74.9917
2.0802
68.4994
-17.6447
62.5405
62.5405
)
;
    }
    procBoundary7to6
    {
        type            processor;
        value           nonuniform List<scalar> 
12
(
82.0648
81.8702
81.7414
81.8959
82.1154
81.942
82.3178
81.9888
81.8378
82.1237
81.892
81.834
)
;
    }
}


// ************************************************************************* //
