/*--------------------------------*- C++ -*----------------------------------*\
| =========                 |                                                 |
| \\      /  F ield         | OpenFOAM: The Open Source CFD Toolbox           |
|  \\    /   O peration     | Version:  4.x                                   |
|   \\  /    A nd           | Web:      www.OpenFOAM.org                      |
|    \\/     M anipulation  |                                                 |
\*---------------------------------------------------------------------------*/
FoamFile
{
    version     2.0;
    format      ascii;
    class       volScalarField;
    location    "31";
    object      Qsource;
}
// * * * * * * * * * * * * * * * * * * * * * * * * * * * * * * * * * * * * * //

dimensions      [1 -1 -3 0 0 0 0];

internalField   nonuniform List<scalar> 
132
(
9.93606e+09
9.03672e+09
6.3674e+09
7.90887e+09
1.10418e+10
1.24882e+10
8.01298e+09
6.65212e+09
6.48815e+09
7.51948e+09
1.13449e+10
7.39049e+09
8.11483e+09
8.39683e+09
6.9453e+09
7.93072e+09
7.76753e+09
6.9708e+09
5.21549e+09
9.37443e+09
6.83582e+09
8.9115e+09
8.20281e+09
1.04434e+10
8.55573e+09
9.11841e+09
6.84251e+09
7.52334e+09
8.4024e+09
9.38465e+09
6.87557e+09
8.3013e+09
8.90402e+09
8.35667e+09
7.88909e+09
3.80282e+09
6.53943e+09
8.64471e+09
7.00075e+09
8.22078e+09
8.84632e+09
9.95431e+09
6.20715e+09
3.8447e+09
1.01127e+10
7.30795e+09
8.87739e+09
8.63523e+09
8.31558e+09
5.68789e+09
9.09089e+09
4.63665e+09
6.01814e+09
1.01852e+10
7.57006e+09
7.35519e+09
8.25676e+09
1.06342e+10
9.59832e+09
8.4841e+09
6.45941e+09
7.18326e+09
9.56146e+09
6.56441e+09
8.9916e+09
7.61256e+09
7.72109e+09
6.69554e+09
9.8688e+09
4.44036e+09
5.03802e+09
7.24846e+09
8.23158e+09
7.63493e+09
4.65664e+09
8.51743e+09
9.1295e+09
7.03537e+09
6.47531e+09
9.06707e+09
8.75708e+09
7.75118e+09
1.06908e+10
6.89565e+09
8.23367e+09
9.51717e+09
8.68903e+09
9.04505e+09
9.36552e+09
9.96849e+09
8.97285e+09
9.37302e+09
6.83638e+09
6.56354e+09
8.25944e+09
7.75572e+09
9.09125e+09
7.0356e+09
7.79384e+09
8.68682e+09
9.23368e+09
5.21372e+09
6.16365e+09
9.07702e+09
5.2177e+09
7.51299e+09
7.74786e+09
7.57792e+09
9.33056e+09
5.06153e+09
5.59493e+09
6.71054e+09
8.2902e+09
4.40861e+09
6.79857e+09
7.65508e+09
6.75491e+09
8.63739e+09
7.66871e+09
8.00313e+09
7.8197e+09
8.56876e+09
6.09775e+09
7.27842e+09
1.01521e+10
7.06847e+09
9.03014e+09
8.44223e+09
8.83302e+09
7.54308e+09
8.76322e+09
4.60233e+09
)
;

boundaryField
{
    inlet
    {
        type            calculated;
        value           nonuniform 0();
    }
    outlet
    {
        type            calculated;
        value           uniform 0;
    }
    wall
    {
        type            calculated;
        value           uniform 0;
    }
    procBoundary7to0
    {
        type            processor;
        value           uniform 2.58395e+09;
    }
    procBoundary7to1
    {
        type            processor;
        value           uniform 5.83789e+09;
    }
    procBoundary7to3
    {
        type            processor;
        value           nonuniform List<scalar> 
36
(
8.09101e+09
1.08293e+10
8.99922e+09
1.01599e+10
6.45934e+09
7.65249e+09
8.91828e+09
8.36328e+09
6.86908e+09
9.67241e+09
6.23322e+09
8.16889e+09
5.03777e+09
4.39723e+09
9.55225e+09
7.71561e+09
1.1091e+10
5.14056e+09
6.06069e+09
1.03669e+10
9.20877e+09
7.30121e+09
7.39194e+09
1.00015e+10
8.15899e+09
9.36105e+09
4.9456e+09
9.31494e+09
5.84447e+09
6.35247e+09
8.02401e+09
7.01153e+09
9.78812e+09
7.05286e+09
1.08886e+10
8.25143e+09
)
;
    }
    procBoundary7to5
    {
        type            processor;
        value           nonuniform List<scalar> 
44
(
9.91997e+09
6.11605e+09
8.7115e+09
5.86584e+09
5.33177e+09
7.52776e+09
6.30731e+09
6.85703e+09
1.02529e+10
5.06368e+09
7.29204e+09
9.12631e+09
6.19522e+09
8.45788e+09
7.34647e+09
8.15715e+09
4.50411e+09
1.02529e+10
5.06368e+09
5.06368e+09
9.51823e+09
9.92965e+09
1.13604e+10
9.2709e+09
9.1406e+09
1.10203e+10
8.26019e+09
5.27863e+09
1.16829e+10
9.51823e+09
9.92965e+09
9.92965e+09
1.05727e+10
9.37402e+09
7.30512e+09
9.1544e+09
6.64777e+09
7.5241e+09
7.29618e+09
7.60302e+09
7.54992e+09
1.05727e+10
9.37402e+09
9.37402e+09
)
;
    }
    procBoundary7to6
    {
        type            processor;
        value           nonuniform List<scalar> 
12
(
8.07464e+09
8.90823e+09
6.48504e+09
9.97153e+09
9.42133e+09
9.66181e+09
9.54107e+09
9.98491e+09
7.7725e+09
5.32997e+09
9.33355e+09
9.03066e+09
)
;
    }
}


// ************************************************************************* //
