/*--------------------------------*- C++ -*----------------------------------*\
| =========                 |                                                 |
| \\      /  F ield         | OpenFOAM: The Open Source CFD Toolbox           |
|  \\    /   O peration     | Version:  4.x                                   |
|   \\  /    A nd           | Web:      www.OpenFOAM.org                      |
|    \\/     M anipulation  |                                                 |
\*---------------------------------------------------------------------------*/
FoamFile
{
    version     2.0;
    format      ascii;
    class       volScalarField;
    location    "31";
    object      QWallFluidCoeff;
}
// * * * * * * * * * * * * * * * * * * * * * * * * * * * * * * * * * * * * * //

dimensions      [1 -1 -3 -1 0 0 0];

internalField   nonuniform List<scalar> 
132
(
0
0
0
0
0
0
0
0
0
0
0
0
0
0
0
0
0
0
0
0
0
0
0
0
0
0
0
-1.58063e+06
-2.98117e+06
-1.51571e+06
-3.0282e+06
-1.38248e+06
-3.0532e+06
-1.13801e+06
-3.06506e+06
-779040
0
0
0
0
0
0
0
0
0
0
0
0
0
0
0
0
0
0
0
0
0
0
0
0
0
-1.28235e+06
-2.80411e+06
-1.12558e+06
-2.81497e+06
-943941
-2.83508e+06
-827995
-2.8761e+06
-720643
0
0
0
0
0
0
0
0
0
0
0
0
0
0
0
0
0
0
0
0
0
0
0
-1.65664e+06
-2.94951e+06
-1.62459e+06
-2.99111e+06
-1.55567e+06
-3.07117e+06
-1.36599e+06
-3.23877e+06
-775486
-1.18674e+06
-3.39063e+06
-1.21162e+06
-1.10826e+06
-2.71076e+06
-886853
-2.67053e+06
-633806
-2.61579e+06
-403903
-2.47406e+06
-525588
-1.56046e+06
-2.90511e+06
-1.4785e+06
-2.91794e+06
-1.324e+06
-2.94672e+06
-1.12079e+06
-3.02943e+06
-707527
-3.89982e+06
-6.14661e+06
-3.80831e+06
-6.15058e+06
-3.60734e+06
-6.03313e+06
-3.37996e+06
-5.60759e+06
-3.33757e+06
)
;

boundaryField
{
    inlet
    {
        type            calculated;
        value           nonuniform 0();
    }
    outlet
    {
        type            calculated;
        value           uniform 0;
    }
    wall
    {
        type            calculated;
        value           uniform 0;
    }
    procBoundary7to0
    {
        type            processor;
        value           uniform 0;
    }
    procBoundary7to1
    {
        type            processor;
        value           uniform 0;
    }
    procBoundary7to3
    {
        type            processor;
        value           uniform 0;
    }
    procBoundary7to5
    {
        type            processor;
        value           uniform 0;
    }
    procBoundary7to6
    {
        type            processor;
        value           uniform 0;
    }
}


// ************************************************************************* //
