/*--------------------------------*- C++ -*----------------------------------*\
| =========                 |                                                 |
| \\      /  F ield         | OpenFOAM: The Open Source CFD Toolbox           |
|  \\    /   O peration     | Version:  4.x                                   |
|   \\  /    A nd           | Web:      www.OpenFOAM.org                      |
|    \\/     M anipulation  |                                                 |
\*---------------------------------------------------------------------------*/
FoamFile
{
    version     2.0;
    format      ascii;
    class       volScalarField;
    location    "12.5";
    object      Deff;
}
// * * * * * * * * * * * * * * * * * * * * * * * * * * * * * * * * * * * * * //

dimensions      [0 2 -1 0 0 0 0];

internalField   nonuniform List<scalar> 
87
(
9.81011e-08
9.81729e-08
9.81238e-08
9.83215e-08
9.83145e-08
9.8297e-08
9.82724e-08
9.82884e-08
9.82926e-08
9.81006e-08
9.79609e-08
9.80313e-08
9.79536e-08
9.7978e-08
9.78942e-08
9.85345e-08
9.83463e-08
9.8293e-08
9.81021e-08
9.80471e-08
9.80035e-08
9.79965e-08
9.79497e-08
9.79453e-08
9.87182e-08
9.84757e-08
9.84309e-08
9.82525e-08
9.81016e-08
9.80105e-08
9.81125e-08
9.80962e-08
9.80531e-08
9.83305e-08
9.82615e-08
9.81616e-08
9.80511e-08
9.80437e-08
9.79729e-08
9.79332e-08
9.79587e-08
9.78723e-08
9.8547e-08
9.83629e-08
9.82552e-08
9.81134e-08
9.80862e-08
9.80718e-08
9.79751e-08
9.80319e-08
9.79178e-08
9.87069e-08
9.84808e-08
9.83876e-08
9.81618e-08
9.80882e-08
9.80906e-08
9.81015e-08
9.81268e-08
9.80949e-08
9.85478e-08
9.84371e-08
9.82701e-08
9.80883e-08
9.80084e-08
9.79522e-08
9.78525e-08
9.78819e-08
9.80582e-08
9.86161e-08
9.8501e-08
9.83046e-08
9.81931e-08
9.80052e-08
9.80596e-08
9.80128e-08
9.80626e-08
9.79563e-08
9.87886e-08
9.8549e-08
9.8391e-08
9.82385e-08
9.819e-08
9.80311e-08
9.81965e-08
9.82096e-08
9.81004e-08
)
;

boundaryField
{
    inlet
    {
        type            calculated;
        value           uniform 0;
    }
    outlet
    {
        type            calculated;
        value           nonuniform 0();
    }
    wall
    {
        type            calculated;
        value           uniform 0;
    }
    procBoundary6to0
    {
        type            processor;
        value           uniform 0;
    }
    procBoundary6to2
    {
        type            processor;
        value           uniform 0;
    }
    procBoundary6to4
    {
        type            processor;
        value           uniform 0;
    }
    procBoundary6to7
    {
        type            processor;
        value           uniform 0;
    }
}


// ************************************************************************* //
