/*--------------------------------*- C++ -*----------------------------------*\
| =========                 |                                                 |
| \\      /  F ield         | OpenFOAM: The Open Source CFD Toolbox           |
|  \\    /   O peration     | Version:  4.x                                   |
|   \\  /    A nd           | Web:      www.OpenFOAM.org                      |
|    \\/     M anipulation  |                                                 |
\*---------------------------------------------------------------------------*/
FoamFile
{
    version     2.0;
    format      ascii;
    class       volVectorField;
    location    "12.5";
    object      impParticleForces;
}
// * * * * * * * * * * * * * * * * * * * * * * * * * * * * * * * * * * * * * //

dimensions      [1 1 -2 0 0 0 0];

internalField   nonuniform List<vector> 
87
(
(0.00239367 5.39385e-06 -9.26544e-06)
(0.00237883 1.22122e-05 -2.41652e-05)
(0.00240711 1.16908e-05 -1.13096e-05)
(0.00236006 1.69326e-05 -3.9541e-05)
(0.00234961 1.50278e-05 -2.57348e-05)
(0.00236476 1.39741e-05 -1.37163e-05)
(0.00234307 7.51165e-06 -7.32413e-05)
(0.00236782 7.7951e-06 -7.23896e-05)
(0.00238758 8.17348e-06 -6.8773e-05)
(0.00238219 7.44903e-06 -6.15242e-05)
(0.00240533 6.93e-06 -5.2613e-05)
(0.00236763 5.51911e-06 -4.03053e-05)
(0.00238728 4.47665e-06 -2.83309e-05)
(0.00235055 3.62616e-06 -1.76705e-05)
(0.0023778 2.99364e-06 -8.82012e-06)
(0.00230868 1.69686e-05 -7.21452e-05)
(0.00234416 1.81309e-05 -7.19886e-05)
(0.00237898 1.89325e-05 -6.91257e-05)
(0.00237898 1.75448e-05 -6.25368e-05)
(0.00240004 1.67138e-05 -5.4084e-05)
(0.00237397 1.43e-05 -4.26045e-05)
(0.00238957 1.28672e-05 -3.07813e-05)
(0.00235989 1.05455e-05 -2.00869e-05)
(0.00238812 9.17617e-06 -1.12033e-05)
(0.00225374 1.96893e-05 -7.06118e-05)
(0.00228654 2.10164e-05 -7.07112e-05)
(0.00231325 2.13539e-05 -6.7945e-05)
(0.0023238 2.04149e-05 -6.22367e-05)
(0.0023607 2.01366e-05 -5.44439e-05)
(0.00235396 1.81244e-05 -4.41485e-05)
(0.00235339 1.61599e-05 -3.25913e-05)
(0.00232755 1.33872e-05 -2.19441e-05)
(0.00235918 1.19132e-05 -1.32366e-05)
(0.00231734 6.90527e-06 -5.75785e-05)
(0.00234487 7.47642e-06 -5.63647e-05)
(0.00237988 7.77807e-06 -5.25921e-05)
(0.00236262 6.76443e-06 -4.71896e-05)
(0.00237381 5.94094e-06 -3.94836e-05)
(0.00235696 4.66185e-06 -3.06676e-05)
(0.00237813 3.67406e-06 -2.10426e-05)
(0.00233664 2.21661e-06 -1.38103e-05)
(0.0023655 9.30138e-07 -7.62939e-06)
(0.00228029 1.57928e-05 -5.78118e-05)
(0.00232153 1.71414e-05 -5.66416e-05)
(0.00235823 1.7817e-05 -5.31405e-05)
(0.00234912 1.61066e-05 -4.83481e-05)
(0.00237182 1.522e-05 -4.07219e-05)
(0.00234794 1.28688e-05 -3.26647e-05)
(0.00237961 1.18357e-05 -2.31113e-05)
(0.00234276 9.10446e-06 -1.6025e-05)
(0.00237753 7.63936e-06 -9.77291e-06)
(0.00223834 1.90269e-05 -5.78245e-05)
(0.00225782 1.96741e-05 -5.69279e-05)
(0.00228948 2.00542e-05 -5.38784e-05)
(0.00230137 1.91765e-05 -4.9183e-05)
(0.00232649 1.83476e-05 -4.24244e-05)
(0.00231561 1.62049e-05 -3.43776e-05)
(0.0023353 1.47532e-05 -2.55645e-05)
(0.0023184 1.21861e-05 -1.81051e-05)
(0.00234135 1.04725e-05 -1.20271e-05)
(0.00227017 5.91621e-06 -5.02028e-05)
(0.00228267 6.11463e-06 -4.8779e-05)
(0.00232747 6.39715e-06 -4.51437e-05)
(0.00231833 5.50014e-06 -4.04649e-05)
(0.00233214 4.68043e-06 -3.37535e-05)
(0.0023225 3.6119e-06 -2.63439e-05)
(0.002352 2.52194e-06 -1.8131e-05)
(0.0023163 1.20101e-06 -1.22378e-05)
(0.00232301 -1.67146e-07 -7.80576e-06)
(0.00223959 1.41956e-05 -5.07475e-05)
(0.00226115 1.47799e-05 -4.93125e-05)
(0.00229938 1.52497e-05 -4.6062e-05)
(0.00230142 1.41325e-05 -4.16261e-05)
(0.00232646 1.3268e-05 -3.50983e-05)
(0.00231272 1.13233e-05 -2.81114e-05)
(0.00233482 9.92851e-06 -2.03166e-05)
(0.00231341 7.62059e-06 -1.44536e-05)
(0.00233225 6.04115e-06 -9.78116e-06)
(0.00220888 1.75515e-05 -5.12533e-05)
(0.00222504 1.80221e-05 -5.00127e-05)
(0.00226139 1.84351e-05 -4.7057e-05)
(0.00226301 1.73519e-05 -4.26799e-05)
(0.00227859 1.61769e-05 -3.66814e-05)
(0.00229136 1.47347e-05 -2.97608e-05)
(0.0023032 1.2905e-05 -2.25701e-05)
(0.00229308 1.06129e-05 -1.66256e-05)
(0.00231767 8.84099e-06 -1.19542e-05)
)
;

boundaryField
{
    inlet
    {
        type            zeroGradient;
    }
    outlet
    {
        type            zeroGradient;
    }
    wall
    {
        type            zeroGradient;
    }
    procBoundary6to0
    {
        type            processor;
        value           uniform (0.00236431 -2.3575e-06 -8.4709e-06);
    }
    procBoundary6to2
    {
        type            processor;
        value           nonuniform List<vector> 
32
(
(0.00241084 7.44748e-06 -9.53217e-06)
(0.00241743 1.41664e-05 -2.77071e-05)
(0.00244017 1.44339e-05 -1.12694e-05)
(0.00240508 1.86278e-05 -4.69469e-05)
(0.00238039 1.68485e-05 -2.93484e-05)
(0.00240243 1.68387e-05 -1.37012e-05)
(0.00232552 6.914e-06 -8.86669e-05)
(0.00237392 7.94319e-06 -9.00158e-05)
(0.00242113 8.96234e-06 -8.81311e-05)
(0.00240089 8.2009e-06 -7.80817e-05)
(0.00241524 7.66564e-06 -6.66784e-05)
(0.0023892 6.51081e-06 -5.12223e-05)
(0.00240573 5.85191e-06 -3.58931e-05)
(0.0023728 5.34742e-06 -2.14988e-05)
(0.0023728 5.34742e-06 -2.14988e-05)
(0.0023728 5.34742e-06 -2.14988e-05)
(0.00229862 1.59271e-05 -8.69405e-05)
(0.00234453 1.76747e-05 -8.85693e-05)
(0.0024078 1.96514e-05 -8.77845e-05)
(0.00238894 1.78133e-05 -7.846e-05)
(0.00241547 1.73797e-05 -6.82761e-05)
(0.00238735 1.50363e-05 -5.32426e-05)
(0.00241119 1.42339e-05 -3.88149e-05)
(0.00241119 1.42339e-05 -3.88149e-05)
(0.00241119 1.42339e-05 -3.88149e-05)
(0.00224684 1.89008e-05 -8.39775e-05)
(0.00228736 2.05476e-05 -8.5276e-05)
(0.00234798 2.24112e-05 -8.45779e-05)
(0.00234634 2.11549e-05 -7.69034e-05)
(0.00236881 2.05127e-05 -6.71154e-05)
(0.00235239 1.83104e-05 -5.3474e-05)
(0.00235239 1.83104e-05 -5.3474e-05)
)
;
    }
    procBoundary6to4
    {
        type            processor;
        value           nonuniform List<vector> 
27
(
(0.00230854 -6.03531e-06 -7.20627e-05)
(0.00235816 -6.4381e-06 -7.18498e-05)
(0.00240566 -6.17404e-06 -6.88704e-05)
(0.00238534 -5.76186e-06 -6.09964e-05)
(0.00240553 -5.59819e-06 -5.1361e-05)
(0.00237403 -5.00221e-06 -3.92608e-05)
(0.00240183 -4.93799e-06 -2.67883e-05)
(0.00235037 -4.40824e-06 -1.60032e-05)
(0.00236489 -4.26656e-06 -6.925e-06)
(0.00230778 -6.2971e-06 -5.76148e-05)
(0.00234546 -6.46393e-06 -5.61764e-05)
(0.00238161 -6.42655e-06 -5.22141e-05)
(0.00237931 -5.97112e-06 -4.64285e-05)
(0.00240256 -6.03061e-06 -3.80767e-05)
(0.00236657 -5.62903e-06 -2.93634e-05)
(0.00239008 -5.76149e-06 -1.92894e-05)
(0.00234434 -5.70207e-06 -1.18114e-05)
(0.00235735 -6.19871e-06 -5.37263e-06)
(0.00228559 -6.24764e-06 -5.00797e-05)
(0.00229415 -6.1299e-06 -4.84394e-05)
(0.0023332 -6.30961e-06 -4.46229e-05)
(0.00233533 -6.18296e-06 -3.95523e-05)
(0.00236085 -6.16328e-06 -3.23443e-05)
(0.0023381 -5.89177e-06 -2.48904e-05)
(0.00232816 -5.92354e-06 -1.70965e-05)
(0.00231046 -6.2909e-06 -1.05811e-05)
(0.00232258 -7.17033e-06 -5.47523e-06)
)
;
    }
    procBoundary6to7
    {
        type            processor;
        value           nonuniform List<vector> 
12
(
(0.00238827 5.53911e-06 -3.12148e-06)
(0.00239278 1.08056e-05 -4.41888e-06)
(0.00236677 1.31854e-05 -5.6147e-06)
(0.00235321 2.36884e-06 -5.63832e-06)
(0.00236615 7.78902e-06 -7.04039e-06)
(0.00234253 1.03148e-05 -8.24022e-06)
(0.00235217 1.61505e-07 -6.27887e-06)
(0.00235699 6.00925e-06 -8.11717e-06)
(0.00232809 8.65456e-06 -9.41476e-06)
(0.0023212 -1.26149e-06 -6.95897e-06)
(0.00231755 4.59163e-06 -9.17871e-06)
(0.00229876 7.20729e-06 -1.07688e-05)
)
;
    }
}


// ************************************************************************* //
