/*--------------------------------*- C++ -*----------------------------------*\
| =========                 |                                                 |
| \\      /  F ield         | OpenFOAM: The Open Source CFD Toolbox           |
|  \\    /   O peration     | Version:  4.x                                   |
|   \\  /    A nd           | Web:      www.OpenFOAM.org                      |
|    \\/     M anipulation  |                                                 |
\*---------------------------------------------------------------------------*/
FoamFile
{
    version     2.0;
    format      ascii;
    class       volScalarField;
    location    "12.5";
    object      QWallFluidCoeff;
}
// * * * * * * * * * * * * * * * * * * * * * * * * * * * * * * * * * * * * * //

dimensions      [1 -1 -3 -1 0 0 0];

internalField   nonuniform List<scalar> 
87
(
0
0
0
-2.83886e+06
-1.65019e+06
-2.90577e+06
0
0
0
0
0
0
0
0
0
0
0
0
0
0
0
0
0
0
-2.7023e+06
-1.42327e+06
-2.71255e+06
-1.45863e+06
-2.70227e+06
-1.44127e+06
-2.70797e+06
-1.44767e+06
-2.71698e+06
0
0
0
0
0
0
0
0
0
0
0
0
0
0
0
0
0
0
-2.69393e+06
-1.48785e+06
-2.74331e+06
-1.57758e+06
-2.76884e+06
-1.63812e+06
-2.81475e+06
-1.69609e+06
-2.87487e+06
-2.66534e+06
-1.41147e+06
-2.65705e+06
-1.36998e+06
-2.64267e+06
-1.32295e+06
-2.63369e+06
-1.27588e+06
-2.66671e+06
-2.68235e+06
-1.47407e+06
-2.70864e+06
-1.53137e+06
-2.72002e+06
-1.56782e+06
-2.73985e+06
-1.60503e+06
-2.77257e+06
-5.41283e+06
-3.10683e+06
-5.5658e+06
-3.41628e+06
-5.71371e+06
-3.6188e+06
-5.81257e+06
-3.76372e+06
-5.87179e+06
)
;

boundaryField
{
    inlet
    {
        type            calculated;
        value           uniform 0;
    }
    outlet
    {
        type            calculated;
        value           nonuniform 0();
    }
    wall
    {
        type            calculated;
        value           uniform 0;
    }
    procBoundary6to0
    {
        type            processor;
        value           uniform 0;
    }
    procBoundary6to2
    {
        type            processor;
        value           uniform 0;
    }
    procBoundary6to4
    {
        type            processor;
        value           uniform 0;
    }
    procBoundary6to7
    {
        type            processor;
        value           uniform 0;
    }
}


// ************************************************************************* //
