/*--------------------------------*- C++ -*----------------------------------*\
| =========                 |                                                 |
| \\      /  F ield         | OpenFOAM: The Open Source CFD Toolbox           |
|  \\    /   O peration     | Version:  4.x                                   |
|   \\  /    A nd           | Web:      www.OpenFOAM.org                      |
|    \\/     M anipulation  |                                                 |
\*---------------------------------------------------------------------------*/
FoamFile
{
    version     2.0;
    format      ascii;
    class       volVectorField;
    location    "23";
    object      DDtUrel;
}
// * * * * * * * * * * * * * * * * * * * * * * * * * * * * * * * * * * * * * //

dimensions      [0 1 -2 0 0 0 0];

internalField   nonuniform List<vector> 
132
(
(1.99108e-05 3.70667e-06 2.53641e-05)
(-1.06564e-05 3.02548e-06 1.85399e-05)
(-5.566e-05 2.0386e-06 1.46342e-05)
(-0.000120769 5.0556e-07 -8.30956e-06)
(-0.00022816 -2.16423e-06 -3.66237e-05)
(-0.000393248 -8.82638e-06 -0.000108837)
(-0.000653906 -1.91095e-05 -0.000207768)
(-0.000993896 -6.63483e-06 -0.000382828)
(-0.0015027 7.87691e-06 -0.000536163)
(3.54602e-05 5.78356e-07 1.86645e-05)
(-2.63161e-06 7.90437e-06 1.24773e-05)
(-3.93279e-05 1.4119e-05 8.98139e-06)
(-0.000111392 2.89483e-05 -1.65109e-05)
(-0.000211868 4.90659e-05 -4.78554e-05)
(-0.00038675 8.84198e-05 -0.000135871)
(-0.000664358 0.000144742 -0.000247713)
(-0.00103664 0.000289134 -0.000475924)
(-0.00156065 0.000459626 -0.000693609)
(6.20509e-05 1.25206e-06 1.52939e-05)
(2.10062e-05 1.26569e-05 6.80749e-06)
(-4.21552e-06 2.4997e-05 4.47514e-06)
(-7.92643e-05 5.69001e-05 -2.62667e-05)
(-0.00016132 8.9796e-05 -5.79849e-05)
(-0.000353545 0.000188808 -0.000159986)
(-0.000634365 0.000292597 -0.000277248)
(-0.00116715 0.000667017 -0.000556654)
(-0.00180865 0.000977115 -0.000813586)
(0.000102632 -2.56172e-08 5.55655e-06)
(5.36454e-05 1.70052e-05 -2.30275e-06)
(5.62949e-05 2.80187e-05 -5.64987e-07)
(-3.5366e-05 7.6944e-05 -3.59757e-05)
(-4.91821e-05 0.000111669 -5.39624e-05)
(-0.000301223 0.000245995 -0.000169198)
(-0.000460263 0.000356506 -0.00024647)
(-0.0013829 0.000833463 -0.000584241)
(-0.00250647 0.00122005 -0.000951915)
(-4.86553e-05 -4.77696e-06 9.27715e-06)
(-0.000110973 -1.10132e-05 -6.07526e-06)
(-0.000203555 -1.62194e-05 -2.40573e-05)
(-0.000354569 -4.10605e-05 -6.55781e-05)
(-0.000578021 -6.30217e-05 -0.000113045)
(-0.000907285 -0.00011096 -0.00021226)
(-0.00143314 -0.000154606 -0.000282288)
(8.14416e-06 -6.30492e-07 9.94568e-06)
(-1.60216e-05 4.12908e-06 5.14976e-06)
(-5.3389e-05 1.04489e-05 2.66545e-06)
(-0.00010983 1.84453e-05 -1.56651e-05)
(-0.000204755 3.16938e-05 -3.96253e-05)
(-0.000352154 5.75764e-05 -9.4403e-05)
(-0.000590358 0.000103409 -0.000159301)
(-0.000894949 0.000168805 -0.000285406)
(-0.00136339 0.000260944 -0.000381742)
(2.14725e-05 -2.06726e-07 6.59798e-06)
(-3.83516e-06 9.24468e-06 9.18943e-07)
(-4.01099e-05 2.20742e-05 -2.15566e-06)
(-9.11926e-05 4.48067e-05 -2.19485e-05)
(-0.000184617 7.67086e-05 -4.67722e-05)
(-0.000331239 0.000150201 -0.000104047)
(-0.000601367 0.000258558 -0.000176936)
(-0.000990134 0.000498058 -0.000295127)
(-0.00147401 0.000735725 -0.000403803)
(4.40849e-05 -2.01389e-06 -5.16345e-07)
(9.53663e-06 1.27548e-05 -6.75718e-06)
(-1.26885e-05 2.38792e-05 -6.62303e-06)
(-6.93698e-05 6.26301e-05 -2.50071e-05)
(-0.000136333 0.000106296 -4.3949e-05)
(-0.000298645 0.000202892 -0.000102657)
(-0.000556102 0.000340879 -0.000164449)
(-0.0011327 0.000653573 -0.00026594)
(-0.0018487 0.0009588 -0.000390446)
(-0.000202636 -4.13389e-05 -1.43165e-05)
(-0.000338121 -7.84101e-05 -3.1434e-05)
(-0.000588482 -0.000124473 -5.63606e-05)
(-0.000878065 -0.000216924 -7.86396e-05)
(-0.00131087 -0.000304039 -6.76205e-05)
(7.4638e-06 -7.50685e-07 -2.02589e-06)
(-2.10561e-05 1.65543e-06 -3.21842e-06)
(-4.84378e-05 4.11242e-06 -4.67158e-06)
(-0.000105981 1.16761e-05 -1.65215e-05)
(-0.00019078 2.15123e-05 -3.66124e-05)
(-0.000332077 4.38054e-05 -6.29574e-05)
(-0.000572381 7.26954e-05 -0.000105289)
(-0.000872186 0.000188725 -0.000138878)
(-0.00131912 0.000345519 -0.000135067)
(2.40335e-05 7.06035e-07 -6.59645e-06)
(-3.83694e-06 1.03484e-05 -9.10411e-06)
(-2.20435e-05 1.92013e-05 -1.3372e-05)
(-7.61171e-05 4.61893e-05 -2.23124e-05)
(-0.0001339 7.28643e-05 -3.94779e-05)
(-0.000277578 0.000163715 -7.44096e-05)
(-0.000485804 0.000254951 -0.000120078)
(-0.000950793 0.00064206 -0.000147162)
(-0.00153959 0.00096311 -0.00013089)
(5.55082e-05 -9.56374e-07 -1.10636e-05)
(2.17985e-05 1.49639e-05 -1.33629e-05)
(2.13025e-05 2.33016e-05 -1.55055e-05)
(-3.81302e-05 6.48539e-05 -2.36888e-05)
(-2.91031e-05 9.47426e-05 -3.91804e-05)
(-0.000204199 0.00022111 -7.27e-05)
(-0.000226854 0.000325933 -0.00011566)
(-0.00112101 0.000831391 -0.000114295)
(-0.00229065 0.00123412 -5.93173e-05)
(-0.000577463 -0.000168438 -3.02854e-05)
(-0.000882018 -0.000326076 -1.91713e-05)
(-0.00134575 -0.000504434 -2.10566e-06)
(2.49512e-06 -1.85157e-06 -1.02975e-05)
(-2.9904e-05 -5.25739e-07 -1.26815e-05)
(-6.41606e-05 6.20531e-07 -1.47e-05)
(-0.000119799 5.27296e-06 -2.20863e-05)
(-0.00021723 1.01186e-05 -3.11831e-05)
(-0.00034546 2.36632e-05 -5.86238e-05)
(-0.000597343 4.40017e-05 -7.69899e-05)
(-0.000858618 9.18359e-05 -0.000129714)
(-0.00128618 0.000137693 -0.000175747)
(1.89628e-05 1.9031e-06 -1.75548e-05)
(-1.29165e-05 1.10612e-05 -2.41939e-05)
(-4.50649e-05 1.96448e-05 -2.83738e-05)
(-9.78631e-05 4.2752e-05 -4.25206e-05)
(-0.000176219 7.19573e-05 -5.51622e-05)
(-0.000307462 0.000143267 -0.000102325)
(-0.000549423 0.000222335 -0.000134063)
(-0.00091265 0.000442957 -0.000242578)
(-0.00142938 0.00063501 -0.000356599)
(4.38432e-05 5.64785e-08 -2.34322e-05)
(6.36035e-06 1.64146e-05 -3.27462e-05)
(-1.4554e-05 2.66577e-05 -3.4725e-05)
(-6.53041e-05 6.24954e-05 -5.8503e-05)
(-0.000106381 0.000100505 -6.28988e-05)
(-0.000245307 0.000204482 -0.000148863)
(-0.000444529 0.000317861 -0.000165091)
(-0.00100619 0.000635926 -0.000465442)
(-0.00179581 0.00091712 -0.000647216)
)
;

boundaryField
{
    inlet
    {
        type            calculated;
        value           nonuniform 0();
    }
    outlet
    {
        type            calculated;
        value           nonuniform List<vector> 
16
(
(-0.00252546 0.000282574 -0.000447309)
(-0.00235844 0.00142487 -0.0014134)
(-0.00258774 0.00367762 -0.00200449)
(-0.00981236 0.00362927 -0.00255605)
(-0.00349761 -0.000288695 -0.00069993)
(-0.00185972 -0.000489769 -0.000731079)
(-0.00100654 0.000841824 -0.0004452)
(-0.00194885 0.000988454 -4.79224e-05)
(-0.00171478 -0.000268342 -0.000187243)
(-0.00208217 0.00184679 0.000537958)
(-0.00236201 0.00476536 0.00124251)
(-0.0112498 0.00518191 0.00315257)
(-0.00241123 -0.00112325 0.000266875)
(-0.00194996 9.35699e-05 -0.000427399)
(-0.00208247 0.000911706 -0.00108163)
(-0.00396109 0.00172135 -0.00392574)
)
;
    }
    wall
    {
        type            calculated;
        value           nonuniform List<vector> 
66
(
(-1.95187e-05 6.60949e-06 -2.90748e-05)
(3.86969e-05 8.57485e-06 -4.53937e-05)
(0.000165105 -3.95449e-05 -5.65807e-05)
(-0.000136821 1.58518e-06 -3.14869e-05)
(-4.69909e-05 3.41245e-05 -8.73708e-05)
(-3.54395e-05 5.6899e-05 -0.000141952)
(-0.000142556 -1.62585e-05 -1.33785e-05)
(-8.34346e-05 1.05003e-05 -6.43774e-05)
(6.60847e-05 -2.46919e-05 -4.2352e-05)
(-0.000142397 6.17701e-06 -2.41306e-05)
(-0.000114118 6.65148e-05 -0.000122873)
(-8.05597e-05 0.000108728 -0.000276973)
(-0.00038424 -3.55871e-05 4.14573e-05)
(-0.000223448 3.48502e-05 -4.12954e-05)
(0.00018744 -7.62671e-06 0.000104621)
(-0.000146323 2.39428e-06 -7.6753e-05)
(-0.000114676 0.000234603 -0.000229849)
(1.38377e-05 0.000310168 -0.000750674)
(-0.000425882 0.000171608 -0.000136371)
(-0.000851224 -2.84251e-05 0.000152335)
(-0.000526026 -8.23736e-05 -7.99681e-06)
(0.000384168 -7.77013e-05 0.000508657)
(-9.9193e-05 -0.000369344 8.24925e-05)
(-4.05724e-05 6.4254e-06 -0.000116555)
(-0.000177854 0.000410166 -0.000180519)
(-0.000202359 0.000747952 -0.00260827)
(-0.00241123 -0.00112325 0.000266875)
(-0.00194996 9.35699e-05 -0.000427399)
(-0.00208247 0.000911706 -0.00108163)
(-0.00396109 0.00172135 -0.00392574)
(0.000495391 -3.33287e-05 -1.78375e-05)
(-1.12381e-05 -5.64443e-05 1.52074e-05)
(0.00033254 -4.89482e-05 -1.42929e-05)
(0.000165105 -3.95449e-05 -5.65807e-05)
(4.78753e-05 8.01016e-05 -9.5039e-05)
(-0.000162007 1.57577e-05 -4.42927e-05)
(7.7561e-05 5.59649e-05 1.23033e-05)
(-3.54395e-05 5.6899e-05 -0.000141952)
(0.000732618 -6.17067e-05 8.13797e-05)
(-0.00013216 -7.09359e-05 4.85136e-05)
(0.000559244 -8.39963e-05 2.93917e-05)
(6.60847e-05 -2.46919e-05 -4.2352e-05)
(-5.15956e-05 0.000212335 -0.000187135)
(-0.000168869 5.01953e-05 -2.83645e-06)
(3.55434e-05 0.000173605 0.000106461)
(-8.05597e-05 0.000108728 -0.000276973)
(0.00140364 -0.000197941 0.000276601)
(-0.000274751 4.43254e-05 0.00010958)
(0.00145292 -0.000203448 0.000107417)
(0.00018744 -7.62671e-06 0.000104621)
(-0.000369699 0.000560684 -0.000402684)
(-0.000172332 4.2748e-05 2.33696e-05)
(-5.75262e-05 0.000573971 0.000287925)
(1.38377e-05 0.000310168 -0.000750674)
(0.00308341 -0.000745019 0.000923979)
(-0.000684682 2.46574e-05 0.000104209)
(0.0050641 -0.000776101 5.4889e-05)
(0.000384168 -7.77013e-05 0.000508657)
(-0.00172393 0.00213718 -0.000527814)
(-0.000388074 5.88678e-05 0.000408486)
(-0.0010666 0.00288696 0.00135199)
(-0.000202359 0.000747952 -0.00260827)
(-0.00981236 0.00362927 -0.00255605)
(-0.00194885 0.000988454 -4.79224e-05)
(-0.0112498 0.00518191 0.00315257)
(-0.00396109 0.00172135 -0.00392574)
)
;
    }
    procBoundary7to0
    {
        type            processor;
        value           uniform (3.56483e-05 2.90933e-06 2.3307e-05);
    }
    procBoundary7to1
    {
        type            processor;
        value           uniform (2.88093e-05 7.65149e-06 2.8038e-05);
    }
    procBoundary7to3
    {
        type            processor;
        value           nonuniform List<vector> 
36
(
(5.09304e-05 7.2287e-06 3.89026e-05)
(9.54866e-06 8.31365e-06 2.89772e-05)
(-4.08051e-05 1.05889e-05 2.42809e-05)
(-0.000124618 1.04054e-05 -6.64979e-06)
(-0.000242977 1.54555e-05 -5.16161e-05)
(-0.000441472 1.715e-05 -0.000154653)
(-0.000736732 2.30885e-05 -0.000311065)
(-0.00115482 6.65981e-05 -0.000634281)
(-0.00169196 0.000117408 -0.000927539)
(6.33813e-05 1.76484e-06 3.32172e-05)
(2.09133e-05 9.76423e-06 2.53479e-05)
(-2.29235e-05 2.02325e-05 2.17487e-05)
(-0.000107799 3.55621e-05 -1.11388e-05)
(-0.000215156 6.11518e-05 -5.58772e-05)
(-0.000422781 0.000108725 -0.000178322)
(-0.000705536 0.00017997 -0.000350077)
(-0.00120585 0.000340666 -0.000741647)
(-0.00186207 0.000457679 -0.00103839)
(8.82892e-05 -1.72626e-06 2.76759e-05)
(4.47688e-05 1.06683e-05 2.11038e-05)
(8.62032e-06 2.60652e-05 1.9501e-05)
(-7.62826e-05 5.96537e-05 -1.67937e-05)
(-0.000169292 0.000100261 -6.36957e-05)
(-0.000388025 0.000195917 -0.000194107)
(-0.00068266 0.000313771 -0.000386039)
(-0.00131985 0.000660098 -0.000759069)
(-0.00211815 0.000939216 -0.0010879)
(0.000132994 -2.42881e-06 1.95435e-05)
(7.75592e-05 1.1572e-05 1.30999e-05)
(6.47863e-05 2.47479e-05 1.30299e-05)
(-3.42898e-05 8.22858e-05 -2.5611e-05)
(-7.20125e-05 0.000134396 -6.48806e-05)
(-0.000327815 0.000268466 -0.000208984)
(-0.000539894 0.00040804 -0.000404266)
(-0.00152484 0.000849966 -0.000917263)
(-0.00266502 0.00134594 -0.00151709)
)
;
    }
    procBoundary7to5
    {
        type            processor;
        value           nonuniform List<vector> 
44
(
(-5.22544e-06 7.33184e-07 2.27681e-05)
(-4.62781e-05 -7.01827e-06 2.04355e-05)
(-0.000118193 -2.48652e-05 2.39963e-07)
(-0.000233906 -4.88763e-05 -2.50349e-05)
(-0.000405746 -9.90191e-05 -8.45749e-05)
(-0.000691493 -0.000165676 -0.000169823)
(-0.00103598 -0.000321359 -0.000310112)
(-0.00152945 -0.000465505 -0.000432613)
(9.53395e-06 -2.05561e-06 1.29214e-05)
(-1.59427e-05 -2.6012e-06 9.89189e-06)
(-4.00963e-05 -2.03682e-05 1.52657e-05)
(-9.9821e-05 -4.21148e-05 5.57542e-06)
(-0.000201773 -7.43398e-05 -6.0532e-06)
(-0.000354213 -0.000142792 -2.97938e-05)
(-0.000615762 -0.000237824 -6.4033e-05)
(-0.000947965 -0.00041105 -8.01643e-05)
(-0.00143763 -0.000585784 -8.13548e-05)
(9.53395e-06 -2.05561e-06 1.29214e-05)
(-1.59427e-05 -2.6012e-06 9.89189e-06)
(-1.59427e-05 -2.6012e-06 9.89189e-06)
(-5.25979e-05 -1.26801e-05 2.3518e-06)
(-0.000104247 -2.52604e-05 -4.37688e-06)
(-0.000151323 -0.000110706 9.32e-06)
(-0.000309973 -0.000214001 1.79886e-05)
(-0.000577068 -0.000339908 9.19424e-06)
(-0.000960969 -0.000644389 7.89891e-05)
(-0.00147133 -0.00100657 0.000199801)
(6.66293e-06 -4.31671e-06 7.38172e-07)
(-1.73544e-05 -7.98621e-06 1.80422e-06)
(-5.25979e-05 -1.26801e-05 2.3518e-06)
(-0.000104247 -2.52604e-05 -4.37688e-06)
(-0.000104247 -2.52604e-05 -4.37688e-06)
(-0.000197154 -5.74386e-05 -6.23132e-06)
(-0.000330883 -0.000116133 -1.42057e-05)
(-0.000534536 -0.000424304 4.83274e-05)
(-0.000996274 -0.000817412 0.000111195)
(-0.00158296 -0.0013335 0.000167302)
(1.05683e-05 -8.78521e-06 -5.11483e-06)
(-1.88324e-05 -1.48565e-05 -4.79063e-06)
(-5.07039e-05 -2.02411e-05 -5.78082e-06)
(-0.0001039 -3.92052e-05 -4.73213e-06)
(-0.000197154 -5.74386e-05 -6.23132e-06)
(-0.000330883 -0.000116133 -1.42057e-05)
(-0.000330883 -0.000116133 -1.42057e-05)
)
;
    }
    procBoundary7to6
    {
        type            processor;
        value           nonuniform List<vector> 
12
(
(4.29758e-05 1.59391e-06 1.83999e-05)
(6.44127e-05 -2.02076e-06 1.2259e-05)
(9.52457e-05 -4.1566e-06 3.96359e-06)
(2.38974e-05 -1.56262e-06 8.94744e-06)
(3.44096e-05 -3.85252e-06 5.24549e-06)
(5.08836e-05 -4.62106e-06 -1.65222e-06)
(1.5758e-05 -2.65296e-06 -8.78228e-07)
(2.92774e-05 -2.93198e-06 -4.7662e-06)
(5.52498e-05 -3.61539e-06 -1.02589e-05)
(1.39937e-05 -4.02213e-06 -7.8152e-06)
(3.20432e-05 -2.9536e-06 -1.39504e-05)
(5.64318e-05 -4.90065e-06 -2.11101e-05)
)
;
    }
}


// ************************************************************************* //
