/*--------------------------------*- C++ -*----------------------------------*\
| =========                 |                                                 |
| \\      /  F ield         | OpenFOAM: The Open Source CFD Toolbox           |
|  \\    /   O peration     | Version:  4.x                                   |
|   \\  /    A nd           | Web:      www.OpenFOAM.org                      |
|    \\/     M anipulation  |                                                 |
\*---------------------------------------------------------------------------*/
FoamFile
{
    version     2.0;
    format      ascii;
    class       volScalarField;
    location    "23";
    object      magGField;
}
// * * * * * * * * * * * * * * * * * * * * * * * * * * * * * * * * * * * * * //

dimensions      [1 -2 -1 0 0 0 0];

internalField   nonuniform List<scalar> 
132
(
1.79543
81.2232
3.67598e-05
79.9268
3.43507e-05
78.9604
2.89355e-05
77.7652
10.0894
14.0817
87.7746
11.3729
88.5392
8.76322
87.7282
8.87349
79.7964
16.0059
22.7177
90.8519
21.0941
92.6374
21.1068
92.4471
27.2144
87.1492
60.208
53.5582
107.578
53.9399
114.235
53.6861
125.301
51.0114
149.603
53.9156
3.20369e-05
81.8658
2.42254e-05
83.1696
4.50198
87.2345
16.0029
3.45718e-05
75.8696
3.40234e-05
74.4781
2.99594e-05
73.0217
9.0424
71.1509
36.6265
3.68821
79.846
4.06285e-05
76.8072
3.29492e-05
70.9411
3.0857e-05
58.4775
8.33336
38.7047
92.0778
33.567
89.8834
27.7646
85.0707
23.0342
73.1529
24.3219
2.52745e-05
74.3068
2.28371e-05
63.2425
20.6545
8.55029
84.5842
5.01221
86.0034
4.07088
86.1546
5.99171
79.6405
15.4104
23.1906
87.6434
21.9038
89.7188
24.2133
92.0065
32.8636
92.8264
69.2914
53.6068
103.802
54.7732
109.768
56.0366
124.096
56.2967
163.939
64.4264
34.2166
80.0234
38.3659
34.6405
91.0587
30.2867
89.0617
26.58
84.902
22.8452
72.4666
25.6762
48.3463
96.5946
46.8538
95.2834
44.2047
92.2244
42.7972
83.9051
43.1796
66.239
108.149
65.8988
109.294
64.977
110.877
67.6983
114.314
84.3426
)
;

boundaryField
{
    inlet
    {
        type            calculated;
        value           nonuniform 0();
    }
    outlet
    {
        type            calculated;
        value           nonuniform List<scalar> 
16
(
22.3527
35.4565
133.137
117.487
35.5213
81.1495
18.5141
53.3419
45.7713
34.2839
153.961
141.632
84.7779
56.6281
95.4149
183.642
)
;
    }
    wall
    {
        type            calculated;
        value           uniform 0;
    }
    procBoundary7to0
    {
        type            processor;
        value           uniform 82.5148;
    }
    procBoundary7to1
    {
        type            processor;
        value           uniform 6.76647;
    }
    procBoundary7to3
    {
        type            processor;
        value           nonuniform List<scalar> 
36
(
1.81228
84.4432
5.42588e-05
83.6025
6.32706e-05
82.5583
6.80506e-05
77.2644
14.9585
3.52619
85.8075
5.18818e-05
85.8237
5.27104e-05
85.5325
6.96167
86.2494
36.7358
7.02576
86.9461
5.23739e-05
87.4814
5.05189e-05
88.1757
2.69099
91.1911
19.351
51.0173
104.832
49.6585
107.31
44.9703
111.866
38.0854
125.142
16.4622
)
;
    }
    procBoundary7to5
    {
        type            processor;
        value           nonuniform List<scalar> 
44
(
83.8975
1.67521
83.3971
2.98836e-05
80.2577
2.89633e-05
72.6187
22.5534
2.89806e-05
80.8295
2.9128e-05
78.9806
2.73386e-05
76.9392
2.60018e-05
72.575
9.52923
2.89806e-05
80.8295
80.8295
3.37052e-05
78.3974
17.1934
89.6105
21.1712
81.9042
24.0404
3.24936
80.4516
3.37052e-05
78.3974
78.3974
32.4452
85.7317
36.8018
96.4158
30.1215
37.4958
91.0661
34.6699
89.1914
32.4452
85.7317
85.7317
)
;
    }
    procBoundary7to6
    {
        type            processor;
        value           nonuniform List<scalar> 
12
(
87.0328
88.8708
103.404
77.3618
81.3956
93.0379
83.795
86.833
100.534
91.7372
96.2573
107.004
)
;
    }
}


// ************************************************************************* //
