/*--------------------------------*- C++ -*----------------------------------*\
  =========                 |
  \\      /  F ield         | OpenFOAM: The Open Source CFD Toolbox
   \\    /   O peration     | Website:  https://openfoam.org
    \\  /    A nd           | Version:  4.x
     \\/     M anipulation  |
\*---------------------------------------------------------------------------*/
FoamFile
{
    version     2.0;
    format      ascii;
    class       vectorField;
    location    0;
    object      v;
}
// * * * * * * * * * * * * * * * * * * * * * * * * * * * * * * * * * * * * * //

235
(
( 3.46301e-09 -2.98231e-10 3.5154e-09 )  
( -1.14561e-09 1.28588e-09 1.82813e-08 )  
( -1.99983e-08 3.95076e-09 2.58842e-08 )  
( 1.53515e-09 2.04742e-09 9.03189e-09 )  
( 1.31402e-09 1.77867e-09 3.20732e-09 )  
( -2.19239e-09 7.93597e-10 1.5657e-09 )  
( 9.68734e-10 1.66024e-09 3.98657e-09 )  
( -1.03688e-09 1.99848e-09 4.89155e-09 )  
( 5.69827e-10 8.45807e-11 2.2e-09 )  
( 5.7092e-10 -3.83982e-09 3.24146e-09 )  
( -1.18886e-09 6.23448e-10 2.67557e-10 )  
( 1.51784e-09 -1.30262e-09 -2.54661e-09 )  
( 1.26412e-08 9.29831e-09 1.18915e-08 )  
( -2.43319e-10 -7.22401e-09 -1.76236e-09 )  
( 2.3248e-09 -8.37051e-11 1.93557e-09 )  
( 5.09818e-09 2.51502e-09 9.65633e-09 )  
( 2.15862e-09 -2.2044e-09 2.12682e-09 )  
( 7.66345e-10 -8.9337e-11 -8.98375e-10 )  
( 2.42908e-09 -8.78705e-10 -3.18263e-09 )  
( 2.14316e-09 -4.03291e-09 -8.32129e-09 )  
( 3.6015e-09 -3.79624e-09 1.08592e-08 )  
( 1.0915e-09 1.26291e-10 -1.62606e-09 )  
( 4.34662e-09 -2.15843e-10 -1.99377e-09 )  
( 5.0287e-09 -2.31056e-09 3.02944e-09 )  
( 6.25605e-09 -5.93295e-10 -4.75022e-09 )  
( 6.78086e-09 -1.80007e-09 2.17589e-08 )  
( 3.51948e-09 -1.18992e-10 -6.55729e-10 )  
( -2.10614e-09 -2.16142e-09 1.01714e-09 )  
( -4.29623e-10 -2.09796e-09 3.54822e-09 )  
( 4.16046e-09 -1.2926e-09 -2.09731e-09 )  
( 2.78446e-09 -2.03669e-10 4.57219e-09 )  
( -5.27839e-09 3.42259e-09 2.12411e-08 )  
( 1.52411e-09 -1.14046e-09 -1.60275e-09 )  
( 2.24783e-09 -2.08687e-09 8.78748e-10 )  
( 3.85912e-09 -8.76108e-10 -4.10234e-09 )  
( 3.60076e-09 4.24655e-10 4.31269e-09 )  
( 6.0688e-09 -2.18831e-09 -2.6536e-10 )  
( -6.04471e-10 -6.08769e-09 -2.22472e-09 )  
( -2.6986e-11 -2.7229e-09 2.24464e-10 )  
( 4.28221e-09 -2.37351e-10 -3.50575e-09 )  
( 2.73186e-09 -1.68761e-09 -4.14259e-09 )  
( -4.81037e-09 -2.48931e-09 -8.55889e-09 )  
( -4.04485e-09 -9.10777e-09 6.12986e-09 )  
( 3.37374e-09 -2.52007e-09 4.71302e-09 )  
( 1.70335e-09 -7.41518e-11 -3.02147e-09 )  
( 7.25105e-09 -2.71783e-09 -6.28178e-09 )  
( -1.13261e-09 -8.3661e-10 2.2049e-10 )  
( -8.44226e-09 2.08177e-08 1.53644e-07 )  
( 8.17552e-10 -1.59423e-10 -1.74322e-09 )  
( 3.90474e-09 -1.89477e-09 -4.8447e-09 )  
( 1.07185e-08 3.69756e-09 -1.14605e-10 )  
( 5.13745e-09 -9.0096e-09 5.34927e-09 )  
( 1.97174e-09 -6.32086e-10 -2.83213e-09 )  
( -2.71979e-10 -1.69893e-10 -7.88555e-10 )  
( 7.51432e-09 -1.06285e-10 -1.42735e-09 )  
( -1.08528e-08 7.35017e-09 1.41146e-08 )  
( 8.45036e-10 -1.42889e-10 -2.08409e-09 )  
( 1.41314e-09 5.80983e-10 7.17807e-10 )  
( -1.72792e-08 -1.17395e-09 2.18349e-08 )  
( 1.05183e-09 -5.49194e-09 5.28658e-09 )  
( 1.28906e-09 -3.62425e-09 -4.76653e-09 )  
( 3.10791e-09 2.06229e-09 6.51819e-09 )  
( -4.57999e-09 -6.35459e-10 5.59816e-09 )  
( 2.48727e-09 -2.11835e-09 -4.83701e-09 )  
( 1.53954e-09 -2.0469e-09 -3.28705e-11 )  
( 2.53879e-09 -4.64989e-10 -1.92543e-10 )  
( 4.28741e-09 -4.36815e-10 -2.39078e-09 )  
( 1.193e-08 -6.74596e-09 -1.03724e-08 )  
( 3.4182e-09 1.57711e-09 1.74331e-08 )  
( 3.7165e-09 -2.09315e-09 -6.70293e-09 )  
( 1.24266e-08 9.42654e-09 1.28498e-08 )  
( 1.02907e-09 -1.65618e-09 -1.6415e-09 )  
( 3.35086e-09 -9.60031e-10 5.4895e-10 )  
( -5.07748e-10 1.76771e-09 5.13081e-09 )  
( -1.98581e-09 -9.06084e-09 -5.9756e-09 )  
( 8.27756e-09 -1.29628e-08 -3.14508e-08 )  
( 1.54606e-08 -7.39335e-09 -1.74329e-08 )  
( 3.0114e-09 -2.0876e-09 4.29366e-09 )  
( 1.54731e-09 1.21471e-09 -2.94051e-09 )  
( -9.94907e-09 -1.76873e-08 6.44423e-08 )  
( 2.92647e-09 -1.87413e-09 -6.40801e-10 )  
( 4.67601e-09 -1.28504e-08 7.49672e-09 )  
( -6.36562e-09 -1.79841e-10 1.40872e-09 )  
( 5.55681e-09 -1.94678e-09 1.27914e-09 )  
( 3.67013e-11 -8.54972e-09 -8.36906e-09 )  
( -5.32606e-09 -2.75186e-08 -9.38843e-09 )  
( 2.71596e-09 -3.71039e-09 -6.98028e-10 )  
( 5.30457e-09 -1.54142e-09 7.58713e-09 )  
( -2.21098e-08 7.53253e-09 4.56522e-08 )  
( 4.41672e-09 -8.42948e-10 -3.46464e-09 )  
( 8.35136e-09 4.40232e-09 2.74445e-08 )  
( 4.71451e-09 -1.11469e-09 -2.71909e-09 )  
( 5.38602e-09 -7.14237e-10 5.4596e-10 )  
( 3.31988e-12 -3.656e-10 -1.28451e-09 )  
( 7.65208e-10 4.49182e-10 8.46302e-09 )  
( 1.54246e-08 6.26835e-09 2.92363e-08 )  
( 1.58141e-09 1.6172e-10 2.05451e-09 )  
( 7.00315e-10 -1.76709e-09 -4.17771e-09 )  
( 2.66758e-09 -2.60194e-09 -4.4008e-09 )  
( 8.68934e-09 -1.0906e-09 6.11536e-09 )  
( 2.30326e-09 -1.56243e-09 -9.32001e-10 )  
( 2.69985e-09 -7.48328e-09 9.32633e-08 )  
( 4.18915e-09 3.68351e-09 1.13275e-08 )  
( 2.44107e-08 3.35223e-08 1.06641e-07 )  
( 6.99625e-10 -6.8587e-10 -1.76529e-11 )  
( 8.79373e-10 -7.97657e-10 -6.21148e-10 )  
( 4.04053e-09 -6.62762e-09 -7.57258e-09 )  
( 3.44566e-09 -5.93942e-10 -3.54737e-09 )  
( 6.29144e-10 -2.30515e-09 -6.90229e-10 )  
( -1.43922e-10 3.40693e-09 1.40188e-08 )  
( 2.80718e-09 -2.65909e-09 2.21778e-11 )  
( 3.67887e-09 -4.11347e-10 -2.95241e-09 )  
( 5.84217e-09 -1.32701e-09 -5.34239e-09 )  
( 2.42507e-09 -2.30471e-09 3.24453e-09 )  
( 1.2394e-06 4.66767e-08 -6.18737e-08 )  
( -2.17867e-09 -5.34285e-10 -3.23797e-09 )  
( 5.98926e-09 -1.94266e-09 -2.54158e-09 )  
( 2.29853e-09 2.17024e-10 1.22666e-09 )  
( 1.10999e-09 -1.25804e-09 -3.09709e-09 )  
( -1.00546e-08 3.69418e-09 1.53886e-08 )  
( 4.84158e-09 -1.23059e-09 -3.17533e-09 )  
( -6.05719e-09 8.79723e-10 2.05061e-08 )  
( 7.13886e-09 -9.35637e-10 9.85424e-09 )  
( 8.89754e-10 -1.18446e-10 1.17868e-10 )  
( 7.76018e-09 -1.01735e-08 1.60451e-08 )  
( 1.6994e-09 -1.60142e-09 -9.68375e-10 )  
( 7.68636e-09 -4.54257e-09 2.22719e-09 )  
( 2.3326e-09 -2.12066e-09 -4.24322e-09 )  
( 1.09995e-09 -3.9503e-09 1.22151e-08 )  
( 8.58518e-10 -3.36307e-09 5.1867e-09 )  
( 3.98519e-09 -1.69321e-09 -9.94719e-09 )  
( 1.6154e-09 -1.0251e-08 3.33363e-08 )  
( -2.08121e-08 -1.33973e-08 3.26842e-08 )  
( 1.78103e-08 -1.29259e-08 -6.51953e-09 )  
( 2.64799e-08 2.13853e-08 4.12615e-08 )  
( -6.60737e-09 2.5154e-09 7.37987e-10 )  
( 3.07601e-09 -4.50768e-10 -1.27339e-09 )  
( 1.07796e-09 -8.39248e-09 1.22004e-09 )  
( -3.92268e-09 2.9112e-09 -6.28815e-10 )  
( 4.09131e-09 -1.10796e-09 -2.04103e-09 )  
( -1.73561e-09 -4.81456e-10 -5.60234e-10 )  
( 8.26024e-10 -3.48491e-09 8.30777e-10 )  
( 3.53172e-09 -8.89168e-09 8.43401e-09 )  
( 2.46375e-09 3.32107e-10 -2.25991e-09 )  
( 1.19272e-09 -1.37103e-11 -1.7327e-09 )  
( -3.27532e-09 -1.58802e-09 -4.93061e-09 )  
( 5.75255e-09 8.91443e-10 2.54316e-09 )  
( 4.23392e-09 2.7132e-09 5.50182e-09 )  
( 3.9537e-09 1.60726e-10 -7.48761e-10 )  
( 2.05983e-09 3.28762e-10 -1.83568e-09 )  
( 7.14192e-10 8.64783e-10 -6.8828e-11 )  
( 1.35859e-09 2.40184e-10 -1.88301e-09 )  
( 4.92371e-09 1.48798e-09 6.30819e-09 )  
( 1.6312e-09 -4.26359e-10 -3.40866e-09 )  
( 2.37362e-09 2.67945e-09 1.44955e-09 )  
( 2.95761e-09 2.59245e-10 -8.67098e-10 )  
( 1.37707e-09 1.86586e-09 6.31293e-09 )  
( 1.83241e-09 -1.87534e-10 1.01936e-09 )  
( 1.90909e-09 4.39939e-10 -2.13892e-09 )  
( 4.0563e-09 -1.48995e-09 4.37118e-10 )  
( 5.31118e-09 1.48593e-09 8.98922e-09 )  
( 1.26351e-09 3.72611e-10 -1.30748e-09 )  
( -2.50039e-10 -6.21676e-12 4.55912e-09 )  
( 2.82861e-09 1.91817e-09 7.43262e-09 )  
( 9.54753e-10 1.83067e-09 3.87487e-09 )  
( 4.87646e-09 2.83196e-10 2.21639e-09 )  
( -4.18412e-10 1.25168e-09 7.31173e-09 )  
( -4.15312e-10 3.32835e-09 1.00753e-08 )  
( 5.43052e-10 1.42514e-09 1.14633e-08 )  
( 3.0642e-09 2.95168e-10 -1.43836e-09 )  
( 1.00155e-09 1.14777e-09 7.28609e-10 )  
( 1.98827e-09 -2.99555e-10 -9.93959e-11 )  
( 2.74235e-09 5.67444e-10 4.06755e-09 )  
( 3.04539e-09 3.33413e-11 -2.15241e-09 )  
( 2.19715e-09 1.1512e-10 -2.82439e-09 )  
( 1.76237e-09 2.50857e-10 1.10424e-09 )  
( 4.54844e-09 3.84092e-12 9.56354e-11 )  
( 2.02196e-09 1.97655e-09 7.91668e-09 )  
( 9.6085e-10 -1.24958e-09 -1.55721e-09 )  
( -1.53417e-09 -8.82514e-10 -1.8613e-09 )  
( 1.26696e-09 2.0013e-09 2.01078e-08 )  
( 1.91646e-09 -7.56135e-10 -4.76135e-09 )  
( 4.5307e-09 1.48602e-09 8.17798e-09 )  
( 5.34241e-09 -1.00749e-09 -1.82942e-09 )  
( -1.2279e-08 -2.39921e-08 -2.5511e-08 )  
( 1.43704e-09 -2.60746e-10 3.02064e-09 )  
( 6.46067e-10 -4.01866e-10 -9.49886e-10 )  
( 1.41589e-09 -7.85947e-11 -1.1521e-09 )  
( 2.04062e-09 -2.85184e-09 9.62516e-09 )  
( 6.99315e-09 -3.703e-09 -7.10565e-09 )  
( 2.07667e-09 -3.77871e-09 -9.75583e-09 )  
( -7.36553e-09 -4.05616e-09 2.65227e-09 )  
( -2.00157e-08 1.0185e-08 1.8268e-08 )  
( 3.36849e-09 -2.97567e-09 4.79366e-09 )  
( 2.08632e-10 -1.91895e-10 -1.32658e-09 )  
( 2.7512e-09 -9.72677e-10 1.47464e-09 )  
( 4.20773e-09 -6.31281e-09 -9.65545e-09 )  
( -3.04618e-10 1.15038e-09 -3.87584e-09 )  
( 7.58305e-10 9.81931e-11 -5.81692e-10 )  
( 2.95312e-10 2.11572e-09 5.84185e-09 )  
( 3.89752e-09 -6.62164e-11 8.45281e-09 )  
( 3.09352e-09 -3.3479e-10 1.53825e-09 )  
( -6.46763e-09 1.50288e-09 6.10597e-09 )  
( 3.41941e-09 3.51686e-09 8.71633e-09 )  
( 2.4444e-09 3.84193e-09 7.01277e-09 )  
( 4.52868e-09 1.95222e-09 2.66348e-08 )  
( 2.99203e-09 2.01062e-09 6.1145e-09 )  
( -7.63309e-10 2.79547e-10 -4.29293e-09 )  
( 3.25236e-10 1.01621e-11 -8.40418e-10 )  
( 5.11559e-09 9.61584e-10 5.17454e-09 )  
( 2.31166e-09 1.58041e-09 -2.50405e-09 )  
( 2.11333e-09 -8.46731e-11 1.25744e-09 )  
( 2.02653e-09 2.2258e-11 -6.44652e-11 )  
( 1.34226e-08 -2.92882e-08 4.31354e-08 )  
( 1.6109e-08 1.43004e-09 1.30918e-08 )  
( -1.09812e-08 5.30685e-10 2.06824e-09 )  
( 2.86678e-09 -4.13976e-09 -6.62082e-09 )  
( -1.60791e-08 -3.40979e-08 -4.33649e-08 )  
( 4.04731e-09 -1.73126e-09 -8.2295e-10 )  
( -3.80578e-08 2.60363e-08 8.26433e-08 )  
( -2.59134e-09 -1.1805e-08 -1.10686e-08 )  
( 4.3048e-09 -3.38403e-11 -2.66887e-09 )  
( -3.07905e-10 -3.24347e-09 4.80605e-10 )  
( 1.90283e-09 -1.55102e-10 -2.71154e-09 )  
( 7.84745e-09 -1.16569e-08 1.0602e-08 )  
( 9.92147e-09 -1.03328e-08 1.55053e-08 )  
( -2.44066e-08 1.48903e-08 4.80404e-08 )  
( -2.15436e-10 -2.73049e-08 2.14547e-08 )  
( -2.44032e-08 -5.3597e-09 7.83999e-09 )  
( -1.71696e-07 5.41501e-06 3.95732e-07 )  
( -5.92151e-09 -1.16642e-09 6.91735e-10 )  
( -3.99941e-08 -1.75606e-08 1.31542e-08 )  
( -2.87425e-09 -2.92395e-09 8.5182e-10 )  
( 9.18038e-09 -1.6843e-08 1.01438e-08 )  
( 2.42364e-09 -1.31331e-08 5.3336e-09 )  
)
