/*--------------------------------*- C++ -*----------------------------------*\
| =========                 |                                                 |
| \\      /  F ield         | OpenFOAM: The Open Source CFD Toolbox           |
|  \\    /   O peration     | Version:  4.x                                   |
|   \\  /    A nd           | Web:      www.OpenFOAM.org                      |
|    \\/     M anipulation  |                                                 |
\*---------------------------------------------------------------------------*/
FoamFile
{
    version     2.0;
    format      ascii;
    class       volScalarField;
    location    "26";
    object      Ksl;
}
// * * * * * * * * * * * * * * * * * * * * * * * * * * * * * * * * * * * * * //

dimensions      [1 -3 -1 0 0 0 0];

internalField   nonuniform List<scalar> 
87
(
3631.03
16296.2
3557.94
3212.82
6723.41
3115.2
3569.85
12088.6
3813.28
20741.5
3905.79
27734.7
3906.37
179796
3919.02
3485.96
10863
3678.99
15721.5
3771.45
25932.8
3787.49
78625.2
3789.58
3366.17
8219.97
3387.04
8096.55
3422.01
8681.68
3414.12
8474.34
3379.33
3523.19
10338.6
3678.07
13427
3694.38
17460.4
3715
24590.5
3697.99
3442.14
9231.33
3566.03
10223.8
3595.92
11462
3621.59
13751.2
3562.75
3362.83
7570.71
3299.73
6946.55
3261.27
6653.37
3212.92
6585.07
3126.89
3425.83
8181.46
3456.21
8255.35
3424.33
8631.96
3444.64
8640.41
3356.86
3365.78
7697.01
3345.78
7225.54
3301.77
7051.55
3283.72
7217.74
3221.6
3313.97
7044.95
3198.37
6077.74
3069.52
5534.24
3012.83
5298.23
2944.33
)
;

boundaryField
{
    inlet
    {
        type            zeroGradient;
    }
    outlet
    {
        type            zeroGradient;
    }
    wall
    {
        type            zeroGradient;
    }
    procBoundary6to0
    {
        type            processor;
        value           uniform 3594.59;
    }
    procBoundary6to2
    {
        type            processor;
        value           nonuniform List<scalar> 
32
(
3744.51
58078.3
3729.38
3302.04
7427.06
3214.08
3532.47
10916.2
3752.9
14913.7
3787.66
20699.6
3722.63
35276.4
35276.4
35276.4
3474.94
9905.46
3657.73
11879
3681.37
13971.4
3628.24
3628.24
3628.24
3368.91
7961.63
3392.67
7507.94
3326.67
7083.03
7083.03
)
;
    }
    procBoundary6to4
    {
        type            processor;
        value           nonuniform List<scalar> 
27
(
3510.57
11296.4
3816.44
18419.4
3874.34
30398
3800.91
34065.4
3610.97
3495.39
10695.2
3705.23
15742.6
3778.94
25175.6
3746.74
42516.3
3628.51
3461.82
8722.38
3500.29
9144.81
3481.73
9288.88
3384.93
9412.7
3304.92
)
;
    }
    procBoundary6to7
    {
        type            processor;
        value           nonuniform List<scalar> 
12
(
28496.1
19060.6
6692.44
98241.3
2.42613e+06
9729.43
79629.8
17024.8
6481.09
10048.7
7391.31
5201.61
)
;
    }
}


// ************************************************************************* //
