/*--------------------------------*- C++ -*----------------------------------*\
| =========                 |                                                 |
| \\      /  F ield         | OpenFOAM: The Open Source CFD Toolbox           |
|  \\    /   O peration     | Version:  4.x                                   |
|   \\  /    A nd           | Web:      www.OpenFOAM.org                      |
|    \\/     M anipulation  |                                                 |
\*---------------------------------------------------------------------------*/
FoamFile
{
    version     2.0;
    format      ascii;
    class       volScalarField;
    location    "26";
    object      p_rgh;
}
// * * * * * * * * * * * * * * * * * * * * * * * * * * * * * * * * * * * * * //

dimensions      [1 -1 -2 0 0 0 0];

internalField   nonuniform List<scalar> 
87
(
80.4936
36.3842
80.4681
87.0947
36.4716
80.382
110.383
92.1569
102.937
74.5143
95.0905
56.4291
87.6067
38.6553
79.9376
110.001
92.0989
102.841
74.2094
95.3501
55.8884
87.8558
37.5602
80.4373
109.264
91.7311
102.146
74.0514
94.8101
55.7741
87.3341
37.4163
80.3976
110.028
91.976
102.636
74.1428
95.1208
56.1308
87.808
37.9462
80.9533
109.653
91.8976
102.413
74.0504
94.9957
55.8409
87.721
37.3446
80.7287
109.025
91.5711
101.882
73.9053
94.563
55.6823
87.3926
37.2765
80.5794
109.673
91.936
102.391
74.2238
94.8941
56.1912
87.5102
37.7966
80.6465
109.398
91.837
102.236
74.1022
94.8538
55.8141
87.5566
37.506
80.5557
108.895
91.6333
101.794
73.9673
94.5092
55.8394
87.2597
37.5973
80.499
)
;

boundaryField
{
    inlet
    {
        type            fixedFluxPressure;
        gradient        nonuniform List<scalar> 9(0.0110238 0.0104899 0.0102604 0.0199267 0.0191841 0.0188423 0.0284449 0.0276441 0.0271744);
        value           nonuniform List<scalar> 9(110.383 110.001 109.264 110.028 109.654 109.025 109.673 109.399 108.896);
    }
    outlet
    {
        type            fixedValue;
        value           nonuniform 0();
    }
    wall
    {
        type            fixedFluxPressure;
        gradient        nonuniform List<scalar> 
57
(
-2.26528e-05
-3.66795e-05
-1.3374e-05
-0.000100094
-8.80303e-05
-6.2874e-05
-9.34422e-05
-5.69334e-05
-5.99803e-05
-0.000226704
-0.000153571
-7.28751e-05
-8.82544e-05
-5.25334e-05
-5.67655e-05
-0.00025902
-0.000211133
-0.000111358
-0.00014216
-0.000157673
-6.7362e-05
-0.00033196
-0.000397747
-0.000152804
-0.000160675
-0.000102637
-9.59361e-05
-1.43124e-05
-1.04631e-05
-8.99206e-05
-0.000226324
-0.000123823
-2.15333e-05
-5.81283e-05
-4.65636e-05
-2.883e-05
-0.000314319
-0.000194724
-6.64493e-05
-0.000122055
-8.44703e-05
-5.01937e-05
-0.000334006
-0.00018573
-9.88783e-05
-0.000119113
-8.77736e-05
-9.03917e-05
-8.02362e-05
-0.000366554
-0.000146939
-0.000248578
-0.000100311
-5.75957e-05
-0.000119354
-0.000170529
-9.10037e-05
)
;
        value           nonuniform List<scalar> 
57
(
109.673
109.398
108.895
91.936
91.837
91.6333
102.391
102.236
101.794
74.2237
74.1022
73.9673
94.8941
94.8538
94.5092
56.1912
55.8141
55.8394
87.5102
87.5566
87.2597
37.7966
37.506
37.5973
80.6465
80.5557
80.499
109.264
109.025
108.895
91.7311
91.5711
91.6333
102.146
101.882
101.794
74.0513
73.9053
73.9673
94.8101
94.563
94.5092
55.7741
55.6823
55.8394
87.0947
87.334
87.3926
87.2597
36.4716
37.4163
37.2765
37.5973
80.382
80.3976
80.5794
80.499
)
;
    }
    procBoundary6to0
    {
        type            processor;
        value           uniform 80.1164;
    }
    procBoundary6to2
    {
        type            processor;
        value           nonuniform List<scalar> 
32
(
79.0258
36.7197
80.0968
86.882
36.611
79.8913
109.565
91.7284
102.311
73.6004
94.8773
55.2169
87.587
36.6884
36.6884
36.6884
109.287
91.5564
102.128
73.4454
94.7204
55.0314
87.3969
87.3969
87.3969
108.62
91.2103
101.547
73.2695
94.2508
54.9559
54.9559
)
;
    }
    procBoundary6to4
    {
        type            processor;
        value           nonuniform List<scalar> 
27
(
110.402
92.5371
103.16
74.4857
95.3949
55.9417
87.5377
37.2581
80.2613
110.209
92.1872
102.953
74.2581
95.3222
55.7631
87.7686
37.1076
80.6005
109.97
91.9823
102.635
74.1419
95.0242
55.6689
87.476
37.2978
80.4064
)
;
    }
    procBoundary6to7
    {
        type            processor;
        value           nonuniform List<scalar> 
12
(
18.785
17.7216
17.7716
21.145
19.3871
18.9665
19.5568
18.5258
18.6353
19.6818
18.9449
19.1263
)
;
    }
}


// ************************************************************************* //
