/*--------------------------------*- C++ -*----------------------------------*\
| =========                 |                                                 |
| \\      /  F ield         | OpenFOAM: The Open Source CFD Toolbox           |
|  \\    /   O peration     | Version:  4.x                                   |
|   \\  /    A nd           | Web:      www.OpenFOAM.org                      |
|    \\/     M anipulation  |                                                 |
\*---------------------------------------------------------------------------*/
FoamFile
{
    version     2.0;
    format      ascii;
    class       volScalarField;
    location    "26";
    object      QPartFluid;
}
// * * * * * * * * * * * * * * * * * * * * * * * * * * * * * * * * * * * * * //

dimensions      [1 -1 -3 0 0 0 0];

internalField   nonuniform List<scalar> 
87
(
8.28018e+09
6.7165e+09
8.97782e+09
5.70211e+09
6.20407e+09
5.62525e+09
9.96844e+09
8.98332e+09
6.12193e+09
8.12613e+09
1.12321e+10
6.41584e+09
8.86743e+09
6.78174e+09
1.01369e+10
6.30955e+09
9.22445e+09
8.19868e+09
1.02589e+10
8.88918e+09
8.79294e+09
8.80195e+09
9.24031e+09
9.43912e+09
4.68398e+09
7.57952e+09
5.9669e+09
6.13678e+09
8.7177e+09
9.42552e+09
7.35502e+09
6.33597e+09
8.79585e+09
7.3554e+09
9.02956e+09
9.69443e+09
8.71816e+09
6.71691e+09
8.0188e+09
8.01101e+09
6.26711e+09
9.63256e+09
5.37792e+09
8.88109e+09
8.8611e+09
8.05415e+09
7.96245e+09
6.58036e+09
1.00538e+10
6.59029e+09
9.99932e+09
4.81301e+09
6.67978e+09
6.1845e+09
7.84662e+09
8.2249e+09
6.18021e+09
7.64051e+09
6.44103e+09
6.90292e+09
4.91744e+09
5.40711e+09
7.44607e+09
7.02928e+09
7.18184e+09
6.48348e+09
1.02984e+10
8.69918e+09
4.53445e+09
5.20149e+09
5.82547e+09
7.63687e+09
6.17811e+09
9.68341e+09
6.69583e+09
7.20718e+09
6.05962e+09
8.46334e+09
4.25301e+09
6.1302e+09
6.77156e+09
6.33143e+09
5.244e+09
8.47946e+09
5.61792e+09
5.62788e+09
7.19667e+09
)
;

boundaryField
{
    inlet
    {
        type            calculated;
        value           uniform 0;
    }
    outlet
    {
        type            calculated;
        value           nonuniform 0();
    }
    wall
    {
        type            calculated;
        value           uniform 0;
    }
    procBoundary6to0
    {
        type            processor;
        value           uniform 2.63088e+09;
    }
    procBoundary6to2
    {
        type            processor;
        value           nonuniform List<scalar> 
32
(
5.77715e+09
8.41885e+09
1.02533e+10
9.68027e+09
5.30148e+09
7.71618e+09
4.89648e+09
9.51466e+09
1.03292e+10
7.2419e+09
8.2884e+09
6.38627e+09
7.66482e+09
7.79192e+09
7.79192e+09
7.79192e+09
5.87255e+09
7.90762e+09
1.05257e+10
6.61261e+09
9.13199e+09
7.67679e+09
1.03168e+10
1.03168e+10
1.03168e+10
4.25817e+09
6.30361e+09
7.51046e+09
7.24613e+09
6.75208e+09
6.48388e+09
6.48388e+09
)
;
    }
    procBoundary6to4
    {
        type            processor;
        value           nonuniform List<scalar> 
27
(
3.45994e+09
6.73912e+09
9.42062e+09
5.736e+09
8.88864e+09
6.82719e+09
1.12593e+10
6.25799e+09
7.30805e+09
6.20885e+09
8.58679e+09
7.55622e+09
9.65718e+09
1.05653e+10
7.64557e+09
1.19255e+10
8.50973e+09
8.19515e+09
7.26138e+09
6.99866e+09
6.70605e+09
7.9354e+09
8.43943e+09
9.46632e+09
4.95675e+09
5.08695e+09
7.05041e+09
)
;
    }
    procBoundary6to7
    {
        type            processor;
        value           nonuniform List<scalar> 
12
(
7.8904e+09
5.25316e+09
7.04569e+09
3.94955e+09
6.04042e+09
6.72589e+09
8.63125e+09
8.1867e+09
6.02915e+09
7.19573e+09
6.25696e+09
6.07425e+09
)
;
    }
}


// ************************************************************************* //
