/*--------------------------------*- C++ -*----------------------------------*\
| =========                 |                                                 |
| \\      /  F ield         | OpenFOAM: The Open Source CFD Toolbox           |
|  \\    /   O peration     | Version:  4.x                                   |
|   \\  /    A nd           | Web:      www.OpenFOAM.org                      |
|    \\/     M anipulation  |                                                 |
\*---------------------------------------------------------------------------*/
FoamFile
{
    version     2.0;
    format      ascii;
    class       volScalarField;
    location    "26";
    object      QPartFluidCoeff;
}
// * * * * * * * * * * * * * * * * * * * * * * * * * * * * * * * * * * * * * //

dimensions      [1 -1 -3 -1 0 0 0];

internalField   nonuniform List<scalar> 
87
(
-2.76006e+07
-2.23883e+07
-2.99261e+07
-1.9007e+07
-2.06802e+07
-1.87508e+07
-3.32281e+07
-2.99444e+07
-2.04064e+07
-2.70871e+07
-3.74403e+07
-2.13861e+07
-2.95581e+07
-2.26058e+07
-3.37898e+07
-2.10318e+07
-3.07482e+07
-2.73289e+07
-3.41962e+07
-2.96306e+07
-2.93098e+07
-2.93399e+07
-3.0801e+07
-3.14637e+07
-1.56133e+07
-2.52651e+07
-1.98897e+07
-2.04559e+07
-2.9059e+07
-3.14184e+07
-2.45168e+07
-2.11199e+07
-2.93195e+07
-2.4518e+07
-3.00986e+07
-3.23148e+07
-2.90605e+07
-2.23897e+07
-2.67293e+07
-2.67034e+07
-2.08904e+07
-3.21085e+07
-1.79264e+07
-2.96036e+07
-2.9537e+07
-2.68472e+07
-2.65415e+07
-2.19345e+07
-3.35127e+07
-2.19676e+07
-3.33311e+07
-1.60434e+07
-2.22659e+07
-2.0615e+07
-2.61554e+07
-2.74164e+07
-2.06007e+07
-2.54684e+07
-2.14701e+07
-2.30097e+07
-1.63915e+07
-1.80237e+07
-2.48202e+07
-2.34309e+07
-2.39395e+07
-2.16116e+07
-3.4328e+07
-2.89973e+07
-1.51148e+07
-1.73383e+07
-1.94182e+07
-2.54562e+07
-2.05937e+07
-3.2278e+07
-2.23194e+07
-2.40239e+07
-2.01987e+07
-2.82111e+07
-1.41767e+07
-2.0434e+07
-2.25719e+07
-2.11048e+07
-1.748e+07
-2.82649e+07
-1.87264e+07
-1.87596e+07
-2.39889e+07
)
;

boundaryField
{
    inlet
    {
        type            calculated;
        value           uniform 0;
    }
    outlet
    {
        type            calculated;
        value           nonuniform 0();
    }
    wall
    {
        type            calculated;
        value           uniform 0;
    }
    procBoundary6to0
    {
        type            processor;
        value           uniform 198.857;
    }
    procBoundary6to2
    {
        type            processor;
        value           nonuniform List<scalar> 
32
(
436.67
636.345
775.003
731.691
400.717
583.234
370.104
719.173
780.737
547.385
626.486
482.712
579.352
588.958
588.958
588.958
443.881
597.704
795.596
499.82
690.249
580.256
779.802
779.802
779.802
321.857
476.463
567.684
547.704
510.361
490.09
490.09
)
;
    }
    procBoundary6to4
    {
        type            processor;
        value           nonuniform List<scalar> 
27
(
261.522
509.382
712.065
433.56
671.855
516.039
851.04
473.015
552.385
469.301
649.039
571.143
729.946
798.584
577.896
901.395
643.215
619.437
548.857
528.999
506.882
599.804
637.901
715.519
374.66
384.501
532.911
)
;
    }
    procBoundary6to7
    {
        type            processor;
        value           nonuniform List<scalar> 
12
(
596.402
397.064
532.554
298.53
456.57
508.382
652.4
618.798
455.718
543.895
472.937
459.127
)
;
    }
}


// ************************************************************************* //
