/*--------------------------------*- C++ -*----------------------------------*\
| =========                 |                                                 |
| \\      /  F ield         | OpenFOAM: The Open Source CFD Toolbox           |
|  \\    /   O peration     | Version:  4.x                                   |
|   \\  /    A nd           | Web:      www.OpenFOAM.org                      |
|    \\/     M anipulation  |                                                 |
\*---------------------------------------------------------------------------*/
FoamFile
{
    version     2.0;
    format      ascii;
    class       volScalarField;
    location    "26";
    object      Sm;
}
// * * * * * * * * * * * * * * * * * * * * * * * * * * * * * * * * * * * * * //

dimensions      [1 -3 -1 0 0 0 0];

internalField   nonuniform List<scalar> 
87
(
6.74234e-65
6.04494e-65
7.12988e-65
5.11499e-65
5.81246e-65
4.95996e-65
1.03851e-64
7.59502e-65
4.96e-65
7.44e-65
9.37749e-65
6.12249e-65
7.36247e-65
6.50995e-65
8.52491e-65
5.81254e-65
7.90503e-65
6.43251e-65
8.83501e-65
7.0525e-65
7.8275e-65
7.05248e-65
8.60246e-65
7.59496e-65
4.96005e-65
7.20753e-65
5.42502e-65
6.12251e-65
7.59502e-65
8.75751e-65
6.51e-65
6.66499e-65
7.51749e-65
7.67257e-65
7.67253e-65
7.75002e-65
7.67252e-65
5.34751e-65
7.05251e-65
6.27751e-65
5.89e-65
7.90498e-65
5.65755e-65
7.28503e-65
6.82002e-65
6.89752e-65
5.96752e-65
5.58001e-65
7.75001e-65
5.735e-65
7.74999e-65
5.19255e-65
6.74254e-65
5.58003e-65
7.59503e-65
7.28503e-65
5.96752e-65
6.66502e-65
5.96751e-65
5.65752e-65
5.03755e-65
5.27003e-65
6.12253e-65
6.89753e-65
6.51003e-65
6.43252e-65
8.68003e-65
8.75752e-65
3.79751e-65
6.04506e-65
5.50253e-65
6.82004e-65
5.65753e-65
8.60254e-65
6.35503e-65
6.20002e-65
5.58002e-65
7.82753e-65
4.41755e-65
6.27754e-65
6.12254e-65
6.43254e-65
4.96003e-65
8.21505e-65
4.80503e-65
5.19253e-65
6.04503e-65
)
;

boundaryField
{
    inlet
    {
        type            calculated;
        value           uniform 0;
    }
    outlet
    {
        type            calculated;
        value           nonuniform 0();
    }
    wall
    {
        type            calculated;
        value           uniform 0;
    }
    procBoundary6to0
    {
        type            processor;
        value           uniform 2.32489e-65;
    }
    procBoundary6to2
    {
        type            processor;
        value           nonuniform List<scalar> 
32
(
4.88223e-65
7.43982e-65
8.36975e-65
8.29243e-65
4.95993e-65
6.66489e-65
4.80503e-65
8.1375e-65
8.36997e-65
6.50997e-65
6.81996e-65
5.88996e-65
6.27741e-65
7.74984e-65
7.74984e-65
7.74984e-65
6.89756e-65
6.89751e-65
8.36999e-65
5.81248e-65
7.20747e-65
6.89746e-65
8.36993e-65
8.36993e-65
8.36993e-65
5.27005e-65
6.51002e-65
6.2775e-65
7.12999e-65
5.5025e-65
6.35499e-65
6.35499e-65
)
;
    }
    procBoundary6to4
    {
        type            processor;
        value           nonuniform List<scalar> 
27
(
4.34003e-65
5.73501e-65
7.595e-65
5.1925e-65
7.36249e-65
6.35498e-65
9.22243e-65
5.96745e-65
5.96739e-65
6.66505e-65
7.20753e-65
5.96751e-65
8.52502e-65
8.44751e-65
6.74251e-65
9.60999e-65
7.90497e-65
6.81997e-65
7.44007e-65
7.05254e-65
5.81253e-65
7.67253e-65
6.97503e-65
9.22253e-65
4.49501e-65
4.88251e-65
6.355e-65
)
;
    }
    procBoundary6to7
    {
        type            processor;
        value           nonuniform List<scalar> 
12
(
7.67231e-65
4.80494e-65
6.50995e-65
3.95246e-65
5.50247e-65
6.74249e-65
8.05999e-65
7.05251e-65
5.58002e-65
6.89751e-65
5.96752e-65
6.04503e-65
)
;
    }
}


// ************************************************************************* //
