/*--------------------------------*- C++ -*----------------------------------*\
| =========                 |                                                 |
| \\      /  F ield         | OpenFOAM: The Open Source CFD Toolbox           |
|  \\    /   O peration     | Version:  4.x                                   |
|   \\  /    A nd           | Web:      www.OpenFOAM.org                      |
|    \\/     M anipulation  |                                                 |
\*---------------------------------------------------------------------------*/
FoamFile
{
    version     2.0;
    format      ascii;
    class       volVectorField;
    location    "26";
    object      Urel;
}
// * * * * * * * * * * * * * * * * * * * * * * * * * * * * * * * * * * * * * //

dimensions      [0 1 -1 0 0 0 0];

internalField   nonuniform List<vector> 
87
(
(-0.019978 -0.000324396 0.000213112)
(-0.0193751 -0.000350759 0.000395803)
(-0.0209973 -0.00038818 0.000332415)
(-0.0221582 -0.000437618 0.000519347)
(-0.0209252 -0.000403133 0.000457994)
(-0.02233 -0.000453168 0.000407416)
(-0.0229072 -0.000238688 0.00047543)
(-0.0206138 -0.000217598 0.000423923)
(-0.0213452 -0.000228281 0.000416775)
(-0.0192896 -0.000185177 0.000353034)
(-0.0205206 -0.000177536 0.000333058)
(-0.0184949 -0.000147767 0.000273399)
(-0.0199461 -0.000142701 0.000272398)
(-0.0175061 -0.000165477 0.000313227)
(-0.0195885 -0.000294462 0.000221342)
(-0.0231015 -0.00051139 0.000465798)
(-0.0209412 -0.00043188 0.000429847)
(-0.0217645 -0.000459638 0.000423197)
(-0.0199197 -0.000367152 0.000377129)
(-0.0211519 -0.000368932 0.000355307)
(-0.0193315 -0.000325904 0.000305703)
(-0.0207869 -0.000441717 0.000292631)
(-0.0188623 -0.000302534 0.000260231)
(-0.0205848 -0.000280598 0.000225993)
(-0.0233183 -0.000571815 0.000474549)
(-0.0213682 -0.000510803 0.000446291)
(-0.0222765 -0.000528271 0.000447974)
(-0.0207784 -0.000448307 0.000413235)
(-0.021957 -0.000444981 0.000392602)
(-0.02052 -0.000395874 0.000347003)
(-0.0218437 -0.000431511 0.000327056)
(-0.0205009 -0.000384729 0.000300946)
(-0.0218563 -0.000433367 0.000276264)
(-0.0230308 -0.000258548 9.15022e-05)
(-0.02088 -0.000224009 0.000115977)
(-0.0216572 -0.000243871 7.41105e-05)
(-0.0198102 -0.000189153 9.63865e-05)
(-0.021011 -0.000190919 5.87215e-05)
(-0.019208 -0.000137605 5.69724e-05)
(-0.0206421 -0.000141033 -7.71903e-05)
(-0.018738 -0.000118947 5.42592e-05)
(-0.0203379 -0.000170207 5.20515e-05)
(-0.0232203 -0.00050174 0.000105842)
(-0.0212031 -0.000427409 0.00012783)
(-0.022063 -0.000447979 9.1147e-05)
(-0.0204409 -0.000358328 0.000115991)
(-0.0216301 -0.000365298 7.42633e-05)
(-0.0200694 -0.000297856 9.05486e-05)
(-0.0213961 -0.000324275 3.4755e-05)
(-0.0197964 -0.000253247 8.04942e-05)
(-0.021276 -0.000286267 2.21068e-05)
(-0.0234105 -0.000556964 0.000136965)
(-0.0215759 -0.000500095 0.000153788)
(-0.0225272 -0.000510478 0.000125754)
(-0.0211916 -0.000437591 0.000137406)
(-0.0223754 -0.000435562 0.000101342)
(-0.0211336 -0.000382606 0.000118079)
(-0.0223721 -0.000395109 7.56579e-05)
(-0.0211648 -0.000348339 0.000114694)
(-0.022459 -0.000373998 8.07118e-05)
(-0.0231993 -0.000262464 4.47191e-07)
(-0.0212285 -0.000220254 2.88279e-05)
(-0.0220626 -0.000230678 1.91952e-05)
(-0.0204973 -0.000181891 4.42355e-05)
(-0.0216405 -0.000173518 3.93251e-05)
(-0.020146 -0.000125512 4.80279e-05)
(-0.0214433 -0.000116096 3.20994e-05)
(-0.0200079 -9.03734e-05 7.1391e-05)
(-0.0213012 -0.000117294 5.90536e-05)
(-0.023369 -0.000476246 1.89646e-05)
(-0.0215127 -0.000412635 4.47624e-05)
(-0.0224338 -0.000428636 3.96722e-05)
(-0.0210592 -0.000355195 6.20657e-05)
(-0.0222311 -0.000353242 5.88497e-05)
(-0.0209378 -0.000290969 6.63744e-05)
(-0.0221601 -0.000300986 6.76211e-05)
(-0.0208754 -0.000230708 9.70288e-05)
(-0.0221536 -0.000247072 0.000104475)
(-0.0235268 -0.000528543 5.13611e-05)
(-0.021795 -0.000477407 7.39482e-05)
(-0.0228129 -0.000484612 7.32307e-05)
(-0.0216412 -0.000425797 8.51572e-05)
(-0.0228654 -0.000415509 9.08143e-05)
(-0.0218015 -0.00036129 0.000101589)
(-0.0230053 -0.00036423 0.000110306)
(-0.0219737 -0.000316603 0.000142518)
(-0.0231704 -0.000334238 0.00015897)
)
;

boundaryField
{
    inlet
    {
        type            calculated;
        value           nonuniform List<vector> 9((-0.0100001 -1.99061e-08 6.21921e-09) (-0.0100002 -3.62419e-08 2.88124e-08) (-0.01 -3.79329e-09 2.64058e-09) (-0.01 -1.3005e-08 1.16233e-08) (-0.0100001 -1.71568e-08 3.22433e-08) (-0.01 1.14269e-09 3.18885e-09) (-0.01 -1.60818e-08 9.64569e-09) (-0.01 -1.4202e-08 2.35617e-08) (-0.01 3.74258e-09 4.15703e-09));
    }
    outlet
    {
        type            calculated;
        value           nonuniform 0();
    }
    wall
    {
        type            calculated;
        value           nonuniform List<vector> 
57
(
(-2.19107e-08 -1.60818e-08 9.64569e-09)
(-3.06262e-08 -1.4202e-08 2.35617e-08)
(-1.0183e-08 3.74258e-09 4.15703e-09)
(-5.78501e-08 2.19466e-08 9.10782e-09)
(-5.84442e-08 4.19998e-09 1.69074e-08)
(-6.92094e-08 -5.08011e-09 2.8394e-08)
(-2.11135e-07 -3.66667e-08 3.23986e-08)
(-4.19952e-08 2.46785e-08 1.9526e-08)
(-5.07697e-08 2.21976e-08 2.22009e-08)
(-3.2043e-07 -4.85445e-08 2.84428e-08)
(-3.11777e-07 -5.58913e-08 3.93575e-08)
(-2.52446e-07 -3.57605e-08 3.95997e-08)
(-4.97645e-07 -7.01179e-08 6.41075e-08)
(-5.27368e-07 -5.08527e-08 4.31114e-08)
(-4.08538e-07 -4.77792e-08 6.99992e-08)
(-5.69934e-07 -9.17338e-08 1.28388e-07)
(-8.46219e-07 5.58489e-08 1.61591e-07)
(-4.86756e-07 3.3753e-08 9.64864e-08)
(-7.91268e-07 -1.95353e-07 2.00131e-07)
(-8.16768e-07 -4.50196e-08 2.08098e-08)
(-5.59631e-07 1.21392e-08 -9.37781e-09)
(-9.09527e-07 -2.17985e-07 1.70647e-07)
(-9.41921e-07 5.92971e-07 4.12094e-07)
(-4.58468e-07 7.003e-08 5.51904e-08)
(-1.11775e-06 -4.50279e-07 -1.09355e-07)
(-1.10926e-06 -4.36713e-07 2.81238e-07)
(-6.14499e-07 -4.87392e-08 3.70749e-07)
(-3.33356e-08 -3.79329e-09 2.64058e-09)
(-3.35448e-08 1.14269e-09 3.18885e-09)
(-1.0183e-08 3.74258e-09 4.15703e-09)
(-1.63047e-07 4.11174e-08 5.18541e-08)
(-1.61466e-07 2.50886e-08 6.29203e-08)
(-6.92094e-08 -5.08011e-09 2.8394e-08)
(-2.33557e-07 -1.95554e-09 1.22395e-07)
(-1.39328e-07 4.24344e-08 8.30132e-08)
(-5.07697e-08 2.21976e-08 2.22009e-08)
(-5.60297e-07 -6.72186e-09 1.05831e-08)
(-1.99819e-07 5.33914e-08 2.81905e-08)
(-2.52446e-07 -3.57605e-08 3.95997e-08)
(-9.57958e-07 -5.91132e-08 1.19002e-08)
(-6.68273e-07 6.79122e-09 6.15095e-08)
(-4.08538e-07 -4.77792e-08 6.99992e-08)
(-1.50422e-06 -1.09837e-08 1.85612e-07)
(-1.0097e-06 3.49727e-08 1.64558e-07)
(-4.86756e-07 3.3753e-08 9.64864e-08)
(-2.0618e-06 -8.27295e-08 7.84194e-07)
(-1.662e-06 -1.99113e-07 4.80017e-07)
(-7.25674e-07 8.13869e-08 9.37519e-08)
(-5.59631e-07 1.21392e-08 -9.37781e-09)
(-2.41482e-06 2.60363e-07 1.13847e-06)
(-1.39436e-06 2.29657e-07 5.9274e-07)
(-5.95505e-07 1.7075e-07 2.03622e-07)
(-4.58468e-07 7.003e-08 5.51904e-08)
(-1.01e-06 1.85365e-07 1.30129e-06)
(-1.72299e-06 2.63208e-07 6.2258e-07)
(-8.24026e-07 2.35987e-08 6.58999e-07)
(-6.14499e-07 -4.87392e-08 3.70749e-07)
)
;
    }
    procBoundary6to0
    {
        type            processor;
        value           uniform (-0.0193741 -0.00010483 0.000184392);
    }
    procBoundary6to2
    {
        type            processor;
        value           nonuniform List<vector> 
32
(
(-0.0206022 -0.000457337 0.000512069)
(-0.0198901 -0.000363658 0.00053879)
(-0.0216301 -0.000462894 0.000509149)
(-0.0227426 -0.00045548 0.000655088)
(-0.0215473 -0.000443639 0.000577517)
(-0.0230423 -0.000521132 0.000542639)
(-0.0229308 -0.000232628 0.000851994)
(-0.0207053 -0.000212594 0.000748355)
(-0.0214553 -0.000235264 0.000742446)
(-0.0195088 -0.000196911 0.000616313)
(-0.020687 -0.000202553 0.000577193)
(-0.018815 -0.000175792 0.000487938)
(-0.0202253 -0.000185778 0.000548074)
(-0.0182727 -0.00022293 0.000372731)
(-0.0182727 -0.00022293 0.000372731)
(-0.0182727 -0.00022293 0.000372731)
(-0.0231152 -0.000484591 0.000832125)
(-0.0210123 -0.000423668 0.00074451)
(-0.0218473 -0.000450475 0.000742698)
(-0.0201008 -0.000376821 0.000636794)
(-0.0213106 -0.000390641 0.000604344)
(-0.019646 -0.00034076 0.000503117)
(-0.0210681 -0.000384686 0.000478721)
(-0.0210681 -0.000384686 0.000478721)
(-0.0210681 -0.000384686 0.000478721)
(-0.0233198 -0.000557131 0.000820397)
(-0.0214132 -0.000504194 0.000753431)
(-0.0223421 -0.000526128 0.000760291)
(-0.0209202 -0.000458215 0.000679694)
(-0.0221228 -0.000465944 0.00065038)
(-0.0208368 -0.000413067 0.000550205)
(-0.0208368 -0.000413067 0.000550205)
)
;
    }
    procBoundary6to4
    {
        type            processor;
        value           nonuniform List<vector> 
27
(
(-0.0228589 0.000105621 0.00048451)
(-0.0205661 7.35725e-05 0.000428571)
(-0.0212502 7.42946e-05 0.000415255)
(-0.0191797 5.66115e-05 0.000347264)
(-0.0203506 5.45059e-05 0.000323213)
(-0.0183306 5.84531e-05 0.000251091)
(-0.0198086 0.000136773 0.000235887)
(-0.0176953 1.05927e-05 0.000164857)
(-0.019396 -0.000147917 0.000105857)
(-0.022975 9.75977e-05 0.000122651)
(-0.0207787 6.91158e-05 0.000115532)
(-0.021521 6.92704e-05 7.48857e-05)
(-0.0195938 5.6189e-05 8.58026e-05)
(-0.0207894 5.94611e-05 4.51376e-05)
(-0.0189056 5.72466e-05 4.45423e-05)
(-0.0203929 7.31156e-05 -1.50022e-05)
(-0.018458 4.34709e-05 -3.57936e-06)
(-0.0201485 2.72757e-05 -0.000135398)
(-0.0231216 7.8935e-05 1.58493e-05)
(-0.0210993 6.76835e-05 2.18963e-05)
(-0.0219075 7.58638e-05 -2.1502e-06)
(-0.020272 6.63368e-05 1.71341e-05)
(-0.0214307 7.3799e-05 1.22652e-06)
(-0.019897 7.01175e-05 1.12051e-05)
(-0.0212289 9.01769e-05 -6.52723e-06)
(-0.0197211 7.29186e-05 1.47852e-05)
(-0.0211501 7.98547e-05 -1.75225e-05)
)
;
    }
    procBoundary6to7
    {
        type            processor;
        value           nonuniform List<vector> 
12
(
(-0.0179734 -0.000351572 0.000240846)
(-0.0193073 -0.00041445 0.000303838)
(-0.021111 -0.000456344 0.000412844)
(-0.017426 -0.000233175 0.000208467)
(-0.0186962 -0.000320541 0.000185922)
(-0.0204762 -0.000421144 0.000267698)
(-0.0184345 -0.000152262 1.91935e-05)
(-0.0196855 -0.000266454 4.0288e-05)
(-0.0212836 -0.000354033 0.000105465)
(-0.0198139 -9.43613e-05 7.73349e-05)
(-0.020888 -0.000234232 0.000124847)
(-0.0221592 -0.000308588 0.000196583)
)
;
    }
}


// ************************************************************************* //
