/*--------------------------------*- C++ -*----------------------------------*\
| =========                 |                                                 |
| \\      /  F ield         | OpenFOAM: The Open Source CFD Toolbox           |
|  \\    /   O peration     | Version:  4.x                                   |
|   \\  /    A nd           | Web:      www.OpenFOAM.org                      |
|    \\/     M anipulation  |                                                 |
\*---------------------------------------------------------------------------*/
FoamFile
{
    version     2.0;
    format      ascii;
    class       volScalarField;
    location    "42";
    object      Deff;
}
// * * * * * * * * * * * * * * * * * * * * * * * * * * * * * * * * * * * * * //

dimensions      [0 2 -1 0 0 0 0];

internalField   nonuniform List<scalar> 
108
(
9.87692e-08
9.85427e-08
9.8381e-08
9.83685e-08
9.83131e-08
9.8285e-08
9.81754e-08
9.81219e-08
9.79458e-08
9.85548e-08
9.84519e-08
9.82892e-08
9.8148e-08
9.81202e-08
9.81238e-08
9.81138e-08
9.80806e-08
9.7897e-08
9.85182e-08
9.8318e-08
9.8221e-08
9.80667e-08
9.80659e-08
9.80674e-08
9.80196e-08
9.78965e-08
9.79738e-08
9.85455e-08
9.83742e-08
9.8185e-08
9.81218e-08
9.79972e-08
9.79755e-08
9.78454e-08
9.79733e-08
9.79699e-08
9.87479e-08
9.85941e-08
9.83781e-08
9.82275e-08
9.82046e-08
9.82301e-08
9.81993e-08
9.8006e-08
9.78708e-08
9.86242e-08
9.84421e-08
9.83299e-08
9.81974e-08
9.81535e-08
9.81143e-08
9.80477e-08
9.79245e-08
9.78431e-08
9.8582e-08
9.83481e-08
9.81549e-08
9.80401e-08
9.79798e-08
9.79617e-08
9.79429e-08
9.79021e-08
9.7892e-08
9.83972e-08
9.82655e-08
9.81688e-08
9.79497e-08
9.78797e-08
9.78831e-08
9.77778e-08
9.78564e-08
9.78874e-08
9.87496e-08
9.85314e-08
9.85157e-08
9.82907e-08
9.82194e-08
9.80311e-08
9.80267e-08
9.80188e-08
9.79683e-08
9.86178e-08
9.83266e-08
9.83507e-08
9.8263e-08
9.8161e-08
9.80274e-08
9.80259e-08
9.80028e-08
9.78993e-08
9.85192e-08
9.82788e-08
9.81596e-08
9.80592e-08
9.80616e-08
9.79658e-08
9.79733e-08
9.79154e-08
9.79318e-08
9.83531e-08
9.8267e-08
9.81941e-08
9.79797e-08
9.79201e-08
9.78039e-08
9.79826e-08
9.79995e-08
9.79526e-08
)
;

boundaryField
{
    inlet
    {
        type            calculated;
        value           uniform 0;
    }
    outlet
    {
        type            calculated;
        value           nonuniform 0();
    }
    wall
    {
        type            calculated;
        value           uniform 0;
    }
    procBoundary4to0
    {
        type            processor;
        value           uniform 0;
    }
    procBoundary4to5
    {
        type            processor;
        value           uniform 0;
    }
    procBoundary4to6
    {
        type            processor;
        value           uniform 0;
    }
}


// ************************************************************************* //
