/*--------------------------------*- C++ -*----------------------------------*\
| =========                 |                                                 |
| \\      /  F ield         | OpenFOAM: The Open Source CFD Toolbox           |
|  \\    /   O peration     | Version:  4.x                                   |
|   \\  /    A nd           | Web:      www.OpenFOAM.org                      |
|    \\/     M anipulation  |                                                 |
\*---------------------------------------------------------------------------*/
FoamFile
{
    version     2.0;
    format      ascii;
    class       volVectorField;
    location    "42";
    object      UsPrev;
}
// * * * * * * * * * * * * * * * * * * * * * * * * * * * * * * * * * * * * * //

dimensions      [0 1 -1 0 0 0 0];

internalField   nonuniform List<vector> 
108
(
(-7.63504e-11 1.33023e-11 -7.01543e-11)
(7.17873e-11 3.43038e-11 -3.18575e-11)
(-1.97055e-10 4.1857e-11 8.53058e-11)
(-1.50455e-10 7.62057e-11 2.0431e-10)
(-2.76471e-10 2.64939e-10 2.98757e-10)
(-1.56537e-10 2.42971e-10 3.75075e-10)
(-2.24653e-10 2.11171e-10 6.42981e-10)
(5.26446e-11 2.06153e-10 7.59396e-10)
(-5.28435e-10 2.55481e-10 1.11357e-09)
(-5.40779e-11 -5.72482e-11 -3.78314e-11)
(5.3135e-11 -8.58213e-11 -2.43097e-11)
(-1.72368e-10 4.96924e-11 1.53865e-10)
(1.58517e-11 1.12216e-10 3.42774e-10)
(1.97748e-11 2.53041e-10 5.09511e-10)
(3.64532e-10 2.94709e-10 6.01899e-10)
(4.70476e-11 4.15006e-10 8.0033e-10)
(3.42617e-11 6.49977e-10 9.99196e-10)
(-2.15301e-10 9.3093e-10 1.65547e-09)
(-2.03555e-11 -4.45514e-11 4.07292e-11)
(1.23968e-10 -4.26049e-11 1.3562e-10)
(7.67767e-11 6.83153e-11 3.18701e-10)
(4.56311e-10 9.37708e-11 3.74298e-10)
(5.42066e-10 2.70021e-10 6.84885e-10)
(1.09663e-09 4.93864e-10 7.55661e-10)
(9.82843e-10 6.14958e-10 8.57654e-10)
(1.09572e-09 9.21892e-10 1.01029e-09)
(2.16797e-09 5.61443e-10 1.10551e-09)
(2.11866e-11 -5.92684e-11 8.75447e-11)
(2.28006e-10 -2.35983e-10 8.93198e-11)
(2.49712e-10 -2.34213e-10 5.32193e-11)
(6.2123e-10 -5.18189e-11 1.21085e-10)
(1.09229e-09 2.21468e-10 5.40009e-10)
(1.77881e-09 4.28854e-10 7.45634e-10)
(2.09483e-09 5.68768e-10 7.34815e-10)
(2.94538e-09 5.47836e-10 2.95269e-10)
(3.45648e-09 5.86991e-10 6.85839e-10)
(-1.65581e-11 1.00715e-11 -1.82643e-11)
(5.94545e-11 -2.01194e-11 1.45013e-11)
(-1.04056e-10 1.8477e-11 7.49487e-11)
(5.59395e-11 -8.74013e-12 6.82479e-11)
(-4.05309e-11 6.70518e-11 1.47001e-10)
(9.92041e-11 9.1446e-11 1.77583e-10)
(-5.3027e-11 6.50894e-11 2.7529e-10)
(1.16307e-10 1.99759e-10 4.8106e-10)
(2.09493e-10 8.28957e-11 3.82117e-10)
(-5.62431e-11 -2.1689e-11 -1.46833e-11)
(7.04299e-11 -5.33177e-11 3.96446e-11)
(-6.65513e-11 -2.57665e-11 8.97554e-11)
(1.38785e-10 -1.00766e-11 1.95031e-10)
(1.32181e-10 1.13414e-10 3.06217e-10)
(2.65283e-10 2.53849e-10 4.30119e-10)
(2.74877e-10 4.24906e-10 5.65692e-10)
(4.61364e-10 4.8537e-10 6.3899e-10)
(5.52457e-10 2.13922e-10 6.66302e-10)
(-3.73523e-11 -7.33946e-12 3.89722e-11)
(1.39671e-10 -7.66777e-11 7.91015e-11)
(3.75144e-11 -4.17228e-12 1.88625e-10)
(2.24324e-10 5.12491e-11 2.77795e-10)
(2.23099e-10 1.16238e-10 3.44859e-10)
(6.43059e-10 3.33424e-10 5.44754e-10)
(6.31955e-10 4.78034e-10 6.35136e-10)
(1.28966e-09 7.2141e-10 4.92977e-10)
(1.16735e-09 7.63586e-10 8.52959e-10)
(-2.33001e-11 -7.77197e-11 9.35683e-13)
(1.09076e-10 -1.71343e-10 1.84651e-11)
(1.11977e-10 -1.46875e-10 5.99153e-11)
(2.39708e-10 -1.19696e-10 1.63588e-10)
(3.12171e-10 -2.9403e-11 2.36589e-10)
(1.09724e-09 2.25758e-10 3.10564e-10)
(1.44054e-09 6.40465e-10 4.85802e-10)
(1.95062e-09 4.56685e-10 4.28079e-10)
(2.36095e-09 4.03874e-10 9.43249e-10)
(-2.31707e-11 1.34945e-11 -1.26325e-11)
(5.76251e-11 -1.54774e-11 2.373e-11)
(-1.6168e-11 1.35092e-11 4.51666e-12)
(1.63212e-10 -2.66116e-11 7.10401e-13)
(-3.62068e-11 7.67439e-12 3.14683e-11)
(4.12316e-11 9.89794e-12 4.58567e-11)
(-9.49895e-11 -2.54893e-11 1.75652e-10)
(4.45421e-11 4.87752e-11 1.86994e-10)
(8.11761e-11 5.01681e-11 1.05096e-10)
(-6.82684e-11 -2.4725e-11 -1.1592e-11)
(4.64992e-11 -4.20466e-11 1.21458e-11)
(-4.19479e-11 -2.36853e-11 4.25272e-11)
(1.65147e-10 3.75124e-11 3.53706e-11)
(6.07448e-11 5.31772e-11 1.12586e-10)
(2.73824e-10 1.16617e-10 1.44559e-10)
(1.85869e-10 1.57509e-10 1.32638e-10)
(2.87338e-10 6.40447e-11 2.25223e-10)
(2.74506e-10 6.98175e-11 2.34577e-10)
(-6.39023e-11 -1.89143e-11 1.60931e-11)
(1.06698e-10 -2.86701e-11 1.42361e-11)
(5.9256e-12 -1.11702e-11 7.05305e-11)
(1.31921e-10 2.99426e-11 8.2607e-11)
(1.40341e-10 6.54234e-11 1.61538e-10)
(5.36101e-10 1.57202e-10 2.2655e-10)
(5.81729e-10 3.40983e-10 1.77954e-10)
(7.75934e-10 4.21523e-10 2.62972e-10)
(6.12913e-10 3.37623e-10 3.14108e-10)
(-3.99638e-11 -9.40787e-11 -3.23211e-11)
(5.58639e-11 -7.71728e-11 -2.03246e-11)
(6.87317e-12 -2.93036e-11 2.57096e-11)
(1.14052e-10 -4.14905e-11 9.05542e-11)
(1.40387e-10 -7.68664e-11 5.37473e-11)
(4.48544e-10 4.16833e-11 2.66169e-11)
(6.7553e-10 4.08698e-10 1.97883e-10)
(5.3797e-09 -1.97444e-09 1.82088e-10)
(1.94579e-09 3.34194e-10 3.13165e-10)
)
;

boundaryField
{
    inlet
    {
        type            calculated;
        value           uniform (0 0 0);
    }
    outlet
    {
        type            calculated;
        value           nonuniform 0();
    }
    wall
    {
        type            calculated;
        value           uniform (0 0 0);
    }
    procBoundary4to0
    {
        type            processor;
        value           uniform (0 0 0);
    }
    procBoundary4to5
    {
        type            processor;
        value           uniform (0 0 0);
    }
    procBoundary4to6
    {
        type            processor;
        value           uniform (0 0 0);
    }
}


// ************************************************************************* //
