/*--------------------------------*- C++ -*----------------------------------*\
| =========                 |                                                 |
| \\      /  F ield         | OpenFOAM: The Open Source CFD Toolbox           |
|  \\    /   O peration     | Version:  4.x                                   |
|   \\  /    A nd           | Web:      www.OpenFOAM.org                      |
|    \\/     M anipulation  |                                                 |
\*---------------------------------------------------------------------------*/
FoamFile
{
    version     2.0;
    format      ascii;
    class       volScalarField;
    location    "8";
    object      Cs;
}
// * * * * * * * * * * * * * * * * * * * * * * * * * * * * * * * * * * * * * //

dimensions      [1 -3 0 0 0 0 0];

internalField   nonuniform List<scalar> 
132
(
334.956
335.001
335.043
335.087
335.123
335.142
335.125
335.084
335.037
334.981
335.024
335.063
335.101
335.134
335.16
335.164
335.164
335.156
334.965
335.011
335.06
335.096
335.136
335.146
335.162
335.15
335.19
334.831
334.823
334.831
334.845
334.876
334.9
334.95
334.969
335.449
335.088
335.131
335.155
335.107
335.048
335.024
335.015
335.031
335.069
335.105
335.134
335.16
335.164
335.142
335.103
335.094
334.997
335.032
335.072
335.102
335.138
335.136
335.136
335.115
335.132
334.887
334.882
334.892
334.904
334.929
334.95
334.979
334.999
335.212
335.128
335.143
335.156
335.136
335.179
334.994
335.02
335.052
335.076
335.108
335.132
335.15
335.138
335.179
335.001
335.03
335.052
335.059
335.074
335.069
335.08
335.069
335.178
334.915
334.911
334.914
334.918
334.93
334.939
334.96
334.97
335.529
335.002
335.023
335.873
334.917
334.926
334.951
334.985
335.02
335.044
335.068
335.079
335.281
334.919
334.917
334.92
334.926
334.94
334.953
334.974
334.99
335.148
334.915
334.91
334.908
334.909
334.912
334.917
334.926
334.933
335.139
)
;

boundaryField
{
    inlet
    {
        type            calculated;
        value           nonuniform 0();
    }
    outlet
    {
        type            calculated;
        value           uniform 335;
    }
    wall
    {
        type            calculated;
        value           nonuniform List<scalar> 
66
(
334.917
334.919
334.915
334.926
334.917
334.91
334.951
334.92
334.908
334.985
334.926
334.909
335.02
334.94
334.912
335.044
334.953
334.917
335.002
335.068
334.974
334.926
335.023
335.079
334.99
334.933
335.873
335.281
335.148
335.139
334.831
334.887
334.915
334.915
334.823
334.882
334.911
334.91
334.831
334.892
334.914
334.908
334.845
334.904
334.918
334.909
334.876
334.929
334.93
334.912
334.9
334.95
334.939
334.917
334.95
334.979
334.96
334.926
334.969
334.999
334.97
334.933
335.449
335.212
335.529
335.139
)
;
    }
    procBoundary7to0
    {
        type            processor;
        value           uniform 334.917;
    }
    procBoundary7to1
    {
        type            processor;
        value           uniform 334.992;
    }
    procBoundary7to3
    {
        type            processor;
        value           nonuniform List<scalar> 
36
(
334.935
334.991
335.041
335.094
335.141
335.177
335.189
335.184
335.157
334.939
334.996
335.05
335.102
335.147
335.184
335.203
335.212
335.282
334.915
334.985
335.056
335.104
335.148
335.163
335.189
335.179
335.538
334.733
334.73
334.749
334.777
334.822
334.862
334.919
334.953
336.091
)
;
    }
    procBoundary7to5
    {
        type            processor;
        value           nonuniform List<scalar> 
44
(
335.044
335.096
335.141
335.176
335.194
335.191
335.176
335.171
335.004
335.046
335.103
335.135
335.163
335.169
335.153
335.122
335.102
335.004
335.046
335.046
335.072
335.091
335.102
335.114
335.141
335.13
335.199
334.985
335.025
335.072
335.091
335.091
334.957
334.975
334.977
334.996
335.345
334.921
334.924
334.932
334.943
334.957
334.975
334.975
)
;
    }
    procBoundary7to6
    {
        type            processor;
        value           nonuniform List<scalar> 
12
(
334.942
334.922
334.846
334.987
334.962
334.895
334.966
334.967
334.922
334.918
334.924
334.922
)
;
    }
}


// ************************************************************************* //
