/*--------------------------------*- C++ -*----------------------------------*\
| =========                 |                                                 |
| \\      /  F ield         | OpenFOAM: The Open Source CFD Toolbox           |
|  \\    /   O peration     | Version:  4.x                                   |
|   \\  /    A nd           | Web:      www.OpenFOAM.org                      |
|    \\/     M anipulation  |                                                 |
\*---------------------------------------------------------------------------*/
FoamFile
{
    version     2.0;
    format      ascii;
    class       volVectorField;
    location    "8";
    object      DDtUrel;
}
// * * * * * * * * * * * * * * * * * * * * * * * * * * * * * * * * * * * * * //

dimensions      [0 1 -2 0 0 0 0];

internalField   nonuniform List<vector> 
132
(
(0.000140186 -4.27874e-06 -8.04065e-05)
(0.000104268 -4.62437e-06 -0.000104614)
(3.37047e-05 -1.24305e-05 -0.000139516)
(-4.35317e-05 -1.76564e-05 -0.000172907)
(-0.00018832 -2.78389e-05 -0.000218574)
(-0.000314047 -4.35799e-05 -0.000307856)
(-0.000609676 -6.03757e-05 -0.000434969)
(-0.000905272 -6.73071e-05 -0.000641272)
(-0.00123507 -5.57904e-05 -0.000839472)
(0.000172899 -1.00241e-05 -7.57781e-05)
(0.000128958 -3.67442e-06 -0.000108305)
(7.7628e-05 -3.87562e-06 -0.000147526)
(-1.29174e-05 2.59624e-05 -0.000191144)
(-0.000125736 5.4474e-05 -0.000253363)
(-0.000307795 0.000123604 -0.00038808)
(-0.000608969 0.000202619 -0.000548385)
(-0.00105919 0.000466296 -0.000889221)
(-0.00160876 0.000801281 -0.00123625)
(0.000227965 -2.49614e-05 -6.91577e-05)
(0.000181837 -1.51716e-05 -0.000116042)
(0.000134729 -7.22221e-06 -0.000172508)
(2.54692e-05 3.76631e-05 -0.000220339)
(-6.18751e-05 8.50536e-05 -0.000290121)
(-0.000301622 0.000233452 -0.000496264)
(-0.00057488 0.000405415 -0.000739276)
(-0.00133646 0.000984535 -0.0013429)
(-0.00212742 0.00148337 -0.00189451)
(0.000324189 -4.61036e-05 -4.11654e-05)
(0.000242456 -3.31047e-05 -0.000118224)
(0.000225188 -2.21775e-05 -0.000181501)
(7.05337e-05 4.31934e-05 -0.000280854)
(6.23793e-05 8.2031e-05 -0.000369044)
(-0.000278254 0.000294938 -0.000624167)
(-0.000345246 0.000494252 -0.000939049)
(-0.00169007 0.00124407 -0.00187632)
(-0.00320276 0.00180934 -0.00258731)
(4.37384e-06 -1.38992e-05 -0.000111319)
(-7.66786e-05 -2.48743e-05 -0.000144059)
(-0.000219993 -4.03153e-05 -0.000184806)
(-0.000291154 -6.77315e-05 -0.000242508)
(-0.000539196 -0.000102793 -0.000322098)
(-0.00082366 -0.000145414 -0.000450855)
(-0.00108364 -0.000177449 -0.000558321)
(0.00014992 -1.25718e-05 -7.50656e-05)
(0.000100104 -9.26264e-06 -9.49118e-05)
(3.12295e-05 -8.13663e-06 -0.000125402)
(-5.30331e-05 2.31996e-05 -0.000163029)
(-0.000197468 4.78839e-05 -0.000215648)
(-0.000343779 8.51802e-05 -0.000309567)
(-0.000633189 0.00015484 -0.00043173)
(-0.000965038 0.000317688 -0.00065729)
(-0.00134657 0.000501839 -0.000874619)
(0.000197222 -2.50061e-05 -6.34917e-05)
(0.000141388 -1.26458e-05 -0.000101353)
(7.81205e-05 -2.28572e-06 -0.000143739)
(1.84172e-06 3.26561e-05 -0.000191679)
(-0.000145714 7.84977e-05 -0.000260748)
(-0.000380875 0.000186364 -0.000398277)
(-0.000677996 0.000349872 -0.000589365)
(-0.00120538 0.000713153 -0.000955377)
(-0.0017603 0.00107994 -0.0013419)
(0.00028412 -3.70971e-05 -4.20822e-05)
(0.000199022 -1.80834e-05 -0.000107238)
(0.000154775 -3.85216e-06 -0.000158388)
(1.66814e-05 4.16936e-05 -0.00023741)
(-8.14237e-05 8.18013e-05 -0.0003215)
(-0.000366588 0.000248426 -0.000501554)
(-0.000668488 0.000448997 -0.000751861)
(-0.00148457 0.000932487 -0.00128637)
(-0.00241611 0.00142925 -0.00185305)
(-0.000244213 -5.49157e-05 -0.000148472)
(-0.000396593 -9.92865e-05 -0.000189899)
(-0.000660905 -0.000154361 -0.000250689)
(-0.000987123 -0.000257591 -0.000316144)
(-0.00132338 -0.00035453 -0.00035644)
(0.00015112 -6.96891e-06 -8.29764e-05)
(9.2044e-05 -1.29886e-05 -9.65472e-05)
(1.96572e-05 -2.46421e-05 -0.000123828)
(-9.80908e-05 6.07208e-06 -0.000143255)
(-0.000228639 2.9452e-05 -0.000173749)
(-0.000403915 5.4077e-05 -0.000247137)
(-0.000689692 0.000103847 -0.00034368)
(-0.00102866 0.00025323 -0.00048914)
(-0.00144674 0.000424288 -0.000607763)
(0.000197027 -1.91226e-05 -7.27721e-05)
(0.000131914 -1.23936e-05 -9.82923e-05)
(6.91732e-05 -8.60444e-06 -0.000131387)
(-5.29769e-05 3.18403e-05 -0.000172928)
(-0.000166589 7.39652e-05 -0.000230125)
(-0.000395905 0.000181603 -0.000331948)
(-0.000679545 0.000309729 -0.000472293)
(-0.00123398 0.000735087 -0.000721707)
(-0.00181717 0.00107794 -0.000919012)
(0.000298724 -4.19047e-05 -4.90632e-05)
(0.000216965 -1.51097e-05 -9.42087e-05)
(0.000169432 -1.68126e-06 -0.000136903)
(1.25317e-05 5.89014e-05 -0.000202238)
(-4.41064e-05 9.2636e-05 -0.000275084)
(-0.000352946 0.000258307 -0.000414901)
(-0.000505166 0.000389038 -0.000613042)
(-0.00153475 0.000957672 -0.000968771)
(-0.0027464 0.00143213 -0.00119285)
(-0.000711581 -0.000196655 -0.000215646)
(-0.00109541 -0.000367456 -0.000257619)
(-0.0015596 -0.000569187 -0.000269895)
(0.00014274 -1.59389e-05 -8.23956e-05)
(7.52992e-05 -1.21213e-05 -0.00010657)
(-2.07734e-05 -1.28088e-05 -0.000136057)
(-0.000137431 -2.61999e-06 -0.000143106)
(-0.0002738 1.24685e-05 -0.000158904)
(-0.000445844 2.95213e-05 -0.000221091)
(-0.000723075 6.52306e-05 -0.00030383)
(-0.00106267 0.000131964 -0.000436795)
(-0.00150069 0.000190466 -0.000532093)
(0.000190457 -1.59129e-05 -9.22921e-05)
(0.000105055 -7.94683e-06 -0.000112929)
(2.25069e-05 -5.43945e-06 -0.000136609)
(-0.000100196 3.22226e-05 -0.000165608)
(-0.000229662 6.34383e-05 -0.000208789)
(-0.000441923 0.000155427 -0.000306745)
(-0.000745856 0.000266368 -0.000432882)
(-0.00121417 0.000545088 -0.000667316)
(-0.00172522 0.000811529 -0.000872421)
(0.000298613 -2.52822e-05 -6.74426e-05)
(0.00022419 -4.88505e-08 -0.000105337)
(0.000163891 1.34478e-05 -0.000137589)
(2.23855e-05 6.44045e-05 -0.000200986)
(-8.00825e-05 0.000102689 -0.000253186)
(-0.000369556 0.000241946 -0.000419803)
(-0.000665871 0.000366654 -0.000570336)
(-0.00146353 0.000806149 -0.00104048)
(-0.00236942 0.0012307 -0.00133329)
)
;

boundaryField
{
    inlet
    {
        type            calculated;
        value           nonuniform 0();
    }
    outlet
    {
        type            calculated;
        value           nonuniform List<vector> 
16
(
(0.00019476 0.000202456 -0.000397949)
(-0.00282309 0.00343435 -0.00252146)
(-0.0029188 0.006088 -0.005652)
(-0.0134409 0.00689868 -0.00953528)
(0.00106841 4.50459e-05 0.000226423)
(-0.00101083 0.000729041 -0.000826182)
(-0.00151787 0.00173912 -0.0020625)
(-0.00402278 0.00293488 -0.00502745)
(-0.00103521 -0.000308256 8.68029e-05)
(-0.00218584 0.00183998 -0.000222721)
(-0.00245232 0.00391586 -0.000520172)
(-0.011684 0.00468018 -0.000305655)
(-0.00300834 -0.0013143 0.000325824)
(-0.00221751 8.83887e-05 -0.000370219)
(-0.00181395 0.00147736 -0.00102534)
(-0.00612243 0.00327281 -0.00412269)
)
;
    }
    wall
    {
        type            calculated;
        value           nonuniform List<vector> 
66
(
(-9.91166e-05 -2.21302e-05 -6.44492e-05)
(0.000140328 7.76053e-06 -0.000312638)
(0.000831537 -7.13944e-05 -2.05438e-05)
(-7.4718e-05 1.71929e-05 -7.00207e-05)
(-0.000260154 1.19972e-05 -0.000190433)
(0.000565558 0.00010832 -0.000134378)
(-0.000218041 -3.19653e-05 -0.000152842)
(-0.000290417 -0.000144872 -0.000133992)
(0.000843567 -3.769e-06 -4.18592e-05)
(-0.000202192 -4.40113e-05 -5.1126e-05)
(-0.000484202 6.24539e-05 -5.77879e-05)
(0.00030109 0.000221273 -0.00034197)
(-0.000370647 -2.27071e-06 0.000121788)
(-0.000478574 -0.000129654 1.70767e-05)
(0.000873413 -7.39377e-05 4.85295e-05)
(-0.000183249 -6.78057e-06 4.84782e-06)
(-0.000495825 0.000134482 -5.45869e-05)
(-0.000176784 0.000504138 -0.000833099)
(-0.000249646 0.000121323 -5.03798e-05)
(-0.000588315 3.23733e-05 0.000105966)
(-0.000731142 -0.00010173 6.48119e-05)
(0.000710808 -0.000414304 0.000174464)
(-0.000734512 -0.00040216 6.25328e-05)
(-0.000283136 5.09946e-05 -0.000241086)
(-0.000715257 0.00046883 -0.000159581)
(-0.00165796 0.00118997 -0.00297787)
(-0.00300834 -0.0013143 0.000325824)
(-0.00221751 8.83887e-05 -0.000370219)
(-0.00181395 0.00147736 -0.00102534)
(-0.00612243 0.00327281 -0.00412269)
(0.00107847 -0.000242047 5.90856e-05)
(0.000639799 -0.000107579 0.000118502)
(0.000910016 -0.000291151 9.92001e-05)
(0.000831537 -7.13944e-05 -2.05438e-05)
(0.000337429 -9.98145e-05 -0.000258417)
(5.55091e-05 1.7655e-05 -0.000176774)
(0.000399582 -1.71368e-05 -1.55419e-05)
(0.000565558 0.00010832 -0.000134378)
(0.00114296 -0.000222642 -0.000188376)
(0.000433192 -6.08051e-05 -0.000107919)
(0.000893369 -0.000172975 -1.24655e-05)
(0.000843567 -3.769e-06 -4.18592e-05)
(-0.000138188 0.000238337 -0.000652388)
(-0.000219123 2.95502e-05 -0.000335713)
(-0.000154397 0.000264775 -0.000163962)
(0.00030109 0.000221273 -0.00034197)
(0.00195882 -0.000449439 -0.000144238)
(0.000166355 -0.000351874 -0.000193411)
(0.00137237 -0.000275396 -0.000120565)
(0.000873413 -7.39377e-05 4.85295e-05)
(-0.000883601 0.000795068 -0.00122873)
(-0.000581288 0.000155435 -0.000480182)
(-0.000635263 0.000686274 -0.000199736)
(-0.000176784 0.000504138 -0.000833099)
(0.00557301 -0.000750741 0.000239735)
(-0.000462846 -0.000119764 -0.000180556)
(0.00386274 -0.000902039 -0.000239114)
(0.000710808 -0.000414304 0.000174464)
(-0.00281958 0.00408266 -0.00585325)
(-0.00118442 0.000530202 -0.00136179)
(-0.00223857 0.00248582 -0.000959774)
(-0.00165796 0.00118997 -0.00297787)
(-0.0134409 0.00689868 -0.00953528)
(-0.00402278 0.00293488 -0.00502745)
(-0.011684 0.00468018 -0.000305655)
(-0.00612243 0.00327281 -0.00412269)
)
;
    }
    procBoundary7to0
    {
        type            processor;
        value           uniform (0.000159145 -2.19042e-06 -3.9608e-05);
    }
    procBoundary7to1
    {
        type            processor;
        value           uniform (0.000163587 7.94751e-07 -6.53017e-05);
    }
    procBoundary7to3
    {
        type            processor;
        value           nonuniform List<vector> 
36
(
(0.000140251 -1.54687e-06 -7.80885e-05)
(0.000114361 -2.48749e-06 -0.000100842)
(7.75229e-05 -7.27727e-06 -0.000138142)
(-1.01258e-05 -1.17145e-05 -0.000184554)
(-0.000134542 -2.31152e-05 -0.000248307)
(-0.000313065 -2.73438e-05 -0.000356343)
(-0.000631919 -3.72558e-05 -0.000520163)
(-0.00103577 -1.28152e-06 -0.000791621)
(-0.00152425 5.36502e-05 -0.00102369)
(0.000173803 -1.17884e-05 -7.79371e-05)
(0.000141263 -3.45608e-06 -0.000106669)
(0.000109034 9.91987e-07 -0.000147426)
(1.54219e-05 2.13055e-05 -0.000197871)
(-8.55865e-05 4.17934e-05 -0.000275721)
(-0.000294614 0.000113676 -0.000415034)
(-0.000590488 0.000198802 -0.000633433)
(-0.00117116 0.000505087 -0.000998009)
(-0.00191117 0.000770234 -0.00128371)
(0.000223932 -2.1233e-05 -6.42851e-05)
(0.000198794 -1.58926e-05 -0.000105103)
(0.000165366 -1.2198e-05 -0.000161567)
(4.69505e-05 2.97738e-05 -0.000224341)
(-1.89871e-05 7.44142e-05 -0.000316488)
(-0.000276918 0.000207373 -0.000508335)
(-0.000509678 0.000367478 -0.000812921)
(-0.00142078 0.000932591 -0.00140265)
(-0.00251678 0.00126712 -0.00176895)
(0.000309886 -3.67972e-05 -2.38002e-05)
(0.000247192 -4.19049e-05 -0.000100285)
(0.00023187 -4.75545e-05 -0.000173218)
(8.29528e-05 1.43498e-05 -0.000275244)
(6.33848e-05 6.851e-05 -0.000392446)
(-0.000258958 0.000254148 -0.000614199)
(-0.000373379 0.000452383 -0.00105247)
(-0.00170217 0.00108371 -0.00194104)
(-0.00332211 0.00145139 -0.00249766)
)
;
    }
    procBoundary7to5
    {
        type            processor;
        value           nonuniform List<vector> 
44
(
(0.000115361 -7.58276e-06 -9.33705e-05)
(6.40774e-05 -2.11918e-05 -0.000134971)
(-2.53367e-05 -6.39175e-05 -0.000169595)
(-0.000145491 -0.000121226 -0.00022408)
(-0.0003309 -0.000219926 -0.000320619)
(-0.000632434 -0.000349941 -0.000449835)
(-0.00103773 -0.000639416 -0.000681269)
(-0.00153983 -0.000973046 -0.000893292)
(0.000129909 -1.07686e-05 -7.69263e-05)
(9.26322e-05 -1.1129e-05 -8.98767e-05)
(4.29569e-05 -2.4847e-05 -0.000124595)
(-5.19498e-05 -7.50742e-05 -0.000145812)
(-0.000197879 -0.000136083 -0.000179133)
(-0.000357889 -0.0002297 -0.000238391)
(-0.000654132 -0.000375766 -0.000315444)
(-0.00100444 -0.0006499 -0.000435795)
(-0.0014074 -0.000907875 -0.00053261)
(0.000129909 -1.07686e-05 -7.69263e-05)
(9.26322e-05 -1.1129e-05 -8.98767e-05)
(9.26322e-05 -1.1129e-05 -8.98767e-05)
(-5.59099e-06 -1.64935e-05 -0.000124759)
(-0.00014039 -3.08423e-05 -0.00012937)
(-0.00020274 -0.000145313 -0.000148083)
(-0.000410494 -0.000271088 -0.000169644)
(-0.000704097 -0.000437362 -0.000212726)
(-0.001143 -0.000819309 -0.000209535)
(-0.00165317 -0.00121378 -0.000176906)
(0.000146386 -1.89119e-05 -8.05448e-05)
(0.000114797 -1.70456e-05 -9.74909e-05)
(-5.59099e-06 -1.64935e-05 -0.000124759)
(-0.00014039 -3.08423e-05 -0.00012937)
(-0.00014039 -3.08423e-05 -0.00012937)
(-0.000293538 -5.24658e-05 -0.000136719)
(-0.000465904 -0.000128724 -0.000161357)
(-0.000755311 -0.000495591 -0.000159236)
(-0.00126892 -0.000932396 -0.000156037)
(-0.00187251 -0.00151371 -0.000128565)
(0.000197492 -2.50981e-05 -8.1352e-05)
(0.000108274 -2.02135e-05 -0.000116496)
(-1.80395e-05 -1.3516e-05 -0.000165967)
(-0.000172252 -3.77977e-05 -0.000141205)
(-0.000293538 -5.24658e-05 -0.000136719)
(-0.000465904 -0.000128724 -0.000161357)
(-0.000465904 -0.000128724 -0.000161357)
)
;
    }
    procBoundary7to6
    {
        type            processor;
        value           nonuniform List<vector> 
12
(
(0.000178964 -5.96379e-06 -3.59819e-05)
(0.000228662 -1.97188e-05 -1.89432e-05)
(0.000315618 -3.58142e-05 1.57988e-05)
(0.000176083 -1.06107e-05 -3.82245e-05)
(0.000216996 -2.11665e-05 -2.59609e-05)
(0.000289914 -3.26488e-05 -5.74544e-07)
(0.000179318 -1.24043e-05 -4.79967e-05)
(0.000219588 -2.07798e-05 -3.82146e-05)
(0.000302032 -3.35216e-05 -1.65044e-05)
(0.000180453 -1.76991e-05 -5.48618e-05)
(0.000228234 -1.92599e-05 -5.48965e-05)
(0.000310961 -2.94164e-05 -3.79275e-05)
)
;
    }
}


// ************************************************************************* //
