/*--------------------------------*- C++ -*----------------------------------*\
| =========                 |                                                 |
| \\      /  F ield         | OpenFOAM: The Open Source CFD Toolbox           |
|  \\    /   O peration     | Version:  4.x                                   |
|   \\  /    A nd           | Web:      www.OpenFOAM.org                      |
|    \\/     M anipulation  |                                                 |
\*---------------------------------------------------------------------------*/
FoamFile
{
    version     2.0;
    format      ascii;
    class       volScalarField;
    location    "8";
    object      Deff;
}
// * * * * * * * * * * * * * * * * * * * * * * * * * * * * * * * * * * * * * //

dimensions      [0 2 -1 0 0 0 0];

internalField   nonuniform List<scalar> 
132
(
9.7868e-08
9.7838e-08
9.78651e-08
9.77912e-08
9.76059e-08
9.75712e-08
9.76275e-08
9.77442e-08
9.76455e-08
9.79551e-08
9.77885e-08
9.78317e-08
9.78345e-08
9.76985e-08
9.7734e-08
9.76706e-08
9.77101e-08
9.76611e-08
9.81424e-08
9.79378e-08
9.79234e-08
9.78863e-08
9.77703e-08
9.76845e-08
9.76743e-08
9.77158e-08
9.7696e-08
9.82745e-08
9.80446e-08
9.79144e-08
9.79869e-08
9.78538e-08
9.77946e-08
9.77341e-08
9.78423e-08
9.79755e-08
9.77615e-08
9.76661e-08
9.7623e-08
9.75824e-08
9.75058e-08
9.75312e-08
9.76013e-08
9.79781e-08
9.77344e-08
9.77143e-08
9.76783e-08
9.75731e-08
9.75922e-08
9.76098e-08
9.75582e-08
9.76526e-08
9.80041e-08
9.77712e-08
9.77839e-08
9.77848e-08
9.76336e-08
9.75411e-08
9.75115e-08
9.75928e-08
9.76147e-08
9.80912e-08
9.78422e-08
9.78646e-08
9.77905e-08
9.77118e-08
9.77126e-08
9.76535e-08
9.76584e-08
9.78473e-08
9.76384e-08
9.76189e-08
9.75498e-08
9.75966e-08
9.76554e-08
9.78335e-08
9.77392e-08
9.76956e-08
9.77184e-08
9.75665e-08
9.76031e-08
9.75601e-08
9.75081e-08
9.75933e-08
9.79113e-08
9.77939e-08
9.7736e-08
9.77159e-08
9.75917e-08
9.75845e-08
9.75442e-08
9.75892e-08
9.76151e-08
9.80644e-08
9.78968e-08
9.78134e-08
9.77716e-08
9.77453e-08
9.77498e-08
9.76224e-08
9.76782e-08
9.78299e-08
9.76745e-08
9.76675e-08
9.77155e-08
9.79088e-08
9.78575e-08
9.76991e-08
9.76815e-08
9.77237e-08
9.77906e-08
9.76529e-08
9.76544e-08
9.77465e-08
9.79702e-08
9.78957e-08
9.78328e-08
9.77801e-08
9.77023e-08
9.77052e-08
9.76343e-08
9.76874e-08
9.77174e-08
9.80229e-08
9.78841e-08
9.79063e-08
9.78565e-08
9.77658e-08
9.77405e-08
9.77062e-08
9.77832e-08
9.79841e-08
)
;

boundaryField
{
    inlet
    {
        type            calculated;
        value           nonuniform 0();
    }
    outlet
    {
        type            calculated;
        value           uniform 0;
    }
    wall
    {
        type            calculated;
        value           uniform 0;
    }
    procBoundary7to0
    {
        type            processor;
        value           uniform 0;
    }
    procBoundary7to1
    {
        type            processor;
        value           uniform 0;
    }
    procBoundary7to3
    {
        type            processor;
        value           uniform 0;
    }
    procBoundary7to5
    {
        type            processor;
        value           uniform 0;
    }
    procBoundary7to6
    {
        type            processor;
        value           uniform 0;
    }
}


// ************************************************************************* //
