/*--------------------------------*- C++ -*----------------------------------*\
| =========                 |                                                 |
| \\      /  F ield         | OpenFOAM: The Open Source CFD Toolbox           |
|  \\    /   O peration     | Version:  4.x                                   |
|   \\  /    A nd           | Web:      www.OpenFOAM.org                      |
|    \\/     M anipulation  |                                                 |
\*---------------------------------------------------------------------------*/
FoamFile
{
    version     2.0;
    format      ascii;
    class       volScalarField;
    location    "8";
    object      KslPrev;
}
// * * * * * * * * * * * * * * * * * * * * * * * * * * * * * * * * * * * * * //

dimensions      [1 -3 -1 0 0 0 0];

internalField   nonuniform List<scalar> 
132
(
18046.7
3894.85
17096.2
4039.58
18923.1
4496.56
30627.3
5975.81
25549
17741.4
3697.52
16673.7
3584.82
14771.4
3511.18
11231.5
3576.82
7709.72
17801.7
3723.73
16572.6
3567.34
14038.4
3493
9684.8
3416.03
3676.92
5109.77
2896.04
4812.09
2682.65
4883.76
2433.99
5244.26
1928.67
3337.39
1.85348e+07
4662.32
1e+10
5379.85
1e+10
6632.81
23013.8
63173.9
4067.75
51640
4125.6
35863.1
4321.64
21227.7
4933.32
11262.6
41481.2
4069.1
54217.5
4075.06
105220
4268.57
65697.1
4822.84
18524.2
6061.35
3205.91
6058.93
3132.13
6479.66
3127.6
7439.47
3291.61
7596.24
1e+10
4694.86
1e+10
5317.63
17032
25869
3815.33
36618.8
3705.36
48268.1
3687.66
75984.8
4049.29
20748.1
23425.8
3885.27
22834.8
3740.57
21112.7
3587.24
13964.1
3610.15
4890.82
5130.83
2959.88
4861.74
2793.43
4929.7
2519.75
5280.94
1954.86
5268.64
8339.88
3816.18
8022.16
9016.27
3546.24
13282.5
3700.85
31030.4
3946.91
99707.6
4530.73
16550.3
5842.82
3228.28
6388.32
3342.9
7939.13
3494.19
10416.8
4014.18
9919.79
4815.78
2914.44
4514.02
2814.42
4357.03
2611.96
4177.22
2435.91
3618.21
)
;

boundaryField
{
    inlet
    {
        type            zeroGradient;
    }
    outlet
    {
        type            zeroGradient;
    }
    wall
    {
        type            zeroGradient;
    }
    procBoundary7to0
    {
        type            processor;
        value           uniform 0;
    }
    procBoundary7to1
    {
        type            processor;
        value           uniform 0;
    }
    procBoundary7to3
    {
        type            processor;
        value           uniform 0;
    }
    procBoundary7to5
    {
        type            processor;
        value           uniform 0;
    }
    procBoundary7to6
    {
        type            processor;
        value           uniform 0;
    }
}


// ************************************************************************* //
