/*--------------------------------*- C++ -*----------------------------------*\
| =========                 |                                                 |
| \\      /  F ield         | OpenFOAM: The Open Source CFD Toolbox           |
|  \\    /   O peration     | Version:  4.x                                   |
|   \\  /    A nd           | Web:      www.OpenFOAM.org                      |
|    \\/     M anipulation  |                                                 |
\*---------------------------------------------------------------------------*/
FoamFile
{
    version     2.0;
    format      ascii;
    class       volScalarField;
    location    "8";
    object      Sm;
}
// * * * * * * * * * * * * * * * * * * * * * * * * * * * * * * * * * * * * * //

dimensions      [1 -3 -1 0 0 0 0];

internalField   nonuniform List<scalar> 
132
(
9.91739e-65
7.82549e-65
6.43088e-65
6.74075e-65
1.03046e-64
1.03816e-64
7.9795e-65
5.65506e-65
8.36606e-65
7.6706e-65
9.4527e-65
7.28322e-65
6.7408e-65
8.44521e-65
5.6558e-65
7.51495e-65
6.35256e-65
8.05657e-65
5.50135e-65
7.36102e-65
6.19876e-65
7.12848e-65
7.43831e-65
8.05802e-65
7.51539e-65
7.20518e-65
8.59942e-65
5.11416e-65
7.2839e-65
8.7561e-65
5.50159e-65
7.20626e-65
6.81871e-65
7.90326e-65
5.88869e-65
4.33896e-65
6.43093e-65
7.36066e-65
6.74065e-65
6.89535e-65
8.59942e-65
8.44404e-65
7.35922e-65
3.95155e-65
8.52305e-65
7.43829e-65
7.51571e-65
8.1354e-65
7.05048e-65
5.65556e-65
7.74707e-65
5.7326e-65
5.81141e-65
8.52338e-65
6.97364e-65
5.73383e-65
7.36087e-65
8.60045e-65
8.91002e-65
7.05036e-65
7.97977e-65
5.65664e-65
8.44627e-65
5.88909e-65
7.28388e-65
7.36123e-65
6.1989e-65
6.58609e-65
7.98068e-65
5.34616e-65
5.03618e-65
5.81084e-65
7.36012e-65
6.04281e-65
5.81006e-65
8.05841e-65
7.36102e-65
6.81864e-65
5.19138e-65
8.52303e-65
7.05065e-65
7.12779e-65
8.75455e-65
7.5146e-65
7.05134e-65
7.36131e-65
7.51622e-65
6.97375e-65
8.29087e-65
7.59341e-65
7.67065e-65
7.05061e-65
7.74767e-65
5.34687e-65
6.27671e-65
7.05157e-65
6.89656e-65
6.12161e-65
5.26923e-65
7.59362e-65
7.05127e-65
5.81126e-65
5.50097e-65
6.43058e-65
6.12053e-65
6.89632e-65
5.8116e-65
7.67119e-65
7.43871e-65
5.19145e-65
3.87418e-65
6.89566e-65
6.6631e-65
5.42326e-65
5.96672e-65
6.04426e-65
6.04421e-65
6.19917e-65
6.89638e-65
6.35391e-65
7.20594e-65
6.43117e-65
7.28326e-65
6.2769e-65
7.36183e-65
5.65695e-65
5.81195e-65
6.58677e-65
6.50923e-65
6.50902e-65
6.35411e-65
4.10698e-65
)
;

boundaryField
{
    inlet
    {
        type            calculated;
        value           nonuniform 0();
    }
    outlet
    {
        type            calculated;
        value           uniform 0;
    }
    wall
    {
        type            calculated;
        value           uniform 0;
    }
    procBoundary7to0
    {
        type            processor;
        value           uniform 2.32432e-65;
    }
    procBoundary7to1
    {
        type            processor;
        value           uniform 5.73356e-65;
    }
    procBoundary7to3
    {
        type            processor;
        value           nonuniform List<scalar> 
36
(
7.67054e-65
8.98776e-65
8.83281e-65
8.52288e-65
6.1208e-65
6.27552e-65
8.52199e-65
6.81715e-65
7.74653e-65
8.98784e-65
5.11377e-65
7.74817e-65
4.33894e-65
4.64875e-65
7.90271e-65
7.28263e-65
8.83171e-65
6.12e-65
5.65642e-65
8.29092e-65
8.21336e-65
5.81127e-65
6.81842e-65
7.98054e-65
6.66325e-65
7.2052e-65
5.42323e-65
5.73413e-65
3.87445e-65
5.42424e-65
6.1216e-65
5.57907e-65
7.12877e-65
6.19875e-65
7.90328e-65
8.52278e-65
)
;
    }
    procBoundary7to5
    {
        type            processor;
        value           nonuniform List<scalar> 
44
(
8.44544e-65
6.04359e-65
7.43816e-65
5.81098e-65
4.57116e-65
6.9726e-65
5.73273e-65
8.67606e-65
9.99505e-65
4.41644e-65
7.28339e-65
7.59325e-65
6.19844e-65
7.05051e-65
7.12765e-65
6.8949e-65
5.57774e-65
9.99505e-65
4.41644e-65
4.41644e-65
8.98821e-65
7.98083e-65
1.01503e-64
7.3607e-65
8.21261e-65
8.90955e-65
8.67683e-65
3.56422e-65
9.3756e-65
8.98821e-65
7.98083e-65
7.98083e-65
9.68553e-65
7.74826e-65
6.50847e-65
6.74073e-65
6.818e-65
7.20629e-65
5.50161e-65
7.28379e-65
5.65653e-65
9.68553e-65
7.74826e-65
7.74826e-65
)
;
    }
    procBoundary7to6
    {
        type            processor;
        value           nonuniform List<scalar> 
12
(
6.74079e-65
7.12851e-65
4.95923e-65
8.523e-65
7.59353e-65
7.51637e-65
7.90335e-65
7.74861e-65
5.65681e-65
3.79693e-65
7.82644e-65
6.04443e-65
)
;
    }
}


// ************************************************************************* //
