/*--------------------------------*- C++ -*----------------------------------*\
| =========                 |                                                 |
| \\      /  F ield         | OpenFOAM: The Open Source CFD Toolbox           |
|  \\    /   O peration     | Version:  4.x                                   |
|   \\  /    A nd           | Web:      www.OpenFOAM.org                      |
|    \\/     M anipulation  |                                                 |
\*---------------------------------------------------------------------------*/
FoamFile
{
    version     2.0;
    format      ascii;
    class       volVectorField;
    location    "8";
    object      UsPrev;
}
// * * * * * * * * * * * * * * * * * * * * * * * * * * * * * * * * * * * * * //

dimensions      [0 1 -1 0 0 0 0];

internalField   nonuniform List<vector> 
132
(
(-4.34972e-07 -1.96034e-08 4.61315e-08)
(-4.48977e-07 -2.1015e-08 4.17565e-08)
(-4.47604e-07 -1.56418e-08 3.42057e-08)
(-4.34452e-07 -2.54638e-08 5.28673e-09)
(-3.46418e-07 -1.80929e-12 1.52311e-10)
(-2.14366e-07 1.15447e-08 2.67256e-08)
(-1.51408e-07 -7.34461e-09 8.72066e-09)
(-8.76251e-08 4.80271e-09 1.49154e-08)
(-2.75041e-08 1.02648e-08 1.13909e-08)
(-4.20756e-07 -6.56814e-09 4.32944e-08)
(-4.33525e-07 -1.70351e-08 4.05682e-08)
(-4.3097e-07 -2.09669e-08 2.69554e-08)
(-4.23078e-07 -2.45218e-08 1.5039e-08)
(-2.89607e-07 -1.57137e-08 -8.54595e-09)
(-2.14283e-07 -2.50239e-08 -9.28452e-09)
(-1.57282e-07 -2.14669e-08 -3.13006e-09)
(-1.06343e-07 -1.96021e-08 1.71126e-08)
(-5.24412e-08 2.1003e-09 1.99151e-08)
(-3.84172e-07 -2.22082e-08 3.33522e-08)
(-3.91079e-07 -1.05542e-08 3.70817e-08)
(-3.8083e-07 -1.38644e-08 2.34015e-08)
(-3.45353e-07 -2.38581e-08 1.43417e-08)
(-2.60819e-07 -2.22861e-08 -4.72755e-09)
(-1.86098e-07 -3.47152e-08 -1.75122e-08)
(-1.426e-07 -2.20925e-08 -1.04597e-08)
(-1.02435e-07 -3.31745e-08 2.82849e-08)
(-7.46008e-08 -3.31071e-08 2.16344e-08)
(-3.17949e-07 1.54105e-08 5.23189e-09)
(-2.77536e-07 -1.71956e-09 -9.11937e-09)
(-2.39012e-07 -2.75707e-08 3.06821e-09)
(-2.3463e-07 -1.78639e-08 4.19948e-09)
(-1.81911e-07 -1.73525e-08 -2.07177e-09)
(-1.31207e-07 -1.22483e-08 -1.14473e-08)
(-8.97689e-08 -2.43645e-08 -2.48635e-10)
(-5.75417e-08 -1.20429e-08 2.049e-08)
(-4.10408e-08 -1.81598e-08 5.63961e-09)
(-4.07722e-07 -3.01033e-08 2.20323e-08)
(-3.86828e-07 -3.44229e-08 3.37422e-09)
(-2.39363e-07 5.51597e-09 -5.73278e-09)
(-1.99057e-07 -1.76406e-08 -9.61014e-09)
(-1.31214e-07 -1.05475e-08 -8.29605e-09)
(-7.15142e-08 1.35143e-09 -3.23861e-09)
(-2.64776e-08 2.71161e-09 -3.70569e-09)
(-3.95231e-07 -1.63224e-08 3.38864e-08)
(-3.98202e-07 -7.96168e-09 3.35648e-08)
(-3.89615e-07 -1.25725e-08 2.31563e-08)
(-3.69421e-07 -1.90291e-08 1.25607e-09)
(-2.77722e-07 -2.16308e-08 -3.227e-08)
(-1.64474e-07 -2.76147e-08 -9.83881e-09)
(-1.13968e-07 -1.00327e-08 -1.42274e-08)
(-7.42834e-08 -1.23544e-08 -2.17495e-09)
(-2.97167e-08 -3.99879e-09 1.11674e-09)
(-3.73107e-07 -2.10117e-08 3.63962e-08)
(-3.64827e-07 1.06944e-08 3.34728e-08)
(-3.55946e-07 -2.02374e-08 1.49135e-08)
(-3.41761e-07 1.81193e-09 4.85315e-09)
(-2.48853e-07 -2.91619e-08 -2.06903e-08)
(-1.64641e-07 -4.32306e-08 -1.86464e-08)
(-1.26362e-07 -1.81645e-08 -3.44897e-09)
(-6.59978e-08 -1.51312e-08 5.96402e-09)
(-1.0138e-07 -4.55329e-08 1.40088e-09)
(-3.06097e-07 -1.71331e-08 2.74724e-08)
(-2.98559e-07 7.26599e-09 -5.83948e-09)
(-2.8866e-07 -4.19864e-08 -5.44348e-09)
(-2.62746e-07 5.97982e-09 1.32172e-08)
(-1.72992e-07 -2.53597e-08 -6.7491e-09)
(-1.1297e-07 -2.36662e-08 -1.8717e-08)
(-6.3566e-08 -6.73753e-09 5.19392e-09)
(-3.64091e-08 -4.44972e-09 6.67866e-09)
(-4.32002e-08 -2.46629e-08 -1.70492e-10)
(-2.19041e-07 -2.54146e-08 -2.62871e-08)
(-1.62174e-07 -2.49237e-08 -2.40258e-08)
(-1.0282e-07 -9.44093e-09 -1.90951e-08)
(-6.59644e-08 -6.42359e-09 -2.13171e-08)
(-2.47253e-08 -2.19464e-09 -1.18938e-08)
(-3.34392e-07 -2.03694e-08 2.2936e-08)
(-3.63955e-07 -1.16979e-08 3.68963e-08)
(-3.26038e-07 2.1695e-09 3.89511e-08)
(-2.64026e-07 -1.47535e-08 -5.74979e-09)
(-2.13548e-07 -3.25525e-08 -2.99401e-08)
(-1.46143e-07 -3.36685e-08 -1.81241e-08)
(-9.80932e-08 -9.4518e-09 -1.37719e-08)
(-6.57778e-08 -3.6856e-09 -7.7129e-09)
(-2.92222e-08 -8.1866e-09 -4.84395e-09)
(-3.06424e-07 -1.88227e-08 3.44758e-08)
(-2.73805e-07 1.04351e-08 1.30751e-08)
(-2.84777e-07 -1.41326e-08 4.80773e-08)
(-2.64652e-07 -4.95475e-09 -6.15743e-09)
(-1.84076e-07 -3.18382e-08 -3.16948e-08)
(-1.37745e-07 -3.39268e-08 -1.7514e-08)
(-8.16916e-08 -1.21245e-08 -8.60371e-09)
(-4.65011e-08 -5.69105e-09 -9.08212e-09)
(-2.42218e-08 -8.30214e-09 -4.69191e-09)
(-1.99235e-07 -8.56956e-09 2.62968e-08)
(-2.22411e-07 -2.26949e-08 -7.17159e-09)
(-2.59459e-07 1.51305e-09 1.08998e-08)
(-2.33123e-07 -2.05556e-09 -1.14043e-09)
(-1.25475e-07 -2.11076e-08 -1.88296e-08)
(-7.76772e-08 -5.29928e-09 -1.8241e-08)
(-4.75779e-08 -1.57718e-08 -3.58276e-09)
(-1.62978e-08 -2.90305e-09 -1.34035e-09)
(-1.05959e-08 -6.3587e-09 -2.22874e-09)
(-8.20481e-08 -1.73291e-08 -2.87387e-08)
(-6.82135e-08 -4.5642e-09 -1.69567e-08)
(-1.00866e-08 -2.24305e-09 -2.29543e-08)
(-2.19444e-07 -2.35249e-08 2.22337e-08)
(-2.26992e-07 -4.44531e-08 7.09679e-09)
(-2.03757e-07 -2.51146e-08 4.48109e-09)
(-1.68714e-07 -2.14698e-08 -1.39191e-08)
(-1.32413e-07 -2.76735e-08 -2.11941e-08)
(-1.26499e-07 -3.21945e-08 -1.21197e-08)
(-7.64333e-08 -1.11543e-08 -2.13665e-08)
(-5.10218e-08 -2.89667e-09 -4.61248e-09)
(-1.39151e-08 1.50579e-09 -6.85404e-09)
(-1.32183e-07 -3.62211e-08 1.29994e-08)
(-1.35222e-07 -2.81065e-08 2.50926e-09)
(-1.73168e-07 -2.77006e-08 2.29622e-08)
(-1.55279e-07 -5.26688e-09 -1.3771e-08)
(-1.11454e-07 -2.23877e-08 -2.01878e-08)
(-7.64342e-08 -2.25794e-08 -1.14981e-08)
(-4.95287e-08 -1.38117e-08 -1.66605e-08)
(-2.98687e-08 -5.75986e-09 -6.61799e-09)
(-1.25214e-08 -6.67579e-09 -6.00835e-09)
(-1.00716e-07 1.12298e-09 1.0331e-08)
(-1.05679e-07 -3.40209e-09 -2.45914e-09)
(-1.37293e-07 1.57694e-09 1.01614e-08)
(-1.37396e-07 9.12765e-09 -8.50518e-09)
(-8.65498e-08 -9.22391e-09 -1.32541e-08)
(-5.24359e-08 -1.30436e-08 -2.13522e-08)
(-3.25825e-08 -7.7089e-09 -4.18535e-09)
(-2.23106e-08 -4.31532e-09 -2.62432e-09)
(1.03102e-08 -2.39848e-08 -1.04838e-08)
)
;

boundaryField
{
    inlet
    {
        type            calculated;
        value           nonuniform 0();
    }
    outlet
    {
        type            calculated;
        value           uniform (0 0 0);
    }
    wall
    {
        type            calculated;
        value           uniform (0 0 0);
    }
    procBoundary7to0
    {
        type            processor;
        value           uniform (0 0 0);
    }
    procBoundary7to1
    {
        type            processor;
        value           uniform (0 0 0);
    }
    procBoundary7to3
    {
        type            processor;
        value           uniform (0 0 0);
    }
    procBoundary7to5
    {
        type            processor;
        value           uniform (0 0 0);
    }
    procBoundary7to6
    {
        type            processor;
        value           uniform (0 0 0);
    }
}


// ************************************************************************* //
