/*--------------------------------*- C++ -*----------------------------------*\
| =========                 |                                                 |
| \\      /  F ield         | OpenFOAM: The Open Source CFD Toolbox           |
|  \\    /   O peration     | Version:  4.x                                   |
|   \\  /    A nd           | Web:      www.OpenFOAM.org                      |
|    \\/     M anipulation  |                                                 |
\*---------------------------------------------------------------------------*/
FoamFile
{
    version     2.0;
    format      ascii;
    class       volScalarField;
    location    "11";
    object      Cs;
}
// * * * * * * * * * * * * * * * * * * * * * * * * * * * * * * * * * * * * * //

dimensions      [1 -3 0 0 0 0 0];

internalField   nonuniform List<scalar> 
114
(
334.981
334.956
334.916
334.856
334.781
334.708
335
334.998
334.994
334.982
334.958
334.92
334.863
334.789
334.712
335
334.998
334.994
334.983
334.963
334.93
334.881
334.817
334.743
335
334.998
334.995
334.987
334.972
334.95
334.917
334.874
334.819
334.884
334.817
334.765
334.741
335
334.999
334.995
334.981
334.951
334.901
334.838
334.78
334.744
335
334.999
334.995
334.983
334.958
334.913
334.853
334.79
334.741
335
334.999
334.996
334.989
334.974
334.95
334.913
334.867
334.813
334.84
334.836
335
334.999
334.996
334.985
334.963
334.927
334.885
334.856
334.842
335
334.999
334.996
334.987
334.966
334.932
334.889
334.852
334.828
335
334.999
334.997
334.992
334.98
334.961
334.932
334.895
334.853
335
334.999
334.997
334.99
334.977
334.956
334.934
334.919
335
335
334.998
334.991
334.979
334.958
334.933
335
335
334.998
334.995
334.988
334.977
)
;

boundaryField
{
    inlet
    {
        type            calculated;
        value           uniform 335;
    }
    outlet
    {
        type            calculated;
        value           nonuniform 0();
    }
    wall
    {
        type            calculated;
        value           nonuniform List<scalar> 
66
(
335
335
335
334.998
334.998
334.998
334.994
334.994
334.995
334.981
334.982
334.983
334.987
334.956
334.958
334.963
334.972
334.916
334.92
334.93
334.95
334.856
334.863
334.881
334.917
334.781
334.789
334.817
334.874
334.708
334.712
334.743
334.819
335
335
335
335
334.998
334.999
334.999
335
334.995
334.996
334.997
334.998
334.987
334.989
334.992
334.995
334.972
334.974
334.98
334.988
334.95
334.95
334.961
334.977
334.917
334.913
334.932
334.874
334.867
334.895
334.819
334.813
334.853
)
;
    }
    procBoundary2to0
    {
        type            processor;
        value           nonuniform List<scalar> 
44
(
334.982
334.959
334.923
334.868
334.797
334.721
335
334.998
334.993
334.993
334.977
334.941
334.899
334.838
334.785
334.757
335
334.999
334.993
334.977
334.941
334.941
334.908
334.864
334.85
334.847
335
334.999
334.995
334.98
334.951
334.908
334.864
334.864
334.899
334.893
335
334.999
334.997
334.988
334.97
334.944
334.916
334.899
)
;
    }
    procBoundary2to3
    {
        type            processor;
        value           nonuniform List<scalar> 
12
(
334.668
334.654
334.672
334.758
334.763
334.749
334.725
334.76
334.865
334.864
334.841
334.811
)
;
    }
    procBoundary2to6
    {
        type            processor;
        value           nonuniform List<scalar> 
32
(
334.915
334.913
334.902
334.96
334.939
334.912
335
334.999
334.997
334.99
334.976
334.958
334.942
334.915
334.913
334.938
335
335
334.998
334.992
334.982
334.966
334.913
334.96
334.949
335
335
334.999
334.996
334.99
334.96
334.981
)
;
    }
}


// ************************************************************************* //
