/*--------------------------------*- C++ -*----------------------------------*\
| =========                 |                                                 |
| \\      /  F ield         | OpenFOAM: The Open Source CFD Toolbox           |
|  \\    /   O peration     | Version:  4.x                                   |
|   \\  /    A nd           | Web:      www.OpenFOAM.org                      |
|    \\/     M anipulation  |                                                 |
\*---------------------------------------------------------------------------*/
FoamFile
{
    version     2.0;
    format      ascii;
    class       surfaceScalarField;
    location    "11";
    object      phi;
}
// * * * * * * * * * * * * * * * * * * * * * * * * * * * * * * * * * * * * * //

dimensions      [0 3 -1 0 0 0 0];

internalField   nonuniform List<scalar> 
259
(
1.06632e-05
6.23873e-08
1.13185e-05
9.62884e-08
1.1482e-05
7.45688e-08
-3.18305e-07
1.13325e-05
1.20519e-07
-1.07435e-07
1.10025e-05
1.24523e-07
1.1178e-07
2.25441e-07
6.79761e-07
8.77268e-06
2.32274e-07
-8.47852e-07
9.19385e-06
1.39787e-07
-5.23485e-07
1.00431e-05
2.70518e-07
-1.03986e-06
1.04497e-05
1.6997e-07
-5.14243e-07
1.11005e-05
2.59158e-07
-8.13661e-07
1.13472e-05
1.5909e-07
-3.31234e-07
1.13818e-05
2.72419e-07
-1.86452e-07
1.12277e-05
1.76696e-07
1.01909e-07
3.78371e-07
6.01277e-07
8.98462e-06
3.00328e-07
-8.89404e-07
9.52404e-06
1.67994e-07
-5.67625e-07
1.05618e-05
3.13056e-07
-1.08032e-06
1.11055e-05
1.79975e-07
-5.53661e-07
1.19635e-05
2.97379e-07
-8.96241e-07
1.23867e-05
1.43855e-07
-4.07932e-07
1.27478e-05
2.84595e-07
-3.73326e-07
1.26848e-05
1.89695e-07
4.99722e-08
4.29758e-07
4.8596e-07
9.24738e-06
-7.83786e-07
9.9643e-06
-5.48931e-07
1.12193e-05
-9.41966e-07
1.20057e-05
-6.06381e-07
1.31719e-05
-8.68819e-07
1.39038e-05
-5.88035e-07
1.47712e-05
-5.82855e-07
1.51808e-05
-2.1993e-07
1.18464e-07
6.89199e-06
5.14523e-08
6.55127e-06
4.29905e-08
6.5713e-06
3.36456e-08
1.22285e-08
3.81816e-08
5.68973e-07
8.12632e-06
2.8149e-07
-1.04603e-06
8.08937e-06
1.33463e-07
-6.04632e-07
7.94593e-06
3.17955e-07
-1.14913e-06
7.79756e-06
1.61806e-07
-4.6922e-07
7.51949e-06
3.34822e-07
-7.49108e-07
7.32792e-06
1.34487e-07
-2.22701e-07
6.97358e-06
2.34387e-07
-2.35079e-08
6.99492e-06
8.29123e-08
3.12972e-08
1.82376e-07
5.70203e-07
8.25404e-06
3.6581e-07
-1.0645e-06
8.26372e-06
2.00526e-07
-6.44376e-07
8.27728e-06
4.20709e-07
-1.19663e-06
8.2228e-06
1.98087e-07
-5.35457e-07
8.11334e-06
4.15526e-07
-8.67491e-07
7.95828e-06
1.83759e-07
-3.02142e-07
7.62821e-06
3.7935e-07
-1.88214e-07
7.55129e-06
1.79923e-07
2.98769e-08
3.8151e-07
5.78174e-07
8.71945e-06
-9.74166e-07
9.03951e-06
-6.68461e-07
9.63859e-06
-1.12033e-06
9.94117e-06
-7.10877e-07
1.0457e-05
-9.6911e-07
1.06834e-05
-6.3069e-07
1.10381e-05
-5.58208e-07
1.12402e-05
-2.42134e-07
2.05792e-07
5.11192e-06
2.8945e-08
4.87156e-08
7.76689e-06
3.5732e-07
-8.78531e-07
7.54175e-06
1.61692e-07
-4.73974e-07
6.99348e-06
3.85517e-07
-8.38692e-07
6.74901e-06
1.45883e-07
-3.09367e-07
6.23276e-06
3.36768e-07
-4.37903e-07
6.04836e-06
8.8138e-08
-9.47577e-08
5.75508e-06
1.9722e-07
1.05683e-07
5.7511e-06
5.88257e-08
5.39934e-09
1.79334e-07
7.89501e-06
4.06008e-07
-8.44926e-07
7.68496e-06
2.15452e-07
-4.88093e-07
7.21989e-06
4.98795e-07
-8.44843e-07
6.98448e-06
2.1054e-07
-3.64697e-07
6.51763e-06
4.66056e-07
-5.29935e-07
6.30114e-06
1.50141e-07
-1.47652e-07
5.90115e-06
3.73664e-07
3.53285e-08
5.84451e-06
1.28327e-07
3.21309e-07
8.38374e-06
-7.88635e-07
8.47732e-06
-5.46591e-07
8.73097e-06
-8.75184e-07
8.81773e-06
-5.871e-07
9.04958e-06
-7.34899e-07
9.00542e-06
-4.36392e-07
9.14568e-06
9.20501e-06
7.60327e-06
3.29917e-07
7.31653e-06
1.72899e-07
6.7891e-06
3.49959e-07
6.63616e-06
1.14756e-07
6.31334e-06
2.455e-07
6.25974e-06
7.3774e-08
6.16937e-06
1.5474e-07
7.75276e-06
4.38555e-07
7.53008e-06
2.30823e-07
7.09969e-06
4.68693e-07
6.9292e-06
1.83238e-07
6.57102e-06
4.02518e-07
6.46951e-06
1.47395e-07
8.34725e-06
8.42378e-06
8.62502e-06
8.68918e-06
8.89133e-06
)
;

boundaryField
{
    inlet
    {
        type            calculated;
        value           nonuniform List<scalar> 
12
(
-8.16327e-06
-8.16327e-06
-8.16327e-06
-8.16327e-06
-8.16327e-06
-8.16327e-06
-8.16327e-06
-8.16327e-06
-8.16327e-06
-8.16327e-06
-8.16327e-06
-8.16327e-06
)
;
    }
    outlet
    {
        type            calculated;
        value           nonuniform 0();
    }
    wall
    {
        type            calculated;
        value           uniform 0;
    }
    procBoundary2to0
    {
        type            processor;
        value           nonuniform List<scalar> 
44
(
1.11756e-07
1.26527e-07
8.01735e-08
1.36483e-07
9.36217e-08
1.24143e-07
6.16509e-09
-3.74693e-08
-1.0283e-05
-7.9865e-08
-5.54289e-07
-8.78104e-07
6.34758e-08
1.06871e-07
4.58723e-08
5.41402e-08
-4.63656e-08
-1.53683e-08
-6.52457e-08
-5.84534e-08
-7.15286e-06
-1.21304e-07
-1.72369e-07
8.34257e-08
2.01339e-08
1.85993e-08
-1.28449e-07
-6.72064e-08
-1.47682e-07
-6.12722e-08
-1.31722e-07
-3.16757e-08
-5.13871e-06
-3.31383e-08
-1.00578e-08
4.0999e-07
-4.15203e-08
-5.21318e-08
-1.01191e-07
-5.33821e-08
-6.91243e-08
-3.54226e-08
-1.23566e-08
-2.19013e-08
)
;
    }
    procBoundary2to3
    {
        type            processor;
        value           nonuniform List<scalar> 
12
(
9.97318e-06
1.04735e-05
1.21475e-05
1.54921e-05
6.58977e-06
6.8818e-06
7.25994e-06
1.15344e-05
5.20359e-06
5.77811e-06
5.82599e-06
9.50559e-06
)
;
    }
    procBoundary2to6
    {
        type            processor;
        value           nonuniform List<scalar> 
32
(
4.12575e-07
1.70196e-08
4.54721e-07
-3.248e-07
-1.73139e-07
2.26514e-07
-6.0693e-07
-3.08004e-07
-5.60028e-07
-2.17807e-07
-2.91456e-07
-7.95065e-08
5.36655e-08
6.1797e-06
4.30389e-08
-2.60633e-08
-5.43062e-07
-3.23337e-07
-5.33187e-07
-2.62686e-07
-3.2877e-07
-1.1976e-07
6.32603e-06
3.18142e-07
1.53986e-08
-5.34068e-07
-3.92296e-07
-6.07728e-07
-4.68025e-07
-5.34528e-07
8.96322e-06
-3.60889e-07
)
;
    }
}


// ************************************************************************* //
