/*--------------------------------*- C++ -*----------------------------------*\
| =========                 |                                                 |
| \\      /  F ield         | OpenFOAM: The Open Source CFD Toolbox           |
|  \\    /   O peration     | Version:  4.x                                   |
|   \\  /    A nd           | Web:      www.OpenFOAM.org                      |
|    \\/     M anipulation  |                                                 |
\*---------------------------------------------------------------------------*/
FoamFile
{
    version     2.0;
    format      ascii;
    class       volScalarField;
    location    "11";
    object      rho;
}
// * * * * * * * * * * * * * * * * * * * * * * * * * * * * * * * * * * * * * //

dimensions      [1 -3 0 0 0 0 0];

internalField   nonuniform List<scalar> 
114
(
6699.62
6699.12
6698.31
6697.13
6695.61
6694.17
6700
6699.97
6699.87
6699.64
6699.17
6698.4
6697.26
6695.79
6694.24
6700
6699.97
6699.87
6699.66
6699.25
6698.6
6697.62
6696.35
6694.85
6699.99
6699.97
6699.89
6699.73
6699.44
6699
6698.34
6697.48
6696.39
6697.67
6696.35
6695.3
6694.83
6700
6699.98
6699.89
6699.62
6699.03
6698.02
6696.76
6695.6
6694.87
6700
6699.98
6699.9
6699.66
6699.15
6698.27
6697.06
6695.8
6694.82
6700
6699.98
6699.92
6699.78
6699.48
6699
6698.27
6697.34
6696.26
6696.8
6696.71
6700
6699.98
6699.92
6699.71
6699.25
6698.53
6697.7
6697.11
6696.85
6700
6699.99
6699.93
6699.74
6699.33
6698.64
6697.78
6697.04
6696.56
6700
6699.99
6699.95
6699.84
6699.6
6699.22
6698.63
6697.91
6697.05
6700
6699.99
6699.94
6699.81
6699.53
6699.13
6698.67
6698.39
6700
6699.99
6699.95
6699.83
6699.57
6699.17
6698.67
6700
6699.99
6699.97
6699.9
6699.76
6699.54
)
;

boundaryField
{
    inlet
    {
        type            calculated;
        value           uniform 6700;
    }
    outlet
    {
        type            calculated;
        value           nonuniform 0();
    }
    wall
    {
        type            calculated;
        value           nonuniform List<scalar> 
66
(
6700
6700
6699.99
6699.97
6699.97
6699.97
6699.87
6699.87
6699.89
6699.62
6699.64
6699.66
6699.73
6699.12
6699.17
6699.25
6699.44
6698.31
6698.4
6698.6
6699
6697.13
6697.26
6697.62
6698.34
6695.61
6695.79
6696.35
6697.48
6694.17
6694.24
6694.85
6696.39
6699.99
6700
6700
6700
6699.97
6699.98
6699.99
6699.99
6699.89
6699.92
6699.95
6699.97
6699.73
6699.78
6699.84
6699.9
6699.44
6699.48
6699.6
6699.76
6699
6699
6699.22
6699.54
6698.34
6698.27
6698.63
6697.48
6697.34
6697.91
6696.39
6696.26
6697.05
)
;
    }
    procBoundary2to0
    {
        type            processor;
        value           nonuniform List<scalar> 
44
(
6699.64
6699.19
6698.45
6697.36
6695.94
6694.43
6700
6699.97
6699.87
6699.87
6699.53
6698.83
6697.97
6696.76
6695.71
6695.14
6700
6699.97
6699.87
6699.53
6698.83
6698.83
6698.17
6697.28
6697
6696.95
6700
6699.98
6699.9
6699.61
6699.03
6698.17
6697.28
6697.28
6697.97
6697.87
6700
6699.99
6699.93
6699.75
6699.39
6698.88
6698.32
6697.97
)
;
    }
    procBoundary2to3
    {
        type            processor;
        value           nonuniform List<scalar> 
12
(
6693.36
6693.09
6693.44
6695.16
6695.27
6694.98
6694.5
6695.2
6697.31
6697.28
6696.83
6696.23
)
;
    }
    procBoundary2to6
    {
        type            processor;
        value           nonuniform List<scalar> 
32
(
6698.3
6698.27
6698.04
6699.2
6698.79
6698.25
6700
6699.99
6699.94
6699.8
6699.53
6699.15
6698.84
6698.3
6698.27
6698.77
6700
6699.99
6699.96
6699.85
6699.63
6699.32
6698.27
6699.2
6698.98
6700
6699.99
6699.97
6699.92
6699.8
6699.2
6699.63
)
;
    }
}


// ************************************************************************* //
