/*--------------------------------*- C++ -*----------------------------------*\
| =========                 |                                                 |
| \\      /  F ield         | OpenFOAM: The Open Source CFD Toolbox           |
|  \\    /   O peration     | Version:  4.x                                   |
|   \\  /    A nd           | Web:      www.OpenFOAM.org                      |
|    \\/     M anipulation  |                                                 |
\*---------------------------------------------------------------------------*/
FoamFile
{
    version     2.0;
    format      ascii;
    class       volVectorField;
    location    "11";
    object      Us;
}
// * * * * * * * * * * * * * * * * * * * * * * * * * * * * * * * * * * * * * //

dimensions      [0 1 -1 0 0 0 0];

internalField   nonuniform List<vector> 
114
(
(-4.704e-10 -1.7336e-09 -2.25124e-09)
(-4.59388e-09 -2.20196e-09 -2.10928e-08)
(7.31823e-09 -1.3849e-09 -4.32954e-08)
(1.91469e-08 -2.60168e-09 -4.84677e-08)
(3.18526e-08 -8.56079e-09 -2.06745e-08)
(5.66226e-08 -1.39696e-08 2.09382e-08)
(1.40664e-08 1.18203e-09 9.1229e-09)
(4.3499e-09 1.54601e-09 1.58718e-08)
(-2.12163e-09 5.49939e-10 1.16945e-08)
(-4.21508e-09 -7.67936e-10 -8.9404e-10)
(-6.86047e-09 -3.05905e-09 -1.9737e-08)
(1.8619e-09 4.50424e-10 -3.61111e-08)
(1.66488e-08 2.36556e-09 -3.90324e-08)
(3.3551e-08 1.94957e-09 -1.83425e-08)
(3.94309e-08 -6.73291e-09 1.23132e-08)
(2.63471e-09 4.63912e-10 9.56308e-09)
(4.06272e-09 -1.85475e-09 1.46308e-08)
(-4.89318e-09 -7.0176e-10 1.50936e-08)
(-6.46183e-09 -6.38223e-09 3.20122e-09)
(-9.71025e-09 -3.64148e-09 -1.14241e-08)
(-3.44225e-09 1.30336e-09 -2.50309e-08)
(6.94585e-09 3.85012e-09 -2.98938e-08)
(3.07622e-08 -6.87427e-09 -1.5866e-08)
(2.993e-08 -4.00458e-09 8.02801e-09)
(6.0863e-09 -1.91687e-09 7.75359e-09)
(3.30877e-09 -1.72052e-09 1.14514e-08)
(-2.24839e-09 1.42688e-10 1.43311e-08)
(-1.28991e-08 -4.91531e-10 3.56826e-09)
(-1.01784e-08 5.06517e-09 -6.77541e-09)
(-6.41467e-09 1.60449e-09 -1.14696e-08)
(-6.34982e-10 7.17771e-09 -2.10586e-08)
(7.22787e-09 -4.6061e-09 -1.18366e-08)
(9.45823e-09 -8.58717e-09 1.09003e-08)
(1.91285e-09 -1.70128e-09 -3.93544e-08)
(4.47957e-09 -2.22051e-09 -4.68677e-08)
(1.2899e-08 -7.02673e-09 -1.80516e-08)
(1.24138e-08 -7.74724e-09 1.12426e-08)
(2.51954e-09 1.3163e-09 8.15913e-09)
(5.94291e-09 1.77181e-09 1.6042e-08)
(6.61592e-09 -1.23575e-09 1.08417e-08)
(5.20813e-09 -2.01509e-09 -2.54656e-09)
(3.1724e-09 -1.07657e-09 -1.96901e-08)
(2.88097e-09 1.72722e-09 -3.63554e-08)
(6.87486e-09 -8.22721e-10 -3.82297e-08)
(5.58732e-09 -4.26597e-09 -1.68912e-08)
(1.27361e-08 -5.93977e-09 8.1588e-09)
(2.90031e-09 2.76537e-10 1.09313e-08)
(4.141e-09 -7.89354e-11 1.37898e-08)
(2.70008e-09 -6.62528e-10 1.20995e-08)
(4.53632e-10 -1.19986e-09 8.26998e-10)
(1.67887e-09 5.81908e-10 -1.33092e-08)
(1.27017e-09 6.18468e-10 -2.43124e-08)
(2.77655e-09 6.52012e-10 -3.04385e-08)
(5.9315e-09 -1.66424e-09 -1.82255e-08)
(8.35996e-09 -3.51028e-09 5.90293e-10)
(1.22437e-09 -2.46119e-10 7.07307e-09)
(1.52921e-09 -6.51196e-10 9.88748e-09)
(1.98524e-09 -8.99942e-10 9.3065e-09)
(1.32252e-09 -2.91465e-10 2.54181e-09)
(5.75319e-10 1.34725e-09 -5.63789e-09)
(-2.06697e-09 2.23242e-09 -1.25715e-08)
(-2.55439e-10 1.91223e-09 -1.79378e-08)
(-3.55604e-10 4.20591e-10 -1.34197e-08)
(-8.12524e-09 -6.09862e-10 -4.05309e-09)
(-2.14424e-08 -4.22751e-09 -1.30929e-08)
(-2.28515e-08 -4.34941e-09 8.95191e-09)
(2.72342e-09 1.08272e-09 8.06508e-09)
(6.29453e-09 6.64725e-10 1.17825e-08)
(1.13955e-08 -4.53339e-10 7.79731e-09)
(1.08263e-08 -4.11416e-10 -2.74967e-09)
(8.72344e-09 -1.15529e-09 -1.8228e-08)
(2.58171e-09 -2.40778e-11 -2.8798e-08)
(-4.15038e-09 9.84994e-10 -2.64544e-08)
(-1.45037e-08 -3.91734e-09 -1.12612e-08)
(-2.13111e-08 -4.04465e-09 3.62602e-09)
(2.11917e-09 -1.62308e-12 6.79937e-09)
(6.99708e-09 3.96722e-10 9.49269e-09)
(9.25507e-09 -5.32069e-10 7.71212e-09)
(8.52857e-09 -6.74381e-10 -4.09794e-10)
(8.99666e-09 1.59865e-09 -1.31096e-08)
(4.1407e-09 -6.00943e-10 -1.98241e-08)
(-2.60414e-09 2.01678e-09 -2.22822e-08)
(-1.49562e-08 -2.29975e-09 -1.22839e-08)
(-2.11157e-08 -9.59281e-10 3.98084e-09)
(1.23349e-09 -1.66873e-10 6.16531e-09)
(2.34881e-09 2.60002e-10 7.65353e-09)
(3.74551e-09 2.60257e-11 5.03781e-09)
(4.85532e-09 -2.74652e-10 -7.16023e-10)
(3.5407e-09 6.70267e-10 -5.03709e-09)
(-1.48872e-11 -4.46357e-10 -1.10169e-08)
(-3.61742e-09 -9.44624e-10 -1.47858e-08)
(-8.85775e-09 -7.93197e-10 -1.09485e-08)
(-1.72877e-08 1.77307e-09 -5.16898e-09)
(3.10026e-09 1.54818e-09 5.50643e-09)
(8.50611e-09 1.12983e-09 6.34955e-09)
(1.28244e-08 -5.47876e-12 4.19322e-09)
(1.29875e-08 1.25578e-10 -2.07656e-09)
(1.12251e-08 -2.3935e-09 -1.23327e-08)
(-3.72213e-09 -9.81046e-10 -1.523e-08)
(-1.46899e-08 -3.9356e-10 -1.59171e-08)
(-3.31063e-08 -4.34356e-09 -2.95427e-09)
(2.54959e-09 7.12158e-10 4.46252e-09)
(8.57652e-09 -1.77641e-10 6.78504e-09)
(9.97506e-09 -3.88412e-10 4.9202e-09)
(1.09396e-08 -1.68325e-09 -3.70289e-10)
(9.02141e-09 -3.92771e-10 -1.03179e-08)
(2.50225e-10 -1.35393e-09 -1.57856e-08)
(-1.08143e-08 1.27032e-09 -1.52527e-08)
(1.97791e-09 -7.47289e-10 4.55615e-09)
(3.74765e-09 -3.36212e-10 5.95104e-09)
(6.54261e-09 -3.68373e-10 3.94307e-09)
(5.42734e-09 -8.73046e-10 -2.7677e-10)
(5.05762e-09 -1.40135e-11 -5.51795e-09)
(-1.87273e-09 -3.60983e-10 -7.64802e-09)
)
;

boundaryField
{
    inlet
    {
        type            zeroGradient;
    }
    outlet
    {
        type            zeroGradient;
    }
    wall
    {
        type            zeroGradient;
    }
    procBoundary2to0
    {
        type            processor;
        value           nonuniform List<vector> 
44
(
(-1.45296e-09 -6.23433e-09 -3.26763e-09)
(-5.15454e-09 -7.37716e-09 -2.15809e-08)
(-2.86564e-09 -9.04641e-09 -3.85395e-08)
(1.37222e-08 -7.76122e-09 -4.47969e-08)
(4.08911e-08 -9.46985e-09 -2.30617e-08)
(4.78255e-08 -1.18704e-08 2.26358e-08)
(6.18237e-09 1.2532e-08 7.96682e-09)
(9.5864e-09 3.64151e-09 1.5156e-08)
(2.86261e-09 5.69373e-10 1.34202e-08)
(2.86261e-09 5.69373e-10 1.34202e-08)
(9.9307e-09 -2.18801e-09 -6.89738e-09)
(7.65927e-09 -4.6585e-09 -2.2711e-08)
(8.16707e-10 -4.34768e-09 -3.63053e-08)
(4.843e-09 -9.86691e-09 -4.39308e-08)
(3.499e-09 -8.47276e-09 -2.40468e-08)
(6.78348e-09 -1.22148e-08 1.82037e-08)
(6.1398e-09 7.40598e-09 1.08036e-08)
(1.09716e-08 4.57531e-09 1.57054e-08)
(1.37649e-08 -5.53146e-10 8.34126e-09)
(9.9307e-09 -2.18801e-09 -6.89738e-09)
(7.65927e-09 -4.6585e-09 -2.2711e-08)
(7.65927e-09 -4.6585e-09 -2.2711e-08)
(3.41672e-09 -2.50921e-09 -2.85045e-08)
(-1.38803e-08 -1.60438e-09 -2.75668e-08)
(-2.40688e-08 -4.63206e-09 -1.74457e-08)
(-2.42547e-08 -3.48977e-09 -3.30058e-09)
(2.539e-09 3.57857e-09 9.96302e-09)
(1.13564e-08 4.49755e-10 1.3656e-08)
(1.73256e-08 -4.35659e-10 6.63098e-09)
(1.43159e-08 -2.70128e-09 -2.43676e-09)
(9.93027e-09 -2.07248e-09 -2.12097e-08)
(3.41672e-09 -2.50921e-09 -2.85045e-08)
(-1.38803e-08 -1.60438e-09 -2.75668e-08)
(-1.38803e-08 -1.60438e-09 -2.75668e-08)
(-3.00785e-08 -2.85967e-09 -1.08486e-08)
(-3.46837e-08 -4.87849e-09 6.839e-09)
(3.22018e-09 2.64139e-09 8.3262e-09)
(1.0289e-08 1.05755e-09 9.87924e-09)
(1.40366e-08 8.66928e-10 5.0617e-09)
(1.00571e-08 -1.12351e-10 -5.19085e-09)
(5.11556e-09 -2.29312e-09 -1.68059e-08)
(-8.14069e-09 -3.26464e-09 -2.32473e-08)
(-2.3767e-08 -3.02993e-09 -1.9818e-08)
(-3.00785e-08 -2.85967e-09 -1.08486e-08)
)
;
    }
    procBoundary2to3
    {
        type            processor;
        value           nonuniform List<vector> 
12
(
(8.34142e-08 6.53707e-10 4.94576e-08)
(6.57616e-08 -6.98522e-09 5.15651e-08)
(5.19979e-08 6.31152e-08 2.7782e-08)
(8.26979e-09 -1.37492e-09 1.04097e-08)
(3.69067e-08 -6.33724e-09 4.80889e-08)
(2.03849e-08 -6.57801e-09 4.01957e-08)
(1.86832e-08 -2.02215e-09 2.78375e-08)
(9.23852e-10 -8.66709e-10 7.28465e-09)
(-2.12457e-08 -6.24525e-09 3.24767e-08)
(-2.47238e-08 -3.6231e-09 2.84402e-08)
(-2.5987e-08 -1.44742e-09 1.81207e-08)
(-1.94072e-08 4.05729e-09 6.06021e-09)
)
;
    }
    procBoundary2to6
    {
        type            processor;
        value           nonuniform List<vector> 
32
(
(-3.59676e-08 -2.77956e-09 5.36144e-09)
(-2.61815e-08 -4.59759e-09 -6.51562e-09)
(-3.53904e-08 -1.57074e-09 2.73246e-09)
(-5.574e-09 -7.71077e-10 -8.46153e-09)
(-1.34056e-08 -2.55182e-09 -6.69701e-09)
(-1.34757e-08 -5.91736e-10 -1.97203e-09)
(3.9083e-09 1.42472e-09 4.22819e-09)
(7.01518e-09 7.46974e-10 5.2825e-09)
(1.07198e-08 -1.61871e-10 1.98751e-09)
(1.10748e-08 -8.22918e-10 -2.65252e-09)
(4.63982e-09 -7.17246e-10 -1.07924e-08)
(-1.44396e-08 -3.78219e-09 -8.45919e-09)
(-2.22724e-08 -5.8448e-09 -7.56769e-09)
(-3.59676e-08 -2.77956e-09 5.36144e-09)
(-2.61815e-08 -4.59759e-09 -6.51562e-09)
(-3.34483e-08 -5.21125e-09 -1.39266e-09)
(4.43584e-09 1.33791e-09 3.30426e-09)
(6.92806e-09 -1.04849e-11 4.94498e-09)
(1.1238e-08 -2.1452e-10 3.09043e-09)
(1.02232e-08 -2.99922e-10 -7.60322e-10)
(6.45926e-09 7.4388e-10 -7.35968e-09)
(-5.20718e-09 -1.17549e-09 -8.47888e-09)
(-2.61815e-08 -4.59759e-09 -6.51562e-09)
(-5.574e-09 -7.71077e-10 -8.46153e-09)
(-1.99987e-08 -1.82822e-09 -8.20359e-09)
(1.3304e-09 -2.66335e-11 2.54416e-09)
(5.7556e-09 -5.66428e-10 3.61034e-09)
(4.46499e-09 2.32653e-10 1.43089e-09)
(4.92248e-09 -8.82167e-10 -7.12169e-10)
(3.30253e-09 -6.8247e-11 -2.48111e-09)
(-5.574e-09 -7.71077e-10 -8.46153e-09)
(-3.05563e-09 5.00088e-10 -5.36952e-09)
)
;
    }
}


// ************************************************************************* //
