/*--------------------------------*- C++ -*----------------------------------*\
  =========                 |
  \\      /  F ield         | OpenFOAM: The Open Source CFD Toolbox
   \\    /   O peration     | Website:  https://openfoam.org
    \\  /    A nd           | Version:  4.x
     \\/     M anipulation  |
\*---------------------------------------------------------------------------*/
FoamFile
{
    version     2.0;
    format      ascii;
    class       vectorField;
    location    0;
    object      v;
}
// * * * * * * * * * * * * * * * * * * * * * * * * * * * * * * * * * * * * * //

303
(
( -6.00392e-09 -8.84327e-10 1.28734e-09 )  
( -1.73462e-08 -6.30523e-09 8.67186e-09 )  
( -1.3204e-08 -8.47736e-09 9.55498e-09 )  
( -1.13195e-08 -5.04881e-09 5.37433e-09 )  
( -1.39362e-08 -3.59729e-09 6.40602e-09 )  
( -1.44511e-08 -1.40658e-08 1.1817e-08 )  
( -4.92156e-09 -3.2266e-09 2.13734e-09 )  
( -2.03718e-08 -6.56758e-09 1.01172e-08 )  
( -7.886e-09 -1.21402e-08 9.85605e-09 )  
( 1.37813e-09 -5.66878e-09 -1.1561e-08 )  
( 4.2734e-09 -1.4835e-08 -2.30415e-08 )  
( 2.13754e-08 4.06425e-09 -3.88277e-08 )  
( -1.7595e-08 -8.82586e-09 1.31897e-08 )  
( 5.52654e-09 1.83497e-09 -1.56464e-08 )  
( 8.92804e-09 -4.66501e-09 -6.17244e-08 )  
( -3.26141e-09 -2.95657e-09 -8.56327e-09 )  
( 1.86528e-07 1.23094e-07 -8.33828e-08 )  
( -1.74622e-08 -7.36971e-09 3.99618e-09 )  
( -1.01015e-08 -3.62023e-09 5.78724e-09 )  
( 1.13752e-08 4.26739e-09 -5.05086e-08 )  
( -1.15855e-08 -4.63283e-09 1.16496e-08 )  
( -1.08191e-08 -6.79494e-09 -3.45045e-09 )  
( -1.65037e-08 -7.87556e-09 1.46163e-08 )  
( -8.29826e-09 -5.37216e-09 -2.20731e-09 )  
( -1.30146e-08 -1.48253e-08 1.73195e-08 )  
( -5.79084e-09 -4.72977e-09 1.41698e-08 )  
( -8.87691e-09 -5.47251e-09 -5.41887e-08 )  
( 3.95317e-08 2.61727e-08 -3.57366e-08 )  
( -7.91495e-09 -3.96969e-09 1.44597e-08 )  
( 1.32889e-09 -4.61971e-09 -1.68308e-08 )  
( 5.79852e-08 3.59179e-08 -5.93755e-08 )  
( 5.90321e-10 -1.08173e-08 1.17129e-08 )  
( 3.30481e-09 1.85663e-09 -2.49274e-08 )  
( -2.69973e-08 -3.21387e-09 -1.09383e-08 )  
( -1.65967e-08 -3.81242e-09 8.37065e-09 )  
( -1.51998e-08 -1.20817e-09 5.86107e-09 )  
( -1.6712e-08 -7.9223e-09 7.8873e-09 )  
( -1.25346e-08 1.11351e-08 -4.35384e-08 )  
( -1.74611e-08 -5.39731e-09 8.33451e-09 )  
( -2.22972e-08 -2.89024e-09 6.28454e-09 )  
( 6.74654e-08 3.81819e-08 -8.84005e-08 )  
( -2.62679e-08 -3.3427e-09 -5.46779e-09 )  
( 7.89343e-09 -1.00569e-08 -8.70396e-08 )  
( -3.05479e-08 -9.5074e-09 7.40423e-09 )  
( -2.36134e-08 -7.06982e-09 1.37257e-08 )  
( -1.36703e-08 -4.14015e-09 -1.26996e-08 )  
( 1.10542e-09 4.50714e-09 -3.95867e-08 )  
( 1.35837e-09 6.03194e-09 -3.05323e-08 )  
( 4.14171e-08 1.552e-08 -5.23907e-08 )  
( -2.88528e-08 -6.06739e-09 4.51914e-09 )  
( -2.09814e-08 -3.39702e-09 6.2234e-09 )  
( -1.72243e-08 -3.8676e-09 8.85611e-09 )  
( -2.1137e-08 -3.35923e-09 -4.81684e-09 )  
( -2.6754e-08 -2.13768e-09 8.01041e-10 )  
( -1.17299e-08 -5.59864e-09 5.02888e-09 )  
( -1.06943e-08 -2.03312e-09 1.42479e-09 )  
( 3.19042e-09 3.10721e-09 -2.91563e-08 )  
( -8.11596e-09 -2.52589e-09 2.20397e-09 )  
( -1.79925e-08 9.27648e-10 -2.8176e-08 )  
( -1.32233e-08 -5.61113e-09 3.72255e-09 )  
( -9.26233e-09 3.16931e-09 -8.24902e-09 )  
( 7.22361e-09 4.89121e-09 -1.55008e-08 )  
( 3.1654e-09 5.68125e-09 -2.89009e-08 )  
( -7.0242e-06 -2.42678e-08 -2.14541e-07 )  
( -1.14215e-08 -1.2568e-08 1.28444e-08 )  
( -9.82843e-09 5.14152e-12 -1.09325e-08 )  
( -1.80775e-08 -1.33207e-08 1.20061e-08 )  
( -8.48654e-09 -2.02845e-09 8.2639e-10 )  
( -2.21316e-08 3.52376e-09 -1.68723e-08 )  
( -2.45197e-08 -9.66019e-09 1.03417e-08 )  
( -2.78806e-08 -9.19862e-09 8.72216e-09 )  
( -8.61301e-09 -7.47903e-09 -8.94714e-08 )  
( -1.77117e-08 -5.4873e-09 9.18807e-09 )  
( -2.20373e-08 4.04171e-09 -1.9292e-08 )  
( -2.09252e-08 2.23764e-09 -7.40229e-08 )  
( 1.03694e-08 1.65843e-08 -1.83101e-08 )  
( -1.52954e-08 -3.5538e-09 -3.90797e-09 )  
( -2.82901e-08 -8.5184e-09 7.47625e-09 )  
( 1.06037e-08 -3.97021e-08 -1.41026e-07 )  
( -2.47297e-08 -7.71727e-09 -5.7153e-09 )  
( -1.73597e-08 -4.76105e-09 3.31225e-09 )  
( -1.91928e-08 -1.40938e-08 1.39663e-08 )  
( -3.43197e-08 1.13265e-08 -1.97389e-08 )  
( 6.62098e-09 -2.39668e-08 -1.12852e-07 )  
( -4.12929e-08 7.86519e-10 -5.93938e-08 )  
( -4.23943e-08 1.55279e-09 -3.15203e-08 )  
( -9.64034e-09 -2.91388e-09 1.55798e-09 )  
( -6.56631e-09 1.00755e-08 -2.64694e-08 )  
( -5.46964e-08 -4.10168e-09 -6.74061e-08 )  
( 9.33464e-09 1.27776e-08 -5.86627e-08 )  
( -2.4444e-08 -5.03669e-09 6.16789e-09 )  
( -3.15557e-08 -2.36694e-09 -8.20876e-09 )  
( -2.50129e-09 1.85156e-09 -6.49408e-08 )  
( -3.33711e-09 -1.6221e-09 -8.75087e-09 )  
( -2.92794e-08 -5.23909e-11 -5.64626e-10 )  
( -1.48175e-08 -4.41393e-09 1.02721e-08 )  
( -4.8886e-09 2.88754e-09 -2.90872e-08 )  
( -9.23799e-09 -7.19288e-09 -3.96639e-09 )  
( -1.39663e-08 -1.22052e-09 -1.48056e-08 )  
( -2.43348e-08 -8.1101e-09 3.75233e-09 )  
( -2.21802e-08 -2.84863e-09 2.63924e-09 )  
( -1.41178e-08 -5.69471e-09 6.2942e-09 )  
( -2.45986e-07 -2.40108e-08 -2.35533e-07 )  
( -2.50632e-08 4.47745e-09 -3.17187e-09 )  
( -1.06918e-07 -5.74222e-09 -7.77655e-08 )  
( -2.34596e-08 4.38108e-09 -2.8283e-08 )  
( -1.48023e-08 -5.91837e-09 5.29665e-09 )  
( -3.97762e-09 8.63682e-09 -2.46415e-08 )  
( -2.1331e-08 -3.39924e-07 -4.3519e-08 )  
( -2.22726e-08 -6.72405e-09 1.09705e-08 )  
( -1.82244e-08 -6.61765e-09 1.01668e-08 )  
( -2.28955e-08 -1.06503e-08 1.51711e-08 )  
( -9.94413e-09 -5.09274e-09 1.61308e-09 )  
( 2.07255e-08 3.40412e-08 -9.75575e-08 )  
( -9.06884e-09 5.36572e-09 -1.90399e-08 )  
( -1.93324e-08 -3.26717e-09 7.55508e-09 )  
( -2.30311e-09 8.07087e-09 -5.059e-08 )  
( -7.38507e-09 -7.16903e-09 -9.11639e-09 )  
( 3.27734e-08 4.31279e-08 -8.98572e-08 )  
( 1.36336e-07 1.85001e-07 -1.03639e-07 )  
( -1.6685e-08 -8.04873e-09 1.42231e-08 )  
( -1.84599e-08 -9.22139e-09 1.17857e-08 )  
( -2.05112e-08 -6.43246e-09 -4.95576e-09 )  
( -3.79049e-09 7.1246e-09 -5.64235e-08 )  
( -1.16321e-08 3.79955e-10 1.0798e-08 )  
( -1.31786e-08 1.36099e-09 -3.23922e-09 )  
( 2.86211e-09 -2.63745e-09 -1.1793e-08 )  
( -3.89905e-09 6.27346e-09 -3.96095e-08 )  
( -1.34645e-09 -6.48677e-09 -4.54141e-08 )  
( -2.10903e-08 3.91216e-09 -1.09515e-08 )  
( 1.80054e-08 -2.39359e-09 -1.40448e-07 )  
( -2.12757e-08 9.06986e-09 -2.53265e-08 )  
( -5.69336e-09 -2.48138e-09 -1.01142e-08 )  
( -1.31971e-08 -3.74987e-10 -1.139e-09 )  
( -1.27149e-09 1.28976e-09 -1.17919e-08 )  
( -1.26966e-08 -1.17046e-08 1.41907e-08 )  
( -5.37731e-08 -4.11661e-08 -3.76923e-08 )  
( -1.95953e-09 -4.34731e-09 -9.70044e-09 )  
( -1.05397e-08 -8.01038e-09 -3.10652e-09 )  
( -8.4611e-09 -3.07932e-09 2.46032e-09 )  
( 3.1144e-08 -1.99459e-08 -1.0271e-07 )  
( -1.0193e-08 4.80086e-09 -3.90055e-08 )  
( -1.82227e-08 -7.75142e-09 2.69805e-09 )  
( -1.38599e-08 -2.40265e-09 -2.91856e-09 )  
( -9.52522e-09 -6.26276e-09 -5.11779e-08 )  
( 2.11209e-08 1.84144e-08 -2.03845e-08 )  
( -1.24866e-08 5.37867e-09 -2.35644e-08 )  
( -1.20971e-08 -4.34184e-09 1.10919e-08 )  
( -4.59662e-09 2.4936e-09 -8.13077e-09 )  
( -5.53232e-09 -1.15328e-09 -1.39834e-10 )  
( -1.13625e-08 -4.48031e-09 1.38172e-08 )  
( -7.81799e-09 -8.57148e-10 4.26172e-09 )  
( -2.28715e-08 -6.09985e-09 9.9617e-09 )  
( -2.34322e-08 -2.04679e-09 5.68498e-09 )  
( -1.28453e-08 -3.73535e-09 1.05382e-09 )  
( -1.08105e-08 2.85647e-09 -1.73797e-08 )  
( -4.73533e-09 -1.09001e-09 -5.95995e-09 )  
( -1.45265e-08 2.11683e-09 -3.23619e-08 )  
( 1.13148e-08 6.03952e-09 -5.2749e-08 )  
( -1.26374e-08 -4.73319e-09 8.8811e-09 )  
( -1.70307e-08 8.009e-10 -8.60503e-09 )  
( 1.22345e-10 2.44155e-09 -2.52686e-08 )  
( -4.36838e-08 8.36828e-09 -2.02969e-08 )  
( -1.90261e-08 -7.59646e-09 1.26485e-08 )  
( -8.32764e-09 -8.97988e-10 -2.7545e-08 )  
( 2.64123e-09 -6.90639e-09 -1.36691e-08 )  
( -1.6424e-08 -5.4679e-09 7.65847e-09 )  
( -1.63848e-08 -1.82508e-09 5.76173e-09 )  
( -4.07653e-09 -1.36416e-09 -9.29998e-09 )  
( -1.22818e-08 3.57657e-09 1.05156e-08 )  
( 5.91018e-09 9.33449e-09 -3.93157e-08 )  
( 1.88483e-08 -2.44145e-09 -6.85608e-08 )  
( -1.96639e-08 -6.98555e-09 9.05937e-09 )  
( -8.32401e-09 5.80623e-09 -2.92963e-08 )  
( -8.62337e-09 -9.88247e-10 9.50366e-10 )  
( -9.53229e-09 -2.00508e-09 4.05931e-09 )  
( -4.3507e-09 -8.81229e-10 -7.0775e-09 )  
( 3.56874e-09 -1.21864e-08 -5.7302e-08 )  
( -2.51546e-08 1.3986e-09 -8.84378e-09 )  
( 3.58056e-08 4.20439e-08 -7.92121e-08 )  
( -3.46245e-07 3.05446e-07 -1.93581e-07 )  
( -6.98085e-09 -3.75267e-09 2.67833e-09 )  
( -6.97792e-09 -2.0635e-11 -5.76984e-09 )  
( -2.0722e-08 -9.59051e-09 -8.20048e-08 )  
( 2.61239e-08 1.00456e-08 -4.48681e-09 )  
( -1.07141e-08 -4.32474e-09 -8.44079e-09 )  
( -8.87689e-09 -2.37038e-09 1.88845e-09 )  
( 2.12183e-08 5.24767e-09 -7.93098e-09 )  
( -1.70165e-08 -8.09284e-10 7.89805e-09 )  
( -1.90558e-08 -4.83723e-09 1.02886e-08 )  
( 1.63015e-09 -1.37352e-10 -5.86739e-08 )  
( -2.82074e-08 -9.18346e-09 9.34861e-09 )  
( -5.47179e-10 2.44794e-09 -1.2365e-08 )  
( -7.42019e-09 -1.41344e-09 -9.99925e-09 )  
( -6.69568e-09 -2.75787e-09 -8.89762e-09 )  
( -1.54462e-08 -1.01767e-08 9.26652e-09 )  
( -2.29656e-09 2.96259e-09 -1.36492e-08 )  
( -5.47631e-09 -1.90457e-09 -1.21745e-08 )  
( -1.00605e-08 1.61295e-08 -4.14238e-08 )  
( -9.94042e-09 -3.45331e-09 9.04274e-09 )  
( -1.08821e-08 -5.00696e-09 -8.66244e-10 )  
( -4.16678e-09 -6.27764e-11 -1.73852e-08 )  
( -3.24821e-09 1.06936e-09 -3.33822e-08 )  
( -1.0289e-08 5.23388e-09 -4.11426e-08 )  
( -7.97894e-09 -4.66023e-09 7.32999e-10 )  
( -9.61324e-09 -2.59517e-09 -8.35519e-09 )  
( -6.48572e-09 1.00911e-08 -2.09551e-08 )  
( -9.69275e-09 1.08111e-08 -2.5827e-08 )  
( -6.64857e-09 -1.2366e-09 -3.59487e-09 )  
( -5.52059e-09 2.42754e-09 -1.53137e-08 )  
( 2.23353e-09 2.91603e-09 -3.70697e-08 )  
( 1.35854e-09 -2.70642e-09 -1.78101e-08 )  
( -2.48459e-09 6.67869e-09 -3.39322e-08 )  
( -1.49876e-08 -8.71751e-09 1.07159e-08 )  
( -3.39581e-09 2.40182e-09 -2.26225e-08 )  
( -5.63542e-09 4.27998e-10 3.03789e-09 )  
( -6.52698e-09 -1.06392e-08 9.03213e-09 )  
( -1.04363e-08 1.84611e-10 -1.52726e-08 )  
( -9.91181e-09 -5.95044e-09 5.7645e-09 )  
( -1.93353e-08 -5.24537e-09 1.32491e-08 )  
( -8.36777e-09 -1.42019e-09 -5.25991e-09 )  
( -6.94433e-09 -1.43366e-09 -8.00549e-09 )  
( -7.09894e-10 -3.63325e-09 -1.84265e-09 )  
( -1.72083e-08 -6.06615e-09 9.37478e-09 )  
( -1.1495e-08 -1.33299e-08 1.41634e-08 )  
( 2.8349e-08 1.93634e-08 -7.62083e-08 )  
( -5.94864e-09 -6.50458e-09 1.15294e-08 )  
( -3.31594e-08 -3.59652e-09 -5.34729e-09 )  
( -3.41801e-10 -2.15226e-09 -7.07843e-09 )  
( -9.87655e-09 -1.00892e-08 1.13177e-08 )  
( -1.2226e-06 -7.42846e-09 -7.92187e-08 )  
( -4.80483e-10 1.26974e-09 -2.22953e-08 )  
( -2.469e-08 -1.10961e-08 1.22179e-08 )  
( -1.03833e-08 -2.16436e-09 9.56473e-09 )  
( -2.92908e-09 -8.03464e-10 -7.92942e-09 )  
( 4.09097e-09 1.06775e-10 -3.09255e-08 )  
( -1.30787e-08 -1.20584e-09 6.82152e-09 )  
( -1.69293e-09 -1.8307e-09 -1.88901e-08 )  
( -3.158e-08 9.29184e-09 -2.48245e-08 )  
( -7.23432e-09 -1.01167e-08 1.02092e-08 )  
( 1.18467e-08 6.15955e-09 -4.1147e-08 )  
( -8.46714e-09 -6.97262e-09 1.49074e-08 )  
( 7.61347e-09 1.15692e-09 -1.6294e-08 )  
( -8.9749e-09 -8.76084e-09 2.33961e-09 )  
( -1.1833e-08 -1.25752e-08 1.23009e-08 )  
( -1.8358e-08 -5.25645e-09 8.24575e-09 )  
( -9.81776e-10 -2.58577e-09 -2.2688e-08 )  
( -9.97069e-09 -5.86384e-09 -1.22452e-08 )  
( -2.22247e-08 -5.78627e-09 8.64354e-09 )  
( -2.49089e-08 1.94127e-09 -1.46058e-08 )  
( -1.64833e-08 -5.44266e-09 8.27785e-09 )  
( -1.12841e-08 -1.09986e-08 1.55428e-08 )  
( -1.77139e-08 -3.39654e-09 4.3659e-09 )  
( -6.48761e-09 -3.3164e-09 1.53341e-08 )  
( -1.1459e-08 1.02164e-09 -2.48701e-08 )  
( -7.25524e-09 -4.45679e-09 -1.61962e-09 )  
( 9.18352e-09 2.03342e-09 -1.79381e-08 )  
( -1.88881e-08 -6.3285e-09 1.13264e-08 )  
( -9.90575e-09 -2.44577e-09 5.91965e-09 )  
( -1.04264e-08 -2.45609e-09 -2.68397e-09 )  
( -6.80617e-09 -4.22403e-09 -5.4017e-09 )  
( -1.14166e-08 6.22422e-09 -4.50407e-08 )  
( -1.10466e-08 -2.65522e-09 6.02455e-09 )  
( -1.26181e-08 4.3014e-09 -4.19783e-08 )  
( -7.26052e-09 -1.00295e-08 9.73616e-09 )  
( 1.67275e-09 6.76624e-10 -2.21872e-08 )  
( -1.1501e-08 -5.30897e-09 2.53913e-09 )  
( -2.62625e-09 9.80004e-09 -2.50632e-08 )  
( -4.21649e-09 -4.99269e-09 1.24478e-08 )  
( -7.17861e-09 -1.936e-10 -1.68061e-08 )  
( -7.03724e-09 -6.33939e-09 1.16136e-08 )  
( 1.925e-08 3.66565e-09 -4.09634e-08 )  
( -1.0746e-08 -2.00194e-09 -1.2716e-08 )  
( -1.94976e-09 1.26557e-08 -4.18849e-08 )  
( -8.90128e-09 -7.97051e-09 -6.7646e-10 )  
( -1.43387e-08 -1.48606e-08 1.63799e-08 )  
( 6.2907e-08 5.07803e-08 -1.05505e-07 )  
( -3.86633e-08 -3.6427e-09 -1.05696e-08 )  
( -4.93095e-08 1.41159e-09 -1.03005e-08 )  
( -2.52034e-08 -5.1733e-09 9.70982e-09 )  
( -4.31982e-08 -4.16972e-09 3.06437e-09 )  
( -1.78472e-08 1.34728e-08 -5.51071e-08 )  
( -1.30186e-08 -1.14663e-08 5.57434e-09 )  
( -2.67129e-08 -1.53606e-08 1.36593e-08 )  
( -6.81144e-09 -5.08024e-08 6.41632e-09 )  
( -2.03967e-08 -7.05307e-09 9.19821e-09 )  
( -2.14624e-08 -1.7383e-09 -1.08298e-09 )  
( -1.30905e-08 -9.01128e-09 6.19979e-09 )  
( -2.66331e-08 -6.19146e-09 9.32516e-09 )  
( -2.62729e-08 -1.61321e-08 1.08761e-08 )  
( -1.52073e-08 -4.37735e-09 3.45746e-09 )  
( -1.36721e-08 -2.27838e-09 1.67503e-10 )  
( -1.22666e-08 5.28802e-09 -1.41855e-08 )  
( -6.189e-09 -2.62163e-09 3.37602e-09 )  
( -3.77644e-08 5.80028e-09 -2.85931e-08 )  
( -2.31528e-08 -1.17449e-08 1.39439e-08 )  
( -1.14735e-08 8.74532e-09 -6.2995e-08 )  
( -7.34829e-09 6.68645e-08 -2.85351e-10 )  
( -2.9599e-08 -7.75065e-09 1.16275e-08 )  
( -2.96196e-08 -1.56131e-08 1.08205e-08 )  
( -7.36564e-09 -1.10397e-07 1.1148e-08 )  
( -1.21003e-08 -1.97848e-08 1.67499e-08 )  
( -2.56487e-08 -4.69494e-09 8.21978e-09 )  
)
