/*--------------------------------*- C++ -*----------------------------------*\
| =========                 |                                                 |
| \\      /  F ield         | OpenFOAM: The Open Source CFD Toolbox           |
|  \\    /   O peration     | Version:  4.x                                   |
|   \\  /    A nd           | Web:      www.OpenFOAM.org                      |
|    \\/     M anipulation  |                                                 |
\*---------------------------------------------------------------------------*/
FoamFile
{
    version     2.0;
    format      ascii;
    class       volVectorField;
    location    "19";
    object      ddtUrel;
}
// * * * * * * * * * * * * * * * * * * * * * * * * * * * * * * * * * * * * * //

dimensions      [0 1 -2 0 0 0 0];

internalField   nonuniform List<vector> 
114
(
(3.27737e-07 -6.47401e-08 -1.3686e-07)
(1.41693e-07 -6.61656e-08 -1.20851e-07)
(-2.31805e-08 -6.0811e-08 -9.50958e-08)
(-2.38408e-07 -4.5348e-08 -5.97439e-08)
(-3.62383e-07 -4.64223e-08 -4.42956e-08)
(-3.49515e-07 -5.07707e-08 -4.07085e-08)
(5.12402e-07 -8.46575e-08 -1.83291e-07)
(3.57111e-07 -7.75826e-08 -1.65845e-07)
(1.87326e-07 -8.1871e-08 -1.32157e-07)
(2.69185e-08 -7.13603e-08 -9.8974e-08)
(-2.58734e-07 -5.14935e-08 -6.6226e-08)
(-4.19557e-07 -5.40198e-08 -4.28963e-08)
(-3.80628e-07 -5.73019e-08 -3.5723e-08)
(6.62478e-07 -1.30423e-07 -2.64009e-07)
(5.85256e-07 -1.26383e-07 -2.63605e-07)
(3.96169e-07 -1.05676e-07 -2.14842e-07)
(2.05227e-07 -9.77248e-08 -1.45096e-07)
(6.14239e-08 -7.2845e-08 -1.02106e-07)
(-2.86437e-07 -5.76482e-08 -6.45818e-08)
(-4.96291e-07 -6.39358e-08 -3.51011e-08)
(-4.26446e-07 -6.2857e-08 -1.87613e-08)
(4.82733e-07 -4.79542e-08 -1.41619e-07)
(4.64773e-07 -5.77727e-08 -1.3574e-07)
(4.00163e-07 -6.39214e-08 -1.21766e-07)
(2.73842e-07 -6.20695e-08 -1.10282e-07)
(1.28526e-07 -6.02254e-08 -8.31272e-08)
(-2.97659e-08 -5.78915e-08 -6.49384e-08)
(-2.43318e-07 -5.18809e-08 -4.22099e-08)
(-3.4795e-07 -5.12265e-08 -2.473e-08)
(-3.21301e-07 -5.25355e-08 -1.65797e-08)
(5.1056e-07 -7.31166e-08 -1.78733e-07)
(4.96463e-07 -8.64231e-08 -1.66691e-07)
(4.35602e-07 -8.59866e-08 -1.54821e-07)
(3.08816e-07 -7.39291e-08 -1.32072e-07)
(1.46517e-07 -6.84117e-08 -9.7389e-08)
(-2.08035e-09 -6.4841e-08 -6.77753e-08)
(-2.78195e-07 -6.098e-08 -4.30229e-08)
(-4.25538e-07 -6.09251e-08 -1.92269e-08)
(-3.67482e-07 -6.34366e-08 -8.62639e-09)
(6.10931e-07 -1.20915e-07 -2.46623e-07)
(5.98448e-07 -1.37192e-07 -2.40986e-07)
(5.24356e-07 -1.3067e-07 -2.19648e-07)
(3.73161e-07 -1.07334e-07 -1.7651e-07)
(1.73125e-07 -8.87695e-08 -1.18342e-07)
(4.34574e-09 -7.51897e-08 -6.97871e-08)
(-3.27411e-07 -7.76803e-08 -4.23561e-08)
(-5.03726e-07 -8.01192e-08 -6.78857e-09)
(-4.50373e-07 -8.32628e-08 1.21813e-08)
(8.11726e-07 -1.83719e-07 -3.93937e-07)
(8.17595e-07 -2.14024e-07 -3.9051e-07)
(4.075e-07 -4.7486e-08 -1.24328e-07)
(3.83585e-07 -6.14402e-08 -1.18155e-07)
(3.26835e-07 -7.03359e-08 -1.09796e-07)
(2.39173e-07 -6.06545e-08 -9.46057e-08)
(1.15791e-07 -5.61457e-08 -6.85107e-08)
(-3.43063e-08 -5.7143e-08 -5.31015e-08)
(-2.33943e-07 -5.72927e-08 -3.08171e-08)
(-3.49159e-07 -5.72587e-08 -1.04845e-08)
(-3.13663e-07 -5.57787e-08 -4.48765e-09)
(4.56823e-07 -6.94736e-08 -1.51058e-07)
(4.34294e-07 -8.20578e-08 -1.42891e-07)
(3.85345e-07 -8.21177e-08 -1.34076e-07)
(2.92247e-07 -6.65082e-08 -1.13393e-07)
(1.36814e-07 -6.37169e-08 -8.12657e-08)
(-1.92838e-08 -6.52094e-08 -5.25847e-08)
(-2.7664e-07 -6.87761e-08 -2.63528e-08)
(-4.0451e-07 -7.35804e-08 -1.3576e-09)
(-3.51424e-07 -7.28896e-08 9.82317e-09)
(5.61996e-07 -1.08392e-07 -2.13824e-07)
(5.26309e-07 -1.28913e-07 -2.07261e-07)
(4.56967e-07 -1.22754e-07 -1.86018e-07)
(3.26685e-07 -1.00916e-07 -1.49897e-07)
(1.54784e-07 -8.37727e-08 -9.74868e-08)
(-2.40219e-08 -7.95865e-08 -5.17619e-08)
(-3.22436e-07 -8.84107e-08 -1.58955e-08)
(-4.8476e-07 -1.01951e-07 2.25814e-08)
(-4.56556e-07 -1.11319e-07 4.28904e-08)
(7.0764e-07 -1.53426e-07 -3.51244e-07)
(7.05429e-07 -2.05541e-07 -3.36551e-07)
(6.19673e-07 -2.02048e-07 -2.84888e-07)
(4.19613e-07 -1.41788e-07 -2.15064e-07)
(3.5662e-07 -4.56471e-08 -1.07964e-07)
(3.24864e-07 -6.96705e-08 -1.05787e-07)
(2.74433e-07 -1.07529e-07 -1.02408e-07)
(2.15878e-07 -6.3646e-08 -8.32803e-08)
(1.04891e-07 -5.67086e-08 -6.26424e-08)
(-2.52717e-08 -5.94802e-08 -5.13302e-08)
(-2.13511e-07 -5.7605e-08 -2.36396e-08)
(-3.38608e-07 -5.86994e-08 -5.6511e-09)
(-3.10224e-07 -5.41461e-08 1.00514e-09)
(4.11495e-07 -6.53887e-08 -1.2945e-07)
(3.96447e-07 -8.72125e-08 -1.24719e-07)
(3.69614e-07 -9.79913e-08 -1.21158e-07)
(2.99853e-07 -6.49814e-08 -9.90496e-08)
(1.34402e-07 -6.31535e-08 -7.33322e-08)
(-2.16386e-08 -6.77949e-08 -5.10332e-08)
(-2.69105e-07 -7.08877e-08 -1.67786e-08)
(-3.7198e-07 -7.61982e-08 7.37634e-09)
(-3.49936e-07 -7.63387e-08 2.01149e-08)
(4.95993e-07 -9.24389e-08 -1.882e-07)
(4.69299e-07 -1.23579e-07 -1.85849e-07)
(4.28241e-07 -1.22148e-07 -1.66052e-07)
(3.03723e-07 -9.47095e-08 -1.30129e-07)
(1.41879e-07 -7.85214e-08 -8.70236e-08)
(-6.6235e-08 -8.15648e-08 -4.12031e-08)
(-3.42188e-07 -9.55545e-08 4.34974e-09)
(-4.77857e-07 -1.12705e-07 4.30415e-08)
(-4.61664e-07 -1.25607e-07 6.49937e-08)
(6.30604e-07 -1.16197e-07 -3.10336e-07)
(6.03531e-07 -1.72086e-07 -3.12704e-07)
(5.23599e-07 -1.89903e-07 -2.62493e-07)
(3.49502e-07 -1.36514e-07 -1.91477e-07)
(1.38588e-07 -1.0766e-07 -1.11574e-07)
(-1.25699e-07 -1.158e-07 -3.49311e-08)
)
;

boundaryField
{
    inlet
    {
        type            calculated;
        value           nonuniform 0();
    }
    outlet
    {
        type            calculated;
        value           nonuniform List<vector> 
12
(
(1.53037e-07 1.51303e-08 3.02878e-08)
(9.94177e-08 -3.48565e-08 7.5634e-09)
(1.02979e-07 -3.22649e-09 -2.59738e-09)
(7.10754e-08 -2.0002e-08 1.80671e-08)
(7.52366e-08 -3.14806e-08 3.16276e-09)
(6.30844e-08 -1.89762e-08 6.65777e-09)
(3.20408e-08 -1.10732e-08 -7.87453e-09)
(4.72412e-08 -4.17338e-08 1.85597e-08)
(7.92133e-08 -4.98415e-08 1.77119e-08)
(4.22343e-08 3.88404e-08 -3.99782e-09)
(3.08289e-08 -6.27444e-09 1.82989e-08)
(7.22754e-08 -1.67261e-08 1.27041e-08)
)
;
    }
    wall
    {
        type            calculated;
        value           nonuniform List<vector> 
66
(
(3.91578e-07 -3.87995e-08 1.65348e-09)
(7.13257e-07 -7.82089e-08 8.20752e-09)
(5.03067e-07 -1.1604e-07 3.86275e-08)
(4.3867e-07 -6.98956e-08 -1.76381e-08)
(5.02952e-08 -1.90539e-08 5.60248e-10)
(1.40516e-07 -7.07797e-08 4.08567e-08)
(1.66567e-07 -1.61722e-07 5.79449e-08)
(1.39634e-07 -3.24533e-07 8.91673e-08)
(-2.0514e-07 -5.24019e-07 -2.32888e-08)
(4.10265e-07 -1.97958e-07 -5.68044e-08)
(3.93654e-07 -3.1513e-08 6.07004e-09)
(1.60107e-07 -4.64282e-07 1.91233e-07)
(3.3779e-07 1.72168e-08 -1.64474e-08)
(7.95997e-07 1.25415e-07 -2.6945e-08)
(1.6928e-07 -2.08222e-09 -5.37731e-09)
(8.93511e-08 -5.94486e-08 5.07299e-08)
(5.40037e-08 -8.32023e-09 3.05711e-09)
(2.61029e-07 -1.26898e-08 -1.70486e-08)
(2.49325e-07 4.18444e-08 -9.67699e-09)
(-4.27603e-08 5.226e-08 -2.13259e-08)
(5.4104e-07 -3.80778e-08 -1.03025e-07)
(4.75213e-07 -4.59062e-08 -1.23243e-07)
(-1.75291e-08 1.36358e-08 1.08975e-08)
(-1.96215e-07 1.79701e-08 2.41208e-09)
(-3.0595e-07 -9.53298e-09 5.85653e-09)
(-6.446e-07 -3.87771e-08 -3.4421e-09)
(-7.05034e-07 -1.56093e-08 1.66408e-08)
(-6.44324e-07 -3.4618e-08 1.35777e-08)
(-6.34684e-07 -4.13471e-08 7.81494e-09)
(-7.18881e-07 -1.46419e-08 4.1018e-09)
(3.37641e-09 7.39376e-08 -5.49191e-09)
(-4.97473e-08 2.35213e-08 1.93603e-08)
(-9.52022e-09 -1.90064e-08 9.5926e-09)
(7.58031e-08 -5.09981e-08 -9.51413e-08)
(5.24945e-08 -1.6634e-08 -5.90889e-08)
(3.33771e-07 -3.61302e-08 4.31965e-09)
(5.16943e-07 -1.71199e-08 -2.47058e-08)
(3.52942e-07 -1.78839e-09 -8.22125e-09)
(4.69049e-08 -1.7148e-08 1.8176e-09)
(2.41781e-07 -1.32926e-08 1.70381e-08)
(2.08287e-07 -1.58981e-08 -2.36545e-10)
(-6.44556e-07 -5.16679e-07 -1.09823e-08)
(-1.6961e-07 -5.78735e-08 -4.6892e-08)
(1.38226e-07 -2.97821e-08 -1.34742e-08)
(2.96176e-07 1.29763e-08 -2.68299e-08)
(2.69415e-07 1.68229e-08 -1.69663e-08)
(-8.02082e-08 -3.04006e-08 -5.34718e-08)
(9.23256e-08 -9.36133e-09 5.84221e-08)
(1.81196e-07 -5.93351e-09 4.93003e-09)
(5.86317e-08 -7.92183e-09 2.59683e-09)
(-8.09312e-08 -1.08033e-07 -9.09258e-08)
(1.0944e-08 -4.48247e-08 -1.57638e-08)
(-4.368e-08 -4.52205e-08 -3.16866e-08)
(2.54336e-07 -4.64564e-08 -1.00336e-07)
(-4.19816e-07 -7.21926e-10 4.04288e-09)
(-6.2794e-07 -1.32374e-08 -8.19599e-09)
(-5.01622e-07 -2.38041e-08 -5.47797e-09)
(-3.53499e-07 -1.00786e-08 6.06879e-09)
(-8.75989e-07 -3.78436e-08 -2.20835e-08)
(-6.78945e-07 -1.97416e-08 -7.79126e-10)
(-7.44679e-07 -3.36408e-08 2.32999e-08)
(-6.39375e-07 -3.18824e-08 1.12359e-08)
(-1.44214e-07 -4.34024e-08 -1.61515e-08)
(-5.36875e-08 -1.85113e-08 9e-09)
(-5.20882e-08 3.28423e-09 -4.13533e-08)
(3.08857e-08 6.52015e-08 -1.7909e-08)
)
;
    }
    procBoundary5to1
    {
        type            processor;
        value           nonuniform List<vector> 
32
(
(3.24805e-07 -6.02208e-08 -1.71715e-07)
(1.39853e-07 -6.35382e-08 -1.67582e-07)
(-2.04326e-08 -5.47559e-08 -1.35064e-07)
(-2.44914e-07 -4.47537e-08 -9.15547e-08)
(-3.75167e-07 -4.93258e-08 -6.82871e-08)
(-3.29418e-07 -4.5769e-08 -5.81895e-08)
(5.15505e-07 -7.71264e-08 -2.18661e-07)
(3.45164e-07 -7.94122e-08 -1.98848e-07)
(1.78991e-07 -8.96736e-08 -1.61882e-07)
(3.71195e-08 -6.79812e-08 -1.3651e-07)
(-2.5115e-07 -4.48471e-08 -9.35358e-08)
(-4.186e-07 -5.29016e-08 -6.61756e-08)
(-3.655e-07 -5.20611e-08 -6.08196e-08)
(6.83919e-07 -1.38921e-07 -2.77473e-07)
(6.0577e-07 -1.28299e-07 -2.8653e-07)
(3.79181e-07 -1.07713e-07 -2.41899e-07)
(2.04921e-07 -1.14752e-07 -1.71158e-07)
(7.42478e-08 -6.85423e-08 -1.34415e-07)
(-2.70942e-07 -4.35339e-08 -9.34395e-08)
(-5.01534e-07 -5.01145e-08 -5.57812e-08)
(-4.23668e-07 -5.00164e-08 -5.18495e-08)
(5.52773e-07 -5.80467e-08 -1.61008e-07)
(5.16429e-07 -6.27497e-08 -1.62404e-07)
(4.38446e-07 -6.47042e-08 -1.62972e-07)
(4.38446e-07 -6.47042e-08 -1.62972e-07)
(4.38446e-07 -6.47042e-08 -1.62972e-07)
(5.71205e-07 -9.38855e-08 -2.07044e-07)
(5.26722e-07 -8.99344e-08 -1.8783e-07)
(5.26722e-07 -8.99344e-08 -1.8783e-07)
(5.26722e-07 -8.99344e-08 -1.8783e-07)
(6.77445e-07 -1.39897e-07 -2.76547e-07)
(6.77445e-07 -1.39897e-07 -2.76547e-07)
)
;
    }
    procBoundary5to4
    {
        type            processor;
        value           nonuniform List<vector> 
12
(
(5.21365e-07 -3.57022e-08 -1.27783e-07)
(5.41338e-07 -5.11276e-08 -1.65087e-07)
(6.04489e-07 -7.96827e-08 -2.12438e-07)
(7.47872e-07 -1.15817e-07 -3.28738e-07)
(4.22447e-07 -2.60874e-08 -1.11891e-07)
(4.60704e-07 -3.56606e-08 -1.3994e-07)
(5.14448e-07 -5.58851e-08 -1.88024e-07)
(6.16763e-07 -7.40534e-08 -2.9727e-07)
(3.4137e-07 -2.38636e-08 -9.91685e-08)
(3.95822e-07 -3.03436e-08 -1.22766e-07)
(4.50501e-07 -4.29266e-08 -1.66229e-07)
(5.58727e-07 -4.39994e-08 -2.66449e-07)
)
;
    }
    procBoundary5to7
    {
        type            processor;
        value           nonuniform List<vector> 
44
(
(8.54076e-07 -2.084e-07 -4.22406e-07)
(7.18685e-07 -2.04482e-07 -3.78278e-07)
(4.81298e-07 -1.63234e-07 -2.87076e-07)
(2.67578e-07 -1.24638e-07 -1.68236e-07)
(9.15451e-08 -9.08352e-08 -1.18583e-07)
(-3.0506e-07 -8.3598e-08 -6.76828e-08)
(-5.53734e-07 -8.54169e-08 -2.00609e-08)
(-4.85226e-07 -8.07078e-08 5.34501e-09)
(8.7975e-07 -1.98672e-07 -4.31868e-07)
(8.54076e-07 -2.084e-07 -4.22406e-07)
(6.64476e-07 -2.10004e-07 -3.35931e-07)
(4.3972e-07 -1.59778e-07 -2.49451e-07)
(2.23812e-07 -1.31084e-07 -1.516e-07)
(2.31875e-08 -9.83969e-08 -9.11827e-08)
(-3.51926e-07 -1.06447e-07 -3.36617e-08)
(-5.84745e-07 -1.2566e-07 2.28954e-08)
(-5.44937e-07 -1.33685e-07 5.74396e-08)
(1.13888e-06 -3.19074e-07 -7.45104e-07)
(6.64476e-07 -2.10004e-07 -3.35931e-07)
(1.12421e-06 -3.63272e-07 -7.09713e-07)
(6.64476e-07 -2.10004e-07 -3.35931e-07)
(4.3972e-07 -1.59778e-07 -2.49451e-07)
(1.67131e-07 -1.21277e-07 -1.22713e-07)
(-4.64915e-08 -1.0889e-07 -5.51092e-08)
(-3.93138e-07 -1.33056e-07 1.17033e-08)
(-6.09408e-07 -1.65619e-07 7.85392e-08)
(-6.06307e-07 -1.9577e-07 1.23162e-07)
(9.22471e-07 -2.39493e-07 -6.51187e-07)
(9.66287e-07 -3.22109e-07 -6.43459e-07)
(7.92144e-07 -3.14651e-07 -5.04763e-07)
(1.67131e-07 -1.21277e-07 -1.22713e-07)
(5.09819e-07 -2.06479e-07 -3.40896e-07)
(1.67131e-07 -1.21277e-07 -1.22713e-07)
(-4.64915e-08 -1.0889e-07 -5.51092e-08)
(-4.44605e-07 -1.45477e-07 4.70693e-08)
(-6.45218e-07 -1.96541e-07 1.23688e-07)
(-6.70575e-07 -2.45517e-07 1.8459e-07)
(7.93752e-07 -1.4708e-07 -5.74104e-07)
(8.50373e-07 -2.31577e-07 -5.9904e-07)
(7.22083e-07 -2.41805e-07 -4.82881e-07)
(4.5275e-07 -1.83009e-07 -3.24084e-07)
(1.74336e-07 -1.53576e-07 -1.61751e-07)
(-4.44605e-07 -1.45477e-07 4.70693e-08)
(-1.13417e-07 -1.70538e-07 -2.50806e-08)
)
;
    }
}


// ************************************************************************* //
