/*--------------------------------*- C++ -*----------------------------------*\
| =========                 |                                                 |
| \\      /  F ield         | OpenFOAM: The Open Source CFD Toolbox           |
|  \\    /   O peration     | Version:  4.x                                   |
|   \\  /    A nd           | Web:      www.OpenFOAM.org                      |
|    \\/     M anipulation  |                                                 |
\*---------------------------------------------------------------------------*/
FoamFile
{
    version     2.0;
    format      ascii;
    class       volVectorField;
    location    "19";
    object      impParticleForces;
}
// * * * * * * * * * * * * * * * * * * * * * * * * * * * * * * * * * * * * * //

dimensions      [1 1 -2 0 0 0 0];

internalField   nonuniform List<vector> 
114
(
(0.00243761 -1.30736e-05 7.15809e-06)
(0.00240432 -2.14583e-05 1.40274e-05)
(0.00242131 -3.16177e-05 1.95045e-05)
(0.00236874 -4.79554e-05 1.87716e-05)
(0.00236539 -6.46543e-05 1.80205e-05)
(0.00225996 -8.87807e-05 6.03731e-06)
(0.00242058 -7.75505e-06 -3.61715e-07)
(0.0024403 -1.17014e-05 9.05459e-06)
(0.00240674 -1.82863e-05 1.43261e-05)
(0.00242892 -2.66269e-05 1.85819e-05)
(0.0023777 -4.1508e-05 1.4909e-05)
(0.00236527 -5.59119e-05 1.1027e-05)
(0.00226622 -7.85642e-05 -1.84595e-06)
(0.00243138 -3.4967e-06 -8.97748e-06)
(0.00239437 -3.72279e-06 4.26893e-07)
(0.00241777 -5.61238e-06 9.36654e-06)
(0.00238041 -8.89763e-06 1.35027e-05)
(0.00238001 -1.31715e-05 1.54616e-05)
(0.00233473 -2.01103e-05 1.1063e-05)
(0.00230467 -2.80146e-05 3.22153e-06)
(0.00223121 -4.00051e-05 -7.95086e-06)
(0.0023717 -1.40354e-05 -1.73107e-05)
(0.00238059 -1.35113e-05 -7.75029e-06)
(0.00238032 -1.5719e-05 8.08151e-07)
(0.00239179 -1.99738e-05 9.66136e-06)
(0.00237385 -2.85806e-05 1.70196e-05)
(0.00239356 -3.96453e-05 2.47083e-05)
(0.00234566 -5.88092e-05 2.77059e-05)
(0.00232485 -7.85311e-05 3.07796e-05)
(0.00223935 -0.000104008 3.20076e-05)
(0.00239535 -1.27402e-05 -1.6263e-05)
(0.00240785 -1.21444e-05 -6.5585e-06)
(0.00239177 -1.36226e-05 2.02987e-06)
(0.00241327 -1.73556e-05 1.06269e-05)
(0.00238362 -2.43362e-05 1.62411e-05)
(0.00240207 -3.39379e-05 2.22497e-05)
(0.00234267 -4.94227e-05 2.29679e-05)
(0.00233286 -6.63168e-05 2.45475e-05)
(0.00224477 -8.88409e-05 2.26888e-05)
(0.0023718 -8.08826e-06 -1.50773e-05)
(0.00237885 -7.39894e-06 -5.8662e-06)
(0.00236359 -8.36639e-06 2.04158e-06)
(0.00238852 -1.0581e-05 9.77813e-06)
(0.0023528 -1.4566e-05 1.36094e-05)
(0.00236293 -1.99695e-05 1.6509e-05)
(0.00231142 -2.88811e-05 1.46722e-05)
(0.00229073 -3.84029e-05 1.08824e-05)
(0.00221269 -5.12318e-05 7.27135e-06)
(0.00236127 -1.4478e-06 -1.56235e-05)
(0.00236647 -8.63551e-07 -6.83856e-06)
(0.00236184 -1.78721e-05 -1.26575e-05)
(0.00238448 -1.85211e-05 -4.36985e-06)
(0.00236784 -2.14267e-05 3.11419e-06)
(0.00238649 -2.6547e-05 1.11196e-05)
(0.00237895 -3.69749e-05 1.92324e-05)
(0.00240002 -5.0251e-05 2.73673e-05)
(0.00237107 -7.69278e-05 3.67529e-05)
(0.00239719 -0.000105482 4.43114e-05)
(0.00227668 -0.000151654 6.2515e-05)
(0.00237243 -1.59906e-05 -1.16926e-05)
(0.00241076 -1.69861e-05 -3.37011e-06)
(0.00237687 -1.91684e-05 3.43683e-06)
(0.00240032 -2.41842e-05 1.08554e-05)
(0.00238676 -3.29364e-05 1.74352e-05)
(0.00240709 -4.53838e-05 2.41395e-05)
(0.00238113 -6.78945e-05 3.07542e-05)
(0.00236723 -9.08211e-05 3.48478e-05)
(0.00226412 -0.000130228 4.42473e-05)
(0.00235337 -1.12693e-05 -1.10018e-05)
(0.00237542 -1.17416e-05 -3.46788e-06)
(0.00235874 -1.3399e-05 3.04951e-06)
(0.00237084 -1.65922e-05 9.23657e-06)
(0.00236483 -2.27916e-05 1.40074e-05)
(0.00237116 -3.03568e-05 1.70634e-05)
(0.00232399 -4.30489e-05 1.85985e-05)
(0.00230806 -5.66351e-05 1.74434e-05)
(0.00222634 -7.70985e-05 2.01868e-05)
(0.00233682 -4.12561e-06 -1.18014e-05)
(0.00237537 -4.21299e-06 -4.21656e-06)
(0.00234149 -4.54823e-06 1.18402e-06)
(0.00235694 -5.35246e-06 6.41369e-06)
(0.00230662 -1.84036e-05 -1.09632e-05)
(0.0023306 -1.98503e-05 -4.12577e-06)
(0.00231821 -2.33367e-05 2.3215e-06)
(0.00234672 -2.95467e-05 9.41675e-06)
(0.00234531 -4.08337e-05 1.63722e-05)
(0.00237229 -5.6453e-05 2.35739e-05)
(0.00236496 -8.77067e-05 3.23339e-05)
(0.00241166 -0.000120636 4.18989e-05)
(0.00228388 -0.000177471 5.39836e-05)
(0.00233647 -1.72396e-05 -1.02436e-05)
(0.00236303 -1.86591e-05 -3.49734e-06)
(0.00233837 -2.18126e-05 2.54425e-06)
(0.00235916 -2.73358e-05 8.93182e-06)
(0.00235764 -3.75488e-05 1.4915e-05)
(0.00236694 -5.11657e-05 2.09914e-05)
(0.00235167 -7.60707e-05 2.71191e-05)
(0.00235833 -0.00010445 3.36638e-05)
(0.00226866 -0.000157444 4.27073e-05)
(0.00231487 -1.25355e-05 -9.99783e-06)
(0.00234092 -1.36222e-05 -3.5022e-06)
(0.00232955 -1.60273e-05 2.2366e-06)
(0.00233981 -1.97933e-05 7.5355e-06)
(0.00232834 -2.68096e-05 1.17338e-05)
(0.00234028 -3.5907e-05 1.52769e-05)
(0.00229903 -5.01223e-05 1.74281e-05)
(0.00228277 -6.60249e-05 1.90622e-05)
(0.00221691 -9.23163e-05 2.26634e-05)
(0.00230184 -5.43278e-06 -1.05154e-05)
(0.00232331 -5.7338e-06 -4.30604e-06)
(0.00230895 -6.78664e-06 6.00773e-07)
(0.00232164 -8.28438e-06 4.77743e-06)
(0.00230815 -1.14643e-05 7.47877e-06)
(0.00229374 -1.4145e-05 8.25122e-06)
)
;

boundaryField
{
    inlet
    {
        type            zeroGradient;
    }
    outlet
    {
        type            zeroGradient;
    }
    wall
    {
        type            zeroGradient;
    }
    procBoundary5to1
    {
        type            processor;
        value           nonuniform List<vector> 
32
(
(0.0024885 -5.1417e-06 6.78745e-06)
(0.00244904 -1.49193e-05 1.42858e-05)
(0.00246672 -2.64068e-05 1.96234e-05)
(0.00242967 -4.07226e-05 1.77799e-05)
(0.00241824 -5.51327e-05 1.35552e-05)
(0.0022854 -7.58234e-05 -6.52143e-06)
(0.00245867 4.64633e-07 -1.72794e-06)
(0.00249312 -5.24765e-06 9.86284e-06)
(0.00246213 -1.26897e-05 1.5948e-05)
(0.00247452 -2.15178e-05 2.05029e-05)
(0.00242373 -3.33517e-05 1.56905e-05)
(0.00240512 -4.64975e-05 8.29441e-06)
(0.00228207 -6.82585e-05 -1.27744e-05)
(0.00246673 2.32772e-06 -1.15698e-05)
(0.00243701 1.82612e-06 -4.41694e-07)
(0.00247284 -6.5209e-07 1.07232e-05)
(0.0024275 -3.79108e-06 1.53635e-05)
(0.00243672 -7.55145e-06 1.79566e-05)
(0.00237793 -1.21954e-05 1.17652e-05)
(0.00235524 -1.71184e-05 1.14938e-06)
(0.00225413 -2.72593e-05 -1.56151e-05)
(0.00238998 -7.7618e-06 -2.28183e-05)
(0.00240139 -5.85438e-06 -1.18294e-05)
(0.00240843 -8.16205e-06 -2.15138e-06)
(0.00240843 -8.16205e-06 -2.15138e-06)
(0.00240843 -8.16205e-06 -2.15138e-06)
(0.00242118 -7.91447e-06 -2.19875e-05)
(0.00245735 -6.70414e-06 -1.0464e-05)
(0.00245735 -6.70414e-06 -1.0464e-05)
(0.00245735 -6.70414e-06 -1.0464e-05)
(0.00239844 -4.65026e-06 -2.05292e-05)
(0.00239844 -4.65026e-06 -2.05292e-05)
)
;
    }
    procBoundary5to4
    {
        type            processor;
        value           nonuniform List<vector> 
12
(
(0.0023959 -1.63463e-05 -2.68945e-05)
(0.00242677 -1.50612e-05 -2.61305e-05)
(0.00239386 -9.6642e-06 -2.44941e-05)
(0.00237743 -2.31541e-06 -2.47181e-05)
(0.00239257 -1.90754e-05 -2.013e-05)
(0.00241374 -1.73306e-05 -1.89886e-05)
(0.00238614 -1.20278e-05 -1.80964e-05)
(0.0023621 -4.54624e-06 -1.8744e-05)
(0.00235124 -1.92679e-05 -1.75342e-05)
(0.00235737 -1.74229e-05 -1.6685e-05)
(0.00233749 -1.25666e-05 -1.6262e-05)
(0.0023219 -5.45468e-06 -1.66676e-05)
)
;
    }
    procBoundary5to7
    {
        type            processor;
        value           nonuniform List<vector> 
44
(
(0.00241816 2.51725e-06 -9.51746e-06)
(0.00238194 3.02862e-06 -6.36973e-07)
(0.00240105 3.47404e-06 7.65951e-06)
(0.00238438 3.67021e-06 1.17457e-05)
(0.0023953 3.99202e-06 1.3297e-05)
(0.0023263 3.27313e-06 6.16123e-06)
(0.00229617 3.13999e-06 -4.0979e-06)
(0.00222377 3.23986e-06 -1.83988e-05)
(0.00239411 1.1686e-06 -2.07147e-05)
(0.00241816 2.51725e-06 -9.51746e-06)
(0.00234682 -6.2985e-07 4.05787e-07)
(0.00236921 -7.74124e-07 7.14057e-06)
(0.00233881 -1.30754e-06 9.93426e-06)
(0.00234822 -1.71746e-06 1.10595e-05)
(0.00230081 -4.16339e-06 6.87452e-06)
(0.00228669 -5.19027e-06 9.86493e-07)
(0.00220344 -9.43864e-06 -7.60568e-06)
(0.00235178 5.34639e-06 -1.78068e-05)
(0.00234682 -6.2985e-07 4.05787e-07)
(0.00238883 6.25611e-06 -9.08901e-06)
(0.00234682 -6.2985e-07 4.05787e-07)
(0.00236921 -7.74124e-07 7.14057e-06)
(0.002316 -6.82892e-06 8.53993e-06)
(0.00232366 -9.00227e-06 9.43039e-06)
(0.00228283 -1.3028e-05 7.39842e-06)
(0.00226096 -1.65559e-05 3.35639e-06)
(0.00218591 -2.27453e-05 7.4522e-07)
(0.0023462 3.89686e-06 -1.3859e-05)
(0.00237129 4.76915e-06 -7.15112e-06)
(0.00233247 5.33671e-06 -2.24581e-06)
(0.002316 -6.82892e-06 8.53993e-06)
(0.00234823 6.6239e-06 1.97777e-06)
(0.002316 -6.82892e-06 8.53993e-06)
(0.00232366 -9.00227e-06 9.43039e-06)
(0.00225398 -1.98277e-05 7.49352e-06)
(0.0022376 -2.3941e-05 4.93066e-06)
(0.00216979 -3.33948e-05 4.80992e-06)
(0.00230995 2.59001e-06 -1.25838e-05)
(0.00232271 3.11089e-06 -7.0845e-06)
(0.00230116 3.50826e-06 -2.94428e-06)
(0.00232085 4.35257e-06 2.64428e-07)
(0.00228761 5.5737e-06 1.29159e-06)
(0.00225398 -1.98277e-05 7.49352e-06)
(0.00228458 7.30793e-06 8.65465e-07)
)
;
    }
}


// ************************************************************************* //
