/*--------------------------------*- C++ -*----------------------------------*\
| =========                 |                                                 |
| \\      /  F ield         | OpenFOAM: The Open Source CFD Toolbox           |
|  \\    /   O peration     | Version:  4.x                                   |
|   \\  /    A nd           | Web:      www.OpenFOAM.org                      |
|    \\/     M anipulation  |                                                 |
\*---------------------------------------------------------------------------*/
FoamFile
{
    version     2.0;
    format      ascii;
    class       volScalarField;
    location    "19";
    object      SPartFluid;
}
// * * * * * * * * * * * * * * * * * * * * * * * * * * * * * * * * * * * * * //

dimensions      [1 -3 -1 0 0 0 0];

internalField   nonuniform List<scalar> 
114
(
6.81948e-65
8.05939e-65
6.35458e-65
6.74208e-65
7.5946e-65
8.44704e-65
6.81928e-65
5.65694e-65
5.81194e-65
6.66444e-65
8.21433e-65
8.52442e-65
7.90446e-65
8.44645e-65
6.04428e-65
7.51665e-65
5.73439e-65
4.57206e-65
7.28438e-65
5.42458e-65
8.67934e-65
6.35451e-65
4.80467e-65
6.97443e-65
5.4246e-65
6.43204e-65
6.81958e-65
7.12957e-65
5.65723e-65
5.96718e-65
7.05184e-65
6.81936e-65
8.52417e-65
7.12934e-65
8.36925e-65
8.13685e-65
5.26962e-65
8.60194e-65
6.89706e-65
8.2141e-65
4.57199e-65
7.28419e-65
7.5942e-65
6.19939e-65
7.05189e-65
7.12942e-65
6.89699e-65
5.57961e-65
9.99635e-65
4.33948e-65
6.66457e-65
8.2145e-65
6.74206e-65
7.36206e-65
6.9746e-65
6.89718e-65
6.66469e-65
7.28474e-65
6.58723e-65
5.42457e-65
8.36933e-65
6.04451e-65
7.12946e-65
7.12949e-65
7.05201e-65
9.14448e-65
6.43217e-65
5.50223e-65
6.89682e-65
6.35439e-65
6.89686e-65
6.04449e-65
1.00742e-64
7.36194e-65
8.21442e-65
8.91193e-65
8.67946e-65
4.80453e-65
9.3766e-65
8.98915e-65
7.98177e-65
2.63491e-65
6.89723e-65
4.57234e-65
7.12972e-65
6.04477e-65
4.95984e-65
6.97479e-65
6.27736e-65
6.04486e-65
6.35462e-65
6.58713e-65
4.33973e-65
5.6572e-65
7.43961e-65
6.50967e-65
4.57229e-65
7.05223e-65
6.04477e-65
6.12204e-65
6.43205e-65
8.52437e-65
6.97453e-65
5.88961e-65
8.05951e-65
6.50962e-65
6.74216e-65
6.81968e-65
7.36194e-65
5.65707e-65
7.12944e-65
5.5796e-65
9.68678e-65
7.74951e-65
)
;

boundaryField
{
    inlet
    {
        type            calculated;
        value           nonuniform 0();
    }
    outlet
    {
        type            calculated;
        value           uniform 0;
    }
    wall
    {
        type            calculated;
        value           uniform 0;
    }
    procBoundary5to1
    {
        type            processor;
        value           nonuniform List<scalar> 
32
(
7.9819e-65
5.73459e-65
8.44695e-65
7.05208e-65
5.73472e-65
4.18478e-65
5.65695e-65
6.12192e-65
6.97437e-65
6.97444e-65
6.58702e-65
7.20702e-65
4.4172e-65
6.35423e-65
5.1144e-65
9.06648e-65
8.29163e-65
8.75668e-65
6.81944e-65
7.90439e-65
3.48725e-65
6.58694e-65
5.26959e-65
8.05933e-65
8.05933e-65
8.05933e-65
7.05176e-65
9.99645e-65
9.99645e-65
9.99645e-65
5.7343e-65
5.7343e-65
)
;
    }
    procBoundary5to4
    {
        type            processor;
        value           nonuniform List<scalar> 
12
(
8.91188e-65
9.06666e-65
5.6569e-65
5.96683e-65
8.21455e-65
8.1369e-65
6.8194e-65
6.81938e-65
7.20725e-65
7.59456e-65
6.27709e-65
6.35455e-65
)
;
    }
    procBoundary5to7
    {
        type            processor;
        value           nonuniform List<scalar> 
44
(
7.82649e-65
6.43169e-65
6.7417e-65
1.03064e-64
1.0384e-64
7.9818e-65
5.65705e-65
8.36935e-65
9.91872e-65
7.82649e-65
6.43174e-65
7.36169e-65
6.7418e-65
6.89685e-65
8.60177e-65
8.44686e-65
7.36197e-65
3.95204e-65
6.43174e-65
8.52405e-65
6.43174e-65
7.36169e-65
5.03702e-65
5.81201e-65
7.36197e-65
6.04459e-65
5.81212e-65
8.05928e-65
7.3618e-65
6.81937e-65
5.03702e-65
5.19204e-65
5.03702e-65
5.81201e-65
5.50217e-65
6.43217e-65
6.12221e-65
6.89699e-65
5.8121e-65
7.67192e-65
7.43949e-65
5.19216e-65
5.50217e-65
3.87479e-65
)
;
    }
}


// ************************************************************************* //
