/*--------------------------------*- C++ -*----------------------------------*\
| =========                 |                                                 |
| \\      /  F ield         | OpenFOAM: The Open Source CFD Toolbox           |
|  \\    /   O peration     | Version:  4.x                                   |
|   \\  /    A nd           | Web:      www.OpenFOAM.org                      |
|    \\/     M anipulation  |                                                 |
\*---------------------------------------------------------------------------*/
FoamFile
{
    version     2.0;
    format      ascii;
    class       volVectorField;
    location    "19";
    object      Urel;
}
// * * * * * * * * * * * * * * * * * * * * * * * * * * * * * * * * * * * * * //

dimensions      [0 1 -1 0 0 0 0];

internalField   nonuniform List<vector> 
114
(
(-0.0227607 0.00027486 -0.000173447)
(-0.0211893 0.000452696 -0.000216709)
(-0.0228348 0.000496464 -0.00042786)
(-0.0207046 0.00108099 -0.0002055)
(-0.0222672 0.00129988 -0.000363555)
(-0.0184848 0.0029851 0.000642799)
(-0.0194367 0.000273605 -8.23727e-05)
(-0.0212288 0.000283381 -0.000267582)
(-0.0194174 0.000423736 -0.000219712)
(-0.0211013 0.000464358 -0.000334239)
(-0.0190045 0.000972317 -4.9636e-05)
(-0.0201144 0.0010829 -6.06544e-05)
(-0.0174796 0.00286623 0.00091266)
(-0.0200563 0.000177128 -6.24958e-05)
(-0.0181645 0.000182116 -0.000120884)
(-0.0199794 0.000165805 -0.000265658)
(-0.017956 0.000224337 -0.000222418)
(-0.0196586 0.00021298 -0.000256109)
(-0.0173999 0.000418888 -4.30774e-05)
(-0.0186265 0.000428722 0.000123898)
(-0.0162408 0.00118422 0.00068401)
(-0.0206209 0.000363536 0.000150372)
(-0.0220307 0.000334919 1.56821e-05)
(-0.020617 0.000354704 -7.08143e-05)
(-0.0221521 0.000334566 -0.000253753)
(-0.0205074 0.000535741 -0.000331599)
(-0.0220244 0.000585056 -0.000561262)
(-0.0198558 0.00114789 -0.000580333)
(-0.0208377 0.00140108 -0.000740948)
(-0.017788 0.00266134 -0.000743024)
(-0.0189159 0.000286902 6.05201e-05)
(-0.0206409 0.000248114 -7.2353e-05)
(-0.0188079 0.000271482 -0.000129096)
(-0.0206452 0.00027969 -0.000273796)
(-0.0187631 0.000409213 -0.000283914)
(-0.0203974 0.000470459 -0.000413399)
(-0.0182678 0.000884844 -0.000351403)
(-0.0192044 0.00108929 -0.000425199)
(-0.0168075 0.00222132 -0.000233871)
(-0.0178553 0.000187017 2.90497e-06)
(-0.019647 0.000160448 -0.000128763)
(-0.0177499 0.00018427 -0.000150956)
(-0.0195985 0.00018517 -0.000262322)
(-0.0176305 0.000251665 -0.000230343)
(-0.0193222 0.000258381 -0.00026221)
(-0.0171578 0.000488521 -0.000151875)
(-0.0184053 0.00054554 -3.33614e-05)
(-0.0160408 0.00111707 0.000171842)
(-0.0173754 5.87498e-05 -1.40131e-06)
(-0.0191522 5.85602e-05 -0.00011988)
(-0.0211883 0.00039117 1.93719e-05)
(-0.0225958 0.000374076 -8.20428e-05)
(-0.0214057 0.000437612 -0.000147256)
(-0.0230124 0.000440079 -0.000287486)
(-0.0216829 0.000728093 -0.000443108)
(-0.0234789 0.000827004 -0.000624271)
(-0.0216385 0.00168737 -0.0010077)
(-0.0234383 0.00205882 -0.00104106)
(-0.0194942 0.0045105 -0.00226239)
(-0.0195951 0.000325889 -3.87651e-05)
(-0.0212564 0.00032646 -0.00014029)
(-0.0197022 0.00037724 -0.000159894)
(-0.0214892 0.000411645 -0.000254664)
(-0.0198972 0.000627374 -0.000321634)
(-0.0216071 0.000738814 -0.000417909)
(-0.0197553 0.00143406 -0.000599182)
(-0.0209181 0.0017228 -0.000622898)
(-0.0183228 0.00401124 -0.00127413)
(-0.0186033 0.000253613 -8.3269e-05)
(-0.0202896 0.000263972 -0.000145883)
(-0.0186081 0.000308266 -0.000177338)
(-0.0203617 0.000324586 -0.000233463)
(-0.0185909 0.000469496 -0.000253167)
(-0.0202089 0.000510225 -0.000236217)
(-0.0181768 0.000906459 -0.000281562)
(-0.0192572 0.000943879 -7.84518e-05)
(-0.0168912 0.00202706 -0.00032925)
(-0.017979 0.00011061 -8.31656e-05)
(-0.0196249 0.000116971 -0.000154012)
(-0.0178072 0.000124118 -0.000142491)
(-0.0195141 0.000128488 -0.000190805)
(-0.0220772 0.000408445 1.4033e-05)
(-0.0233969 0.000403388 -3.2567e-05)
(-0.0224508 0.000491003 -4.36031e-05)
(-0.0239779 0.000536222 -0.000127008)
(-0.0229333 0.000875168 -0.000203785)
(-0.0247886 0.00106259 -0.000363444)
(-0.0232715 0.00210387 -0.000599374)
(-0.0256116 0.00273859 -0.000787433)
(-0.0211396 0.00592208 -0.00130474)
(-0.0209714 0.000377401 -3.73262e-05)
(-0.0223267 0.000387512 -8.08827e-05)
(-0.0212251 0.000481451 -8.12692e-05)
(-0.0226861 0.000532372 -0.000121911)
(-0.0214933 0.000834026 -0.000164236)
(-0.0229648 0.000997694 -0.000242163)
(-0.021403 0.00189692 -0.000379336)
(-0.0225539 0.00234403 -0.000505999)
(-0.0197689 0.00532237 -0.000886826)
(-0.0199015 0.000308991 -6.99533e-05)
(-0.0212874 0.000314843 -0.000107785)
(-0.0199913 0.00040872 -0.000106833)
(-0.0214413 0.000423699 -0.000138171)
(-0.0200143 0.000648415 -0.000142818)
(-0.0213622 0.000700116 -0.000160967)
(-0.0195495 0.00124283 -0.000199002)
(-0.0204556 0.0013597 -0.000199398)
(-0.0179025 0.00265781 -0.000359928)
(-0.0191684 0.000164293 -0.000104642)
(-0.0205546 0.000167166 -0.0001486)
(-0.0191676 0.000217684 -0.000134652)
(-0.0205261 0.000221955 -0.000135939)
(-0.0190269 0.000328186 -0.000120661)
(-0.0201839 0.000317812 -8.30216e-05)
)
;

boundaryField
{
    inlet
    {
        type            calculated;
        value           nonuniform 0();
    }
    outlet
    {
        type            calculated;
        value           nonuniform List<vector> 
12
(
(-0.00897108 0.00954214 0.00710362)
(-0.00930452 0.0147011 0.00790102)
(-0.00507713 0.00290684 0.00171004)
(-0.00355534 0.00143574 -0.00190002)
(-0.00167329 0.000465962 0.000373296)
(-0.00338199 -0.000850568 0.000640926)
(-0.0104833 0.0153203 -0.0168314)
(-0.0109074 0.0174411 -0.00762034)
(-0.00617991 0.00459796 -0.00176321)
(-0.0158822 0.0223972 -0.00132707)
(-0.0166806 0.0253124 -0.00126946)
(-0.00923091 0.00522795 -0.000697252)
)
;
    }
    wall
    {
        type            calculated;
        value           nonuniform List<vector> 
66
(
(-1.39885e-07 2.73635e-08 3.64622e-09)
(-3.03648e-07 5.05641e-08 1.96728e-09)
(-4.13013e-07 7.32197e-08 -2.88174e-08)
(-3.05244e-07 1.56571e-08 1.7091e-08)
(-1.75507e-07 3.55014e-08 1.9208e-09)
(-3.04725e-07 8.35072e-08 -1.26153e-08)
(-3.5246e-07 1.26955e-07 -3.90961e-08)
(-2.79679e-07 2.74653e-07 -7.19247e-08)
(-1.77222e-07 5.44314e-07 2.67651e-08)
(-5.06754e-07 2.38966e-07 5.53784e-08)
(-4.91229e-07 1.1116e-07 4.03806e-09)
(-4.50712e-07 4.78786e-07 -1.39178e-07)
(-2.18733e-07 -3.03567e-08 2.73218e-08)
(-9.26351e-07 -1.87921e-07 1.91797e-08)
(-5.28054e-07 3.13782e-08 -2.37607e-08)
(-4.49701e-07 1.04469e-07 -7.41509e-08)
(-2.06976e-07 1.62549e-08 -1.02547e-08)
(-2.70906e-07 1.59189e-08 9.87969e-09)
(-3.21574e-07 -2.44803e-08 -8.94784e-10)
(-3.61695e-07 -1.25881e-08 -1.74835e-08)
(-1.21239e-07 4.38709e-08 1.11474e-07)
(-1.74598e-07 5.8943e-08 1.08743e-07)
(-2.42586e-07 4.32568e-09 -3.76253e-08)
(-2.88442e-07 1.46536e-08 -3.3122e-08)
(-8.9622e-08 1.07476e-08 -4.65742e-09)
(-1.57045e-07 3.28987e-08 -8.43932e-09)
(-1.66995e-07 2.50365e-08 -2.77682e-08)
(-6.85677e-08 2.10224e-08 -2.46448e-08)
(-8.19644e-08 2.6462e-08 -1.94444e-08)
(-9.95535e-08 2.05454e-08 -9.90672e-09)
(-2.01738e-08 2.24801e-08 -2.48804e-08)
(-3.0648e-08 2.58347e-08 -1.95483e-08)
(-4.53334e-08 1.32604e-08 -1.57572e-08)
(-2.90056e-07 5.82023e-08 6.34845e-08)
(-2.57401e-07 3.00246e-08 3.14277e-08)
(-1.39885e-07 2.73635e-08 3.64622e-09)
(-3.05027e-07 4.37016e-09 4.60556e-08)
(-2.41193e-07 -6.57989e-10 2.01932e-08)
(-1.75507e-07 3.55014e-08 1.9208e-09)
(-3.57813e-07 4.33787e-08 1.73811e-08)
(-2.37772e-07 2.25292e-08 4.25176e-09)
(-1.77222e-07 5.44314e-07 2.67651e-08)
(-5.0695e-07 6.18093e-08 5.14825e-08)
(-3.00622e-07 3.13302e-08 2.14234e-08)
(-2.66291e-07 -2.53454e-08 4.98089e-08)
(-2.18733e-07 -3.03567e-08 2.73218e-08)
(-3.95965e-07 4.06122e-08 5.54468e-08)
(-2.5716e-07 2.59032e-08 -5.79939e-08)
(-2.52637e-07 1.54718e-08 -1.80506e-08)
(-2.06976e-07 1.62549e-08 -1.02547e-08)
(-3.6639e-07 1.06032e-07 5.82425e-08)
(-1.92136e-07 4.34624e-08 1.03456e-08)
(-1.69176e-07 4.63207e-08 3.40469e-08)
(-1.21239e-07 4.38709e-08 1.11474e-07)
(-2.01532e-07 1.77207e-08 8.09641e-09)
(-1.47756e-07 2.16424e-08 -4.39573e-09)
(-1.42824e-07 3.62597e-08 -9.87223e-09)
(-8.9622e-08 1.07476e-08 -4.65742e-09)
(-1.44752e-07 1.91011e-08 -8.59127e-09)
(-1.1236e-07 1.82605e-08 -1.31287e-08)
(-9.46747e-08 2.40646e-08 -1.85966e-08)
(-6.85677e-08 2.10224e-08 -2.46448e-08)
(-2.78416e-07 4.04957e-08 -1.17131e-08)
(-6.77881e-08 2.25606e-08 -7.99749e-09)
(-3.22858e-08 1.38354e-08 -1.33168e-08)
(-2.01738e-08 2.24801e-08 -2.48804e-08)
)
;
    }
    procBoundary5to1
    {
        type            processor;
        value           nonuniform List<vector> 
32
(
(-0.0236157 0.000239813 -0.000228782)
(-0.0220629 0.000400305 -0.000322826)
(-0.0237375 0.000473396 -0.000569171)
(-0.021669 0.00103401 -0.000334511)
(-0.023312 0.00133595 -0.000349416)
(-0.0192878 0.00306984 0.000714275)
(-0.0203634 0.000250604 -0.000113133)
(-0.0221135 0.000269816 -0.000358759)
(-0.0202591 0.000400713 -0.000328378)
(-0.02197 0.000475486 -0.000499229)
(-0.0198692 0.000973186 -0.00012578)
(-0.0210326 0.00112209 -6.34001e-05)
(-0.0182712 0.00309543 0.00130618)
(-0.0208021 0.000132161 -5.94272e-05)
(-0.0188713 0.000129469 -0.00014509)
(-0.0207073 0.000120218 -0.000338778)
(-0.0186385 0.000160097 -0.000301405)
(-0.0203294 0.000184523 -0.000342884)
(-0.0180151 0.000334533 -6.77564e-05)
(-0.0191649 0.000392737 0.000191569)
(-0.0167016 0.00104421 0.00102234)
(-0.0211102 0.000323371 0.000274433)
(-0.0225463 0.000291039 0.000127994)
(-0.0212186 0.000288881 1.41302e-05)
(-0.0212186 0.000288881 1.41302e-05)
(-0.0212186 0.000288881 1.41302e-05)
(-0.0194464 0.000283644 0.000172699)
(-0.0211459 0.00026851 -2.1827e-06)
(-0.0211459 0.00026851 -2.1827e-06)
(-0.0211459 0.00026851 -2.1827e-06)
(-0.0183298 0.000197996 0.000105918)
(-0.0183298 0.000197996 0.000105918)
)
;
    }
    procBoundary5to4
    {
        type            processor;
        value           nonuniform List<vector> 
12
(
(-0.0219306 0.000400385 0.000237029)
(-0.0207085 0.00033736 0.000141619)
(-0.0197913 0.000212084 7.04746e-05)
(-0.0193292 3.88706e-05 5.98077e-05)
(-0.0223614 0.000402808 4.865e-05)
(-0.0211654 0.00033752 -3.02525e-05)
(-0.0202863 0.000243363 -7.74959e-05)
(-0.0197409 0.000106162 -8.90276e-05)
(-0.0230401 0.000402511 1.90248e-05)
(-0.0220995 0.000355632 -3.45519e-05)
(-0.0211663 0.000265238 -6.4433e-05)
(-0.0205317 0.000136392 -9.29323e-05)
)
;
    }
    procBoundary5to7
    {
        type            processor;
        value           nonuniform List<vector> 
44
(
(-0.0195544 2.30849e-05 -7.07169e-05)
(-0.0176027 1.68371e-05 -0.000117835)
(-0.0194102 -6.85889e-06 -0.000253609)
(-0.0173744 -1.36194e-05 -0.000202058)
(-0.0190941 -5.17295e-05 -0.000235935)
(-0.0169123 -3.20891e-05 2.57863e-05)
(-0.0182209 -4.03081e-05 0.000214255)
(-0.0158604 -5.23234e-05 0.000888771)
(-0.0178191 4.04413e-05 9.56972e-05)
(-0.0195544 2.30849e-05 -7.07169e-05)
(-0.0172348 5.50058e-05 -0.000133535)
(-0.0190698 4.28058e-05 -0.000226416)
(-0.0170829 4.509e-05 -0.00017059)
(-0.0188346 -1.24705e-05 -0.000171885)
(-0.0167517 8.24066e-05 5.44213e-06)
(-0.0181533 2.09541e-05 0.000105664)
(-0.0158523 0.000283006 0.000631003)
(-0.017588 -6.29019e-05 4.24406e-05)
(-0.0172348 5.50058e-05 -0.000133535)
(-0.0193323 -5.24425e-05 -6.7032e-05)
(-0.0172348 5.50058e-05 -0.000133535)
(-0.0190698 4.28058e-05 -0.000226416)
(-0.0176193 0.000162365 -0.000142481)
(-0.0191675 0.000162223 -0.000107734)
(-0.0171253 0.000280845 -1.96743e-05)
(-0.0182125 0.000271388 0.000156249)
(-0.0162891 0.000628826 0.00034772)
(-0.0181693 -4.94595e-05 -2.90458e-05)
(-0.0198323 -6.60843e-05 -8.52688e-05)
(-0.0180139 -6.21259e-05 -8.33935e-05)
(-0.0176193 0.000162365 -0.000142481)
(-0.0197596 -8.3766e-05 -0.000111407)
(-0.0176193 0.000162365 -0.000142481)
(-0.0191675 0.000162223 -0.000107734)
(-0.0184483 0.000584963 -4.81744e-05)
(-0.0191428 0.000486329 9.44689e-05)
(-0.0171747 0.00115826 7.69124e-05)
(-0.0192084 -1.48102e-05 -3.41414e-05)
(-0.0206172 -1.74219e-05 -6.39494e-05)
(-0.0191359 -1.75747e-05 -2.99361e-05)
(-0.0205294 -2.57001e-05 -2.86131e-05)
(-0.0188951 -4.61516e-05 4.00516e-05)
(-0.0184483 0.000584963 -4.81744e-05)
(-0.0200967 -6.31122e-05 8.26713e-05)
)
;
    }
}


// ************************************************************************* //
