/*--------------------------------*- C++ -*----------------------------------*\
| =========                 |                                                 |
| \\      /  F ield         | OpenFOAM: The Open Source CFD Toolbox           |
|  \\    /   O peration     | Version:  4.x                                   |
|   \\  /    A nd           | Web:      www.OpenFOAM.org                      |
|    \\/     M anipulation  |                                                 |
\*---------------------------------------------------------------------------*/
FoamFile
{
    version     2.0;
    format      ascii;
    class       volScalarField;
    location    "14.5";
    object      rho;
}
// * * * * * * * * * * * * * * * * * * * * * * * * * * * * * * * * * * * * * //

dimensions      [1 -3 0 0 0 0 0];

internalField   nonuniform List<scalar> 
87
(
6699.13
6698.48
6697.58
6696.65
6695.73
6694.88
6694.3
6693.92
6876.39
6698.7
6697.67
6696.46
6695.41
6694.71
6694.56
6695.32
6696.43
6700.45
6697.77
6696.65
6695.51
6694.9
6695.25
6696.57
6698.63
6700.6
6703.8
6698.94
6697.68
6696.49
6695.69
6695.11
6694.53
6694.55
6694.35
6697.14
6698.79
6696.4
6695.44
6695.52
6696.15
6696.83
6698.49
6699.28
6701.77
6697
6696.04
6696.25
6697.59
6699.62
6700.9
6702.22
6702.04
6701.17
6700.15
6697.97
6696.65
6695.9
6695.38
6694.79
6694.98
6694.76
6699.21
6694.92
6694.21
6695.94
6697.07
6698.25
6698.86
6700.07
6700.06
6705.59
6699.27
6697.72
6698.42
6699.24
6700.48
6701.42
6702.35
6702.72
6705.15
6699.64
6698.75
6697.93
6700.4
6698.65
6698.98
)
;

boundaryField
{
    inlet
    {
        type            calculated;
        value           nonuniform 0();
    }
    outlet
    {
        type            calculated;
        value           uniform 6700;
    }
    wall
    {
        type            calculated;
        value           nonuniform List<scalar> 
57
(
6699.13
6698.7
6697.77
6698.48
6697.67
6696.65
6697.58
6696.46
6695.51
6696.65
6695.41
6694.9
6695.73
6694.71
6695.25
6694.88
6694.56
6696.57
6694.3
6695.32
6698.63
6693.92
6696.43
6700.6
6876.39
6700.45
6703.8
6699.13
6698.94
6700.15
6699.64
6698.48
6697.68
6697.97
6698.75
6697.58
6696.49
6696.65
6697.93
6696.65
6695.69
6695.9
6695.73
6695.11
6695.38
6694.88
6694.53
6694.79
6694.3
6694.55
6694.98
6693.92
6694.35
6694.76
6876.39
6697.14
6699.21
)
;
    }
    procBoundary1to0
    {
        type            processor;
        value           nonuniform List<scalar> 
12
(
6699.27
6698.94
6698.45
6698.98
6698.27
6697.47
6699.43
6693.53
6698.8
6699.59
6699.77
6698.93
)
;
    }
    procBoundary1to3
    {
        type            processor;
        value           nonuniform List<scalar> 
27
(
6697.54
6696.52
6695.53
6694.98
6695.24
6696.19
6697.76
6699.15
6746.11
6696.25
6695.75
6695.82
6696.44
6697.64
6698.86
6700.27
6701.38
6703.96
6697.45
6697.34
6697.81
6698.47
6699.33
6700.24
6701.12
6701.94
6704.03
)
;
    }
    procBoundary1to5
    {
        type            processor;
        value           nonuniform List<scalar> 
32
(
6697.22
6696.73
6696.13
6696.3
6696
6696.72
6698.38
6698.67
6699.32
6699.67
6700.46
6700.29
6704.03
6698.59
6698.77
6699.37
6700.11
6700.89
6701.69
6702.17
6705.39
6699.46
6699.07
6697.22
6698.38
6698.63
6699.33
6698.38
6698.59
6699.3
6698.59
6699.11
)
;
    }
    procBoundary1to7
    {
        type            processor;
        value           uniform 6698.41;
    }
}


// ************************************************************************* //
