/*--------------------------------*- C++ -*----------------------------------*\
| =========                 |                                                 |
| \\      /  F ield         | OpenFOAM: The Open Source CFD Toolbox           |
|  \\    /   O peration     | Version:  4.x                                   |
|   \\  /    A nd           | Web:      www.OpenFOAM.org                      |
|    \\/     M anipulation  |                                                 |
\*---------------------------------------------------------------------------*/
FoamFile
{
    version     2.0;
    format      ascii;
    class       volScalarField;
    location    "14.5";
    object      Sm;
}
// * * * * * * * * * * * * * * * * * * * * * * * * * * * * * * * * * * * * * //

dimensions      [1 -3 -1 0 0 0 0];

internalField   nonuniform List<scalar> 
87
(
3.71642e-65
5.88538e-65
3.796e-65
5.11414e-65
3.95215e-65
4.18519e-65
4.41782e-65
5.0375e-65
4.80479e-65
3.63808e-65
3.25219e-65
4.64762e-65
4.18412e-65
3.40966e-65
5.03758e-65
6.58758e-65
4.57237e-65
3.95224e-65
3.48439e-65
5.49803e-65
5.8095e-65
7.12838e-65
5.50213e-65
4.33989e-65
4.95978e-65
4.57224e-65
4.4948e-65
6.65027e-65
5.6484e-65
5.34273e-65
6.19809e-65
5.81191e-65
6.58759e-65
8.37017e-65
7.28471e-65
6.35456e-65
7.18857e-65
5.10484e-65
6.34891e-65
6.9724e-65
7.28402e-65
5.65722e-65
7.51733e-65
7.59453e-65
5.50187e-65
8.12189e-65
6.57768e-65
6.19446e-65
5.26768e-65
5.26939e-65
7.36196e-65
8.05944e-65
1.03066e-64
4.88205e-65
7.03299e-65
5.72321e-65
7.66396e-65
7.97873e-65
5.73436e-65
8.44723e-65
7.05239e-65
5.7348e-65
4.18471e-65
5.55272e-65
7.02974e-65
5.64871e-65
6.119e-65
6.97357e-65
6.97457e-65
6.58712e-65
7.207e-65
4.41706e-65
7.88154e-65
6.33979e-65
5.10732e-65
9.0615e-65
8.29047e-65
8.75652e-65
6.81936e-65
7.90431e-65
3.48714e-65
6.57109e-65
5.26299e-65
8.05205e-65
7.0314e-65
9.97617e-65
5.72151e-65
)
;

boundaryField
{
    inlet
    {
        type            calculated;
        value           nonuniform 0();
    }
    outlet
    {
        type            calculated;
        value           uniform 0;
    }
    wall
    {
        type            calculated;
        value           uniform 0;
    }
    procBoundary1to0
    {
        type            processor;
        value           nonuniform List<scalar> 
12
(
1.70376e-65
4.25605e-65
6.89242e-65
6.18843e-65
6.95808e-65
4.95276e-65
4.71547e-65
8.26444e-65
4.56039e-65
4.95167e-65
5.48908e-65
8.04454e-65
)
;
    }
    procBoundary1to3
    {
        type            processor;
        value           nonuniform List<scalar> 
27
(
6.97208e-65
3.25354e-65
5.8109e-65
2.55721e-65
4.10757e-65
3.02249e-65
4.72723e-65
4.26194e-65
4.18503e-65
7.51261e-65
6.27259e-65
8.9855e-65
8.52248e-65
7.59433e-65
6.27717e-65
6.04447e-65
6.58678e-65
8.91196e-65
7.6658e-65
8.98001e-65
8.82784e-65
8.52157e-65
6.12163e-65
6.27678e-65
8.52423e-65
7.12924e-65
7.43902e-65
)
;
    }
    procBoundary1to5
    {
        type            processor;
        value           nonuniform List<scalar> 
32
(
6.81715e-65
8.05871e-65
6.35475e-65
6.74234e-65
7.59479e-65
8.4471e-65
6.8131e-65
5.65472e-65
5.81119e-65
6.66448e-65
8.21435e-65
8.52452e-65
7.90446e-65
8.4314e-65
6.03857e-65
7.51434e-65
5.73384e-65
4.57203e-65
7.28414e-65
5.42472e-65
8.67932e-65
6.34923e-65
4.80238e-65
6.81715e-65
6.8131e-65
6.97165e-65
7.04548e-65
6.8131e-65
8.4314e-65
6.81418e-65
8.4314e-65
8.20948e-65
)
;
    }
    procBoundary1to7
    {
        type            processor;
        value           uniform 9.91153e-65;
    }
}


// ************************************************************************* //
