/*--------------------------------*- C++ -*----------------------------------*\
| =========                 |                                                 |
| \\      /  F ield         | OpenFOAM: The Open Source CFD Toolbox           |
|  \\    /   O peration     | Version:  4.x                                   |
|   \\  /    A nd           | Web:      www.OpenFOAM.org                      |
|    \\/     M anipulation  |                                                 |
\*---------------------------------------------------------------------------*/
FoamFile
{
    version     2.0;
    format      ascii;
    class       volScalarField;
    location    "38";
    object      p;
}
// * * * * * * * * * * * * * * * * * * * * * * * * * * * * * * * * * * * * * //

dimensions      [1 -1 -2 0 0 0 0];

internalField   nonuniform List<scalar> 
114
(
69.1813
-16.359
62.7001
-33.261
55.8913
-46.5599
1.39418
68.5519
-16.9444
62.3865
-34.6118
56.189
-49.7124
75.0091
4.61853
68.3987
-12.7482
61.7434
-29.4866
53.7364
-44.5515
-1858.66
-1803.17
-1877.85
-1809.27
-1898.01
-1814.34
-1919.54
-1817.35
-1943.18
-1858.42
-1803.06
-1877.4
-1809.56
-1896.69
-1815.37
-1915.89
-1819.74
-1933.6
-1857.13
-1803.24
-1875.47
-1809.64
-1894.24
-1815.47
-1913.15
-1820.14
-1930.93
-1856.22
-1803.24
-3735.72
-3680.78
-3754.66
-3687.19
-3773.98
-3693.15
-3793.59
-3698.22
-3812.27
-3735.87
-3680.81
-3755.05
-3687.37
-3774.59
-3693.47
-3794.51
-3698.52
-3814.21
-3735.2
-3680.83
-3753.76
-3687.61
-3772.22
-3694.53
-3790.1
-3701.26
-3805.83
-3735.19
-3681.02
-3754.06
-3687.85
-5613.97
-5559.1
-5633.28
-5565.2
-5653.94
-5570.1
-5677.33
-5571.53
-5709.34
-5613.93
-5559.05
-5633.23
-5565.24
-5653.45
-5570.51
-5675.29
-5573.31
-5699.58
-5613.37
-5558.97
-5632.44
-5565.47
-5652.38
-5571.18
-5673.81
-5574.79
-5698.27
-5613.28
-5558.98
-5632.28
-5565.38
-5652.01
-5571.09
)
;

boundaryField
{
    inlet
    {
        type            calculated;
        value           nonuniform 0();
    }
    outlet
    {
        type            calculated;
        value           nonuniform List<scalar> 
12
(
0
0
0
-1877.91
-1877.91
-1877.91
-3755.83
-3755.83
-3755.83
-5633.74
-5633.74
-5633.74
)
;
    }
    wall
    {
        type            calculated;
        value           nonuniform List<scalar> 
66
(
-6552.93
-6552.88
-6552.33
-6552.24
-6498.06
-6498
-6497.93
-6497.94
-6572.24
-6572.19
-6571.39
-6571.24
-6504.15
-6504.2
-6504.42
-6504.33
-6592.89
-6592.4
-6591.34
-6590.97
-6509.06
-6509.47
-6510.14
-6510.05
-6616.29
-6614.24
-6612.76
-6510.49
-6512.27
-6513.74
-6650.36
-6638.2
-6636.78
-1858.66
-3735.72
-5613.97
-1803.17
-3680.78
-5559.1
-1877.85
-3754.66
-5633.28
69.1813
-1809.27
-3687.19
-5565.2
-16.359
-1898.01
-3773.98
-5653.94
62.7001
-1814.34
-3693.15
-5570.1
-33.3464
-1919.54
-3793.59
-5677.33
55.8913
-1817.35
-3698.22
-5571.53
-46.5599
-1943.18
-3812.27
-5709.34
)
;
    }
    procBoundary5to1
    {
        type            processor;
        value           nonuniform List<scalar> 
32
(
1946.75
1856.11
1942.15
1833.8
1940.27
1810.39
1876.51
1946.47
1855.9
1941.47
1834.46
1939.02
1812.69
1952.62
1878.4
1946.33
1859.1
1940.87
1840.04
1936.67
1822.72
20.2545
75.447
1.88673
1.88673
1.88673
20.1456
75.1808
75.1808
75.1808
22.1901
22.1901
)
;
    }
    procBoundary5to4
    {
        type            processor;
        value           nonuniform List<scalar> 
12
(
-1796.54
-1796.23
-1796.23
-1796.33
-3674.06
-3673.96
-3673.78
-3673.99
-5552.52
-5552.33
-5552.18
-5552.21
)
;
    }
    procBoundary5to7
    {
        type            processor;
        value           nonuniform List<scalar> 
44
(
74.8008
2.7172
68.2533
-15.7169
62.4443
-34.1064
57.1235
-50.0309
21.2054
74.8008
-1874.18
-1809.7
-1892.47
-1815.4
-1910.54
-1821.33
-1927.16
-1855.71
-1874.18
-1803.13
-1874.18
-1809.7
-3773.11
-3693.97
-3792.02
-3699.1
-3809.56
-3734.69
-3681.05
-3753.1
-3773.11
-3687.69
-3773.11
-3693.97
-5672.83
-5574.98
-5695.96
-5612.78
-5558.84
-5631.49
-5565.41
-5650.71
-5672.83
-5571.48
)
;
    }
}


// ************************************************************************* //
