/*--------------------------------*- C++ -*----------------------------------*\
| =========                 |                                                 |
| \\      /  F ield         | OpenFOAM: The Open Source CFD Toolbox           |
|  \\    /   O peration     | Version:  4.x                                   |
|   \\  /    A nd           | Web:      www.OpenFOAM.org                      |
|    \\/     M anipulation  |                                                 |
\*---------------------------------------------------------------------------*/
FoamFile
{
    version     2.0;
    format      ascii;
    class       volScalarField;
    location    "38";
    object      pSmooth;
}
// * * * * * * * * * * * * * * * * * * * * * * * * * * * * * * * * * * * * * //

dimensions      [1 -1 -2 0 0 0 0];

internalField   nonuniform List<scalar> 
114
(
69.091
0.1
62.6876
0.1
55.8077
0.1
1.50643
68.4626
0.1
62.3444
0.1
56.0755
0.1
74.9105
4.63826
68.2977
0.1
61.6633
0.1
53.6315
0.1
19.2976
74.6584
0.111059
68.5502
0.1
63.4822
0.1
60.449
0.1
19.525
74.7668
0.556234
68.2406
0.1
62.4047
0.1
58.0105
0.1
20.8101
74.5665
2.48502
68.1898
0.1
62.3312
0.1
57.596
0.1
21.7194
74.5817
20.15
74.9584
1.23782
68.5568
0.1
62.6078
0.1
57.5179
0.1
19.9974
74.9235
0.834394
68.3724
0.1
62.2633
0.1
57.1903
0.1
20.6768
74.9091
2.1484
68.123
0.1
61.197
0.1
54.3984
0.1
20.6576
74.7092
1.79847
67.8724
19.8047
74.5605
0.525469
68.4638
0.1
63.5509
0.1
62.1088
0.1
19.8472
74.6091
0.566747
68.417
0.1
63.1405
0.1
60.3215
0.1
20.4164
74.6865
1.3852
68.1991
0.1
62.4689
0.1
58.7992
0.1
20.4806
74.6671
1.50739
68.2798
0.1
62.55
)
;

boundaryField
{
    inlet
    {
        type            zeroGradient;
    }
    outlet
    {
        type            fixedValue;
        value           uniform 0;
    }
    wall
    {
        type            zeroGradient;
    }
    procBoundary5to1
    {
        type            processor;
        value           nonuniform List<scalar> 
32
(
68.7311
0.1
64.1164
0.1
62.2299
0.1
0.1
68.4677
0.1
63.4406
0.1
60.961
0.1
74.5758
0.507887
68.3355
0.1
62.938
0.1
58.8395
0.1
20.3157
75.3514
1.94174
1.94174
1.94174
20.2285
75.1076
75.1076
75.1076
22.2117
22.2117
)
;
    }
    procBoundary5to4
    {
        type            processor;
        value           nonuniform List<scalar> 
12
(
81.3042
81.6116
81.5886
81.4967
81.6758
81.7806
81.9611
81.7314
81.1378
81.3256
81.4744
81.4399
)
;
    }
    procBoundary5to7
    {
        type            processor;
        value           nonuniform List<scalar> 
44
(
74.72
3.03905
68.1673
0.1
62.3504
0.1
56.8939
0.1
21.4571
74.72
3.75474
68.106
0.1
62.3533
0.1
56.3305
0.1
22.2082
3.75474
74.6525
3.75474
68.106
0.1
61.7046
0.1
56.512
0.1
21.1788
74.6725
2.80374
0.1
68.0316
0.1
61.7046
0.1
58.6386
0.1
20.997
74.8217
2.33446
68.2711
0.1
0.1
62.1675
)
;
    }
}


// ************************************************************************* //
