/*--------------------------------*- C++ -*----------------------------------*\
| =========                 |                                                 |
| \\      /  F ield         | OpenFOAM: The Open Source CFD Toolbox           |
|  \\    /   O peration     | Version:  4.x                                   |
|   \\  /    A nd           | Web:      www.OpenFOAM.org                      |
|    \\/     M anipulation  |                                                 |
\*---------------------------------------------------------------------------*/
FoamFile
{
    version     2.0;
    format      ascii;
    class       volScalarField;
    location    "38";
    object      QPartFluidCoeff;
}
// * * * * * * * * * * * * * * * * * * * * * * * * * * * * * * * * * * * * * //

dimensions      [1 -1 -3 -1 0 0 0];

internalField   nonuniform List<scalar> 
114
(
-2.62413e+07
-2.42867e+07
-2.34467e+07
-1.89827e+07
-2.61176e+07
-1.93298e+07
-2.41914e+07
-2.34484e+07
-1.9604e+07
-2.7382e+07
-2.7963e+07
-3.34849e+07
-2.15207e+07
-3.3153e+07
-2.04551e+07
-2.902e+07
-1.95793e+07
-1.7675e+07
-2.47494e+07
-2.07676e+07
-2.22411e+07
-2.21716e+07
-1.90041e+07
-2.52452e+07
-2.12752e+07
-2.19532e+07
-2.79067e+07
-2.407e+07
-2.26465e+07
-1.63471e+07
-2.70575e+07
-2.74915e+07
-3.0832e+07
-3.003e+07
-2.95547e+07
-3.38461e+07
-1.81195e+07
-3.55216e+07
-2.13314e+07
-2.84124e+07
-1.84102e+07
-2.43098e+07
-3.04451e+07
-2.0574e+07
-2.81424e+07
-2.4292e+07
-2.71001e+07
-1.50439e+07
-3.42259e+07
-1.6924e+07
-2.41913e+07
-3.18051e+07
-2.44609e+07
-2.85541e+07
-2.52311e+07
-2.67106e+07
-2.2287e+07
-2.90074e+07
-1.70602e+07
-2.06758e+07
-3.63522e+07
-2.33863e+07
-3.04118e+07
-2.77341e+07
-3.068e+07
-3.60092e+07
-2.91822e+07
-1.60806e+07
-2.47301e+07
-2.59753e+07
-2.60979e+07
-2.46607e+07
-3.79029e+07
-3.09404e+07
-3.03506e+07
-3.67439e+07
-2.77455e+07
-1.77087e+07
-3.91242e+07
-3.20115e+07
-3.32852e+07
-8.29278e+06
-2.29005e+07
-1.50763e+07
-2.57422e+07
-2.01835e+07
-1.95276e+07
-2.39248e+07
-2.64761e+07
-1.66996e+07
-2.32226e+07
-2.74073e+07
-1.67835e+07
-2.31133e+07
-2.72759e+07
-2.56645e+07
-1.82721e+07
-3.01918e+07
-1.78762e+07
-2.02233e+07
-2.44142e+07
-2.90348e+07
-2.62274e+07
-2.08579e+07
-3.16248e+07
-2.34773e+07
-2.74753e+07
-2.15962e+07
-2.39781e+07
-2.16098e+07
-2.44432e+07
-2.24868e+07
-3.4729e+07
-2.85495e+07
)
;

boundaryField
{
    inlet
    {
        type            calculated;
        value           nonuniform 0();
    }
    outlet
    {
        type            calculated;
        value           uniform 0;
    }
    wall
    {
        type            calculated;
        value           uniform 0;
    }
    procBoundary5to1
    {
        type            processor;
        value           nonuniform List<scalar> 
32
(
728.306
461.487
732.424
578.316
565.916
242.164
489.11
612.048
617.199
686.215
575.999
713.108
278.865
596.618
416.997
842.708
671.976
806.907
564.403
729.254
254.013
490.352
419.106
577.917
577.917
577.917
593.709
922.011
922.011
922.011
444.589
444.589
)
;
    }
    procBoundary5to4
    {
        type            processor;
        value           nonuniform List<scalar> 
12
(
729.751
840.371
509.79
532.942
724.177
793.939
652.823
615.313
620.305
648.7
532.774
535.647
)
;
    }
    procBoundary5to7
    {
        type            processor;
        value           nonuniform List<scalar> 
44
(
687.047
483.818
600.259
836.727
943.709
603.795
494.138
467.925
754.07
687.047
495.11
654.598
529.33
621.886
667.397
750.421
464.761
290.321
495.11
764.206
495.11
654.598
383.811
551.123
628.009
580.945
356.683
645.319
691.399
534.664
383.811
492.174
383.811
551.123
446.487
616.905
370.348
550.359
529.557
566.615
655.786
390.566
446.487
374.916
)
;
    }
}


// ************************************************************************* //
