/*--------------------------------*- C++ -*----------------------------------*\
| =========                 |                                                 |
| \\      /  F ield         | OpenFOAM: The Open Source CFD Toolbox           |
|  \\    /   O peration     | Version:  4.x                                   |
|   \\  /    A nd           | Web:      www.OpenFOAM.org                      |
|    \\/     M anipulation  |                                                 |
\*---------------------------------------------------------------------------*/
FoamFile
{
    version     2.0;
    format      ascii;
    class       volVectorField;
    location    "51.5";
    object      Urel;
}
// * * * * * * * * * * * * * * * * * * * * * * * * * * * * * * * * * * * * * //

dimensions      [0 1 -1 0 0 0 0];

internalField   nonuniform List<vector> 
108
(
(-0.0233591 0.0006101 0.000514136)
(-0.0214275 0.000543924 0.000477842)
(-0.0223709 0.000549784 0.000462326)
(-0.0209184 0.000457936 0.000414423)
(-0.0221242 0.000429114 0.000362479)
(-0.0207928 0.000335626 0.000315667)
(-0.0220892 0.00030241 0.000261827)
(-0.0207426 0.000227083 0.000213169)
(-0.0221066 0.000194901 0.000121787)
(-0.023168 0.000627379 0.000499304)
(-0.0210359 0.000544651 0.000456645)
(-0.0218877 0.000570989 0.000430481)
(-0.0201013 0.000453563 0.000376638)
(-0.021344 0.000443692 0.000323037)
(-0.0196359 0.000333467 0.000274046)
(-0.0210846 0.000310757 0.000221301)
(-0.0193335 0.000228202 0.000178541)
(-0.0209485 0.000191403 0.00010869)
(-0.022977 0.000423705 0.000486823)
(-0.0206874 0.000369845 0.000438159)
(-0.0214409 0.000383478 0.000400058)
(-0.019408 0.000304293 0.000339453)
(-0.0206352 0.000299839 0.000283529)
(-0.0186621 0.000220318 0.000234848)
(-0.0201868 0.000195919 0.000201532)
(-0.0181681 0.000140135 0.000151701)
(-0.0199262 0.00010289 0.000119893)
(-0.0228909 0.000143696 0.000497946)
(-0.0205544 0.000110474 0.00044003)
(-0.0212585 0.000121896 0.000412212)
(-0.0191409 9.83593e-05 0.000347905)
(-0.0203419 0.000102999 0.000302402)
(-0.018267 7.73613e-05 0.000240694)
(-0.0198141 6.19973e-05 0.000206376)
(-0.0177348 5.9854e-05 0.000158666)
(-0.0195101 5.90683e-05 0.000123612)
(-0.0234348 0.000587184 0.000185672)
(-0.0215592 0.000524165 0.000180631)
(-0.0225373 0.000514354 0.000154711)
(-0.0211576 0.000430844 0.000163611)
(-0.0223808 0.000399105 0.000130618)
(-0.0211125 0.000318936 0.000118734)
(-0.0224021 0.000282783 6.16089e-05)
(-0.0211208 0.000216644 3.93446e-05)
(-0.0224814 0.000189334 -3.24978e-05)
(-0.0232677 0.000604791 0.000157037)
(-0.0212359 0.00053033 0.000155061)
(-0.0221274 0.000544169 0.000110169)
(-0.0205018 0.000435175 0.000121134)
(-0.0217248 0.000420799 7.8969e-05)
(-0.0201836 0.000319378 7.72722e-05)
(-0.0215635 0.000293431 2.0259e-05)
(-0.0199887 0.000224865 1.38198e-05)
(-0.0215183 0.000208095 -4.63634e-05)
(-0.0230844 0.000415806 0.000129899)
(-0.0209013 0.00035744 0.000128449)
(-0.0217026 0.00036599 7.58182e-05)
(-0.0198282 0.000292467 8.35199e-05)
(-0.0210469 0.000275351 3.50372e-05)
(-0.0192423 0.000209118 3.92704e-05)
(-0.0207147 0.000180456 -9.03279e-06)
(-0.0188749 0.000148503 -1.69191e-06)
(-0.0205497 0.000131935 -3.2708e-05)
(-0.0229954 0.000116398 0.000126011)
(-0.0207619 8.99243e-05 0.000116054)
(-0.0215138 9.00245e-05 6.5051e-05)
(-0.0195603 8.1719e-05 7.31828e-05)
(-0.0207641 8.12413e-05 1.6713e-05)
(-0.0188718 7.89339e-05 2.79913e-05)
(-0.0203648 7.59252e-05 -1.60064e-05)
(-0.0184632 8.17547e-05 7.54249e-06)
(-0.0201606 8.87004e-05 -4.38915e-06)
(-0.0235505 0.000574094 1.3151e-05)
(-0.0218041 0.000515793 1.24581e-05)
(-0.0228393 0.0004972 -2.55198e-05)
(-0.0216697 0.000413097 -3.67298e-06)
(-0.0228955 0.000373081 -3.58729e-05)
(-0.0218375 0.00029991 -3.46691e-05)
(-0.0230888 0.000269448 -0.000106336)
(-0.0220551 0.000225564 -0.000128364)
(-0.0233613 0.000215311 -0.000198024)
(-0.0234001 0.00058797 -3.99529e-06)
(-0.0215215 0.000519555 -1.86713e-06)
(-0.0224721 0.000522636 -4.91762e-05)
(-0.0211127 0.00042155 -3.05204e-05)
(-0.0223221 0.000393251 -7.13694e-05)
(-0.0210914 0.000311744 -6.41544e-05)
(-0.0223788 0.000289728 -0.000128239)
(-0.0211733 0.000249749 -0.000124735)
(-0.0225398 0.000248085 -0.000176358)
(-0.023221 0.000406241 -2.73484e-05)
(-0.0212284 0.000352585 -2.64582e-05)
(-0.0220913 0.000362632 -8.0848e-05)
(-0.0205429 0.000295324 -5.99541e-05)
(-0.0217172 0.000273079 -0.000108398)
(-0.0203178 0.000215013 -8.54824e-05)
(-0.0216302 0.000195364 -0.000139225)
(-0.020276 0.000180163 -0.000115214)
(-0.02167 0.000185001 -0.000152592)
(-0.0231382 0.000102195 -3.18328e-05)
(-0.0211045 9.21927e-05 -2.77096e-05)
(-0.0219193 0.00010203 -7.31903e-05)
(-0.0203005 9.62951e-05 -5.52521e-05)
(-0.0214607 0.000102138 -9.86558e-05)
(-0.0199878 0.000103695 -8.05752e-05)
(-0.0212977 0.000113715 -0.000119027)
(-0.0198847 0.000124796 -7.93233e-05)
(-0.0212764 0.00014854 -9.32206e-05)
)
;

boundaryField
{
    inlet
    {
        type            calculated;
        value           nonuniform List<vector> 
12
(
(-0.01 1.39037e-11 1.71479e-12)
(-0.01 -4.93755e-12 7.87116e-12)
(-0.01 1.49522e-11 1.50595e-11)
(-0.01 -4.03925e-12 2.80446e-11)
(-0.01 2.48811e-11 -2.10504e-12)
(-0.01 -4.05743e-12 2.43632e-12)
(-0.01 1.4598e-11 7.65024e-12)
(-0.01 -2.62167e-12 -2.38975e-12)
(-0.01 2.32204e-11 -3.89802e-12)
(-0.01 -1.34645e-11 -1.24273e-11)
(-0.01 1.54938e-11 -7.46287e-12)
(-0.01 -2.16368e-11 -1.75569e-11)
)
;
    }
    outlet
    {
        type            calculated;
        value           nonuniform 0();
    }
    wall
    {
        type            calculated;
        value           nonuniform List<vector> 
63
(
(8.47951e-12 2.32204e-11 -3.89802e-12)
(1.78934e-11 -1.34645e-11 -1.24273e-11)
(1.61582e-11 1.54938e-11 -7.46287e-12)
(3.23167e-11 -2.16368e-11 -1.75569e-11)
(2.06127e-11 2.66605e-11 -4.25614e-12)
(3.49496e-11 2.62937e-12 -5.71206e-12)
(4.66762e-11 3.93572e-11 -5.60873e-12)
(7.59829e-11 -1.90977e-11 -2.46467e-11)
(3.42558e-11 2.46112e-11 -3.23292e-12)
(4.84195e-11 -1.03503e-11 2.5989e-12)
(5.45875e-11 2.10753e-11 5.40018e-12)
(1.71231e-10 1.89896e-11 -2.30568e-11)
(6.08109e-11 1.20246e-11 1.86538e-12)
(9.04561e-11 5.14923e-12 8.37875e-12)
(8.14653e-11 2.23129e-11 9.10938e-13)
(1.69254e-10 -2.61107e-11 -5.06665e-12)
(3.33942e-11 2.57327e-11 1.3468e-11)
(9.50203e-11 1.24123e-11 2.99534e-11)
(1.0668e-10 1.14334e-11 2.5788e-11)
(2.70804e-10 -6.31512e-11 -1.96178e-11)
(3.65526e-11 1.31313e-11 1.54271e-11)
(4.94914e-11 -5.91148e-11 5.26326e-11)
(1.72347e-10 -6.41946e-12 7.00524e-11)
(3.26672e-10 -5.48714e-11 -1.96004e-11)
(8.19005e-12 -2.24702e-11 8.94411e-11)
(3.63881e-11 -1.00142e-10 4.01368e-11)
(2.32155e-10 9.18142e-11 9.22695e-11)
(3.61769e-10 3.77823e-11 4.23683e-11)
(2.01731e-11 6.30654e-12 1.5538e-10)
(9.59751e-11 -3.90375e-11 1.6296e-10)
(2.65734e-10 1.59533e-10 1.30015e-10)
(2.06738e-09 -7.86078e-10 3.81816e-11)
(7.46088e-11 -3.8184e-12 7.57126e-11)
(9.26378e-11 -7.40607e-11 1.78031e-10)
(1.57287e-10 4.32059e-11 1.64401e-10)
(8.09873e-10 1.09945e-10 1.23687e-10)
(9.18996e-12 1.39037e-11 1.71479e-12)
(1.36559e-11 2.48811e-11 -2.10504e-12)
(8.47951e-12 2.32204e-11 -3.89802e-12)
(3.34214e-11 3.0571e-11 4.23767e-12)
(3.72536e-11 2.34307e-11 3.43989e-12)
(2.06127e-11 2.66605e-11 -4.25614e-12)
(5.8971e-11 2.62256e-11 1.58835e-11)
(5.24127e-11 1.97375e-11 1.84392e-11)
(3.42558e-11 2.46112e-11 -3.23292e-12)
(7.8285e-11 4.48131e-11 5.10672e-11)
(8.78229e-11 2.99686e-11 1.68029e-11)
(6.08109e-11 1.20246e-11 1.86538e-12)
(9.03322e-11 1.18701e-10 6.80499e-11)
(1.07574e-10 4.77203e-11 5.6086e-11)
(3.33942e-11 2.57327e-11 1.3468e-11)
(6.41085e-11 1.05155e-10 1.40264e-10)
(8.20943e-11 3.61331e-11 5.76293e-11)
(3.65526e-11 1.31313e-11 1.54271e-11)
(5.38383e-11 5.12598e-11 2.8742e-10)
(8.57768e-11 -3.16363e-12 1.46029e-10)
(8.19005e-12 -2.24702e-11 8.94411e-11)
(-4.71717e-11 1.494e-10 5.26481e-10)
(7.56445e-11 6.71451e-11 3.12673e-10)
(2.01731e-11 6.30654e-12 1.5538e-10)
(-2.2772e-10 4.09932e-11 8.6676e-10)
(2.17609e-10 -2.5387e-11 2.79296e-10)
(7.46088e-11 -3.8184e-12 7.57126e-11)
)
;
    }
    procBoundary4to0
    {
        type            processor;
        value           nonuniform List<vector> 
36
(
(-0.023381 0.00059209 0.000878246)
(-0.0214323 0.000530032 0.000809586)
(-0.0224179 0.00053457 0.000806631)
(-0.020976 0.000446929 0.00070555)
(-0.0222193 0.00042003 0.000656774)
(-0.0208855 0.000330982 0.000565501)
(-0.0222 0.000292319 0.000510367)
(-0.0208218 0.000197766 0.000440389)
(-0.0221716 0.000139363 0.000363405)
(-0.023196 0.00061123 0.000892036)
(-0.021043 0.000533992 0.000804848)
(-0.0219375 0.000567319 0.000801612)
(-0.0201477 0.000450253 0.000673125)
(-0.0214147 0.00044408 0.000625312)
(-0.0196854 0.000329735 0.000514291)
(-0.0211624 0.000289721 0.000466553)
(-0.0193641 0.00020806 0.000380496)
(-0.0210007 0.000140041 0.000331382)
(-0.0229973 0.000402167 0.000893498)
(-0.0206881 0.000350288 0.00079582)
(-0.021477 0.000357446 0.000778656)
(-0.0194014 0.000279534 0.000637045)
(-0.0206663 0.000256807 0.000583128)
(-0.0186291 0.000193738 0.000463211)
(-0.0202143 0.000151951 0.000416854)
(-0.0182058 0.000118675 0.000321627)
(-0.0199389 7.37097e-05 0.000265484)
(-0.0229231 0.000113793 0.000891504)
(-0.0205973 9.08804e-05 0.000797194)
(-0.0213465 7.84777e-05 0.000783258)
(-0.0192531 6.47767e-05 0.000642987)
(-0.0204872 5.21323e-05 0.000598377)
(-0.0184728 5.01841e-05 0.000472678)
(-0.0200228 5.23103e-05 0.000423755)
(-0.0180219 3.82638e-05 0.000331746)
(-0.0197393 3.65402e-05 0.000271671)
)
;
    }
    procBoundary4to5
    {
        type            processor;
        value           nonuniform List<vector> 
12
(
(-0.0206508 0.000130812 6.28169e-05)
(-0.0190668 0.000138579 7.18446e-05)
(-0.0178847 8.21692e-05 8.21931e-05)
(-0.0174956 5.86592e-05 0.000102331)
(-0.0211196 0.000136742 -4.3064e-05)
(-0.0198665 0.000170909 -4.45419e-05)
(-0.0186476 0.000125177 -2.83926e-05)
(-0.0182523 9.87623e-05 5.75828e-07)
(-0.0223159 0.000179179 -0.00020628)
(-0.021308 0.000240193 -0.000165114)
(-0.0202979 0.000202476 -0.000127455)
(-0.019849 0.000180365 -6.35822e-05)
)
;
    }
    procBoundary4to6
    {
        type            processor;
        value           nonuniform List<vector> 
27
(
(-0.0229144 -0.000197473 0.000486607)
(-0.0205582 -0.00017444 0.000433472)
(-0.0212856 -0.000177202 0.000408513)
(-0.0191481 -0.000132296 0.000348748)
(-0.0203991 -0.000115195 0.000306147)
(-0.018304 -7.40799e-05 0.000250832)
(-0.0198873 -4.01378e-05 0.000216131)
(-0.017865 -1.31638e-05 0.000179783)
(-0.0196175 3.17186e-05 0.000161615)
(-0.0230388 -0.000228842 8.76577e-05)
(-0.0208285 -0.0001907 0.000109372)
(-0.021605 -0.000204668 5.59969e-05)
(-0.0196906 -0.000144394 7.51684e-05)
(-0.0208952 -0.000135638 2.92522e-05)
(-0.01903 -7.35835e-05 4.82225e-05)
(-0.0204913 -5.17579e-05 3.24123e-05)
(-0.0186031 -1.57972e-06 3.61773e-05)
(-0.0202598 2.44223e-05 4.09599e-05)
(-0.0232048 -0.000226556 -4.78981e-05)
(-0.0212143 -0.000181485 -2.1065e-05)
(-0.0220439 -0.000182282 -5.7352e-05)
(-0.0204786 -0.000128655 -3.07233e-05)
(-0.021611 -0.00010397 -6.84436e-05)
(-0.0201538 -4.75828e-05 -4.37808e-05)
(-0.0214042 -7.57284e-06 -7.08763e-05)
(-0.0199394 3.99671e-05 -4.08878e-05)
(-0.0212889 7.5752e-05 -4.29505e-05)
)
;
    }
}


// ************************************************************************* //
