/*--------------------------------*- C++ -*----------------------------------*\
| =========                 |                                                 |
| \\      /  F ield         | OpenFOAM: The Open Source CFD Toolbox           |
|  \\    /   O peration     | Version:  4.x                                   |
|   \\  /    A nd           | Web:      www.OpenFOAM.org                      |
|    \\/     M anipulation  |                                                 |
\*---------------------------------------------------------------------------*/
FoamFile
{
    version     2.0;
    format      ascii;
    class       volVectorField;
    location    "41.5";
    object      GField;
}
// * * * * * * * * * * * * * * * * * * * * * * * * * * * * * * * * * * * * * //

dimensions      [1 -2 -1 0 0 0 0];

internalField   nonuniform List<vector> 
114
(
(55.1573 -0.612336 -2.86206)
(111.881 -1.01579 -5.40675)
(63.7834 -0.703137 -2.59971)
(117.314 -1.08549 -4.06897)
(69.4069 -0.295674 -1.58984)
(122.613 -0.67377 -2.68325)
(99.2813 0.265491 -4.55396)
(41.674 0.11168 -2.61127)
(103.681 0.631806 -5.38123)
(49.4463 0.338395 -2.39175)
(107.104 0.267467 -4.54888)
(54.2142 -0.311726 -1.97299)
(110.02 -0.352284 -3.75808)
(56.2118 -0.947323 -1.1204)
(112.684 -0.515269 -2.58466)
(100.04 3.33281 -4.51991)
(44.4062 1.65306 -2.47734)
(106.17 3.4927 -4.79937)
(55.5664 1.98527 -2.08707)
(111.965 3.43539 -3.72182)
(63.3958 1.69087 -1.44897)
(116.827 2.88915 -2.63927)
(68.4606 1.20286 -0.696324)
(121.43 2.42506 -1.69418)
(100.389 1.67366 -3.80851)
(48.8781 0.819536 -2.26405)
(109.455 1.59615 -4.01164)
(64.1274 0.760982 -2.03963)
(118.902 1.35262 -3.25138)
(76.6578 0.264867 -1.51279)
(127.464 0.712198 -2.36991)
(85.6163 -0.730358 -0.718366)
(133.596 -0.168685 -1.60184)
(26.7817 0.0144693 -1.80988)
(96.0791 -0.111609 -3.89076)
(23.0072 0.238065 -1.22954)
(98.2526 0.304993 -2.09095)
(97.6143 1.2119 -7.69805)
(33.7822 0.262139 -3.59737)
(96.5287 1.30194 -7.94348)
(28.7468 0.645226 -2.84594)
(95.0838 1.64086 -5.8935)
(22.6823 0.25639 -2.14867)
(93.9824 0.75539 -3.76131)
(15.5453 -0.128851 -1.44108)
(94.292 0.477987 -1.41865)
(97.855 3.99058 -7.82589)
(36.5228 1.94341 -4.03843)
(98.092 4.60229 -8.32512)
(35.7385 1.87525 -3.4104)
(98.7984 4.45359 -6.4942)
(34.6666 1.52651 -2.83909)
(99.8917 3.96116 -5.12019)
(32.424 0.953023 -2.55274)
(101.985 3.06822 -3.59723)
(98.4929 2.34175 -7.08304)
(43.4697 1.13494 -4.09465)
(103.073 2.38189 -7.26594)
(51.3109 0.908265 -4.05005)
(107.861 1.90956 -5.93166)
(57.6217 0.384307 -4.05305)
(112.221 1.15703 -4.7381)
(61.6739 -0.45712 -3.42154)
(116.244 0.185295 -3.73969)
(12.1673 -0.812042 -1.61176)
(92.502 -0.872685 -1.92977)
(95.5322 1.43651 -6.74085)
(31.568 0.285447 -3.25018)
(92.7113 0.914683 -6.18456)
(22.3612 0.0640889 -1.95735)
(90.3802 0.237871 -4.00184)
(13.2618 -0.321342 -1.08643)
(88.568 -1.09712 -1.9796)
(4.48285 -0.230983 -0.48346)
(87.6457 -1.15716 -0.125772)
(96.4675 3.90431 -6.24176)
(33.432 1.61662 -3.09674)
(94.2894 4.28082 -5.75596)
(26.7701 1.45845 -2.18961)
(92.6714 3.72406 -3.95767)
(20.4401 0.944811 -1.41394)
(91.7429 2.57127 -2.19809)
(13.0772 0.632965 -0.817957)
(91.8152 0.88461 -0.77351)
(97.2772 2.47205 -5.86436)
(40.1099 1.31621 -3.40458)
(99.235 3.04238 -5.77426)
(43.8219 1.22316 -3.30372)
(101.768 2.57226 -4.4515)
(47.0699 0.581104 -2.80874)
(102.868 1.9676 -2.89421)
(47.9608 0.380196 -2.67347)
(104.943 0.91676 -1.98228)
(94.9122 1.97417 -5.67085)
(28.7572 1.05318 -2.2893)
(90.558 2.79551 -4.6232)
(18.5288 0.731977 -1.55771)
(88.4576 2.23484 -2.66158)
(10.5269 0.49828 -0.783747)
(87.4275 1.5012 -0.362862)
(3.62727 0.237804 -0.37395)
(94.9672 4.87093 -4.8485)
(33.5148 2.31574 -2.33734)
(93.0373 5.22064 -4.28989)
(28.7109 1.77808 -2.04383)
(92.4383 4.57109 -3.37846)
(25.2093 1.57571 -1.54541)
(92.9298 3.77741 -2.05625)
(96.5634 2.74855 -4.38921)
(40.6105 1.31139 -2.68458)
(98.3642 2.66904 -4.43577)
(43.7015 0.980965 -3.11667)
(100.376 2.02782 -4.0271)
(46.4562 0.599038 -2.43492)
)
;

boundaryField
{
    inlet
    {
        type            calculated;
        value           uniform (67 0 0);
    }
    outlet
    {
        type            calculated;
        value           nonuniform 0();
    }
    wall
    {
        type            calculated;
        value           uniform (0 0 0);
    }
    procBoundary2to0
    {
        type            processor;
        value           nonuniform List<vector> 
44
(
(54.1957 -1.24351 -3.11765)
(111.321 -1.50041 -5.60474)
(61.4684 -0.433993 -2.95284)
(115.815 -1.04505 -4.98039)
(65.6453 -0.0470335 -2.15378)
(117.763 -0.641198 -3.81136)
(101.022 -1.5641 -5.62631)
(44.6834 -0.526707 -2.76147)
(106.882 -1.14694 -5.67157)
(106.882 -1.14694 -5.67157)
(31.9006 -0.0542133 -2.97168)
(96.1823 -0.145032 -6.30211)
(24.7097 -0.0861043 -1.39684)
(94.9353 -0.475413 -2.87959)
(16.9902 0.381843 -0.476864)
(95.1075 0.169703 -1.026)
(96.9437 -0.662036 -8.87339)
(34.5512 -0.303389 -4.05638)
(97.2996 -0.676469 -8.68939)
(31.9006 -0.0542133 -2.97168)
(96.1823 -0.145032 -6.30211)
(96.1823 -0.145032 -6.30211)
(15.0819 -0.75886 -1.55794)
(91.5518 -1.65032 -2.88167)
(13.2271 -0.289907 -1.9342)
(91.967 -1.07094 -0.0487782)
(95.1373 -0.960417 -6.88585)
(30.0594 -0.481891 -3.64659)
(92.5563 -1.18098 -7.18304)
(21.2042 -0.506639 -2.08637)
(91.1597 -1.35254 -4.44893)
(15.0819 -0.75886 -1.55794)
(91.5518 -1.65032 -2.88167)
(91.5518 -1.65032 -2.88167)
(3.8779 0.215182 -0.598765)
(87.908 -0.291796 -0.47013)
(95.3051 -0.55779 -4.6769)
(29.1134 0.059831 -2.61927)
(90.701 0.384273 -4.69679)
(16.9397 0.331604 -1.61853)
(88.9044 0.756592 -3.65487)
(8.67976 0.277722 -1.02261)
(88.1483 -0.240343 -2.45601)
(3.8779 0.215182 -0.598765)
)
;
    }
    procBoundary2to3
    {
        type            processor;
        value           nonuniform List<vector> 
12
(
(72.0706 -0.882673 -0.944837)
(55.2378 -1.22823 -0.793766)
(71.4167 1.96612 -0.149045)
(91.1434 -1.83516 -0.468416)
(20.145 0.28106 -1.34518)
(8.62094 -0.123043 -1.0269)
(29.991 1.25331 -2.66795)
(63.3721 -1.62787 -3.56847)
(8.90574 -0.773785 -1.97482)
(4.38557e-05 -7.85692e-06 -3.26221e-06)
(6.93622 0.59204 -0.478129)
(46.6269 -0.035052 -2.71044)
)
;
    }
    procBoundary2to6
    {
        type            processor;
        value           nonuniform List<vector> 
32
(
(87.1248 1.52299 0.143001)
(23.2623 1.62066 -1.61607)
(94.7307 2.44265 -1.18626)
(102.718 1.2161 -2.54714)
(48.6311 -0.315365 -2.92444)
(105 -0.017304 -2.39873)
(92.2209 1.16829 -1.75041)
(26.5988 0.737374 -0.539375)
(87.4928 1.3739 -1.18508)
(12.5451 0.324965 -0.378523)
(84.0944 0.685929 -0.642166)
(2.74734 0.085726 -0.0948897)
(82.8089 -0.401617 -0.324944)
(87.1248 1.52299 0.143001)
(23.2623 1.62066 -1.61607)
(3.80178e-05 2.7358e-07 -1.38445e-06)
(94.3833 5.15756 -1.53702)
(30.6199 1.83415 -0.872329)
(91.0549 4.81299 -1.3555)
(21.3463 1.34533 -0.950786)
(88.6086 2.98316 -1.18176)
(13.0814 0.859935 -0.772162)
(23.2623 1.62066 -1.61607)
(102.718 1.2161 -2.54714)
(87.2284 1.11696 -1.31539)
(96.2831 3.04854 -1.70241)
(39.8438 1.43695 -1.13892)
(96.8934 3.22097 -1.73016)
(41.1692 1.07482 -1.75261)
(96.5341 2.32628 -1.72225)
(102.718 1.2161 -2.54714)
(39.9149 0.759225 -1.80294)
)
;
    }
}


// ************************************************************************* //
