/*--------------------------------*- C++ -*----------------------------------*\
| =========                 |                                                 |
| \\      /  F ield         | OpenFOAM: The Open Source CFD Toolbox           |
|  \\    /   O peration     | Version:  4.x                                   |
|   \\  /    A nd           | Web:      www.OpenFOAM.org                      |
|    \\/     M anipulation  |                                                 |
\*---------------------------------------------------------------------------*/
FoamFile
{
    version     2.0;
    format      ascii;
    class       volVectorField;
    location    "41.5";
    object      impParticleForces;
}
// * * * * * * * * * * * * * * * * * * * * * * * * * * * * * * * * * * * * * //

dimensions      [1 1 -2 0 0 0 0];

internalField   nonuniform List<vector> 
114
(
(0.00240206 -1.12119e-06 -8.55566e-05)
(0.00243824 8.20408e-07 -7.99683e-05)
(0.00243589 3.73914e-06 -7.14705e-05)
(0.00247075 7.36904e-06 -6.40976e-05)
(0.00244744 1.2564e-05 -5.46938e-05)
(0.00246037 1.86108e-05 -4.68844e-05)
(0.00231092 5.58003e-06 -8.9808e-05)
(0.00233769 6.45407e-06 -9.07873e-05)
(0.00238151 7.52466e-06 -8.97595e-05)
(0.00239801 8.34441e-06 -8.48569e-05)
(0.00244235 9.40002e-06 -7.97262e-05)
(0.00243542 1.01524e-05 -7.12137e-05)
(0.00247052 1.16496e-05 -6.39756e-05)
(0.00245296 1.34892e-05 -5.4873e-05)
(0.00245442 1.60529e-05 -4.69045e-05)
(0.00228484 1.32837e-05 -8.72625e-05)
(0.00231686 1.42752e-05 -8.85609e-05)
(0.00236017 1.53159e-05 -8.76323e-05)
(0.00237993 1.55481e-05 -8.29649e-05)
(0.00242525 1.61798e-05 -7.79713e-05)
(0.00242233 1.54595e-05 -7.0068e-05)
(0.00245945 1.58604e-05 -6.30516e-05)
(0.00245076 1.54835e-05 -5.46031e-05)
(0.00246724 1.58975e-05 -4.7453e-05)
(0.00224748 1.59091e-05 -8.43091e-05)
(0.00226835 1.6672e-05 -8.47547e-05)
(0.00232151 1.77116e-05 -8.43027e-05)
(0.00233339 1.75466e-05 -7.97422e-05)
(0.00236663 1.75269e-05 -7.46876e-05)
(0.00237323 1.66439e-05 -6.7613e-05)
(0.0023904 1.61154e-05 -6.06429e-05)
(0.00240819 1.52367e-05 -5.3489e-05)
(0.0024247 1.45952e-05 -4.67051e-05)
(0.00249992 2.71323e-06 -7.21733e-05)
(0.0025368 6.02054e-06 -6.45954e-05)
(0.00248079 1.07873e-05 -5.39219e-05)
(0.00250273 1.59741e-05 -4.61977e-05)
(0.00233811 6.33456e-06 -8.91492e-05)
(0.00238518 7.3011e-06 -9.15749e-05)
(0.00245003 8.67935e-06 -9.23043e-05)
(0.00245932 9.36308e-06 -8.63666e-05)
(0.00249452 1.02936e-05 -8.0499e-05)
(0.0024764 1.04096e-05 -7.10609e-05)
(0.00252074 1.16529e-05 -6.40719e-05)
(0.00248211 1.29296e-05 -5.43129e-05)
(0.00248142 1.49155e-05 -4.61225e-05)
(0.0023224 1.48468e-05 -8.75582e-05)
(0.00237505 1.64731e-05 -9.02922e-05)
(0.00244656 1.85011e-05 -9.14143e-05)
(0.002448 1.77803e-05 -8.50699e-05)
(0.00247658 1.78357e-05 -7.90353e-05)
(0.00247211 1.67344e-05 -7.06966e-05)
(0.00250278 1.66764e-05 -6.35678e-05)
(0.00248229 1.56443e-05 -5.49163e-05)
(0.00249368 1.55154e-05 -4.74465e-05)
(0.00227351 1.72647e-05 -8.36848e-05)
(0.00231158 1.85114e-05 -8.51738e-05)
(0.00238386 2.02526e-05 -8.63408e-05)
(0.00237942 1.9419e-05 -8.0461e-05)
(0.0024031 1.89216e-05 -7.4829e-05)
(0.00241329 1.78053e-05 -6.79157e-05)
(0.00243455 1.70153e-05 -6.09523e-05)
(0.00243055 1.54971e-05 -5.35188e-05)
(0.00243361 1.43427e-05 -4.64728e-05)
(0.00244966 8.16487e-06 -4.86307e-05)
(0.00245562 1.21754e-05 -4.12249e-05)
(0.00236367 7.1186e-06 -8.32266e-05)
(0.00239387 7.9632e-06 -8.42026e-05)
(0.0024498 9.22575e-06 -8.42451e-05)
(0.00245313 9.55882e-06 -7.86907e-05)
(0.00247528 9.94698e-06 -7.26468e-05)
(0.00246112 9.94916e-06 -6.43536e-05)
(0.00248832 1.06956e-05 -5.73371e-05)
(0.00245021 1.14638e-05 -4.88183e-05)
(0.00245059 1.27495e-05 -4.15326e-05)
(0.002333 1.56814e-05 -8.06841e-05)
(0.00237742 1.72711e-05 -8.26285e-05)
(0.00245094 1.95457e-05 -8.38012e-05)
(0.00245559 1.88491e-05 -7.8702e-05)
(0.00247407 1.851e-05 -7.24001e-05)
(0.00245247 1.66184e-05 -6.41539e-05)
(0.00249002 1.63656e-05 -5.78153e-05)
(0.00245943 1.47845e-05 -5.00431e-05)
(0.00247743 1.4085e-05 -4.36123e-05)
(0.0022925 1.84826e-05 -7.79514e-05)
(0.00233159 2.00312e-05 -7.94556e-05)
(0.00238919 2.14824e-05 -7.96139e-05)
(0.00239619 2.07642e-05 -7.52283e-05)
(0.00239797 1.94992e-05 -6.87442e-05)
(0.00241136 1.825e-05 -6.26168e-05)
(0.00244695 1.74321e-05 -5.67546e-05)
(0.00241715 1.51318e-05 -4.95192e-05)
(0.0024346 1.36494e-05 -4.35975e-05)
(0.00236711 7.82908e-06 -7.08062e-05)
(0.00241475 8.90437e-06 -7.19467e-05)
(0.00246592 1.03147e-05 -7.16161e-05)
(0.00244555 9.8834e-06 -6.59967e-05)
(0.00246437 1.01422e-05 -6.08373e-05)
(0.00243404 9.57571e-06 -5.37031e-05)
(0.00245283 9.89819e-06 -4.75456e-05)
(0.0024127 9.93962e-06 -4.08226e-05)
(0.00233968 1.66277e-05 -6.91299e-05)
(0.00238538 1.83931e-05 -7.0556e-05)
(0.00245346 2.05961e-05 -7.09138e-05)
(0.00243514 1.87365e-05 -6.58563e-05)
(0.00246608 1.87071e-05 -6.14207e-05)
(0.00243732 1.63922e-05 -5.4588e-05)
(0.00246266 1.55035e-05 -4.90757e-05)
(0.00228722 1.90466e-05 -6.67325e-05)
(0.00232747 2.05933e-05 -6.79921e-05)
(0.00239217 2.2271e-05 -6.84008e-05)
(0.00239077 2.09889e-05 -6.44624e-05)
(0.00241676 2.01871e-05 -6.00284e-05)
(0.00239953 1.79623e-05 -5.38959e-05)
)
;

boundaryField
{
    inlet
    {
        type            zeroGradient;
    }
    outlet
    {
        type            zeroGradient;
    }
    wall
    {
        type            zeroGradient;
    }
    procBoundary2to0
    {
        type            processor;
        value           nonuniform List<vector> 
44
(
(0.00239366 -9.78425e-06 -8.483e-05)
(0.00244351 -6.81626e-06 -7.99904e-05)
(0.00243797 -1.74623e-06 -7.13719e-05)
(0.00245591 4.58643e-06 -6.34379e-05)
(0.00245371 1.37723e-05 -5.48635e-05)
(0.00248838 2.56015e-05 -4.776e-05)
(0.00230395 -4.14087e-06 -9.01942e-05)
(0.00232473 -3.66829e-06 -9.05192e-05)
(0.00236224 -2.69372e-06 -8.91478e-05)
(0.00236224 -2.69372e-06 -8.91478e-05)
(0.00244842 -1.71285e-06 -8.59315e-05)
(0.00251285 1.53871e-07 -8.17647e-05)
(0.00248586 -3.72045e-06 -7.11432e-05)
(0.00252594 1.99221e-06 -6.37884e-05)
(0.00247983 1.0456e-05 -5.38017e-05)
(0.00249268 2.03063e-05 -4.58651e-05)
(0.0023609 -4.46274e-06 -9.17043e-05)
(0.00238525 -4.14859e-06 -9.22802e-05)
(0.00244073 -3.42575e-06 -9.23748e-05)
(0.00244842 -1.71285e-06 -8.59315e-05)
(0.00251285 1.53871e-07 -8.17647e-05)
(0.00251285 1.53871e-07 -8.17647e-05)
(0.00247944 1.67376e-06 -6.52388e-05)
(0.00249829 4.24438e-06 -5.76412e-05)
(0.00245 6.40431e-06 -4.87702e-05)
(0.00245293 1.36756e-05 -4.12493e-05)
(0.00237546 -4.63476e-06 -8.46475e-05)
(0.00240962 -4.49804e-06 -8.61545e-05)
(0.00246948 -3.94426e-06 -8.62832e-05)
(0.00246749 -2.35534e-06 -7.99233e-05)
(0.00250129 -7.83993e-07 -7.41946e-05)
(0.00247944 1.67376e-06 -6.52388e-05)
(0.00249829 4.24438e-06 -5.76412e-05)
(0.00249829 4.24438e-06 -5.76412e-05)
(0.00240351 6.04486e-06 -4.02347e-05)
(0.00239792 8.81639e-06 -3.38995e-05)
(0.00236131 -4.64087e-06 -7.08424e-05)
(0.00240568 -4.47819e-06 -7.21148e-05)
(0.00247167 -3.92412e-06 -7.20351e-05)
(0.00246085 -2.47876e-06 -6.6756e-05)
(0.00246351 -8.80228e-07 -6.07779e-05)
(0.00244985 1.02916e-06 -5.40441e-05)
(0.00246093 3.25933e-06 -4.76723e-05)
(0.00240351 6.04486e-06 -4.02347e-05)
)
;
    }
    procBoundary2to3
    {
        type            processor;
        value           nonuniform List<vector> 
12
(
(0.00249208 2.48359e-05 -3.99832e-05)
(0.00248177 1.8364e-05 -4.00452e-05)
(0.00248016 1.60522e-05 -4.07651e-05)
(0.0024175 1.37145e-05 -4.01645e-05)
(0.00249441 2.11873e-05 -3.85998e-05)
(0.00249334 1.68481e-05 -3.90922e-05)
(0.00252444 1.54512e-05 -4.15137e-05)
(0.00245891 1.31387e-05 -4.10832e-05)
(0.00245367 1.58824e-05 -3.44491e-05)
(0.00245431 1.38343e-05 -3.5202e-05)
(0.00246321 1.30285e-05 -3.74696e-05)
(0.00243492 1.19258e-05 -3.84883e-05)
)
;
    }
    procBoundary2to6
    {
        type            processor;
        value           nonuniform List<vector> 
32
(
(0.002427 1.06129e-05 -3.49605e-05)
(0.00242432 1.35057e-05 -4.26896e-05)
(0.00244586 1.24477e-05 -3.74021e-05)
(0.00240754 1.62495e-05 -4.82835e-05)
(0.00239271 1.40161e-05 -4.28782e-05)
(0.00240266 1.1985e-05 -3.79654e-05)
(0.00238855 8.37268e-06 -5.59411e-05)
(0.00241315 8.71475e-06 -5.54153e-05)
(0.00243686 9.34933e-06 -5.36154e-05)
(0.00243253 9.05491e-06 -5.0298e-05)
(0.00245927 9.18679e-06 -4.66482e-05)
(0.0024188 8.47677e-06 -4.16312e-05)
(0.00243768 8.31343e-06 -3.7069e-05)
(0.002427 1.06129e-05 -3.49605e-05)
(0.00242432 1.35057e-05 -4.26896e-05)
(0.00239354 7.97826e-06 -3.23486e-05)
(0.00235378 1.76733e-05 -5.51193e-05)
(0.00238936 1.88118e-05 -5.51162e-05)
(0.00242916 1.9823e-05 -5.38414e-05)
(0.00243159 1.84488e-05 -5.09814e-05)
(0.0024542 1.76886e-05 -4.75751e-05)
(0.00242818 1.54616e-05 -4.30579e-05)
(0.00242432 1.35057e-05 -4.26896e-05)
(0.00240754 1.62495e-05 -4.82835e-05)
(0.00244433 1.39764e-05 -3.86476e-05)
(0.002298 1.98153e-05 -5.41798e-05)
(0.00233073 2.10793e-05 -5.44606e-05)
(0.00236135 2.13696e-05 -5.33486e-05)
(0.00237353 2.03627e-05 -5.09478e-05)
(0.00241394 1.98136e-05 -4.7732e-05)
(0.00240754 1.62495e-05 -4.82835e-05)
(0.00240627 1.77699e-05 -4.38144e-05)
)
;
    }
}


// ************************************************************************* //
