/*--------------------------------*- C++ -*----------------------------------*\
| =========                 |                                                 |
| \\      /  F ield         | OpenFOAM: The Open Source CFD Toolbox           |
|  \\    /   O peration     | Version:  4.x                                   |
|   \\  /    A nd           | Web:      www.OpenFOAM.org                      |
|    \\/     M anipulation  |                                                 |
\*---------------------------------------------------------------------------*/
FoamFile
{
    version     2.0;
    format      ascii;
    class       volScalarField;
    location    "41.5";
    object      Ksl;
}
// * * * * * * * * * * * * * * * * * * * * * * * * * * * * * * * * * * * * * //

dimensions      [1 -3 -1 0 0 0 0];

internalField   nonuniform List<scalar> 
114
(
6279.55
3139.89
5527.97
3027.46
5086.89
2875.77
3392.19
8112.95
3324.69
7012.64
3275.61
6467.66
3208.64
6234.09
3119.88
3342.29
7563.67
3220.49
6193.27
3132.28
5521.1
3027.88
5145.59
2909.86
3287.59
6785.79
3087.69
5293.89
2905.21
4515.16
2734.49
4071.01
2628.05
13042.4
3673.61
15134.6
3552.35
3433.85
10020.6
3586.4
12019.4
3687.33
15283.8
3732.96
22239.8
3696.34
3404.44
9189.69
3513.92
9620.04
3528.25
10016.3
3514.99
10712.9
3431.38
3328.62
7615.49
3290.03
6589.32
3165.53
5947.43
3078.34
5575.82
2969.74
27481
3653.06
3492.76
10663.3
3699
15235.5
3806.61
25572.6
3859.07
74898
3867
3434.77
9990.21
3626.13
12668.7
3706.37
16607.9
3744.95
25906.7
3717.1
3362.36
8184.12
3382.48
7632.42
3308.93
7142.83
3300.1
7029.85
3221.71
3499.77
11623.5
3747.96
18095.3
3822.83
31585
3833.37
90100.9
3454.32
9875.99
3633.61
11657.3
3661.32
13211.5
3614.6
3352.14
8013.63
3385.04
7554.84
3333.26
7114.18
)
;

boundaryField
{
    inlet
    {
        type            zeroGradient;
    }
    outlet
    {
        type            zeroGradient;
    }
    wall
    {
        type            zeroGradient;
    }
    procBoundary2to0
    {
        type            processor;
        value           nonuniform List<scalar> 
44
(
6408.52
3183.38
5746.3
3072.08
5400.01
3031.07
3357.6
7595.28
3221.8
3221.8
10859.3
3657.12
14200.4
3737.48
20612.9
3704.72
3475.69
9815.63
3563.92
10859.3
3657.12
3657.12
22528.4
3754.85
25454.1
3709.84
3519.39
11197.6
3716.38
16061.7
3786.1
22528.4
3754.85
3754.85
84024.3
3759
3493.16
11511.1
3754.73
19815.4
3811.55
38143.3
3807.65
84024.3
)
;
    }
    procBoundary2to3
    {
        type            processor;
        value           nonuniform List<scalar> 
12
(
4906.69
6373.01
4929.25
3798.54
17178.1
39953.8
11590.8
5413.23
36574.8
1e+10
48622.9
7174.27
)
;
    }
    procBoundary2to6
    {
        type            processor;
        value           nonuniform List<scalar> 
32
(
3802.46
14215.1
3528.4
3236.26
6783.77
3155.27
3568.79
12504.2
3840.39
26435
3960.55
119597
3986.62
3802.46
14215.1
1e+10
3480.19
10771.7
3673.93
15492
3769.32
25105.2
14215.1
3236.26
3802.52
3366.35
8141.2
3384.56
7924.44
3411.89
3236.26
8175.82
)
;
    }
}


// ************************************************************************* //
