/*--------------------------------*- C++ -*----------------------------------*\
| =========                 |                                                 |
| \\      /  F ield         | OpenFOAM: The Open Source CFD Toolbox           |
|  \\    /   O peration     | Version:  4.x                                   |
|   \\  /    A nd           | Web:      www.OpenFOAM.org                      |
|    \\/     M anipulation  |                                                 |
\*---------------------------------------------------------------------------*/
FoamFile
{
    version     2.0;
    format      ascii;
    class       volScalarField;
    location    "41.5";
    object      p;
}
// * * * * * * * * * * * * * * * * * * * * * * * * * * * * * * * * * * * * * //

dimensions      [1 -1 -2 0 0 0 0];

internalField   nonuniform List<scalar> 
114
(
5708
5728.74
5689.56
5721.7
5670.82
5714.98
5742.82
5725.82
5736.08
5708.18
5729.12
5689.98
5722.14
5671.42
5715.38
5742.41
5725.6
5735.72
5707.94
5728.78
5689.78
5721.85
5671.23
5715.05
5742.11
5725.48
5735.48
5707.89
5728.6
5689.88
5721.74
5671.52
5715.01
3811.86
3844.42
3792.93
3837.49
3865.81
3848.46
3859.04
3830.57
3851.96
3812.26
3844.88
3793.52
3837.94
3865.37
3848.15
3858.54
3830.19
3851.43
3811.88
3844.33
3793.16
3837.42
3864.9
3847.95
3858.15
3830.13
3851.13
3811.98
3844.14
3793.45
3837.34
1915.51
1959.53
1988.65
1970.96
1981.72
1953.21
1974.39
1935.11
1967.02
1916.71
1959.75
1988.26
1970.82
1981.41
1952.9
1974.12
1934.7
1966.92
1916.17
1959.8
1987.75
1970.51
1980.85
1952.72
1973.67
1934.75
1966.54
1916.24
1959.64
111.458
93.6328
104.333
75.5461
96.8896
57.3158
89.4314
39.0276
110.89
93.2141
103.753
75.1413
96.3173
56.7638
88.8833
110.323
92.9428
103.291
75.0214
95.9717
56.7515
)
;

boundaryField
{
    inlet
    {
        type            calculated;
        value           nonuniform List<scalar> 
12
(
5742.82
5742.41
5742.11
3865.81
3865.37
3864.9
1988.65
1988.26
1987.75
111.458
110.89
110.323
)
;
    }
    outlet
    {
        type            calculated;
        value           nonuniform 0();
    }
    wall
    {
        type            calculated;
        value           nonuniform List<scalar> 
66
(
6681.77
6681.37
6681.06
6664.78
6664.56
6664.44
6675.03
6674.68
6674.44
6646.96
6647.14
6646.89
6646.85
6667.7
6668.08
6667.74
6667.55
6628.52
6628.94
6628.73
6628.84
6660.66
6661.1
6660.8
6660.7
6609.78
6610.38
6610.19
6610.47
6653.94
6654.33
6654.01
6653.97
5742.11
3864.9
1987.75
110.323
5725.48
3847.95
1970.51
92.9428
5735.48
3858.15
1980.85
103.291
5707.89
3830.13
1952.72
75.0214
5728.6
3851.13
1973.67
95.9717
5689.88
3811.98
1934.75
56.7515
5721.74
3844.14
1966.54
5671.52
3793.45
1916.24
5715.01
3837.34
1959.64
)
;
    }
    procBoundary2to0
    {
        type            processor;
        value           nonuniform List<scalar> 
44
(
5708.05
5728.8
5689.73
5721.88
5671.45
5715.23
5742.7
5725.79
5735.94
5735.94
3830.44
3851.71
3812.17
3844.78
3793.64
3837.95
3865.79
3848.33
3858.89
3830.44
3851.71
3851.71
1934.29
1966.64
1915.85
1959.61
1988.67
1970.92
1981.62
1952.88
1974.12
1934.29
1966.64
1966.64
38.8066
82.0014
111.4
93.6641
104.35
75.5112
96.7602
57.2484
89.1655
38.8066
)
;
    }
    procBoundary2to3
    {
        type            processor;
        value           nonuniform List<scalar> 
12
(
5651.8
5652.97
5652.18
5652.69
3773.85
3775.06
3774.1
3774.65
1896.81
1898.72
1897.51
1897.61
)
;
    }
    procBoundary2to6
    {
        type            processor;
        value           nonuniform List<scalar> 
32
(
82.1072
38.0446
81.6922
88.6907
38.3038
81.6842
-1765.92
-1784.15
-1773.24
-1801.75
-1780.94
-1819.85
-1788.77
82.1072
38.0446
-1837.75
-1766.49
-1784.35
-1773.63
-1802.18
-1781.09
-1820.47
38.0446
88.6907
-1788.55
-1767.13
-1784.65
-1774.22
-1802.31
-1781.53
88.6907
-1820.56
)
;
    }
}


// ************************************************************************* //
