/*--------------------------------*- C++ -*----------------------------------*\
| =========                 |                                                 |
| \\      /  F ield         | OpenFOAM: The Open Source CFD Toolbox           |
|  \\    /   O peration     | Version:  4.x                                   |
|   \\  /    A nd           | Web:      www.OpenFOAM.org                      |
|    \\/     M anipulation  |                                                 |
\*---------------------------------------------------------------------------*/
FoamFile
{
    version     2.0;
    format      ascii;
    class       volScalarField;
    location    "41.5";
    object      QPartFluidCoeff;
}
// * * * * * * * * * * * * * * * * * * * * * * * * * * * * * * * * * * * * * //

dimensions      [1 -1 -3 -1 0 0 0];

internalField   nonuniform List<scalar> 
114
(
-2.37779e+07
-1.86487e+07
-1.01751e+07
-1.99056e+07
-1.21221e+07
-1.53328e+07
-1.93897e+07
-2.31005e+07
-2.04467e+07
-1.4584e+07
-2.44621e+07
-1.6637e+07
-2.33332e+07
-2.23765e+07
-1.49112e+07
-1.29351e+07
-2.05484e+07
-1.69853e+07
-1.79666e+07
-1.93746e+07
-1.7474e+07
-2.2675e+07
-1.79942e+07
-2.17095e+07
-1.32928e+07
-1.33508e+07
-1.72065e+07
-1.51352e+07
-1.31928e+07
-1.36514e+07
-1.0197e+07
-1.77984e+07
-1.327e+07
-3.28218e+07
-4.10308e+07
-2.20258e+07
-3.74339e+07
-1.57773e+07
-2.64527e+07
-3.19851e+07
-3.05898e+07
-2.96277e+07
-2.33171e+07
-3.72145e+07
-2.90483e+07
-2.13754e+07
-1.95427e+07
-3.33657e+07
-3.55508e+07
-3.0613e+07
-3.14232e+07
-2.95714e+07
-3.05918e+07
-2.9664e+07
-2.56649e+07
-1.68853e+07
-1.79253e+07
-2.78659e+07
-2.00873e+07
-2.53351e+07
-2.17635e+07
-2.24001e+07
-2.36688e+07
-1.60749e+07
-2.67612e+07
-3.09349e+07
-2.28757e+07
-1.91326e+07
-2.25047e+07
-2.29115e+07
-2.25593e+07
-2.56904e+07
-3.27713e+07
-2.40724e+07
-1.91537e+07
-1.6645e+07
-2.31788e+07
-3.03247e+07
-3.49441e+07
-3.06414e+07
-2.34362e+07
-3.16231e+07
-2.8341e+07
-3.41575e+07
-1.67034e+07
-2.53375e+07
-2.32875e+07
-2.49774e+07
-1.59466e+07
-2.28081e+07
-3.23656e+07
-1.78867e+07
-2.58445e+07
-1.6332e+07
-3.16047e+07
-3.43338e+07
-2.38382e+07
-2.74588e+07
-2.08821e+07
-2.52664e+07
-2.48732e+07
-1.95791e+07
-2.63479e+07
-3.50939e+07
-2.20202e+07
-3.04081e+07
-2.56188e+07
-3.43711e+07
-1.4201e+07
-2.10013e+07
-2.50476e+07
-2.41485e+07
-2.25109e+07
-2.16258e+07
)
;

boundaryField
{
    inlet
    {
        type            calculated;
        value           uniform 0;
    }
    outlet
    {
        type            calculated;
        value           nonuniform 0();
    }
    wall
    {
        type            calculated;
        value           uniform 0;
    }
    procBoundary2to0
    {
        type            processor;
        value           nonuniform List<scalar> 
44
(
382.65
420.726
369.494
300.925
390.805
643.083
225.315
342.554
265.283
265.283
416.53
856.051
509.728
795.205
521.537
479.924
602.253
531.688
589.656
416.53
856.051
856.051
606.546
663.15
488.61
408.073
522.205
655.016
724.023
679.343
753.959
606.546
663.15
663.15
413.767
197.149
364.924
507.97
742.427
770.386
415.527
736.067
645.169
413.767
)
;
    }
    procBoundary2to3
    {
        type            processor;
        value           nonuniform List<scalar> 
12
(
641.248
468.441
501.478
327.912
645.458
576.466
962.721
637
620.455
721.571
457.096
664.642
)
;
    }
    procBoundary2to6
    {
        type            processor;
        value           nonuniform List<scalar> 
32
(
611.996
511.389
676.682
430.712
470.254
424.73
752.423
676.792
460.127
604.748
836.65
460.975
657.962
611.996
511.389
503.464
476.58
696.715
618.477
772.894
669.679
660.956
511.389
430.712
662.069
353.785
573.2
450.799
464.748
658.815
430.712
716.61
)
;
    }
}


// ************************************************************************* //
