/*--------------------------------*- C++ -*----------------------------------*\
| =========                 |                                                 |
| \\      /  F ield         | OpenFOAM: The Open Source CFD Toolbox           |
|  \\    /   O peration     | Version:  4.x                                   |
|   \\  /    A nd           | Web:      www.OpenFOAM.org                      |
|    \\/     M anipulation  |                                                 |
\*---------------------------------------------------------------------------*/
FoamFile
{
    version     2.0;
    format      ascii;
    class       volScalarField;
    location    "21";
    object      Ksl;
}
// * * * * * * * * * * * * * * * * * * * * * * * * * * * * * * * * * * * * * //

dimensions      [1 -3 -1 0 0 0 0];

internalField   nonuniform List<scalar> 
87
(
3632.19
2552.15
3548.92
2438.14
3569.26
2225.15
3992.38
1937.44
6297.15
4104.82
2700.06
3978.65
2571.81
4062.36
2349.14
4660.72
2034
5751.3
5009.26
3012.76
5314.56
3037.54
6524.76
3230.97
10670.5
4022.05
21145.1
5343.85
2964.51
5312.82
2832.55
5555.15
2557
6606.6
2123.89
6420.28
8363.71
3341.45
8528.91
3173.02
9207.73
2857.55
9202.02
2460.81
5036.85
18648.3
3723.76
42559.8
3662.69
813311
3604.01
277643
3771.75
14322.9
6973.36
3267.01
7759.28
3218.8
8766.46
3000.61
9829.84
2552.67
12615.6
17244.7
3733.71
22370.3
3651.07
22909.4
3537.13
12536.3
3497.53
4840.24
1e+10
4082.19
1e+10
4104.58
1e+10
4130.83
1e+10
4530.02
16023.1
6235.65
3063.29
6393.4
16220.3
3615.67
32888.6
)
;

boundaryField
{
    inlet
    {
        type            zeroGradient;
    }
    outlet
    {
        type            zeroGradient;
    }
    wall
    {
        type            zeroGradient;
    }
    procBoundary1to0
    {
        type            processor;
        value           nonuniform List<scalar> 
12
(
2633.99
2842.86
3073.06
3088.86
3481.86
3720.03
3315.45
3777.26
4012.04
3202.52
3698.94
3856.15
)
;
    }
    procBoundary1to3
    {
        type            processor;
        value           nonuniform List<scalar> 
27
(
4594.06
2826.52
4448.43
2698.85
4600.18
2558.19
5370.51
2231.01
5793.54
16656.3
3731.03
24930.5
3639.89
33264.3
3488.98
19594.2
3340.34
4511.04
1.15124e+06
3969.97
1e+10
3944.21
1e+10
3907.28
1e+10
3992.78
19238.8
)
;
    }
    procBoundary1to5
    {
        type            processor;
        value           nonuniform List<scalar> 
32
(
2977.07
6968.66
2783.25
8365.37
2439.8
11643.5
17108.8
3499.78
15510.2
3433.44
11914.8
3568.36
6239.51
3824.65
59182.1
3797.06
137271
3834.61
99981.3
4086.58
13602.7
7658.54
3304.53
2977.07
17108.8
8726.9
60138
17108.8
3824.65
3889.76
3824.65
3.73303e+06
)
;
    }
    procBoundary1to7
    {
        type            processor;
        value           uniform 116264;
    }
}


// ************************************************************************* //
