/*--------------------------------*- C++ -*----------------------------------*\
  =========                 |
  \\      /  F ield         | OpenFOAM: The Open Source CFD Toolbox
   \\    /   O peration     | Website:  https://openfoam.org
    \\  /    A nd           | Version:  4.x
     \\/     M anipulation  |
\*---------------------------------------------------------------------------*/
FoamFile
{
    version     2.0;
    format      ascii;
    class       Cloud<passiveParticle>;
    location    0;
    object      positions;
}
// * * * * * * * * * * * * * * * * * * * * * * * * * * * * * * * * * * * * * //

348
(
( 0.256027 -0.0172348 0.0199757 ) 39
( 0.253199 -0.00315603 0.033681 ) 48
( 0.25694 0.0116537 0.0209113 ) 48
( 0.421215 -0.0532293 -0.00938991 ) 10
( 0.328399 -0.051608 0.0356062 ) 32
( 0.439672 -0.0867344 -0.00617008 ) 3
( 0.479814 -0.0721252 0.0133755 ) 5
( 0.429409 -0.0905592 0.0309666 ) 27
( 0.34662 -0.0575934 0.0231324 ) 33
( 0.469062 -0.0594017 0.0236784 ) 37
( 0.438574 -0.0210232 0.0177802 ) 45
( 0.477622 -0.0231395 -0.000289674 ) 20
( 0.344217 -0.0902027 0.00358223 ) 0
( 0.431793 -0.0409199 0.0119134 ) 18
( 0.456647 -0.0434039 0.000603714 ) 11
( 0.287682 -0.016681 -0.005374 ) 13
( 0.373436 -0.0737839 0.00180653 ) 1
( 0.402781 -0.0578123 -0.00413039 ) 9
( 0.280651 -0.0346774 -0.00972738 ) 13
( 0.344984 -0.0182719 0.00427078 ) 15
( 0.393011 -0.0731018 0.00361959 ) 2
( 0.283103 -0.0296809 0.00908972 ) 13
( 0.321797 -0.0256999 -0.008875 ) 14
( 0.333675 -0.0747308 -0.00341122 ) 0
( 0.363967 -0.0843421 0.0306423 ) 25
( 0.362904 -0.0224747 -0.0029774 ) 16
( 0.48965 -0.0448068 0.0248188 ) 38
( 0.435982 -0.0902632 0.0126728 ) 3
( 0.481811 -0.071851 -0.00618115 ) 5
( 0.370529 -0.0544028 0.00550583 ) 8
( 0.432817 -0.0550184 0.0260998 ) 36
( 0.448812 -0.0717966 0.00271378 ) 4
( 0.312575 -0.0762266 0.0169605 ) 23
( 0.391672 -0.090713 0.0243215 ) 26
( 0.348584 -0.0717588 0.00936887 ) 0
( 0.418881 -0.0312243 0.0283526 ) 45
( 0.398034 -0.0880422 -0.00879141 ) 2
( 0.421794 -0.0773475 0.0178916 ) 27
( 0.310781 -0.0570049 0.0226829 ) 32
( 0.425164 -0.0298489 -0.00902932 ) 18
( 0.452387 -0.0666533 0.0313997 ) 37
( 0.465886 -0.031676 -0.0133277 ) 19
( 0.401568 -0.0262166 0.0156794 ) 44
( 0.340123 -0.0562882 -0.00497973 ) 7
( 0.325316 -0.0242294 0.0106044 ) 14
( 0.360475 -0.0862714 -0.00687192 ) 0
( 0.321987 -0.0622507 0.00675875 ) 6
( 0.384214 -0.0385514 0.0238902 ) 43
( 0.383576 -0.0577562 0.0193534 ) 34
( 0.277982 -0.0599753 0.0190051 ) 31
( 0.322352 -0.0593551 -0.0130002 ) 6
( 0.403729 -0.0435008 0.0245069 ) 35
( 0.346958 -0.0902486 0.023069 ) 24
( 0.454986 -0.0175926 0.0285353 ) 46
( 0.391124 -0.0281421 -0.00109303 ) 17
( 0.260506 -0.0718645 0.022639 ) 21
( 0.454563 -0.0905162 0.00630455 ) 4
( 0.384736 -0.0905186 0.00596067 ) 1
( 0.359365 -0.0416648 -0.00406994 ) 15
( 0.490473 -0.0171317 0.0130708 ) 20
( 0.4655 -0.061813 0.00451957 ) 11
( 0.48912 -0.0557048 0.00817064 ) 12
( 0.47467 -0.0904764 0.0200092 ) 29
( 0.490356 -0.0361533 0.00702519 ) 20
( 0.420437 -0.090173 -0.00420876 ) 3
( 0.453463 -0.0341081 0.0176244 ) 46
( 0.421094 -0.0245064 0.0097353 ) 18
( 0.417027 -0.0534593 0.0141058 ) 10
( 0.35615 -0.0319202 0.0130845 ) 15
( 0.330668 -0.0475321 0.0165256 ) 32
( 0.376429 -0.0211587 0.0283859 ) 43
( 0.272163 -0.0274615 0.0251932 ) 39
( 0.449647 -0.0556231 0.0147384 ) 37
( 0.357011 -0.020516 0.0288219 ) 42
( 0.265254 -0.0459998 0.024889 ) 30
( 0.381855 -0.0450108 -0.00795354 ) 8
( 0.446942 -0.0263414 0.0004989 ) 19
( 0.403547 -0.0668176 0.0187118 ) 35
( 0.302538 -0.0290726 0.00275721 ) 13
( 0.31313 -0.0385789 0.0162851 ) 41
( 0.45818 -0.0850199 -0.0125417 ) 4
( 0.366292 -0.0471534 0.0242475 ) 34
( 0.364584 -0.0665027 0.0198814 ) 34
( 0.321691 -0.0438083 -0.000818773 ) 6
( 0.473165 -0.0488892 -0.00762801 ) 12
( 0.471772 -0.029403 0.02484 ) 46
( 0.479586 -0.0884601 0.0394561 ) 29
( 0.310942 -0.0419991 0.0354824 ) 41
( 0.358245 -0.0640513 -0.00605471 ) 7
( 0.458935 -0.065126 -0.0136898 ) 11
( 0.365531 -0.0900526 0.0118505 ) 1
( 0.332615 -0.0747181 0.0206854 ) 23
( 0.453786 -0.0472807 0.0321722 ) 37
( 0.290971 -0.0718386 0.0280827 ) 22
( 0.341158 -0.0384646 0.00283966 ) 15
( 0.472905 -0.0900614 -0.000563897 ) 5
( 0.490893 -0.0542755 -0.0114791 ) 12
( 0.316061 -0.0224428 0.0280387 ) 41
( 0.410495 -0.0901396 0.0279267 ) 26
( 0.411114 -0.0393423 0.00141619 ) 17
( 0.433003 -0.0603352 0.00494495 ) 10
( 0.489586 -0.0631252 0.0313682 ) 38
( 0.393546 -0.045461 0.00792695 ) 9
( 0.380785 -0.074969 0.0276298 ) 25
( 0.473129 -0.0443007 0.0118727 ) 12
( 0.33938 -0.0295051 0.0232514 ) 42
( 0.461266 -0.0761922 0.0172432 ) 28
( 0.374611 -0.0346548 0.00734229 ) 16
( 0.268906 -0.0900526 0.0190373 ) 21
( 0.489926 -0.0900071 -0.0120049 ) 5
( 0.438386 -0.0440351 -0.00613212 ) 10
( 0.316234 -0.0901267 0.0302882 ) 23
( 0.378842 -0.09012 -0.0130609 ) 1
( 0.293052 -0.0442682 0.0270532 ) 31
( 0.406303 -0.0869634 0.00909422 ) 2
( 0.417274 -0.0710236 -0.000302312 ) 10
( 0.373377 -0.0405907 0.0416367 ) 43
( 0.452906 -0.0904557 0.0274558 ) 28
( 0.472679 -0.0452587 0.0363061 ) 38
( 0.273717 0.00489447 0.0288238 ) 48
( 0.491035 -0.0816999 0.0257236 ) 29
( 0.43774 -0.036377 0.0299588 ) 45
( 0.490439 -0.0901343 0.00789277 ) 5
( 0.341662 -0.0440601 0.0523819 ) 62
( 0.322619 -0.0609949 0.0518931 ) 61
( 0.282105 -0.0108957 0.0551418 ) 78
( 0.267105 -0.0899334 0.0394336 ) 21
( 0.382885 -0.024143 0.0468077 ) 72
( 0.398186 -0.0905 0.052052 ) 55
( 0.423257 -0.035165 0.0571835 ) 74
( 0.347854 -0.0707551 0.0552232 ) 62
( 0.340489 -0.0903448 0.0570209 ) 53
( 0.489777 -0.0339972 -0.0125419 ) 20
( 0.296346 0.00146479 0.0483736 ) 78
( 0.289425 -0.0247804 0.0432483 ) 69
( 0.327642 -0.00948884 0.0489022 ) 79
( 0.485102 -0.0234246 0.048457 ) 76
( 0.271705 -0.0729627 0.0575812 ) 50
( 0.387152 -0.0554001 0.0522441 ) 63
( 0.439336 -0.0685487 0.0540119 ) 65
( 0.265356 -0.053662 0.0519488 ) 59
( 0.461571 -0.0904517 0.0454267 ) 57
( 0.454246 -0.0170758 0.0576631 ) 75
( 0.490384 -0.0902825 0.0771899 ) 89
( 0.312395 -0.0419185 0.0679033 ) 70
( 0.298968 -0.0581717 0.0590859 ) 60
( 0.36223 -0.0342568 0.0567619 ) 72
( 0.374717 -0.0902927 0.0582584 ) 54
( 0.420631 -0.0739071 0.0571569 ) 56
( 0.370876 -0.0561731 0.0634542 ) 63
( 0.456239 -0.0596592 0.0490481 ) 66
( 0.285043 -0.0901798 0.0581358 ) 51
( 0.489745 -0.0551644 0.0589802 ) 67
( 0.326387 -0.0777252 0.061451 ) 52
( 0.348501 0.0104879 0.0618003 ) 80
( 0.438569 -0.0481332 0.0575647 ) 65
( 0.471337 -0.0734045 0.0600546 ) 57
( 0.43143 -0.0901166 0.0611603 ) 56
( 0.335384 -0.0241973 0.0598249 ) 71
( 0.462295 -0.0356302 0.0684118 ) 75
( 0.283872 -0.0297805 0.0616186 ) 69
( 0.401123 -0.0432116 0.0581024 ) 64
( 0.368356 -0.0153455 0.0572682 ) 72
( 0.323876 0.00746754 0.0590731 ) 79
( 0.283756 0.00665808 0.0638879 ) 78
( 0.386673 -0.074806 0.052871 ) 54
( 0.434653 -0.019948 0.0630967 ) 74
( 0.310434 -0.0258698 0.0467437 ) 70
( 0.335449 -0.0570188 0.0662103 ) 62
( 0.380629 -0.038871 0.0600847 ) 72
( 0.255589 -0.0205546 0.0425356 ) 39
( 0.254507 -0.0417268 0.0408421 ) 39
( 0.265604 -0.0221062 0.0594427 ) 68
( 0.402722 -0.0237514 0.0549709 ) 73
( 0.454983 -0.0398445 0.05049 ) 75
( 0.417467 -0.0902895 0.0467442 ) 56
( 0.310239 -0.00949257 0.0575558 ) 79
( 0.367195 -0.0727379 0.0532253 ) 54
( 0.425407 -0.0572389 0.0466158 ) 65
( 0.336525 -0.0703823 0.039394 ) 33
( 0.359006 -0.0520132 0.0487007 ) 62
( 0.472286 -0.0687841 0.0408429 ) 38
( 0.255308 -0.0756549 0.0469551 ) 50
( 0.373996 -0.0600273 0.0384007 ) 34
( 0.296703 -0.0418594 0.0489367 ) 69
( 0.355517 -0.0877676 0.0704417 ) 53
( 0.420875 -0.0529486 0.0654723 ) 65
( 0.260554 0.01392 0.0399398 ) 48
( 0.297677 -0.025689 0.0215275 ) 40
( 0.299416 -0.0901338 0.0441217 ) 51
( 0.465889 -0.0248423 0.0434506 ) 75
( 0.353785 -0.00778036 0.0729064 ) 111
( 0.406538 -0.0618764 0.0505373 ) 64
( 0.412229 -0.043833 0.0419794 ) 35
( 0.434336 -0.0723245 0.0352831 ) 27
( 0.272075 -0.069593 0.0381891 ) 30
( 0.317523 -0.070578 0.0351721 ) 32
( 0.473416 -0.0158464 0.0617219 ) 76
( 0.307924 -0.0741198 0.0518784 ) 52
( 0.490152 -0.0739946 0.0479629 ) 58
( 0.380397 -0.0901836 0.0399311 ) 25
( 0.490564 -0.0261536 0.0302222 ) 47
( 0.337942 0.0071094 0.0454309 ) 80
( 0.490638 -0.0418354 0.0443643 ) 76
( 0.348969 -0.0255261 0.0459268 ) 71
( 0.322465 -0.0412493 0.0514484 ) 70
( 0.288778 -0.073675 0.0476596 ) 51
( 0.261878 -0.0901576 0.0585705 ) 50
( 0.271962 -0.033553 0.0439794 ) 68
( 0.412055 -0.0894126 0.0659452 ) 55
( 0.402889 -0.0603536 0.0695582 ) 64
( 0.350108 -0.041673 0.0344694 ) 42
( 0.398106 -0.0775656 0.037101 ) 26
( 0.393015 -0.0401169 0.0409746 ) 44
( 0.334394 -0.0900764 0.0381711 ) 24
( 0.484295 -0.0901831 0.058531 ) 58
( 0.280431 -0.0551358 0.064099 ) 60
( 0.284981 -0.0903528 0.0307514 ) 22
( 0.300417 -0.0114181 0.0345133 ) 49
( 0.414379 -0.0164414 0.069024 ) 73
( 0.357855 -0.0901816 0.0482796 ) 53
( 0.392394 -0.0896353 0.0710591 ) 55
( 0.442267 -0.0878785 0.0446875 ) 56
( 0.490815 -0.035084 0.0637959 ) 76
( 0.355309 -0.0469828 0.072313 ) 93
( 0.415259 -0.0685816 0.0343501 ) 35
( 0.452289 -0.0818066 0.0599529 ) 57
( 0.407108 0.00550669 0.0731065 ) 113
( 0.302181 0.0073859 0.0290403 ) 49
( 0.316038 -0.023191 0.0731851 ) 101
( 0.282034 -0.0527246 0.0412372 ) 31
( 0.395649 -0.0582896 0.0346653 ) 35
( 0.251255 -0.0602031 0.0356489 ) 30
( 0.304503 -0.0901482 0.0636492 ) 51
( 0.294703 -0.046347 0.0741226 ) 91
( 0.386598 -0.0194244 0.0653859 ) 72
( 0.402127 -0.0236093 0.0353513 ) 44
( 0.474425 -0.0392304 0.0543466 ) 76
( 0.441186 -0.0252823 0.0454314 ) 74
( 0.355891 -0.0677246 0.0375139 ) 33
( 0.304119 0.0125397 0.0622215 ) 78
( 0.301374 -0.0597458 0.0397098 ) 31
( 0.272837 -0.0124624 0.0378907 ) 48
( 0.265601 -0.00169127 0.0646443 ) 77
( 0.335718 0.00856236 0.0762391 ) 111
( 0.444597 -0.0610208 0.0713475 ) 66
( 0.288774 -0.0130026 0.0903644 ) 109
( 0.490043 -0.0730007 0.067715 ) 58
( 0.463049 -0.0567355 0.0669268 ) 66
( 0.380092 -0.072945 0.0714902 ) 85
( 0.329024 -0.00862068 0.0697974 ) 79
( 0.443549 -0.0353727 0.0713113 ) 74
( 0.341336 -0.0745427 0.0730589 ) 84
( 0.419302 -0.0201216 0.0449209 ) 74
( 0.46702 -0.0905413 0.0689699 ) 57
( 0.347907 -0.00762072 0.0541502 ) 80
( 0.427169 -0.0691798 0.0750969 ) 96
( 0.318375 -0.0906654 0.0497623 ) 52
( 0.408774 -0.0349894 0.0732642 ) 104
( 0.385451 -0.0546186 0.0760911 ) 94
( 0.370788 -0.0280171 0.0735017 ) 103
( 0.251456 -0.0141669 0.0712494 ) 77
( 0.335346 -0.0387412 0.0731039 ) 102
( 0.294375 -0.0272509 0.0782003 ) 100
( 0.478097 -0.0466001 0.0725119 ) 98
( 0.38983 -0.0351001 0.0766202 ) 104
( 0.373481 -0.00840867 0.0751073 ) 112
( 0.288866 -0.0730398 0.067274 ) 51
( 0.425558 -0.0902241 0.0802319 ) 87
( 0.330304 -0.0271462 0.0405938 ) 41
( 0.267183 -0.0398502 0.0682226 ) 68
( 0.42652 -0.0298767 0.0780291 ) 105
( 0.311991 -0.000433019 0.0747448 ) 110
( 0.477409 -0.0272909 0.0770315 ) 107
( 0.312654 -0.0670204 0.0695149 ) 61
( 0.358877 -0.0897729 0.0902602 ) 84
( 0.351127 -0.0272604 0.0727392 ) 102
( 0.398544 -0.0692366 0.0892294 ) 95
( 0.38296 0.00872069 0.0784578 ) 112
( 0.362203 -0.0642052 0.079647 ) 94
( 0.277006 -0.0149606 0.0738435 ) 99
( 0.398791 -0.0179347 0.0807709 ) 104
( 0.295191 -0.00947654 0.0698322 ) 78
( 0.363932 0.00901201 0.0737351 ) 112
( 0.264104 -0.0622632 0.072108 ) 90
( 0.327944 -0.073235 0.0900782 ) 83
( 0.322007 -0.0893483 0.0798527 ) 83
( 0.431932 -0.0501709 0.0816138 ) 96
( 0.406462 -0.0905346 0.0850448 ) 86
( 0.270857 -0.0903451 0.0760033 ) 81
( 0.373619 -0.0904683 0.0773346 ) 85
( 0.281395 -0.0625951 0.0823188 ) 91
( 0.375239 -0.0455391 0.0902685 ) 94
( 0.344803 -0.00707694 0.0903433 ) 111
( 0.459291 -0.0735681 0.0758792 ) 88
( 0.415711 0.000582245 0.0900583 ) 113
( 0.454806 -0.0473521 0.0821054 ) 97
( 0.287481 0.00565964 0.084327 ) 109
( 0.386161 -0.00674611 0.0904543 ) 112
( 0.474128 -0.0822891 0.0847603 ) 89
( 0.290475 -0.0900832 0.0774186 ) 82
( 0.380176 -0.0258367 0.090608 ) 103
( 0.413992 -0.0571648 0.0854495 ) 95
( 0.332675 -0.0215676 0.0840821 ) 101
( 0.352338 -0.0385989 0.0901241 ) 102
( 0.251063 -0.0204208 0.0901431 ) 99
( 0.378848 -0.066577 0.0902959 ) 94
( 0.447553 -0.0194232 0.0823676 ) 106
( 0.438053 -0.0788252 0.0904227 ) 87
( 0.270257 0.0127834 0.0903977 ) 108
( 0.255998 0.00170944 0.0824493 ) 108
( 0.490432 -0.0396339 0.0859125 ) 107
( 0.472791 -0.063064 0.0900755 ) 98
( 0.339035 -0.0901106 0.0901789 ) 84
( 0.307854 -0.0353698 0.0902238 ) 101
( 0.340056 -0.0542353 0.0900324 ) 93
( 0.268673 -0.0295225 0.0903516 ) 99
( 0.490376 -0.0588659 0.0815436 ) 98
( 0.395766 -0.0472266 0.0906547 ) 95
( 0.363731 -0.00119629 0.0904613 ) 112
( 0.414423 -0.038572 0.0909951 ) 104
( 0.300264 -0.0732088 0.0830671 ) 82
( 0.268993 -0.00994216 0.090667 ) 108
( 0.320076 -0.0554176 0.0830971 ) 92
( 0.279385 -0.0803929 0.0904484 ) 82
( 0.398698 0.0103378 0.0903058 ) 113
( 0.444687 -0.0903 0.0758634 ) 88
( 0.325294 -0.00271135 0.0900756 ) 110
( 0.305215 -0.0903116 0.0905311 ) 82
( 0.347902 -0.0723968 0.0907848 ) 84
( 0.451114 -0.0643146 0.0906007 ) 97
( 0.471553 -0.0411526 0.090411 ) 106
( 0.4418 -0.0358806 0.0908439 ) 105
( 0.267753 -0.048661 0.085969 ) 90
( 0.309206 -0.0154208 0.0901436 ) 101
( 0.416122 -0.0190258 0.0906489 ) 104
( 0.386165 -0.0850446 0.0906923 ) 85
( 0.49035 -0.0204992 0.0902975 ) 107
( 0.465327 -0.0224065 0.0909422 ) 106
( 0.28522 -0.0401096 0.090198 ) 100
( 0.30606 0.00884268 0.0905752 ) 110
( 0.417379 -0.0755376 0.0906631 ) 87
( 0.490825 -0.0761881 0.090818 ) 89
( 0.32721 -0.0391432 0.0907356 ) 101
( 0.457686 -0.0903198 0.0904647 ) 88
( 0.297593 -0.0555334 0.0907633 ) 91
( 0.264504 -0.0674659 0.090812 ) 90
( 0.361013 -0.0207786 0.0901497 ) 102
)
