/*--------------------------------*- C++ -*----------------------------------*\
| =========                 |                                                 |
| \\      /  F ield         | OpenFOAM: The Open Source CFD Toolbox           |
|  \\    /   O peration     | Version:  4.x                                   |
|   \\  /    A nd           | Web:      www.OpenFOAM.org                      |
|    \\/     M anipulation  |                                                 |
\*---------------------------------------------------------------------------*/
FoamFile
{
    version     2.0;
    format      ascii;
    class       volVectorField;
    location    "18.5";
    object      impParticleForces;
}
// * * * * * * * * * * * * * * * * * * * * * * * * * * * * * * * * * * * * * //

dimensions      [1 1 -2 0 0 0 0];

internalField   nonuniform List<vector> 
87
(
(0.00244774 4.53181e-05 -2.80939e-05)
(0.00248839 0.000131724 -1.19092e-05)
(0.00247774 4.56454e-05 -1.96734e-06)
(0.00251291 1.20296e-05 8.20767e-06)
(0.00246256 -6.29111e-06 1.60894e-05)
(0.00245569 -2.03043e-05 2.04625e-05)
(0.00243365 -3.36443e-05 1.76534e-05)
(0.00240384 -4.79797e-05 4.2021e-06)
(0.00228759 -6.47659e-05 -1.9229e-05)
(0.00248151 2.03984e-05 -2.88642e-05)
(0.00250487 3.89724e-05 -1.43121e-05)
(0.00250908 2.07154e-05 -1.36224e-06)
(0.00252822 5.126e-06 9.8096e-06)
(0.00248253 -7.30074e-06 1.75112e-05)
(0.00247517 -1.72858e-05 2.1494e-05)
(0.00243445 -2.90624e-05 1.69574e-05)
(0.00241299 -3.77598e-05 5.95741e-06)
(0.00228228 -5.82308e-05 -1.55283e-05)
(0.0024792 8.93973e-06 -2.92361e-05)
(0.00250968 1.46139e-05 -1.49786e-05)
(0.00248844 1.11462e-05 -1.32915e-06)
(0.00250655 5.79343e-06 1.04005e-05)
(0.00245174 4.9932e-07 1.66129e-05)
(0.00243657 -3.2848e-06 1.84051e-05)
(0.00237764 -7.90838e-06 1.05909e-05)
(0.00234246 -1.00813e-05 -3.64623e-06)
(0.0022486 -1.85294e-05 -2.08345e-05)
(0.00246653 1.83753e-05 -2.91913e-05)
(0.00248181 3.70356e-05 -1.50552e-05)
(0.00248692 1.88428e-05 -3.29849e-06)
(0.00251723 2.64079e-06 7.7333e-06)
(0.00248085 -1.08663e-05 1.57497e-05)
(0.00248868 -2.34218e-05 2.15283e-05)
(0.00246678 -3.83143e-05 1.84305e-05)
(0.00244709 -5.53401e-05 7.01976e-06)
(0.00230677 -7.5254e-05 -2.20678e-05)
(0.00251033 8.28911e-06 -2.9198e-05)
(0.00251481 1.59075e-05 -1.44348e-05)
(0.00251004 9.03641e-06 -1.47966e-06)
(0.00254784 -6.9657e-07 1.05675e-05)
(0.00251138 -1.01192e-05 1.8186e-05)
(0.00250695 -1.92797e-05 2.31482e-05)
(0.00247213 -3.16044e-05 1.74596e-05)
(0.00245745 -4.35586e-05 8.10686e-06)
(0.00230086 -6.77713e-05 -2.20603e-05)
(0.00249259 3.88181e-06 -2.81858e-05)
(0.00251748 7.40376e-06 -1.32427e-05)
(0.00248932 6.22912e-06 -4.49494e-07)
(0.00250258 2.64079e-06 1.10934e-05)
(0.002456 -1.09103e-06 1.66046e-05)
(0.00246442 -4.39587e-06 1.95019e-05)
(0.00241575 -8.76374e-06 1.16428e-05)
(0.00240231 -1.0112e-05 -9.32424e-07)
(0.00227294 -2.18073e-05 -2.45033e-05)
(0.00242171 1.24006e-06 -2.62247e-05)
(0.00245193 6.20977e-06 -1.38465e-05)
(0.00245689 1.02876e-06 -2.45856e-06)
(0.00249094 -7.20504e-06 7.96598e-06)
(0.002452 -1.7084e-05 1.50085e-05)
(0.0024706 -2.89424e-05 1.98293e-05)
(0.00243439 -4.38665e-05 1.70449e-05)
(0.00242423 -5.90712e-05 1.16396e-05)
(0.00228942 -8.06482e-05 -9.72208e-06)
(0.00245303 -1.72223e-06 -2.55394e-05)
(0.0024816 1.36693e-06 -1.21615e-05)
(0.00246046 -1.17152e-06 -5.43099e-07)
(0.00249524 -7.03971e-06 1.07718e-05)
(0.0024646 -1.45488e-05 1.62533e-05)
(0.00247742 -2.35871e-05 1.99686e-05)
(0.00242692 -3.58502e-05 1.41059e-05)
(0.00240848 -4.9692e-05 5.39988e-06)
(0.00228487 -7.21828e-05 -1.61904e-05)
(0.00244057 -1.12274e-06 -2.41736e-05)
(0.00246896 1.18176e-06 -1.03473e-05)
(0.00243911 6.29428e-07 5.14163e-07)
(0.00247521 -1.94658e-06 1.11522e-05)
(0.00242987 -5.05787e-06 1.49985e-05)
(0.00243939 -8.82115e-06 1.64068e-05)
(0.00238075 -1.36411e-05 9.18755e-06)
(0.00235831 -1.87481e-05 -2.66066e-06)
(0.00225653 -2.91398e-05 -1.95503e-05)
(0.00239152 -8.83732e-06 -2.18886e-05)
(0.00240335 -7.09906e-06 -1.08676e-05)
(0.00241082 -9.51401e-06 -1.26266e-06)
(0.0024232 -8.88377e-06 -2.09654e-05)
(0.00245976 -7.82794e-06 -9.39386e-06)
(0.00240142 -5.43058e-06 -1.95199e-05)
)
;

boundaryField
{
    inlet
    {
        type            zeroGradient;
    }
    outlet
    {
        type            zeroGradient;
    }
    wall
    {
        type            zeroGradient;
    }
    procBoundary1to0
    {
        type            processor;
        value           nonuniform List<vector> 
12
(
(0.00242267 1.20634e-05 -4.2275e-05)
(0.00248355 4.32045e-06 -4.38378e-05)
(0.00249517 1.09289e-06 -4.44401e-05)
(0.00246364 2.48976e-06 -4.33524e-05)
(0.00251357 -1.83937e-06 -4.42172e-05)
(0.00249502 -1.80667e-06 -4.32929e-05)
(0.00242886 -6.23446e-06 -3.92863e-05)
(0.00247709 -7.71486e-06 -3.98561e-05)
(0.00244557 -4.9009e-06 -3.78905e-05)
(0.00241181 -1.27597e-05 -3.36015e-05)
(0.00243949 -1.22037e-05 -3.30033e-05)
(0.00242214 -8.06691e-06 -3.12791e-05)
)
;
    }
    procBoundary1to3
    {
        type            processor;
        value           nonuniform List<vector> 
27
(
(0.00249893 6.82355e-06 -3.0749e-05)
(0.00248401 1.01916e-05 -1.59293e-05)
(0.00247917 1.11231e-05 -2.54049e-06)
(0.00246023 1.08058e-05 8.33766e-06)
(0.00243501 1.13256e-05 1.45354e-05)
(0.00241037 1.24156e-05 1.49582e-05)
(0.00236663 1.54623e-05 4.66829e-06)
(0.0023198 1.89045e-05 -1.5876e-05)
(0.00224243 2.13885e-05 -3.73461e-05)
(0.0024931 5.14299e-06 -2.91627e-05)
(0.00250934 8.1468e-06 -1.42553e-05)
(0.00248903 9.08771e-06 -1.53012e-06)
(0.00249528 9.56517e-06 9.82771e-06)
(0.00244924 1.01044e-05 1.49218e-05)
(0.00244559 1.1737e-05 1.62268e-05)
(0.0023935 1.4334e-05 5.25229e-06)
(0.00237828 1.91667e-05 -1.35712e-05)
(0.00228577 2.66842e-05 -4.93851e-05)
(0.00244101 2.86057e-06 -2.44839e-05)
(0.00247218 4.62167e-06 -1.09072e-05)
(0.00243843 5.73818e-06 -3.06237e-07)
(0.00245398 6.43742e-06 9.29521e-06)
(0.00241074 6.95444e-06 1.27072e-05)
(0.00242244 8.66359e-06 1.3147e-05)
(0.00237077 9.64962e-06 3.93359e-06)
(0.00234775 1.25509e-05 -1.22829e-05)
(0.00226599 1.52419e-05 -3.47518e-05)
)
;
    }
    procBoundary1to5
    {
        type            processor;
        value           nonuniform List<vector> 
32
(
(0.0024407 -1.44969e-05 7.83079e-06)
(0.00240799 -2.29328e-05 1.42022e-05)
(0.00242598 -3.32631e-05 1.9049e-05)
(0.00237383 -5.0043e-05 1.72262e-05)
(0.00237166 -6.74589e-05 1.5244e-05)
(0.00226472 -9.27131e-05 1.70708e-06)
(0.00242318 -8.93572e-06 4.74317e-07)
(0.00244344 -1.29641e-05 9.52199e-06)
(0.00241024 -1.95655e-05 1.41124e-05)
(0.00243317 -2.80222e-05 1.7483e-05)
(0.00238215 -4.32647e-05 1.28099e-05)
(0.00237031 -5.83332e-05 7.70616e-06)
(0.00227024 -8.18399e-05 -5.9959e-06)
(0.00243461 -4.37107e-06 -7.96202e-06)
(0.00239752 -4.65077e-06 1.10169e-06)
(0.00242123 -6.62351e-06 9.49031e-06)
(0.00238393 -9.87697e-06 1.28116e-05)
(0.00238379 -1.41367e-05 1.37234e-05)
(0.00233857 -2.12105e-05 8.36558e-06)
(0.00230852 -2.93423e-05 -4.45019e-07)
(0.00223434 -4.16296e-05 -1.2e-05)
(0.00237329 -1.47821e-05 -1.65861e-05)
(0.00238253 -1.43369e-05 -7.0386e-06)
(0.0024407 -1.44969e-05 7.83079e-06)
(0.00242318 -8.93572e-06 4.74317e-07)
(0.0023827 -1.65838e-05 1.37073e-06)
(0.00239733 -1.34314e-05 -1.54407e-05)
(0.00242318 -8.93572e-06 4.74317e-07)
(0.00243461 -4.37107e-06 -7.96202e-06)
(0.00241013 -1.28865e-05 -5.76735e-06)
(0.00243461 -4.37107e-06 -7.96202e-06)
(0.00237445 -8.6661e-06 -1.41857e-05)
)
;
    }
    procBoundary1to7
    {
        type            processor;
        value           uniform (0.00239754 5.97891e-07 -1.96571e-05);
    }
}


// ************************************************************************* //
