/*--------------------------------*- C++ -*----------------------------------*\
| =========                 |                                                 |
| \\      /  F ield         | OpenFOAM: The Open Source CFD Toolbox           |
|  \\    /   O peration     | Version:  4.x                                   |
|   \\  /    A nd           | Web:      www.OpenFOAM.org                      |
|    \\/     M anipulation  |                                                 |
\*---------------------------------------------------------------------------*/
FoamFile
{
    version     2.0;
    format      ascii;
    class       volScalarField;
    location    "18.5";
    object      KslNext;
}
// * * * * * * * * * * * * * * * * * * * * * * * * * * * * * * * * * * * * * //

dimensions      [1 -3 -1 0 0 0 0];

internalField   nonuniform List<scalar> 
87
(
3579.61
2531.11
3502.03
2420.97
3517.18
2226.63
3964.42
2001.06
6046.73
4051.29
2691.27
3985.39
2593.21
4181.23
2424.99
4973.8
2200.16
6179.37
5030.43
3006.01
5375.48
3042.01
6995.69
3277.63
12923.3
4117.33
23892.9
5372.65
2960.08
5311.74
2815.45
5513.31
2523.88
6407.25
2076.33
6359.6
8775.67
3379.37
9307.4
3231.42
10523.2
2935.69
10753.3
2586.49
5054.97
19679.5
3732.16
55900.3
3657.23
1e+10
3613.52
7.49824e+09
3898.65
25884.9
7274.55
3268.9
7772.25
3175.09
8200.33
2869.19
8395.36
2285.11
7992.28
17893.3
3730.49
22889.9
3642.08
23096.8
3522.93
12515.9
3448.5
4480.45
1e+10
4036.19
1e+10
4037.04
1e+10
4051.9
2.66437e+06
4377.96
18886.3
6324.23
3049.07
6386.13
18535.7
3609.75
24136
)
;

boundaryField
{
    inlet
    {
        type            zeroGradient;
    }
    outlet
    {
        type            zeroGradient;
    }
    wall
    {
        type            zeroGradient;
    }
    procBoundary1to0
    {
        type            processor;
        value           uniform 0;
    }
    procBoundary1to3
    {
        type            processor;
        value           uniform 0;
    }
    procBoundary1to5
    {
        type            processor;
        value           uniform 0;
    }
    procBoundary1to7
    {
        type            processor;
        value           uniform 0;
    }
}


// ************************************************************************* //
