/*--------------------------------*- C++ -*----------------------------------*\
| =========                 |                                                 |
| \\      /  F ield         | OpenFOAM: The Open Source CFD Toolbox           |
|  \\    /   O peration     | Version:  4.x                                   |
|   \\  /    A nd           | Web:      www.OpenFOAM.org                      |
|    \\/     M anipulation  |                                                 |
\*---------------------------------------------------------------------------*/
FoamFile
{
    version     2.0;
    format      ascii;
    class       volScalarField;
    location    "18.5";
    object      p_rgh;
}
// * * * * * * * * * * * * * * * * * * * * * * * * * * * * * * * * * * * * * //

dimensions      [1 -1 -2 0 0 0 0];

internalField   nonuniform List<scalar> 
87
(
21.1318
72.2382
2.34576
66.4648
-16.7353
62.2656
-38.6306
61.4589
-180.175
21.1055
72.1799
2.20591
66.1412
-16.9508
62.0716
-37.9441
60.8662
-58.8473
21.5339
72.8839
3.46324
67.4107
-14.1584
63.4222
-31.2776
57.8797
-50.0598
21.0578
72.6805
2.20999
66.5592
-18.2941
62.0884
-39.8658
60.8127
-62.0345
21.1988
72.9241
2.63941
66.7245
-17.2385
61.6266
-38.41
58.8484
-61.6477
21.9828
74.1228
3.94533
67.8323
-14.9175
61.5832
-34.6945
57.3529
-45.475
22.004
72.924
3.42836
66.2175
-16.2763
60.7966
-36.845
57.2597
-59.2746
22.4347
73.7488
4.47835
66.8198
-14.6403
60.0563
-33.919
54.6307
-51.7799
23.1179
73.0196
5.45093
66.5345
-12.6195
60.2404
-30.5387
53.1572
-48.0394
21.739
72.7981
2.74724
21.9908
72.8167
22.6389
)
;

boundaryField
{
    inlet
    {
        type            fixedFluxPressure;
        gradient        nonuniform 0();
        value           nonuniform 0();
    }
    outlet
    {
        type            fixedValue;
        value           uniform 0;
    }
    wall
    {
        type            fixedFluxPressure;
        gradient        nonuniform List<scalar> 
57
(
-0.000140874
0.000152504
0.000149491
-0.000538008
-5.79751e-06
5.22227e-05
5.53679e-06
-8.03393e-05
1.07779e-05
3.65501e-05
-6.13698e-05
-6.4322e-05
-0.000255747
-0.000370401
-0.000656254
-5.26532e-05
-0.000266233
-0.000572725
-9.05207e-06
-0.000272755
-0.00191954
0.000324946
-9.21141e-06
-2.45176e-05
0.00153278
0.000631126
0.00103667
-6.00547e-05
-0.000225939
-5.08051e-05
8.58058e-06
-0.00621947
-7.34676e-05
-3.43456e-05
8.71545e-05
-2.68725e-05
-3.67113e-05
1.83596e-05
6.41682e-07
-8.15486e-05
-0.000120924
-0.000126207
-0.000223386
-0.000180576
-0.000363837
-9.02712e-05
-2.45327e-05
-6.92288e-05
-7.6805e-05
-0.000110788
-0.000107708
-0.000124321
1.47987e-05
-2.73318e-05
0.000345632
0.000176077
-4.62952e-05
)
;
        value           nonuniform List<scalar> 
57
(
21.1318
21.1055
21.5339
72.2381
72.1799
72.8839
2.34576
2.20591
3.46324
66.4648
66.1412
67.4107
-16.7353
-16.9508
-14.1584
62.2656
62.0716
63.4222
-38.6306
-37.9441
-31.2776
61.4589
60.8662
57.8797
-180.175
-58.8473
-50.0598
21.1318
21.0578
22.004
21.739
72.2381
72.6805
72.924
72.7981
2.34576
2.20999
3.42836
2.74724
66.4648
66.5592
66.2175
-16.7353
-18.2942
-16.2764
62.2656
62.0884
60.7966
-38.6306
-39.8658
-36.845
61.4589
60.8127
57.2597
-180.175
-62.0345
-59.2746
)
;
    }
    procBoundary1to0
    {
        type            processor;
        value           nonuniform List<scalar> 
12
(
79.1858
79.2348
79.6199
79.5665
79.8546
80.5884
80.0081
80.4651
80.6414
79.9358
80.2491
80.3369
)
;
    }
    procBoundary1to3
    {
        type            processor;
        value           nonuniform List<scalar> 
27
(
21.2711
72.3123
3.08185
66.4094
-15.0905
62.1853
-34.0916
58.8396
-95.9636
22.0256
73.7388
4.28304
67.1296
-14.2196
60.6981
-33.2478
55.0025
-53.1297
23.0791
73.2439
5.07125
66.2957
-13.1346
59.8104
-31.2878
53.1821
-48.7781
)
;
    }
    procBoundary1to5
    {
        type            processor;
        value           nonuniform List<scalar> 
32
(
66.0908
-17.4545
60.4905
-39.2495
57.4926
-64.1176
2.98633
65.6825
-16.3103
59.2508
-35.8703
53.9028
-52.5606
73.1179
4.32342
66.2497
-14.1007
59.8774
-32.1151
54.0409
-47.902
22.4623
73.0552
66.0908
2.98633
4.14075
22.8179
2.98633
73.1179
73.0917
73.1179
23.7329
)
;
    }
    procBoundary1to7
    {
        type            processor;
        value           uniform 23.6494;
    }
}


// ************************************************************************* //
