/*--------------------------------*- C++ -*----------------------------------*\
| =========                 |                                                 |
| \\      /  F ield         | OpenFOAM: The Open Source CFD Toolbox           |
|  \\    /   O peration     | Version:  4.x                                   |
|   \\  /    A nd           | Web:      www.OpenFOAM.org                      |
|    \\/     M anipulation  |                                                 |
\*---------------------------------------------------------------------------*/
FoamFile
{
    version     2.0;
    format      ascii;
    class       volScalarField;
    location    "18.5";
    object      SPartFluid;
}
// * * * * * * * * * * * * * * * * * * * * * * * * * * * * * * * * * * * * * //

dimensions      [1 -3 -1 0 0 0 0];

internalField   nonuniform List<scalar> 
87
(
3.71981e-65
5.88968e-65
3.7973e-65
5.11476e-65
3.95234e-65
4.18484e-65
4.41735e-65
5.03735e-65
4.80485e-65
3.64218e-65
3.25475e-65
4.64962e-65
4.18468e-65
3.40975e-65
5.03722e-65
6.58716e-65
4.5723e-65
3.95234e-65
3.48713e-65
5.50193e-65
5.81191e-65
7.1293e-65
5.50201e-65
4.33968e-65
4.95967e-65
4.57225e-65
4.49475e-65
6.66444e-65
5.65702e-65
5.34705e-65
6.19952e-65
5.81206e-65
6.58709e-65
8.36954e-65
7.28466e-65
6.3547e-65
7.20674e-65
5.11439e-65
6.35432e-65
6.97429e-65
7.28433e-65
5.65702e-65
7.51698e-65
7.5945e-65
5.50214e-65
8.13637e-65
6.58664e-65
6.19922e-65
5.26936e-65
5.26944e-65
7.3618e-65
8.05933e-65
1.03067e-64
4.88215e-65
7.05177e-65
5.73442e-65
7.6717e-65
7.98173e-65
5.73449e-65
8.44683e-65
7.052e-65
5.73468e-65
4.18475e-65
5.57923e-65
7.05158e-65
5.65679e-65
6.12176e-65
6.97422e-65
6.97433e-65
6.58694e-65
7.20695e-65
4.41717e-65
7.90378e-65
6.35402e-65
5.11423e-65
9.06623e-65
8.29144e-65
8.75653e-65
6.81936e-65
7.90431e-65
3.48722e-65
6.58678e-65
5.26948e-65
8.05915e-65
7.05156e-65
9.99616e-65
5.73411e-65
)
;

boundaryField
{
    inlet
    {
        type            calculated;
        value           nonuniform 0();
    }
    outlet
    {
        type            calculated;
        value           uniform 0;
    }
    wall
    {
        type            calculated;
        value           uniform 0;
    }
    procBoundary1to0
    {
        type            processor;
        value           nonuniform List<scalar> 
12
(
1.70493e-65
3.95213e-65
6.89681e-65
6.19952e-65
6.97421e-65
4.95936e-65
4.72705e-65
8.29149e-65
4.57184e-65
4.95954e-65
5.50178e-65
8.05881e-65
)
;
    }
    procBoundary1to3
    {
        type            processor;
        value           nonuniform List<scalar> 
27
(
6.97417e-65
3.25463e-65
5.73439e-65
2.55727e-65
4.10714e-65
3.02229e-65
4.72717e-65
4.26228e-65
4.18478e-65
7.51642e-65
6.27656e-65
9.06628e-65
8.52397e-65
7.59413e-65
6.27691e-65
6.04446e-65
6.58702e-65
8.91187e-65
7.67125e-65
9.06605e-65
8.75616e-65
8.52381e-65
6.12172e-65
6.27681e-65
8.52417e-65
7.1294e-65
7.43939e-65
)
;
    }
    procBoundary1to5
    {
        type            processor;
        value           nonuniform List<scalar> 
32
(
6.81934e-65
8.05925e-65
6.3545e-65
6.742e-65
7.59454e-65
8.44698e-65
6.8191e-65
5.6568e-65
5.81182e-65
6.66433e-65
8.21422e-65
8.52435e-65
7.9044e-65
8.44618e-65
6.0441e-65
7.51646e-65
5.73426e-65
4.57198e-65
7.28429e-65
5.42453e-65
8.67927e-65
6.35438e-65
4.80459e-65
6.81934e-65
6.8191e-65
6.97429e-65
7.05167e-65
6.8191e-65
8.44618e-65
6.81921e-65
8.44618e-65
8.21389e-65
)
;
    }
    procBoundary1to7
    {
        type            processor;
        value           uniform 9.9184e-65;
    }
}


// ************************************************************************* //
