/*--------------------------------*- C++ -*----------------------------------*\
| =========                 |                                                 |
| \\      /  F ield         | OpenFOAM: The Open Source CFD Toolbox           |
|  \\    /   O peration     | Version:  4.x                                   |
|   \\  /    A nd           | Web:      www.OpenFOAM.org                      |
|    \\/     M anipulation  |                                                 |
\*---------------------------------------------------------------------------*/
FoamFile
{
    version     2.0;
    format      ascii;
    class       volScalarField;
    location    "10.5";
    object      p_rgh;
}
// * * * * * * * * * * * * * * * * * * * * * * * * * * * * * * * * * * * * * //

dimensions      [1 -1 -2 0 0 0 0];

internalField   nonuniform List<scalar> 
87
(
25.4814
75.6074
9.15948
70.765
-9.94474
64.741
-32.3571
59.2988
-206.358
26.8374
76.694
9.60303
69.1685
-11.6464
59.672
-33.342
51.7943
-54.7032
27.4969
76.8772
7.58144
67.0342
-14.9447
57.6628
-35.2857
50.8545
-53.8683
24.6852
74.3903
7.38393
68.813
-12.7383
63.2595
-37.1228
59.6252
-84.8875
25.0412
73.7742
5.99092
65.4089
-15.222
57.2083
-36.2236
51.2273
-56.3413
24.8021
73.2836
4.6738
64.8469
-16.0381
57.7874
-35.8929
52.1854
-53.9453
24.3752
73.0988
6.79699
66.6142
-12.7235
60.5869
-35.5746
56.567
-71.5086
24.2963
72.3771
5.79457
64.373
-13.6244
56.6798
-33.1231
50.3469
-51.4932
24.8724
72.5559
6.50296
64.4907
-12.3095
57.3624
-30.4419
50.7914
-48.5831
23.1754
71.9643
4.54417
23.4155
71.9662
23.4234
)
;

boundaryField
{
    inlet
    {
        type            fixedFluxPressure;
        gradient        nonuniform 0();
        value           nonuniform 0();
    }
    outlet
    {
        type            fixedValue;
        value           uniform 0;
    }
    wall
    {
        type            fixedFluxPressure;
        gradient        nonuniform List<scalar> 
57
(
-0.000417079
-0.000510221
-0.000860972
-0.000829104
-0.000581524
-0.000474532
-0.000566205
-0.000947321
-0.00206532
-0.000296473
-0.00035337
-0.000262176
-0.000142724
-0.000393062
0.000195029
-5.3187e-05
5.1272e-05
0.000187549
-0.00018269
-9.39941e-05
0.000778276
-0.000763339
-0.000483046
-0.000479781
-0.00184756
-0.00166363
-0.00157014
-0.000113295
-3.48768e-05
5.47118e-06
2.3857e-05
-0.0084442
-7.76994e-05
-1.42915e-05
4.02588e-05
-0.000200308
-0.000198267
-3.32802e-05
1.02002e-05
-3.40558e-05
-4.15288e-05
-6.6447e-06
-6.84511e-05
-0.000112252
-6.68847e-05
-0.000461193
-3.14381e-05
-2.15025e-06
-0.00046941
-1.10454e-05
2.68354e-05
0.000479868
1.43947e-05
2.15875e-05
-7.40157e-05
1.02158e-05
0.000141493
)
;
        value           nonuniform List<scalar> 
57
(
25.4814
26.8374
27.4969
75.6074
76.694
76.8772
9.15948
9.60302
7.58141
70.765
69.1685
67.0342
-9.94474
-11.6464
-14.9447
64.741
59.672
57.6628
-32.3571
-33.342
-35.2857
59.2988
51.7943
50.8545
-206.358
-54.7032
-53.8683
25.4814
24.6852
24.3752
23.1754
75.6073
74.3903
73.0988
71.9643
9.15948
7.38393
6.79699
4.54417
70.765
68.813
66.6142
-9.94474
-12.7383
-12.7235
64.741
63.2595
60.5869
-32.3571
-37.1228
-35.5746
59.2988
59.6252
56.567
-206.358
-84.8875
-71.5086
)
;
    }
    procBoundary1to0
    {
        type            processor;
        value           nonuniform List<scalar> 
12
(
79.7422
81.2
82.8742
79.6896
80.6566
81.1197
79.4701
79.927
80.2567
79.0221
79.4398
79.6182
)
;
    }
    procBoundary1to3
    {
        type            processor;
        value           nonuniform List<scalar> 
27
(
27.8134
75.8661
7.46509
65.7513
-14.6001
56.7822
-36.395
50.7471
-88.1644
25.4104
73.1264
5.61842
64.2746
-15.009
56.3683
-34.8603
50.045
-54.7503
25.6416
72.379
7.12382
64.0714
-11.9323
56.3595
-30.8136
49.6607
-47.951
)
;
    }
    procBoundary1to5
    {
        type            processor;
        value           nonuniform List<scalar> 
32
(
65.2691
-15.9567
59.7365
-39.7186
57.5737
-71.7209
4.60291
64.5399
-14.7721
57.5785
-34.5562
52.1056
-52.27
72.224
4.86693
65.0625
-14.1193
58.7021
-32.9362
53.809
-49.7367
23.7834
71.7521
65.2691
4.60291
5.63614
24.4962
4.60291
72.224
72.3593
72.224
25.4768
)
;
    }
    procBoundary1to7
    {
        type            processor;
        value           uniform 24.714;
    }
}


// ************************************************************************* //
