/*--------------------------------*- C++ -*----------------------------------*\
| =========                 |                                                 |
| \\      /  F ield         | OpenFOAM: The Open Source CFD Toolbox           |
|  \\    /   O peration     | Version:  4.x                                   |
|   \\  /    A nd           | Web:      www.OpenFOAM.org                      |
|    \\/     M anipulation  |                                                 |
\*---------------------------------------------------------------------------*/
FoamFile
{
    version     2.0;
    format      ascii;
    class       volScalarField;
    location    "10.5";
    object      QPartFluidCoeff;
}
// * * * * * * * * * * * * * * * * * * * * * * * * * * * * * * * * * * * * * //

dimensions      [1 -1 -3 -1 0 0 0];

internalField   nonuniform List<scalar> 
87
(
-1.45859e+07
-2.35414e+07
-1.40062e+07
-2.14043e+07
-1.18918e+07
-1.79182e+07
-1.65271e+07
-2.00235e+07
-1.42486e+07
-1.49594e+07
-1.42493e+07
-1.81258e+07
-1.80478e+07
-1.43157e+07
-1.98239e+07
-2.21957e+07
-1.84863e+07
-1.27824e+07
-1.25183e+07
-2.19958e+07
-1.77651e+07
-2.84082e+07
-1.82191e+07
-1.719e+07
-1.53806e+07
-1.73988e+07
-1.23117e+07
-2.43386e+07
-2.20909e+07
-2.13027e+07
-2.57771e+07
-2.2077e+07
-2.68615e+07
-3.12675e+07
-3.18614e+07
-2.19449e+07
-3.13454e+07
-2.18597e+07
-2.53018e+07
-3.06439e+07
-2.85174e+07
-2.48953e+07
-3.01474e+07
-3.32379e+07
-1.75462e+07
-2.98912e+07
-2.76224e+07
-2.31734e+07
-2.19338e+07
-1.88454e+07
-2.94209e+07
-2.88512e+07
-4.11402e+07
-1.24149e+07
-2.40399e+07
-2.35744e+07
-2.8436e+07
-3.26946e+07
-2.22187e+07
-3.43166e+07
-2.83014e+07
-2.81155e+07
-1.26464e+07
-2.96334e+07
-2.93288e+07
-2.13374e+07
-2.6652e+07
-2.77384e+07
-3.04681e+07
-2.62974e+07
-3.09862e+07
-1.42955e+07
-2.70534e+07
-2.5874e+07
-1.8028e+07
-3.68708e+07
-2.9182e+07
-3.50498e+07
-2.40048e+07
-3.08077e+07
-9.92224e+06
-2.2523e+07
-1.92221e+07
-2.82595e+07
-2.69418e+07
-4.15216e+07
-2.02944e+07
)
;

boundaryField
{
    inlet
    {
        type            calculated;
        value           nonuniform 0();
    }
    outlet
    {
        type            calculated;
        value           uniform 0;
    }
    wall
    {
        type            calculated;
        value           uniform 0;
    }
    procBoundary1to0
    {
        type            processor;
        value           nonuniform List<scalar> 
12
(
156.047
422.673
660.101
550.092
650.629
469.133
403.517
570.972
400.302
456.277
521.479
710.103
)
;
    }
    procBoundary1to3
    {
        type            processor;
        value           nonuniform List<scalar> 
27
(
591.611
272.497
457.234
227.522
327.299
270.868
392.155
337.477
289.989
625.596
592.89
748.024
777.549
638.008
584.372
516.775
618.035
621.177
622.139
813.015
712.203
779.711
506.827
591.745
699.216
606.206
531.384
)
;
    }
    procBoundary1to5
    {
        type            processor;
        value           nonuniform List<scalar> 
32
(
644.594
637.933
624.146
536.133
749.879
578.634
589.596
558.818
497.259
665.793
716.996
834.886
566.05
769.822
486.43
672.826
474.718
412.567
554.312
499.817
504.1
496.369
435.06
644.594
589.596
589.987
612.793
589.596
769.822
619.612
769.822
642.086
)
;
    }
    procBoundary1to7
    {
        type            processor;
        value           uniform 792.568;
    }
}


// ************************************************************************* //
