/*--------------------------------*- C++ -*----------------------------------*\
| =========                 |                                                 |
| \\      /  F ield         | OpenFOAM: The Open Source CFD Toolbox           |
|  \\    /   O peration     | Version:  4.x                                   |
|   \\  /    A nd           | Web:      www.OpenFOAM.org                      |
|    \\/     M anipulation  |                                                 |
\*---------------------------------------------------------------------------*/
FoamFile
{
    version     2.0;
    format      ascii;
    class       volScalarField;
    location    "10.5";
    object      QWallFluidCoeff;
}
// * * * * * * * * * * * * * * * * * * * * * * * * * * * * * * * * * * * * * //

dimensions      [1 -1 -3 -1 0 0 0];

internalField   nonuniform List<scalar> 
87
(
-6.10295e+06
-7.66732e+06
-5.74344e+06
-7.49975e+06
-5.07947e+06
-7.35715e+06
-4.34673e+06
-7.4598e+06
-4.71553e+06
-2.33295e+06
-3.30402e+06
-1.88425e+06
-3.10949e+06
-1.47954e+06
-2.95291e+06
-1.26122e+06
-2.68923e+06
-1.48219e+06
-1.58073e+06
-2.93983e+06
-927089
-2.82568e+06
-505311
-2.77667e+06
-466422
-2.49772e+06
-990654
-2.20319e+06
-3.3631e+06
-2.28958e+06
-3.5356e+06
-2.23208e+06
-3.78374e+06
-2.03874e+06
-4.49932e+06
-2.78556e+06
0
0
0
0
0
0
0
0
0
0
0
0
0
0
0
0
0
0
-1.78883e+06
-3.05459e+06
-1.93379e+06
-3.24912e+06
-1.99258e+06
-3.5536e+06
-1.87998e+06
-4.38551e+06
-2.16457e+06
0
0
0
0
0
0
0
0
0
0
0
0
0
0
0
0
0
0
-1.82528e+06
-3.08822e+06
-1.94502e+06
0
0
0
)
;

boundaryField
{
    inlet
    {
        type            calculated;
        value           nonuniform 0();
    }
    outlet
    {
        type            calculated;
        value           uniform 0;
    }
    wall
    {
        type            calculated;
        value           uniform 0;
    }
    procBoundary1to0
    {
        type            processor;
        value           uniform 0;
    }
    procBoundary1to3
    {
        type            processor;
        value           uniform 0;
    }
    procBoundary1to5
    {
        type            processor;
        value           uniform 0;
    }
    procBoundary1to7
    {
        type            processor;
        value           uniform 0;
    }
}


// ************************************************************************* //
