/*--------------------------------*- C++ -*----------------------------------*\
| =========                 |                                                 |
| \\      /  F ield         | OpenFOAM: The Open Source CFD Toolbox           |
|  \\    /   O peration     | Version:  4.x                                   |
|   \\  /    A nd           | Web:      www.OpenFOAM.org                      |
|    \\/     M anipulation  |                                                 |
\*---------------------------------------------------------------------------*/
FoamFile
{
    version     2.0;
    format      ascii;
    class       volScalarField;
    location    "26.5";
    object      Qsource;
}
// * * * * * * * * * * * * * * * * * * * * * * * * * * * * * * * * * * * * * //

dimensions      [1 -1 -3 0 0 0 0];

internalField   nonuniform List<scalar> 
114
(
7.6443e+09
6.50246e+09
3.63386e+09
6.91638e+09
4.23625e+09
5.59058e+09
6.66013e+09
7.36276e+09
7.01316e+09
4.88209e+09
8.25724e+09
5.55356e+09
7.96276e+09
7.33664e+09
5.459e+09
4.73219e+09
6.60666e+09
5.98534e+09
5.90879e+09
6.73964e+09
5.81907e+09
7.7606e+09
5.99597e+09
7.50594e+09
5.69725e+09
4.96869e+09
6.99324e+09
5.734e+09
5.91433e+09
5.46658e+09
5.12696e+09
6.82308e+09
6.12859e+09
9.81349e+09
1.21825e+10
6.60996e+09
1.1159e+10
4.73047e+09
7.94702e+09
9.59753e+09
9.21002e+09
8.90846e+09
7.08144e+09
1.12169e+10
8.83325e+09
6.46285e+09
5.86003e+09
1.0011e+10
1.06617e+10
9.18495e+09
9.41991e+09
8.85385e+09
9.16913e+09
8.86618e+09
7.70884e+09
5.907e+09
5.82301e+09
9.23137e+09
6.52591e+09
8.50576e+09
7.06969e+09
7.64721e+09
7.65032e+09
5.78897e+09
7.78069e+09
9.0995e+09
6.85957e+09
5.74299e+09
6.74896e+09
6.88614e+09
6.76812e+09
7.75534e+09
9.86138e+09
7.33101e+09
5.77444e+09
4.99203e+09
6.94628e+09
9.09014e+09
1.04544e+10
9.1854e+09
6.95804e+09
9.47933e+09
8.43901e+09
1.02437e+10
5.8466e+09
8.00845e+09
7.83188e+09
7.91765e+09
5.64262e+09
7.28015e+09
1.05582e+10
5.77902e+09
8.60656e+09
4.89755e+09
9.51059e+09
1.03281e+10
7.23046e+09
8.28216e+09
6.36363e+09
7.64255e+09
7.75713e+09
5.87352e+09
7.9043e+09
1.05247e+10
6.60707e+09
9.12569e+09
7.66632e+09
1.03038e+10
5.08802e+09
6.71906e+09
8.35291e+09
7.68406e+09
7.60685e+09
6.94126e+09
)
;

boundaryField
{
    inlet
    {
        type            calculated;
        value           uniform 0;
    }
    outlet
    {
        type            calculated;
        value           nonuniform 0();
    }
    wall
    {
        type            calculated;
        value           uniform 0;
    }
    procBoundary2to0
    {
        type            processor;
        value           nonuniform List<scalar> 
44
(
5.57942e+09
6.49372e+09
5.45532e+09
4.95098e+09
5.75728e+09
9.49169e+09
3.83348e+09
4.97548e+09
4.39785e+09
4.39785e+09
5.49184e+09
1.12799e+10
6.77965e+09
1.04921e+10
6.88456e+09
6.31877e+09
7.95875e+09
7.03438e+09
7.77583e+09
5.49184e+09
1.12799e+10
1.12799e+10
7.91177e+09
8.53372e+09
6.24279e+09
5.30403e+09
6.89207e+09
8.61975e+09
9.49545e+09
8.84602e+09
9.82942e+09
7.91177e+09
8.53372e+09
8.53372e+09
5.6792e+09
2.62396e+09
4.82853e+09
6.72869e+09
9.84317e+09
1.02455e+10
5.52209e+09
9.8815e+09
8.61422e+09
5.6792e+09
)
;
    }
    procBoundary2to3
    {
        type            processor;
        value           nonuniform List<scalar> 
12
(
9.0119e+09
6.8657e+09
7.23918e+09
5.88488e+09
8.54654e+09
7.82693e+09
1.2676e+10
8.95715e+09
8.1242e+09
9.86848e+09
6.05644e+09
9.14636e+09
)
;
    }
    procBoundary2to6
    {
        type            processor;
        value           nonuniform List<scalar> 
32
(
8.20382e+09
6.70402e+09
8.94496e+09
6.57164e+09
6.68091e+09
6.51271e+09
9.96605e+09
8.98143e+09
6.11688e+09
8.1203e+09
1.12042e+10
6.36023e+09
8.82582e+09
8.20382e+09
6.70402e+09
6.74415e+09
6.30884e+09
9.22167e+09
8.19375e+09
1.02493e+10
8.87749e+09
8.77674e+09
6.70402e+09
6.57164e+09
8.78263e+09
5.51166e+09
7.98764e+09
6.79755e+09
6.55187e+09
9.5427e+09
6.57164e+09
9.82645e+09
)
;
    }
}


// ************************************************************************* //
