/*--------------------------------*- C++ -*----------------------------------*\
| =========                 |                                                 |
| \\      /  F ield         | OpenFOAM: The Open Source CFD Toolbox           |
|  \\    /   O peration     | Version:  4.x                                   |
|   \\  /    A nd           | Web:      www.OpenFOAM.org                      |
|    \\/     M anipulation  |                                                 |
\*---------------------------------------------------------------------------*/
FoamFile
{
    version     2.0;
    format      ascii;
    class       volScalarField;
    location    "26.5";
    object      SPartFluid;
}
// * * * * * * * * * * * * * * * * * * * * * * * * * * * * * * * * * * * * * //

dimensions      [1 -3 -1 0 0 0 0];

internalField   nonuniform List<scalar> 
114
(
6.50997e-65
4.88246e-65
2.55746e-65
4.8824e-65
3.02239e-65
4.10734e-65
5.73505e-65
6.51003e-65
5.115e-65
3.79748e-65
6.19996e-65
4.41745e-65
5.88989e-65
6.12233e-65
3.95238e-65
4.03004e-65
5.65753e-65
4.5725e-65
4.95998e-65
4.49498e-65
4.57247e-65
5.34744e-65
4.41742e-65
5.2699e-65
4.41755e-65
4.26254e-65
4.65002e-65
4.57251e-65
3.33251e-65
3.7975e-65
2.7125e-65
4.80497e-65
3.09999e-65
8.44735e-65
9.76475e-65
5.73477e-65
9.2221e-65
5.42505e-65
6.82003e-65
7.67248e-65
7.82745e-65
6.97493e-65
6.27741e-65
8.98981e-65
7.59477e-65
5.19232e-65
6.04506e-65
8.60254e-65
8.2925e-65
7.59497e-65
7.43995e-65
7.28494e-65
7.05241e-65
7.43986e-65
5.96737e-65
5.89006e-65
5.19253e-65
6.97502e-65
5.8125e-65
6.89749e-65
5.88998e-65
5.88997e-65
6.50994e-65
4.26246e-65
7.59473e-65
8.13716e-65
7.28507e-65
4.96002e-65
5.50249e-65
6.12247e-65
5.57995e-65
7.12991e-65
8.36986e-65
6.58732e-65
4.88233e-65
5.34755e-65
6.04503e-65
7.13e-65
9.06747e-65
7.28496e-65
6.43245e-65
7.51741e-65
7.43988e-65
8.36983e-65
5.34755e-65
7.51755e-65
6.04502e-65
6.975e-65
4.65e-65
6.50998e-65
8.29246e-65
4.95995e-65
6.66493e-65
4.80504e-65
8.13754e-65
8.37e-65
6.50998e-65
6.81996e-65
5.88995e-65
6.27742e-65
7.74986e-65
6.89757e-65
6.89754e-65
8.37002e-65
5.8125e-65
7.20748e-65
6.89746e-65
8.36994e-65
5.27006e-65
6.51004e-65
6.27752e-65
7.13001e-65
5.5025e-65
6.35499e-65
)
;

boundaryField
{
    inlet
    {
        type            calculated;
        value           uniform 0;
    }
    outlet
    {
        type            calculated;
        value           nonuniform 0();
    }
    wall
    {
        type            calculated;
        value           uniform 0;
    }
    procBoundary2to0
    {
        type            processor;
        value           nonuniform List<scalar> 
44
(
4.72747e-65
4.26246e-65
4.33994e-65
3.25492e-65
4.49485e-65
6.89723e-65
2.86753e-65
4.41751e-65
3.255e-65
3.255e-65
4.72746e-65
8.9899e-65
5.8899e-65
8.29227e-65
6.04477e-65
4.95975e-65
8.06007e-65
6.12252e-65
6.12248e-65
4.72746e-65
8.9899e-65
8.9899e-65
7.1299e-65
7.12983e-65
6.19976e-65
4.57228e-65
7.28506e-65
7.59502e-65
7.67247e-65
8.13744e-65
8.21491e-65
7.1299e-65
7.12983e-65
7.12983e-65
5.42488e-65
2.32492e-65
5.27005e-65
5.89002e-65
7.9825e-65
9.06746e-65
4.49497e-65
9.1449e-65
7.12987e-65
5.42488e-65
)
;
    }
    procBoundary2to3
    {
        type            processor;
        value           nonuniform List<scalar> 
12
(
6.97471e-65
5.19233e-65
5.5024e-65
4.64997e-65
7.51716e-65
6.66476e-65
1.03848e-64
7.7499e-65
7.67219e-65
9.0672e-65
5.11491e-65
8.5249e-65
)
;
    }
    procBoundary2to6
    {
        type            processor;
        value           nonuniform List<scalar> 
32
(
6.74236e-65
6.04495e-65
7.12991e-65
5.11499e-65
5.81247e-65
4.95997e-65
1.03851e-64
7.59505e-65
4.96002e-65
7.44e-65
9.37748e-65
6.12248e-65
7.36246e-65
6.74236e-65
6.04495e-65
6.50994e-65
5.81256e-65
7.90506e-65
6.43252e-65
8.83502e-65
7.0525e-65
7.82749e-65
6.04495e-65
5.11499e-65
7.05248e-65
4.96006e-65
7.20756e-65
5.42503e-65
6.12252e-65
7.59503e-65
5.11499e-65
8.75751e-65
)
;
    }
}


// ************************************************************************* //
