/*--------------------------------*- C++ -*----------------------------------*\
| =========                 |                                                 |
| \\      /  F ield         | OpenFOAM: The Open Source CFD Toolbox           |
|  \\    /   O peration     | Version:  4.x                                   |
|   \\  /    A nd           | Web:      www.OpenFOAM.org                      |
|    \\/     M anipulation  |                                                 |
\*---------------------------------------------------------------------------*/
FoamFile
{
    version     2.0;
    format      ascii;
    class       volScalarField;
    location    "7.5";
    object      p_rgh;
}
// * * * * * * * * * * * * * * * * * * * * * * * * * * * * * * * * * * * * * //

dimensions      [1 -1 -2 0 0 0 0];

internalField   nonuniform List<scalar> 
108
(
114.159
96.7668
104.98
77.6256
95.0795
58.9056
86.2812
41.0533
78.3428
114.725
97.0245
105.79
77.9647
95.8359
59.1337
86.9283
41.5585
79.218
114.386
96.7111
105.54
78.0512
95.7422
59.4336
86.9733
41.8997
79.0986
114.283
96.7889
105.85
78.5253
96.36
60.1547
87.4089
42.557
79.4066
113.071
96.0644
104.676
77.8897
95.3209
59.2499
86.4781
41.1141
78.1787
113.662
96.3656
105.303
78.1422
95.9598
59.4631
87.1931
41.5504
79.2867
113.568
96.2826
105.166
78.0465
95.7467
59.3513
86.8474
41.425
79.0928
113.836
96.335
105.534
78.4497
96.2339
59.8897
87.3263
42.0257
79.3067
112.62
95.7337
104.454
78.0476
95.3969
59.5492
86.2945
41.1459
77.7145
113.136
96.0136
104.867
78.1548
95.7148
59.5883
86.5424
41.2633
77.9724
113.124
95.9344
104.799
78.0369
95.5881
59.5267
86.4619
41.1787
77.9677
113.434
95.9975
105.152
78.3248
95.9103
59.7405
86.6725
41.6275
78.1828
)
;

boundaryField
{
    inlet
    {
        type            fixedFluxPressure;
        gradient        nonuniform List<scalar> 
12
(
0.191534
0.202678
0.215927
0.222168
0.349123
0.354085
0.377177
0.374947
0.665627
0.639568
0.63094
0.569726
)
;
        value           nonuniform List<scalar> 
12
(
114.162
114.728
114.389
114.286
113.076
113.667
113.573
113.841
112.629
113.144
113.133
113.441
)
;
    }
    outlet
    {
        type            fixedValue;
        value           nonuniform 0();
    }
    wall
    {
        type            fixedFluxPressure;
        gradient        nonuniform List<scalar> 
63
(
9.86139e-06
-3.15314e-05
2.37988e-06
2.24038e-05
6.13702e-05
9.38503e-05
0.000100331
0.000104177
4.82916e-05
9.18985e-05
8.29636e-05
0.000128314
0.000102192
0.000201711
0.0002106
0.000295253
7.8781e-05
0.000105492
0.000101085
0.00029143
0.000254287
0.000264443
0.000343981
0.000549677
0.000170984
0.000106033
0.000205442
0.00022526
0.000170203
4.1358e-05
6.32841e-05
8.90279e-05
5.136e-05
0.000181592
-0.000136031
9.76164e-06
-1.1642e-05
3.38885e-06
3.34179e-06
-5.0699e-05
1.51935e-05
8.2018e-06
2.96668e-05
1.87966e-05
4.08012e-05
7.72216e-05
0.000104368
7.40546e-05
-1.44251e-06
4.24533e-05
6.79884e-05
0.000250698
0.000213633
0.000141285
0.000185739
3.75686e-05
3.95366e-05
0.000330935
0.000369022
5.8467e-05
-6.8021e-05
0.000102346
0.000109293
)
;
        value           nonuniform List<scalar> 
63
(
112.62
113.136
113.124
113.434
95.7337
96.0136
95.9344
95.9975
104.454
104.867
104.799
105.152
78.0476
78.1548
78.0369
78.3248
95.3969
95.7148
95.5881
95.9103
59.5492
59.5883
59.5267
59.7405
86.2945
86.5424
86.4619
86.6725
41.1459
41.2633
41.1787
41.6275
77.7145
77.9724
77.9677
78.1828
114.159
113.071
112.62
96.7668
96.0644
95.7337
104.98
104.676
104.454
77.6256
77.8897
78.0476
95.0795
95.3209
95.3969
58.9056
59.2499
59.5492
86.2812
86.4781
86.2945
41.0534
41.1141
41.1459
78.3428
78.1787
77.7145
)
;
    }
    procBoundary4to0
    {
        type            processor;
        value           nonuniform List<scalar> 
36
(
115.904
97.747
104.564
76.4355
93.6346
57.4832
85.4584
40.2296
78.4363
115.834
97.6042
105.159
76.842
94.5762
58.0091
86.3086
40.3708
78.9252
114.775
96.9488
105.082
77.196
94.9906
58.4089
86.4351
40.6041
78.8715
114.191
96.5802
105.357
77.6351
95.7194
59.1696
86.9871
41.2127
79.1586
)
;
    }
    procBoundary4to5
    {
        type            processor;
        value           nonuniform List<scalar> 
12
(
23.2474
24.3233
24.9707
25.9646
22.7028
24.1762
24.1517
25.4692
22.7973
23.1879
23.2124
24.0586
)
;
    }
    procBoundary4to6
    {
        type            processor;
        value           nonuniform List<scalar> 
27
(
113.647
95.8565
105.285
78.1137
96.0294
59.7954
87.3019
42.221
79.4074
113.316
95.7596
105.032
77.9614
95.912
59.662
87.1169
41.8156
79.3261
112.846
95.6307
104.774
78.0783
95.8361
59.8131
86.915
41.4355
78.5495
)
;
    }
}


// ************************************************************************* //
