/*--------------------------------*- C++ -*----------------------------------*\
| =========                 |                                                 |
| \\      /  F ield         | OpenFOAM: The Open Source CFD Toolbox           |
|  \\    /   O peration     | Version:  4.x                                   |
|   \\  /    A nd           | Web:      www.OpenFOAM.org                      |
|    \\/     M anipulation  |                                                 |
\*---------------------------------------------------------------------------*/
FoamFile
{
    version     2.0;
    format      ascii;
    class       volScalarField;
    location    "7.5";
    object      pSmooth;
}
// * * * * * * * * * * * * * * * * * * * * * * * * * * * * * * * * * * * * * //

dimensions      [1 -1 -2 0 0 0 0];

internalField   nonuniform List<scalar> 
108
(
117.867
102.821
110.82
87.2171
102.885
70.6506
93.9961
52.9034
84.2716
118.754
103.36
111.752
87.6017
103.555
70.8493
94.4829
53.3445
84.9516
119.013
103.51
111.773
87.705
103.389
70.8688
94.3534
53.2917
84.5694
119.587
104.113
112.376
88.2946
103.902
71.4204
94.511
53.7081
84.6356
118.013
103.006
110.912
87.3706
102.778
70.5008
93.7933
52.5735
83.8355
118.749
103.446
111.623
87.6696
103.428
70.6843
94.4956
52.9657
84.8714
118.977
103.639
111.682
87.6653
103.222
70.4936
94.0211
52.6718
84.5109
119.603
104.017
112.25
88.1735
103.696
70.9521
94.336
53.0901
84.3526
118.063
103.063
110.902
87.5363
102.706
70.5593
93.3688
52.3853
83.18
118.671
103.426
111.363
87.6972
103.047
70.5845
93.5735
52.4295
83.3562
118.88
103.548
111.432
87.6609
102.933
70.4628
93.3978
52.1804
83.1944
119.412
103.835
111.937
88.039
103.268
70.6354
93.5074
52.4804
83.248
)
;

boundaryField
{
    inlet
    {
        type            zeroGradient;
    }
    outlet
    {
        type            fixedValue;
        value           nonuniform 0();
    }
    wall
    {
        type            zeroGradient;
    }
    procBoundary4to0
    {
        type            processor;
        value           nonuniform List<scalar> 
36
(
117
102.142
110.112
86.6766
102.541
70.2469
94.022
52.6373
84.731
117.771
102.612
110.88
86.9792
103.217
70.489
94.5886
52.578
85.0169
118.067
102.849
111.106
87.1927
103.242
70.4384
94.3303
52.4484
84.7006
118.711
103.368
111.731
87.5705
103.634
70.839
94.4686
52.754
84.6128
)
;
    }
    procBoundary4to5
    {
        type            processor;
        value           nonuniform List<scalar> 
12
(
33.8653
34.8589
35.1136
35.803
33.113
34.4855
34.264
35.3847
33.0295
33.3494
33.1655
33.8049
)
;
    }
    procBoundary4to6
    {
        type            processor;
        value           nonuniform List<scalar> 
27
(
119.514
103.654
112.083
87.9316
103.527
70.8731
94.2757
53.1564
84.4693
119.474
103.769
111.985
87.7946
103.387
70.6377
94.0055
52.7371
84.4127
119.125
103.7
111.749
87.8728
103.205
70.6377
93.6655
52.1752
83.5494
)
;
    }
}


// ************************************************************************* //
