/*--------------------------------*- C++ -*----------------------------------*\
| =========                 |                                                 |
| \\      /  F ield         | OpenFOAM: The Open Source CFD Toolbox           |
|  \\    /   O peration     | Version:  4.x                                   |
|   \\  /    A nd           | Web:      www.OpenFOAM.org                      |
|    \\/     M anipulation  |                                                 |
\*---------------------------------------------------------------------------*/
FoamFile
{
    version     2.0;
    format      ascii;
    class       volScalarField;
    location    "7.5";
    object      Qsource;
}
// * * * * * * * * * * * * * * * * * * * * * * * * * * * * * * * * * * * * * //

dimensions      [1 -1 -3 0 0 0 0];

internalField   nonuniform List<scalar> 
108
(
5.67188e+09
7.55107e+09
9.10815e+09
6.39833e+09
7.83672e+09
6.43467e+09
9.60683e+09
7.40295e+09
1.04525e+10
6.96048e+09
7.22998e+09
9.11431e+09
9.706e+09
9.87429e+09
8.28509e+09
7.88893e+09
5.52618e+09
1.1008e+10
6.62719e+09
1.02189e+10
7.89759e+09
9.3528e+09
8.35263e+09
6.25423e+09
7.20251e+09
1.03326e+10
6.63961e+09
3.43682e+09
6.69336e+09
9.25568e+09
5.66236e+09
8.69562e+09
6.33423e+09
1.13052e+10
6.09785e+09
7.0326e+09
5.80921e+09
5.9319e+09
8.75397e+09
8.74285e+09
9.22867e+09
6.03446e+09
6.3298e+09
8.33869e+09
1.04805e+10
6.17541e+09
7.55342e+09
7.60639e+09
7.62703e+09
7.57483e+09
6.60474e+09
8.32771e+09
9.02957e+09
1.03672e+10
4.1493e+09
7.31177e+09
9.88019e+09
8.26462e+09
9.15534e+09
8.27117e+09
8.09567e+09
7.35885e+09
8.57804e+09
6.15963e+09
8.5477e+09
7.44312e+09
9.64467e+09
1.07721e+10
7.2681e+09
1.17298e+10
8.60836e+09
8.09436e+09
6.10971e+09
7.23357e+09
6.03934e+09
7.01313e+09
7.90998e+09
9.00619e+09
9.14685e+09
8.13373e+09
9.92391e+09
5.6271e+09
9.42268e+09
7.815e+09
6.2718e+09
8.15958e+09
8.17055e+09
8.13053e+09
6.83202e+09
9.42859e+09
5.65659e+09
8.00451e+09
9.14605e+09
7.40825e+09
7.2799e+09
7.55648e+09
8.2105e+09
8.80704e+09
7.98182e+09
8.17968e+09
7.44158e+09
7.38724e+09
8.55454e+09
9.26745e+09
1.00691e+10
5.77918e+09
5.82886e+09
7.95841e+09
)
;

boundaryField
{
    inlet
    {
        type            calculated;
        value           uniform 0;
    }
    outlet
    {
        type            calculated;
        value           nonuniform 0();
    }
    wall
    {
        type            calculated;
        value           uniform 0;
    }
    procBoundary4to0
    {
        type            processor;
        value           nonuniform List<scalar> 
36
(
5.10655e+09
5.45512e+09
7.50657e+09
5.68407e+09
7.83188e+09
8.75316e+09
6.75867e+09
5.06395e+09
7.07903e+09
5.09707e+09
9.55273e+09
8.97506e+09
7.98188e+09
7.08983e+09
6.271e+09
1.03547e+10
7.38193e+09
6.97524e+09
5.14076e+09
5.6034e+09
8.92559e+09
6.14046e+09
8.58305e+09
8.62085e+09
8.25309e+09
5.24173e+09
9.47288e+09
4.79001e+09
6.70275e+09
9.51523e+09
1.02736e+10
5.34393e+09
9.94783e+09
8.54825e+09
5.76676e+09
2.68209e+09
)
;
    }
    procBoundary4to5
    {
        type            processor;
        value           nonuniform List<scalar> 
12
(
7.27303e+09
8.17849e+09
8.56098e+09
1.03941e+10
8.26346e+09
5.94518e+09
9.04362e+09
3.86098e+09
3.82563e+09
7.3317e+09
7.2098e+09
7.86764e+09
)
;
    }
    procBoundary4to6
    {
        type            processor;
        value           nonuniform List<scalar> 
27
(
9.87635e+09
8.90783e+09
6.00172e+09
7.98527e+09
1.09538e+10
6.22525e+09
8.66838e+09
6.75295e+09
9.97596e+09
7.5474e+09
8.97021e+09
9.72782e+09
8.14849e+09
6.66245e+09
7.88729e+09
7.84493e+09
6.25085e+09
9.51803e+09
5.38693e+09
5.85578e+09
7.92206e+09
7.42552e+09
7.87343e+09
6.93585e+09
1.10025e+10
9.1906e+09
5.28957e+09
)
;
    }
}


// ************************************************************************* //
