/*--------------------------------*- C++ -*----------------------------------*\
  =========                 |
  \\      /  F ield         | OpenFOAM: The Open Source CFD Toolbox
   \\    /   O peration     | Website:  https://openfoam.org
    \\  /    A nd           | Version:  4.x
     \\/     M anipulation  |
\*---------------------------------------------------------------------------*/
FoamFile
{
    version     2.0;
    format      ascii;
    class       vectorField;
    location    0;
    object      v;
}
// * * * * * * * * * * * * * * * * * * * * * * * * * * * * * * * * * * * * * //

313
(
( 5.19678e-09 -3.20734e-09 3.60814e-09 )  
( 2.72471e-09 -4.38291e-10 2.93653e-09 )  
( 4.14103e-09 -3.23102e-09 4.73439e-09 )  
( 3.19898e-09 -3.97713e-10 3.22642e-09 )  
( 6.29047e-09 -5.43707e-09 4.97679e-09 )  
( 5.01777e-09 -1.40162e-09 3.44223e-09 )  
( 2.78111e-09 -1.22525e-09 2.20697e-09 )  
( 5.6118e-09 -2.81113e-09 4.42562e-09 )  
( 3.80321e-09 -1.19493e-09 2.82494e-09 )  
( 2.34014e-09 -1.22066e-09 2.15961e-09 )  
( 3.33252e-09 8.26478e-10 4.53899e-09 )  
( 3.82927e-09 -9.4685e-10 1.10584e-09 )  
( 4.81596e-10 -1.38708e-10 7.97773e-10 )  
( 2.54306e-09 -1.82427e-09 1.37938e-09 )  
( 3.81907e-09 -2.12767e-09 1.77453e-09 )  
( 6.77748e-10 -6.70463e-10 1.07284e-09 )  
( 9.77256e-11 -8.09492e-11 4.89591e-10 )  
( 1.74629e-09 -1.4154e-09 1.33077e-09 )  
( 4.49433e-09 -1.56511e-09 1.7881e-09 )  
( 2.02839e-10 -3.34682e-10 1.18565e-09 )  
( 6.04995e-10 -3.95032e-11 1.02954e-09 )  
( 3.73382e-10 2.56196e-12 2.90933e-10 )  
( 2.75765e-09 -1.46848e-09 1.46348e-09 )  
( 1.02899e-09 -5.90938e-10 6.98789e-12 )  
( 2.05207e-10 4.15512e-11 2.43932e-10 )  
( 5.41098e-11 -1.29402e-10 1.9624e-10 )  
( 1.13611e-10 -1.82428e-10 1.93379e-10 )  
( 5.91868e-10 -2.10157e-10 6.9264e-10 )  
( 6.91971e-10 -6.93513e-10 4.16105e-10 )  
( 1.12871e-09 -1.16845e-09 6.73916e-10 )  
( 1.5318e-09 -1.65367e-09 1.10179e-09 )  
( 6.46228e-10 -4.1966e-11 7.80656e-10 )  
( 5.487e-09 -5.63825e-10 2.6601e-09 )  
( 1.10474e-10 1.22478e-11 1.38551e-09 )  
( 3.44464e-10 -2.14829e-10 1.3882e-09 )  
( 3.91691e-09 -3.01341e-09 1.57714e-09 )  
( 1.78156e-09 -1.40862e-09 6.09362e-10 )  
( 1.13497e-09 -1.38583e-09 6.6697e-10 )  
( 1.37685e-09 -1.52267e-09 3.87417e-10 )  
( 8.79674e-10 -1.20805e-09 6.74228e-10 )  
( 6.76502e-10 -2.70711e-10 8.87654e-10 )  
( 8.13002e-10 -9.17328e-10 4.3357e-10 )  
( 9.94029e-10 -2.30361e-10 2.75996e-11 )  
( 7.01088e-10 -8.92875e-10 7.0989e-10 )  
( 5.58898e-10 -1.37129e-09 1.15875e-09 )  
( 2.24636e-09 -1.4148e-09 5.19968e-10 )  
( 7.07825e-11 -1.80127e-10 1.25744e-10 )  
( 2.43419e-09 -1.84015e-09 1.1957e-09 )  
( 1.33973e-09 -1.21792e-09 5.89515e-10 )  
( 8.66363e-11 -3.77001e-10 3.71653e-10 )  
( 3.04729e-09 -3.08264e-09 1.79506e-09 )  
( 1.02089e-09 -9.30643e-10 1.40303e-09 )  
( 7.51724e-10 -2.24167e-10 -2.58582e-10 )  
( 7.71649e-11 -1.72534e-10 1.03047e-09 )  
( -3.15015e-10 -6.1492e-10 5.91741e-10 )  
( 8.83198e-10 -1.26566e-09 1.77914e-09 )  
( 2.95168e-09 -2.28493e-09 1.20546e-09 )  
( 2.0992e-09 -7.87424e-10 1.44528e-09 )  
( 3.81322e-09 -2.66844e-09 1.18449e-09 )  
( 3.05679e-10 -2.1647e-11 7.31394e-10 )  
( 1.09704e-09 -5.06894e-10 1.12999e-09 )  
( 1.03253e-09 -8.13097e-10 1.51138e-09 )  
( 1.10596e-09 -1.45773e-09 7.91396e-10 )  
( 4.66844e-10 -5.8919e-10 1.05841e-09 )  
( 2.17292e-10 -5.48364e-11 3.2233e-10 )  
( 1.06372e-09 -7.56024e-10 9.61681e-10 )  
( 2.60729e-10 -1.35829e-10 2.14277e-10 )  
( 6.08197e-10 -4.37028e-10 1.2601e-09 )  
( 1.67341e-09 -1.36304e-09 8.10994e-10 )  
( 2.15877e-09 -2.22154e-09 9.14768e-10 )  
( 2.24684e-09 -1.07166e-09 1.61136e-09 )  
( 1.37925e-09 -1.88945e-09 1.55049e-09 )  
( 4.27099e-09 -3.23316e-09 2.51931e-09 )  
( 1.35297e-10 -2.00067e-10 1.02298e-09 )  
( 7.01732e-10 -2.17591e-10 3.7849e-10 )  
( 5.66384e-10 -6.4701e-10 9.57546e-10 )  
( 1.33021e-10 -1.31709e-10 1.28763e-09 )  
( 1.8767e-09 -1.76308e-09 9.84456e-10 )  
( 1.93917e-09 -1.66287e-09 7.16883e-10 )  
( 2.63297e-10 -6.58234e-11 4.07328e-10 )  
( 1.06656e-09 -1.1794e-09 1.46058e-10 )  
( -1.31833e-10 -3.67903e-11 9.02614e-10 )  
( -3.5254e-10 -5.52013e-10 1.00433e-10 )  
( 1.24827e-09 -1.22847e-09 6.66109e-10 )  
( -2.22427e-11 -4.4858e-11 -6.11569e-11 )  
( 3.03048e-09 -8.74626e-10 1.6578e-09 )  
( 6.57538e-10 3.20141e-10 6.49498e-10 )  
( 5.60393e-10 -1.05257e-09 1.41316e-09 )  
( 2.78182e-11 -1.80014e-10 1.37406e-10 )  
( 9.21377e-11 3.67305e-11 4.7907e-11 )  
( 6.62086e-10 -1.49255e-09 1.42674e-09 )  
( 5.14822e-10 -2.48867e-10 3.28103e-10 )  
( 5.75314e-10 -4.92564e-10 -1.24363e-10 )  
( 3.71436e-10 2.07947e-10 2.90833e-10 )  
( 5.73003e-10 -1.06268e-09 1.58675e-09 )  
( 5.27122e-09 -1.21543e-09 2.31448e-09 )  
( 3.29848e-09 -2.35894e-09 3.82752e-10 )  
( 3.93113e-10 1.59877e-10 5.92175e-10 )  
( 3.0487e-09 -2.21216e-09 1.16852e-09 )  
( 4.98472e-10 -1.83486e-10 3.05024e-10 )  
( 1.09634e-09 -1.11227e-09 4.66849e-10 )  
( 3.74376e-10 -6.07828e-10 4.33676e-10 )  
( 4.45496e-09 -4.19201e-09 2.43752e-09 )  
( 5.94835e-09 -3.90542e-09 2.52806e-09 )  
( 1.7537e-09 -1.93648e-09 1.32177e-09 )  
( 2.72877e-09 -1.80342e-09 8.19467e-10 )  
( 3.30922e-10 -1.07526e-10 6.3577e-10 )  
( 6.62383e-09 -2.89371e-09 2.40986e-09 )  
( 1.1481e-09 -1.61622e-09 8.78615e-10 )  
( 8.39766e-10 -4.49408e-10 9.83393e-10 )  
( 8.83688e-10 -6.59088e-10 5.12956e-10 )  
( 1.76023e-09 -1.55486e-09 7.77692e-10 )  
( 2.01804e-09 -1.61706e-09 1.0053e-09 )  
( 4.14581e-10 -3.96974e-10 3.22534e-10 )  
( 9.10419e-10 -5.2709e-10 6.21793e-10 )  
( 2.1764e-09 -8.96056e-10 1.45467e-09 )  
( 1.39491e-09 -7.5256e-10 -7.49874e-11 )  
( 3.23242e-09 -1.50621e-09 2.27793e-09 )  
( 6.0029e-10 -8.31226e-10 3.70602e-10 )  
( 4.12035e-10 -2.46075e-10 1.08216e-09 )  
( -1.10984e-11 -1.59563e-10 1.06871e-09 )  
( 6.83819e-10 -3.08517e-10 1.33542e-09 )  
( 1.50447e-10 1.3919e-10 9.691e-11 )  
( 5.27936e-09 -4.23262e-09 2.83111e-09 )  
( 8.88612e-10 -1.00026e-09 -4.67623e-10 )  
( 3.18133e-10 -8.61793e-11 3.45226e-10 )  
( 1.48066e-09 -8.50797e-10 3.59855e-10 )  
( 8.74058e-10 -1.85404e-09 9.72602e-10 )  
( 1.46494e-10 1.06368e-10 4.20134e-11 )  
( 5.23016e-10 -8.6563e-10 6.95872e-10 )  
( 2.39265e-09 -2.12478e-09 1.60671e-09 )  
( 1.72347e-10 -2.50909e-10 2.9728e-11 )  
( 4.63033e-09 -2.44624e-09 1.54579e-09 )  
( 3.27576e-09 -3.00195e-09 1.07413e-09 )  
( 6.2648e-10 -3.21133e-10 -4.16747e-10 )  
( 2.33349e-10 -2.39166e-10 6.61868e-10 )  
( 5.89909e-10 -1.05937e-10 3.24598e-10 )  
( 4.09192e-09 -2.69678e-09 1.15329e-09 )  
( 8.72795e-11 -1.70335e-10 3.52045e-10 )  
( 1.17737e-09 -6.02902e-10 5.79886e-10 )  
( 1.60884e-10 -3.40075e-10 2.53677e-10 )  
( 1.64434e-10 -1.09352e-10 2.92566e-10 )  
( 8.03377e-10 -9.56823e-10 1.01597e-09 )  
( 1.19862e-09 -1.13875e-09 7.8554e-10 )  
( 3.58582e-10 -1.54612e-10 2.34213e-10 )  
( 2.99042e-09 -1.59904e-09 1.92595e-09 )  
( 5.96597e-10 -3.32597e-10 2.42482e-10 )  
( 2.83082e-09 -1.7297e-09 1.7599e-09 )  
( 4.20894e-10 -4.66681e-10 4.44774e-10 )  
( 9.10633e-10 -3.8394e-10 8.27204e-10 )  
( 1.39708e-09 -3.76915e-10 6.71421e-10 )  
( 1.19127e-09 6.11424e-11 1.08843e-09 )  
( 1.38268e-09 -5.59571e-10 7.98682e-10 )  
( 6.86929e-09 -5.84186e-10 6.73878e-10 )  
( 2.29547e-09 2.46168e-10 1.28298e-09 )  
( 5.17021e-10 -2.62078e-10 5.70464e-10 )  
( 1.38891e-09 -3.32838e-10 1.06469e-09 )  
( 3.29521e-09 -8.77336e-10 1.55771e-09 )  
( 3.36991e-09 -5.80007e-10 1.54547e-09 )  
( 1.21706e-09 -3.35565e-10 7.51294e-10 )  
( 1.90346e-09 -5.5628e-10 9.09588e-10 )  
( 3.17688e-09 -5.61057e-10 6.28815e-10 )  
( 1.34581e-10 -9.92608e-11 2.70059e-10 )  
( 2.44565e-09 -3.98609e-10 1.78355e-09 )  
( 4.97698e-11 1.32607e-10 1.54004e-11 )  
( 7.25445e-13 -6.32671e-11 1.83709e-10 )  
( 1.08751e-10 -2.91596e-10 1.01412e-10 )  
( 1.59232e-09 -5.99034e-10 6.32312e-10 )  
( 2.33922e-09 -7.90861e-10 1.28573e-09 )  
( 1.69755e-10 -1.7302e-10 1.5454e-10 )  
( 2.84631e-10 -4.63424e-11 3.54196e-10 )  
( 2.21373e-10 -1.82641e-10 1.8981e-10 )  
( 2.16373e-09 -6.53857e-10 1.08206e-09 )  
( 2.68687e-10 -1.44379e-10 5.50412e-10 )  
( 4.86289e-09 -1.15067e-09 1.66603e-09 )  
( 1.88338e-09 -9.36993e-10 1.36844e-09 )  
( 4.27344e-10 -2.4553e-10 4.23558e-10 )  
( -1.36717e-11 1.75485e-10 6.94915e-11 )  
( 7.86015e-10 -4.97279e-10 7.11991e-10 )  
( 2.63834e-09 -8.18524e-10 8.42771e-10 )  
( 1.08024e-09 -4.09235e-10 3.38773e-10 )  
( 4.18527e-09 -3.19788e-10 7.61814e-10 )  
( 6.58854e-10 -3.52832e-10 1.88312e-10 )  
( 2.17345e-09 -3.77637e-10 9.23132e-10 )  
( 9.83182e-10 -1.74882e-10 9.37429e-10 )  
( 1.51675e-10 -1.17154e-10 4.34683e-10 )  
( 1.37737e-10 -1.5801e-10 3.43626e-10 )  
( 8.63737e-10 -5.23057e-10 8.97919e-10 )  
( 6.22163e-10 -6.01423e-10 6.71221e-10 )  
( 7.17562e-10 -3.87383e-10 6.81014e-10 )  
( 6.23805e-10 -4.04464e-10 1.19769e-09 )  
( 4.82117e-10 -3.78817e-10 3.68195e-10 )  
( 6.58075e-10 -1.60357e-10 3.72484e-10 )  
( 3.19873e-09 -5.60192e-10 1.03115e-09 )  
( 5.84339e-09 -1.06488e-09 6.99019e-10 )  
( 1.77901e-09 -2.35519e-10 9.20889e-10 )  
( 1.09325e-09 -6.55069e-10 1.03941e-09 )  
( 4.76198e-10 -3.89883e-10 4.8396e-10 )  
( 2.54834e-11 -3.92296e-10 2.37496e-10 )  
( 2.93247e-11 -2.62976e-11 4.73424e-10 )  
( 4.44858e-09 -8.88058e-10 1.65139e-09 )  
( 6.24433e-10 -2.33402e-10 2.83569e-10 )  
( 3.02132e-09 -7.9862e-10 1.83166e-09 )  
( 1.5052e-09 -6.50186e-10 1.66789e-09 )  
( 1.30314e-09 -5.75631e-10 1.13073e-09 )  
( 1.42545e-09 -2.84576e-10 6.49703e-10 )  
( 4.6877e-09 -3.07859e-11 1.18922e-09 )  
( 8.67016e-10 -1.8023e-10 4.22007e-10 )  
( 1.93514e-09 -5.82252e-10 5.90246e-10 )  
( 1.25219e-10 1.1504e-11 1.16213e-10 )  
( 6.37268e-10 -4.02345e-10 8.13566e-10 )  
( -1.46152e-12 -1.85646e-11 6.53546e-11 )  
( 1.74637e-09 -1.59068e-09 1.71366e-09 )  
( 9.49294e-10 -7.16097e-10 9.10951e-10 )  
( 1.24873e-09 -2.98329e-10 6.34171e-10 )  
( 1.33526e-10 1.19893e-10 2.61393e-10 )  
( 3.51451e-11 -8.34836e-11 1.52728e-10 )  
( 1.19425e-09 -2.72243e-10 8.72565e-10 )  
( 3.5188e-09 -3.9476e-09 2.73705e-09 )  
( 9.49626e-12 -9.00839e-11 2.04541e-10 )  
( 2.45822e-09 -1.08243e-09 1.5853e-09 )  
( 2.67423e-11 1.37308e-11 1.49429e-10 )  
( 1.76466e-09 -1.15604e-09 7.51046e-10 )  
( 5.29581e-10 -4.08875e-10 9.53341e-10 )  
( 5.06223e-09 -2.67087e-09 2.91012e-09 )  
( 6.22292e-09 -4.99681e-10 2.26822e-09 )  
( 3.78919e-09 -1.51319e-09 9.48233e-10 )  
( 3.3274e-11 -1.97918e-10 -1.73648e-10 )  
( 3.53565e-09 -2.60453e-09 1.39959e-09 )  
( 2.44418e-10 -2.0013e-10 1.06319e-09 )  
( 2.11123e-09 -7.01979e-10 1.57963e-09 )  
( 7.80768e-10 -6.04164e-10 1.93667e-10 )  
( 1.99484e-09 -8.86531e-10 1.58074e-09 )  
( 7.76397e-09 -2.11588e-09 2.99163e-09 )  
( -5.33931e-10 -9.59013e-11 2.81456e-10 )  
( 1.43241e-10 -3.76105e-10 1.11248e-09 )  
( 2.1164e-09 -3.61242e-10 7.60806e-10 )  
( 7.85446e-10 -7.0741e-10 5.00698e-10 )  
( 2.25135e-09 -2.74231e-10 1.31679e-09 )  
( 2.05984e-09 -1.43621e-09 1.29288e-09 )  
( 1.10691e-09 -7.06434e-10 5.62487e-10 )  
( 3.86414e-10 -2.74711e-10 8.72308e-10 )  
( 3.70355e-10 -1.2586e-10 5.03941e-10 )  
( 3.07853e-09 -7.41238e-10 1.78142e-09 )  
( 2.32647e-09 -4.67941e-10 9.623e-10 )  
( 1.71291e-09 -1.31197e-09 1.47232e-09 )  
( 6.77796e-10 3.9846e-11 1.31956e-09 )  
( 1.85933e-10 -2.4521e-11 7.01259e-10 )  
( 2.53594e-09 -4.79804e-10 1.84876e-09 )  
( 1.63109e-09 -6.66918e-10 1.521e-09 )  
( 6.35663e-10 -4.84184e-10 1.07642e-09 )  
( 6.41962e-10 -4.41836e-10 8.00374e-10 )  
( -1.26217e-11 -1.70375e-10 3.0395e-10 )  
( -3.91199e-11 9.44745e-12 -3.58975e-12 )  
( 5.64266e-10 -4.60476e-10 5.84433e-10 )  
( 2.41265e-09 -1.8381e-09 1.14468e-09 )  
( 5.7296e-10 1.16196e-10 5.35441e-10 )  
( 3.27512e-09 -2.4177e-09 1.61955e-09 )  
( 2.41387e-09 -1.98865e-09 1.80636e-09 )  
( 3.00386e-09 -1.11259e-09 2.10561e-09 )  
( 7.67557e-10 3.2918e-12 8.86375e-10 )  
( 9.12559e-10 -1.16514e-09 1.23771e-09 )  
( 9.65052e-10 -4.67579e-11 1.00135e-09 )  
( 6.35778e-10 -1.92824e-10 1.15917e-09 )  
( 1.49781e-09 -1.82715e-09 1.06218e-09 )  
( 2.87723e-09 -3.53433e-09 2.42929e-09 )  
( 2.84043e-10 -6.73219e-11 2.83655e-10 )  
( 1.81459e-09 -2.00418e-09 1.01642e-09 )  
( 6.90693e-10 -3.09133e-10 8.8403e-10 )  
( 6.5322e-10 -2.37099e-10 6.53234e-10 )  
( 3.31416e-09 -2.07279e-09 1.26873e-09 )  
( 5.87614e-10 6.51407e-11 6.61762e-10 )  
( 7.75146e-11 -1.04311e-10 6.21996e-10 )  
( 1.28655e-09 -3.94983e-10 1.06214e-09 )  
( 2.83777e-10 -1.87361e-10 1.51388e-09 )  
( 9.97724e-10 -1.41101e-09 1.26465e-09 )  
( 1.7299e-09 -7.11533e-10 1.56954e-09 )  
( 2.22635e-09 -1.64901e-09 7.19207e-10 )  
( 3.69517e-09 -1.95501e-09 2.29486e-09 )  
( 1.04479e-10 -1.58483e-10 3.85531e-10 )  
( 6.23727e-09 -6.88677e-09 3.35859e-09 )  
( 1.42528e-09 -1.91174e-10 1.0056e-09 )  
( 4.50276e-09 -4.83607e-09 2.05703e-09 )  
( 5.43101e-10 2.43874e-10 3.9006e-10 )  
( 3.9376e-09 -4.20707e-09 1.86959e-09 )  
( -1.92569e-10 -1.75011e-10 3.47217e-10 )  
( 8.23943e-10 -1.74738e-09 3.26486e-10 )  
( 9.93427e-10 -5.5739e-10 1.20126e-09 )  
( 8.27099e-10 -3.73375e-10 9.28907e-10 )  
( 1.29769e-09 -8.25946e-10 1.68964e-09 )  
( 6.1313e-10 -7.49244e-11 6.30298e-10 )  
( 1.88503e-09 -1.43767e-09 1.24233e-09 )  
( 1.26096e-09 -6.98507e-10 1.44974e-09 )  
( 2.23904e-09 -2.63428e-09 1.51657e-09 )  
( 1.88587e-09 -3.161e-10 1.23937e-09 )  
( 1.21127e-09 -5.64647e-10 -2.41745e-10 )  
( 2.44921e-10 -1.56288e-10 1.19446e-09 )  
( 2.82338e-09 -3.85075e-09 2.4988e-09 )  
( 3.93142e-09 -4.10494e-09 1.53627e-09 )  
( 5.36406e-10 -2.68571e-09 5.76798e-10 )  
( 9.23648e-11 8.04031e-11 3.99684e-10 )  
( 1.28927e-09 -1.77758e-10 2.06348e-10 )  
( 7.26952e-10 -1.2862e-10 8.38173e-10 )  
( 4.42595e-09 -4.64823e-09 2.20614e-09 )  
( 3.58187e-10 -2.23e-10 5.44371e-10 )  
( 9.97665e-10 -3.70074e-10 1.09842e-09 )  
( 8.68868e-10 -4.18483e-10 1.27145e-09 )  
( 1.57996e-09 -1.81337e-09 1.12347e-09 )  
( 1.57099e-09 -3.87725e-10 1.53104e-09 )  
( 3.27021e-09 -3.585e-09 2.61989e-09 )  
( 6.97985e-10 9.03798e-11 1.41831e-09 )  
( 2.48513e-09 -1.71321e-09 2.02128e-09 )  
( 6.52514e-09 -5.02464e-09 4.60186e-09 )  
)
