/*--------------------------------*- C++ -*----------------------------------*\
| =========                 |                                                 |
| \\      /  F ield         | OpenFOAM: The Open Source CFD Toolbox           |
|  \\    /   O peration     | Version:  4.x                                   |
|   \\  /    A nd           | Web:      www.OpenFOAM.org                      |
|    \\/     M anipulation  |                                                 |
\*---------------------------------------------------------------------------*/
FoamFile
{
    version     2.0;
    format      ascii;
    class       volVectorField;
    location    "31.5";
    object      DDtUrel;
}
// * * * * * * * * * * * * * * * * * * * * * * * * * * * * * * * * * * * * * //

dimensions      [0 1 -2 0 0 0 0];

internalField   nonuniform List<vector> 
87
(
(0.000243094 3.74599e-05 2.62798e-05)
(0.000155417 2.04558e-05 4.98747e-06)
(0.00014689 7.92402e-06 6.43339e-06)
(-1.49858e-05 -2.19029e-05 -2.30287e-05)
(-3.44458e-05 -4.91146e-05 -1.97395e-05)
(-0.000458547 -0.0001254 -0.00013648)
(-0.000661427 -0.000187178 -0.000208593)
(-0.00225048 -0.00043578 -0.000735168)
(-0.00412564 -0.000637875 -0.00124163)
(0.000207959 3.40858e-05 2.90218e-05)
(0.000124215 1.88914e-05 1.46498e-05)
(0.000104671 1.29122e-05 1.69138e-05)
(-6.12258e-05 -2.14799e-05 -7.75202e-06)
(-0.000114641 -3.09724e-05 -5.52962e-06)
(-0.00051676 -0.000117102 -0.000114118)
(-0.000784025 -0.000135557 -0.000180214)
(-0.00210155 -0.000419311 -0.000556655)
(-0.00366964 -0.000684287 -0.000960759)
(0.000157051 2.6304e-05 2.8418e-05)
(7.6309e-05 1.8849e-05 1.76884e-05)
(4.22803e-05 1.01205e-05 2.38878e-05)
(-0.000118873 -1.98867e-05 -9.47512e-06)
(-0.000213924 -3.34169e-05 -8.89902e-06)
(-0.000571693 -9.48793e-05 -0.000124023)
(-0.000879382 -0.000114346 -0.000190413)
(-0.00189413 -0.000329808 -0.0005827)
(-0.00310014 -0.00053032 -0.00098216)
(0.000163786 3.3617e-05 2.72594e-05)
(9.12025e-05 2.25032e-05 1.0722e-05)
(7.23403e-05 1.15824e-05 1.31409e-05)
(-6.32434e-05 -1.26515e-05 -1.12236e-05)
(-0.000123275 -3.7284e-05 -1.05115e-05)
(-0.000472199 -0.000104166 -0.000109518)
(-0.000765474 -0.00017231 -0.000171444)
(-0.0019334 -0.000358954 -0.000587685)
(-0.00329699 -0.000510777 -0.00100053)
(0.000134229 2.81904e-05 3.11132e-05)
(6.82606e-05 1.782e-05 1.89191e-05)
(4.49916e-05 1.48543e-05 2.18739e-05)
(-9.01459e-05 -1.6201e-05 -2.71415e-06)
(-0.000172477 -2.43977e-05 -3.45626e-06)
(-0.000503179 -0.00010112 -9.90705e-05)
(-0.00083189 -0.000131355 -0.000165248)
(-0.00181348 -0.000390991 -0.000492818)
(-0.00295791 -0.000619629 -0.000827565)
(9.14485e-05 1.82551e-05 3.11615e-05)
(3.26797e-05 1.27823e-05 2.1185e-05)
(-1.44127e-05 8.74827e-06 2.23504e-05)
(-0.000131765 -9.72453e-06 4.73536e-07)
(-0.000269703 -2.36183e-05 -1.43376e-05)
(-0.00054626 -6.38828e-05 -0.000101507)
(-0.00092499 -0.000103744 -0.000202012)
(-0.00162325 -0.0002696 -0.00052894)
(-0.00242099 -0.000404191 -0.000807704)
(9.40107e-05 3.24355e-05 1.74174e-05)
(2.35893e-05 2.20727e-05 5.31798e-06)
(-2.04561e-06 1.37437e-05 7.29331e-06)
(-0.000125311 -1.41399e-05 -1.48954e-05)
(-0.00020523 -3.30645e-05 -9.31145e-06)
(-0.000495651 -9.51514e-05 -8.00326e-05)
(-0.00081368 -0.000151575 -9.5838e-05)
(-0.00163334 -0.000305979 -0.000370462)
(-0.00265051 -0.000446296 -0.000694118)
(7.39207e-05 2.61371e-05 2.16337e-05)
(1.62875e-05 1.46751e-05 1.38305e-05)
(-1.33488e-05 1.08834e-05 1.63575e-05)
(-0.000127257 -1.51405e-05 -5.62755e-06)
(-0.00022734 -2.76079e-05 -7.10297e-06)
(-0.000495254 -9.21156e-05 -7.84946e-05)
(-0.000820727 -0.000130392 -0.000114024)
(-0.00152733 -0.000330957 -0.000353293)
(-0.00240376 -0.000512054 -0.000614547)
(4.33452e-05 1.51604e-05 2.32343e-05)
(-2.63769e-06 9.07688e-06 1.55301e-05)
(-5.01514e-05 4.19833e-06 1.41117e-05)
(-0.000148449 -1.09728e-05 -3.90467e-06)
(-0.000277386 -2.4537e-05 -1.50468e-05)
(-0.000507247 -6.4609e-05 -8.63128e-05)
(-0.000851315 -8.61826e-05 -0.000147223)
(-0.00135046 -0.000254915 -0.000368948)
(-0.00202461 -0.000382593 -0.000584672)
(3.36647e-05 2.54694e-05 2.09597e-05)
(-2.62844e-05 1.95479e-05 1.42787e-05)
(-7.77043e-05 1.31842e-05 1.59748e-05)
(2.30161e-05 2.08601e-05 1.772e-05)
(-2.19137e-05 1.43611e-05 1.46994e-05)
(8.88352e-06 1.17981e-05 1.51742e-05)
)
;

boundaryField
{
    inlet
    {
        type            calculated;
        value           nonuniform 0();
    }
    outlet
    {
        type            calculated;
        value           nonuniform List<vector> 9((-0.0141359 -0.00153973 -0.00448119) (-0.0112784 -0.00235444 -0.00175234) (-0.00833014 -0.00244735 -0.00337275) (-0.00819539 -0.000478152 -0.00306835) (-0.00678886 -0.00248508 -0.00168773) (-0.00279778 -0.00122064 -0.00192006) (-0.00653729 -0.000631971 -0.00264571) (-0.00542319 -0.00162174 -0.00192465) (-0.00319753 -0.00191408 -0.00160696));
    }
    wall
    {
        type            calculated;
        value           nonuniform List<vector> 
57
(
(0.000828592 0.000102354 7.44214e-05)
(0.000724569 0.000119384 7.90245e-05)
(0.00045078 0.000107493 5.58461e-05)
(0.000191174 4.50759e-06 -0.000115754)
(0.000138458 -1.22823e-05 -3.20406e-05)
(-6.70192e-05 4.84053e-05 -5.24697e-05)
(0.00100131 3.74582e-05 5.39299e-05)
(0.000823422 0.000122792 9.97283e-05)
(0.000487283 7.81702e-05 0.000158021)
(-0.000187068 -5.9983e-05 -0.000212108)
(-0.000302247 -0.000121914 -5.82879e-05)
(-0.00039465 -0.000150375 -0.000206873)
(0.00179429 1.80059e-05 0.000297374)
(0.00125131 0.000260085 0.000401149)
(0.000713992 1.2945e-05 0.000343988)
(-0.000954926 -0.000262745 -0.00043207)
(-0.00100535 -0.000427843 -0.000199047)
(-0.000788914 -0.000473691 -0.00043602)
(0.00452465 0.000214241 0.00106337)
(0.00268179 0.000803996 0.000897861)
(0.00169202 0.000274206 0.000911569)
(-0.00275177 -0.000871771 -0.00179906)
(-0.00235065 -0.000790665 -3.56957e-05)
(-0.00180647 -0.00112456 -0.00108537)
(-0.0141359 -0.00153973 -0.00448119)
(-0.0112784 -0.00235444 -0.00175234)
(-0.00833014 -0.00244735 -0.00337275)
(0.000828592 0.000102354 7.44214e-05)
(0.000422384 7.50483e-05 9.47295e-05)
(0.00031395 0.000110873 1.3231e-06)
(-6.6583e-06 7.27806e-05 6.58572e-05)
(0.000191174 4.50759e-06 -0.000115754)
(-2.32267e-06 4.37984e-05 -4.16797e-05)
(-0.000153473 4.46069e-05 -0.000110332)
(-0.000262156 5.52537e-05 -3.90633e-06)
(0.00100131 3.74582e-05 5.39299e-05)
(0.000533987 4.92571e-05 0.000111701)
(0.00035286 9.42238e-05 1.33701e-05)
(-0.000343091 9.24067e-05 4.52399e-05)
(-0.000187068 -5.9983e-05 -0.000212108)
(-0.000183563 3.23704e-05 -7.11747e-05)
(-0.000305584 -5.23037e-05 -0.000215919)
(0.00179429 1.80059e-05 0.000297374)
(0.000942892 8.3313e-05 0.000315707)
(0.000597445 0.000113007 0.000183608)
(-0.000954926 -0.000262745 -0.00043207)
(-0.000527636 -7.2033e-05 -0.000269411)
(-0.00044641 -0.000121037 -0.000384771)
(0.00452465 0.000214241 0.00106337)
(0.00210058 6.83445e-05 0.000839767)
(0.000851292 0.000194292 0.000842316)
(-0.00275177 -0.000871771 -0.00179906)
(-0.00161405 -0.000300606 -0.00110249)
(-0.00116802 -0.000191159 -0.000459994)
(-0.0141359 -0.00153973 -0.00448119)
(-0.00819539 -0.000478152 -0.00306835)
(-0.00653729 -0.000631971 -0.00264571)
)
;
    }
    procBoundary1to0
    {
        type            processor;
        value           nonuniform List<vector> 
12
(
(0.000258362 4.12498e-05 2.92308e-05)
(0.000216821 3.26986e-05 2.91686e-05)
(0.000166695 2.02831e-05 2.72519e-05)
(0.000175471 3.45635e-05 2.96001e-05)
(0.000142548 2.49325e-05 2.91945e-05)
(0.000106851 1.55874e-05 2.73653e-05)
(0.000106599 3.00337e-05 1.7866e-05)
(8.29198e-05 2.0497e-05 1.98455e-05)
(6.35158e-05 1.28927e-05 2.26777e-05)
(5.51403e-05 2.16996e-05 2.12916e-05)
(4.12952e-05 1.72555e-05 1.72427e-05)
(3.15676e-05 1.07805e-05 1.56949e-05)
)
;
    }
    procBoundary1to3
    {
        type            processor;
        value           nonuniform List<vector> 
27
(
(0.000151123 1.42373e-05 2.87433e-05)
(6.95316e-05 1.65722e-05 2.22053e-05)
(2.59471e-05 9.02678e-06 3.04312e-05)
(-0.000143393 -3.27724e-06 7.39636e-06)
(-0.000282468 -9.94398e-06 3.85353e-07)
(-0.000634189 -2.44981e-05 -0.000106253)
(-0.00102085 -2.31113e-05 -0.000204236)
(-0.00178405 -5.67984e-05 -0.0004909)
(-0.00277748 -8.85353e-05 -0.000820113)
(9.04436e-05 1.05752e-05 2.89127e-05)
(2.66381e-05 9.90484e-06 2.20142e-05)
(-2.22108e-05 5.35232e-06 2.63541e-05)
(-0.000147773 1.88796e-06 3.78265e-06)
(-0.000288475 -5.03542e-06 -1.03458e-05)
(-0.000565259 -4.12552e-06 -9.90356e-05)
(-0.000934436 -1.39699e-05 -0.000190275)
(-0.00155103 1.58497e-05 -0.000484525)
(-0.00232205 3.98152e-05 -0.000768142)
(3.64242e-05 6.08717e-06 2.37841e-05)
(-2.45697e-06 5.04342e-06 1.66784e-05)
(-6.29191e-05 3.99561e-06 1.57603e-05)
(-0.000157147 1.41987e-06 -1.1431e-06)
(-0.000291495 -9.17855e-07 -1.7327e-05)
(-0.000511599 -1.00592e-06 -8.32306e-05)
(-0.00085495 -3.24788e-07 -0.000160713)
(-0.00129919 1.65437e-05 -0.000393437)
(-0.00189641 1.89246e-05 -0.00058158)
)
;
    }
    procBoundary1to5
    {
        type            processor;
        value           nonuniform List<vector> 
32
(
(-0.000172149 -1.18036e-05 8.47558e-06)
(-0.000304565 -3.63407e-05 7.38115e-06)
(-0.000506177 -8.67046e-05 -1.0722e-05)
(-0.000868341 -0.0001612 -3.48607e-05)
(-0.00138274 -0.00028052 -8.956e-05)
(-0.00205797 -0.000403817 -0.000172482)
(-6.70927e-05 9.75225e-06 1.84178e-05)
(-0.000155983 -9.01949e-06 9.58243e-06)
(-0.000280118 -2.64707e-05 9.38668e-06)
(-0.000491248 -7.67515e-05 -1.83094e-05)
(-0.000829541 -0.000133355 -3.78565e-05)
(-0.0012999 -0.000279101 -0.000119405)
(-0.00192339 -0.000428871 -0.000200386)
(-2.48827e-05 6.60456e-06 1.24346e-05)
(-7.40232e-05 1.82342e-06 1.38989e-05)
(-0.000154945 -8.96417e-06 5.67362e-06)
(-0.000282084 -2.42516e-05 3.30133e-07)
(-0.000479359 -5.21544e-05 -3.25525e-05)
(-0.000797373 -8.5803e-05 -6.53276e-05)
(-0.00116827 -0.00018508 -0.000155079)
(-0.00170736 -0.000268248 -0.000229306)
(3.7757e-05 1.79827e-05 1.98587e-05)
(-1.24089e-05 1.10325e-05 1.99624e-05)
(-0.000172149 -1.18036e-05 8.47558e-06)
(-6.70927e-05 9.75225e-06 1.84178e-05)
(-3.12475e-05 9.6696e-06 2.2528e-05)
(1.64495e-05 1.52072e-05 1.32199e-05)
(-6.70927e-05 9.75225e-06 1.84178e-05)
(-2.48827e-05 6.60456e-06 1.24346e-05)
(-2.13452e-05 9.45647e-06 1.29484e-05)
(-2.48827e-05 6.60456e-06 1.24346e-05)
(2.50699e-06 7.67214e-06 8.5358e-06)
)
;
    }
    procBoundary1to7
    {
        type            processor;
        value           uniform (1.26482e-05 4.56939e-06 1.43319e-05);
    }
}


// ************************************************************************* //
