/*--------------------------------*- C++ -*----------------------------------*\
| =========                 |                                                 |
| \\      /  F ield         | OpenFOAM: The Open Source CFD Toolbox           |
|  \\    /   O peration     | Version:  4.x                                   |
|   \\  /    A nd           | Web:      www.OpenFOAM.org                      |
|    \\/     M anipulation  |                                                 |
\*---------------------------------------------------------------------------*/
FoamFile
{
    version     2.0;
    format      ascii;
    class       volVectorField;
    location    "31.5";
    object      UsPrev;
}
// * * * * * * * * * * * * * * * * * * * * * * * * * * * * * * * * * * * * * //

dimensions      [0 1 -1 0 0 0 0];

internalField   nonuniform List<vector> 
87
(
(-5.89716e-10 9.12938e-09 2.98634e-08)
(-5.62926e-08 1.14293e-06 1.12012e-07)
(-2.95814e-08 -2.48218e-09 2.07423e-08)
(-2.32956e-08 -1.25436e-09 1.92662e-09)
(-1.32e-08 1.67079e-09 2.46641e-09)
(-6.38183e-09 1.1857e-09 -2.26701e-09)
(7.59582e-09 -3.53757e-09 -1.0767e-08)
(7.42292e-07 1.25423e-08 -5.32628e-08)
(3.85854e-07 -2.39845e-08 -7.75811e-08)
(-1.38572e-08 -4.46828e-09 1.6153e-08)
(-2.23694e-08 -8.94809e-09 2.94108e-08)
(-4.1116e-08 -1.05927e-08 1.27079e-08)
(-2.94723e-08 -2.21772e-09 2.07487e-09)
(-2.76246e-08 -2.53987e-10 -6.99578e-09)
(-1.75593e-08 -5.68661e-09 -6.36123e-09)
(-7.52743e-09 -8.31262e-09 -2.22975e-08)
(1.12581e-09 -1.33005e-08 -2.57889e-08)
(-7.58681e-09 -3.79729e-08 -4.36084e-08)
(-1.80773e-08 -5.80723e-09 1.40217e-08)
(-2.45516e-08 -8.39549e-09 1.71358e-08)
(-2.77427e-08 -4.10283e-09 1.43755e-08)
(-2.7249e-08 -2.51635e-09 5.65367e-09)
(-2.56907e-08 -4.47981e-09 -4.53306e-09)
(-1.44385e-08 -4.44889e-09 -7.97572e-09)
(-3.57917e-09 -5.39555e-09 -2.0042e-08)
(1.60154e-08 5.90146e-09 -3.23743e-08)
(1.39702e-08 1.30786e-08 -3.16442e-08)
(-1.70404e-08 6.15125e-09 2.1197e-08)
(-1.15816e-08 2.76621e-09 4.91741e-08)
(-8.74844e-09 -7.17765e-11 1.84556e-08)
(-8.62061e-09 -1.02006e-09 1.41348e-09)
(-7.83913e-09 -1.38121e-10 3.63693e-10)
(-2.79979e-09 -1.74594e-09 -3.40252e-09)
(1.16696e-09 -1.32917e-09 -7.93286e-09)
(5.50578e-09 -2.76932e-09 -1.79144e-08)
(1.66173e-09 -8.70022e-09 -2.74589e-08)
(-1.86353e-08 1.24591e-09 1.8352e-08)
(-1.83452e-08 -2.15884e-09 2.83622e-08)
(-1.66508e-08 3.46139e-10 1.62577e-08)
(-2.13577e-08 -1.9463e-09 2.34168e-09)
(-1.87246e-08 -1.79341e-09 -6.12692e-09)
(-1.4516e-08 -3.81183e-09 -1.0012e-08)
(-8.53966e-09 -2.73738e-09 -1.74566e-08)
(1.1868e-10 -1.93029e-09 -2.42493e-08)
(1.22301e-08 -8.2141e-09 -3.01958e-08)
(-1.4457e-08 -1.45116e-09 1.34783e-08)
(-1.80541e-08 -1.6204e-09 1.56332e-08)
(-2.00206e-08 -3.08476e-09 1.26994e-08)
(-2.12733e-08 -3.44996e-09 4.90108e-09)
(-1.73459e-08 -3.74648e-09 -4.76804e-09)
(-1.18182e-08 -4.56132e-09 -1.15873e-08)
(-4.74493e-09 -2.87504e-09 -1.95565e-08)
(3.91953e-09 7.9658e-10 -2.65805e-08)
(1.27554e-09 9.67262e-10 -2.57652e-08)
(-8.07775e-09 1.14919e-10 6.48101e-09)
(-8.30363e-09 1.57266e-09 8.91517e-09)
(-7.55133e-09 1.25775e-09 9.99781e-09)
(-5.52491e-09 5.01894e-10 2.34695e-09)
(-5.82244e-09 6.4795e-10 6.09176e-10)
(-5.33986e-09 2.9924e-10 -2.1506e-09)
(-3.14327e-09 1.61007e-09 -4.96327e-09)
(-1.78569e-09 1.76687e-09 -6.85413e-09)
(1.37348e-09 1.48624e-10 -1.14252e-08)
(-1.0623e-08 7.64455e-10 1.09595e-08)
(-1.11156e-08 5.93538e-10 1.30447e-08)
(-1.09259e-08 2.26907e-09 1.2784e-08)
(-1.1693e-08 -7.78725e-10 4.67602e-09)
(-9.51688e-09 -4.00092e-10 -6.88474e-10)
(-9.66908e-09 -1.31974e-09 -4.22934e-09)
(-5.7411e-09 2.13496e-09 -1.1781e-08)
(-2.79921e-09 -8.71563e-10 -1.47314e-08)
(-2.10869e-09 1.45776e-09 -1.00324e-08)
(-8.59596e-09 -6.36917e-10 9.87317e-09)
(-9.89746e-09 3.29599e-10 1.15685e-08)
(-1.12888e-08 2.51755e-09 9.70239e-09)
(-1.2972e-08 5.21191e-10 5.01626e-09)
(-1.11912e-08 -8.69725e-10 -1.62136e-09)
(-8.48227e-09 -1.64794e-09 -7.43815e-09)
(-4.14765e-09 1.27762e-09 -1.50398e-08)
(-3.80541e-09 -3.33783e-10 -1.40312e-08)
(-3.27045e-09 2.59971e-09 -1.31144e-08)
(-5.68788e-09 -2.57267e-10 4.69249e-09)
(-4.15324e-09 -1.34739e-10 4.10119e-09)
(-5.71135e-09 2.00717e-10 5.97102e-09)
(-9.57532e-09 7.69844e-10 6.89141e-09)
(-9.58192e-09 1.1544e-09 9.8639e-09)
(-7.54882e-09 2.06891e-10 7.06234e-09)
)
;

boundaryField
{
    inlet
    {
        type            calculated;
        value           nonuniform 0();
    }
    outlet
    {
        type            calculated;
        value           uniform (0 0 0);
    }
    wall
    {
        type            calculated;
        value           uniform (0 0 0);
    }
    procBoundary1to0
    {
        type            processor;
        value           uniform (0 0 0);
    }
    procBoundary1to3
    {
        type            processor;
        value           uniform (0 0 0);
    }
    procBoundary1to5
    {
        type            processor;
        value           uniform (0 0 0);
    }
    procBoundary1to7
    {
        type            processor;
        value           uniform (0 0 0);
    }
}


// ************************************************************************* //
