/*--------------------------------*- C++ -*----------------------------------*\
| =========                 |                                                 |
| \\      /  F ield         | OpenFOAM: The Open Source CFD Toolbox           |
|  \\    /   O peration     | Version:  4.x                                   |
|   \\  /    A nd           | Web:      www.OpenFOAM.org                      |
|    \\/     M anipulation  |                                                 |
\*---------------------------------------------------------------------------*/
FoamFile
{
    version     2.0;
    format      ascii;
    class       volScalarField;
    location    "10.5";
    object      magGField;
}
// * * * * * * * * * * * * * * * * * * * * * * * * * * * * * * * * * * * * * //

dimensions      [1 -2 -1 0 0 0 0];

internalField   nonuniform List<scalar> 
87
(
86.9871
17.3418
87.0054
98.7901
52.2502
102.513
88.8532
30.7182
83.8434
17.3624
80.3294
8.01734
79.3273
2.94539
79.0627
91.0255
33.3469
86.5906
22.8529
83.0602
13.9523
81.2833
7.71659
80.6802
92.8986
43.0839
93.3256
44.4553
92.808
43.9256
93.1851
44.7825
94.3485
89.1147
34.4766
85.5773
25.4848
83.8892
19.3543
83.2615
15.5574
83.3241
91.2829
37.4712
88.4559
31.2509
86.5024
25.8076
84.9819
20.9006
84.3272
92.5768
45.3046
94.672
48.6786
95.8021
51.2655
98.0229
53.9585
101.141
91.2977
42.3919
90.736
40.6221
90.0271
39.186
89.8369
38.0184
91.505
92.0005
44.6177
92.9149
46.4492
93.3672
48.0996
94.6426
50.3109
96.6387
93.0963
47.4502
96.1483
52.766
99.1303
56.4161
101.364
59.7148
103.264
)
;

boundaryField
{
    inlet
    {
        type            calculated;
        value           uniform 67;
    }
    outlet
    {
        type            calculated;
        value           nonuniform 0();
    }
    wall
    {
        type            calculated;
        value           uniform 0;
    }
    procBoundary6to0
    {
        type            processor;
        value           uniform 85.3335;
    }
    procBoundary6to2
    {
        type            processor;
        value           nonuniform List<scalar> 
32
(
85.5047
11.8514
85.5247
98.457
51.3631
101.372
91.3993
33.582
87.0139
24.0956
85.0285
17.896
85.234
15.497
15.497
15.497
91.7738
35.6929
88.4457
27.7387
86.1675
20.7805
85.5029
85.5029
85.5029
93.1977
44.1154
94.9182
46.8355
96.6181
49.1815
49.1815
)
;
    }
    procBoundary6to4
    {
        type            processor;
        value           nonuniform List<scalar> 
27
(
91.0317
31.8925
84.0523
18.4639
79.8621
8.23544
77.3259
1.59993
76.4606
89.9741
34.154
85.3045
23.9784
82.0473
16.86
80.6011
11.724
79.4097
89.9008
40.3144
89.274
38.4337
89.0436
39.6338
91.234
45.2006
94.0615
)
;
    }
    procBoundary6to7
    {
        type            processor;
        value           nonuniform List<scalar> 
12
(
16.2627
18.8129
56.3153
1.73908
4.46682
45.5413
11.7142
17.3647
57.2675
36.2737
52.5972
61.8967
)
;
    }
}


// ************************************************************************* //
