/*--------------------------------*- C++ -*----------------------------------*\
| =========                 |                                                 |
| \\      /  F ield         | OpenFOAM: The Open Source CFD Toolbox           |
|  \\    /   O peration     | Version:  4.x                                   |
|   \\  /    A nd           | Web:      www.OpenFOAM.org                      |
|    \\/     M anipulation  |                                                 |
\*---------------------------------------------------------------------------*/
FoamFile
{
    version     2.0;
    format      ascii;
    class       volVectorField;
    location    "53";
    object      GField;
}
// * * * * * * * * * * * * * * * * * * * * * * * * * * * * * * * * * * * * * //

dimensions      [1 -2 -1 0 0 0 0];

internalField   nonuniform List<vector> 
114
(
(55.3955 -0.661747 -2.70355)
(111.739 -1.09402 -5.07993)
(64.0687 -0.764672 -2.43844)
(117.278 -1.15602 -3.75576)
(69.7926 -0.3948 -1.42422)
(122.74 -0.766508 -2.40305)
(99.201 0.16451 -4.33783)
(41.7549 0.0413327 -2.45236)
(103.581 0.452464 -5.12301)
(49.5926 0.252482 -2.20688)
(106.974 0.0472867 -4.33397)
(54.4538 -0.410774 -1.77616)
(109.824 -0.585516 -3.61898)
(56.3567 -1.06881 -0.899623)
(112.283 -0.741235 -2.41972)
(99.833 3.42318 -4.2216)
(44.5565 1.72444 -2.26785)
(105.971 3.6462 -4.35106)
(55.6963 2.05955 -1.81368)
(111.786 3.58427 -3.19402)
(63.5641 1.74606 -1.11226)
(116.684 2.97568 -2.06799)
(68.7035 1.2312 -0.282548)
(121.323 2.42926 -1.12884)
(100.248 1.5463 -3.55085)
(48.9737 0.724573 -2.06016)
(109.299 1.38216 -3.63261)
(64.1959 0.64249 -1.76407)
(118.713 1.1012 -2.80154)
(76.6929 0.123985 -1.14733)
(127.205 0.439348 -1.85375)
(85.5551 -0.916098 -0.215591)
(133.191 -0.463039 -0.998936)
(27.331 0.0195698 -1.96912)
(95.9729 -0.193347 -3.9727)
(23.8573 0.204804 -1.43748)
(98.2826 0.181421 -2.2323)
(97.5399 1.19227 -8.05181)
(33.9718 0.257492 -3.84924)
(96.4758 1.2555 -8.49952)
(28.8413 0.65451 -3.12818)
(94.9624 1.60306 -6.43204)
(22.3711 0.275762 -2.39875)
(93.6835 0.743544 -3.95751)
(14.5394 -0.100086 -1.58507)
(93.6892 0.482011 -0.733188)
(97.5989 4.10102 -8.03883)
(37.0136 2.03079 -4.23259)
(97.9918 4.82417 -8.71576)
(36.5457 1.97364 -3.67564)
(98.8718 4.75502 -7.02605)
(35.8462 1.63801 -3.17629)
(100.148 4.31238 -5.72268)
(34.037 1.08721 -2.95126)
(102.48 3.3611 -4.13183)
(98.3151 2.17879 -7.33223)
(43.7385 1.02994 -4.30919)
(102.982 2.10743 -7.67759)
(51.6779 0.791362 -4.3389)
(107.864 1.58408 -6.44829)
(58.0885 0.261749 -4.4372)
(112.321 0.82077 -5.33805)
(62.2693 -0.582276 -3.93975)
(116.45 -0.0983004 -4.42714)
(14.3621 -1.03588 -1.59566)
(92.5232 -0.110308 -2.02636)
(95.4452 1.20003 -6.70076)
(30.8883 0.156925 -3.16888)
(92.1315 0.428676 -6.0034)
(20.4074 -0.0290621 -1.77275)
(89.3089 -0.40274 -3.67024)
(10.0899 -0.285867 -0.812708)
(87.0799 -1.73572 -1.55767)
(1.12453 -0.0611327 -0.117712)
(85.8812 -1.59306 0.188315)
(96.3136 4.08891 -6.03687)
(33.193 1.73314 -2.94578)
(93.8924 4.57082 -5.39627)
(25.7685 1.54481 -1.97011)
(92.0182 3.91729 -3.51263)
(18.3505 0.972992 -1.12706)
(90.8871 2.34398 -1.73337)
(9.76483 0.554849 -0.499547)
(90.9094 -0.304428 -0.380539)
(97.1932 2.32823 -5.7504)
(39.9522 1.21921 -3.30768)
(98.95 2.85008 -5.54431)
(43.3333 1.13904 -3.14319)
(101.21 2.40049 -4.12169)
(46.1398 0.510743 -2.55716)
(101.935 1.80581 -2.48697)
(46.2749 0.260699 -2.27366)
(103.423 0.625254 -1.49954)
(94.7436 1.84272 -5.61109)
(28.9646 0.98362 -2.27331)
(90.4038 2.54878 -4.4653)
(18.8637 0.671022 -1.55034)
(88.3755 2.05577 -2.38941)
(11.061 0.465975 -0.800858)
(87.4881 1.5847 -0.0580781)
(4.26856 0.239478 -0.433047)
(94.682 5.03578 -4.75227)
(34.3305 2.47096 -2.31552)
(93.1055 5.48919 -4.1924)
(30.4046 1.98378 -2.05872)
(92.9302 4.88842 -3.26243)
(27.9958 1.85854 -1.57522)
(93.9116 4.15601 -1.87917)
(96.3463 2.4991 -4.35323)
(40.9846 1.14808 -2.6767)
(98.3201 2.26292 -4.41416)
(44.3641 0.78316 -3.12731)
(100.592 1.56912 -4.0723)
(47.5161 0.362915 -2.48263)
)
;

boundaryField
{
    inlet
    {
        type            calculated;
        value           uniform (67 0 0);
    }
    outlet
    {
        type            calculated;
        value           nonuniform 0();
    }
    wall
    {
        type            calculated;
        value           uniform (0 0 0);
    }
    procBoundary2to0
    {
        type            processor;
        value           nonuniform List<vector> 
44
(
(54.3382 -1.21989 -3.01275)
(111.201 -1.39687 -5.46524)
(61.6596 -0.415708 -2.80711)
(115.669 -0.952754 -4.81538)
(65.8667 -0.0356247 -1.91617)
(117.555 -0.579085 -3.56938)
(100.761 -1.60802 -5.40891)
(44.921 -0.566462 -2.62287)
(106.669 -1.22011 -5.35765)
(106.669 -1.22011 -5.35765)
(32.3435 -0.0271333 -3.09732)
(95.9826 -0.145754 -6.34646)
(24.5397 -0.0366059 -1.57721)
(94.7773 -0.219154 -3.21259)
(16.6218 0.406453 -0.663565)
(94.9448 0.361858 -1.28435)
(96.6203 -0.610229 -8.92364)
(34.9375 -0.272028 -4.15265)
(97.0336 -0.630926 -8.73062)
(32.3435 -0.0271333 -3.09732)
(95.9826 -0.145754 -6.34646)
(95.9826 -0.145754 -6.34646)
(16.4282 -0.911764 -1.46763)
(91.3355 -1.58899 -2.59633)
(10.8249 -0.310361 -1.61356)
(90.6845 -1.07763 0.113318)
(94.8115 -1.14427 -6.5609)
(30.3728 -0.598211 -3.48124)
(92.1905 -1.47926 -6.62079)
(21.8734 -0.628465 -1.93661)
(90.8289 -1.59701 -3.90486)
(16.4282 -0.911764 -1.46763)
(91.3355 -1.58899 -2.59633)
(91.3355 -1.58899 -2.59633)
(10.2811 0.584819 -1.25476)
(89.0572 -0.121831 -1.06058)
(94.9963 -0.446544 -4.48464)
(30.5185 0.118969 -2.563)
(90.9743 0.557586 -4.56008)
(20.3957 0.43285 -1.71286)
(89.6949 0.915778 -3.67246)
(14.1573 0.47321 -1.37673)
(89.2243 -0.184265 -2.72116)
(10.2811 0.584819 -1.25476)
)
;
    }
    procBoundary2to3
    {
        type            processor;
        value           nonuniform List<vector> 
12
(
(72.6112 -1.08312 -0.78072)
(54.4689 -1.39684 -0.50666)
(71.7044 1.99402 0.381971)
(90.888 -2.10293 0.249845)
(21.5568 0.184956 -1.62539)
(7.06789 -0.0907496 -0.983097)
(32.0646 1.47397 -3.09911)
(64.1034 -1.76889 -4.27506)
(11.9626 -1.1045 -2.24965)
(3.46066e-05 -2.54878e-06 -2.08439e-06)
(2.81417 0.26872 -0.149378)
(43.3634 -0.309213 -2.04357)
)
;
    }
    procBoundary2to6
    {
        type            processor;
        value           nonuniform List<vector> 
32
(
(87.4923 1.86054 -0.640598)
(27.3027 2.03754 -1.68475)
(96.2539 2.97146 -1.02552)
(103.316 0.768702 -2.76063)
(50.2193 -0.603411 -3.04979)
(106.152 -0.360589 -2.94187)
(92.0957 0.847617 -1.80281)
(26.1633 0.538032 -0.569179)
(86.9783 0.838154 -1.22794)
(11.4115 0.159907 -0.374374)
(83.2074 0.151882 -0.669868)
(1.49805 0.0195957 -0.0581082)
(81.5641 -0.708064 -0.333519)
(87.4923 1.86054 -0.640598)
(27.3027 2.03754 -1.68475)
(3.31656e-05 7.61484e-07 -6.54914e-07)
(94.2856 5.30942 -1.7525)
(30.5167 1.93206 -0.987242)
(90.7996 4.95788 -1.72655)
(20.7795 1.39921 -1.0295)
(88.1934 2.8534 -1.56454)
(12.0662 0.853294 -0.784435)
(27.3027 2.03754 -1.68475)
(103.316 0.768702 -2.76063)
(86.763 0.359098 -1.59286)
(96.2115 2.8492 -1.83091)
(39.6709 1.28868 -1.22672)
(96.601 2.93911 -1.92771)
(40.4812 0.896253 -1.85247)
(95.8741 1.96428 -1.93267)
(103.316 0.768702 -2.76063)
(38.1762 0.514164 -1.89909)
)
;
    }
}


// ************************************************************************* //
