/*--------------------------------*- C++ -*----------------------------------*\
| =========                 |                                                 |
| \\      /  F ield         | OpenFOAM: The Open Source CFD Toolbox           |
|  \\    /   O peration     | Version:  4.x                                   |
|   \\  /    A nd           | Web:      www.OpenFOAM.org                      |
|    \\/     M anipulation  |                                                 |
\*---------------------------------------------------------------------------*/
FoamFile
{
    version     2.0;
    format      ascii;
    class       volScalarField;
    location    "53";
    object      KslPrev;
}
// * * * * * * * * * * * * * * * * * * * * * * * * * * * * * * * * * * * * * //

dimensions      [1 -3 -1 0 0 0 0];

internalField   nonuniform List<scalar> 
114
(
6253.13
3144.15
5504.5
3029.41
5061.82
2875.53
3394.76
8098.34
3327.94
6992.65
3279.58
6440.08
3214.89
6220.72
3133.28
3348.95
7538.96
3226.58
6179.21
3137.42
5507.46
3032.4
5129.95
2914.59
3292
6773.2
3092.12
5288.64
2910.1
4513.93
2740.87
4075.78
2637.85
12777.9
3678.36
14599.2
3554.82
3434.96
9956
3585.87
11965.4
3689.7
15473.6
3743.97
23743.3
3722.89
3411.94
9062.43
3515.16
9400.36
3523.07
9679.7
3504.27
10200.7
3415.8
3333.59
7565.21
3291.57
6539.19
3164.39
5897.2
3075.12
5521.42
2965.43
23362.3
3658.56
3495.79
10897.4
3722.09
16690.3
3851.81
33603.4
3925.19
298721
3950.41
3439.94
10062.3
3640.56
13157.1
3731.61
18497.2
3780.08
34704.5
3756.68
3365.15
8217.36
3392.1
7718.54
3327.17
7287.87
3330.28
7289.1
3270.68
3506.4
11544.5
3755.74
17785.2
3828.89
30097.7
3835.1
76751.9
3464.46
9641.99
3630.72
11010.3
3642.57
11905.1
3579.01
3359.8
7942.06
3386.91
7443.88
3326.92
6958.68
)
;

boundaryField
{
    inlet
    {
        type            zeroGradient;
    }
    outlet
    {
        type            zeroGradient;
    }
    wall
    {
        type            zeroGradient;
    }
    procBoundary2to0
    {
        type            processor;
        value           uniform 0;
    }
    procBoundary2to3
    {
        type            processor;
        value           uniform 0;
    }
    procBoundary2to6
    {
        type            processor;
        value           uniform 0;
    }
}


// ************************************************************************* //
