/*--------------------------------*- C++ -*----------------------------------*\
| =========                 |                                                 |
| \\      /  F ield         | OpenFOAM: The Open Source CFD Toolbox           |
|  \\    /   O peration     | Version:  4.x                                   |
|   \\  /    A nd           | Web:      www.OpenFOAM.org                      |
|    \\/     M anipulation  |                                                 |
\*---------------------------------------------------------------------------*/
FoamFile
{
    version     2.0;
    format      ascii;
    class       volScalarField;
    location    "53";
    object      magGField;
}
// * * * * * * * * * * * * * * * * * * * * * * * * * * * * * * * * * * * * * //

dimensions      [1 -2 -1 0 0 0 0];

internalField   nonuniform List<scalar> 
114
(
55.4654
111.86
64.1196
117.344
69.8083
122.766
99.2959
41.8269
103.708
49.6424
107.062
54.4843
109.885
56.374
112.312
99.9809
44.6474
106.123
55.7639
111.889
63.5978
116.74
68.7152
121.353
100.323
49.0224
109.368
64.2233
118.751
76.7015
127.22
85.5603
133.196
27.4018
96.0553
23.9014
98.3082
97.8789
34.1902
96.8576
29.0178
95.1935
22.501
93.77
14.6259
93.6933
98.0152
37.3101
98.4968
36.783
99.2351
36.0239
100.404
34.1821
102.618
98.6122
43.9623
103.29
51.8657
108.068
58.2583
112.451
62.3965
116.534
14.4875
92.5454
95.6876
31.0508
92.3279
20.4843
89.3852
10.1266
87.1111
1.13232
85.8962
96.5892
33.3685
94.1584
25.8899
92.1685
18.4108
90.9339
9.79333
90.9107
97.391
40.1074
99.1462
43.4621
101.323
46.2134
101.982
46.3315
103.436
94.9275
29.0703
90.5499
18.9392
88.4317
11.0997
87.5025
4.29715
94.9348
34.4971
93.3613
30.5387
93.1159
28.1016
94.0223
96.4769
41.088
98.4452
44.4811
100.687
47.5823
)
;

boundaryField
{
    inlet
    {
        type            calculated;
        value           uniform 67;
    }
    outlet
    {
        type            calculated;
        value           nonuniform 0();
    }
    wall
    {
        type            calculated;
        value           uniform 0;
    }
    procBoundary2to0
    {
        type            processor;
        value           nonuniform List<scalar> 
44
(
54.4353
111.344
61.7249
115.773
65.8946
117.611
100.919
45.0011
106.81
106.81
32.4915
96.1923
24.5904
94.832
16.6401
94.9542
97.0334
35.1844
97.4276
32.4915
96.1923
96.1923
16.5188
91.3862
10.9489
90.691
95.0451
30.5775
92.4398
21.968
90.9269
16.5188
91.3862
91.3862
10.3739
89.0636
95.1032
30.6261
91.0902
20.4721
89.7747
14.2319
89.266
10.3739
)
;
    }
    procBoundary2to3
    {
        type            processor;
        value           nonuniform List<scalar> 
12
(
72.6234
54.4892
71.7332
90.9127
21.6187
7.13651
32.2477
64.2701
12.2223
3.47629e-05
2.83091
43.4126
)
;
    }
    procBoundary2to6
    {
        type            processor;
        value           nonuniform List<scalar> 
32
(
87.5145
27.4304
96.3052
103.356
50.3154
106.194
92.1172
26.175
86.991
11.4187
83.2102
1.4993
81.5679
87.5145
27.4304
3.31808e-05
94.4512
30.5938
90.9513
20.852
88.2534
12.1218
27.4304
103.356
86.7784
96.2711
39.7108
96.665
40.5335
95.9137
103.356
38.2268
)
;
    }
}


// ************************************************************************* //
