/*--------------------------------*- C++ -*----------------------------------*\
| =========                 |                                                 |
| \\      /  F ield         | OpenFOAM: The Open Source CFD Toolbox           |
|  \\    /   O peration     | Version:  4.x                                   |
|   \\  /    A nd           | Web:      www.OpenFOAM.org                      |
|    \\/     M anipulation  |                                                 |
\*---------------------------------------------------------------------------*/
FoamFile
{
    version     2.0;
    format      ascii;
    class       volScalarField;
    location    "53";
    object      p;
}
// * * * * * * * * * * * * * * * * * * * * * * * * * * * * * * * * * * * * * //

dimensions      [1 -1 -2 0 0 0 0];

internalField   nonuniform List<scalar> 
114
(
5708.21
5728.83
5689.81
5721.75
5671.06
5714.97
5743.05
5726.06
5736.31
5708.43
5729.31
5690.25
5722.27
5671.67
5715.42
5742.61
5725.81
5735.89
5708.17
5728.91
5690.03
5721.95
5671.54
5715.09
5742.33
5725.71
5735.68
5708.13
5728.76
5690.15
5721.89
5671.83
5715.14
3812.09
3844.42
3793.16
3837.46
3866
3848.68
3859.22
3830.77
3852.11
3812.48
3845
3793.74
3837.99
3865.5
3848.32
3858.63
3830.38
3851.47
3812.1
3844.34
3793.39
3837.4
3865.07
3848.13
3858.29
3830.33
3851.23
3812.2
3844.22
3793.69
3837.37
1915.88
1959.57
1988.95
1971.27
1982.03
1953.55
1974.68
1935.52
1967.19
1917.21
1959.69
1988.5
1971.07
1981.64
1953.18
1974.35
1935.02
1967.13
1916.52
1959.93
1988.02
1970.78
1981.12
1953.01
1973.93
1935.07
1966.77
1916.62
1959.83
111.628
93.8146
104.469
75.7517
96.9897
57.5344
89.4967
39.2391
110.971
93.3162
103.765
75.2723
96.2778
56.8924
88.8111
110.458
93.0933
103.38
75.1949
96.0163
56.9274
)
;

boundaryField
{
    inlet
    {
        type            calculated;
        value           nonuniform List<scalar> 
12
(
5743.05
5742.61
5742.33
3866
3865.5
3865.07
1988.95
1988.5
1988.02
111.628
110.971
110.458
)
;
    }
    outlet
    {
        type            calculated;
        value           nonuniform 0();
    }
    wall
    {
        type            calculated;
        value           nonuniform List<scalar> 
66
(
6682.01
6681.57
6681.28
6665.02
6664.77
6664.66
6675.27
6674.85
6674.64
6647.17
6647.39
6647.13
6647.09
6667.78
6668.26
6667.87
6667.72
6628.76
6629.2
6628.99
6629.11
6660.7
6661.23
6660.91
6660.85
6610.02
6610.63
6610.5
6610.79
6653.93
6654.38
6654.05
6654.1
5742.33
3865.07
1988.02
110.458
5725.71
3848.13
1970.78
93.0933
5735.68
3858.29
1981.12
103.38
5708.13
3830.33
1953.01
75.1949
5728.76
3851.23
1973.93
96.0163
5690.15
3812.2
1935.07
56.9274
5721.89
3844.22
1966.77
5671.83
3793.69
1916.62
5715.14
3837.37
1959.83
)
;
    }
    procBoundary2to0
    {
        type            processor;
        value           nonuniform List<scalar> 
44
(
5708.27
5728.97
5689.99
5722.01
5671.72
5715.28
5742.85
5725.95
5736.04
5736.04
3830.63
3851.75
3812.4
3844.89
3793.86
3838
3865.9
3848.44
3858.95
3830.63
3851.75
3851.75
1934.61
1966.71
1916.27
1959.73
1988.85
1971.11
1981.75
1953.13
1974.22
1934.61
1966.71
1966.71
38.7619
82.0009
111.449
93.7349
104.312
75.6005
96.6863
57.3118
89.1121
38.7619
)
;
    }
    procBoundary2to3
    {
        type            processor;
        value           nonuniform List<scalar> 
12
(
5652.01
5653.26
5652.38
5653.15
3774.05
3775.31
3774.34
3774.82
1897.19
1899.35
1897.86
1898.1
)
;
    }
    procBoundary2to6
    {
        type            processor;
        value           nonuniform List<scalar> 
32
(
82.1429
38.1352
81.6157
88.6928
38.4519
81.649
-1765.63
-1783.86
-1772.95
-1801.42
-1780.71
-1819.45
-1788.67
82.1429
38.1352
-1837.24
-1766.28
-1784.15
-1773.43
-1801.94
-1780.89
-1820.21
38.1352
88.6928
-1788.39
-1766.87
-1784.4
-1773.96
-1802.03
-1781.26
88.6928
-1820.24
)
;
    }
}


// ************************************************************************* //
