/*--------------------------------*- C++ -*----------------------------------*\
| =========                 |                                                 |
| \\      /  F ield         | OpenFOAM: The Open Source CFD Toolbox           |
|  \\    /   O peration     | Version:  4.x                                   |
|   \\  /    A nd           | Web:      www.OpenFOAM.org                      |
|    \\/     M anipulation  |                                                 |
\*---------------------------------------------------------------------------*/
FoamFile
{
    version     2.0;
    format      ascii;
    class       surfaceScalarField;
    location    "53";
    object      phi;
}
// * * * * * * * * * * * * * * * * * * * * * * * * * * * * * * * * * * * * * //

dimensions      [0 3 -1 0 0 0 0];

internalField   nonuniform List<scalar> 
259
(
1.0153e-05
-2.44508e-08
1.07452e-05
-6.24281e-08
1.10066e-05
-6.99975e-08
-2.61055e-07
1.14437e-05
-1.03606e-07
-4.57999e-07
1.16754e-05
-8.72305e-08
-1.69363e-07
-8.97085e-08
-2.74751e-07
8.59892e-06
2.12758e-07
-7.34036e-07
8.83631e-06
1.04762e-07
-3.73367e-07
9.35465e-06
2.43005e-07
-8.07058e-07
9.50903e-06
1.37115e-07
-3.15941e-07
9.86914e-06
2.15352e-07
-6.37889e-07
9.96696e-06
7.93003e-08
-2.47115e-07
1.01706e-05
1.41793e-07
-4.49047e-07
1.02204e-05
9.82092e-09
-1.46866e-07
1.00221e-07
-1.87096e-07
8.80799e-06
2.94375e-07
-7.26341e-07
9.15275e-06
1.45054e-07
-3.85051e-07
9.87194e-06
2.9783e-07
-7.74018e-07
1.01741e-05
1.5999e-07
-3.25007e-07
1.07173e-05
2.77477e-07
-6.05356e-07
1.09398e-05
1.1063e-07
-2.53783e-07
1.13408e-05
2.02189e-07
-4.61394e-07
1.15232e-05
1.84419e-08
-1.91117e-07
1.16299e-07
-3.11582e-07
9.10234e-06
-6.44697e-07
9.62466e-06
-3.77271e-07
1.05924e-05
-6.69953e-07
1.11138e-05
-3.61373e-07
1.19392e-05
-5.47886e-07
1.23803e-05
-3.30542e-07
1.30085e-05
-4.2595e-07
1.32727e-05
-2.45768e-07
-3.2133e-07
7.47146e-06
1.70883e-08
7.34648e-06
3.19914e-08
7.38805e-06
5.62711e-09
-1.79788e-07
3.87365e-08
-2.52082e-07
8.02367e-06
3.13725e-07
-8.73828e-07
7.9293e-06
1.35764e-07
-4.1566e-07
7.6576e-06
3.60373e-07
-8.59041e-07
7.51324e-06
1.55876e-07
-2.90518e-07
7.18267e-06
3.76904e-07
-5.98343e-07
7.02967e-06
1.13633e-07
-1.9066e-07
6.63926e-06
2.99857e-07
-3.26505e-07
6.54076e-06
5.88228e-08
-1.01559e-07
2.28009e-07
-3.18914e-08
8.21242e-06
3.72051e-07
-8.33824e-07
8.20717e-06
1.81298e-07
-4.25337e-07
8.21905e-06
4.1058e-07
-8.36101e-07
8.22092e-06
1.63695e-07
-3.34701e-07
8.24155e-06
3.75407e-07
-6.24489e-07
8.24439e-06
1.12361e-07
-2.55343e-07
8.22091e-06
3.03905e-07
-4.41966e-07
8.26401e-06
2.96484e-08
-2.05046e-07
1.93108e-07
-2.67514e-07
8.66565e-06
-7.75031e-07
8.92095e-06
-4.51268e-07
9.44487e-06
-7.83299e-07
9.69058e-06
-4.43389e-07
1.01443e-05
-6.26242e-07
1.03409e-05
-4.14712e-07
1.06825e-05
-4.63659e-07
1.08349e-05
-3.68525e-07
-3.51225e-07
6.46028e-06
-6.58701e-08
-1.00933e-07
7.70832e-06
3.13421e-07
-7.29102e-07
7.47674e-06
1.12041e-07
-3.22356e-07
6.87889e-06
2.9626e-07
-6.19899e-07
6.65561e-06
9.00169e-08
-1.96525e-07
6.08901e-06
2.08321e-07
-3.58846e-07
5.88073e-06
4.11555e-08
-9.50939e-08
5.4168e-06
3.60665e-08
-9.58523e-08
5.25144e-06
2.98807e-08
-3.1952e-08
-1.1251e-07
7.90146e-06
3.80214e-07
-6.38813e-07
7.72461e-06
1.74963e-07
-3.11411e-07
7.31261e-06
4.39689e-07
-5.67528e-07
7.14725e-06
1.58953e-07
-2.38277e-07
6.7576e-06
3.74308e-07
-4.00828e-07
6.61525e-06
8.7722e-08
-1.59553e-07
6.17685e-06
2.45932e-07
-2.13431e-07
6.08218e-06
4.80816e-08
1.90986e-08
8.36668e-06
-5.98228e-07
8.44468e-06
-3.54305e-07
8.69064e-06
-5.89575e-07
8.77733e-06
-3.71121e-07
9.0104e-06
-4.85009e-07
8.98142e-06
-2.9801e-07
9.07417e-06
9.06843e-06
7.54827e-06
4.07662e-07
7.25456e-06
2.04834e-07
6.67937e-06
4.76367e-07
6.50486e-06
1.57489e-07
6.0912e-06
4.11636e-07
5.96472e-06
1.38037e-07
5.63394e-06
3.40392e-07
7.87129e-06
4.46376e-07
7.74618e-06
2.14343e-07
7.54686e-06
4.59162e-07
7.48553e-06
1.63802e-07
7.40032e-06
3.82418e-07
7.3876e-06
1.31397e-07
8.37793e-06
8.46933e-06
8.71483e-06
8.80278e-06
9.05624e-06
)
;

boundaryField
{
    inlet
    {
        type            calculated;
        value           nonuniform List<scalar> 
12
(
-8.16327e-06
-8.16327e-06
-8.16327e-06
-8.16327e-06
-8.16327e-06
-8.16327e-06
-8.16327e-06
-8.16327e-06
-8.16327e-06
-8.16327e-06
-8.16327e-06
-8.16327e-06
)
;
    }
    outlet
    {
        type            calculated;
        value           nonuniform 0();
    }
    wall
    {
        type            calculated;
        value           nonuniform List<scalar> 
66
(
0
0
0
0
0
0
0
0
0
0
0
0
0
0
0
0
0
0
0
-3.85186e-34
0
0
0
0
0
0
0
0
0
0
0
0
0
0
0
0
0
0
0
0
0
0
0
0
0
0
0
0
0
0
0
0
0
0
0
0
0
0
0
0
0
0
0
0
0
0
)
;
    }
    procBoundary2to0
    {
        type            processor;
        value           nonuniform List<scalar> 
44
(
1.11311e-07
1.47299e-07
6.97055e-08
1.2454e-07
2.48576e-08
7.93173e-08
8.56267e-08
3.12074e-08
-9.89626e-06
4.57136e-08
-3.43635e-07
-6.77089e-07
7.33668e-10
2.39519e-08
-3.6769e-08
-3.26888e-08
-3.43391e-08
9.02005e-10
-3.66881e-08
-3.69399e-08
-7.54675e-06
-8.5878e-08
-2.03587e-07
-3.8897e-07
7.90642e-08
7.01596e-08
-3.19827e-09
2.62331e-08
6.24484e-08
3.92664e-08
1.18785e-07
7.15532e-08
-6.48436e-06
1.97216e-07
-1.68904e-07
-1.83056e-07
-8.2436e-08
-6.51122e-08
-1.83674e-07
-6.50905e-08
-1.75559e-07
-5.52088e-08
-8.25175e-08
-4.80245e-08
)
;
    }
    procBoundary2to3
    {
        type            processor;
        value           nonuniform List<scalar> 
12
(
1.19605e-05
1.02176e-05
1.18188e-05
1.37103e-05
7.35933e-06
6.19628e-06
8.25485e-06
1.10579e-05
6.42203e-06
5.25826e-06
5.76592e-06
8.999e-06
)
;
    }
    procBoundary2to6
    {
        type            processor;
        value           nonuniform List<scalar> 
32
(
-2.71313e-08
-1.28584e-07
-8.28623e-08
-3.10478e-07
-3.14704e-07
-2.62687e-07
-4.39328e-07
-1.68368e-07
-3.37409e-07
-1.14413e-07
-1.81263e-07
-5.1435e-08
-2.2951e-08
5.54045e-06
1.35569e-07
-2.60064e-08
-3.8555e-07
-1.95811e-07
-3.51002e-07
-1.83265e-07
-2.86393e-07
-1.40201e-07
7.42917e-06
2.91567e-07
-2.06175e-07
-3.66516e-07
-2.31362e-07
-3.75915e-07
-2.95275e-07
-3.5605e-07
9.14959e-06
-2.59956e-07
)
;
    }
}


// ************************************************************************* //
