/*--------------------------------*- C++ -*----------------------------------*\
| =========                 |                                                 |
| \\      /  F ield         | OpenFOAM: The Open Source CFD Toolbox           |
|  \\    /   O peration     | Version:  4.x                                   |
|   \\  /    A nd           | Web:      www.OpenFOAM.org                      |
|    \\/     M anipulation  |                                                 |
\*---------------------------------------------------------------------------*/
FoamFile
{
    version     2.0;
    format      ascii;
    class       volScalarField;
    location    "53";
    object      pSmooth;
}
// * * * * * * * * * * * * * * * * * * * * * * * * * * * * * * * * * * * * * //

dimensions      [1 -1 -2 0 0 0 0];

internalField   nonuniform List<scalar> 
114
(
74.3628
95.0649
56.0931
88.0595
37.3994
81.2979
109.123
92.1276
102.407
74.577
95.5001
56.4798
88.5469
38.0349
81.7419
108.711
91.9141
102.012
74.3209
95.0907
56.2382
88.154
37.6971
81.349
108.433
91.8215
101.806
74.2851
94.935
56.3416
88.0779
38.017
81.3341
56.2718
88.6266
37.3749
81.6734
109.962
92.6608
103.233
74.8372
96.2177
56.6204
89.1708
37.9401
82.1886
109.511
92.3346
102.673
74.4503
95.5693
56.2153
88.472
37.5276
81.5618
109.091
92.1611
102.331
74.3987
95.3186
56.3074
88.3318
37.8157
81.5256
37.9773
81.6705
110.836
93.171
103.966
75.5264
96.6862
57.5573
89.2512
39.2872
81.7833
110.417
92.9984
103.591
75.1617
96.3475
57.0451
89.171
38.5873
82.0121
109.951
92.7246
103.077
74.9921
95.924
57.0936
88.8013
38.6707
81.8897
111.448
93.6506
104.329
75.6424
96.9113
57.4818
89.4655
39.2218
110.821
93.1784
103.644
75.1698
96.2015
56.836
88.7752
110.315
92.9592
103.259
75.0919
95.9342
56.8651
)
;

boundaryField
{
    inlet
    {
        type            zeroGradient;
    }
    outlet
    {
        type            fixedValue;
        value           nonuniform 0();
    }
    wall
    {
        type            zeroGradient;
    }
    procBoundary2to0
    {
        type            processor;
        value           nonuniform List<scalar> 
44
(
74.4835
95.3223
56.3656
88.3684
38.0562
81.612
108.736
91.9143
102.096
102.096
74.6953
95.8866
56.6467
89.1323
38.0899
82.2126
109.764
92.3484
102.936
74.6953
95.8866
95.8866
56.6777
88.7986
38.38
81.8361
110.677
92.9712
103.66
75.106
96.25
56.6777
88.7986
88.7986
38.7639
82.0023
111.241
93.5468
104.164
75.4951
96.6261
57.2801
89.1001
38.7639
)
;
    }
    procBoundary2to3
    {
        type            processor;
        value           nonuniform List<scalar> 
12
(
18.343
19.5999
18.7526
19.2884
18.2751
19.5101
18.4827
19.0592
19.2952
21.4541
19.9774
20.1621
)
;
    }
    procBoundary2to6
    {
        type            processor;
        value           nonuniform List<scalar> 
32
(
82.1399
38.1156
81.6088
88.6486
38.4244
81.6322
112.112
93.9036
104.823
76.3837
97.1133
58.3956
89.2054
82.1399
38.1156
40.6345
111.483
93.6439
104.365
75.8661
96.9328
57.6465
38.1156
88.6486
89.4756
110.896
93.3825
103.832
75.7778
96.558
88.6486
57.6092
)
;
    }
}


// ************************************************************************* //
