/*--------------------------------*- C++ -*----------------------------------*\
| =========                 |                                                 |
| \\      /  F ield         | OpenFOAM: The Open Source CFD Toolbox           |
|  \\    /   O peration     | Version:  4.x                                   |
|   \\  /    A nd           | Web:      www.OpenFOAM.org                      |
|    \\/     M anipulation  |                                                 |
\*---------------------------------------------------------------------------*/
FoamFile
{
    version     2.0;
    format      ascii;
    class       volScalarField;
    location    "5.5";
    object      KslNext;
}
// * * * * * * * * * * * * * * * * * * * * * * * * * * * * * * * * * * * * * //

dimensions      [1 -3 -1 0 0 0 0];

internalField   nonuniform List<scalar> 
87
(
4371.99
2792.25
4672.56
2722.32
4015.25
2432
4409.86
2123.26
4670.68
9279.14
3255.08
9857.2
3091.59
8992.37
3324.47
12009
3506.57
5686.53
23764.1
3484.78
142795
3458.73
4253.19
3124.13
297936
3432.56
11972.5
4775.01
2865.85
4973.31
2821.96
5320.54
2627.6
5976.36
2260.25
3359.93
17275.9
3459.17
14503.3
3470.08
16971.8
3556.64
23970
3832.6
6710.02
49068.2
3572.45
88232.4
3475.73
13862.2
3549.03
46899.3
3760.81
12827.2
4730.05
2901.4
4650.74
2849.88
5204.86
2670.92
6221.91
2200.01
3252.63
20418.4
3648.12
63386.9
3632.47
154195
3680.29
28815.6
3637.17
5372.18
24436.5
3765.15
97940.5
3725.29
14722.8
3619.82
20323.5
3334.74
9079.38
4204.46
2742.3
3976.03
18220.3
3824.15
23708.2
)
;

boundaryField
{
    inlet
    {
        type            zeroGradient;
    }
    outlet
    {
        type            zeroGradient;
    }
    wall
    {
        type            zeroGradient;
    }
    procBoundary1to0
    {
        type            processor;
        value           uniform 0;
    }
    procBoundary1to3
    {
        type            processor;
        value           uniform 0;
    }
    procBoundary1to5
    {
        type            processor;
        value           uniform 0;
    }
    procBoundary1to7
    {
        type            processor;
        value           uniform 0;
    }
}


// ************************************************************************* //
