/*--------------------------------*- C++ -*----------------------------------*\
| =========                 |                                                 |
| \\      /  F ield         | OpenFOAM: The Open Source CFD Toolbox           |
|  \\    /   O peration     | Version:  4.x                                   |
|   \\  /    A nd           | Web:      www.OpenFOAM.org                      |
|    \\/     M anipulation  |                                                 |
\*---------------------------------------------------------------------------*/
FoamFile
{
    version     2.0;
    format      ascii;
    class       volScalarField;
    location    "5.5";
    object      KslPrev;
}
// * * * * * * * * * * * * * * * * * * * * * * * * * * * * * * * * * * * * * //

dimensions      [1 -3 -1 0 0 0 0];

internalField   nonuniform List<scalar> 
87
(
4373.16
2792.23
4672.78
2722.31
4014.92
2432.04
4409.89
2123.32
4670.81
9282.59
3255.09
9858.81
3091.49
8993.43
3324.5
12011.1
3506.66
5685.91
23775.7
3484.82
143213
3458.88
4248.58
3124.1
300345
3432.65
11974.8
4775.77
2865.92
4973.62
2822.01
5320.6
2627.67
5976.53
2260.35
3360.28
17285.2
3459.18
14505.8
3470.08
16975.3
3556.67
23979.4
3832.64
6710.66
49132
3572.48
88422.9
3475.67
13859.7
3548.85
46892.3
3760.67
12824.7
4730.51
2901.46
4650.91
2849.93
5204.94
2670.99
6222.17
2200.12
3252.62
20426.1
3648.14
63479
3632.43
154544
3680.26
28823.7
3637.13
5372.42
24445.2
3765.19
98113.6
3725.25
14717
3619.69
20320.8
3334.51
9077.15
4204.65
2742.34
3976.02
18226.4
3824.19
23713.8
)
;

boundaryField
{
    inlet
    {
        type            zeroGradient;
    }
    outlet
    {
        type            zeroGradient;
    }
    wall
    {
        type            zeroGradient;
    }
    procBoundary1to0
    {
        type            processor;
        value           uniform 0;
    }
    procBoundary1to3
    {
        type            processor;
        value           uniform 0;
    }
    procBoundary1to5
    {
        type            processor;
        value           uniform 0;
    }
    procBoundary1to7
    {
        type            processor;
        value           uniform 0;
    }
}


// ************************************************************************* //
