/*--------------------------------*- C++ -*----------------------------------*\
| =========                 |                                                 |
| \\      /  F ield         | OpenFOAM: The Open Source CFD Toolbox           |
|  \\    /   O peration     | Version:  4.x                                   |
|   \\  /    A nd           | Web:      www.OpenFOAM.org                      |
|    \\/     M anipulation  |                                                 |
\*---------------------------------------------------------------------------*/
FoamFile
{
    version     2.0;
    format      ascii;
    class       volVectorField;
    location    "5.5";
    object      UsPrev;
}
// * * * * * * * * * * * * * * * * * * * * * * * * * * * * * * * * * * * * * //

dimensions      [0 1 -1 0 0 0 0];

internalField   nonuniform List<vector> 
87
(
(-2.14173e-06 3.76511e-07 5.39399e-08)
(-7.40184e-06 2.92819e-06 9.13237e-08)
(-2.82092e-06 -5.9566e-08 -5.81186e-07)
(-2.51692e-06 1.29592e-07 -6.40454e-07)
(-1.64765e-06 2.93111e-07 2.80594e-07)
(-1.27357e-06 -1.26021e-07 2.14681e-07)
(-1.40539e-06 -1.63493e-08 1.99929e-07)
(-1.26585e-05 1.05582e-07 6.14234e-07)
(-6.65709e-06 2.03448e-07 4.00085e-07)
(-4.06005e-06 3.67303e-07 -7.1578e-07)
(-4.26282e-06 6.06796e-07 -7.63606e-07)
(-3.87158e-06 -1.55334e-08 -4.75982e-07)
(-3.72626e-06 1.51768e-07 -5.5646e-07)
(-3.25015e-06 5.30913e-07 -4.00811e-07)
(-2.62308e-06 -3.08453e-07 6.04634e-07)
(-2.4269e-06 1.88783e-07 3.75526e-07)
(-2.40096e-06 5.71465e-07 2.01551e-07)
(-1.40792e-06 5.42794e-07 3.08786e-08)
(-5.32007e-06 2.73699e-07 -6.22121e-07)
(-5.34129e-06 4.42529e-07 -7.51763e-07)
(-5.83451e-06 7.88699e-07 -8.0969e-07)
(-4.51488e-06 1.63434e-07 -6.49062e-07)
(-3.86149e-06 -1.09935e-07 -1.66718e-07)
(-3.52716e-06 -1.14583e-07 1.25227e-07)
(-3.21679e-06 8.86149e-08 5.78556e-07)
(-2.415e-06 7.27842e-07 5.04378e-07)
(-1.46353e-06 4.81269e-07 2.64982e-07)
(-2.53051e-06 5.09399e-07 -1.27905e-07)
(-2.37065e-06 2.11561e-07 -1.75497e-07)
(-2.20395e-06 -1.36164e-09 -3.66291e-07)
(-1.77175e-06 1.72109e-07 -3.57698e-07)
(-1.34451e-06 4.75741e-08 -1.48423e-08)
(-8.9341e-07 -2.30276e-07 8.48835e-08)
(-1.0644e-06 -4.47247e-08 1.946e-07)
(-1.37098e-06 2.24764e-07 1.4011e-07)
(-8.81027e-07 3.84898e-07 -1.5823e-09)
(-3.75667e-06 4.12781e-07 -4.52775e-07)
(-3.7691e-06 4.10391e-07 -5.67609e-07)
(-3.55482e-06 2.44492e-07 -4.04841e-07)
(-3.47035e-06 2.79744e-07 -5.77512e-07)
(-2.97473e-06 1.16067e-07 -2.05004e-07)
(-2.51484e-06 -9.19315e-08 3.10597e-07)
(-2.2997e-06 3.81193e-08 3.86123e-07)
(-2.12456e-06 2.92138e-07 1.08577e-07)
(-1.22931e-06 3.0773e-07 4.13003e-08)
(-4.7694e-06 3.54593e-07 -6.17445e-07)
(-4.83276e-06 3.77448e-07 -6.56893e-07)
(-4.75271e-06 1.2593e-07 -7.22732e-07)
(-4.16025e-06 2.22797e-07 -6.63225e-07)
(-3.77522e-06 6.61888e-08 -2.27153e-07)
(-3.33116e-06 1.47155e-07 5.42535e-08)
(-2.87118e-06 -2.78029e-08 4.08338e-07)
(-2.64136e-06 2.38078e-07 1.68618e-07)
(-1.1487e-06 1.84591e-07 3.54043e-07)
(-2.22878e-06 8.28205e-08 -8.28579e-08)
(-2.27801e-06 4.28849e-08 -8.5799e-08)
(-1.8701e-06 -1.85231e-07 -8.80557e-08)
(-1.67912e-06 2.11056e-07 -1.4549e-07)
(-1.38095e-06 1.90019e-07 7.80819e-08)
(-1.28939e-06 5.53972e-08 2.24361e-07)
(-1.11302e-06 -4.6656e-08 1.822e-07)
(-1.12788e-06 2.09772e-07 2.92441e-08)
(-7.90063e-07 3.92294e-07 -3.27116e-08)
(-3.78672e-06 8.9825e-08 -4.64935e-07)
(-3.58232e-06 5.89589e-08 -4.68485e-07)
(-3.35985e-06 2.62721e-08 -4.1751e-07)
(-3.03949e-06 2.09035e-07 -3.54618e-07)
(-2.46295e-06 3.76044e-07 -1.11574e-07)
(-2.10309e-06 -2.0611e-08 2.47743e-07)
(-1.87783e-06 5.01436e-08 2.64469e-07)
(-1.84601e-06 2.56204e-07 1.02953e-07)
(-1.00839e-06 1.49142e-07 -3.3536e-08)
(-4.4613e-06 2.72098e-07 -6.58132e-07)
(-4.41327e-06 1.30581e-07 -6.17598e-07)
(-4.1253e-06 3.10072e-07 -6.08385e-07)
(-3.83258e-06 1.49761e-07 -5.16832e-07)
(-3.43727e-06 1.1623e-07 -3.00093e-07)
(-2.88043e-06 2.84377e-07 9.59752e-09)
(-2.30373e-06 6.83572e-08 2.16505e-07)
(-2.00887e-06 2.00681e-07 1.48003e-07)
(-1.27304e-06 7.08197e-08 1.09764e-07)
(-2.03795e-06 4.20462e-09 -1.62185e-07)
(-1.56686e-06 -4.05646e-07 2.2026e-07)
(-1.48099e-06 -6.45663e-08 -3.54946e-08)
(-3.39198e-06 5.71647e-08 -4.04312e-07)
(-3.35631e-06 -8.55047e-08 -3.3651e-07)
(-4.04494e-06 -8.38646e-08 -6.0747e-07)
)
;

boundaryField
{
    inlet
    {
        type            calculated;
        value           nonuniform 0();
    }
    outlet
    {
        type            calculated;
        value           uniform (0 0 0);
    }
    wall
    {
        type            calculated;
        value           uniform (0 0 0);
    }
    procBoundary1to0
    {
        type            processor;
        value           uniform (0 0 0);
    }
    procBoundary1to3
    {
        type            processor;
        value           uniform (0 0 0);
    }
    procBoundary1to5
    {
        type            processor;
        value           uniform (0 0 0);
    }
    procBoundary1to7
    {
        type            processor;
        value           uniform (0 0 0);
    }
}


// ************************************************************************* //
