/*--------------------------------*- C++ -*----------------------------------*\
| =========                 |                                                 |
| \\      /  F ield         | OpenFOAM: The Open Source CFD Toolbox           |
|  \\    /   O peration     | Version:  4.x                                   |
|   \\  /    A nd           | Web:      www.OpenFOAM.org                      |
|    \\/     M anipulation  |                                                 |
\*---------------------------------------------------------------------------*/
FoamFile
{
    version     2.0;
    format      ascii;
    class       volScalarField;
    location    "13";
    object      Cs;
}
// * * * * * * * * * * * * * * * * * * * * * * * * * * * * * * * * * * * * * //

dimensions      [1 -3 0 0 0 0 0];

internalField   nonuniform List<scalar> 
114
(
334.994
334.986
334.968
334.939
334.899
334.846
334.998
334.998
334.998
334.995
334.986
334.97
334.942
334.903
334.85
334.997
334.993
334.975
334.993
334.988
334.975
334.951
334.92
334.872
334.996
334.993
334.98
334.993
334.992
334.984
334.968
334.948
334.92
334.944
334.895
334.837
334.79
334.999
334.998
334.997
334.992
334.981
334.954
334.911
334.856
334.804
334.998
334.997
334.997
334.994
334.984
334.962
334.925
334.873
334.821
334.998
334.997
334.996
334.996
334.991
334.981
334.962
334.936
334.902
334.868
334.845
334.999
334.999
334.998
334.993
334.983
334.96
334.931
334.894
334.862
334.999
334.999
334.998
334.995
334.985
334.965
334.934
334.897
334.864
334.999
334.999
334.998
334.996
334.992
334.984
334.967
334.942
334.908
334.999
334.999
334.998
334.995
334.988
334.976
334.958
334.94
334.999
334.999
334.997
334.995
334.99
334.978
334.96
334.999
334.999
334.998
334.997
334.995
334.99
)
;

boundaryField
{
    inlet
    {
        type            calculated;
        value           uniform 335;
    }
    outlet
    {
        type            calculated;
        value           nonuniform 0();
    }
    wall
    {
        type            calculated;
        value           nonuniform List<scalar> 
66
(
334.998
334.997
334.996
334.998
334.993
334.993
334.998
334.975
334.98
334.994
334.995
334.993
334.993
334.986
334.986
334.988
334.992
334.968
334.97
334.975
334.984
334.939
334.942
334.951
334.968
334.899
334.903
334.92
334.948
334.846
334.85
334.872
334.92
334.996
334.998
334.999
334.999
334.993
334.997
334.999
334.999
334.98
334.996
334.998
334.998
334.993
334.996
334.996
334.997
334.992
334.991
334.992
334.995
334.984
334.981
334.984
334.99
334.968
334.962
334.967
334.948
334.936
334.942
334.92
334.902
334.908
)
;
    }
    procBoundary2to0
    {
        type            processor;
        value           nonuniform List<scalar> 
44
(
334.994
334.985
334.971
334.944
334.905
334.855
334.999
334.999
334.998
334.998
334.991
334.976
334.951
334.907
334.856
334.808
334.999
334.999
334.998
334.991
334.976
334.976
334.946
334.907
334.883
334.857
334.999
334.999
334.998
334.991
334.976
334.946
334.907
334.907
334.924
334.905
334.999
334.999
334.998
334.994
334.985
334.969
334.946
334.924
)
;
    }
    procBoundary2to3
    {
        type            processor;
        value           nonuniform List<scalar> 
12
(
334.784
334.787
334.814
334.885
334.767
334.769
334.774
334.862
334.85
334.855
334.847
334.876
)
;
    }
    procBoundary2to6
    {
        type            processor;
        value           nonuniform List<scalar> 
32
(
334.919
334.941
334.92
334.981
334.967
334.951
334.998
334.999
334.998
334.994
334.986
334.973
334.953
334.919
334.941
334.945
334.999
334.999
334.998
334.996
334.99
334.981
334.941
334.981
334.966
334.999
334.999
334.998
334.998
334.996
334.981
334.992
)
;
    }
}


// ************************************************************************* //
