/*--------------------------------*- C++ -*----------------------------------*\
| =========                 |                                                 |
| \\      /  F ield         | OpenFOAM: The Open Source CFD Toolbox           |
|  \\    /   O peration     | Version:  4.x                                   |
|   \\  /    A nd           | Web:      www.OpenFOAM.org                      |
|    \\/     M anipulation  |                                                 |
\*---------------------------------------------------------------------------*/
FoamFile
{
    version     2.0;
    format      ascii;
    class       volScalarField;
    location    "13";
    object      Deff;
}
// * * * * * * * * * * * * * * * * * * * * * * * * * * * * * * * * * * * * * //

dimensions      [0 2 -1 0 0 0 0];

internalField   nonuniform List<scalar> 
114
(
9.91675e-08
9.91498e-08
9.92391e-08
9.91185e-08
9.92373e-08
9.91261e-08
9.93622e-08
9.92285e-08
9.92345e-08
9.92188e-08
9.90908e-08
9.91352e-08
9.90067e-08
9.9004e-08
9.90486e-08
9.94503e-08
9.92752e-08
9.92533e-08
9.92245e-08
9.92572e-08
9.92099e-08
9.92708e-08
9.91239e-08
9.90331e-08
9.95029e-08
9.9424e-08
9.93321e-08
9.93261e-08
9.94049e-08
9.93951e-08
9.94293e-08
9.92676e-08
9.92451e-08
9.85705e-08
9.8478e-08
9.86651e-08
9.85137e-08
9.90735e-08
9.89273e-08
9.88032e-08
9.87336e-08
9.86797e-08
9.86556e-08
9.84901e-08
9.85702e-08
9.86436e-08
9.90967e-08
9.88744e-08
9.87661e-08
9.87377e-08
9.87387e-08
9.87198e-08
9.86836e-08
9.8643e-08
9.86404e-08
9.91764e-08
9.90784e-08
9.89117e-08
9.8908e-08
9.88841e-08
9.88966e-08
9.88643e-08
9.88104e-08
9.88254e-08
9.83042e-08
9.82654e-08
9.876e-08
9.87388e-08
9.86005e-08
9.84873e-08
9.84468e-08
9.83334e-08
9.82212e-08
9.83022e-08
9.83424e-08
9.88779e-08
9.87188e-08
9.85414e-08
9.83958e-08
9.84375e-08
9.84155e-08
9.83122e-08
9.83201e-08
9.82537e-08
9.89507e-08
9.87341e-08
9.86585e-08
9.85604e-08
9.86413e-08
9.85219e-08
9.84075e-08
9.85072e-08
9.83295e-08
9.86327e-08
9.84138e-08
9.82751e-08
9.82475e-08
9.82149e-08
9.816e-08
9.811e-08
9.80907e-08
9.86253e-08
9.8473e-08
9.83058e-08
9.82953e-08
9.82226e-08
9.81774e-08
9.8098e-08
9.87793e-08
9.85767e-08
9.8467e-08
9.835e-08
9.83643e-08
9.8281e-08
)
;

boundaryField
{
    inlet
    {
        type            calculated;
        value           uniform 0;
    }
    outlet
    {
        type            calculated;
        value           nonuniform 0();
    }
    wall
    {
        type            calculated;
        value           uniform 0;
    }
    procBoundary2to0
    {
        type            processor;
        value           uniform 0;
    }
    procBoundary2to3
    {
        type            processor;
        value           uniform 0;
    }
    procBoundary2to6
    {
        type            processor;
        value           uniform 0;
    }
}


// ************************************************************************* //
