/*--------------------------------*- C++ -*----------------------------------*\
| =========                 |                                                 |
| \\      /  F ield         | OpenFOAM: The Open Source CFD Toolbox           |
|  \\    /   O peration     | Version:  4.x                                   |
|   \\  /    A nd           | Web:      www.OpenFOAM.org                      |
|    \\/     M anipulation  |                                                 |
\*---------------------------------------------------------------------------*/
FoamFile
{
    version     2.0;
    format      ascii;
    class       volScalarField;
    location    "13";
    object      Ksl;
}
// * * * * * * * * * * * * * * * * * * * * * * * * * * * * * * * * * * * * * //

dimensions      [1 -3 -1 0 0 0 0];

internalField   nonuniform List<scalar> 
114
(
5464.2
3448.59
4839.76
3086.29
3978.19
2911.07
3511.4
6925.56
3404.25
5747.68
3313.66
4941.97
3093.56
4271.45
2966.45
3452.63
6515.6
3280.49
5241.74
3131.19
4400.47
2914.56
3812.68
2807.12
3409.07
5980.32
3180.77
4741.25
3072.69
3869.37
2689.62
3254.16
2483.17
9968.86
3831.07
12206.9
3869.7
3562.55
8004.16
3683.81
8634.96
3688.19
9640.25
3809.68
11739.2
3781.33
3517.72
7687.93
3611.09
7712.03
3569.7
7709.37
3657.22
8574.31
3661.63
3442.01
6595.32
3383.56
5700.22
3238.12
5004.94
3107.77
4565.5
2960.19
5027.23
4129.18
3598.56
9098.15
3854.38
13650.1
3938.41
22817.4
3586.39
9036.06
3847.86
3517.97
8545.86
3712.38
10720.5
3734.1
14849.4
3836.46
15844.1
3904.45
3443.77
7249.57
3460.49
6877.14
3337.22
6174.21
3300.16
4915.86
3282.19
3624
8924.35
3850.75
11006
3801.88
10405.1
3207.92
13642.4
3557.39
8415.39
3758.27
10060.4
3744.61
12680.8
3745.54
3445.64
6934.01
3472.3
6481.92
3357.18
5946.19
)
;

boundaryField
{
    inlet
    {
        type            zeroGradient;
    }
    outlet
    {
        type            zeroGradient;
    }
    wall
    {
        type            zeroGradient;
    }
    procBoundary2to0
    {
        type            processor;
        value           nonuniform List<scalar> 
44
(
5480.84
3274.81
4806.39
3040.42
4386.42
3018.91
3472.89
6682.74
3351.02
3351.02
8638.69
3762.99
9592.46
3889.01
12526.7
3967.53
3598.6
8107.84
3679.51
8638.69
3762.99
3762.99
48744.8
4104.85
22265
4269.94
3622.02
9821.51
3879.98
15558.1
3929.44
48744.8
4104.85
4104.85
15234
3726.28
3611.72
8951.38
3850.96
12059.1
3812.82
14159.5
3688.06
15234
)
;
    }
    procBoundary2to3
    {
        type            processor;
        value           nonuniform List<scalar> 
12
(
4197.65
4727.12
3756.79
3002.36
13413.5
19294.5
10300.6
4306.45
4346.33
42958.3
27253.5
5217.41
)
;
    }
    procBoundary2to6
    {
        type            processor;
        value           nonuniform List<scalar> 
32
(
3075.05
13130.2
3662.24
3249.73
5556.9
3171.77
3684.46
10344.9
4180.21
21012.4
5281.16
9681.18
31634.1
3075.05
13130.2
1130.21
3552.18
9251.99
3767.74
12300.2
3789.17
12186.9
13130.2
3249.73
3148.29
3427.73
7535.68
3491.96
7707.66
3479.99
3249.73
7985.17
)
;
    }
}


// ************************************************************************* //
