/*--------------------------------*- C++ -*----------------------------------*\
| =========                 |                                                 |
| \\      /  F ield         | OpenFOAM: The Open Source CFD Toolbox           |
|  \\    /   O peration     | Version:  4.x                                   |
|   \\  /    A nd           | Web:      www.OpenFOAM.org                      |
|    \\/     M anipulation  |                                                 |
\*---------------------------------------------------------------------------*/
FoamFile
{
    version     2.0;
    format      ascii;
    class       volScalarField;
    location    "13";
    object      Sm;
}
// * * * * * * * * * * * * * * * * * * * * * * * * * * * * * * * * * * * * * //

dimensions      [1 -3 -1 0 0 0 0];

internalField   nonuniform List<scalar> 
114
(
6.50925e-65
4.88223e-65
2.55734e-65
4.88224e-65
2.24761e-65
2.63512e-65
5.73355e-65
6.50837e-65
5.11344e-65
3.79692e-65
6.1995e-65
4.41738e-65
6.19946e-65
6.12201e-65
3.95294e-65
4.02843e-65
5.65494e-65
4.56902e-65
4.95907e-65
3.87444e-65
5.19219e-65
2.78926e-65
4.72676e-65
5.27131e-65
4.41571e-65
4.26038e-65
4.64614e-65
4.57092e-65
3.33181e-65
3.7971e-65
2.71222e-65
4.49441e-65
3.10023e-65
8.44689e-65
9.76367e-65
5.73522e-65
9.37794e-65
5.42388e-65
6.81874e-65
7.67112e-65
7.749e-65
7.05219e-65
6.27727e-65
8.98825e-65
7.59336e-65
5.1942e-65
6.04324e-65
8.60026e-65
8.28969e-65
7.59388e-65
7.36188e-65
7.36184e-65
7.05002e-65
7.434e-65
5.97184e-65
5.88834e-65
5.19082e-65
6.97273e-65
5.81159e-65
6.89686e-65
5.88945e-65
5.88911e-65
6.50829e-65
4.26205e-65
7.59434e-65
7.98181e-65
7.28384e-65
4.9594e-65
5.50204e-65
6.04479e-65
5.57999e-65
7.12974e-65
8.36917e-65
6.58664e-65
4.88252e-65
5.3464e-65
6.04404e-65
7.12909e-65
9.06697e-65
7.28467e-65
6.43207e-65
7.51622e-65
7.43689e-65
8.36986e-65
5.34637e-65
7.5162e-65
6.04401e-65
6.97458e-65
4.64981e-65
6.50945e-65
8.29135e-65
4.95874e-65
8.90894e-65
4.80438e-65
8.13675e-65
8.3693e-65
6.58695e-65
6.43208e-65
6.27733e-65
6.27758e-65
7.74918e-65
6.89639e-65
6.89662e-65
8.36876e-65
5.81224e-65
7.20714e-65
6.89719e-65
8.36958e-65
5.26913e-65
6.50918e-65
6.27676e-65
7.12983e-65
5.50234e-65
6.35465e-65
)
;

boundaryField
{
    inlet
    {
        type            calculated;
        value           uniform 0;
    }
    outlet
    {
        type            calculated;
        value           nonuniform 0();
    }
    wall
    {
        type            calculated;
        value           uniform 0;
    }
    procBoundary2to0
    {
        type            processor;
        value           nonuniform List<scalar> 
44
(
4.72718e-65
4.2622e-65
4.33975e-65
3.25456e-65
4.18516e-65
7.20706e-65
2.86705e-65
4.41685e-65
3.25455e-65
3.25455e-65
4.5723e-65
9.14328e-65
6.58699e-65
8.29047e-65
6.04534e-65
4.95983e-65
8.05898e-65
6.12184e-65
6.12211e-65
4.5723e-65
9.14328e-65
9.14328e-65
7.12969e-65
7.12968e-65
6.19967e-65
4.57206e-65
7.28415e-65
7.59446e-65
7.67224e-65
7.98275e-65
8.36865e-65
7.12969e-65
7.12968e-65
7.12968e-65
5.42474e-65
2.32481e-65
5.26949e-65
5.88962e-65
7.82715e-65
9.22225e-65
4.41724e-65
9.22179e-65
7.13007e-65
5.42474e-65
)
;
    }
    procBoundary2to3
    {
        type            processor;
        value           nonuniform List<scalar> 
12
(
6.97514e-65
5.03762e-65
5.50278e-65
4.65042e-65
7.51693e-65
6.51012e-65
1.03864e-64
7.75119e-65
7.67175e-65
8.9895e-65
5.65843e-65
5.73714e-65
)
;
    }
    procBoundary2to6
    {
        type            processor;
        value           nonuniform List<scalar> 
32
(
6.74213e-65
6.04426e-65
7.12918e-65
5.1145e-65
5.81155e-65
4.95918e-65
1.03837e-64
7.59443e-65
4.9598e-65
7.43967e-65
9.37681e-65
6.12171e-65
7.36331e-65
6.74213e-65
6.04426e-65
6.5098e-65
5.81189e-65
7.90433e-65
6.43215e-65
8.52461e-65
7.36206e-65
7.82682e-65
6.04426e-65
5.1145e-65
7.0527e-65
4.9594e-65
7.20694e-65
5.42468e-65
6.12237e-65
7.59453e-65
5.1145e-65
8.75691e-65
)
;
    }
}


// ************************************************************************* //
