/*--------------------------------*- C++ -*----------------------------------*\
| =========                 |                                                 |
| \\      /  F ield         | OpenFOAM: The Open Source CFD Toolbox           |
|  \\    /   O peration     | Version:  4.x                                   |
|   \\  /    A nd           | Web:      www.OpenFOAM.org                      |
|    \\/     M anipulation  |                                                 |
\*---------------------------------------------------------------------------*/
FoamFile
{
    version     2.0;
    format      ascii;
    class       volScalarField;
    location    "13";
    object      thCond;
}
// * * * * * * * * * * * * * * * * * * * * * * * * * * * * * * * * * * * * * //

dimensions      [1 1 -3 -1 0 0 0];

internalField   nonuniform List<scalar> 
114
(
192.502
192.467
192.641
192.406
192.637
192.421
192.88
192.62
192.632
192.601
192.353
192.439
192.189
192.184
192.271
193.051
192.711
192.668
192.612
192.676
192.584
192.702
192.417
192.241
193.153
193
192.821
192.809
192.962
192.943
193.01
192.696
192.652
191.343
191.163
191.526
191.232
192.319
192.035
191.794
191.659
191.555
191.508
191.187
191.342
191.485
192.364
191.933
191.722
191.667
191.669
191.632
191.562
191.483
191.478
192.519
192.329
192.005
191.998
191.952
191.976
191.913
191.808
191.837
190.826
190.75
191.711
191.669
191.401
191.181
191.103
190.883
190.665
190.822
190.9
191.939
191.631
191.286
191.004
191.085
191.042
190.841
190.857
190.728
192.081
191.66
191.514
191.323
191.48
191.248
191.026
191.22
190.875
191.464
191.039
190.769
190.716
190.652
190.546
190.449
190.411
191.449
191.153
190.829
190.809
190.667
190.58
190.426
191.748
191.355
191.142
190.915
190.942
190.781
)
;

boundaryField
{
    inlet
    {
        type            zeroGradient;
    }
    outlet
    {
        type            zeroGradient;
    }
    wall
    {
        type            zeroGradient;
    }
    procBoundary2to0
    {
        type            processor;
        value           nonuniform List<scalar> 
44
(
192.769
192.727
192.67
192.69
192.61
192.256
193.331
193.004
192.922
192.922
191.903
191.403
191.64
191.482
191.701
191.684
192.208
192.164
192.03
191.903
191.403
191.403
190.786
190.736
191.064
191.131
191.671
191.516
191.259
191.014
190.841
190.786
190.736
190.736
190.646
190.757
191.615
191.285
190.809
190.551
190.72
190.316
190.397
190.646
)
;
    }
    procBoundary2to3
    {
        type            processor;
        value           nonuniform List<scalar> 
12
(
191.86
191.863
191.893
192.238
191.075
191.125
190.936
191.359
190.425
190.43
190.744
191.025
)
;
    }
    procBoundary2to6
    {
        type            processor;
        value           nonuniform List<scalar> 
32
(
190.422
190.556
190.466
190.838
190.83
190.802
190.732
190.763
190.773
190.403
190.136
190.277
190.13
190.422
190.556
190.181
191.237
190.872
190.77
190.403
190.301
190.222
190.556
190.838
190.212
191.591
191.121
191.035
190.693
190.406
190.838
190.234
)
;
    }
}


// ************************************************************************* //
