/*--------------------------------*- C++ -*----------------------------------*\
| =========                 |                                                 |
| \\      /  F ield         | OpenFOAM: The Open Source CFD Toolbox           |
|  \\    /   O peration     | Version:  4.x                                   |
|   \\  /    A nd           | Web:      www.OpenFOAM.org                      |
|    \\/     M anipulation  |                                                 |
\*---------------------------------------------------------------------------*/
FoamFile
{
    version     2.0;
    format      ascii;
    class       volVectorField;
    location    "13";
    object      Urel;
}
// * * * * * * * * * * * * * * * * * * * * * * * * * * * * * * * * * * * * * //

dimensions      [0 1 -1 0 0 0 0];

internalField   nonuniform List<vector> 
114
(
(-0.0223906 9.30627e-05 0.00125206)
(-0.0237399 8.74333e-05 0.0011394)
(-0.0229735 7.34871e-05 0.000842711)
(-0.0241534 5.91665e-05 0.000523458)
(-0.0231123 1.45571e-05 0.000125558)
(-0.02399 -5.06212e-05 -0.000270064)
(-0.0235915 -0.000129033 0.00148728)
(-0.0220448 -0.00012698 0.00140646)
(-0.0232698 -0.000150648 0.00141855)
(-0.0224641 -0.00015724 0.00124802)
(-0.0238639 -0.000173406 0.00113653)
(-0.0231437 -0.000164774 0.00085547)
(-0.0243923 -0.000193703 0.00055409)
(-0.0234364 -0.000197413 0.000148099)
(-0.0243939 -0.000262044 -0.000247411)
(-0.0237316 -0.000356181 0.00147446)
(-0.0222734 -0.000323851 0.00140006)
(-0.0236 -0.000347036 0.00141662)
(-0.0229591 -0.000325123 0.00125661)
(-0.0244481 -0.000362879 0.00115782)
(-0.0239349 -0.000341152 0.000896343)
(-0.0252755 -0.000380913 0.000615186)
(-0.0245902 -0.000370409 0.000208594)
(-0.0256334 -0.000456208 -0.000186366)
(-0.0238568 -0.000426073 0.00144034)
(-0.0225342 -0.00039842 0.00137723)
(-0.0239329 -0.000422293 0.00138363)
(-0.0234895 -0.000393954 0.00124817)
(-0.0250614 -0.000418616 0.00115743)
(-0.0248075 -0.000391241 0.000929584)
(-0.0262561 -0.000421546 0.000668876)
(-0.0259009 -0.000423579 0.000288177)
(-0.0270622 -0.000492915 -9.72438e-05)
(-0.0208114 7.33911e-05 0.000817054)
(-0.022114 6.43965e-05 0.000565857)
(-0.0204964 1.5758e-05 0.000117796)
(-0.0218902 -4.54193e-05 -0.000272515)
(-0.0233014 -0.000160603 0.00161932)
(-0.0214944 -0.000144595 0.00148958)
(-0.0225008 -0.000172363 0.00153721)
(-0.0211628 -0.000170573 0.00129001)
(-0.0224418 -0.000192973 0.00121045)
(-0.0210972 -0.00017086 0.000861693)
(-0.0224344 -0.000190806 0.000602253)
(-0.0209313 -0.000186597 0.00014257)
(-0.0223213 -0.000217343 -0.000292924)
(-0.0234585 -0.000394267 0.00160197)
(-0.0217463 -0.000356257 0.00148632)
(-0.0228515 -0.000395594 0.00153655)
(-0.021697 -0.000359695 0.0013135)
(-0.0230608 -0.000402034 0.00124571)
(-0.0219544 -0.000361854 0.00091956)
(-0.0233256 -0.00040672 0.000661238)
(-0.0220837 -0.000362763 0.000210885)
(-0.0234662 -0.000419313 -0.000205867)
(-0.0236119 -0.000473307 0.00156864)
(-0.0220819 -0.000440184 0.00147385)
(-0.0232804 -0.000477127 0.00151513)
(-0.022442 -0.000436297 0.0013401)
(-0.0238559 -0.000470875 0.00127943)
(-0.0231573 -0.000430245 0.00101229)
(-0.0245254 -0.000466131 0.000760449)
(-0.023778 -0.000437519 0.000334015)
(-0.0250498 -0.000482227 -8.86768e-05)
(-0.018296 -6.09842e-06 3.93414e-05)
(-0.0201701 -8.82902e-05 -0.000280083)
(-0.0229737 -0.000201169 0.00146018)
(-0.0209403 -0.000175637 0.00132554)
(-0.0217332 -0.000202881 0.00132058)
(-0.0199779 -0.000179318 0.00107765)
(-0.021157 -0.00019877 0.000951275)
(-0.0193787 -0.000168655 0.000656186)
(-0.0208324 -0.000222703 0.000402202)
(-0.0190424 -0.000177935 6.92894e-05)
(-0.0206667 -0.000203594 -0.000320195)
(-0.0231507 -0.000439442 0.00144878)
(-0.0212208 -0.000391685 0.00132814)
(-0.0221203 -0.000440068 0.00133613)
(-0.020553 -0.000385824 0.00112198)
(-0.0217949 -0.000434323 0.00101499)
(-0.0202408 -0.000374131 0.000720885)
(-0.0216789 -0.000441072 0.000451591)
(-0.020097 -0.000332983 0.000119291)
(-0.0217192 -0.000340447 -0.00024864)
(-0.0233317 -0.000518772 0.00142846)
(-0.0216008 -0.000482718 0.00133228)
(-0.022606 -0.000529174 0.00134779)
(-0.0214084 -0.000474626 0.0011821)
(-0.0226649 -0.000509587 0.00108808)
(-0.0216001 -0.000450206 0.000832204)
(-0.0229121 -0.000491195 0.000575633)
(-0.0219106 -0.000419127 0.000228574)
(-0.0232256 -0.00043568 -0.000146265)
(-0.0227429 -0.00020576 0.00116684)
(-0.0206255 -0.000188482 0.00104631)
(-0.0213054 -0.000208879 0.0010295)
(-0.0194059 -0.00017559 0.000843582)
(-0.0204954 -0.000174478 0.000757749)
(-0.0186156 -0.000149161 0.000544641)
(-0.0199531 -0.00016057 0.000478452)
(-0.0180538 -0.000159209 -5.00783e-06)
(-0.0229291 -0.000470568 0.00115335)
(-0.0209264 -0.000415781 0.00105077)
(-0.0216969 -0.000452593 0.00103989)
(-0.0199905 -0.000386937 0.000877067)
(-0.0211224 -0.000419474 0.000776112)
(-0.0194532 -0.000369429 0.000550136)
(-0.0208307 -0.00041651 0.000345499)
(-0.0231342 -0.00055651 0.00114589)
(-0.0213442 -0.000510095 0.00106954)
(-0.0222163 -0.000548006 0.00107423)
(-0.0208785 -0.000485167 0.000951741)
(-0.0220061 -0.000512797 0.000870162)
(-0.0208022 -0.000455118 0.000652974)
)
;

boundaryField
{
    inlet
    {
        type            calculated;
        value           nonuniform List<vector> 
12
(
(-0.0100036 3.18238e-07 9.07342e-07)
(-0.010002 -7.66524e-07 2.0146e-06)
(-0.0100006 -5.88575e-07 1.43906e-06)
(-0.0100006 -1.35303e-06 1.24588e-06)
(-0.0100021 -5.46745e-07 2.94074e-06)
(-0.010002 -6.35909e-07 2.52401e-06)
(-0.0100006 -1.46678e-06 9.08528e-07)
(-0.0100005 -1.99659e-07 1.9911e-06)
(-0.0100009 -9.15716e-08 2.68196e-06)
(-0.0100005 -6.75753e-07 5.10625e-07)
(-0.0100002 -5.36714e-07 7.10757e-07)
(-0.0100005 -1.82974e-07 2.40702e-06)
)
;
    }
    outlet
    {
        type            calculated;
        value           nonuniform 0();
    }
    wall
    {
        type            calculated;
        value           nonuniform List<vector> 
66
(
(-3.56355e-06 3.18238e-07 9.07342e-07)
(-2.03776e-06 -7.66524e-07 2.0146e-06)
(-5.73508e-07 -5.88575e-07 1.43906e-06)
(-3.43433e-06 -3.8119e-07 7.77313e-07)
(-5.80792e-06 -5.49347e-07 7.98052e-06)
(-4.73036e-06 1.4901e-06 7.42821e-06)
(-4.70254e-06 1.13605e-06 4.49615e-06)
(-6.82623e-05 7.43235e-05 9.65906e-05)
(-1.24183e-05 3.47636e-06 5.01677e-05)
(-4.25909e-06 -4.50474e-07 -1.92967e-07)
(-5.11235e-06 -8.53541e-07 2.52878e-06)
(-0.000100753 0.000144706 3.29018e-05)
(-1.03322e-05 9.44688e-06 7.35991e-06)
(-4.16589e-06 -1.36154e-06 -1.93302e-07)
(-7.32831e-06 -2.14212e-06 1.96317e-06)
(-8.02807e-06 -4.12646e-06 1.45871e-06)
(-2.79284e-06 2.34402e-06 6.28993e-06)
(-5.55371e-06 -1.36996e-06 1.27678e-07)
(-7.88747e-06 -5.09049e-07 9.33315e-07)
(-1.11676e-05 8.70135e-07 2.40156e-06)
(-9.72549e-06 2.54455e-07 6.79939e-07)
(-5.6278e-06 7.49904e-07 5.0917e-07)
(-8.69362e-06 2.28789e-06 1.33861e-06)
(-1.27916e-05 3.16286e-06 5.18405e-06)
(-9.81324e-06 1.11487e-06 3.31865e-06)
(-4.80758e-06 6.48461e-09 1.68191e-06)
(-6.89527e-06 6.86748e-07 2.83619e-06)
(-8.45122e-06 1.4838e-06 6.5971e-06)
(-9.7179e-06 -3.11139e-06 4.46465e-06)
(-4.74254e-06 3.68986e-07 2.82112e-06)
(-5.67075e-06 -4.92919e-07 4.52985e-06)
(-8.02778e-07 -6.42572e-06 1.76663e-05)
(-1.09254e-05 -2.51518e-06 8.02539e-06)
(-5.73508e-07 -5.88575e-07 1.43906e-06)
(-1.98772e-06 -6.35909e-07 2.52401e-06)
(-9.22375e-07 -9.15716e-08 2.68196e-06)
(-5.45301e-07 -1.82974e-07 2.40702e-06)
(-4.73036e-06 1.4901e-06 7.42821e-06)
(-6.34323e-06 -1.98438e-07 9.79142e-06)
(-1.40353e-06 4.20231e-07 2.13008e-06)
(-1.26198e-06 5.31274e-07 1.7913e-06)
(-1.24183e-05 3.47636e-06 5.01677e-05)
(-5.43976e-06 -7.00184e-07 5.0553e-06)
(-2.82727e-06 -3.75867e-07 1.71927e-06)
(-1.92934e-06 -3.54723e-07 1.51863e-06)
(-1.03322e-05 9.44688e-06 7.35991e-06)
(-3.94949e-06 1.04467e-07 2.76183e-06)
(-4.44838e-06 -6.14707e-07 1.30477e-06)
(-1.92346e-06 -2.99912e-07 2.67248e-07)
(-2.79284e-06 2.34402e-06 6.28993e-06)
(-5.12234e-06 1.51497e-06 5.8046e-06)
(-5.5024e-06 -3.4603e-07 3.49599e-06)
(-2.65603e-06 -4.64276e-07 1.24149e-06)
(-9.72549e-06 2.54455e-07 6.79939e-07)
(-1.69871e-05 -7.00787e-08 4.37305e-06)
(-7.62749e-06 -7.80078e-07 2.89691e-06)
(-4.16672e-06 -6.35025e-07 9.5921e-07)
(-9.81324e-06 1.11487e-06 3.31865e-06)
(-1.52096e-05 1.32005e-06 3.32675e-06)
(-9.07998e-06 4.30286e-07 2.90562e-06)
(-9.7179e-06 -3.11139e-06 4.46465e-06)
(-9.75136e-06 8.2407e-07 4.88286e-06)
(-1.1118e-05 -3.55586e-08 6.62243e-06)
(-1.09254e-05 -2.51518e-06 8.02539e-06)
(-1.25475e-05 6.96944e-07 4.59628e-06)
(-1.00282e-05 1.35461e-06 4.31238e-06)
)
;
    }
    procBoundary2to0
    {
        type            processor;
        value           nonuniform List<vector> 
44
(
(-0.0225783 0.000327378 0.0012478)
(-0.0239805 0.000329232 0.00112911)
(-0.0232828 0.000291693 0.000837433)
(-0.0244982 0.000320578 0.000532135)
(-0.0234906 0.000297341 0.000137878)
(-0.0243745 0.000307959 -0.000239051)
(-0.0235743 0.000150486 0.00152376)
(-0.0220137 0.000123053 0.00142088)
(-0.0232209 0.000115819 0.00142914)
(-0.0232209 0.000115819 0.00142914)
(-0.0210029 8.63667e-05 0.00128149)
(-0.0222458 8.38622e-05 0.0011874)
(-0.0212001 0.000298511 0.000805529)
(-0.0225142 0.00031341 0.000518306)
(-0.0209805 0.000260739 0.000107573)
(-0.0223018 0.000246464 -0.000260968)
(-0.0232494 0.000135265 0.00165927)
(-0.0214081 0.000116899 0.00150974)
(-0.0223925 0.000113718 0.00155399)
(-0.0210029 8.63667e-05 0.00128149)
(-0.0222458 8.38622e-05 0.0011874)
(-0.0222458 8.38622e-05 0.0011874)
(-0.0189891 9.16532e-05 0.000588801)
(-0.0204616 0.000106942 0.000299084)
(-0.0190844 0.000230202 2.21321e-05)
(-0.0206828 0.000199385 -0.000312684)
(-0.0229002 0.000122765 0.00146929)
(-0.020803 0.000107749 0.00133247)
(-0.0215814 0.000106072 0.00132338)
(-0.0197164 8.88987e-05 0.00104818)
(-0.020916 0.00010106 0.000897614)
(-0.0189891 9.16532e-05 0.000588801)
(-0.0204616 0.000106942 0.000299084)
(-0.0204616 0.000106942 0.000299084)
(-0.0179702 3.03768e-05 -4.60349e-05)
(-0.0196059 -6.76338e-05 -0.000292763)
(-0.0226861 0.000133044 0.0011483)
(-0.0205404 0.000108938 0.001042)
(-0.0211935 0.000107076 0.00100798)
(-0.0192376 9.02089e-05 0.000801701)
(-0.0203396 0.000104971 0.000656685)
(-0.0184476 0.00010919 0.000417745)
(-0.0198358 0.000121549 0.000136957)
(-0.0179702 3.03768e-05 -4.60349e-05)
)
;
    }
    procBoundary2to3
    {
        type            processor;
        value           nonuniform List<vector> 
12
(
(-0.0224845 -8.68977e-05 -0.000477627)
(-0.0229902 -0.00030174 -0.000500679)
(-0.0245372 -0.000505524 -0.000521077)
(-0.0263863 -0.000546956 -0.000482196)
(-0.0201341 -8.61319e-05 -0.000416725)
(-0.0206332 -0.000248477 -0.000451471)
(-0.0220258 -0.000420714 -0.000470375)
(-0.0241704 -0.000488909 -0.000457257)
(-0.0180303 -0.000103056 -0.000321702)
(-0.0188103 -0.000197779 -0.000372448)
(-0.0201041 -0.00031045 -0.000385998)
(-0.0222192 -0.000389215 -0.000413185)
)
;
    }
    procBoundary2to6
    {
        type            processor;
        value           nonuniform List<vector> 
32
(
(-0.0198753 -0.000180951 -0.00046028)
(-0.0192001 -0.000303696 7.86206e-05)
(-0.0208741 -0.00025991 -0.000234017)
(-0.0220558 -0.000471844 0.00046515)
(-0.0209642 -0.000376807 0.000171118)
(-0.02231 -0.000349385 -0.000144537)
(-0.0226468 -0.000215162 0.000741527)
(-0.0204584 -0.000195903 0.000667653)
(-0.0210766 -0.000211387 0.000635402)
(-0.0190474 -0.000165987 0.000505086)
(-0.0201008 -0.000159718 0.000399931)
(-0.0179086 -0.000123913 0.000226415)
(-0.0191644 -0.000132907 9.18342e-05)
(-0.0198753 -0.000180951 -0.00046028)
(-0.0192001 -0.000303696 7.86206e-05)
(-0.0163494 -0.000178689 3.55919e-05)
(-0.0228463 -0.000499949 0.00073714)
(-0.0207813 -0.00042943 0.000680973)
(-0.0215098 -0.000471993 0.000653826)
(-0.019701 -0.000398688 0.000550319)
(-0.0208159 -0.000457188 0.000449859)
(-0.0190007 -0.000422368 0.00029445)
(-0.0192001 -0.000303696 7.86206e-05)
(-0.0220558 -0.000471844 0.00046515)
(-0.020355 -0.00060882 0.000141988)
(-0.0230642 -0.000572935 0.00075128)
(-0.0212231 -0.000518964 0.00070836)
(-0.0220471 -0.000552023 0.000698532)
(-0.0206255 -0.000479846 0.000621006)
(-0.0217104 -0.000492962 0.000536196)
(-0.0220558 -0.000471844 0.00046515)
(-0.0203918 -0.000448923 0.000391714)
)
;
    }
}


// ************************************************************************* //
