/*--------------------------------*- C++ -*----------------------------------*\
| =========                 |                                                 |
| \\      /  F ield         | OpenFOAM: The Open Source CFD Toolbox           |
|  \\    /   O peration     | Version:  4.x                                   |
|   \\  /    A nd           | Web:      www.OpenFOAM.org                      |
|    \\/     M anipulation  |                                                 |
\*---------------------------------------------------------------------------*/
FoamFile
{
    version     2.0;
    format      ascii;
    class       volVectorField;
    location    "13";
    object      Us;
}
// * * * * * * * * * * * * * * * * * * * * * * * * * * * * * * * * * * * * * //

dimensions      [0 1 -1 0 0 0 0];

internalField   nonuniform List<vector> 
114
(
(2.73882e-05 -7.84565e-06 -1.61146e-05)
(7.59828e-05 -4.24264e-06 -4.33399e-05)
(0.000146997 1.93969e-05 -1.7931e-05)
(0.000195771 1.08391e-05 1.63679e-05)
(0.000243723 1.47454e-05 4.23107e-05)
(0.000360776 -4.97097e-05 6.91957e-05)
(5.51689e-06 8.68348e-06 -6.41211e-06)
(1.23158e-05 -3.10179e-07 -2.52678e-05)
(4.70794e-05 -2.18818e-05 -8.1609e-06)
(5.85328e-05 -2.98207e-06 -6.85719e-06)
(0.000119046 1.93517e-05 3.1879e-05)
(0.000196297 3.34602e-05 6.41277e-06)
(0.000314291 -2.66547e-05 7.22673e-06)
(0.000370512 -4.76977e-05 5.9243e-05)
(0.000406193 -3.12585e-05 3.88329e-05)
(9.16205e-06 4.29884e-06 -3.73145e-06)
(5.85747e-06 7.85076e-06 -1.64047e-05)
(6.51453e-05 -2.23769e-05 -2.31898e-06)
(0.000101055 -5.43245e-05 -6.33965e-06)
(0.000136809 -4.49853e-05 4.7624e-05)
(0.000246086 -9.41327e-07 -2.087e-05)
(0.00030904 -3.4078e-05 -2.10973e-05)
(0.000414223 -0.00010899 -4.26925e-06)
(0.000380642 -2.9749e-05 3.65428e-05)
(-6.14602e-06 5.68281e-06 -7.81988e-06)
(-1.43011e-05 -5.01507e-06 -1.35643e-05)
(5.18806e-05 -1.41279e-05 1.27766e-05)
(6.79123e-05 -3.0837e-05 1.78908e-05)
(9.68455e-05 -6.42684e-05 2.40216e-05)
(0.000129706 -8.73643e-06 -3.57789e-05)
(0.000249018 -4.0024e-07 -3.11014e-05)
(0.000287003 -8.36112e-05 -4.85524e-05)
(0.0002757 -7.36201e-05 6.52478e-06)
(0.000124247 2.35181e-06 -2.39384e-05)
(0.000176126 -2.81108e-05 2.1398e-05)
(0.00023222 8.70368e-06 5.12838e-05)
(0.000275804 1.27443e-06 5.40161e-05)
(1.21121e-05 2.50716e-07 4.01848e-06)
(2.25058e-05 -1.02376e-06 -3.24327e-06)
(3.76499e-05 2.84706e-06 1.24837e-06)
(5.81805e-05 -1.1637e-05 4.14283e-06)
(7.36804e-05 -5.59791e-07 1.5118e-06)
(0.000174202 5.00186e-05 -7.914e-06)
(0.000240529 8.91387e-06 2.52735e-05)
(0.000274308 4.95698e-07 6.39461e-05)
(0.000310111 7.47836e-06 2.94398e-05)
(1.3867e-05 5.24906e-07 4.66898e-06)
(3.01319e-05 -1.81503e-06 5.15158e-06)
(5.09301e-05 -4.05441e-06 -6.83098e-07)
(6.56175e-05 -8.73265e-06 7.4928e-06)
(8.33883e-05 -2.87346e-05 1.14358e-05)
(0.000148849 1.11547e-05 -1.10787e-05)
(0.000261438 -2.24598e-05 -2.52259e-05)
(0.00029951 1.14843e-05 4.38709e-06)
(0.000294474 2.87771e-05 8.11723e-06)
(3.28545e-06 -1.06872e-06 1.38855e-06)
(7.55319e-06 -6.04936e-06 -1.58378e-07)
(2.5914e-05 -2.55207e-06 5.5126e-06)
(4.67765e-05 -2.42474e-05 1.16622e-05)
(5.2119e-05 -4.98015e-05 3.26344e-05)
(8.42863e-05 -1.17532e-05 -4.37089e-06)
(0.000170182 -1.01899e-05 -2.85934e-05)
(0.000191888 9.20142e-06 2.09636e-05)
(0.000154717 1.47438e-05 4.0302e-05)
(0.000252576 2.78675e-06 5.69176e-05)
(0.000294919 1.2829e-05 5.37283e-05)
(2.27057e-05 -4.56504e-06 1.57286e-05)
(4.47575e-05 -1.97276e-06 1.92114e-05)
(6.7644e-05 1.15109e-05 1.93009e-05)
(8.89611e-05 -2.08253e-06 2.34989e-05)
(0.00011306 4.6466e-06 -8.24551e-07)
(0.000188198 3.35262e-05 5.43471e-06)
(0.000219165 2.47963e-05 5.20985e-05)
(0.000276814 3.90594e-05 5.36634e-05)
(0.000309295 2.97192e-05 1.86792e-05)
(1.07898e-05 -5.71075e-06 7.01039e-06)
(4.24689e-05 -6.25672e-06 6.04397e-06)
(6.94621e-05 3.63841e-06 1.63947e-05)
(7.33039e-05 9.25631e-06 1.197e-05)
(0.000104174 -9.21944e-06 -1.36906e-05)
(0.000136876 7.50998e-06 -9.23046e-06)
(0.000197135 -1.94388e-06 4.09458e-06)
(0.000262783 5.23351e-05 1.09825e-05)
(0.000291118 5.66798e-05 -1.8399e-05)
(3.98256e-06 -4.67416e-06 6.99532e-06)
(1.95374e-05 -7.44792e-06 8.62894e-06)
(3.33933e-05 -2.31796e-06 9.98826e-06)
(5.02732e-05 -4.30369e-06 9.56066e-06)
(4.75472e-05 -1.92348e-05 8.84234e-06)
(5.97966e-05 -1.05517e-05 1.17747e-05)
(7.67306e-05 -3.71994e-06 -1.45503e-05)
(9.82551e-05 -2.11455e-06 3.76052e-05)
(0.000170671 1.4882e-05 2.84147e-05)
(2.5295e-05 -2.09353e-06 1.06455e-05)
(6.59765e-05 -1.91288e-06 1.23378e-05)
(8.63016e-05 1.24636e-05 8.3054e-06)
(0.000117635 1.36219e-05 -4.19049e-06)
(0.000143927 4.45078e-05 -1.7278e-05)
(0.000202732 1.85442e-05 9.67295e-06)
(0.000287357 3.39271e-05 2.62878e-05)
(0.000404808 6.6903e-05 4.3228e-05)
(1.56212e-05 -2.40971e-06 6.38919e-06)
(5.55566e-05 -7.67695e-06 3.82323e-06)
(8.02114e-05 -6.85875e-06 5.87488e-06)
(0.000106113 9.51942e-06 -9.70686e-06)
(0.000121409 9.65704e-06 -1.48938e-05)
(0.000155075 6.73488e-06 -1.16393e-05)
(0.000197062 -4.83035e-06 5.57835e-06)
(7.90482e-06 -5.58706e-06 7.50813e-06)
(2.13752e-05 -1.57295e-05 7.61808e-06)
(4.64667e-05 -3.91183e-06 -7.89146e-07)
(3.18271e-05 -1.89141e-06 -8.11019e-06)
(4.06695e-05 -1.66089e-05 -8.39182e-06)
(4.00828e-05 7.5614e-06 1.58884e-06)
)
;

boundaryField
{
    inlet
    {
        type            zeroGradient;
    }
    outlet
    {
        type            zeroGradient;
    }
    wall
    {
        type            zeroGradient;
    }
    procBoundary2to0
    {
        type            processor;
        value           nonuniform List<vector> 
44
(
(3.69949e-05 -2.39054e-05 -6.86042e-05)
(5.37411e-05 -6.51055e-06 -6.47985e-05)
(0.000143704 -6.13526e-06 -8.41508e-05)
(0.000236708 -3.21899e-06 -3.85626e-05)
(0.000337329 2.63163e-05 9.12421e-06)
(0.000356063 5.65532e-05 1.65023e-05)
(2.03439e-06 6.40116e-07 -7.76557e-06)
(2.91062e-06 -3.02276e-05 -4.18851e-05)
(3.43517e-05 -1.72017e-05 -3.16543e-05)
(3.43517e-05 -1.72017e-05 -3.16543e-05)
(4.84637e-05 -1.61258e-05 -2.64961e-05)
(6.13863e-05 -4.58133e-06 -1.83563e-05)
(0.000114578 -1.53601e-05 -6.64522e-05)
(0.000203362 -1.82776e-05 -1.32086e-05)
(0.000245814 -1.94293e-05 2.47724e-05)
(0.000294041 2.7678e-05 1.41731e-05)
(9.08412e-06 -5.06857e-06 -7.04923e-06)
(1.8391e-05 -5.8781e-06 -2.46657e-05)
(2.52102e-05 9.05292e-06 -2.09618e-05)
(4.84637e-05 -1.61258e-05 -2.64961e-05)
(6.13863e-05 -4.58133e-06 -1.83563e-05)
(6.13863e-05 -4.58133e-06 -1.83563e-05)
(0.000137385 -5.70549e-06 -9.51518e-06)
(0.000207789 2.03193e-06 4.73506e-05)
(0.00025407 -1.02525e-05 6.06607e-05)
(0.000293907 6.77072e-07 3.72395e-05)
(1.75992e-05 -4.60405e-06 5.68254e-06)
(3.84855e-05 6.21635e-06 7.092e-06)
(5.03803e-05 6.66842e-06 -6.59547e-07)
(5.37367e-05 -8.14829e-07 -1.12894e-05)
(9.92812e-05 -1.95411e-06 -3.82917e-06)
(0.000137385 -5.70549e-06 -9.51518e-06)
(0.000207789 2.03193e-06 4.73506e-05)
(0.000207789 2.03193e-06 4.73506e-05)
(0.000258804 1.35297e-05 7.79635e-05)
(0.000349253 -8.43507e-07 6.09851e-05)
(2.61328e-05 1.33399e-06 6.85924e-06)
(5.28934e-05 9.3619e-06 6.96773e-06)
(9.42586e-05 7.66237e-06 5.67028e-06)
(0.000111667 5.53583e-07 1.48195e-05)
(0.000101046 1.39759e-05 4.45218e-05)
(0.000174373 2.47818e-05 2.12642e-05)
(0.00023133 1.7037e-05 5.75339e-05)
(0.000258804 1.35297e-05 7.79635e-05)
)
;
    }
    procBoundary2to3
    {
        type            processor;
        value           nonuniform List<vector> 
12
(
(0.000325637 2.93998e-05 2.33222e-05)
(0.000418575 -7.66255e-06 -3.89231e-05)
(0.000480944 1.01416e-05 -0.000102118)
(0.000332457 8.85548e-05 -8.60303e-05)
(0.00032747 -1.0562e-05 1.43622e-05)
(0.000337482 -1.09732e-05 -2.12382e-05)
(0.000327553 5.15542e-05 -7.35965e-05)
(0.000285621 5.4803e-05 -4.38779e-05)
(0.000362177 1.88616e-05 5.12796e-05)
(0.000316054 4.065e-05 1.51064e-05)
(0.00031 2.80938e-05 -5.52815e-05)
(0.000223457 -2.5739e-05 -4.02798e-05)
)
;
    }
    procBoundary2to6
    {
        type            processor;
        value           nonuniform List<vector> 
32
(
(0.000405577 2.23331e-05 5.87808e-05)
(0.000296577 7.27927e-05 5.40032e-06)
(0.000338789 5.01126e-05 6.6538e-06)
(6.0626e-05 1.17706e-05 -1.82191e-06)
(0.000130416 3.27991e-05 3.14768e-05)
(0.000134818 -3.85554e-06 5.56119e-05)
(3.15477e-05 -3.8886e-06 4.40995e-06)
(7.26861e-05 2.9647e-07 -1.313e-06)
(0.000117141 2.56412e-05 -3.03103e-05)
(0.000127777 3.86239e-05 -2.44123e-05)
(0.000142072 5.27285e-05 -1.14092e-05)
(0.000283643 4.45905e-05 -3.51863e-05)
(0.000339136 8.60236e-05 -2.28361e-05)
(0.000405577 2.23331e-05 5.87808e-05)
(0.000296577 7.27927e-05 5.40032e-06)
(0.000386526 8.7444e-05 2.18123e-05)
(3.31545e-05 -2.74656e-06 -4.29492e-06)
(5.68787e-05 -8.16822e-06 -9.75465e-06)
(8.97333e-05 2.15154e-07 -2.4925e-05)
(0.000114801 1.60005e-05 -1.2934e-05)
(0.000142323 2.2483e-05 2.54159e-06)
(0.00019378 1.10654e-05 -4.22982e-05)
(0.000296577 7.27927e-05 5.40032e-06)
(6.0626e-05 1.17706e-05 -1.82191e-06)
(0.000303102 5.01479e-05 1.45237e-06)
(7.61731e-06 -1.89578e-06 2.47406e-06)
(3.25888e-05 -1.43451e-05 -2.27066e-06)
(2.79426e-05 -1.07992e-07 -1.96564e-05)
(2.2706e-05 -5.83362e-06 -9.36723e-06)
(6.17913e-06 1.70704e-06 -3.02115e-06)
(6.0626e-05 1.17706e-05 -1.82191e-06)
(6.04911e-05 -1.55223e-05 -1.96259e-05)
)
;
    }
}


// ************************************************************************* //
