/*--------------------------------*- C++ -*----------------------------------*\
| =========                 |                                                 |
| \\      /  F ield         | OpenFOAM: The Open Source CFD Toolbox           |
|  \\    /   O peration     | Version:  4.x                                   |
|   \\  /    A nd           | Web:      www.OpenFOAM.org                      |
|    \\/     M anipulation  |                                                 |
\*---------------------------------------------------------------------------*/
FoamFile
{
    version     2.0;
    format      ascii;
    class       volScalarField;
    location    "22";
    object      Qsource;
}
// * * * * * * * * * * * * * * * * * * * * * * * * * * * * * * * * * * * * * //

dimensions      [1 -1 -3 0 0 0 0];

internalField   nonuniform List<scalar> 
132
(
9.99126e+09
8.99444e+09
6.3333e+09
7.80223e+09
1.0895e+10
1.22268e+10
7.92025e+09
6.55887e+09
6.0277e+09
7.7989e+09
1.1434e+10
7.54165e+09
8.14155e+09
8.44393e+09
6.996e+09
7.71507e+09
7.73921e+09
6.63442e+09
5.27924e+09
9.33049e+09
6.8896e+09
8.8754e+09
8.26853e+09
1.03256e+10
8.64491e+09
8.91267e+09
7.40026e+09
7.60407e+09
8.40687e+09
9.5471e+09
6.9407e+09
8.59272e+09
9.21746e+09
8.78254e+09
8.61781e+09
4.46537e+09
6.47514e+09
8.53762e+09
6.88371e+09
8.11282e+09
8.81015e+09
1.00171e+10
5.92721e+09
3.83502e+09
9.94236e+09
7.25996e+09
8.6827e+09
8.52093e+09
8.14357e+09
5.76948e+09
8.90992e+09
4.86174e+09
6.02595e+09
1.00611e+10
7.522e+09
7.24246e+09
8.21045e+09
1.04601e+10
9.56632e+09
8.33268e+09
6.40844e+09
7.18829e+09
9.41849e+09
6.61469e+09
8.82916e+09
7.67066e+09
7.49689e+09
6.75923e+09
9.3835e+09
4.74714e+09
4.75318e+09
6.91768e+09
7.76836e+09
7.07734e+09
4.23429e+09
8.62299e+09
9.04263e+09
7.07222e+09
6.44987e+09
9.00229e+09
8.70258e+09
7.56364e+09
1.05268e+10
6.49664e+09
8.19497e+09
9.40125e+09
8.64135e+09
8.90233e+09
9.3474e+09
9.80615e+09
9.06914e+09
9.1687e+09
7.4451e+09
6.59291e+09
8.20707e+09
7.81677e+09
9.10473e+09
7.2285e+09
8.06523e+09
9.19537e+09
1.01927e+10
6.60899e+09
6.02674e+09
7.97173e+09
5.23656e+09
7.55862e+09
7.65939e+09
7.71264e+09
9.20586e+09
5.37721e+09
5.4877e+09
6.98861e+09
7.86339e+09
4.71739e+09
6.7941e+09
7.54704e+09
6.79602e+09
8.4567e+09
7.85264e+09
7.89509e+09
8.11697e+09
8.19016e+09
6.95134e+09
7.37435e+09
1.00786e+10
7.19023e+09
8.99688e+09
8.71628e+09
8.94412e+09
8.06541e+09
9.27314e+09
5.71907e+09
)
;

boundaryField
{
    inlet
    {
        type            calculated;
        value           nonuniform 0();
    }
    outlet
    {
        type            calculated;
        value           uniform 0;
    }
    wall
    {
        type            calculated;
        value           uniform 0;
    }
    procBoundary7to0
    {
        type            processor;
        value           uniform 2.59443e+09;
    }
    procBoundary7to1
    {
        type            processor;
        value           uniform 5.92615e+09;
    }
    procBoundary7to3
    {
        type            processor;
        value           nonuniform List<scalar> 
36
(
8.05956e+09
1.07056e+10
8.92179e+09
1.00307e+10
6.3924e+09
7.61707e+09
8.85885e+09
8.30211e+09
6.75541e+09
9.60547e+09
6.13668e+09
8.11087e+09
4.98418e+09
4.33955e+09
9.41129e+09
7.7296e+09
1.09788e+10
5.45926e+09
6.03581e+09
1.02204e+10
9.12509e+09
7.17059e+09
7.24198e+09
9.81564e+09
7.95472e+09
9.21153e+09
4.58473e+09
9.30345e+09
5.73297e+09
6.30217e+09
7.86906e+09
6.90159e+09
9.46873e+09
6.80552e+09
1.05235e+10
7.615e+09
)
;
    }
    procBoundary7to5
    {
        type            processor;
        value           nonuniform List<scalar> 
44
(
9.96251e+09
6.14476e+09
8.72208e+09
5.85357e+09
5.29372e+09
7.37772e+09
6.178e+09
6.57469e+09
1.01937e+10
5.00635e+09
7.27617e+09
8.98002e+09
6.1285e+09
8.20293e+09
7.10742e+09
7.84239e+09
4.06303e+09
1.01937e+10
5.00635e+09
5.00635e+09
9.27519e+09
9.61457e+09
1.14287e+10
9.23496e+09
9.04234e+09
1.068e+10
7.76319e+09
5.1998e+09
1.14183e+10
9.27519e+09
9.61457e+09
9.61457e+09
1.04074e+10
8.84438e+09
7.23306e+09
8.48881e+09
6.67743e+09
7.40983e+09
7.08272e+09
7.47952e+09
7.2413e+09
1.04074e+10
8.84438e+09
8.84438e+09
)
;
    }
    procBoundary7to6
    {
        type            processor;
        value           nonuniform List<scalar> 
12
(
8.11696e+09
8.86671e+09
6.45804e+09
9.89226e+09
9.32141e+09
9.52429e+09
9.4601e+09
9.86999e+09
7.69179e+09
5.26317e+09
9.22796e+09
8.94839e+09
)
;
    }
}


// ************************************************************************* //
