/*--------------------------------*- C++ -*----------------------------------*\
| =========                 |                                                 |
| \\      /  F ield         | OpenFOAM: The Open Source CFD Toolbox           |
|  \\    /   O peration     | Version:  4.x                                   |
|   \\  /    A nd           | Web:      www.OpenFOAM.org                      |
|    \\/     M anipulation  |                                                 |
\*---------------------------------------------------------------------------*/
FoamFile
{
    version     2.0;
    format      ascii;
    class       volVectorField;
    location    "27";
    object      GField;
}
// * * * * * * * * * * * * * * * * * * * * * * * * * * * * * * * * * * * * * //

dimensions      [1 -2 -1 0 0 0 0];

internalField   nonuniform List<vector> 
108
(
(67.3823 -0.366571 0.286449)
(126.101 0.427385 -6.0803)
(73.7624 1.31282 -2.05602)
(134.068 1.7578 -1.36983)
(74.8154 1.69943 1.0324)
(137.156 1.17915 5.92321)
(58.5595 0.99191 1.91862)
(132.593 -2.63828 14.1777)
(19.4303 -1.51955 -1.45467)
(60.0866 -0.43598 -0.566069)
(117.831 -1.02616 -1.65711)
(60.4616 -0.861771 -0.633462)
(122.548 -1.10471 0.667388)
(57.2094 0.421317 0.413536)
(123.954 0.0800764 5.29429)
(43.6341 3.74797 0.629548)
(117.981 1.60071 11.6754)
(16.7317 6.89297 -8.75359)
(69.7912 1.39572 -0.160551)
(125.445 1.40534 -1.84448)
(70.4541 1.99301 0.385956)
(131.783 1.05448 -0.238257)
(67.8687 5.66746 2.86255)
(136.713 0.895139 6.11765)
(54.0234 13.1894 6.18797)
(140.795 -6.50879 11.2055)
(23.2324 29.9212 1.18367)
(90.9508 -0.772598 -0.439485)
(140.298 -0.712835 -1.00186)
(92.7089 -2.17099 0.378796)
(145.981 -2.00255 0.46938)
(90.4949 -1.07956 2.02159)
(157.36 -2.05031 3.55483)
(81.9103 3.6707 5.62656)
(179.292 -4.32523 8.97004)
(49.0485 21.9935 -47.4314)
(21.0518 0.191964 -4.02062)
(101.117 -0.458219 -1.31676)
(5.21958 0.150068 -1.05281)
(101.618 0.631038 0.798186)
(5.29062 0.556255 -1.62343)
(105.633 0.18462 9.26793)
(7.69596 1.85126 -3.44563)
(111.648 -6.53858 25.8133)
(16.7346 11.0654 -17.9954)
(20.756 -0.559999 -1.99759)
(99.9981 2.49867 -2.02339)
(14.9897 0.165776 -2.38185)
(101.774 -1.6565 0.562161)
(12.6834 0.651398 -2.81109)
(103.413 -0.813063 5.60062)
(11.2045 2.74664 -3.13529)
(101.732 -4.88392 16.0755)
(10.7332 7.32609 -9.98323)
(24.7802 0.696088 -2.21165)
(104.088 1.61631 -1.47967)
(22.8105 1.25958 -3.01662)
(108.826 -0.236824 0.949395)
(16.9847 2.47085 -3.29396)
(116.495 -3.82336 6.79823)
(18.2835 7.88979 -6.5353)
(127.712 -15.6145 22.2442)
(17.1225 47.2074 -29.6714)
(63.297 -0.881073 -3.29222)
(121.358 0.21863 -2.46087)
(63.5014 -1.72685 -3.81885)
(127.829 -0.777316 -1.99476)
(61.3007 -1.21824 -6.00515)
(140.973 -3.49202 0.615767)
(54.254 2.35096 -7.44494)
(172.541 -6.61688 10.7083)
(31.0807 29.0206 -60.2749)
(0.000224806 -1.89412e-05 -0.000165015)
(77.0587 -0.0292081 2.86298)
(0.000175129 -1.5867e-05 -9.12899e-05)
(79.9751 -0.105508 -0.477672)
(0.94921 -0.0111058 -0.63158)
(82.116 -0.999306 3.94724)
(5.04644 0.260872 -3.32979)
(79.1387 -3.97888 13.2975)
(27.9199 4.98215 -20.3634)
(11.5544 0.988221 -1.9836)
(90.8397 -1.27045 -0.0759829)
(4.33874 0.358826 -1.10129)
(91.6419 -0.0859525 1.18169)
(0.681901 0.101394 -0.261358)
(91.9914 -0.426531 7.63044)
(0.64465 0.154366 -0.317752)
(92.7557 -0.954776 17.5993)
(10.8294 2.49586 -5.59362)
(3.78263 0.286047 -0.441721)
(92.8411 2.34299 0.150219)
(0.00013675 2.72472e-05 -2.02204e-05)
(91.6125 0.142713 2.06382)
(0.000170535 -4.83665e-06 -3.03269e-05)
(89.4851 -2.104 4.08592)
(3.04028 1.70113 -1.09892)
(81.0563 -10.104 9.98749)
(20.4479 26.1512 -7.60693)
(44.8851 0.832081 -3.03275)
(108.636 0.251834 -1.68465)
(45.8486 1.85246 -4.19489)
(113.61 -0.391413 -1.0869)
(43.5842 3.54144 -7.14447)
(120.548 -1.14325 0.0523242)
(38.2864 10.0263 -12.7533)
(138.188 -7.60496 6.14212)
(19.4331 29.3506 -24.3032)
)
;

boundaryField
{
    inlet
    {
        type            calculated;
        value           nonuniform 0();
    }
    outlet
    {
        type            calculated;
        value           nonuniform List<vector> 
12
(
(40.4172 -3.16084 -3.02588)
(34.8411 14.3535 -18.228)
(48.398 62.3322 2.46584)
(99.8144 44.7571 -96.5236)
(35.9762 23.7886 -38.6867)
(23.0478 15.7316 -21.4374)
(36.7397 101.293 -63.666)
(66.2611 61.869 -128.5)
(60.8782 10.8634 -44.4017)
(23.6046 5.44014 -12.1922)
(44.4361 56.8303 -16.531)
(42.3931 64.0278 -53.0169)
)
;
    }
    wall
    {
        type            calculated;
        value           uniform (0 0 0);
    }
    procBoundary3to1
    {
        type            processor;
        value           nonuniform List<vector> 
27
(
(66.6157 -0.392065 -2.22744)
(121.356 0.457177 -2.16066)
(63.1747 1.61776 -1.11864)
(121.764 2.24817 0.849896)
(53.8733 -0.150916 -2.61733)
(120.684 1.99139 4.06673)
(38.1305 -6.23779 -6.22056)
(117.641 5.44328 12.2368)
(18.3223 -19.9529 -14.8273)
(6.9972 0.236098 -0.56712)
(95.9383 -2.49649 1.4538)
(3.06811 0.140165 -0.328106)
(96.3481 2.07784 2.94053)
(0.000106697 -6.16116e-05 -5.61858e-05)
(90.8987 2.97462 7.99699)
(0.000154866 -3.88539e-05 -8.60329e-05)
(76.3258 7.45447 15.8219)
(15.4728 -8.14733 -10.1323)
(0.387615 -0.059086 -0.107376)
(85.5391 -0.360794 -0.677997)
(0.17728 -0.0331122 -0.0675131)
(85.6717 1.96456 2.06659)
(0.000146947 -4.97668e-05 -3.69518e-05)
(84.3229 0.720259 5.24292)
(5.40993 -2.88626 -2.73235)
(79.8222 9.2737 12.956)
(29.6138 -21.2828 -8.23338)
)
;
    }
    procBoundary3to2
    {
        type            processor;
        value           nonuniform List<vector> 
12
(
(120.363 0.144731 -2.0768)
(115.047 -0.147619 -2.32151)
(120.752 1.18696 -2.1598)
(134.014 0.762459 -1.55268)
(97.9678 2.45795 -2.91893)
(97.1178 -0.350533 -1.5857)
(101.447 1.63075 -3.16416)
(116.991 1.35612 -3.84214)
(79.3823 -0.726653 -0.422825)
(90.1939 -0.544869 -1.10123)
(91.3521 -0.327056 -0.629141)
(105.367 1.19627 -2.0627)
)
;
    }
    procBoundary3to7
    {
        type            processor;
        value           nonuniform List<vector> 
36
(
(12.3668 1.13034 -1.70934)
(86.5897 1.07454 -1.44448)
(11.6138 1.57966 -3.2649)
(86.9433 0.501528 -0.0671353)
(3.96087 0.709252 -1.22525)
(87.7079 2.00391 3.25054)
(0.922787 0.223938 -0.288131)
(81.2515 -4.16578 9.18043)
(19.639 3.38249 -7.32493)
(8.21488 1.5146 -0.988456)
(86.3624 1.12924 0.843833)
(6.01271 1.77384 -0.865854)
(85.906 1.97337 1.51377)
(2.98877 1.23773 -0.503629)
(83.6356 0.379059 3.78972)
(11.2907 5.96985 -2.23979)
(77.8272 -6.53936 8.23074)
(33.7984 24.5606 -7.61157)
(17.6925 2.00411 -1.59691)
(95.445 1.28082 -0.704095)
(16.7979 3.22114 -2.05141)
(99.1145 1.00288 -0.0572577)
(16.9051 5.39271 -3.15499)
(102.457 -3.89808 2.06043)
(16.3922 8.80321 -4.64275)
(110.159 -16.4631 7.62165)
(16.5373 17.9484 -6.2157)
(48.9178 0.436263 -3.51566)
(108.645 0.0895764 -3.10609)
(47.5134 0.434023 -4.61928)
(112.373 -0.0406882 -2.62553)
(45.1462 0.714943 -6.65906)
(115.654 -1.17098 -0.417021)
(35.5927 0.497144 -10.3098)
(116.408 -3.78421 8.42152)
(14.1184 -1.40669 -7.72783)
)
;
    }
}


// ************************************************************************* //
