/*--------------------------------*- C++ -*----------------------------------*\
| =========                 |                                                 |
| \\      /  F ield         | OpenFOAM: The Open Source CFD Toolbox           |
|  \\    /   O peration     | Version:  4.x                                   |
|   \\  /    A nd           | Web:      www.OpenFOAM.org                      |
|    \\/     M anipulation  |                                                 |
\*---------------------------------------------------------------------------*/
FoamFile
{
    version     2.0;
    format      ascii;
    class       volVectorField;
    location    "27";
    object      U;
}
// * * * * * * * * * * * * * * * * * * * * * * * * * * * * * * * * * * * * * //

dimensions      [0 1 -1 0 0 0 0];

internalField   nonuniform List<vector> 
108
(
(0.0209424 -0.000113881 8.9078e-05)
(0.0390276 0.000132495 -0.00188098)
(0.0229669 0.000409047 -0.000639976)
(0.0414568 0.000543577 -0.000423806)
(0.0231709 0.000526201 0.000319594)
(0.0423996 0.000364374 0.00183099)
(0.018245 0.000308674 0.000597693)
(0.0413486 -0.00082278 0.00442134)
(0.00603198 -0.000472251 -0.000451587)
(0.0186775 -0.000135565 -0.000175947)
(0.0368829 -0.000321105 -0.000518644)
(0.0188198 -0.000267782 -0.000197273)
(0.0380702 -0.000343301 0.000207249)
(0.0177976 0.000131234 0.000128497)
(0.0384552 2.48853e-05 0.00164241)
(0.0136498 0.0011729 0.000196679)
(0.0369326 0.000501055 0.00365489)
(0.00520012 0.00214289 -0.00272058)
(0.0216798 0.000433498 -4.99048e-05)
(0.0390919 0.000437772 -0.000574673)
(0.0219865 0.000621466 0.000120286)
(0.0409216 0.000327217 -7.39397e-05)
(0.0211047 0.00176223 0.000890087)
(0.0424187 0.000277666 0.00189799)
(0.0168793 0.00412079 0.00193323)
(0.0440474 -0.00203629 0.00350552)
(0.00722384 0.0093032 0.000367867)
(0.0280058 -0.000237977 -0.000135429)
(0.0432422 -0.00021986 -0.000308723)
(0.0286654 -0.000671806 0.000117288)
(0.0454518 -0.000623706 0.000146148)
(0.0281455 -0.000335796 0.000628533)
(0.0488165 -0.000636149 0.00110262)
(0.0253764 0.00113711 0.00174274)
(0.05597 -0.00135024 0.00280009)
(0.0148975 0.00667969 -0.0144067)
(0.00667737 6.08656e-05 -0.00127484)
(0.0320621 -0.000145083 -0.000417356)
(0.00167062 4.80118e-05 -0.00033695)
(0.0324601 0.000201462 0.000255075)
(0.00168572 0.000177174 -0.000517245)
(0.0335986 5.86114e-05 0.00294797)
(0.00245812 0.000591221 -0.00110055)
(0.0357357 -0.00209294 0.00826244)
(0.00536927 0.00354979 -0.00577298)
(0.00657965 -0.000177477 -0.000633201)
(0.0317546 0.000793194 -0.00064248)
(0.00478317 5.31546e-05 -0.00076003)
(0.0324229 -0.000527339 0.000179117)
(0.00403543 0.000207377 -0.000894373)
(0.0329365 -0.000259014 0.00178388)
(0.00359814 0.000882149 -0.00100688)
(0.0326285 -0.0015666 0.00515579)
(0.00343987 0.00234854 -0.0031995)
(0.0078995 0.000221752 -0.000704944)
(0.0331058 0.000513946 -0.000470716)
(0.00726846 0.000401192 -0.000961222)
(0.0347086 -7.56382e-05 0.000302708)
(0.00540782 0.000786597 -0.00104865)
(0.0371427 -0.00121911 0.00216774)
(0.00584016 0.00251996 -0.0020873)
(0.0408865 -0.00499886 0.00712123)
(0.0054839 0.015118 -0.00950209)
(0.0199734 -0.000278134 -0.00103877)
(0.0381687 6.86283e-05 -0.000773911)
(0.0200662 -0.000545843 -0.00120627)
(0.0405012 -0.000246484 -0.000631721)
(0.0195186 -0.000388039 -0.00191184)
(0.044704 -0.00110745 0.000195547)
(0.0172553 0.000747446 -0.00236764)
(0.055031 -0.00211048 0.00341544)
(0.00988962 0.00923331 -0.0191783)
(7.25856e-08 -6.24265e-09 -5.3134e-08)
(0.0250266 -9.79157e-06 0.000929609)
(5.68191e-08 -5.1003e-09 -2.923e-08)
(0.0260325 -3.45096e-05 -0.000154957)
(0.00030752 -3.68448e-06 -0.000204514)
(0.0267203 -0.000325288 0.00128459)
(0.00165146 8.52848e-05 -0.00108957)
(0.0258151 -0.00129778 0.00433797)
(0.00908648 0.00162112 -0.00662638)
(0.00373315 0.000319129 -0.000640926)
(0.0292815 -0.000409495 -2.45129e-05)
(0.00140628 0.000116386 -0.00035692)
(0.0294854 -2.75911e-05 0.000380459)
(0.000219671 3.26434e-05 -8.41726e-05)
(0.029963 -0.00013885 0.00248544)
(0.000210597 5.03747e-05 -0.000103844)
(0.0303797 -0.000312989 0.00576419)
(0.00352294 0.000812304 -0.00181963)
(0.00121133 9.15403e-05 -0.000141476)
(0.0299508 0.000755489 4.84359e-05)
(4.42236e-08 8.75014e-09 -6.55111e-09)
(0.0294995 4.58365e-05 0.00066456)
(5.51657e-08 -1.55334e-09 -9.72861e-09)
(0.0291442 -0.000685249 0.00133072)
(0.000990229 0.000554012 -0.000358038)
(0.0264172 -0.00329298 0.00325472)
(0.00663283 0.00848334 -0.00246908)
(0.0143864 0.000266615 -0.00097201)
(0.0345586 8.01053e-05 -0.000535919)
(0.0146675 0.000592292 -0.00134198)
(0.0364377 -0.000125533 -0.000348603)
(0.0140274 0.00113978 -0.00229955)
(0.0390405 -0.000370342 1.68344e-05)
(0.0124085 0.00324931 -0.0041336)
(0.0449819 -0.00247552 0.00199902)
(0.00632784 0.00955672 -0.00791381)
)
;

boundaryField
{
    inlet
    {
        type            fixedValue;
        value           nonuniform 0();
    }
    outlet
    {
        type            zeroGradient;
    }
    wall
    {
        type            fixedValue;
        value           uniform (0 0 0);
    }
    procBoundary3to1
    {
        type            processor;
        value           nonuniform List<vector> 
27
(
(0.0204163 -0.00012003 -0.000682438)
(0.037424 0.000140921 -0.000665988)
(0.0195911 0.000501349 -0.00034666)
(0.0379095 0.000700181 0.000264699)
(0.0167229 -4.68883e-05 -0.000812557)
(0.0374534 0.000618046 0.00126199)
(0.0119001 -0.00194683 -0.00194165)
(0.03666 0.00169612 0.00381336)
(0.00567911 -0.00618463 -0.00459634)
(0.00220032 7.4159e-05 -0.00017818)
(0.0301879 -0.000785442 0.000457519)
(0.00096784 4.3979e-05 -0.000103241)
(0.0304544 0.000656301 0.000929693)
(3.38519e-08 -1.95887e-08 -1.74632e-08)
(0.0289646 0.000947748 0.00254833)
(4.96095e-08 -1.24938e-08 -2.74328e-08)
(0.0245381 0.00239633 0.00508654)
(0.00489067 -0.0025756 -0.00320315)
(0.000123914 -1.89337e-05 -3.43127e-05)
(0.0274504 -0.000115682 -0.000217283)
(5.64562e-05 -1.0669e-05 -2.1318e-05)
(0.0277926 0.000636702 0.000670731)
(4.76778e-08 -1.62795e-08 -1.17485e-08)
(0.0274822 0.000234874 0.00170889)
(0.0017617 -0.000939993 -0.000889798)
(0.0259541 0.00301537 0.00421263)
(0.00948312 -0.00681575 -0.00263688)
)
;
    }
    procBoundary3to2
    {
        type            processor;
        value           nonuniform List<vector> 
12
(
(0.0370365 4.44653e-05 -0.000639107)
(0.035419 -4.55641e-05 -0.000714642)
(0.0371803 0.000365522 -0.000665001)
(0.0408206 0.000232185 -0.000472953)
(0.0309787 0.000776986 -0.00092289)
(0.0304945 -0.000110037 -0.000498093)
(0.0318518 0.000512007 -0.000993533)
(0.0363595 0.000421409 -0.00119414)
(0.0254391 -0.000232777 -0.00013556)
(0.0287617 -0.000173992 -0.000351251)
(0.029247 -0.000104509 -0.000201441)
(0.0334591 0.000379851 -0.000655049)
)
;
    }
    procBoundary3to7
    {
        type            processor;
        value           nonuniform List<vector> 
36
(
(0.00404955 0.000370103 -0.000559884)
(0.0283902 0.000352354 -0.000473425)
(0.00379944 0.000516661 -0.00106762)
(0.0285677 0.000164701 -2.17291e-05)
(0.00131408 0.000235271 -0.000406342)
(0.0291796 0.00066662 0.00108139)
(0.000305452 7.40312e-05 -9.53465e-05)
(0.0267512 -0.00137158 0.00302262)
(0.00649817 0.00111921 -0.00242306)
(0.00267692 0.00049352 -0.000322103)
(0.0284015 0.000371335 0.00027735)
(0.00197143 0.000581469 -0.000283881)
(0.028166 0.000647034 0.000496285)
(0.000986959 0.000408658 -0.000166304)
(0.0275587 0.000124728 0.00124868)
(0.00373434 0.0019743 -0.00074086)
(0.0256744 -0.00215791 0.00271521)
(0.0111785 0.00812183 -0.00251737)
(0.00570337 0.000646031 -0.000514768)
(0.0311263 0.00041769 -0.000229543)
(0.00548007 0.00105072 -0.000669269)
(0.0323997 0.000327607 -1.86924e-05)
(0.00556029 0.00177353 -0.00103775)
(0.0338583 -0.00128838 0.00068065)
(0.00541872 0.00290988 -0.00153499)
(0.0363256 -0.00542909 0.0025131)
(0.00546093 0.00592439 -0.00205313)
(0.015764 0.000140553 -0.0011329)
(0.0352087 2.90815e-05 -0.00100657)
(0.0155091 0.000141604 -0.00150781)
(0.0365185 -1.32863e-05 -0.000853266)
(0.0147795 0.00023396 -0.00218008)
(0.0379659 -0.000384418 -0.00013694)
(0.0117233 0.000163643 -0.00339607)
(0.0381018 -0.0012383 0.00275654)
(0.00459119 -0.000456756 -0.00251323)
)
;
    }
}


// ************************************************************************* //
