/*--------------------------------*- C++ -*----------------------------------*\
  =========                 |
  \\      /  F ield         | OpenFOAM: The Open Source CFD Toolbox
   \\    /   O peration     | Website:  https://openfoam.org
    \\  /    A nd           | Version:  4.x
     \\/     M anipulation  |
\*---------------------------------------------------------------------------*/
FoamFile
{
    version     2.0;
    format      ascii;
    class       Cloud<passiveParticle>;
    location    0;
    object      positions;
}
// * * * * * * * * * * * * * * * * * * * * * * * * * * * * * * * * * * * * * //

407
(
( 0.25824 -0.00231476 0.00717604 ) 0
( 0.254439 0.0363061 0.00410806 ) 9
( 0.260089 0.075189 -0.011507 ) 27
( 0.259414 0.046957 0.0238868 ) 52
( 0.262351 0.0894541 0.0153937 ) 61
( 0.250824 0.0131561 -0.00387078 ) 0
( 0.309339 -0.00715657 0.0175701 ) 36
( 0.335582 -0.00728692 0.0174777 ) 37
( 0.467306 -0.00658998 -0.00275033 ) 7
( 0.38639 -0.0140851 0.0128373 ) 4
( 0.439594 -0.00882412 -0.00443434 ) 6
( 0.398314 -0.0065532 0.0265472 ) 39
( 0.420217 -0.0111171 -0.00555364 ) 6
( 0.400546 -0.0119296 -0.00720435 ) 5
( 0.409161 -0.00887067 0.0103919 ) 5
( 0.322355 -0.00644458 0.00309133 ) 2
( 0.471689 -0.0120892 0.0157442 ) 41
( 0.294146 0.00296565 0.0100841 ) 1
( 0.490171 -0.0125457 -0.0113106 ) 8
( 0.366714 -0.0128573 0.0135343 ) 4
( 0.485926 -0.000563815 0.00401278 ) 8
( 0.359098 -0.00344245 -0.00706224 ) 3
( 0.419356 -0.0111067 0.0273469 ) 40
( 0.307044 -0.0127539 -0.0074046 ) 2
( 0.42911 -0.00399169 0.0116659 ) 6
( 0.45285 -0.0100031 0.0102245 ) 7
( 0.379864 -0.012604 -0.00566213 ) 4
( 0.311933 0.0461115 0.0294672 ) 54
( 0.281458 0.0837402 0.0156821 ) 62
( 0.486895 0.0276303 0.0214407 ) 51
( 0.344091 0.0700623 -0.00228827 ) 21
( 0.459031 0.0599132 -0.00737243 ) 25
( 0.420826 0.0522434 0.021166 ) 58
( 0.380329 0.0560127 -0.00642097 ) 22
( 0.300439 0.0547211 -0.0119563 ) 19
( 0.352544 0.0132258 0.00118368 ) 3
( 0.30166 0.0187124 0.000361825 ) 10
( 0.392889 0.0669934 0.00379207 ) 23
( 0.284624 0.0216894 -0.0129007 ) 10
( 0.368304 0.0207327 0.0159966 ) 47
( 0.398547 0.0834884 0.0130693 ) 32
( 0.437388 0.0260651 0.00860073 ) 15
( 0.468764 0.0167069 0.0149702 ) 50
( 0.421743 0.0219813 -0.00305992 ) 15
( 0.376653 0.00382735 0.0107663 ) 4
( 0.415284 0.0573219 0.00318621 ) 23
( 0.296754 0.051908 0.0181927 ) 53
( 0.345412 0.0251037 -0.0132867 ) 12
( 0.330191 0.0278391 0.0186817 ) 45
( 0.299388 0.0886767 0.023005 ) 62
( 0.442367 0.0693961 -0.00407893 ) 24
( 0.326605 0.0329217 0.000280933 ) 11
( 0.360143 0.0718309 0.0093089 ) 30
( 0.36474 0.0549398 0.0291933 ) 56
( 0.431322 0.0392531 -0.00525881 ) 15
( 0.313937 0.0906434 -0.0108074 ) 29
( 0.336844 0.0470843 -0.00896501 ) 21
( 0.399293 0.0500017 -0.00558727 ) 23
( 0.315822 0.0491345 -0.00119261 ) 20
( 0.348923 0.0222168 0.0184817 ) 46
( 0.428145 0.0576459 -0.0119612 ) 24
( 0.287893 0.0477333 0.00126212 ) 19
( 0.387696 0.0447425 0.00946097 ) 22
( 0.31434 0.0599389 0.0155896 ) 54
( 0.49084 0.0630037 -0.00976427 ) 26
( 0.449207 0.0447088 0.000732156 ) 25
( 0.349105 0.0726536 0.025358 ) 64
( 0.447675 0.0904992 0.0181569 ) 68
( 0.471553 0.0906148 0.0117057 ) 34
( 0.312745 0.0183108 0.0164564 ) 45
( 0.274383 0.0389867 -0.0100302 ) 9
( 0.45263 0.0597689 0.0131196 ) 25
( 0.332457 0.0899627 -0.00445239 ) 29
( 0.411684 0.0902199 9.07901e-05 ) 32
( 0.483982 0.0451235 -0.0091508 ) 26
( 0.390436 0.0332789 -0.0112077 ) 14
( 0.329958 0.0421263 0.0360819 ) 45
( 0.375758 0.00468283 -0.0138076 ) 4
( 0.460378 0.00112684 0.0246377 ) 41
( 0.308163 0.0724526 -0.0131131 ) 29
( 0.287321 0.0670604 -0.0031406 ) 19
( 0.399077 0.0128939 0.0254534 ) 39
( 0.490455 0.0184111 0.00464173 ) 17
( 0.299367 0.0723231 0.0116666 ) 28
( 0.27499 0.00812564 0.00955671 ) 0
( 0.358851 0.0901355 0.00176072 ) 30
( 0.438434 0.0414752 0.0208029 ) 49
( 0.412154 0.0105796 0.0100329 ) 5
( 0.339122 0.055687 0.0252581 ) 55
( 0.319129 0.0903893 0.0102357 ) 29
( 0.468042 0.0470794 0.0145231 ) 59
( 0.473303 0.0128407 -0.00370814 ) 8
( 0.278784 0.0476778 0.0243477 ) 53
( 0.31896 0.0171191 -0.0091287 ) 11
( 0.402793 0.0256826 0.00196088 ) 14
( 0.357834 0.0901804 0.0215324 ) 64
( 0.406927 0.0692432 -0.00967388 ) 23
( 0.364747 0.0211651 -0.0121727 ) 13
( 0.380835 0.0775891 0.0369187 ) 65
( 0.413018 0.0263904 0.023473 ) 48
( 0.465187 0.0398287 -0.00895207 ) 16
( 0.485399 0.0783228 0.000794474 ) 35
( 0.426638 0.0122817 0.0228904 ) 40
( 0.43432 0.0554077 0.00726836 ) 24
( 0.490023 0.00824848 0.0214591 ) 42
( 0.369765 0.0349404 0.00213639 ) 13
( 0.433911 0.0765352 0.0152296 ) 67
( 0.326096 0.0749658 0.0202265 ) 63
( 0.477226 0.0325809 0.00449774 ) 17
( 0.381087 0.0189867 -0.00137547 ) 13
( 0.394953 0.00324723 0.00420479 ) 5
( 0.269841 0.0713522 0.00538431 ) 18
( 0.287168 0.0174238 0.0216779 ) 44
( 0.269316 0.0317179 0.0163359 ) 43
( 0.377448 0.0789546 0.0034341 ) 31
( 0.370045 0.0531459 0.0100378 ) 22
( 0.374329 0.0383864 0.0227584 ) 47
( 0.475918 0.0602652 0.0023226 ) 26
( 0.32189 0.0732738 0.000873598 ) 29
( 0.361317 0.0521716 -0.00991876 ) 22
( 0.333157 0.014669 0.00442536 ) 11
( 0.269163 0.049342 0.00669164 ) 18
( 0.306675 0.0363401 0.0108841 ) 11
( 0.291925 0.0835733 -0.013372 ) 28
( 0.403284 0.0435214 0.0215046 ) 57
( 0.438111 0.0894437 0.000732749 ) 33
( 0.346268 0.0351329 0.00379942 ) 12
( 0.486098 0.026147 -0.0129622 ) 17
( 0.409885 0.00562491 -0.00911678 ) 5
( 0.440293 0.0105813 -0.00325872 ) 6
( 0.405245 0.06412 0.0186062 ) 57
( 0.425309 0.0902839 -0.0141916 ) 33
( 0.267757 0.0226688 -0.00135363 ) 9
( 0.393898 0.0842009 -0.00648261 ) 32
( 0.490176 0.00702863 -0.0137169 ) 8
( 0.373339 0.0904882 -0.0118447 ) 31
( 0.489908 0.0679182 0.0172479 ) 60
( 0.416761 0.0381679 0.00797005 ) 15
( 0.353144 0.0106112 0.0336681 ) 37
( 0.276968 0.0902781 -0.00232503 ) 27
( 0.29877 0.035296 -0.00968626 ) 10
( 0.388271 0.0259066 0.0155164 ) 47
( 0.267391 0.0736861 0.0265835 ) 61
( 0.350856 0.0540548 0.00746231 ) 21
( 0.471386 0.0901136 -0.00789222 ) 34
( 0.467679 0.0719853 0.0153194 ) 68
( 0.455846 0.0318019 0.0143328 ) 50
( 0.283553 0.00262518 -0.00711909 ) 1
( 0.444542 0.00860681 0.0160458 ) 41
( 0.285516 0.0286761 0.00568228 ) 10
( 0.41878 0.0892108 0.0187379 ) 67
( 0.454752 0.0238941 -0.00363931 ) 16
( 0.423857 0.0748496 -0.00177807 ) 33
( 0.343133 0.0273998 0.0368721 ) 46
( 0.254136 0.0609855 0.0116377 ) 18
( 0.300288 0.0902705 0.00338112 ) 28
( 0.340748 0.0859527 0.012914 ) 30
( 0.302064 0.00509673 -0.0137634 ) 1
( 0.49047 0.0493348 0.00907893 ) 26
( 0.394207 0.0908508 0.0306145 ) 66
( 0.364642 0.071737 -0.00998257 ) 31
( 0.490577 0.0902276 0.0151644 ) 69
( 0.257671 -0.0048433 -0.0122643 ) 0
( 0.275488 -0.0115606 0.0105503 ) 0
( 0.307843 0.0725329 0.0311004 ) 63
( 0.353357 0.00102437 0.0166718 ) 37
( 0.339656 -0.00143088 -0.00479409 ) 3
( 0.338323 0.0902319 0.0320064 ) 64
( 0.456081 0.0816242 0.00298275 ) 34
( 0.317502 0.0273488 0.0333114 ) 45
( 0.490199 0.0482959 0.0288101 ) 60
( 0.328159 0.0092594 0.0246683 ) 36
( 0.458522 0.0477117 0.0321708 ) 59
( 0.283419 0.0385218 0.0410536 ) 44
( 0.436597 0.0666676 0.0444412 ) 90
( 0.331778 0.057576 0.00705098 ) 20
( 0.36323 -0.00488774 0.0411337 ) 38
( 0.2543 0.0363333 0.0525365 ) 75
( 0.472456 -0.00322957 0.0457943 ) 74
( 0.318217 0.0509973 0.0496187 ) 86
( 0.301938 0.0904664 0.0424155 ) 62
( 0.382496 0.0618848 0.047958 ) 88
( 0.354963 0.0843433 0.0536616 ) 96
( 0.490342 0.032704 0.0595718 ) 83
( 0.433873 -0.00719406 0.0483331 ) 72
( 0.430162 0.0897035 0.0516735 ) 99
( 0.364269 0.0559825 0.0525512 ) 88
( 0.352232 0.041147 0.0223056 ) 46
( 0.284907 0.0898891 0.0541465 ) 94
( 0.475753 0.023157 0.049786 ) 83
( 0.267712 0.0494577 0.045992 ) 84
( 0.393108 0.0140139 0.062477 ) 71
( 0.46859 0.0901705 0.0487684 ) 100
( 0.417417 -0.000687152 0.0572501 ) 72
( 0.443312 0.0273875 0.0509666 ) 81
( 0.364045 0.034254 0.0540247 ) 79
( 0.413989 0.0522872 0.0544561 ) 89
( 0.455149 0.0609631 0.0467736 ) 91
( 0.285772 0.0516478 0.0564401 ) 85
( 0.405745 0.0864687 0.0555705 ) 98
( 0.270242 0.025013 0.0533117 ) 75
( 0.254943 0.060425 0.0563109 ) 84
( 0.405239 0.0356525 0.0601829 ) 80
( 0.344414 0.0332104 0.0557885 ) 78
( 0.490525 0.090331 0.0544454 ) 101
( 0.398025 -0.004733 0.0586358 ) 71
( 0.419925 0.0707301 0.0690455 ) 90
( 0.382041 0.0400839 0.0598786 ) 79
( 0.286302 0.067674 0.0258995 ) 53
( 0.426476 0.0361902 0.055815 ) 81
( 0.375903 0.0808103 0.0556501 ) 97
( 0.376805 0.00344119 0.0596453 ) 70
( 0.377345 0.0887216 0.0208468 ) 65
( 0.312634 0.0302058 0.0604566 ) 77
( 0.333952 0.0765064 0.0610132 ) 96
( 0.268792 0.0728763 0.0633796 ) 93
( 0.474104 0.0646283 0.0479885 ) 92
( 0.34556 0.0612956 0.0650902 ) 87
( 0.461344 0.00238914 0.0606483 ) 73
( 0.450229 0.0905217 0.0563325 ) 100
( 0.443365 0.008306 0.055246 ) 72
( 0.311589 0.0697305 0.0522433 ) 86
( 0.389755 0.0556763 0.0304554 ) 57
( 0.490253 -0.00518529 0.0539743 ) 74
( 0.400813 0.0664908 0.053271 ) 89
( 0.474612 0.0441753 0.0619864 ) 92
( 0.418714 0.0730003 0.0490277 ) 99
( 0.455071 0.0717519 0.0304463 ) 68
( 0.436539 0.0549335 0.0609256 ) 90
( 0.379385 0.0252438 0.0464852 ) 79
( 0.490403 0.0663109 0.0370787 ) 60
( 0.469183 0.0309979 0.0300559 ) 50
( 0.308676 0.0875758 0.0605891 ) 95
( 0.438118 0.0746294 0.0621146 ) 99
( 0.303255 0.0200587 0.0441226 ) 76
( 0.260104 0.0901076 0.0351502 ) 61
( 0.29172 0.0216705 0.0738477 ) 106
( 0.265425 0.032481 0.0357416 ) 43
( 0.457877 0.0230843 0.0627182 ) 82
( 0.449442 0.0301388 0.032649 ) 50
( 0.337513 0.0548411 0.048742 ) 87
( 0.426883 0.016975 0.0494605 ) 81
( 0.292598 0.0734087 0.0438854 ) 94
( 0.395478 0.0473241 0.0476433 ) 89
( 0.341882 -0.0103269 0.0356756 ) 37
( 0.363528 0.0141738 0.0497956 ) 70
( 0.3669 0.0906257 0.0391021 ) 65
( 0.490505 0.0131842 0.0623166 ) 74
( 0.490588 0.0108879 0.0426452 ) 42
( 0.458406 0.0153343 0.0447758 ) 82
( 0.40775 0.0188106 0.0502797 ) 80
( 0.401119 0.0536862 0.0716613 ) 119
( 0.391637 0.0106211 0.0433587 ) 71
( 0.383104 -0.00621254 0.0389719 ) 38
( 0.425274 0.04699 0.0393361 ) 58
( 0.470644 0.0844508 0.030253 ) 68
( 0.438422 -0.0052621 0.0292714 ) 40
( 0.379397 0.0582609 0.0668662 ) 88
( 0.433576 0.0893906 0.0321198 ) 67
( 0.376528 0.0684829 0.0202516 ) 56
( 0.284553 0.0155001 0.0410236 ) 44
( 0.301803 0.0401284 0.047986 ) 76
( 0.376163 0.0443395 0.0415341 ) 56
( 0.345947 0.0901367 0.0703556 ) 96
( 0.362443 0.070609 0.0658359 ) 88
( 0.490104 0.089868 0.0348347 ) 69
( 0.362221 0.0713022 0.0401826 ) 56
( 0.490562 0.0513642 0.0527069 ) 92
( 0.273495 0.068427 0.0447408 ) 84
( 0.437986 0.0604588 0.0261025 ) 58
( 0.326709 0.0900891 0.0484982 ) 95
( 0.490278 0.0320032 0.0399942 ) 51
( 0.26497 0.0901398 0.0543931 ) 93
( 0.270174 0.0421732 0.0643283 ) 75
( 0.322996 0.0610526 0.0660694 ) 86
( 0.341136 0.0741885 0.0431195 ) 96
( 0.414585 0.0900329 0.0381742 ) 66
( 0.459974 0.0378685 0.050186 ) 82
( 0.452905 -0.00395844 0.0427932 ) 41
( 0.408862 0.0565628 0.0362304 ) 57
( 0.484195 -0.0078028 0.0308857 ) 42
( 0.440968 0.012831 0.0362341 ) 40
( 0.360044 0.0459374 0.0689257 ) 87
( 0.399751 0.0732982 0.0351493 ) 66
( 0.288333 0.0703169 0.0628574 ) 85
( 0.395913 0.0729413 0.0707174 ) 98
( 0.473775 0.0121541 0.0332954 ) 42
( 0.415345 0.00498632 0.0382553 ) 39
( 0.317957 0.0899494 0.0305999 ) 63
( 0.327935 0.0248849 0.0496049 ) 77
( 0.473916 0.0595457 0.0287845 ) 60
( 0.362968 0.0278677 0.0352591 ) 47
( 0.476438 0.0809428 0.063752 ) 101
( 0.475739 0.023532 0.0693734 ) 83
( 0.282757 0.0900846 0.0344349 ) 62
( 0.421413 0.0708707 0.0295719 ) 58
( 0.45294 0.0901962 0.0369332 ) 68
( 0.409425 0.035773 0.0403246 ) 48
( 0.325093 0.0642632 0.0366893 ) 54
( 0.424219 0.0900705 0.0705638 ) 99
( 0.458491 0.0735541 0.0614347 ) 100
( 0.429776 0.0288481 0.0336571 ) 49
( 0.296108 0.0552642 0.0374567 ) 53
( 0.425372 0.0121526 0.0702144 ) 72
( 0.292064 0.0892933 0.0725922 ) 124
( 0.304303 0.0546681 0.0630786 ) 85
( 0.40496 0.0901735 0.0749051 ) 128
( 0.355829 0.0267424 0.0703142 ) 78
( 0.365891 0.0901198 0.0710397 ) 97
( 0.37551 0.0224862 0.0657122 ) 79
( 0.390973 0.0338578 0.0333573 ) 48
( 0.268341 0.0169218 0.0712243 ) 75
( 0.489904 0.0542037 0.0722439 ) 122
( 0.47582 0.045167 0.0419774 ) 60
( 0.297936 0.0322457 0.0291931 ) 44
( 0.352645 0.0444821 0.0416242 ) 55
( 0.252381 0.0887529 0.0726051 ) 123
( 0.446365 0.0385768 0.0673593 ) 82
( 0.418979 0.0450175 0.0716275 ) 120
( 0.327249 0.0417098 0.0666041 ) 77
( 0.445406 -0.00452368 0.0699557 ) 73
( 0.416957 0.0605278 0.0857702 ) 120
( 0.458088 0.0542945 0.0650785 ) 91
( 0.289383 0.0272097 0.0558788 ) 76
( 0.374331 0.0108195 0.0334153 ) 38
( 0.339675 0.0737715 0.0797413 ) 126
( 0.317639 0.00537406 0.0407926 ) 36
( 0.490733 0.0297924 0.0793276 ) 113
( 0.305194 0.0725838 0.0729659 ) 124
( 0.306869 0.0318659 0.0821318 ) 107
( 0.250859 0.0264882 0.0720137 ) 105
( 0.27802 0.0575475 0.0742444 ) 115
( 0.39187 0.030115 0.0735595 ) 110
( 0.490565 -0.0142532 0.0714879 ) 104
( 0.434634 0.0529528 0.080411 ) 120
( 0.385811 0.0907744 0.0695637 ) 97
( 0.325112 0.0904191 0.0711036 ) 95
( 0.444531 0.0147218 0.073712 ) 112
( 0.463308 -0.00902771 0.0768433 ) 103
( 0.377608 0.0751885 0.0767977 ) 127
( 0.443372 0.0458917 0.0447459 ) 90
( 0.449375 0.0699735 0.0782548 ) 121
( 0.443494 0.0884931 0.074626 ) 129
( 0.490721 0.0705846 0.056103 ) 92
( 0.385437 0.0468261 0.0817268 ) 118
( 0.272273 0.0900797 0.0727779 ) 123
( 0.272857 0.0332665 0.0818115 ) 105
( 0.342555 0.046863 0.0777849 ) 117
( 0.358824 0.0768867 0.0842072 ) 126
( 0.490084 0.0104915 0.0896796 ) 104
( 0.467355 0.0381539 0.079198 ) 112
( 0.314181 0.0500991 0.0798135 ) 116
( 0.465264 0.0102385 0.0781248 ) 103
( 0.318485 0.018103 0.0742455 ) 107
( 0.370583 0.0340387 0.0808675 ) 109
( 0.258492 0.0618204 0.0757553 ) 114
( 0.400003 0.0716213 0.0898336 ) 128
( 0.287961 0.0725764 0.0826128 ) 124
( 0.462493 0.0905179 0.0720036 ) 130
( 0.490756 0.0754968 0.0751257 ) 131
( 0.417173 0.0803323 0.0873972 ) 129
( 0.4311 0.0301221 0.0766609 ) 111
( 0.392909 0.0900836 0.0903638 ) 128
( 0.366459 0.0590866 0.0814433 ) 118
( 0.338913 0.027697 0.0801858 ) 108
( 0.42982 -0.0108483 0.079655 ) 102
( 0.472922 0.0642301 0.0738424 ) 122
( 0.305342 0.0900623 0.0871945 ) 124
( 0.450936 0.0329242 0.0900737 ) 112
( 0.292613 0.0424984 0.0732144 ) 106
( 0.490284 0.0461837 0.0902478 ) 122
( 0.403227 0.0470045 0.0903089 ) 119
( 0.453628 0.0517097 0.0842603 ) 121
( 0.263113 0.089904 0.0902549 ) 123
( 0.41073 0.0281678 0.0774922 ) 110
( 0.264589 0.0498359 0.0902465 ) 114
( 0.320722 0.0715891 0.0849272 ) 125
( 0.4777 -0.00509061 0.0900998 ) 104
( 0.384628 0.0242732 0.0905906 ) 109
( 0.330609 0.0555829 0.0905513 ) 116
( 0.269726 0.0707813 0.0901037 ) 114
( 0.34606 0.0903105 0.0902455 ) 126
( 0.32442 0.0367917 0.0901932 ) 107
( 0.256315 0.0270831 0.0905695 ) 105
( 0.434024 0.070228 0.0903589 ) 120
( 0.465538 0.0725262 0.0901928 ) 130
( 0.356468 0.0173304 0.0901502 ) 108
( 0.434583 0.00548918 0.08848 ) 102
( 0.289735 0.0286226 0.091092 ) 106
( 0.475184 0.0236871 0.0902129 ) 113
( 0.490006 0.0900014 0.0900751 ) 131
( 0.282997 0.0900802 0.0902321 ) 124
( 0.382377 0.0637778 0.0911596 ) 118
( 0.451877 0.0131277 0.0912593 ) 103
( 0.303592 0.0629736 0.0902768 ) 115
( 0.486335 0.0658851 0.0906878 ) 122
( 0.422255 0.0419692 0.0905927 ) 111
( 0.284152 0.0474691 0.090247 ) 115
( 0.47185 0.0531025 0.0907639 ) 121
( 0.349571 0.0604861 0.0905037 ) 117
( 0.372915 0.09 0.0900752 ) 127
( 0.324784 0.0901532 0.090544 ) 125
( 0.456476 0.0902626 0.090471 ) 130
( 0.421901 0.0197887 0.0906931 ) 111
( 0.326672 0.0172111 0.0911855 ) 107
( 0.353968 0.0370759 0.0905034 ) 108
( 0.433358 0.0905404 0.0906395 ) 129
)
