/*--------------------------------*- C++ -*----------------------------------*\
| =========                 |                                                 |
| \\      /  F ield         | OpenFOAM: The Open Source CFD Toolbox           |
|  \\    /   O peration     | Version:  4.x                                   |
|   \\  /    A nd           | Web:      www.OpenFOAM.org                      |
|    \\/     M anipulation  |                                                 |
\*---------------------------------------------------------------------------*/
FoamFile
{
    version     2.0;
    format      ascii;
    class       volVectorField;
    location    "16.5";
    object      impParticleForces;
}
// * * * * * * * * * * * * * * * * * * * * * * * * * * * * * * * * * * * * * //

dimensions      [1 1 -2 0 0 0 0];

internalField   nonuniform List<vector> 
108
(
(0.00182032 3.79271e-05 5.12566e-06)
(0.00187936 5.08443e-05 3.05955e-05)
(0.00194437 5.69594e-05 4.72987e-05)
(0.00199763 5.5447e-05 5.47573e-05)
(0.00203354 5.28047e-05 5.24511e-05)
(0.00206471 4.96494e-05 4.13461e-05)
(0.00206181 4.91156e-05 1.74397e-05)
(0.00204772 4.99222e-05 -1.64696e-05)
(0.00198498 4.84259e-05 -4.39871e-05)
(0.00183543 3.53219e-05 -1.32835e-06)
(0.00190429 5.04751e-05 2.35335e-05)
(0.0019426 5.78552e-05 4.03108e-05)
(0.0019977 6.12303e-05 4.96328e-05)
(0.0020375 6.35018e-05 5.01188e-05)
(0.00208503 6.65845e-05 4.10469e-05)
(0.00206923 7.28506e-05 1.79077e-05)
(0.00205441 8.16105e-05 -1.66902e-05)
(0.00198923 8.63126e-05 -4.81301e-05)
(0.00184374 3.33658e-05 -6.6572e-06)
(0.00189896 4.78526e-05 1.66605e-05)
(0.00194465 5.74659e-05 3.39823e-05)
(0.00200733 6.49202e-05 4.48283e-05)
(0.00204614 7.19403e-05 4.73807e-05)
(0.00208981 8.09786e-05 4.10621e-05)
(0.00206893 9.36936e-05 1.80833e-05)
(0.00205764 0.000110173 -1.82637e-05)
(0.00199821 0.000127083 -5.29782e-05)
(0.0018045 3.06601e-05 -9.24673e-06)
(0.00185962 4.44557e-05 1.2241e-05)
(0.00192663 5.57192e-05 2.92883e-05)
(0.00199295 6.53169e-05 4.00127e-05)
(0.00203295 7.54942e-05 4.32879e-05)
(0.00207047 8.7592e-05 3.65986e-05)
(0.00205502 0.000106428 1.47655e-05)
(0.00203896 0.000129259 -2.76669e-05)
(0.00200776 0.0001687 -8.16572e-05)
(0.00180825 3.44497e-05 9.19699e-06)
(0.00189108 4.98532e-05 3.68541e-05)
(0.00194596 5.60793e-05 5.234e-05)
(0.00202612 5.62537e-05 6.02381e-05)
(0.00204953 5.28742e-05 5.5831e-05)
(0.00210135 5.05821e-05 4.55164e-05)
(0.00209267 5.07506e-05 2.12967e-05)
(0.00210466 5.62254e-05 -1.19186e-05)
(0.00202529 5.92012e-05 -5.62969e-05)
(0.00182848 3.41059e-05 1.46659e-06)
(0.0019041 4.9652e-05 2.74318e-05)
(0.00194273 5.75643e-05 4.35984e-05)
(0.00201788 6.17186e-05 5.30885e-05)
(0.00205005 6.34084e-05 5.16264e-05)
(0.00211971 6.70158e-05 4.45727e-05)
(0.00211262 7.43531e-05 2.01186e-05)
(0.00213566 8.71942e-05 -1.45473e-05)
(0.00204161 9.6982e-05 -5.94947e-05)
(0.00186049 3.42035e-05 -4.89465e-06)
(0.00191757 4.86379e-05 1.95776e-05)
(0.00195535 5.77178e-05 3.64539e-05)
(0.00204509 6.57786e-05 4.82218e-05)
(0.00207289 7.16916e-05 4.92351e-05)
(0.00214198 8.0902e-05 4.48989e-05)
(0.00212285 9.32285e-05 2.09411e-05)
(0.00213451 0.000113481 -1.50672e-05)
(0.00205306 0.00013917 -5.77931e-05)
(0.00182451 3.16153e-05 -8.31405e-06)
(0.00188355 4.50319e-05 1.34369e-05)
(0.00192996 5.54246e-05 2.99095e-05)
(0.00202352 6.50999e-05 4.13503e-05)
(0.00206679 7.51271e-05 4.44661e-05)
(0.00213985 8.57322e-05 4.046e-05)
(0.00210726 0.000104465 1.6663e-05)
(0.00213301 0.000129135 -1.979e-05)
(0.00204523 0.000176304 -8.30648e-05)
(0.00177094 2.65365e-05 1.2642e-05)
(0.00185597 4.12692e-05 4.05152e-05)
(0.00190026 4.71974e-05 5.35413e-05)
(0.00198852 4.9302e-05 6.04933e-05)
(0.00201566 4.66396e-05 5.53683e-05)
(0.0020847 4.54625e-05 4.57359e-05)
(0.00207713 4.36017e-05 2.58598e-05)
(0.00208323 4.4342e-05 -5.47411e-07)
(0.0020125 4.32783e-05 -2.96386e-05)
(0.00178811 2.92205e-05 5.50744e-06)
(0.00185562 4.29877e-05 3.0345e-05)
(0.00189383 5.10032e-05 4.42942e-05)
(0.00195878 5.48661e-05 5.07506e-05)
(0.00200013 5.71836e-05 4.8311e-05)
(0.00209017 6.19802e-05 4.11393e-05)
(0.00209132 6.72569e-05 1.97601e-05)
(0.00212694 7.79363e-05 -9.95355e-06)
(0.00203506 8.70937e-05 -4.49303e-05)
(0.00180723 3.01995e-05 -8.99532e-07)
(0.00187621 4.43777e-05 2.27177e-05)
(0.00190717 5.27311e-05 3.708e-05)
(0.00197806 5.93654e-05 4.55379e-05)
(0.00202111 6.52277e-05 4.49183e-05)
(0.00211042 7.37484e-05 3.91994e-05)
(0.0021146 8.4603e-05 1.90075e-05)
(0.00213582 0.00010187 -1.10503e-05)
(0.002043 0.000123359 -4.53253e-05)
(0.00179653 2.96352e-05 -4.93249e-06)
(0.00184386 4.16772e-05 1.59623e-05)
(0.00188611 5.12298e-05 3.05702e-05)
(0.00196335 5.95718e-05 3.99315e-05)
(0.00202255 6.84427e-05 4.13604e-05)
(0.00210087 7.8281e-05 3.68933e-05)
(0.00209509 9.37413e-05 1.62416e-05)
(0.00213284 0.00011503 -1.0764e-05)
(0.00204663 0.000146135 -5.25571e-05)
)
;

boundaryField
{
    inlet
    {
        type            zeroGradient;
    }
    outlet
    {
        type            zeroGradient;
    }
    wall
    {
        type            zeroGradient;
    }
    procBoundary3to1
    {
        type            processor;
        value           nonuniform List<vector> 
27
(
(0.0018037 3.59141e-05 1.16776e-05)
(0.00190567 5.32296e-05 3.87904e-05)
(0.00196195 5.23524e-05 5.42327e-05)
(0.00204875 4.65448e-05 6.27254e-05)
(0.00205659 3.54605e-05 5.80536e-05)
(0.00209338 2.51603e-05 4.72239e-05)
(0.00206993 1.2527e-05 2.35973e-05)
(0.00206385 7.97443e-07 -6.70146e-06)
(0.00198572 -1.22782e-05 -2.79069e-05)
(0.00179978 3.15266e-05 1.78157e-05)
(0.00190017 4.66093e-05 4.6254e-05)
(0.00195588 4.80355e-05 5.9752e-05)
(0.00204203 4.3464e-05 6.72839e-05)
(0.00206217 3.45671e-05 6.21702e-05)
(0.00211921 2.54141e-05 5.27535e-05)
(0.00210779 1.22993e-05 3.07013e-05)
(0.00210132 -2.29083e-07 2.00213e-06)
(0.00200166 -1.68345e-05 -2.72898e-05)
(0.00176313 2.14481e-05 1.9206e-05)
(0.00185701 3.53985e-05 4.80994e-05)
(0.0019092 3.84612e-05 6.07428e-05)
(0.00201713 3.75328e-05 6.97034e-05)
(0.0020411 3.04848e-05 6.38311e-05)
(0.00210769 2.21852e-05 5.40456e-05)
(0.00208971 1.00519e-05 3.65135e-05)
(0.00209169 -2.10343e-06 1.58947e-05)
(0.00200172 -1.7287e-05 -8.3227e-06)
)
;
    }
    procBoundary3to2
    {
        type            processor;
        value           nonuniform List<vector> 
12
(
(0.00176126 1.03091e-05 -2.88493e-05)
(0.00178755 1.16704e-05 -3.19202e-05)
(0.00181426 1.39225e-05 -3.43898e-05)
(0.00179262 1.45053e-05 -3.47224e-05)
(0.00177471 8.46833e-06 -2.72308e-05)
(0.00179307 1.11398e-05 -3.04551e-05)
(0.00182024 1.43353e-05 -3.33942e-05)
(0.00179067 1.50337e-05 -3.38333e-05)
(0.00174261 5.26036e-06 -2.24255e-05)
(0.00176411 9.58858e-06 -2.55705e-05)
(0.00179644 1.40254e-05 -2.85868e-05)
(0.0017797 1.50401e-05 -3.01436e-05)
)
;
    }
    procBoundary3to7
    {
        type            processor;
        value           nonuniform List<vector> 
36
(
(0.00174444 1.93636e-05 1.35384e-05)
(0.00181721 3.19229e-05 3.82426e-05)
(0.00185377 3.71667e-05 4.98245e-05)
(0.00194026 3.99091e-05 5.63559e-05)
(0.00199002 3.93725e-05 5.35633e-05)
(0.00205978 3.77216e-05 4.52527e-05)
(0.00203841 3.37336e-05 2.84579e-05)
(0.00204131 3.12789e-05 9.25167e-06)
(0.00198161 2.7786e-05 -1.092e-05)
(0.00175517 2.38059e-05 7.58279e-06)
(0.00183532 3.72738e-05 3.17519e-05)
(0.00185726 4.35156e-05 4.22307e-05)
(0.00193465 4.83089e-05 4.8403e-05)
(0.00197674 5.10386e-05 4.53733e-05)
(0.00205157 5.35137e-05 3.7689e-05)
(0.00204649 5.76768e-05 1.93655e-05)
(0.00206782 6.34779e-05 -1.98676e-06)
(0.00200099 7.24745e-05 -2.83539e-05)
(0.00176752 2.58114e-05 1.49266e-06)
(0.00183962 3.8612e-05 2.32089e-05)
(0.00186672 4.62025e-05 3.49079e-05)
(0.00194467 5.3158e-05 4.217e-05)
(0.00199178 5.88279e-05 4.03195e-05)
(0.00208014 6.56439e-05 3.45701e-05)
(0.00207651 7.56819e-05 1.59274e-05)
(0.0020906 8.83956e-05 -6.01393e-06)
(0.00201607 0.000112431 -3.78327e-05)
(0.00176551 2.64606e-05 -2.40413e-06)
(0.00181593 3.75058e-05 1.68947e-05)
(0.00185644 4.63869e-05 2.93057e-05)
(0.00191836 5.36511e-05 3.64817e-05)
(0.00198437 6.18159e-05 3.65088e-05)
(0.00205807 6.93027e-05 3.23372e-05)
(0.00206407 8.32111e-05 1.49402e-05)
(0.00209938 9.59614e-05 -7.66337e-07)
(0.0020056 0.000120828 -3.17609e-05)
)
;
    }
}


// ************************************************************************* //
