/*--------------------------------*- C++ -*----------------------------------*\
| =========                 |                                                 |
| \\      /  F ield         | OpenFOAM: The Open Source CFD Toolbox           |
|  \\    /   O peration     | Version:  4.x                                   |
|   \\  /    A nd           | Web:      www.OpenFOAM.org                      |
|    \\/     M anipulation  |                                                 |
\*---------------------------------------------------------------------------*/
FoamFile
{
    version     2.0;
    format      ascii;
    class       volScalarField;
    location    "16.5";
    object      nu;
}
// * * * * * * * * * * * * * * * * * * * * * * * * * * * * * * * * * * * * * //

dimensions      [0 2 -1 0 0 0 0];

internalField   nonuniform List<scalar> 
108
(
1.00018e-06
1.00026e-06
1.00037e-06
1.0005e-06
1.00061e-06
1.00065e-06
1.00058e-06
1.00046e-06
9.92985e-07
1.00017e-06
1.00026e-06
1.00038e-06
1.00052e-06
1.00065e-06
1.00072e-06
1.00071e-06
1.0006e-06
9.86228e-07
1.0002e-06
1.00024e-06
1.00033e-06
1.00045e-06
1.00059e-06
1.00072e-06
1.00076e-06
1.00062e-06
1.00008e-06
1.00009e-06
1.00013e-06
1.00018e-06
1.00025e-06
1.00035e-06
1.00045e-06
1.00057e-06
1.00067e-06
9.64237e-07
1.0004e-06
1.00051e-06
1.00057e-06
1.00058e-06
1.00051e-06
1.00039e-06
1.0002e-06
1.00004e-06
9.99684e-07
1.00036e-06
1.00048e-06
1.00057e-06
1.00061e-06
1.00058e-06
1.00051e-06
1.00035e-06
1.00021e-06
9.99385e-07
1.00031e-06
1.00043e-06
1.00054e-06
1.00062e-06
1.00065e-06
1.00064e-06
1.00054e-06
1.00044e-06
9.99656e-07
1.00012e-06
1.00019e-06
1.00027e-06
1.00036e-06
1.00046e-06
1.00055e-06
1.00062e-06
1.00068e-06
1.00114e-06
1.00034e-06
1.00038e-06
1.00036e-06
1.00032e-06
1.00022e-06
1.0001e-06
9.99972e-07
9.99843e-07
9.99542e-07
1.00029e-06
1.00036e-06
1.00038e-06
1.00036e-06
1.00026e-06
1.00018e-06
1.00003e-06
9.9995e-07
9.99466e-07
1.00028e-06
1.00037e-06
1.00041e-06
1.00042e-06
1.00034e-06
1.0003e-06
1.00017e-06
1.00016e-06
9.98743e-07
1.00015e-06
1.00022e-06
1.00029e-06
1.00038e-06
1.00046e-06
1.00056e-06
1.00061e-06
1.00068e-06
1.00093e-06
)
;

boundaryField
{
    inlet
    {
        type            calculated;
        value           nonuniform 0();
    }
    outlet
    {
        type            calculated;
        value           uniform 1e-06;
    }
    wall
    {
        type            calculated;
        value           nonuniform List<scalar> 
63
(
1.00018e-06
1.00017e-06
1.0002e-06
1.00009e-06
1.00026e-06
1.00026e-06
1.00024e-06
1.00013e-06
1.00037e-06
1.00038e-06
1.00033e-06
1.00018e-06
1.0005e-06
1.00052e-06
1.00045e-06
1.00025e-06
1.00061e-06
1.00065e-06
1.00059e-06
1.00035e-06
1.00065e-06
1.00072e-06
1.00072e-06
1.00045e-06
1.00058e-06
1.00071e-06
1.00076e-06
1.00057e-06
1.00046e-06
1.0006e-06
1.00062e-06
1.00067e-06
9.92985e-07
9.86228e-07
1.00008e-06
9.64237e-07
1.00009e-06
1.00012e-06
1.00015e-06
1.00013e-06
1.00019e-06
1.00022e-06
1.00018e-06
1.00027e-06
1.00029e-06
1.00025e-06
1.00036e-06
1.00038e-06
1.00035e-06
1.00046e-06
1.00046e-06
1.00045e-06
1.00055e-06
1.00056e-06
1.00057e-06
1.00062e-06
1.00061e-06
1.00067e-06
1.00068e-06
1.00068e-06
9.64237e-07
1.00114e-06
1.00093e-06
)
;
    }
    procBoundary3to1
    {
        type            processor;
        value           nonuniform List<scalar> 
27
(
1.00017e-06
1.00025e-06
1.00037e-06
1.0005e-06
1.00062e-06
1.00064e-06
1.0005e-06
1.00023e-06
9.99781e-07
1.00034e-06
1.00044e-06
1.00052e-06
1.0005e-06
1.00033e-06
1.00013e-06
9.99879e-07
9.99796e-07
9.99934e-07
1.00018e-06
1.00024e-06
1.00026e-06
1.00023e-06
1.0001e-06
9.99953e-07
9.99805e-07
9.99737e-07
9.99402e-07
)
;
    }
    procBoundary3to2
    {
        type            processor;
        value           nonuniform List<scalar> 
12
(
1.00011e-06
1.00009e-06
1.00019e-06
1.00005e-06
1.00027e-06
1.00023e-06
1.00019e-06
1.00007e-06
1.00028e-06
1.0002e-06
1.00019e-06
1.00007e-06
)
;
    }
    procBoundary3to7
    {
        type            processor;
        value           nonuniform List<scalar> 
36
(
1.00019e-06
1.00023e-06
1.00023e-06
1.0002e-06
1.00013e-06
1.00004e-06
9.99926e-07
9.99819e-07
9.99161e-07
1.00017e-06
1.00021e-06
1.00021e-06
1.00019e-06
1.00013e-06
1.00006e-06
9.99954e-07
9.99878e-07
9.99412e-07
1.00016e-06
1.0002e-06
1.00022e-06
1.00022e-06
1.00018e-06
1.00014e-06
1.00006e-06
1.00006e-06
9.99613e-07
1.00007e-06
1.00011e-06
1.00015e-06
1.00022e-06
1.00027e-06
1.00036e-06
1.00037e-06
1.00046e-06
1.00079e-06
)
;
    }
}


// ************************************************************************* //
