/*--------------------------------*- C++ -*----------------------------------*\
| =========                 |                                                 |
| \\      /  F ield         | OpenFOAM: The Open Source CFD Toolbox           |
|  \\    /   O peration     | Version:  4.x                                   |
|   \\  /    A nd           | Web:      www.OpenFOAM.org                      |
|    \\/     M anipulation  |                                                 |
\*---------------------------------------------------------------------------*/
FoamFile
{
    version     2.0;
    format      ascii;
    class       volScalarField;
    location    "16.5";
    object      thCond;
}
// * * * * * * * * * * * * * * * * * * * * * * * * * * * * * * * * * * * * * //

dimensions      [1 1 -3 -1 0 0 0];

internalField   nonuniform List<scalar> 
108
(
191.846
191.955
191.71
191.958
191.896
191.964
191.677
191.661
191.691
191.816
191.533
191.721
191.784
191.728
191.83
191.524
191.499
191.52
191.826
191.699
191.622
191.796
191.743
191.827
191.572
191.525
191.664
192.154
192.136
191.94
191.684
191.731
191.831
191.888
191.625
191.736
191.056
191.057
190.739
190.78
190.88
190.929
190.785
190.707
190.625
191.08
191.005
190.824
190.872
190.916
190.878
190.589
190.631
190.674
190.876
190.949
190.874
190.825
190.891
190.839
190.78
190.695
190.699
191.239
191.36
191.19
191.031
190.876
191.027
190.925
190.825
190.943
190.402
190.225
190.144
190.13
190.243
190.138
189.939
190.051
190.125
190.394
190.474
190.266
190.526
190.448
190.101
189.986
189.912
190.15
190.708
190.444
190.339
190.495
190.343
190.103
190.126
190.079
190.251
190.674
190.936
190.731
190.625
190.504
190.289
190.265
190.115
190.129
)
;

boundaryField
{
    inlet
    {
        type            zeroGradient;
    }
    outlet
    {
        type            zeroGradient;
    }
    wall
    {
        type            zeroGradient;
    }
    procBoundary3to1
    {
        type            processor;
        value           nonuniform List<scalar> 
27
(
192.319
192.08
191.849
191.703
191.812
191.819
191.613
191.669
191.863
191.299
191.318
191.22
191.153
191.106
190.864
190.652
190.55
191.155
190.681
190.643
190.649
190.243
190.2
190.081
190.116
190.159
190.688
)
;
    }
    procBoundary3to2
    {
        type            processor;
        value           nonuniform List<scalar> 
12
(
192.392
192.217
192.166
192.565
191.211
191.442
191.427
191.795
190.702
190.864
190.716
191.003
)
;
    }
    procBoundary3to7
    {
        type            processor;
        value           nonuniform List<scalar> 
36
(
189.931
189.888
189.947
189.806
189.457
189.391
189.501
189.735
189.558
190.093
189.783
189.874
189.877
189.642
189.707
189.586
189.668
189.58
190.467
190.065
190.049
189.976
189.767
189.609
189.597
189.679
189.645
190.477
190.279
190.029
190.173
189.921
189.827
189.714
189.925
190.185
)
;
    }
}


// ************************************************************************* //
