/*--------------------------------*- C++ -*----------------------------------*\
| =========                 |                                                 |
| \\      /  F ield         | OpenFOAM: The Open Source CFD Toolbox           |
|  \\    /   O peration     | Version:  4.x                                   |
|   \\  /    A nd           | Web:      www.OpenFOAM.org                      |
|    \\/     M anipulation  |                                                 |
\*---------------------------------------------------------------------------*/
FoamFile
{
    version     2.0;
    format      ascii;
    class       volVectorField;
    location    "16.5";
    object      Us;
}
// * * * * * * * * * * * * * * * * * * * * * * * * * * * * * * * * * * * * * //

dimensions      [0 1 -1 0 0 0 0];

internalField   nonuniform List<vector> 
108
(
(1.87192e-05 -9.08762e-06 -4.44933e-06)
(1.19162e-05 -1.00419e-05 -4.22179e-06)
(6.00522e-06 -4.92648e-06 -2.27428e-06)
(4.15681e-06 -3.59061e-06 -1.71099e-06)
(1.56993e-06 -2.41449e-06 -8.41329e-07)
(2.6489e-07 -1.8888e-06 -4.6309e-07)
(-8.11219e-07 -1.06461e-06 -2.39108e-07)
(-6.57409e-07 -4.06862e-07 -1.71535e-07)
(-6.33495e-07 -1.60016e-07 7.70802e-08)
(1.73198e-05 -4.34178e-06 -1.64079e-06)
(1.19411e-05 -3.99777e-06 -1.87444e-06)
(8.73407e-06 -3.53313e-06 -2.4628e-06)
(4.47291e-06 -3.20177e-06 -7.96612e-07)
(2.61184e-06 -1.79353e-06 -2.95299e-07)
(6.06152e-07 -1.26807e-06 -1.86615e-07)
(1.84305e-07 -8.53123e-07 3.00569e-07)
(-9.73189e-07 -5.47168e-07 1.472e-07)
(-8.89285e-07 -2.03965e-07 2.52123e-08)
(1.50339e-05 -2.83565e-06 -3.71716e-07)
(1.2578e-05 -2.47763e-06 -1.79167e-06)
(8.63883e-06 -1.78329e-06 -1.09265e-06)
(5.85604e-06 -1.72933e-06 -4.17192e-07)
(3.87168e-06 -1.41666e-06 -1.60375e-07)
(2.08934e-06 -8.58327e-07 -2.14362e-07)
(1.18642e-06 -1.21816e-06 7.1558e-08)
(-6.55757e-07 -1.30861e-06 -1.42992e-07)
(-1.49772e-07 -3.79399e-07 -9.37266e-08)
(9.01887e-06 -7.02809e-08 -9.19248e-07)
(1.06255e-05 -1.45541e-06 -2.00424e-06)
(7.1444e-06 -4.39189e-07 -3.42539e-07)
(4.35481e-06 -9.75809e-07 2.59028e-07)
(4.53641e-06 -1.18444e-06 -5.96578e-07)
(2.09005e-06 -7.49193e-07 -1.04459e-07)
(1.36849e-06 -3.08883e-07 -8.91861e-08)
(3.79633e-07 -4.17964e-07 -2.69608e-07)
(-9.06988e-08 3.16165e-06 -4.01941e-07)
(1.62731e-05 -6.31582e-06 -3.28315e-06)
(1.15127e-05 -3.6603e-06 -1.47307e-06)
(7.198e-06 -4.8647e-06 -2.15007e-06)
(4.29705e-06 -2.96706e-06 -1.47146e-06)
(2.40395e-06 -2.34489e-06 -7.48699e-07)
(9.1226e-07 -1.83372e-06 -5.12207e-07)
(1.27387e-07 -8.78118e-07 -2.87488e-07)
(-5.88694e-07 -6.08277e-07 -1.75745e-07)
(-5.35413e-07 -2.61429e-07 8.13757e-09)
(1.7322e-05 -3.4941e-06 -2.18962e-06)
(1.07157e-05 -2.67626e-06 -1.15373e-06)
(8.53053e-06 -3.28689e-06 -2.07948e-06)
(5.57014e-06 -2.56354e-06 -5.39727e-07)
(3.48107e-06 -2.07229e-06 -3.35664e-07)
(1.67697e-06 -1.54489e-06 -3.17127e-07)
(8.95052e-07 -6.89179e-07 -3.34569e-08)
(-3.03004e-07 -7.59997e-07 -1.86824e-07)
(-1.26877e-07 -2.28916e-07 -6.67781e-08)
(1.65715e-05 -2.97785e-06 -9.29257e-07)
(1.22165e-05 -1.72345e-06 -8.51206e-07)
(1.01529e-05 -1.81236e-06 -1.19529e-06)
(6.94378e-06 -1.70011e-06 -6.76742e-07)
(4.98735e-06 -1.34223e-06 -6.41462e-07)
(3.35646e-06 -1.06822e-06 -7.00278e-07)
(1.56173e-06 -5.82069e-07 -4.83307e-08)
(2.33075e-07 -7.65373e-07 -1.10593e-07)
(3.58612e-08 -2.92112e-07 -1.69366e-07)
(9.94638e-06 -5.43536e-07 -1.53628e-07)
(9.64787e-06 -8.33224e-07 -2.35993e-06)
(6.95485e-06 -9.75583e-07 -6.02904e-07)
(5.93935e-06 -1.06676e-06 -4.64664e-07)
(4.43178e-06 -3.57811e-07 -8.85588e-07)
(2.58519e-06 -2.62635e-07 -1.91391e-07)
(1.40441e-06 4.29858e-07 -1.7762e-08)
(3.70067e-07 -2.77237e-07 -2.03969e-07)
(1.54458e-07 -3.87439e-08 -2.28608e-07)
(1.46509e-05 -3.84224e-06 -2.90806e-06)
(1.07818e-05 -3.43327e-06 -2.92223e-06)
(8.99292e-06 -3.36332e-06 -1.7352e-06)
(4.95026e-06 -2.50037e-06 -1.70654e-06)
(3.22573e-06 -2.05704e-06 -1.73081e-06)
(1.80382e-06 -1.17006e-06 -7.9344e-07)
(9.39858e-07 -6.47673e-07 -4.47835e-07)
(-1.98964e-07 -3.44483e-07 -3.35962e-07)
(-3.27879e-07 -2.20029e-07 -2.37166e-07)
(1.68491e-05 -2.59503e-06 -2.15221e-06)
(1.17214e-05 -2.64213e-06 -1.75387e-06)
(9.34996e-06 -1.73866e-06 -1.73253e-06)
(5.71309e-06 -2.07621e-06 -1.18635e-06)
(5.21224e-06 -1.92938e-06 -9.71185e-07)
(2.4889e-06 -1.1515e-06 -9.11204e-07)
(1.63531e-06 -9.14036e-07 -5.52281e-07)
(4.29058e-07 -5.29512e-07 -3.00943e-07)
(-1.34527e-07 -2.12966e-07 -2.82889e-07)
(1.57544e-05 -1.96845e-06 -1.7933e-06)
(1.31202e-05 -1.47852e-06 -1.45762e-06)
(9.75396e-06 -1.64159e-06 -1.51127e-06)
(6.90307e-06 -1.41323e-06 -9.23586e-07)
(5.5583e-06 -1.42257e-06 -9.30819e-07)
(3.55858e-06 -1.2725e-06 -8.69748e-07)
(2.30645e-06 -8.6191e-07 -4.98275e-07)
(8.90999e-07 -4.33672e-07 -3.2628e-07)
(3.5171e-07 -1.71849e-07 -1.35058e-07)
(1.15575e-05 -9.96585e-07 -6.82709e-07)
(8.45327e-06 5.9977e-07 -3.7193e-07)
(8.21996e-06 -8.33104e-07 -9.81846e-07)
(5.61184e-06 -5.91776e-07 -3.39228e-07)
(5.18809e-06 -4.74722e-07 -1.02744e-06)
(3.05133e-06 -3.91146e-07 -4.79094e-07)
(1.75032e-06 -6.81808e-08 -3.2433e-07)
(8.5027e-07 2.80694e-08 -3.52315e-07)
(3.96465e-07 -1.01311e-07 -2.18479e-07)
)
;

boundaryField
{
    inlet
    {
        type            zeroGradient;
    }
    outlet
    {
        type            zeroGradient;
    }
    wall
    {
        type            zeroGradient;
    }
    procBoundary3to1
    {
        type            processor;
        value           nonuniform List<vector> 
27
(
(1.07947e-05 -4.86002e-06 -7.03352e-06)
(6.49767e-06 -6.91383e-06 -6.54856e-06)
(2.60344e-06 -4.78188e-06 -3.14254e-06)
(7.14037e-07 -3.14377e-06 -2.13267e-06)
(-3.06649e-07 -1.84201e-06 -1.75917e-06)
(-1.09204e-06 -1.14317e-06 -8.64299e-07)
(-1.50396e-06 -8.17563e-07 -4.44602e-08)
(-1.57384e-06 -2.39112e-07 -7.84814e-08)
(-9.87937e-07 -1.2184e-07 2.37722e-08)
(1.90403e-05 -3.34457e-06 -6.46245e-06)
(8.32822e-06 -6.32198e-06 -5.91166e-06)
(5.58724e-06 -4.79973e-06 -3.72599e-06)
(2.23204e-06 -3.01543e-06 -2.32169e-06)
(2.19683e-07 -1.67566e-06 -1.59514e-06)
(-1.55046e-07 -1.16053e-06 -1.09932e-06)
(-4.79409e-07 -6.9412e-07 -2.76799e-07)
(-9.074e-07 -5.13832e-07 -4.20596e-07)
(-6.57083e-07 -1.2676e-07 -4.41918e-08)
(2.20729e-05 -1.91373e-06 -5.09805e-06)
(1.02705e-05 -2.46907e-06 -4.58012e-06)
(8.39999e-06 -2.53459e-06 -4.73882e-06)
(5.36985e-06 -1.99672e-06 -2.3305e-06)
(2.71318e-06 -1.76834e-06 -2.03524e-06)
(1.33693e-06 -1.06899e-06 -1.15586e-06)
(1.6555e-07 -4.75163e-07 -4.61726e-07)
(-2.8723e-07 -3.29804e-07 -5.63851e-07)
(-6.23612e-07 -1.4441e-07 -2.28e-07)
)
;
    }
    procBoundary3to2
    {
        type            processor;
        value           nonuniform List<vector> 
12
(
(2.60011e-05 -6.02256e-06 -3.51512e-06)
(2.23219e-05 -2.24296e-06 -2.47734e-06)
(1.92268e-05 -1.37676e-06 -1.07407e-06)
(1.34945e-05 -2.16032e-06 2.21198e-07)
(2.50186e-05 -4.37025e-06 -3.71894e-06)
(2.16688e-05 -1.47822e-06 -2.0204e-06)
(1.94729e-05 -5.87115e-07 -1.32964e-06)
(9.34876e-06 -4.6754e-07 -2.35353e-07)
(2.0782e-05 -2.19717e-06 -2.2989e-06)
(2.01161e-05 -8.34468e-07 -1.01458e-06)
(1.70562e-05 -9.73381e-07 -6.35438e-07)
(1.2983e-05 9.26771e-07 -3.21714e-07)
)
;
    }
    procBoundary3to7
    {
        type            processor;
        value           nonuniform List<vector> 
36
(
(1.43736e-05 -2.45656e-06 -3.33504e-06)
(1.10644e-05 -2.52193e-06 -2.43449e-06)
(8.69538e-06 -2.27009e-06 -2.67373e-06)
(5.40193e-06 -1.55204e-06 -1.86795e-06)
(4.53188e-06 -1.29397e-06 -2.11245e-06)
(2.51937e-06 -8.77034e-07 -1.05771e-06)
(1.10087e-06 -5.37841e-07 -6.22191e-07)
(1.8474e-07 -2.53208e-07 -5.17133e-07)
(-1.29439e-07 -1.0706e-07 -3.12454e-07)
(1.45028e-05 -1.05498e-06 -1.44788e-06)
(1.11734e-05 -2.37472e-06 -1.67286e-06)
(9.26412e-06 -1.79759e-06 -1.78079e-06)
(5.70775e-06 -1.79451e-06 -1.48496e-06)
(4.82663e-06 -1.33534e-06 -1.25848e-06)
(3.12441e-06 -9.41745e-07 -7.88767e-07)
(2.42149e-06 -6.51572e-07 -7.88743e-07)
(9.57108e-07 -5.21841e-07 -2.9613e-07)
(3.37244e-07 -1.82542e-07 -3.35254e-07)
(1.48967e-05 -1.32846e-06 -1.74462e-06)
(1.15769e-05 -1.09177e-06 -1.59763e-06)
(9.56321e-06 -1.02044e-06 -1.09586e-06)
(7.17177e-06 -1.59478e-06 -1.30903e-06)
(5.83684e-06 -1.12398e-06 -7.58048e-07)
(3.9859e-06 -8.42464e-07 -9.25515e-07)
(3.04337e-06 -7.37751e-07 -8.58006e-07)
(1.67281e-06 -3.25642e-07 -6.54895e-07)
(5.49519e-07 -2.62402e-07 -1.07546e-07)
(1.0356e-05 -4.44588e-08 -1.21702e-06)
(9.16107e-06 -6.02593e-07 1.793e-07)
(7.0637e-06 5.18228e-07 -4.69237e-07)
(5.79583e-06 -2.53674e-07 -2.82061e-07)
(4.73609e-06 -1.87685e-07 -2.53364e-07)
(3.62562e-06 -3.27376e-07 -1.09957e-06)
(2.06685e-06 8.60527e-08 -5.34311e-07)
(1.06386e-06 8.53217e-08 -4.8775e-07)
(1.18846e-07 6.96132e-08 -2.57075e-07)
)
;
    }
}


// ************************************************************************* //
