/*--------------------------------*- C++ -*----------------------------------*\
| =========                 |                                                 |
| \\      /  F ield         | OpenFOAM: The Open Source CFD Toolbox           |
|  \\    /   O peration     | Version:  4.x                                   |
|   \\  /    A nd           | Web:      www.OpenFOAM.org                      |
|    \\/     M anipulation  |                                                 |
\*---------------------------------------------------------------------------*/
FoamFile
{
    version     2.0;
    format      ascii;
    class       volScalarField;
    location    "20";
    object      KslPrev;
}
// * * * * * * * * * * * * * * * * * * * * * * * * * * * * * * * * * * * * * //

dimensions      [1 -3 -1 0 0 0 0];

internalField   nonuniform List<scalar> 
108
(
3450.16
7562.48
3469.48
7382.04
3468.08
7259.29
3427.72
7307.12
3347.67
3549.04
9412.03
3767.57
12628.5
3862.77
16872.4
3879.36
24867.7
3864.4
3587.24
10187
3870.36
14952.9
3959.07
22246.4
3969.21
45832.3
3957.33
3571.78
10107.1
3891.66
15031
3997.83
25872
4037.82
67641.9
3989.29
3437.56
7254.98
3405.71
6846.54
3378.96
6425.32
3276.79
6241.24
3186.39
3519.12
8526.34
3637.38
9832.68
3701.77
11662.9
3719.95
14829.3
3714.07
3547.78
9180.41
3769.38
11873
3839.83
15157.7
3793.39
18495
3706.76
3578.08
9740.66
3829.27
13747.7
3943.34
20507.9
3954.98
33821.7
3897.53
3382.75
6611.77
3223.51
5728.91
3151.55
5351.43
3076.6
5074.61
2953.77
3436.33
7324.36
3424.09
6782.04
3358.76
6424.1
3274.84
6170.29
3179.75
3492.4
7765.38
3523.86
7707
3492.1
7548.1
3396.84
7294.13
3299.55
3532.89
8191.5
3600.88
8910.83
3611.62
9236.67
3531.2
8958.92
3459.43
)
;

boundaryField
{
    inlet
    {
        type            zeroGradient;
    }
    outlet
    {
        type            zeroGradient;
    }
    wall
    {
        type            zeroGradient;
    }
    procBoundary4to0
    {
        type            processor;
        value           uniform 0;
    }
    procBoundary4to5
    {
        type            processor;
        value           uniform 0;
    }
    procBoundary4to6
    {
        type            processor;
        value           uniform 0;
    }
}


// ************************************************************************* //
