/*--------------------------------*- C++ -*----------------------------------*\
| =========                 |                                                 |
| \\      /  F ield         | OpenFOAM: The Open Source CFD Toolbox           |
|  \\    /   O peration     | Version:  4.x                                   |
|   \\  /    A nd           | Web:      www.OpenFOAM.org                      |
|    \\/     M anipulation  |                                                 |
\*---------------------------------------------------------------------------*/
FoamFile
{
    version     2.0;
    format      ascii;
    class       volScalarField;
    location    "20";
    object      p;
}
// * * * * * * * * * * * * * * * * * * * * * * * * * * * * * * * * * * * * * //

dimensions      [1 -1 -2 0 0 0 0];

internalField   nonuniform List<scalar> 
108
(
-1768.02
-1785.05
-1775.35
-1802.14
-1782.91
-1819.56
-1790.51
-1837.32
-1798.02
-1767.3
-1784.68
-1774.68
-1801.86
-1782.4
-1819.42
-1790.1
-1837.09
-1797.65
-1766.85
-1784.42
-1774.44
-1801.65
-1782.27
-1819.13
-1790.01
-1836.62
-1797.75
-1766.49
-1784.06
-1774.13
-1801.29
-1781.95
-1818.74
-1789.84
-1836.32
-1797.61
-3645.95
-3662.91
-3653.33
-3679.95
-3661.03
-3697.49
-3668.63
-3715.14
-3676.21
-3645.29
-3662.57
-3652.75
-3679.67
-3660.46
-3697.17
-3668.15
-3714.86
-3675.88
-3644.99
-3662.31
-3652.53
-3679.58
-3660.43
-3697.2
-3668.27
-3714.89
-3675.91
-3644.52
-3662.1
-3652.12
-3679.2
-3660.05
-3696.75
-3667.94
-3714.36
-3675.62
-5523.97
-5540.9
-5531.39
-5557.76
-5538.95
-5575.2
-5546.65
-5592.96
-5554.24
-5523.41
-5540.59
-5530.96
-5557.62
-5538.63
-5575.09
-5546.37
-5592.72
-5553.95
-5523.11
-5540.42
-5530.73
-5557.59
-5538.55
-5575.07
-5546.33
-5592.69
-5553.9
-5522.7
-5540.24
-5530.31
-5557.27
-5538.22
-5574.86
-5546.16
-5592.3
-5553.73
)
;

boundaryField
{
    inlet
    {
        type            calculated;
        value           nonuniform List<scalar> 
12
(
-1768.02
-1767.3
-1766.85
-1766.49
-3645.95
-3645.29
-3644.99
-3644.52
-5523.97
-5523.41
-5523.11
-5522.7
)
;
    }
    outlet
    {
        type            calculated;
        value           nonuniform 0();
    }
    wall
    {
        type            calculated;
        value           nonuniform List<scalar> 
63
(
-6462.93
-6462.36
-6462.06
-6461.66
-6479.86
-6479.55
-6479.38
-6479.2
-6470.34
-6469.92
-6469.69
-6469.27
-6496.72
-6496.58
-6496.55
-6496.22
-6477.91
-6477.58
-6477.5
-6477.18
-6514.16
-6514.04
-6514.02
-6513.82
-6485.6
-6485.33
-6485.28
-6485.11
-6531.91
-6531.67
-6531.64
-6531.24
-6493.18
-6492.9
-6492.84
-6492.67
-1768.02
-3645.95
-5523.97
-1785.05
-3662.91
-5540.9
-1775.35
-3653.33
-5531.39
-1802.14
-3679.95
-5557.76
-1782.91
-3661.03
-5538.95
-1819.56
-3697.49
-5575.2
-1790.51
-3668.63
-5546.65
-1837.32
-3715.14
-5592.96
-1798.02
-3676.21
-5554.24
)
;
    }
    procBoundary4to0
    {
        type            processor;
        value           nonuniform List<scalar> 
36
(
109.157
92.3286
101.947
75.3529
94.5674
57.8627
86.93
39.943
79.5323
109.883
92.7238
102.554
75.5589
95.0306
58.047
87.3624
39.9822
79.7961
110.204
92.9644
102.787
75.7597
95.1437
58.1987
87.3697
40.4202
79.9458
110.7
93.3234
103.241
75.978
95.4212
58.5169
87.5829
40.7746
80.1287
)
;
    }
    procBoundary4to5
    {
        type            processor;
        value           nonuniform List<scalar> 
12
(
-1855.44
-1855.05
-1853.99
-1853.51
-3733.44
-3732.95
-3732.8
-3731.63
-5611.03
-5610.64
-5610.38
-5609.71
)
;
    }
    procBoundary4to6
    {
        type            processor;
        value           nonuniform List<scalar> 
27
(
-1766.57
-1784.43
-1774.17
-1801.43
-1782.07
-1818.96
-1790.03
-1836.33
-1797.98
-3644.87
-3662.42
-3652.47
-3679.52
-3660.37
-3696.88
-3668.16
-3714.45
-3675.7
-5523.04
-5540.39
-5530.55
-5557.41
-5538.36
-5574.78
-5546.14
-5592.42
-5553.72
)
;
    }
}


// ************************************************************************* //
