/*--------------------------------*- C++ -*----------------------------------*\
| =========                 |                                                 |
| \\      /  F ield         | OpenFOAM: The Open Source CFD Toolbox           |
|  \\    /   O peration     | Version:  4.x                                   |
|   \\  /    A nd           | Web:      www.OpenFOAM.org                      |
|    \\/     M anipulation  |                                                 |
\*---------------------------------------------------------------------------*/
FoamFile
{
    version     2.0;
    format      ascii;
    class       volScalarField;
    location    "20";
    object      pSmooth;
}
// * * * * * * * * * * * * * * * * * * * * * * * * * * * * * * * * * * * * * //

dimensions      [1 -1 -2 0 0 0 0];

internalField   nonuniform List<scalar> 
108
(
110.677
93.7867
103.327
76.6898
95.6762
59.2354
87.9825
41.404
80.3125
111.363
94.1328
103.984
76.9691
96.1714
59.3681
88.3573
41.6046
80.6465
111.723
94.341
104.2
77.1569
96.2796
59.6304
88.4325
42.012
80.5513
111.957
94.658
104.474
77.4957
96.5972
60.015
88.5934
42.2882
80.6954
110.595
93.7874
103.234
76.7768
95.4866
59.222
87.795
41.4856
80.057
111.241
94.123
103.829
77.0593
96.06
59.5248
88.2547
41.7199
80.2987
111.508
94.3466
103.994
77.128
96.064
59.492
88.1039
41.6685
80.2338
111.986
94.5631
104.404
77.5137
96.4196
59.9463
88.3945
42.1872
80.4768
110.462
93.6841
103.081
76.8778
95.4764
59.422
87.6913
41.5571
79.9519
111.018
93.9913
103.5
77.0137
95.7995
59.5406
87.9474
41.807
80.2029
111.307
94.1528
103.716
77.034
95.8744
59.549
87.9701
41.7982
80.2248
111.751
94.3526
104.156
77.3727
96.1944
59.7617
88.1149
42.1935
80.3304
)
;

boundaryField
{
    inlet
    {
        type            zeroGradient;
    }
    outlet
    {
        type            fixedValue;
        value           nonuniform 0();
    }
    wall
    {
        type            zeroGradient;
    }
    procBoundary4to0
    {
        type            processor;
        value           nonuniform List<scalar> 
36
(
110.081
93.3647
102.779
76.279
95.2122
58.7058
87.4934
40.7734
79.9555
110.756
93.7243
103.371
76.4846
95.6844
58.9118
87.9481
40.8539
80.2668
110.975
93.8851
103.55
76.6514
95.7807
59.0274
87.9246
41.1881
80.3709
111.385
94.1865
103.955
76.8748
96.0578
59.3903
88.1372
41.6016
80.5768
)
;
    }
    procBoundary4to5
    {
        type            processor;
        value           nonuniform List<scalar> 
12
(
23.067
23.4039
24.3615
24.8413
22.9906
23.3583
23.4844
24.6095
23.3082
23.6692
23.8646
24.5005
)
;
    }
    procBoundary4to6
    {
        type            processor;
        value           nonuniform List<scalar> 
27
(
112.051
94.3132
104.438
77.3508
96.485
59.7841
88.3713
42.2154
80.2271
111.781
94.2761
104.065
77.1861
96.116
59.8038
88.1989
42.0909
80.4231
111.452
94.2191
103.926
77.2228
96.0572
59.8323
88.1386
42.0625
80.372
)
;
    }
}


// ************************************************************************* //
