/*--------------------------------*- C++ -*----------------------------------*\
| =========                 |                                                 |
| \\      /  F ield         | OpenFOAM: The Open Source CFD Toolbox           |
|  \\    /   O peration     | Version:  4.x                                   |
|   \\  /    A nd           | Web:      www.OpenFOAM.org                      |
|    \\/     M anipulation  |                                                 |
\*---------------------------------------------------------------------------*/
FoamFile
{
    version     2.0;
    format      ascii;
    class       volScalarField;
    location    "20";
    object      QPartFluidCoeff;
}
// * * * * * * * * * * * * * * * * * * * * * * * * * * * * * * * * * * * * * //

dimensions      [1 -1 -3 -1 0 0 0];

internalField   nonuniform List<scalar> 
108
(
-1.63238e+07
-2.37899e+07
-2.79292e+07
-1.99361e+07
-2.36579e+07
-1.99018e+07
-2.94831e+07
-2.27591e+07
-3.17697e+07
-2.33337e+07
-2.43836e+07
-3.11242e+07
-3.34264e+07
-3.35755e+07
-2.84509e+07
-2.67688e+07
-1.89386e+07
-3.68155e+07
-2.22115e+07
-3.43924e+07
-2.76558e+07
-3.15195e+07
-2.7035e+07
-2.12217e+07
-2.42687e+07
-3.46647e+07
-2.22641e+07
-1.15304e+07
-2.25268e+07
-3.12713e+07
-1.92256e+07
-2.93935e+07
-2.26402e+07
-3.66828e+07
-2.01996e+07
-2.34371e+07
-1.67902e+07
-1.83776e+07
-2.67287e+07
-2.78426e+07
-2.83079e+07
-1.84204e+07
-1.8523e+07
-2.54155e+07
-3.18338e+07
-2.07127e+07
-2.53958e+07
-2.50256e+07
-2.52418e+07
-2.55794e+07
-2.25019e+07
-2.8034e+07
-3.04716e+07
-3.4576e+07
-1.38984e+07
-2.45194e+07
-3.32304e+07
-2.77209e+07
-3.2002e+07
-2.7529e+07
-2.70449e+07
-2.40939e+07
-2.84711e+07
-2.06079e+07
-2.86413e+07
-2.49894e+07
-3.21926e+07
-3.47625e+07
-2.52683e+07
-3.89526e+07
-2.79946e+07
-2.669e+07
-1.50937e+07
-2.11456e+07
-1.47659e+07
-2.02603e+07
-2.10595e+07
-2.67669e+07
-2.65441e+07
-2.17219e+07
-2.71196e+07
-1.61816e+07
-3.01394e+07
-2.36155e+07
-1.95605e+07
-2.47231e+07
-2.56679e+07
-2.44013e+07
-2.06968e+07
-2.83586e+07
-1.73515e+07
-2.50263e+07
-2.80546e+07
-2.39398e+07
-2.22106e+07
-2.3032e+07
-2.43288e+07
-2.63034e+07
-2.32531e+07
-2.40475e+07
-2.34064e+07
-2.21527e+07
-2.63698e+07
-2.77237e+07
-3.12731e+07
-1.62642e+07
-1.68206e+07
-2.31376e+07
)
;

boundaryField
{
    inlet
    {
        type            calculated;
        value           uniform 0;
    }
    outlet
    {
        type            calculated;
        value           nonuniform 0();
    }
    wall
    {
        type            calculated;
        value           uniform 0;
    }
    procBoundary4to0
    {
        type            processor;
        value           nonuniform List<scalar> 
36
(
326.816
380.084
509.299
395.565
533.698
593.862
446.237
332.513
458.395
386.59
727.805
686.233
612.716
544.289
510.37
790.02
556.569
525.421
390.875
428.02
684.123
475.28
660.872
662.688
627.167
392.257
711.578
364.162
511.857
729.32
792.631
415.68
750.957
644.461
423.439
196.825
)
;
    }
    procBoundary4to5
    {
        type            processor;
        value           nonuniform List<scalar> 
12
(
498.932
608.115
641.847
773.588
559.302
462.562
567.703
394.106
187.843
525.862
457.44
528.961
)
;
    }
    procBoundary4to6
    {
        type            processor;
        value           nonuniform List<scalar> 
27
(
751.243
679.449
460.184
613.557
840.578
470.848
659.741
505.07
750.026
553.013
683.21
727.574
657.918
501.477
600.927
595.548
470.109
715.719
369.369
410.742
557.597
529.278
536.624
486.83
767.23
648.123
337.018
)
;
    }
}


// ************************************************************************* //
