/*--------------------------------*- C++ -*----------------------------------*\
| =========                 |                                                 |
| \\      /  F ield         | OpenFOAM: The Open Source CFD Toolbox           |
|  \\    /   O peration     | Version:  4.x                                   |
|   \\  /    A nd           | Web:      www.OpenFOAM.org                      |
|    \\/     M anipulation  |                                                 |
\*---------------------------------------------------------------------------*/
FoamFile
{
    version     2.0;
    format      ascii;
    class       volScalarField;
    location    "20";
    object      SPartFluid;
}
// * * * * * * * * * * * * * * * * * * * * * * * * * * * * * * * * * * * * * //

dimensions      [1 -3 -1 0 0 0 0];

internalField   nonuniform List<scalar> 
108
(
5.19255e-65
7.36255e-65
7.51751e-65
5.57997e-65
5.96742e-65
5.65738e-65
7.59478e-65
6.74225e-65
8.91213e-65
7.75007e-65
6.35503e-65
7.36247e-65
8.6024e-65
8.21482e-65
7.51728e-65
6.35475e-65
5.42472e-65
9.06699e-65
6.97506e-65
8.75753e-65
6.66496e-65
8.44738e-65
6.66481e-65
5.96727e-65
6.12219e-65
9.68693e-65
5.65713e-65
4.34004e-65
5.73501e-65
7.59495e-65
5.19241e-65
7.36228e-65
6.35474e-65
9.22201e-65
5.96713e-65
5.96708e-65
5.34756e-65
5.11504e-65
7.05252e-65
7.67248e-65
6.97495e-65
5.26993e-65
4.49491e-65
6.97478e-65
8.21473e-65
5.65755e-65
6.51004e-65
5.8125e-65
6.43245e-65
5.96741e-65
5.96736e-65
6.66479e-65
7.9047e-65
8.13713e-65
4.41755e-65
6.27753e-65
7.82748e-65
7.20742e-65
7.67234e-65
7.28476e-65
6.66472e-65
6.66467e-65
6.81962e-65
6.66506e-65
7.20753e-65
5.96746e-65
8.52489e-65
8.4473e-65
6.74227e-65
9.60957e-65
7.90458e-65
6.81961e-65
4.96006e-65
6.66505e-65
4.41752e-65
6.7425e-65
5.73498e-65
8.05992e-65
7.20741e-65
6.27738e-65
7.20736e-65
5.34756e-65
8.75756e-65
5.81251e-65
5.50248e-65
6.19995e-65
7.20739e-65
6.35487e-65
5.65733e-65
7.59474e-65
5.42506e-65
7.36254e-65
7.43999e-65
7.36244e-65
5.65743e-65
6.58733e-65
6.43232e-65
7.51721e-65
6.27725e-65
7.44008e-65
7.05254e-65
5.8125e-65
7.67242e-65
6.97488e-65
9.22226e-65
4.49486e-65
4.8823e-65
6.35472e-65
)
;

boundaryField
{
    inlet
    {
        type            calculated;
        value           uniform 0;
    }
    outlet
    {
        type            calculated;
        value           nonuniform 0();
    }
    wall
    {
        type            calculated;
        value           uniform 0;
    }
    procBoundary4to0
    {
        type            processor;
        value           nonuniform List<scalar> 
36
(
4.57255e-65
4.88252e-65
5.735e-65
5.34745e-65
6.1224e-65
7.43982e-65
4.80486e-65
4.10734e-65
4.9598e-65
5.50255e-65
8.13753e-65
7.28498e-65
6.74241e-65
5.81236e-65
5.96729e-65
8.36963e-65
6.58715e-65
5.50217e-65
4.57254e-65
4.96e-65
7.28496e-65
5.73489e-65
7.28479e-65
8.05964e-65
6.74213e-65
5.11466e-65
8.05944e-65
5.27005e-65
5.89001e-65
7.82744e-65
9.22233e-65
4.49487e-65
9.14459e-65
7.12958e-65
5.42464e-65
2.32481e-65
)
;
    }
    procBoundary4to5
    {
        type            processor;
        value           nonuniform List<scalar> 
12
(
6.3547e-65
7.05209e-65
8.21443e-65
9.99676e-65
6.66474e-65
5.42473e-65
6.89706e-65
4.8047e-65
2.63495e-65
6.35476e-65
6.12221e-65
7.36214e-65
)
;
    }
    procBoundary4to6
    {
        type            processor;
        value           nonuniform List<scalar> 
27
(
1.03851e-64
7.59502e-65
4.95997e-65
7.43987e-65
9.37722e-65
6.12225e-65
7.36215e-65
6.50961e-65
8.52444e-65
7.67257e-65
7.67253e-65
7.74998e-65
7.6724e-65
5.34738e-65
7.05228e-65
6.27726e-65
5.88971e-65
7.90456e-65
5.03755e-65
5.27004e-65
6.1225e-65
6.89745e-65
6.50992e-65
6.43234e-65
8.67974e-65
8.75716e-65
3.79736e-65
)
;
    }
}


// ************************************************************************* //
