/*--------------------------------*- C++ -*----------------------------------*\
  =========                 |
  \\      /  F ield         | OpenFOAM: The Open Source CFD Toolbox
   \\    /   O peration     | Website:  https://openfoam.org
    \\  /    A nd           | Version:  4.x
     \\/     M anipulation  |
\*---------------------------------------------------------------------------*/
FoamFile
{
    version     2.0;
    format      ascii;
    class       vectorField;
    location    0;
    object      v;
}
// * * * * * * * * * * * * * * * * * * * * * * * * * * * * * * * * * * * * * //

258
(
( 3.45445e-10 -3.88578e-10 3.61883e-10 )  
( 4.6453e-09 -3.1193e-09 2.52441e-09 )  
( 6.80169e-10 -2.59782e-10 4.56698e-10 )  
( 1.45982e-10 -1.11244e-10 1.75754e-10 )  
( 3.94904e-09 -1.76007e-09 1.82624e-09 )  
( 2.09329e-09 4.83481e-10 1.06151e-09 )  
( 3.83826e-09 -7.08109e-10 2.71289e-09 )  
( 7.21519e-10 -1.22625e-10 8.14094e-10 )  
( 4.76202e-09 5.87339e-12 2.18918e-09 )  
( 3.22338e-09 -6.1662e-10 2.44896e-09 )  
( 6.04244e-10 1.09342e-11 2.28245e-10 )  
( 4.44583e-09 -1.43139e-09 2.18844e-09 )  
( 7.97447e-11 -6.10723e-10 9.45438e-10 )  
( 2.26298e-09 -1.21466e-09 9.99254e-10 )  
( 8.74428e-10 -2.37496e-10 7.99097e-10 )  
( 4.7302e-10 -3.97445e-10 2.41444e-10 )  
( 8.70873e-10 -4.08838e-10 4.05134e-10 )  
( 1.90479e-10 -1.18661e-10 1.38847e-10 )  
( 6.64616e-10 -2.82715e-10 6.89299e-10 )  
( 1.16757e-09 -5.05239e-10 7.92898e-10 )  
( 2.39155e-10 -2.81436e-10 1.95559e-10 )  
( 1.78727e-10 -8.55432e-10 4.21266e-10 )  
( 6.84608e-09 1.13122e-10 2.30268e-09 )  
( 9.17983e-10 -1.65782e-10 8.36232e-10 )  
( 1.45878e-09 -5.61181e-10 1.38028e-09 )  
( 3.75377e-09 -6.03028e-10 1.87524e-09 )  
( 5.30307e-09 -5.37278e-10 2.28665e-09 )  
( 2.41691e-09 -6.47462e-10 2.66267e-09 )  
( 1.71039e-09 -4.48908e-10 1.68203e-09 )  
( 5.07603e-10 6.16998e-11 3.37203e-10 )  
( 8.33136e-10 -3.22716e-10 7.27913e-10 )  
( 2.78184e-09 -3.7916e-10 2.14689e-09 )  
( 4.55781e-09 -1.43964e-09 1.72745e-09 )  
( 3.98187e-09 -1.19964e-09 2.02591e-09 )  
( 7.16966e-11 -1.33684e-11 5.68744e-11 )  
( 4.43501e-09 -1.27769e-09 2.89803e-09 )  
( 2.46204e-10 -2.94784e-10 2.21735e-10 )  
( 2.43433e-09 2.67839e-11 1.40423e-09 )  
( 4.14861e-09 -8.73524e-10 1.74691e-09 )  
( 5.7656e-09 -9.04753e-10 2.99752e-09 )  
( 1.15821e-09 -4.75578e-10 9.35321e-10 )  
( 5.33796e-10 -8.44449e-11 4.16668e-10 )  
( 6.63576e-10 3.26619e-11 1.05352e-09 )  
( 1.97781e-09 -7.11929e-10 1.36028e-09 )  
( 6.35633e-11 -5.88487e-11 1.34491e-10 )  
( -3.25986e-10 -2.03116e-09 -2.51971e-10 )  
( 5.33453e-09 -1.90064e-09 2.45161e-09 )  
( 5.30063e-09 -6.61623e-10 2.07641e-09 )  
( 3.60926e-10 -1.56241e-10 2.82899e-10 )  
( 8.76573e-10 -4.83934e-10 6.849e-10 )  
( 2.31503e-10 -1.13248e-10 2.36339e-10 )  
( 4.51119e-09 -1.52344e-09 1.60583e-09 )  
( 4.88599e-11 -2.93611e-10 2.80726e-10 )  
( 1.76698e-10 -1.18569e-10 3.61405e-10 )  
( 9.04943e-10 -3.13736e-10 6.05772e-10 )  
( 3.32242e-10 -1.16893e-10 1.99158e-10 )  
( 6.62964e-09 5.07011e-10 2.53298e-09 )  
( 2.04933e-09 -4.71032e-10 7.2044e-10 )  
( 4.06908e-10 -2.58913e-10 3.23881e-10 )  
( 3.76502e-09 -1.20246e-10 1.06106e-09 )  
( 1.01334e-09 -1.89714e-10 1.43528e-09 )  
( 1.68035e-09 -5.87544e-10 1.82123e-09 )  
( 7.51453e-10 -1.32656e-10 3.77439e-10 )  
( 7.64156e-13 -1.29196e-10 1.3593e-10 )  
( 2.11571e-10 1.7438e-10 -1.89873e-10 )  
( 4.05441e-10 -1.9335e-09 -5.26715e-11 )  
( 3.37294e-10 -2.46212e-10 3.07533e-10 )  
( 7.33949e-10 -8.71322e-10 1.24247e-10 )  
( 4.36492e-09 -1.76339e-09 1.61588e-09 )  
( 1.46163e-09 -3.56151e-10 1.18714e-09 )  
( 3.26783e-09 -1.12921e-09 1.62305e-09 )  
( 4.47163e-09 -4.63206e-10 2.45074e-09 )  
( 1.64551e-09 -4.07791e-10 9.35297e-10 )  
( 8.91885e-10 -1.22654e-09 1.1605e-09 )  
( -1.09102e-10 -3.24408e-10 5.95958e-10 )  
( 3.18543e-09 -4.19892e-10 1.59251e-09 )  
( 8.50727e-10 -4.3233e-11 3.95303e-10 )  
( 9.51164e-10 -3.19608e-10 5.45187e-10 )  
( 1.53134e-09 -1.25243e-09 2.33311e-10 )  
( 1.60289e-09 -1.80916e-10 1.41917e-09 )  
( 3.91644e-10 -2.33783e-10 6.03127e-10 )  
( 3.1096e-09 -7.81394e-10 1.48795e-09 )  
( 1.48884e-10 -3.33555e-10 7.0316e-11 )  
( 1.18675e-09 -3.80686e-10 8.65628e-10 )  
( 3.74396e-09 -7.63749e-11 1.4599e-09 )  
( 5.55033e-10 -1.63182e-10 3.45062e-10 )  
( 2.37432e-10 -2.91885e-10 2.24362e-10 )  
( 5.12501e-10 -2.29912e-10 3.37547e-10 )  
( 1.20422e-09 -1.20389e-10 5.06754e-10 )  
( 1.44359e-10 -3.56136e-11 3.14173e-10 )  
( 5.97509e-10 -3.26044e-10 4.95569e-10 )  
( -1.17144e-10 -7.95678e-11 8.11604e-11 )  
( 4.1984e-10 -6.17775e-10 3.67201e-10 )  
( 1.93244e-09 -1.07384e-10 8.6394e-10 )  
( -1.0147e-10 -1.00004e-11 5.11899e-10 )  
( 2.52577e-09 -4.23502e-10 1.18531e-09 )  
( 1.90789e-09 -1.92357e-10 8.71756e-10 )  
( 7.81924e-10 -3.38806e-10 3.21522e-10 )  
( 2.44799e-10 -1.40618e-10 2.27856e-10 )  
( 4.87289e-09 -9.46956e-10 1.32648e-09 )  
( 1.3287e-10 -8.74966e-11 1.64017e-10 )  
( -8.00228e-10 2.60889e-10 2.38357e-10 )  
( 1.21423e-09 -5.42347e-10 1.05908e-09 )  
( 1.16982e-10 -5.68269e-11 2.08649e-10 )  
( 1.5585e-09 -5.42376e-10 6.566e-10 )  
( 2.11779e-10 -1.8324e-10 1.1843e-10 )  
( 3.55213e-11 -1.49934e-10 -1.312e-10 )  
( 8.10166e-10 -1.22212e-10 3.542e-10 )  
( 5.34214e-09 -6.67931e-10 1.3861e-09 )  
( 1.92945e-09 -3.92973e-10 8.27189e-10 )  
( 3.2588e-10 -4.00031e-11 2.01623e-10 )  
( 1.97124e-10 -1.07094e-10 2.89674e-10 )  
( 3.13562e-09 -1.66078e-09 8.9812e-10 )  
( 1.62797e-10 -3.94819e-11 3.49367e-10 )  
( 1.81579e-09 3.02565e-10 5.91526e-10 )  
( 4.79007e-10 -4.27258e-10 3.81683e-10 )  
( 3.6162e-10 -2.84267e-10 3.25617e-10 )  
( 9.64052e-10 -2.81506e-11 1.10259e-10 )  
( -8.26409e-09 -3.36987e-09 6.28401e-10 )  
( 4.38095e-09 -1.51835e-10 1.30426e-09 )  
( 3.89971e-09 -8.09035e-11 1.74665e-09 )  
( 4.59384e-09 -4.9828e-10 1.34008e-09 )  
( 2.7816e-09 -7.17955e-10 8.43118e-10 )  
( 1.49986e-09 -3.02907e-10 1.28932e-09 )  
( 2.16701e-10 -1.8234e-10 3.2159e-10 )  
( 1.61258e-10 -1.61568e-10 1.79324e-10 )  
( 3.36604e-09 -5.11992e-11 1.89974e-09 )  
( -3.66456e-11 -8.04162e-11 1.13526e-10 )  
( 4.01597e-09 -1.30574e-09 7.47151e-10 )  
( 3.21969e-10 -1.27517e-10 3.49966e-10 )  
( 8.21535e-10 -4.38608e-10 6.30339e-10 )  
( 7.05233e-11 -2.13653e-11 1.01394e-10 )  
( -6.46344e-10 -1.63801e-10 -1.89921e-10 )  
( 7.31848e-11 -7.23344e-11 1.94885e-10 )  
( 3.99085e-09 -7.74456e-10 1.14191e-10 )  
( 1.19157e-09 -9.21179e-10 3.7869e-10 )  
( 6.10403e-11 -1.45773e-10 4.32201e-11 )  
( 2.5766e-09 -1.8348e-09 3.74979e-10 )  
( 1.36416e-09 -5.6943e-10 8.03683e-10 )  
( 1.58663e-10 -4.63158e-11 2.10169e-10 )  
( 1.06678e-09 -6.06806e-10 4.73012e-10 )  
( 2.20469e-10 -1.0313e-10 1.28603e-10 )  
( 5.29801e-10 -6.17983e-10 6.10637e-10 )  
( 1.6134e-09 -1.05653e-10 1.14899e-09 )  
( 2.85087e-09 -5.02139e-10 1.25355e-09 )  
( 1.29347e-10 -1.85109e-10 2.5887e-10 )  
( 3.75271e-09 -3.6924e-10 1.69641e-09 )  
( 5.36539e-10 -2.36664e-10 3.79341e-10 )  
( 2.2543e-09 -9.41868e-10 1.27502e-09 )  
( 4.884e-10 -1.96975e-10 3.05836e-10 )  
( -5.86806e-11 -4.53153e-10 1.99373e-10 )  
( 9.16334e-10 -2.6396e-10 7.84351e-10 )  
( 1.69682e-09 -2.05029e-10 2.78466e-10 )  
( 3.20294e-09 -4.79994e-10 -3.71704e-11 )  
( 1.27862e-10 -1.55365e-10 1.76318e-10 )  
( 5.33007e-09 -1.13992e-09 2.35597e-09 )  
( 5.01906e-11 -2.64672e-11 -2.1978e-10 )  
( 6.18523e-09 -1.44267e-08 -8.146e-10 )  
( 4.8046e-09 -6.74636e-10 1.69058e-09 )  
( 1.58458e-09 -9.99846e-11 5.45751e-10 )  
( 1.39734e-09 -3.58887e-10 7.26969e-10 )  
( 9.29114e-10 -4.42823e-11 7.70807e-10 )  
( 1.79768e-10 -2.5346e-10 1.97984e-10 )  
( 7.13296e-10 -9.02963e-10 4.5335e-10 )  
( -1.11491e-09 -4.80364e-10 -1.48921e-10 )  
( 1.24419e-10 -1.43379e-10 -9.57179e-13 )  
( 3.87178e-09 8.33655e-10 1.06005e-09 )  
( 3.48246e-10 -2.8942e-10 5.60133e-10 )  
( 7.68775e-11 -1.27556e-10 1.01903e-10 )  
( 5.4867e-10 -2.56267e-10 1.53035e-10 )  
( 5.64639e-10 9.50642e-11 1.54746e-10 )  
( 9.55839e-10 -8.23216e-10 5.88867e-10 )  
( 5.74267e-09 -1.70206e-10 1.65115e-09 )  
( -3.93989e-10 2.764e-11 6.91918e-10 )  
( 4.15058e-09 -1.10137e-09 1.58253e-09 )  
( 1.19966e-09 -4.25374e-10 4.82812e-10 )  
( 1.062e-09 -1.41344e-09 9.89004e-10 )  
( 7.44859e-10 -6.42177e-10 3.44937e-10 )  
( 4.95492e-10 -3.89339e-10 9.65151e-10 )  
( 1.09272e-09 -2.84897e-10 4.32101e-10 )  
( 1.13085e-10 -1.75207e-10 4.0289e-10 )  
( 1.50668e-10 -1.37374e-10 1.84827e-10 )  
( 2.37048e-10 -2.36674e-10 1.29912e-10 )  
( 4.9632e-10 -1.84139e-11 5.01853e-10 )  
( 2.39396e-09 4.93211e-10 -4.09164e-10 )  
( 3.32552e-10 -3.32941e-10 1.96714e-10 )  
( 1.04872e-09 -1.17699e-10 2.74417e-10 )  
( 2.99385e-09 -5.55197e-10 1.22703e-09 )  
( 2.36628e-09 -5.35766e-10 3.7606e-10 )  
( 1.03304e-09 -1.99082e-09 2.82654e-09 )  
( 8.73609e-12 -6.12409e-11 -1.26242e-10 )  
( 5.25325e-09 -5.21345e-10 6.92032e-10 )  
( 5.51175e-10 -1.09913e-10 2.00086e-10 )  
( 2.94563e-09 9.87466e-12 1.83611e-09 )  
( 2.10888e-09 -3.07416e-10 7.26598e-10 )  
( 1.35417e-09 -3.41839e-10 3.08957e-10 )  
( 9.95716e-11 -7.42547e-11 -4.25524e-11 )  
( 4.14879e-10 -1.39995e-10 1.45027e-10 )  
( 3.27066e-09 1.76534e-10 1.11505e-09 )  
( 3.31288e-10 -1.87662e-10 1.83938e-10 )  
( 3.55211e-09 5.10381e-10 -1.45055e-10 )  
( 1.78646e-10 -7.76598e-11 1.08735e-10 )  
( 1.06306e-09 -2.44176e-10 2.89862e-10 )  
( -1.15911e-11 -3.40906e-11 -3.25092e-12 )  
( 3.85222e-10 -1.08012e-10 3.07214e-10 )  
( 3.28841e-10 -1.37129e-10 1.87421e-10 )  
( 5.31891e-09 -4.52315e-10 1.31819e-09 )  
( 2.93045e-09 1.32793e-09 -7.04889e-11 )  
( 2.79587e-09 -3.11982e-11 1.12394e-09 )  
( 1.61616e-10 -7.57311e-11 8.61558e-11 )  
( 5.90141e-10 -1.63888e-10 -8.47109e-11 )  
( 8.99947e-10 -2.61477e-10 5.40711e-10 )  
( 3.70855e-09 -6.98675e-11 -7.16564e-12 )  
( 9.08355e-11 -4.80494e-11 6.87605e-11 )  
( 1.58403e-09 5.14467e-11 3.47326e-10 )  
( 2.68391e-10 -1.65226e-10 6.5266e-10 )  
( 1.29192e-10 -6.63535e-11 1.28632e-10 )  
( 9.01927e-10 -1.75824e-10 2.51223e-10 )  
( 1.06715e-09 -3.4548e-10 6.58067e-10 )  
( 1.01102e-09 -3.37546e-10 1.38772e-10 )  
( 4.55968e-09 4.09907e-10 1.95724e-10 )  
( -5.98639e-11 -3.37327e-11 6.70468e-11 )  
( 4.54766e-10 -4.01551e-10 -3.79936e-12 )  
( 3.35694e-10 -7.36339e-11 5.92495e-12 )  
( 5.54378e-09 4.01632e-10 1.94879e-09 )  
( 1.75746e-10 -4.10277e-11 7.53928e-11 )  
( -1.01675e-10 -1.24419e-10 -4.26889e-11 )  
( 8.49094e-10 5.71416e-11 1.02375e-10 )  
( 1.8416e-09 -4.53651e-10 1.9723e-11 )  
( 3.86953e-09 7.61346e-10 1.14027e-09 )  
( 1.44164e-09 2.66737e-10 4.55171e-10 )  
( 3.29099e-10 -3.7277e-11 1.34441e-10 )  
( 3.06441e-09 -5.15127e-10 -1.8656e-10 )  
( 3.68631e-10 -1.06689e-10 3.02643e-11 )  
( 2.49255e-10 -1.51425e-10 1.0103e-10 )  
( 2.26227e-11 -2.0364e-11 -8.5599e-12 )  
( 1.23744e-10 -5.55922e-12 5.36491e-11 )  
( 1.38941e-09 -1.65872e-09 -1.75409e-10 )  
( 4.06044e-10 -5.98556e-11 7.60354e-11 )  
( -6.10367e-11 -5.518e-11 5.54595e-13 )  
( 2.29608e-10 -5.26808e-11 1.07459e-10 )  
( 2.73066e-09 3.92321e-10 4.40475e-10 )  
( -1.96728e-11 -1.9926e-11 5.81142e-11 )  
( 1.4951e-09 -2.52313e-10 2.56312e-10 )  
( 7.35168e-10 -1.02064e-10 3.32783e-10 )  
( 1.08282e-09 -5.86865e-10 9.06354e-11 )  
( 1.33228e-10 6.65916e-12 -6.66886e-11 )  
( 9.44873e-10 -4.6595e-10 2.0468e-10 )  
( 5.6497e-10 3.52663e-12 8.15033e-11 )  
( 4.17441e-10 -1.21428e-10 -1.50708e-10 )  
( 3.0947e-09 -5.4335e-10 7.62602e-10 )  
( 2.8986e-09 7.43852e-10 4.20332e-10 )  
( 6.45444e-10 -3.59766e-10 2.53559e-11 )  
( 7.00336e-11 -3.5053e-11 2.29313e-11 )  
( 9.46524e-11 -2.50879e-11 -9.11927e-12 )  
( 5.65137e-11 -1.48126e-11 -7.85283e-12 )  
( 2.60092e-10 -4.14394e-11 1.20505e-10 )  
( 1.16878e-10 -8.2498e-11 2.61527e-11 )  
)
