/*--------------------------------*- C++ -*----------------------------------*\
  =========                 |
  \\      /  F ield         | OpenFOAM: The Open Source CFD Toolbox
   \\    /   O peration     | Website:  https://openfoam.org
    \\  /    A nd           | Version:  4.x
     \\/     M anipulation  |
\*---------------------------------------------------------------------------*/
FoamFile
{
    version     2.0;
    format      ascii;
    class       vectorField;
    location    0;
    object      v;
}
// * * * * * * * * * * * * * * * * * * * * * * * * * * * * * * * * * * * * * //

235
(
( -7.86734e-05 0.000317393 -0.00109278 )  
( -0.000234034 0.000652225 -0.000520989 )  
( 7.9137e-05 0.000390201 -0.00119487 )  
( 0.000115014 0.0002559 -0.00106379 )  
( -0.000180816 0.000424345 -0.00082821 )  
( -0.000251691 0.000342197 -0.000622028 )  
( -0.000269634 0.0001608 -0.000392243 )  
( -0.000132527 0.000425575 -0.000698064 )  
( -0.000249584 0.000186893 -0.000536405 )  
( -0.000237674 0.000114777 -0.000306755 )  
( 9.57249e-05 0.000114625 -0.00122338 )  
( -2.68715e-05 1.97086e-05 -7.92368e-05 )  
( -0.000184632 3.45827e-05 -0.000406971 )  
( 5.96118e-06 6.0341e-05 -0.000467633 )  
( -0.000107599 -1.05502e-05 -2.40459e-05 )  
( -0.000108282 5.60698e-05 -0.000215171 )  
( -0.000103796 0.000113146 -0.000263173 )  
( -8.80912e-05 -4.252e-05 -0.000876276 )  
( -5.17315e-05 -8.38855e-06 -3.14777e-05 )  
( -3.22737e-05 1.62049e-05 -0.000130306 )  
( -1.37083e-05 -2.92025e-05 -8.36677e-05 )  
( 0.000109874 0.000529112 -0.000105003 )  
( -4.6845e-05 -1.18276e-05 -2.15381e-05 )  
( 2.15479e-05 -1.77637e-07 -0.000171054 )  
( 0.00011978 0.000141566 -0.000912085 )  
( 4.79782e-05 -7.79461e-06 -0.00021122 )  
( 0.000149128 0.000527368 -0.000528909 )  
( 7.43104e-05 -7.81614e-05 -0.000895556 )  
( -3.38904e-06 1.15861e-05 -7.59928e-05 )  
( 0.00012275 -7.59924e-06 -0.00102354 )  
( 0.000104294 0.000143522 -0.000669383 )  
( -9.42317e-05 -7.93398e-05 -0.000496962 )  
( 0.000142368 0.000589412 -0.000641454 )  
( 3.34123e-06 2.57691e-05 -8.03523e-05 )  
( -0.000227627 0.00068845 -0.00147072 )  
( -6.55738e-05 -1.17511e-05 -0.000171742 )  
( 9.40845e-06 -0.000247393 -0.000625669 )  
( 4.51473e-05 -2.13867e-05 -5.62651e-05 )  
( -9.31833e-05 0.000268182 -0.00099264 )  
( -9.78515e-05 6.28125e-05 -0.000920049 )  
( -7.27609e-05 5.41606e-05 -0.000408034 )  
( -8.01485e-05 -3.26587e-05 -4.24236e-05 )  
( -5.60378e-05 2.3193e-06 -7.1975e-05 )  
( -0.000207878 0.000482439 -0.000664849 )  
( 0.000142955 3.00511e-05 -0.000793329 )  
( -4.75094e-05 9.91878e-06 -7.76203e-05 )  
( -9.3024e-05 -1.36864e-05 2.31308e-06 )  
( -4.92749e-05 -6.89938e-06 -6.88585e-06 )  
( -7.17363e-05 0.000124637 -0.000699607 )  
( -4.3432e-05 -2.06098e-05 -7.72327e-05 )  
( 7.11532e-07 5.27975e-06 -9.26091e-05 )  
( -0.000140785 -7.98497e-06 -3.03107e-05 )  
( 0.000391373 0.00105812 -0.000354441 )  
( 0.000122573 -7.51695e-05 -0.000317615 )  
( -6.56209e-05 -2.42048e-05 -3.32572e-05 )  
( 9.03852e-05 7.14722e-05 -7.65168e-05 )  
( -4.10582e-05 -0.000275497 -0.000330399 )  
( -9.83701e-05 -1.6793e-05 -6.57494e-05 )  
( -0.000119501 9.69327e-05 -0.000161514 )  
( -0.000195369 0.00040213 -0.00119363 )  
( -6.31761e-05 0.000320883 -0.0010955 )  
( 4.07358e-06 -3.85301e-05 -0.000118863 )  
( -0.000254717 0.000369857 -0.000383373 )  
( -0.000118522 0.000101359 -0.000364295 )  
( -9.3913e-05 2.56888e-06 -4.61953e-05 )  
( -0.00025504 7.96006e-05 -0.000475841 )  
( -4.34876e-05 -1.56948e-05 -0.000453881 )  
( -6.59814e-05 0.000138021 -0.000550793 )  
( -6.16061e-05 -7.15767e-06 -5.73416e-05 )  
( -0.000112922 5.18703e-05 -0.000517752 )  
( -1.52984e-05 1.89882e-05 -5.38268e-05 )  
( -4.49579e-05 -7.37834e-06 -0.000461665 )  
( -0.000120025 0.000256398 -0.000851207 )  
( 3.50339e-05 -1.67492e-05 -0.00076215 )  
( -3.70153e-05 -4.59771e-05 -0.000125092 )  
( -9.55119e-05 3.01377e-05 -5.30154e-05 )  
( -6.66905e-05 -5.38348e-06 -9.13959e-05 )  
( -1.91886e-05 -6.63025e-06 -8.89203e-05 )  
( 7.27999e-05 0.000581179 -0.000185207 )  
( -6.67379e-05 -2.46108e-05 -0.00013222 )  
( 0.000250073 0.00078957 -0.00104683 )  
( -1.35534e-05 0.00022358 -0.00085791 )  
( 0.000118636 0.000718449 0.000138329 )  
( -0.000112945 0.000338381 -0.00155338 )  
( -0.000278426 0.000219018 -0.000332772 )  
( 6.78582e-05 0.000162719 -9.39739e-06 )  
( -6.47374e-05 -2.34582e-05 -0.000108538 )  
( -2.64609e-06 0.000226449 -0.000956772 )  
( 0.000124571 0.000290427 -8.97245e-05 )  
( 0.000233626 0.000398411 -0.00117736 )  
( 0.000154626 1.62075e-05 -0.000384825 )  
( 7.65342e-05 0.000186671 -0.000669038 )  
( -4.22744e-05 -7.77442e-06 -2.89057e-06 )  
( 6.7008e-05 5.95246e-07 -0.000190744 )  
( -5.04105e-05 -1.64565e-06 -1.29555e-05 )  
( -0.000196733 0.000123023 -0.000485901 )  
( -9.938e-05 6.63805e-05 -0.000977328 )  
( -0.000150187 7.05627e-05 -0.000229764 )  
( -4.11802e-05 1.71724e-05 -7.89482e-05 )  
( -4.07347e-05 6.82217e-06 -8.7448e-05 )  
( -8.45342e-05 2.2528e-05 -0.000396934 )  
( 3.92347e-06 0.000241788 -0.000852994 )  
( 1.91007e-05 0.000352363 -0.000988873 )  
( -9.97897e-05 -0.000106423 -0.00040763 )  
( -7.31244e-05 -8.43301e-05 -0.00076824 )  
( -0.000187631 0.000172869 -0.000269684 )  
( -0.0024051 0.00100157 0.000420598 )  
( -4.87601e-06 -1.84799e-05 -6.14782e-05 )  
( 3.88313e-05 -4.50759e-05 -0.000364984 )  
( -1.05569e-05 1.85897e-05 -7.18589e-05 )  
( -1.18526e-05 0.000366224 -0.000413001 )  
( 5.74197e-07 3.85366e-05 -5.61658e-05 )  
( -5.44503e-05 2.19429e-05 -0.000191298 )  
( 4.82854e-06 1.88708e-05 -8.48737e-05 )  
( -0.000201288 0.000611879 -0.000664989 )  
( -4.55869e-05 7.04619e-06 -6.02444e-05 )  
( -3.03748e-05 1.01822e-05 -2.43719e-05 )  
( -0.000115313 -1.95065e-06 1.97973e-05 )  
( -4.54799e-05 3.21901e-05 -5.08562e-05 )  
( -8.14564e-05 -9.59618e-06 -4.01807e-05 )  
( 3.93401e-05 0.000226465 -0.000736943 )  
( -1.07825e-05 1.07371e-05 -0.000114814 )  
( 2.27313e-07 0.000174827 -0.000552075 )  
( -6.52398e-05 5.84534e-05 -0.000478542 )  
( -5.08566e-05 -3.92997e-06 -1.0336e-05 )  
( 0.000189685 0.000962935 -0.000359762 )  
( -0.0001865 0.000212082 -0.000691877 )  
( -3.27997e-05 9.82021e-05 -0.000592699 )  
( -0.000107943 -2.61344e-05 -0.000132826 )  
( -7.32648e-05 3.69024e-05 -0.000442123 )  
( -1.06371e-06 0.00015134 -0.000631082 )  
( -3.01583e-05 1.50745e-06 -4.00527e-05 )  
( 0.00031366 0.00110939 -0.00103768 )  
( 3.85381e-05 0.000432217 -0.000830598 )  
( -0.000212509 0.000140092 -3.21587e-05 )  
( -3.91252e-05 9.18636e-05 -0.00066892 )  
( 2.79731e-05 6.85164e-05 -0.00021619 )  
( -6.77696e-05 9.05893e-05 -0.000548818 )  
( 0.000174364 0.000298094 -0.000884109 )  
( -1.98101e-05 -3.07758e-05 -0.000109084 )  
( 1.01909e-05 6.16264e-06 -4.9844e-05 )  
( -6.23727e-05 2.6568e-07 -1.46154e-05 )  
( -6.29472e-05 0.000252817 -0.00105989 )  
( 2.39215e-05 0.000678351 -0.000204948 )  
( 2.58295e-05 3.07332e-05 -0.000153397 )  
( -0.000121895 -5.90529e-06 -5.00548e-05 )  
( -2.51311e-05 6.67603e-06 -2.16305e-05 )  
( -2.33801e-06 3.92004e-05 -0.000428959 )  
( -0.000259338 8.26201e-05 -0.000280787 )  
( 1.20523e-05 -2.5424e-05 -0.000444524 )  
( -3.13063e-05 4.30659e-05 -0.000176819 )  
( -7.10653e-05 -4.26972e-06 -8.05759e-05 )  
( -4.80331e-05 2.10929e-05 -9.50836e-05 )  
( -0.000108545 0.000191041 -0.000390258 )  
( -3.11098e-05 3.54914e-05 -9.80982e-05 )  
( -0.000137825 4.03247e-05 -0.000123971 )  
( -8.10669e-05 0.000117983 -0.000308692 )  
( -0.000223252 0.000160305 -0.000419111 )  
( -9.75738e-05 4.85769e-05 -0.000159225 )  
( -1.86836e-05 4.39963e-05 -0.000190763 )  
( -0.000132823 3.3491e-05 -0.000421971 )  
( -0.000108139 1.55822e-05 -0.000437023 )  
( -0.000111524 -6.84297e-06 -7.04701e-05 )  
( -0.000118019 7.89759e-05 -0.000277038 )  
( -0.000175182 0.000142069 -0.000465776 )  
( -0.000292389 0.000270587 -0.000546586 )  
( 2.88955e-05 -7.892e-05 -0.000527745 )  
( -0.000234952 0.000107786 -0.000424014 )  
( -0.000165116 4.25479e-05 -0.00041918 )  
( 1.11699e-05 1.20246e-06 -0.000173961 )  
( -5.02418e-05 0.000112755 -0.000469455 )  
( -5.70372e-05 2.50032e-05 -9.57787e-05 )  
( -0.000186783 5.63466e-05 -0.000141092 )  
( -0.000197294 0.000293349 -0.000467294 )  
( -3.7835e-05 6.09599e-05 -0.000275899 )  
( -5.03372e-05 1.79866e-05 -0.000170554 )  
( -3.01153e-05 4.64913e-05 -0.000123046 )  
( 5.1986e-05 6.05162e-05 -0.000582583 )  
( -0.000183682 0.000274564 -0.000688488 )  
( 4.50919e-05 0.000155497 -0.000822504 )  
( -6.76653e-05 -7.08258e-06 -4.06513e-05 )  
( -5.64666e-06 0.000109436 -0.000674587 )  
( -3.64219e-06 -0.00013313 -9.40718e-05 )  
( -0.000156765 0.000103761 -0.000418772 )  
( 5.74926e-05 0.000111346 -3.12125e-06 )  
( -1.85974e-05 -1.05514e-05 -3.17452e-05 )  
( -7.34139e-06 8.69269e-06 -0.000136957 )  
( -0.000161197 0.000118463 -0.000119728 )  
( -0.000176281 2.78958e-06 -8.23413e-05 )  
( 0.000150577 0.000623303 -0.00068306 )  
( -5.60297e-05 -7.28343e-07 -8.64633e-05 )  
( 1.13235e-05 -3.19556e-05 -5.8793e-05 )  
( 2.60955e-05 0.000173966 -0.00103332 )  
( -2.24231e-05 -2.37961e-05 -0.000574573 )  
( 0.000247409 0.000273963 -0.000360781 )  
( -7.79399e-05 -2.04203e-06 -3.52524e-05 )  
( -1.33772e-05 -0.000211253 -0.000687674 )  
( -3.33574e-06 9.59585e-06 -5.85304e-05 )  
( -1.87206e-05 2.71348e-05 -4.17541e-05 )  
( -9.29158e-05 -6.00576e-06 -4.20098e-05 )  
( -0.000129019 0.000217044 -0.000683144 )  
( -0.000112232 1.66659e-05 -0.000333472 )  
( -0.000162505 2.76569e-05 -0.000254179 )  
( -9.23551e-05 0.00015725 -0.000388315 )  
( -0.00019355 0.000215913 -0.000374948 )  
( -9.39586e-05 1.29819e-05 -0.000277138 )  
( -8.14402e-05 -2.98778e-05 -0.00048177 )  
( -0.000181405 0.000138432 -0.000423457 )  
( -5.86365e-05 2.72964e-05 -5.5223e-05 )  
( -6.97367e-05 -4.44669e-06 -1.91215e-05 )  
( -6.23761e-05 -2.52704e-05 -0.00045646 )  
( -6.28957e-05 1.8878e-05 -0.000151923 )  
( -0.000169332 2.35994e-05 -0.000132236 )  
( -0.000120971 0.000114918 -0.000173726 )  
( 8.6026e-05 0.00110876 -0.000738728 )  
( -2.61614e-07 -9.6241e-05 -0.000937929 )  
( -0.00015899 0.000189884 -0.00101497 )  
( -5.10286e-05 -5.92186e-05 -1.97858e-05 )  
( -1.69974e-05 -4.21656e-05 -8.12154e-05 )  
( 0.000321845 0.000722288 -0.000885953 )  
( -0.000338974 0.00048421 -0.00117526 )  
( -0.000152573 1.64091e-05 -6.97146e-05 )  
( 0.000258072 3.1032e-05 -0.00030592 )  
( 4.722e-05 0.000178764 -0.000947363 )  
( 0.000230795 -9.60663e-05 -0.000380468 )  
( -0.00128913 0.00157495 -0.000450484 )  
( 0.000159992 0.00134611 -0.000550524 )  
( 0.000149673 0.000801862 -0.00110028 )  
( -0.000194106 0.00129084 -0.000263098 )  
( -0.000255541 0.000431632 -0.00119192 )  
( -0.000818569 -0.000284974 -0.000649894 )  
( -6.98848e-06 6.29222e-06 -0.000766244 )  
( -0.000189925 0.00060927 -0.000778149 )  
( 2.73029e-05 0.000393288 -0.00115107 )  
( 0.00190187 0.00139612 -0.000236002 )  
)
