/*--------------------------------*- C++ -*----------------------------------*\
| =========                 |                                                 |
| \\      /  F ield         | OpenFOAM: The Open Source CFD Toolbox           |
|  \\    /   O peration     | Version:  4.x                                   |
|   \\  /    A nd           | Web:      www.OpenFOAM.org                      |
|    \\/     M anipulation  |                                                 |
\*---------------------------------------------------------------------------*/
FoamFile
{
    version     2.0;
    format      ascii;
    class       volScalarField;
    location    "28.5";
    object      pSmooth;
}
// * * * * * * * * * * * * * * * * * * * * * * * * * * * * * * * * * * * * * //

dimensions      [1 -1 -2 0 0 0 0];

internalField   nonuniform List<scalar> 
108
(
110.609
93.2315
103.546
75.4327
96.2019
57.3429
88.8701
38.9989
81.715
111.274
93.5386
104.187
75.6485
96.6956
57.3742
89.2487
39.077
81.9685
111.751
93.8711
104.534
76.0109
96.8997
57.841
89.3308
39.7853
81.894
111.946
94.1604
104.752
76.3444
97.1065
58.2905
89.3902
40.2539
82.0726
110.581
93.2962
103.514
75.6541
96.1256
57.5192
88.8876
39.4216
81.7349
111.131
93.5302
103.955
75.8001
96.5253
57.6249
89.1996
39.3603
81.9354
111.542
93.8937
104.319
76.0322
96.7697
57.8139
89.2813
39.6836
82.0214
111.886
93.9569
104.602
76.1826
96.9468
57.8346
89.3318
39.3714
81.9992
110.398
93.1361
103.301
75.6686
96.0369
57.557
88.6635
39.2027
81.4565
110.905
93.3825
103.666
75.7131
96.2984
57.532
88.8733
39.2158
81.6924
111.295
93.6433
103.983
75.8597
96.4748
57.7381
89.0062
39.5396
81.8204
111.6
93.691
104.25
75.9816
96.6286
57.6178
89.0318
39.3855
81.8888
)
;

boundaryField
{
    inlet
    {
        type            zeroGradient;
    }
    outlet
    {
        type            fixedValue;
        value           nonuniform 0();
    }
    wall
    {
        type            zeroGradient;
    }
    procBoundary4to0
    {
        type            processor;
        value           nonuniform List<scalar> 
36
(
110.108
92.9406
103.11
75.268
95.9215
57.3261
88.6839
39.2435
81.8178
110.713
93.2345
103.609
75.4043
96.279
57.4393
88.9976
39.1992
81.9775
111.116
93.5885
104.036
75.8606
96.648
58.0066
89.2046
40.3248
82.1611
111.381
93.747
104.251
75.8767
96.6481
57.9995
89.0362
40.0996
81.9298
)
;
    }
    procBoundary4to5
    {
        type            processor;
        value           nonuniform List<scalar> 
12
(
19.9851
20.1492
21.5616
22.5471
20.5832
20.4219
21.3319
21.0574
20.4318
20.4146
21.2124
20.9727
)
;
    }
    procBoundary4to6
    {
        type            processor;
        value           nonuniform List<scalar> 
27
(
112.016
93.8042
104.656
76.2215
96.9772
58.0786
89.4955
40.0628
81.7858
111.791
93.7802
104.403
76.0165
96.8529
58.0001
89.4098
39.8834
82.2595
111.377
93.6539
104.117
75.9849
96.6223
57.9522
89.2046
39.6612
82.0681
)
;
    }
}


// ************************************************************************* //
