/*--------------------------------*- C++ -*----------------------------------*\
| =========                 |                                                 |
| \\      /  F ield         | OpenFOAM: The Open Source CFD Toolbox           |
|  \\    /   O peration     | Version:  4.x                                   |
|   \\  /    A nd           | Web:      www.OpenFOAM.org                      |
|    \\/     M anipulation  |                                                 |
\*---------------------------------------------------------------------------*/
FoamFile
{
    version     2.0;
    format      ascii;
    class       volVectorField;
    location    "1.5";
    object      ddtUrel;
}
// * * * * * * * * * * * * * * * * * * * * * * * * * * * * * * * * * * * * * //

dimensions      [0 1 -2 0 0 0 0];

internalField   nonuniform List<vector> 
132
(
(0.000900918 8.29504e-06 -0.00136683)
(5.87793e-06 7.80217e-06 -0.0013152)
(-0.00150165 2.83783e-05 -0.00126387)
(-0.00401288 -3.97888e-06 -0.00128073)
(-0.00777221 -1.44832e-05 -0.00129126)
(-0.0138895 -1.38817e-05 -0.00130716)
(-0.0256197 -1.8636e-05 -0.00137538)
(-0.0306886 6.3688e-05 -0.00115485)
(-0.0248516 6.01441e-05 -0.000997441)
(0.000878128 0.000136053 -0.00138196)
(-3.27795e-05 0.000103047 -0.00130779)
(-0.00149327 8.56169e-05 -0.0012893)
(-0.00386099 5.44857e-05 -0.00128463)
(-0.00758188 2.05929e-05 -0.00122852)
(-0.0136858 -2.94321e-05 -0.00123931)
(-0.0253655 -0.000118515 -0.00127353)
(-0.0308546 -0.000155244 -0.00106695)
(-0.0251552 -0.000115483 -0.000950914)
(0.000811557 0.000273344 -0.00141422)
(4.90794e-05 0.000229182 -0.00134289)
(-0.00132182 0.000178728 -0.00126419)
(-0.00355099 0.000112853 -0.00121402)
(-0.00720008 4.43711e-05 -0.00116885)
(-0.0131406 -4.25918e-05 -0.00120702)
(-0.0242446 -0.000198068 -0.00128283)
(-0.0289428 -0.000332043 -0.00109143)
(-0.0235178 -0.000193094 -0.000918763)
(0.000953688 0.00034316 -0.00133051)
(0.000389559 0.000310961 -0.00131235)
(-0.00123262 0.000242879 -0.00121219)
(-0.00323865 0.000153097 -0.00113938)
(-0.00675281 7.45687e-05 -0.00112342)
(-0.0124167 -5.36404e-05 -0.00114903)
(-0.0222451 -0.000165485 -0.00115568)
(-0.026379 -0.000199429 -0.000957559)
(-0.0220872 -0.000102598 -0.000861962)
(-0.00140012 5.50224e-06 -0.0014655)
(-0.00389447 9.38343e-06 -0.00147545)
(-0.00759526 2.72505e-05 -0.0014737)
(-0.013578 1.09051e-05 -0.00147828)
(-0.0247473 -5.18706e-06 -0.0014509)
(-0.0293143 5.04758e-05 -0.00132369)
(-0.0237303 3.94442e-05 -0.00107972)
(0.00111535 8.81416e-05 -0.00161555)
(0.000232856 9.07895e-05 -0.00150956)
(-0.00126728 9.20687e-05 -0.00145607)
(-0.00366702 4.5789e-05 -0.0014424)
(-0.00738286 1.42863e-05 -0.00145346)
(-0.0132936 -2.68094e-05 -0.0014419)
(-0.0242344 -0.000138037 -0.00138453)
(-0.028985 -0.000183335 -0.00128732)
(-0.0236535 -4.36789e-05 -0.00106827)
(0.00114772 0.000203282 -0.00168241)
(0.000329635 0.0002452 -0.00154815)
(-0.00101432 0.0002141 -0.00139959)
(-0.00322755 7.5839e-05 -0.00137049)
(-0.00696409 -2.24069e-05 -0.0014132)
(-0.0128245 -7.70219e-05 -0.00138146)
(-0.0232883 -0.000222571 -0.00134089)
(-0.0272125 -0.000317461 -0.00119883)
(-0.0219888 -9.20621e-05 -0.000933788)
(0.000960774 0.000292786 -0.00168502)
(0.00041241 0.000346016 -0.00150084)
(-0.000779249 0.000255081 -0.00135241)
(-0.00285379 0.000124433 -0.00129512)
(-0.00639838 4.90647e-05 -0.00131401)
(-0.0123788 -2.47252e-05 -0.00130518)
(-0.0211302 -6.83086e-05 -0.00121704)
(-0.0251036 -0.00010515 -0.00113381)
(-0.0209272 -4.69156e-05 -0.000910586)
(-0.00700659 3.9998e-05 -0.00160462)
(-0.0127965 -2.86221e-06 -0.0015538)
(-0.0234157 -1.90543e-05 -0.00158518)
(-0.0271901 1.58235e-05 -0.00157353)
(-0.0216607 7.58696e-06 -0.00113997)
(0.00128649 4.97455e-05 -0.00180779)
(0.000456597 9.77919e-05 -0.00162968)
(-0.000931532 9.79712e-05 -0.00151803)
(-0.00318438 3.79743e-05 -0.00150342)
(-0.00671758 2.55405e-05 -0.00154721)
(-0.0123338 -2.14438e-05 -0.00147894)
(-0.0228418 -0.000131101 -0.00154674)
(-0.0264639 -0.000113224 -0.00154935)
(-0.021264 -2.97778e-05 -0.00111333)
(0.00125797 0.000211408 -0.00184524)
(0.000586057 0.000292241 -0.00164021)
(-0.000655202 0.000209644 -0.00149911)
(-0.00261096 6.71744e-05 -0.00143268)
(-0.00619193 3.29473e-05 -0.00146161)
(-0.0117371 -1.05353e-07 -0.0014121)
(-0.0216909 -0.000204514 -0.00140612)
(-0.0248319 -0.000256082 -0.00133134)
(-0.0201436 -4.47303e-05 -0.000956937)
(0.00114005 0.000295163 -0.00182224)
(0.000700342 0.000346159 -0.00166335)
(-0.000299363 0.000253365 -0.00146321)
(-0.00203282 0.000129979 -0.00137445)
(-0.00547074 0.000100143 -0.00137514)
(-0.0109467 2.78746e-05 -0.00134103)
(-0.0195708 -9.42227e-05 -0.0012849)
(-0.0226355 -0.000152035 -0.00116775)
(-0.0191887 -4.52096e-05 -0.000908905)
(-0.0221437 -3.14968e-05 -0.00161444)
(-0.0251691 2.74306e-05 -0.00164896)
(-0.0199151 1.13529e-05 -0.00121247)
(0.00187501 -2.29877e-05 -0.00189188)
(0.000955046 6.99817e-05 -0.00168788)
(-0.000389485 0.00010689 -0.00152219)
(-0.00241593 7.64758e-05 -0.00150465)
(-0.00573814 6.97481e-05 -0.0015272)
(-0.0111195 3.22526e-06 -0.00146588)
(-0.0213391 -8.81272e-05 -0.00156963)
(-0.0243749 -3.11536e-05 -0.00173901)
(-0.0198035 -4.40395e-06 -0.00130042)
(0.00193819 0.000257791 -0.00187762)
(0.00135327 0.000303329 -0.0016883)
(0.000334676 0.000253971 -0.00156205)
(-0.00153696 0.000140548 -0.00145182)
(-0.00530351 9.59447e-05 -0.00145116)
(-0.0102983 5.46942e-05 -0.00145711)
(-0.0193692 -7.40897e-05 -0.00143264)
(-0.02252 -4.76072e-05 -0.00140821)
(-0.0188214 4.04823e-05 -0.00107088)
(0.00259052 0.000320042 -0.00190872)
(0.00194244 0.000304938 -0.00176244)
(0.000586633 0.000312563 -0.0015255)
(-0.00121685 0.000244733 -0.00142957)
(-0.00484446 0.000125336 -0.00144253)
(-0.0100032 8.38319e-05 -0.00137403)
(-0.0174786 -1.56706e-06 -0.00126795)
(-0.0208308 -4.14659e-05 -0.00119471)
(-0.0177991 2.87753e-05 -0.00096107)
)
;

boundaryField
{
    inlet
    {
        type            calculated;
        value           nonuniform 0();
    }
    outlet
    {
        type            calculated;
        value           nonuniform List<vector> 
16
(
(-0.00166798 -0.000264376 -0.0010639)
(-0.00224202 -0.000346457 -0.000939164)
(-0.00133721 -0.000674337 -0.000871229)
(-0.00186828 0.000688478 -0.000489749)
(-0.00232117 -0.00027254 -0.000680135)
(-0.00185019 0.000560423 -0.000949243)
(-0.000113068 5.44961e-05 -0.000569196)
(-0.00205384 0.000487935 -0.000244163)
(-0.00121712 -0.000205693 -0.000321596)
(-0.00100288 -0.000154494 -0.00035871)
(0.000262095 -0.000186749 6.88858e-05)
(-0.000345179 0.000207102 -0.00023953)
(0.00750768 -0.000230959 0.000494014)
(0.00242882 -3.87374e-05 -0.00071343)
(0.0010746 0.000209842 -6.16742e-05)
(0.00246517 0.0002336 -0.00024457)
)
;
    }
    wall
    {
        type            calculated;
        value           nonuniform List<vector> 
66
(
(0.013187 -0.00123406 -0.00317616)
(0.0123167 0.00255963 -0.00181658)
(0.0325014 0.00227115 -0.00171054)
(0.00564061 -1.9787e-05 -0.00181295)
(0.00798715 0.00141117 -0.00163456)
(0.0203607 0.00037021 -0.00286579)
(0.00579904 0.000305414 -0.000510701)
(0.0120892 0.000701935 -0.00197526)
(0.0126287 0.0012657 -0.00084741)
(0.00580108 8.38981e-05 -0.000904528)
(0.0189142 0.000100762 -0.00117672)
(0.0106031 0.00103446 -0.00122646)
(0.00893338 0.000547842 -0.00158967)
(0.00361696 0.000280675 -0.00125115)
(0.00700015 3.53359e-06 -0.00211303)
(0.0167585 8.05211e-05 -0.000176682)
(0.0164862 0.000248923 -0.00203636)
(-0.00177555 0.000503912 -0.00140514)
(-0.0518707 -0.000191659 -0.00224752)
(-0.0484264 -5.8107e-06 -0.00196114)
(-0.029029 -0.000181848 -0.00170199)
(-0.0190122 0.000516773 -0.000524972)
(-0.0490736 0.000394336 -0.00357234)
(-0.0345527 0.00030706 -0.00617302)
(-0.0333841 0.000440057 -0.00253461)
(-0.0319619 0.000128786 -0.00100225)
(0.0111786 0.000109661 0.00107202)
(-0.000152206 8.41395e-05 -0.00177466)
(-0.00198198 0.000557054 5.9512e-05)
(0.00359385 0.00053991 0.000457155)
(0.014434 0.00157594 0.000491678)
(0.000439805 0.000838336 -0.00242434)
(-0.00364404 0.00090227 -0.00183255)
(0.0147877 0.00146659 -0.00213404)
(0.0125328 0.000333592 -0.00139733)
(0.00237166 0.00123112 -0.00118068)
(-0.00173124 0.00111777 -0.00213885)
(0.0118457 0.000237091 -0.00251162)
(-0.000713254 0.000131988 -0.00123067)
(0.00297791 0.000569719 -0.00102234)
(0.00293655 0.000237746 -0.000945026)
(0.00707163 0.000932852 -0.00111466)
(0.0010698 0.000186304 -0.000872775)
(0.00121101 5.07954e-05 -0.00112902)
(0.00970227 -0.000372744 -0.000948742)
(0.0116251 0.00105921 -0.00118567)
(0.00150155 0.000203982 -0.00102209)
(0.00603855 4.51653e-05 -0.00123509)
(0.00909257 0.000642877 -0.00103867)
(0.0032859 0.000140657 -0.00192956)
(0.00469845 -0.000508716 -0.00106913)
(-0.0130247 0.000125657 -0.0019408)
(0.00358753 0.000493129 -0.00116563)
(0.00449294 0.000496281 -0.00114023)
(-0.0378247 -0.000779365 -0.00165592)
(-0.0272896 0.00117748 -0.000356619)
(-0.0302539 -0.000219963 -0.00126096)
(-0.0169091 0.000348119 -0.000527281)
(-0.0562934 -0.000131262 0.000102775)
(-0.0503696 0.000769354 -0.00191384)
(-0.0343507 -0.000811264 -0.00116472)
(-0.0310033 -9.51662e-05 -0.00124182)
(-0.00887367 0.00115283 -0.000356792)
(-0.008409 0.000821159 -0.00026784)
(-0.00392362 0.000252342 0.00011622)
(0.000343388 0.000442958 0.000231498)
)
;
    }
    procBoundary7to0
    {
        type            processor;
        value           uniform (0.00173703 2.779e-05 -0.00144939);
    }
    procBoundary7to1
    {
        type            processor;
        value           uniform (0.00100683 -4.98208e-05 -0.00135857);
    }
    procBoundary7to3
    {
        type            processor;
        value           nonuniform List<vector> 
36
(
(0.000928442 -2.40665e-05 -0.00109332)
(4.68475e-05 -1.74758e-05 -0.00102362)
(-0.00141366 5.68169e-05 -0.000988267)
(-0.00388412 2.6522e-06 -0.0010111)
(-0.00759919 -3.67359e-05 -0.00102644)
(-0.0136222 -1.08042e-05 -0.00106531)
(-0.025387 -5.93423e-06 -0.00110868)
(-0.0301266 8.56885e-05 -0.00095605)
(-0.0245733 0.000134805 -0.00100477)
(0.000854336 9.21414e-05 -0.00112239)
(-0.000112557 9.79501e-05 -0.00104948)
(-0.00154425 0.000118007 -0.00101131)
(-0.00379572 7.87658e-05 -0.00100215)
(-0.00743607 -1.02758e-05 -0.000975849)
(-0.0135 1.70656e-06 -0.00100755)
(-0.025371 -8.76864e-05 -0.00106036)
(-0.0305006 -0.0001589 -0.000839453)
(-0.0245901 -0.00010975 -0.000884497)
(0.000575294 0.000206788 -0.00118118)
(-0.000235688 0.000311612 -0.00106056)
(-0.0015176 0.0002384 -0.00100627)
(-0.00363221 0.00018164 -0.000961323)
(-0.00712696 6.69276e-05 -0.000888203)
(-0.0129775 4.04877e-05 -0.000964367)
(-0.0243156 -0.000158772 -0.00104414)
(-0.0293144 -0.000352509 -0.000885825)
(-0.0235463 -0.000211207 -0.000907902)
(5.33298e-05 0.000265715 -0.00114874)
(-0.000379351 0.000405397 -0.00108211)
(-0.00134204 0.000334419 -0.00097268)
(-0.00338092 0.000218104 -0.000872448)
(-0.00656455 0.000156482 -0.000828063)
(-0.0123045 5.36952e-05 -0.000926024)
(-0.0219061 -0.000141947 -0.000967125)
(-0.0269122 -0.000274415 -0.000826521)
(-0.0225243 -0.000234838 -0.000877277)
)
;
    }
    procBoundary7to5
    {
        type            processor;
        value           nonuniform List<vector> 
44
(
(0.000166232 -4.51003e-05 -0.00127763)
(-0.00140507 -4.34647e-05 -0.00119653)
(-0.00393471 -6.18854e-05 -0.00123689)
(-0.00774594 -6.18467e-05 -0.00125166)
(-0.0137653 -3.58635e-05 -0.00126294)
(-0.0252811 0.000116494 -0.00132909)
(-0.0302209 0.000266025 -0.00114188)
(-0.024303 0.000194001 -0.000973793)
(0.0010661 -1.27983e-06 -0.00156794)
(0.000171753 9.6809e-07 -0.00150215)
(-0.00132628 -5.55019e-05 -0.00141024)
(-0.00377659 -4.564e-05 -0.00143667)
(-0.0075344 -4.07111e-05 -0.00146288)
(-0.0135027 -2.46608e-05 -0.00145052)
(-0.0245805 0.000112102 -0.00144655)
(-0.0292156 0.000269552 -0.00137108)
(-0.0233616 0.000171822 -0.00108302)
(0.0010661 -1.27983e-06 -0.00156794)
(0.000171753 9.6809e-07 -0.00150215)
(0.000171753 9.6809e-07 -0.00150215)
(-0.00109168 -1.34906e-06 -0.00156148)
(-0.00335806 1.74565e-05 -0.00158485)
(-0.00699114 -2.75479e-05 -0.0015599)
(-0.0126413 -9.55824e-06 -0.00149982)
(-0.0229379 0.000104216 -0.00156946)
(-0.0264713 0.000164231 -0.00155269)
(-0.0216356 8.2433e-05 -0.00113919)
(0.00101651 -2.27503e-05 -0.00169965)
(0.00029718 -4.2596e-05 -0.0016144)
(-0.00109168 -1.34906e-06 -0.00156148)
(-0.00335806 1.74565e-05 -0.00158485)
(-0.00335806 1.74565e-05 -0.00158485)
(-0.00619233 5.30337e-05 -0.00167468)
(-0.0123725 3.23387e-06 -0.00160784)
(-0.0209598 3.94001e-05 -0.00153572)
(-0.0238627 0.000106027 -0.00146734)
(-0.0199219 6.70478e-05 -0.00112904)
(0.00128994 -8.28851e-05 -0.00176918)
(0.0011207 -7.08691e-05 -0.00165351)
(-0.000482896 1.39211e-05 -0.00163371)
(-0.00272717 4.49747e-05 -0.00168297)
(-0.00619233 5.30337e-05 -0.00167468)
(-0.0123725 3.23387e-06 -0.00160784)
(-0.0123725 3.23387e-06 -0.00160784)
)
;
    }
    procBoundary7to6
    {
        type            processor;
        value           nonuniform List<vector> 
12
(
(0.00161415 9.69158e-05 -0.00146895)
(0.00145412 0.000179493 -0.00148954)
(0.00113021 0.000222593 -0.00149473)
(0.00179178 9.36299e-05 -0.00167798)
(0.00181589 0.000122971 -0.00169999)
(0.00178302 0.000160417 -0.00172397)
(0.00180129 6.49387e-05 -0.00186291)
(0.00181821 7.43282e-05 -0.00189235)
(0.00179338 0.000136725 -0.00188853)
(0.00192608 1.758e-05 -0.001966)
(0.00209352 5.96616e-05 -0.00198052)
(0.00203493 0.000135028 -0.00193555)
)
;
    }
}


// ************************************************************************* //
