/*--------------------------------*- C++ -*----------------------------------*\
| =========                 |                                                 |
| \\      /  F ield         | OpenFOAM: The Open Source CFD Toolbox           |
|  \\    /   O peration     | Version:  4.x                                   |
|   \\  /    A nd           | Web:      www.OpenFOAM.org                      |
|    \\/     M anipulation  |                                                 |
\*---------------------------------------------------------------------------*/
FoamFile
{
    version     2.0;
    format      ascii;
    class       volScalarField;
    location    "1.5";
    object      Qsource;
}
// * * * * * * * * * * * * * * * * * * * * * * * * * * * * * * * * * * * * * //

dimensions      [1 -1 -3 0 0 0 0];

internalField   nonuniform List<scalar> 
132
(
9.2186e+09
8.82325e+09
5.50855e+09
7.6252e+09
8.15632e+09
8.47943e+09
6.89175e+09
5.04606e+09
6.05352e+09
6.87101e+09
1.01691e+10
6.70817e+09
7.89298e+09
7.38335e+09
5.92645e+09
6.88724e+09
6.81398e+09
6.11832e+09
6.10701e+09
9.39827e+09
7.02191e+09
9.79438e+09
8.6949e+09
1.19378e+10
9.95409e+09
1.07167e+10
1.13272e+10
7.33396e+09
1.09958e+10
1.26786e+10
9.25654e+09
1.26004e+10
1.30193e+10
1.42752e+10
1.42474e+10
8.15497e+09
5.50243e+09
7.16568e+09
4.76408e+09
5.39921e+09
6.97198e+09
7.80509e+09
5.13633e+09
3.32842e+09
8.53225e+09
6.64907e+09
7.18181e+09
6.63664e+09
5.57886e+09
5.56929e+09
6.44547e+09
3.90868e+09
6.27662e+09
1.05689e+10
8.49858e+09
7.16931e+09
9.18241e+09
1.14031e+10
1.07943e+10
9.2153e+09
7.563e+09
8.17603e+09
1.27952e+10
1.04067e+10
1.23485e+10
1.30535e+10
1.16503e+10
1.28834e+10
1.51524e+10
9.52124e+09
4.07572e+09
6.08029e+09
7.52017e+09
8.17813e+09
6.34117e+09
8.28198e+09
7.39858e+09
6.7311e+09
5.47576e+09
7.92693e+09
7.25018e+09
6.80642e+09
8.44715e+09
6.42654e+09
8.63731e+09
9.47466e+09
9.20773e+09
9.40734e+09
1.07566e+10
1.0685e+10
9.27692e+09
8.9496e+09
7.51887e+09
8.5231e+09
1.05176e+10
1.08862e+10
1.22932e+10
1.08417e+10
1.1225e+10
1.29747e+10
1.1065e+10
7.37322e+09
1.04542e+10
1.35511e+10
8.77782e+09
8.25397e+09
8.71352e+09
7.78987e+09
1.03161e+10
4.61559e+09
5.96266e+09
6.50593e+09
9.41003e+09
7.504e+09
8.30479e+09
8.98007e+09
7.93497e+09
1.02142e+10
8.74682e+09
9.1404e+09
7.52132e+09
9.87542e+09
7.6059e+09
1.09338e+10
1.36441e+10
1.13222e+10
1.3925e+10
1.50866e+10
1.4189e+10
1.42224e+10
1.55336e+10
1.07184e+10
)
;

boundaryField
{
    inlet
    {
        type            calculated;
        value           nonuniform 0();
    }
    outlet
    {
        type            calculated;
        value           uniform 0;
    }
    wall
    {
        type            calculated;
        value           uniform 0;
    }
    procBoundary7to0
    {
        type            processor;
        value           uniform 2.41787e+09;
    }
    procBoundary7to1
    {
        type            processor;
        value           uniform 5.29868e+09;
    }
    procBoundary7to3
    {
        type            processor;
        value           nonuniform List<scalar> 
36
(
7.26955e+09
9.44575e+09
7.25053e+09
8.87185e+09
6.10012e+09
5.23218e+09
9.93344e+09
6.73654e+09
6.71351e+09
8.49582e+09
5.56863e+09
7.00583e+09
4.19172e+09
4.71019e+09
6.849e+09
7.5016e+09
8.42575e+09
5.18509e+09
5.91751e+09
1.05906e+10
9.50384e+09
7.08689e+09
7.22442e+09
9.84969e+09
7.19803e+09
9.25677e+09
6.83998e+09
9.77939e+09
7.83309e+09
8.011e+09
9.98224e+09
1.00549e+10
1.28703e+10
1.03362e+10
1.3886e+10
1.3819e+10
)
;
    }
    procBoundary7to5
    {
        type            processor;
        value           nonuniform List<scalar> 
44
(
8.96188e+09
5.19295e+09
7.10829e+09
4.94666e+09
3.80175e+09
6.52475e+09
5.74107e+09
7.41512e+09
9.12291e+09
4.59381e+09
6.4146e+09
7.49109e+09
5.25142e+09
6.28293e+09
5.81326e+09
7.23409e+09
4.60578e+09
9.12291e+09
4.59381e+09
4.59381e+09
9.54353e+09
8.81883e+09
1.15554e+10
9.62432e+09
9.07036e+09
1.17399e+10
9.60233e+09
3.87153e+09
1.09594e+10
9.54353e+09
8.81883e+09
8.81883e+09
1.50036e+10
1.29094e+10
1.04287e+10
1.17737e+10
1.06212e+10
9.44484e+09
8.87372e+09
9.8559e+09
1.04016e+10
1.50036e+10
1.29094e+10
1.29094e+10
)
;
    }
    procBoundary7to6
    {
        type            processor;
        value           nonuniform List<scalar> 
12
(
7.2547e+09
8.8877e+09
7.85096e+09
8.49542e+09
9.30602e+09
1.16814e+10
8.9493e+09
9.92758e+09
9.62327e+09
6.13629e+09
1.11574e+10
1.18002e+10
)
;
    }
}


// ************************************************************************* //
