/*--------------------------------*- C++ -*----------------------------------*\
| =========                 |                                                 |
| \\      /  F ield         | OpenFOAM: The Open Source CFD Toolbox           |
|  \\    /   O peration     | Version:  4.x                                   |
|   \\  /    A nd           | Web:      www.OpenFOAM.org                      |
|    \\/     M anipulation  |                                                 |
\*---------------------------------------------------------------------------*/
FoamFile
{
    version     2.0;
    format      ascii;
    class       volScalarField;
    location    "1.5";
    object      thCond;
}
// * * * * * * * * * * * * * * * * * * * * * * * * * * * * * * * * * * * * * //

dimensions      [1 1 -3 -1 0 0 0];

internalField   nonuniform List<scalar> 
132
(
190.058
190.015
190.075
189.831
189.468
189.414
189.487
189.718
189.529
190.23
189.934
189.994
189.899
189.654
189.729
189.58
189.652
189.552
190.581
190.187
190.152
190.02
189.79
189.618
189.589
189.66
189.617
190.8
190.356
190.101
190.229
189.954
189.847
189.699
189.903
190.157
189.84
189.597
189.541
189.431
189.263
189.311
189.444
190.248
189.783
189.712
189.63
189.415
189.473
189.437
189.363
189.529
190.299
189.852
189.83
189.831
189.531
189.352
189.255
189.432
189.454
190.474
189.994
189.977
189.846
189.684
189.682
189.553
189.56
189.908
189.544
189.495
189.357
189.441
189.549
189.956
189.799
189.666
189.717
189.391
189.469
189.377
189.275
189.417
190.106
189.901
189.742
189.697
189.45
189.438
189.375
189.44
189.455
190.418
190.088
189.879
189.802
189.749
189.757
189.512
189.629
189.852
189.596
189.58
189.669
190.102
190.007
189.681
189.631
189.699
189.825
189.56
189.555
189.726
190.216
190.075
189.934
189.822
189.665
189.669
189.537
189.618
189.666
190.325
190.049
190.072
189.97
189.79
189.739
189.672
189.812
190.178
)
;

boundaryField
{
    inlet
    {
        type            zeroGradient;
    }
    outlet
    {
        type            zeroGradient;
    }
    wall
    {
        type            zeroGradient;
    }
    procBoundary7to0
    {
        type            processor;
        value           uniform 190.854;
    }
    procBoundary7to1
    {
        type            processor;
        value           uniform 190.425;
    }
    procBoundary7to3
    {
        type            processor;
        value           nonuniform List<scalar> 
36
(
190.581
190.401
190.321
190.182
190.285
190.196
189.912
190.054
190.063
190.588
190.643
190.424
190.603
190.499
190.154
189.99
189.897
190.112
190.919
190.598
190.487
190.614
190.394
190.127
190.127
190.05
190.213
190.963
191.063
190.862
190.754
190.547
190.307
190.279
190.073
190.095
)
;
    }
    procBoundary7to5
    {
        type            processor;
        value           nonuniform List<scalar> 
44
(
190.149
190.23
189.986
189.968
189.949
189.736
189.815
189.688
189.875
190.077
189.876
189.689
189.636
189.531
189.456
189.479
189.634
189.875
190.077
190.077
189.494
189.496
189.267
189.356
189.272
189.258
189.353
190.194
189.696
189.494
189.496
189.496
189.258
189.381
189.528
189.509
189.558
190.068
189.996
189.664
189.613
189.258
189.381
189.381
)
;
    }
    procBoundary7to6
    {
        type            processor;
        value           nonuniform List<scalar> 
12
(
190.534
190.588
190.955
190.099
190.2
190.421
190.03
190.102
190.479
190.388
190.182
190.489
)
;
    }
}


// ************************************************************************* //
