/*--------------------------------*- C++ -*----------------------------------*\
| =========                 |                                                 |
| \\      /  F ield         | OpenFOAM: The Open Source CFD Toolbox           |
|  \\    /   O peration     | Version:  4.x                                   |
|   \\  /    A nd           | Web:      www.OpenFOAM.org                      |
|    \\/     M anipulation  |                                                 |
\*---------------------------------------------------------------------------*/
FoamFile
{
    version     2.0;
    format      ascii;
    class       volVectorField;
    location    "18.5";
    object      GField;
}
// * * * * * * * * * * * * * * * * * * * * * * * * * * * * * * * * * * * * * //

dimensions      [1 -2 -1 0 0 0 0];

internalField   nonuniform List<vector> 
108
(
(76.6351 -0.27284 -1.14913)
(124.232 1.12129 -1.63676)
(76.6682 1.56422 -0.252508)
(127.313 3.08875 2.29455)
(70.3569 3.11741 0.857836)
(129.549 4.60929 7.52295)
(55.799 6.61923 -1.88136)
(141.63 1.61366 10.7967)
(35.7395 20.6174 -42.0232)
(72.2964 -0.91601 -0.00562156)
(120.405 -1.25597 -0.718059)
(71.7167 -1.20049 2.50189)
(123.247 -1.76877 3.21809)
(64.9111 -2.6051 7.04568)
(120.904 -2.03494 7.12945)
(48.6204 -7.16053 12.8275)
(112.237 0.103759 8.40352)
(25.8687 -20.33 -9.98088)
(77.4766 0.0791034 -0.847469)
(123.426 0.367646 -0.976758)
(76.404 -0.150519 0.989927)
(123.548 0.303403 2.95195)
(64.7945 2.82132 4.68062)
(113.915 0.652077 9.41217)
(37.9756 7.65279 7.25024)
(85.3175 -5.9369 11.5352)
(8.86979 8.36451 2.69433)
(92.5979 -0.0495472 -1.06565)
(137.61 0.0763809 -1.6129)
(96.9535 0.530684 0.993623)
(143.62 0.225514 0.759973)
(95.6796 5.09778 5.69996)
(152.022 1.97133 5.50162)
(84.9493 16.3732 17.2336)
(162.171 -1.06602 9.62253)
(50.6961 50.875 -55.1792)
(20.0044 0.219672 -1.6128)
(92.3646 1.916 0.219907)
(13.1158 0.615299 -0.880256)
(93.6905 1.82383 3.50033)
(11.5712 1.28406 -1.35865)
(96.6843 1.42864 7.30898)
(18.5583 5.19411 -5.3459)
(96.9927 -1.44909 13.6794)
(32.9574 34.8814 -55.0786)
(23.6398 -0.37149 -2.00294)
(97.5742 -0.23148 -0.0838026)
(18.9223 0.13551 -1.38465)
(102.752 -1.02995 3.94845)
(16.5091 0.472732 -1.56365)
(112.429 -1.33796 10.479)
(16.008 0.96637 -1.68934)
(131.371 -0.798731 19.3119)
(21.779 2.81351 -43.8734)
(30.8795 0.0055379 -1.84213)
(96.8282 1.49173 -1.38783)
(23.745 0.147678 -0.514415)
(97.6745 0.714405 4.41584)
(17.451 1.27512 0.270005)
(98.6176 -0.107911 11.1206)
(15.8625 4.67215 1.77522)
(90.2904 -11.352 16.1558)
(21.7145 32.0739 4.77753)
(67.2463 1.4396 -4.88948)
(119.386 1.75694 -4.58676)
(68.2004 2.5318 -4.44275)
(126.879 0.688003 -1.53344)
(66.2265 6.88122 -3.55957)
(144.525 -0.557621 4.96753)
(62.0032 19.7851 -0.171118)
(190.905 -7.49944 16.4092)
(33.5447 69.4406 -72.4278)
(-0.000519076 5.75907e-05 -7.23033e-05)
(84.4445 -0.518693 2.04229)
(-0.00059893 7.77331e-05 -1.79455e-05)
(84.8878 0.543226 3.38463)
(-0.000476421 5.35258e-06 5.82759e-05)
(84.8288 3.03086 3.20371)
(0.159328 0.0208833 -0.062903)
(80.7955 0.887539 5.59563)
(11.5874 4.18017 -9.18696)
(4.56951 0.0927425 -0.194294)
(87.0197 -1.497 2.4196)
(-0.000550523 5.58009e-05 -3.22629e-05)
(88.1556 -0.265971 4.23084)
(-0.000425695 4.02591e-06 4.56507e-05)
(90.0497 0.550318 6.06144)
(9.40625 1.4286 -2.50758)
(93.3041 -1.30984 8.50162)
(30.5938 10.8713 -32.1409)
(7.11424 0.352627 -0.255682)
(88.0442 0.770783 2.2655)
(0.00127078 0.000171318 -2.4093e-05)
(89.7198 0.700266 5.19909)
(-0.000373805 -3.77495e-05 6.88112e-06)
(91.8543 -2.16093 7.35133)
(6.76514 2.37893 0.0869712)
(99.373 -12.2057 8.95454)
(18.2333 18.7097 -6.01223)
(48.664 1.0794 -2.61628)
(104.776 1.90009 -1.47951)
(47.0317 1.04087 -1.66207)
(108.207 0.0489506 1.59152)
(43.9225 2.87649 -1.3929)
(116.33 -1.12964 5.9526)
(38.3429 6.7612 -2.21172)
(139.537 -7.33695 15.6317)
(17.4984 12.2384 -7.06949)
)
;

boundaryField
{
    inlet
    {
        type            calculated;
        value           nonuniform 0();
    }
    outlet
    {
        type            calculated;
        value           nonuniform List<vector> 
12
(
(74.09 42.7411 -87.1164)
(53.5058 -42.0498 -20.644)
(18.5239 17.4687 5.6269)
(102.171 102.532 -111.206)
(70.807 74.9404 -118.333)
(46.7253 6.03618 -94.1273)
(46.567 68.7826 10.2455)
(71.5419 148.098 -154.469)
(25.2505 9.10914 -20.0196)
(66.622 23.6736 -69.991)
(39.5696 40.6034 -13.0476)
(38.1826 26.7051 -15.4261)
)
;
    }
    wall
    {
        type            calculated;
        value           uniform (0 0 0);
    }
    procBoundary3to1
    {
        type            processor;
        value           nonuniform List<vector> 
27
(
(70.9795 -1.48057 -0.494846)
(119.486 -0.498479 -1.50042)
(65.8126 -1.50718 1.38018)
(116.69 0.119946 2.8921)
(49.5433 -3.62861 3.33179)
(105.452 0.923693 5.83416)
(25.164 -5.39659 3.64158)
(80.1187 7.46881 2.48587)
(11.9503 -5.08336 3.2678)
(17.6585 -0.848787 -1.56433)
(94.5288 -1.53371 1.70858)
(6.17461 -0.524159 -0.583102)
(95.3251 0.937756 5.17051)
(-0.000451258 6.70974e-06 0.000108661)
(93.9825 4.38968 7.67224)
(-6.89845e-05 -2.51056e-06 0.000120851)
(82.9835 12.0872 10.8275)
(7.83648 -9.0421 -2.67045)
(-0.000489221 5.22404e-05 -6.10551e-05)
(84.0995 0.577002 2.80391)
(-0.000531436 8.79839e-05 -1.46031e-05)
(83.2982 0.135618 3.54811)
(-0.000450889 7.18908e-05 1.4159e-05)
(81.4382 -0.366987 2.95157)
(0.113321 -0.0282415 -0.0315238)
(72.903 4.57139 2.79433)
(14.6 -3.55303 -6.74337)
)
;
    }
    procBoundary3to2
    {
        type            processor;
        value           nonuniform List<vector> 
12
(
(120.203 0.0654083 -3.25612)
(116.931 -0.459836 -2.80349)
(119.767 0.748091 -2.509)
(129.901 0.4779 -2.4639)
(92.0899 0.765455 -3.67338)
(95.2988 -0.161557 -4.41631)
(97.3229 1.75243 -4.814)
(114.594 2.2591 -6.40644)
(84.6189 -0.0932872 -0.533988)
(86.5135 -0.436588 -0.317255)
(87.3422 1.61684 -0.513752)
(102.265 2.27546 -3.03676)
)
;
    }
    procBoundary3to7
    {
        type            processor;
        value           nonuniform List<vector> 
36
(
(6.33051 0.210925 -0.61487)
(83.4026 0.749982 1.2921)
(1.83331 0.143172 -0.243773)
(81.7309 0.711487 2.71746)
(-0.000431785 4.20148e-05 9.63144e-06)
(78.3808 0.385856 4.26766)
(-0.000169335 3.93063e-06 3.15085e-05)
(73.4463 -2.08545 4.82126)
(8.33527 2.3567 -3.18472)
(13.2676 1.33417 -1.09056)
(89.6467 1.48193 1.86453)
(11.5334 1.82129 -1.48072)
(91.2573 0.78034 2.57467)
(10.6403 2.64622 -2.25655)
(91.4144 0.855291 3.88515)
(11.6881 4.66917 -4.57111)
(85.6006 -2.48554 7.53053)
(17.962 8.6534 -14.5457)
(21.0874 0.458117 -1.70836)
(91.4165 1.64049 1.00609)
(20.0378 0.7863 -2.14649)
(93.0982 1.43368 2.86776)
(20.1596 2.56628 -3.51859)
(93.2875 -0.140959 3.68139)
(23.8371 9.37053 -8.33695)
(88.6983 -7.93974 7.16761)
(30.9102 43.4983 -32.944)
(49.8312 1.44535 -4.1917)
(106.391 1.4594 -2.31592)
(50.2689 2.3601 -4.71426)
(113.428 0.263535 -0.0753981)
(50.1113 5.05648 -6.43373)
(125.643 -2.42899 4.47769)
(45.9289 12.4843 -11.8468)
(151.815 -10.1806 14.79)
(29.3033 41.7653 -29.0347)
)
;
    }
}


// ************************************************************************* //
