/*--------------------------------*- C++ -*----------------------------------*\
| =========                 |                                                 |
| \\      /  F ield         | OpenFOAM: The Open Source CFD Toolbox           |
|  \\    /   O peration     | Version:  4.x                                   |
|   \\  /    A nd           | Web:      www.OpenFOAM.org                      |
|    \\/     M anipulation  |                                                 |
\*---------------------------------------------------------------------------*/
FoamFile
{
    version     2.0;
    format      ascii;
    class       volScalarField;
    location    "18.5";
    object      p;
}
// * * * * * * * * * * * * * * * * * * * * * * * * * * * * * * * * * * * * * //

dimensions      [1 -1 -2 0 0 0 0];

internalField   nonuniform List<scalar> 
108
(
5654.62
5705.39
5635.8
5698.66
5616.59
5693.29
5596.63
5689.48
5572.72
5654.87
5705.63
5635.89
5699.09
5616.75
5693.66
5597.62
5689.71
5578.71
5654.8
5705.54
5635.99
5698.88
5617.12
5693.33
5598.79
5688.59
5582.77
5654.92
5705.54
5635.9
5698.9
5615.5
5693.73
5594.24
5691.71
5569.29
3776.92
3828.21
3758.37
3821
3739.6
3814.67
3721.16
3809.81
3702.98
3776.83
3828.32
3757.62
3821.54
3737.89
3816
3716.93
3812.2
3692.17
3777.13
3828.21
3758.25
3821.24
3739.11
3814.94
3719.97
3809.65
3703.43
3776.97
3827.98
3757.69
3821.46
3737.08
3816.18
3712.81
3815.18
3677.62
1900.49
1950.54
1882.32
1943.54
1864.22
1937.3
1846.43
1931.1
1829.73
1900.6
1950.63
1882.4
1943.88
1864.39
1937.27
1846.05
1930.93
1828.06
1900.18
1950.86
1881.67
1943.65
1863.35
1937.14
1844.44
1931.21
1825.38
1900.03
1950.54
1881.53
1943.83
1862.29
1937.79
1841.35
1933.73
1817.4
)
;

boundaryField
{
    inlet
    {
        type            calculated;
        value           nonuniform 0();
    }
    outlet
    {
        type            calculated;
        value           nonuniform List<scalar> 
12
(
5633.74
5633.74
5633.74
5633.74
3755.83
3755.83
3755.83
3755.83
1877.91
1877.91
1877.91
1877.91
)
;
    }
    wall
    {
        type            calculated;
        value           nonuniform List<scalar> 
63
(
6593.51
6593.79
6593.57
6593.86
6644.24
6644.5
6644.31
6644.46
6574.59
6574.68
6574.74
6574.79
6637.37
6637.79
6637.58
6637.75
6555.21
6555.34
6555.75
6554.3
6631.81
6632.14
6631.85
6632.47
6535.09
6536.01
6537.19
6532.88
6627.92
6628.05
6626.94
6630.27
6517.5
6530.02
6521.28
6539.92
5654.92
3776.97
1900.03
5705.54
3827.98
1950.54
5635.9
3757.69
1881.53
5698.9
3821.46
1943.83
5615.5
3737.08
1862.29
5693.73
3816.18
1937.79
5594.24
3712.81
1841.35
5691.71
3815.18
1933.73
5569.29
3677.62
1817.4
)
;
    }
    procBoundary3to1
    {
        type            processor;
        value           nonuniform List<scalar> 
27
(
5654.85
5705.95
5636.17
5699.62
5617.39
5694.33
5599.36
5689.01
5582.64
3776.96
3828.75
3758.21
3821.92
3739.29
3816.14
3720.62
3813.09
3710.76
1900.68
1950.53
1882.92
1943.97
1864.93
1937.97
1847.46
1931.29
1830.73
)
;
    }
    procBoundary3to2
    {
        type            processor;
        value           nonuniform List<scalar> 
12
(
5712.94
5713
5712.92
5712.79
3835.69
3835.65
3835.64
3835.25
1958.22
1958.25
1958.33
1957.9
)
;
    }
    procBoundary3to7
    {
        type            processor;
        value           nonuniform List<scalar> 
36
(
23.6494
73.0308
5.74233
65.6266
-11.9417
58.9145
-29.5164
52.4252
-45.5468
22.2064
72.9634
3.38436
66.1433
-15.3653
59.9511
-34.1806
55.0046
-51.6263
22.3296
72.7919
3.6677
65.6839
-15.1712
58.98
-34.3201
53.3337
-51.268
22.0129
72.6218
2.93762
65.9085
-17.1073
60.215
-39.7812
57.5519
-67.601
)
;
    }
}


// ************************************************************************* //
