/*--------------------------------*- C++ -*----------------------------------*\
| =========                 |                                                 |
| \\      /  F ield         | OpenFOAM: The Open Source CFD Toolbox           |
|  \\    /   O peration     | Version:  4.x                                   |
|   \\  /    A nd           | Web:      www.OpenFOAM.org                      |
|    \\/     M anipulation  |                                                 |
\*---------------------------------------------------------------------------*/
FoamFile
{
    version     2.0;
    format      ascii;
    class       volScalarField;
    location    "18.5";
    object      particleRelTemp;
}
// * * * * * * * * * * * * * * * * * * * * * * * * * * * * * * * * * * * * * //

dimensions      [0 0 0 0 0 0 0];

internalField   nonuniform List<scalar> 
108
(
6.26535e-08
5.8851e-08
5.06503e-08
4.27486e-08
2.68831e-08
1.33608e-08
1.84555e-09
-1.60227e-08
-1.3691e-08
5.08043e-08
4.64622e-08
4.38489e-08
2.80522e-08
1.37476e-08
-2.56226e-09
-9.29218e-09
-1.78537e-08
-2.14339e-08
2.32266e-08
1.91493e-08
1.68954e-08
5.18558e-09
-4.71132e-09
-2.09089e-08
-2.42685e-08
-3.54618e-08
-3.39577e-08
-4.08617e-09
-7.01235e-09
-2.41497e-08
-1.93557e-08
-2.33004e-08
-3.80569e-08
-5.07659e-08
-5.25981e-08
-5.78097e-08
8.32789e-08
8.84262e-08
7.41583e-08
6.17266e-08
4.5989e-08
3.00851e-08
1.72438e-08
3.08546e-09
-2.12206e-09
7.30865e-08
7.07078e-08
6.566e-08
5.13922e-08
3.27182e-08
2.30946e-08
5.85871e-09
-5.04224e-09
-9.27245e-09
4.42908e-08
4.48688e-08
3.81332e-08
2.54019e-08
1.14407e-08
-2.93301e-09
-1.29759e-08
-2.19822e-08
-2.4437e-08
2.16358e-08
1.38959e-08
6.72133e-09
7.18563e-10
-6.8763e-09
-2.50297e-08
-3.05525e-08
-3.90903e-08
-4.28918e-08
1.06269e-07
1.04838e-07
9.67819e-08
8.19672e-08
6.33472e-08
4.76468e-08
3.04255e-08
1.72831e-08
1.26295e-08
9.44561e-08
9.33443e-08
8.62391e-08
6.98676e-08
5.73351e-08
3.7396e-08
2.05881e-08
6.95792e-09
7.07578e-10
6.6017e-08
6.16882e-08
5.93767e-08
5.07391e-08
3.6582e-08
1.90852e-08
2.39586e-09
-8.68922e-09
-1.62898e-08
4.0475e-08
3.18504e-08
2.88953e-08
2.10496e-08
1.33507e-08
-4.87989e-09
-1.81581e-08
-2.50342e-08
-2.64232e-08
)
;

boundaryField
{
    inlet
    {
        type            calculated;
        value           nonuniform 0();
    }
    outlet
    {
        type            calculated;
        value           nonuniform List<scalar> 
12
(
-1.3691e-08
-2.14339e-08
-3.39577e-08
-5.78097e-08
-2.12206e-09
-9.27245e-09
-2.4437e-08
-4.28918e-08
1.26295e-08
7.07578e-10
-1.62898e-08
-2.64232e-08
)
;
    }
    wall
    {
        type            calculated;
        value           nonuniform List<scalar> 
63
(
6.26535e-08
5.08043e-08
2.32266e-08
-4.08617e-09
5.8851e-08
4.64622e-08
1.91493e-08
-7.01235e-09
5.06503e-08
4.38489e-08
1.68954e-08
-2.41497e-08
4.27486e-08
2.80522e-08
5.18558e-09
-1.93557e-08
2.68831e-08
1.37476e-08
-4.71132e-09
-2.33004e-08
1.33608e-08
-2.56226e-09
-2.09089e-08
-3.80569e-08
1.84555e-09
-9.29218e-09
-2.42685e-08
-5.07659e-08
-1.60227e-08
-1.78537e-08
-3.54618e-08
-5.25981e-08
-1.3691e-08
-2.14339e-08
-3.39577e-08
-5.78097e-08
-4.08617e-09
2.16358e-08
4.0475e-08
-7.01235e-09
1.38959e-08
3.18504e-08
-2.41497e-08
6.72133e-09
2.88953e-08
-1.93557e-08
7.18563e-10
2.10496e-08
-2.33004e-08
-6.8763e-09
1.33507e-08
-3.80569e-08
-2.50297e-08
-4.87989e-09
-5.07659e-08
-3.05525e-08
-1.81581e-08
-5.25981e-08
-3.90903e-08
-2.50342e-08
-5.78097e-08
-4.28918e-08
-2.64232e-08
)
;
    }
    procBoundary3to1
    {
        type            processor;
        value           nonuniform List<scalar> 
27
(
5.45605e-08
4.95674e-08
4.44271e-08
3.63994e-08
2.23912e-08
8.71676e-09
-2.98938e-09
-1.7126e-08
-1.66452e-08
8.32206e-08
7.11244e-08
6.56746e-08
5.2641e-08
4.03469e-08
2.78109e-08
1.39148e-08
4.98489e-09
-1.02646e-10
9.65746e-08
9.61968e-08
8.83943e-08
8.23363e-08
6.55149e-08
4.60701e-08
2.59418e-08
1.96702e-08
1.12713e-08
)
;
    }
    procBoundary3to2
    {
        type            processor;
        value           nonuniform List<scalar> 
12
(
5.49554e-08
4.6056e-08
2.74474e-08
-1.39225e-09
7.87118e-08
7.09675e-08
4.76909e-08
1.70692e-08
9.94685e-08
8.58198e-08
6.22152e-08
3.79108e-08
)
;
    }
    procBoundary3to7
    {
        type            processor;
        value           nonuniform List<scalar> 
36
(
1.05533e-07
1.05333e-07
9.92076e-08
8.4521e-08
6.77269e-08
4.9235e-08
3.26316e-08
2.07223e-08
1.46431e-08
9.40886e-08
9.62184e-08
8.87698e-08
7.81889e-08
6.24315e-08
4.3812e-08
2.59372e-08
1.06353e-08
6.22088e-09
6.75683e-08
6.7525e-08
6.21332e-08
5.35554e-08
4.22129e-08
1.976e-08
6.06832e-09
-3.21076e-09
-1.00388e-08
4.29364e-08
3.92493e-08
3.76456e-08
2.79233e-08
2.04998e-08
1.28218e-09
-1.13599e-08
-2.48909e-08
-2.73172e-08
)
;
    }
}


// ************************************************************************* //
