/*--------------------------------*- C++ -*----------------------------------*\
| =========                 |                                                 |
| \\      /  F ield         | OpenFOAM: The Open Source CFD Toolbox           |
|  \\    /   O peration     | Version:  4.x                                   |
|   \\  /    A nd           | Web:      www.OpenFOAM.org                      |
|    \\/     M anipulation  |                                                 |
\*---------------------------------------------------------------------------*/
FoamFile
{
    version     2.0;
    format      ascii;
    class       volScalarField;
    location    "18.5";
    object      Sm;
}
// * * * * * * * * * * * * * * * * * * * * * * * * * * * * * * * * * * * * * //

dimensions      [1 -3 -1 0 0 0 0];

internalField   nonuniform List<scalar> 
108
(
6.97417e-65
3.25463e-65
5.73439e-65
2.55727e-65
4.10714e-65
3.02229e-65
4.72717e-65
4.26228e-65
4.18478e-65
5.19193e-65
7.43922e-65
4.1071e-65
4.64959e-65
5.42456e-65
3.87476e-65
5.50217e-65
5.11474e-65
5.26974e-65
5.502e-65
5.50205e-65
6.19948e-65
3.71977e-65
4.88222e-65
3.71981e-65
5.73472e-65
5.2698e-65
4.02983e-65
4.64973e-65
3.56481e-65
4.10731e-65
5.88974e-65
4.80481e-65
4.64987e-65
3.17744e-65
5.3474e-65
4.41742e-65
7.51642e-65
6.27656e-65
9.06628e-65
8.52397e-65
7.59413e-65
6.27691e-65
6.04446e-65
6.58702e-65
8.91187e-65
6.6641e-65
6.19918e-65
7.51658e-65
7.28418e-65
6.81931e-65
6.27692e-65
8.60184e-65
7.05203e-65
6.97454e-65
1.03839e-64
7.51669e-65
7.43924e-65
8.44672e-65
6.81948e-65
7.36197e-65
6.58708e-65
7.20712e-65
7.90458e-65
7.74929e-65
5.65706e-65
6.35454e-65
6.50958e-65
8.0595e-65
5.65722e-65
6.74219e-65
6.81977e-65
5.65732e-65
7.67125e-65
9.06605e-65
8.75616e-65
8.52381e-65
6.12172e-65
6.27681e-65
8.52417e-65
7.1294e-65
7.43939e-65
9.06611e-65
5.03673e-65
7.74887e-65
4.33942e-65
4.64944e-65
7.9042e-65
7.28434e-65
8.83431e-65
6.12205e-65
5.11437e-65
8.1365e-65
8.214e-65
5.81182e-65
6.81929e-65
7.98182e-65
6.66452e-65
7.20703e-65
5.42469e-65
8.52413e-65
4.02963e-65
5.42451e-65
6.12201e-65
5.57957e-65
7.12956e-65
6.19967e-65
7.90464e-65
8.52459e-65
)
;

boundaryField
{
    inlet
    {
        type            calculated;
        value           nonuniform 0();
    }
    outlet
    {
        type            calculated;
        value           uniform 0;
    }
    wall
    {
        type            calculated;
        value           uniform 0;
    }
    procBoundary3to1
    {
        type            processor;
        value           nonuniform List<scalar> 
27
(
3.48713e-65
5.50193e-65
5.81191e-65
7.1293e-65
5.50201e-65
4.33968e-65
4.95967e-65
4.57225e-65
4.49475e-65
8.13637e-65
6.58664e-65
6.19922e-65
5.26936e-65
5.26944e-65
7.3618e-65
8.05933e-65
1.03067e-64
4.88215e-65
7.90378e-65
6.35402e-65
5.11423e-65
9.06623e-65
8.29144e-65
8.75653e-65
6.81936e-65
7.90431e-65
3.48722e-65
)
;
    }
    procBoundary3to2
    {
        type            processor;
        value           nonuniform List<scalar> 
12
(
2.63469e-65
3.95211e-65
5.26952e-65
3.09983e-65
9.22122e-65
5.19184e-65
5.96683e-65
4.26216e-65
8.13625e-65
4.88177e-65
8.36893e-65
6.66434e-65
)
;
    }
    procBoundary3to7
    {
        type            processor;
        value           nonuniform List<scalar> 
36
(
9.9184e-65
7.82624e-65
6.43151e-65
6.74154e-65
1.03062e-64
1.03838e-64
7.98171e-65
5.657e-65
8.3693e-65
7.67133e-65
9.45357e-65
7.28394e-65
6.89655e-65
8.29149e-65
5.65689e-65
7.51679e-65
6.3545e-65
8.05939e-65
4.80439e-65
7.43906e-65
6.12177e-65
7.12918e-65
7.43922e-65
8.05928e-65
7.51691e-65
7.207e-65
8.60195e-65
6.50935e-65
6.58687e-65
8.67915e-65
5.502e-65
7.28439e-65
6.74204e-65
7.90452e-65
5.88973e-65
4.33981e-65
)
;
    }
}


// ************************************************************************* //
