/*--------------------------------*- C++ -*----------------------------------*\
| =========                 |                                                 |
| \\      /  F ield         | OpenFOAM: The Open Source CFD Toolbox           |
|  \\    /   O peration     | Version:  4.x                                   |
|   \\  /    A nd           | Web:      www.OpenFOAM.org                      |
|    \\/     M anipulation  |                                                 |
\*---------------------------------------------------------------------------*/
FoamFile
{
    version     2.0;
    format      ascii;
    class       volVectorField;
    location    "57.5";
    object      DDtUrel;
}
// * * * * * * * * * * * * * * * * * * * * * * * * * * * * * * * * * * * * * //

dimensions      [0 1 -2 0 0 0 0];

internalField   nonuniform List<vector> 
114
(
(0.000531185 2.51335e-07 -7.26686e-07)
(0.000389398 -5.98193e-07 2.00414e-05)
(0.000315277 -1.10329e-06 3.49927e-05)
(0.000245868 6.79576e-07 3.82896e-05)
(0.000220677 7.60307e-07 3.90816e-05)
(0.000170162 -4.02087e-06 2.99818e-05)
(0.00176832 1.70228e-05 -0.000172183)
(0.00112668 1.07645e-05 -9.42127e-05)
(0.000740508 4.18947e-06 -3.29712e-05)
(0.000521243 -3.51396e-06 3.24963e-06)
(0.000378873 -1.02622e-05 2.21143e-05)
(0.000301614 -1.37699e-05 3.43565e-05)
(0.000231961 -1.4349e-05 3.89736e-05)
(0.000198148 -1.19172e-05 4.08802e-05)
(0.000146752 -1.10391e-05 3.35897e-05)
(0.00180331 5.84765e-05 -0.000164856)
(0.00116955 2.66609e-05 -8.90074e-05)
(0.000785595 8.46549e-06 -2.94621e-05)
(0.000568854 -3.9871e-06 6.75248e-06)
(0.000425544 -1.48725e-05 2.54124e-05)
(0.000349911 -2.14713e-05 3.69231e-05)
(0.000278728 -2.48972e-05 4.05237e-05)
(0.000248045 -2.40828e-05 4.08576e-05)
(0.000199049 -1.74306e-05 3.67115e-05)
(0.00184563 5.51303e-05 -0.000157713)
(0.00122192 2.69402e-05 -8.61975e-05)
(0.000841521 6.74919e-06 -2.9624e-05)
(0.000629928 -7.3308e-06 6.06364e-06)
(0.00048686 -1.98213e-05 2.54443e-05)
(0.000412854 -2.78603e-05 3.76186e-05)
(0.000337797 -3.54291e-05 4.21408e-05)
(0.000298656 -3.69924e-05 4.11541e-05)
(0.000246457 -3.97615e-05 3.66383e-05)
(0.000224362 -1.66419e-07 3.49273e-05)
(0.000166561 8.72019e-07 3.1336e-05)
(0.000147802 1.96566e-06 3.35558e-05)
(0.000109385 1.68738e-07 2.25191e-05)
(0.00170628 2.48452e-05 -0.000197644)
(0.00104198 1.20652e-05 -9.64532e-05)
(0.000650154 5.68883e-06 -3.25167e-05)
(0.000429721 -8.39037e-07 7.4457e-06)
(0.000294955 -7.20312e-06 2.07019e-05)
(0.000222677 -1.23123e-05 3.49579e-05)
(0.000165317 -1.11468e-05 3.26017e-05)
(0.000137332 -1.06281e-05 3.77561e-05)
(0.000103859 -8.39223e-06 2.63868e-05)
(0.00174399 6.71971e-05 -0.000193763)
(0.00108581 3.03657e-05 -9.56733e-05)
(0.00069439 8.52675e-06 -3.25025e-05)
(0.000477105 -3.93823e-06 6.20893e-06)
(0.000338726 -1.34743e-05 2.02712e-05)
(0.000267702 -1.97487e-05 3.23317e-05)
(0.000204004 -2.24376e-05 3.13412e-05)
(0.000181142 -2.44124e-05 3.47942e-05)
(0.000140325 -1.87494e-05 2.50009e-05)
(0.00179197 6.34787e-05 -0.000188021)
(0.00114481 3.03776e-05 -9.39193e-05)
(0.000755273 6.62691e-06 -3.40231e-05)
(0.000539541 -8.09206e-06 4.13181e-06)
(0.000397199 -1.93714e-05 1.85183e-05)
(0.000323226 -2.64199e-05 3.22052e-05)
(0.000253853 -3.20477e-05 3.25192e-05)
(0.000224668 -3.49157e-05 3.29223e-05)
(0.000177773 -3.68509e-05 2.33766e-05)
(9.04102e-05 3.9364e-06 2.22024e-05)
(6.1599e-05 7.37331e-07 1.4329e-05)
(0.00164983 2.82878e-05 -0.000179278)
(0.000965332 1.0939e-05 -8.30642e-05)
(0.000574343 3.02851e-06 -2.86964e-05)
(0.000354796 -4.54672e-06 7.21983e-06)
(0.000229028 -7.40705e-06 1.63412e-05)
(0.000157748 -1.23969e-05 2.74337e-05)
(0.000113141 -9.28652e-06 2.33256e-05)
(8.31285e-05 -8.87071e-06 2.44675e-05)
(6.25983e-05 -7.77929e-06 1.65694e-05)
(0.00168843 7.23658e-05 -0.00017316)
(0.0010089 3.16961e-05 -8.27893e-05)
(0.000613812 8.34676e-06 -3.1014e-05)
(0.000392541 -6.3719e-06 4.20825e-06)
(0.000260036 -1.34975e-05 1.53294e-05)
(0.000188572 -2.11917e-05 2.62869e-05)
(0.000135473 -2.03505e-05 2.24273e-05)
(0.000111231 -2.61735e-05 2.34514e-05)
(8.12499e-05 -1.94039e-05 1.54614e-05)
(0.0017388 7.06835e-05 -0.000170905)
(0.00106839 3.49677e-05 -8.45796e-05)
(0.000671726 8.37964e-06 -3.41848e-05)
(0.000449394 -7.94893e-06 1.6096e-06)
(0.000309583 -1.82947e-05 1.48506e-05)
(0.000231601 -2.42835e-05 2.65314e-05)
(0.000168371 -2.71604e-05 2.16835e-05)
(0.00014084 -3.31743e-05 2.22486e-05)
(9.89509e-05 -3.09687e-05 1.42483e-05)
(0.00161997 3.80872e-05 -0.000135388)
(0.000926346 1.72686e-05 -6.10225e-05)
(0.000535866 3.76279e-06 -2.36587e-05)
(0.000318512 -4.40662e-06 3.63883e-06)
(0.000195357 -6.61147e-06 1.07912e-05)
(0.000126817 -1.04115e-05 1.91666e-05)
(8.32186e-05 -9.01406e-06 1.40127e-05)
(5.86151e-05 -8.75978e-06 1.13216e-05)
(0.00166542 8.27002e-05 -0.000131427)
(0.000976781 3.38424e-05 -6.32285e-05)
(0.00057831 6.90349e-06 -2.71126e-05)
(0.000358097 -7.67691e-06 -1.19908e-06)
(0.000225542 -1.26758e-05 8.90843e-06)
(0.000158453 -1.92736e-05 1.71943e-05)
(0.000105388 -1.85529e-05 1.17748e-05)
(0.00171761 7.51725e-05 -0.000131125)
(0.00103455 3.40754e-05 -6.70867e-05)
(0.000630925 6.594e-06 -3.20066e-05)
(0.000405023 -9.64431e-06 -5.29668e-06)
(0.000264528 -1.75426e-05 8.42876e-06)
(0.000190995 -2.42425e-05 1.66985e-05)
)
;

boundaryField
{
    inlet
    {
        type            calculated;
        value           nonuniform List<vector> 
12
(
(0.00392699 1.05071e-05 -0.000345337)
(0.00401561 0.000272067 -0.000321545)
(0.00416068 0.00011068 -0.000274766)
(0.00374356 8.34422e-05 -0.000652024)
(0.00383366 0.000338455 -0.000668975)
(0.00403451 0.000162833 -0.000620608)
(0.00369804 8.19354e-05 -0.000575696)
(0.00375416 0.000328492 -0.000518856)
(0.00396741 0.000189509 -0.000513173)
(0.00368808 0.000172997 -0.000475499)
(0.00383125 0.000429131 -0.000412349)
(0.00404266 0.000190741 -0.000403111)
)
;
    }
    outlet
    {
        type            calculated;
        value           nonuniform 0();
    }
    wall
    {
        type            calculated;
        value           nonuniform List<vector> 
66
(
(0.00392699 1.05071e-05 -0.000345337)
(0.00401561 0.000272067 -0.000321545)
(0.00416068 0.00011068 -0.000274766)
(0.00040901 1.78808e-05 -4.68313e-05)
(0.000587552 1.90472e-05 -8.45696e-06)
(0.000830331 -8.68611e-06 -5.56461e-06)
(0.000311613 1.24932e-05 4.52363e-05)
(0.00049067 7.95904e-06 6.65788e-05)
(0.000730074 -1.7939e-05 5.09825e-05)
(0.000571609 4.80806e-06 1.13212e-05)
(0.000376176 -2.492e-05 4.80513e-05)
(0.000570574 -4.51398e-07 7.81434e-05)
(0.000871665 -2.04006e-05 6.27071e-05)
(0.000445378 -9.80895e-06 3.57268e-05)
(0.000249608 -4.56089e-05 4.41351e-05)
(0.000427381 -3.20698e-05 7.43333e-05)
(0.000725585 -5.08186e-05 7.00784e-05)
(0.000586281 -7.87876e-06 9.15775e-05)
(0.000329221 -4.30025e-05 4.74029e-05)
(0.000542632 -4.11211e-05 8.23034e-05)
(0.000883531 -5.342e-05 8.11175e-05)
(0.000359738 2.43926e-05 8.12209e-05)
(0.000134232 -4.77298e-05 6.4567e-05)
(0.000338653 -4.6291e-05 7.89897e-05)
(0.000659235 -9.75944e-05 9.44329e-05)
(0.000599552 2.24018e-05 0.000100271)
(0.000219561 -1.24988e-05 8.58242e-05)
(0.000509864 -3.98038e-05 7.29563e-05)
(0.000722364 -7.91166e-05 7.87303e-05)
(0.000259861 -6.92711e-05 4.95712e-05)
(-7.39225e-05 -2.60276e-05 2.58466e-05)
(0.000252922 5.85854e-05 6.16694e-05)
(0.000476217 -0.000117099 5.3315e-05)
(0.00416068 0.00011068 -0.000274766)
(0.00403451 0.000162833 -0.000620608)
(0.00396741 0.000189509 -0.000513173)
(0.00404266 0.000190741 -0.000403111)
(0.000830331 -8.68611e-06 -5.56461e-06)
(0.00048836 -3.46149e-06 -2.99998e-05)
(0.000233603 3.21814e-05 1.31977e-06)
(0.000254762 -1.35313e-05 -1.36685e-05)
(0.000730074 -1.7939e-05 5.09825e-05)
(0.000370247 -3.41846e-05 1.87737e-05)
(0.000153158 -1.39333e-05 -3.76807e-06)
(0.00015648 -3.36056e-05 -3.8162e-05)
(0.000871665 -2.04006e-05 6.27071e-05)
(0.000492268 -3.47763e-05 7.6565e-05)
(0.000216054 -2.65706e-05 8.01188e-05)
(0.000229431 -4.16932e-05 1.38339e-05)
(0.000725585 -5.08186e-05 7.00784e-05)
(0.000348593 -5.31031e-05 5.42106e-06)
(0.000130722 -4.61871e-05 2.6861e-05)
(0.000137378 -3.53441e-05 3.44359e-05)
(0.000883531 -5.342e-05 8.11175e-05)
(0.000484437 -5.36895e-05 7.59383e-05)
(0.000159286 -3.74867e-05 9.35742e-05)
(0.000263262 -5.09941e-05 7.87023e-05)
(0.000659235 -9.75944e-05 9.44329e-05)
(0.000280857 -7.51467e-05 3.95847e-05)
(9.04225e-06 -1.90332e-05 8.45622e-06)
(0.000722364 -7.91166e-05 7.87303e-05)
(0.000445324 -6.92289e-05 6.69042e-05)
(0.000126981 -7.8297e-05 5.88778e-05)
(0.000476217 -0.000117099 5.3315e-05)
(0.000195718 -0.000100006 -2.88546e-05)
(-9.41766e-05 -3.62912e-05 8.49737e-06)
)
;
    }
    procBoundary2to0
    {
        type            processor;
        value           nonuniform List<vector> 
44
(
(0.000547784 5.49727e-06 -2.24443e-06)
(0.000405394 1.05414e-05 1.7447e-05)
(0.000326439 1.03792e-05 2.95422e-05)
(0.000255262 9.52267e-06 3.31532e-05)
(0.000219103 1.0275e-05 3.32523e-05)
(0.000170994 1.2298e-05 2.09207e-05)
(0.00176932 -2.35032e-05 -0.000179996)
(0.00113252 -8.4568e-06 -9.49472e-05)
(0.000749114 -3.12759e-06 -3.59913e-05)
(0.000749114 -3.12759e-06 -3.59913e-05)
(0.000430749 1.68134e-06 8.18533e-06)
(0.000293962 5.25579e-07 2.15709e-05)
(0.000232574 1.20478e-05 3.35889e-05)
(0.000173843 1.0247e-05 2.97285e-05)
(0.000147067 1.11487e-05 3.14057e-05)
(0.000111918 9.99407e-06 2.04172e-05)
(0.00170065 -1.8755e-05 -0.000204079)
(0.00104037 -8.37267e-06 -9.61515e-05)
(0.00064958 -1.71703e-06 -3.15384e-05)
(0.000430749 1.68134e-06 8.18533e-06)
(0.000293962 5.25579e-07 2.15709e-05)
(0.000293962 5.25579e-07 2.15709e-05)
(0.000162463 -3.47419e-07 2.5544e-05)
(0.000112894 5.26013e-07 2.13611e-05)
(9.49094e-05 1.0265e-05 2.41393e-05)
(6.61822e-05 8.7482e-06 1.54803e-05)
(0.00164029 -2.13394e-05 -0.000183332)
(0.0009607 -9.92671e-06 -8.64201e-05)
(0.000570229 -3.72346e-06 -2.84521e-05)
(0.000355497 -5.33735e-07 8.29684e-06)
(0.000227889 -8.94932e-07 1.56633e-05)
(0.000162463 -3.47419e-07 2.5544e-05)
(0.000112894 5.26013e-07 2.13611e-05)
(0.000112894 5.26013e-07 2.13611e-05)
(5.02885e-05 5.58419e-07 1.60987e-05)
(3.02906e-05 3.66514e-07 1.04688e-05)
(0.00160943 -1.50584e-05 -0.000134085)
(0.000917057 -4.61755e-06 -6.39759e-05)
(0.000526072 -1.72114e-06 -2.34843e-05)
(0.00031193 7.96493e-07 2.02135e-06)
(0.000188978 1.20929e-07 9.58738e-06)
(0.000122982 -1.54119e-06 1.62498e-05)
(7.79402e-05 1.24998e-07 1.4163e-05)
(5.02885e-05 5.58419e-07 1.60987e-05)
)
;
    }
    procBoundary2to3
    {
        type            processor;
        value           nonuniform List<vector> 
12
(
(0.000170746 -1.46921e-06 2.69324e-05)
(0.000132479 -8.67217e-06 3.59307e-05)
(0.000193588 -1.79826e-05 3.89026e-05)
(0.000233039 -4.26022e-05 3.94199e-05)
(0.000107665 1.4834e-06 2.12973e-05)
(9.08807e-05 -6.62348e-06 2.4802e-05)
(0.000141685 -2.08057e-05 2.64224e-05)
(0.000170359 -3.92748e-05 2.44894e-05)
(4.94193e-05 -2.03577e-07 1.46884e-05)
(4.30305e-05 -6.05095e-06 1.40893e-05)
(7.19505e-05 -1.87767e-05 1.14613e-05)
(8.8635e-05 -3.34941e-05 1.1333e-05)
)
;
    }
    procBoundary2to6
    {
        type            processor;
        value           nonuniform List<vector> 
32
(
(3.73423e-05 -8.30806e-06 8.60076e-06)
(8.66172e-05 -2.34085e-05 1.17413e-05)
(5.64311e-05 -1.70442e-05 4.2778e-06)
(0.000129932 -2.84831e-05 8.67943e-06)
(0.000106338 -3.24894e-05 7.45974e-06)
(6.76891e-05 -3.01511e-05 2.86813e-07)
(0.00161366 3.4333e-05 -6.4373e-05)
(0.000909479 1.47489e-05 -3.2989e-05)
(0.00052097 2.58242e-06 -1.62142e-05)
(0.000300984 -6.00899e-06 -2.80888e-06)
(0.000181203 -7.37767e-06 2.82591e-06)
(0.000106786 -1.09315e-05 5.58183e-06)
(6.79699e-05 -1.00695e-05 5.02327e-06)
(3.73423e-05 -8.30806e-06 8.60076e-06)
(8.66172e-05 -2.34085e-05 1.17413e-05)
(4.05086e-05 -1.13915e-05 3.52505e-06)
(0.00165714 8.37093e-05 -6.65161e-05)
(0.000958422 3.14327e-05 -3.6795e-05)
(0.000559033 5.73655e-06 -1.96829e-05)
(0.000333539 -1.22672e-05 -6.00781e-06)
(0.000200998 -1.43508e-05 8.85968e-07)
(0.00012504 -2.24607e-05 4.02117e-06)
(8.66172e-05 -2.34085e-05 1.17413e-05)
(0.000129932 -2.84831e-05 8.67943e-06)
(7.68974e-05 -2.01901e-05 3.95348e-06)
(0.0017122 7.78631e-05 -7.00151e-05)
(0.00101738 3.45677e-05 -4.02901e-05)
(0.000609894 5.70936e-06 -2.38861e-05)
(0.0003747 -1.16859e-05 -8.83138e-06)
(0.00022915 -1.71287e-05 -1.20424e-06)
(0.000129932 -2.84831e-05 8.67943e-06)
(0.000146004 -2.31085e-05 3.28632e-06)
)
;
    }
}


// ************************************************************************* //
