/*--------------------------------*- C++ -*----------------------------------*\
| =========                 |                                                 |
| \\      /  F ield         | OpenFOAM: The Open Source CFD Toolbox           |
|  \\    /   O peration     | Version:  4.x                                   |
|   \\  /    A nd           | Web:      www.OpenFOAM.org                      |
|    \\/     M anipulation  |                                                 |
\*---------------------------------------------------------------------------*/
FoamFile
{
    version     2.0;
    format      ascii;
    class       volScalarField;
    location    "57.5";
    object      QPartFluid;
}
// * * * * * * * * * * * * * * * * * * * * * * * * * * * * * * * * * * * * * //

dimensions      [1 -1 -3 0 0 0 0];

internalField   nonuniform List<scalar> 
114
(
7.13695e+09
5.59529e+09
3.05429e+09
5.97502e+09
3.63748e+09
4.59583e+09
5.81666e+09
6.93245e+09
6.13413e+09
4.37807e+09
7.34027e+09
4.99363e+09
6.99798e+09
6.71359e+09
4.47032e+09
3.87896e+09
6.16782e+09
5.09709e+09
5.3947e+09
5.81376e+09
5.24867e+09
6.80398e+09
5.40454e+09
6.51348e+09
3.98685e+09
4.00634e+09
5.16134e+09
4.54318e+09
3.95973e+09
4.09744e+09
3.06199e+09
5.34395e+09
3.9822e+09
9.84946e+09
1.23061e+10
6.61537e+09
1.12338e+10
4.73264e+09
7.93672e+09
9.59213e+09
9.17218e+09
8.87959e+09
6.9799e+09
1.11426e+10
8.68612e+09
6.40392e+09
5.86026e+09
1.00173e+10
1.06632e+10
9.18832e+09
9.42226e+09
8.87558e+09
9.17306e+09
8.90716e+09
7.69146e+09
5.06477e+09
5.38265e+09
8.35994e+09
6.02944e+09
7.60108e+09
6.53539e+09
6.72067e+09
7.10399e+09
4.82066e+09
8.07626e+09
9.3083e+09
6.86084e+09
5.73223e+09
6.74291e+09
6.84472e+09
6.74724e+09
7.64129e+09
9.80579e+09
7.1798e+09
5.7299e+09
4.99191e+09
6.94955e+09
9.08588e+09
1.04538e+10
9.17187e+09
6.97602e+09
9.45892e+09
8.4475e+09
1.02213e+10
5.01002e+09
7.59962e+09
6.98238e+09
7.48243e+09
4.77953e+09
6.83224e+09
9.69164e+09
5.3311e+09
7.73245e+09
4.89822e+09
9.488e+09
1.03025e+10
7.15743e+09
8.2404e+09
6.28025e+09
7.5899e+09
7.52987e+09
5.87123e+09
7.91796e+09
1.05293e+10
6.62742e+09
9.12728e+09
7.73874e+09
1.03143e+10
4.25888e+09
6.30662e+09
7.51464e+09
7.25775e+09
6.75829e+09
6.51098e+09
)
;

boundaryField
{
    inlet
    {
        type            calculated;
        value           uniform 0;
    }
    outlet
    {
        type            calculated;
        value           nonuniform 0();
    }
    wall
    {
        type            calculated;
        value           uniform 0;
    }
    procBoundary2to0
    {
        type            processor;
        value           nonuniform List<scalar> 
44
(
5.06425e+09
5.56566e+09
4.89127e+09
3.98182e+09
5.17304e+09
8.5114e+09
2.97856e+09
4.53354e+09
3.50904e+09
3.50904e+09
5.51102e+09
1.1317e+10
6.74209e+09
1.05207e+10
6.89781e+09
6.35192e+09
7.96342e+09
7.03806e+09
7.79583e+09
5.51102e+09
1.1317e+10
1.1317e+10
8.04377e+09
8.78046e+09
6.42093e+09
5.39537e+09
6.90525e+09
8.6699e+09
9.57414e+09
8.99809e+09
9.97573e+09
8.04377e+09
8.78046e+09
8.78046e+09
5.62118e+09
2.62593e+09
4.82865e+09
6.73956e+09
9.84352e+09
1.02565e+10
5.52658e+09
9.88369e+09
8.59309e+09
5.62118e+09
)
;
    }
    procBoundary2to3
    {
        type            processor;
        value           nonuniform List<scalar> 
12
(
8.48993e+09
6.17964e+09
6.64141e+09
4.33781e+09
8.57934e+09
7.60122e+09
1.27462e+10
8.42892e+09
8.28122e+09
9.5587e+09
6.02608e+09
8.73674e+09
)
;
    }
    procBoundary2to6
    {
        type            processor;
        value           nonuniform List<scalar> 
32
(
8.12283e+09
6.83483e+09
8.97767e+09
5.70611e+09
6.23948e+09
5.62968e+09
9.95463e+09
8.95599e+09
6.08373e+09
7.9847e+09
1.10809e+10
6.07679e+09
8.71172e+09
8.12283e+09
6.83483e+09
6.67678e+09
6.30385e+09
9.21392e+09
8.17626e+09
1.02079e+10
8.8499e+09
8.71768e+09
6.83483e+09
5.70611e+09
8.74918e+09
4.68e+09
7.57981e+09
5.96056e+09
6.13605e+09
8.70217e+09
5.70611e+09
9.43183e+09
)
;
    }
}


// ************************************************************************* //
