/*--------------------------------*- C++ -*----------------------------------*\
| =========                 |                                                 |
| \\      /  F ield         | OpenFOAM: The Open Source CFD Toolbox           |
|  \\    /   O peration     | Version:  4.x                                   |
|   \\  /    A nd           | Web:      www.OpenFOAM.org                      |
|    \\/     M anipulation  |                                                 |
\*---------------------------------------------------------------------------*/
FoamFile
{
    version     2.0;
    format      ascii;
    class       volScalarField;
    location    "57.5";
    object      QWallFluidCoeff;
}
// * * * * * * * * * * * * * * * * * * * * * * * * * * * * * * * * * * * * * //

dimensions      [1 -1 -3 -1 0 0 0];

internalField   nonuniform List<scalar> 
114
(
-1.77322e+06
-3.10894e+06
-1.99113e+06
-3.23067e+06
-2.13107e+06
-3.35013e+06
-2.82625e+06
-1.41546e+06
-2.9263e+06
-1.62345e+06
-3.00184e+06
-1.7488e+06
-3.06508e+06
-1.79582e+06
-3.11844e+06
-2.84212e+06
-1.49109e+06
-2.98105e+06
-1.78143e+06
-3.11019e+06
-1.97922e+06
-3.21791e+06
-2.10574e+06
-3.31933e+06
-5.6999e+06
-3.2139e+06
-6.10766e+06
-3.98935e+06
-6.5237e+06
-4.59834e+06
-6.89353e+06
-5.01812e+06
-7.1511e+06
0
0
0
0
0
0
0
0
0
0
0
0
0
0
0
0
0
0
0
0
0
0
-2.81085e+06
-1.47332e+06
-2.91732e+06
-1.68188e+06
-3.02512e+06
-1.84585e+06
-3.12313e+06
-1.94989e+06
-3.21354e+06
0
0
0
0
0
0
0
0
0
0
0
0
0
0
0
0
0
0
0
0
-2.78337e+06
-1.36815e+06
-2.82342e+06
-1.45893e+06
-2.87294e+06
-1.53214e+06
-2.8879e+06
-1.53408e+06
-2.92054e+06
0
0
0
0
0
0
0
0
0
0
0
0
0
0
0
-2.76193e+06
-1.39595e+06
-2.80735e+06
-1.48802e+06
-2.85891e+06
-1.57081e+06
)
;

boundaryField
{
    inlet
    {
        type            calculated;
        value           uniform 0;
    }
    outlet
    {
        type            calculated;
        value           nonuniform 0();
    }
    wall
    {
        type            calculated;
        value           uniform 0;
    }
    procBoundary2to0
    {
        type            processor;
        value           uniform 0;
    }
    procBoundary2to3
    {
        type            processor;
        value           uniform 0;
    }
    procBoundary2to6
    {
        type            processor;
        value           uniform 0;
    }
}


// ************************************************************************* //
