/*--------------------------------*- C++ -*----------------------------------*\
| =========                 |                                                 |
| \\      /  F ield         | OpenFOAM: The Open Source CFD Toolbox           |
|  \\    /   O peration     | Version:  4.x                                   |
|   \\  /    A nd           | Web:      www.OpenFOAM.org                      |
|    \\/     M anipulation  |                                                 |
\*---------------------------------------------------------------------------*/
FoamFile
{
    version     2.0;
    format      ascii;
    class       volScalarField;
    location    "7";
    object      QWallFluid;
}
// * * * * * * * * * * * * * * * * * * * * * * * * * * * * * * * * * * * * * //

dimensions      [1 -1 -3 0 0 0 0];

internalField   nonuniform List<scalar> 
108
(
8.05539e+08
4.50774e+08
8.22586e+08
4.88172e+08
8.48475e+08
5.34672e+08
8.87382e+08
5.95549e+08
9.45152e+08
0
0
0
0
0
0
0
0
0
0
0
0
0
0
0
0
0
0
0
0
0
0
0
0
0
0
0
8.02769e+08
4.61893e+08
8.29255e+08
5.08546e+08
8.63636e+08
5.75967e+08
9.17342e+08
6.45674e+08
9.72704e+08
0
0
0
0
0
0
0
0
0
0
0
0
0
0
0
0
0
0
0
0
0
0
0
0
0
0
0
1.6109e+09
9.56108e+08
1.68909e+09
1.08017e+09
1.75578e+09
1.19317e+09
1.84622e+09
1.35254e+09
1.98346e+09
8.01552e+08
4.48582e+08
8.20274e+08
4.96042e+08
8.54291e+08
5.59988e+08
9.00938e+08
6.36751e+08
9.53125e+08
7.92741e+08
4.38372e+08
8.04547e+08
4.72369e+08
8.39198e+08
5.41716e+08
8.94452e+08
6.34614e+08
9.59464e+08
7.83717e+08
4.28308e+08
7.95248e+08
4.47964e+08
8.21383e+08
5.12996e+08
8.77067e+08
6.12086e+08
9.34565e+08
)
;

boundaryField
{
    inlet
    {
        type            calculated;
        value           uniform 0;
    }
    outlet
    {
        type            calculated;
        value           nonuniform 0();
    }
    wall
    {
        type            calculated;
        value           uniform 0;
    }
    procBoundary4to0
    {
        type            processor;
        value           nonuniform List<scalar> 
36
(
8.10894e+08
4.56087e+08
8.37666e+08
5.08706e+08
8.72553e+08
5.73714e+08
9.32428e+08
6.73298e+08
1.02089e+09
0
0
0
0
0
0
0
0
0
0
0
0
0
0
0
0
0
0
0
0
0
0
0
0
0
0
0
)
;
    }
    procBoundary4to5
    {
        type            processor;
        value           nonuniform List<scalar> 
12
(
6.55486e+08
0
0
0
7.13465e+08
0
0
0
1.53779e+09
6.97622e+08
7.06892e+08
6.71577e+08
)
;
    }
    procBoundary4to6
    {
        type            processor;
        value           nonuniform List<scalar> 
27
(
0
0
0
0
0
0
0
0
0
0
0
0
0
0
0
0
0
0
7.93568e+08
4.42322e+08
8.03918e+08
4.5618e+08
8.23914e+08
4.86006e+08
8.54272e+08
5.06587e+08
8.92267e+08
)
;
    }
}


// ************************************************************************* //
