/*--------------------------------*- C++ -*----------------------------------*\
| =========                 |                                                 |
| \\      /  F ield         | OpenFOAM: The Open Source CFD Toolbox           |
|  \\    /   O peration     | Version:  4.x                                   |
|   \\  /    A nd           | Web:      www.OpenFOAM.org                      |
|    \\/     M anipulation  |                                                 |
\*---------------------------------------------------------------------------*/
FoamFile
{
    version     2.0;
    format      ascii;
    class       volScalarField;
    location    "7";
    object      QWallFluidCoeff;
}
// * * * * * * * * * * * * * * * * * * * * * * * * * * * * * * * * * * * * * //

dimensions      [1 -1 -3 -1 0 0 0];

internalField   nonuniform List<scalar> 
108
(
-2.68513e+06
-1.50258e+06
-2.74195e+06
-1.62724e+06
-2.82825e+06
-1.78224e+06
-2.95794e+06
-1.98516e+06
-3.15051e+06
0
0
0
0
0
0
0
0
0
0
0
0
0
0
0
0
0
0
0
0
0
0
0
0
0
0
0
-2.6759e+06
-1.53964e+06
-2.76418e+06
-1.69515e+06
-2.87879e+06
-1.91989e+06
-3.05781e+06
-2.15225e+06
-3.24235e+06
0
0
0
0
0
0
0
0
0
0
0
0
0
0
0
0
0
0
0
0
0
0
0
0
0
0
0
-5.36968e+06
-3.18703e+06
-5.63031e+06
-3.60057e+06
-5.85259e+06
-3.97724e+06
-6.15407e+06
-4.50846e+06
-6.61154e+06
-2.67184e+06
-1.49527e+06
-2.73425e+06
-1.65347e+06
-2.84764e+06
-1.86663e+06
-3.00313e+06
-2.1225e+06
-3.17708e+06
-2.64247e+06
-1.46124e+06
-2.68182e+06
-1.57456e+06
-2.79733e+06
-1.80572e+06
-2.98151e+06
-2.11538e+06
-3.19821e+06
-2.61239e+06
-1.42769e+06
-2.65083e+06
-1.49321e+06
-2.73794e+06
-1.70999e+06
-2.92356e+06
-2.04029e+06
-3.11522e+06
)
;

boundaryField
{
    inlet
    {
        type            calculated;
        value           uniform 0;
    }
    outlet
    {
        type            calculated;
        value           nonuniform 0();
    }
    wall
    {
        type            calculated;
        value           uniform 0;
    }
    procBoundary4to0
    {
        type            processor;
        value           uniform 0;
    }
    procBoundary4to5
    {
        type            processor;
        value           uniform 0;
    }
    procBoundary4to6
    {
        type            processor;
        value           uniform 0;
    }
}


// ************************************************************************* //
