/*--------------------------------*- C++ -*----------------------------------*\
| =========                 |                                                 |
| \\      /  F ield         | OpenFOAM: The Open Source CFD Toolbox           |
|  \\    /   O peration     | Version:  4.x                                   |
|   \\  /    A nd           | Web:      www.OpenFOAM.org                      |
|    \\/     M anipulation  |                                                 |
\*---------------------------------------------------------------------------*/
FoamFile
{
    version     2.0;
    format      ascii;
    class       volScalarField;
    location    "7";
    object      Sm;
}
// * * * * * * * * * * * * * * * * * * * * * * * * * * * * * * * * * * * * * //

dimensions      [1 -3 -1 0 0 0 0];

internalField   nonuniform List<scalar> 
108
(
5.19548e-65
7.36677e-65
7.52215e-65
5.58369e-65
5.97196e-65
5.66201e-65
7.60149e-65
6.7483e-65
8.91937e-65
7.75451e-65
6.3587e-65
7.28946e-65
8.53066e-65
8.2209e-65
7.52341e-65
6.36057e-65
5.43011e-65
9.07516e-65
6.97914e-65
8.76269e-65
6.43642e-65
8.53072e-65
6.98027e-65
5.97265e-65
6.12871e-65
9.69845e-65
5.66365e-65
4.34266e-65
5.73853e-65
7.59992e-65
5.19619e-65
7.36846e-65
6.0506e-65
9.54371e-65
5.97521e-65
5.97575e-65
5.35043e-65
5.11783e-65
7.05668e-65
7.6773e-65
6.97971e-65
5.27372e-65
4.42078e-65
7.05735e-65
8.21977e-65
5.66063e-65
6.51363e-65
5.97101e-65
6.5916e-65
5.97142e-65
5.97167e-65
6.66985e-65
7.91064e-65
8.14247e-65
4.42005e-65
6.28109e-65
7.83217e-65
7.21209e-65
7.36751e-65
7.2903e-65
6.67027e-65
6.67041e-65
6.82519e-65
6.66895e-65
7.21183e-65
5.97123e-65
8.53075e-65
8.76388e-65
6.4376e-65
9.61871e-65
7.91239e-65
6.82584e-65
4.96273e-65
6.66871e-65
4.42014e-65
6.74672e-65
5.73885e-65
8.06545e-65
6.59199e-65
6.90186e-65
7.21113e-65
5.35046e-65
8.76242e-65
5.81589e-65
5.5059e-65
6.20402e-65
7.21228e-65
6.35935e-65
5.66109e-65
7.59895e-65
5.04037e-65
7.44424e-65
7.44445e-65
7.13449e-65
5.50618e-65
6.66962e-65
6.43711e-65
7.52268e-65
6.2812e-65
7.75449e-65
7.05666e-65
5.81612e-65
7.83267e-65
7.13498e-65
9.22935e-65
4.49864e-65
4.88624e-65
6.35929e-65
)
;

boundaryField
{
    inlet
    {
        type            calculated;
        value           uniform 0;
    }
    outlet
    {
        type            calculated;
        value           nonuniform 0();
    }
    wall
    {
        type            calculated;
        value           uniform 0;
    }
    procBoundary4to0
    {
        type            processor;
        value           nonuniform List<scalar> 
36
(
4.57535e-65
4.88553e-65
5.73887e-65
5.35144e-65
6.12763e-65
7.75743e-65
4.81052e-65
4.1124e-65
4.9657e-65
5.50597e-65
8.14263e-65
7.28991e-65
6.74739e-65
5.81736e-65
5.66314e-65
8.37987e-65
6.59642e-65
5.51128e-65
4.57542e-65
4.96322e-65
7.29003e-65
5.73943e-65
7.29173e-65
8.06965e-65
6.75257e-65
5.12557e-65
8.07714e-65
5.27349e-65
5.89394e-65
7.83317e-65
9.23012e-65
4.42181e-65
9.23443e-65
7.14202e-65
5.43633e-65
2.3314e-65
)
;
    }
    procBoundary4to5
    {
        type            processor;
        value           nonuniform List<scalar> 
12
(
6.2804e-65
7.13377e-65
8.2219e-65
1.00101e-64
6.66711e-65
5.34926e-65
8.0641e-65
3.56738e-65
2.63543e-65
6.04651e-65
6.27952e-65
7.21027e-65
)
;
    }
    procBoundary4to6
    {
        type            processor;
        value           nonuniform List<scalar> 
27
(
1.03916e-64
7.5998e-65
4.96328e-65
7.44569e-65
9.38585e-65
6.12915e-65
7.37212e-65
6.52102e-65
8.54098e-65
7.98736e-65
7.67713e-65
7.91009e-65
7.29016e-65
5.42931e-65
7.05874e-65
6.28359e-65
5.89619e-65
7.91338e-65
4.73034e-65
5.2732e-65
5.97137e-65
6.90228e-65
6.51491e-65
6.4377e-65
8.68757e-65
8.76508e-65
3.80059e-65
)
;
    }
}


// ************************************************************************* //
