/*--------------------------------*- C++ -*----------------------------------*\
| =========                 |                                                 |
| \\      /  F ield         | OpenFOAM: The Open Source CFD Toolbox           |
|  \\    /   O peration     | Version:  4.x                                   |
|   \\  /    A nd           | Web:      www.OpenFOAM.org                      |
|    \\/     M anipulation  |                                                 |
\*---------------------------------------------------------------------------*/
FoamFile
{
    version     2.0;
    format      ascii;
    class       volVectorField;
    location    "7";
    object      U;
}
// * * * * * * * * * * * * * * * * * * * * * * * * * * * * * * * * * * * * * //

dimensions      [0 1 -1 0 0 0 0];

internalField   nonuniform List<vector> 
108
(
(0.0286824 -0.00135989 -0.00131326)
(0.0136695 -0.000818662 -0.00096791)
(0.0294398 -0.00176446 -0.00122997)
(0.0146001 -0.000869121 -0.00074953)
(0.0299512 -0.00146926 -0.000138653)
(0.0155956 -0.00062858 4.53211e-05)
(0.0308498 -0.000929832 0.00103468)
(0.0169887 -0.000506215 0.0007844)
(0.0326369 -0.000511173 0.00242746)
(0.0285709 -0.0014614 -0.00123871)
(0.0102603 -0.00066329 -0.000708181)
(0.0273098 -0.00147253 -0.000964331)
(0.00619351 -0.000367924 -0.000296277)
(0.0262926 -0.000903285 0.000150281)
(0.0035215 -0.000136291 1.8689e-05)
(0.0259347 -0.000621373 0.000520358)
(0.00245392 -9.7229e-05 -4.78863e-05)
(0.0261833 7.03219e-06 7.75389e-05)
(0.0284953 -0.000857872 -0.00113625)
(0.0100633 -0.000521158 -0.000634442)
(0.0270673 -0.000764314 -0.000645997)
(0.00631506 -0.000332714 -0.000148707)
(0.0265069 -0.000515709 0.00056965)
(0.00416894 -0.000254047 0.000109897)
(0.0263557 -0.000332819 0.00079878)
(0.00231684 -0.000163125 -1.18849e-05)
(0.0261953 -0.000142789 -2.21756e-06)
(0.0284311 -0.000369049 -0.00113227)
(0.00984975 -3.16346e-06 -0.000536817)
(0.0266716 -0.000171663 -0.000508297)
(0.00582645 -5.10542e-05 -0.000180403)
(0.0257908 -4.39263e-05 0.000500437)
(0.00350417 -1.19861e-05 7.68267e-05)
(0.025325 3.3108e-05 0.000564582)
(0.00218476 -2.16483e-05 -3.53851e-05)
(0.0248067 -0.000187483 0.000190604)
(0.0286283 -0.00114005 -9.29362e-05)
(0.0140761 -0.000700408 -0.000128322)
(0.029758 -0.00141302 0.000123177)
(0.0155137 -0.000742513 -0.000117451)
(0.0307754 -0.00146462 0.000541149)
(0.0173018 -0.000761854 0.000430107)
(0.0321402 -0.00136149 0.00146523)
(0.019318 -0.000587522 0.00122278)
(0.0342617 -0.000842974 0.00237932)
(0.0286436 -0.00125856 0.000334539)
(0.0116947 -0.000680616 0.000124894)
(0.0282321 -0.00128919 0.000999127)
(0.00953636 -0.000409068 0.00028897)
(0.0278365 -0.000944166 0.00140779)
(0.00748695 -0.000197742 0.000408049)
(0.0274205 -0.000452368 0.00143896)
(0.00506976 -2.72983e-05 0.000259767)
(0.0273373 -0.000328485 0.000790059)
(0.028491 -0.000972624 0.000358644)
(0.0114202 -0.000492142 0.000132421)
(0.0278726 -0.000826462 0.000884963)
(0.00916213 -0.000376512 0.000365219)
(0.0275929 -0.000457111 0.00139479)
(0.00787697 -0.000257703 0.000547621)
(0.0276568 -0.000189297 0.00166066)
(0.00696065 -0.000279632 0.000538428)
(0.0279025 -7.82689e-05 0.000693904)
(0.0284642 -0.000432022 0.00030432)
(0.0109932 -3.97271e-05 0.000316856)
(0.0273957 -0.000235703 0.00103162)
(0.00847131 -4.96639e-05 0.000455701)
(0.0269182 -0.000200514 0.0016648)
(0.0068718 -0.000105001 0.000723129)
(0.0263831 -0.00014051 0.00180796)
(0.00491248 -7.39319e-05 0.000473891)
(0.0253416 -0.000112784 0.000907572)
(0.0287506 -0.000925301 -3.39547e-06)
(0.0147575 -0.000591707 -2.43473e-05)
(0.0302327 -0.000954184 7.55246e-05)
(0.0167403 -0.000443946 -0.000121188)
(0.031416 -0.000719849 8.64126e-05)
(0.0183904 -0.000297953 -6.03932e-05)
(0.0327449 -0.000496084 0.000622912)
(0.0207603 -0.00023282 0.000388386)
(0.0351364 -0.000229814 0.00109427)
(0.0287655 -0.00103581 0.000212438)
(0.0137504 -0.000593824 0.000108899)
(0.0293897 -0.000892378 0.000580728)
(0.0149614 -0.000279874 0.000249322)
(0.0304148 -0.000411712 0.000937543)
(0.0168379 -5.67386e-05 0.000455169)
(0.0317194 -0.000165428 0.00145431)
(0.0189799 7.51312e-05 0.000558758)
(0.0333355 -7.74884e-05 0.00122064)
(0.0285032 -0.000888435 0.000231327)
(0.0133996 -0.000440657 0.000170633)
(0.0289925 -0.000804171 0.000573101)
(0.0141794 -0.000414516 0.000277842)
(0.0298929 -0.000417985 0.000847199)
(0.0161515 -0.000195451 0.000391365)
(0.0315525 -0.000164466 0.00102583)
(0.0189822 -0.000322725 0.000406906)
(0.0335458 -0.000439897 0.000886715)
(0.0284233 -0.000150511 0.000289041)
(0.013035 -5.05071e-05 0.000227339)
(0.0285415 -0.000296995 0.00064768)
(0.0133034 -0.000176244 0.000368903)
(0.0293603 -0.000426752 0.00107778)
(0.0151079 -0.000298395 0.000710961)
(0.0306762 -0.000725174 0.00165327)
(0.01785 -0.000426056 0.000878727)
(0.0321878 -0.00113275 0.00119044)
)
;

boundaryField
{
    inlet
    {
        type            fixedValue;
        value           uniform (0.01 0 0);
    }
    outlet
    {
        type            zeroGradient;
    }
    wall
    {
        type            fixedValue;
        value           uniform (0 0 0);
    }
    procBoundary4to0
    {
        type            processor;
        value           nonuniform List<vector> 
36
(
(0.0286088 -0.00120349 -0.00213915)
(0.0136914 -0.000723056 -0.00155986)
(0.0297933 -0.00147547 -0.00204376)
(0.0153374 -0.000705014 -0.0011698)
(0.030915 -0.00134532 -0.00054143)
(0.0172435 -0.000698898 9.96072e-06)
(0.0325206 -0.00130404 0.00159799)
(0.0198914 -0.00048405 0.00150285)
(0.0351733 -0.000844405 0.00364753)
(0.0286554 -0.00141181 -0.00237031)
(0.011047 -0.000724392 -0.00139552)
(0.0282042 -0.00158184 -0.00206719)
(0.00920317 -0.0005297 -0.000716083)
(0.0278156 -0.00115475 -3.11704e-05)
(0.008129 -0.000302807 8.05969e-05)
(0.0281159 -0.000718766 0.0013559)
(0.00744922 -8.38441e-05 6.47284e-05)
(0.0286714 -0.000267882 0.000900541)
(0.0284041 -0.00106686 -0.00220627)
(0.0104303 -0.000596608 -0.00124421)
(0.0275802 -0.00117716 -0.00155204)
(0.00745171 -0.000385201 -0.000406032)
(0.0272456 -0.000620003 0.00036531)
(0.00588046 -0.000230251 0.000125866)
(0.0275315 -8.99038e-05 0.00080166)
(0.00537162 -0.000192042 -9.35837e-05)
(0.0281604 0.000100869 0.000388377)
(0.0285344 -0.000338797 -0.00209437)
(0.00993284 -8.02687e-05 -0.00122575)
(0.0273354 -0.000138957 -0.00149004)
(0.00658545 1.54191e-05 -0.000408695)
(0.0268706 6.70139e-05 0.000499335)
(0.00568919 -2.11582e-07 7.46543e-05)
(0.0272188 -1.25903e-06 0.00142764)
(0.00601933 -3.39914e-05 -1.40193e-05)
(0.027206 9.73934e-06 0.000957109)
)
;
    }
    procBoundary4to5
    {
        type            processor;
        value           nonuniform List<vector> 
12
(
(0.0184042 -0.000341274 0.00163224)
(0.00174954 -0.00012015 -0.000126332)
(0.0017845 -0.000275297 -0.000115087)
(0.00166697 -6.82101e-05 -0.000110886)
(0.0212652 -0.000683323 0.00181448)
(0.00273429 -8.93458e-05 -3.4942e-06)
(0.00544917 -0.000608676 0.000214216)
(0.00333969 -0.000101821 0.000258133)
(0.0236043 -0.000266028 0.000397089)
(0.0206555 -0.000190459 0.000142369)
(0.0211151 -0.00104073 -4.49653e-06)
(0.019469 -0.00089181 0.00086601)
)
;
    }
    procBoundary4to6
    {
        type            processor;
        value           nonuniform List<vector> 
27
(
(0.0283284 0.000644305 -0.0012052)
(0.00942283 0.000425818 -0.000546894)
(0.0265724 0.000743509 -0.000735943)
(0.00513482 0.000229927 -0.000169269)
(0.0261137 0.000437514 0.000253047)
(0.0031103 0.000157802 2.53574e-05)
(0.0261092 0.000237362 0.000548951)
(0.00209642 0.000109964 -2.60995e-05)
(0.0262315 0.000101938 -0.000212022)
(0.0283655 0.000634526 0.000564654)
(0.0107771 0.000322216 8.61569e-05)
(0.0274215 0.000553449 0.000777281)
(0.00791851 0.000269849 0.000279574)
(0.0270944 0.000300848 0.00103923)
(0.00611639 0.000163646 0.000299742)
(0.0270424 0.000311416 0.000875223)
(0.00513936 0.000192134 0.000244231)
(0.0273725 0.000120869 -0.000236732)
(0.0286033 0.000772797 0.000517427)
(0.0134976 0.000346739 0.000175535)
(0.0288971 0.000600954 0.000524025)
(0.0136012 0.000279939 0.000172014)
(0.0294083 0.000281054 0.000622106)
(0.0139121 0.000100087 0.000242567)
(0.0299391 -0.000113247 0.000421045)
(0.0135006 3.00992e-05 9.74452e-05)
(0.0299879 -0.000279156 -0.0001007)
)
;
    }
}


// ************************************************************************* //
