/*--------------------------------*- C++ -*----------------------------------*\
| =========                 |                                                 |
| \\      /  F ield         | OpenFOAM: The Open Source CFD Toolbox           |
|  \\    /   O peration     | Version:  4.x                                   |
|   \\  /    A nd           | Web:      www.OpenFOAM.org                      |
|    \\/     M anipulation  |                                                 |
\*---------------------------------------------------------------------------*/
FoamFile
{
    version     2.0;
    format      ascii;
    class       volVectorField;
    location    "7";
    object      Urel;
}
// * * * * * * * * * * * * * * * * * * * * * * * * * * * * * * * * * * * * * //

dimensions      [0 1 -1 0 0 0 0];

internalField   nonuniform List<vector> 
108
(
(-0.0229698 0.000829615 0.000751549)
(-0.02121 0.000767036 0.000599122)
(-0.0220823 0.000818449 0.0003957)
(-0.0208618 0.000713781 9.95706e-05)
(-0.0220666 0.00069852 -0.000247393)
(-0.0211309 0.000598724 -0.000501353)
(-0.0225127 0.000562702 -0.000762549)
(-0.0217159 0.000506467 -0.000824723)
(-0.0231733 0.000474128 -0.000910911)
(-0.0227433 0.000728934 0.000711114)
(-0.0206776 0.000643347 0.000543566)
(-0.0214381 0.000672348 0.000331957)
(-0.0196865 0.000543305 4.80546e-05)
(-0.0209615 0.000521494 -0.000262476)
(-0.0194266 0.000418543 -0.000424129)
(-0.0209658 0.00039646 -0.000587267)
(-0.0195035 0.000319441 -0.000536679)
(-0.0211247 0.000276437 -0.000434484)
(-0.0225444 0.000461112 0.000659961)
(-0.020361 0.000403058 0.000488818)
(-0.0210308 0.000398501 0.000261719)
(-0.0191163 0.0003227 -5.51398e-09)
(-0.0203633 0.000298715 -0.000286224)
(-0.0186519 0.00023885 -0.000390824)
(-0.0201925 0.000208621 -0.000493474)
(-0.0184732 0.000168172 -0.000385037)
(-0.0201746 0.000126355 -0.000233046)
(-0.0224457 0.000102395 0.000638126)
(-0.0202211 6.79859e-05 0.000463141)
(-0.0208332 6.24389e-05 0.000234892)
(-0.0188716 4.45233e-05 -9.42445e-06)
(-0.0200692 3.25446e-05 -0.000282452)
(-0.0183308 2.62088e-05 -0.000367078)
(-0.0198114 1.74697e-05 -0.000443557)
(-0.0181188 2.00313e-05 -0.000320254)
(-0.0197109 3.001e-05 -0.00015449)
(-0.0230275 0.000770062 0.000322009)
(-0.021336 0.000711183 0.000229413)
(-0.0222589 0.000744384 4.98165e-05)
(-0.0211436 0.000646832 -0.000127141)
(-0.0224021 0.000644405 -0.000387685)
(-0.0215965 0.000540896 -0.000566871)
(-0.0230122 0.00051768 -0.000778657)
(-0.0223537 0.000445029 -0.000824652)
(-0.0238495 0.000455333 -0.000881532)
(-0.0228476 0.000675963 0.000246069)
(-0.0209129 0.000601876 0.000158073)
(-0.0217449 0.000617004 -5.63596e-05)
(-0.0202119 0.000502085 -0.000198414)
(-0.0214991 0.000487843 -0.000445458)
(-0.0201636 0.000380383 -0.000530173)
(-0.0216886 0.000346903 -0.000668282)
(-0.0203874 0.000288909 -0.000601263)
(-0.0220162 0.000282264 -0.000537437)
(-0.0226708 0.000440533 0.000195766)
(-0.02065 0.000380393 0.000108493)
(-0.021396 0.000377388 -0.000108591)
(-0.019735 0.000308383 -0.000242873)
(-0.0209761 0.000285245 -0.000471961)
(-0.0195181 0.000231096 -0.000516428)
(-0.0210213 0.000207039 -0.000619865)
(-0.0195969 0.000187585 -0.000483243)
(-0.0211818 0.000165896 -0.000349198)
(-0.0225884 0.000103161 0.000174868)
(-0.0205196 7.13386e-05 8.05307e-05)
(-0.021218 7.35565e-05 -0.000129752)
(-0.0195093 5.66891e-05 -0.000258913)
(-0.0207073 5.96374e-05 -0.000481924)
(-0.0191995 5.55408e-05 -0.000511065)
(-0.0206283 5.57239e-05 -0.000577861)
(-0.0191214 6.5e-05 -0.00041986)
(-0.0206119 6.82617e-05 -0.000261261)
(-0.0231175 0.000706851 0.000147178)
(-0.0215142 0.000652193 7.71042e-05)
(-0.0224881 0.00065234 -6.409e-05)
(-0.0215155 0.000560381 -0.000191566)
(-0.0228063 0.000532368 -0.000380951)
(-0.0221512 0.000443619 -0.000509547)
(-0.0236137 0.00041334 -0.000673177)
(-0.023165 0.000353387 -0.000697698)
(-0.0247022 0.000342479 -0.000724852)
(-0.0229797 0.00062087 8.06079e-05)
(-0.0212469 0.00055657 1.14243e-05)
(-0.0221488 0.000547062 -0.000163008)
(-0.0210109 0.000448393 -0.000279304)
(-0.0222806 0.000411335 -0.000479785)
(-0.0214531 0.000328886 -0.000554782)
(-0.0228763 0.000299233 -0.000675959)
(-0.0221761 0.000255212 -0.000622723)
(-0.0236274 0.000263232 -0.000605365)
(-0.022819 0.000412535 3.34663e-05)
(-0.021025 0.000359311 -3.78535e-05)
(-0.0218566 0.000357714 -0.000214466)
(-0.0206202 0.000297145 -0.000326286)
(-0.0218498 0.000267953 -0.000514165)
(-0.0209503 0.00022337 -0.000554812)
(-0.0223416 0.000209386 -0.000622172)
(-0.0215775 0.000215347 -0.000518797)
(-0.0229229 0.000250485 -0.0004259)
(-0.0227443 8.0916e-05 5.84991e-06)
(-0.0209089 6.89397e-05 -6.0612e-05)
(-0.0216928 8.11298e-05 -0.000231393)
(-0.0203883 7.31226e-05 -0.000337958)
(-0.0215886 9.00225e-05 -0.000523376)
(-0.0206042 9.62563e-05 -0.000556946)
(-0.0219407 0.000135811 -0.000613554)
(-0.0210483 0.00015424 -0.000485756)
(-0.0223004 0.000229132 -0.000357526)
)
;

boundaryField
{
    inlet
    {
        type            calculated;
        value           nonuniform List<vector> 
12
(
(-0.0100004 3.68717e-08 4.17849e-06)
(-0.0100008 3.55516e-07 4.04209e-06)
(-0.00999974 1.06159e-07 4.71273e-06)
(-0.00999987 -5.97381e-07 6.03934e-06)
(-0.0100002 -1.02384e-06 4.28853e-06)
(-0.0100004 -9.67453e-08 3.38553e-06)
(-0.0100004 1.75076e-07 4.04033e-06)
(-0.0100001 -2.92267e-07 4.60801e-06)
(-0.0100002 -4.78906e-07 3.81665e-06)
(-0.01 8.58903e-09 3.8756e-06)
(-0.01 -3.28152e-07 4.06983e-06)
(-0.0100005 -4.87841e-07 4.17938e-06)
)
;
    }
    outlet
    {
        type            calculated;
        value           nonuniform 0();
    }
    wall
    {
        type            calculated;
        value           nonuniform List<vector> 
63
(
(-1.54159e-07 -4.78906e-07 3.81665e-06)
(-2.18214e-08 8.58903e-09 3.8756e-06)
(-4.38454e-09 -3.28152e-07 4.06983e-06)
(-5.15159e-07 -4.87841e-07 4.17938e-06)
(4.5393e-07 -2.28217e-07 2.97783e-06)
(5.25001e-08 -2.33123e-07 2.36912e-06)
(-2.17571e-07 3.48925e-07 2.60009e-06)
(-5.7089e-07 -3.7058e-07 5.33664e-06)
(1.5993e-07 6.10023e-11 3.14068e-06)
(-2.06165e-07 -1.50612e-08 2.78174e-06)
(5.66681e-07 -8.20119e-07 3.10277e-06)
(1.38635e-07 3.54932e-07 5.78407e-06)
(4.04308e-07 -1.82483e-07 2.44625e-06)
(1.12504e-07 1.9939e-07 2.72372e-06)
(4.81118e-07 -1.48089e-07 4.51063e-06)
(-3.72263e-08 2.52535e-07 3.64638e-06)
(2.11307e-06 -6.70698e-07 6.47445e-06)
(1.07338e-06 1.05502e-06 2.61796e-06)
(-1.21457e-06 8.53936e-07 4.2553e-06)
(-5.5012e-07 1.58873e-06 5.21554e-06)
(3.3114e-07 1.59613e-07 3.07756e-06)
(-2.12687e-07 -1.28746e-06 4.62327e-06)
(-1.06165e-06 -4.48116e-07 2.80439e-06)
(-6.82822e-07 6.67003e-07 5.77417e-06)
(-2.52218e-08 -1.9467e-07 2.37429e-06)
(2.08951e-07 1.05548e-07 3.45278e-06)
(1.38937e-06 -1.20339e-06 4.00702e-06)
(1.36744e-06 -8.84485e-07 5.22691e-06)
(2.86015e-06 7.00887e-08 5.05102e-06)
(6.55319e-07 -1.46326e-06 4.27559e-06)
(1.26992e-06 -5.83372e-07 1.89361e-06)
(1.62916e-06 1.03721e-06 4.49657e-06)
(1.923e-06 -7.3634e-07 4.4212e-06)
(1.24348e-06 -2.40768e-06 4.61449e-06)
(1.20747e-06 -2.01888e-06 2.41845e-06)
(2.46775e-06 -6.04366e-07 4.27632e-06)
(-3.51859e-07 3.68717e-08 4.17849e-06)
(-2.33162e-07 -1.02384e-06 4.28853e-06)
(-1.54159e-07 -4.78906e-07 3.81665e-06)
(2.37595e-06 3.42787e-07 6.04185e-06)
(1.63777e-08 -3.586e-07 3.28749e-06)
(4.5393e-07 -2.28217e-07 2.97783e-06)
(1.57587e-06 4.30696e-07 3.78458e-06)
(1.47236e-07 -1.67518e-07 3.53456e-06)
(1.5993e-07 6.10023e-11 3.14068e-06)
(6.0944e-07 6.63025e-07 7.88808e-06)
(3.8757e-07 -5.24183e-07 5.3937e-06)
(4.04308e-07 -1.82483e-07 2.44625e-06)
(-5.43477e-07 -2.43049e-07 7.06729e-06)
(6.28996e-07 -4.91382e-07 7.65267e-06)
(2.11307e-06 -6.70698e-07 6.47445e-06)
(9.06701e-07 -2.00935e-08 5.46999e-06)
(-2.50654e-07 -2.6152e-07 4.36146e-06)
(3.3114e-07 1.59613e-07 3.07756e-06)
(1.43669e-06 -4.36961e-07 6.23665e-06)
(2.80984e-06 -7.03161e-07 5.66982e-06)
(-2.52218e-08 -1.9467e-07 2.37429e-06)
(1.03839e-06 -3.56188e-07 6.24619e-06)
(1.91298e-06 -1.87602e-07 5.88202e-06)
(2.86015e-06 7.00887e-08 5.05102e-06)
(1.22013e-06 -4.67205e-07 4.94346e-06)
(1.32258e-06 -1.92511e-07 4.67283e-06)
(1.923e-06 -7.3634e-07 4.4212e-06)
)
;
    }
    procBoundary4to0
    {
        type            processor;
        value           nonuniform List<vector> 
36
(
(-0.0230555 0.000834783 0.00120091)
(-0.0213009 0.000777509 0.00098532)
(-0.0222331 0.000832056 0.000733538)
(-0.0210569 0.000738247 0.000319434)
(-0.0222949 0.000748723 -0.000137085)
(-0.021401 0.000648941 -0.000492018)
(-0.0227722 0.000634383 -0.000857964)
(-0.0220075 0.000535418 -0.00095467)
(-0.0234224 0.000501711 -0.00109441)
(-0.022838 0.000751278 0.00119455)
(-0.0207976 0.000672625 0.000948591)
(-0.0216156 0.000715117 0.000696441)
(-0.0199572 0.000593125 0.000276777)
(-0.0212051 0.000583389 -0.000148751)
(-0.0197386 0.000472455 -0.000389288)
(-0.0212314 0.000439205 -0.000637427)
(-0.0197995 0.000357685 -0.000580059)
(-0.0214026 0.000311879 -0.000535717)
(-0.0226043 0.000495283 0.0011511)
(-0.0204208 0.000431947 0.000894544)
(-0.0211214 0.000445554 0.000620894)
(-0.0192156 0.000351151 0.000221911)
(-0.0204455 0.000323257 -0.00016836)
(-0.0187336 0.000257455 -0.000334205)
(-0.0202571 0.000212165 -0.000470852)
(-0.0185936 0.000180041 -0.000379093)
(-0.020235 0.000126865 -0.000256821)
(-0.02251 0.000102922 0.00113196)
(-0.0202562 7.28226e-05 0.000875609)
(-0.0209152 6.28125e-05 0.000599166)
(-0.018924 3.75121e-05 0.000211046)
(-0.0201477 2.10315e-05 -0.000172576)
(-0.0184069 1.40369e-05 -0.000312385)
(-0.0199074 7.21232e-07 -0.000461709)
(-0.0182546 -7.98722e-06 -0.000318689)
(-0.0198166 -3.1349e-05 -0.000204903)
)
;
    }
    procBoundary4to5
    {
        type            processor;
        value           nonuniform List<vector> 
12
(
(-0.022326 0.000430153 -0.000784894)
(-0.0195556 0.000261945 -0.000259387)
(-0.0184208 0.000166951 -4.92962e-05)
(-0.0180491 3.68729e-05 7.28446e-05)
(-0.0231571 0.000395455 -0.00074232)
(-0.0204779 0.000270061 -0.000311678)
(-0.0195838 0.000263304 -0.0001049)
(-0.0189905 0.000118937 -3.63319e-05)
(-0.0242794 0.000300283 -0.000543869)
(-0.0228635 0.00027135 -0.000348519)
(-0.0220479 0.000337757 -0.000163398)
(-0.0212343 0.000273888 -0.000158234)
)
;
    }
    procBoundary4to6
    {
        type            processor;
        value           nonuniform List<vector> 
27
(
(-0.0224994 -0.00031758 0.000657371)
(-0.0202712 -0.000287925 0.000486004)
(-0.0209254 -0.0003017 0.000279527)
(-0.0189629 -0.000243663 2.83469e-05)
(-0.0202409 -0.000230304 -0.000230031)
(-0.0185076 -0.000193323 -0.000335054)
(-0.0200779 -0.00018777 -0.000420015)
(-0.0183867 -0.000145267 -0.00031101)
(-0.0200915 -0.000125206 -0.00013804)
(-0.0226364 -0.000292893 0.000170525)
(-0.0205688 -0.000259665 0.000108898)
(-0.0212935 -0.000263291 -8.41674e-05)
(-0.0195603 -0.00021791 -0.000203005)
(-0.0208059 -0.000195666 -0.000395297)
(-0.0192462 -0.000157049 -0.000426003)
(-0.0207619 -0.000144452 -0.000472123)
(-0.0192474 -0.000101463 -0.000342959)
(-0.0208423 -8.41893e-05 -0.000157911)
(-0.0228118 -0.000287124 -6.38774e-06)
(-0.0210003 -0.000245512 -4.55933e-05)
(-0.0217918 -0.000243901 -0.000198818)
(-0.0204799 -0.000199124 -0.000288364)
(-0.0216541 -0.000168598 -0.000444346)
(-0.0205633 -0.000120639 -0.000458956)
(-0.0218673 -7.72893e-05 -0.000454373)
(-0.0207333 -3.63976e-05 -0.000340555)
(-0.0220029 8.39909e-06 -0.000161145)
)
;
    }
}


// ************************************************************************* //
