/*--------------------------------*- C++ -*----------------------------------*\
  =========                 |
  \\      /  F ield         | OpenFOAM: The Open Source CFD Toolbox
   \\    /   O peration     | Website:  https://openfoam.org
    \\  /    A nd           | Version:  4.x
     \\/     M anipulation  |
\*---------------------------------------------------------------------------*/
FoamFile
{
    version     2.0;
    format      ascii;
    class       vectorField;
    location    0;
    object      v;
}
// * * * * * * * * * * * * * * * * * * * * * * * * * * * * * * * * * * * * * //

313
(
( 1.66254e-09 -3.6502e-09 6.37252e-09 )  
( 2.82259e-09 -1.80952e-09 6.68799e-09 )  
( 1.37029e-09 -3.24915e-09 7.08699e-09 )  
( 3.5564e-09 -5.08141e-10 6.78068e-09 )  
( 1.4189e-09 -5.65219e-09 7.419e-09 )  
( 4.50067e-09 -1.45219e-09 6.52636e-09 )  
( 2.12377e-09 -2.31122e-09 5.82638e-09 )  
( 3.49298e-09 -1.55648e-09 6.14706e-09 )  
( 1.67318e-09 -1.16732e-09 7.01802e-09 )  
( 3.28183e-09 -2.67495e-09 4.97546e-09 )  
( 4.40701e-09 4.71643e-10 6.6196e-09 )  
( 5.84154e-10 -1.01861e-09 3.98398e-09 )  
( 8.74223e-10 -4.08729e-10 1.5936e-09 )  
( -1.12194e-09 -2.82798e-09 3.67995e-09 )  
( 1.8997e-10 -4.22795e-09 5.68639e-09 )  
( 1.24576e-09 -8.93503e-10 2.13733e-09 )  
( 1.3335e-10 -1.41927e-10 5.09858e-10 )  
( -5.06523e-10 -1.99049e-09 3.23876e-09 )  
( 1.14728e-09 -2.70455e-09 4.87378e-09 )  
( 8.57906e-10 -3.91839e-10 1.78974e-09 )  
( 1.15323e-09 -6.76038e-11 1.64831e-09 )  
( 5.56568e-10 7.68223e-11 5.66314e-10 )  
( 2.49137e-10 -3.09128e-09 4.76833e-09 )  
( 1.00915e-09 -4.73221e-10 1.28027e-09 )  
( 3.95303e-10 5.43563e-11 3.96363e-10 )  
( 2.91532e-10 -2.02432e-10 1.72519e-10 )  
( 1.67999e-10 -3.1389e-10 2.50258e-11 )  
( 1.08112e-09 -2.71699e-10 1.12695e-09 )  
( 1.2504e-09 -8.25062e-10 5.92031e-10 )  
( 7.72391e-10 -9.45792e-10 1.8848e-09 )  
( -4.39583e-10 -1.59143e-09 3.05983e-09 )  
( 1.08334e-09 -1.50837e-10 1.26034e-09 )  
( 5.52714e-09 -9.40043e-10 6.12767e-09 )  
( 3.71523e-10 -1.78774e-10 2.29044e-09 )  
( 7.22854e-10 -2.18018e-10 1.90656e-09 )  
( -2.51392e-09 -3.02388e-09 4.96997e-09 )  
( 3.77753e-10 -2.2665e-09 2.4303e-09 )  
( -9.3708e-10 -9.10012e-10 2.11112e-09 )  
( -1.14054e-09 -1.58135e-09 1.92414e-09 )  
( 3.20608e-11 -8.93639e-10 2.04713e-09 )  
( 9.78903e-10 -5.41e-10 1.5853e-09 )  
( 5.62625e-10 -6.78376e-10 1.60113e-09 )  
( 6.74872e-10 -5.37961e-10 1.00387e-09 )  
( 3.33919e-11 -8.74937e-10 1.91652e-09 )  
( 7.99471e-10 -1.34693e-09 2.92359e-09 )  
( -7.55585e-10 -1.31682e-09 2.42716e-09 )  
( 2.47162e-10 -2.17937e-10 7.68614e-11 )  
( -1.18169e-09 -3.08434e-09 4.05439e-09 )  
( -3.81205e-10 -1.61178e-09 1.65053e-10 )  
( 7.14775e-12 -4.30865e-10 8.75295e-10 )  
( -9.11027e-10 -1.76763e-09 2.9999e-09 )  
( 1.91766e-09 -1.4469e-09 3.05603e-09 )  
( 8.47761e-10 -7.72579e-10 6.05766e-10 )  
( 9.20853e-10 -1.9234e-11 1.20972e-09 )  
( -3.60802e-10 -1.24382e-09 7.71779e-10 )  
( 2.10366e-09 -1.59263e-09 3.49343e-09 )  
( -9.68008e-10 -3.31995e-09 3.29388e-09 )  
( 1.64773e-09 -1.85637e-09 4.37691e-09 )  
( -1.39806e-09 -3.89674e-09 4.05848e-09 )  
( 5.28836e-10 -2.21985e-10 9.65861e-10 )  
( 1.54031e-09 -1.2125e-09 2.64341e-09 )  
( 1.24658e-09 -1.24033e-09 2.07717e-09 )  
( 8.60587e-10 -1.8264e-09 2.43534e-09 )  
( 9.79025e-10 -5.79298e-10 1.71235e-09 )  
( 5.02457e-10 -2.48118e-10 3.53451e-10 )  
( 1.00029e-09 -6.98862e-10 1.67103e-09 )  
( 6.64192e-10 -1.35283e-10 1.41964e-10 )  
( 1.29617e-09 -7.08445e-10 2.5391e-09 )  
( -6.12326e-10 -3.49677e-09 4.42161e-09 )  
( -1.37823e-09 -1.83014e-09 3.25574e-09 )  
( 3.51785e-09 -1.98911e-09 5.1954e-09 )  
( -7.95806e-10 -3.09635e-09 4.67529e-09 )  
( 6.70029e-10 -5.02276e-09 7.12664e-09 )  
( 7.0658e-10 -3.97148e-10 1.68166e-09 )  
( 9.45015e-10 -4.57265e-10 9.5121e-10 )  
( 8.3712e-10 -6.39441e-10 1.97814e-09 )  
( 7.51165e-10 -2.96795e-10 1.72603e-09 )  
( -2.40756e-10 -2.26971e-09 2.58132e-09 )  
( -9.37203e-10 -1.57587e-09 2.67778e-09 )  
( 3.24958e-10 -1.88929e-10 7.54164e-10 )  
( 7.14063e-10 -1.42796e-09 1.24243e-09 )  
( 5.37886e-10 1.06213e-10 1.3614e-09 )  
( 7.36176e-11 -7.22845e-10 2.31844e-10 )  
( 2.53074e-11 -1.24017e-09 2.36855e-09 )  
( 4.20092e-10 -1.00012e-10 4.47578e-11 )  
( 2.29416e-09 -1.67069e-09 4.18741e-09 )  
( 1.06164e-09 1.63267e-10 1.2184e-09 )  
( 2.83355e-10 -1.38051e-09 2.83353e-09 )  
( 3.24025e-10 -2.98859e-10 9.65108e-11 )  
( 5.11729e-10 1.28068e-11 2.15444e-10 )  
( -7.23476e-10 -2.08578e-09 3.17222e-09 )  
( 9.01148e-10 -5.21328e-10 3.88905e-10 )  
( 1.15982e-10 -7.16392e-10 5.00678e-10 )  
( 5.34819e-10 1.09121e-10 5.66665e-10 )  
( 1.61097e-09 -1.37519e-09 2.72879e-09 )  
( 2.50846e-09 -9.25504e-10 5.37504e-09 )  
( 8.33105e-10 -3.41509e-09 2.39361e-09 )  
( 2.5669e-11 8.08252e-11 5.02099e-10 )  
( -2.40651e-09 -2.33146e-09 4.52128e-09 )  
( 6.12686e-10 -4.26513e-10 6.69498e-10 )  
( -1.93499e-10 -1.31205e-09 1.75546e-09 )  
( 4.00806e-11 -2.88146e-10 1.1195e-09 )  
( -3.83653e-09 -4.19601e-09 5.95519e-09 )  
( -4.03665e-10 -3.60184e-09 6.54764e-09 )  
( -1.02337e-09 -2.19549e-09 3.22638e-09 )  
( -6.5865e-10 -2.95263e-09 4.20664e-09 )  
( 9.70008e-10 -8.24989e-11 9.23211e-10 )  
( 2.74454e-09 -2.69472e-09 6.63501e-09 )  
( 1.68086e-10 -1.43805e-09 2.30158e-09 )  
( 1.31546e-09 -8.7649e-10 2.02372e-09 )  
( 4.61213e-10 -6.28651e-10 1.42146e-09 )  
( -1.15138e-09 -2.58141e-09 3.9964e-09 )  
( 6.24185e-11 -2.03047e-09 2.9125e-09 )  
( 6.18937e-10 -4.58381e-10 9.26098e-10 )  
( 7.7488e-11 -7.86783e-10 1.5233e-09 )  
( 1.45456e-09 -2.59907e-09 4.43676e-09 )  
( -6.03403e-10 -9.57231e-10 1.04765e-09 )  
( 5.10094e-10 -3.15592e-09 6.39757e-09 )  
( 1.02168e-09 -8.80445e-10 1.42976e-09 )  
( 1.37541e-09 -3.23727e-10 1.66876e-09 )  
( -6.48698e-11 -5.62567e-10 1.07217e-09 )  
( 9.87296e-10 -5.51267e-10 2.11403e-09 )  
( 6.07129e-10 -1.31725e-10 3.77594e-10 )  
( 6.82835e-10 -4.98809e-09 6.01959e-09 )  
( 6.74432e-10 -1.45615e-09 1.25339e-10 )  
( 6.12824e-10 -9.96054e-11 8.3102e-10 )  
( -1.85482e-11 -1.59648e-09 1.19635e-09 )  
( 2.31129e-10 -1.74629e-09 2.20747e-09 )  
( 2.84646e-10 7.69535e-13 1.09234e-10 )  
( -3.2728e-10 -4.60749e-10 1.16782e-09 )  
( -1.59412e-09 -2.20156e-09 3.62401e-09 )  
( 4.49723e-10 -2.91625e-10 3.01853e-10 )  
( -4.47814e-10 -2.82086e-09 5.19264e-09 )  
( -3.02809e-09 -5.82696e-09 3.58282e-09 )  
( 7.69525e-10 -3.89053e-10 3.86419e-10 )  
( -1.12821e-10 -5.26064e-10 5.87892e-10 )  
( 6.00097e-10 -7.88712e-12 1.76683e-10 )  
( -1.48995e-09 -2.3015e-09 4.70766e-09 )  
( -8.92278e-11 -1.90266e-10 2.86633e-10 )  
( -4.00873e-10 -1.06712e-09 1.13303e-09 )  
( -1.21168e-11 -3.91094e-10 7.36361e-10 )  
( 3.79276e-10 -3.22835e-10 2.68914e-10 )  
( -7.05189e-10 -2.79625e-09 3.45588e-09 )  
( 7.00124e-11 -2.99068e-09 3.77592e-09 )  
( 6.39062e-10 -1.95589e-10 5.26567e-10 )  
( 1.07876e-09 -2.93182e-09 5.14569e-09 )  
( 2.09265e-10 -8.03198e-10 7.28642e-10 )  
( -1.18551e-09 -3.27666e-09 5.12065e-09 )  
( 7.18915e-10 -5.15762e-10 7.28723e-10 )  
( 1.04289e-09 -6.84945e-10 9.66476e-10 )  
( 1.50931e-09 -4.83503e-10 1.39081e-09 )  
( 1.76555e-09 3.23571e-12 1.22631e-09 )  
( 1.36486e-09 -8.32664e-10 1.22185e-09 )  
( 5.78687e-09 -8.85906e-10 2.48474e-09 )  
( 2.43863e-09 2.55884e-11 2.33022e-09 )  
( 3.35253e-10 -3.81547e-10 6.63615e-10 )  
( 1.32054e-09 -4.50288e-10 1.75938e-09 )  
( 2.76871e-09 -1.46476e-09 3.6464e-09 )  
( 3.13115e-09 -8.37996e-10 2.81652e-09 )  
( 1.17816e-09 3.50129e-11 1.59902e-09 )  
( 2.07412e-09 -7.10198e-10 1.57808e-09 )  
( 2.69638e-09 -1.05134e-09 1.67583e-09 )  
( 7.10243e-11 -2.57308e-10 1.25345e-10 )  
( 2.4536e-09 -8.42758e-10 3.1065e-09 )  
( 2.22429e-10 2.60719e-10 -1.46543e-10 )  
( 7.92786e-11 -1.97089e-11 1.38458e-10 )  
( 1.30353e-11 -4.62273e-10 9.78719e-11 )  
( 1.19155e-09 -5.86235e-10 1.63554e-09 )  
( 1.61697e-09 -7.85389e-10 2.283e-09 )  
( -3.40114e-11 -3.10546e-10 2.29919e-11 )  
( 2.43239e-10 -8.97171e-11 3.26203e-10 )  
( 2.58013e-10 -2.16067e-10 2.13644e-10 )  
( 3.19414e-09 -8.01745e-10 1.51495e-09 )  
( 5.74408e-10 -2.65949e-10 3.87451e-10 )  
( 3.22497e-09 -2.70308e-09 3.65785e-09 )  
( 1.62277e-09 -1.43984e-09 2.61644e-09 )  
( 7.82113e-10 -2.15846e-10 2.73266e-10 )  
( 5.2445e-11 3.0731e-10 -2.0842e-11 )  
( 1.35982e-09 -4.32551e-10 1.1832e-09 )  
( 1.39623e-09 -1.02166e-09 2.38687e-09 )  
( 7.54261e-10 -4.97471e-10 9.95339e-10 )  
( 4.05828e-09 -9.99156e-10 2.55613e-09 )  
( 4.89314e-10 -4.59393e-10 4.44318e-10 )  
( 2.28422e-09 -1.02034e-09 1.67191e-09 )  
( 1.78032e-09 -2.40118e-10 8.23606e-10 )  
( 2.31364e-10 -2.21682e-10 4.38216e-10 )  
( 2.56141e-11 -3.43682e-10 2.06191e-10 )  
( 1.29401e-09 -7.44147e-10 1.08313e-09 )  
( 7.6144e-10 -8.25677e-10 7.0433e-10 )  
( 9.72442e-10 -4.64873e-10 6.90022e-10 )  
( 1.13894e-09 -4.21103e-10 1.62238e-09 )  
( 3.96896e-10 -4.47959e-10 5.29082e-10 )  
( 5.43317e-10 -2.84363e-10 3.14953e-10 )  
( 3.16321e-09 -1.26536e-09 1.97818e-09 )  
( 4.21271e-09 -2.03691e-09 2.3738e-09 )  
( 1.34313e-09 -6.26e-10 2.09194e-09 )  
( 1.822e-09 -6.07242e-10 1.48555e-09 )  
( 7.70662e-10 -3.20887e-10 3.31096e-10 )  
( 1.65243e-10 -5.51638e-10 2.18754e-10 )  
( 2.7609e-10 -1.57316e-11 5.11402e-10 )  
( 3.67702e-09 -1.69772e-09 3.60894e-09 )  
( 1.01615e-09 -1.8055e-10 5.23246e-10 )  
( 1.4823e-09 -1.55388e-09 3.88567e-09 )  
( 1.88678e-09 -9.062e-10 2.47185e-09 )  
( 1.84697e-09 -7.24578e-10 1.52733e-09 )  
( 1.40027e-09 -3.40312e-10 1.06633e-09 )  
( 4.8219e-09 -6.10617e-10 3.78215e-09 )  
( 3.48901e-10 -1.70167e-10 3.49708e-10 )  
( 1.88372e-09 -4.7056e-10 1.2637e-09 )  
( 2.32403e-10 3.18768e-12 -7.55265e-12 )  
( 8.85247e-10 -6.48415e-10 1.7124e-09 )  
( 1.09873e-10 -5.42834e-11 1.80393e-10 )  
( -6.12521e-10 -2.26907e-09 3.87017e-09 )  
( 8.28315e-10 -1.00191e-09 2.02639e-09 )  
( 1.65654e-09 -7.57353e-10 4.86247e-10 )  
( 3.33114e-10 1.08516e-10 1.56579e-10 )  
( 3.78218e-11 -1.08639e-10 9.74972e-11 )  
( 2.42374e-09 -2.95458e-10 1.07589e-09 )  
( -3.40935e-09 -2.70094e-09 4.03388e-09 )  
( 8.57168e-11 -2.12424e-10 3.89616e-11 )  
( 1.48733e-09 -1.68737e-09 5.63273e-09 )  
( 1.36961e-10 3.78664e-11 9.02588e-11 )  
( -6.6329e-10 -1.17281e-09 1.08334e-09 )  
( 9.85753e-10 -7.08717e-10 1.87509e-09 )  
( 1.70382e-09 -2.91118e-09 6.50542e-09 )  
( 5.43118e-09 -2.18136e-10 5.53043e-09 )  
( 1.80421e-09 -1.85893e-09 3.06875e-09 )  
( 7.25115e-10 -4.61531e-10 -8.5047e-11 )  
( 1.52783e-10 -3.62601e-09 5.29117e-09 )  
( 7.19646e-10 -3.23136e-10 1.7118e-09 )  
( 3.54253e-09 -6.43749e-10 4.18539e-09 )  
( -2.6479e-10 -6.43844e-10 6.87642e-10 )  
( 1.78359e-09 -1.42018e-09 3.36822e-09 )  
( 3.68551e-09 -2.14831e-09 6.27925e-09 )  
( -8.12893e-10 -2.41132e-10 2.73315e-10 )  
( 5.84538e-10 -3.84383e-10 1.80234e-09 )  
( 1.685e-09 -6.65413e-10 1.62995e-09 )  
( 7.64693e-10 -6.33e-10 1.46856e-09 )  
( 1.80946e-09 -9.91548e-10 3.57418e-09 )  
( 8.78603e-10 -1.77347e-09 3.30414e-09 )  
( 1.80254e-09 -7.28421e-10 8.30847e-10 )  
( 2.438e-10 -3.97592e-10 1.1842e-09 )  
( -1.28004e-10 -2.39532e-10 4.31729e-10 )  
( 4.42238e-09 -8.82556e-10 4.20674e-09 )  
( 2.31615e-09 -4.99332e-10 1.63913e-09 )  
( 1.16767e-09 -1.16646e-09 2.36802e-09 )  
( 9.56108e-10 -6.8902e-13 2.02935e-09 )  
( 8.37677e-10 1.33473e-11 7.47558e-10 )  
( 1.07026e-09 -1.67125e-09 4.11198e-09 )  
( 5.18401e-10 -1.05713e-09 2.82156e-09 )  
( 8.61195e-10 -5.61628e-10 1.35629e-09 )  
( 5.69561e-10 -5.89072e-10 9.0638e-10 )  
( 1.65837e-10 -3.245e-10 2.23537e-10 )  
( -4.92102e-11 -1.81061e-11 2.12497e-10 )  
( 4.93069e-10 -8.70326e-10 1.33552e-09 )  
( -1.44855e-09 -2.86158e-09 3.73459e-09 )  
( 9.4076e-10 -5.70808e-11 9.88997e-10 )  
( -2.25178e-10 -2.74412e-09 3.42715e-09 )  
( -5.39716e-12 -4.17504e-09 2.9737e-09 )  
( 2.15105e-09 -2.39391e-09 4.93735e-09 )  
( 1.3287e-09 -2.28292e-10 1.26524e-09 )  
( 1.20583e-09 -2.2276e-09 2.45365e-09 )  
( 1.65975e-09 4.80792e-11 1.74725e-09 )  
( 1.21401e-09 -4.78762e-10 1.76517e-09 )  
( 1.0627e-09 -1.39234e-09 2.16057e-09 )  
( -2.47731e-10 -4.71554e-09 2.71022e-09 )  
( 6.70675e-10 -3.87043e-10 4.41048e-10 )  
( -1.83955e-10 -3.15324e-09 3.25477e-09 )  
( 1.14734e-09 -6.28462e-10 1.73338e-09 )  
( 6.52722e-10 -2.20825e-10 5.02994e-10 )  
( 5.54081e-10 -3.12395e-09 4.19905e-09 )  
( 8.26855e-10 5.06894e-12 8.3689e-10 )  
( 1.65523e-10 -5.92511e-10 2.52436e-10 )  
( 1.71666e-09 -6.59347e-10 2.34011e-09 )  
( 6.67302e-10 -5.03022e-10 2.01434e-09 )  
( 1.24879e-09 -2.02676e-09 2.77671e-09 )  
( 3.13706e-09 -1.46918e-09 3.50176e-09 )  
( 1.0481e-10 -2.62184e-09 2.25758e-09 )  
( 1.83533e-09 -3.67103e-09 6.17854e-09 )  
( 3.10805e-11 -3.96258e-10 3.73689e-10 )  
( 7.2526e-10 -6.05199e-09 5.83033e-09 )  
( 1.78102e-09 -2.47093e-10 2.3249e-09 )  
( -2.88871e-09 -8.36074e-09 3.8036e-09 )  
( 9.25328e-10 2.03646e-10 7.19109e-10 )  
( -1.1884e-09 -2.03923e-09 3.8926e-09 )  
( 3.20812e-09 -5.09531e-10 4.54032e-10 )  
( 1.72745e-09 -2.93299e-09 8.94073e-10 )  
( 1.30622e-09 -1.15688e-09 2.4997e-09 )  
( 1.71031e-09 -6.47154e-10 1.3735e-09 )  
( 1.46956e-09 2.22494e-10 2.03974e-09 )  
( 2.99592e-10 -4.30291e-11 6.9591e-10 )  
( 9.75006e-11 -2.79996e-09 2.45441e-09 )  
( 1.01764e-09 -6.06523e-10 1.8612e-09 )  
( -5.55081e-09 -6.97214e-09 4.45524e-09 )  
( 3.01303e-09 -6.77621e-10 2.79902e-09 )  
( 2.77597e-10 -7.56498e-10 1.37484e-10 )  
( 7.93155e-10 -4.79434e-10 1.20133e-09 )  
( -1.86197e-09 -4.46877e-09 5.65351e-09 )  
( 8.96151e-10 -5.40853e-09 4.84479e-09 )  
( -1.14493e-09 -1.70132e-09 9.09992e-10 )  
( 6.9539e-10 -2.86193e-10 2.38011e-10 )  
( 2.6677e-08 -9.8684e-09 -1.37592e-09 )  
( 9.86009e-10 -3.66431e-10 1.25877e-09 )  
( -1.93332e-09 -1.17968e-08 5.93475e-09 )  
( -1.568e-09 -7.67029e-10 4.2845e-10 )  
( 8.91814e-10 -5.5891e-10 1.80288e-09 )  
( 2.02864e-09 -7.86193e-10 2.13477e-09 )  
( 5.66192e-10 -1.95669e-09 2.46447e-09 )  
( 3.01231e-09 -5.53151e-10 2.17412e-09 )  
( 1.68246e-09 -3.59468e-09 4.0049e-09 )  
( 1.82529e-09 -2.26401e-10 1.57601e-09 )  
( 5.56592e-10 -2.85052e-09 3.97332e-09 )  
( 3.16086e-09 -4.80806e-09 6.90154e-09 )  
)
