/*--------------------------------*- C++ -*----------------------------------*\
| =========                 |                                                 |
| \\      /  F ield         | OpenFOAM: The Open Source CFD Toolbox           |
|  \\    /   O peration     | Version:  4.x                                   |
|   \\  /    A nd           | Web:      www.OpenFOAM.org                      |
|    \\/     M anipulation  |                                                 |
\*---------------------------------------------------------------------------*/
FoamFile
{
    version     2.0;
    format      ascii;
    class       volScalarField;
    location    "33.5";
    object      Cs;
}
// * * * * * * * * * * * * * * * * * * * * * * * * * * * * * * * * * * * * * //

dimensions      [1 -3 0 0 0 0 0];

internalField   nonuniform List<scalar> 
87
(
335
334.999
334.999
334.999
334.998
334.997
334.996
334.995
335.879
335
335
335
335
334.999
334.999
334.999
334.998
334.58
335
335
334.999
334.999
334.998
334.998
334.995
334.995
334.952
335
335
335
335
335
335
334.999
334.998
334.529
335
334.999
334.999
334.998
334.997
334.996
334.991
334.99
334.679
334.999
334.998
334.996
334.993
334.987
334.983
334.972
334.973
334.873
335
335
335
334.999
334.999
334.999
334.996
334.995
334.765
334.999
334.998
334.997
334.994
334.99
334.986
334.978
334.976
334.73
334.998
334.994
334.989
334.983
334.975
334.968
334.959
334.957
334.856
335
335
335
335
334.999
334.999
)
;

boundaryField
{
    inlet
    {
        type            calculated;
        value           nonuniform 0();
    }
    outlet
    {
        type            calculated;
        value           uniform 335;
    }
    wall
    {
        type            calculated;
        value           nonuniform List<scalar> 
57
(
335
335
335
334.999
335
335
334.999
335
334.999
334.999
335
334.999
334.998
334.999
334.998
334.997
334.999
334.998
334.996
334.999
334.995
334.995
334.998
334.995
335.879
334.58
334.952
335
335
335
335
334.999
335
335
335
334.999
335
335
335
334.999
335
334.999
334.998
335
334.999
334.997
335
334.999
334.996
334.999
334.996
334.995
334.998
334.995
335.879
334.529
334.765
)
;
    }
    procBoundary1to0
    {
        type            processor;
        value           nonuniform List<scalar> 
12
(
335
335
335
335
335
334.999
335
335
334.999
335
335
335
)
;
    }
    procBoundary1to3
    {
        type            processor;
        value           nonuniform List<scalar> 
27
(
335
334.999
334.999
334.998
334.997
334.996
334.994
334.993
335.104
334.999
334.998
334.997
334.994
334.988
334.983
334.973
334.972
334.801
334.998
334.994
334.986
334.977
334.965
334.956
334.943
334.944
334.862
)
;
    }
    procBoundary1to5
    {
        type            processor;
        value           nonuniform List<scalar> 
32
(
335
334.999
334.999
334.997
334.994
334.958
334.998
334.997
334.994
334.99
334.985
334.977
334.907
334.998
334.996
334.992
334.986
334.979
334.971
334.962
334.863
335
335
335
334.998
335
334.999
334.998
334.998
334.999
334.998
334.999
)
;
    }
    procBoundary1to7
    {
        type            processor;
        value           uniform 334.999;
    }
}


// ************************************************************************* //
