/*--------------------------------*- C++ -*----------------------------------*\
| =========                 |                                                 |
| \\      /  F ield         | OpenFOAM: The Open Source CFD Toolbox           |
|  \\    /   O peration     | Version:  4.x                                   |
|   \\  /    A nd           | Web:      www.OpenFOAM.org                      |
|    \\/     M anipulation  |                                                 |
\*---------------------------------------------------------------------------*/
FoamFile
{
    version     2.0;
    format      ascii;
    class       volVectorField;
    location    "33.5";
    object      UsNext;
}
// * * * * * * * * * * * * * * * * * * * * * * * * * * * * * * * * * * * * * //

dimensions      [0 1 -1 0 0 0 0];

internalField   nonuniform List<vector> 
87
(
(1.37088e-09 9.49216e-09 3.11253e-08)
(-8.12752e-08 1.17001e-06 1.15518e-07)
(-2.73734e-08 -5.40518e-10 2.00283e-08)
(-2.05436e-08 -7.57492e-10 1.49049e-09)
(-1.12245e-08 1.37657e-09 1.74018e-09)
(-3.89229e-09 1.01885e-09 -2.93669e-09)
(8.7941e-09 -3.26851e-09 -1.03063e-08)
(6.72059e-07 9.96169e-09 -4.9122e-08)
(3.49196e-07 -2.1815e-08 -7.10591e-08)
(-1.06057e-08 -5.24475e-09 1.63846e-08)
(-1.81263e-08 -8.57447e-09 3.01037e-08)
(-3.61313e-08 -9.3444e-09 1.29131e-08)
(-2.43238e-08 -2.49847e-09 2.40937e-09)
(-2.20385e-08 -1.97907e-09 -6.09846e-09)
(-1.18212e-08 -6.20209e-09 -6.56169e-09)
(-4.31043e-09 -8.39986e-09 -2.07373e-08)
(5.58525e-09 -1.35083e-08 -2.53921e-08)
(-4.78286e-09 -3.56536e-08 -4.29792e-08)
(-1.36484e-08 -6.07059e-09 1.4211e-08)
(-2.00433e-08 -9.03586e-09 1.80931e-08)
(-2.87233e-08 1.00031e-09 1.44668e-08)
(-2.34348e-08 -2.14861e-09 6.58127e-09)
(-2.1261e-08 -5.29677e-09 -3.98089e-09)
(-1.26139e-08 -6.36917e-09 -7.77537e-09)
(-3.50324e-09 -6.71029e-09 -1.75299e-08)
(1.07308e-08 2.06308e-09 -3.0611e-08)
(1.09637e-08 1.02539e-08 -2.87952e-08)
(-1.57887e-08 6.26157e-09 2.17945e-08)
(-9.87584e-09 3.39689e-09 5.0047e-08)
(-6.37849e-09 1.11178e-09 1.86913e-08)
(-4.81326e-09 -1.01513e-09 8.85593e-10)
(-5.59232e-09 2.52928e-11 2.78645e-10)
(-4.65691e-10 -1.32741e-09 -3.42255e-09)
(3.25073e-09 -1.52018e-09 -7.79564e-09)
(6.80972e-09 -3.1395e-09 -1.70188e-08)
(2.56965e-09 -8.68412e-09 -2.5662e-08)
(-1.64431e-08 7.59054e-10 1.83978e-08)
(-1.5734e-08 -2.65679e-09 2.88622e-08)
(-1.27522e-08 6.6166e-10 1.67051e-08)
(-1.66125e-08 -2.75042e-09 2.87236e-09)
(-1.41071e-08 -3.31582e-09 -5.1374e-09)
(-8.07763e-09 -4.93151e-09 -9.23903e-09)
(-4.07797e-09 -3.79693e-09 -1.60615e-08)
(2.41511e-09 -2.5796e-09 -2.30057e-08)
(1.32053e-08 -9.15732e-09 -2.94735e-08)
(-1.18595e-08 -1.95718e-09 1.38732e-08)
(-1.46858e-08 -2.54022e-09 1.64756e-08)
(-1.62267e-08 -4.24936e-09 1.33718e-08)
(-1.7116e-08 -4.92233e-09 5.49946e-09)
(-1.39656e-08 -5.26738e-09 -3.96177e-09)
(-9.13719e-09 -5.88496e-09 -1.04977e-08)
(-2.62118e-09 -4.15502e-09 -1.72668e-08)
(4.06289e-09 -4.6912e-10 -2.49285e-08)
(2.13149e-09 -8.56518e-10 -2.41659e-08)
(-7.49024e-09 -3.13035e-11 6.28038e-09)
(-7.16972e-09 1.74109e-09 8.82623e-09)
(-6.13553e-09 1.6742e-09 1.09742e-08)
(-3.2101e-09 6.79678e-10 2.35209e-09)
(-2.52632e-09 3.18298e-10 4.57007e-11)
(-1.22278e-09 -3.15408e-10 -2.98909e-09)
(2.26274e-10 1.01465e-09 -5.25643e-09)
(1.95777e-10 6.98263e-10 -7.01455e-09)
(2.8742e-09 -1.13597e-09 -1.14478e-08)
(-9.63318e-09 8.57973e-12 1.08466e-08)
(-9.01198e-09 -7.56977e-11 1.33412e-08)
(-8.02597e-09 1.64301e-09 1.36864e-08)
(-8.18483e-09 -2.1934e-09 5.64634e-09)
(-4.54955e-09 -2.22884e-09 -1.31708e-09)
(-2.18624e-09 -1.7784e-09 -5.77245e-09)
(-2.54268e-10 8.15982e-10 -1.15188e-08)
(1.58784e-09 -1.62054e-09 -1.43911e-08)
(1.0903e-09 -1.09423e-10 -9.86977e-09)
(-6.97232e-09 -1.66057e-09 1.10063e-08)
(-7.68854e-09 -1.21687e-09 1.26795e-08)
(-8.30248e-09 1.26256e-09 1.12538e-08)
(-9.49479e-09 -1.84212e-09 6.11295e-09)
(-7.9884e-09 -3.11303e-09 -1.11434e-09)
(-5.17083e-09 -2.97519e-09 -7.36029e-09)
(-8.23579e-10 5.84046e-10 -1.44364e-08)
(-1.53631e-09 -4.17068e-10 -1.46779e-08)
(-6.46097e-10 5.70003e-10 -1.25563e-08)
(-5.34583e-09 -5.12949e-10 4.60973e-09)
(-3.80558e-09 3.16394e-10 4.15623e-09)
(-4.42506e-09 1.42889e-10 5.86563e-09)
(-8.5952e-09 1.2304e-10 6.98104e-09)
(-8.07934e-09 1.54527e-10 1.03818e-08)
(-5.38467e-09 -6.45866e-10 8.1271e-09)
)
;

boundaryField
{
    inlet
    {
        type            calculated;
        value           nonuniform 0();
    }
    outlet
    {
        type            calculated;
        value           nonuniform List<vector> 9((3.49196e-07 -2.1815e-08 -7.10591e-08) (-4.78286e-09 -3.56536e-08 -4.29792e-08) (1.09637e-08 1.02539e-08 -2.87952e-08) (2.56965e-09 -8.68412e-09 -2.5662e-08) (1.32053e-08 -9.15732e-09 -2.94735e-08) (2.13149e-09 -8.56518e-10 -2.41659e-08) (2.8742e-09 -1.13597e-09 -1.14478e-08) (1.0903e-09 -1.09423e-10 -9.86977e-09) (-6.46097e-10 5.70003e-10 -1.25563e-08));
    }
    wall
    {
        type            calculated;
        value           nonuniform List<vector> 
57
(
(1.37088e-09 9.49216e-09 3.11253e-08)
(-1.06057e-08 -5.24475e-09 1.63846e-08)
(-1.36484e-08 -6.07059e-09 1.4211e-08)
(-8.12752e-08 1.17001e-06 1.15518e-07)
(-1.81263e-08 -8.57447e-09 3.01037e-08)
(-2.00433e-08 -9.03586e-09 1.80931e-08)
(-2.73734e-08 -5.40518e-10 2.00283e-08)
(-3.61313e-08 -9.3444e-09 1.29131e-08)
(-2.87233e-08 1.00031e-09 1.44668e-08)
(-2.05436e-08 -7.57492e-10 1.49049e-09)
(-2.43238e-08 -2.49847e-09 2.40937e-09)
(-2.34348e-08 -2.14861e-09 6.58127e-09)
(-1.12245e-08 1.37657e-09 1.74018e-09)
(-2.20385e-08 -1.97907e-09 -6.09846e-09)
(-2.1261e-08 -5.29677e-09 -3.98089e-09)
(-3.89229e-09 1.01885e-09 -2.93669e-09)
(-1.18212e-08 -6.20209e-09 -6.56169e-09)
(-1.26139e-08 -6.36917e-09 -7.77537e-09)
(8.7941e-09 -3.26851e-09 -1.03063e-08)
(-4.31043e-09 -8.39986e-09 -2.07373e-08)
(-3.50324e-09 -6.71029e-09 -1.75299e-08)
(6.72059e-07 9.96169e-09 -4.9122e-08)
(5.58525e-09 -1.35083e-08 -2.53921e-08)
(1.07308e-08 2.06308e-09 -3.0611e-08)
(3.49196e-07 -2.1815e-08 -7.10591e-08)
(-4.78286e-09 -3.56536e-08 -4.29792e-08)
(1.09637e-08 1.02539e-08 -2.87952e-08)
(1.37088e-09 9.49216e-09 3.11253e-08)
(-1.57887e-08 6.26157e-09 2.17945e-08)
(-7.49024e-09 -3.13035e-11 6.28038e-09)
(-5.34583e-09 -5.12949e-10 4.60973e-09)
(-8.12752e-08 1.17001e-06 1.15518e-07)
(-9.87584e-09 3.39689e-09 5.0047e-08)
(-7.16972e-09 1.74109e-09 8.82623e-09)
(-3.80558e-09 3.16394e-10 4.15623e-09)
(-2.73734e-08 -5.40518e-10 2.00283e-08)
(-6.37849e-09 1.11178e-09 1.86913e-08)
(-6.13553e-09 1.6742e-09 1.09742e-08)
(-4.42506e-09 1.42889e-10 5.86563e-09)
(-2.05436e-08 -7.57492e-10 1.49049e-09)
(-4.81326e-09 -1.01513e-09 8.85593e-10)
(-3.2101e-09 6.79678e-10 2.35209e-09)
(-1.12245e-08 1.37657e-09 1.74018e-09)
(-5.59232e-09 2.52928e-11 2.78645e-10)
(-2.52632e-09 3.18298e-10 4.57007e-11)
(-3.89229e-09 1.01885e-09 -2.93669e-09)
(-4.65691e-10 -1.32741e-09 -3.42255e-09)
(-1.22278e-09 -3.15408e-10 -2.98909e-09)
(8.7941e-09 -3.26851e-09 -1.03063e-08)
(3.25073e-09 -1.52018e-09 -7.79564e-09)
(2.26274e-10 1.01465e-09 -5.25643e-09)
(6.72059e-07 9.96169e-09 -4.9122e-08)
(6.80972e-09 -3.1395e-09 -1.70188e-08)
(1.95777e-10 6.98263e-10 -7.01455e-09)
(3.49196e-07 -2.1815e-08 -7.10591e-08)
(2.56965e-09 -8.68412e-09 -2.5662e-08)
(2.8742e-09 -1.13597e-09 -1.14478e-08)
)
;
    }
    procBoundary1to0
    {
        type            processor;
        value           nonuniform List<vector> 
12
(
(-7.27327e-09 8.22876e-10 1.1227e-09)
(-8.97803e-09 -2.90307e-09 7.28682e-09)
(-8.06106e-09 -2.55106e-09 6.18626e-09)
(-8.26781e-09 -3.52133e-09 5.29827e-09)
(-1.00037e-08 -2.27347e-10 9.09795e-09)
(-7.09912e-09 -1.40976e-09 8.12794e-09)
(-6.51352e-09 -2.19812e-09 6.61401e-09)
(-9.35771e-09 5.11049e-10 8.87617e-09)
(-6.32401e-09 1.17726e-09 8.34427e-09)
(-5.15041e-09 -8.48454e-10 5.66645e-09)
(-6.99319e-09 1.48526e-10 6.04583e-09)
(-4.83522e-09 1.17386e-09 6.91812e-09)
)
;
    }
    procBoundary1to3
    {
        type            processor;
        value           nonuniform List<vector> 
27
(
(-1.31051e-08 -6.68295e-09 1.11228e-08)
(-1.67823e-08 -6.83932e-09 1.38649e-08)
(-2.1916e-08 -6.9358e-09 1.38049e-08)
(-2.22139e-08 -5.48434e-09 8.65398e-09)
(-2.23238e-08 -4.77861e-09 -6.5176e-10)
(-1.55971e-08 -2.50128e-09 -5.81343e-09)
(-1.32338e-08 -7.66127e-09 -1.63026e-08)
(4.08513e-08 3.9492e-08 -3.91471e-08)
(-7.4582e-07 2.01111e-08 -4.7595e-08)
(-1.29773e-08 -5.30811e-09 1.20428e-08)
(-1.45439e-08 -4.82445e-09 1.27377e-08)
(-1.75073e-08 -5.08894e-09 1.33792e-08)
(-1.68858e-08 -5.69586e-09 6.08014e-09)
(-1.55348e-08 -4.27361e-09 -1.61694e-09)
(-1.4342e-08 -3.03931e-09 -7.50907e-09)
(-1.30863e-08 -1.52622e-09 -1.71124e-08)
(-1.60813e-09 6.97248e-09 -3.3759e-08)
(-1.50329e-07 8.39959e-09 -3.656e-08)
(-8.79744e-09 -4.28354e-09 9.81683e-09)
(-9.74867e-09 -3.57529e-09 1.16398e-08)
(-1.2118e-08 -3.12266e-09 1.14837e-08)
(-1.36069e-08 -5.21703e-09 6.19577e-09)
(-1.12174e-08 -4.45982e-09 -9.11818e-10)
(-9.45509e-09 -2.85813e-09 -5.99195e-09)
(-7.49106e-09 -7.56597e-10 -1.29678e-08)
(-1.66065e-09 2.74916e-10 -1.70649e-08)
(-1.51014e-10 4.82806e-10 -1.26372e-08)
)
;
    }
    procBoundary1to5
    {
        type            processor;
        value           nonuniform List<vector> 
32
(
(-4.81565e-09 1.02161e-09 3.2287e-09)
(-3.35218e-09 6.25647e-10 3.80367e-10)
(-2.61547e-09 8.97736e-10 -1.57481e-09)
(-1.39188e-09 1.08977e-09 -3.20264e-09)
(-1.04911e-09 1.33381e-09 -3.29007e-09)
(-3.23292e-08 3.24146e-09 -1.68382e-09)
(-6.3062e-09 1.50517e-09 1.12708e-08)
(-6.38647e-09 3.92902e-10 5.41871e-09)
(-5.31563e-09 -4.59137e-10 9.80071e-10)
(-3.5815e-09 3.45044e-11 -3.25683e-09)
(-2.07852e-09 1.13604e-09 -6.48491e-09)
(-2.07319e-09 6.19654e-10 -8.02078e-09)
(-3.07623e-09 2.07884e-09 -7.41341e-09)
(-6.2376e-09 -1.69469e-09 1.03816e-08)
(-6.6754e-09 -1.10778e-10 9.16508e-09)
(-6.51519e-09 -1.47883e-09 4.77161e-09)
(-5.84065e-09 -1.61343e-09 3.82949e-10)
(-4.30852e-09 -1.10938e-09 -3.45854e-09)
(-3.72503e-09 -3.31203e-10 -6.69419e-09)
(-2.92413e-09 -5.39106e-10 -9.88734e-09)
(-2.61612e-09 -5.29418e-09 -7.66051e-09)
(-1.95939e-09 4.13384e-10 3.46367e-09)
(-1.92693e-09 -2.5946e-10 3.94235e-09)
(-4.81565e-09 1.02161e-09 3.2287e-09)
(-6.3062e-09 1.50517e-09 1.12708e-08)
(-3.68844e-09 -2.94232e-10 4.31223e-09)
(-2.98372e-09 -3.82513e-10 4.61884e-09)
(-6.3062e-09 1.50517e-09 1.12708e-08)
(-6.2376e-09 -1.69469e-09 1.03816e-08)
(-1.71988e-09 -1.28529e-09 5.90073e-09)
(-6.2376e-09 -1.69469e-09 1.03816e-08)
(-3.45254e-09 -1.53233e-09 6.09419e-09)
)
;
    }
    procBoundary1to7
    {
        type            processor;
        value           uniform (-5.74667e-09 -2.95446e-09 7.65691e-09);
    }
}


// ************************************************************************* //
