/*--------------------------------*- C++ -*----------------------------------*\
| =========                 |                                                 |
| \\      /  F ield         | OpenFOAM: The Open Source CFD Toolbox           |
|  \\    /   O peration     | Version:  4.x                                   |
|   \\  /    A nd           | Web:      www.OpenFOAM.org                      |
|    \\/     M anipulation  |                                                 |
\*---------------------------------------------------------------------------*/
FoamFile
{
    version     2.0;
    format      ascii;
    class       volVectorField;
    location    "25.5";
    object      ddtUrel;
}
// * * * * * * * * * * * * * * * * * * * * * * * * * * * * * * * * * * * * * //

dimensions      [0 1 -2 0 0 0 0];

internalField   nonuniform List<vector> 
114
(
(2.82643e-06 -3.16819e-07 -7.76933e-07)
(2.27293e-06 -7.06073e-07 -1.36569e-06)
(-3.53537e-07 -1.90079e-06 -3.16905e-06)
(-6.97438e-06 -5.89743e-06 -7.44211e-06)
(-3.07732e-05 -2.04805e-05 -2.17465e-05)
(-4.86582e-05 -2.64964e-05 -2.28755e-05)
(1.86653e-06 -1.40334e-08 -1.13135e-08)
(2.12336e-06 -9.29886e-08 -1.23788e-07)
(2.48605e-06 -1.78846e-07 -3.65122e-07)
(2.76134e-06 -3.61925e-07 -6.77128e-07)
(2.36971e-06 -5.27364e-07 -1.38034e-06)
(5.90498e-07 -1.4039e-06 -2.57568e-06)
(-2.58578e-06 -3.72002e-06 -4.65797e-06)
(-8.7639e-06 -7.65548e-06 -8.17287e-06)
(-1.14524e-05 -9.01192e-06 -8.72063e-06)
(1.70639e-06 -7.5803e-08 -1.32957e-08)
(1.96665e-06 -1.07514e-07 -9.68322e-08)
(2.34142e-06 -1.69755e-07 -2.70073e-07)
(2.83139e-06 -3.37572e-07 -5.28342e-07)
(2.67191e-06 -5.7825e-07 -1.18963e-06)
(1.45082e-06 -1.13934e-06 -1.88004e-06)
(6.80443e-07 -2.24395e-06 -2.61265e-06)
(-4.8608e-07 -3.34205e-06 -3.87125e-06)
(-6.78978e-07 -3.70493e-06 -4.17535e-06)
(1.53106e-06 -8.70409e-08 -3.10037e-08)
(1.80727e-06 -1.01251e-07 -1.10694e-07)
(2.19853e-06 -1.48903e-07 -2.45327e-07)
(2.44092e-06 -3.05894e-07 -5.41477e-07)
(2.49196e-06 -5.99037e-07 -1.01113e-06)
(1.98097e-06 -9.15815e-07 -1.47156e-06)
(2.13971e-06 -1.45044e-06 -1.89606e-06)
(2.39091e-06 -1.97925e-06 -2.42673e-06)
(2.36336e-06 -1.96415e-06 -2.70353e-06)
(1.13199e-06 -1.48895e-06 -2.38831e-06)
(-1.22229e-06 -3.34665e-06 -4.18708e-06)
(-6.47198e-06 -6.93346e-06 -7.71368e-06)
(-9.56535e-06 -8.69895e-06 -7.74157e-06)
(1.79827e-06 -1.47051e-08 -2.57764e-08)
(2.00756e-06 -5.99238e-08 -1.36913e-07)
(2.34473e-06 -1.18191e-07 -3.44003e-07)
(2.71738e-06 -2.43238e-07 -6.70605e-07)
(2.49595e-06 -4.5137e-07 -1.23888e-06)
(1.57555e-06 -1.03129e-06 -2.10636e-06)
(3.7512e-07 -2.41173e-06 -3.06961e-06)
(-1.83055e-06 -4.21429e-06 -4.7192e-06)
(-2.67366e-06 -5.00851e-06 -4.90493e-06)
(1.63862e-06 -4.21994e-08 -3.97789e-08)
(1.87392e-06 -6.96518e-08 -1.25348e-07)
(2.25833e-06 -1.11015e-07 -2.99318e-07)
(2.63125e-06 -2.22133e-07 -5.53496e-07)
(2.69186e-06 -4.12692e-07 -1.16266e-06)
(2.13188e-06 -7.89826e-07 -1.75846e-06)
(1.76812e-06 -1.55768e-06 -2.18172e-06)
(1.27609e-06 -2.37069e-06 -2.97482e-06)
(1.25523e-06 -2.67726e-06 -3.16101e-06)
(1.51127e-06 -5.48898e-08 -5.51006e-08)
(1.73337e-06 -7.39092e-08 -1.38697e-07)
(2.05585e-06 -1.13906e-07 -2.7311e-07)
(2.37271e-06 -2.28618e-07 -5.24758e-07)
(2.54848e-06 -4.52553e-07 -9.86266e-07)
(2.42119e-06 -7.14718e-07 -1.40292e-06)
(2.5655e-06 -1.12684e-06 -1.64846e-06)
(2.7771e-06 -1.52296e-06 -2.12321e-06)
(2.64185e-06 -1.70345e-06 -2.42301e-06)
(6.82384e-07 -2.90842e-06 -3.61306e-06)
(8.12772e-09 -3.75081e-06 -3.66916e-06)
(1.61008e-06 4.10948e-09 -1.05395e-07)
(1.81412e-06 -1.90215e-08 -1.83236e-07)
(2.21051e-06 -5.1664e-08 -3.26206e-07)
(2.63629e-06 -1.3217e-07 -5.84956e-07)
(2.75186e-06 -2.79051e-07 -1.0568e-06)
(2.60566e-06 -6.24455e-07 -1.58548e-06)
(2.07903e-06 -1.48409e-06 -2.18346e-06)
(1.61228e-06 -2.20363e-06 -2.88143e-06)
(1.39061e-06 -2.71039e-06 -3.10655e-06)
(1.48502e-06 -1.33056e-08 -1.11568e-07)
(1.76137e-06 -2.37266e-08 -1.80388e-07)
(2.17797e-06 -4.82358e-08 -2.98473e-07)
(2.55324e-06 -1.22095e-07 -5.17153e-07)
(2.79679e-06 -2.69395e-07 -9.72731e-07)
(2.78006e-06 -4.80419e-07 -1.41314e-06)
(2.71638e-06 -9.88647e-07 -1.70891e-06)
(2.75731e-06 -1.51282e-06 -2.17006e-06)
(2.91483e-06 -1.83502e-06 -2.37334e-06)
(1.43065e-06 -1.93178e-08 -1.05554e-07)
(1.69512e-06 -2.95989e-08 -1.70904e-07)
(2.03169e-06 -5.68607e-08 -2.74352e-07)
(2.43184e-06 -1.20371e-07 -4.69901e-07)
(2.73961e-06 -2.67976e-07 -8.36863e-07)
(2.91923e-06 -4.38481e-07 -1.16699e-06)
(3.15973e-06 -7.82406e-07 -1.43349e-06)
(3.34155e-06 -1.16988e-06 -1.78192e-06)
(3.33312e-06 -1.41738e-06 -2.00739e-06)
(1.31964e-06 4.17351e-08 -1.83841e-07)
(1.67346e-06 3.51326e-08 -2.29154e-07)
(2.14115e-06 1.44404e-08 -3.32898e-07)
(2.56077e-06 -3.08599e-08 -5.67004e-07)
(2.87261e-06 -1.18619e-07 -9.2533e-07)
(3.1058e-06 -3.73148e-07 -1.25557e-06)
(3.06418e-06 -8.58458e-07 -1.55182e-06)
(3.06105e-06 -1.22448e-06 -1.69326e-06)
(1.32149e-06 2.93507e-08 -1.8109e-07)
(1.63043e-06 2.43412e-08 -2.25989e-07)
(2.05687e-06 1.76259e-08 -3.1433e-07)
(2.50387e-06 -7.59629e-09 -4.91552e-07)
(2.87584e-06 -7.45799e-08 -7.96861e-07)
(3.09676e-06 -2.43107e-07 -1.06982e-06)
(3.23135e-06 -5.60245e-07 -1.32965e-06)
(1.38412e-06 1.76803e-08 -1.77077e-07)
(1.647e-06 1.76254e-08 -2.15102e-07)
(2.02825e-06 2.84094e-08 -2.93716e-07)
(2.44946e-06 -3.13094e-09 -4.25093e-07)
(2.83336e-06 -8.07774e-08 -6.52861e-07)
(3.10178e-06 -2.11829e-07 -8.69962e-07)
)
;

boundaryField
{
    inlet
    {
        type            calculated;
        value           nonuniform List<vector> 
12
(
(1.17298e-06 4.04386e-07 3.11273e-07)
(1.00241e-06 -1.08625e-07 3.95704e-07)
(-9.4129e-07 -1.66298e-07 1.62452e-07)
(6.16992e-07 1.76616e-07 3.32097e-07)
(9.12891e-07 1.29552e-07 4.22384e-07)
(3.45231e-07 1.61195e-08 1.7785e-07)
(4.88303e-07 1.73776e-07 3.27725e-07)
(3.27161e-07 3.75981e-08 2.36218e-07)
(2.06055e-07 2.97419e-08 1.62526e-07)
(4.57425e-07 1.6162e-07 2.21997e-07)
(3.03406e-07 7.38387e-08 1.67998e-07)
(2.32622e-07 1.78478e-08 1.18139e-07)
)
;
    }
    outlet
    {
        type            calculated;
        value           nonuniform 0();
    }
    wall
    {
        type            calculated;
        value           nonuniform List<vector> 
66
(
(9.60989e-07 3.09181e-07 2.22688e-07)
(1.0763e-06 -1.63651e-07 3.05842e-07)
(-3.35176e-07 -1.59905e-07 1.08673e-07)
(2.20913e-06 -1.12091e-07 3.32337e-07)
(1.48339e-06 -9.10144e-08 2.95614e-07)
(9.20381e-07 -3.85386e-08 1.8121e-07)
(3.32106e-06 -5.17933e-08 2.56032e-07)
(2.03097e-06 2.33183e-08 3.73276e-07)
(2.75867e-06 2.01235e-07 5.68853e-07)
(5.44033e-06 5.71914e-07 2.967e-07)
(4.93124e-06 -1.04999e-06 3.84788e-07)
(7.01184e-06 -6.20123e-07 1.48516e-06)
(1.50161e-06 1.71918e-08 1.51922e-07)
(7.838e-06 1.06812e-06 4.16025e-07)
(6.72793e-06 2.09848e-06 -2.94094e-08)
(8.03932e-06 -5.08465e-07 -1.14566e-06)
(1.3455e-06 -2.00047e-06 -6.24961e-07)
(2.85376e-06 3.76548e-06 -1.16488e-06)
(1.62596e-06 2.14136e-06 -1.82536e-06)
(-3.46785e-06 -6.27792e-07 -1.0736e-06)
(-1.72549e-06 2.28609e-07 6.79959e-08)
(4.7192e-06 6.34977e-06 -2.48583e-06)
(8.25037e-07 -3.16886e-06 -3.14748e-06)
(2.40783e-06 -3.70609e-06 6.57459e-07)
(6.12338e-06 2.44727e-07 5.64165e-07)
(-0.000426087 -0.000163871 -0.00020184)
(2.10079e-06 -2.09665e-07 -2.56983e-06)
(9.09417e-06 -1.93465e-07 -1.36661e-06)
(1.23848e-05 -8.47325e-07 2.83697e-07)
(-0.000966458 -0.000306441 -0.000310317)
(5.14593e-06 -3.51701e-06 -5.61167e-06)
(9.22328e-06 8.03064e-07 -2.37415e-06)
(9.48817e-06 1.41893e-06 -3.02229e-07)
(-1.80818e-07 -1.54659e-07 1.14161e-07)
(3.23678e-07 4.59588e-09 1.42475e-07)
(1.73089e-07 2.22942e-08 1.38599e-07)
(1.85993e-07 8.71544e-09 8.90295e-08)
(9.53786e-07 -3.63637e-08 1.96115e-07)
(7.45915e-07 -6.01092e-09 2.04397e-07)
(5.0559e-07 2.19793e-08 9.7134e-08)
(6.66026e-07 -1.90277e-08 7.17642e-08)
(1.88673e-06 1.34112e-07 5.31319e-07)
(1.34607e-06 1.41468e-08 1.79514e-07)
(9.47378e-07 4.36169e-08 9.75645e-08)
(8.06922e-07 1.25678e-07 3.1809e-08)
(1.26888e-06 3.42166e-08 1.50355e-07)
(1.84096e-06 9.54562e-08 2.0362e-07)
(2.00942e-06 1.87547e-07 3.50219e-07)
(1.58093e-06 7.6221e-08 1.6222e-07)
(4.55682e-06 -1.11958e-06 -2.84479e-07)
(3.51422e-06 -2.57229e-07 -5.5907e-07)
(3.76938e-06 -1.03709e-07 -3.74254e-07)
(2.38831e-06 7.05764e-08 -9.67972e-08)
(9.90635e-07 -5.78185e-08 -2.91414e-09)
(3.04649e-06 -8.41741e-09 -3.46744e-07)
(4.04001e-06 2.52138e-07 -3.64703e-07)
(2.70274e-06 3.884e-07 -7.85002e-08)
(4.58939e-06 1.24974e-06 6.35773e-07)
(4.25926e-06 5.73208e-08 7.52768e-07)
(5.8673e-06 -1.42253e-07 -4.70068e-07)
(1.62313e-05 -2.81139e-07 6.77909e-07)
(7.4275e-06 -3.42876e-07 1.74255e-07)
(7.79658e-06 -6.50354e-07 -9.1448e-07)
(7.88235e-06 1.34496e-06 -3.18222e-08)
(2.60464e-06 -2.69343e-07 -5.5603e-07)
(5.90915e-06 -1.14624e-06 -2.35134e-06)
)
;
    }
    procBoundary2to0
    {
        type            processor;
        value           nonuniform List<vector> 
44
(
(2.74193e-06 -2.00667e-07 -6.54031e-07)
(2.40001e-06 -4.69616e-07 -1.12798e-06)
(5.91495e-07 -1.41374e-06 -2.47267e-06)
(-2.27012e-06 -3.69808e-06 -4.71796e-06)
(-7.63112e-06 -8.03586e-06 -8.55785e-06)
(-1.17088e-05 -9.91806e-06 -8.87657e-06)
(1.98981e-06 -6.4307e-09 -4.81822e-08)
(2.27835e-06 -6.50206e-08 -1.50484e-07)
(2.66091e-06 -1.43868e-07 -4.15919e-07)
(2.66091e-06 -1.43868e-07 -4.15919e-07)
(2.77416e-06 -1.78877e-07 -6.67053e-07)
(2.50581e-06 -5.99922e-07 -1.25991e-06)
(1.48839e-06 -1.01161e-06 -2.00702e-06)
(1.34586e-07 -2.36453e-06 -3.23896e-06)
(-1.58409e-06 -4.39123e-06 -4.89092e-06)
(-2.77765e-06 -5.52098e-06 -4.88544e-06)
(1.86035e-06 7.90795e-09 -5.74385e-08)
(2.10589e-06 -4.00938e-08 -1.65562e-07)
(2.37894e-06 -1.04533e-07 -3.52428e-07)
(2.77416e-06 -1.78877e-07 -6.67053e-07)
(2.50581e-06 -5.99922e-07 -1.25991e-06)
(2.50581e-06 -5.99922e-07 -1.25991e-06)
(2.47057e-06 -7.98068e-07 -1.62621e-06)
(1.86506e-06 -1.56662e-06 -2.47642e-06)
(1.61417e-06 -2.30003e-06 -2.90284e-06)
(9.51473e-07 -3.17447e-06 -3.18636e-06)
(1.62074e-06 1.84281e-08 -1.07554e-07)
(1.87897e-06 -1.3142e-08 -1.99891e-07)
(2.23761e-06 -4.87103e-08 -3.18974e-07)
(2.61577e-06 -9.84995e-08 -5.69239e-07)
(2.64666e-06 -3.19454e-07 -1.09775e-06)
(2.47057e-06 -7.98068e-07 -1.62621e-06)
(1.86506e-06 -1.56662e-06 -2.47642e-06)
(1.86506e-06 -1.56662e-06 -2.47642e-06)
(2.97669e-06 -1.24645e-06 -1.86966e-06)
(2.20631e-06 -1.8484e-06 -2.35694e-06)
(1.28172e-06 4.6658e-08 -1.72579e-07)
(1.66223e-06 2.64107e-08 -2.39869e-07)
(2.12739e-06 2.42031e-09 -3.49056e-07)
(2.53065e-06 -2.81769e-08 -5.36283e-07)
(2.83076e-06 -1.07791e-07 -8.82875e-07)
(3.10504e-06 -3.18242e-07 -1.17122e-06)
(3.16727e-06 -7.17931e-07 -1.51257e-06)
(2.97669e-06 -1.24645e-06 -1.86966e-06)
)
;
    }
    procBoundary2to3
    {
        type            processor;
        value           nonuniform List<vector> 
12
(
(-1.22542e-05 -9.03161e-06 -7.35858e-06)
(-3.96902e-06 -5.24637e-06 -5.0041e-06)
(9.89504e-07 -2.81885e-06 -3.21727e-06)
(3.03351e-06 -1.48991e-06 -2.46538e-06)
(-3.07094e-06 -5.37572e-06 -4.32004e-06)
(-1.19226e-07 -3.81394e-06 -3.50405e-06)
(2.40677e-06 -2.26752e-06 -2.76051e-06)
(3.42555e-06 -1.40426e-06 -2.37754e-06)
(-6.59423e-08 -3.32924e-06 -3.04827e-06)
(1.67449e-06 -2.29847e-06 -2.81716e-06)
(3.09129e-06 -1.87925e-06 -2.28881e-06)
(3.78656e-06 -1.26849e-06 -2.14202e-06)
)
;
    }
    procBoundary2to6
    {
        type            processor;
        value           nonuniform List<vector> 
32
(
(3.5546e-06 -1.35437e-06 -1.96334e-06)
(3.7527e-06 -7.6113e-07 -1.49134e-06)
(3.84394e-06 -1.13404e-06 -1.77181e-06)
(3.46615e-06 -3.2886e-07 -1.11136e-06)
(3.56038e-06 -6.91737e-07 -1.41353e-06)
(3.40114e-06 -9.45256e-07 -1.6595e-06)
(1.1206e-06 6.33056e-08 -2.12511e-07)
(1.48135e-06 5.16422e-08 -2.68255e-07)
(1.95776e-06 3.24866e-08 -3.52246e-07)
(2.40929e-06 2.07451e-08 -4.86983e-07)
(2.83287e-06 3.03986e-08 -7.04406e-07)
(3.33543e-06 -2.89847e-08 -9.03938e-07)
(3.55318e-06 -2.20626e-07 -1.03117e-06)
(3.5546e-06 -1.35437e-06 -1.96334e-06)
(3.7527e-06 -7.6113e-07 -1.49134e-06)
(3.63471e-06 -3.59206e-07 -1.17076e-06)
(1.20566e-06 5.25469e-08 -2.07037e-07)
(1.47933e-06 4.79316e-08 -2.55787e-07)
(1.88553e-06 4.59438e-08 -3.49189e-07)
(2.35612e-06 5.08501e-08 -4.72747e-07)
(2.75024e-06 3.26856e-08 -6.33422e-07)
(3.16897e-06 -3.90246e-08 -8.48735e-07)
(3.7527e-06 -7.6113e-07 -1.49134e-06)
(3.46615e-06 -3.2886e-07 -1.11136e-06)
(3.43566e-06 -2.30255e-07 -9.79811e-07)
(1.24494e-06 4.19236e-08 -2.05952e-07)
(1.49808e-06 4.09799e-08 -2.43246e-07)
(1.86757e-06 5.58053e-08 -3.22786e-07)
(2.32121e-06 4.31275e-08 -4.13872e-07)
(2.66546e-06 2.54594e-08 -5.63272e-07)
(3.46615e-06 -3.2886e-07 -1.11136e-06)
(2.99154e-06 -3.65693e-08 -7.41287e-07)
)
;
    }
}


// ************************************************************************* //
