/*--------------------------------*- C++ -*----------------------------------*\
| =========                 |                                                 |
| \\      /  F ield         | OpenFOAM: The Open Source CFD Toolbox           |
|  \\    /   O peration     | Version:  4.x                                   |
|   \\  /    A nd           | Web:      www.OpenFOAM.org                      |
|    \\/     M anipulation  |                                                 |
\*---------------------------------------------------------------------------*/
FoamFile
{
    version     2.0;
    format      ascii;
    class       volVectorField;
    location    "25.5";
    object      Urel;
}
// * * * * * * * * * * * * * * * * * * * * * * * * * * * * * * * * * * * * * //

dimensions      [0 1 -1 0 0 0 0];

internalField   nonuniform List<vector> 
114
(
(-0.0218633 6.6783e-05 0.0010035)
(-0.0232208 5.16943e-05 0.000968223)
(-0.0222934 2.75778e-05 0.000845654)
(-0.0236611 4.17483e-06 0.000807909)
(-0.0227342 -3.99998e-05 0.000764722)
(-0.0241512 -8.8462e-05 0.000784411)
(-0.023546 -0.000142019 0.00118994)
(-0.0217951 -0.000139614 0.00110656)
(-0.0229469 -0.000160923 0.00110268)
(-0.0218583 -0.000164931 0.000977036)
(-0.0232496 -0.000171627 0.000925557)
(-0.0223131 -0.000172006 0.000813521)
(-0.0237527 -0.000185131 0.000761637)
(-0.0228626 -0.000226895 0.000696369)
(-0.0243549 -0.000287005 0.000678529)
(-0.0236718 -0.000376293 0.001172)
(-0.0220077 -0.000342014 0.0010913)
(-0.0232354 -0.00037282 0.00108749)
(-0.0222878 -0.000348911 0.000963209)
(-0.0237348 -0.00036796 0.000910177)
(-0.0229554 -0.000336041 0.000792649)
(-0.0244247 -0.000362404 0.000733291)
(-0.0236778 -0.000347779 0.000652673)
(-0.0251949 -0.000401347 0.000619531)
(-0.0238048 -0.000440944 0.00113714)
(-0.0222768 -0.000412722 0.0010668)
(-0.0235837 -0.00043401 0.00105468)
(-0.0228411 -0.000411362 0.000947823)
(-0.0243562 -0.00042291 0.000886549)
(-0.0238103 -0.000396437 0.000780911)
(-0.0253207 -0.000416684 0.000708753)
(-0.0248316 -0.000407613 0.000630002)
(-0.026329 -0.000458291 0.000586867)
(-0.0205693 2.18429e-05 0.00090384)
(-0.0219817 -6.8568e-06 0.000927745)
(-0.0204603 -5.60581e-05 0.00091682)
(-0.0218794 -0.000152096 0.00112174)
(-0.0233109 -0.000174315 0.00130153)
(-0.0213577 -0.000157332 0.0011768)
(-0.0223449 -0.000181491 0.00121463)
(-0.0208565 -0.000178847 0.00103373)
(-0.0221714 -0.000197154 0.00103198)
(-0.02077 -0.000184779 0.00087543)
(-0.0222452 -0.000207366 0.00091404)
(-0.0208243 -0.000252449 0.000798391)
(-0.0223912 -0.000338477 0.000906978)
(-0.0234551 -0.00040881 0.0012771)
(-0.0215936 -0.000367634 0.00116399)
(-0.0226619 -0.000404482 0.00120102)
(-0.0213349 -0.000364335 0.00103174)
(-0.022711 -0.000391694 0.00102328)
(-0.0214992 -0.000349779 0.000868922)
(-0.0229915 -0.00039015 0.000879306)
(-0.0217623 -0.000376211 0.000761502)
(-0.0233677 -0.000448725 0.000835056)
(-0.0236107 -0.000481491 0.00124488)
(-0.0219259 -0.000446131 0.00114781)
(-0.0230843 -0.0004753 0.00117572)
(-0.0220553 -0.000436456 0.00103743)
(-0.0234637 -0.000456156 0.00101966)
(-0.0226062 -0.000418652 0.00088948)
(-0.0240589 -0.000453466 0.000873878)
(-0.0232477 -0.000444752 0.000763775)
(-0.0247421 -0.000513232 0.000797293)
(-0.0183756 -0.000111488 0.000602676)
(-0.019539 -0.000345472 0.000666438)
(-0.0230588 -0.000213656 0.00114258)
(-0.0209193 -0.000188925 0.00102415)
(-0.0217419 -0.000210249 0.00102299)
(-0.0199142 -0.00019393 0.000860174)
(-0.0211451 -0.000203105 0.000821377)
(-0.0193327 -0.000195969 0.000697278)
(-0.0208282 -0.000222111 0.000691658)
(-0.0189627 -0.000328952 0.000594014)
(-0.0205446 -0.000544503 0.000556741)
(-0.0232243 -0.000450019 0.00112198)
(-0.0211917 -0.000398656 0.00101457)
(-0.0221055 -0.000440399 0.00101995)
(-0.0204574 -0.000383307 0.000874063)
(-0.0217382 -0.000417558 0.000836902)
(-0.0201424 -0.000367437 0.000707963)
(-0.0216275 -0.000444061 0.000673591)
(-0.0199475 -0.000425276 0.000581461)
(-0.0216351 -0.0005657 0.000550441)
(-0.0234052 -0.000518602 0.00109983)
(-0.0215573 -0.000480581 0.00101116)
(-0.0225739 -0.000514166 0.00101939)
(-0.0212608 -0.000464685 0.000902488)
(-0.022555 -0.000483687 0.00086112)
(-0.021385 -0.000443752 0.000746866)
(-0.0227739 -0.000494742 0.000698238)
(-0.0216417 -0.000502669 0.000621745)
(-0.0231152 -0.00061673 0.000584151)
(-0.0228943 -0.000227668 0.00087505)
(-0.0207034 -0.000209629 0.000774033)
(-0.021434 -0.000235255 0.000771463)
(-0.0195136 -0.000201377 0.000646303)
(-0.0206549 -0.000217329 0.000615948)
(-0.0187991 -0.000199761 0.000522786)
(-0.0201423 -0.000235609 0.000607943)
(-0.0181987 -0.000282146 0.000393975)
(-0.0230747 -0.000480757 0.000854297)
(-0.0210073 -0.000423155 0.000769352)
(-0.0218233 -0.000453374 0.000769635)
(-0.0201053 -0.000386613 0.000665423)
(-0.0212851 -0.000411571 0.000636014)
(-0.0196497 -0.000376628 0.000532981)
(-0.0210306 -0.000443451 0.000513656)
(-0.0232776 -0.000553602 0.000841974)
(-0.0214066 -0.000504226 0.000777592)
(-0.0223201 -0.00052928 0.000787057)
(-0.0209274 -0.000468635 0.000708042)
(-0.0221098 -0.000485813 0.000682228)
(-0.0208594 -0.000447035 0.000580283)
)
;

boundaryField
{
    inlet
    {
        type            calculated;
        value           nonuniform List<vector> 
12
(
(-0.0100004 -4.37914e-08 -1.33423e-07)
(-0.0100002 2.62052e-07 -3.00874e-07)
(-0.00999949 1.89944e-07 -5.72444e-08)
(-0.0100002 1.14756e-08 -8.44599e-08)
(-0.0100003 5.74832e-08 -6.84093e-08)
(-0.0100001 3.11722e-08 -1.58998e-08)
(-0.0100001 -5.11317e-08 -5.27111e-08)
(-0.0100001 4.72265e-08 2.15034e-08)
(-0.0100001 -1.28346e-09 -6.45914e-10)
(-0.0100001 -4.6578e-08 -3.22289e-09)
(-0.0100001 -1.57511e-08 8.07123e-09)
(-0.0100001 7.22165e-09 -2.13925e-09)
)
;
    }
    outlet
    {
        type            calculated;
        value           nonuniform 0();
    }
    wall
    {
        type            calculated;
        value           nonuniform List<vector> 
66
(
(-3.6772e-07 -4.37914e-08 -1.33423e-07)
(-2.08818e-07 2.62052e-07 -3.00874e-07)
(5.11527e-07 1.89944e-07 -5.72444e-08)
(-6.62097e-07 9.6243e-09 -2.5408e-07)
(-5.84786e-07 7.45153e-08 -2.04374e-07)
(-2.24703e-07 1.02074e-07 -9.86433e-08)
(-8.3467e-07 -1.2112e-07 -2.52378e-07)
(-8.16888e-07 -5.05295e-08 -3.45949e-07)
(-4.58668e-07 -4.6287e-08 -3.84111e-07)
(-9.16209e-07 -1.90723e-07 -1.28806e-07)
(-9.5516e-07 -2.13393e-07 -6.73328e-08)
(-1.20845e-06 1.78451e-07 -4.24922e-07)
(-6.12562e-07 1.381e-07 5.38299e-09)
(-1.30647e-06 -2.34706e-07 1.60701e-08)
(-1.51622e-06 -6.39875e-07 5.62414e-09)
(-1.73264e-06 1.0725e-07 -7.13269e-08)
(-1.82131e-06 2.34193e-07 1.09458e-07)
(-2.04689e-06 -4.5294e-07 8.7076e-07)
(-2.4078e-06 -4.53635e-07 7.22114e-07)
(-2.66693e-06 -3.62076e-07 7.14659e-07)
(-2.53397e-06 -7.39547e-08 2.36776e-07)
(-1.62019e-06 -1.44345e-06 2.11211e-06)
(-2.61127e-06 -3.06892e-07 1.19538e-06)
(-3.89613e-06 -3.10871e-08 1.04577e-06)
(-3.62736e-06 6.20729e-08 4.82699e-07)
(0.000158798 0.000156269 0.000182791)
(-2.91935e-06 -2.02626e-06 2.61096e-06)
(-4.68928e-06 -7.51376e-07 1.74927e-06)
(-4.42453e-06 1.09809e-06 7.16947e-07)
(0.000222901 0.000228292 0.000249646)
(-4.2663e-06 -2.27053e-06 3.45097e-06)
(-5.46261e-06 -1.73217e-06 2.18808e-06)
(-4.69144e-06 -1.70979e-06 6.42134e-07)
(5.11527e-07 1.89944e-07 -5.72444e-08)
(-8.40895e-08 3.11722e-08 -1.58998e-08)
(-5.18518e-08 -1.28346e-09 -6.45914e-10)
(-6.61137e-08 7.22165e-09 -2.13925e-09)
(-2.24703e-07 1.02074e-07 -9.86433e-08)
(-2.13568e-07 4.30704e-08 -5.60862e-08)
(-1.35714e-07 -3.45856e-09 -8.90858e-09)
(-2.05337e-07 4.66766e-08 4.83755e-08)
(-4.58668e-07 -4.6287e-08 -3.84111e-07)
(-6.4031e-07 6.90734e-09 -8.38459e-08)
(-4.81038e-07 -3.82566e-08 1.24526e-08)
(-5.99548e-07 -1.46856e-07 2.76045e-08)
(-6.12562e-07 1.381e-07 5.38299e-09)
(-1.03931e-06 1.58845e-08 -2.26593e-08)
(-1.13354e-06 -1.49739e-07 -1.40793e-07)
(-9.0928e-07 -7.09606e-08 -7.00959e-08)
(-1.82131e-06 2.34193e-07 1.09458e-07)
(-1.43497e-06 2.03679e-07 1.3565e-07)
(-1.90809e-06 4.94147e-08 2.23182e-07)
(-1.664e-06 -1.29042e-07 4.13351e-08)
(-2.53397e-06 -7.39547e-08 2.36776e-07)
(-2.50731e-06 -1.79868e-07 3.19373e-07)
(-3.27058e-06 -2.8646e-07 4.08542e-07)
(-2.771e-06 -4.15228e-07 8.33095e-08)
(-3.62736e-06 6.20729e-08 4.82699e-07)
(-3.24446e-06 3.04156e-08 4.48583e-07)
(-4.15959e-06 1.24738e-07 9.73252e-07)
(-4.42453e-06 1.09809e-06 7.16947e-07)
(-4.71649e-06 3.14711e-07 4.46253e-07)
(-4.4087e-06 1.13267e-06 1.19944e-06)
(-4.69144e-06 -1.70979e-06 6.42134e-07)
(-1.85114e-06 9.03926e-08 9.20674e-07)
(-4.57755e-06 1.03602e-06 2.07054e-06)
)
;
    }
    procBoundary2to0
    {
        type            processor;
        value           nonuniform List<vector> 
44
(
(-0.0220332 0.000294116 0.00099683)
(-0.0234353 0.000283448 0.000952184)
(-0.0225424 0.00025336 0.000842103)
(-0.0239494 0.000269777 0.000809651)
(-0.0230526 0.000274762 0.000782853)
(-0.024531 0.000329484 0.000854904)
(-0.0235358 0.000124592 0.00123411)
(-0.0217927 9.81134e-05 0.00113048)
(-0.0229359 9.22844e-05 0.00113089)
(-0.0229359 9.22844e-05 0.00113089)
(-0.0207496 5.83557e-05 0.00105693)
(-0.0220289 4.11212e-05 0.00105143)
(-0.0208807 0.000252995 0.000910123)
(-0.0222948 0.000272047 0.000963424)
(-0.020781 0.000276576 0.000963016)
(-0.0221871 0.000344226 0.00127588)
(-0.0232657 0.000108588 0.00134611)
(-0.0212937 9.15161e-05 0.00120671)
(-0.0222623 8.61256e-05 0.00124528)
(-0.0207496 5.83557e-05 0.00105693)
(-0.0220289 4.11212e-05 0.00105143)
(-0.0220289 4.11212e-05 0.00105143)
(-0.0189976 1.43734e-05 0.000689855)
(-0.0203934 -1.73092e-05 0.00067914)
(-0.018587 0.000341671 0.000592602)
(-0.0197075 0.00048701 0.000711141)
(-0.0229861 9.61323e-05 0.00116186)
(-0.0207985 7.95187e-05 0.00104476)
(-0.0215935 7.33022e-05 0.00105099)
(-0.0196812 4.84265e-05 0.000864064)
(-0.0208881 4.03036e-05 0.000828178)
(-0.0189976 1.43734e-05 0.000689855)
(-0.0203934 -1.73092e-05 0.00067914)
(-0.0203934 -1.73092e-05 0.00067914)
(-0.017756 -2.45923e-05 0.000303682)
(-0.0191496 -0.000134952 0.000192186)
(-0.0228368 0.000103975 0.000863335)
(-0.0206065 7.95336e-05 0.000778289)
(-0.0213038 6.93614e-05 0.000767345)
(-0.0192899 5.06314e-05 0.000633427)
(-0.0204277 3.86643e-05 0.000598068)
(-0.0184622 3.60981e-05 0.000477241)
(-0.019836 3.08297e-05 0.000461113)
(-0.017756 -2.45923e-05 0.000303682)
)
;
    }
    procBoundary2to3
    {
        type            processor;
        value           nonuniform List<vector> 
12
(
(-0.0233412 -3.7243e-05 0.000797901)
(-0.0235722 -0.000299167 0.000669204)
(-0.0245311 -0.000379536 0.000589721)
(-0.0259225 -0.000436698 0.000550848)
(-0.0202262 -5.96696e-05 0.00119588)
(-0.0209513 -0.000360206 0.000828766)
(-0.022135 -0.000440571 0.000761654)
(-0.0239868 -0.000505624 0.000729224)
(-0.0168122 6.80406e-05 0.000695772)
(-0.0184279 -0.000631245 0.000549602)
(-0.019883 -0.000552767 0.000516862)
(-0.0220274 -0.00064395 0.000555905)
)
;
    }
    procBoundary2to6
    {
        type            processor;
        value           nonuniform List<vector> 
32
(
(-0.019841 -0.000425828 0.000186128)
(-0.019378 -0.000428799 0.000413248)
(-0.0209565 -0.00048124 0.000333865)
(-0.0221596 -0.000490656 0.000555813)
(-0.020983 -0.000475435 0.000477932)
(-0.0223681 -0.000552094 0.000414377)
(-0.0228615 -0.000233378 0.000496294)
(-0.0205985 -0.000214849 0.000444166)
(-0.0213044 -0.000228563 0.00043799)
(-0.0192571 -0.000190921 0.000368239)
(-0.0204465 -0.00019336 0.000348036)
(-0.0183768 -0.000172048 0.000273808)
(-0.0197873 -0.000191041 0.000280629)
(-0.019841 -0.000425828 0.000186128)
(-0.019378 -0.000428799 0.000413248)
(-0.0171665 -0.000213929 0.000340972)
(-0.0230536 -0.000509519 0.00048525)
(-0.0209287 -0.000434069 0.000449215)
(-0.0217289 -0.000467838 0.000443318)
(-0.0199093 -0.000382537 0.000393509)
(-0.0211076 -0.000405167 0.000370655)
(-0.0193061 -0.000369302 0.000312367)
(-0.019378 -0.000428799 0.000413248)
(-0.0221596 -0.000490656 0.000555813)
(-0.0207225 -0.000537835 0.000298917)
(-0.0232697 -0.000568565 0.00049383)
(-0.0213543 -0.000512017 0.000465844)
(-0.0222455 -0.000531977 0.000469088)
(-0.0207729 -0.000461171 0.000431367)
(-0.021933 -0.00046542 0.000411136)
(-0.0221596 -0.000490656 0.000555813)
(-0.0205266 -0.000431957 0.000356038)
)
;
    }
}


// ************************************************************************* //
