/*--------------------------------*- C++ -*----------------------------------*\
| =========                 |                                                 |
| \\      /  F ield         | OpenFOAM: The Open Source CFD Toolbox           |
|  \\    /   O peration     | Version:  4.x                                   |
|   \\  /    A nd           | Web:      www.OpenFOAM.org                      |
|    \\/     M anipulation  |                                                 |
\*---------------------------------------------------------------------------*/
FoamFile
{
    version     2.0;
    format      ascii;
    class       volScalarField;
    location    "6.5";
    object      Deff;
}
// * * * * * * * * * * * * * * * * * * * * * * * * * * * * * * * * * * * * * //

dimensions      [0 2 -1 0 0 0 0];

internalField   nonuniform List<scalar> 
108
(
9.88266e-08
9.85969e-08
9.84325e-08
9.84151e-08
9.83544e-08
9.83201e-08
9.82087e-08
9.81468e-08
9.79649e-08
9.86107e-08
9.85058e-08
9.83444e-08
9.81973e-08
9.81612e-08
9.81634e-08
9.81497e-08
9.81108e-08
9.79218e-08
9.85705e-08
9.83707e-08
9.82811e-08
9.81103e-08
9.80966e-08
9.81069e-08
9.80534e-08
9.79303e-08
9.80012e-08
9.85932e-08
9.84237e-08
9.82354e-08
9.81663e-08
9.80384e-08
9.80284e-08
9.78705e-08
9.80094e-08
9.80083e-08
9.87958e-08
9.86399e-08
9.84196e-08
9.82676e-08
9.82432e-08
9.82677e-08
9.82387e-08
9.8019e-08
9.7883e-08
9.86733e-08
9.84876e-08
9.83663e-08
9.82312e-08
9.81923e-08
9.81514e-08
9.80807e-08
9.79465e-08
9.78599e-08
9.86316e-08
9.83935e-08
9.8199e-08
9.8083e-08
9.80298e-08
9.80011e-08
9.79751e-08
9.79284e-08
9.7909e-08
9.84353e-08
9.8307e-08
9.82098e-08
9.79886e-08
9.79054e-08
9.79312e-08
9.78106e-08
9.78885e-08
9.79283e-08
9.87962e-08
9.85745e-08
9.85551e-08
9.83298e-08
9.82586e-08
9.80746e-08
9.809e-08
9.8005e-08
9.79746e-08
9.86686e-08
9.83713e-08
9.8391e-08
9.83026e-08
9.81996e-08
9.80643e-08
9.80612e-08
9.80192e-08
9.79164e-08
9.8585e-08
9.83217e-08
9.82026e-08
9.8111e-08
9.81088e-08
9.79995e-08
9.80033e-08
9.79391e-08
9.79509e-08
9.83835e-08
9.83071e-08
9.82344e-08
9.80105e-08
9.79461e-08
9.78391e-08
9.80118e-08
9.80283e-08
9.79829e-08
)
;

boundaryField
{
    inlet
    {
        type            calculated;
        value           uniform 0;
    }
    outlet
    {
        type            calculated;
        value           nonuniform 0();
    }
    wall
    {
        type            calculated;
        value           uniform 0;
    }
    procBoundary4to0
    {
        type            processor;
        value           uniform 0;
    }
    procBoundary4to5
    {
        type            processor;
        value           uniform 0;
    }
    procBoundary4to6
    {
        type            processor;
        value           uniform 0;
    }
}


// ************************************************************************* //
