/*--------------------------------*- C++ -*----------------------------------*\
| =========                 |                                                 |
| \\      /  F ield         | OpenFOAM: The Open Source CFD Toolbox           |
|  \\    /   O peration     | Version:  4.x                                   |
|   \\  /    A nd           | Web:      www.OpenFOAM.org                      |
|    \\/     M anipulation  |                                                 |
\*---------------------------------------------------------------------------*/
FoamFile
{
    version     2.0;
    format      ascii;
    class       volScalarField;
    location    "6.5";
    object      particleRelTemp;
}
// * * * * * * * * * * * * * * * * * * * * * * * * * * * * * * * * * * * * * //

dimensions      [0 0 0 0 0 0 0];

internalField   nonuniform List<scalar> 
108
(
-3.63884e-07
-2.93615e-07
-2.03061e-07
-1.16482e-07
-5.95803e-08
-2.19632e-08
-3.75873e-09
-1.88426e-08
-6.60803e-08
-3.53763e-07
-2.71533e-07
-1.58135e-07
-6.41015e-08
1.70284e-08
5.79351e-08
6.69148e-08
6.77299e-08
3.43254e-08
-3.49604e-07
-2.4346e-07
-1.10276e-07
-1.25311e-08
7.70283e-08
1.2906e-07
1.53039e-07
1.40633e-07
9.21099e-08
-3.48964e-07
-2.47115e-07
-1.14546e-07
-7.20266e-09
1.01205e-07
1.60001e-07
1.75174e-07
1.56099e-07
1.35898e-07
-3.62655e-07
-3.03591e-07
-2.26014e-07
-1.54498e-07
-1.09661e-07
-8.02318e-08
-7.54098e-08
-6.74315e-08
-1.10104e-07
-3.51933e-07
-2.7935e-07
-1.95538e-07
-1.03702e-07
-3.98438e-08
-8.74869e-09
1.21971e-08
-5.05299e-09
-4.0634e-08
-3.70502e-07
-2.65668e-07
-1.64141e-07
-7.62317e-08
1.09343e-08
6.12091e-08
8.23466e-08
7.02248e-08
1.90837e-08
-3.53935e-07
-2.69724e-07
-1.4586e-07
-6.35073e-08
3.35149e-08
9.41437e-08
1.08757e-07
9.07933e-08
4.53375e-08
-3.88515e-07
-3.18997e-07
-2.59579e-07
-1.95778e-07
-1.67141e-07
-1.26239e-07
-1.22282e-07
-1.28313e-07
-1.76159e-07
-3.72666e-07
-3.05264e-07
-2.09165e-07
-1.61947e-07
-1.02726e-07
-6.70158e-08
-5.57844e-08
-7.58142e-08
-1.00926e-07
-3.67956e-07
-2.81385e-07
-1.89224e-07
-1.18265e-07
-6.18668e-08
2.23339e-09
-1.14059e-09
-4.42768e-09
-5.43299e-08
-3.57616e-07
-2.83287e-07
-1.94732e-07
-9.43201e-08
-3.34703e-08
1.63685e-08
2.20449e-08
1.22761e-08
-9.08105e-09
)
;

boundaryField
{
    inlet
    {
        type            calculated;
        value           nonuniform List<scalar> 
12
(
-3.63884e-07
-3.53763e-07
-3.49604e-07
-3.48964e-07
-3.62655e-07
-3.51933e-07
-3.70502e-07
-3.53935e-07
-3.88515e-07
-3.72666e-07
-3.67956e-07
-3.57616e-07
)
;
    }
    outlet
    {
        type            calculated;
        value           nonuniform 0();
    }
    wall
    {
        type            calculated;
        value           nonuniform List<scalar> 
63
(
-3.88515e-07
-3.72666e-07
-3.67956e-07
-3.57616e-07
-3.18997e-07
-3.05264e-07
-2.81385e-07
-2.83287e-07
-2.59579e-07
-2.09165e-07
-1.89224e-07
-1.94732e-07
-1.95778e-07
-1.61947e-07
-1.18265e-07
-9.43201e-08
-1.67141e-07
-1.02726e-07
-6.18668e-08
-3.34703e-08
-1.26239e-07
-6.70158e-08
2.23339e-09
1.63685e-08
-1.22282e-07
-5.57844e-08
-1.14059e-09
2.20449e-08
-1.28313e-07
-7.58142e-08
-4.42768e-09
1.22761e-08
-1.76159e-07
-1.00926e-07
-5.43299e-08
-9.08105e-09
-3.63884e-07
-3.62655e-07
-3.88515e-07
-2.93615e-07
-3.03591e-07
-3.18997e-07
-2.03061e-07
-2.26014e-07
-2.59579e-07
-1.16482e-07
-1.54498e-07
-1.95778e-07
-5.95803e-08
-1.09661e-07
-1.67141e-07
-2.19632e-08
-8.02318e-08
-1.26239e-07
-3.75873e-09
-7.54098e-08
-1.22282e-07
-1.88426e-08
-6.74315e-08
-1.28313e-07
-6.60803e-08
-1.10104e-07
-1.76159e-07
)
;
    }
    procBoundary4to0
    {
        type            processor;
        value           nonuniform List<scalar> 
36
(
-3.71492e-07
-2.62731e-07
-1.80571e-07
-9.33986e-08
-2.78316e-08
1.77084e-08
1.57865e-08
3.76731e-10
-1.69307e-08
-3.54715e-07
-2.57203e-07
-1.51697e-07
-3.59287e-08
4.09796e-08
1.01829e-07
1.08145e-07
8.00296e-08
6.04492e-08
-3.1088e-07
-2.19723e-07
-1.19299e-07
2.98166e-08
9.82597e-08
1.64586e-07
1.94011e-07
1.81437e-07
1.18407e-07
-3.38842e-07
-2.34324e-07
-1.06855e-07
2.59184e-08
1.18038e-07
1.7329e-07
2.04337e-07
2.00908e-07
1.56625e-07
)
;
    }
    procBoundary4to5
    {
        type            processor;
        value           nonuniform List<scalar> 
12
(
-9.47922e-08
-3.05218e-08
3.92101e-08
6.50155e-08
-1.32857e-07
-8.74216e-08
-2.07659e-08
-1.04251e-08
-2.14059e-07
-1.4849e-07
-7.99607e-08
-6.50813e-08
)
;
    }
    procBoundary4to6
    {
        type            processor;
        value           nonuniform List<scalar> 
27
(
-3.36942e-07
-2.36271e-07
-1.14976e-07
7.442e-10
8.70861e-08
1.28906e-07
1.47119e-07
1.21862e-07
8.35078e-08
-3.5554e-07
-2.5395e-07
-1.6487e-07
-6.58557e-08
2.92397e-09
5.9148e-08
7.75905e-08
7.80892e-08
3.3245e-08
-3.64323e-07
-2.93756e-07
-2.03029e-07
-1.16975e-07
-5.60853e-08
-6.66843e-10
1.78725e-08
-2.41479e-09
-4.43428e-08
)
;
    }
}


// ************************************************************************* //
