/*--------------------------------*- C++ -*----------------------------------*\
| =========                 |                                                 |
| \\      /  F ield         | OpenFOAM: The Open Source CFD Toolbox           |
|  \\    /   O peration     | Version:  4.x                                   |
|   \\  /    A nd           | Web:      www.OpenFOAM.org                      |
|    \\/     M anipulation  |                                                 |
\*---------------------------------------------------------------------------*/
FoamFile
{
    version     2.0;
    format      ascii;
    class       volVectorField;
    location    "6.5";
    object      U;
}
// * * * * * * * * * * * * * * * * * * * * * * * * * * * * * * * * * * * * * //

dimensions      [0 1 -1 0 0 0 0];

internalField   nonuniform List<vector> 
108
(
(0.0285626 -0.00141512 -0.00134645)
(0.0138365 -0.000857889 -0.000973263)
(0.0293404 -0.0018254 -0.00115505)
(0.0149067 -0.000923208 -0.000652073)
(0.0299403 -0.00144354 6.93593e-05)
(0.0160301 -0.000685149 0.000265044)
(0.0309938 -0.000934342 0.00130363)
(0.017613 -0.000567975 0.00102344)
(0.0328764 -0.000539078 0.0025423)
(0.028453 -0.00147776 -0.00127299)
(0.0102417 -0.000651788 -0.00070283)
(0.0271144 -0.00148259 -0.000870812)
(0.0061182 -0.000341593 -0.000240891)
(0.0260258 -0.000844542 0.000310748)
(0.00372829 -0.000115959 5.61897e-05)
(0.0256017 -0.000675625 0.00057295)
(0.00266501 -8.14189e-05 -5.44519e-05)
(0.0256493 4.96897e-05 -0.000315815)
(0.028432 -0.000857533 -0.00114847)
(0.0100544 -0.000508044 -0.000617051)
(0.0270141 -0.000738476 -0.00053045)
(0.00633808 -0.000308938 -9.1556e-05)
(0.0265075 -0.000493592 0.000689248)
(0.00436382 -0.000221277 0.000147499)
(0.02639 -0.000299318 0.000791126)
(0.00211861 -0.000101579 -2.01546e-05)
(0.0261409 -1.46191e-06 -6.45583e-06)
(0.0282858 -0.000372337 -0.00111806)
(0.00988717 2.18189e-06 -0.000512837)
(0.0265039 -0.000162786 -0.000357376)
(0.00592541 -3.80565e-05 -0.000120847)
(0.0256342 1.37787e-05 0.000643853)
(0.00384489 1.13542e-05 0.000116805)
(0.0251353 3.86876e-05 0.000562237)
(0.00238507 1.89937e-05 -4.25248e-05)
(0.0246037 -0.000108712 -5.35587e-05)
(0.0285335 -0.00117782 -0.000113094)
(0.0142369 -0.000723852 -0.000132767)
(0.0297038 -0.00147316 0.000173983)
(0.0158507 -0.000768528 -4.74851e-05)
(0.0308271 -0.00150966 0.000674349)
(0.017904 -0.000782141 0.000612454)
(0.0323568 -0.0013342 0.00171149)
(0.0200309 -0.000569872 0.00143846)
(0.0345607 -0.000994878 0.00257237)
(0.0285845 -0.00127161 0.000357578)
(0.0116955 -0.00067187 0.000146131)
(0.0281544 -0.00131303 0.00110085)
(0.00950041 -0.000389595 0.0003593)
(0.0277429 -0.000956741 0.00146142)
(0.00748277 -0.000168556 0.000465648)
(0.0272724 -0.000347777 0.00144381)
(0.00515121 7.68984e-06 0.000268693)
(0.0271416 -7.0604e-05 0.000640733)
(0.0284431 -0.00095997 0.000379035)
(0.0114622 -0.000476986 0.00014566)
(0.0278577 -0.000793249 0.000992508)
(0.00925051 -0.000357165 0.00041858)
(0.0276256 -0.000421835 0.00147325)
(0.00799728 -0.000235692 0.000575809)
(0.0276911 -0.000144599 0.00179217)
(0.00720867 -0.0002492 0.000530056)
(0.027897 0.000175311 0.000642314)
(0.0284071 -0.000436258 0.00033987)
(0.0111099 -3.99329e-05 0.000345738)
(0.0273913 -0.000237979 0.00114565)
(0.00876396 -4.91433e-05 0.000536639)
(0.0269619 -0.000186797 0.00174896)
(0.00732287 -0.000106302 0.000795185)
(0.0263884 -8.82171e-05 0.00185328)
(0.00538986 -4.66481e-05 0.000488014)
(0.0252098 -0.000176907 0.000734926)
(0.0286261 -0.000935657 -2.95304e-05)
(0.014858 -0.000595385 -4.0088e-05)
(0.0300925 -0.000959673 8.42551e-05)
(0.0169032 -0.000435449 -0.000110943)
(0.0313209 -0.000710852 0.000127332)
(0.0187062 -0.000290174 2.90717e-06)
(0.0328439 -0.000493351 0.000682728)
(0.0213475 -0.000206448 0.000466434)
(0.0354123 -0.00022129 0.00113845)
(0.0286603 -0.00101347 0.000212587)
(0.0138813 -0.00057019 0.000111577)
(0.0293087 -0.000858417 0.000646558)
(0.0152475 -0.000239073 0.000290476)
(0.0304444 -0.00037059 0.00102236)
(0.0172612 -7.86348e-06 0.000515878)
(0.0318541 -0.000120814 0.00142989)
(0.0193601 0.000143958 0.000563273)
(0.0334454 1.49461e-05 0.00133685)
(0.0284108 -0.000874039 0.000240639)
(0.0135684 -0.000426408 0.000179129)
(0.0289576 -0.000771709 0.000649744)
(0.0145926 -0.000393584 0.000325299)
(0.0300084 -0.000377106 0.000944133)
(0.0168178 -0.000167805 0.000460776)
(0.0318335 -0.000125683 0.000976913)
(0.0198418 -0.000287804 0.000391964)
(0.0338708 -0.000382896 0.000640608)
(0.0283202 -0.00015077 0.000289233)
(0.0132093 -4.8671e-05 0.000233383)
(0.0285008 -0.000301469 0.00071319)
(0.0137247 -0.000176599 0.000418325)
(0.0294734 -0.000438025 0.00117092)
(0.015789 -0.000320517 0.000804979)
(0.0309925 -0.000790088 0.00164332)
(0.0185955 -0.00047742 0.000960696)
(0.0325965 -0.00124147 0.00115543)
)
;

boundaryField
{
    inlet
    {
        type            fixedValue;
        value           uniform (0.01 0 0);
    }
    outlet
    {
        type            zeroGradient;
    }
    wall
    {
        type            fixedValue;
        value           uniform (0 0 0);
    }
    procBoundary4to0
    {
        type            processor;
        value           nonuniform List<vector> 
36
(
(0.0285188 -0.00124255 -0.0022048)
(0.0138355 -0.000747063 -0.00158498)
(0.0297268 -0.00153736 -0.00194865)
(0.0156906 -0.000744284 -0.00105619)
(0.0309703 -0.0014113 -0.000237185)
(0.0179259 -0.000756362 0.00029481)
(0.0328134 -0.0013226 0.00194353)
(0.0207996 -0.000538344 0.00177697)
(0.0355695 -0.00077859 0.00371684)
(0.0286038 -0.00144965 -0.00245164)
(0.0110753 -0.000731659 -0.00141487)
(0.0281346 -0.00162402 -0.00195955)
(0.00930897 -0.000530101 -0.00065116)
(0.0277714 -0.00115541 0.000264377)
(0.00833336 -0.000291843 0.000134037)
(0.0280674 -0.000619373 0.00137301)
(0.00764098 -5.8498e-05 -3.72155e-07)
(0.0284995 -0.000168511 0.000598026)
(0.0283521 -0.00110256 -0.00226534)
(0.0103979 -0.000599935 -0.00123759)
(0.027513 -0.00119366 -0.00141413)
(0.00747718 -0.000376919 -0.000329085)
(0.0271993 -0.000574848 0.000586857)
(0.00602723 -0.000211284 0.000164078)
(0.0274731 1.00829e-05 0.000559717)
(0.0055371 -0.000166274 -0.000151873)
(0.0280122 0.000246368 6.8179e-05)
(0.0284688 -0.000341225 -0.00214904)
(0.00989358 -7.41045e-05 -0.00122081)
(0.0272413 -0.000132842 -0.00134894)
(0.00663019 2.60012e-05 -0.000354415)
(0.02677 0.000106105 0.000741296)
(0.005916 2.03434e-05 8.90672e-05)
(0.0270723 5.64789e-05 0.0013703)
(0.00623479 2.29557e-05 -8.99776e-05)
(0.0269573 0.000194107 0.000895925)
)
;
    }
    procBoundary4to5
    {
        type            processor;
        value           nonuniform List<vector> 
12
(
(0.018886 -0.000370428 0.0017277)
(0.00164445 -9.0979e-05 -0.000197684)
(0.00123748 -0.000144705 -0.000130342)
(0.00202949 3.73667e-05 -0.000242057)
(0.0219528 -0.000700996 0.00194594)
(0.00190776 -5.38344e-05 -4.87145e-05)
(0.00622059 -0.000588677 0.000162617)
(0.0037257 -2.43199e-05 0.000181228)
(0.0243217 -0.000223674 0.000456917)
(0.0209373 -0.000139359 0.000146963)
(0.0218344 -0.000999589 -7.89399e-05)
(0.02001 -0.000913862 0.00091795)
)
;
    }
    procBoundary4to6
    {
        type            processor;
        value           nonuniform List<vector> 
27
(
(0.0282525 0.000683678 -0.00122034)
(0.00935934 0.000441863 -0.000534185)
(0.0264811 0.00075634 -0.000636749)
(0.00506701 0.00023504 -0.000133161)
(0.0260696 0.000402697 0.000329368)
(0.00344482 0.000172767 3.24667e-05)
(0.0261427 0.000352199 0.000532931)
(0.00200993 0.000103968 -6.12053e-05)
(0.0262173 7.32877e-05 -0.000449838)
(0.0283205 0.000623024 0.00058751)
(0.0107915 0.000318077 9.66756e-05)
(0.0273917 0.000520315 0.000871782)
(0.00794329 0.000268199 0.000314339)
(0.0270726 0.000258537 0.00103722)
(0.0061716 0.000162514 0.000296332)
(0.0269956 0.00035946 0.000941168)
(0.00551537 0.000218585 0.000214982)
(0.0273171 0.000149317 -0.000414941)
(0.0285132 0.000774481 0.000530863)
(0.0136526 0.000348371 0.000188559)
(0.0288559 0.000586678 0.000599338)
(0.0139527 0.000279847 0.000221794)
(0.0294762 0.000265012 0.000691659)
(0.014348 9.03865e-05 0.000299836)
(0.0300542 -0.00010873 0.000252476)
(0.0137496 9.54184e-06 6.32671e-05)
(0.0299578 -0.000294257 -0.000324751)
)
;
    }
}


// ************************************************************************* //
