/*--------------------------------*- C++ -*----------------------------------*\
  =========                 |
  \\      /  F ield         | OpenFOAM: The Open Source CFD Toolbox
   \\    /   O peration     | Website:  https://openfoam.org
    \\  /    A nd           | Version:  4.x
     \\/     M anipulation  |
\*---------------------------------------------------------------------------*/
FoamFile
{
    version     2.0;
    format      ascii;
    class       Cloud<passiveParticle>;
    location    0;
    object      positions;
}
// * * * * * * * * * * * * * * * * * * * * * * * * * * * * * * * * * * * * * //

258
(
( 0.0238605 0.0373632 0.0153881 ) 6
( 0.248347 0.0516065 -0.00684832 ) 2
( 0.0274305 0.0279937 0.0324863 ) 6
( 0.0326126 0.0721912 0.0175575 ) 25
( 0.242086 0.0712213 0.000356416 ) 2
( 0.196822 0.0712799 0.00282063 ) 1
( 0.225472 0.0399166 -0.01039 ) 0
( 0.105937 0.0456268 0.0369995 ) 18
( 0.167531 0.0195615 0.0187543 ) 12
( 0.131301 0.0344878 0.0151936 ) 10
( 0.0682825 0.06752 0.0308736 ) 17
( 0.219023 0.0674823 0.00877867 ) 1
( 0.054307 0.0347433 0.0266366 ) 7
( 0.139647 0.0400164 0.0351793 ) 11
( 0.0875701 0.0459149 0.0297707 ) 18
( 0.111047 0.0900192 0.0147581 ) 27
( 0.0346811 0.0152646 0.0196072 ) 7
( 0.0645619 0.0900807 0.0200299 ) 26
( 0.178992 0.0835072 0.0156328 ) 30
( 0.163783 0.0745238 0.0244776 ) 29
( 0.0484374 0.072814 0.0304849 ) 25
( 0.240299 0.0901655 0.01892 ) 32
( 0.229701 0.0220728 -0.00342237 ) 0
( 0.108644 0.0619816 0.0224942 ) 18
( 0.0963065 0.0291522 0.0242403 ) 9
( 0.18965 0.0509897 0.0147704 ) 21
( 0.132485 0.0148763 0.0178152 ) 10
( 0.214527 0.0717178 -0.00988829 ) 4
( 0.139595 0.0520555 0.0197331 ) 20
( 0.0153724 0.0178818 0.0171822 ) 6
( 0.117341 0.0783712 0.0295069 ) 28
( 0.131595 0.0203072 0.0365544 ) 10
( 0.203312 0.0368694 0.0171724 ) 13
( 0.213624 0.0533904 0.02134 ) 22
( 0.00975733 0.0744932 0.0216398 ) 24
( 0.205972 0.0518277 0.00321031 ) 1
( 0.0985422 0.0899636 0.0300024 ) 27
( 0.11039 0.0153299 0.0251198 ) 9
( 0.200769 0.026958 0.0339986 ) 13
( 0.239154 0.0358916 0.0164275 ) 14
( 0.145834 0.0730788 0.0167049 ) 29
( 0.0913899 0.063321 0.0383092 ) 18
( 0.190968 0.0902216 0.00136852 ) 3
( 0.159428 0.0557208 0.0209119 ) 20
( 0.0195846 0.0901913 0.0281088 ) 24
( 0.215955 0.0868487 0.0210948 ) 31
( 0.231422 0.0529291 0.00300172 ) 2
( 0.22406 0.0278286 0.0261809 ) 14
( 0.130302 0.0900928 0.0197337 ) 28
( 0.173161 0.0901642 -0.00754528 ) 3
( 0.00980387 0.0193779 0.0360185 ) 6
( 0.231174 0.0491404 0.0302154 ) 23
( 0.196542 0.0901814 0.021853 ) 31
( 0.0372489 0.0513397 0.0195792 ) 16
( 0.0682206 0.050243 0.021007 ) 17
( 0.0796751 0.0838147 0.0312291 ) 26
( 0.240152 0.0165955 0.0122724 ) 0
( 0.195039 0.070325 0.0223719 ) 22
( 0.149163 0.0902443 0.0258425 ) 29
( 0.150588 0.0257942 0.0271329 ) 11
( 0.208109 0.090229 -0.00848749 ) 4
( 0.242988 0.0903813 -0.00374627 ) 5
( 0.0919326 0.0724176 0.0206796 ) 27
( 0.0387316 0.0897016 0.0242729 ) 25
( 0.0186054 0.0568405 0.0224644 ) 15
( 0.227533 0.074876 0.0316596 ) 32
( 0.00988329 0.0380689 0.0291734 ) 6
( 0.224516 0.0900816 0.00349896 ) 5
( 0.236063 0.0641032 0.0181868 ) 23
( 0.127115 0.0670071 0.0174873 ) 19
( 0.197637 0.0504828 0.0326789 ) 22
( 0.184989 0.0289285 0.0172634 ) 12
( 0.0761817 0.0319898 0.0213812 ) 8
( 0.247828 0.075373 0.0296582 ) 32
( 0.0515282 0.0534995 0.0329357 ) 16
( 0.166616 0.0381054 0.0255441 ) 11
( 0.0535946 0.01519 0.0535807 ) 34
( 0.0882542 0.0319277 0.0573464 ) 36
( 0.167075 0.0675893 0.0422988 ) 21
( 0.113075 0.0418115 0.0190554 ) 10
( 0.0489471 0.0320147 0.0627308 ) 34
( 0.208069 0.0547588 0.0520751 ) 49
( 0.0289341 0.0595427 0.0546018 ) 43
( 0.124536 0.0558416 0.0552299 ) 46
( 0.181359 0.0274513 0.0571559 ) 39
( 0.175529 0.0900125 0.0532062 ) 57
( 0.0314056 0.0403538 0.0591739 ) 34
( 0.0713 0.0596457 0.0589245 ) 44
( 0.104708 0.0219708 0.0623816 ) 36
( 0.107963 0.0804545 0.0593201 ) 54
( 0.105711 0.059483 0.0601501 ) 45
( 0.0552647 0.0890392 0.0560957 ) 52
( 0.150246 0.0695986 0.0569352 ) 47
( 0.131974 0.0399046 0.0639612 ) 37
( 0.0208285 0.079369 0.0569442 ) 51
( 0.179605 0.055235 0.0554193 ) 48
( 0.139549 0.021482 0.0647948 ) 38
( 0.070131 0.0399449 0.0586933 ) 35
( 0.134382 0.0900923 0.0589181 ) 55
( 0.238098 0.0470304 0.0496624 ) 50
( 0.00987713 0.0170803 0.0644142 ) 33
( 0.228685 0.0874583 0.0564966 ) 59
( 0.207372 0.0760514 0.0524519 ) 58
( 0.0839776 0.0891602 0.065874 ) 54
( 0.148834 0.0490438 0.0575182 ) 47
( 0.158858 0.090112 0.0674363 ) 56
( 0.0097164 0.0635597 0.0595199 ) 42
( 0.0954549 0.0379397 0.0743979 ) 63
( 0.249221 0.0175927 0.0549538 ) 41
( 0.192255 0.065326 0.0445783 ) 48
( 0.0446624 0.0527109 0.0697082 ) 43
( 0.0843043 0.0736615 0.0535452 ) 54
( 0.225184 0.0610086 0.0449126 ) 50
( 0.112961 0.0906116 0.0436081 ) 55
( 0.196916 0.0514015 0.0679731 ) 49
( 0.129635 0.0724689 0.0458619 ) 55
( 0.166233 0.0903856 0.0356967 ) 29
( 0.0614977 0.0168648 0.0732745 ) 62
( 0.0380554 0.0831257 0.0468849 ) 52
( 0.229263 0.0181099 0.0603875 ) 41
( 0.199217 0.0202993 0.0523404 ) 40
( 0.21181 0.0352341 0.0549299 ) 40
( 0.16465 0.0372349 0.0612753 ) 38
( 0.105935 0.0260187 0.041262 ) 9
( 0.0215569 0.0251659 0.0509417 ) 33
( 0.0135988 0.0395694 0.0678738 ) 33
( 0.166447 0.0246478 0.0444894 ) 38
( 0.0439076 0.070843 0.0614417 ) 43
( 0.249502 0.0572987 0.0374492 ) 23
( 0.0569407 0.0665088 0.0471879 ) 44
( 0.110916 0.064213 0.0419013 ) 18
( 0.00975606 0.0903036 0.0449869 ) 51
( 0.216736 0.0898023 0.0407353 ) 31
( 0.0941063 0.0902506 0.0491097 ) 54
( 0.249016 0.0459598 0.0690032 ) 50
( 0.170995 0.0719368 0.060771 ) 57
( 0.0311144 0.0651351 0.0358699 ) 16
( 0.178755 0.056032 0.0314074 ) 21
( 0.151976 0.0549132 0.0390827 ) 20
( 0.0737341 0.0901373 0.0489856 ) 53
( 0.0637609 0.0297523 0.0431072 ) 35
( 0.0260332 0.046415 0.0391465 ) 15
( 0.0431264 0.032083 0.0438689 ) 34
( 0.122869 0.0336846 0.0479166 ) 37
( 0.14834 0.0306084 0.04996 ) 38
( 0.151583 0.0902394 0.0490043 ) 56
( 0.182503 0.0332989 0.0363299 ) 12
( 0.125852 0.0729073 0.0652874 ) 55
( 0.209343 0.0666711 0.0352444 ) 22
( 0.0886546 0.051555 0.0540814 ) 45
( 0.196961 0.090075 0.0417123 ) 31
( 0.106163 0.0404133 0.0559109 ) 36
( 0.11676 0.0472416 0.0742404 ) 73
( 0.246981 0.0787359 0.0562712 ) 59
( 0.0859706 0.0707792 0.0730828 ) 72
( 0.246242 0.0372626 0.0346666 ) 14
( 0.0123301 0.0605842 0.040532 ) 15
( 0.215203 0.0641229 0.072589 ) 76
( 0.228549 0.0304893 0.045288 ) 41
( 0.121496 0.0252342 0.0721604 ) 64
( 0.0831731 0.0277817 0.0390355 ) 8
( 0.193471 0.070793 0.0657122 ) 48
( 0.134399 0.0903048 0.0390167 ) 28
( 0.182033 0.0788667 0.0346924 ) 30
( 0.236434 0.090574 0.0384476 ) 32
( 0.0274957 0.0631816 0.0738289 ) 69
( 0.180182 0.0153628 0.0733958 ) 66
( 0.0533983 0.0474471 0.0514579 ) 43
( 0.0537233 0.0904716 0.0367149 ) 25
( 0.0638044 0.0502753 0.0743173 ) 71
( 0.0725706 0.0512268 0.0412788 ) 17
( 0.0490681 0.0166334 0.0330442 ) 7
( 0.241192 0.0175011 0.0370659 ) 14
( 0.0348065 0.090245 0.0651914 ) 52
( 0.214355 0.041202 0.0367185 ) 13
( 0.158127 0.0589903 0.0717508 ) 74
( 0.127508 0.0556498 0.0353445 ) 19
( 0.148892 0.0743181 0.0376667 ) 29
( 0.210092 0.0837981 0.0703435 ) 58
( 0.134843 0.0572183 0.0734194 ) 73
( 0.0105184 0.0900343 0.0702571 ) 51
( 0.0096741 0.0408425 0.0486798 ) 33
( 0.0274558 0.0230492 0.0733979 ) 60
( 0.193736 0.0900733 0.0611688 ) 57
( 0.238281 0.0744252 0.0760798 ) 86
( 0.143203 0.0790989 0.0728553 ) 83
( 0.100898 0.0206479 0.0816419 ) 63
( 0.168286 0.0444722 0.0436794 ) 48
( 0.148964 0.0366653 0.0726848 ) 65
( 0.0659897 0.0745168 0.0704543 ) 53
( 0.101894 0.0900228 0.0759529 ) 81
( 0.2117 0.0361026 0.0741673 ) 67
( 0.0865016 0.0310941 0.0905484 ) 63
( 0.193359 0.0417253 0.0506222 ) 39
( 0.175099 0.0488713 0.0730506 ) 75
( 0.072753 0.0192761 0.0572062 ) 35
( 0.00952313 0.0563073 0.0774633 ) 69
( 0.165829 0.0755679 0.0789746 ) 83
( 0.18867 0.0345208 0.0740546 ) 66
( 0.0930696 0.0552365 0.0830036 ) 72
( 0.244394 0.0429269 0.0903165 ) 77
( 0.121635 0.090157 0.0740368 ) 82
( 0.0771959 0.0292035 0.07357 ) 62
( 0.0426831 0.0732257 0.0810211 ) 79
( 0.0510386 0.0371148 0.0814389 ) 61
( 0.109166 0.0703275 0.0756886 ) 72
( 0.229122 0.040294 0.0658505 ) 41
( 0.0226393 0.0734427 0.09014 ) 78
( 0.16966 0.0309898 0.0795154 ) 66
( 0.0296802 0.0433801 0.0787473 ) 70
( 0.110437 0.0370214 0.0901245 ) 63
( 0.201928 0.0578336 0.0860855 ) 76
( 0.235845 0.0628244 0.0608914 ) 50
( 0.0765237 0.0738965 0.0901924 ) 80
( 0.165028 0.01499 0.0903502 ) 65
( 0.198327 0.0771724 0.084616 ) 85
( 0.00974295 0.0261286 0.0817875 ) 60
( 0.227588 0.0905333 0.0760176 ) 86
( 0.183208 0.0647996 0.0815394 ) 75
( 0.147861 0.0528576 0.0877358 ) 74
( 0.233951 0.0546994 0.0785541 ) 77
( 0.05169 0.0903165 0.0751595 ) 79
( 0.130615 0.0672038 0.0901237 ) 73
( 0.0602724 0.0611918 0.0902435 ) 71
( 0.233273 0.0280245 0.0808338 ) 68
( 0.0711462 0.090469 0.0804972 ) 80
( 0.140591 0.0900614 0.0901051 ) 83
( 0.0100269 0.0900252 0.0901331 ) 78
( 0.135407 0.0289995 0.0858485 ) 64
( 0.201309 0.0204381 0.0799057 ) 67
( 0.180625 0.0438474 0.0906858 ) 75
( 0.177913 0.0902346 0.0728861 ) 84
( 0.201313 0.0386428 0.0904703 ) 67
( 0.0746083 0.0470317 0.0903463 ) 71
( 0.149843 0.0724753 0.0902628 ) 83
( 0.0399048 0.0558783 0.0902318 ) 70
( 0.115065 0.081399 0.0905314 ) 82
( 0.223881 0.0667803 0.090322 ) 77
( 0.111427 0.0573756 0.0903288 ) 73
( 0.0373959 0.0900357 0.0901483 ) 79
( 0.0359542 0.0285204 0.0904108 ) 61
( 0.185336 0.0242257 0.0904868 ) 66
( 0.211957 0.0901926 0.0902866 ) 85
( 0.153906 0.0342823 0.0908855 ) 65
( 0.118175 0.0187141 0.0905986 ) 64
( 0.249898 0.070561 0.0908217 ) 77
( 0.160625 0.0901323 0.0905228 ) 83
( 0.128865 0.0473033 0.0901249 ) 73
( 0.0662521 0.0283711 0.0903316 ) 62
( 0.243156 0.0900373 0.0901479 ) 86
( 0.221407 0.0406409 0.0904487 ) 67
( 0.21782 0.020868 0.0908001 ) 67
( 0.166702 0.0585866 0.0902459 ) 75
( 0.0138171 0.0429805 0.0907363 ) 69
( 0.0578078 0.0808347 0.0908196 ) 80
( 0.0882101 0.0902252 0.0902837 ) 81
( 0.180209 0.0821863 0.0905614 ) 84
( 0.0971769 0.0727068 0.0906696 ) 81
)
