/*--------------------------------*- C++ -*----------------------------------*\
| =========                 |                                                 |
| \\      /  F ield         | OpenFOAM: The Open Source CFD Toolbox           |
|  \\    /   O peration     | Version:  4.x                                   |
|   \\  /    A nd           | Web:      www.OpenFOAM.org                      |
|    \\/     M anipulation  |                                                 |
\*---------------------------------------------------------------------------*/
FoamFile
{
    version     2.0;
    format      ascii;
    class       volScalarField;
    location    "55";
    object      Deff;
}
// * * * * * * * * * * * * * * * * * * * * * * * * * * * * * * * * * * * * * //

dimensions      [0 2 -1 0 0 0 0];

internalField   nonuniform List<scalar> 
87
(
9.94886e-08
9.92076e-08
9.91765e-08
9.90326e-08
9.90321e-08
9.89305e-08
9.87993e-08
9.87971e-08
9.88828e-08
9.92747e-08
9.92053e-08
9.90562e-08
9.89849e-08
9.8979e-08
9.88328e-08
9.86716e-08
9.8782e-08
9.8917e-08
9.90461e-08
9.89353e-08
9.88294e-08
9.87543e-08
9.88125e-08
9.88193e-08
9.87139e-08
9.87399e-08
9.88349e-08
9.88692e-08
9.8845e-08
9.87657e-08
9.86273e-08
9.85757e-08
9.84186e-08
9.82883e-08
9.83802e-08
9.85423e-08
9.87195e-08
9.87621e-08
9.86552e-08
9.85436e-08
9.84752e-08
9.84271e-08
9.82802e-08
9.83204e-08
9.85532e-08
9.85312e-08
9.8551e-08
9.85033e-08
9.84702e-08
9.84475e-08
9.83305e-08
9.82228e-08
9.81626e-08
9.84693e-08
9.84831e-08
9.84556e-08
9.82761e-08
9.81768e-08
9.81852e-08
9.80014e-08
9.80539e-08
9.81736e-08
9.8356e-08
9.84008e-08
9.83119e-08
9.83063e-08
9.82037e-08
9.81125e-08
9.80333e-08
9.80158e-08
9.80555e-08
9.83014e-08
9.82191e-08
9.82048e-08
9.8208e-08
9.79995e-08
9.79766e-08
9.7911e-08
9.79329e-08
9.79594e-08
9.8231e-08
9.82371e-08
9.81965e-08
9.79917e-08
9.8102e-08
9.79192e-08
9.80369e-08
)
;

boundaryField
{
    inlet
    {
        type            calculated;
        value           nonuniform 0();
    }
    outlet
    {
        type            calculated;
        value           uniform 0;
    }
    wall
    {
        type            calculated;
        value           uniform 0;
    }
    procBoundary1to0
    {
        type            processor;
        value           uniform 0;
    }
    procBoundary1to3
    {
        type            processor;
        value           uniform 0;
    }
    procBoundary1to5
    {
        type            processor;
        value           uniform 0;
    }
    procBoundary1to7
    {
        type            processor;
        value           uniform 0;
    }
}


// ************************************************************************* //
