/*--------------------------------*- C++ -*----------------------------------*\
| =========                 |                                                 |
| \\      /  F ield         | OpenFOAM: The Open Source CFD Toolbox           |
|  \\    /   O peration     | Version:  4.x                                   |
|   \\  /    A nd           | Web:      www.OpenFOAM.org                      |
|    \\/     M anipulation  |                                                 |
\*---------------------------------------------------------------------------*/
FoamFile
{
    version     2.0;
    format      ascii;
    class       volScalarField;
    location    "55";
    object      KslPrev;
}
// * * * * * * * * * * * * * * * * * * * * * * * * * * * * * * * * * * * * * //

dimensions      [1 -3 -1 0 0 0 0];

internalField   nonuniform List<scalar> 
87
(
3804.7
2530.69
3778.04
2409.25
3796.09
2120.56
4142.97
1688.76
6022.94
4470.15
2691.85
4402.46
2552.24
4520.67
2297.32
5075.7
1938.81
5867.48
5380.86
2972.68
5483.92
2873.52
5764.32
2647.52
6133.37
2199.52
6275.73
6048.29
3041.94
6127.9
2979.16
6540.44
2838.92
7966.63
2707.94
12313.8
11469.8
3400.14
12894.7
3288.26
15694.7
3051.38
16754.9
2799.54
10033.8
38678.2
3744.94
126271
3754.06
185305
3840.99
43740.9
4094.61
6937.8
6376.03
3034.33
6711.28
2942
7441.39
2759.02
8875.53
2592.5
9320.25
12050.6
3357.82
12097.6
3201.69
12198.9
2986.43
11219.4
2706.05
7782.32
50493.5
3766.64
70817.5
3733
54713.1
3680.87
21799.3
3719.23
8063.22
8853.54
3373.86
12945.8
55417.6
3729.8
7.95053e+09
)
;

boundaryField
{
    inlet
    {
        type            zeroGradient;
    }
    outlet
    {
        type            zeroGradient;
    }
    wall
    {
        type            zeroGradient;
    }
    procBoundary1to0
    {
        type            processor;
        value           uniform 0;
    }
    procBoundary1to3
    {
        type            processor;
        value           uniform 0;
    }
    procBoundary1to5
    {
        type            processor;
        value           uniform 0;
    }
    procBoundary1to7
    {
        type            processor;
        value           uniform 0;
    }
}


// ************************************************************************* //
