/*--------------------------------*- C++ -*----------------------------------*\
| =========                 |                                                 |
| \\      /  F ield         | OpenFOAM: The Open Source CFD Toolbox           |
|  \\    /   O peration     | Version:  4.x                                   |
|   \\  /    A nd           | Web:      www.OpenFOAM.org                      |
|    \\/     M anipulation  |                                                 |
\*---------------------------------------------------------------------------*/
FoamFile
{
    version     2.0;
    format      ascii;
    class       volScalarField;
    location    "55";
    object      magGField;
}
// * * * * * * * * * * * * * * * * * * * * * * * * * * * * * * * * * * * * * //

dimensions      [1 -2 -1 0 0 0 0];

internalField   nonuniform List<scalar> 
87
(
93.3374
140.796
94.293
149.434
93.1801
165.981
84.0072
204.822
54.4644
80.2415
134.202
81.7277
142.254
79.1705
155.348
69.0024
181.765
56.8046
66.1418
120.801
64.7577
124.79
61.3682
134.103
56.6059
157.61
52.6324
57.8459
115.577
57.2776
118.506
53.0776
121.63
42.6018
124.582
26.1897
30.8636
104.692
27.4157
108.779
22.4287
115.176
20.5579
122.809
32.4688
9.03148
94.5261
2.77149
93.9318
1.87101
90.5308
7.78253
82.768
46.794
53.1384
112.857
50.529
116.08
45.0216
120.572
36.8467
125.876
33.6335
28.4008
102.687
28.2453
107.764
27.7361
113.264
29.4309
121.57
40.5461
6.69233
90.8612
4.77942
91.2405
6.10734
90.9983
15.0079
87.4337
39.0493
37.3203
98.0286
25.2229
6.0023
89.5267
0.000427586
)
;

boundaryField
{
    inlet
    {
        type            calculated;
        value           nonuniform 0();
    }
    outlet
    {
        type            calculated;
        value           nonuniform List<scalar> 9(113.46 117.521 109.322 55.2398 68.4395 99.0778 71.6537 86.6373 83.762);
    }
    wall
    {
        type            calculated;
        value           uniform 0;
    }
    procBoundary1to0
    {
        type            processor;
        value           nonuniform List<scalar> 
12
(
134.325
127.329
117.309
112.482
101.701
94.5598
109.642
98.8683
90.5692
100.911
90.2756
81.1609
)
;
    }
    procBoundary1to3
    {
        type            processor;
        value           nonuniform List<scalar> 
27
(
72.5783
128.937
74.7266
137.457
72.6916
147.544
61.3542
161.525
50.4548
21.9758
102.099
18.9163
106.502
16.7127
112.796
16.9632
120.473
38.3768
12.7972
93.2827
10.563
94.5121
11.7728
93.957
16.0471
86.9582
39.1906
)
;
    }
    procBoundary1to5
    {
        type            processor;
        value           nonuniform List<scalar> 
32
(
90.5444
8.50531
77.9276
1.3849e-05
55.585
5.73451
1.52877
89.4771
2.30567
86.288
5.41501
75.8068
24.66
79.2682
0.000355235
77.6585
0.000261737
74.7859
2.56255
65.6752
20.9491
45.5523
106.254
90.5444
1.52877
43.9253
11.3004
1.52877
79.2682
92.4979
79.2682
0.673935
)
;
    }
    procBoundary1to7
    {
        type            processor;
        value           uniform 6.53003;
    }
}


// ************************************************************************* //
