/*--------------------------------*- C++ -*----------------------------------*\
| =========                 |                                                 |
| \\      /  F ield         | OpenFOAM: The Open Source CFD Toolbox           |
|  \\    /   O peration     | Version:  4.x                                   |
|   \\  /    A nd           | Web:      www.OpenFOAM.org                      |
|    \\/     M anipulation  |                                                 |
\*---------------------------------------------------------------------------*/
FoamFile
{
    version     2.0;
    format      ascii;
    class       volScalarField;
    location    "55";
    object      pSmooth;
}
// * * * * * * * * * * * * * * * * * * * * * * * * * * * * * * * * * * * * * //

dimensions      [1 -1 -2 0 0 0 0];

internalField   nonuniform List<scalar> 
87
(
19.3033
74.8089
3.77956
69.0069
0.1
65.0393
0.1
65.4473
0.1
18.8341
74.7361
3.2902
68.9895
0.1
65.052
0.1
64.8899
0.1
19.6588
74.9512
3.81218
68.7745
0.1
63.6875
0.1
60.8114
0.1
19.6498
75.0443
3.74776
68.8569
0.1
63.5284
0.1
59.7316
0.1
19.1939
75.0088
3.54354
68.8329
0.1
63.4871
0.1
59.9577
0.1
19.9771
75.19
4.00794
68.3628
0.1
61.9739
0.1
55.5924
0.1
19.4331
74.8169
3.44898
68.7899
0.1
64.0194
0.1
61.7151
0.1
18.8911
74.7132
3.18313
68.5515
0.1
63.5329
0.1
61.0176
0.1
20.4323
74.7741
4.16976
68.2825
0.1
62.4665
0.1
57.7595
0.1
20.8473
75.4994
4.2616
20.6018
75.1407
22.8773
)
;

boundaryField
{
    inlet
    {
        type            zeroGradient;
    }
    outlet
    {
        type            fixedValue;
        value           uniform 0;
    }
    wall
    {
        type            zeroGradient;
    }
    procBoundary1to0
    {
        type            processor;
        value           nonuniform List<scalar> 
12
(
81.229
81.1277
81.56
81.6108
81.6881
82.1404
81.3586
81.4154
81.7659
82.1172
82.1745
81.9839
)
;
    }
    procBoundary1to3
    {
        type            processor;
        value           nonuniform List<scalar> 
27
(
18.6289
74.567
3.22355
68.751
0.1
64.6721
0.1
63.6753
0.1
18.5581
74.8206
3.14419
68.582
0.1
63.4536
0.1
60.5405
0.1
19.5751
74.676
3.62788
68.1809
0.1
62.799
0.1
58.6746
0.1
)
;
    }
    procBoundary1to5
    {
        type            processor;
        value           nonuniform List<scalar> 
32
(
69.0207
0.1
62.2254
0.1
55.5775
0.1
4.01979
68.3536
0.1
62.0756
0.1
56.2352
0.1
75.0079
5.33865
68.1976
0.1
61.2705
0.1
53.546
0.1
19.8836
74.771
69.0207
4.01979
3.50455
20.0151
4.01979
75.0079
74.8956
75.0079
21.5668
)
;
    }
    procBoundary1to7
    {
        type            processor;
        value           uniform 20.9561;
    }
}


// ************************************************************************* //
