/*--------------------------------*- C++ -*----------------------------------*\
| =========                 |                                                 |
| \\      /  F ield         | OpenFOAM: The Open Source CFD Toolbox           |
|  \\    /   O peration     | Version:  4.x                                   |
|   \\  /    A nd           | Web:      www.OpenFOAM.org                      |
|    \\/     M anipulation  |                                                 |
\*---------------------------------------------------------------------------*/
FoamFile
{
    version     2.0;
    format      ascii;
    class       volScalarField;
    location    "55";
    object      QPartFluid;
}
// * * * * * * * * * * * * * * * * * * * * * * * * * * * * * * * * * * * * * //

dimensions      [1 -1 -3 0 0 0 0];

internalField   nonuniform List<scalar> 
87
(
1.83503e+09
6.69331e+09
4.18566e+09
6.54133e+09
4.36099e+09
4.51213e+09
5.23648e+09
6.58169e+09
3.96562e+09
4.52764e+09
4.42845e+09
5.83658e+09
5.74465e+09
4.39846e+09
6.67571e+09
7.66095e+09
6.74514e+09
4.02912e+09
3.9464e+09
7.09377e+09
6.22542e+09
8.96135e+09
6.30787e+09
5.82811e+09
5.78139e+09
6.32126e+09
4.32191e+09
7.32489e+09
6.57434e+09
6.127e+09
7.56556e+09
6.34671e+09
8.18545e+09
9.02472e+09
8.89625e+09
5.31234e+09
9.104e+09
6.80702e+09
7.5629e+09
9.41722e+09
9.19751e+09
7.72271e+09
9.4047e+09
1.05669e+10
4.72727e+09
8.98961e+09
8.3865e+09
7.20158e+09
6.80442e+09
5.82881e+09
9.15063e+09
9.29572e+09
1.32264e+10
4.50363e+09
7.10973e+09
6.99468e+09
8.21206e+09
9.60076e+09
6.08203e+09
9.98958e+09
7.21657e+09
7.39371e+09
3.18425e+09
6.57178e+09
8.95045e+09
6.49375e+09
8.09578e+09
8.18035e+09
9.08184e+09
7.63221e+09
9.45801e+09
3.7043e+09
8.20103e+09
7.7717e+09
5.47129e+09
1.11281e+10
8.86171e+09
1.08909e+10
7.6947e+09
9.71476e+09
3.3905e+09
6.46788e+09
5.5298e+09
7.59091e+09
7.85692e+09
1.21993e+10
5.90346e+09
)
;

boundaryField
{
    inlet
    {
        type            calculated;
        value           nonuniform 0();
    }
    outlet
    {
        type            calculated;
        value           uniform 0;
    }
    wall
    {
        type            calculated;
        value           uniform 0;
    }
    procBoundary1to0
    {
        type            processor;
        value           nonuniform List<scalar> 
12
(
4.58661e+09
5.24736e+09
8.5054e+09
7.3545e+09
9.0708e+09
6.34829e+09
5.41883e+09
1.00509e+10
5.39599e+09
6.04004e+09
6.9283e+09
9.3398e+09
)
;
    }
    procBoundary1to3
    {
        type            processor;
        value           nonuniform List<scalar> 
27
(
8.49162e+09
3.8525e+09
6.83707e+09
3.23944e+09
5.02483e+09
3.80942e+09
5.65133e+09
4.869e+09
3.38873e+09
8.58533e+09
8.10199e+09
1.02157e+10
1.06875e+10
8.57614e+09
8.0372e+09
6.90307e+09
8.66529e+09
8.1245e+09
8.28934e+09
1.10422e+10
9.3118e+09
1.04096e+10
6.66355e+09
7.89337e+09
9.22225e+09
8.51155e+09
7.05186e+09
)
;
    }
    procBoundary1to5
    {
        type            processor;
        value           nonuniform List<scalar> 
32
(
7.86098e+09
7.24762e+09
7.04172e+09
5.72616e+09
7.90065e+09
5.86987e+09
7.28017e+09
7.05212e+09
5.93154e+09
8.28338e+09
8.52803e+09
1.01485e+10
6.54848e+09
9.96204e+09
6.15448e+09
8.72441e+09
5.89318e+09
5.32364e+09
7.20315e+09
6.27578e+09
6.66623e+09
6.65543e+09
5.69945e+09
7.86098e+09
7.28017e+09
7.58335e+09
8.21148e+09
7.28017e+09
9.96204e+09
8.24791e+09
9.96204e+09
8.52609e+09
)
;
    }
    procBoundary1to7
    {
        type            processor;
        value           uniform 1.02097e+10;
    }
}


// ************************************************************************* //
