/*--------------------------------*- C++ -*----------------------------------*\
| =========                 |                                                 |
| \\      /  F ield         | OpenFOAM: The Open Source CFD Toolbox           |
|  \\    /   O peration     | Version:  4.x                                   |
|   \\  /    A nd           | Web:      www.OpenFOAM.org                      |
|    \\/     M anipulation  |                                                 |
\*---------------------------------------------------------------------------*/
FoamFile
{
    version     2.0;
    format      ascii;
    class       volScalarField;
    location    "55";
    object      Qsource;
}
// * * * * * * * * * * * * * * * * * * * * * * * * * * * * * * * * * * * * * //

dimensions      [1 -1 -3 0 0 0 0];

internalField   nonuniform List<scalar> 
87
(
3.44899e+09
8.93576e+09
5.81282e+09
8.89318e+09
5.97278e+09
7.07009e+09
6.72002e+09
9.60826e+09
5.01453e+09
5.24269e+09
5.50746e+09
6.56221e+09
6.87514e+09
5.10587e+09
7.88872e+09
8.29468e+09
8.12053e+09
4.57153e+09
4.55903e+09
8.08568e+09
6.82778e+09
9.97938e+09
6.88487e+09
6.90649e+09
6.32228e+09
7.54837e+09
4.8322e+09
7.87524e+09
7.53179e+09
6.67302e+09
8.54237e+09
6.86045e+09
9.18281e+09
9.45561e+09
9.91293e+09
5.6043e+09
9.104e+09
6.80702e+09
7.5629e+09
9.41722e+09
9.19751e+09
7.72271e+09
9.4047e+09
1.05669e+10
4.72727e+09
8.98961e+09
8.3865e+09
7.20158e+09
6.80442e+09
5.82881e+09
9.15063e+09
9.29572e+09
1.32264e+10
4.50363e+09
7.62395e+09
7.93406e+09
8.70597e+09
1.05615e+10
6.53238e+09
1.098e+10
7.60022e+09
8.41883e+09
3.54089e+09
6.57178e+09
8.95045e+09
6.49375e+09
8.09578e+09
8.18035e+09
9.08184e+09
7.63221e+09
9.45801e+09
3.7043e+09
8.20103e+09
7.7717e+09
5.47129e+09
1.11281e+10
8.86171e+09
1.08909e+10
7.6947e+09
9.71476e+09
3.3905e+09
6.85547e+09
6.36906e+09
7.87421e+09
7.85692e+09
1.21993e+10
5.90346e+09
)
;

boundaryField
{
    inlet
    {
        type            calculated;
        value           nonuniform 0();
    }
    outlet
    {
        type            calculated;
        value           uniform 0;
    }
    wall
    {
        type            calculated;
        value           uniform 0;
    }
    procBoundary1to0
    {
        type            processor;
        value           nonuniform List<scalar> 
12
(
6.74621e+09
6.28193e+09
9.47431e+09
8.29139e+09
9.0708e+09
6.34829e+09
6.33674e+09
1.00509e+10
5.39599e+09
6.89899e+09
6.9283e+09
9.3398e+09
)
;
    }
    procBoundary1to3
    {
        type            processor;
        value           nonuniform List<scalar> 
27
(
9.15149e+09
4.89751e+09
7.51253e+09
4.33934e+09
5.68553e+09
4.97342e+09
6.22822e+09
6.12044e+09
3.88207e+09
8.58533e+09
8.10199e+09
1.02157e+10
1.06875e+10
8.57614e+09
8.0372e+09
6.90307e+09
8.66529e+09
8.1245e+09
8.28934e+09
1.10422e+10
9.3118e+09
1.04096e+10
6.66355e+09
7.89337e+09
9.22225e+09
8.51155e+09
7.05186e+09
)
;
    }
    procBoundary1to5
    {
        type            processor;
        value           nonuniform List<scalar> 
32
(
8.64858e+09
7.36635e+09
7.74023e+09
5.72617e+09
8.43372e+09
5.95649e+09
7.28017e+09
7.05212e+09
5.93154e+09
8.28338e+09
8.52803e+09
1.01485e+10
6.54848e+09
9.96204e+09
6.15448e+09
8.72441e+09
5.89318e+09
5.32364e+09
7.20315e+09
6.27578e+09
6.66623e+09
7.11002e+09
6.5946e+09
8.64858e+09
7.28017e+09
8.02491e+09
8.21148e+09
7.28017e+09
9.96204e+09
8.24791e+09
9.96204e+09
8.52609e+09
)
;
    }
    procBoundary1to7
    {
        type            processor;
        value           uniform 1.02097e+10;
    }
}


// ************************************************************************* //
