/*--------------------------------*- C++ -*----------------------------------*\
| =========                 |                                                 |
| \\      /  F ield         | OpenFOAM: The Open Source CFD Toolbox           |
|  \\    /   O peration     | Version:  4.x                                   |
|   \\  /    A nd           | Web:      www.OpenFOAM.org                      |
|    \\/     M anipulation  |                                                 |
\*---------------------------------------------------------------------------*/
FoamFile
{
    version     2.0;
    format      ascii;
    class       volScalarField;
    location    "55";
    object      SPartFluid;
}
// * * * * * * * * * * * * * * * * * * * * * * * * * * * * * * * * * * * * * //

dimensions      [1 -3 -1 0 0 0 0];

internalField   nonuniform List<scalar> 
87
(
1.62776e-65
5.81325e-65
3.7978e-65
5.11519e-65
3.95264e-65
3.87514e-65
4.41767e-65
5.03763e-65
4.8051e-65
3.64254e-65
3.25524e-65
4.65024e-65
4.18512e-65
3.4101e-65
5.03767e-65
6.58773e-65
4.57261e-65
3.95255e-65
3.48744e-65
5.58e-65
5.73513e-65
7.13015e-65
5.50263e-65
4.34013e-65
4.96018e-65
4.57257e-65
4.49496e-65
6.58779e-65
5.65787e-65
5.34777e-65
6.20016e-65
5.81256e-65
6.89756e-65
8.37019e-65
7.28515e-65
6.35512e-65
7.28513e-65
5.19267e-65
6.35523e-65
6.97515e-65
7.28512e-65
5.65759e-65
7.51768e-65
7.59514e-65
5.50254e-65
8.05989e-65
6.51003e-65
6.20013e-65
5.2701e-65
5.2701e-65
7.20767e-65
7.90521e-65
1.03077e-64
4.88246e-65
7.05264e-65
5.7352e-65
7.67269e-65
7.98259e-65
5.735e-65
8.75752e-65
6.74262e-65
5.73513e-65
4.18508e-65
5.65767e-65
7.13022e-65
5.65764e-65
6.12257e-65
6.97502e-65
6.97503e-65
6.5876e-65
7.20762e-65
4.41755e-65
7.8278e-65
6.27776e-65
5.11513e-65
9.06759e-65
8.29254e-65
8.91257e-65
6.97509e-65
7.90509e-65
3.4875e-65
6.58763e-65
5.27009e-65
8.06011e-65
7.05268e-65
9.99773e-65
5.73524e-65
)
;

boundaryField
{
    inlet
    {
        type            calculated;
        value           nonuniform 0();
    }
    outlet
    {
        type            calculated;
        value           uniform 0;
    }
    wall
    {
        type            calculated;
        value           uniform 0;
    }
    procBoundary1to0
    {
        type            processor;
        value           nonuniform List<scalar> 
12
(
3.87461e-65
3.95225e-65
6.89722e-65
6.27712e-65
7.05219e-65
4.95982e-65
4.7274e-65
8.21494e-65
4.57252e-65
4.96002e-65
5.50258e-65
8.06018e-65
)
;
    }
    procBoundary1to3
    {
        type            processor;
        value           nonuniform List<scalar> 
27
(
6.97494e-65
3.255e-65
5.81256e-65
2.55754e-65
4.10758e-65
3.02258e-65
4.72767e-65
4.18507e-65
4.26234e-65
7.51748e-65
6.27756e-65
8.99012e-65
8.52512e-65
7.59511e-65
6.27763e-65
6.04514e-65
6.58755e-65
9.22234e-65
7.67267e-65
9.0677e-65
8.75765e-65
8.5251e-65
6.12254e-65
6.27756e-65
8.52512e-65
7.13006e-65
7.43999e-65
)
;
    }
    procBoundary1to5
    {
        type            processor;
        value           nonuniform List<scalar> 
32
(
6.82006e-65
8.06001e-65
6.35501e-65
6.7426e-65
7.59513e-65
8.44764e-65
6.82008e-65
5.65754e-65
5.81252e-65
6.66503e-65
8.21509e-65
8.52512e-65
7.90511e-65
8.44779e-65
6.04509e-65
7.51755e-65
5.73502e-65
4.57252e-65
6.9751e-65
5.42507e-65
8.68008e-65
6.3551e-65
4.80507e-65
6.82006e-65
6.82008e-65
6.97506e-65
7.13013e-65
6.82008e-65
8.44779e-65
6.8201e-65
8.44779e-65
8.21517e-65
)
;
    }
    procBoundary1to7
    {
        type            processor;
        value           uniform 9.92026e-65;
    }
}


// ************************************************************************* //
