/*--------------------------------*- C++ -*----------------------------------*\
| =========                 |                                                 |
| \\      /  F ield         | OpenFOAM: The Open Source CFD Toolbox           |
|  \\    /   O peration     | Version:  4.x                                   |
|   \\  /    A nd           | Web:      www.OpenFOAM.org                      |
|    \\/     M anipulation  |                                                 |
\*---------------------------------------------------------------------------*/
FoamFile
{
    version     2.0;
    format      ascii;
    class       volVectorField;
    location    "2";
    object      DDtUrel;
}
// * * * * * * * * * * * * * * * * * * * * * * * * * * * * * * * * * * * * * //

dimensions      [0 1 -2 0 0 0 0];

internalField   nonuniform List<vector> 
132
(
(0.0181019 -1.55036e-05 0.00605419)
(0.0213332 -7.17795e-05 0.00583471)
(0.0264743 -0.000160213 0.00540368)
(0.0324386 -0.000211078 0.00493897)
(0.0384566 -0.00017772 0.00447159)
(0.0442103 -4.22099e-05 0.00404192)
(0.0483856 6.43715e-05 0.00388358)
(0.051005 0.000202344 0.00354012)
(0.0516479 0.000514533 0.00307265)
(0.0178985 -8.12325e-05 0.00585361)
(0.0210882 3.13842e-05 0.00570079)
(0.0261759 1.43817e-05 0.00528333)
(0.0317981 -5.4271e-05 0.00478818)
(0.037456 -3.2713e-05 0.00431341)
(0.0424424 -3.09496e-05 0.00389384)
(0.0467004 -5.78184e-05 0.00357153)
(0.0492829 -2.09166e-05 0.00322787)
(0.0501986 5.36604e-05 0.00286052)
(0.0175875 -2.71609e-05 0.00570982)
(0.0207552 4.81562e-05 0.00556138)
(0.0258003 8.82692e-05 0.00511499)
(0.0312917 5.47661e-05 0.00464342)
(0.036601 7.77013e-05 0.00415585)
(0.0410379 5.22477e-05 0.00369705)
(0.044724 1.08979e-05 0.00329258)
(0.0472127 1.82729e-05 0.00294729)
(0.0479596 5.03234e-05 0.00260899)
(0.0175095 0.000221934 0.00568032)
(0.0206518 7.19464e-05 0.00557578)
(0.0256648 0.000119837 0.00509745)
(0.0174289 -0.000169385 0.00605784)
(0.020481 -0.000162767 0.00587607)
(0.0254555 -0.000183585 0.00543073)
(0.0312715 -0.00017726 0.00497984)
(0.0369331 -9.21203e-05 0.00457894)
(0.0419451 2.19022e-05 0.00417755)
(0.0457188 8.35712e-05 0.0038802)
(0.0484138 0.0002422 0.00344471)
(0.0492417 0.000485344 0.00292031)
(0.017165 -0.000134122 0.00589292)
(0.0201172 -2.84514e-05 0.00572494)
(0.0249931 -1.88607e-05 0.00532414)
(0.0304609 -3.38591e-05 0.00481715)
(0.0359201 -4.43896e-05 0.00434629)
(0.0405953 -5.37076e-05 0.00391134)
(0.0443644 -1.48318e-05 0.00352516)
(0.0467782 8.57064e-05 0.00314537)
(0.0477017 0.000214574 0.00276553)
(0.0168803 1.09575e-06 0.00576201)
(0.0197812 5.81548e-05 0.00557862)
(0.0245446 6.18125e-05 0.00515362)
(0.0297846 4.02742e-05 0.00465799)
(0.0349187 3.5536e-05 0.00415025)
(0.0392484 2.09739e-05 0.00369872)
(0.0427187 -1.48217e-05 0.0032442)
(0.0447961 2.65936e-05 0.00282184)
(0.0454955 0.000135905 0.00252628)
(0.0168272 0.000191345 0.00572887)
(0.0197104 0.000133097 0.00555773)
(0.024422 0.000123718 0.00512211)
(0.0295741 0.00013502 0.00459699)
(0.0344923 0.000197008 0.00405367)
(0.0165901 -0.000317239 0.00531873)
(0.0194235 -0.000273565 0.00518174)
(0.0240924 -0.000250713 0.00481688)
(0.0296258 -0.000191352 0.00448816)
(0.0349326 -0.000134933 0.00413145)
(0.039981 -3.1582e-05 0.0037849)
(0.0437983 0.000131201 0.00342654)
(0.0466302 0.000363411 0.00287484)
(0.0477485 0.00060382 0.00232788)
(0.0163091 -0.000222414 0.00523653)
(0.0189467 -0.00013285 0.00505598)
(0.0234486 -8.69172e-05 0.00472848)
(0.0285891 -5.26729e-05 0.00431733)
(0.0337126 -3.07827e-05 0.00389653)
(0.0382447 -2.18269e-05 0.0034964)
(0.0418925 4.33972e-06 0.00310103)
(0.0441368 0.000144509 0.00261863)
(0.0449633 0.000327923 0.00213443)
(0.0160268 -3.91471e-05 0.00516852)
(0.0185719 2.46403e-05 0.00494359)
(0.0229509 4.12275e-05 0.00460192)
(0.0277931 4.58457e-05 0.00415579)
(0.032601 4.98044e-05 0.00368929)
(0.0367651 2.75915e-05 0.00327714)
(0.0400436 -1.63519e-05 0.00283768)
(0.0420331 1.75202e-05 0.00233967)
(0.04262 0.000122748 0.00195379)
(0.0159712 0.000153315 0.00515707)
(0.0185051 0.000143302 0.0049243)
(0.0228281 0.000142961 0.00456545)
(0.0275991 0.000133834 0.004089)
(0.0322665 0.000151548 0.00360727)
(0.0362388 0.000166949 0.00315859)
(0.0392098 0.000127827 0.00270073)
(0.0157984 -0.00039982 0.00422317)
(0.0184176 -0.00031849 0.00413866)
(0.0228245 -0.000261985 0.00385619)
(0.0281316 -0.00016899 0.0036376)
(0.033332 -8.01698e-05 0.00327887)
(0.0382398 5.19755e-05 0.00288176)
(0.0421897 0.000259126 0.00256203)
(0.0447556 0.000548173 0.00190451)
(0.0453378 0.000701605 0.00109221)
(0.0154905 -0.000303063 0.00413944)
(0.017867 -0.000173753 0.00400744)
(0.0220459 -0.000111055 0.00377025)
(0.0269048 -3.33372e-05 0.00346109)
(0.031763 -3.23186e-06 0.00310987)
(0.0361736 2.94248e-05 0.00273159)
(0.0397177 6.84962e-05 0.00236082)
(0.0417842 0.000186049 0.0018934)
(0.0421613 0.000389463 0.0013954)
(0.0152391 -7.48358e-05 0.00414493)
(0.0174941 -9.18591e-06 0.00395616)
(0.0215005 3.36138e-05 0.00368587)
(0.0260032 4.92291e-05 0.00332336)
(0.0305834 6.48894e-05 0.0029448)
(0.0346052 7.55108e-05 0.0025801)
(0.0377682 4.29628e-05 0.00220027)
(0.0395786 4.53213e-05 0.00177788)
(0.0399095 0.000135608 0.00139481)
(0.0152028 0.000114285 0.00415969)
(0.0174434 0.000146363 0.00395157)
(0.0213614 0.000162761 0.00364607)
(0.0257899 0.000147285 0.00325337)
(0.0302462 0.000151065 0.00286502)
(0.0340943 0.000174949 0.00249911)
(0.0370149 0.000114009 0.00213939)
(0.0386737 8.55396e-05 0.00174346)
(0.0389295 6.86451e-05 0.00134061)
)
;

boundaryField
{
    inlet
    {
        type            calculated;
        value           nonuniform List<vector> 
16
(
(0.0103244 0.000839755 0.00736244)
(0.0101402 -0.000648243 0.00605488)
(0.00877378 -0.000968081 0.00568267)
(0.00839505 0.00106252 0.00563446)
(0.00885483 -0.000322787 0.00943854)
(0.00803465 -0.000679466 0.00846669)
(0.0072037 -0.000145499 0.00805097)
(0.00725164 0.000427402 0.00785346)
(0.00811438 -0.000954773 0.00711259)
(0.00764604 -0.000815803 0.0071202)
(0.00687562 -0.00029537 0.0070366)
(0.00679743 0.000128471 0.00722275)
(0.0077357 -0.00132635 0.00476789)
(0.00700892 -0.00143609 0.00412395)
(0.00657659 -0.000260353 0.00461743)
(0.00685176 -0.000148508 0.00511306)
)
;
    }
    outlet
    {
        type            calculated;
        value           nonuniform 0();
    }
    wall
    {
        type            calculated;
        value           nonuniform List<vector> 
66
(
(0.0103244 0.000839755 0.00736244)
(0.0101402 -0.000648243 0.00605488)
(0.00877378 -0.000968081 0.00568267)
(0.00839505 0.00106252 0.00563446)
(0.0185073 -1.5925e-06 0.00681573)
(0.018189 0.00088844 0.00650843)
(0.0169496 9.97019e-05 0.00599949)
(0.0165021 -0.00116691 0.00691279)
(0.0278389 -0.000751485 0.00579512)
(0.0282807 0.000591629 0.00553785)
(0.0274707 0.000526803 0.00461934)
(0.0269043 1.63525e-06 0.00492732)
(0.0377959 -0.00107315 0.00527589)
(0.0353725 -0.000274592 0.00462474)
(0.0355552 -3.25107e-05 0.00431297)
(0.0470646 -0.00121742 0.004501)
(0.0439082 0.000161611 0.00403974)
(0.0428787 0.00021599 0.00372172)
(0.0616838 -0.000187514 0.00319212)
(0.0493475 -9.35476e-05 0.00367463)
(0.0460647 -0.000203673 0.0031836)
(0.0667741 0.00027352 0.00545327)
(0.0601837 -0.000985888 0.00370767)
(0.0507603 -0.000401675 0.00265326)
(0.0706284 0.000194648 0.00519936)
(0.0633843 -0.00127576 0.0034605)
(0.0575238 -0.000229541 0.00275568)
(0.069438 0.0021952 0.00370592)
(0.0676599 -0.00184788 0.00347048)
(0.0597338 -0.000283054 0.00264192)
(0.0103244 0.000839755 0.00736244)
(0.00885483 -0.000322787 0.00943854)
(0.00811438 -0.000954773 0.00711259)
(0.0077357 -0.00132635 0.00476789)
(0.0185073 -1.5925e-06 0.00681573)
(0.0160053 -0.000432729 0.00944284)
(0.014755 -0.000844124 0.00736613)
(0.0136661 -0.000896038 0.00536161)
(0.0278389 -0.000751485 0.00579512)
(0.0251857 -0.000651058 0.00772234)
(0.0229568 -0.00104808 0.00603523)
(0.0216654 -0.0010204 0.00400805)
(0.0377959 -0.00107315 0.00527589)
(0.035737 -0.000727016 0.00693833)
(0.0330857 -0.000726318 0.0062099)
(0.0319712 -0.000689553 0.00499137)
(0.0470646 -0.00121742 0.004501)
(0.04359 4.79017e-05 0.00700231)
(0.038293 -0.000910231 0.00605603)
(0.0389167 -0.000547186 0.00412935)
(0.0616838 -0.000187514 0.00319212)
(0.0491656 0.000773895 0.00627106)
(0.0485913 -0.000687496 0.00626754)
(0.0474381 -0.000211257 0.00307809)
(0.0667741 0.00027352 0.00545327)
(0.0510735 -1.51095e-05 0.00680945)
(0.0518798 3.87985e-05 0.00632302)
(0.0547269 0.000675798 0.00454589)
(0.0706284 0.000194648 0.00519936)
(0.0569832 0.000188495 0.00613763)
(0.0600574 0.000812185 0.00487454)
(0.0600532 0.00221172 0.00168832)
(0.069438 0.0021952 0.00370592)
(0.0557031 0.00117731 0.00483575)
(0.0628665 0.00128884 0.00560364)
(0.058649 0.00021182 -0.00224649)
)
;
    }
    procBoundary0to1
    {
        type            processor;
        value           nonuniform List<vector> 
12
(
(0.0504412 0.000764268 0.00277241)
(0.0488322 0.000128696 0.00245846)
(0.0466218 4.38182e-05 0.00224633)
(0.0486483 0.000633327 0.0023677)
(0.0465992 0.000294428 0.00234375)
(0.0444069 0.000192426 0.00221123)
(0.0476713 0.000910759 0.0015639)
(0.0440807 0.000426106 0.0017246)
(0.0413814 0.000258204 0.00170377)
(0.0451626 0.0010366 0.000538625)
(0.0411646 0.000544036 0.000949801)
(0.0384361 0.000285524 0.00100825)
)
;
    }
    procBoundary0to2
    {
        type            processor;
        value           nonuniform List<vector> 
44
(
(0.0310924 0.000143183 0.00460768)
(0.0363053 0.000232987 0.0041077)
(0.0405701 0.000261731 0.00360555)
(0.0440508 0.00018485 0.00321746)
(0.0460091 0.000103301 0.00285151)
(0.0465885 0.000104952 0.0025292)
(0.0177592 0.000380396 0.00573925)
(0.0208628 0.000221854 0.0055634)
(0.0310924 0.000143183 0.00460768)
(0.0259332 0.000205716 0.00513909)
(0.0310924 0.000143183 0.00460768)
(0.0363053 0.000232987 0.0041077)
(0.0386207 0.000198851 0.00356002)
(0.0418339 0.000165745 0.00308863)
(0.043762 0.000108699 0.00271216)
(0.0442692 0.000103716 0.00236927)
(0.0170196 0.00036664 0.00580123)
(0.0199024 0.000262296 0.00560411)
(0.0246489 0.000218099 0.00515108)
(0.0298338 0.000194385 0.00458725)
(0.0386207 0.000198851 0.00356002)
(0.0348105 0.000195569 0.00402905)
(0.0386207 0.000198851 0.00356002)
(0.0418339 0.000165745 0.00308863)
(0.0410597 9.1267e-05 0.00226727)
(0.0414608 7.52878e-05 0.00187783)
(0.0161354 0.000355591 0.00513611)
(0.0186804 0.000301221 0.0049319)
(0.0230264 0.00024624 0.00456357)
(0.0278639 0.000191366 0.00408367)
(0.0326162 0.000166418 0.00359091)
(0.0367225 0.000181504 0.00314674)
(0.0410597 9.1267e-05 0.00226727)
(0.039842 0.000198916 0.00273187)
(0.0410597 9.1267e-05 0.00226727)
(0.0414608 7.52878e-05 0.00187783)
(0.0152964 0.000323179 0.00408555)
(0.0175362 0.000270685 0.00389118)
(0.0215335 0.000245123 0.00360753)
(0.0260833 0.000190526 0.0032385)
(0.0306289 0.000149782 0.00285234)
(0.0346168 9.50645e-05 0.00249977)
(0.0377142 0.000136506 0.00215933)
(0.0395077 0.000118109 0.00180312)
)
;
    }
    procBoundary0to4
    {
        type            processor;
        value           nonuniform List<vector> 
36
(
(0.0151704 -0.000365036 0.00312017)
(0.0176207 -0.00029894 0.00303327)
(0.0217617 -0.000219653 0.00285917)
(0.0267434 -0.000113108 0.0026684)
(0.0318001 -2.58862e-06 0.00236347)
(0.0365886 0.000158335 0.00197554)
(0.0403997 0.000349482 0.00160656)
(0.0429359 0.000701972 0.00117561)
(0.0424818 0.00108333 0.000382185)
(0.0148637 -0.000290037 0.00308939)
(0.0170439 -0.000168806 0.00296813)
(0.0209894 -9.12212e-05 0.00278355)
(0.0256332 -1.58072e-05 0.00255318)
(0.0304307 3.47369e-05 0.00228033)
(0.0347134 0.00010097 0.00195987)
(0.0381033 0.000155128 0.00157929)
(0.0400063 0.000217599 0.00119025)
(0.0399843 0.000423099 0.000745232)
(0.014667 -8.75488e-05 0.00314602)
(0.0167262 -1.38417e-05 0.00298793)
(0.0204942 3.64331e-05 0.00276824)
(0.0248776 6.18033e-05 0.00247629)
(0.0293836 7.52545e-05 0.00218795)
(0.0333323 8.9051e-05 0.0019007)
(0.0364045 7.1915e-05 0.00155135)
(0.0380879 7.81571e-05 0.00120477)
(0.0381874 0.00018106 0.000850474)
(0.014636 8.78482e-05 0.00316608)
(0.0166598 0.000130461 0.00298284)
(0.0203558 0.000158563 0.00273324)
(0.0246596 0.000145819 0.00243092)
(0.0290624 0.000128982 0.00213877)
(0.0329222 0.000103805 0.00188862)
(0.0358679 8.78989e-05 0.00157195)
(0.0375048 6.52104e-05 0.00124274)
(0.0375466 2.53621e-05 0.000900168)
)
;
    }
    procBoundary0to6
    {
        type            processor;
        value           uniform (0.0395453 2.06666e-05 0.00139639);
    }
    procBoundary0to7
    {
        type            processor;
        value           uniform (0.0374319 1.84154e-05 0.000919831);
    }
}


// ************************************************************************* //
