/*--------------------------------*- C++ -*----------------------------------*\
| =========                 |                                                 |
| \\      /  F ield         | OpenFOAM: The Open Source CFD Toolbox           |
|  \\    /   O peration     | Version:  4.x                                   |
|   \\  /    A nd           | Web:      www.OpenFOAM.org                      |
|    \\/     M anipulation  |                                                 |
\*---------------------------------------------------------------------------*/
FoamFile
{
    version     2.0;
    format      ascii;
    class       volScalarField;
    location    "2";
    object      nu;
}
// * * * * * * * * * * * * * * * * * * * * * * * * * * * * * * * * * * * * * //

dimensions      [0 2 -1 0 0 0 0];

internalField   nonuniform List<scalar> 
132
(
1.00078e-06
1.00165e-06
1.00219e-06
1.0023e-06
1.00212e-06
1.00191e-06
1.00171e-06
1.00144e-06
1.00108e-06
1.00068e-06
1.00157e-06
1.00216e-06
1.00225e-06
1.00193e-06
1.00157e-06
1.00119e-06
1.00065e-06
1.00012e-06
1.00067e-06
1.0017e-06
1.00213e-06
1.00202e-06
1.00153e-06
1.00117e-06
1.00083e-06
1.00032e-06
9.99794e-07
1.00062e-06
1.00162e-06
1.002e-06
1.00039e-06
1.00092e-06
1.00131e-06
1.00142e-06
1.00133e-06
1.00118e-06
1.00103e-06
1.00082e-06
1.00056e-06
1.00036e-06
1.00088e-06
1.00117e-06
1.00114e-06
1.00093e-06
1.00068e-06
1.00038e-06
1.00003e-06
9.99681e-07
1.00036e-06
1.00095e-06
1.00118e-06
1.00103e-06
1.00074e-06
1.00043e-06
1.00011e-06
9.99806e-07
9.99498e-07
1.00035e-06
1.00095e-06
1.00118e-06
1.00103e-06
1.0009e-06
1.00022e-06
1.00054e-06
1.0008e-06
1.00089e-06
1.00087e-06
1.00079e-06
1.00069e-06
1.00054e-06
1.00038e-06
1.00022e-06
1.00054e-06
1.00071e-06
1.0007e-06
1.00057e-06
1.00039e-06
1.00017e-06
9.99924e-07
9.99671e-07
1.00021e-06
1.00055e-06
1.00072e-06
1.00064e-06
1.0005e-06
1.0003e-06
1.00002e-06
9.99758e-07
9.99514e-07
1.0002e-06
1.00056e-06
1.00074e-06
1.00065e-06
1.00047e-06
1.0003e-06
1.00013e-06
1.00012e-06
1.0003e-06
1.00046e-06
1.00053e-06
1.00053e-06
1.0005e-06
1.00044e-06
1.00037e-06
1.00027e-06
1.00012e-06
1.00031e-06
1.00043e-06
1.00042e-06
1.00034e-06
1.00021e-06
1.00005e-06
9.99865e-07
9.99691e-07
1.00013e-06
1.00034e-06
1.00047e-06
1.00039e-06
1.00031e-06
1.00018e-06
9.99976e-07
9.99761e-07
9.99599e-07
1.00014e-06
1.00038e-06
1.0005e-06
1.00045e-06
1.00033e-06
1.00028e-06
1.00009e-06
9.99914e-07
9.99756e-07
)
;

boundaryField
{
    inlet
    {
        type            calculated;
        value           uniform 1e-06;
    }
    outlet
    {
        type            calculated;
        value           nonuniform 0();
    }
    wall
    {
        type            calculated;
        value           nonuniform List<scalar> 
66
(
1.00078e-06
1.00068e-06
1.00067e-06
1.00062e-06
1.00165e-06
1.00157e-06
1.0017e-06
1.00162e-06
1.00219e-06
1.00216e-06
1.00213e-06
1.002e-06
1.0023e-06
1.00225e-06
1.00202e-06
1.00212e-06
1.00193e-06
1.00153e-06
1.00191e-06
1.00157e-06
1.00117e-06
1.00171e-06
1.00119e-06
1.00083e-06
1.00144e-06
1.00065e-06
1.00032e-06
1.00108e-06
1.00012e-06
9.99794e-07
1.00078e-06
1.00039e-06
1.00022e-06
1.00012e-06
1.00165e-06
1.00092e-06
1.00054e-06
1.0003e-06
1.00219e-06
1.00131e-06
1.0008e-06
1.00046e-06
1.0023e-06
1.00142e-06
1.00089e-06
1.00053e-06
1.00212e-06
1.00133e-06
1.00087e-06
1.00053e-06
1.00191e-06
1.00118e-06
1.00079e-06
1.0005e-06
1.00171e-06
1.00103e-06
1.00069e-06
1.00044e-06
1.00144e-06
1.00082e-06
1.00054e-06
1.00037e-06
1.00108e-06
1.00056e-06
1.00038e-06
1.00027e-06
)
;
    }
    procBoundary0to1
    {
        type            processor;
        value           nonuniform List<scalar> 
12
(
1.00074e-06
9.99693e-07
9.99405e-07
1.00028e-06
9.99377e-07
9.99277e-07
1.00018e-06
9.99443e-07
9.99311e-07
1.00016e-06
9.9953e-07
9.99452e-07
)
;
    }
    procBoundary0to2
    {
        type            processor;
        value           nonuniform List<scalar> 
44
(
1.0019e-06
1.00157e-06
1.00109e-06
1.00071e-06
1.00026e-06
9.99864e-07
1.00068e-06
1.00165e-06
1.0019e-06
1.00226e-06
1.0019e-06
1.00157e-06
1.00057e-06
1.00029e-06
1.00005e-06
9.99806e-07
1.00035e-06
1.00093e-06
1.00124e-06
1.00106e-06
1.00057e-06
1.0008e-06
1.00057e-06
1.00029e-06
9.99947e-07
9.99828e-07
1.00019e-06
1.00051e-06
1.00072e-06
1.00064e-06
1.00046e-06
1.00027e-06
9.99947e-07
1.00008e-06
9.99947e-07
9.99828e-07
1.00011e-06
1.00025e-06
1.00038e-06
1.00037e-06
1.00028e-06
1.00022e-06
9.99993e-07
9.99804e-07
)
;
    }
    procBoundary0to4
    {
        type            processor;
        value           nonuniform List<scalar> 
36
(
1.00008e-06
1.0002e-06
1.00031e-06
1.00036e-06
1.00037e-06
1.00035e-06
1.00031e-06
1.00026e-06
1.0002e-06
1.0001e-06
1.00022e-06
1.00031e-06
1.00031e-06
1.00026e-06
1.00015e-06
1.00001e-06
9.99885e-07
9.99728e-07
1.0001e-06
1.00025e-06
1.00034e-06
1.00033e-06
1.00025e-06
1.00013e-06
9.9997e-07
9.99815e-07
9.99662e-07
1.0001e-06
1.00025e-06
1.00034e-06
1.00034e-06
1.00028e-06
1.00015e-06
1.00002e-06
9.99864e-07
9.99743e-07
)
;
    }
    procBoundary0to6
    {
        type            processor;
        value           uniform 9.99735e-07;
    }
    procBoundary0to7
    {
        type            processor;
        value           uniform 9.99677e-07;
    }
}


// ************************************************************************* //
