/*--------------------------------*- C++ -*----------------------------------*\
| =========                 |                                                 |
| \\      /  F ield         | OpenFOAM: The Open Source CFD Toolbox           |
|  \\    /   O peration     | Version:  4.x                                   |
|   \\  /    A nd           | Web:      www.OpenFOAM.org                      |
|    \\/     M anipulation  |                                                 |
\*---------------------------------------------------------------------------*/
FoamFile
{
    version     2.0;
    format      ascii;
    class       volScalarField;
    location    "2";
    object      thCond;
}
// * * * * * * * * * * * * * * * * * * * * * * * * * * * * * * * * * * * * * //

dimensions      [1 1 -3 -1 0 0 0];

internalField   nonuniform List<scalar> 
132
(
193.853
193.697
193.585
193.48
193.253
193.051
192.972
193.191
193.415
193.588
193.374
193.239
193.079
193.104
192.783
192.871
192.859
192.898
193.648
193.175
193.059
192.895
192.858
192.783
192.84
192.728
192.441
193.453
193.138
193.074
193.216
192.698
192.349
192.309
192.16
192.086
192.104
192.13
192.22
192.873
192.414
192.335
192.148
192.013
191.911
191.908
191.824
191.909
192.621
192.247
192.182
192.057
191.863
191.754
191.698
191.734
191.797
192.32
192.285
192.159
192.036
191.52
192.461
192.09
191.789
191.703
191.611
191.626
191.444
191.453
191.62
192.184
191.882
191.724
191.603
191.434
191.355
191.176
191.077
191.278
191.902
191.793
191.547
191.244
191.096
191.043
191.017
191.137
191.225
191.772
191.621
191.369
191.127
190.945
190.898
190.843
192.257
191.911
191.57
191.461
191.255
191.059
191.201
191.263
191.089
191.925
191.478
191.252
191.142
191.079
190.974
190.743
190.852
190.832
191.869
191.553
191.103
190.966
190.766
190.617
190.636
190.774
190.582
191.707
191.378
190.904
190.647
190.816
190.414
190.481
190.722
190.841
)
;

boundaryField
{
    inlet
    {
        type            zeroGradient;
    }
    outlet
    {
        type            zeroGradient;
    }
    wall
    {
        type            zeroGradient;
    }
    procBoundary0to1
    {
        type            processor;
        value           nonuniform List<scalar> 
12
(
193.062
192.878
192.589
192.044
191.779
191.479
191.268
190.987
190.786
190.786
190.512
190.41
)
;
    }
    procBoundary0to2
    {
        type            processor;
        value           nonuniform List<scalar> 
44
(
192.667
192.567
192.765
192.562
192.81
192.685
193.028
192.792
192.667
192.845
192.667
192.567
191.461
191.317
191.655
191.405
192.453
192.181
191.959
191.835
191.461
191.683
191.461
191.317
190.929
190.868
191.826
191.792
191.532
191.326
191.191
190.992
190.929
190.788
190.929
190.868
191.563
191.143
190.881
190.816
190.748
190.648
190.54
190.501
)
;
    }
    procBoundary0to4
    {
        type            processor;
        value           nonuniform List<scalar> 
36
(
191.876
191.432
191.115
191.084
190.964
190.899
190.684
190.569
190.222
191.457
191.257
190.945
190.663
190.595
190.597
190.568
190.494
190.13
191.384
190.997
190.826
190.497
190.473
190.496
190.383
190.133
190.279
191.429
191.102
190.74
190.611
190.368
190.345
190.031
190.279
190.288
)
;
    }
    procBoundary0to6
    {
        type            processor;
        value           uniform 190.521;
    }
    procBoundary0to7
    {
        type            processor;
        value           uniform 190.04;
    }
}


// ************************************************************************* //
