/*--------------------------------*- C++ -*----------------------------------*\
| =========                 |                                                 |
| \\      /  F ield         | OpenFOAM: The Open Source CFD Toolbox           |
|  \\    /   O peration     | Version:  4.x                                   |
|   \\  /    A nd           | Web:      www.OpenFOAM.org                      |
|    \\/     M anipulation  |                                                 |
\*---------------------------------------------------------------------------*/
FoamFile
{
    version     2.0;
    format      ascii;
    class       volVectorField;
    location    "2";
    object      Us;
}
// * * * * * * * * * * * * * * * * * * * * * * * * * * * * * * * * * * * * * //

dimensions      [0 1 -1 0 0 0 0];

internalField   nonuniform List<vector> 
132
(
(1.18289e-05 1.27288e-05 1.72355e-06)
(2.13674e-05 1.40525e-05 9.71883e-06)
(4.05911e-05 4.04258e-06 6.54966e-06)
(5.1752e-05 1.47039e-05 2.47626e-05)
(5.6787e-05 1.10779e-05 1.51129e-05)
(5.58669e-05 9.78019e-06 2.9938e-06)
(4.65312e-05 4.50163e-07 -1.51453e-05)
(5.14155e-05 -4.82276e-06 -3.25669e-05)
(6.96098e-05 -3.0282e-05 -3.76853e-05)
(2.44681e-05 2.8237e-05 7.60738e-06)
(6.80822e-05 1.46924e-05 2.11146e-05)
(9.04849e-05 2.78678e-05 3.71024e-05)
(0.000101204 2.38924e-05 4.68277e-05)
(0.000111169 2.4822e-05 3.82847e-05)
(0.000108091 2.43363e-05 7.82745e-06)
(0.000127497 6.36909e-06 -4.9192e-05)
(0.000133931 -2.32679e-05 -7.5782e-05)
(0.000151473 -4.58502e-05 -0.000100835)
(7.3955e-05 1.56275e-05 2.20956e-05)
(8.88954e-05 1.28038e-05 3.6459e-05)
(0.000104946 1.19512e-05 5.26447e-05)
(0.000118343 2.6262e-05 4.97438e-05)
(0.000130606 2.4883e-05 4.24855e-05)
(0.000136717 3.06553e-05 -3.10427e-07)
(0.000155248 1.18607e-05 -5.24447e-05)
(0.000173662 -2.24674e-06 -9.19467e-05)
(0.000186855 -2.91284e-05 -0.000116113)
(2.55058e-05 2.94228e-06 7.99342e-06)
(8.96154e-05 9.74776e-06 4.17897e-05)
(0.000101855 4.63006e-06 5.12916e-05)
(9.52112e-06 5.96324e-06 1.76299e-07)
(2.30938e-05 1.11814e-05 5.67133e-06)
(2.85736e-05 1.27883e-05 8.87053e-06)
(5.55452e-05 9.56317e-06 2.27805e-05)
(6.86586e-05 6.4108e-06 1.60442e-05)
(7.01457e-05 2.73183e-05 4.51495e-06)
(7.35544e-05 4.34982e-09 -1.44882e-05)
(7.91829e-05 -3.99616e-06 -3.385e-05)
(6.45031e-05 5.14539e-06 -4.2752e-05)
(2.4719e-05 1.20404e-05 5.19122e-06)
(5.08548e-05 1.14908e-05 2.09721e-05)
(7.44352e-05 1.68138e-05 3.46861e-05)
(9.44442e-05 1.07788e-05 4.61572e-05)
(0.000119857 1.95088e-05 2.80487e-05)
(0.000132209 2.38909e-05 1.61101e-07)
(0.000137621 1.58714e-05 -4.0138e-05)
(0.000146901 -3.94069e-06 -6.86332e-05)
(0.00015635 -2.49459e-05 -9.22843e-05)
(3.53139e-05 8.47754e-06 6.93094e-06)
(7.37506e-05 9.53293e-06 3.41148e-05)
(0.00010095 9.52325e-06 4.65065e-05)
(0.000124349 1.53156e-05 4.66609e-05)
(0.000150393 1.86628e-05 2.69565e-05)
(0.000170614 3.39511e-05 2.22098e-06)
(0.000175921 1.97831e-05 -5.42381e-05)
(0.000186575 7.00582e-07 -8.67026e-05)
(0.000188438 -2.98515e-05 -0.00011319)
(3.10851e-05 3.7125e-06 1.43952e-05)
(6.91498e-05 3.63595e-06 4.34878e-05)
(9.42042e-05 1.14807e-05 4.44117e-05)
(0.000125715 1.24797e-05 4.09813e-05)
(0.000141177 2.5257e-05 1.62904e-05)
(6.43106e-06 3.44623e-06 -9.35728e-07)
(1.63693e-05 3.46291e-06 -2.49065e-06)
(2.28298e-05 5.80986e-06 9.44791e-06)
(4.66811e-05 3.7957e-06 1.99643e-05)
(6.72037e-05 -1.72318e-06 1.11253e-05)
(9.5214e-05 1.1445e-05 -6.74765e-06)
(9.35767e-05 1.2694e-05 -1.76655e-05)
(7.56336e-05 -1.64927e-06 -2.89256e-05)
(7.07286e-05 8.40433e-06 -4.33552e-05)
(1.18517e-05 9.08739e-06 4.344e-06)
(3.58648e-05 1.11972e-05 1.07984e-05)
(6.96831e-05 8.86405e-06 2.46748e-05)
(0.000101149 1.35157e-05 3.94946e-05)
(0.000119831 1.06206e-05 1.04512e-05)
(0.00013618 1.99375e-05 -1.21041e-05)
(0.00014617 2.52334e-05 -3.53598e-05)
(0.00014891 6.71773e-06 -5.74472e-05)
(0.000147617 -5.28117e-06 -6.6764e-05)
(1.57269e-05 4.31789e-06 6.02424e-06)
(4.77005e-05 7.49441e-06 2.38156e-05)
(9.72666e-05 1.2551e-05 3.52375e-05)
(0.000126729 1.59534e-05 3.50087e-05)
(0.000159766 2.20727e-05 1.3901e-05)
(0.000171027 2.83777e-05 -1.65893e-05)
(0.000168427 2.4835e-05 -4.3698e-05)
(0.000181397 9.11901e-06 -7.58098e-05)
(0.000181695 -1.17847e-05 -8.55321e-05)
(1.14144e-05 -5.0113e-07 1.29125e-05)
(5.91307e-05 -1.31577e-05 3.39549e-05)
(9.37711e-05 4.38686e-06 3.53497e-05)
(0.000123246 5.35562e-06 3.66348e-05)
(0.000157806 1.93268e-05 1.15577e-05)
(0.000177106 3.20459e-05 -1.33272e-05)
(0.000179591 2.87297e-05 -5.39788e-05)
(4.42243e-06 3.41831e-06 -3.54308e-07)
(9.95641e-06 1.69664e-06 -1.6538e-07)
(1.95656e-05 -4.16616e-07 6.47234e-06)
(4.43297e-05 4.05669e-06 1.48998e-05)
(5.25782e-05 2.18965e-06 2.39046e-06)
(7.90496e-05 1.26582e-05 -1.35805e-05)
(8.14284e-05 1.1363e-05 -2.37218e-05)
(8.08757e-05 6.51383e-06 -3.36193e-05)
(7.63089e-05 5.9097e-06 -4.0612e-05)
(6.71974e-06 3.07255e-06 1.00385e-06)
(2.56321e-05 2.6249e-06 2.86885e-06)
(5.01773e-05 9.34252e-08 1.15092e-05)
(0.000106335 1.27668e-05 1.71303e-05)
(0.000121666 1.01101e-05 3.50921e-06)
(0.000121791 1.75921e-05 -1.52875e-05)
(0.000129737 2.20911e-05 -3.56434e-05)
(0.000121337 1.45253e-05 -4.68504e-05)
(0.000132897 5.00649e-06 -5.12803e-05)
(1.9549e-05 1.65758e-06 9.10386e-06)
(3.21306e-05 -9.11007e-07 1.24505e-05)
(7.39744e-05 2.69393e-06 2.0591e-05)
(9.81801e-05 6.06639e-06 7.27281e-06)
(0.000141325 2.67765e-05 2.23917e-06)
(0.000150248 2.38332e-05 -1.70388e-05)
(0.000168991 2.82402e-05 -4.80097e-05)
(0.000175082 1.61809e-05 -6.36754e-05)
(0.000160905 8.38026e-06 -6.87127e-05)
(9.71353e-06 -3.83995e-07 9.37474e-06)
(3.92284e-05 -9.0236e-06 1.50918e-05)
(7.06794e-05 -1.11767e-07 1.59435e-05)
(0.000103652 1.26749e-05 1.81868e-05)
(0.000148118 2.93649e-05 7.81892e-06)
(0.000171208 2.24884e-05 -1.96336e-05)
(0.000181888 2.72017e-05 -5.22483e-05)
(0.000184184 2.10166e-05 -7.04256e-05)
(0.00019474 -2.92077e-06 -9.68496e-05)
)
;

boundaryField
{
    inlet
    {
        type            zeroGradient;
    }
    outlet
    {
        type            zeroGradient;
    }
    wall
    {
        type            zeroGradient;
    }
    procBoundary0to1
    {
        type            processor;
        value           nonuniform List<vector> 
12
(
(6.22991e-05 -6.12843e-05 -6.43555e-05)
(0.000158986 -8.69273e-05 -0.000119007)
(0.000225499 -6.52045e-05 -0.00016798)
(8.21336e-05 -3.99386e-05 -5.61529e-05)
(0.000145167 -5.18486e-05 -0.000100606)
(0.000209643 -4.08959e-05 -0.000152473)
(6.28904e-05 -9.26844e-06 -3.60496e-05)
(0.000146112 -2.06114e-05 -8.80983e-05)
(0.000184591 -2.60346e-05 -0.000113959)
(6.08668e-05 1.93931e-06 -3.20022e-05)
(0.000121641 -7.8737e-06 -5.75057e-05)
(0.000160979 -5.62929e-06 -8.10014e-05)
)
;
    }
    procBoundary0to2
    {
        type            processor;
        value           nonuniform List<vector> 
44
(
(0.000104325 1.68874e-05 5.04663e-05)
(0.000132978 2.4353e-05 3.2164e-05)
(0.000167124 3.92529e-05 -2.27196e-05)
(0.000182107 3.12934e-05 -5.72329e-05)
(0.000200265 1.031e-05 -0.000100867)
(0.000217022 1.40049e-05 -0.000116114)
(2.51417e-05 3.37064e-06 1.81581e-05)
(7.03785e-05 -6.50431e-06 4.46832e-05)
(0.000104325 1.68874e-05 5.04663e-05)
(8.52147e-05 1.53176e-06 5.44089e-05)
(0.000104325 1.68874e-05 5.04663e-05)
(0.000132978 2.4353e-05 3.2164e-05)
(0.00016493 4.14863e-05 -2.04254e-05)
(0.000191389 4.16435e-05 -5.85916e-05)
(0.000206907 1.04325e-05 -9.93074e-05)
(0.000214363 -6.12144e-06 -0.000118001)
(1.8641e-05 -6.62361e-06 1.1357e-05)
(5.72803e-05 -6.7257e-06 4.0633e-05)
(7.93203e-05 1.01009e-07 5.05732e-05)
(0.000102409 1.36879e-06 4.28395e-05)
(0.00016493 4.14863e-05 -2.04254e-05)
(0.000114056 1.35824e-05 2.25505e-05)
(0.00016493 4.14863e-05 -2.04254e-05)
(0.000191389 4.16435e-05 -5.85916e-05)
(0.000198007 1.21591e-05 -8.73384e-05)
(0.000211626 -5.17021e-06 -0.000111979)
(1.247e-05 -2.71078e-06 1.1981e-05)
(3.49584e-05 -7.56096e-06 2.78055e-05)
(7.20795e-05 -2.44402e-06 3.57707e-05)
(0.000100593 -4.46356e-08 3.45929e-05)
(0.00012888 9.44101e-06 1.70224e-05)
(0.000159725 2.94493e-05 -2.12155e-05)
(0.000198007 1.21591e-05 -8.73384e-05)
(0.000175038 3.2266e-05 -4.82638e-05)
(0.000198007 1.21591e-05 -8.73384e-05)
(0.000211626 -5.17021e-06 -0.000111979)
(1.01952e-05 -5.45067e-07 5.59582e-06)
(3.50208e-05 -4.35589e-06 1.0495e-05)
(6.38909e-05 -2.4269e-06 2.04489e-05)
(9.29739e-05 4.7799e-06 1.89385e-05)
(0.000123429 9.99678e-06 1.22015e-05)
(0.00015421 1.14293e-05 -1.76419e-05)
(0.000170948 2.469e-05 -3.15792e-05)
(0.000159546 1.00983e-05 -5.56243e-05)
)
;
    }
    procBoundary0to4
    {
        type            processor;
        value           nonuniform List<vector> 
36
(
(4.08989e-06 1.56267e-06 -1.39272e-06)
(1.05376e-05 2.42811e-06 -1.6702e-06)
(2.30908e-05 5.83131e-07 -4.27427e-07)
(3.71895e-05 5.94178e-06 5.78963e-06)
(4.43146e-05 7.52121e-06 -7.13042e-06)
(5.06244e-05 9.08789e-06 -1.63306e-05)
(4.98356e-05 1.21428e-05 -1.94251e-05)
(6.4093e-05 2.24126e-06 -1.84956e-05)
(5.34406e-05 -1.28384e-05 -2.6837e-05)
(7.25462e-06 3.01364e-06 9.95921e-07)
(2.5012e-05 1.85622e-06 -1.26732e-06)
(4.31917e-05 4.33681e-07 3.08848e-06)
(6.21994e-05 2.49588e-06 8.92428e-06)
(8.42222e-05 1.74188e-05 -2.24373e-06)
(9.62459e-05 2.93171e-05 -5.4678e-06)
(9.35853e-05 2.84098e-05 -2.90416e-05)
(9.8702e-05 1.33163e-05 -3.23775e-05)
(0.000143709 -1.35439e-05 -5.87184e-05)
(9.05499e-06 1.35511e-06 3.97045e-06)
(3.09248e-05 2.78632e-06 4.99554e-06)
(5.64377e-05 -1.98475e-06 6.2009e-06)
(7.92231e-05 -1.65144e-07 -2.14667e-06)
(0.000101413 1.92664e-05 -1.46322e-06)
(0.000137971 2.98575e-05 -9.11722e-06)
(0.00014772 2.74574e-05 -4.04844e-05)
(0.000142803 2.02175e-05 -3.97032e-05)
(0.000119684 1.91651e-05 -2.96149e-05)
(8.49763e-06 1.17946e-06 5.17189e-06)
(2.55882e-05 1.28183e-06 6.44856e-06)
(4.89617e-05 -5.37483e-06 6.35015e-06)
(7.1242e-05 2.96564e-07 -1.08142e-06)
(0.00011851 1.83759e-05 1.21032e-06)
(0.000164626 2.15299e-05 -1.47787e-05)
(0.000157758 2.27719e-05 -3.70625e-05)
(0.000159971 2.31731e-05 -4.88893e-05)
(0.000146045 3.72973e-06 -5.43205e-05)
)
;
    }
    procBoundary0to6
    {
        type            processor;
        value           uniform (0.000165621 -2.05893e-06 -7.65203e-05);
    }
    procBoundary0to7
    {
        type            processor;
        value           uniform (0.000159369 -7.88304e-06 -9.90693e-05);
    }
}


// ************************************************************************* //
