/*--------------------------------*- C++ -*----------------------------------*\
| =========                 |                                                 |
| \\      /  F ield         | OpenFOAM: The Open Source CFD Toolbox           |
|  \\    /   O peration     | Version:  4.x                                   |
|   \\  /    A nd           | Web:      www.OpenFOAM.org                      |
|    \\/     M anipulation  |                                                 |
\*---------------------------------------------------------------------------*/
FoamFile
{
    version     2.0;
    format      ascii;
    class       volVectorField;
    location    "2";
    object      UsPrev;
}
// * * * * * * * * * * * * * * * * * * * * * * * * * * * * * * * * * * * * * //

dimensions      [0 1 -1 0 0 0 0];

internalField   nonuniform List<vector> 
132
(
(1.16546e-05 1.24678e-05 1.75428e-06)
(2.11166e-05 1.41491e-05 1.00776e-05)
(3.98523e-05 3.74147e-06 6.743e-06)
(5.04499e-05 1.41831e-05 2.37691e-05)
(5.53393e-05 9.05998e-06 1.31629e-05)
(5.46139e-05 8.12482e-06 -8.87931e-07)
(4.58831e-05 -2.19143e-06 -2.11492e-05)
(5.26485e-05 -6.24987e-06 -3.77159e-05)
(7.21431e-05 -3.32823e-05 -4.29799e-05)
(2.42783e-05 2.77107e-05 7.67651e-06)
(6.70038e-05 1.46711e-05 2.18295e-05)
(8.85316e-05 2.85126e-05 3.75189e-05)
(9.86968e-05 2.36953e-05 4.55735e-05)
(0.000109183 2.42701e-05 3.43484e-05)
(0.000105524 2.28863e-05 6.29066e-07)
(0.000127481 4.10848e-06 -6.08027e-05)
(0.000136745 -2.73677e-05 -8.76167e-05)
(0.000156946 -4.9349e-05 -0.000111693)
(7.31834e-05 1.56937e-05 2.22525e-05)
(8.77598e-05 1.27831e-05 3.74017e-05)
(0.00010286 1.18181e-05 5.31094e-05)
(0.000115222 2.57442e-05 4.82066e-05)
(0.00012773 2.47749e-05 3.70725e-05)
(0.000131996 3.13265e-05 -1.06181e-05)
(0.000155314 1.11466e-05 -6.63774e-05)
(0.000175629 -2.85765e-06 -0.000108211)
(0.000193324 -3.15203e-05 -0.000130621)
(2.55282e-05 2.90777e-06 8.50666e-06)
(8.86407e-05 9.89013e-06 4.30367e-05)
(9.8902e-05 4.91859e-06 5.26537e-05)
(9.29768e-06 5.90463e-06 2.74794e-07)
(2.24821e-05 1.11377e-05 6.20343e-06)
(2.82848e-05 1.27794e-05 8.97938e-06)
(5.48435e-05 9.55297e-06 2.1789e-05)
(6.82535e-05 6.3061e-06 1.39983e-05)
(7.02949e-05 2.75376e-05 1.07465e-07)
(7.41632e-05 2.02766e-07 -2.04943e-05)
(8.00153e-05 -4.3587e-06 -3.96343e-05)
(6.6308e-05 4.96723e-06 -4.70461e-05)
(2.46412e-05 1.18739e-05 5.44354e-06)
(5.02917e-05 1.1321e-05 2.17983e-05)
(7.36183e-05 1.67217e-05 3.52587e-05)
(9.38979e-05 1.08488e-05 4.48043e-05)
(0.000119243 1.9411e-05 2.37595e-05)
(0.000132203 2.43909e-05 -7.24014e-06)
(0.000138776 1.64184e-05 -5.04688e-05)
(0.000149141 -3.94106e-06 -7.98204e-05)
(0.000160262 -2.59882e-05 -0.000102756)
(3.52111e-05 8.33373e-06 7.49692e-06)
(7.30334e-05 9.40915e-06 3.52274e-05)
(0.000100086 9.33333e-06 4.70735e-05)
(0.000123262 1.51271e-05 4.53413e-05)
(0.000149962 1.90811e-05 2.18799e-05)
(0.000170386 3.5409e-05 -7.41865e-06)
(0.000177235 2.07762e-05 -6.82902e-05)
(0.000189252 1.37299e-06 -0.00010231)
(0.000192738 -3.07065e-05 -0.000126778)
(3.09038e-05 3.63328e-06 1.50918e-05)
(6.84274e-05 3.542e-06 4.47478e-05)
(9.33307e-05 1.12618e-05 4.50307e-05)
(0.000124387 1.26124e-05 3.92922e-05)
(0.000139855 2.6118e-05 1.00957e-05)
(6.34004e-06 3.41953e-06 -6.3015e-07)
(1.60501e-05 3.58964e-06 -1.80434e-06)
(2.2874e-05 5.85547e-06 9.59954e-06)
(4.68504e-05 3.91056e-06 1.89367e-05)
(6.75931e-05 -1.40939e-06 9.46593e-06)
(9.6061e-05 1.14048e-05 -1.10501e-05)
(9.51178e-05 1.30158e-05 -2.31563e-05)
(7.66122e-05 -1.2764e-06 -3.36706e-05)
(7.16467e-05 9.01501e-06 -4.76379e-05)
(1.19521e-05 9.0455e-06 4.97875e-06)
(3.58096e-05 1.10541e-05 1.1739e-05)
(6.9595e-05 8.91547e-06 2.52483e-05)
(0.00010103 1.34897e-05 3.84222e-05)
(0.000121349 1.1297e-05 6.72081e-06)
(0.000137645 2.10487e-05 -1.91309e-05)
(0.000147871 2.61891e-05 -4.42521e-05)
(0.000150671 8.1617e-06 -6.68549e-05)
(0.000149415 -4.4922e-06 -7.5111e-05)
(1.56314e-05 4.28432e-06 6.65133e-06)
(4.75499e-05 7.4933e-06 2.48537e-05)
(9.73448e-05 1.25514e-05 3.594e-05)
(0.000127361 1.59802e-05 3.40438e-05)
(0.000161388 2.27752e-05 9.32374e-06)
(0.000172736 2.96592e-05 -2.55658e-05)
(0.000170055 2.65422e-05 -5.4198e-05)
(0.000183173 1.09442e-05 -8.82157e-05)
(0.00018404 -1.10177e-05 -9.72194e-05)
(1.12778e-05 -5.90196e-07 1.36294e-05)
(5.91325e-05 -1.34387e-05 3.51333e-05)
(9.40254e-05 4.47906e-06 3.57369e-05)
(0.000123801 5.18754e-06 3.55125e-05)
(0.000159417 2.03309e-05 5.75527e-06)
(0.000179411 3.37874e-05 -2.2572e-05)
(0.000181263 3.13176e-05 -6.65848e-05)
(4.42281e-06 3.35114e-06 -1.83568e-07)
(1.01357e-05 1.80257e-06 4.27456e-07)
(1.96597e-05 -4.54728e-07 6.77202e-06)
(4.44907e-05 4.19995e-06 1.3943e-05)
(5.3125e-05 2.61516e-06 1.25559e-06)
(8.01722e-05 1.31552e-05 -1.69345e-05)
(8.27207e-05 1.19295e-05 -2.82349e-05)
(8.14314e-05 7.87349e-06 -3.85355e-05)
(7.65969e-05 7.24666e-06 -4.51981e-05)
(6.83137e-06 3.07265e-06 1.47321e-06)
(2.57693e-05 2.67271e-06 3.84872e-06)
(5.01927e-05 2.15526e-07 1.20699e-05)
(0.000106802 1.31565e-05 1.56426e-05)
(0.000123214 1.06238e-05 3.11672e-07)
(0.00012367 1.85468e-05 -2.09836e-05)
(0.000131 2.38502e-05 -4.24964e-05)
(0.000122081 1.70164e-05 -5.44521e-05)
(0.000133795 6.76423e-06 -5.8609e-05)
(1.96272e-05 1.64262e-06 1.01159e-05)
(3.21608e-05 -8.42919e-07 1.34533e-05)
(7.42501e-05 2.70822e-06 2.11538e-05)
(9.87901e-05 6.06501e-06 5.79476e-06)
(0.000143267 2.7323e-05 -1.769e-06)
(0.000151863 2.49616e-05 -2.44322e-05)
(0.00017067 2.98611e-05 -5.7304e-05)
(0.000176427 1.83298e-05 -7.44122e-05)
(0.000161584 1.03241e-05 -7.82118e-05)
(9.72792e-06 -3.8992e-07 1.01029e-05)
(3.94429e-05 -9.07307e-06 1.59852e-05)
(7.12288e-05 -1.97547e-08 1.63269e-05)
(0.000104774 1.31959e-05 1.63852e-05)
(0.000149896 3.01572e-05 3.10074e-06)
(0.000173269 2.35678e-05 -2.80025e-05)
(0.000183335 2.93169e-05 -6.29019e-05)
(0.000185496 2.34998e-05 -8.14794e-05)
(0.000197448 -1.97748e-06 -0.000108999)
)
;

boundaryField
{
    inlet
    {
        type            calculated;
        value           uniform (0 0 0);
    }
    outlet
    {
        type            calculated;
        value           nonuniform 0();
    }
    wall
    {
        type            calculated;
        value           uniform (0 0 0);
    }
    procBoundary0to1
    {
        type            processor;
        value           uniform (0 0 0);
    }
    procBoundary0to2
    {
        type            processor;
        value           uniform (0 0 0);
    }
    procBoundary0to4
    {
        type            processor;
        value           uniform (0 0 0);
    }
    procBoundary0to6
    {
        type            processor;
        value           uniform (0 0 0);
    }
    procBoundary0to7
    {
        type            processor;
        value           uniform (0 0 0);
    }
}


// ************************************************************************* //
