/*--------------------------------*- C++ -*----------------------------------*\
| =========                 |                                                 |
| \\      /  F ield         | OpenFOAM: The Open Source CFD Toolbox           |
|  \\    /   O peration     | Version:  4.x                                   |
|   \\  /    A nd           | Web:      www.OpenFOAM.org                      |
|    \\/     M anipulation  |                                                 |
\*---------------------------------------------------------------------------*/
FoamFile
{
    version     2.0;
    format      ascii;
    class       volScalarField;
    location    "30.5";
    object      Cs;
}
// * * * * * * * * * * * * * * * * * * * * * * * * * * * * * * * * * * * * * //

dimensions      [1 -3 0 0 0 0 0];

internalField   nonuniform List<scalar> 
87
(
334.998
334.997
334.996
334.995
334.993
334.992
334.991
334.99
336.71
335
334.999
334.999
335
335
334.999
334.998
334.996
334.459
334.999
334.999
334.998
334.998
334.997
334.996
334.992
334.991
334.992
335
335
335
335
335
334.999
334.996
334.993
334.404
334.999
334.998
334.997
334.996
334.992
334.989
334.98
334.978
334.63
334.997
334.995
334.99
334.985
334.975
334.968
334.952
334.954
334.858
335
334.999
334.999
334.999
334.998
334.996
334.991
334.987
334.727
334.998
334.995
334.991
334.986
334.977
334.969
334.955
334.952
334.695
334.993
334.986
334.977
334.969
334.959
334.951
334.941
334.937
334.844
335
335
334.999
334.999
334.998
334.998
)
;

boundaryField
{
    inlet
    {
        type            calculated;
        value           nonuniform 0();
    }
    outlet
    {
        type            calculated;
        value           uniform 335;
    }
    wall
    {
        type            calculated;
        value           nonuniform List<scalar> 
57
(
334.998
335
334.999
334.997
334.999
334.999
334.996
334.999
334.998
334.995
335
334.998
334.993
335
334.997
334.992
334.999
334.996
334.991
334.998
334.992
334.99
334.996
334.991
336.71
334.459
334.992
334.998
335
335
335
334.997
335
334.999
335
334.996
335
334.999
334.999
334.995
335
334.999
334.993
335
334.998
334.992
334.999
334.996
334.991
334.996
334.991
334.99
334.993
334.987
336.71
334.404
334.727
)
;
    }
    procBoundary1to0
    {
        type            processor;
        value           nonuniform List<scalar> 
12
(
334.999
335
335
335
334.999
334.999
335
334.999
334.998
335
335
334.999
)
;
    }
    procBoundary1to3
    {
        type            processor;
        value           nonuniform List<scalar> 
27
(
334.998
334.997
334.996
334.994
334.993
334.993
334.992
334.991
335.24
334.998
334.996
334.991
334.985
334.975
334.968
334.953
334.954
334.746
334.993
334.983
334.97
334.958
334.946
334.936
334.923
334.924
334.852
)
;
    }
    procBoundary1to5
    {
        type            processor;
        value           nonuniform List<scalar> 
32
(
334.999
334.998
334.997
334.994
334.989
334.918
334.996
334.993
334.989
334.982
334.974
334.962
334.889
334.995
334.991
334.984
334.977
334.968
334.961
334.951
334.881
335
335
334.999
334.996
334.999
334.999
334.996
334.995
334.997
334.995
334.998
)
;
    }
    procBoundary1to7
    {
        type            processor;
        value           uniform 334.997;
    }
}


// ************************************************************************* //
