/*--------------------------------*- C++ -*----------------------------------*\
| =========                 |                                                 |
| \\      /  F ield         | OpenFOAM: The Open Source CFD Toolbox           |
|  \\    /   O peration     | Version:  4.x                                   |
|   \\  /    A nd           | Web:      www.OpenFOAM.org                      |
|    \\/     M anipulation  |                                                 |
\*---------------------------------------------------------------------------*/
FoamFile
{
    version     2.0;
    format      ascii;
    class       volScalarField;
    location    "30.5";
    object      particleRelTemp;
}
// * * * * * * * * * * * * * * * * * * * * * * * * * * * * * * * * * * * * * //

dimensions      [0 0 0 0 0 0 0];

internalField   nonuniform List<scalar> 
87
(
-8.23575e-10
-1.00445e-09
-5.57731e-10
-7.17737e-10
-1.10718e-09
-6.42145e-10
-9.8175e-10
-1.0084e-09
-6.66992e-10
3.92794e-10
4.07978e-10
3.56345e-10
5.45503e-10
2.81558e-10
1.17788e-10
-4.44372e-12
-2.41885e-10
-6.83679e-11
1.31128e-09
1.29747e-09
1.3712e-09
1.51715e-09
1.28971e-09
1.01022e-09
8.83039e-10
4.8758e-10
7.83702e-10
1.28661e-10
3.30989e-10
4.44723e-10
4.96446e-10
5.60895e-10
4.37786e-10
2.18153e-10
2.27568e-10
2.47094e-10
7.67124e-10
1.37271e-09
1.64392e-09
1.35296e-09
1.53637e-09
1.65411e-09
1.12873e-09
1.24181e-09
1.55053e-09
2.48112e-09
2.30103e-09
2.49591e-09
2.36802e-09
2.4398e-09
2.29859e-09
2.04086e-09
2.12978e-09
2.23478e-09
1.08126e-09
1.16446e-09
1.72079e-09
1.82039e-09
1.76781e-09
1.71557e-09
1.61518e-09
1.22736e-09
1.32766e-09
2.33864e-09
2.54255e-09
2.77629e-09
2.80819e-09
2.81182e-09
2.59362e-09
2.40921e-09
2.33838e-09
2.48833e-09
3.19278e-09
3.76749e-09
3.7336e-09
4.04713e-09
3.86157e-09
3.59545e-09
3.22423e-09
3.29403e-09
3.09395e-09
1.48712e-09
1.63359e-09
2.01603e-09
2.6025e-09
3.03692e-09
3.75197e-09
)
;

boundaryField
{
    inlet
    {
        type            calculated;
        value           nonuniform 0();
    }
    outlet
    {
        type            calculated;
        value           nonuniform List<scalar> 9(-6.66992e-10 -6.83679e-11 7.83702e-10 2.47094e-10 1.55053e-09 2.23478e-09 1.32766e-09 2.48833e-09 3.09395e-09);
    }
    wall
    {
        type            calculated;
        value           nonuniform List<scalar> 
57
(
-8.23575e-10
3.92794e-10
1.31128e-09
-1.00445e-09
4.07978e-10
1.29747e-09
-5.57731e-10
3.56345e-10
1.3712e-09
-7.17737e-10
5.45503e-10
1.51715e-09
-1.10718e-09
2.81558e-10
1.28971e-09
-6.42145e-10
1.17788e-10
1.01022e-09
-9.8175e-10
-4.44372e-12
8.83039e-10
-1.0084e-09
-2.41885e-10
4.8758e-10
-6.66992e-10
-6.83679e-11
7.83702e-10
-8.23575e-10
1.28661e-10
1.08126e-09
1.48712e-09
-1.00445e-09
3.30989e-10
1.16446e-09
1.63359e-09
-5.57731e-10
4.44723e-10
1.72079e-09
2.01603e-09
-7.17737e-10
4.96446e-10
1.82039e-09
-1.10718e-09
5.60895e-10
1.76781e-09
-6.42145e-10
4.37786e-10
1.71557e-09
-9.8175e-10
2.18153e-10
1.61518e-09
-1.0084e-09
2.27568e-10
1.22736e-09
-6.66992e-10
2.47094e-10
1.32766e-09
)
;
    }
    procBoundary1to0
    {
        type            processor;
        value           nonuniform List<scalar> 
12
(
-1.40905e-09
1.04002e-11
6.00297e-10
-3.29771e-10
9.04739e-10
1.79564e-09
6.72986e-10
1.76022e-09
2.65729e-09
1.06804e-09
2.30413e-09
3.04267e-09
)
;
    }
    procBoundary1to3
    {
        type            processor;
        value           nonuniform List<scalar> 
27
(
1.35853e-09
1.59154e-09
1.74846e-09
1.82034e-09
1.56143e-09
1.48246e-09
1.31495e-09
1.01139e-09
1.42416e-09
2.37982e-09
3.10674e-09
2.88027e-09
2.94971e-09
2.78787e-09
2.47009e-09
2.45348e-09
2.24052e-09
2.19893e-09
3.67579e-09
3.98792e-09
4.26192e-09
4.05262e-09
3.84408e-09
3.75468e-09
3.43104e-09
3.35692e-09
3.27456e-09
)
;
    }
    procBoundary1to5
    {
        type            processor;
        value           nonuniform List<scalar> 
32
(
2.15986e-09
2.07967e-09
1.92049e-09
1.79553e-09
1.66048e-09
1.73277e-09
3.30499e-09
3.18578e-09
3.37867e-09
3.09472e-09
2.97599e-09
2.58687e-09
2.76061e-09
4.12855e-09
4.32517e-09
4.26872e-09
4.14322e-09
3.84924e-09
3.64362e-09
3.40574e-09
3.49677e-09
1.29996e-09
1.31898e-09
2.15986e-09
3.30499e-09
1.86495e-09
2.15879e-09
3.30499e-09
4.12855e-09
2.5081e-09
4.12855e-09
3.27511e-09
)
;
    }
    procBoundary1to7
    {
        type            processor;
        value           uniform 4.05739e-09;
    }
}


// ************************************************************************* //
