/*--------------------------------*- C++ -*----------------------------------*\
| =========                 |                                                 |
| \\      /  F ield         | OpenFOAM: The Open Source CFD Toolbox           |
|  \\    /   O peration     | Version:  4.x                                   |
|   \\  /    A nd           | Web:      www.OpenFOAM.org                      |
|    \\/     M anipulation  |                                                 |
\*---------------------------------------------------------------------------*/
FoamFile
{
    version     2.0;
    format      ascii;
    class       volScalarField;
    location    "30.5";
    object      pSmooth;
}
// * * * * * * * * * * * * * * * * * * * * * * * * * * * * * * * * * * * * * //

dimensions      [1 -1 -2 0 0 0 0];

internalField   nonuniform List<scalar> 
87
(
19.5167
74.7536
0.1
69.074
0.1
65.019
0.1
64.6571
0.1
19.0991
74.6483
0.1
68.8449
0.1
64.6862
0.1
63.6884
0.1
19.3633
74.8222
0.1
68.757
0.1
63.8256
0.1
60.9702
0.1
19.6185
74.9341
0.441182
68.9075
0.1
63.8603
0.1
60.7468
0.1
19.2305
74.9242
0.1
68.8703
0.1
63.7443
0.1
60.5698
0.1
19.5521
75.2695
0.591871
68.8188
0.1
62.8863
0.1
56.9822
0.1
19.6548
74.8586
0.402367
68.7565
0.1
63.7177
0.1
60.9031
0.1
19.3652
74.7867
0.1
68.5317
0.1
63.2011
0.1
59.7776
0.1
20.2538
74.7857
1.7023
68.4042
0.1
62.7406
0.1
58.2958
0.1
20.9082
75.2759
2.46739
20.8566
75.2334
22.8638
)
;

boundaryField
{
    inlet
    {
        type            zeroGradient;
    }
    outlet
    {
        type            fixedValue;
        value           uniform 0;
    }
    wall
    {
        type            zeroGradient;
    }
    procBoundary1to0
    {
        type            processor;
        value           nonuniform List<scalar> 
12
(
81.1162
81.1135
81.409
81.4609
81.5471
82.0246
81.4423
81.6227
81.7684
81.8772
82.0672
82.0305
)
;
    }
    procBoundary1to3
    {
        type            processor;
        value           nonuniform List<scalar> 
27
(
19.0193
74.6396
0.1
68.7279
0.1
64.3036
0.1
61.7903
0.1
18.8549
75.1058
0.1
68.8665
0.1
63.6076
0.1
59.6047
0.1
20.6364
74.8156
2.06227
68.5034
0.1
63.1105
0.1
57.3075
0.1
)
;
    }
    procBoundary1to5
    {
        type            processor;
        value           nonuniform List<scalar> 
32
(
69.0366
0.1
63.0207
0.1
56.5655
0.1
2.1143
68.7382
0.1
62.7355
0.1
57.1389
0.1
75.0596
5.18151
68.4396
0.1
61.7533
0.1
53.9753
0.1
20.1115
74.9175
69.0366
2.1143
1.05697
20.2959
2.1143
75.0596
75.0079
75.0596
21.595
)
;
    }
    procBoundary1to7
    {
        type            processor;
        value           uniform 22.8981;
    }
}


// ************************************************************************* //
