/*--------------------------------*- C++ -*----------------------------------*\
| =========                 |                                                 |
| \\      /  F ield         | OpenFOAM: The Open Source CFD Toolbox           |
|  \\    /   O peration     | Version:  4.x                                   |
|   \\  /    A nd           | Web:      www.OpenFOAM.org                      |
|    \\/     M anipulation  |                                                 |
\*---------------------------------------------------------------------------*/
FoamFile
{
    version     2.0;
    format      ascii;
    class       volScalarField;
    location    "2.5";
    object      Cs;
}
// * * * * * * * * * * * * * * * * * * * * * * * * * * * * * * * * * * * * * //

dimensions      [1 -3 0 0 0 0 0];

internalField   nonuniform List<scalar> 
114
(
335.045
335.075
335.087
335.097
335.097
340.181
335.22
335.243
335.245
335.221
335.199
335.161
335.169
335.212
335.247
335.251
335.227
335.179
335.148
335.129
335.138
334.942
334.977
335.001
335.027
335.05
335.064
335.075
335.075
335.422
335.145
335.196
335.216
335.209
335.214
335.18
335.156
335.115
335.106
335.159
335.202
335.236
335.239
335.221
335.18
335.136
335.109
335.057
335.106
335.143
334.941
334.96
334.981
334.999
335.015
335.023
335.04
335.047
335.249
335.129
335.162
335.163
335.144
335.148
335.125
335.137
335.096
335.065
335.126
335.159
335.197
335.21
335.211
335.185
335.151
335.112
335.068
335.086
335.135
335.183
335.209
334.923
334.933
334.942
334.95
334.958
334.963
334.978
334.984
336.278
334.956
334.977
334.985
334.994
335.011
335.033
335.077
335.075
335.11
334.961
334.985
335.008
335.027
335.041
335.048
335.055
335.063
335.197
334.956
334.981
335
335.016
335.034
335.045
)
;

boundaryField
{
    inlet
    {
        type            calculated;
        value           nonuniform 0();
    }
    outlet
    {
        type            calculated;
        value           uniform 335;
    }
    wall
    {
        type            calculated;
        value           nonuniform List<scalar> 
66
(
334.923
334.956
334.961
334.956
334.933
334.977
334.985
334.981
334.942
334.985
335.008
335
334.95
334.994
335.027
335.016
334.958
335.011
335.041
335.034
334.963
335.033
335.048
335.045
334.978
335.077
335.055
334.984
335.075
335.063
336.278
335.11
335.197
334.942
334.941
334.923
334.977
334.96
334.933
335.001
334.981
334.942
335.045
335.027
334.999
334.95
335.075
335.05
335.015
334.958
335.087
335.064
335.023
334.963
335.097
335.075
335.04
334.978
335.097
335.075
335.047
334.984
340.181
335.422
335.249
336.278
)
;
    }
    procBoundary5to1
    {
        type            processor;
        value           nonuniform List<scalar> 
32
(
335.078
335.1
335.099
335.085
335.089
335.744
335.263
335.269
335.254
335.237
335.196
335.169
335.154
335.254
335.26
335.235
335.212
335.179
335.157
335.14
335.058
334.922
334.965
335.008
335.008
335.008
335.143
335.19
335.19
335.19
335.172
335.172
)
;
    }
    procBoundary5to4
    {
        type            processor;
        value           nonuniform List<scalar> 
12
(
334.922
335.084
335.102
335.078
334.925
335.073
335.082
335.062
334.915
334.943
334.939
334.938
)
;
    }
    procBoundary5to7
    {
        type            processor;
        value           nonuniform List<scalar> 
44
(
335.122
335.15
335.187
335.226
335.24
335.21
335.126
335.678
335.099
335.122
335.191
335.23
335.225
335.177
335.129
335.075
335.034
335.154
335.191
335.189
335.191
335.23
335.213
335.184
335.14
335.102
335.064
335.125
335.142
335.208
335.213
335.202
335.213
335.184
335.063
335.066
336.42
334.985
335.017
335.039
335.06
335.074
335.063
335.11
)
;
    }
}


// ************************************************************************* //
