/*--------------------------------*- C++ -*----------------------------------*\
| =========                 |                                                 |
| \\      /  F ield         | OpenFOAM: The Open Source CFD Toolbox           |
|  \\    /   O peration     | Version:  4.x                                   |
|   \\  /    A nd           | Web:      www.OpenFOAM.org                      |
|    \\/     M anipulation  |                                                 |
\*---------------------------------------------------------------------------*/
FoamFile
{
    version     2.0;
    format      ascii;
    class       volScalarField;
    location    "2.5";
    object      Deff;
}
// * * * * * * * * * * * * * * * * * * * * * * * * * * * * * * * * * * * * * //

dimensions      [0 2 -1 0 0 0 0];

internalField   nonuniform List<scalar> 
114
(
9.79983e-08
9.78953e-08
9.78884e-08
9.78443e-08
9.78246e-08
9.78306e-08
9.80074e-08
9.80117e-08
9.79413e-08
9.78551e-08
9.77541e-08
9.77305e-08
9.77964e-08
9.79363e-08
9.79815e-08
9.7867e-08
9.78632e-08
9.78563e-08
9.77527e-08
9.77942e-08
9.77295e-08
9.80772e-08
9.80922e-08
9.79307e-08
9.79243e-08
9.7811e-08
9.77533e-08
9.77365e-08
9.77932e-08
9.78229e-08
9.79643e-08
9.79237e-08
9.78057e-08
9.77941e-08
9.76852e-08
9.76513e-08
9.77133e-08
9.76261e-08
9.77259e-08
9.78786e-08
9.79631e-08
9.78022e-08
9.77172e-08
9.7696e-08
9.76418e-08
9.76058e-08
9.76188e-08
9.76995e-08
9.77989e-08
9.78998e-08
9.80115e-08
9.78892e-08
9.79028e-08
9.77955e-08
9.77448e-08
9.77234e-08
9.76972e-08
9.77063e-08
9.77783e-08
9.79788e-08
9.78307e-08
9.78555e-08
9.77538e-08
9.76499e-08
9.76253e-08
9.75604e-08
9.76521e-08
9.77529e-08
9.78588e-08
9.78385e-08
9.77354e-08
9.77003e-08
9.75043e-08
9.75488e-08
9.75067e-08
9.75026e-08
9.75532e-08
9.79673e-08
9.77067e-08
9.76084e-08
9.76216e-08
9.82551e-08
9.80196e-08
9.80694e-08
9.78553e-08
9.78265e-08
9.78582e-08
9.77562e-08
9.77703e-08
9.78211e-08
9.80317e-08
9.79378e-08
9.80043e-08
9.78518e-08
9.76969e-08
9.77108e-08
9.77774e-08
9.77024e-08
9.77707e-08
9.79412e-08
9.78731e-08
9.77073e-08
9.77038e-08
9.76342e-08
9.75564e-08
9.76377e-08
9.76316e-08
9.76582e-08
9.79057e-08
9.78629e-08
9.7685e-08
9.76904e-08
9.751e-08
9.7581e-08
)
;

boundaryField
{
    inlet
    {
        type            calculated;
        value           nonuniform 0();
    }
    outlet
    {
        type            calculated;
        value           uniform 0;
    }
    wall
    {
        type            calculated;
        value           uniform 0;
    }
    procBoundary5to1
    {
        type            processor;
        value           uniform 0;
    }
    procBoundary5to4
    {
        type            processor;
        value           uniform 0;
    }
    procBoundary5to7
    {
        type            processor;
        value           uniform 0;
    }
}


// ************************************************************************* //
