/*--------------------------------*- C++ -*----------------------------------*\
| =========                 |                                                 |
| \\      /  F ield         | OpenFOAM: The Open Source CFD Toolbox           |
|  \\    /   O peration     | Version:  4.x                                   |
|   \\  /    A nd           | Web:      www.OpenFOAM.org                      |
|    \\/     M anipulation  |                                                 |
\*---------------------------------------------------------------------------*/
FoamFile
{
    version     2.0;
    format      ascii;
    class       volVectorField;
    location    "2.5";
    object      impParticleForces;
}
// * * * * * * * * * * * * * * * * * * * * * * * * * * * * * * * * * * * * * //

dimensions      [1 1 -2 0 0 0 0];

internalField   nonuniform List<vector> 
114
(
(0.00291653 -5.50766e-05 8.71754e-05)
(0.00275411 -8.36211e-05 9.25842e-05)
(0.00266941 -0.00013387 0.00011026)
(0.00250218 -0.000210463 0.000130809)
(0.00245197 -0.000314573 0.000148508)
(0.00218563 -0.000456861 0.000124814)
(0.00286974 -4.72198e-05 3.92941e-05)
(0.00279873 -5.23299e-05 7.08508e-05)
(0.00262963 -7.38864e-05 7.00114e-05)
(0.00252961 -0.000116699 7.70419e-05)
(0.00234754 -0.000186954 9.31764e-05)
(0.00226752 -0.000293539 0.000109448)
(0.00203945 -0.000428992 0.000107815)
(0.0029237 -3.88011e-05 -2.05969e-06)
(0.00277524 -3.3408e-05 1.15993e-05)
(0.00267121 -3.53009e-05 2.88625e-05)
(0.00248888 -4.27205e-05 3.51471e-05)
(0.00232599 -6.53689e-05 3.72335e-05)
(0.00210765 -0.00011064 3.86417e-05)
(0.00192741 -0.000174756 3.49082e-05)
(0.00171169 -0.00026875 2.40505e-05)
(0.00318025 -6.19228e-05 7.49621e-05)
(0.00311383 -5.97875e-05 5.72613e-05)
(0.0030304 -4.00589e-05 5.4017e-05)
(0.00294388 -3.21651e-05 6.06766e-05)
(0.0028147 -7.46317e-05 7.46033e-05)
(0.00274358 -0.000132599 9.4689e-05)
(0.00257908 -0.000226825 0.000121063)
(0.00248839 -0.000342135 0.000135135)
(0.00226464 -0.000478097 0.000124315)
(0.00309728 -5.01126e-05 5.27755e-05)
(0.00301445 -4.50523e-05 2.99977e-05)
(0.00281687 -4.30499e-05 1.3781e-05)
(0.00281394 -4.762e-05 3.40343e-05)
(0.00267622 -7.26481e-05 5.45339e-05)
(0.00258412 -0.000122299 6.9023e-05)
(0.00238218 -0.000202247 9.81642e-05)
(0.00229001 -0.000324932 0.000121873)
(0.00207146 -0.000463498 0.000134146)
(0.00301698 -3.69249e-05 2.84287e-05)
(0.0029425 -3.12823e-05 7.20692e-06)
(0.00280538 -3.702e-05 6.33734e-06)
(0.0027084 -5.45667e-05 1.72726e-05)
(0.00252882 -5.1876e-05 3.31202e-05)
(0.00236849 -7.89133e-05 4.80312e-05)
(0.00212358 -0.000135279 6.98612e-05)
(0.0018934 -0.00022364 9.48529e-05)
(0.00164439 -0.000343436 0.000120018)
(0.00296199 -3.27103e-05 5.20125e-06)
(0.00290273 -2.75508e-05 -1.46537e-05)
(0.00329203 -5.26053e-05 8.51341e-05)
(0.00325836 -4.65917e-05 6.36864e-05)
(0.00315141 -3.353e-05 4.45614e-05)
(0.00304536 -3.89607e-05 3.9656e-05)
(0.00291237 -7.37018e-05 6.22327e-05)
(0.00280559 -0.000129404 9.00239e-05)
(0.00262976 -0.0002198 0.000131359)
(0.00256316 -0.00032876 0.00016816)
(0.00228901 -0.000500167 0.000221807)
(0.00321074 -4.99814e-05 6.55169e-05)
(0.00318704 -4.59988e-05 4.64293e-05)
(0.00303695 -3.73887e-05 2.02061e-05)
(0.00293468 -4.04768e-05 1.62143e-05)
(0.00278054 -6.66633e-05 4.43064e-05)
(0.00265851 -0.000113596 7.37065e-05)
(0.00246861 -0.000191291 0.000121214)
(0.00235147 -0.000291871 0.000169154)
(0.00212192 -0.000443029 0.000221967)
(0.00312865 -4.62406e-05 3.5809e-05)
(0.00306739 -4.35588e-05 8.12664e-06)
(0.0029427 -3.45973e-05 6.26779e-06)
(0.00280786 -3.34697e-05 1.57721e-05)
(0.00264376 -4.59944e-05 3.81963e-05)
(0.00248238 -7.32479e-05 7.02986e-05)
(0.00224074 -0.000126121 0.000117975)
(0.00204868 -0.000203664 0.000185346)
(0.001827 -0.000300653 0.000260818)
(0.00304558 -3.90501e-05 8.81176e-06)
(0.00302029 -4.56952e-05 -2.6176e-05)
(0.00286859 -1.99441e-05 -2.88342e-06)
(0.00272761 -5.23874e-07 2.20566e-05)
(0.0032571 -4.9586e-05 7.16637e-05)
(0.00325908 -4.45771e-05 5.12887e-05)
(0.00316221 -3.6513e-05 3.75905e-05)
(0.00306376 -4.17136e-05 3.72847e-05)
(0.00291738 -7.33638e-05 5.76221e-05)
(0.00282012 -0.000125029 8.98123e-05)
(0.00266375 -0.000213867 0.000131835)
(0.00260097 -0.00031935 0.000179727)
(0.00229102 -0.000492358 0.00024501)
(0.00325753 -5.13346e-05 5.7649e-05)
(0.00324869 -4.99745e-05 3.38387e-05)
(0.00311629 -3.88027e-05 1.90121e-05)
(0.00298458 -3.72786e-05 2.38797e-05)
(0.00282275 -6.17481e-05 4.56196e-05)
(0.0026787 -0.000104688 8.00982e-05)
(0.00249412 -0.000176466 0.000125816)
(0.00237299 -0.000267946 0.000179021)
(0.0021555 -0.00042545 0.000250398)
(0.00318316 -5.0956e-05 3.4415e-05)
(0.00314925 -5.31264e-05 9.71658e-06)
(0.00302893 -3.60063e-05 8.9221e-06)
(0.00287992 -2.54554e-05 2.1478e-05)
(0.00269853 -3.92729e-05 4.51973e-05)
(0.00254816 -6.65184e-05 8.04061e-05)
(0.00232984 -0.000112541 0.0001292)
(0.00216546 -0.000171487 0.00019695)
(0.00197455 -0.00023322 0.000275753)
(0.00311946 -4.92633e-05 1.39087e-05)
(0.00305007 -6.77148e-05 -1.43239e-05)
(0.0028955 -2.35541e-05 4.9641e-06)
(0.00277747 1.10141e-05 3.0715e-05)
(0.00261074 -8.33712e-07 5.16756e-05)
(0.00241734 -1.18138e-05 7.96116e-05)
)
;

boundaryField
{
    inlet
    {
        type            zeroGradient;
    }
    outlet
    {
        type            zeroGradient;
    }
    wall
    {
        type            zeroGradient;
    }
    procBoundary5to1
    {
        type            processor;
        value           nonuniform List<vector> 
32
(
(0.00286639 -6.74013e-05 8.96017e-05)
(0.0026773 -8.82569e-05 0.000101655)
(0.00257156 -0.000124741 0.000128186)
(0.00241956 -0.000175754 0.000166734)
(0.00231552 -0.000237575 0.000193401)
(0.00205605 -0.00031894 0.000186979)
(0.00285045 -4.99984e-05 4.48702e-05)
(0.00276006 -5.68642e-05 6.49254e-05)
(0.00258288 -7.28963e-05 7.63978e-05)
(0.00245225 -0.000103708 9.17081e-05)
(0.00226938 -0.000145374 0.000116492)
(0.00215266 -0.000206971 0.000139687)
(0.00194748 -0.000283875 0.000143616)
(0.00285832 -3.11622e-05 -3.53204e-06)
(0.00273411 -3.01416e-05 1.64387e-05)
(0.00264913 -3.34318e-05 3.49256e-05)
(0.00245281 -3.61505e-05 3.97508e-05)
(0.00229528 -4.92377e-05 4.1603e-05)
(0.00208311 -7.3759e-05 4.61306e-05)
(0.0019363 -0.000108727 4.42457e-05)
(0.0017729 -0.000149571 5.16473e-05)
(0.00311406 -6.13877e-05 6.42975e-05)
(0.00304676 -5.63825e-05 5.0914e-05)
(0.00298581 -5.26771e-05 6.39744e-05)
(0.00298581 -5.26771e-05 6.39744e-05)
(0.00298581 -5.26771e-05 6.39744e-05)
(0.003057 -5.14004e-05 3.79083e-05)
(0.00301454 -4.8388e-05 1.51064e-05)
(0.00301454 -4.8388e-05 1.51064e-05)
(0.00301454 -4.8388e-05 1.51064e-05)
(0.00296089 -3.99283e-05 1.62463e-05)
(0.00296089 -3.99283e-05 1.62463e-05)
)
;
    }
    procBoundary5to4
    {
        type            processor;
        value           nonuniform List<vector> 
12
(
(0.00326539 -7.28556e-05 0.000100557)
(0.00319074 -5.69915e-05 8.13072e-05)
(0.00308345 -3.92666e-05 6.11494e-05)
(0.00303277 -3.63539e-05 4.78428e-05)
(0.00336935 -6.09612e-05 0.000111166)
(0.00330174 -5.39735e-05 9.843e-05)
(0.00319363 -4.51962e-05 7.29194e-05)
(0.00312816 -3.58073e-05 5.41864e-05)
(0.0033651 -5.60586e-05 9.74915e-05)
(0.00331427 -5.26797e-05 8.71204e-05)
(0.00323376 -4.54489e-05 6.81339e-05)
(0.00317594 -3.8007e-05 5.33917e-05)
)
;
    }
    procBoundary5to7
    {
        type            processor;
        value           nonuniform List<vector> 
44
(
(0.00288007 -4.31875e-05 -2.41568e-05)
(0.00272967 -1.41575e-05 -1.08292e-05)
(0.0026056 1.02639e-05 1.68794e-06)
(0.00242384 1.41644e-05 4.14545e-06)
(0.00224742 2.18303e-05 -7.03202e-06)
(0.00197029 1.70119e-05 -2.54025e-05)
(0.00172977 1.20345e-05 -6.12224e-05)
(0.00147891 3.40202e-06 -0.000119117)
(0.00292929 -3.85379e-05 -6.81989e-06)
(0.00288007 -4.31875e-05 -2.41568e-05)
(0.00277075 -1.41228e-05 -7.19977e-06)
(0.00263774 -3.62075e-06 3.44753e-06)
(0.00243283 7.68917e-07 1.52727e-05)
(0.00223697 3.17453e-06 2.34895e-05)
(0.00193224 1.12988e-06 3.57806e-05)
(0.00154692 7.78115e-07 3.68338e-05)
(0.00106635 -2.09422e-05 7.14925e-05)
(0.00290512 -1.69767e-05 -8.28208e-06)
(0.00277075 -1.41228e-05 -7.19977e-06)
(0.00290545 -2.04933e-05 -3.3616e-05)
(0.00277075 -1.41228e-05 -7.19977e-06)
(0.00263774 -3.62075e-06 3.44753e-06)
(0.0025099 -4.602e-06 3.67005e-05)
(0.00232865 -8.88377e-06 5.98876e-05)
(0.00207853 -1.62201e-05 0.000111894)
(0.0018427 -2.23952e-05 0.000193113)
(0.0015636 -7.13926e-05 0.000314352)
(0.00303826 -1.74596e-05 -1.8605e-05)
(0.00298979 -2.43347e-05 -0.000102159)
(0.00280005 -8.09436e-06 -1.8461e-05)
(0.0025099 -4.602e-06 3.67005e-05)
(0.00268228 8.92401e-06 2.73781e-05)
(0.0025099 -4.602e-06 3.67005e-05)
(0.00232865 -8.88377e-06 5.98876e-05)
(0.00220507 -2.593e-05 0.000131133)
(0.00205825 -3.60941e-05 0.000214863)
(0.00182035 -7.86071e-05 0.00030823)
(0.00306824 -1.88161e-05 -8.52762e-06)
(0.00294165 -2.24493e-05 -4.68477e-05)
(0.00266748 -1.25166e-05 3.06805e-06)
(0.00267864 -8.76396e-07 4.87791e-05)
(0.00249322 1.34692e-05 4.83608e-05)
(0.00220507 -2.593e-05 0.000131133)
(0.00234482 3.19642e-05 6.63758e-05)
)
;
    }
}


// ************************************************************************* //
