/*--------------------------------*- C++ -*----------------------------------*\
| =========                 |                                                 |
| \\      /  F ield         | OpenFOAM: The Open Source CFD Toolbox           |
|  \\    /   O peration     | Version:  4.x                                   |
|   \\  /    A nd           | Web:      www.OpenFOAM.org                      |
|    \\/     M anipulation  |                                                 |
\*---------------------------------------------------------------------------*/
FoamFile
{
    version     2.0;
    format      ascii;
    class       volScalarField;
    location    "2.5";
    object      nu;
}
// * * * * * * * * * * * * * * * * * * * * * * * * * * * * * * * * * * * * * //

dimensions      [0 2 -1 0 0 0 0];

internalField   nonuniform List<scalar> 
114
(
9.99866e-07
9.99775e-07
9.9974e-07
9.99711e-07
9.99711e-07
9.8477e-07
9.99345e-07
9.99276e-07
9.99271e-07
9.9934e-07
9.99405e-07
9.9952e-07
9.99497e-07
9.99367e-07
9.99262e-07
9.99251e-07
9.99323e-07
9.99466e-07
9.99558e-07
9.99614e-07
9.99588e-07
1.00017e-06
1.00007e-06
9.99997e-07
9.99919e-07
9.9985e-07
9.9981e-07
9.99776e-07
9.99777e-07
9.98742e-07
9.99569e-07
9.99416e-07
9.99355e-07
9.99376e-07
9.9936e-07
9.99462e-07
9.99533e-07
9.99657e-07
9.99685e-07
9.99527e-07
9.99397e-07
9.99297e-07
9.99286e-07
9.99342e-07
9.99463e-07
9.99595e-07
9.99675e-07
9.9983e-07
9.99684e-07
9.99573e-07
1.00018e-06
1.00012e-06
1.00006e-06
1e-06
9.99956e-07
9.9993e-07
9.99881e-07
9.99859e-07
9.99258e-07
9.99614e-07
9.99518e-07
9.99514e-07
9.99571e-07
9.99559e-07
9.99626e-07
9.9959e-07
9.99714e-07
9.99807e-07
9.99625e-07
9.99527e-07
9.99413e-07
9.99374e-07
9.9937e-07
9.99447e-07
9.99548e-07
9.99665e-07
9.99796e-07
9.99743e-07
9.99596e-07
9.99455e-07
9.99377e-07
1.00023e-06
1.0002e-06
1.00017e-06
1.00015e-06
1.00013e-06
1.00011e-06
1.00007e-06
1.00005e-06
9.96199e-07
1.00013e-06
1.00007e-06
1.00005e-06
1.00002e-06
9.99967e-07
9.99902e-07
9.9977e-07
9.99775e-07
9.99673e-07
1.00012e-06
1.00005e-06
9.99976e-07
9.99918e-07
9.99877e-07
9.99856e-07
9.99837e-07
9.99813e-07
9.99413e-07
1.00013e-06
1.00006e-06
1e-06
9.99953e-07
9.99898e-07
9.99865e-07
)
;

boundaryField
{
    inlet
    {
        type            calculated;
        value           nonuniform 0();
    }
    outlet
    {
        type            calculated;
        value           uniform 1e-06;
    }
    wall
    {
        type            calculated;
        value           nonuniform List<scalar> 
66
(
1.00023e-06
1.00013e-06
1.00012e-06
1.00013e-06
1.0002e-06
1.00007e-06
1.00005e-06
1.00006e-06
1.00017e-06
1.00005e-06
9.99976e-07
1e-06
1.00015e-06
1.00002e-06
9.99918e-07
9.99953e-07
1.00013e-06
9.99967e-07
9.99877e-07
9.99898e-07
1.00011e-06
9.99902e-07
9.99856e-07
9.99865e-07
1.00007e-06
9.9977e-07
9.99837e-07
1.00005e-06
9.99775e-07
9.99813e-07
9.96199e-07
9.99673e-07
9.99413e-07
1.00017e-06
1.00018e-06
1.00023e-06
1.00007e-06
1.00012e-06
1.0002e-06
9.99997e-07
1.00006e-06
1.00017e-06
9.99866e-07
9.99919e-07
1e-06
1.00015e-06
9.99775e-07
9.9985e-07
9.99956e-07
1.00013e-06
9.9974e-07
9.9981e-07
9.9993e-07
1.00011e-06
9.99711e-07
9.99776e-07
9.99881e-07
1.00007e-06
9.99711e-07
9.99777e-07
9.99859e-07
1.00005e-06
9.8477e-07
9.98742e-07
9.99258e-07
9.96199e-07
)
;
    }
    procBoundary5to1
    {
        type            processor;
        value           nonuniform List<scalar> 
32
(
9.99767e-07
9.99701e-07
9.99706e-07
9.99747e-07
9.99735e-07
9.97784e-07
9.99216e-07
9.99197e-07
9.99241e-07
9.99294e-07
9.99414e-07
9.99496e-07
9.99541e-07
9.99243e-07
9.99226e-07
9.99299e-07
9.99368e-07
9.99465e-07
9.99533e-07
9.99583e-07
9.99828e-07
1.00023e-06
1.00011e-06
9.99976e-07
9.99976e-07
9.99976e-07
9.99573e-07
9.99434e-07
9.99434e-07
9.99434e-07
9.99487e-07
9.99487e-07
)
;
    }
    procBoundary5to4
    {
        type            processor;
        value           nonuniform List<scalar> 
12
(
1.00023e-06
9.99748e-07
9.99695e-07
9.99767e-07
1.00022e-06
9.99782e-07
9.99755e-07
9.99814e-07
1.00025e-06
1.00017e-06
1.00018e-06
1.00018e-06
)
;
    }
    procBoundary5to7
    {
        type            processor;
        value           nonuniform List<scalar> 
44
(
9.99636e-07
9.99551e-07
9.99443e-07
9.99325e-07
9.99284e-07
9.99374e-07
9.99623e-07
9.97979e-07
9.99705e-07
9.99636e-07
9.99429e-07
9.99313e-07
9.99328e-07
9.99471e-07
9.99616e-07
9.99775e-07
9.999e-07
9.9954e-07
9.99429e-07
9.99437e-07
9.99429e-07
9.99313e-07
9.99364e-07
9.99451e-07
9.99582e-07
9.99695e-07
9.99809e-07
9.99626e-07
9.99575e-07
9.99381e-07
9.99364e-07
9.99398e-07
9.99364e-07
9.99451e-07
9.99811e-07
9.99804e-07
9.95778e-07
1.00005e-06
9.9995e-07
9.99884e-07
9.99821e-07
9.99778e-07
9.99811e-07
9.99671e-07
)
;
    }
}


// ************************************************************************* //
