/*--------------------------------*- C++ -*----------------------------------*\
| =========                 |                                                 |
| \\      /  F ield         | OpenFOAM: The Open Source CFD Toolbox           |
|  \\    /   O peration     | Version:  4.x                                   |
|   \\  /    A nd           | Web:      www.OpenFOAM.org                      |
|    \\/     M anipulation  |                                                 |
\*---------------------------------------------------------------------------*/
FoamFile
{
    version     2.0;
    format      ascii;
    class       volScalarField;
    location    "2.5";
    object      particleRelTemp;
}
// * * * * * * * * * * * * * * * * * * * * * * * * * * * * * * * * * * * * * //

dimensions      [0 0 0 0 0 0 0];

internalField   nonuniform List<scalar> 
114
(
-2.98075e-06
-1.86196e-06
-6.28276e-07
1.18326e-06
3.05626e-06
4.53119e-06
-3.69104e-06
-3.01314e-06
-1.71206e-06
3.7381e-07
2.72692e-06
5.54451e-06
7.58031e-06
-4.14735e-06
-4.06218e-06
-2.96529e-06
-1.44534e-06
1.04147e-06
4.33528e-06
7.58888e-06
9.99789e-06
-2.60108e-06
-2.86308e-06
-3.2042e-06
-2.92811e-06
-2.09769e-06
-1.01302e-06
4.47693e-07
2.04505e-06
3.34794e-06
-2.62962e-06
-3.19851e-06
-3.36857e-06
-2.79761e-06
-1.88065e-06
-1.07298e-08
1.72697e-06
4.21706e-06
5.84756e-06
-2.79104e-06
-3.78271e-06
-3.68214e-06
-2.8867e-06
-1.28576e-06
7.52527e-07
3.66658e-06
6.71803e-06
8.30765e-06
-2.73662e-06
-3.82545e-06
-2.27812e-06
-2.62253e-06
-2.90164e-06
-2.66279e-06
-2.09775e-06
-1.42064e-06
-3.12261e-07
9.27038e-07
2.37205e-06
-2.43702e-06
-2.81807e-06
-2.9518e-06
-2.6737e-06
-1.87038e-06
-5.45139e-07
8.0193e-07
2.13879e-06
3.95016e-06
-2.35168e-06
-3.04476e-06
-3.11462e-06
-2.74874e-06
-1.65224e-06
8.06539e-08
2.16496e-06
4.43428e-06
5.86238e-06
-2.31836e-06
-2.97282e-06
-3.12278e-06
-2.8959e-06
-2.23771e-06
-2.43665e-06
-2.56473e-06
-2.4901e-06
-2.07816e-06
-1.56069e-06
-7.87488e-07
5.99317e-08
1.09628e-06
-2.19169e-06
-2.51849e-06
-2.7248e-06
-2.51923e-06
-1.94476e-06
-1.08524e-06
1.31834e-07
1.24423e-06
2.40316e-06
-1.98415e-06
-2.56718e-06
-2.74039e-06
-2.54065e-06
-1.7984e-06
-3.67807e-07
9.77343e-07
2.55817e-06
3.60661e-06
-1.91862e-06
-2.48673e-06
-2.68289e-06
-2.66157e-06
-1.82013e-06
-5.7545e-08
)
;

boundaryField
{
    inlet
    {
        type            calculated;
        value           nonuniform 0();
    }
    outlet
    {
        type            calculated;
        value           nonuniform List<scalar> 
12
(
4.53119e-06
7.58031e-06
9.99789e-06
3.34794e-06
5.84756e-06
8.30765e-06
2.37205e-06
3.95016e-06
5.86238e-06
1.09628e-06
2.40316e-06
3.60661e-06
)
;
    }
    wall
    {
        type            calculated;
        value           nonuniform List<scalar> 
66
(
-2.23771e-06
-2.19169e-06
-1.98415e-06
-1.91862e-06
-2.43665e-06
-2.51849e-06
-2.56718e-06
-2.48673e-06
-2.56473e-06
-2.7248e-06
-2.74039e-06
-2.68289e-06
-2.4901e-06
-2.51923e-06
-2.54065e-06
-2.66157e-06
-2.07816e-06
-1.94476e-06
-1.7984e-06
-1.82013e-06
-1.56069e-06
-1.08524e-06
-3.67807e-07
-5.7545e-08
-7.87488e-07
1.31834e-07
9.77343e-07
5.99317e-08
1.24423e-06
2.55817e-06
1.09628e-06
2.40316e-06
3.60661e-06
-2.60108e-06
-2.27812e-06
-2.23771e-06
-2.86308e-06
-2.62253e-06
-2.43665e-06
-3.2042e-06
-2.90164e-06
-2.56473e-06
-2.98075e-06
-2.92811e-06
-2.66279e-06
-2.4901e-06
-1.86196e-06
-2.09769e-06
-2.09775e-06
-2.07816e-06
-6.28276e-07
-1.01302e-06
-1.42064e-06
-1.56069e-06
1.18326e-06
4.47693e-07
-3.12261e-07
-7.87488e-07
3.05626e-06
2.04505e-06
9.27038e-07
5.99317e-08
4.53119e-06
3.34794e-06
2.37205e-06
1.09628e-06
)
;
    }
    procBoundary5to1
    {
        type            processor;
        value           nonuniform List<scalar> 
32
(
-2.89233e-06
-1.65742e-06
2.75546e-07
1.93985e-06
3.97482e-06
5.67061e-06
-3.88301e-06
-2.89177e-06
-1.05582e-06
1.06701e-06
4.29539e-06
6.73286e-06
8.48962e-06
-4.53198e-06
-4.26185e-06
-3.28716e-06
-8.92267e-07
2.43136e-06
6.22707e-06
8.49515e-06
1.04798e-05
-3.04126e-06
-3.28465e-06
-3.41293e-06
-3.41293e-06
-3.41293e-06
-3.27795e-06
-3.7903e-06
-3.7903e-06
-3.7903e-06
-3.35009e-06
-3.35009e-06
)
;
    }
    procBoundary5to4
    {
        type            processor;
        value           nonuniform List<scalar> 
12
(
-2.01484e-06
-1.8624e-06
-1.6489e-06
-1.62217e-06
-1.70423e-06
-1.54697e-06
-1.4051e-06
-1.35783e-06
-1.69902e-06
-1.41429e-06
-1.35524e-06
-1.01829e-06
)
;
    }
    procBoundary5to7
    {
        type            processor;
        value           nonuniform List<scalar> 
44
(
-4.34866e-06
-4.32548e-06
-3.17045e-06
-9.7002e-07
2.37428e-06
5.74225e-06
8.84906e-06
1.1083e-05
-3.45414e-06
-4.34866e-06
-3.8739e-06
-3.01548e-06
-1.30302e-06
1.32043e-06
4.43375e-06
7.76624e-06
9.18032e-06
-2.9815e-06
-3.8739e-06
-3.58499e-06
-3.8739e-06
-3.01548e-06
-1.68666e-06
1.41308e-07
2.99162e-06
4.96116e-06
7.549e-06
-2.15239e-06
-3.06838e-06
-3.1999e-06
-1.68666e-06
-2.64385e-06
-1.68666e-06
1.41308e-07
1.58156e-06
3.52067e-06
4.49725e-06
-1.78509e-06
-2.53389e-06
-2.74854e-06
-2.50597e-06
-1.61234e-06
1.58156e-06
-1.22701e-07
)
;
    }
}


// ************************************************************************* //
