/*--------------------------------*- C++ -*----------------------------------*\
| =========                 |                                                 |
| \\      /  F ield         | OpenFOAM: The Open Source CFD Toolbox           |
|  \\    /   O peration     | Version:  4.x                                   |
|   \\  /    A nd           | Web:      www.OpenFOAM.org                      |
|    \\/     M anipulation  |                                                 |
\*---------------------------------------------------------------------------*/
FoamFile
{
    version     2.0;
    format      ascii;
    class       volScalarField;
    location    "2.5";
    object      Sm;
}
// * * * * * * * * * * * * * * * * * * * * * * * * * * * * * * * * * * * * * //

dimensions      [1 -3 -1 0 0 0 0];

internalField   nonuniform List<scalar> 
114
(
6.82529e-65
8.06041e-65
6.34835e-65
6.72634e-65
7.56783e-65
8.40517e-65
6.82924e-65
5.66282e-65
5.81251e-65
6.65101e-65
8.18243e-65
8.47347e-65
7.84316e-65
8.46177e-65
6.05535e-65
7.4461e-65
5.80983e-65
4.5611e-65
6.93794e-65
5.6902e-65
8.59075e-65
6.27915e-65
4.88441e-65
6.98106e-65
5.42858e-65
6.43294e-65
6.81492e-65
7.11753e-65
5.64136e-65
5.94281e-65
7.13327e-65
6.82569e-65
8.53427e-65
7.13436e-65
8.3691e-65
8.12357e-65
5.25479e-65
8.55665e-65
6.85096e-65
8.21838e-65
4.57791e-65
7.29547e-65
7.60154e-65
6.19713e-65
7.03551e-65
7.09674e-65
6.84902e-65
5.53339e-65
1.00015e-64
4.42364e-65
6.66506e-65
8.21667e-65
6.66927e-65
7.44365e-65
6.97569e-65
6.89446e-65
6.65666e-65
7.27064e-65
6.56569e-65
5.34828e-65
8.37403e-65
6.20491e-65
7.13368e-65
7.12989e-65
7.04471e-65
9.12427e-65
6.41024e-65
5.47613e-65
8.06074e-65
6.35834e-65
7.05898e-65
5.9706e-65
1.01501e-64
7.35108e-65
8.18716e-65
8.86497e-65
8.62114e-65
3.56548e-65
9.38292e-65
8.99706e-65
7.98833e-65
2.63493e-65
6.8983e-65
4.57361e-65
7.13208e-65
6.04545e-65
4.95821e-65
6.96893e-65
6.26887e-65
6.0322e-65
6.04466e-65
6.89892e-65
4.18714e-65
5.65917e-65
7.43975e-65
6.5054e-65
4.56484e-65
7.03429e-65
6.02421e-65
6.27622e-65
6.27887e-65
8.52932e-65
6.90054e-65
5.88916e-65
8.0509e-65
6.49632e-65
6.71937e-65
6.79081e-65
7.20516e-65
5.50349e-65
7.28761e-65
5.66071e-65
9.68747e-65
7.74076e-65
)
;

boundaryField
{
    inlet
    {
        type            calculated;
        value           nonuniform 0();
    }
    outlet
    {
        type            calculated;
        value           uniform 0;
    }
    wall
    {
        type            calculated;
        value           uniform 0;
    }
    procBoundary5to1
    {
        type            processor;
        value           nonuniform List<scalar> 
32
(
7.91052e-65
5.81082e-65
8.43308e-65
7.03192e-65
5.70985e-65
4.15968e-65
5.66677e-65
6.12742e-65
6.96838e-65
6.95863e-65
6.55257e-65
7.15698e-65
4.3763e-65
6.36799e-65
5.12552e-65
9.07763e-65
8.20799e-65
8.80264e-65
6.77182e-65
7.83487e-65
3.45011e-65
6.59176e-65
5.27467e-65
8.0686e-65
8.0686e-65
8.0686e-65
7.05906e-65
1.00112e-64
1.00112e-64
1.00112e-64
5.74095e-65
5.74095e-65
)
;
    }
    procBoundary5to4
    {
        type            processor;
        value           nonuniform List<scalar> 
12
(
8.91043e-65
9.0648e-65
5.6547e-65
5.96383e-65
8.21168e-65
8.21038e-65
6.81505e-65
6.81397e-65
7.20406e-65
7.58996e-65
6.27259e-65
6.34884e-65
)
;
    }
    procBoundary5to7
    {
        type            processor;
        value           nonuniform List<scalar> 
44
(
7.84071e-65
6.44381e-65
6.75044e-65
1.05348e-64
1.0424e-64
7.93076e-65
5.60501e-65
8.27712e-65
9.92989e-65
7.84071e-65
6.44219e-65
7.36893e-65
6.35092e-65
6.95472e-65
8.55367e-65
8.37599e-65
7.29244e-65
3.95519e-65
6.44219e-65
8.45688e-65
6.44219e-65
7.36893e-65
5.03586e-65
5.80048e-65
7.33133e-65
6.00806e-65
5.76285e-65
8.05882e-65
7.36674e-65
6.82579e-65
5.03586e-65
5.19524e-65
5.03586e-65
5.80048e-65
5.48672e-65
6.40667e-65
6.09126e-65
6.89484e-65
5.81384e-65
7.67568e-65
7.44292e-65
5.19117e-65
5.48672e-65
3.86988e-65
)
;
    }
}


// ************************************************************************* //
