/*--------------------------------*- C++ -*----------------------------------*\
| =========                 |                                                 |
| \\      /  F ield         | OpenFOAM: The Open Source CFD Toolbox           |
|  \\    /   O peration     | Version:  4.x                                   |
|   \\  /    A nd           | Web:      www.OpenFOAM.org                      |
|    \\/     M anipulation  |                                                 |
\*---------------------------------------------------------------------------*/
FoamFile
{
    version     2.0;
    format      ascii;
    class       volScalarField;
    location    "2.5";
    object      thCond;
}
// * * * * * * * * * * * * * * * * * * * * * * * * * * * * * * * * * * * * * //

dimensions      [1 1 -3 -1 0 0 0];

internalField   nonuniform List<scalar> 
114
(
190.232
190.032
190.019
189.933
189.895
189.906
190.25
190.258
190.121
189.954
189.758
189.712
189.84
190.112
190.199
189.977
189.97
189.956
189.755
189.836
189.71
190.385
190.414
190.101
190.088
189.869
189.756
189.724
189.834
189.891
190.166
190.087
189.858
189.836
189.624
189.558
189.679
189.51
189.703
190
190.164
189.851
189.686
189.645
189.54
189.47
189.495
189.652
189.845
190.041
190.258
190.02
190.047
189.838
189.74
189.698
189.648
189.665
189.805
190.194
189.907
189.955
189.757
189.556
189.508
189.382
189.56
189.756
189.961
189.922
189.722
189.653
189.273
189.36
189.278
189.27
189.368
190.172
189.666
189.475
189.501
190.731
190.273
190.37
189.954
189.898
189.96
189.762
189.789
189.888
190.297
190.115
190.244
189.948
189.647
189.674
189.803
189.658
189.79
190.121
189.989
189.667
189.66
189.525
189.374
189.532
189.52
189.572
190.052
189.969
189.624
189.634
189.284
189.422
)
;

boundaryField
{
    inlet
    {
        type            zeroGradient;
    }
    outlet
    {
        type            zeroGradient;
    }
    wall
    {
        type            zeroGradient;
    }
    procBoundary5to1
    {
        type            processor;
        value           nonuniform List<scalar> 
32
(
190.641
190.643
190.301
190.332
190.576
190.922
190.912
190.693
190.507
190.34
190.285
190.352
190.818
190.731
190.748
190.297
190.246
190.106
190.139
190.169
190.68
190.766
190.672
190.274
190.274
190.274
190.491
190.137
190.137
190.137
190.387
190.387
)
;
    }
    procBoundary5to4
    {
        type            processor;
        value           nonuniform List<scalar> 
12
(
190.206
190.114
190.263
190.273
190.038
189.984
190.08
190.113
190.211
190.095
190.162
190.226
)
;
    }
    procBoundary5to7
    {
        type            processor;
        value           nonuniform List<scalar> 
44
(
189.964
190.018
189.851
189.473
189.408
189.52
189.744
189.553
190.015
189.964
189.8
189.616
189.552
189.437
189.284
189.331
189.465
190.22
189.8
189.752
189.8
189.616
189.557
189.51
189.373
189.458
189.567
189.933
189.749
189.661
189.557
189.71
189.557
189.51
189.614
189.596
189.686
190.084
189.982
189.666
189.634
189.715
189.614
189.844
)
;
    }
}


// ************************************************************************* //
