/*--------------------------------*- C++ -*----------------------------------*\
  =========                 |
  \\      /  F ield         | OpenFOAM: The Open Source CFD Toolbox
   \\    /   O peration     | Website:  https://openfoam.org
    \\  /    A nd           | Version:  4.x
     \\/     M anipulation  |
\*---------------------------------------------------------------------------*/
FoamFile
{
    version     2.0;
    format      ascii;
    class       Cloud<passiveParticle>;
    location    0;
    object      positions;
}
// * * * * * * * * * * * * * * * * * * * * * * * * * * * * * * * * * * * * * //

235
(
( 0.253092 -0.0190678 -0.042867 ) 45
( 0.252491 -0.0641849 -0.0650923 ) 36
( 0.253496 -0.0738332 -0.0477365 ) 27
( 0.255707 -0.0383513 -0.0386509 ) 72
( 0.250429 -0.0262516 0.00333097 ) 86
( 0.256593 -0.0654408 0.0046398 ) 84
( 0.251338 -0.0232722 -0.016519 ) 72
( 0.257055 -0.0759786 -0.0139327 ) 81
( 0.252513 -0.0902799 -0.00143073 ) 81
( 0.353342 -0.0661878 -0.060377 ) 39
( 0.379204 -0.0900762 -0.06432 ) 31
( 0.402136 -0.0526106 -0.0631067 ) 41
( 0.312718 -0.0442494 -0.046118 ) 38
( 0.416287 -0.0899927 -0.0797953 ) 5
( 0.361942 -0.0749485 -0.0397858 ) 58
( 0.30273 -0.0282146 -0.0372959 ) 73
( 0.352787 -0.0311771 -0.0498671 ) 48
( 0.412349 -0.0901987 -0.0422735 ) 59
( 0.445893 -0.0468419 -0.035367 ) 70
( 0.47205 -0.0451822 -0.0595022 ) 43
( 0.288088 -0.0267568 -0.059714 ) 46
( 0.420421 -0.0900881 -0.0603155 ) 33
( 0.447502 -0.015014 -0.0453108 ) 52
( 0.33543 -0.0577456 -0.0578231 ) 39
( 0.437614 -0.0312944 -0.0632954 ) 51
( 0.300359 -0.042314 -0.061509 ) 46
( 0.406588 -0.0246645 -0.0793838 ) 23
( 0.490042 -0.0448193 -0.0457494 ) 44
( 0.336788 -0.076121 -0.0653111 ) 30
( 0.406273 -0.014821 -0.0567948 ) 50
( 0.34291 -0.0546569 -0.0244977 ) 66
( 0.273965 -0.0539845 -0.0586947 ) 36
( 0.478712 -0.0300434 -0.0283987 ) 80
( 0.359036 -0.0145103 -0.0795737 ) 21
( 0.431225 -0.04403 -0.0494519 ) 42
( 0.34155 -0.0338466 -0.0338401 ) 75
( 0.466865 -0.0214744 -0.0520532 ) 52
( 0.359351 -0.0509923 -0.0722144 ) 12
( 0.36215 -0.0502891 -0.0525425 ) 40
( 0.417938 -0.0295292 -0.0464017 ) 51
( 0.418361 -0.0725119 -0.0692831 ) 33
( 0.468597 -0.0739203 -0.0515349 ) 34
( 0.320839 -0.0476589 -0.0718159 ) 11
( 0.333236 -0.0393035 -0.0508991 ) 47
( 0.430073 -0.0585579 -0.0360498 ) 69
( 0.43745 -0.0728644 -0.0749137 ) 6
( 0.451545 -0.0901616 -0.0491599 ) 34
( 0.287386 -0.0901705 -0.0680347 ) 28
( 0.399889 -0.0731835 -0.0767169 ) 5
( 0.468112 -0.0412918 -0.0405648 ) 79
( 0.474047 -0.0209947 -0.0859637 ) 26
( 0.268561 -0.0224519 -0.0728259 ) 18
( 0.408904 -0.0444922 -0.0800073 ) 14
( 0.401499 -0.0900739 -0.0663652 ) 32
( 0.453086 -0.0190575 -0.0662399 ) 52
( 0.327461 -0.0742421 -0.0418291 ) 56
( 0.410532 -0.0722945 -0.0509317 ) 32
( 0.378645 -0.0676715 -0.0324119 ) 67
( 0.324253 -0.088162 -0.0751371 ) 2
( 0.339805 -0.0420745 -0.0694401 ) 48
( 0.436368 -0.0459074 -0.0767503 ) 15
( 0.269927 -0.0254204 -0.0348632 ) 72
( 0.272581 -0.086372 -0.0204078 ) 54
( 0.44059 -0.0583441 -0.0617856 ) 42
( 0.384469 -0.0609832 -0.066296 ) 40
( 0.380617 -0.0416966 -0.0342334 ) 76
( 0.408992 -0.0145478 -0.0371251 ) 77
( 0.456008 -0.0797172 -0.069643 ) 34
( 0.295168 -0.0697622 -0.0272192 ) 64
( 0.489844 -0.0756308 -0.0426411 ) 62
( 0.302337 -0.0900988 -0.0443562 ) 28
( 0.379122 -0.0429465 -0.0597949 ) 40
( 0.366536 -0.0276872 -0.0358954 ) 76
( 0.327989 -0.0901855 -0.0298099 ) 56
( 0.458162 -0.0530246 -0.0835692 ) 16
( 0.479895 -0.0739834 -0.0701051 ) 35
( 0.485329 -0.0614297 -0.0556809 ) 44
( 0.271766 -0.0170032 -0.0539731 ) 45
( 0.413652 -0.0531653 -0.0460876 ) 41
( 0.287446 -0.0667731 -0.0658434 ) 37
( 0.381215 -0.0262139 -0.049283 ) 49
( 0.298205 -0.0168901 -0.0737037 ) 19
( 0.356448 -0.0748674 -0.0779414 ) 3
( 0.347138 -0.0870861 -0.0351942 ) 57
( 0.45432 -0.0315381 -0.0842983 ) 25
( 0.483006 -0.0552173 -0.0827553 ) 17
( 0.37427 -0.0224591 -0.0675901 ) 49
( 0.307578 -0.0244565 -0.0561476 ) 47
( 0.271064 -0.0738545 -0.0570267 ) 27
( 0.425527 -0.0155722 -0.0617014 ) 51
( 0.315764 -0.0602818 -0.0573994 ) 38
( 0.439732 -0.0901027 -0.0650519 ) 33
( 0.356528 -0.0869533 -0.0547137 ) 30
( 0.43225 -0.090183 -0.0443669 ) 33
( 0.276003 -0.0669271 -0.0230587 ) 63
( 0.318051 -0.0900316 -0.0563714 ) 29
( 0.372064 -0.0731214 -0.0566981 ) 31
( 0.467838 -0.0611019 -0.0365218 ) 70
( 0.456176 -0.0531475 -0.0510336 ) 43
( 0.270504 -0.0901747 -0.0397992 ) 54
( 0.393331 -0.0275214 -0.064898 ) 50
( 0.30228 -0.0791179 -0.0613278 ) 28
( 0.3224 -0.0301416 -0.0362054 ) 74
( 0.268837 -0.085375 -0.0732184 ) 0
( 0.387916 -0.057715 -0.0468103 ) 40
( 0.391925 -0.0868579 -0.0277117 ) 59
( 0.490299 -0.0457864 -0.0668217 ) 44
( 0.417907 -0.0339027 -0.0657112 ) 51
( 0.48175 -0.0495864 -0.0283462 ) 71
( 0.279763 -0.0392431 -0.0466933 ) 46
( 0.490033 -0.025001 -0.043867 ) 53
( 0.436817 -0.0295508 -0.037026 ) 78
( 0.453972 -0.0421182 -0.0674322 ) 52
( 0.340874 -0.0223281 -0.0774131 ) 21
( 0.470343 -0.0888324 -0.082251 ) 7
( 0.476087 -0.0900788 -0.0427032 ) 62
( 0.436507 -0.0901252 -0.0846668 ) 6
( 0.37379 -0.0899955 -0.0451859 ) 31
( 0.430474 -0.0716125 -0.0510266 ) 33
( 0.2693 -0.0603894 -0.0404917 ) 63
( 0.451699 -0.0339568 -0.0494097 ) 52
( 0.288688 -0.0568947 -0.0440978 ) 37
( 0.302458 -0.0516025 -0.0307631 ) 64
( 0.393426 -0.090093 -0.0481679 ) 32
( 0.27867 -0.0396133 -0.0716174 ) 19
( 0.395835 -0.0397269 -0.049451 ) 50
( 0.337157 -0.0903834 -0.0515881 ) 30
( 0.421779 -0.0533783 -0.0650135 ) 42
( 0.324641 -0.0552061 -0.0323691 ) 65
( 0.345985 -0.063458 -0.0420181 ) 66
( 0.47138 -0.0902153 -0.0624285 ) 34
( 0.269806 -0.0649499 -0.0748336 ) 9
( 0.314723 -0.0706227 -0.0743733 ) 11
( 0.451148 -0.0771794 -0.0887943 ) 7
( 0.305668 -0.0705208 -0.0439021 ) 38
( 0.290022 -0.090076 -0.0289059 ) 55
( 0.395969 -0.0290397 -0.0328569 ) 77
( 0.372062 -0.0631124 -0.0816866 ) 13
( 0.388826 -0.0890097 -0.0817057 ) 4
( 0.490057 -0.0318993 -0.0811205 ) 26
( 0.460028 -0.0902569 -0.0313541 ) 61
( 0.356633 -0.0314432 -0.0692789 ) 48
( 0.314134 -0.0290678 -0.0743596 ) 20
( 0.460066 -0.0245648 -0.0328069 ) 79
( 0.4185 -0.0740971 -0.0327192 ) 60
( 0.49028 -0.0899291 -0.0563616 ) 35
( 0.339741 -0.0193688 -0.0146374 ) 75
( 0.297506 -0.0651217 0.0107544 ) 85
( 0.382057 -0.0281061 -0.0187464 ) 76
( 0.454546 -0.0159049 -0.014945 ) 79
( 0.293007 -0.0901501 -0.00932504 ) 82
( 0.4415 -0.0578236 -0.0196791 ) 69
( 0.30099 -0.0291383 -0.016852 ) 73
( 0.461216 -0.0479911 -0.0232262 ) 70
( 0.289537 -0.0840796 0.0124234 ) 82
( 0.399636 -0.039683 -0.0147394 ) 77
( 0.276693 -0.0520623 -0.0013272 ) 84
( 0.342358 -0.0900486 -0.0161131 ) 57
( 0.447346 -0.0336274 -0.0204319 ) 79
( 0.368092 -0.0533845 -0.0193659 ) 67
( 0.316172 -0.0412751 -0.0209374 ) 74
( 0.429227 -0.0730003 -0.0160135 ) 60
( 0.272901 -0.0903864 -0.000982915 ) 81
( 0.287337 -0.0514031 -0.0179807 ) 64
( 0.260486 -0.0431835 0.00586558 ) 84
( 0.354995 -0.030872 -0.0199066 ) 75
( 0.273256 -0.0710899 -0.00391855 ) 84
( 0.292266 -0.0678046 -0.00788073 ) 85
( 0.309211 -0.0901991 -0.0230578 ) 56
( 0.409905 -0.0237833 -0.0198704 ) 77
( 0.30686 -0.0903353 0.00470622 ) 83
( 0.386951 -0.0721884 -0.0150803 ) 58
( 0.267451 -0.0206046 -0.00522405 ) 86
( 0.43649 -0.0156865 -0.0227986 ) 78
( 0.429455 -0.0425218 -0.0239195 ) 78
( 0.325685 -0.0901782 0.0107308 ) 83
( 0.367037 -0.0151994 -0.0205767 ) 76
( 0.267794 -0.0415359 -0.0231925 ) 72
( 0.38859 -0.0422368 -0.0773507 ) 22
( 0.449952 -0.0708455 -0.045059 ) 43
( 0.284292 -0.0762334 -0.0424308 ) 55
( 0.421558 -0.059434 -0.0839831 ) 15
( 0.304768 -0.0515286 -0.00824473 ) 85
( 0.43939 -0.0188701 -0.0806961 ) 24
( 0.490025 -0.0900307 -0.0762563 ) 8
( 0.323145 -0.0903141 -0.00889953 ) 83
( 0.398825 -0.0696142 -0.0350455 ) 68
( 0.406714 -0.0722216 -0.0169941 ) 59
( 0.264081 -0.0349468 -0.0580278 ) 45
( 0.464391 -0.0619393 -0.0668564 ) 43
( 0.481928 -0.0282693 -0.0631133 ) 53
( 0.342351 -0.0605611 -0.0763571 ) 12
( 0.2559 -0.0900885 -0.0589122 ) 27
( 0.328578 -0.0234394 -0.0618426 ) 47
( 0.447285 -0.0754033 -0.0260492 ) 61
( 0.357671 -0.0453304 -0.0340048 ) 66
( 0.471733 -0.0392871 -0.0784489 ) 25
( 0.490259 -0.069725 -0.0238366 ) 71
( 0.413081 -0.0902444 -0.0224562 ) 59
( 0.255939 -0.0567023 -0.0182694 ) 63
( 0.334342 -0.0726435 -0.0231985 ) 57
( 0.353875 -0.0748061 -0.0215928 ) 57
( 0.254407 -0.0900333 -0.0275605 ) 54
( 0.286236 -0.034704 -0.0286534 ) 73
( 0.311085 -0.0737933 -0.00531327 ) 83
( 0.314919 -0.0715714 -0.026525 ) 56
( 0.293525 -0.0461848 0.00708002 ) 85
( 0.471642 -0.0761431 -0.0240526 ) 61
( 0.434876 -0.0904084 -0.0248449 ) 60
( 0.33503 -0.0385979 -0.0157736 ) 75
( 0.411301 -0.0507932 -0.0264645 ) 68
( 0.365189 -0.0901902 -0.0273643 ) 58
( 0.39122 -0.0549823 -0.0238895 ) 68
( 0.293336 -0.0518186 -0.0775324 ) 10
( 0.250013 -0.0799782 -0.0769034 ) 0
( 0.343825 -0.0901383 -0.0784273 ) 3
( 0.440664 -0.0602083 -0.0899442 ) 15
( 0.490039 -0.0733613 -0.0872435 ) 8
( 0.386869 -0.0225549 -0.0830744 ) 22
( 0.304617 -0.08988 -0.0780106 ) 1
( 0.469344 -0.0693164 -0.0863475 ) 16
( 0.424588 -0.0317273 -0.0843509 ) 24
( 0.36994 -0.0377229 -0.0827032 ) 22
( 0.395877 -0.0573378 -0.0880294 ) 14
( 0.329612 -0.0364848 -0.0857703 ) 20
( 0.263397 -0.0473607 -0.0817804 ) 9
( 0.296635 -0.0721764 -0.0826733 ) 1
( 0.297531 -0.0336302 -0.0844605 ) 19
( 0.333747 -0.0751403 -0.086876 ) 3
( 0.286783 -0.0894851 -0.0879192 ) 1
( 0.368897 -0.090045 -0.0813931 ) 4
( 0.322539 -0.0586826 -0.0883246 ) 11
( 0.350377 -0.0399166 -0.0862033 ) 21
( 0.276665 -0.0304679 -0.0892054 ) 18
( 0.310545 -0.0163698 -0.0893447 ) 20
)
