/*--------------------------------*- C++ -*----------------------------------*\
| =========                 |                                                 |
| \\      /  F ield         | OpenFOAM: The Open Source CFD Toolbox           |
|  \\    /   O peration     | Version:  4.x                                   |
|   \\  /    A nd           | Web:      www.OpenFOAM.org                      |
|    \\/     M anipulation  |                                                 |
\*---------------------------------------------------------------------------*/
FoamFile
{
    version     2.0;
    format      ascii;
    class       volScalarField;
    location    "58.5";
    object      p_rgh;
}
// * * * * * * * * * * * * * * * * * * * * * * * * * * * * * * * * * * * * * //

dimensions      [1 -1 -2 0 0 0 0];

internalField   nonuniform List<scalar> 
114
(
74.3178
94.987
55.9585
87.9761
37.2812
81.2395
109.146
92.1573
102.427
74.5437
95.4635
56.3912
88.5106
38.0159
81.7059
108.707
91.9037
102.005
74.2743
95.0547
56.1447
88.0804
37.4952
81.2715
108.429
91.8049
101.796
74.2384
94.9029
56.2513
88.0145
37.8907
81.3684
56.1517
88.538
37.234
81.6136
110.002
92.6828
103.242
74.798
96.1763
56.534
89.1169
37.8502
82.1484
109.506
92.3173
102.654
74.3981
95.5236
56.1233
88.4082
37.4048
81.5291
109.08
92.1382
102.312
74.348
95.2795
56.2202
88.2745
37.708
81.5029
37.8478
81.6122
110.877
93.1899
103.984
75.495
96.6646
57.4851
89.2048
39.2034
81.7417
110.419
92.9836
103.586
75.1131
96.3247
56.9603
89.1331
38.4837
81.9846
109.948
92.7058
103.069
74.9443
95.9042
57.0132
88.7719
38.5732
81.8814
111.45
93.6296
104.313
75.5982
96.8736
57.4086
89.4116
39.1352
110.787
93.1305
103.596
75.1056
96.1427
56.7465
88.7101
110.29
92.9215
103.227
75.0354
95.892
56.7846
)
;

boundaryField
{
    inlet
    {
        type            fixedFluxPressure;
        gradient        nonuniform List<scalar> 
12
(
-0.000641209
-0.000569073
-0.000533612
-0.000373482
-0.000333994
-0.000316926
-0.000162005
-0.000141126
-0.000133253
-1.76837e-07
-1.13105e-07
-3.10924e-08
)
;
        value           nonuniform List<scalar> 
12
(
109.146
108.707
108.429
110.002
109.506
109.08
110.877
110.419
109.948
111.45
110.787
110.29
)
;
    }
    outlet
    {
        type            fixedValue;
        value           nonuniform 0();
    }
    wall
    {
        type            fixedFluxPressure;
        gradient        nonuniform List<scalar> 
66
(
1.50957e-06
9.523e-07
4.22884e-07
5.52116e-06
4.94853e-06
2.7769e-06
3.07293e-06
2.27241e-06
2.62625e-07
5.8286e-06
7.35623e-06
4.87817e-06
1.40377e-06
3.07732e-06
3.90566e-06
2.83907e-06
2.01912e-06
5.95224e-06
6.77594e-06
3.89385e-06
2.43517e-06
2.34295e-06
2.17145e-06
1.93302e-06
1.1298e-06
2.82918e-06
3.1127e-06
3.64119e-06
2.03699e-06
1.02475e-06
7.71595e-07
1.32193e-06
1.98503e-07
-1.97593e-07
-8.14951e-08
-9.43651e-08
-4.28283e-08
-3.93005e-07
-3.71117e-07
-7.70501e-07
-1.0863e-06
-1.24297e-07
-2.20095e-07
-3.00897e-07
-5.4359e-07
8.13698e-06
-5.18629e-07
-6.97342e-07
-8.31762e-07
1.6199e-07
-1.66161e-07
-2.76385e-07
-4.2002e-07
-6.75297e-07
-6.18298e-07
-1.37611e-06
-1.02536e-06
-6.28999e-07
-7.45414e-07
-7.85903e-07
-2.24633e-08
-1.413e-06
-1.82203e-06
-1.65669e-06
-8.84798e-07
-1.24997e-06
)
;
        value           nonuniform List<scalar> 
66
(
109.146
108.707
108.429
92.1573
91.9037
91.8049
102.427
102.005
101.796
74.3178
74.5437
74.2743
74.2384
94.987
95.4635
95.0547
94.9029
55.9585
56.3912
56.1447
56.2513
87.9761
88.5106
88.0804
88.0145
37.2812
38.0159
37.4952
37.8907
81.2395
81.7059
81.2715
81.3684
108.429
109.08
109.948
110.29
91.8049
92.1382
92.7058
92.9215
101.796
102.312
103.069
103.227
74.2384
74.348
74.9443
75.0354
94.9029
95.2795
95.9042
95.892
56.2513
56.2202
57.0132
56.7846
88.0145
88.2745
88.7719
37.8907
37.708
38.5732
81.3684
81.5029
81.8814
)
;
    }
    procBoundary2to0
    {
        type            processor;
        value           nonuniform List<scalar> 
44
(
74.4036
95.151
56.1553
88.2217
37.8913
81.5112
108.92
92.0198
102.14
102.14
74.6425
95.8094
56.4515
88.9959
37.9289
82.1297
109.879
92.4208
102.961
74.6425
95.8094
95.8094
56.5675
88.7218
38.2344
81.752
110.75
93.0126
103.678
75.0585
96.1936
56.5675
88.7218
88.7218
38.6109
81.9516
111.244
93.5236
104.122
75.4243
96.5409
57.1572
89.0096
38.6109
)
;
    }
    procBoundary2to3
    {
        type            processor;
        value           nonuniform List<scalar> 
12
(
18.1985
19.4679
18.5123
19.4527
18.1288
19.4281
18.4385
18.9598
19.1713
21.3992
19.897
20.083
)
;
    }
    procBoundary2to6
    {
        type            processor;
        value           nonuniform List<scalar> 
32
(
82.0977
38.0005
81.5689
88.5997
38.3253
81.6034
112.105
93.8521
104.813
76.3556
97.1004
58.3584
89.1773
82.0977
38.0005
40.6025
111.451
93.5857
104.334
75.8057
96.9058
57.563
38.0005
88.5997
89.4399
110.879
93.3511
103.82
75.7287
96.551
88.5997
57.5395
)
;
    }
}


// ************************************************************************* //
