/*--------------------------------*- C++ -*----------------------------------*\
| =========                 |                                                 |
| \\      /  F ield         | OpenFOAM: The Open Source CFD Toolbox           |
|  \\    /   O peration     | Version:  4.x                                   |
|   \\  /    A nd           | Web:      www.OpenFOAM.org                      |
|    \\/     M anipulation  |                                                 |
\*---------------------------------------------------------------------------*/
FoamFile
{
    version     2.0;
    format      ascii;
    class       volScalarField;
    location    "58.5";
    object      particleRelTemp;
}
// * * * * * * * * * * * * * * * * * * * * * * * * * * * * * * * * * * * * * //

dimensions      [0 0 0 0 0 0 0];

internalField   nonuniform List<scalar> 
114
(
2.00768e-10
4.06192e-10
6.60008e-10
8.1407e-10
9.0695e-10
8.47841e-10
-3.27598e-10
-1.83869e-10
-3.16924e-11
1.54954e-10
3.39289e-10
5.27353e-10
6.32404e-10
7.26249e-10
6.75588e-10
-3.74187e-10
-2.5817e-10
-1.06645e-10
3.70462e-11
1.99715e-10
2.97084e-10
4.04557e-10
5.1069e-10
4.5794e-10
-3.73965e-10
-3.05406e-10
-1.98268e-10
-8.35491e-11
4.89473e-11
8.62991e-11
2.18394e-10
2.44046e-10
2.00347e-10
7.73403e-10
9.6989e-10
1.02145e-09
9.94896e-10
-3.41049e-10
-1.78124e-10
3.41596e-11
2.39492e-10
4.05354e-10
6.37183e-10
7.45981e-10
8.45641e-10
8.17858e-10
-3.50828e-10
-2.16129e-10
-5.55845e-11
1.23049e-10
2.59821e-10
3.69886e-10
4.82644e-10
5.64281e-10
5.52528e-10
-3.57627e-10
-2.57097e-10
-1.33108e-10
-3.52593e-12
1.01373e-10
2.03394e-10
2.74661e-10
3.36204e-10
2.78004e-10
1.14727e-09
1.0821e-09
-3.0025e-10
-1.51672e-10
7.28823e-11
2.88828e-10
5.16263e-10
7.17483e-10
8.25792e-10
8.98813e-10
8.33393e-10
-3.46835e-10
-1.93283e-10
2.02083e-11
1.74027e-10
3.81575e-10
4.94856e-10
5.7849e-10
5.79002e-10
5.19367e-10
-3.50662e-10
-2.3101e-10
-9.20371e-11
8.54888e-11
1.80207e-10
2.9796e-10
3.64345e-10
3.88086e-10
3.59121e-10
-2.97744e-10
-9.71302e-11
9.76876e-11
2.74869e-10
5.02577e-10
6.62304e-10
8.06245e-10
7.92453e-10
-3.40281e-10
-1.67539e-10
-3.05551e-11
1.83239e-10
3.54726e-10
5.00101e-10
4.97949e-10
-3.62292e-10
-2.29327e-10
-7.06193e-11
6.12647e-11
2.02729e-10
3.01048e-10
)
;

boundaryField
{
    inlet
    {
        type            calculated;
        value           nonuniform List<scalar> 
12
(
-3.27598e-10
-3.74187e-10
-3.73965e-10
-3.41049e-10
-3.50828e-10
-3.57627e-10
-3.0025e-10
-3.46835e-10
-3.50662e-10
-2.97744e-10
-3.40281e-10
-3.62292e-10
)
;
    }
    outlet
    {
        type            calculated;
        value           nonuniform 0();
    }
    wall
    {
        type            calculated;
        value           nonuniform List<scalar> 
66
(
-3.27598e-10
-3.74187e-10
-3.73965e-10
-1.83869e-10
-2.5817e-10
-3.05406e-10
-3.16924e-11
-1.06645e-10
-1.98268e-10
2.00768e-10
1.54954e-10
3.70462e-11
-8.35491e-11
4.06192e-10
3.39289e-10
1.99715e-10
4.89473e-11
6.60008e-10
5.27353e-10
2.97084e-10
8.62991e-11
8.1407e-10
6.32404e-10
4.04557e-10
2.18394e-10
9.0695e-10
7.26249e-10
5.1069e-10
2.44046e-10
8.47841e-10
6.75588e-10
4.5794e-10
2.00347e-10
-3.73965e-10
-3.57627e-10
-3.50662e-10
-3.62292e-10
-3.05406e-10
-2.57097e-10
-2.3101e-10
-2.29327e-10
-1.98268e-10
-1.33108e-10
-9.20371e-11
-7.06193e-11
-8.35491e-11
-3.52593e-12
8.54888e-11
6.12647e-11
4.89473e-11
1.01373e-10
1.80207e-10
2.02729e-10
8.62991e-11
2.03394e-10
2.9796e-10
3.01048e-10
2.18394e-10
2.74661e-10
3.64345e-10
2.44046e-10
3.36204e-10
3.88086e-10
2.00347e-10
2.78004e-10
3.59121e-10
)
;
    }
    procBoundary2to0
    {
        type            processor;
        value           nonuniform List<scalar> 
44
(
2.73709e-10
4.61717e-10
6.70986e-10
8.41318e-10
9.2611e-10
8.79104e-10
-3.60322e-10
-1.43286e-10
-6.42688e-11
-6.42688e-11
3.95873e-10
5.49555e-10
7.6668e-10
9.74845e-10
1.08726e-09
1.03788e-09
-2.90728e-10
-9.5839e-11
1.35495e-10
3.95873e-10
5.49555e-10
5.49555e-10
8.20372e-10
1.0959e-09
1.2392e-09
1.16593e-09
-2.84671e-10
-5.35607e-11
1.76902e-10
3.87506e-10
6.46342e-10
8.20372e-10
1.0959e-09
1.0959e-09
1.09505e-09
1.03648e-09
-2.87364e-10
-1.068e-10
1.30236e-10
4.01008e-10
6.32911e-10
8.37196e-10
1.04546e-09
1.09505e-09
)
;
    }
    procBoundary2to3
    {
        type            processor;
        value           nonuniform List<scalar> 
12
(
7.54358e-10
5.79389e-10
3.01112e-10
1.15679e-10
7.9233e-10
6.60552e-10
4.14024e-10
2.25058e-10
8.12752e-10
7.12699e-10
4.09063e-10
2.41293e-10
)
;
    }
    procBoundary2to6
    {
        type            processor;
        value           nonuniform List<scalar> 
32
(
7.73682e-10
4.59207e-10
4.54238e-10
3.11186e-10
3.53207e-10
2.38481e-10
-2.95459e-10
-1.34737e-10
6.11601e-11
2.81092e-10
4.8142e-10
5.72947e-10
6.54702e-10
7.73682e-10
4.59207e-10
5.94748e-10
-3.11856e-10
-2.06739e-10
-4.3308e-11
1.3692e-10
2.7141e-10
3.87157e-10
4.59207e-10
3.11186e-10
4.33613e-10
-3.55202e-10
-2.37455e-10
-1.24671e-10
5.35088e-11
1.37409e-10
3.11186e-10
2.51958e-10
)
;
    }
}


// ************************************************************************* //
