/*--------------------------------*- C++ -*----------------------------------*\
| =========                 |                                                 |
| \\      /  F ield         | OpenFOAM: The Open Source CFD Toolbox           |
|  \\    /   O peration     | Version:  4.x                                   |
|   \\  /    A nd           | Web:      www.OpenFOAM.org                      |
|    \\/     M anipulation  |                                                 |
\*---------------------------------------------------------------------------*/
FoamFile
{
    version     2.0;
    format      ascii;
    class       volScalarField;
    location    "17";
    object      KslNext;
}
// * * * * * * * * * * * * * * * * * * * * * * * * * * * * * * * * * * * * * //

dimensions      [1 -3 -1 0 0 0 0];

internalField   nonuniform List<scalar> 
132
(
32275
3877.33
67280.8
3913.64
5.06257e+09
4027.51
2.40436e+09
4130.7
31794.6
24440.8
3619.25
26610.9
3504.89
27309.4
3460.81
22418.6
3539.87
10942.9
16476.7
3603.18
16795.2
3491.95
15470.1
3470.7
11892.7
3522.66
4867.27
6763.36
3079.4
6602.64
2865.48
6589.97
2582.33
6727.2
2089.2
5101.22
9.809e+09
3891.38
1.83939e+09
3785.75
83299.8
3515.02
18655.9
1e+10
4105.41
1e+10
4115.6
4.68018e+09
4150.7
33739.5
4206.4
8307.55
39018.9
3933
108889
3989.62
2.73835e+09
4290.76
736456
4984.25
43518
9004.4
3417.84
9700.35
3403.01
10390.9
3448.62
11265.9
3706.62
11204.6
187382
4225.98
333824
4740.26
13505
31160.9
3686.16
46971.4
3610.8
73397.3
3561.01
88532.5
3767.05
22879.9
22570.2
3639.69
20646.2
3554.82
15191.4
3444.52
10264.1
3373.39
4616.35
6615.97
3076.87
6194.11
2904.81
5989.11
2594.26
5853.56
1952.36
5149.04
7936.59
3611.1
7375.65
10223.2
3418.06
10303.2
3434.85
11651.6
3602.27
15201.5
4223.08
13578.9
6903.95
3222.79
6664.75
3241.5
6748.92
3261.48
7043.39
3501.5
6967.4
5349.65
2979.09
5499.12
2976.42
5442.45
2820.53
4861.66
2593.11
3607.14
)
;

boundaryField
{
    inlet
    {
        type            zeroGradient;
    }
    outlet
    {
        type            zeroGradient;
    }
    wall
    {
        type            zeroGradient;
    }
    procBoundary7to0
    {
        type            processor;
        value           uniform 0;
    }
    procBoundary7to1
    {
        type            processor;
        value           uniform 0;
    }
    procBoundary7to3
    {
        type            processor;
        value           uniform 0;
    }
    procBoundary7to5
    {
        type            processor;
        value           uniform 0;
    }
    procBoundary7to6
    {
        type            processor;
        value           uniform 0;
    }
}


// ************************************************************************* //
