/*--------------------------------*- C++ -*----------------------------------*\
| =========                 |                                                 |
| \\      /  F ield         | OpenFOAM: The Open Source CFD Toolbox           |
|  \\    /   O peration     | Version:  4.x                                   |
|   \\  /    A nd           | Web:      www.OpenFOAM.org                      |
|    \\/     M anipulation  |                                                 |
\*---------------------------------------------------------------------------*/
FoamFile
{
    version     2.0;
    format      ascii;
    class       volScalarField;
    location    "17";
    object      QPartFluidCoeff;
}
// * * * * * * * * * * * * * * * * * * * * * * * * * * * * * * * * * * * * * //

dimensions      [1 -1 -3 -1 0 0 0];

internalField   nonuniform List<scalar> 
132
(
-3.44801e+07
-3.05669e+07
-2.17826e+07
-2.6466e+07
-3.70813e+07
-4.13372e+07
-2.69215e+07
-2.19812e+07
-2.01059e+07
-2.61965e+07
-3.85943e+07
-2.54826e+07
-2.75494e+07
-2.86647e+07
-2.37626e+07
-2.63961e+07
-2.65221e+07
-2.29493e+07
-1.75361e+07
-3.11853e+07
-2.30192e+07
-2.97659e+07
-2.77923e+07
-3.47877e+07
-2.92908e+07
-3.03179e+07
-2.5337e+07
-2.33882e+07
-2.49222e+07
-2.98467e+07
-1.99837e+07
-2.67842e+07
-2.7452e+07
-2.77483e+07
-2.51484e+07
-1.34411e+07
-2.18809e+07
-2.87118e+07
-2.31475e+07
-2.72039e+07
-2.95673e+07
-3.35346e+07
-1.98592e+07
-1.28794e+07
-3.34906e+07
-2.44345e+07
-2.92329e+07
-2.86459e+07
-2.73728e+07
-1.93187e+07
-2.98877e+07
-1.62076e+07
-2.01204e+07
-3.36623e+07
-2.52575e+07
-2.43275e+07
-2.75116e+07
-3.5207e+07
-3.21674e+07
-2.8064e+07
-2.13761e+07
-2.24367e+07
-2.87364e+07
-2.08048e+07
-2.6976e+07
-2.47965e+07
-2.27863e+07
-2.21205e+07
-2.96673e+07
-1.5169e+07
-1.60703e+07
-2.31502e+07
-2.60265e+07
-2.36978e+07
-1.41956e+07
-2.88598e+07
-3.03438e+07
-2.37865e+07
-2.16302e+07
-3.01624e+07
-2.9143e+07
-2.51127e+07
-3.50869e+07
-2.14368e+07
-2.68129e+07
-3.11655e+07
-2.83235e+07
-2.96151e+07
-3.09877e+07
-3.26745e+07
-3.01081e+07
-3.0469e+07
-2.46033e+07
-1.9808e+07
-2.42582e+07
-2.40246e+07
-2.71757e+07
-2.21298e+07
-2.34383e+07
-2.86782e+07
-2.96031e+07
-1.97929e+07
-1.91631e+07
-2.43636e+07
-1.6201e+07
-2.37818e+07
-2.29564e+07
-2.47508e+07
-2.82788e+07
-1.69912e+07
-1.58394e+07
-2.22553e+07
-2.38987e+07
-1.45316e+07
-2.07675e+07
-2.22662e+07
-2.10481e+07
-2.55002e+07
-2.47585e+07
-2.36609e+07
-2.555e+07
-2.48299e+07
-2.15768e+07
-1.99508e+07
-2.71747e+07
-1.94086e+07
-2.36372e+07
-2.45497e+07
-2.3536e+07
-2.25133e+07
-2.46488e+07
-1.41151e+07
)
;

boundaryField
{
    inlet
    {
        type            calculated;
        value           nonuniform 0();
    }
    outlet
    {
        type            calculated;
        value           uniform 0;
    }
    wall
    {
        type            calculated;
        value           uniform 0;
    }
    procBoundary7to0
    {
        type            processor;
        value           uniform 199.368;
    }
    procBoundary7to1
    {
        type            processor;
        value           uniform 460.288;
    }
    procBoundary7to3
    {
        type            processor;
        value           nonuniform List<scalar> 
36
(
614.948
813.93
681.714
765.566
489.803
586.964
684.326
638.198
508.399
734.267
466.547
616.784
380.218
332.658
727.02
601.413
858.395
431.597
456.69
773.479
693.283
545.178
552.309
753.565
615.988
718.189
365.21
660.803
365.628
436.844
526.871
488.616
653.577
492.53
739.181
585.226
)
;
    }
    procBoundary7to5
    {
        type            processor;
        value           nonuniform List<scalar> 
44
(
771.189
479.607
677.712
458.962
412.176
574.161
477.314
476.768
781.42
382.406
556.107
688.642
468.832
629.266
546.13
605.14
311.4
781.42
382.406
382.406
716.553
731.964
868.513
703.175
683.449
814.86
590.695
399.177
869.022
716.553
731.964
731.964
774.491
617.125
522.555
584.573
485.107
529.215
477.925
545.142
494.032
774.491
617.125
617.125
)
;
    }
    procBoundary7to6
    {
        type            processor;
        value           nonuniform List<scalar> 
12
(
619.924
671.607
420.191
754.747
705.288
656.437
717.565
744.102
512.231
335.648
629.128
534.923
)
;
    }
}


// ************************************************************************* //
