/*--------------------------------*- C++ -*----------------------------------*\
| =========                 |                                                 |
| \\      /  F ield         | OpenFOAM: The Open Source CFD Toolbox           |
|  \\    /   O peration     | Version:  4.x                                   |
|   \\  /    A nd           | Web:      www.OpenFOAM.org                      |
|    \\/     M anipulation  |                                                 |
\*---------------------------------------------------------------------------*/
FoamFile
{
    version     2.0;
    format      ascii;
    class       volScalarField;
    location    "17";
    object      QWallFluidCoeff;
}
// * * * * * * * * * * * * * * * * * * * * * * * * * * * * * * * * * * * * * //

dimensions      [1 -1 -3 -1 0 0 0];

internalField   nonuniform List<scalar> 
132
(
0
0
0
0
0
0
0
0
0
0
0
0
0
0
0
0
0
0
0
0
0
0
0
0
0
0
0
-1.58947e+06
-2.98252e+06
-1.60475e+06
-3.14228e+06
-1.61016e+06
-3.42123e+06
-1.56503e+06
-4.00962e+06
-1.89985e+06
0
0
0
0
0
0
0
0
0
0
0
0
0
0
0
0
0
0
0
0
0
0
0
0
0
-1.24025e+06
-2.69061e+06
-1.16174e+06
-2.69236e+06
-1.09515e+06
-2.65527e+06
-1.01532e+06
-2.4581e+06
-993643
0
0
0
0
0
0
0
0
0
0
0
0
0
0
0
0
0
0
0
0
0
0
0
-1.57535e+06
-2.90403e+06
-1.64639e+06
-3.04435e+06
-1.69795e+06
-3.34378e+06
-1.71143e+06
-4.10961e+06
-1.85159e+06
-1.31607e+06
-2.45535e+06
-1.35597e+06
-1.10277e+06
-2.65839e+06
-1.08481e+06
-2.63036e+06
-980905
-2.51431e+06
-779096
-2.15556e+06
-831100
-1.51114e+06
-2.7793e+06
-1.54606e+06
-2.77841e+06
-1.52711e+06
-2.72542e+06
-1.45247e+06
-2.53229e+06
-1.4307e+06
-3.69214e+06
-5.89283e+06
-3.60238e+06
-5.9537e+06
-3.64215e+06
-6.12732e+06
-3.91807e+06
-6.48519e+06
-4.91556e+06
)
;

boundaryField
{
    inlet
    {
        type            calculated;
        value           nonuniform 0();
    }
    outlet
    {
        type            calculated;
        value           uniform 0;
    }
    wall
    {
        type            calculated;
        value           uniform 0;
    }
    procBoundary7to0
    {
        type            processor;
        value           uniform 0;
    }
    procBoundary7to1
    {
        type            processor;
        value           uniform 0;
    }
    procBoundary7to3
    {
        type            processor;
        value           uniform 0;
    }
    procBoundary7to5
    {
        type            processor;
        value           uniform 0;
    }
    procBoundary7to6
    {
        type            processor;
        value           uniform 0;
    }
}


// ************************************************************************* //
