/*--------------------------------*- C++ -*----------------------------------*\
| =========                 |                                                 |
| \\      /  F ield         | OpenFOAM: The Open Source CFD Toolbox           |
|  \\    /   O peration     | Version:  4.x                                   |
|   \\  /    A nd           | Web:      www.OpenFOAM.org                      |
|    \\/     M anipulation  |                                                 |
\*---------------------------------------------------------------------------*/
FoamFile
{
    version     2.0;
    format      ascii;
    class       volScalarField;
    location    "17";
    object      SPartFluid;
}
// * * * * * * * * * * * * * * * * * * * * * * * * * * * * * * * * * * * * * //

dimensions      [1 -3 -1 0 0 0 0];

internalField   nonuniform List<scalar> 
132
(
9.91708e-65
7.82525e-65
6.4308e-65
6.74093e-65
1.03054e-64
1.03833e-64
7.98146e-65
5.6569e-65
8.3692e-65
7.67049e-65
9.45255e-65
7.28329e-65
6.89603e-65
8.29106e-65
5.65669e-65
7.51662e-65
6.35442e-65
8.05932e-65
4.80396e-65
7.43845e-65
6.12138e-65
7.1288e-65
7.43893e-65
8.05908e-65
7.51679e-65
7.20694e-65
8.60191e-65
6.50885e-65
6.58646e-65
8.67864e-65
5.50177e-65
7.28417e-65
6.74193e-65
7.90445e-65
5.8897e-65
4.3398e-65
6.43104e-65
7.36099e-65
6.74129e-65
6.89648e-65
8.60145e-65
8.44668e-65
7.36187e-65
3.95165e-65
8.52322e-65
7.4385e-65
7.51619e-65
8.13629e-65
7.0516e-65
5.73439e-65
7.67184e-65
5.73455e-65
5.50155e-65
8.21359e-65
6.97387e-65
6.04414e-65
7.3616e-65
8.60166e-65
8.91176e-65
7.05204e-65
7.98201e-65
6.74154e-65
7.90394e-65
5.96671e-65
7.20672e-65
7.36178e-65
6.19956e-65
6.58706e-65
7.98211e-65
5.34725e-65
5.03673e-65
5.81179e-65
7.36179e-65
6.04449e-65
5.81207e-65
8.05875e-65
7.36127e-65
6.81895e-65
5.1918e-65
8.52396e-65
7.05176e-65
7.12941e-65
8.75687e-65
7.51699e-65
7.05161e-65
7.36158e-65
7.51656e-65
6.97423e-65
7.98169e-65
7.59443e-65
7.67199e-65
7.05213e-65
7.74961e-65
5.57951e-65
6.35438e-65
7.05184e-65
6.89693e-65
6.12205e-65
5.26974e-65
7.59463e-65
7.05226e-65
5.81231e-65
5.50207e-65
6.4321e-65
6.12217e-65
6.89664e-65
5.81183e-65
7.67156e-65
7.43922e-65
5.19203e-65
3.87473e-65
6.89703e-65
6.66463e-65
5.42472e-65
5.96696e-65
6.04448e-65
6.04447e-65
6.19951e-65
6.89699e-65
6.35465e-65
7.2071e-65
6.43227e-65
7.28474e-65
6.04461e-65
7.43954e-65
5.65713e-65
5.81219e-65
6.58715e-65
6.50975e-65
6.50976e-65
6.35485e-65
4.10745e-65
)
;

boundaryField
{
    inlet
    {
        type            calculated;
        value           nonuniform 0();
    }
    outlet
    {
        type            calculated;
        value           uniform 0;
    }
    wall
    {
        type            calculated;
        value           uniform 0;
    }
    procBoundary7to0
    {
        type            processor;
        value           uniform 2.32423e-65;
    }
    procBoundary7to1
    {
        type            processor;
        value           uniform 5.73323e-65;
    }
    procBoundary7to3
    {
        type            processor;
        value           nonuniform List<scalar> 
36
(
7.67004e-65
9.06466e-65
8.75501e-65
8.52292e-65
6.12125e-65
6.2765e-65
8.52387e-65
7.12926e-65
7.43928e-65
9.06474e-65
5.03611e-65
7.74806e-65
4.33907e-65
4.6492e-65
7.90391e-65
7.28416e-65
8.83419e-65
6.12199e-65
5.11374e-65
8.13564e-65
8.21334e-65
5.81144e-65
6.81901e-65
7.98162e-65
6.66441e-65
7.20696e-65
5.42466e-65
8.52319e-65
4.02929e-65
5.42416e-65
6.12175e-65
5.5794e-65
7.12944e-65
6.19962e-65
7.9046e-65
8.52456e-65
)
;
    }
    procBoundary7to5
    {
        type            processor;
        value           nonuniform List<scalar> 
44
(
8.44495e-65
6.04331e-65
7.51566e-65
5.73374e-65
4.57171e-65
7.28401e-65
5.42441e-65
8.67914e-65
9.99515e-65
4.33897e-65
7.28321e-65
7.59334e-65
6.19886e-65
7.05145e-65
7.12912e-65
6.89682e-65
5.5795e-65
9.99515e-65
4.33897e-65
4.33897e-65
8.98844e-65
7.98124e-65
1.00735e-64
7.36157e-65
8.21416e-65
8.91175e-65
8.67935e-65
4.8041e-65
9.37581e-65
8.98844e-65
7.98124e-65
7.98124e-65
9.68637e-65
7.7493e-65
6.50945e-65
6.74206e-65
6.81962e-65
7.36147e-65
5.65671e-65
7.12898e-65
5.57932e-65
9.68637e-65
7.7493e-65
7.7493e-65
)
;
    }
    procBoundary7to6
    {
        type            processor;
        value           nonuniform List<scalar> 
12
(
6.74068e-65
7.12833e-65
4.9591e-65
8.52321e-65
7.59371e-65
7.51646e-65
7.90374e-65
7.74896e-65
5.65699e-65
3.79713e-65
7.8268e-65
6.04464e-65
)
;
    }
}


// ************************************************************************* //
