/*--------------------------------*- C++ -*----------------------------------*\
  =========                 |
  \\      /  F ield         | OpenFOAM: The Open Source CFD Toolbox
   \\    /   O peration     | Website:  https://openfoam.org
    \\  /    A nd           | Version:  4.x
     \\/     M anipulation  |
\*---------------------------------------------------------------------------*/
FoamFile
{
    version     2.0;
    format      ascii;
    class       vectorField;
    location    0;
    object      v;
}
// * * * * * * * * * * * * * * * * * * * * * * * * * * * * * * * * * * * * * //

348
(
( -3.33643e-07 -3.68034e-08 3.78457e-08 )  
( -3.38332e-07 -3.21468e-08 4.81896e-08 )  
( -3.20838e-07 -2.97916e-08 5.90981e-08 )  
( -7.70745e-08 3.01894e-10 3.51169e-08 )  
( -2.44071e-07 -2.31773e-08 3.3483e-08 )  
( -3.3675e-08 1.21257e-09 2.77427e-08 )  
( -4.08188e-08 1.55158e-08 2.75226e-08 )  
( -2.06311e-08 4.12758e-09 4.51977e-09 )  
( -2.11389e-07 1.29357e-08 2.84439e-08 )  
( -4.97953e-08 2.06893e-08 1.90764e-08 )  
( -8.37815e-08 1.77052e-08 -3.25779e-09 )  
( -3.44808e-08 3.12419e-08 3.14441e-08 )  
( -1.03357e-07 1.42913e-08 1.95839e-08 )  
( -9.15714e-08 1.40476e-08 6.97108e-09 )  
( -5.8158e-08 2.1773e-08 2.4385e-08 )  
( -2.95108e-07 -2.47532e-08 9.54155e-08 )  
( -1.40051e-07 2.46059e-08 1.48461e-08 )  
( -8.62563e-08 9.3676e-09 1.62866e-08 )  
( -2.74571e-07 -2.19539e-08 8.51743e-08 )  
( -2.35264e-07 -7.51245e-09 4.16113e-08 )  
( -1.1136e-07 2.56056e-08 8.15933e-09 )  
( -2.99021e-07 -2.95222e-08 7.3783e-08 )  
( -2.61217e-07 2.96814e-09 6.96798e-08 )  
( -1.90556e-07 1.61686e-08 4.70735e-08 )  
( -1.35136e-07 2.24422e-08 -4.76035e-10 )  
( -2.11077e-07 5.20892e-09 2.09146e-08 )  
( -3.66565e-08 8.19489e-09 -3.33527e-09 )  
( -1.63069e-08 4.16765e-09 1.59618e-08 )  
( -7.42528e-08 2.60063e-07 3.49574e-08 )  
( -1.74542e-07 1.3268e-08 3.84786e-08 )  
( -9.10544e-08 1.91362e-08 1.1998e-08 )  
( -4.01411e-08 8.39609e-09 2.71931e-08 )  
( -2.09012e-07 -1.41071e-08 3.87447e-08 )  
( -3.97806e-08 9.04284e-09 6.40185e-09 )  
( -1.95658e-07 2.7948e-08 2.81659e-08 )  
( -9.71283e-08 6.33698e-09 -1.53689e-09 )  
( -8.15701e-08 5.95222e-09 2.86106e-08 )  
( -4.59302e-08 1.94847e-09 2.38933e-08 )  
( -2.30291e-07 -3.0531e-08 4.26872e-08 )  
( -1.13106e-07 5.22126e-09 -6.44657e-09 )  
( -6.06905e-08 2.78263e-08 4.65255e-09 )  
( -6.24858e-08 3.10818e-08 5.9668e-08 )  
( -1.4296e-07 8.79113e-09 -7.3375e-09 )  
( -2.1971e-07 1.75883e-08 6.29883e-08 )  
( -2.70577e-07 -1.34991e-08 5.91244e-08 )  
( -1.22827e-07 2.96079e-08 4.96201e-09 )  
( -2.27087e-07 1.14682e-08 5.70212e-08 )  
( -1.55938e-07 1.38154e-10 1.52064e-09 )  
( -1.25042e-07 1.47792e-09 -1.08867e-09 )  
( -5.29103e-07 -2.72581e-07 6.78251e-08 )  
( -2.28123e-07 7.47321e-09 9.18538e-08 )  
( -1.18172e-07 6.77181e-09 -8.34504e-09 )  
( -1.43287e-07 6.78141e-09 2.3471e-08 )  
( -5.59486e-08 1.11205e-08 -6.4487e-09 )  
( -1.63227e-07 2.21522e-08 -1.8891e-09 )  
( -2.40599e-07 6.43369e-09 3.56859e-09 )  
( -1.73983e-08 4.22282e-09 1.36688e-08 )  
( -6.40452e-08 2.77828e-09 1.14903e-08 )  
( -2.26089e-07 4.43562e-09 4.51141e-08 )  
( -1.31318e-08 1.59413e-08 1.13718e-08 )  
( -3.9994e-08 1.13958e-08 3.02561e-08 )  
( -4.19814e-08 3.68819e-09 7.96232e-09 )  
( -1.59764e-08 7.14954e-09 1.52457e-08 )  
( -2.73095e-08 1.08813e-08 8.89244e-09 )  
( -3.42427e-08 -1.7741e-09 1.94094e-08 )  
( -6.88207e-08 2.65726e-08 5.37247e-09 )  
( -1.00343e-07 8.88471e-09 -4.59417e-09 )  
( -9.54555e-08 7.38664e-09 -1.90953e-09 )  
( -2.14864e-07 7.44889e-09 2.84391e-08 )  
( -2.38823e-07 1.20749e-08 5.03811e-08 )  
( -1.77339e-07 3.08949e-09 1.68344e-08 )  
( -3.27969e-07 -3.50221e-08 3.98707e-08 )  
( -5.31981e-08 2.57196e-08 1.84503e-08 )  
( -2.06112e-07 4.29118e-09 2.84298e-08 )  
( -3.0383e-07 -5.04903e-08 3.49433e-08 )  
( -1.59264e-07 1.88103e-08 -7.71821e-09 )  
( -6.84627e-08 2.03765e-08 8.04447e-09 )  
( -8.73685e-08 -2.0144e-10 9.33196e-09 )  
( -2.71912e-07 -2.27058e-08 7.60007e-08 )  
( -2.59689e-07 -2.26231e-08 6.13041e-08 )  
( -4.03481e-08 2.48691e-09 2.32096e-08 )  
( -1.60275e-07 -3.0909e-08 2.85228e-08 )  
( -1.86941e-07 -2.63573e-08 3.4729e-08 )  
( -2.54937e-07 1.02738e-08 6.20474e-08 )  
( -3.77825e-08 2.50923e-08 3.9661e-08 )  
( -1.68129e-08 2.13644e-08 6.61498e-09 )  
( -1.74055e-08 1.39924e-08 2.33221e-08 )  
( -2.52286e-07 -3.10063e-08 4.82236e-08 )  
( -1.88541e-07 3.15585e-08 3.75243e-08 )  
( -3.32792e-08 1.08022e-08 3.98693e-08 )  
( -1.34705e-07 2.61118e-08 -8.90046e-10 )  
( -1.73207e-07 -6.89451e-10 2.15722e-08 )  
( -5.36391e-08 3.15248e-08 3.07614e-09 )  
( -2.51253e-07 -1.74206e-08 2.13259e-08 )  
( -2.32719e-07 1.49e-08 4.86877e-08 )  
( -1.96144e-08 4.29503e-09 -6.59751e-09 )  
( -1.58921e-08 2.34437e-08 3.66676e-09 )  
( -2.65788e-07 -3.15431e-08 5.92648e-08 )  
( -2.73333e-08 1.03354e-08 2.16245e-08 )  
( -1.23539e-07 1.2291e-08 -3.87659e-09 )  
( -5.94173e-08 4.00615e-09 2.71933e-08 )  
( -3.98303e-08 1.3371e-08 2.03717e-08 )  
( -1.39504e-07 1.4308e-08 -6.05058e-09 )  
( -1.13704e-07 -1.17523e-08 -2.26975e-08 )  
( -4.41673e-08 1.91884e-08 8.5441e-09 )  
( -2.43549e-07 -1.54354e-08 4.05961e-08 )  
( -3.88113e-08 1.02443e-08 2.66249e-08 )  
( -1.87371e-07 -1.1967e-09 5.26549e-09 )  
( -1.96425e-07 8.6175e-09 2.34804e-08 )  
( -5.87521e-07 -3.68522e-09 -1.14302e-08 )  
( -7.52229e-08 5.9382e-09 2.04869e-08 )  
( -1.40541e-07 -1.19174e-08 1.08872e-08 )  
( -7.8155e-08 1.75313e-08 1.1749e-08 )  
( -2.47225e-07 -3.90526e-08 3.10403e-08 )  
( -6.36288e-08 1.04538e-09 1.88237e-08 )  
( -5.25152e-08 -4.49703e-09 3.19454e-08 )  
( -1.5617e-07 -2.26346e-09 3.72581e-09 )  
( -2.47142e-08 -2.56934e-09 1.29797e-08 )  
( -4.29377e-08 2.10412e-08 -8.2304e-10 )  
( -3.10273e-07 -2.88542e-08 6.22634e-08 )  
( -1.01735e-08 6.72036e-09 1.20046e-08 )  
( -8.06791e-08 1.504e-08 4.30195e-10 )  
( -1.07148e-08 1.05231e-08 -8.52705e-09 )  
( -2.10576e-07 -3.63082e-08 1.97374e-08 )  
( -2.23906e-07 -3.55557e-08 3.14174e-08 )  
( -3.18009e-07 -4.50811e-08 2.99179e-09 )  
( -1.62071e-07 3.6522e-08 2.08167e-08 )  
( -1.39137e-07 -6.56384e-09 2.41628e-09 )  
( -6.702e-08 8.86243e-09 1.31123e-08 )  
( -6.01688e-08 -2.27165e-09 -5.08665e-09 )  
( -2.1651e-07 -4.11217e-08 2.64687e-08 )  
( -1.61471e-07 2.52699e-08 1.66536e-08 )  
( -6.27092e-08 -1.66464e-08 1.66027e-08 )  
( -2.94889e-07 -7.78972e-09 4.867e-08 )  
( -3.18292e-07 -5.1857e-08 2.05618e-08 )  
( -2.49064e-07 -4.24159e-08 3.11139e-08 )  
( -2.06051e-08 1.06184e-09 -1.41731e-08 )  
( -2.6088e-07 3.35275e-08 1.79762e-08 )  
( -1.41895e-07 -9.2866e-09 -1.42751e-08 )  
( -4.03234e-08 7.32343e-09 4.81794e-09 )  
( -2.62046e-07 -1.87299e-08 -6.97798e-09 )  
( -2.01533e-08 4.92499e-09 4.22399e-09 )  
( -3.00941e-08 4.72903e-09 -2.47121e-08 )  
( -1.53184e-08 -2.66518e-08 3.36662e-08 )  
( -2.28887e-07 -7.23079e-08 4.51512e-08 )  
( -2.38265e-07 -3.8455e-08 7.90357e-09 )  
( -1.581e-07 -4.27983e-09 1.66463e-08 )  
( -1.13511e-07 -1.09815e-09 -1.44683e-08 )  
( -4.32939e-08 3.80301e-09 3.51027e-09 )  
( -1.16173e-07 -1.16351e-08 5.8875e-10 )  
( -4.58286e-08 1.11876e-08 5.068e-10 )  
( -1.6884e-07 -1.30977e-08 4.70177e-10 )  
( -1.27973e-08 -1.32089e-08 -6.23516e-09 )  
( -2.28083e-07 -2.28394e-08 4.02837e-08 )  
( -1.70208e-07 -2.92526e-08 6.84371e-09 )  
( -4.01719e-08 2.60776e-09 -4.27596e-09 )  
( -2.15406e-08 -3.97479e-09 8.12699e-09 )  
( -2.02483e-08 5.24361e-09 4.46654e-09 )  
( -2.11664e-07 -4.10523e-08 2.95648e-08 )  
( -2.01418e-08 -6.20552e-09 -3.24387e-09 )  
( -3.25319e-07 -4.68404e-08 1.51814e-08 )  
( -1.08403e-07 -1.90761e-08 -6.06329e-09 )  
( -1.31756e-07 -8.96284e-09 9.96065e-09 )  
( -2.28367e-07 -2.3998e-08 2.62707e-08 )  
( -2.69996e-07 -4.9989e-08 1.14439e-08 )  
( -1.51065e-07 -1.9855e-08 -6.64657e-09 )  
( -4.19535e-08 -8.22657e-09 -1.52929e-08 )  
( -2.67365e-07 -3.42329e-08 3.90943e-08 )  
( -1.97725e-07 -4.07023e-08 -1.02248e-08 )  
( -1.31608e-07 -8.14371e-09 -9.3908e-09 )  
( -3.28066e-07 -4.62335e-08 1.42751e-08 )  
( -3.14801e-07 -5.13899e-08 7.08067e-09 )  
( -3.1798e-07 -2.3243e-08 -1.21324e-08 )  
( -9.64308e-08 -8.04463e-09 -8.2257e-09 )  
( -3.42018e-08 1.0516e-08 1.89481e-09 )  
( -2.55363e-08 -6.05853e-09 6.85348e-09 )  
( -2.71245e-07 -2.66913e-08 9.83353e-09 )  
( -1.87924e-07 -1.58105e-08 -3.902e-09 )  
( -6.79736e-08 6.95499e-09 2.46563e-09 )  
( -2.1956e-07 -1.09041e-08 2.95928e-08 )  
( -1.70362e-07 -3.04505e-09 2.10418e-08 )  
( -4.16231e-08 1.75037e-08 2.1629e-08 )  
( -2.47788e-07 -1.75717e-08 3.81348e-08 )  
( -1.68184e-07 -1.90323e-08 -6.97895e-09 )  
( -2.70567e-07 -3.73216e-08 2.4538e-08 )  
( -2.94837e-07 -2.23872e-07 2.55979e-07 )  
( -4.24209e-08 5.09818e-09 8.42246e-09 )  
( -3.14948e-07 -2.08551e-08 4.22369e-08 )  
( -2.87448e-07 -2.35122e-08 6.55752e-08 )  
( -2.04711e-07 1.88403e-08 1.43775e-08 )  
( -3.13273e-08 5.6022e-09 -1.61353e-08 )  
( -1.4834e-07 -9.15155e-09 4.74928e-09 )  
( -7.12701e-08 2.59697e-09 1.47467e-08 )  
( -1.06161e-07 -2.03016e-09 -6.3209e-09 )  
( -6.06147e-08 1.43815e-08 6.27786e-09 )  
( -2.68703e-07 1.45625e-09 1.78928e-08 )  
( -2.34016e-07 -4.63427e-08 3.59257e-08 )  
( -2.53928e-08 1.15646e-11 -2.03617e-08 )  
( -2.34271e-07 -3.14003e-08 3.08145e-08 )  
( -2.15068e-08 9.51168e-09 2.96484e-08 )  
( -9.73888e-08 -3.99192e-09 -2.18401e-08 )  
( -7.12004e-09 3.26223e-09 -1.0317e-09 )  
( -2.19098e-07 -2.53227e-08 3.1802e-08 )  
( -1.61603e-08 1.04014e-09 -7.38976e-09 )  
( -2.12708e-07 -1.73799e-08 2.55589e-08 )  
( -2.26675e-07 -5.53413e-08 4.31332e-08 )  
( -2.58512e-07 -2.68076e-09 1.77736e-08 )  
( -1.3958e-07 -2.15143e-09 3.09854e-08 )  
( -3.16841e-07 -6.45244e-08 1.92971e-08 )  
( -4.47166e-08 1.68354e-08 8.14275e-09 )  
( -5.68542e-08 -5.99453e-09 1.94499e-08 )  
( -2.02106e-07 -4.50617e-09 2.6004e-08 )  
( -9.71681e-08 3.64751e-09 1.33203e-08 )  
( -1.25376e-07 -4.95251e-09 -3.92144e-09 )  
( -1.71737e-07 1.40056e-09 1.04623e-08 )  
( -4.36737e-08 1.05766e-08 4.99114e-08 )  
( -2.46838e-07 -9.4137e-09 -2.52609e-08 )  
( -1.63959e-07 -3.80954e-08 -2.39863e-10 )  
( -3.19804e-07 -2.39099e-08 5.94817e-08 )  
( -7.65373e-08 -1.17017e-08 -1.73887e-08 )  
( -1.55929e-07 3.31064e-08 1.45328e-08 )  
( -7.06422e-08 2.17197e-08 2.16552e-08 )  
( -2.54838e-08 9.30527e-09 7.65303e-09 )  
( -1.16025e-08 -7.76147e-09 -3.51497e-09 )  
( -4.5911e-06 -1.56879e-06 1.30339e-07 )  
( -7.72383e-08 -2.69548e-09 1.42517e-08 )  
( -1.53277e-08 7.0624e-10 8.23726e-09 )  
( -8.46515e-08 -2.26692e-08 -1.94904e-08 )  
( -2.91779e-07 -2.00247e-08 6.48002e-08 )  
( -1.96992e-07 -7.70959e-08 4.86281e-08 )  
( -2.60076e-07 -2.95644e-08 9.37467e-09 )  
( -1.0369e-07 -2.50877e-09 1.82654e-09 )  
( -2.91061e-07 -5.27698e-08 2.06298e-08 )  
( -1.06711e-07 -5.66166e-08 6.73128e-10 )  
( -2.66219e-07 -4.37612e-08 -1.21249e-08 )  
( -1.06277e-07 -1.79562e-08 -2.31867e-09 )  
( -1.12473e-07 -6.41058e-10 -5.01007e-09 )  
( -2.18318e-08 1.3009e-09 -7.30351e-09 )  
( -4.84318e-08 1.26504e-08 -1.89614e-08 )  
( -2.13811e-07 -1.10152e-09 3.16904e-08 )  
( -2.45053e-07 -5.58742e-09 2.09524e-08 )  
( -2.3372e-07 -3.83625e-08 2.56747e-08 )  
( -3.43344e-07 -3.31812e-08 3.21008e-08 )  
( -3.02079e-07 -1.36166e-08 -2.22223e-08 )  
( -2.03929e-07 -3.29365e-08 -1.75823e-08 )  
( -2.64984e-08 -4.5993e-09 2.19121e-09 )  
( -1.27995e-07 -3.60733e-08 1.13061e-08 )  
( -1.5802e-08 -1.38301e-08 3.01141e-08 )  
( -1.94149e-08 -7.94762e-09 -2.11038e-09 )  
( -1.45208e-07 5.19709e-09 -1.40108e-09 )  
( -2.4318e-07 -3.89227e-08 9.23808e-09 )  
( -3.20376e-08 -9.01526e-09 -5.62899e-09 )  
( -2.04387e-07 -3.00473e-08 3.49291e-08 )  
( -8.10377e-08 -3.7767e-09 -6.03049e-09 )  
( -4.37244e-09 -3.49109e-09 9.62686e-09 )  
( -2.03414e-07 -2.39011e-08 1.60505e-08 )  
( -3.53114e-08 2.34079e-09 -1.25991e-09 )  
( -1.53364e-07 -2.88087e-09 1.25647e-09 )  
( -7.41033e-08 -1.75023e-08 -1.16098e-08 )  
( -8.17886e-08 -8.85679e-09 -8.57038e-09 )  
( -1.31845e-07 -3.03861e-08 9.80361e-09 )  
( -2.53012e-07 -3.00769e-08 2.22863e-08 )  
( -2.21438e-07 -4.54807e-08 3.96977e-09 )  
( -2.66243e-07 -4.83397e-08 -2.04651e-08 )  
( -1.34916e-08 -2.12199e-08 -9.01556e-09 )  
( -8.95517e-08 -1.40839e-08 -1.0698e-08 )  
( -1.10748e-07 -2.21354e-08 5.33468e-10 )  
( -2.65781e-07 -1.57563e-09 9.40548e-09 )  
( -1.59941e-08 1.9978e-09 -2.28349e-09 )  
( -2.38347e-07 -4.59651e-08 4.22252e-08 )  
( -3.05481e-07 9.01146e-09 1.53986e-08 )  
( -5.4473e-08 -1.23952e-08 -1.88392e-08 )  
( -2.61306e-07 -3.10982e-08 -3.90198e-10 )  
( -1.09702e-08 -1.40846e-08 -1.77704e-08 )  
( -2.48533e-07 -1.51345e-08 3.32008e-08 )  
( -8.20773e-08 -1.70146e-08 1.46101e-08 )  
( -1.93939e-07 -1.38257e-08 6.32167e-08 )  
( -3.91407e-08 9.96908e-09 -3.98264e-09 )  
( -1.00904e-07 -2.38661e-08 -3.35276e-09 )  
( -8.44648e-08 1.62758e-07 5.5225e-08 )  
( -3.03843e-07 -1.21733e-08 -2.64818e-08 )  
( -7.93723e-08 -1.60141e-08 -1.26877e-08 )  
( -2.8954e-07 -2.90252e-08 -1.05935e-08 )  
( -1.25093e-07 -2.35853e-08 -8.85455e-09 )  
( -2.51299e-07 4.0046e-08 1.19924e-08 )  
( -6.864e-08 1.12225e-08 2.86771e-08 )  
( -9.7169e-08 3.30756e-08 -1.57624e-09 )  
( -2.98467e-08 -6.95908e-09 2.49587e-09 )  
( -2.04748e-08 -5.28222e-09 1.30769e-08 )  
( -1.07147e-07 1.29539e-08 2.02441e-08 )  
( -1.09285e-07 1.23968e-10 -3.11136e-09 )  
( -2.03767e-07 5.757e-08 -3.02488e-08 )  
( -9.84825e-08 -5.02852e-08 1.57174e-09 )  
( -8.81796e-08 2.71752e-08 2.86226e-08 )  
( -1.98127e-09 -4.46326e-09 1.08045e-08 )  
( -4.80339e-08 -1.03434e-08 -2.54299e-08 )  
( -1.84777e-08 -2.56315e-09 -2.2771e-09 )  
( -1.65021e-07 -6.32076e-08 5.37855e-09 )  
( -5.91019e-08 -1.39599e-08 -1.86238e-09 )  
( -1.41277e-08 -3.82573e-08 3.6886e-08 )  
( -1.17914e-07 4.81167e-09 1.9496e-09 )  
( -7.06854e-08 -1.89347e-08 -1.19936e-08 )  
( -3.84244e-08 -1.06809e-09 7.36919e-09 )  
( -1.16102e-07 -4.20263e-10 3.80343e-09 )  
( -3.92175e-07 6.58822e-08 5.5873e-08 )  
( -1.90951e-07 1.14156e-09 1.81395e-09 )  
( -5.10564e-08 -1.15701e-10 6.73568e-09 )  
( -3.93643e-08 -9.5234e-09 -1.62808e-08 )  
( -2.96108e-09 -1.04185e-09 2.17617e-09 )  
( -1.51232e-07 -5.20291e-08 -1.35094e-08 )  
( -2.39833e-07 -4.82767e-08 3.88808e-08 )  
( -6.37821e-09 -1.9421e-08 -7.18941e-09 )  
( -1.64599e-08 -1.28374e-07 -1.13546e-08 )  
( -8.21037e-08 9.31221e-09 7.7937e-09 )  
( -1.96397e-07 7.97577e-08 1.79031e-08 )  
( -3.04296e-07 -1.76425e-08 5.72833e-09 )  
( -1.94469e-07 -2.38661e-09 -1.41164e-09 )  
( -1.31916e-08 -2.82368e-08 -3.65566e-09 )  
( -5.35551e-08 -7.16419e-09 -1.27669e-08 )  
( -6.11633e-08 -1.4562e-08 -5.48606e-09 )  
( -3.3129e-08 -2.74822e-09 -4.46456e-09 )  
( -2.50063e-07 -4.11377e-08 7.71615e-09 )  
( -1.6869e-07 -3.45806e-09 7.62846e-09 )  
( -6.48258e-07 1.47677e-07 1.24509e-07 )  
( -8.24433e-08 3.55415e-08 2.17276e-09 )  
( -5.43072e-08 -2.02579e-08 -1.11858e-08 )  
( -4.3098e-09 -1.17841e-09 4.05001e-09 )  
( -2.71105e-07 -1.24263e-07 -1.00758e-08 )  
( -9.74117e-08 -2.43061e-09 -6.55134e-09 )  
( -9.78502e-08 3.65366e-08 -1.34611e-08 )  
( -2.63244e-09 -3.07139e-09 3.30748e-09 )  
( -8.56483e-09 -6.46329e-09 -4.2309e-09 )  
( -1.99944e-08 -6.62411e-09 2.23397e-11 )  
( -2.50292e-07 2.33412e-08 6.80632e-09 )  
( -2.53895e-08 3.05418e-08 3.00569e-08 )  
( -3.71168e-08 -3.86308e-09 -5.81427e-09 )  
( -7.53346e-08 4.31983e-09 -1.70472e-08 )  
( -5.20327e-09 -1.09268e-08 -1.50708e-08 )  
( -1.11815e-08 -3.42718e-09 -8.23054e-09 )  
( -1.70123e-07 -3.55446e-08 5.29708e-08 )  
( -1.38818e-07 -1.25397e-08 1.16047e-08 )  
( -2.24881e-08 1.24019e-09 1.8718e-09 )  
( -1.1937e-08 -3.14727e-08 2.26184e-08 )  
( -1.98598e-07 2.17284e-08 1.19633e-09 )  
( -6.23722e-09 -7.11212e-09 5.24332e-09 )  
( -1.66974e-07 -2.97989e-08 -1.19083e-08 )  
( -1.14712e-07 1.04659e-08 1.1897e-08 )  
( -8.95216e-08 -1.27692e-08 -2.43401e-09 )  
)
