/*--------------------------------*- C++ -*----------------------------------*\
| =========                 |                                                 |
| \\      /  F ield         | OpenFOAM: The Open Source CFD Toolbox           |
|  \\    /   O peration     | Version:  4.x                                   |
|   \\  /    A nd           | Web:      www.OpenFOAM.org                      |
|    \\/     M anipulation  |                                                 |
\*---------------------------------------------------------------------------*/
FoamFile
{
    version     2.0;
    format      ascii;
    class       volVectorField;
    location    "32";
    object      GField;
}
// * * * * * * * * * * * * * * * * * * * * * * * * * * * * * * * * * * * * * //

dimensions      [1 -2 -1 0 0 0 0];

internalField   nonuniform List<vector> 
114
(
(96.214 1.73781 0.017234)
(21.3554 0.692017 -1.96843)
(85.4707 1.63702 1.89193)
(8.09687 0.562436 -1.10456)
(64.7623 -1.36104 6.24117)
(11.4545 2.22202 0.693351)
(3.12282 -0.622801 -0.381859)
(89.4762 2.80341 1.12007)
(6.8546e-05 -2.41381e-05 -1.62564e-05)
(86.2302 5.84259 5.04748)
(0.533167 -0.164824 -0.171167)
(76.9796 9.97965 12.3272)
(8.07943 -1.43145 -3.83281)
(81.123 1.44377 -0.264295)
(-6.14291e-06 -5.06205e-06 2.17586e-05)
(80.0139 1.42822 0.286622)
(-5.60342e-06 -3.95448e-06 -5.55166e-06)
(77.7813 0.620595 2.86089)
(3.89082 -0.745797 -0.823227)
(70.4349 2.03766 7.1298)
(27.2075 -3.13128 -3.20082)
(44.0644 -0.997246 0.0258556)
(105.657 -0.954533 1.16991)
(42.0749 -1.4547 1.28564)
(109.548 0.602668 2.43707)
(38.4375 -3.18008 3.09714)
(115.033 3.12458 2.30487)
(31.3622 -7.3165 6.75519)
(128.498 7.74258 -3.38479)
(22.881 -22.7675 20.5698)
(7.84272 -0.927731 0.113073)
(91.5472 0.0518572 1.14593)
(2.49279 -0.461164 0.115838)
(92.0925 1.09269 1.40557)
(2.55664 -0.759339 0.330797)
(90.8792 4.07076 1.48209)
(11.7778 -6.18731 3.71721)
(85.1681 9.39613 -1.49167)
(30.4384 -32.4154 21.4153)
(1.05095e-05 -9.56584e-06 2.2519e-05)
(87.2929 0.820143 -0.354207)
(2.6867e-06 -8.97654e-06 2.67056e-05)
(87.917 0.0854458 1.26498)
(0.120269 -0.0424266 0.0288878)
(89.373 -0.972703 2.79615)
(4.59239 -2.08363 1.58737)
(82.6162 6.60871 -0.486574)
(17.4447 -7.57854 5.79991)
(3.71434e-06 -9.42652e-06 2.28105e-05)
(84.2644 -0.523804 0.477928)
(43.758 0.178363 -1.33382)
(101.612 0.100661 -0.18882)
(41.4889 0.974069 -1.4077)
(103.187 1.083 -0.587708)
(37.5809 1.637 -0.681525)
(103.752 2.07755 -1.21856)
(29.0036 2.27034 2.23611)
(100.732 2.1686 -6.16879)
(13.4263 2.62856 8.51171)
(22.0537 -1.23634 -0.38556)
(94.3859 -0.878037 0.577872)
(19.179 -1.65915 -0.00371423)
(96.8756 1.15909 -0.983244)
(16.9318 -2.34566 0.896615)
(99.6748 5.64103 -3.32435)
(16.5745 -3.86447 3.72911)
(105.463 12.9757 -9.18849)
(17.3481 -10.2813 16.4255)
(6.22399 -0.276981 0.123516)
(87.6658 0.63538 -0.743661)
(0.830612 -0.0533849 0.0544363)
(86.3771 2.04056 -0.0164157)
(0.646567 -0.0580036 0.0954271)
(82.5834 2.72762 0.138949)
(9.70114 -1.53811 3.20322)
(74.6778 3.95271 -2.43089)
(29.0508 -10.6587 24.8824)
(6.63675 -0.170715 0.716283)
(89.2032 0.994073 -0.0993132)
(5.27095 -0.15717 0.96356)
(90.7916 0.025249 0.0264648)
(65.4014 -0.466832 1.83105)
(116.111 -0.484583 2.10118)
(67.7164 -0.266856 2.69391)
(123.391 -0.0149464 1.62599)
(67.1576 -1.37369 5.94974)
(137.521 0.748625 0.401824)
(60.7518 -5.19407 14.5442)
(170.508 3.5291 -5.92204)
(31.9156 -21.3853 33.0444)
(51.7743 -2.68944 0.985396)
(107.815 -2.17976 1.39282)
(52.0663 -3.51422 0.97845)
(112.813 -1.01333 0.169872)
(49.0606 -4.96892 1.97434)
(119.478 1.8087 -1.83367)
(40.3207 -8.31075 4.89315)
(129.375 10.0197 -7.63676)
(18.354 -17.2456 9.3884)
(40.5638 -1.54389 1.13049)
(100.658 -0.996868 1.21438)
(38.3479 -2.01331 2.02885)
(103.872 -0.361411 0.180675)
(37.0159 -2.48528 4.64135)
(110.34 1.44391 -2.87871)
(34.3473 -3.30154 10.3585)
(127.591 5.47702 -11.0993)
(22.6437 -3.03184 24.9259)
(40.3586 -1.5414 0.641824)
(101.227 -1.57521 0.217832)
(37.7349 -2.40658 0.651642)
(103.974 -2.03396 -1.38962)
(34.3765 -4.11398 1.6715)
(109.999 -1.2201 -2.07461)
)
;

boundaryField
{
    inlet
    {
        type            calculated;
        value           nonuniform 0();
    }
    outlet
    {
        type            calculated;
        value           nonuniform List<vector> 
12
(
(25.1404 4.87688 1.52177)
(17.769 -3.14816 -8.42945)
(60.0627 -6.91253 -7.06606)
(50.2647 -50.0155 45.1876)
(67.2101 -71.5756 47.2866)
(38.5716 -16.7568 12.8241)
(29.5824 5.79153 18.7539)
(38.2478 -22.6674 36.2137)
(64.7957 -23.7735 55.4984)
(69.8293 -46.7897 72.2991)
(40.4326 -37.9908 20.682)
(50.2137 -6.72327 55.2746)
)
;
    }
    wall
    {
        type            calculated;
        value           uniform (0 0 0);
    }
    procBoundary5to1
    {
        type            processor;
        value           nonuniform List<vector> 
32
(
(115.016 1.54724 -3.60419)
(42.4602 -0.221951 -9.94296)
(120.502 3.08878 -0.898456)
(33.5708 -2.69846 -17.0391)
(128.771 6.00357 11.8177)
(19.2515 -7.58306 -27.9419)
(20.4183 -1.29176 -3.10808)
(103.46 1.97366 -0.22059)
(19.2773 -2.96849 -5.07541)
(107.015 4.37667 3.24948)
(20.6142 -7.61992 -10.11)
(111.774 10.4153 12.9352)
(18.0742 -20.4134 -16.8408)
(91.9221 0.257337 0.872733)
(4.8104 -0.714183 -1.62378)
(92.695 0.734781 1.71636)
(7.59337 -2.21697 -3.5503)
(92.6143 0.607649 4.45918)
(13.9568 -8.06482 -8.49614)
(88.0909 8.86949 11.8267)
(28.7184 -27.0282 -13.8308)
(42.0869 -0.198556 -1.74093)
(101.354 0.135799 -0.935684)
(34.1776 0.656398 -1.78879)
(34.1776 0.656398 -1.78879)
(34.1776 0.656398 -1.78879)
(9.90838 -1.38508 -0.810468)
(89.687 0.790702 -0.979564)
(89.687 0.790702 -0.979564)
(89.687 0.790702 -0.979564)
(3.49904e-06 -8.1792e-06 2.19927e-05)
(3.49904e-06 -8.1792e-06 2.19927e-05)
)
;
    }
    procBoundary5to4
    {
        type            processor;
        value           nonuniform List<vector> 
12
(
(102.21 -1.69644 -0.133299)
(90.9738 -1.43863 0.600309)
(87.3722 0.481308 -0.954828)
(84.0391 0.132544 -0.0740083)
(100.447 -0.685856 0.407568)
(92.8737 -1.72395 1.27784)
(87.9365 0.0300891 0.336946)
(88.1975 -0.533036 0.524599)
(110.623 -1.00225 2.30985)
(104.255 -2.32851 1.9662)
(98.6682 -0.82681 1.91344)
(99.12 -1.3188 1.13883)
)
;
    }
    procBoundary5to7
    {
        type            processor;
        value           nonuniform List<vector> 
44
(
(84.2254 0.96484 -0.0390944)
(-8.48567e-06 9.03215e-07 1.95194e-05)
(85.0799 2.0295 1.12447)
(-6.29285e-06 7.46583e-06 -6.72833e-06)
(84.3431 1.42699 4.06435)
(6.1946e-06 1.0857e-05 -2.8792e-05)
(76.5146 -4.57736 9.78535)
(20.3166 4.29314 -0.527402)
(-1.12187e-06 -5.65438e-06 1.93741e-05)
(84.2254 0.96484 -0.0390944)
(-2.56266e-06 -1.11716e-05 2.43521e-05)
(84.4205 -0.478287 2.29444)
(4.70709e-06 -1.29139e-06 9.71045e-06)
(82.9532 -0.581016 4.19938)
(1.23221e-05 -3.02811e-06 -2.39951e-06)
(73.3304 2.23193 0.569295)
(20.2776 -3.10004 7.30976)
(-7.80998e-07 -4.93513e-06 1.54179e-05)
(-2.56266e-06 -1.11716e-05 2.43521e-05)
(83.5107 -0.158763 -0.167063)
(-2.56266e-06 -1.11716e-05 2.43521e-05)
(84.4205 -0.478287 2.29444)
(9.17694 -0.581877 2.78115)
(91.8138 -0.73716 1.30216)
(17.1108 -1.69614 9.31851)
(86.9959 0.674336 -6.81932)
(29.5217 -3.63564 33.7604)
(0.00201054 1.30215e-05 0.00010141)
(85.252 0.188975 -1.16071)
(4.58062e-06 -6.17885e-06 1.76367e-05)
(9.17694 -0.581877 2.78115)
(84.2443 -0.791341 -0.455905)
(9.17694 -0.581877 2.78115)
(91.8138 -0.73716 1.30216)
(33.3752 -9.16357 5.63593)
(126.824 4.8281 -4.73634)
(23.214 -19.2916 19.0333)
(30.8684 -0.395615 0.390191)
(94.6573 -0.316274 -1.01244)
(23.5496 -0.863395 0.374383)
(93.3132 -0.827357 -1.63361)
(16.1264 -1.42317 1.18688)
(33.3752 -9.16357 5.63593)
(91.7848 -1.34856 -3.5658)
)
;
    }
}


// ************************************************************************* //
