/*--------------------------------*- C++ -*----------------------------------*\
| =========                 |                                                 |
| \\      /  F ield         | OpenFOAM: The Open Source CFD Toolbox           |
|  \\    /   O peration     | Version:  4.x                                   |
|   \\  /    A nd           | Web:      www.OpenFOAM.org                      |
|    \\/     M anipulation  |                                                 |
\*---------------------------------------------------------------------------*/
FoamFile
{
    version     2.0;
    format      ascii;
    class       volScalarField;
    location    "32";
    object      p_rgh;
}
// * * * * * * * * * * * * * * * * * * * * * * * * * * * * * * * * * * * * * //

dimensions      [1 -1 -2 0 0 0 0];

internalField   nonuniform List<scalar> 
114
(
69.2032
-16.4902
63.1025
-33.9168
56.3685
-48.0472
1.71811
68.802
-16.7883
62.7946
-34.6992
56.8191
-50.5178
75.1318
4.63675
68.5185
-12.929
61.7861
-29.883
54.1224
-45.3905
19.5819
74.9519
0.434476
68.7487
-19.7847
63.5075
-41.3064
60.2681
-66.1094
19.8103
75.058
0.896939
68.4084
-18.3286
62.3416
-37.3223
57.5685
-54.5706
21.0983
74.8569
2.80304
68.4683
-15.9915
62.4923
-34.7848
57.5792
-52.1476
22.1664
74.8742
20.4747
75.1354
1.51962
68.7451
-17.6869
62.9019
-37.1776
57.8916
-59.0081
20.3293
75.1244
1.15723
68.5698
-18.3523
62.5449
-38.3294
57.5803
-58.5677
21.1683
75.2409
2.74037
68.3025
-15.6549
61.2907
-33.5623
54.4978
-49.1626
20.9278
74.9433
2.01815
68.0442
20.1639
74.8303
0.917651
68.6876
-19.5596
63.6809
-42.6455
61.8893
-53.2326
20.1909
74.8939
0.95723
68.6592
-19.0984
63.2801
-40.6332
60.0945
-65.5175
20.8813
75.0562
1.95987
68.5107
-17.7607
62.601
-38.8179
58.4586
-64.3502
20.7755
74.9744
1.7801
68.5206
-17.9898
62.6386
)
;

boundaryField
{
    inlet
    {
        type            fixedFluxPressure;
        gradient        nonuniform 0();
        value           nonuniform 0();
    }
    outlet
    {
        type            fixedValue;
        value           uniform 0;
    }
    wall
    {
        type            fixedFluxPressure;
        gradient        nonuniform List<scalar> 
66
(
1.27287e-05
2.62788e-05
2.26187e-05
2.33352e-05
8.28556e-06
1.3681e-05
1.26038e-05
1.34044e-05
1.56088e-05
3.45949e-05
4.0738e-05
2.89953e-05
2.00939e-05
1.60285e-05
6.72584e-06
7.93386e-06
2.17553e-06
1.53443e-05
8.20696e-06
9.68173e-06
2.92658e-06
7.28115e-07
-4.19062e-06
-2.37684e-06
-3.13115e-06
-8.48255e-06
-1.33083e-05
-1.54531e-05
-6.02215e-06
-5.3756e-06
-0.000104325
-1.02776e-05
-1.32906e-06
-1.38588e-06
6.26318e-06
5.37525e-06
3.79026e-06
4.82084e-06
1.56414e-06
1.21135e-05
2.00128e-05
6.60311e-06
-1.06195e-05
1.06485e-06
2.64901e-05
1.19884e-05
-2.89273e-05
-1.04454e-05
-6.58548e-06
-5.6537e-06
-1.11166e-05
-6.15599e-06
-4.81419e-06
-1.06296e-06
-0.000124371
-2.43891e-05
-1.43525e-05
-5.44665e-06
-2.00471e-05
-4.56242e-06
-5.65112e-06
-9.12409e-06
-5.19662e-05
-9.45064e-06
5.92853e-05
-8.04008e-05
)
;
        value           nonuniform List<scalar> 
66
(
20.1639
20.1909
20.8813
20.7755
74.8303
74.8939
75.0562
74.9744
0.917651
0.95723
1.95987
1.7801
68.6876
68.6592
68.5107
68.5206
-19.5596
-19.0984
-17.7607
-17.9898
63.6809
63.2801
62.601
62.6386
-42.6455
-40.6332
-38.8179
61.8893
60.0945
58.4586
-53.2326
-65.5175
-64.3502
19.5819
20.4747
20.1639
74.9519
75.1354
74.8303
0.434476
1.51962
0.917651
69.2032
68.7487
68.7451
68.6876
-16.4902
-19.7847
-17.6869
-19.5596
63.1025
63.5075
62.9019
63.6809
-33.9168
-41.3064
-37.1776
-42.6455
56.3685
60.2681
57.8916
61.8893
-48.0473
-66.1094
-59.0081
-53.2326
)
;
    }
    procBoundary5to1
    {
        type            processor;
        value           nonuniform List<scalar> 
32
(
68.9104
-21.1438
64.1022
-43.2102
61.8259
-64.9105
-0.611366
68.7091
-20.7593
63.4813
-41.4123
60.3131
-60.5521
74.8101
0.683386
68.512
-18.5471
63.1204
-37.6193
59.1977
-54.6713
20.4973
75.4273
2.02295
2.02295
2.02295
20.4734
75.3673
75.3673
75.3673
22.3606
22.3606
)
;
    }
    procBoundary5to4
    {
        type            processor;
        value           nonuniform List<scalar> 
12
(
81.6324
81.9586
81.8954
81.834
81.8772
82.0083
82.2187
81.9929
81.4515
81.6467
81.8453
81.7796
)
;
    }
    procBoundary5to7
    {
        type            processor;
        value           nonuniform List<scalar> 
44
(
75.0374
4.45469
68.4993
-13.8275
62.6352
-32.2503
56.5102
-48.8115
22.6544
75.0374
4.18012
68.3459
-14.1379
62.4714
-32.2403
55.8641
-48.3527
22.038
4.18012
74.9703
4.18012
68.3459
-17.1322
61.7956
-36.2292
56.5679
-53.424
21.4984
75.0074
3.21612
-17.1322
68.2601
-17.1322
61.7956
-38.9632
58.4762
-64.2683
21.424
75.2791
2.91048
68.7174
-15.9505
-38.9632
62.3756
)
;
    }
}


// ************************************************************************* //
