/*--------------------------------*- C++ -*----------------------------------*\
| =========                 |                                                 |
| \\      /  F ield         | OpenFOAM: The Open Source CFD Toolbox           |
|  \\    /   O peration     | Version:  4.x                                   |
|   \\  /    A nd           | Web:      www.OpenFOAM.org                      |
|    \\/     M anipulation  |                                                 |
\*---------------------------------------------------------------------------*/
FoamFile
{
    version     2.0;
    format      ascii;
    class       volScalarField;
    location    "32";
    object      particleRelTemp;
}
// * * * * * * * * * * * * * * * * * * * * * * * * * * * * * * * * * * * * * //

dimensions      [0 0 0 0 0 0 0];

internalField   nonuniform List<scalar> 
114
(
1.17447e-09
1.28611e-09
1.33685e-09
1.44103e-09
1.49053e-09
1.63591e-09
1.72728e-09
1.7694e-09
2.04983e-09
2.08433e-09
2.17233e-09
2.12453e-09
2.33101e-09
2.04326e-09
2.31451e-09
2.457e-09
2.52547e-09
2.56274e-09
2.65895e-09
2.68195e-09
2.86709e-09
4.93429e-10
5.71559e-10
9.53066e-10
8.92825e-10
1.09506e-09
1.07268e-09
1.2268e-09
1.14991e-09
1.40041e-09
9.55107e-10
1.22639e-09
1.51089e-09
1.53349e-09
1.80417e-09
1.83604e-09
1.87481e-09
1.94613e-09
2.06628e-09
1.58597e-09
2.03929e-09
2.09546e-09
2.28761e-09
2.3509e-09
2.38199e-09
2.50487e-09
2.61071e-09
2.63563e-09
1.74313e-09
2.23757e-09
1.4677e-10
2.38671e-10
4.3827e-10
4.13817e-10
6.09332e-10
3.37865e-10
6.20153e-10
5.69015e-10
9.64472e-10
6.43267e-10
7.74633e-10
8.92468e-10
1.10011e-09
1.20622e-09
1.33496e-09
1.17952e-09
1.14841e-09
1.45978e-09
1.19336e-09
1.39388e-09
1.54899e-09
1.67087e-09
1.85749e-09
1.88648e-09
1.93334e-09
1.97629e-09
2.08151e-09
1.08111e-09
1.50067e-09
1.74552e-09
1.96405e-09
-4.58736e-10
-3.38693e-10
-4.12302e-10
-1.91966e-10
-5.71075e-11
-2.58821e-10
-7.52056e-11
-8.38137e-11
2.62565e-10
4.9644e-11
1.70861e-10
3.15116e-10
4.51561e-10
5.07028e-10
5.79682e-10
6.81368e-10
6.30095e-10
9.0073e-10
5.35498e-10
6.8001e-10
9.18567e-10
1.06317e-09
1.27637e-09
1.36282e-09
1.28359e-09
1.27963e-09
1.39317e-09
6.31747e-10
8.65851e-10
1.1689e-09
1.34828e-09
1.61016e-09
1.58434e-09
)
;

boundaryField
{
    inlet
    {
        type            calculated;
        value           nonuniform 0();
    }
    outlet
    {
        type            calculated;
        value           nonuniform List<scalar> 
12
(
1.63591e-09
2.33101e-09
2.86709e-09
1.40041e-09
2.06628e-09
2.63563e-09
9.64472e-10
1.45978e-09
2.08151e-09
2.62565e-10
9.0073e-10
1.39317e-09
)
;
    }
    wall
    {
        type            calculated;
        value           nonuniform List<scalar> 
66
(
-4.58736e-10
4.9644e-11
5.35498e-10
6.31747e-10
-3.38693e-10
1.70861e-10
6.8001e-10
8.65851e-10
-4.12302e-10
3.15116e-10
9.18567e-10
1.1689e-09
-1.91966e-10
4.51561e-10
1.06317e-09
1.34828e-09
-5.71075e-11
5.07028e-10
1.27637e-09
1.61016e-09
-2.58821e-10
5.79682e-10
1.36282e-09
1.58434e-09
-7.52056e-11
6.81368e-10
1.28359e-09
-8.38137e-11
6.30095e-10
1.27963e-09
2.62565e-10
9.0073e-10
1.39317e-09
4.93429e-10
1.4677e-10
-4.58736e-10
5.71559e-10
2.38671e-10
-3.38693e-10
9.53066e-10
4.3827e-10
-4.12302e-10
1.17447e-09
8.92825e-10
4.13817e-10
-1.91966e-10
1.28611e-09
1.09506e-09
6.09332e-10
-5.71075e-11
1.33685e-09
1.07268e-09
3.37865e-10
-2.58821e-10
1.44103e-09
1.2268e-09
6.20153e-10
-7.52056e-11
1.49053e-09
1.14991e-09
5.69015e-10
-8.38137e-11
1.63591e-09
1.40041e-09
9.64472e-10
2.62565e-10
)
;
    }
    procBoundary5to1
    {
        type            processor;
        value           nonuniform List<scalar> 
32
(
9.36493e-10
1.04686e-09
1.20219e-09
1.28334e-09
1.17521e-09
1.31381e-09
1.33198e-09
1.48338e-09
1.67749e-09
1.72842e-09
1.82789e-09
1.92164e-09
2.12522e-09
1.80683e-09
1.87053e-09
2.20999e-09
2.29276e-09
2.3672e-09
2.38152e-09
2.56299e-09
2.53768e-09
5.19189e-10
7.01479e-10
9.78192e-10
9.78192e-10
9.78192e-10
1.12982e-09
1.46557e-09
1.46557e-09
1.46557e-09
1.72716e-09
1.72716e-09
)
;
    }
    procBoundary5to4
    {
        type            processor;
        value           nonuniform List<scalar> 
12
(
1.51591e-10
7.33031e-10
1.18712e-09
1.44167e-09
-2.11877e-10
2.72285e-10
6.96372e-10
9.03997e-10
-7.28564e-10
-2.27235e-10
1.85971e-10
3.42924e-10
)
;
    }
    procBoundary5to7
    {
        type            processor;
        value           nonuniform List<scalar> 
44
(
2.27571e-09
2.51341e-09
2.68522e-09
2.72366e-09
2.82657e-09
2.86495e-09
2.9683e-09
2.99185e-09
1.95678e-09
2.27571e-09
2.44153e-09
2.5263e-09
2.60268e-09
2.70253e-09
2.74017e-09
2.82399e-09
2.86042e-09
1.68877e-09
2.44153e-09
1.9551e-09
2.44153e-09
2.5263e-09
2.34176e-09
2.25299e-09
2.21208e-09
2.22971e-09
2.46792e-09
9.76856e-10
1.54313e-09
1.641e-09
2.34176e-09
1.77999e-09
2.34176e-09
2.25299e-09
1.62224e-09
1.66277e-09
1.66568e-09
4.88388e-10
7.54659e-10
1.08393e-09
1.20083e-09
1.38493e-09
1.62224e-09
1.43857e-09
)
;
    }
}


// ************************************************************************* //
