/*--------------------------------*- C++ -*----------------------------------*\
| =========                 |                                                 |
| \\      /  F ield         | OpenFOAM: The Open Source CFD Toolbox           |
|  \\    /   O peration     | Version:  4.x                                   |
|   \\  /    A nd           | Web:      www.OpenFOAM.org                      |
|    \\/     M anipulation  |                                                 |
\*---------------------------------------------------------------------------*/
FoamFile
{
    version     2.0;
    format      ascii;
    class       volScalarField;
    location    "57";
    object      QWallFluidCoeff;
}
// * * * * * * * * * * * * * * * * * * * * * * * * * * * * * * * * * * * * * //

dimensions      [1 -1 -3 -1 0 0 0];

internalField   nonuniform List<scalar> 
108
(
-2.19737e+06
-3.48634e+06
-2.24727e+06
-3.66792e+06
-2.20009e+06
-3.88299e+06
-1.92232e+06
-4.17684e+06
-1.64277e+06
-1.7446e+06
-3.12446e+06
-1.58016e+06
-3.11018e+06
-1.2189e+06
-2.91514e+06
-505712
-2.29497e+06
-40.0212
-2.17875e+06
-3.43572e+06
-2.20019e+06
-3.60461e+06
-2.13478e+06
-3.8394e+06
-1.89608e+06
-4.27466e+06
-1.78073e+06
-5.2672e+06
-7.40051e+06
-5.34884e+06
-7.61205e+06
-5.22021e+06
-8.00762e+06
-4.76536e+06
-8.78022e+06
-3.40997e+06
0
0
0
0
0
0
0
0
0
0
0
0
0
0
0
0
0
0
0
0
0
0
0
0
0
0
0
-1.9962e+06
-3.30006e+06
-1.98591e+06
-3.40845e+06
-1.87619e+06
-3.63153e+06
-1.65986e+06
-4.19893e+06
-2.04901e+06
0
0
0
0
0
0
0
0
0
0
0
0
0
0
0
0
0
0
0
0
0
0
0
0
0
0
0
-1.45489e+06
-2.95367e+06
-1.35203e+06
-2.97317e+06
-1.18242e+06
-3.04028e+06
-995143
-3.35559e+06
-994961
)
;

boundaryField
{
    inlet
    {
        type            calculated;
        value           nonuniform 0();
    }
    outlet
    {
        type            calculated;
        value           uniform 0;
    }
    wall
    {
        type            calculated;
        value           uniform 0;
    }
    procBoundary3to1
    {
        type            processor;
        value           uniform 0;
    }
    procBoundary3to2
    {
        type            processor;
        value           uniform 0;
    }
    procBoundary3to7
    {
        type            processor;
        value           uniform 0;
    }
}


// ************************************************************************* //
