/*--------------------------------*- C++ -*----------------------------------*\
| =========                 |                                                 |
| \\      /  F ield         | OpenFOAM: The Open Source CFD Toolbox           |
|  \\    /   O peration     | Version:  4.x                                   |
|   \\  /    A nd           | Web:      www.OpenFOAM.org                      |
|    \\/     M anipulation  |                                                 |
\*---------------------------------------------------------------------------*/
FoamFile
{
    version     2.0;
    format      ascii;
    class       volScalarField;
    location    "52.5";
    object      p_rgh;
}
// * * * * * * * * * * * * * * * * * * * * * * * * * * * * * * * * * * * * * //

dimensions      [1 -1 -2 0 0 0 0];

internalField   nonuniform List<scalar> 
87
(
19.3547
74.9509
-0.586867
69.2641
-21.9561
65.3924
-46.6643
65.7902
-52.5594
18.4961
74.8427
-1.11394
69.2367
-22.6407
65.4019
-46.9615
65.2589
-74.4585
19.2894
75.0707
0.176534
69.0176
-20.3936
64.029
-42.0232
61.3011
-66.9228
19.4614
75.1984
0.301552
69.11
-19.7836
63.872
-40.6941
60.0561
-61.0197
18.9255
75.1356
-0.353151
69.0486
-20.8673
63.8418
-42.0344
60.3034
-63.2732
19.5875
75.3273
0.683384
68.6286
-18.2546
62.3774
-35.8411
55.9959
-51.8517
19.1799
74.9269
-0.327052
68.9915
-21.1112
64.3212
-43.0811
62.031
-65.7276
18.6172
74.8083
-1.11682
68.7327
-21.7491
63.831
-43.2941
61.3236
-65.6108
20.1429
74.8603
1.37932
68.449
-17.7442
62.7757
-36.6212
58.0938
-54.1453
20.574
75.6266
2.18008
20.3415
75.2434
22.579
)
;

boundaryField
{
    inlet
    {
        type            fixedFluxPressure;
        gradient        nonuniform 0();
        value           nonuniform 0();
    }
    outlet
    {
        type            fixedValue;
        value           uniform 0;
    }
    wall
    {
        type            fixedFluxPressure;
        gradient        nonuniform List<scalar> 
57
(
-0.000194235
-9.94641e-05
-4.96851e-05
-0.000531559
-0.00011658
-4.52477e-05
-0.000125168
-7.05726e-05
-4.9902e-05
-8.5328e-06
-4.90424e-06
-7.83311e-06
-1.74865e-06
-2.17133e-06
-2.29557e-06
2.29727e-06
3.99455e-06
1.10523e-06
1.04547e-05
1.95933e-05
6.38826e-06
3.23849e-05
1.02324e-05
9.41515e-06
0.000178495
7.09303e-05
2.73836e-06
-5.54549e-05
-6.1651e-05
-3.28604e-06
-5.69471e-06
-0.00540506
-1.93257e-05
-1.07441e-05
-5.98459e-06
-9.58508e-06
-2.20131e-05
-2.08452e-05
-1.6868e-05
2.59851e-06
6.7304e-06
1.44847e-06
-2.26999e-06
-2.57798e-06
-2.72786e-08
2.24292e-06
5.69195e-07
3.81142e-07
9.55637e-06
5.24671e-06
-4.1651e-07
-8.80543e-06
5.74699e-06
5.12828e-07
7.05655e-05
5.56823e-05
5.28138e-06
)
;
        value           nonuniform List<scalar> 
57
(
19.3547
18.4961
19.2894
74.9509
74.8427
75.0707
-0.586869
-1.11394
0.176533
69.2641
69.2367
69.0176
-21.9561
-22.6407
-20.3936
65.3924
65.4019
64.029
-46.6643
-46.9615
-42.0232
65.7902
65.2589
61.3011
-52.5594
-74.4585
-66.9228
19.3547
19.4614
19.1799
20.574
74.9509
75.1984
74.9269
75.6266
-0.586867
0.301552
-0.327053
2.18008
69.2641
69.11
68.9915
-21.9561
-19.7836
-21.1112
65.3924
63.872
64.3212
-46.6643
-40.6941
-43.0811
65.7902
60.0561
62.031
-52.5594
-61.0197
-65.7276
)
;
    }
    procBoundary1to0
    {
        type            processor;
        value           nonuniform List<scalar> 
12
(
81.2136
81.1015
81.5371
81.6534
81.6792
82.1601
81.3873
81.4344
81.8086
82.163
82.21
82.0626
)
;
    }
    procBoundary1to3
    {
        type            processor;
        value           nonuniform List<scalar> 
27
(
18.2698
74.5512
-1.93236
68.8085
-22.8574
64.7946
-45.9425
64.2589
-72.028
18.2219
74.856
-1.6548
68.6818
-22.3551
63.5013
-43.9272
60.6649
-64.78
19.2675
74.7511
-0.122418
68.3037
-19.7041
62.9332
-38.9387
58.8463
-55.812
)
;
    }
    procBoundary1to5
    {
        type            processor;
        value           nonuniform List<scalar> 
32
(
69.2445
-16.0813
62.5332
-33.0129
55.8085
-46.7423
1.44501
68.5406
-17.0709
62.3092
-35.1647
56.4305
-50.9181
75.1298
4.99583
68.4444
-12.3749
61.6754
-29.2385
53.7247
-44.4161
19.6018
74.9047
69.2445
1.44501
0.402273
19.7468
1.44501
75.1298
75.0283
75.1298
21.1802
)
;
    }
    procBoundary1to7
    {
        type            processor;
        value           uniform 20.7588;
    }
}


// ************************************************************************* //
