/*--------------------------------*- C++ -*----------------------------------*\
| =========                 |                                                 |
| \\      /  F ield         | OpenFOAM: The Open Source CFD Toolbox           |
|  \\    /   O peration     | Version:  4.x                                   |
|   \\  /    A nd           | Web:      www.OpenFOAM.org                      |
|    \\/     M anipulation  |                                                 |
\*---------------------------------------------------------------------------*/
FoamFile
{
    version     2.0;
    format      ascii;
    class       volScalarField;
    location    "52.5";
    object      QPartFluid;
}
// * * * * * * * * * * * * * * * * * * * * * * * * * * * * * * * * * * * * * //

dimensions      [1 -1 -3 0 0 0 0];

internalField   nonuniform List<scalar> 
87
(
4.29717e+09
7.05814e+09
4.19698e+09
6.5554e+09
4.36994e+09
4.88111e+09
5.24302e+09
6.58589e+09
3.97497e+09
4.53408e+09
4.43278e+09
5.84574e+09
5.75066e+09
4.40121e+09
6.67648e+09
7.6611e+09
6.74663e+09
4.0289e+09
3.94909e+09
7.09844e+09
6.22981e+09
8.96397e+09
6.30359e+09
5.82838e+09
5.77805e+09
6.31494e+09
4.31709e+09
7.42626e+09
6.59193e+09
6.13845e+09
7.57834e+09
6.35831e+09
7.83237e+09
9.04591e+09
8.9194e+09
5.32744e+09
9.01761e+09
6.72057e+09
7.56556e+09
9.42766e+09
9.20469e+09
7.7296e+09
9.41834e+09
1.058e+10
4.73099e+09
7.91335e+09
8.4848e+09
7.18713e+09
6.80767e+09
5.80217e+09
9.32473e+09
9.47593e+09
1.32192e+10
4.49251e+09
7.11777e+09
7.00703e+09
8.22138e+09
9.61591e+09
6.09037e+09
9.66378e+09
7.57673e+09
7.41398e+09
3.18963e+09
6.47954e+09
8.85956e+09
6.49831e+09
8.10786e+09
8.19322e+09
9.09403e+09
7.64263e+09
9.46528e+09
3.71166e+09
9.43192e+09
7.86698e+09
5.46282e+09
1.11353e+10
8.86705e+09
1.07166e+10
7.51108e+09
9.70689e+09
3.38974e+09
6.46647e+09
5.53285e+09
7.58809e+09
7.86033e+09
1.22032e+10
5.90185e+09
)
;

boundaryField
{
    inlet
    {
        type            calculated;
        value           nonuniform 0();
    }
    outlet
    {
        type            calculated;
        value           uniform 0;
    }
    wall
    {
        type            calculated;
        value           uniform 0;
    }
    procBoundary1to0
    {
        type            processor;
        value           nonuniform List<scalar> 
12
(
2.01749e+09
5.24378e+09
8.50666e+09
7.25924e+09
8.96801e+09
6.34517e+09
5.41666e+09
1.01388e+10
5.39129e+09
6.03807e+09
6.92793e+09
9.33315e+09
)
;
    }
    procBoundary1to3
    {
        type            processor;
        value           nonuniform List<scalar> 
27
(
8.49357e+09
3.85776e+09
6.73819e+09
3.23824e+09
5.02327e+09
3.80584e+09
5.65159e+09
5.3135e+09
2.93068e+09
8.56627e+09
8.10147e+09
1.02978e+10
1.06795e+10
8.56528e+09
8.03023e+09
6.90304e+09
8.66468e+09
7.74583e+09
8.27345e+09
1.1043e+10
9.30355e+09
1.04056e+10
6.65923e+09
7.89107e+09
9.22808e+09
8.50697e+09
7.04105e+09
)
;
    }
    procBoundary1to5
    {
        type            processor;
        value           nonuniform List<scalar> 
32
(
7.858e+09
7.24218e+09
7.03257e+09
5.72089e+09
7.89421e+09
5.86442e+09
7.27572e+09
7.05773e+09
5.9197e+09
8.28267e+09
8.5205e+09
1.01488e+10
6.55797e+09
9.95869e+09
6.15282e+09
8.72016e+09
5.89256e+09
5.32144e+09
7.46853e+09
6.26158e+09
6.6497e+09
6.65327e+09
5.70222e+09
7.858e+09
7.27572e+09
7.58053e+09
8.11743e+09
7.27572e+09
9.95869e+09
8.24609e+09
9.95869e+09
8.51879e+09
)
;
    }
    procBoundary1to7
    {
        type            processor;
        value           uniform 1.01711e+10;
    }
}


// ************************************************************************* //
