/*--------------------------------*- C++ -*----------------------------------*\
  =========                 |
  \\      /  F ield         | OpenFOAM: The Open Source CFD Toolbox
   \\    /   O peration     | Website:  https://openfoam.org
    \\  /    A nd           | Version:  4.x
     \\/     M anipulation  |
\*---------------------------------------------------------------------------*/
FoamFile
{
    version     2.0;
    format      ascii;
    class       Cloud<passiveParticle>;
    location    0;
    object      positions;
}
// * * * * * * * * * * * * * * * * * * * * * * * * * * * * * * * * * * * * * //

302
(
( 0.253082 0.0900618 -0.0560518 ) 63
( 0.250638 0.0316054 -0.0550012 ) 45
( 0.250459 0.0300039 -0.0352101 ) 81
( 0.254231 0.0692941 -0.0505525 ) 54
( 0.25123 0.068242 -0.070087 ) 54
( 0.250716 0.0107735 -0.0753248 ) 0
( 0.250026 0.0885788 -0.0220562 ) 99
( 0.250285 0.0359378 -0.0744208 ) 9
( 0.256172 0.0313068 -0.0150978 ) 81
( 0.381307 -0.0139585 -0.033841 ) 76
( 0.421163 -0.0110943 -0.0808927 ) 6
( 0.473717 -0.00615888 -0.0415591 ) 80
( 0.324698 -0.0105222 -0.0764941 ) 2
( 0.404113 -0.00381445 -0.0736225 ) 5
( 0.49006 -0.0109712 -0.057902 ) 44
( 0.371862 -0.00591839 -0.0493281 ) 40
( 0.469018 -0.00177275 -0.0856106 ) 7
( 0.342807 -0.00285099 -0.0731768 ) 3
( 0.33485 -0.0140313 -0.0329081 ) 75
( 0.439423 -0.00177992 -0.0578967 ) 42
( 0.321814 -0.0118194 -0.0474832 ) 38
( 0.360972 -0.000874776 -0.0651895 ) 39
( 0.310835 -0.00599192 -0.0628849 ) 38
( 0.354388 -0.0122652 -0.0387421 ) 75
( 0.272317 -0.00316801 -0.068582 ) 36
( 0.284018 -0.0122327 -0.0390356 ) 73
( 0.436818 0.000628746 -0.0774261 ) 6
( 0.49005 -0.0122426 -0.0778047 ) 8
( 0.302588 -0.00849909 -0.044549 ) 37
( 0.394273 -0.00440861 -0.0448912 ) 41
( 0.472423 -0.0116033 -0.0685489 ) 44
( 0.275553 -0.0100759 -0.0201478 ) 72
( 0.473107 -0.012638 -0.0212437 ) 80
( 0.38777 0.0265551 -0.054861 ) 49
( 0.3041 0.071841 -0.0648863 ) 64
( 0.337217 0.0639319 -0.0468602 ) 57
( 0.325696 0.0164878 -0.0485373 ) 47
( 0.44347 0.0376388 -0.0467253 ) 51
( 0.286842 0.0646768 -0.0583463 ) 55
( 0.331417 0.0508346 -0.06063 ) 56
( 0.455555 0.0129702 -0.0859728 ) 7
( 0.369806 0.0348663 -0.0533076 ) 49
( 0.490038 0.0227771 -0.0532259 ) 53
( 0.324685 0.0376371 -0.07475 ) 11
( 0.293446 0.0258587 -0.057596 ) 46
( 0.379369 0.00962391 -0.0643074 ) 40
( 0.471142 0.0677567 -0.0579687 ) 61
( 0.431501 0.0710727 -0.0625362 ) 60
( 0.456122 0.0710643 -0.0785643 ) 25
( 0.342918 0.03224 -0.0690051 ) 48
( 0.320315 0.0460853 -0.0447613 ) 56
( 0.301192 0.06134 -0.0452375 ) 55
( 0.368875 0.0542697 -0.0494199 ) 58
( 0.353948 0.0454968 -0.0592814 ) 57
( 0.324578 0.0853618 -0.0376194 ) 101
( 0.353285 0.0835811 -0.0695539 ) 66
( 0.452667 0.0771856 -0.0555839 ) 70
( 0.286697 0.0901314 -0.0312727 ) 100
( 0.417275 0.0203494 -0.0480889 ) 51
( 0.334578 0.0725442 -0.0646176 ) 66
( 0.388429 0.0701695 -0.0536815 ) 58
( 0.471264 0.0901338 -0.0645361 ) 70
( 0.474054 0.067967 -0.0382724 ) 98
( 0.489894 0.0146973 -0.0839124 ) 17
( 0.265531 0.0160598 -0.0366644 ) 81
( 0.400079 0.0667276 -0.0694831 ) 59
( 0.327252 0.0285186 -0.0321993 ) 83
( 0.349429 0.064169 -0.020584 ) 93
( 0.395675 0.0137561 -0.0780133 ) 5
( 0.306522 0.031762 -0.0403662 ) 83
( 0.303141 0.0349299 -0.072449 ) 10
( 0.458228 0.0434073 -0.0607149 ) 61
( 0.272712 0.0513368 -0.0543759 ) 54
( 0.411122 0.0510284 -0.0600023 ) 59
( 0.457385 0.0242821 -0.0515779 ) 52
( 0.430491 0.0823039 -0.0789009 ) 33
( 0.365853 0.0410848 -0.0348751 ) 85
( 0.316202 0.0314692 -0.0577505 ) 47
( 0.473553 0.0304677 -0.0614499 ) 53
( 0.366799 0.0115153 -0.0796975 ) 4
( 0.291077 0.0900389 -0.0505863 ) 64
( 0.269311 0.0164694 -0.0711253 ) 45
( 0.405433 0.0262652 -0.0641327 ) 50
( 0.474291 0.0474056 -0.0501229 ) 62
( 0.441239 0.0387178 -0.0696646 ) 51
( 0.419691 0.0138282 -0.0704667 ) 42
( 0.346654 0.0806644 -0.0509982 ) 66
( 0.438879 0.0558699 -0.0405056 ) 96
( 0.437533 0.0204557 -0.0764644 ) 15
( 0.478502 0.0748927 -0.0751153 ) 35
( 0.334746 0.0338896 -0.0508664 ) 48
( 0.3809 0.0381607 -0.0694638 ) 49
( 0.460931 0.0406529 -0.0376009 ) 88
( 0.401647 0.0836999 -0.0594073 ) 68
( 0.363424 0.0533857 -0.0748291 ) 22
( 0.280612 0.0682305 -0.0396051 ) 91
( 0.422565 0.0628799 -0.0782725 ) 24
( 0.371615 0.0898497 -0.0743187 ) 31
( 0.397086 0.0211285 -0.0382607 ) 86
( 0.347287 0.0156433 -0.0790901 ) 12
( 0.352865 0.0296383 -0.0443261 ) 48
( 0.273673 0.078957 -0.0547315 ) 63
( 0.489948 0.0339195 -0.0785532 ) 17
( 0.386066 0.0735552 -0.0846684 ) 31
( 0.458217 0.0291144 -0.0745088 ) 16
( 0.424292 0.043037 -0.0793492 ) 24
( 0.287608 0.0824485 -0.0686094 ) 64
( 0.431027 0.0736984 -0.0429584 ) 69
( 0.490015 0.0900036 -0.0822931 ) 35
( 0.293726 0.0526866 -0.0726158 ) 19
( 0.32671 0.00583387 -0.0652502 ) 38
( 0.293927 0.0110471 -0.0709573 ) 37
( 0.351174 0.0159386 -0.0301127 ) 84
( 0.490035 0.0538256 -0.0821916 ) 26
( 0.413173 0.0679643 -0.0496489 ) 59
( 0.319523 0.069068 -0.0771798 ) 20
( 0.457962 0.0583197 -0.0463117 ) 61
( 0.380992 0.00958071 -0.0400184 ) 76
( 0.473288 0.0107965 -0.0537581 ) 44
( 0.472292 0.0135904 -0.0733859 ) 8
( 0.284144 0.0210956 -0.0408051 ) 82
( 0.26945 0.0318441 -0.0485373 ) 45
( 0.361945 0.0187556 -0.0617913 ) 49
( 0.472153 0.0230686 -0.0383484 ) 88
( 0.308372 0.049558 -0.029354 ) 92
( 0.371192 0.0729039 -0.0630429 ) 67
( 0.437856 0.0900953 -0.0616251 ) 69
( 0.429034 0.00665823 -0.0396132 ) 78
( 0.488701 0.0765143 -0.0485608 ) 71
( 0.391418 0.0508351 -0.0567103 ) 59
( 0.474914 0.0497729 -0.0698247 ) 62
( 0.406293 0.0515373 -0.080669 ) 23
( 0.39854 0.0716978 -0.0366601 ) 104
( 0.392716 0.0901312 -0.0759324 ) 32
( 0.412662 0.0900782 -0.0747149 ) 32
( 0.27415 0.00935199 -0.0532362 ) 36
( 0.436635 0.019924 -0.0540347 ) 51
( 0.444237 0.0900496 -0.0430118 ) 69
( 0.356329 0.00637548 -0.0472293 ) 39
( 0.329957 0.0900816 -0.0561125 ) 65
( 0.490211 0.0413693 -0.0601323 ) 53
( 0.433119 0.0252964 -0.0351843 ) 87
( 0.342743 0.0155028 -0.0583858 ) 48
( 0.363937 0.0727512 -0.0445533 ) 67
( 0.490257 0.038003 -0.0405896 ) 89
( 0.469796 0.0900487 -0.084659 ) 34
( 0.419554 0.0507259 -0.0419292 ) 96
( 0.283708 0.0519615 -0.022003 ) 91
( 0.425849 0.0902926 -0.0339712 ) 105
( 0.36375 0.0902174 -0.054019 ) 67
( 0.30072 0.0105943 -0.039498 ) 73
( 0.26596 0.0902187 -0.0403727 ) 99
( 0.300944 0.0440528 -0.0548952 ) 55
( 0.343014 0.0554628 -0.0760825 ) 21
( 0.352915 0.0652158 -0.061833 ) 57
( 0.398456 0.00855462 -0.0590469 ) 41
( 0.383049 0.0900428 -0.0580509 ) 67
( 0.417494 0.00160579 -0.0549648 ) 42
( 0.448804 0.00808217 -0.0435493 ) 43
( 0.295801 0.0668476 -0.0271343 ) 91
( 0.385528 0.0566838 -0.0387278 ) 94
( 0.490544 0.0901603 -0.0623988 ) 71
( 0.399179 0.032994 -0.081811 ) 14
( 0.308477 0.012946 -0.0574819 ) 38
( 0.490129 0.0523985 -0.0264041 ) 98
( 0.490058 0.0903521 -0.0346566 ) 107
( 0.270946 0.0663301 -0.0699784 ) 54
( 0.307883 0.0800135 -0.0471322 ) 65
( 0.464392 0.0900795 -0.0459537 ) 70
( 0.322185 0.0657366 -0.0340458 ) 92
( 0.490101 0.00459441 -0.0450196 ) 44
( 0.490017 0.0627525 -0.0643666 ) 62
( 0.266545 0.0471616 -0.0728193 ) 18
( 0.431092 0.0512616 -0.0581145 ) 60
( 0.347318 0.0904259 -0.0339651 ) 102
( 0.311721 0.0901542 -0.0638974 ) 65
( 0.405554 0.09025 -0.0410683 ) 104
( 0.490361 0.057314 -0.045302 ) 62
( 0.382769 0.057634 -0.0732342 ) 22
( 0.455429 0.0495051 -0.0794345 ) 25
( 0.473276 0.0276375 -0.0875067 ) 17
( 0.267472 0.0901212 -0.0698275 ) 63
( 0.381548 0.0825304 -0.0397201 ) 103
( 0.452419 0.0119272 -0.0663442 ) 43
( 0.445239 0.0893045 -0.0903765 ) 34
( 0.37528 0.0248491 -0.0286801 ) 85
( 0.335355 0.090051 -0.0752113 ) 30
( 0.453715 0.0899938 -0.0728322 ) 34
( 0.318777 0.064662 -0.0536583 ) 56
( 0.287077 0.047985 -0.0411403 ) 91
( 0.447903 0.0599655 -0.0642216 ) 61
( 0.315921 0.0197559 -0.0746094 ) 11
( 0.474033 0.0715761 -0.0148778 ) 107
( 0.393496 0.0606532 -0.020999 ) 95
( 0.410686 0.0815263 -0.0243139 ) 104
( 0.317618 0.0369821 -0.0169278 ) 83
( 0.455578 0.077661 -0.0162518 ) 106
( 0.390715 0.0155847 -0.0203054 ) 86
( 0.490009 0.0185392 -0.0308343 ) 89
( 0.323843 0.0606353 -0.0150015 ) 92
( 0.363406 0.0818234 -0.0270564 ) 103
( 0.407777 0.024659 -0.0171704 ) 86
( 0.440642 0.00384301 -0.0235659 ) 78
( 0.466833 0.0229547 -0.0192438 ) 88
( 0.348743 0.0850724 -0.0144608 ) 102
( 0.380721 0.0455558 -0.0230343 ) 94
( 0.447811 0.0607702 -0.0235656 ) 97
( 0.431151 0.0440416 -0.0265598 ) 96
( 0.393068 0.090253 -0.0254655 ) 104
( 0.414824 0.0430375 -0.0155305 ) 95
( 0.458279 0.00596733 -0.0147339 ) 79
( 0.490067 0.0721798 -0.0271381 ) 107
( 0.439622 0.0251602 -0.0164925 ) 87
( 0.305874 0.0221488 -0.0231099 ) 83
( 0.423914 0.0142666 -0.0213036 ) 78
( 0.269804 0.0900746 -0.0208244 ) 99
( 0.333375 0.0124375 -0.0221325 ) 75
( 0.415029 0.0620358 -0.0262783 ) 95
( 0.33104 0.0782703 -0.0203285 ) 101
( 0.270685 0.0348217 -0.0289291 ) 81
( 0.380755 0.07511 -0.0213802 ) 103
( 0.471488 0.0895609 -0.0275477 ) 106
( 0.49008 0.0899502 -0.0146781 ) 107
( 0.259678 0.0468913 -0.0400637 ) 90
( 0.25607 -0.000325641 -0.057264 ) 36
( 0.45955 -0.00333274 -0.055908 ) 43
( 0.321512 -0.0017519 -0.0157346 ) 74
( 0.3624 0.0334402 -0.0752176 ) 13
( 0.419597 0.0900577 -0.0548043 ) 69
( 0.318832 0.00539531 -0.033804 ) 74
( 0.489736 0.00726931 -0.0654436 ) 44
( 0.409424 0.0057987 -0.0368871 ) 77
( 0.280368 0.0330587 -0.0706456 ) 46
( 0.265957 0.0564191 -0.0145153 ) 90
( 0.442804 0.0903573 -0.0234651 ) 105
( 0.474733 0.00636377 -0.0261992 ) 80
( 0.262493 0.0722809 -0.0327713 ) 99
( 0.38779 -0.00838796 -0.0631589 ) 40
( 0.423797 0.0332151 -0.0620691 ) 51
( 0.269093 0.010424 -0.0180092 ) 72
( 0.428077 -0.0127918 -0.0421646 ) 78
( 0.266251 -0.00364285 -0.0404783 ) 72
( 0.396685 -0.00296554 -0.0244272 ) 77
( 0.337388 0.000498658 -0.0462264 ) 39
( 0.254502 -0.00878097 -0.0752834 ) 0
( 0.331391 0.0476105 -0.0281091 ) 92
( 0.455547 0.0751402 -0.0359363 ) 106
( 0.377015 -0.00561581 -0.0796308 ) 4
( 0.313096 0.0524063 -0.068209 ) 56
( 0.402965 0.0374078 -0.0479188 ) 50
( 0.253277 0.0510301 -0.0584212 ) 54
( 0.288992 -0.00309416 -0.057837 ) 37
( 0.349044 0.0495931 -0.040543 ) 93
( 0.313922 -0.0138295 -0.0292159 ) 74
( 0.415505 0.0333794 -0.0331562 ) 86
( 0.347423 -0.00226727 -0.0230323 ) 75
( 0.490148 -0.00980347 -0.0310551 ) 80
( 0.290536 0.0340732 -0.0274667 ) 82
( 0.277773 0.0714242 -0.0200045 ) 90
( 0.368114 0.0606221 -0.0266927 ) 94
( 0.365408 0.00205845 -0.0302754 ) 76
( 0.452294 0.0238673 -0.0322178 ) 88
( 0.305888 0.0854375 -0.028142 ) 101
( 0.477024 0.0378362 -0.0261699 ) 89
( 0.250506 0.0141127 -0.0235324 ) 72
( 0.420234 -0.00485822 -0.024266 ) 78
( 0.350257 0.0418173 -0.0224814 ) 84
( 0.468252 0.0552693 -0.0242652 ) 97
( 0.295292 -0.0110162 -0.0230595 ) 73
( 0.431956 0.0736985 -0.0230015 ) 105
( 0.286742 0.0067221 -0.0262079 ) 73
( 0.456926 -0.00496167 -0.0311036 ) 79
( 0.399641 0.0436698 -0.0284396 ) 95
( 0.449962 0.0412113 -0.0212784 ) 88
( 0.346428 -0.0137493 -0.0569271 ) 39
( 0.281825 -0.0119543 -0.0836922 ) 1
( 0.470952 0.0602034 -0.08632 ) 25
( 0.380601 0.025095 -0.0845022 ) 13
( 0.384074 0.0444374 -0.0881202 ) 22
( 0.30052 0.0676144 -0.0840155 ) 19
( 0.347473 0.0394137 -0.0870272 ) 12
( 0.445174 0.0342895 -0.0886903 ) 16
( 0.275797 0.0792605 -0.0843321 ) 27
( 0.283065 0.0197015 -0.0852198 ) 10
( 0.329499 0.00854567 -0.0847766 ) 2
( 0.278904 0.0564741 -0.0853726 ) 19
( 0.364221 0.0721252 -0.0816768 ) 31
( 0.302268 0.0873384 -0.0812031 ) 28
( 0.311248 0.0459594 -0.0869696 ) 20
( 0.266483 0.0307713 -0.0847625 ) 9
( 0.343241 0.0738448 -0.0837543 ) 30
( 0.357117 0.0900311 -0.0880081 ) 30
( 0.40816 0.074286 -0.0860523 ) 32
( 0.253514 0.0900656 -0.0840022 ) 27
( 0.41724 0.0257095 -0.0862558 ) 15
( 0.308801 0.00220248 -0.0809186 ) 2
( 0.438095 0.0547502 -0.0877693 ) 24
( 0.261028 0.0656594 -0.087257 ) 18
( 0.290092 0.0392531 -0.0869133 ) 10
( 0.30235 0.0234302 -0.0887354 ) 10
( 0.320742 0.0883731 -0.0886531 ) 29
( 0.265942 0.00374693 -0.0861494 ) 0
)
