/*--------------------------------*- C++ -*----------------------------------*\
| =========                 |                                                 |
| \\      /  F ield         | OpenFOAM: The Open Source CFD Toolbox           |
|  \\    /   O peration     | Version:  4.x                                   |
|   \\  /    A nd           | Web:      www.OpenFOAM.org                      |
|    \\/     M anipulation  |                                                 |
\*---------------------------------------------------------------------------*/
FoamFile
{
    version     2.0;
    format      ascii;
    class       volScalarField;
    location    "48";
    object      KslPrev;
}
// * * * * * * * * * * * * * * * * * * * * * * * * * * * * * * * * * * * * * //

dimensions      [1 -3 -1 0 0 0 0];

internalField   nonuniform List<scalar> 
114
(
6251.4
3143.49
5502.76
3028.78
5060.31
2874.94
3394.87
8095.79
3327.93
6996.52
3279.41
6448.75
3214.06
6227
3130.44
3348.59
7536
3226.12
6177.39
3136.97
5507.49
3031.98
5131.66
2914.04
3291.94
6770.69
3091.9
5287.67
2909.65
4513.43
2739.99
4074.6
2636.14
12804.2
3679.29
14656.9
3556.4
3435.25
9972.04
3587.2
12005.4
3690.48
15525.1
3741.99
23701.3
3715.15
3411.19
9082.16
3515.99
9440
3525.31
9740.39
3507.29
10286.4
3418.86
3333.19
7570.89
3291.9
6546.87
3165.13
5905.42
3075.9
5529.91
2965.75
23331.2
3655.16
3496.94
10821.1
3719.13
16270.5
3844.22
31091.8
3913.94
171502
3936.52
3440.79
10018.5
3639.5
12970.8
3728.72
17833.1
3776.48
31553.4
3754.96
3366.21
8201.68
3392.07
7698.49
3325.78
7262.49
3327.12
7247.8
3264.55
3505.16
11535.9
3753.12
17731.8
3825
29889
3830.61
75634.7
3462.46
9687.61
3631.87
11143.1
3647.2
12159.9
3586.7
3358.61
7950.68
3386.85
7460.56
3328.36
6983.45
)
;

boundaryField
{
    inlet
    {
        type            zeroGradient;
    }
    outlet
    {
        type            zeroGradient;
    }
    wall
    {
        type            zeroGradient;
    }
    procBoundary2to0
    {
        type            processor;
        value           uniform 0;
    }
    procBoundary2to3
    {
        type            processor;
        value           uniform 0;
    }
    procBoundary2to6
    {
        type            processor;
        value           uniform 0;
    }
}


// ************************************************************************* //
