/*--------------------------------*- C++ -*----------------------------------*\
| =========                 |                                                 |
| \\      /  F ield         | OpenFOAM: The Open Source CFD Toolbox           |
|  \\    /   O peration     | Version:  4.x                                   |
|   \\  /    A nd           | Web:      www.OpenFOAM.org                      |
|    \\/     M anipulation  |                                                 |
\*---------------------------------------------------------------------------*/
FoamFile
{
    version     2.0;
    format      ascii;
    class       volScalarField;
    location    "48";
    object      magGField;
}
// * * * * * * * * * * * * * * * * * * * * * * * * * * * * * * * * * * * * * //

dimensions      [1 -2 -1 0 0 0 0];

internalField   nonuniform List<scalar> 
114
(
55.4737
111.867
64.1271
117.339
69.8067
122.741
99.2823
41.8356
103.697
49.6085
107.051
54.4007
109.888
56.3004
112.372
99.9817
44.6602
106.126
55.7731
111.888
63.585
116.728
68.6713
121.33
100.315
49.0353
109.364
64.2269
118.751
76.6953
127.23
85.5588
133.233
27.3408
96.0112
23.8002
98.2247
97.8612
34.1321
96.8139
28.9189
95.1647
22.4237
93.806
14.6485
93.8557
98.0279
37.2253
98.4648
36.6252
99.1622
35.7945
100.3
33.8885
102.491
98.6143
43.9249
103.269
51.7995
108.029
58.1676
112.4
62.284
116.481
14.5014
92.5827
95.6473
31.2677
92.3964
21.0123
89.5574
10.9441
87.3492
1.97187
86.1622
96.5564
33.5117
94.1814
26.2618
92.2366
19.0953
91.0098
10.7693
90.9198
97.3508
40.1806
99.1393
43.5725
101.355
46.3692
102.062
46.585
103.595
94.9495
29.0881
90.6005
18.9931
88.5023
11.1738
87.5698
4.3582
94.9797
34.3305
93.3214
30.1708
92.9822
27.5057
93.793
96.5009
41.0389
98.4362
44.376
100.627
47.4037
)
;

boundaryField
{
    inlet
    {
        type            calculated;
        value           uniform 67;
    }
    outlet
    {
        type            calculated;
        value           nonuniform 0();
    }
    wall
    {
        type            calculated;
        value           uniform 0;
    }
    procBoundary2to0
    {
        type            processor;
        value           nonuniform List<scalar> 
44
(
54.4127
111.332
61.6643
115.761
65.7999
117.611
100.931
45.0022
106.822
106.822
32.4333
96.1757
24.4419
94.7721
16.4684
94.897
97.0588
35.1314
97.4324
32.4333
96.1757
96.1757
16.6311
91.4623
11.853
90.9655
95.0699
30.6337
92.5058
22.0785
91.0059
16.6311
91.4623
91.4623
8.71225
88.5978
95.1621
30.3153
90.999
19.634
89.5245
12.8512
88.8928
8.71225
)
;
    }
    procBoundary2to3
    {
        type            processor;
        value           nonuniform List<scalar> 
12
(
72.6075
54.6221
71.682
90.9384
21.4001
7.27043
31.9079
64.1407
11.9513
3.67453e-05
3.84075
43.9426
)
;
    }
    procBoundary2to6
    {
        type            processor;
        value           nonuniform List<scalar> 
32
(
87.5177
26.6244
95.9794
103.226
50.0541
105.975
92.0942
26.3764
87.0768
11.8317
83.39
1.92357
81.8445
87.5177
26.6244
3.49102e-05
94.4117
30.665
90.9327
21.045
88.2502
12.431
26.6244
103.226
86.7449
96.2269
39.8162
96.6754
40.7886
96.0137
103.226
38.8093
)
;
    }
}


// ************************************************************************* //
