/*--------------------------------*- C++ -*----------------------------------*\
| =========                 |                                                 |
| \\      /  F ield         | OpenFOAM: The Open Source CFD Toolbox           |
|  \\    /   O peration     | Version:  4.x                                   |
|   \\  /    A nd           | Web:      www.OpenFOAM.org                      |
|    \\/     M anipulation  |                                                 |
\*---------------------------------------------------------------------------*/
FoamFile
{
    version     2.0;
    format      ascii;
    class       volScalarField;
    location    "48";
    object      p;
}
// * * * * * * * * * * * * * * * * * * * * * * * * * * * * * * * * * * * * * //

dimensions      [1 -1 -2 0 0 0 0];

internalField   nonuniform List<scalar> 
114
(
5708.14
5728.76
5689.74
5721.69
5671.01
5714.93
5742.96
5725.98
5736.22
5708.35
5729.22
5690.17
5722.2
5671.6
5715.38
5742.53
5725.74
5735.82
5708.1
5728.84
5689.97
5721.88
5671.48
5715.04
5742.24
5725.63
5735.6
5708.06
5728.68
5690.08
5721.81
5671.75
5715.04
3812.03
3844.37
3793.11
3837.42
3865.92
3848.6
3859.14
3830.7
3852.04
3812.41
3844.93
3793.67
3837.94
3865.44
3848.25
3858.58
3830.32
3851.42
3812.03
3844.29
3793.33
3837.35
3865
3848.06
3858.22
3830.26
3851.16
3812.13
3844.15
3793.62
3837.29
1915.8
1959.51
1988.85
1971.17
1981.92
1953.46
1974.56
1935.42
1967.1
1917.11
1959.66
1988.41
1970.98
1981.55
1953.11
1974.25
1934.95
1967.03
1916.46
1959.86
1987.92
1970.69
1981.02
1952.93
1973.82
1935
1966.67
1916.54
1959.72
111.545
93.7332
104.391
75.6714
96.9147
57.4488
89.432
39.1565
110.918
93.2617
103.725
75.2167
96.2442
56.8393
88.7764
110.39
93.025
103.318
75.1272
95.9593
56.8629
)
;

boundaryField
{
    inlet
    {
        type            calculated;
        value           nonuniform List<scalar> 
12
(
5742.96
5742.53
5742.24
3865.92
3865.44
3865
1988.85
1988.41
1987.92
111.545
110.918
110.39
)
;
    }
    outlet
    {
        type            calculated;
        value           nonuniform 0();
    }
    wall
    {
        type            calculated;
        value           nonuniform List<scalar> 
66
(
6681.92
6681.49
6681.2
6664.94
6664.69
6664.59
6675.18
6674.77
6674.55
6647.1
6647.31
6647.06
6647.02
6667.72
6668.18
6667.8
6667.64
6628.7
6629.13
6628.92
6629.04
6660.64
6661.15
6660.84
6660.77
6609.97
6610.56
6610.43
6610.71
6653.89
6654.33
6654
6653.99
5742.24
3865
1987.92
110.39
5725.63
3848.06
1970.69
93.025
5735.6
3858.22
1981.02
103.318
5708.06
3830.26
1952.93
75.1272
5728.68
3851.16
1973.82
95.9593
5690.08
3812.13
1935
56.8629
5721.81
3844.15
1966.67
5671.75
3793.62
1916.54
5715.04
3837.29
1959.72
)
;
    }
    procBoundary2to0
    {
        type            processor;
        value           nonuniform List<scalar> 
44
(
5708.19
5728.88
5689.91
5721.94
5671.66
5715.25
5742.78
5725.88
5735.97
5735.97
3830.56
3851.69
3812.33
3844.82
3793.8
3837.95
3865.84
3848.38
3858.89
3830.56
3851.69
3851.69
1934.53
1966.64
1916.18
1959.66
1988.77
1971.04
1981.67
1953.05
1974.14
1934.53
1966.64
1966.64
38.7539
81.9494
111.405
93.6886
104.288
75.5667
96.6605
57.276
89.0819
38.7539
)
;
    }
    procBoundary2to3
    {
        type            processor;
        value           nonuniform List<scalar> 
12
(
5652
5653.21
5652.39
5652.97
3774.04
3775.24
3774.28
3774.74
1897.12
1899.25
1897.85
1897.98
)
;
    }
    procBoundary2to6
    {
        type            processor;
        value           nonuniform List<scalar> 
32
(
82.0938
38.092
81.5744
88.6391
38.3936
81.5916
-1765.74
-1783.96
-1773.07
-1801.52
-1780.82
-1819.57
-1788.74
82.0938
38.092
-1837.38
-1766.36
-1784.22
-1773.51
-1802.01
-1780.98
-1820.27
38.092
88.6391
-1788.48
-1766.97
-1784.49
-1774.06
-1802.11
-1781.38
88.6391
-1820.32
)
;
    }
}


// ************************************************************************* //
