/*--------------------------------*- C++ -*----------------------------------*\
| =========                 |                                                 |
| \\      /  F ield         | OpenFOAM: The Open Source CFD Toolbox           |
|  \\    /   O peration     | Version:  4.x                                   |
|   \\  /    A nd           | Web:      www.OpenFOAM.org                      |
|    \\/     M anipulation  |                                                 |
\*---------------------------------------------------------------------------*/
FoamFile
{
    version     2.0;
    format      ascii;
    class       volVectorField;
    location    "48";
    object      UsNext;
}
// * * * * * * * * * * * * * * * * * * * * * * * * * * * * * * * * * * * * * //

dimensions      [0 1 -1 0 0 0 0];

internalField   nonuniform List<vector> 
114
(
(6.74622e-10 -1.35873e-10 1.87502e-10)
(8.74625e-10 -2.30818e-10 4.04102e-10)
(1.17015e-09 -3.65073e-10 3.7079e-10)
(1.43272e-09 -3.68315e-10 6.33311e-10)
(1.95774e-09 -1.30262e-09 1.27544e-09)
(2.24051e-09 -2.05658e-09 1.52752e-09)
(5.4072e-10 -6.56217e-11 1.94784e-12)
(2.66109e-10 -1.54044e-13 4.66706e-11)
(4.68865e-10 -1.27998e-10 1.06571e-10)
(5.83479e-10 -2.12273e-10 1.44561e-10)
(7.62958e-10 -4.3396e-10 2.15676e-10)
(1.15511e-09 -4.93806e-10 1.87845e-10)
(1.63663e-09 -8.31914e-10 3.99522e-10)
(1.72498e-09 -1.11307e-09 6.20679e-10)
(1.72914e-09 -1.47632e-09 1.01509e-09)
(7.98899e-11 -1.04714e-12 2.44594e-11)
(1.72424e-10 -5.02941e-13 6.36137e-12)
(3.9696e-10 -1.55703e-11 1.76936e-10)
(5.84884e-10 -1.46252e-10 1.97603e-10)
(7.5943e-10 -3.50431e-10 2.69088e-10)
(9.65986e-10 -4.94947e-10 1.39518e-10)
(1.26868e-09 -4.16398e-10 4.04264e-10)
(1.50329e-09 -1.00343e-09 6.06611e-10)
(1.62417e-09 -1.05065e-09 8.1409e-10)
(5.57251e-11 -3.32126e-11 4.99684e-11)
(2.51972e-11 -2.66784e-11 4.63341e-11)
(1.93123e-10 -1.8306e-11 3.3978e-10)
(1.54918e-10 -2.8626e-10 6.60101e-11)
(5.45219e-10 -3.84256e-10 -6.9467e-11)
(5.74981e-10 -2.16212e-10 -1.1843e-10)
(7.94423e-10 -3.29157e-10 2.86631e-10)
(1.06352e-09 -7.95273e-10 3.60131e-10)
(1.17218e-09 -6.58448e-10 4.90981e-10)
(7.90991e-10 -2.31092e-10 4.0041e-10)
(9.55611e-10 -1.32503e-10 6.59059e-10)
(1.44052e-09 -6.71498e-10 1.07974e-09)
(1.6934e-09 -1.01062e-09 1.45549e-09)
(8.41463e-11 5.44299e-11 -1.23932e-11)
(2.32135e-10 5.51653e-11 1.92861e-11)
(3.62957e-10 -2.88939e-11 5.82794e-11)
(4.19284e-10 -1.33788e-10 1.41917e-10)
(5.07602e-10 -3.26779e-10 2.03489e-10)
(8.04228e-10 -2.68566e-10 8.97657e-11)
(1.1327e-09 -3.59495e-10 3.46747e-10)
(1.3146e-09 -5.8934e-10 5.21429e-10)
(1.67171e-09 -9.36013e-10 8.04134e-10)
(6.75918e-11 1.26417e-11 -4.47686e-11)
(1.66205e-10 -2.37191e-12 -4.53837e-11)
(2.7693e-10 -5.98048e-11 8.12574e-12)
(3.71566e-10 -8.70535e-11 8.93271e-11)
(4.74775e-10 -2.55901e-10 -1.67321e-11)
(6.40199e-10 -3.38533e-10 1.13215e-10)
(8.46777e-10 -4.12222e-10 2.59435e-10)
(1.00503e-09 -5.0551e-10 4.87876e-10)
(1.27955e-09 -6.91741e-10 5.11843e-10)
(3.07398e-11 -1.97651e-11 -1.76241e-11)
(9.51156e-11 -3.57585e-11 -2.41339e-11)
(1.75321e-10 -7.35835e-11 -4.55636e-11)
(2.68743e-10 -4.40971e-11 -3.12149e-11)
(3.864e-10 -1.34511e-10 -2.56223e-10)
(3.76789e-10 -2.1228e-10 6.98793e-12)
(4.90265e-10 -2.47699e-10 1.63053e-10)
(6.1756e-10 -2.70441e-10 1.51845e-10)
(5.87487e-10 -2.24358e-10 1.62228e-10)
(1.11749e-09 1.18244e-10 1.11632e-09)
(1.34965e-09 -7.96956e-12 1.51975e-09)
(9.13957e-11 1.00568e-11 8.26783e-11)
(1.42748e-10 -3.42443e-11 1.42489e-10)
(2.28752e-10 -8.33275e-11 1.59927e-10)
(1.87287e-10 -1.39483e-10 2.50113e-10)
(2.80505e-10 -2.69566e-10 3.30303e-10)
(4.74892e-10 -1.18334e-10 2.7433e-10)
(6.48418e-10 -1.71116e-10 4.7516e-10)
(9.97861e-10 -8.03328e-11 5.69792e-10)
(1.20422e-09 -2.97072e-10 5.95497e-10)
(4.55866e-11 3.23526e-11 3.4908e-11)
(3.20728e-11 -4.31815e-11 1.5148e-10)
(5.66842e-11 -2.67837e-11 1.37107e-10)
(5.14065e-11 -3.51263e-11 1.94502e-10)
(1.55357e-10 -1.59174e-10 2.0724e-10)
(3.1302e-10 -1.84927e-10 1.87771e-10)
(4.60271e-10 -3.24434e-10 3.48023e-10)
(6.87825e-10 -1.2956e-10 4.72509e-10)
(1.06654e-09 -3.85763e-10 3.39937e-10)
(3.35971e-11 -4.24068e-11 1.48116e-11)
(4.13498e-11 -4.44999e-11 3.87258e-11)
(1.95594e-11 -7.53708e-11 2.92274e-11)
(5.68755e-11 -8.78874e-11 2.47756e-11)
(2.11113e-10 -1.06979e-10 3.69458e-12)
(1.8596e-10 -1.39435e-10 8.25247e-11)
(2.82938e-10 -1.54447e-10 1.68161e-10)
(3.9917e-10 -2.20487e-10 2.34037e-10)
(6.44458e-10 -1.67902e-10 2.21941e-10)
(8.32354e-11 1.0703e-11 9.38246e-11)
(2.27597e-10 -9.79688e-11 2.02982e-10)
(3.0602e-10 -1.71528e-10 2.3804e-10)
(3.36968e-10 -1.58661e-10 2.38255e-10)
(4.58048e-10 -1.03926e-10 3.27633e-10)
(7.27853e-10 -9.93851e-11 3.14827e-10)
(9.48747e-10 5.50219e-11 4.60756e-10)
(1.53273e-09 8.91967e-11 4.92362e-10)
(2.27152e-11 3.45597e-11 3.91774e-11)
(1.51467e-10 -6.54168e-11 1.78648e-10)
(1.40861e-10 -6.65794e-11 1.89358e-10)
(2.05109e-10 -8.18085e-11 1.95658e-10)
(2.66345e-10 -1.90561e-10 2.28055e-10)
(4.35454e-10 -8.68506e-11 2.49131e-10)
(5.62293e-10 -1.47422e-10 3.79231e-10)
(9.32937e-12 -5.11371e-11 2.50194e-11)
(3.56985e-11 -5.92431e-11 4.85148e-11)
(3.84676e-11 -6.18944e-11 9.9997e-11)
(5.04527e-11 -9.48609e-11 7.18711e-11)
(1.59649e-10 -1.25263e-10 1.0776e-10)
(1.74888e-10 -9.94368e-11 9.90929e-11)
)
;

boundaryField
{
    inlet
    {
        type            calculated;
        value           nonuniform List<vector> 
12
(
(5.4072e-10 -6.56217e-11 1.94784e-12)
(7.98899e-11 -1.04714e-12 2.44594e-11)
(5.57251e-11 -3.32126e-11 4.99684e-11)
(8.41463e-11 5.44299e-11 -1.23932e-11)
(6.75918e-11 1.26417e-11 -4.47686e-11)
(3.07398e-11 -1.97651e-11 -1.76241e-11)
(9.13957e-11 1.00568e-11 8.26783e-11)
(4.55866e-11 3.23526e-11 3.4908e-11)
(3.35971e-11 -4.24068e-11 1.48116e-11)
(8.32354e-11 1.0703e-11 9.38246e-11)
(2.27152e-11 3.45597e-11 3.91774e-11)
(9.32937e-12 -5.11371e-11 2.50194e-11)
)
;
    }
    outlet
    {
        type            calculated;
        value           nonuniform 0();
    }
    wall
    {
        type            calculated;
        value           nonuniform List<vector> 
66
(
(5.4072e-10 -6.56217e-11 1.94784e-12)
(7.98899e-11 -1.04714e-12 2.44594e-11)
(5.57251e-11 -3.32126e-11 4.99684e-11)
(2.66109e-10 -1.54044e-13 4.66706e-11)
(1.72424e-10 -5.02941e-13 6.36137e-12)
(2.51972e-11 -2.66784e-11 4.63341e-11)
(4.68865e-10 -1.27998e-10 1.06571e-10)
(3.9696e-10 -1.55703e-11 1.76936e-10)
(1.93123e-10 -1.8306e-11 3.3978e-10)
(6.74622e-10 -1.35873e-10 1.87502e-10)
(5.83479e-10 -2.12273e-10 1.44561e-10)
(5.84884e-10 -1.46252e-10 1.97603e-10)
(1.54918e-10 -2.8626e-10 6.60101e-11)
(8.74625e-10 -2.30818e-10 4.04102e-10)
(7.62958e-10 -4.3396e-10 2.15676e-10)
(7.5943e-10 -3.50431e-10 2.69088e-10)
(5.45219e-10 -3.84256e-10 -6.9467e-11)
(1.17015e-09 -3.65073e-10 3.7079e-10)
(1.15511e-09 -4.93806e-10 1.87845e-10)
(9.65986e-10 -4.94947e-10 1.39518e-10)
(5.74981e-10 -2.16212e-10 -1.1843e-10)
(1.43272e-09 -3.68315e-10 6.33311e-10)
(1.63663e-09 -8.31914e-10 3.99522e-10)
(1.26868e-09 -4.16398e-10 4.04264e-10)
(7.94423e-10 -3.29157e-10 2.86631e-10)
(1.95774e-09 -1.30262e-09 1.27544e-09)
(1.72498e-09 -1.11307e-09 6.20679e-10)
(1.50329e-09 -1.00343e-09 6.06611e-10)
(1.06352e-09 -7.95273e-10 3.60131e-10)
(2.24051e-09 -2.05658e-09 1.52752e-09)
(1.72914e-09 -1.47632e-09 1.01509e-09)
(1.62417e-09 -1.05065e-09 8.1409e-10)
(1.17218e-09 -6.58448e-10 4.90981e-10)
(5.57251e-11 -3.32126e-11 4.99684e-11)
(3.07398e-11 -1.97651e-11 -1.76241e-11)
(3.35971e-11 -4.24068e-11 1.48116e-11)
(9.32937e-12 -5.11371e-11 2.50194e-11)
(2.51972e-11 -2.66784e-11 4.63341e-11)
(9.51156e-11 -3.57585e-11 -2.41339e-11)
(4.13498e-11 -4.44999e-11 3.87258e-11)
(3.56985e-11 -5.92431e-11 4.85148e-11)
(1.93123e-10 -1.8306e-11 3.3978e-10)
(1.75321e-10 -7.35835e-11 -4.55636e-11)
(1.95594e-11 -7.53708e-11 2.92274e-11)
(3.84676e-11 -6.18944e-11 9.9997e-11)
(1.54918e-10 -2.8626e-10 6.60101e-11)
(2.68743e-10 -4.40971e-11 -3.12149e-11)
(5.68755e-11 -8.78874e-11 2.47756e-11)
(5.04527e-11 -9.48609e-11 7.18711e-11)
(5.45219e-10 -3.84256e-10 -6.9467e-11)
(3.864e-10 -1.34511e-10 -2.56223e-10)
(2.11113e-10 -1.06979e-10 3.69458e-12)
(1.59649e-10 -1.25263e-10 1.0776e-10)
(5.74981e-10 -2.16212e-10 -1.1843e-10)
(3.76789e-10 -2.1228e-10 6.98793e-12)
(1.8596e-10 -1.39435e-10 8.25247e-11)
(1.74888e-10 -9.94368e-11 9.90929e-11)
(7.94423e-10 -3.29157e-10 2.86631e-10)
(4.90265e-10 -2.47699e-10 1.63053e-10)
(2.82938e-10 -1.54447e-10 1.68161e-10)
(1.06352e-09 -7.95273e-10 3.60131e-10)
(6.1756e-10 -2.70441e-10 1.51845e-10)
(3.9917e-10 -2.20487e-10 2.34037e-10)
(1.17218e-09 -6.58448e-10 4.90981e-10)
(5.87487e-10 -2.24358e-10 1.62228e-10)
(6.44458e-10 -1.67902e-10 2.21941e-10)
)
;
    }
    procBoundary2to0
    {
        type            processor;
        value           nonuniform List<vector> 
44
(
(9.10031e-10 -3.07374e-10 2.07215e-10)
(8.94368e-10 -4.75765e-10 2.45268e-10)
(9.04991e-10 -2.83992e-10 3.50169e-10)
(1.10581e-09 -2.02854e-10 6.90146e-10)
(1.7936e-09 -8.97204e-10 1.55882e-09)
(1.97394e-09 -1.87949e-09 2.30437e-09)
(1.62979e-10 3.14826e-10 1.1793e-10)
(4.36792e-10 1.6296e-10 1.46289e-10)
(5.45249e-10 8.80201e-12 1.46215e-10)
(5.45249e-10 8.80201e-12 1.46215e-10)
(5.97482e-10 -1.0927e-10 2.30296e-10)
(6.5008e-10 -2.51113e-10 3.68207e-10)
(6.82643e-10 -2.58651e-10 2.93103e-10)
(6.99932e-10 -1.61238e-10 7.19022e-10)
(5.85926e-10 -2.27452e-10 1.5891e-09)
(9.43997e-10 -2.32677e-10 2.89601e-09)
(1.39584e-10 2.22013e-10 1.41261e-10)
(3.44914e-10 1.96578e-10 1.52605e-10)
(4.92107e-10 1.26329e-10 2.41373e-10)
(5.97482e-10 -1.0927e-10 2.30296e-10)
(6.5008e-10 -2.51113e-10 3.68207e-10)
(6.5008e-10 -2.51113e-10 3.68207e-10)
(6.91688e-10 -9.81557e-11 4.8826e-10)
(8.81313e-10 1.84279e-10 6.94896e-10)
(-1.14841e-10 5.38444e-10 1.55893e-09)
(-6.56989e-10 1.97299e-09 3.17123e-09)
(7.46469e-11 9.24107e-11 1.78048e-10)
(2.72752e-10 1.50618e-11 2.70842e-10)
(3.71097e-10 -3.61651e-11 3.11021e-10)
(4.39878e-10 -1.32567e-10 3.19631e-10)
(5.91325e-10 -2.23022e-10 4.49651e-10)
(6.91688e-10 -9.81557e-11 4.8826e-10)
(8.81313e-10 1.84279e-10 6.94896e-10)
(8.81313e-10 1.84279e-10 6.94896e-10)
(1.20725e-09 4.715e-10 1.002e-09)
(1.66071e-09 2.3851e-10 1.14728e-09)
(7.77847e-11 5.95206e-11 1.74256e-10)
(3.27159e-10 -1.65704e-11 2.65007e-10)
(5.43919e-10 -2.28967e-11 2.03234e-10)
(1.03617e-09 -1.65391e-11 3.5294e-10)
(1.28186e-09 1.24576e-10 5.44492e-10)
(1.24884e-09 4.3214e-11 5.72393e-10)
(1.36059e-09 3.89328e-10 6.92449e-10)
(1.20725e-09 4.715e-10 1.002e-09)
)
;
    }
    procBoundary2to3
    {
        type            processor;
        value           nonuniform List<vector> 
12
(
(2.33547e-09 -3.45776e-09 1.62086e-09)
(1.7987e-09 -1.58258e-09 9.40161e-10)
(1.76787e-09 -3.6e-10 4.64816e-10)
(8.80686e-10 -3.81382e-10 2.24362e-10)
(2.39313e-09 -2.22868e-09 1.38888e-09)
(1.83746e-09 -1.07664e-09 7.40643e-10)
(1.5693e-09 -6.12999e-10 5.64608e-10)
(1.00557e-09 -2.11595e-10 3.2667e-10)
(2.33529e-09 -4.3228e-10 1.35953e-09)
(1.86304e-09 -5.33555e-10 7.55631e-10)
(1.53583e-09 -4.68365e-10 3.73608e-10)
(7.95338e-10 -3.73144e-10 2.34343e-10)
)
;
    }
    procBoundary2to6
    {
        type            processor;
        value           nonuniform List<vector> 
32
(
(1.70897e-09 2.45558e-10 4.45581e-10)
(1.04229e-09 6.23233e-11 3.77172e-10)
(1.37089e-09 -2.01188e-10 2.74532e-10)
(1.74186e-10 -5.00733e-11 1.27058e-10)
(4.51305e-10 -1.1132e-11 2.10646e-10)
(3.85352e-10 -1.39124e-10 8.80279e-11)
(1.11167e-10 -6.43184e-11 7.99085e-11)
(2.47077e-10 -1.51688e-10 1.49772e-10)
(3.3146e-10 -1.91247e-10 1.26207e-10)
(5.1631e-10 -1.69035e-10 1.94238e-10)
(8.20211e-10 -1.55705e-10 3.51157e-10)
(1.05257e-09 -8.45093e-11 2.05309e-10)
(1.18391e-09 4.50898e-11 2.53649e-10)
(1.70897e-09 2.45558e-10 4.45581e-10)
(1.04229e-09 6.23233e-11 3.77172e-10)
(1.40972e-09 -1.89141e-11 3.38537e-10)
(6.90131e-11 9.76526e-13 -1.37354e-11)
(7.47845e-11 -6.13142e-11 8.4777e-11)
(1.72493e-10 -8.33311e-11 8.10395e-11)
(2.10219e-10 -1.25202e-10 1.30469e-10)
(3.15207e-10 -2.4045e-10 2.00671e-10)
(4.31451e-10 -1.5776e-10 1.94879e-10)
(1.04229e-09 6.23233e-11 3.77172e-10)
(1.74186e-10 -5.00733e-11 1.27058e-10)
(8.70773e-10 -1.58896e-10 2.58282e-10)
(2.04492e-11 -1.76767e-11 1.94236e-11)
(7.40956e-11 -5.78751e-11 4.93407e-11)
(4.11129e-11 -6.43987e-11 2.28079e-11)
(5.63884e-11 -9.34072e-11 4.93355e-11)
(8.27717e-11 -9.57553e-11 5.22068e-11)
(1.74186e-10 -5.00733e-11 1.27058e-10)
(1.30529e-10 -1.43623e-10 9.56835e-11)
)
;
    }
}


// ************************************************************************* //
