/*--------------------------------*- C++ -*----------------------------------*\
| =========                 |                                                 |
| \\      /  F ield         | OpenFOAM: The Open Source CFD Toolbox           |
|  \\    /   O peration     | Version:  4.x                                   |
|   \\  /    A nd           | Web:      www.OpenFOAM.org                      |
|    \\/     M anipulation  |                                                 |
\*---------------------------------------------------------------------------*/
FoamFile
{
    version     2.0;
    format      ascii;
    class       volVectorField;
    location    "48";
    object      UsPrev;
}
// * * * * * * * * * * * * * * * * * * * * * * * * * * * * * * * * * * * * * //

dimensions      [0 1 -1 0 0 0 0];

internalField   nonuniform List<vector> 
114
(
(2.16732e-10 -3.74074e-11 1.95624e-10)
(5.13023e-10 9.17573e-11 4.38756e-10)
(9.30337e-10 -7.07953e-11 4.58111e-10)
(1.32564e-09 -1.63115e-10 7.13546e-10)
(2.00228e-09 -1.25229e-09 1.37091e-09)
(2.30693e-09 -2.0351e-09 1.57845e-09)
(5.06909e-10 -4.3727e-10 3.11392e-11)
(1.4013e-10 -2.63004e-10 3.45681e-11)
(2.08353e-10 -2.66538e-10 1.01813e-10)
(2.64499e-10 -2.00222e-10 1.49629e-10)
(4.96663e-10 -3.02923e-10 2.29761e-10)
(9.48386e-10 -3.21842e-10 2.13497e-10)
(1.38765e-09 -5.96743e-10 4.64681e-10)
(1.66221e-09 -8.34978e-10 7.48369e-10)
(1.78574e-09 -1.37217e-09 1.07175e-09)
(6.59568e-11 -7.57999e-11 4.14109e-11)
(9.72374e-11 -1.12189e-10 9.69961e-12)
(2.48502e-10 -7.21672e-11 1.76991e-10)
(4.14708e-10 -1.55283e-10 1.96337e-10)
(5.38008e-10 -2.88816e-10 2.74506e-10)
(8.52386e-10 -3.9694e-10 1.42016e-10)
(1.28095e-09 -2.31366e-10 3.80221e-10)
(1.36545e-09 -6.65524e-10 4.93314e-10)
(1.33569e-09 -9.07475e-10 8.18924e-10)
(3.95919e-11 -4.91353e-11 5.10835e-11)
(-1.28553e-11 -5.4687e-11 4.72658e-11)
(9.26524e-11 -3.94627e-11 3.37862e-10)
(6.39992e-11 -2.87851e-10 6.59914e-11)
(4.2408e-10 -3.65795e-10 -6.95889e-11)
(5.22105e-10 -1.83918e-10 -1.23825e-10)
(7.59161e-10 -2.94844e-10 2.53393e-10)
(9.75519e-10 -8.2064e-10 3.00941e-10)
(9.34047e-10 -6.37441e-10 4.23739e-10)
(5.60575e-10 7.71977e-11 5.18984e-10)
(8.52906e-10 9.05102e-11 8.00356e-10)
(1.46074e-09 -5.9075e-10 1.20379e-09)
(1.74882e-09 -9.54424e-10 1.55348e-09)
(2.6524e-11 -1.74251e-10 -8.66302e-12)
(4.16438e-11 -2.52219e-10 -1.83343e-11)
(-2.87703e-13 -1.82671e-10 3.74261e-11)
(8.31545e-11 -1.25966e-10 1.51544e-10)
(1.72427e-10 -2.01301e-10 2.31379e-10)
(5.96729e-10 -1.10498e-10 1.3565e-10)
(9.53439e-10 -1.66476e-10 4.36037e-10)
(1.25385e-09 -4.39929e-10 6.69399e-10)
(1.68152e-09 -8.23628e-10 8.89893e-10)
(2.92979e-11 -9.3507e-11 -3.48912e-11)
(5.63784e-11 -1.32126e-10 -4.91376e-11)
(6.86512e-11 -1.48269e-10 1.96233e-12)
(1.41385e-10 -9.97299e-11 8.95963e-11)
(2.4866e-10 -2.03264e-10 -8.13511e-12)
(4.88954e-10 -2.52752e-10 1.16288e-10)
(7.26702e-10 -2.76772e-10 2.18867e-10)
(8.98005e-10 -3.69077e-10 3.74326e-10)
(1.14751e-09 -6.03603e-10 4.96514e-10)
(1.25226e-11 -5.04347e-11 -1.87667e-11)
(3.12561e-11 -7.50789e-11 -2.60619e-11)
(4.50375e-11 -1.01029e-10 -4.94057e-11)
(1.58778e-10 -4.74148e-11 -3.15414e-11)
(2.80907e-10 -1.22325e-10 -2.56511e-10)
(2.81217e-10 -1.762e-10 -1.91559e-13)
(4.19327e-10 -2.0052e-10 1.25844e-10)
(4.91321e-10 -2.41598e-10 7.87943e-11)
(3.41846e-10 -2.4283e-10 1.22133e-10)
(1.10526e-09 1.96277e-10 1.21836e-09)
(1.35926e-09 3.55911e-11 1.60083e-09)
(2.37881e-11 -1.67776e-10 2.28432e-11)
(-2.7117e-11 -2.31251e-10 8.0067e-11)
(-5.07654e-11 -1.94001e-10 1.27193e-10)
(-6.78558e-11 -1.48618e-10 2.56085e-10)
(1.09491e-11 -1.91466e-10 3.63226e-10)
(3.11306e-10 -2.1099e-11 3.22512e-10)
(5.20113e-10 -6.73999e-11 5.3907e-10)
(9.38625e-10 -3.40952e-12 6.46829e-10)
(1.16675e-09 -2.43451e-10 6.61307e-10)
(7.72799e-12 -5.72895e-11 1.46482e-11)
(-7.40285e-11 -1.45663e-10 1.18355e-10)
(-1.44369e-10 -9.80218e-11 1.17846e-10)
(-1.39678e-10 -4.84809e-11 1.94218e-10)
(-6.24113e-11 -1.21141e-10 2.20838e-10)
(1.74154e-10 -1.34078e-10 2.00467e-10)
(3.13858e-10 -2.50253e-10 3.54929e-10)
(5.85423e-10 -7.43287e-11 4.53057e-10)
(9.64822e-10 -3.78175e-10 3.47763e-10)
(9.60746e-12 -6.93557e-11 5.34647e-12)
(-1.77442e-11 -7.66334e-11 2.48485e-11)
(-8.51973e-11 -9.55967e-11 1.91984e-11)
(-6.62645e-11 -9.43686e-11 2.36018e-11)
(1.20206e-10 -1.03975e-10 5.0065e-12)
(8.27841e-11 -1.21504e-10 8.13992e-11)
(1.74819e-10 -1.29843e-10 1.50555e-10)
(2.84407e-10 -1.9979e-10 2.08783e-10)
(5.06323e-10 -1.7439e-10 2.30824e-10)
(1.99422e-11 -1.16078e-10 2.85472e-11)
(8.35579e-11 -2.2587e-10 1.28165e-10)
(8.85968e-11 -2.54751e-10 1.98283e-10)
(1.38169e-10 -1.877e-10 2.36825e-10)
(2.15655e-10 -6.23985e-11 3.60263e-10)
(5.86524e-10 -4.59632e-11 3.59518e-10)
(8.22766e-10 1.20927e-10 5.2165e-10)
(1.47821e-09 1.20515e-10 5.39199e-10)
(-1.73697e-11 -2.90095e-11 1.0035e-11)
(5.42594e-11 -1.40944e-10 1.25259e-10)
(-9.57015e-12 -1.18192e-10 1.65323e-10)
(4.03184e-11 -1.02173e-10 1.93963e-10)
(6.77469e-11 -1.71616e-10 2.42149e-10)
(2.93715e-10 -5.36154e-11 2.68753e-10)
(4.2078e-10 -1.09905e-10 4.00985e-10)
(-8.29528e-12 -6.73683e-11 1.37722e-11)
(-1.27449e-11 -7.79896e-11 3.27267e-11)
(-7.31422e-11 -8.37256e-11 8.71127e-11)
(-4.7004e-11 -9.99829e-11 7.11746e-11)
(1.4809e-11 -1.18092e-10 1.1311e-10)
(7.66588e-11 -9.02863e-11 1.05159e-10)
)
;

boundaryField
{
    inlet
    {
        type            calculated;
        value           uniform (0 0 0);
    }
    outlet
    {
        type            calculated;
        value           nonuniform 0();
    }
    wall
    {
        type            calculated;
        value           uniform (0 0 0);
    }
    procBoundary2to0
    {
        type            processor;
        value           uniform (0 0 0);
    }
    procBoundary2to3
    {
        type            processor;
        value           uniform (0 0 0);
    }
    procBoundary2to6
    {
        type            processor;
        value           uniform (0 0 0);
    }
}


// ************************************************************************* //
