/*--------------------------------*- C++ -*----------------------------------*\
| =========                 |                                                 |
| \\      /  F ield         | OpenFOAM: The Open Source CFD Toolbox           |
|  \\    /   O peration     | Version:  4.x                                   |
|   \\  /    A nd           | Web:      www.OpenFOAM.org                      |
|    \\/     M anipulation  |                                                 |
\*---------------------------------------------------------------------------*/
FoamFile
{
    version     2.0;
    format      ascii;
    class       volVectorField;
    location    "8.5";
    object      DDtUrel;
}
// * * * * * * * * * * * * * * * * * * * * * * * * * * * * * * * * * * * * * //

dimensions      [0 1 -2 0 0 0 0];

internalField   nonuniform List<vector> 
108
(
(0.00171292 -0.00012259 -0.000117322)
(0.00103968 -6.61216e-05 -3.88754e-05)
(0.000657965 -2.65839e-05 1.7497e-05)
(0.000450656 -1.61839e-06 6.91019e-05)
(0.000342397 7.96327e-06 8.88709e-05)
(0.000296324 1.59783e-05 0.000101085)
(0.000273382 1.44123e-05 8.87306e-05)
(0.000281963 1.82918e-05 7.73239e-05)
(0.000260136 1.63083e-05 4.06549e-05)
(0.00164995 -0.00011053 -0.000108767)
(0.000966179 -5.22229e-05 -3.22072e-05)
(0.000588928 -1.84799e-05 1.99396e-05)
(0.000386027 3.33099e-06 6.36883e-05)
(0.000285113 7.70423e-06 7.3056e-05)
(0.000235353 1.23768e-05 7.39683e-05)
(0.00021181 1.04823e-05 5.46859e-05)
(0.000205193 1.28566e-05 2.86646e-05)
(0.000192802 7.38948e-06 4.18426e-07)
(0.00160855 -7.21916e-05 -0.000100349)
(0.000919523 -3.12194e-05 -2.55699e-05)
(0.000548064 -1.03793e-05 2.25955e-05)
(0.000351538 2.97271e-06 6.05829e-05)
(0.000250737 5.05626e-06 6.29856e-05)
(0.000201125 7.63632e-06 5.65899e-05)
(0.000172114 4.97108e-06 3.38017e-05)
(0.000157109 4.15382e-06 2.45579e-06)
(0.000139603 -2.35186e-06 -2.22365e-05)
(0.00159156 -1.37159e-05 -9.70618e-05)
(0.000898337 -2.60292e-06 -2.33461e-05)
(0.000531672 -1.24843e-06 2.12629e-05)
(0.000334741 1.12749e-06 5.65488e-05)
(0.000237052 3.99957e-07 5.82393e-05)
(0.000182766 4.87827e-08 4.92351e-05)
(0.000155211 -2.28634e-06 2.55828e-05)
(0.000133689 -5.01868e-06 -5.5143e-06)
(0.000116377 -7.40156e-06 -3.12877e-05)
(0.00172613 -0.000113604 -4.13378e-05)
(0.00105234 -6.017e-05 -1.01662e-05)
(0.000667476 -2.33984e-05 1.50794e-05)
(0.000462363 -2.65624e-06 4.52065e-05)
(0.000356755 7.39139e-06 6.20988e-05)
(0.000316433 1.45853e-05 7.32812e-05)
(0.000298231 1.54811e-05 6.42138e-05)
(0.000310643 1.64853e-05 4.8846e-05)
(0.000296321 1.09455e-05 1.49619e-05)
(0.00167362 -0.000103008 -2.70583e-05)
(0.000989794 -4.81022e-05 -5.32062e-07)
(0.00060707 -1.50698e-05 1.98844e-05)
(0.000406905 3.93473e-06 4.29237e-05)
(0.000303533 9.38268e-06 5.09834e-05)
(0.000258835 1.4476e-05 5.14709e-05)
(0.000238172 1.05096e-05 3.66199e-05)
(0.000233949 7.84169e-06 1.11133e-05)
(0.000222469 5.03707e-07 -1.56251e-05)
(0.0016363 -6.95751e-05 -1.88188e-05)
(0.000948111 -2.8977e-05 3.65368e-06)
(0.000570615 -9.32119e-06 2.28123e-05)
(0.000375581 4.10185e-06 4.1894e-05)
(0.000274991 5.81366e-06 4.47589e-05)
(0.000232301 7.59482e-06 4.02481e-05)
(0.000206071 2.29993e-06 2.03801e-05)
(0.000194847 -1.57462e-06 -1.05274e-05)
(0.000171311 -1.13133e-05 -3.41297e-05)
(0.00162035 -1.44717e-05 -1.49176e-05)
(0.000928 -3.60261e-06 5.80718e-06)
(0.000553913 -2.25333e-06 2.19251e-05)
(0.000358322 -6.64458e-07 4.04465e-05)
(0.00025915 -1.98068e-06 4.16615e-05)
(0.000209874 -2.49914e-06 3.35465e-05)
(0.000183267 -5.7038e-06 1.22927e-05)
(0.000159692 -8.90383e-06 -1.83423e-05)
(0.00013912 -1.39302e-05 -3.8758e-05)
(0.00175277 -0.000103343 -1.20856e-05)
(0.00107881 -5.22931e-05 1.53171e-06)
(0.00069171 -1.70434e-05 1.38604e-05)
(0.000483771 3.2619e-06 3.13968e-05)
(0.000376697 1.14929e-05 4.39382e-05)
(0.000336903 1.62102e-05 5.49235e-05)
(0.000326929 1.45814e-05 4.61518e-05)
(0.000345757 1.38711e-05 2.80942e-05)
(0.000336431 8.80789e-06 -1.18239e-05)
(0.0017142 -9.41972e-05 -4.474e-07)
(0.00103192 -4.25312e-05 1.04317e-05)
(0.000651711 -1.05776e-05 2.0025e-05)
(0.00045327 8.01693e-06 3.51358e-05)
(0.000352293 1.22755e-05 4.10702e-05)
(0.000312561 1.41406e-05 4.42318e-05)
(0.00029539 9.58722e-06 2.8094e-05)
(0.000297048 3.86162e-06 4.49013e-06)
(0.000274974 -6.52092e-06 -3.20814e-05)
(0.0016801 -6.49463e-05 7.20466e-06)
(0.000996002 -2.79714e-05 1.4668e-05)
(0.000618682 -8.7929e-06 2.22545e-05)
(0.000425819 5.47339e-06 3.41489e-05)
(0.000328737 7.34985e-06 3.5628e-05)
(0.000294212 6.80498e-06 3.22043e-05)
(0.000273334 -1.83134e-06 1.37436e-05)
(0.000265881 -1.0789e-05 -1.13139e-05)
(0.000232227 -2.44507e-05 -4.36698e-05)
(0.00166512 -1.15014e-05 1.15818e-05)
(0.000977412 -7.01694e-06 1.55047e-05)
(0.000599829 -4.56669e-06 2.19341e-05)
(0.000407369 -3.31462e-06 3.37363e-05)
(0.000309662 -4.69664e-06 3.47479e-05)
(0.000270144 -8.46386e-06 2.9681e-05)
(0.000244933 -1.15926e-05 8.21545e-06)
(0.000226946 -1.93188e-05 -2.00012e-05)
(0.000190445 -2.5486e-05 -4.14086e-05)
)
;

boundaryField
{
    inlet
    {
        type            calculated;
        value           nonuniform List<vector> 
12
(
(0.00398706 -0.000377633 -0.000417984)
(0.00365928 -0.000400501 -0.000374094)
(0.00363272 -0.000262845 -0.000340383)
(0.00360886 -7.13586e-05 -0.000326898)
(0.00402847 -0.000323058 -4.29743e-05)
(0.00379084 -0.000354773 7.42231e-05)
(0.00375101 -0.000273606 9.15757e-05)
(0.00372849 -8.75895e-05 0.000106753)
(0.00413633 -0.000265334 -2.29639e-06)
(0.0040356 -0.000296199 5.79653e-05)
(0.00397225 -0.000244672 7.26826e-05)
(0.00394019 -3.39957e-05 9.59451e-05)
)
;
    }
    outlet
    {
        type            calculated;
        value           nonuniform 0();
    }
    wall
    {
        type            calculated;
        value           nonuniform List<vector> 
63
(
(0.00413633 -0.000265334 -2.29639e-06)
(0.0040356 -0.000296199 5.79653e-05)
(0.00397225 -0.000244672 7.26826e-05)
(0.00394019 -3.39957e-05 9.59451e-05)
(0.000374055 -6.86547e-06 1.42339e-05)
(0.000148247 2.37474e-05 6.2378e-05)
(9.59542e-05 1.3178e-05 5.82875e-05)
(2.87883e-05 -2.41945e-05 6.01658e-05)
(0.000308008 3.10299e-05 -2.57199e-05)
(0.000178146 6.08024e-05 1.45268e-05)
(0.000124707 1.24755e-06 1.42966e-05)
(6.2731e-05 -2.29971e-05 1.91217e-05)
(0.000315823 4.59502e-05 -6.23975e-06)
(0.000270302 8.93401e-05 5.54251e-05)
(0.000241932 6.89235e-05 4.22955e-05)
(0.000198523 -1.96009e-05 6.60313e-05)
(0.000294711 3.30686e-05 2.05448e-06)
(0.000300967 4.63566e-05 2.74428e-05)
(0.000277132 4.16801e-05 9.40255e-06)
(0.000257504 -2.40575e-05 4.89261e-05)
(0.000377627 4.80753e-05 9.53307e-05)
(0.00038591 5.00127e-05 8.84998e-05)
(0.000457106 5.48188e-05 2.69724e-05)
(0.000411132 -5.29611e-05 9.49944e-05)
(0.000418104 2.41456e-05 7.60397e-05)
(0.000380523 3.02166e-05 1.46035e-05)
(0.000455084 -1.86024e-05 -1.238e-05)
(0.000445271 -3.0265e-05 1.7863e-05)
(0.000693681 5.05998e-05 0.000107505)
(0.000513407 2.08951e-05 2.16395e-06)
(0.000591868 -4.26321e-05 -1.20039e-05)
(0.00051148 -8.29683e-05 -5.86185e-05)
(0.000573017 1.83655e-05 -2.75246e-05)
(0.000377925 -5.00022e-05 -8.44131e-05)
(0.00041975 -0.000152298 -8.62889e-05)
(0.000405737 -0.000112253 1.50009e-05)
(0.00398706 -0.000377633 -0.000417984)
(0.00402847 -0.000323058 -4.29743e-05)
(0.00413633 -0.000265334 -2.29639e-06)
(0.000180345 -7.1655e-05 1.16044e-07)
(0.000265355 -4.90255e-05 3.1574e-05)
(0.000374055 -6.86547e-06 1.42339e-05)
(0.000168509 -9.64321e-06 1.4187e-05)
(0.000225895 -6.73618e-06 -1.91842e-05)
(0.000308008 3.10299e-05 -2.57199e-05)
(0.00018826 5.14191e-05 0.000174101)
(0.000279823 -9.46571e-06 6.40992e-05)
(0.000315823 4.59502e-05 -6.23975e-06)
(0.000191476 3.45508e-05 0.000128882)
(0.000291099 -3.74583e-06 8.81625e-05)
(0.000294711 3.30686e-05 2.05448e-06)
(0.000282659 8.68522e-05 0.000200996)
(0.000420283 2.61464e-05 0.000176603)
(0.000377627 4.80753e-05 9.53307e-05)
(0.000251075 9.858e-06 0.000131423)
(0.000371342 3.63723e-05 0.000149157)
(0.000418104 2.41456e-05 7.60397e-05)
(0.000500748 5.47649e-05 0.000270639)
(0.000612417 6.66114e-05 0.000200513)
(0.000693681 5.05998e-05 0.000107505)
(0.000241795 1.1989e-05 0.000170098)
(0.000424077 -1.13714e-05 0.000134698)
(0.000573017 1.83655e-05 -2.75246e-05)
)
;
    }
    procBoundary4to0
    {
        type            processor;
        value           nonuniform List<vector> 
36
(
(0.00173229 -0.000120095 -0.000186696)
(0.00107261 -6.62475e-05 -6.35765e-05)
(0.000692704 -2.79823e-05 2.35236e-05)
(0.000484638 -6.58469e-06 9.77479e-05)
(0.000368666 1.79088e-06 0.000126315)
(0.000317131 8.00816e-06 0.000149296)
(0.000284024 1.30297e-05 0.000132231)
(0.000290728 1.98627e-05 0.000117948)
(0.000268946 2.06202e-05 7.15767e-05)
(0.00167201 -0.000111342 -0.000184742)
(0.00099999 -5.5366e-05 -5.83947e-05)
(0.000620788 -2.07559e-05 2.57893e-05)
(0.000413255 3.70496e-07 9.42114e-05)
(0.000299309 5.31404e-06 0.000106542)
(0.000245249 1.10221e-05 0.000112871)
(0.000207031 1.00342e-05 8.28852e-05)
(0.000202042 1.35622e-05 5.01583e-05)
(0.000179649 1.05443e-05 1.14825e-05)
(0.0016246 -7.60588e-05 -0.000177515)
(0.000946714 -3.43236e-05 -5.14805e-05)
(0.000570544 -1.1161e-05 2.76299e-05)
(0.000368177 4.37295e-06 8.80929e-05)
(0.000257025 5.118e-06 9.10028e-05)
(0.000203452 9.18065e-06 8.49002e-05)
(0.000163808 5.39186e-06 5.30643e-05)
(0.000153119 5.85656e-06 1.7451e-05)
(0.00012817 8.49966e-07 -1.78292e-05)
(0.00160647 -1.36762e-05 -0.000175079)
(0.000923218 -2.51001e-06 -5.03958e-05)
(0.000551852 4.8903e-07 2.69488e-05)
(0.000351743 2.90271e-06 8.47923e-05)
(0.000244159 1.11955e-06 8.51085e-05)
(0.000189277 3.84645e-07 7.83949e-05)
(0.000150031 -4.0417e-07 4.30849e-05)
(0.00013225 -4.61102e-07 5.3052e-06)
(0.000111266 -2.79798e-06 -3.12984e-05)
)
;
    }
    procBoundary4to5
    {
        type            processor;
        value           nonuniform List<vector> 
12
(
(0.00026485 2.5168e-05 -3.04656e-06)
(0.00017592 8.99983e-06 -4.22709e-05)
(0.00011563 -6.47725e-06 -5.88382e-05)
(8.66251e-05 -1.06212e-05 -6.90504e-05)
(0.000308464 1.91005e-05 -2.60174e-05)
(0.000202321 -5.55645e-07 -5.70067e-05)
(0.000144372 -1.80197e-05 -7.41303e-05)
(0.000101998 -1.76328e-05 -7.35153e-05)
(0.000349843 1.32311e-05 -5.31454e-05)
(0.000252892 -7.68454e-06 -7.63034e-05)
(0.000197401 -2.70461e-05 -8.49932e-05)
(0.000148298 -2.47137e-05 -7.47761e-05)
)
;
    }
    procBoundary4to6
    {
        type            processor;
        value           nonuniform List<vector> 
27
(
(0.00160549 5.25415e-05 -0.000100836)
(0.000914572 2.51433e-05 -2.7747e-05)
(0.000544797 8.43739e-06 1.80807e-05)
(0.000348859 -2.34277e-06 5.43309e-05)
(0.00024722 -4.30614e-06 5.75426e-05)
(0.000195424 -7.60662e-06 5.13887e-05)
(0.000163966 -8.79539e-06 2.75521e-05)
(0.000147696 -1.16491e-05 -4.95258e-06)
(0.00012755 -1.08644e-05 -3.06378e-05)
(0.00163269 4.92657e-05 -1.70675e-05)
(0.000941776 2.15539e-05 -1.65875e-06)
(0.00056354 6.90381e-06 1.82009e-05)
(0.000367109 -3.96651e-06 3.53397e-05)
(0.000261603 -6.92746e-06 3.75251e-05)
(0.000211021 -9.93853e-06 2.93313e-05)
(0.000179262 -1.16689e-05 1.1284e-05)
(0.000160927 -1.43458e-05 -1.99442e-05)
(0.000132064 -1.25542e-05 -4.0644e-05)
(0.0016799 4.7533e-05 1.07086e-05)
(0.000989965 1.82513e-05 8.71957e-06)
(0.00060677 4.62007e-06 1.67899e-05)
(0.000406163 -6.66587e-06 2.73975e-05)
(0.00029667 -1.06482e-05 2.86424e-05)
(0.000245187 -1.59072e-05 1.92057e-05)
(0.000205051 -1.63259e-05 2.49694e-06)
(0.000181942 -1.91925e-05 -2.49722e-05)
(0.000136014 -1.70488e-05 -4.75925e-05)
)
;
    }
}


// ************************************************************************* //
