/*--------------------------------*- C++ -*----------------------------------*\
| =========                 |                                                 |
| \\      /  F ield         | OpenFOAM: The Open Source CFD Toolbox           |
|  \\    /   O peration     | Version:  4.x                                   |
|   \\  /    A nd           | Web:      www.OpenFOAM.org                      |
|    \\/     M anipulation  |                                                 |
\*---------------------------------------------------------------------------*/
FoamFile
{
    version     2.0;
    format      ascii;
    class       volScalarField;
    location    "8.5";
    object      KslNext;
}
// * * * * * * * * * * * * * * * * * * * * * * * * * * * * * * * * * * * * * //

dimensions      [1 -3 -1 0 0 0 0];

internalField   nonuniform List<scalar> 
108
(
3417.36
7332.82
3447.17
7154.67
3464.35
6947.77
3438.7
6679.68
3326.68
3505.53
9671.67
3780.71
15495.8
3945.24
27230.6
4007.7
47633.6
4007.42
3557.55
10128.6
3875.22
16388.1
3988.61
26379.9
4010.93
50381
4033.26
3539.15
10330.6
3920.48
17744.7
4072.78
33707.1
4163.72
80311.8
4201.38
3405.7
7081.73
3389.1
6737.16
3373.22
6261.14
3278.85
5868.48
3173.82
3484.92
8504.49
3638.44
10418.6
3724.88
13007.2
3783.75
17844
3857.48
3516.72
8899.66
3749.3
11398.1
3818.01
13517.5
3798.05
15319.1
3796.6
3546.88
9418.78
3811.33
12981.9
3932.33
16990.8
3996.4
23347.4
4089.58
3352.51
6580.34
3235.73
5928.84
3209.7
5634.63
3165.78
5245.49
3031.86
3404.03
7254.16
3428.63
6876.42
3385.72
6375.21
3296.29
5760.47
3178.24
3465.21
7560.41
3519.19
7490.91
3486.7
6925.77
3357.14
6063.68
3202.4
3508.91
7798.02
3579.53
8060.37
3567.34
7465.71
3431.83
6378.72
3307.01
)
;

boundaryField
{
    inlet
    {
        type            zeroGradient;
    }
    outlet
    {
        type            zeroGradient;
    }
    wall
    {
        type            zeroGradient;
    }
    procBoundary4to0
    {
        type            processor;
        value           uniform 0;
    }
    procBoundary4to5
    {
        type            processor;
        value           uniform 0;
    }
    procBoundary4to6
    {
        type            processor;
        value           uniform 0;
    }
}


// ************************************************************************* //
