/*--------------------------------*- C++ -*----------------------------------*\
| =========                 |                                                 |
| \\      /  F ield         | OpenFOAM: The Open Source CFD Toolbox           |
|  \\    /   O peration     | Version:  4.x                                   |
|   \\  /    A nd           | Web:      www.OpenFOAM.org                      |
|    \\/     M anipulation  |                                                 |
\*---------------------------------------------------------------------------*/
FoamFile
{
    version     2.0;
    format      ascii;
    class       volScalarField;
    location    "8.5";
    object      QPartFluidCoeff;
}
// * * * * * * * * * * * * * * * * * * * * * * * * * * * * * * * * * * * * * //

dimensions      [1 -1 -3 -1 0 0 0];

internalField   nonuniform List<scalar> 
108
(
-1.62378e+07
-2.37028e+07
-2.76942e+07
-1.97881e+07
-2.3411e+07
-1.9782e+07
-2.91876e+07
-2.28221e+07
-3.18238e+07
-2.3216e+07
-2.41421e+07
-3.04366e+07
-3.24433e+07
-3.29646e+07
-2.76418e+07
-2.63015e+07
-1.83591e+07
-3.66185e+07
-2.21018e+07
-3.41049e+07
-2.63599e+07
-3.1223e+07
-2.78492e+07
-2.0807e+07
-2.39807e+07
-3.43654e+07
-2.2112e+07
-1.14637e+07
-2.23339e+07
-3.08863e+07
-1.88834e+07
-2.89661e+07
-2.10334e+07
-3.76074e+07
-2.01712e+07
-2.33911e+07
-1.67051e+07
-1.82775e+07
-2.64866e+07
-2.75453e+07
-2.79865e+07
-1.83028e+07
-1.81964e+07
-2.57151e+07
-3.18327e+07
-2.05918e+07
-2.52064e+07
-2.53764e+07
-2.54685e+07
-2.52482e+07
-2.2051e+07
-2.77281e+07
-3.01158e+07
-3.44911e+07
-1.38337e+07
-2.43845e+07
-3.29389e+07
-2.75294e+07
-3.04794e+07
-2.74872e+07
-2.69272e+07
-2.4419e+07
-2.85337e+07
-2.05355e+07
-2.84926e+07
-2.47999e+07
-3.20647e+07
-3.58163e+07
-2.40873e+07
-3.89661e+07
-2.8498e+07
-2.68853e+07
-1.50222e+07
-2.10132e+07
-1.46245e+07
-1.99837e+07
-2.07572e+07
-2.63555e+07
-2.471e+07
-2.30616e+07
-2.69528e+07
-1.61015e+07
-2.99597e+07
-2.33834e+07
-1.93352e+07
-2.44515e+07
-2.54743e+07
-2.42415e+07
-2.08222e+07
-2.84381e+07
-1.6229e+07
-2.52426e+07
-2.78533e+07
-2.31636e+07
-2.15484e+07
-2.34536e+07
-2.44641e+07
-2.7206e+07
-2.35978e+07
-2.46694e+07
-2.33992e+07
-2.20191e+07
-2.70149e+07
-2.81921e+07
-3.18161e+07
-1.64625e+07
-1.75236e+07
-2.35908e+07
)
;

boundaryField
{
    inlet
    {
        type            calculated;
        value           uniform 0;
    }
    outlet
    {
        type            calculated;
        value           nonuniform 0();
    }
    wall
    {
        type            calculated;
        value           uniform 0;
    }
    procBoundary4to0
    {
        type            processor;
        value           nonuniform List<scalar> 
36
(
324.993
378.668
505.588
393.049
528.277
619.201
443.145
335.278
461.461
385.373
722.857
679.371
604.207
535.982
473.22
780.555
554.646
525.135
388.847
424.36
675.874
465.328
649.067
650.621
622.47
393.885
714.313
362.31
507.665
720.605
778.106
404.169
749.46
643.945
433.414
201.643
)
;
    }
    procBoundary4to5
    {
        type            processor;
        value           nonuniform List<scalar> 
12
(
504.485
615.854
645.042
779.522
572.339
451.041
681.917
289.631
189.14
507.081
495.149
547.636
)
;
    }
    procBoundary4to6
    {
        type            processor;
        value           nonuniform List<scalar> 
27
(
747.013
674.25
454.36
604.955
828.025
469.268
654.159
507.959
752.009
570.619
678.535
735.546
616.1
503.229
595.313
592.282
471.385
717.592
347.521
409.866
539.179
527.958
534.58
489.408
769.181
659.768
338.692
)
;
    }
}


// ************************************************************************* //
