/*--------------------------------*- C++ -*----------------------------------*\
| =========                 |                                                 |
| \\      /  F ield         | OpenFOAM: The Open Source CFD Toolbox           |
|  \\    /   O peration     | Version:  4.x                                   |
|   \\  /    A nd           | Web:      www.OpenFOAM.org                      |
|    \\/     M anipulation  |                                                 |
\*---------------------------------------------------------------------------*/
FoamFile
{
    version     2.0;
    format      ascii;
    class       volVectorField;
    location    "40";
    object      DDtUrel;
}
// * * * * * * * * * * * * * * * * * * * * * * * * * * * * * * * * * * * * * //

dimensions      [0 1 -2 0 0 0 0];

internalField   nonuniform List<vector> 
108
(
(0.00171567 -9.21068e-05 -7.21565e-05)
(0.00103133 -4.49587e-05 -3.99582e-05)
(0.000624208 -1.2896e-05 -2.06784e-05)
(0.00039466 6.87351e-06 -2.61955e-06)
(0.000251524 1.43815e-05 3.78109e-06)
(0.000175859 1.82506e-05 8.70559e-06)
(0.0001159 1.63478e-05 1.15412e-05)
(9.44392e-05 1.66637e-05 2.02549e-05)
(5.1436e-05 1.41991e-05 2.33302e-05)
(0.00166518 -0.000102058 -6.73368e-05)
(0.00097284 -4.45077e-05 -3.60719e-05)
(0.000571008 -1.17422e-05 -1.80194e-05)
(0.000348183 7.88876e-06 -1.98061e-06)
(0.000213567 1.27333e-05 3.95775e-06)
(0.000143054 1.7749e-05 8.68728e-06)
(9.00407e-05 1.45773e-05 1.03298e-05)
(6.94077e-05 1.70375e-05 1.46531e-05)
(3.55787e-05 1.20253e-05 1.47672e-05)
(0.00162088 -7.18138e-05 -6.43384e-05)
(0.00092093 -3.17025e-05 -3.25167e-05)
(0.000527527 -9.36268e-06 -1.45629e-05)
(0.000309971 3.84218e-06 -4.34134e-07)
(0.000184914 7.57904e-06 4.41533e-06)
(0.000117505 1.2868e-05 6.08538e-06)
(7.22677e-05 1.00002e-05 8.12424e-06)
(4.89143e-05 1.20912e-05 8.51114e-06)
(2.5123e-05 6.50652e-06 8.23235e-06)
(0.00160384 -2.09042e-05 -6.40798e-05)
(0.000899382 -7.06108e-06 -3.12021e-05)
(0.00050957 -3.65519e-06 -1.50454e-05)
(0.000292748 -3.79002e-07 -1.32842e-06)
(0.000172902 7.09529e-07 4.38898e-06)
(0.000105092 2.79462e-06 6.34221e-06)
(6.58722e-05 4.04676e-07 6.8935e-06)
(3.94832e-05 -1.02347e-06 6.47583e-06)
(2.11189e-05 -2.0135e-06 5.20323e-06)
(0.00173618 -8.58359e-05 -1.47804e-05)
(0.00104996 -4.08879e-05 -1.33465e-05)
(0.00063843 -1.10446e-05 -1.39253e-05)
(0.000403333 6.16201e-06 -8.79741e-06)
(0.00025676 1.2657e-05 -1.55416e-06)
(0.000177198 1.64693e-05 6.07914e-06)
(0.00011851 1.5355e-05 1.02925e-05)
(9.54871e-05 1.41447e-05 1.46253e-05)
(6.02502e-05 1.14273e-05 1.38438e-05)
(0.00169323 -9.7397e-05 -7.63152e-06)
(0.000999443 -4.23817e-05 -8.39275e-06)
(0.000592202 -9.70047e-06 -9.8309e-06)
(0.000364067 8.14699e-06 -6.98778e-06)
(0.000223949 1.29177e-05 -1.33143e-06)
(0.000149673 1.76707e-05 4.14107e-06)
(9.63004e-05 1.31707e-05 7.33898e-06)
(7.68707e-05 1.18927e-05 9.00942e-06)
(4.67823e-05 6.26261e-06 8.99522e-06)
(0.00164973 -6.89731e-05 -1.79512e-06)
(0.000948542 -2.90918e-05 -5.337e-06)
(0.000547799 -8.38493e-06 -6.43545e-06)
(0.000325393 5.60721e-06 -4.55026e-06)
(0.000195316 8.12469e-06 -4.50401e-07)
(0.000127236 1.19698e-05 1.97546e-06)
(7.96023e-05 7.11339e-06 3.64962e-06)
(5.95345e-05 5.24865e-06 1.89832e-06)
(3.29218e-05 7.10182e-07 3.46124e-06)
(0.00163437 -1.60602e-05 1.27881e-06)
(0.000929721 -5.43411e-06 -2.66465e-06)
(0.000531145 -3.7878e-06 -5.9669e-06)
(0.000311547 -1.55498e-06 -3.17068e-06)
(0.000183756 -1.53255e-06 -2.49331e-07)
(0.000116687 -1.13909e-06 -3.18735e-07)
(7.06986e-05 -2.35519e-06 -3.25366e-07)
(4.91474e-05 -3.9144e-06 -4.81501e-06)
(2.34081e-05 -5.50424e-06 -9.87978e-07)
(0.00177432 -8.31818e-05 1.77206e-05)
(0.00109256 -3.86631e-05 5.28064e-06)
(0.000680231 -8.32036e-06 -5.42522e-06)
(0.000442141 8.73766e-06 -6.84195e-06)
(0.000289613 1.35679e-05 -1.41929e-06)
(0.000206121 1.47922e-05 8.89707e-06)
(0.000149312 1.02971e-05 1.56888e-05)
(0.00013521 6.70053e-06 1.70271e-05)
(0.000104568 5.078e-06 1.57635e-05)
(0.00173494 -9.34365e-05 2.10074e-05)
(0.00104298 -3.98895e-05 7.91334e-06)
(0.000634602 -7.51013e-06 -2.30936e-06)
(0.000405375 1.05794e-05 -4.02337e-06)
(0.000259948 1.32391e-05 -6.33453e-07)
(0.000183157 1.46868e-05 6.05131e-06)
(0.000127688 8.14505e-06 8.49164e-06)
(0.000112953 4.5401e-06 7.53266e-06)
(8.08069e-05 -1.76267e-06 7.27079e-06)
(0.00169432 -6.64051e-05 2.67787e-05)
(0.0009971 -2.88372e-05 1.14184e-05)
(0.000590757 -8.34303e-06 -1.34025e-07)
(0.000366228 6.52677e-06 -2.42391e-06)
(0.000228769 8.86405e-06 -1.62843e-06)
(0.000159724 1.03774e-05 1.07498e-06)
(0.000107127 3.12961e-06 2.5264e-06)
(8.91067e-05 -1.18595e-06 7.38356e-07)
(5.67288e-05 -8.01012e-06 1.87766e-06)
(0.00167951 -1.45985e-05 2.74622e-05)
(0.000979337 -8.73542e-06 1.05306e-05)
(0.000573218 -5.65493e-06 -4.94349e-07)
(0.000351758 -2.92443e-06 -2.62078e-06)
(0.000215527 -3.16697e-06 -1.65345e-06)
(0.000146863 -3.69822e-06 -1.00821e-06)
(9.42963e-05 -5.17907e-06 -3.53426e-06)
(7.4564e-05 -7.9087e-06 -6.98726e-06)
(3.95783e-05 -1.24624e-05 -3.91576e-06)
)
;

boundaryField
{
    inlet
    {
        type            calculated;
        value           nonuniform List<vector> 
12
(
(0.00403011 -0.000243223 -0.000175913)
(0.00380531 -0.000433542 -0.000134315)
(0.00372325 -0.000283587 -0.000128532)
(0.00370595 -0.000124696 -0.00014513)
(0.00403664 -0.000184992 3.48414e-05)
(0.00390101 -0.000395935 9.398e-05)
(0.00378688 -0.00027231 0.000122107)
(0.00378784 -5.95753e-05 0.000134152)
(0.00422087 -0.000187889 0.000147492)
(0.00410857 -0.000369008 0.000143514)
(0.00401097 -0.000256146 0.000179598)
(0.00399443 -3.94349e-05 0.000164562)
)
;
    }
    outlet
    {
        type            calculated;
        value           nonuniform 0();
    }
    wall
    {
        type            calculated;
        value           nonuniform List<vector> 
63
(
(0.00422087 -0.000187889 0.000147492)
(0.00410857 -0.000369008 0.000143514)
(0.00401097 -0.000256146 0.000179598)
(0.00399443 -3.94349e-05 0.000164562)
(0.000501991 1.7866e-05 4.86269e-05)
(0.000245943 -1.24431e-06 4.58243e-05)
(0.00011751 -4.67652e-07 6.37739e-05)
(8.11996e-05 -1.71725e-05 4.41196e-05)
(0.000383472 4.05916e-05 -1.90803e-05)
(0.000178387 5.05395e-05 -4.02867e-06)
(5.25426e-05 -7.75403e-07 -3.1246e-06)
(1.50734e-05 -2.1767e-05 -3.31605e-06)
(0.000396201 5.06207e-05 -3.16905e-05)
(0.000267688 8.60678e-05 -7.8014e-06)
(0.000133738 6.64759e-05 -4.63012e-07)
(0.000141613 -7.15556e-06 -3.72608e-06)
(0.000257502 2.90501e-05 -1.93201e-05)
(0.000152633 3.0537e-05 -3.79634e-06)
(5.48084e-05 3.72253e-05 -1.44697e-05)
(5.82968e-05 -1.72759e-05 1.78921e-06)
(0.000278681 2.85061e-05 3.76092e-05)
(0.000218157 4.43032e-05 3.20785e-05)
(0.000173625 6.37638e-05 -6.59714e-06)
(0.000180878 -1.32843e-05 1.03373e-05)
(0.000171517 -1.52263e-06 7.18614e-05)
(8.85189e-05 -8.01391e-06 1.91792e-05)
(5.56808e-05 -8.52728e-06 9.80099e-06)
(6.95151e-05 -3.82658e-06 -2.76916e-05)
(0.000378562 -1.58735e-05 6.18416e-05)
(0.000284713 1.6675e-06 -7.56708e-06)
(0.000197619 -9.77805e-06 -9.47578e-06)
(0.000217568 -1.02691e-05 -5.51727e-05)
(0.00017193 -8.95217e-06 5.24295e-05)
(6.34849e-05 -6.3563e-05 -1.58685e-06)
(4.07892e-06 -6.93438e-05 1.40829e-05)
(-5.70658e-07 -5.7726e-05 1.2067e-05)
(0.00403011 -0.000243223 -0.000175913)
(0.00403664 -0.000184992 3.48414e-05)
(0.00422087 -0.000187889 0.000147492)
(0.000226934 -1.3566e-05 -1.88254e-06)
(0.000241153 1.82862e-05 2.40441e-06)
(0.000501991 1.7866e-05 4.86269e-05)
(0.000123289 1.52027e-05 -1.95774e-05)
(0.000124723 2.30617e-05 -5.03256e-05)
(0.000383472 4.05916e-05 -1.90803e-05)
(0.000180013 4.69502e-05 4.81359e-05)
(0.000144252 2.47664e-05 -4.61494e-05)
(0.000396201 5.06207e-05 -3.16905e-05)
(8.06425e-05 3.85055e-05 1.43116e-05)
(5.54537e-05 1.25098e-05 -2.03067e-05)
(0.000257502 2.90501e-05 -1.93201e-05)
(0.000179764 4.33182e-05 5.00776e-06)
(0.000109605 2.84567e-05 6.34875e-06)
(0.000278681 2.85061e-05 3.76092e-05)
(2.93223e-05 2.66705e-06 -6.61375e-06)
(-1.52354e-05 3.47812e-05 -1.4592e-06)
(0.000171517 -1.52263e-06 7.18614e-05)
(0.000230776 6.03541e-06 7.44865e-05)
(7.36874e-05 4.10169e-05 2.37542e-05)
(0.000378562 -1.58735e-05 6.18416e-05)
(-4.73992e-05 -1.39663e-05 9.62611e-05)
(-0.000108966 2.44747e-05 -7.72108e-06)
(0.00017193 -8.95217e-06 5.24295e-05)
)
;
    }
    procBoundary4to0
    {
        type            processor;
        value           nonuniform List<vector> 
36
(
(0.0017139 -8.89562e-05 -0.000134538)
(0.00104052 -4.37632e-05 -6.92115e-05)
(0.000638836 -1.20753e-05 -2.91987e-05)
(0.000411334 6.44774e-06 -1.35269e-06)
(0.000268551 1.37441e-05 7.03142e-06)
(0.000189377 1.84755e-05 1.47327e-05)
(0.00012672 2.12404e-05 1.36568e-05)
(9.66315e-05 2.52376e-05 1.97032e-05)
(5.15497e-05 2.26014e-05 2.04553e-05)
(0.00166461 -9.95732e-05 -0.000136444)
(0.000981828 -4.52593e-05 -6.72396e-05)
(0.000584349 -1.20994e-05 -2.64008e-05)
(0.000360889 7.47343e-06 1.69159e-06)
(0.000227657 1.28773e-05 8.77281e-06)
(0.000153704 2.08934e-05 1.57391e-05)
(0.000100962 1.76272e-05 1.46109e-05)
(7.39418e-05 2.29498e-05 1.69437e-05)
(4.365e-05 1.72923e-05 1.61309e-05)
(0.00161905 -6.8594e-05 -0.000136872)
(0.000928946 -3.08818e-05 -6.45902e-05)
(0.000537974 -8.57477e-06 -2.39411e-05)
(0.000317351 6.20992e-06 3.11992e-06)
(0.0001972 8.08392e-06 9.96282e-06)
(0.000123388 1.38938e-05 1.6116e-05)
(8.45652e-05 1.03034e-05 1.57276e-05)
(5.1128e-05 1.23105e-05 1.83702e-05)
(3.43463e-05 8.46665e-06 1.31696e-05)
(0.00160479 -1.55809e-05 -0.000137009)
(0.000910964 -4.67571e-06 -6.5067e-05)
(0.000521956 -1.77821e-06 -2.40886e-05)
(0.000306536 8.97032e-07 2.23767e-06)
(0.000186897 2.17331e-08 1.03721e-05)
(0.000119311 -1.17943e-06 1.762e-05)
(7.76067e-05 -2.57029e-07 1.62797e-05)
(4.88244e-05 -1.6188e-08 1.88467e-05)
(3.10456e-05 8.60505e-08 1.22266e-05)
)
;
    }
    procBoundary4to5
    {
        type            processor;
        value           nonuniform List<vector> 
12
(
(4.5237e-05 1.72246e-05 2.36968e-05)
(2.47085e-05 1.47905e-05 1.28557e-05)
(9.66394e-06 5.31725e-06 8.77607e-06)
(5.43691e-06 -2.77493e-06 4.13756e-06)
(5.6358e-05 1.29518e-05 1.35314e-05)
(4.26974e-05 9.73571e-06 7.54411e-06)
(2.18728e-05 1.76741e-06 1.51946e-06)
(1.32372e-05 -3.85658e-06 -2.54984e-06)
(0.000117476 8.2434e-06 1.30438e-05)
(8.64655e-05 2.85975e-06 5.20727e-06)
(5.65822e-05 -5.84733e-06 -1.84792e-06)
(3.4271e-05 -1.07896e-05 -8.47512e-06)
)
;
    }
    procBoundary4to6
    {
        type            processor;
        value           nonuniform List<vector> 
27
(
(0.00161408 3.91073e-05 -6.45717e-05)
(0.000910368 1.75501e-05 -3.33463e-05)
(0.00052033 3.81297e-06 -1.65987e-05)
(0.00030118 -5.17879e-06 -2.99694e-06)
(0.000179708 -6.97629e-06 2.71436e-06)
(0.000106719 -1.1165e-05 5.77097e-06)
(6.71537e-05 -1.01738e-05 5.46604e-06)
(3.98251e-05 -1.27024e-05 4.20812e-06)
(2.00728e-05 -1.0165e-05 2.52431e-06)
(0.00164688 4.31843e-05 4.30887e-06)
(0.00094334 1.73681e-05 -6.97824e-06)
(0.000542545 2.84666e-06 -7.56766e-06)
(0.000319713 -6.9764e-06 -6.44982e-06)
(0.00018732 -9.12791e-06 -3.16047e-06)
(0.000113651 -1.30719e-05 -4.70877e-06)
(6.59416e-05 -1.20028e-05 -2.06562e-06)
(4.03721e-05 -1.38691e-05 -5.1973e-06)
(1.59471e-05 -1.24014e-05 -5.26423e-06)
(0.00169493 4.05843e-05 2.74536e-05)
(0.000993376 1.37372e-05 5.58303e-06)
(0.000584934 7.83817e-07 -3.89045e-06)
(0.000356142 -9.2343e-06 -5.21447e-06)
(0.00021397 -1.19389e-05 -3.93197e-06)
(0.00013603 -1.62306e-05 -4.20845e-06)
(7.83745e-05 -1.54607e-05 -3.99428e-06)
(5.49027e-05 -1.59543e-05 -8.07845e-06)
(2.03956e-05 -1.55532e-05 -9.81209e-06)
)
;
    }
}


// ************************************************************************* //
