/*--------------------------------*- C++ -*----------------------------------*\
| =========                 |                                                 |
| \\      /  F ield         | OpenFOAM: The Open Source CFD Toolbox           |
|  \\    /   O peration     | Version:  4.x                                   |
|   \\  /    A nd           | Web:      www.OpenFOAM.org                      |
|    \\/     M anipulation  |                                                 |
\*---------------------------------------------------------------------------*/
FoamFile
{
    version     2.0;
    format      ascii;
    class       volScalarField;
    location    "40";
    object      QWallFluidCoeff;
}
// * * * * * * * * * * * * * * * * * * * * * * * * * * * * * * * * * * * * * //

dimensions      [1 -1 -3 -1 0 0 0];

internalField   nonuniform List<scalar> 
108
(
-2.75841e+06
-1.39027e+06
-2.78972e+06
-1.46409e+06
-2.83125e+06
-1.5138e+06
-2.86799e+06
-1.52624e+06
-2.90947e+06
0
0
0
0
0
0
0
0
0
0
0
0
0
0
0
0
0
0
0
0
0
0
0
0
0
0
0
-2.75536e+06
-1.39813e+06
-2.79188e+06
-1.4557e+06
-2.81732e+06
-1.50046e+06
-2.85025e+06
-1.47571e+06
-2.84531e+06
0
0
0
0
0
0
0
0
0
0
0
0
0
0
0
0
0
0
0
0
0
0
0
0
0
0
0
-5.52881e+06
-3.03548e+06
-5.76427e+06
-3.45764e+06
-5.91352e+06
-3.67982e+06
-6.02034e+06
-3.85788e+06
-6.1953e+06
-2.74738e+06
-1.40975e+06
-2.79303e+06
-1.5258e+06
-2.84579e+06
-1.59781e+06
-2.89165e+06
-1.65228e+06
-2.95274e+06
-2.72159e+06
-1.33548e+06
-2.72618e+06
-1.35718e+06
-2.75477e+06
-1.39424e+06
-2.79684e+06
-1.44063e+06
-2.84899e+06
-2.69372e+06
-1.31279e+06
-2.70529e+06
-1.3012e+06
-2.72346e+06
-1.33845e+06
-2.78081e+06
-1.42279e+06
-2.83997e+06
)
;

boundaryField
{
    inlet
    {
        type            calculated;
        value           uniform 0;
    }
    outlet
    {
        type            calculated;
        value           nonuniform 0();
    }
    wall
    {
        type            calculated;
        value           uniform 0;
    }
    procBoundary4to0
    {
        type            processor;
        value           uniform 0;
    }
    procBoundary4to5
    {
        type            processor;
        value           uniform 0;
    }
    procBoundary4to6
    {
        type            processor;
        value           uniform 0;
    }
}


// ************************************************************************* //
