/*--------------------------------*- C++ -*----------------------------------*\
  =========                 |
  \\      /  F ield         | OpenFOAM: The Open Source CFD Toolbox
   \\    /   O peration     | Website:  https://openfoam.org
    \\  /    A nd           | Version:  4.x
     \\/     M anipulation  |
\*---------------------------------------------------------------------------*/
FoamFile
{
    version     2.0;
    format      ascii;
    class       Cloud<passiveParticle>;
    location    0;
    object      positions;
}
// * * * * * * * * * * * * * * * * * * * * * * * * * * * * * * * * * * * * * //

348
(
( 0.255978 -0.0172317 0.0199785 ) 39
( 0.253149 -0.00314725 0.0336751 ) 48
( 0.256889 0.0116633 0.0209055 ) 48
( 0.421188 -0.0532307 -0.00937969 ) 10
( 0.328362 -0.0516013 0.0356137 ) 32
( 0.439656 -0.086737 -0.00616897 ) 3
( 0.479804 -0.0721245 0.0133758 ) 5
( 0.429398 -0.0905597 0.0309657 ) 27
( 0.346574 -0.057596 0.0231401 ) 33
( 0.46905 -0.0593995 0.0236777 ) 37
( 0.438552 -0.021018 0.0177778 ) 45
( 0.477613 -0.0231405 -0.000290222 ) 20
( 0.344172 -0.0902013 0.00358982 ) 0
( 0.431767 -0.0409143 0.0119137 ) 18
( 0.45663 -0.0434017 0.000603552 ) 11
( 0.287627 -0.0166784 -0.00536013 ) 13
( 0.373389 -0.0737817 0.00182348 ) 1
( 0.402748 -0.057808 -0.00412605 ) 9
( 0.280595 -0.0346761 -0.00971578 ) 13
( 0.344934 -0.0182627 0.00427735 ) 15
( 0.39297 -0.073095 0.00362264 ) 2
( 0.283051 -0.029679 0.00910083 ) 13
( 0.321743 -0.025691 -0.00886718 ) 14
( 0.333622 -0.0747265 -0.00339479 ) 0
( 0.363943 -0.084341 0.0306363 ) 25
( 0.362855 -0.0224678 -0.00297235 ) 16
( 0.489647 -0.044806 0.0248184 ) 38
( 0.43597 -0.0902618 0.0126717 ) 3
( 0.481805 -0.0718495 -0.00618011 ) 5
( 0.370488 -0.0544007 0.00550921 ) 8
( 0.432792 -0.0550139 0.0260993 ) 36
( 0.448795 -0.0717966 0.00271514 ) 4
( 0.312528 -0.0762219 0.0169631 ) 23
( 0.391659 -0.0907104 0.0243207 ) 26
( 0.348539 -0.0717557 0.00937443 ) 0
( 0.418854 -0.0312197 0.0283527 ) 45
( 0.397996 -0.0880365 -0.00878501 ) 2
( 0.421784 -0.0773477 0.0178935 ) 27
( 0.310735 -0.057 0.0226854 ) 32
( 0.425134 -0.0298465 -0.00902443 ) 18
( 0.452372 -0.066649 0.0313971 ) 37
( 0.465868 -0.0316739 -0.0133237 ) 19
( 0.401533 -0.0262103 0.0156793 ) 44
( 0.340078 -0.0562845 -0.00496907 ) 7
( 0.325267 -0.024219 0.0106121 ) 14
( 0.360421 -0.086275 -0.00687852 ) 0
( 0.32194 -0.0622418 0.00676628 ) 6
( 0.384176 -0.0385472 0.0238902 ) 43
( 0.383546 -0.0577514 0.0193509 ) 34
( 0.277941 -0.0599722 0.0190093 ) 31
( 0.322305 -0.0593494 -0.0129845 ) 6
( 0.403698 -0.0434968 0.0245042 ) 35
( 0.346929 -0.0902484 0.023073 ) 24
( 0.454968 -0.0175913 0.0285347 ) 46
( 0.391081 -0.0281294 -0.00109061 ) 17
( 0.26047 -0.0718552 0.022641 ) 21
( 0.454554 -0.0905167 0.00630366 ) 4
( 0.384718 -0.0905205 0.00596479 ) 1
( 0.359316 -0.041661 -0.00406294 ) 15
( 0.49047 -0.0171319 0.0130682 ) 20
( 0.465487 -0.0618123 0.00451956 ) 11
( 0.489112 -0.0557039 0.00816945 ) 12
( 0.474664 -0.090474 0.0200089 ) 29
( 0.490354 -0.0361521 0.00702499 ) 20
( 0.42041 -0.0901696 -0.00420888 ) 3
( 0.453444 -0.0341034 0.0176223 ) 46
( 0.421066 -0.0245001 0.00973663 ) 18
( 0.417 -0.0534568 0.0141033 ) 10
( 0.356104 -0.031913 0.0130883 ) 15
( 0.330624 -0.0475233 0.0165346 ) 32
( 0.376387 -0.0211551 0.0283893 ) 43
( 0.272112 -0.0274532 0.0252 ) 39
( 0.449628 -0.0556238 0.0147364 ) 37
( 0.356967 -0.0205098 0.0288249 ) 42
( 0.265212 -0.0459976 0.0248896 ) 30
( 0.38181 -0.0450076 -0.00795197 ) 8
( 0.446922 -0.02634 0.000496976 ) 19
( 0.403518 -0.0668159 0.0187113 ) 35
( 0.302484 -0.0290684 0.00276685 ) 13
( 0.313084 -0.0385728 0.0162933 ) 41
( 0.458166 -0.0850173 -0.0125415 ) 4
( 0.366255 -0.0471561 0.024249 ) 34
( 0.364548 -0.0665096 0.0198838 ) 34
( 0.321647 -0.0438002 -0.000808733 ) 6
( 0.473153 -0.0488878 -0.0076294 ) 12
( 0.471767 -0.0294017 0.0248419 ) 46
( 0.479579 -0.0884574 0.0394563 ) 29
( 0.310902 -0.0419961 0.0354917 ) 41
( 0.358198 -0.0640499 -0.00604671 ) 7
( 0.458918 -0.0651258 -0.0136883 ) 11
( 0.3655 -0.0900514 0.0118413 ) 1
( 0.33257 -0.0747129 0.0206898 ) 23
( 0.453771 -0.0472751 0.0321681 ) 37
( 0.290928 -0.0718336 0.0280897 ) 22
( 0.341109 -0.0384567 0.00284597 ) 15
( 0.472897 -0.0900595 -0.000565751 ) 5
( 0.490887 -0.0542738 -0.0114808 ) 12
( 0.316012 -0.0224363 0.0280473 ) 41
( 0.410481 -0.0901361 0.0279306 ) 26
( 0.411081 -0.039335 0.00141782 ) 17
( 0.432981 -0.0603352 0.00494938 ) 10
( 0.489583 -0.0631247 0.0313685 ) 38
( 0.393509 -0.0454502 0.00792415 ) 9
( 0.380762 -0.0749695 0.0276229 ) 25
( 0.473122 -0.0442978 0.0118692 ) 12
( 0.339334 -0.0295001 0.0232581 ) 42
( 0.461253 -0.0761904 0.017243 ) 28
( 0.374567 -0.0346482 0.00734379 ) 16
( 0.268875 -0.0900516 0.0190473 ) 21
( 0.489927 -0.0900073 -0.0120061 ) 5
( 0.438364 -0.0440315 -0.00613117 ) 10
( 0.316209 -0.0901256 0.0302862 ) 23
( 0.378797 -0.0901213 -0.0130464 ) 1
( 0.293014 -0.044261 0.0270619 ) 31
( 0.406277 -0.0869516 0.00909915 ) 2
( 0.417249 -0.0710209 -0.000298447 ) 10
( 0.373343 -0.0405902 0.0416375 ) 43
( 0.452897 -0.0904561 0.0274548 ) 28
( 0.472669 -0.0452591 0.0363068 ) 38
( 0.273668 0.00490743 0.0288198 ) 48
( 0.491032 -0.0816999 0.0257239 ) 29
( 0.437719 -0.0363727 0.0299582 ) 45
( 0.490435 -0.090135 0.00789163 ) 5
( 0.341627 -0.0440598 0.0523882 ) 62
( 0.322586 -0.0609976 0.0518944 ) 61
( 0.282055 -0.0108901 0.0551392 ) 78
( 0.267084 -0.0899185 0.0394338 ) 21
( 0.382851 -0.0241412 0.0468093 ) 72
( 0.398171 -0.0904966 0.0520571 ) 55
( 0.423239 -0.0351618 0.0571855 ) 74
( 0.347821 -0.0707581 0.0552261 ) 62
( 0.340469 -0.0903416 0.0570221 ) 53
( 0.489765 -0.0340023 -0.0125423 ) 20
( 0.296289 0.00149481 0.0483695 ) 78
( 0.289381 -0.0247776 0.0432533 ) 69
( 0.327591 -0.00948316 0.0489018 ) 79
( 0.485097 -0.0234221 0.0484559 ) 76
( 0.271671 -0.0729568 0.0575826 ) 50
( 0.38712 -0.0554009 0.0522407 ) 63
( 0.439323 -0.0685457 0.0540095 ) 65
( 0.265319 -0.053666 0.0519447 ) 59
( 0.461563 -0.0904504 0.0454255 ) 57
( 0.454234 -0.0170733 0.0576605 ) 75
( 0.490383 -0.0902826 0.0771889 ) 89
( 0.312364 -0.0419389 0.0679194 ) 70
( 0.298935 -0.0581724 0.0590886 ) 60
( 0.362193 -0.0342578 0.056764 ) 72
( 0.3747 -0.0902912 0.0582554 ) 54
( 0.420616 -0.0739016 0.0571556 ) 56
( 0.370849 -0.0561724 0.0634533 ) 63
( 0.456225 -0.0596533 0.0490448 ) 66
( 0.28502 -0.0901805 0.0581369 ) 51
( 0.489742 -0.0551634 0.0589796 ) 67
( 0.32636 -0.0777242 0.0614557 ) 52
( 0.348468 0.0104916 0.0617989 ) 80
( 0.438555 -0.0481304 0.0575632 ) 65
( 0.471334 -0.0734008 0.0600554 ) 57
( 0.431415 -0.0901141 0.0611591 ) 56
( 0.335335 -0.0241984 0.0598212 ) 71
( 0.462287 -0.0356269 0.0684114 ) 75
( 0.283819 -0.0297727 0.0616208 ) 69
( 0.401094 -0.0432146 0.0581005 ) 64
( 0.368317 -0.0153476 0.0572703 ) 72
( 0.323827 0.00749398 0.0590676 ) 79
( 0.283717 0.00666773 0.0638849 ) 78
( 0.386644 -0.0748084 0.0528715 ) 54
( 0.434638 -0.0199457 0.0630942 ) 74
( 0.310387 -0.0258633 0.0467494 ) 70
( 0.335416 -0.0570257 0.0662114 ) 62
( 0.380595 -0.0388734 0.0600846 ) 72
( 0.25554 -0.0205453 0.042533 ) 39
( 0.25447 -0.041729 0.0408417 ) 39
( 0.265555 -0.0220949 0.0594377 ) 68
( 0.402695 -0.0237542 0.0549738 ) 73
( 0.454971 -0.0398381 0.0504862 ) 75
( 0.417456 -0.0902877 0.0467467 ) 56
( 0.310183 -0.00947344 0.0575425 ) 79
( 0.367164 -0.07274 0.0532238 ) 54
( 0.425387 -0.0572353 0.0466144 ) 65
( 0.336486 -0.0703764 0.039397 ) 33
( 0.358972 -0.0520146 0.0487011 ) 62
( 0.472285 -0.068778 0.0408435 ) 38
( 0.255273 -0.0756533 0.0469586 ) 50
( 0.373963 -0.06003 0.0383976 ) 34
( 0.296667 -0.0418544 0.0489463 ) 69
( 0.355492 -0.0877785 0.0704446 ) 53
( 0.42086 -0.0529455 0.0654737 ) 65
( 0.260506 0.0139288 0.0399297 ) 48
( 0.297628 -0.0256808 0.0215371 ) 40
( 0.299387 -0.0901297 0.0441261 ) 51
( 0.465882 -0.0248352 0.0434495 ) 75
( 0.353752 -0.00778228 0.0729013 ) 111
( 0.406518 -0.0618714 0.0505371 ) 64
( 0.4122 -0.0438322 0.0419771 ) 35
( 0.434317 -0.0723219 0.0352808 ) 27
( 0.272041 -0.0695856 0.038191 ) 30
( 0.317484 -0.0705757 0.0351726 ) 32
( 0.473408 -0.0158464 0.0617199 ) 76
( 0.307892 -0.0741206 0.0518814 ) 52
( 0.490151 -0.0739941 0.0479633 ) 58
( 0.380375 -0.0901836 0.0399258 ) 25
( 0.490562 -0.0261525 0.0302216 ) 47
( 0.337898 0.00711098 0.0454359 ) 80
( 0.490634 -0.0418334 0.0443633 ) 76
( 0.348928 -0.0255228 0.0459292 ) 71
( 0.322428 -0.041249 0.0514597 ) 70
( 0.288743 -0.0736731 0.0476635 ) 51
( 0.26186 -0.0901555 0.0585703 ) 50
( 0.271928 -0.0335684 0.043978 ) 68
( 0.412042 -0.0894065 0.0659489 ) 55
( 0.402871 -0.0603522 0.0695601 ) 64
( 0.350067 -0.0416737 0.0344716 ) 42
( 0.398082 -0.0775648 0.0371027 ) 26
( 0.392983 -0.0401161 0.040973 ) 44
( 0.334369 -0.090074 0.0381743 ) 24
( 0.484291 -0.0901829 0.0585308 ) 58
( 0.280394 -0.0551344 0.0640939 ) 60
( 0.284958 -0.0903556 0.030752 ) 22
( 0.30036 -0.0114041 0.0345213 ) 49
( 0.414364 -0.0164415 0.0690185 ) 73
( 0.357834 -0.090179 0.0482783 ) 53
( 0.392381 -0.0896311 0.0710666 ) 55
( 0.442257 -0.087876 0.0446858 ) 56
( 0.490812 -0.0350799 0.0637953 ) 76
( 0.355075 -0.0470579 0.072319 ) 93
( 0.415237 -0.0685818 0.0343494 ) 35
( 0.452279 -0.0818064 0.0599511 ) 57
( 0.407086 0.00550556 0.0731054 ) 113
( 0.302126 0.00740293 0.029043 ) 49
( 0.315992 -0.0232026 0.0731991 ) 101
( 0.281998 -0.0527185 0.0412417 ) 31
( 0.395621 -0.0582901 0.0346653 ) 35
( 0.25121 -0.0602048 0.0356527 ) 30
( 0.304488 -0.0901538 0.0636527 ) 51
( 0.294658 -0.0463437 0.0741218 ) 91
( 0.386569 -0.019428 0.0653878 ) 72
( 0.402096 -0.0236058 0.0353526 ) 44
( 0.474417 -0.039227 0.0543462 ) 76
( 0.44117 -0.0252775 0.0454287 ) 74
( 0.355855 -0.0677286 0.0375156 ) 33
( 0.304067 0.0125845 0.062201 ) 78
( 0.301336 -0.0597444 0.0397137 ) 31
( 0.272783 -0.0124469 0.0378911 ) 48
( 0.265556 -0.00169081 0.0646461 ) 77
( 0.335659 0.00857307 0.0762167 ) 111
( 0.444586 -0.0610185 0.0713456 ) 66
( 0.288764 -0.0129893 0.0903637 ) 109
( 0.490043 -0.0730005 0.0677144 ) 58
( 0.463039 -0.0567328 0.0669237 ) 66
( 0.380064 -0.0729406 0.0714891 ) 85
( 0.328956 -0.00861302 0.0697794 ) 79
( 0.443537 -0.0353706 0.07131 ) 74
( 0.34131 -0.0745497 0.0730647 ) 84
( 0.419279 -0.0201214 0.0449234 ) 74
( 0.467015 -0.0905398 0.0689668 ) 57
( 0.347871 -0.0076173 0.0541491 ) 80
( 0.427156 -0.0691764 0.0750946 ) 96
( 0.318354 -0.0906624 0.0497615 ) 52
( 0.408752 -0.0349893 0.0732602 ) 104
( 0.385429 -0.0546162 0.0760887 ) 94
( 0.370753 -0.0280239 0.0735056 ) 103
( 0.251389 -0.0141461 0.0712498 ) 77
( 0.3353 -0.0387427 0.0730964 ) 102
( 0.294335 -0.0272436 0.078194 ) 100
( 0.478092 -0.0465987 0.0725101 ) 98
( 0.389804 -0.0351021 0.0766182 ) 104
( 0.37345 -0.00841341 0.0751073 ) 112
( 0.28883 -0.0730383 0.0672758 ) 51
( 0.425549 -0.0902237 0.0802324 ) 87
( 0.330259 -0.0271437 0.0406013 ) 41
( 0.267153 -0.0398399 0.0682085 ) 68
( 0.426502 -0.0298745 0.0780242 ) 105
( 0.311935 -0.000399121 0.074721 ) 110
( 0.477404 -0.0272903 0.0770301 ) 107
( 0.312622 -0.0670187 0.0695187 ) 61
( 0.358863 -0.0897821 0.0902626 ) 84
( 0.351086 -0.0272606 0.0727377 ) 102
( 0.398535 -0.0692182 0.0892926 ) 95
( 0.382931 0.00871503 0.0784575 ) 112
( 0.362188 -0.0641925 0.0796507 ) 94
( 0.276962 -0.0149614 0.0738387 ) 99
( 0.398775 -0.0179419 0.0807662 ) 104
( 0.295139 -0.00946344 0.0698206 ) 78
( 0.3639 0.00900751 0.0737345 ) 112
( 0.264065 -0.062258 0.0721071 ) 90
( 0.327925 -0.0731794 0.0900771 ) 83
( 0.32199 -0.0892986 0.079856 ) 83
( 0.431921 -0.0501685 0.0816143 ) 96
( 0.406453 -0.0905343 0.0850494 ) 86
( 0.27084 -0.0903407 0.0760018 ) 81
( 0.373601 -0.0904672 0.0773337 ) 85
( 0.281366 -0.0625818 0.082313 ) 91
( 0.375217 -0.0455472 0.0902699 ) 94
( 0.344784 -0.00707811 0.0903441 ) 111
( 0.459282 -0.0735667 0.0758762 ) 88
( 0.415696 0.000585555 0.0900562 ) 113
( 0.454797 -0.0473508 0.0821025 ) 97
( 0.287466 0.00567578 0.0843234 ) 109
( 0.386146 -0.0067511 0.0904525 ) 112
( 0.474124 -0.0822867 0.0847567 ) 89
( 0.290458 -0.0900816 0.0774199 ) 82
( 0.380157 -0.02584 0.0906082 ) 103
( 0.413979 -0.0571629 0.0854488 ) 95
( 0.332643 -0.0215525 0.0840723 ) 101
( 0.35229 -0.0386023 0.0901257 ) 102
( 0.25103 -0.020407 0.0901428 ) 99
( 0.378834 -0.0665762 0.0902964 ) 94
( 0.447543 -0.019422 0.0823661 ) 106
( 0.438049 -0.0788253 0.0904223 ) 87
( 0.270241 0.012783 0.0903981 ) 108
( 0.255977 0.00171178 0.0824539 ) 108
( 0.49043 -0.0396337 0.0859113 ) 107
( 0.47279 -0.0630623 0.0900754 ) 98
( 0.339019 -0.0901107 0.0901753 ) 84
( 0.307818 -0.0353588 0.0902198 ) 101
( 0.340012 -0.0542423 0.09003 ) 93
( 0.268635 -0.029518 0.0903482 ) 99
( 0.490375 -0.0588654 0.0815419 ) 98
( 0.395753 -0.0472262 0.0906516 ) 95
( 0.363714 -0.00119963 0.0904646 ) 112
( 0.414412 -0.0385693 0.0909924 ) 104
( 0.300229 -0.0732086 0.083068 ) 82
( 0.268975 -0.00994029 0.0906688 ) 108
( 0.319999 -0.055398 0.0831109 ) 92
( 0.279374 -0.0803871 0.0904483 ) 82
( 0.398676 0.0103368 0.0903037 ) 113
( 0.444679 -0.0902998 0.0758621 ) 88
( 0.325259 -0.00276289 0.0900752 ) 110
( 0.305201 -0.090309 0.0905312 ) 82
( 0.347888 -0.0723958 0.0907855 ) 84
( 0.45111 -0.0643141 0.0906006 ) 97
( 0.471547 -0.0411515 0.0904091 ) 106
( 0.441794 -0.0358801 0.0908436 ) 105
( 0.267707 -0.0486517 0.0859623 ) 90
( 0.309132 -0.015411 0.0901411 ) 101
( 0.41611 -0.0190226 0.0906492 ) 104
( 0.386151 -0.0850417 0.0906901 ) 85
( 0.490348 -0.020498 0.0902977 ) 107
( 0.465322 -0.0224056 0.0909418 ) 106
( 0.285186 -0.0401072 0.0902018 ) 100
( 0.30604 0.00887167 0.0905716 ) 110
( 0.41737 -0.0755355 0.0906626 ) 87
( 0.490824 -0.0761875 0.0908177 ) 89
( 0.327179 -0.0391352 0.0907346 ) 101
( 0.457681 -0.0903191 0.0904634 ) 88
( 0.297565 -0.0555301 0.0907636 ) 91
( 0.264487 -0.0674618 0.0908111 ) 90
( 0.360988 -0.0207864 0.0901448 ) 102
)
