/*--------------------------------*- C++ -*----------------------------------*\
| =========                 |                                                 |
| \\      /  F ield         | OpenFOAM: The Open Source CFD Toolbox           |
|  \\    /   O peration     | Version:  4.x                                   |
|   \\  /    A nd           | Web:      www.OpenFOAM.org                      |
|    \\/     M anipulation  |                                                 |
\*---------------------------------------------------------------------------*/
FoamFile
{
    version     2.0;
    format      ascii;
    class       volVectorField;
    location    "10";
    object      GField;
}
// * * * * * * * * * * * * * * * * * * * * * * * * * * * * * * * * * * * * * //

dimensions      [1 -2 -1 0 0 0 0];

internalField   nonuniform List<vector> 
87
(
(86.9844 0.754527 2.60022)
(17.2326 0.274579 0.0497233)
(86.8453 1.48135 3.01336)
(98.745 3.32609 -1.51228)
(52.8219 1.25323 -0.882106)
(102.845 1.98357 3.15625)
(88.7129 1.77005 -3.53536)
(30.6271 1.25272 -1.79405)
(83.667 2.27062 -3.25343)
(17.2703 0.773577 -1.14178)
(80.2709 1.56595 -1.21549)
(8.20434 0.477787 -0.343715)
(79.402 0.862457 0.822179)
(3.47852 0.241486 -0.112537)
(79.2436 0.159818 0.439618)
(90.8079 4.73247 -3.0832)
(33.1994 1.75784 -1.98154)
(86.3178 4.47451 -3.08526)
(22.6299 1.20697 -1.55056)
(82.8671 2.96379 -1.38117)
(13.8594 0.63207 -0.624391)
(81.1636 2.18082 0.602706)
(7.93461 0.347106 -0.238852)
(80.6565 0.81752 0.997843)
(92.7059 3.77891 -3.33665)
(43.0214 2.20865 -2.58209)
(93.0849 4.47612 -3.86248)
(44.4519 2.04606 -3.1798)
(92.6617 3.69897 -3.06492)
(44.1477 1.72109 -2.39078)
(93.2258 3.21408 -1.05214)
(45.4366 1.39432 -1.07209)
(94.7373 1.72808 1.99313)
(89.0223 2.1884 1.90863)
(34.4139 1.11334 0.272963)
(85.4418 2.22608 1.80587)
(25.3694 0.919133 0.448261)
(83.7756 1.40782 2.26687)
(19.3425 0.491088 0.595894)
(83.1518 0.792402 2.74261)
(15.6407 0.406866 1.00668)
(83.2515 0.688933 1.49953)
(91.1474 4.35987 1.57122)
(37.2966 1.89021 0.395838)
(88.2397 3.94227 1.94889)
(30.8925 1.19785 0.269401)
(86.2546 2.87412 2.63145)
(25.3329 0.938703 0.618669)
(84.6782 2.07776 3.51684)
(20.3882 0.517128 0.80395)
(84.0015 1.38278 2.81794)
(92.473 3.4117 0.426782)
(45.2729 2.12838 -0.365386)
(94.5286 3.94238 0.144367)
(48.6993 2.00513 -0.391529)
(95.6969 3.55479 0.566668)
(51.4558 2.04406 -0.239786)
(98.0242 3.25197 1.30332)
(54.4482 1.74262 0.689193)
(101.345 2.08209 2.66913)
(91.183 2.52485 1.53118)
(42.383 1.12941 0.412234)
(90.6035 2.11195 0.938497)
(40.6321 0.915951 0.0501975)
(89.9515 1.15049 0.706519)
(39.3955 0.362491 0.164678)
(89.8811 -0.00228935 0.883745)
(38.3682 0.148401 0.454054)
(91.5782 -0.29061 0.88683)
(91.8789 3.30015 1.21348)
(44.5608 1.63215 0.44879)
(92.7432 3.19141 1.16198)
(46.3936 1.46616 0.170178)
(93.2453 2.362 1.25526)
(48.2731 1.18295 0.520257)
(94.6726 2.02674 1.97498)
(50.8182 0.272677 0.531332)
(96.8199 1.01163 1.74439)
(93.0002 2.6069 0.401316)
(47.3699 1.53803 -0.215596)
(95.9587 2.72001 -0.104593)
(52.5663 1.5947 -0.411062)
(98.894 2.18146 -0.381324)
(56.2706 1.10182 -0.718973)
(101.221 1.63225 -0.040185)
(59.8477 0.660171 -0.811551)
(103.365 0.403025 0.152845)
)
;

boundaryField
{
    inlet
    {
        type            calculated;
        value           uniform (67 0 0);
    }
    outlet
    {
        type            calculated;
        value           nonuniform 0();
    }
    wall
    {
        type            calculated;
        value           uniform (0 0 0);
    }
    procBoundary6to0
    {
        type            processor;
        value           uniform (85.3565 0.10926 2.97921);
    }
    procBoundary6to2
    {
        type            processor;
        value           nonuniform List<vector> 
32
(
(85.8648 0.429777 4.34318)
(12.2867 0.513362 0.708671)
(85.5992 2.6627 5.54126)
(98.3548 3.68572 -1.57773)
(51.9339 1.85741 0.170248)
(101.893 3.11953 5.02738)
(91.0802 1.68557 -7.12804)
(33.272 1.08876 -3.64069)
(86.6231 2.06448 -6.34037)
(23.7084 0.791074 -2.41645)
(84.7845 1.10244 -2.8243)
(17.8154 0.557167 -0.676809)
(85.1311 0.3326 1.11401)
(15.815 0.435154 -0.17421)
(15.815 0.435154 -0.17421)
(15.815 0.435154 -0.17421)
(91.456 3.93022 -6.49128)
(35.3176 1.8512 -3.71723)
(88.0272 3.90045 -6.07142)
(27.2236 1.14617 -2.76678)
(85.8374 2.99792 -3.30112)
(20.4078 0.67314 -0.958833)
(85.302 2.1841 1.03938)
(85.302 2.1841 1.03938)
(85.302 2.1841 1.03938)
(92.8977 3.59051 -6.11623)
(43.8601 2.12671 -4.39952)
(94.5116 4.25044 -6.71423)
(46.5615 2.05011 -4.84064)
(96.271 3.99609 -5.4754)
(49.2086 1.90862 -3.07971)
(49.2086 1.90862 -3.07971)
)
;
    }
    procBoundary6to4
    {
        type            processor;
        value           nonuniform List<vector> 
27
(
(90.9135 -1.10809 -3.66217)
(31.8131 0.00416335 -1.90784)
(83.9419 -0.484803 -3.09372)
(18.4397 -0.18332 -1.27796)
(79.8922 -0.340989 -1.13184)
(8.55698 -0.0561485 -0.241059)
(77.4856 0.183148 0.789053)
(2.10248 -0.0102012 -0.0370284)
(76.6635 0.170717 1.3324)
(89.9184 -1.25374 0.872638)
(34.1763 -0.0579218 0.846845)
(85.2263 -0.561289 2.30565)
(24.1302 -0.104645 0.759969)
(81.9691 -0.490381 3.46911)
(17.2389 -0.278896 1.34801)
(80.4162 -0.441471 4.90447)
(12.1261 -0.232413 1.33953)
(79.1249 -0.523601 3.73357)
(89.837 -0.404043 0.904068)
(40.346 -0.11363 0.633101)
(89.1866 -0.74324 1.42541)
(38.5581 -0.468304 0.648665)
(89.0178 -0.965956 1.8226)
(40.0888 -0.713971 1.14355)
(91.3643 -1.42083 3.21109)
(46.1047 -0.836542 1.58749)
(94.3823 -1.96183 3.29741)
)
;
    }
    procBoundary6to7
    {
        type            processor;
        value           nonuniform List<vector> 
12
(
(16.7245 1.22406 -0.723095)
(18.8897 0.109048 -0.409871)
(57.5646 0.530488 1.90432)
(2.4255 0.29068 -0.216479)
(5.0733 0.252193 -0.363886)
(46.846 0.954433 0.648443)
(11.8387 0.768677 0.48621)
(16.7811 0.418518 0.382736)
(58.0714 1.44396 2.15468)
(36.2698 0.386846 -0.392694)
(53.0676 0.442505 -0.207256)
(62.4373 0.212566 -1.00138)
)
;
    }
}


// ************************************************************************* //
