/*--------------------------------*- C++ -*----------------------------------*\
| =========                 |                                                 |
| \\      /  F ield         | OpenFOAM: The Open Source CFD Toolbox           |
|  \\    /   O peration     | Version:  4.x                                   |
|   \\  /    A nd           | Web:      www.OpenFOAM.org                      |
|    \\/     M anipulation  |                                                 |
\*---------------------------------------------------------------------------*/
FoamFile
{
    version     2.0;
    format      ascii;
    class       volScalarField;
    location    "10";
    object      thCond;
}
// * * * * * * * * * * * * * * * * * * * * * * * * * * * * * * * * * * * * * //

dimensions      [1 1 -3 -1 0 0 0];

internalField   nonuniform List<scalar> 
87
(
190.461
190.603
190.51
190.888
190.879
190.848
190.772
190.804
190.813
190.442
190.172
190.311
190.163
190.212
190.05
191.281
190.917
190.814
190.445
190.341
190.259
190.248
190.159
190.152
191.638
191.168
191.082
190.738
190.447
190.273
190.474
190.445
190.362
190.885
190.751
190.558
190.344
190.331
190.195
190.12
190.17
190.003
191.305
190.948
190.74
190.466
190.414
190.388
190.202
190.313
190.092
191.616
191.177
190.997
190.56
190.419
190.425
190.448
190.499
190.437
191.306
191.092
190.768
190.416
190.262
190.154
189.961
190.019
190.362
191.439
191.216
190.835
190.62
190.256
190.363
190.273
190.371
190.165
191.774
191.309
191.003
190.708
190.615
190.308
190.63
190.657
190.445
)
;

boundaryField
{
    inlet
    {
        type            zeroGradient;
    }
    outlet
    {
        type            zeroGradient;
    }
    wall
    {
        type            zeroGradient;
    }
    procBoundary6to0
    {
        type            processor;
        value           uniform 190.789;
    }
    procBoundary6to2
    {
        type            processor;
        value           nonuniform List<scalar> 
32
(
190.955
190.928
190.794
191.093
191.291
190.943
191.515
191.09
190.821
190.77
190.698
190.588
190.49
190.452
190.452
190.452
191.508
191.213
190.888
190.864
190.718
190.627
190.472
190.472
190.472
191.811
191.419
191.206
190.974
190.996
190.831
190.831
)
;
    }
    procBoundary6to4
    {
        type            processor;
        value           nonuniform List<scalar> 
27
(
191.387
191.058
190.692
190.558
190.31
190.29
189.984
190.253
190.251
191.08
190.831
190.642
190.213
190.051
190.102
189.867
190.019
190.096
190.98
190.831
190.69
190.255
190.13
189.923
190.258
190.29
190.202
)
;
    }
    procBoundary6to7
    {
        type            processor;
        value           nonuniform List<scalar> 
12
(
190.148
190.512
190.768
190.193
190.243
190.412
189.912
190.063
190.36
190.058
190.177
190.28
)
;
    }
}


// ************************************************************************* //
