/*--------------------------------*- C++ -*----------------------------------*\
| =========                 |                                                 |
| \\      /  F ield         | OpenFOAM: The Open Source CFD Toolbox           |
|  \\    /   O peration     | Version:  4.x                                   |
|   \\  /    A nd           | Web:      www.OpenFOAM.org                      |
|    \\/     M anipulation  |                                                 |
\*---------------------------------------------------------------------------*/
FoamFile
{
    version     2.0;
    format      ascii;
    class       volScalarField;
    location    "24";
    object      Ksl;
}
// * * * * * * * * * * * * * * * * * * * * * * * * * * * * * * * * * * * * * //

dimensions      [1 -3 -1 0 0 0 0];

internalField   nonuniform List<scalar> 
132
(
197034
3993.01
1e+10
4000.56
1e+10
3975.42
1e+10
3887.69
28397.1
22579.3
3722.44
27956.1
3646.71
38424.5
3647.81
39048.7
3905.1
20694.2
14208.2
3618.71
15142.5
3504.52
14924.4
3483.14
11428.8
3577.01
4966.41
6038.9
3022.77
5914.39
2820.47
5941.39
2566.08
6137.56
2111.27
5660.7
1e+10
3834.25
1e+10
3718.45
67591
3442.04
18318.7
1e+10
4208.76
1e+10
4237.07
1e+10
4261.63
35075.8
4238.04
8012.77
93480.8
4033.53
1e+10
4144.6
1e+10
4439.18
1e+10
5219.42
33979.9
8167.12
3454.73
9345.02
3517.4
11287.4
3690.43
13425.1
4172.47
11938.1
1e+10
4126.99
1e+10
4716.79
14189.5
37600.7
3747.55
63137.8
3639.84
73473.4
3582.47
46591.8
3754.01
18001.6
13481.4
3637.55
14133.3
3523.37
12755.7
3397.36
9242.74
3272.63
4206.51
5850.88
3038.1
5648.12
2865.35
5532.84
2533.63
5417.18
1858.31
4547.42
8853.01
3728.18
7543.74
8833.58
3429.56
9967.77
3466.85
11402.2
3603.51
12974.5
4081.23
11129.9
6442.27
3238.88
6601.36
3290.94
6997.97
3338.44
7083.07
3599.99
6806.37
4718.09
2886.93
4697.48
2876.96
4749.04
2773.8
4437.76
2658.76
3529.55
)
;

boundaryField
{
    inlet
    {
        type            zeroGradient;
    }
    outlet
    {
        type            zeroGradient;
    }
    wall
    {
        type            zeroGradient;
    }
    procBoundary7to0
    {
        type            processor;
        value           uniform 3977.32;
    }
    procBoundary7to1
    {
        type            processor;
        value           uniform 63568.5;
    }
    procBoundary7to3
    {
        type            processor;
        value           nonuniform List<scalar> 
36
(
126545
3953.24
1e+10
3962.24
1e+10
3970.85
1e+10
4129.07
22127.9
95219.8
3922.94
1e+10
3875.9
1e+10
3858.67
48726.7
3733.91
8626.15
48625.7
3905.22
1e+10
3845.72
1e+10
3780.75
168218
3564.65
16593.2
6516.41
3209
6671.22
3113.39
7355.79
2978.08
8461.94
2597.37
19057.4
)
;
    }
    procBoundary7to5
    {
        type            processor;
        value           nonuniform List<scalar> 
44
(
3934.65
4.06845e+06
3933.79
1e+10
4010.26
9.66621e+09
4261.94
12546.2
1e+10
3933.57
1e+10
4014.11
1e+10
4051.15
8.11644e+09
4159.66
30901.3
1e+10
3933.57
3933.57
1e+10
3975.17
18105.2
3484.04
14290.9
3701.43
12185.8
107135
3932.92
1e+10
3975.17
3975.17
9430.85
3539.53
8340.4
3146.88
9798.09
8147.3
3424.6
8809.65
3461.81
9430.85
3539.53
3539.53
)
;
    }
    procBoundary7to6
    {
        type            processor;
        value           nonuniform List<scalar> 
12
(
3785.16
3730.16
3175.68
4169.16
4002.4
3471.36
3822.09
3722.25
3192.56
3450.94
3296.06
2980.23
)
;
    }
}


// ************************************************************************* //
