/*--------------------------------*- C++ -*----------------------------------*\
| =========                 |                                                 |
| \\      /  F ield         | OpenFOAM: The Open Source CFD Toolbox           |
|  \\    /   O peration     | Version:  4.x                                   |
|   \\  /    A nd           | Web:      www.OpenFOAM.org                      |
|    \\/     M anipulation  |                                                 |
\*---------------------------------------------------------------------------*/
FoamFile
{
    version     2.0;
    format      ascii;
    class       volScalarField;
    location    "24";
    object      p_rgh;
}
// * * * * * * * * * * * * * * * * * * * * * * * * * * * * * * * * * * * * * //

dimensions      [1 -1 -2 0 0 0 0];

internalField   nonuniform List<scalar> 
132
(
24.4879
72.4077
6.90113
65.2459
-10.5667
58.6844
-28.1582
52.1191
-45.0155
23.0946
72.5761
4.63786
65.6574
-13.6605
59.3812
-31.9609
54.01
-48.4291
22.9031
72.3136
4.39193
65.1555
-14.3685
58.4605
-33.3896
52.7659
-50.18
22.6279
72.2211
3.64912
65.4045
-16.2849
59.7013
-38.4375
56.8272
-65.7511
7.62454
65.0395
-10.0697
57.9156
-27.8042
50.9336
-43.0586
25.2075
72.27
8.12312
65.1981
-8.59858
57.768
-25.2561
49.46
-40.039
24.3966
72.5253
6.86166
64.9655
-10.1475
57.9363
-26.592
50.2285
-40.8764
24.1789
72.5425
6.4263
65.3634
-11.3352
58.2788
-28.2605
50.7382
-44.5107
-10.2564
57.8791
-26.5654
50.2236
-40.7637
24.3335
72.5346
6.30922
65.1962
-11.8157
58.3681
-29.6843
52.4452
-46.8311
24.2146
72.3082
6.16947
64.7761
-12.3145
57.4626
-31.2317
50.9273
-49.0334
23.8618
72.2707
5.51176
65.1578
-13.9189
58.6435
-36.3574
54.869
-75.0182
-27.6001
50.0647
-45.2402
24.6408
72.6235
7.00645
65.3828
-10.7779
58.2782
-27.9002
50.6507
-44.7361
24.5728
72.4507
7.07704
65.0861
-10.6054
57.6736
-28.0418
50.2945
-46.5255
24.4331
72.3728
6.62936
65.1957
-11.5816
57.9575
-30.3551
51.4915
-53.9162
)
;

boundaryField
{
    inlet
    {
        type            fixedFluxPressure;
        gradient        nonuniform 0();
        value           nonuniform 0();
    }
    outlet
    {
        type            fixedValue;
        value           uniform 0;
    }
    wall
    {
        type            fixedFluxPressure;
        gradient        nonuniform List<scalar> 
66
(
2.33589e-06
-2.01426e-06
-7.1186e-07
-1.92988e-06
9.91934e-07
4.01672e-07
-1.23693e-05
-8.33235e-06
-8.32915e-07
-2.81957e-06
-1.67688e-06
-7.88599e-07
-5.26384e-06
-3.68576e-06
-2.1124e-06
-2.93068e-06
-1.88905e-06
-2.73615e-07
3.2594e-06
7.88022e-06
6.81643e-06
5.38881e-07
-1.01908e-06
3.2697e-06
1.85765e-06
-8.05199e-07
6.63877e-06
8.56745e-07
9.74268e-06
5.28303e-05
7.30505e-06
2.95367e-06
5.60617e-06
4.99006e-06
8.9777e-07
3.75307e-07
2.27058e-06
3.67132e-06
5.44475e-06
-5.75397e-07
2.86543e-06
2.8883e-06
3.17038e-06
5.9355e-07
9.44305e-07
7.31062e-07
5.65304e-07
1.86373e-05
5.61699e-06
1.48656e-07
-5.97789e-06
4.51178e-07
5.39551e-06
3.11546e-06
-4.04828e-06
2.9167e-05
1.77045e-05
4.5479e-06
-3.18958e-06
-9.04391e-06
-4.76166e-06
7.04227e-05
2.8885e-05
1.90164e-05
8.21095e-05
0.733725
)
;
        value           nonuniform List<scalar> 
66
(
24.6408
24.5728
24.4331
72.6235
72.4507
72.3728
7.00645
7.07704
6.62936
65.3828
65.0861
65.1957
-10.7779
-10.6054
-11.5816
58.2782
57.6736
57.9575
-27.6001
-27.9002
-28.0418
-30.3551
50.0647
50.6507
50.2945
51.4915
-45.2402
-44.7361
-46.5255
-53.9162
22.6279
24.1789
23.8618
24.4331
72.2211
72.5425
72.2707
72.3728
3.64912
6.4263
5.51176
6.62936
65.4045
65.3634
65.1578
65.1957
-16.2849
-11.3352
-13.9189
-11.5816
59.7013
58.2788
58.6435
57.9575
-38.4375
-28.2605
-36.3574
-30.3551
56.8272
50.7382
54.869
51.4915
-65.7511
-44.5107
-75.0182
-53.9057
)
;
    }
    procBoundary7to0
    {
        type            processor;
        value           uniform 80.179;
    }
    procBoundary7to1
    {
        type            processor;
        value           uniform 23.9451;
    }
    procBoundary7to3
    {
        type            processor;
        value           nonuniform List<scalar> 
36
(
23.0767
72.6546
5.17544
65.5353
-12.6064
59.3652
-30.0023
53.0969
-46.3852
23.5815
72.4932
5.66209
65.7099
-11.9069
59.195
-29.3932
52.4232
-46.0384
23.0651
72.7192
4.94393
65.4665
-12.9138
59.343
-30.9805
53.0352
-47.9684
22.8892
72.3198
4.6304
65.5044
-14.3067
59.4763
-34.4323
55.1309
-54.4
)
;
    }
    procBoundary7to5
    {
        type            processor;
        value           nonuniform List<scalar> 
44
(
72.8658
6.13288
65.7597
-11.2173
59.6617
-27.8929
53.2075
-44.1569
24.9927
72.4687
7.49943
65.3791
-9.83556
58.7567
-26.385
52.4312
-40.002
24.9927
72.4687
72.4687
7.07886
64.853
-12.9071
58.819
-31.3287
53.5876
-48.217
24.7203
72.3995
7.07886
64.853
64.853
-10.3569
57.662
-31.2015
53.0243
-50.5206
24.671
72.5465
7.18518
65.1298
-10.3569
57.662
57.662
)
;
    }
    procBoundary7to6
    {
        type            processor;
        value           nonuniform List<scalar> 
12
(
79.9669
79.7846
79.5445
79.8818
80.2778
79.9675
80.1364
79.9869
79.7053
80.0155
79.944
79.7543
)
;
    }
}


// ************************************************************************* //
