/*--------------------------------*- C++ -*----------------------------------*\
| =========                 |                                                 |
| \\      /  F ield         | OpenFOAM: The Open Source CFD Toolbox           |
|  \\    /   O peration     | Version:  4.x                                   |
|   \\  /    A nd           | Web:      www.OpenFOAM.org                      |
|    \\/     M anipulation  |                                                 |
\*---------------------------------------------------------------------------*/
FoamFile
{
    version     2.0;
    format      ascii;
    class       volScalarField;
    location    "24";
    object      Qsource;
}
// * * * * * * * * * * * * * * * * * * * * * * * * * * * * * * * * * * * * * //

dimensions      [1 -1 -3 0 0 0 0];

internalField   nonuniform List<scalar> 
132
(
9.95204e+09
8.9694e+09
6.30851e+09
7.78761e+09
1.08644e+10
1.2212e+10
7.89364e+09
6.56953e+09
6.0234e+09
7.80565e+09
1.14167e+10
7.53383e+09
8.12062e+09
8.3958e+09
6.96103e+09
7.64286e+09
7.66751e+09
6.53811e+09
5.28724e+09
9.33133e+09
6.89455e+09
8.87368e+09
8.26591e+09
1.0307e+10
8.6104e+09
8.86444e+09
7.35146e+09
7.62579e+09
8.41702e+09
9.575e+09
6.9479e+09
8.61108e+09
9.21286e+09
8.77479e+09
8.58883e+09
4.43833e+09
6.46111e+09
8.52499e+09
6.87628e+09
8.10568e+09
8.79582e+09
1.00166e+10
5.91914e+09
3.82998e+09
9.92262e+09
7.25144e+09
8.66341e+09
8.50488e+09
8.12481e+09
5.74739e+09
8.89234e+09
4.85805e+09
6.02492e+09
1.00559e+10
7.5243e+09
7.23529e+09
8.20696e+09
1.04412e+10
9.55397e+09
8.3195e+09
6.42811e+09
7.21017e+09
9.42286e+09
6.63144e+09
8.82604e+09
7.66394e+09
7.48144e+09
6.73717e+09
9.36201e+09
4.76671e+09
4.75019e+09
6.91795e+09
7.76803e+09
7.07743e+09
4.22895e+09
8.61844e+09
9.03463e+09
7.0677e+09
6.44592e+09
9.00017e+09
8.69819e+09
7.57655e+09
1.05363e+10
6.53244e+09
8.21428e+09
9.41092e+09
8.66163e+09
8.90907e+09
9.3599e+09
9.81394e+09
9.08562e+09
9.18833e+09
7.47947e+09
6.62908e+09
8.22259e+09
7.84807e+09
9.12066e+09
7.25454e+09
8.08438e+09
9.2297e+09
1.02399e+10
6.66673e+09
5.9961e+09
7.9498e+09
5.22783e+09
7.60523e+09
7.66836e+09
7.74119e+09
9.2034e+09
5.38394e+09
5.48255e+09
6.99764e+09
7.86402e+09
4.73541e+09
6.82066e+09
7.55633e+09
6.80682e+09
8.45391e+09
7.84414e+09
7.88904e+09
8.11239e+09
8.17545e+09
6.95272e+09
7.39047e+09
1.00903e+10
7.2184e+09
9.01153e+09
8.76389e+09
8.95818e+09
8.11038e+09
9.26044e+09
5.73498e+09
)
;

boundaryField
{
    inlet
    {
        type            calculated;
        value           nonuniform 0();
    }
    outlet
    {
        type            calculated;
        value           uniform 0;
    }
    wall
    {
        type            calculated;
        value           uniform 0;
    }
    procBoundary7to0
    {
        type            processor;
        value           uniform 2.5922e+09;
    }
    procBoundary7to1
    {
        type            processor;
        value           uniform 5.86996e+09;
    }
    procBoundary7to3
    {
        type            processor;
        value           nonuniform List<scalar> 
36
(
8.08303e+09
1.07232e+10
8.92459e+09
1.00451e+10
6.40581e+09
7.60312e+09
8.85037e+09
8.25306e+09
6.72814e+09
9.61345e+09
6.13992e+09
8.11619e+09
4.98486e+09
4.33716e+09
9.3734e+09
7.67583e+09
1.08676e+10
5.38301e+09
6.03598e+09
1.02169e+10
9.12899e+09
7.16551e+09
7.23754e+09
9.78109e+09
7.90873e+09
9.13064e+09
4.52743e+09
9.30887e+09
5.73061e+09
6.31363e+09
7.86938e+09
6.90966e+09
9.44468e+09
6.79468e+09
1.04317e+10
7.55114e+09
)
;
    }
    procBoundary7to5
    {
        type            processor;
        value           nonuniform List<scalar> 
44
(
9.90691e+09
6.07084e+09
8.66567e+09
5.8202e+09
5.25317e+09
7.31617e+09
6.14205e+09
6.59385e+09
1.01701e+10
4.99894e+09
7.2563e+09
8.95959e+09
6.11755e+09
8.18951e+09
7.08658e+09
7.82704e+09
4.06445e+09
1.01701e+10
4.99894e+09
4.99894e+09
9.27588e+09
9.60939e+09
1.14218e+10
9.23009e+09
9.05368e+09
1.06814e+10
7.7706e+09
5.19575e+09
1.1414e+10
9.27588e+09
9.60939e+09
9.60939e+09
1.03761e+10
8.82711e+09
7.21254e+09
8.46605e+09
6.66076e+09
7.44735e+09
7.08782e+09
7.48844e+09
7.2342e+09
1.03761e+10
8.82711e+09
8.82711e+09
)
;
    }
    procBoundary7to6
    {
        type            processor;
        value           nonuniform List<scalar> 
12
(
8.10574e+09
8.86724e+09
6.46335e+09
9.87559e+09
9.31777e+09
9.53107e+09
9.45735e+09
9.87566e+09
7.70436e+09
5.27385e+09
9.24252e+09
8.95042e+09
)
;
    }
}


// ************************************************************************* //
