/*--------------------------------*- C++ -*----------------------------------*\
| =========                 |                                                 |
| \\      /  F ield         | OpenFOAM: The Open Source CFD Toolbox           |
|  \\    /   O peration     | Version:  4.x                                   |
|   \\  /    A nd           | Web:      www.OpenFOAM.org                      |
|    \\/     M anipulation  |                                                 |
\*---------------------------------------------------------------------------*/
FoamFile
{
    version     2.0;
    format      ascii;
    class       volScalarField;
    location    "24";
    object      QWallFluid;
}
// * * * * * * * * * * * * * * * * * * * * * * * * * * * * * * * * * * * * * //

dimensions      [1 -1 -3 0 0 0 0];

internalField   nonuniform List<scalar> 
132
(
0
0
0
0
0
0
0
0
0
0
0
0
0
0
0
0
0
0
0
0
0
0
0
0
0
0
0
5.20505e+08
9.05021e+08
5.2376e+08
9.49522e+08
5.21159e+08
1.02127e+09
4.98891e+08
1.17448e+09
5.16284e+08
0
0
0
0
0
0
0
0
0
0
0
0
0
0
0
0
0
0
0
0
0
0
0
0
0
4.01683e+08
7.9812e+08
3.57741e+08
7.82116e+08
3.05199e+08
7.47212e+08
2.61704e+08
6.62125e+08
2.79834e+08
0
0
0
0
0
0
0
0
0
0
0
0
0
0
0
0
0
0
0
0
0
0
0
5.22225e+08
8.80002e+08
5.30991e+08
9.20299e+08
5.40243e+08
1.01598e+09
5.42343e+08
1.27279e+09
6.07353e+08
3.5771e+08
7.10182e+08
3.95252e+08
3.71092e+08
7.91883e+08
3.32081e+08
7.76999e+08
2.96766e+08
7.47059e+08
2.62908e+08
6.58655e+08
2.89745e+08
4.79627e+08
8.29688e+08
4.66066e+08
8.19553e+08
4.42396e+08
7.9689e+08
4.30559e+08
7.37128e+08
4.33946e+08
1.22843e+09
1.81573e+09
1.22612e+09
1.83253e+09
1.21541e+09
1.85366e+09
1.25685e+09
1.89281e+09
1.49069e+09
)
;

boundaryField
{
    inlet
    {
        type            calculated;
        value           nonuniform 0();
    }
    outlet
    {
        type            calculated;
        value           uniform 0;
    }
    wall
    {
        type            calculated;
        value           uniform 0;
    }
    procBoundary7to0
    {
        type            processor;
        value           uniform 0;
    }
    procBoundary7to1
    {
        type            processor;
        value           uniform 0;
    }
    procBoundary7to3
    {
        type            processor;
        value           nonuniform List<scalar> 
36
(
0
0
0
0
0
0
0
0
0
0
0
0
0
0
0
0
0
0
0
0
0
0
0
0
0
0
0
4.98218e+08
8.84975e+08
4.88626e+08
9.01665e+08
4.51505e+08
9.30272e+08
3.95094e+08
1.00953e+09
1.98058e+08
)
;
    }
    procBoundary7to5
    {
        type            processor;
        value           nonuniform List<scalar> 
44
(
0
0
0
0
0
0
0
0
0
0
0
0
0
0
0
0
0
0
0
0
0
0
0
0
0
0
0
0
0
0
0
0
3.43813e+08
7.51782e+08
3.80555e+08
8.25218e+08
3.25511e+08
3.93933e+08
7.91747e+08
3.66913e+08
7.77429e+08
3.43813e+08
7.51782e+08
7.51782e+08
)
;
    }
    procBoundary7to6
    {
        type            processor;
        value           nonuniform List<scalar> 
12
(
0
0
8.76486e+08
0
0
8.05057e+08
0
0
8.57575e+08
7.97045e+08
8.27651e+08
1.79942e+09
)
;
    }
}


// ************************************************************************* //
