/*--------------------------------*- C++ -*----------------------------------*\
| =========                 |                                                 |
| \\      /  F ield         | OpenFOAM: The Open Source CFD Toolbox           |
|  \\    /   O peration     | Version:  4.x                                   |
|   \\  /    A nd           | Web:      www.OpenFOAM.org                      |
|    \\/     M anipulation  |                                                 |
\*---------------------------------------------------------------------------*/
FoamFile
{
    version     2.0;
    format      ascii;
    class       volScalarField;
    location    "24";
    object      QWallFluidCoeff;
}
// * * * * * * * * * * * * * * * * * * * * * * * * * * * * * * * * * * * * * //

dimensions      [1 -1 -3 -1 0 0 0];

internalField   nonuniform List<scalar> 
132
(
0
0
0
0
0
0
0
0
0
0
0
0
0
0
0
0
0
0
0
0
0
0
0
0
0
0
0
-1.73502e+06
-3.01674e+06
-1.74587e+06
-3.16507e+06
-1.7372e+06
-3.40425e+06
-1.66297e+06
-3.91493e+06
-1.72095e+06
0
0
0
0
0
0
0
0
0
0
0
0
0
0
0
0
0
0
0
0
0
0
0
0
0
-1.33894e+06
-2.6604e+06
-1.19247e+06
-2.60705e+06
-1.01733e+06
-2.49071e+06
-872347
-2.20708e+06
-932781
0
0
0
0
0
0
0
0
0
0
0
0
0
0
0
0
0
0
0
0
0
0
0
-1.74075e+06
-2.93334e+06
-1.76997e+06
-3.06766e+06
-1.80081e+06
-3.38661e+06
-1.80781e+06
-4.24263e+06
-2.02451e+06
-1.19237e+06
-2.36727e+06
-1.31751e+06
-1.23697e+06
-2.63961e+06
-1.10694e+06
-2.59e+06
-989221
-2.4902e+06
-876359
-2.19552e+06
-965818
-1.59876e+06
-2.76563e+06
-1.55355e+06
-2.73184e+06
-1.47465e+06
-2.6563e+06
-1.4352e+06
-2.45709e+06
-1.44649e+06
-4.09477e+06
-6.05242e+06
-4.08706e+06
-6.10842e+06
-4.05137e+06
-6.17888e+06
-4.18951e+06
-6.30936e+06
-4.96897e+06
)
;

boundaryField
{
    inlet
    {
        type            calculated;
        value           nonuniform 0();
    }
    outlet
    {
        type            calculated;
        value           uniform 0;
    }
    wall
    {
        type            calculated;
        value           uniform 0;
    }
    procBoundary7to0
    {
        type            processor;
        value           uniform 0;
    }
    procBoundary7to1
    {
        type            processor;
        value           uniform 0;
    }
    procBoundary7to3
    {
        type            processor;
        value           uniform 0;
    }
    procBoundary7to5
    {
        type            processor;
        value           uniform 0;
    }
    procBoundary7to6
    {
        type            processor;
        value           uniform 0;
    }
}


// ************************************************************************* //
