/*--------------------------------*- C++ -*----------------------------------*\
| =========                 |                                                 |
| \\      /  F ield         | OpenFOAM: The Open Source CFD Toolbox           |
|  \\    /   O peration     | Version:  4.x                                   |
|   \\  /    A nd           | Web:      www.OpenFOAM.org                      |
|    \\/     M anipulation  |                                                 |
\*---------------------------------------------------------------------------*/
FoamFile
{
    version     2.0;
    format      ascii;
    class       volVectorField;
    location    "24";
    object      U;
}
// * * * * * * * * * * * * * * * * * * * * * * * * * * * * * * * * * * * * * //

dimensions      [0 1 -1 0 0 0 0];

internalField   nonuniform List<vector> 
132
(
(0.000525511 3.6888e-05 -8.01991e-05)
(0.0265497 0.000345861 0.000192661)
(1.3414e-08 5.08695e-09 -4.98547e-09)
(0.0262785 3.68926e-05 0.000732964)
(1.17197e-08 4.16562e-09 -6.66067e-09)
(0.0262604 0.00014651 0.00210193)
(9.72804e-09 2.3295e-09 -5.51422e-09)
(0.0255391 -0.00167858 0.00341137)
(0.00320883 0.00102041 -0.000630006)
(0.00459296 0.000564105 -0.000554779)
(0.0287508 0.000297533 5.61863e-05)
(0.00363113 0.000679529 -0.000666993)
(0.0288784 0.000270237 0.00049102)
(0.00252567 0.000753141 -0.000637117)
(0.0286353 0.000454337 0.00177397)
(0.00226792 0.00102824 -0.000805191)
(0.025637 -0.00082021 0.00393723)
(0.00399311 0.00172836 -0.00185438)
(0.00737987 0.000298407 -0.000726563)
(0.0296043 0.000563548 -4.32782e-05)
(0.00689158 0.000511728 -0.00091829)
(0.0302871 0.000490779 0.00033763)
(0.00682396 0.00126261 -0.00127484)
(0.0305115 4.98428e-05 0.00146407)
(0.00792253 0.00378334 -0.00232797)
(0.0283742 -0.00270339 0.00313527)
(0.0101758 0.0157826 -0.00649207)
(0.0173099 0.000404713 -0.00145081)
(0.0348737 0.00032654 -0.00101301)
(0.0176185 0.00076821 -0.0019335)
(0.0371541 6.24112e-05 -0.000795782)
(0.0173762 0.00170049 -0.00283204)
(0.0411176 -0.000687523 0.000186504)
(0.015684 0.00408126 -0.00462188)
(0.0486211 -0.00309704 0.00338295)
(0.00928785 0.0131878 -0.00644449)
(1.26682e-08 2.68728e-09 -2.06756e-09)
(0.0270569 0.000117211 0.000806051)
(8.98522e-09 -4.57636e-10 -2.55007e-09)
(0.0275684 0.0010245 0.00152785)
(0.00147114 -0.000201014 -0.000107794)
(0.0288413 0.00198022 0.00305564)
(0.00455908 -0.000820598 -0.0025028)
(1.2855e-08 2.37318e-09 -1.47371e-09)
(0.024931 -8.57234e-05 0.000213093)
(1.2711e-08 2.73815e-09 -4.03399e-09)
(0.0245004 7.33602e-05 0.000826279)
(1.1545e-08 1.84665e-09 -3.23315e-09)
(0.0240994 -0.000172941 0.00157004)
(0.00283051 -0.00030588 -0.000351583)
(0.023496 0.000287994 0.00231768)
(0.0113026 -0.00392231 -0.00163562)
(0.00110393 9.57706e-05 -0.000114161)
(0.0261738 -0.000175965 8.13526e-05)
(1.42424e-08 2.22811e-09 -4.38287e-09)
(0.0251636 -4.26572e-05 0.000738385)
(1.18379e-08 3.38012e-09 -3.48193e-09)
(0.0234811 -0.0004743 0.00147589)
(1.02278e-08 3.26248e-09 -4.33897e-09)
(0.0190912 -0.00176004 0.00237983)
(0.00280877 0.000538583 -0.000219184)
(0.0126196 0.00032994 -0.00106724)
(0.0301367 0.000213422 -0.000492363)
(0.0109562 0.000408147 -0.00134748)
(0.0294806 -0.000232437 -0.000134737)
(0.00899484 0.000728043 -0.00140043)
(0.0279491 -4.29196e-06 0.000807674)
(0.00737965 0.00107143 -0.00123904)
(0.0239914 -0.000539096 0.00236791)
(0.00733637 0.00145285 0.00318855)
(9.25778e-09 6.10714e-11 -5.0237e-10)
(0.0246594 0.000316683 0.0006749)
(8.04598e-09 -5.77919e-10 -1.21421e-09)
(0.0209793 0.00103199 0.000398164)
(0.00632608 -0.000846203 -0.00220716)
(0.00274113 0.000123883 0.000154543)
(0.0278374 0.000274175 -6.21554e-05)
(0.00160968 0.000127488 0.00017394)
(0.0283291 0.000234479 0.000291904)
(0.00134658 0.000218783 0.00026189)
(0.0285761 0.000399009 -0.000248104)
(0.0019842 0.000694346 0.000456564)
(0.0264823 -0.00167359 -0.001935)
(0.00463405 0.00260109 0.000639097)
(0.00769702 0.000367563 2.30371e-05)
(0.0287833 0.000633939 0.000344636)
(0.00730098 0.000538578 4.79073e-05)
(0.0296045 0.000492966 0.000279604)
(0.00800397 0.00125567 0.000426567)
(0.030592 7.94759e-05 0.000882086)
(0.0102323 0.00396477 0.00114286)
(0.0308422 -0.00218875 0.000402343)
(0.0125787 0.0192075 0.00357152)
(0.0175483 0.00055657 -0.000144528)
(0.0339823 0.000403102 0.000191175)
(0.0181308 0.000825798 -8.78922e-05)
(0.0361662 7.2852e-05 0.000272024)
(0.0185314 0.00161655 0.000345953)
(0.040952 -0.000642187 0.000543892)
(0.0183337 0.00404106 0.00143897)
(0.0544474 -0.00261268 0.000169437)
(0.0131613 0.015271 0.00740381)
(0.0108566 -0.00248654 0.000669208)
(0.026236 0.00191482 -0.000262882)
(0.0116873 -0.00458516 0.0012238)
(0.0115375 9.36371e-05 -0.000117326)
(0.0298384 0.000176403 2.17415e-06)
(0.0101525 0.000108617 -0.000338344)
(0.0294164 0.000106823 -9.28041e-05)
(0.00879442 0.00014793 -0.000492845)
(0.0278231 -9.15037e-05 0.000266301)
(0.00753251 0.000150954 -0.00102113)
(0.0238955 -0.000307634 0.00175124)
(0.0083379 0.000279891 -0.00182454)
(0.0158362 0.000326403 -0.000262692)
(0.0315545 0.000524359 -0.000198165)
(0.0153737 0.000518626 -0.000731887)
(0.0312593 0.000576196 -0.00050429)
(0.0144359 0.000865793 -0.0013825)
(0.0302977 0.000716571 -0.000600045)
(0.0136823 0.00211917 -0.00266758)
(0.0275257 -8.34459e-05 -0.000115231)
(0.0129357 0.00439523 -0.00378109)
(0.0214957 0.000322597 -0.000667912)
(0.035348 0.000292453 -0.000466106)
(0.0215577 0.000597762 -0.00129254)
(0.0357838 0.000211824 -0.000687008)
(0.0213483 0.00108579 -0.00255649)
(0.0365351 0.00016895 -0.000357842)
(0.0216128 0.00238438 -0.00587773)
(0.0373793 -0.000264921 0.00145651)
(0.0215369 0.00518957 -0.0162327)
)
;

boundaryField
{
    inlet
    {
        type            fixedValue;
        value           nonuniform 0();
    }
    outlet
    {
        type            zeroGradient;
    }
    wall
    {
        type            fixedValue;
        value           uniform (0 0 0);
    }
    procBoundary7to0
    {
        type            processor;
        value           uniform (0.0263185 0.000308204 -0.000403346);
    }
    procBoundary7to1
    {
        type            processor;
        value           uniform (0.00163193 -0.000230101 -0.00014273);
    }
    procBoundary7to3
    {
        type            processor;
        value           nonuniform List<vector> 
36
(
(0.000826598 -1.64593e-06 -0.000184814)
(0.0274666 -6.66409e-05 0.000343619)
(1.82162e-08 3.26459e-09 -7.77451e-09)
(0.0271805 0.000209748 0.00107945)
(1.96133e-08 -1.40378e-09 -1.05593e-08)
(0.0266786 0.000646501 0.00167907)
(2.05217e-08 -3.23093e-09 -1.03354e-08)
(0.0245693 -0.000254704 0.00382887)
(0.00368215 0.000888165 -0.0024004)
(0.00112302 -7.87746e-06 -0.000116155)
(0.0276047 -0.000338789 6.34616e-05)
(1.64837e-08 -3.8729e-10 -8.5325e-09)
(0.0275197 -0.00014498 0.000882305)
(1.72889e-08 -1.38786e-09 -1.07341e-08)
(0.0275545 -8.91134e-05 0.00209376)
(0.00201197 0.000152581 -0.000719141)
(0.0275309 -6.45937e-05 0.00410522)
(0.00881525 0.00181635 -0.00722274)
(0.00220656 0.000108786 -0.0001873)
(0.0279715 3.59156e-05 0.000163018)
(1.62073e-08 1.06442e-09 -8.27342e-09)
(0.0280336 -0.000196748 0.00115184)
(1.59056e-08 8.21561e-11 -9.5742e-09)
(0.0284278 -0.00104388 0.00227702)
(0.00058785 0.000211087 -6.12898e-05)
(0.0287657 -0.00448015 0.00338661)
(0.00456307 0.00392477 -0.000136245)
(0.0163272 0.000300557 -0.00095498)
(0.0332862 0.000507011 -0.000627958)
(0.0158995 0.00024665 -0.00110051)
(0.0343829 -0.000334802 -0.000193879)
(0.0144319 0.000742361 -0.00155908)
(0.0360972 -0.000413863 0.000566702)
(0.0119788 0.00213829 -0.0023223)
(0.0400099 -0.00247 0.00297584)
(0.00411556 0.00265349 -0.00189442)
)
;
    }
    procBoundary7to5
    {
        type            processor;
        value           nonuniform List<vector> 
44
(
(0.0270647 2.15724e-06 0.000130577)
(2.48489e-05 -5.2611e-06 -2.67017e-06)
(0.0268558 0.000346757 0.000721428)
(9.44584e-09 6.40261e-10 -5.00304e-09)
(0.0258553 0.000684374 0.0013712)
(8.70737e-09 -3.09034e-09 -4.94928e-09)
(0.0234256 0.0023462 0.00155476)
(0.00753873 -0.00171372 -0.000856033)
(1.18324e-08 2.18755e-09 3.39789e-11)
(0.026398 8.89647e-06 0.000145557)
(1.13474e-08 1.30001e-09 -3.32137e-10)
(0.0260302 0.000102142 0.000775155)
(9.002e-09 4.38234e-11 -1.10572e-09)
(0.0254517 0.000550765 0.00137552)
(8.40019e-09 -1.17425e-10 5.98649e-10)
(0.0240272 0.00140038 -0.000490002)
(0.00301972 0.000670296 0.000546181)
(1.18324e-08 2.18755e-09 3.39789e-11)
(0.026398 8.89647e-06 0.000145557)
(0.026398 8.89647e-06 0.000145557)
(1.27386e-08 1.50852e-09 -1.09274e-09)
(0.026 4.60245e-05 0.000404393)
(0.0054637 -0.00130542 0.00110201)
(0.0298146 -0.000170518 0.000357324)
(0.00619685 -0.00279582 0.00214215)
(0.0271612 0.00224784 -0.00209799)
(0.00615113 -0.00453781 0.00241179)
(0.00095718 -5.26144e-05 4.0183e-05)
(0.0265416 -0.000123488 0.000232953)
(1.27386e-08 1.50852e-09 -1.09274e-09)
(0.026 4.60245e-05 0.000404393)
(0.026 4.60245e-05 0.000404393)
(0.0106613 -0.00116377 0.000237869)
(0.0283952 0.000230268 0.00054133)
(0.0115745 -0.0034709 -0.000158993)
(0.0317782 0.00137947 0.000183772)
(0.00856279 -0.00498895 0.000609822)
(0.0124391 -0.00052888 0.000184804)
(0.0298518 -0.000336275 0.000116975)
(0.0114939 -0.000723222 0.000109893)
(0.0294281 -0.000253798 3.5224e-05)
(0.0106613 -0.00116377 0.000237869)
(0.0283952 0.000230268 0.00054133)
(0.0283952 0.000230268 0.00054133)
)
;
    }
    procBoundary7to6
    {
        type            processor;
        value           nonuniform List<vector> 
12
(
(0.0280269 0.00064129 5.2521e-05)
(0.0286315 0.000623624 -0.000397114)
(0.0330581 0.000503639 -0.000867234)
(0.0252192 -3.48242e-05 -0.000180532)
(0.0264454 1.39966e-05 -0.000347101)
(0.0301446 0.000585811 -0.000606785)
(0.0273512 0.00030594 2.94142e-05)
(0.0282968 0.000738318 0.000521934)
(0.032524 0.000633971 0.000254799)
(0.0297385 0.00011085 0.000238793)
(0.0313389 0.000453576 5.96532e-05)
(0.0345077 0.00042775 -0.000233418)
)
;
    }
}


// ************************************************************************* //
