/*--------------------------------*- C++ -*----------------------------------*\
| =========                 |                                                 |
| \\      /  F ield         | OpenFOAM: The Open Source CFD Toolbox           |
|  \\    /   O peration     | Version:  4.x                                   |
|   \\  /    A nd           | Web:      www.OpenFOAM.org                      |
|    \\/     M anipulation  |                                                 |
\*---------------------------------------------------------------------------*/
FoamFile
{
    version     2.0;
    format      ascii;
    class       volVectorField;
    location    "24";
    object      UsNext;
}
// * * * * * * * * * * * * * * * * * * * * * * * * * * * * * * * * * * * * * //

dimensions      [0 1 -1 0 0 0 0];

internalField   nonuniform List<vector> 
132
(
(1.65672e-09 3.23611e-09 -2.38998e-10)
(2.78914e-09 2.95016e-09 -1.96216e-09)
(3.61411e-09 3.84192e-09 -3.00878e-09)
(4.20153e-09 3.62907e-09 -4.75139e-09)
(2.57673e-09 2.23722e-09 -4.74117e-09)
(1.72796e-09 1.52284e-09 -6.09595e-09)
(6.22718e-10 -8.96216e-10 -4.08409e-09)
(7.13266e-11 1.85794e-10 -3.51991e-09)
(-9.0219e-10 -4.9183e-10 -4.58211e-09)
(2.52886e-09 1.96519e-09 -9.32673e-10)
(3.64153e-09 1.79046e-09 -2.77479e-09)
(4.90836e-09 2.01614e-09 -4.66123e-09)
(5.81077e-09 2.33842e-09 -6.14601e-09)
(2.01906e-09 1.48444e-09 -4.5123e-09)
(7.26212e-10 3.43831e-10 -3.71462e-09)
(-2.36955e-10 -6.56077e-10 -2.99597e-09)
(-9.67183e-10 7.13902e-10 -5.50689e-09)
(-2.87025e-10 -3.58721e-10 -8.19216e-09)
(2.81916e-09 2.1563e-09 -1.45074e-10)
(3.72726e-09 9.8748e-10 -2.69263e-09)
(4.79063e-09 6.96225e-10 -5.8975e-09)
(4.43144e-09 1.29493e-09 -5.6469e-09)
(2.48758e-09 8.11362e-10 -5.52295e-09)
(1.30148e-09 -1.23278e-09 -5.14531e-09)
(1.37751e-09 -1.73724e-10 -3.31253e-09)
(-1.28156e-10 1.33081e-09 -7.7555e-09)
(-1.07968e-09 3.02894e-09 -9.01536e-09)
(2.28377e-09 5.60621e-10 3.13816e-10)
(2.82935e-09 1.36864e-10 7.66428e-11)
(2.66845e-09 4.21132e-10 -2.3093e-09)
(3.17312e-09 5.16389e-10 -2.43047e-09)
(2.64713e-09 4.33873e-11 -3.29684e-09)
(4.04877e-10 -1.05935e-09 -4.32635e-09)
(3.90602e-12 -2.98927e-10 -4.05267e-09)
(6.23674e-10 -6.88973e-10 -6.88707e-09)
(-7.61532e-10 2.34496e-09 -4.32176e-09)
(2.78502e-09 3.22195e-09 -2.01722e-09)
(2.36839e-09 2.54452e-09 -2.85946e-09)
(-8.34982e-10 5.07181e-10 -2.513e-09)
(-4.90738e-10 1.09159e-09 -2.79169e-09)
(-1.06249e-09 8.1632e-10 -2.61644e-09)
(-9.10192e-10 1.93725e-09 -2.22757e-09)
(-1.41512e-09 1.10197e-09 -2.97141e-09)
(3.09988e-09 1.88021e-09 -5.20397e-10)
(3.01379e-09 2.43495e-09 -1.32094e-09)
(3.55664e-09 2.11761e-09 -2.83598e-09)
(4.0024e-09 2.17688e-09 -2.81486e-09)
(2.18594e-09 1.76683e-09 -1.96617e-09)
(-4.68165e-10 8.85216e-10 -2.54191e-09)
(-1.20631e-09 5.18357e-10 -2.2842e-09)
(-1.73825e-09 2.05167e-09 -2.89631e-09)
(-1.24636e-09 7.61892e-10 -2.41975e-09)
(3.59475e-09 1.44061e-09 -1.17038e-10)
(4.00838e-09 1.5597e-10 -1.87756e-09)
(4.32701e-09 7.73348e-10 -3.05414e-09)
(3.93542e-09 8.75911e-10 -3.31077e-09)
(2.64096e-09 1.14944e-09 -2.06328e-09)
(7.31359e-11 -2.96519e-10 -2.71026e-09)
(9.52177e-10 1.05749e-09 -2.90911e-09)
(-2.65003e-14 4.51907e-10 -3.16701e-09)
(1.84463e-09 2.36907e-09 -1.81069e-09)
(3.08414e-09 1.6627e-10 -2.82265e-11)
(3.56776e-09 4.95221e-11 -1.0153e-10)
(3.88309e-09 -2.80895e-11 -1.84048e-09)
(3.47222e-09 7.66808e-11 -1.96091e-09)
(1.77178e-09 7.47066e-10 -1.59722e-09)
(1.21826e-09 5.53289e-11 -1.98235e-09)
(1.53543e-09 9.79943e-10 -2.3303e-09)
(-5.63681e-10 -9.78017e-10 -2.80164e-09)
(5.6456e-10 7.26707e-10 -2.77947e-09)
(-1.32306e-10 9.41316e-10 -9.9074e-10)
(-8.56461e-10 9.36304e-10 -1.07039e-09)
(-1.7288e-09 6.85592e-10 -1.04326e-09)
(-1.59538e-09 7.11388e-10 -6.77204e-10)
(2.66452e-11 5.29926e-10 -3.61688e-10)
(3.35231e-09 1.93368e-09 8.58228e-11)
(3.59091e-09 1.81918e-09 -1.01624e-09)
(3.79498e-09 1.16949e-09 -1.90038e-09)
(2.65601e-09 1.64493e-09 -1.67268e-09)
(1.57584e-09 1.48528e-09 -7.18761e-10)
(1.3532e-11 1.09308e-09 -1.42003e-09)
(-5.99446e-10 8.02961e-10 -8.70023e-10)
(-6.77781e-10 3.26104e-10 -8.95403e-10)
(-2.32084e-10 -4.36053e-10 -5.16092e-10)
(3.8057e-09 1.26571e-09 -2.07955e-10)
(3.88779e-09 2.99574e-10 -5.359e-10)
(4.23296e-09 8.70399e-10 -1.81277e-09)
(3.91779e-09 7.64549e-10 -1.40136e-09)
(2.3334e-09 1.19494e-09 -6.37093e-10)
(1.53882e-09 1.28274e-09 -1.47268e-09)
(6.9508e-10 1.27582e-09 -1.14224e-09)
(-9.65117e-10 -2.46505e-09 -2.14337e-10)
(-5.3528e-11 -3.69167e-09 4.09579e-10)
(3.07332e-09 4.41269e-10 -3.60535e-10)
(3.29529e-09 3.41392e-10 -7.48873e-11)
(4.30984e-09 2.30771e-10 -6.91241e-10)
(3.89742e-09 1.49603e-10 -9.62625e-10)
(2.56095e-09 4.60345e-10 -5.40683e-10)
(3.50817e-09 9.65952e-10 -2.05317e-10)
(1.54451e-09 1.47151e-09 -7.08373e-10)
(-2.94301e-09 -1.15752e-09 -8.19631e-10)
(-1.65303e-10 8.22912e-09 -3.35216e-10)
(-2.01784e-09 4.4955e-10 1.66274e-10)
(-2.75046e-09 1.14161e-09 -1.23396e-10)
(-5.02456e-10 4.09535e-10 3.98391e-10)
(2.93315e-09 1.81283e-09 1.20901e-10)
(3.02527e-09 1.55093e-09 -2.56592e-10)
(2.7185e-09 9.76905e-10 -5.60891e-10)
(1.88607e-09 1.08978e-09 -3.67362e-10)
(1.07522e-09 9.19933e-10 -2.09076e-10)
(6.40631e-10 1.60017e-09 -3.69778e-10)
(-4.48118e-10 7.13217e-10 2.73956e-10)
(-1.89006e-09 7.96804e-10 3.61397e-10)
(-6.27763e-11 1.02559e-09 3.49119e-11)
(2.1673e-09 1.466e-09 -1.43485e-10)
(2.32591e-09 1.14295e-09 1.39961e-10)
(2.89123e-09 1.0665e-09 -5.74892e-10)
(2.51006e-09 6.7276e-10 -2.31448e-10)
(1.91935e-09 7.17254e-10 -2.38252e-10)
(1.19885e-09 1.04738e-09 -2.56008e-10)
(5.4515e-10 1.02023e-09 4.33599e-10)
(-1.04717e-09 3.27356e-10 2.33229e-10)
(-6.68284e-10 1.30561e-08 6.48111e-10)
(1.51289e-09 4.87003e-10 -6.94738e-11)
(1.78281e-09 5.80627e-10 6.35252e-11)
(2.60798e-09 2.81199e-10 -8.10908e-11)
(2.62113e-09 1.15925e-10 -1.25049e-10)
(2.73303e-09 1.42101e-11 -2.01927e-10)
(1.52136e-09 5.09185e-10 -4.47192e-11)
(9.18026e-10 4.63698e-10 5.49437e-11)
(-2.0675e-10 1.20386e-08 -1.37647e-10)
(-5.14319e-09 9.55729e-05 6.88153e-09)
)
;

boundaryField
{
    inlet
    {
        type            calculated;
        value           nonuniform 0();
    }
    outlet
    {
        type            calculated;
        value           nonuniform List<vector> 
16
(
(-9.0219e-10 -4.9183e-10 -4.58211e-09)
(-2.87025e-10 -3.58721e-10 -8.19216e-09)
(-1.07968e-09 3.02894e-09 -9.01536e-09)
(-7.61532e-10 2.34496e-09 -4.32176e-09)
(-1.41512e-09 1.10197e-09 -2.97141e-09)
(-1.24636e-09 7.61892e-10 -2.41975e-09)
(1.84463e-09 2.36907e-09 -1.81069e-09)
(5.6456e-10 7.26707e-10 -2.77947e-09)
(2.66452e-11 5.29926e-10 -3.61688e-10)
(-2.32084e-10 -4.36053e-10 -5.16092e-10)
(-5.3528e-11 -3.69167e-09 4.09579e-10)
(-1.65303e-10 8.22912e-09 -3.35216e-10)
(-5.02456e-10 4.09535e-10 3.98391e-10)
(-6.27763e-11 1.02559e-09 3.49119e-11)
(-6.68284e-10 1.30561e-08 6.48111e-10)
(-5.14319e-09 9.55729e-05 6.88153e-09)
)
;
    }
    wall
    {
        type            calculated;
        value           nonuniform List<vector> 
66
(
(2.93315e-09 1.81283e-09 1.20901e-10)
(2.1673e-09 1.466e-09 -1.43485e-10)
(1.51289e-09 4.87003e-10 -6.94738e-11)
(3.02527e-09 1.55093e-09 -2.56592e-10)
(2.32591e-09 1.14295e-09 1.39961e-10)
(1.78281e-09 5.80627e-10 6.35252e-11)
(2.7185e-09 9.76905e-10 -5.60891e-10)
(2.89123e-09 1.0665e-09 -5.74892e-10)
(2.60798e-09 2.81199e-10 -8.10908e-11)
(1.88607e-09 1.08978e-09 -3.67362e-10)
(2.51006e-09 6.7276e-10 -2.31448e-10)
(2.62113e-09 1.15925e-10 -1.25049e-10)
(1.07522e-09 9.19933e-10 -2.09076e-10)
(1.91935e-09 7.17254e-10 -2.38252e-10)
(2.73303e-09 1.42101e-11 -2.01927e-10)
(6.40631e-10 1.60017e-09 -3.69778e-10)
(1.19885e-09 1.04738e-09 -2.56008e-10)
(1.52136e-09 5.09185e-10 -4.47192e-11)
(-2.01784e-09 4.4955e-10 1.66274e-10)
(-4.48118e-10 7.13217e-10 2.73956e-10)
(5.4515e-10 1.02023e-09 4.33599e-10)
(9.18026e-10 4.63698e-10 5.49437e-11)
(-2.75046e-09 1.14161e-09 -1.23396e-10)
(-1.89006e-09 7.96804e-10 3.61397e-10)
(-1.04717e-09 3.27356e-10 2.33229e-10)
(-2.0675e-10 1.20386e-08 -1.37647e-10)
(-5.02456e-10 4.09535e-10 3.98391e-10)
(-6.27763e-11 1.02559e-09 3.49119e-11)
(-6.68284e-10 1.30561e-08 6.48111e-10)
(-5.14319e-09 9.55729e-05 6.88153e-09)
(2.28377e-09 5.60621e-10 3.13816e-10)
(3.08414e-09 1.6627e-10 -2.82265e-11)
(3.07332e-09 4.41269e-10 -3.60535e-10)
(1.51289e-09 4.87003e-10 -6.94738e-11)
(2.82935e-09 1.36864e-10 7.66428e-11)
(3.56776e-09 4.95221e-11 -1.0153e-10)
(3.29529e-09 3.41392e-10 -7.48873e-11)
(1.78281e-09 5.80627e-10 6.35252e-11)
(2.66845e-09 4.21132e-10 -2.3093e-09)
(3.88309e-09 -2.80895e-11 -1.84048e-09)
(4.30984e-09 2.30771e-10 -6.91241e-10)
(2.60798e-09 2.81199e-10 -8.10908e-11)
(3.17312e-09 5.16389e-10 -2.43047e-09)
(3.47222e-09 7.66808e-11 -1.96091e-09)
(3.89742e-09 1.49603e-10 -9.62625e-10)
(2.62113e-09 1.15925e-10 -1.25049e-10)
(2.64713e-09 4.33873e-11 -3.29684e-09)
(1.77178e-09 7.47066e-10 -1.59722e-09)
(2.56095e-09 4.60345e-10 -5.40683e-10)
(2.73303e-09 1.42101e-11 -2.01927e-10)
(4.04877e-10 -1.05935e-09 -4.32635e-09)
(1.21826e-09 5.53289e-11 -1.98235e-09)
(3.50817e-09 9.65952e-10 -2.05317e-10)
(1.52136e-09 5.09185e-10 -4.47192e-11)
(3.90602e-12 -2.98927e-10 -4.05267e-09)
(1.53543e-09 9.79943e-10 -2.3303e-09)
(1.54451e-09 1.47151e-09 -7.08373e-10)
(9.18026e-10 4.63698e-10 5.49437e-11)
(6.23674e-10 -6.88973e-10 -6.88707e-09)
(-5.63681e-10 -9.78017e-10 -2.80164e-09)
(-2.94301e-09 -1.15752e-09 -8.19631e-10)
(-2.0675e-10 1.20386e-08 -1.37647e-10)
(-7.61532e-10 2.34496e-09 -4.32176e-09)
(5.6456e-10 7.26707e-10 -2.77947e-09)
(-1.65303e-10 8.22912e-09 -3.35216e-10)
(-5.14319e-09 9.55729e-05 6.88153e-09)
)
;
    }
    procBoundary7to0
    {
        type            processor;
        value           uniform (1.16279e-09 1.97374e-09 2.85086e-09);
    }
    procBoundary7to1
    {
        type            processor;
        value           uniform (-8.17935e-10 3.43474e-09 1.0852e-09);
    }
    procBoundary7to3
    {
        type            processor;
        value           nonuniform List<vector> 
36
(
(3.99585e-09 2.49411e-09 -6.40277e-10)
(6.26987e-09 2.72478e-09 -3.30194e-09)
(7.91287e-09 2.87563e-09 -4.88786e-09)
(7.58243e-09 2.00021e-09 -7.01098e-09)
(1.02649e-08 -2.05594e-09 -6.5883e-09)
(1.37705e-09 -4.0703e-09 -6.60786e-09)
(1.14287e-08 -4.41559e-09 -5.48301e-09)
(7.85459e-09 -4.22762e-09 -8.41441e-09)
(2.76068e-09 7.56072e-10 -6.91309e-09)
(3.14508e-09 8.68112e-10 -4.20644e-10)
(5.85467e-09 6.94344e-10 -3.72296e-09)
(6.34892e-09 -4.08218e-10 -7.19502e-09)
(8.04188e-09 1.65843e-10 -1.10673e-08)
(7.40082e-09 -1.54748e-09 -8.63021e-09)
(7.30231e-09 -3.49334e-09 -6.08543e-09)
(3.81767e-09 -2.96819e-09 -4.89773e-09)
(1.78807e-09 -3.34635e-09 -8.22535e-09)
(-2.74685e-09 4.15331e-09 -2.04141e-08)
(2.5729e-09 3.80619e-10 -2.25291e-10)
(3.33238e-09 -9.30246e-11 -2.72487e-09)
(5.53037e-09 4.12225e-10 -7.17749e-09)
(4.78555e-09 2.5431e-10 -8.42905e-09)
(6.13737e-09 -1.52492e-09 -8.32551e-09)
(8.9333e-09 -2.79691e-09 -7.86668e-09)
(8.27881e-09 -4.40313e-09 -8.92317e-09)
(1.64309e-09 -2.13213e-09 -1.48515e-08)
(7.53675e-10 -8.21024e-09 -2.35842e-08)
(1.53845e-09 8.20571e-11 6.38063e-10)
(2.31047e-09 -1.31668e-10 1.21774e-10)
(3.64229e-09 2.95822e-10 -2.89746e-09)
(2.84387e-09 2.10251e-10 -3.03628e-09)
(4.19915e-09 -2.14785e-09 -7.60457e-09)
(5.39695e-09 -3.3223e-09 -6.98306e-09)
(3.48664e-09 -8.68257e-10 -4.80597e-09)
(2.35818e-09 -2.80624e-09 -1.54835e-08)
(-4.73868e-09 -1.53863e-08 -4.01107e-08)
)
;
    }
    procBoundary7to5
    {
        type            processor;
        value           nonuniform List<vector> 
44
(
(1.74438e-09 4.07895e-09 1.76187e-10)
(1.68317e-09 4.31133e-09 -1.68278e-09)
(7.77443e-10 4.7835e-09 -3.48901e-09)
(4.20343e-10 3.32371e-09 -3.97711e-09)
(-5.57769e-10 1.51272e-09 -4.38958e-09)
(-5.97921e-10 -1.60994e-10 -3.65411e-09)
(-3.92856e-10 -2.36091e-10 -6.48892e-09)
(2.83564e-10 -4.61756e-10 -6.18698e-09)
(1.73558e-09 2.61801e-09 1.79707e-10)
(2.68132e-09 2.88002e-09 -1.45092e-09)
(1.92601e-09 2.84417e-09 -9.46045e-10)
(1.42486e-09 2.70745e-09 -2.49504e-09)
(-1.47423e-10 1.48755e-09 -2.6284e-09)
(-1.46658e-09 1.28495e-09 -2.92157e-09)
(-2.46188e-09 3.28477e-10 -2.96153e-09)
(-1.81691e-09 3.01032e-09 -2.63156e-09)
(5.91407e-10 2.76989e-09 -2.42052e-09)
(1.73558e-09 2.61801e-09 1.79707e-10)
(2.68132e-09 2.88002e-09 -1.45092e-09)
(2.68132e-09 2.88002e-09 -1.45092e-09)
(2.8742e-09 2.13672e-09 -1.69365e-09)
(1.95094e-09 2.22996e-09 -2.18228e-09)
(-2.90281e-10 1.04319e-09 -1.17014e-09)
(-1.51308e-09 1.08506e-09 -1.46934e-09)
(-2.74677e-09 8.34756e-10 -1.06887e-09)
(-2.64531e-09 1.79959e-09 4.80633e-11)
(-6.77298e-10 2.64111e-09 -8.40846e-10)
(3.16152e-09 2.18831e-09 5.17468e-10)
(2.953e-09 2.40663e-09 -7.3367e-10)
(2.8742e-09 2.13672e-09 -1.69365e-09)
(1.95094e-09 2.22996e-09 -2.18228e-09)
(1.95094e-09 2.22996e-09 -2.18228e-09)
(-8.07407e-11 9.39312e-10 -3.4106e-10)
(-1.12573e-09 1.0683e-10 -1.42394e-10)
(-1.98961e-09 8.03448e-10 -1.60121e-10)
(-2.13949e-09 1.53343e-09 2.11148e-10)
(-7.83694e-10 2.46118e-09 8.63888e-11)
(2.70457e-09 1.50642e-09 -6.34517e-11)
(2.1375e-09 1.5265e-09 -3.21158e-10)
(5.1947e-09 1.52967e-08 -5.4151e-10)
(1.15536e-09 9.46125e-10 -7.42362e-10)
(-8.07407e-11 9.39312e-10 -3.4106e-10)
(-1.12573e-09 1.0683e-10 -1.42394e-10)
(-1.12573e-09 1.0683e-10 -1.42394e-10)
)
;
    }
    procBoundary7to6
    {
        type            processor;
        value           nonuniform List<vector> 
12
(
(8.10996e-10 1.96495e-09 1.68719e-09)
(1.74516e-09 1.3699e-09 1.20059e-09)
(8.47484e-10 2.76037e-10 9.38398e-10)
(1.97626e-09 1.6137e-09 7.34085e-10)
(2.5335e-09 1.0376e-09 8.26481e-10)
(1.96189e-09 3.69673e-10 9.57955e-10)
(2.39948e-09 1.61664e-09 6.303e-10)
(3.20166e-09 1.54458e-09 2.14467e-10)
(2.01969e-09 7.8785e-10 1.53601e-10)
(3.18652e-09 1.53878e-09 8.83673e-10)
(2.65992e-09 1.61945e-09 1.78959e-11)
(1.30579e-09 6.75141e-10 1.97448e-11)
)
;
    }
}


// ************************************************************************* //
