/*--------------------------------*- C++ -*----------------------------------*\
  =========                 |
  \\      /  F ield         | OpenFOAM: The Open Source CFD Toolbox
   \\    /   O peration     | Website:  https://openfoam.org
    \\  /    A nd           | Version:  4.x
     \\/     M anipulation  |
\*---------------------------------------------------------------------------*/
FoamFile
{
    version     2.0;
    format      ascii;
    class       Cloud<passiveParticle>;
    location    0;
    object      positions;
}
// * * * * * * * * * * * * * * * * * * * * * * * * * * * * * * * * * * * * * //

325
(
( 0.0388686 -0.0811816 0.0295059 ) 1
( 0.0913206 -0.0733609 0.0223493 ) 3
( 0.244294 -0.029707 0.0296445 ) 26
( 0.104068 -0.0622529 0.0322846 ) 12
( 0.121287 -0.040937 0.0239766 ) 22
( 0.0693619 -0.0265414 0.0234487 ) 20
( 0.014439 -0.0313821 0.0342945 ) 18
( 0.00979052 -0.0204783 0.0185372 ) 18
( 0.229662 -0.0151734 0.0288042 ) 26
( 0.0184093 -0.0624092 0.0159929 ) 9
( 0.241547 -0.00397305 0.0176458 ) 35
( 0.20488 -0.0421497 0.0146927 ) 25
( 0.179748 -0.0292828 0.0209604 ) 24
( 0.247299 -0.0512866 0.018377 ) 17
( 0.239011 -0.0713425 0.025472 ) 17
( 0.126477 -0.0523424 0.0392995 ) 13
( 0.118026 -0.0744258 0.0484071 ) 40
( 0.0664944 -0.0449503 0.0295881 ) 11
( 0.0817443 -0.0414146 0.0178239 ) 20
( 0.138715 -0.00766936 0.0335514 ) 31
( 0.122628 -0.0693848 0.0297629 ) 13
( 0.169736 -0.0153839 0.0308701 ) 24
( 0.210733 -0.00891944 0.02977 ) 34
( 0.124077 -0.0216157 0.0208639 ) 22
( 0.0608611 -0.0900883 0.0331746 ) 2
( 0.202108 -0.0201922 0.0159751 ) 25
( 0.0345628 -0.0220865 0.0162389 ) 19
( 0.231832 -0.0461782 0.0298115 ) 17
( 0.0976545 -0.0115438 0.0332093 ) 30
( 0.197762 -0.068032 0.0276014 ) 16
( 0.124124 -0.0284561 0.0393306 ) 22
( 0.0770972 -0.00603619 0.0280482 ) 29
( 0.193426 -0.0835778 0.0163934 ) 6
( 0.0536671 -0.0306959 0.0347762 ) 19
( 0.0764049 -0.0602146 0.0214445 ) 11
( 0.0506497 -0.090027 0.0160888 ) 1
( 0.0599245 -0.0673922 0.0300387 ) 11
( 0.153272 -0.0453013 0.02875 ) 14
( 0.136572 -0.0531282 0.0221834 ) 13
( 0.180734 -0.0681637 0.0174733 ) 15
( 0.0315812 -0.0621513 0.0306696 ) 10
( 0.0485041 -0.0108283 0.024939 ) 28
( 0.0293336 -0.0417751 0.0234997 ) 19
( 0.0875036 -0.0203889 0.0188347 ) 21
( 0.139501 -0.0768766 0.0223995 ) 5
( 0.184218 -0.054045 0.0308566 ) 15
( 0.14093 -0.0319069 0.0211054 ) 23
( 0.113537 -0.0820316 0.0173015 ) 4
( 0.157552 -0.0838192 0.0270969 ) 5
( 0.0887184 -0.0435235 0.0384712 ) 12
( 0.0678438 -0.0791255 0.0163413 ) 2
( 0.106248 -0.0144873 0.0156275 ) 21
( 0.151137 -0.0227777 0.0355377 ) 23
( 0.189426 -0.00731957 0.0363677 ) 33
( 0.212113 -0.090176 0.0161816 ) 7
( 0.0962889 -0.0548589 0.0156369 ) 12
( 0.135811 -0.00516385 0.0144175 ) 31
( 0.00979412 -0.074744 0.0283304 ) 0
( 0.184923 -0.0101178 0.0172388 ) 33
( 0.009739 -0.0568977 0.036995 ) 9
( 0.0815161 -0.0225759 0.0382673 ) 20
( 0.103579 -0.0901046 0.0325685 ) 3
( 0.0284159 -0.0173933 0.0353798 ) 19
( 0.196518 -0.0316643 0.0310719 ) 25
( 0.0475306 -0.0369717 0.0172579 ) 19
( 0.216605 -0.0774651 0.0307378 ) 7
( 0.216823 -0.0301068 0.02512 ) 25
( 0.164477 -0.0591045 0.0369841 ) 14
( 0.225518 -0.0573535 0.0148161 ) 17
( 0.0840479 -0.0627831 0.0393439 ) 12
( 0.0477796 -0.0508659 0.0310767 ) 10
( 0.118803 -0.00367677 0.0266925 ) 31
( 0.176023 -0.0902564 0.0229657 ) 6
( 0.108721 -0.0441667 0.0386483 ) 12
( 0.058478 -3.49134e-06 0.0382954 ) 29
( 0.153944 -0.0122309 0.0193577 ) 32
( 0.249284 -0.0872272 0.0176668 ) 8
( 0.228252 0.00821935 0.0256232 ) 35
( 0.0659492 0.0126418 0.023611 ) 29
( 0.188693 0.0101701 0.0260729 ) 33
( 0.0921232 0.00913805 0.0296113 ) 30
( 0.203832 0.00192953 0.0461264 ) 70
( 0.14943 0.00634615 0.0242937 ) 32
( 0.20861 0.0102969 0.0273531 ) 34
( 0.170307 0.00446894 0.0314487 ) 33
( 0.035317 0.00430998 0.0404967 ) 28
( 0.211859 -0.0541216 0.0288381 ) 16
( 0.0194388 -0.09027 0.0354989 ) 0
( 0.0993371 -0.0353925 0.0239336 ) 21
( 0.230562 -0.0903334 0.0233091 ) 8
( 0.0283245 -0.0901051 0.0153123 ) 1
( 0.0799641 -0.0877561 0.0289783 ) 2
( 0.158594 -0.0655599 0.0194673 ) 14
( 0.00959839 -0.000937868 0.0156814 ) 27
( 0.00991166 -0.0453004 0.0211996 ) 9
( 0.115978 -0.0579024 0.0149109 ) 13
( 0.0257872 -0.0467255 0.042295 ) 9
( 0.0289037 -0.00366718 0.0213371 ) 28
( 0.221486 0.0104224 0.0440888 ) 70
( 0.131679 -0.055859 0.0577884 ) 49
( 0.140721 -0.0729227 0.0543222 ) 41
( 0.168734 -0.0901493 0.0422306 ) 6
( 0.154765 -0.00708828 0.0546058 ) 68
( 0.0334889 -0.0272322 0.0518913 ) 55
( 0.12761 -0.0900628 0.056279 ) 40
( 0.0426141 -0.0769884 0.0597571 ) 37
( 0.167525 -0.0420932 0.0591621 ) 60
( 0.125865 -0.00919634 0.06921 ) 67
( 0.230606 -0.023494 0.059612 ) 62
( 0.046645 -0.0574607 0.0615774 ) 46
( 0.11605 -0.0443565 0.0603958 ) 49
( 0.0859231 -0.077528 0.0621536 ) 39
( 0.242451 -0.0904388 0.056112 ) 44
( 0.210224 -0.0331383 0.0605832 ) 61
( 0.246314 -0.0570968 0.0544545 ) 53
( 0.0742052 0.000228603 0.0625791 ) 65
( 0.0648647 -0.0380666 0.0655934 ) 56
( 0.20327 -0.090113 0.0601519 ) 43
( 0.00989661 -0.0828577 0.0715181 ) 72
( 0.168265 0.0100125 0.0581443 ) 69
( 0.0718797 -0.0639086 0.0605042 ) 47
( 0.186788 -0.0730478 0.0627475 ) 42
( 0.234171 -0.0727652 0.0540586 ) 44
( 0.148233 -0.0904974 0.0575224 ) 41
( 0.0900732 -0.0188657 0.0612374 ) 57
( 0.229403 -0.0473581 0.0515349 ) 53
( 0.209097 0.00976142 0.0654761 ) 70
( 0.175523 -0.00697349 0.0677191 ) 69
( 0.00967741 -0.0104042 0.0627316 ) 63
( 0.0663504 -0.0173361 0.0680591 ) 56
( 0.0269957 -0.0604943 0.0716191 ) 81
( 0.194766 -0.0145126 0.054767 ) 61
( 0.149596 -0.037088 0.0663918 ) 59
( 0.0639217 -0.0902104 0.0565848 ) 38
( 0.166273 -0.0655505 0.0621029 ) 50
( 0.188402 -0.0334778 0.059544 ) 60
( 0.104894 -0.072652 0.0653843 ) 39
( 0.223114 -0.0906671 0.0613677 ) 44
( 0.249335 -0.00223816 0.0534702 ) 71
( 0.115364 -0.0247653 0.0589265 ) 58
( 0.0308594 0.00970746 0.0591171 ) 64
( 0.190764 0.00379407 0.0612126 ) 69
( 0.0881519 0.0130158 0.0685863 ) 66
( 0.0877304 -0.0529105 0.0558648 ) 48
( 0.102158 -0.00180959 0.0563457 ) 66
( 0.118655 0.00796694 0.0612766 ) 67
( 0.210918 -0.0568298 0.0505816 ) 52
( 0.0168548 -0.0267493 0.0715618 ) 90
( 0.0296055 -0.0851873 0.0724958 ) 73
( 0.0266311 -0.00861682 0.0529448 ) 63
( 0.107649 -0.0899702 0.0554992 ) 39
( 0.151016 -0.0560682 0.0552997 ) 50
( 0.204538 -0.0900425 0.0403296 ) 7
( 0.214891 -0.0757299 0.0525736 ) 43
( 0.142117 -0.0876312 0.0389739 ) 5
( 0.0629786 -0.021386 0.0492874 ) 56
( 0.0755077 0.00957888 0.0403261 ) 29
( 0.0096325 -0.0454719 0.063086 ) 45
( 0.0994414 -0.0309758 0.0493485 ) 57
( 0.182376 -0.0245158 0.0430321 ) 60
( 0.125281 -0.0733443 0.0668435 ) 40
( 0.0628395 -0.0553661 0.0455853 ) 47
( 0.0466864 -0.0304114 0.0679585 ) 55
( 0.227625 -0.0893468 0.0425472 ) 8
( 0.0701814 -0.0756657 0.0447277 ) 38
( 0.193699 -0.0476586 0.0469624 ) 51
( 0.0179617 -0.0611825 0.0543722 ) 45
( 0.215637 -0.00747124 0.0592525 ) 70
( 0.159094 -0.019831 0.0690808 ) 59
( 0.134342 -0.0120398 0.0519672 ) 67
( 0.210917 -0.0395387 0.0419194 ) 25
( 0.0853722 -0.00566421 0.0474109 ) 66
( 0.133629 -0.0314876 0.0563008 ) 58
( 0.106025 -0.0588966 0.0515112 ) 48
( 0.150913 -0.0736363 0.0714374 ) 77
( 0.0456306 -0.0902922 0.0457081 ) 37
( 0.228355 -0.0304604 0.0412854 ) 26
( 0.0826513 -0.0905419 0.0479407 ) 38
( 0.177596 -0.0901439 0.0599485 ) 42
( 0.22638 -0.0625261 0.0393103 ) 17
( 0.143499 -0.0623297 0.0380337 ) 14
( 0.164032 -0.0245631 0.0504336 ) 59
( 0.136372 0.00760496 0.0511314 ) 67
( 0.179759 -0.061426 0.0486978 ) 51
( 0.0803083 -0.034538 0.0539677 ) 56
( 0.010257 0.00459696 0.0491913 ) 63
( 0.0556995 -0.00394896 0.0578464 ) 65
( 0.181464 -0.0761656 0.0356963 ) 6
( 0.0460212 -0.0656438 0.0438007 ) 46
( 0.0443544 -0.0687991 0.07742 ) 82
( 0.0219535 -0.0904717 0.0552399 ) 36
( 0.00982853 -0.0130987 0.0404118 ) 27
( 0.123432 -0.0899798 0.0327228 ) 4
( 0.231373 -0.00781937 0.0472124 ) 71
( 0.231088 -0.00848665 0.0722961 ) 107
( 0.114182 -0.0119396 0.0440682 ) 67
( 0.116853 -0.0901248 0.0731083 ) 76
( 0.145212 -0.00477083 0.0715839 ) 104
( 0.211659 -0.0205383 0.0454064 ) 61
( 0.0289101 -0.0750309 0.0454698 ) 37
( 0.0455386 -0.0137218 0.0441535 ) 64
( 0.10674 -0.0129088 0.0716012 ) 102
( 0.182897 0.0119524 0.0448948 ) 69
( 0.00984256 -0.0283615 0.0531802 ) 54
( 0.172399 -0.0412919 0.0401521 ) 24
( 0.246565 -0.0901662 0.0368626 ) 8
( 0.0616103 -0.0554405 0.0746577 ) 83
( 0.080514 -0.0483719 0.0734421 ) 83
( 0.197162 -0.0705675 0.0466779 ) 52
( 0.226248 -0.0404616 0.0695378 ) 62
( 0.049061 -0.0901675 0.0791187 ) 73
( 0.20422 -0.0738812 0.071613 ) 79
( 0.173461 -0.00619251 0.0480243 ) 69
( 0.249713 -0.0737734 0.0658874 ) 44
( 0.0290951 -0.0437565 0.0614038 ) 46
( 0.24787 -0.041666 0.0727587 ) 98
( 0.0094422 -0.0774413 0.0476197 ) 36
( 0.0402027 -0.0115358 0.0671236 ) 64
( 0.181881 -0.0238886 0.075726 ) 96
( 0.0981744 -0.0348678 0.0700649 ) 57
( 0.0868864 -0.0665392 0.0783737 ) 84
( 0.117038 0.00827599 0.0420525 ) 31
( 0.156569 -0.0547955 0.0757304 ) 86
( 0.216952 -0.0590423 0.0692261 ) 52
( 0.0806851 -0.0278208 0.076097 ) 92
( 0.236349 -0.0591465 0.0713299 ) 53
( 0.0968244 -0.0766602 0.0454914 ) 39
( 0.149303 -0.0386258 0.0467842 ) 59
( 0.0505212 -0.0408195 0.0514972 ) 55
( 0.155932 0.0141638 0.0729607 ) 104
( 0.131731 -0.0428107 0.0723621 ) 94
( 0.0409031 0.00854113 0.0760568 ) 100
( 0.0925282 0.0138257 0.0493049 ) 66
( 0.141224 -0.0901351 0.0766778 ) 77
( 0.198322 -0.0534243 0.0656161 ) 52
( 0.154716 0.00876649 0.0430446 ) 68
( 0.198536 -0.0347475 0.0762834 ) 97
( 0.0756932 -0.0900923 0.0751017 ) 74
( 0.221857 -0.0803392 0.0776303 ) 79
( 0.193186 0.00257318 0.0814065 ) 105
( 0.120828 -0.0259013 0.077837 ) 94
( 0.0146875 -0.0711934 0.0874248 ) 81
( 0.202363 -0.0128046 0.0729522 ) 106
( 0.174832 -0.0722185 0.0778298 ) 78
( 0.0234503 -0.00782656 0.0766411 ) 99
( 0.0663419 -0.0379198 0.0852786 ) 92
( 0.109697 -0.0723614 0.0843081 ) 75
( 0.181201 -0.0476454 0.0736466 ) 87
( 0.0657169 -0.00208144 0.0804978 ) 101
( 0.194468 -0.0899218 0.0779696 ) 79
( 0.0402436 -0.0468202 0.0769044 ) 82
( 0.00977736 0.00628741 0.0807322 ) 99
( 0.00991045 -0.0523546 0.0831448 ) 81
( 0.163144 -0.00315703 0.0825734 ) 104
( 0.224561 0.0093085 0.0771503 ) 107
( 0.131117 0.00828059 0.0762892 ) 103
( 0.13679 -0.0612363 0.0774232 ) 85
( 0.142947 -0.0274931 0.0823663 ) 95
( 0.0613378 -0.0768722 0.0709361 ) 38
( 0.0775724 0.0130205 0.0852916 ) 101
( 0.161728 -0.0902545 0.071693 ) 77
( 0.248029 -0.0321122 0.0562309 ) 62
( 0.1601 -0.0681509 0.0901955 ) 86
( 0.0969983 -0.0902207 0.0722771 ) 75
( 0.245118 -0.0902171 0.0755967 ) 80
( 0.0580392 -0.076364 0.0903074 ) 74
( 0.231473 -0.0176787 0.0901238 ) 98
( 0.106226 -0.0305949 0.0902673 ) 93
( 0.0358443 -0.0808198 0.0905 ) 73
( 0.073314 -0.055673 0.0904256 ) 83
( 0.242562 0.00728307 0.0698178 ) 71
( 0.22898 -0.0672431 0.0903413 ) 89
( 0.0858119 -0.0402871 0.0904391 ) 93
( 0.0327816 -0.0245627 0.0829857 ) 91
( 0.20872 -0.0703451 0.0903589 ) 88
( 0.111897 0.0044355 0.0790192 ) 103
( 0.225398 -0.0481968 0.0875008 ) 89
( 0.165497 -0.0363632 0.0777831 ) 95
( 0.126682 -0.0900258 0.0902415 ) 76
( 0.0881163 -0.00556949 0.0752609 ) 102
( 0.111346 -0.0463449 0.0793683 ) 85
( 0.0269108 0.0101807 0.0901033 ) 99
( 0.185005 -0.036827 0.0903594 ) 96
( 0.126968 -0.00530933 0.0901373 ) 103
( 0.206164 -0.0516746 0.0840375 ) 88
( 0.0521093 -0.0173439 0.0818026 ) 91
( 0.126487 -0.0392832 0.0906758 ) 94
( 0.0542113 0.0104382 0.090437 ) 100
( 0.00984461 -0.0304822 0.0897085 ) 90
( 0.218863 -0.0233141 0.0757516 ) 97
( 0.210212 -0.0901438 0.0901865 ) 79
( 0.0315463 -0.0613862 0.0905224 ) 82
( 0.146329 -0.00980824 0.0904776 ) 104
( 0.188141 -0.0564825 0.0901032 ) 87
( 0.14661 -0.0454763 0.0901535 ) 86
( 0.248574 -0.0572792 0.0865001 ) 89
( 0.176043 -0.0904636 0.0850771 ) 78
( 0.180587 -0.00973636 0.0901331 ) 105
( 0.143819 0.011645 0.0905243 ) 104
( 0.0506042 -0.0559477 0.0907209 ) 82
( 0.141761 -0.0755207 0.0902326 ) 77
( 0.0946297 0.00435642 0.0905904 ) 102
( 0.0860956 -0.0824537 0.090185 ) 75
( 0.122315 -0.0585927 0.0904245 ) 85
( 0.107831 -0.0106153 0.090707 ) 102
( 0.247227 -0.0768418 0.0901314 ) 80
( 0.232596 -0.0900648 0.0906496 ) 80
( 0.06993 -0.0188984 0.0902455 ) 92
( 0.169363 -0.0505382 0.0904917 ) 87
( 0.0256752 -0.0424093 0.0901432 ) 90
( 0.00987049 -0.010659 0.090469 ) 99
( 0.0981096 -0.0558167 0.0903707 ) 84
( 0.155698 -0.0897822 0.0903387 ) 77
( 0.104518 -0.0902026 0.0904416 ) 75
( 0.037824 -0.00679266 0.0903061 ) 100
( 0.21676 -0.00347691 0.0901613 ) 106
( 0.0898097 -0.0181311 0.0904708 ) 93
( 0.187918 -0.0761585 0.0909552 ) 78
( 0.212054 -0.0340397 0.0905501 ) 97
( 0.0476213 -0.03516 0.090599 ) 91
( 0.0098458 -0.0901543 0.0900717 ) 72
( 0.242492 -0.0392078 0.0908711 ) 98
( 0.241546 0.0125749 0.0902514 ) 107
( 0.197183 -0.0208288 0.0902957 ) 97
( 0.164693 -0.0214138 0.0903786 ) 95
)
