/*--------------------------------*- C++ -*----------------------------------*\
  =========                 |
  \\      /  F ield         | OpenFOAM: The Open Source CFD Toolbox
   \\    /   O peration     | Website:  https://openfoam.org
    \\  /    A nd           | Version:  4.x
     \\/     M anipulation  |
\*---------------------------------------------------------------------------*/
FoamFile
{
    version     2.0;
    format      ascii;
    class       Cloud<passiveParticle>;
    location    0;
    object      positions;
}
// * * * * * * * * * * * * * * * * * * * * * * * * * * * * * * * * * * * * * //

325
(
( 0.0388827 -0.0811792 0.0295032 ) 1
( 0.0913658 -0.0733611 0.0223545 ) 3
( 0.24441 -0.029698 0.0296437 ) 26
( 0.104119 -0.0622545 0.0322885 ) 12
( 0.121357 -0.0409331 0.0239724 ) 22
( 0.0693996 -0.0265442 0.0234481 ) 20
( 0.014445 -0.03138 0.034296 ) 18
( 0.0097961 -0.020477 0.0185378 ) 18
( 0.229784 -0.015165 0.0288085 ) 26
( 0.0184158 -0.062405 0.0159935 ) 9
( 0.241677 -0.00397482 0.0176442 ) 35
( 0.204993 -0.0421553 0.0146865 ) 25
( 0.179858 -0.0292807 0.0209509 ) 24
( 0.24742 -0.0512822 0.0183711 ) 17
( 0.239154 -0.0713345 0.0254497 ) 17
( 0.126548 -0.0523324 0.0392988 ) 13
( 0.118096 -0.0744096 0.0483939 ) 40
( 0.0665259 -0.0449531 0.0295854 ) 11
( 0.0817878 -0.0414229 0.0178263 ) 20
( 0.138818 -0.00765651 0.0335533 ) 31
( 0.122696 -0.0693636 0.0297492 ) 13
( 0.169843 -0.0153805 0.0308635 ) 24
( 0.210859 -0.00891031 0.0297636 ) 34
( 0.124153 -0.0216112 0.020866 ) 22
( 0.0608786 -0.0900873 0.0331722 ) 2
( 0.202234 -0.0201847 0.0159677 ) 25
( 0.0345835 -0.0220804 0.0162414 ) 19
( 0.231942 -0.0461699 0.0298018 ) 17
( 0.0977116 -0.0115525 0.0332081 ) 30
( 0.197858 -0.0680308 0.0275925 ) 16
( 0.12419 -0.0284587 0.0393325 ) 22
( 0.0771411 -0.00604291 0.0280441 ) 29
( 0.193532 -0.0835814 0.0163804 ) 6
( 0.0536974 -0.0306963 0.0347724 ) 19
( 0.0764425 -0.0602205 0.0214446 ) 11
( 0.0506646 -0.0900267 0.0160873 ) 1
( 0.0599486 -0.0673931 0.0300379 ) 11
( 0.153353 -0.045289 0.028747 ) 14
( 0.136649 -0.0531166 0.0221748 ) 13
( 0.180843 -0.0681655 0.0174568 ) 15
( 0.0315958 -0.0621474 0.0306687 ) 10
( 0.0485334 -0.0108279 0.0249396 ) 28
( 0.0293476 -0.0417728 0.0235006 ) 19
( 0.0875539 -0.0203968 0.0188347 ) 21
( 0.139559 -0.0768781 0.0223871 ) 5
( 0.184316 -0.0540404 0.0308447 ) 15
( 0.141016 -0.0318917 0.0211046 ) 23
( 0.113596 -0.0820155 0.0173017 ) 4
( 0.157611 -0.0837994 0.0270945 ) 5
( 0.0887698 -0.0435287 0.0384704 ) 12
( 0.0678662 -0.0791224 0.01634 ) 2
( 0.106313 -0.0144969 0.0156283 ) 21
( 0.151234 -0.0227675 0.0355346 ) 23
( 0.189538 -0.00731712 0.0363702 ) 33
( 0.212211 -0.0901783 0.016173 ) 7
( 0.096338 -0.054865 0.0156405 ) 12
( 0.135914 -0.00515487 0.0144181 ) 31
( 0.00979731 -0.0747419 0.0283298 ) 0
( 0.185044 -0.0101132 0.0172376 ) 33
( 0.00974205 -0.056896 0.0369948 ) 9
( 0.0815589 -0.0225835 0.0382632 ) 20
( 0.103639 -0.0901053 0.0325612 ) 3
( 0.0284243 -0.0173886 0.0353817 ) 19
( 0.196629 -0.0316554 0.0310596 ) 25
( 0.0475529 -0.0369687 0.0172562 ) 19
( 0.216728 -0.0774759 0.030735 ) 7
( 0.216937 -0.0301088 0.0251152 ) 25
( 0.164558 -0.0590943 0.0369783 ) 14
( 0.225637 -0.0573613 0.0148115 ) 17
( 0.0840798 -0.0627852 0.0393458 ) 12
( 0.0478032 -0.0508674 0.0310715 ) 10
( 0.11886 -0.00367978 0.0266966 ) 31
( 0.176115 -0.0902537 0.022945 ) 6
( 0.108784 -0.0441649 0.0386448 ) 12
( 0.0585108 -9.58993e-06 0.0382975 ) 29
( 0.154052 -0.0122243 0.0193527 ) 32
( 0.249368 -0.0872125 0.01767 ) 8
( 0.228379 0.00822501 0.0256139 ) 35
( 0.0659802 0.0126349 0.0236125 ) 29
( 0.188815 0.0101705 0.0260632 ) 33
( 0.0921718 0.00913287 0.0296089 ) 30
( 0.203946 0.00193744 0.046115 ) 70
( 0.149541 0.00635463 0.0242865 ) 32
( 0.208735 0.0103062 0.0273431 ) 34
( 0.170419 0.00447233 0.0314397 ) 33
( 0.0353323 0.00430937 0.0404998 ) 28
( 0.211967 -0.0541268 0.0288314 ) 16
( 0.0194408 -0.0902699 0.0354974 ) 0
( 0.099392 -0.0354023 0.023926 ) 21
( 0.230648 -0.0903358 0.0233121 ) 8
( 0.0283317 -0.0901028 0.0153112 ) 1
( 0.0799881 -0.0877514 0.0289757 ) 2
( 0.158668 -0.0655483 0.0194658 ) 14
( 0.00960194 -0.000936017 0.0156813 ) 27
( 0.00991671 -0.0452986 0.0211994 ) 9
( 0.116031 -0.0578873 0.0148991 ) 13
( 0.0257923 -0.0467239 0.0422947 ) 9
( 0.0289132 -0.00366372 0.0213392 ) 28
( 0.221594 0.0104382 0.0440722 ) 70
( 0.131754 -0.055851 0.0577866 ) 49
( 0.140789 -0.0729131 0.0543108 ) 41
( 0.168778 -0.0901534 0.0422206 ) 6
( 0.154873 -0.00705909 0.0546187 ) 68
( 0.0334958 -0.0272277 0.0518915 ) 55
( 0.127645 -0.0900674 0.0562656 ) 40
( 0.0426249 -0.0769879 0.0597556 ) 37
( 0.16762 -0.0420898 0.0591574 ) 60
( 0.12591 -0.00919868 0.069199 ) 67
( 0.230711 -0.0234953 0.0596157 ) 62
( 0.0466606 -0.0574607 0.0615733 ) 46
( 0.11612 -0.044362 0.0604035 ) 49
( 0.0859536 -0.0775266 0.062147 ) 39
( 0.2425 -0.0904374 0.0561107 ) 44
( 0.210292 -0.0331312 0.0605738 ) 61
( 0.246403 -0.0570777 0.0544414 ) 53
( 0.0742374 0.000221426 0.06257 ) 65
( 0.064891 -0.0380659 0.0655901 ) 56
( 0.20332 -0.0901101 0.0601398 ) 43
( 0.00989903 -0.0828567 0.0715189 ) 72
( 0.168356 0.0100331 0.058122 ) 69
( 0.0719047 -0.0639088 0.0605048 ) 47
( 0.186853 -0.0730548 0.0627309 ) 42
( 0.234266 -0.0727512 0.0540497 ) 44
( 0.148268 -0.0904982 0.0575187 ) 41
( 0.0901116 -0.0188745 0.0612409 ) 57
( 0.229484 -0.0473512 0.0515391 ) 53
( 0.20918 0.00976692 0.0654771 ) 70
( 0.175593 -0.00696598 0.0677208 ) 69
( 0.00968041 -0.0104026 0.0627312 ) 63
( 0.0663705 -0.0173324 0.0680589 ) 56
( 0.0270057 -0.0604911 0.0716164 ) 81
( 0.194856 -0.0145097 0.0547717 ) 61
( 0.149675 -0.0370831 0.0663878 ) 59
( 0.0639354 -0.0902089 0.0565827 ) 38
( 0.166341 -0.0655476 0.0620907 ) 50
( 0.188479 -0.0334805 0.0595377 ) 60
( 0.104927 -0.0726551 0.0653766 ) 39
( 0.223161 -0.0906715 0.0613663 ) 44
( 0.249434 -0.00223395 0.053491 ) 71
( 0.115419 -0.0247713 0.0589299 ) 58
( 0.0308634 0.0097108 0.0591183 ) 64
( 0.190844 0.00379794 0.0612113 ) 69
( 0.088185 0.0130131 0.0685812 ) 66
( 0.0877711 -0.0529141 0.0558648 ) 48
( 0.102207 -0.00181361 0.0563418 ) 66
( 0.118702 0.00797202 0.0612738 ) 67
( 0.211002 -0.0568245 0.05058 ) 52
( 0.0168573 -0.0267485 0.0715632 ) 90
( 0.0296114 -0.0851833 0.0724929 ) 73
( 0.0266374 -0.00861327 0.0529459 ) 63
( 0.107684 -0.0899663 0.0554909 ) 39
( 0.151089 -0.0560618 0.0552876 ) 50
( 0.204643 -0.0900417 0.0403208 ) 7
( 0.214983 -0.0757193 0.0525655 ) 43
( 0.142178 -0.0876259 0.0389656 ) 5
( 0.0629997 -0.0213812 0.0492865 ) 56
( 0.0755498 0.0095686 0.0403242 ) 29
( 0.00963589 -0.0454707 0.063088 ) 45
( 0.0994943 -0.0309831 0.0493532 ) 57
( 0.182481 -0.0245155 0.0430207 ) 60
( 0.125341 -0.0733512 0.0668326 ) 40
( 0.0628652 -0.0553683 0.0455822 ) 47
( 0.0467072 -0.0304083 0.0679504 ) 55
( 0.227703 -0.0893482 0.0425507 ) 8
( 0.0702074 -0.0756631 0.0447285 ) 38
( 0.193787 -0.0476583 0.0469551 ) 51
( 0.0179684 -0.06118 0.0543706 ) 45
( 0.215728 -0.0074677 0.0592562 ) 70
( 0.159197 -0.0198336 0.0690656 ) 59
( 0.13441 -0.0120384 0.0519623 ) 67
( 0.211016 -0.0395361 0.0419133 ) 25
( 0.0854212 -0.00567405 0.047407 ) 66
( 0.133697 -0.0314834 0.0563043 ) 58
( 0.10608 -0.0588935 0.0515123 ) 48
( 0.150963 -0.0736296 0.0714287 ) 77
( 0.0456415 -0.0902917 0.0457061 ) 37
( 0.228463 -0.0304566 0.041285 ) 26
( 0.0826685 -0.0905425 0.047939 ) 38
( 0.177632 -0.0901424 0.0599413 ) 42
( 0.226485 -0.0625165 0.0393032 ) 17
( 0.143571 -0.0623172 0.0380249 ) 14
( 0.164134 -0.0245691 0.0504202 ) 59
( 0.136429 0.00760393 0.0511319 ) 67
( 0.179841 -0.0614308 0.0486837 ) 51
( 0.0803457 -0.0345426 0.0539658 ) 56
( 0.0102586 0.00459871 0.0491923 ) 63
( 0.0557255 -0.00394923 0.0578409 ) 65
( 0.181561 -0.0761659 0.0356786 ) 6
( 0.0460397 -0.0656455 0.0437979 ) 46
( 0.0443645 -0.068797 0.0774178 ) 82
( 0.0219573 -0.0904701 0.0552383 ) 36
( 0.00983213 -0.0130969 0.0404136 ) 27
( 0.123494 -0.0899767 0.0327113 ) 4
( 0.231475 -0.00781331 0.0472233 ) 71
( 0.231174 -0.00848207 0.0722941 ) 107
( 0.114239 -0.0119464 0.0440698 ) 67
( 0.116887 -0.090125 0.0730961 ) 76
( 0.1453 -0.00474109 0.0715856 ) 104
( 0.211761 -0.0205325 0.0453992 ) 61
( 0.0289209 -0.0750287 0.0454671 ) 37
( 0.045554 -0.0137218 0.0441542 ) 64
( 0.106786 -0.0129133 0.0715971 ) 102
( 0.183005 0.0119611 0.0448828 ) 69
( 0.00984447 -0.0283597 0.0531818 ) 54
( 0.172494 -0.0412879 0.0401437 ) 24
( 0.246641 -0.0901643 0.0368651 ) 8
( 0.0616284 -0.055439 0.0746564 ) 83
( 0.0805433 -0.0483754 0.0734398 ) 83
( 0.197248 -0.070571 0.0466689 ) 52
( 0.226299 -0.0404649 0.0695409 ) 62
( 0.0490674 -0.0901664 0.0791171 ) 73
( 0.204271 -0.0738869 0.0716103 ) 79
( 0.173566 -0.00618307 0.04802 ) 69
( 0.249801 -0.0737837 0.0658807 ) 44
( 0.029102 -0.0437528 0.0614023 ) 46
( 0.247975 -0.0416416 0.0727735 ) 98
( 0.00944681 -0.0774398 0.0476181 ) 36
( 0.0402175 -0.0115273 0.0671192 ) 64
( 0.181946 -0.023888 0.0757191 ) 96
( 0.0981834 -0.0348892 0.0700615 ) 57
( 0.0869219 -0.0665407 0.0783681 ) 84
( 0.117089 0.00827968 0.0420492 ) 31
( 0.156648 -0.0547741 0.0757023 ) 86
( 0.217026 -0.0590582 0.0692233 ) 52
( 0.0807036 -0.0278203 0.0760952 ) 92
( 0.236423 -0.0591353 0.0713124 ) 53
( 0.096853 -0.0766693 0.0454783 ) 39
( 0.149379 -0.038614 0.0467815 ) 59
( 0.0505466 -0.0408194 0.0514928 ) 55
( 0.15601 0.0141677 0.0729391 ) 104
( 0.131809 -0.0428082 0.0723673 ) 94
( 0.0409143 0.00854907 0.0760532 ) 100
( 0.0925725 0.0138195 0.0493023 ) 66
( 0.141248 -0.0901261 0.0766755 ) 77
( 0.198404 -0.0534234 0.0656158 ) 52
( 0.154825 0.00877433 0.0430338 ) 68
( 0.1986 -0.0347428 0.0762792 ) 97
( 0.0757091 -0.09009 0.075095 ) 74
( 0.2219 -0.0803445 0.0776274 ) 79
( 0.193252 0.00257824 0.0814035 ) 105
( 0.120891 -0.0259029 0.0778374 ) 94
( 0.0146911 -0.0711927 0.0874237 ) 81
( 0.202448 -0.0127978 0.072958 ) 106
( 0.174902 -0.0722147 0.0778183 ) 78
( 0.0234577 -0.00782537 0.076638 ) 99
( 0.0663575 -0.0379154 0.0852789 ) 92
( 0.109722 -0.0723678 0.0843026 ) 75
( 0.181281 -0.0476466 0.07364 ) 87
( 0.065736 -0.00207437 0.0804949 ) 101
( 0.194506 -0.0899324 0.0779496 ) 79
( 0.0402589 -0.0468181 0.0768987 ) 82
( 0.00978063 0.00628766 0.080731 ) 99
( 0.00991199 -0.0523541 0.0831444 ) 81
( 0.163198 -0.00315567 0.0825765 ) 104
( 0.224647 0.00931584 0.0771566 ) 107
( 0.131166 0.00827471 0.0762823 ) 103
( 0.136829 -0.0612401 0.0774274 ) 85
( 0.143039 -0.0274837 0.0823601 ) 95
( 0.0613514 -0.07687 0.0709354 ) 38
( 0.0775983 0.013023 0.0852869 ) 101
( 0.161763 -0.0902544 0.0716935 ) 77
( 0.248153 -0.0320944 0.0562383 ) 62
( 0.160151 -0.0681522 0.090182 ) 86
( 0.0970276 -0.0902184 0.0722693 ) 75
( 0.245154 -0.0902173 0.0755971 ) 80
( 0.058045 -0.0763646 0.0903066 ) 74
( 0.231544 -0.0176789 0.0901317 ) 98
( 0.106266 -0.0305874 0.0902615 ) 93
( 0.0358502 -0.0808167 0.0904983 ) 73
( 0.0733233 -0.055672 0.0904255 ) 83
( 0.242639 0.00729217 0.0698066 ) 71
( 0.229011 -0.0672483 0.0903431 ) 89
( 0.085823 -0.0402877 0.0904395 ) 93
( 0.0327896 -0.0245644 0.0829824 ) 91
( 0.208743 -0.0703441 0.090359 ) 88
( 0.11194 0.00443182 0.0790155 ) 103
( 0.225446 -0.0482016 0.0874968 ) 89
( 0.165579 -0.0363651 0.0777785 ) 95
( 0.126702 -0.0900214 0.0902398 ) 76
( 0.0881423 -0.0055714 0.0752579 ) 102
( 0.111372 -0.0463435 0.0793655 ) 85
( 0.0269182 0.0101824 0.0901023 ) 99
( 0.185048 -0.0368297 0.0903523 ) 96
( 0.126995 -0.00531722 0.0901327 ) 103
( 0.206221 -0.0516781 0.0840265 ) 88
( 0.0521235 -0.0173397 0.0817977 ) 91
( 0.126528 -0.0392854 0.0906769 ) 94
( 0.054223 0.0104449 0.0904335 ) 100
( 0.00984552 -0.0304822 0.0897091 ) 90
( 0.218947 -0.0233089 0.0757608 ) 97
( 0.210236 -0.0901432 0.0901839 ) 79
( 0.0315516 -0.0613842 0.0905204 ) 82
( 0.146364 -0.00979561 0.0904769 ) 104
( 0.188198 -0.0564836 0.0901061 ) 87
( 0.146745 -0.0454538 0.090156 ) 86
( 0.248637 -0.0572619 0.0864828 ) 89
( 0.176079 -0.0904598 0.0850687 ) 78
( 0.180638 -0.00972533 0.090134 ) 105
( 0.14385 0.0116308 0.0905285 ) 104
( 0.0506122 -0.0559488 0.0907195 ) 82
( 0.141811 -0.0755059 0.0902383 ) 77
( 0.0946494 0.00435415 0.0905896 ) 102
( 0.0861139 -0.0824578 0.0901826 ) 75
( 0.122336 -0.0585969 0.0904204 ) 85
( 0.107851 -0.0106173 0.0907054 ) 102
( 0.247258 -0.0768301 0.0901271 ) 80
( 0.232629 -0.0900609 0.0906499 ) 80
( 0.0699428 -0.0188934 0.0902437 ) 92
( 0.169414 -0.0505406 0.0904922 ) 87
( 0.0256764 -0.042408 0.0901435 ) 90
( 0.00987362 -0.0106596 0.0904682 ) 99
( 0.098131 -0.0558134 0.0903721 ) 84
( 0.155721 -0.0897846 0.0903367 ) 77
( 0.104532 -0.0902041 0.0904408 ) 75
( 0.0378309 -0.00679442 0.0903044 ) 100
( 0.216913 -0.00352892 0.0901575 ) 106
( 0.0898242 -0.0181313 0.0904706 ) 93
( 0.187964 -0.0761657 0.0909586 ) 78
( 0.212098 -0.0340359 0.0905491 ) 97
( 0.0476321 -0.0351588 0.0905967 ) 91
( 0.0098468 -0.0901541 0.0900722 ) 72
( 0.242527 -0.0392008 0.0908715 ) 98
( 0.241631 0.0125712 0.0902479 ) 107
( 0.197229 -0.0208224 0.0902919 ) 97
( 0.164743 -0.0214145 0.0903749 ) 95
)
