/*--------------------------------*- C++ -*----------------------------------*\
| =========                 |                                                 |
| \\      /  F ield         | OpenFOAM: The Open Source CFD Toolbox           |
|  \\    /   O peration     | Version:  4.x                                   |
|   \\  /    A nd           | Web:      www.OpenFOAM.org                      |
|    \\/     M anipulation  |                                                 |
\*---------------------------------------------------------------------------*/
FoamFile
{
    version     2.0;
    format      ascii;
    class       volScalarField;
    location    "43.5";
    object      p;
}
// * * * * * * * * * * * * * * * * * * * * * * * * * * * * * * * * * * * * * //

dimensions      [1 -1 -2 0 0 0 0];

internalField   nonuniform List<scalar> 
87
(
82.0335
38.0138
81.5462
88.5896
38.2991
81.5527
-1765.9
-1784.11
-1773.24
-1801.68
-1780.97
-1819.73
-1788.84
-1837.57
-1796.2
-1766.49
-1784.33
-1773.64
-1802.13
-1781.12
-1820.38
-1788.6
-1838.64
-1795.99
-1767.11
-1784.62
-1774.22
-1802.25
-1781.55
-1820.45
-1788.98
-1838.6
-1795.98
-3644
-3662.05
-3651.32
-3679.91
-3658.87
-3698.02
-3666.4
-3716.33
-3673.72
-3644.62
-3662.32
-3651.88
-3680.11
-3659.37
-3698.27
-3666.78
-3716.64
-3674.02
-3645.15
-3662.58
-3652.29
-3680.23
-3659.68
-3698.42
-3667.03
-3716.7
-3674.15
-5522.42
-5540.16
-5529.68
-5557.88
-5537.23
-5575.99
-5544.75
-5594.43
-5551.98
-5522.86
-5540.36
-5530.04
-5558.02
-5537.49
-5576.25
-5544.91
-5594.47
-5552.08
-5523.27
-5540.51
-5530.38
-5558.14
-5537.71
-5576.22
-5545.08
-5594.34
-5552.09
)
;

boundaryField
{
    inlet
    {
        type            calculated;
        value           nonuniform List<scalar> 9(-1765.9 -1766.49 -1767.11 -3644 -3644.62 -3645.15 -5522.42 -5522.86 -5523.27);
    }
    outlet
    {
        type            calculated;
        value           nonuniform 0();
    }
    wall
    {
        type            calculated;
        value           nonuniform List<scalar> 
57
(
-6461.38
-6461.81
-6462.23
-6479.11
-6479.32
-6479.47
-6468.64
-6469
-6469.34
-6496.84
-6496.98
-6497.1
-6476.19
-6476.45
-6476.67
-6514.95
-6515.21
-6515.17
-6483.7
-6483.87
-6484.04
-6533.38
-6533.43
-6533.3
-6490.94
-6491.03
-6491.04
-1767.11
-3645.15
-5523.27
-1784.62
-3662.58
-5540.51
-1774.22
-3652.29
-5530.38
-1802.25
-3680.23
-5558.14
-1781.55
-3659.68
-5537.71
-1820.45
-3698.42
-5576.22
88.5896
-1788.98
-3667.03
-5545.08
38.2991
-1838.6
-3716.7
-5594.34
81.5527
-1795.98
-3674.15
-5552.09
)
;
    }
    procBoundary6to0
    {
        type            processor;
        value           uniform 81.8857;
    }
    procBoundary6to2
    {
        type            processor;
        value           nonuniform List<scalar> 
32
(
1959.62
1916.32
1959.72
1966.5
1916.39
1959.56
111.44
93.6231
104.294
75.5409
96.8287
57.3057
89.356
38.9896
38.9896
38.9896
110.853
93.1903
103.684
75.1318
96.2191
56.7545
88.7581
88.7581
88.7581
110.299
92.9304
103.242
75.0246
95.8973
56.7599
56.7599
)
;
    }
    procBoundary6to4
    {
        type            processor;
        value           nonuniform List<scalar> 
27
(
-1766.2
-1784
-1773.4
-1801.93
-1781.02
-1820.1
-1788.72
-1838.4
-1796.31
-3644.07
-3662.01
-3651.35
-3679.83
-3659.01
-3698.25
-3666.63
-3716.81
-3673.97
-5522.34
-5540.25
-5529.71
-5557.98
-5537.37
-5576.4
-5545.02
-5594.73
-5552.18
)
;
    }
    procBoundary6to7
    {
        type            processor;
        value           nonuniform List<scalar> 
12
(
20.7496
19.0726
19.6154
-1855.27
-1856.88
-1856.82
-3734.59
-3735.21
-3735.1
-5612.61
-5612.88
-5612.62
)
;
    }
}


// ************************************************************************* //
