/*--------------------------------*- C++ -*----------------------------------*\
| =========                 |                                                 |
| \\      /  F ield         | OpenFOAM: The Open Source CFD Toolbox           |
|  \\    /   O peration     | Version:  4.x                                   |
|   \\  /    A nd           | Web:      www.OpenFOAM.org                      |
|    \\/     M anipulation  |                                                 |
\*---------------------------------------------------------------------------*/
FoamFile
{
    version     2.0;
    format      ascii;
    class       volVectorField;
    location    "31.5";
    object      ddtUrel;
}
// * * * * * * * * * * * * * * * * * * * * * * * * * * * * * * * * * * * * * //

dimensions      [0 1 -2 0 0 0 0];

internalField   nonuniform List<vector> 
114
(
(4.40999e-09 -5.90149e-10 1.02701e-10)
(1.89127e-09 -1.45685e-09 -9.78164e-10)
(-6.05615e-09 -4.26401e-09 -5.05298e-09)
(-2.40054e-08 -1.41193e-08 -1.54456e-08)
(-8.4655e-08 -5.02794e-08 -5.09809e-08)
(-1.3127e-07 -6.53476e-08 -5.384e-08)
(3.89201e-09 6.12482e-11 1.10737e-09)
(4.1633e-09 -8.44698e-11 1.01935e-09)
(4.54893e-09 -2.89782e-10 6.96787e-10)
(4.41984e-09 -7.32652e-10 2.45909e-10)
(2.472e-09 -1.09038e-09 -1.16239e-09)
(-3.18303e-09 -3.11316e-09 -3.82371e-09)
(-1.2257e-08 -8.77943e-09 -8.85295e-09)
(-2.84882e-08 -1.84594e-08 -1.75662e-08)
(-3.63347e-08 -2.19913e-08 -1.89907e-08)
(3.50592e-09 -1.03507e-10 1.02259e-09)
(3.86248e-09 -1.67026e-10 9.66335e-10)
(4.32802e-09 -3.0605e-10 7.7005e-10)
(4.803e-09 -7.06283e-10 3.7155e-10)
(3.57033e-09 -1.27678e-09 -9.80371e-10)
(-4.65274e-10 -2.57872e-09 -2.45495e-09)
(-3.33204e-09 -5.36165e-09 -4.16704e-09)
(-6.84992e-09 -7.96992e-09 -7.25216e-09)
(-7.99067e-09 -8.9274e-09 -8.05824e-09)
(3.13545e-09 -1.49675e-10 8.98187e-10)
(3.56152e-09 -1.73246e-10 8.15576e-10)
(4.15779e-09 -2.72738e-10 6.55837e-10)
(4.15187e-09 -6.21523e-10 1.53563e-10)
(3.46857e-09 -1.38914e-09 -7.48118e-10)
(1.38015e-09 -2.12612e-09 -1.72647e-09)
(9.17604e-10 -3.5099e-09 -2.72232e-09)
(1.099e-09 -4.8181e-09 -3.92008e-09)
(4.13129e-10 -4.77293e-09 -4.65996e-09)
(-1.86285e-09 -3.34214e-09 -3.11928e-09)
(-8.89908e-09 -7.89237e-09 -7.38553e-09)
(-2.31627e-08 -1.67608e-08 -1.61597e-08)
(-3.24528e-08 -2.12642e-08 -1.62669e-08)
(3.65949e-09 7.74671e-11 1.06828e-09)
(3.8765e-09 -1.40533e-11 9.87608e-10)
(4.21032e-09 -1.56211e-10 7.54323e-10)
(4.40226e-09 -4.42996e-10 2.58027e-10)
(2.98753e-09 -9.20805e-10 -8.11878e-10)
(-3.10614e-10 -2.27558e-09 -2.68129e-09)
(-4.25293e-09 -5.64189e-09 -4.95313e-09)
(-1.0503e-08 -1.00343e-08 -9.02655e-09)
(-1.34722e-08 -1.21022e-08 -9.52456e-09)
(3.29137e-09 -1.00444e-11 9.46958e-10)
(3.61915e-09 -6.47207e-11 8.91555e-10)
(4.12166e-09 -1.62554e-10 7.05421e-10)
(4.4197e-09 -4.29579e-10 3.23789e-10)
(3.82453e-09 -8.63206e-10 -9.04017e-10)
(1.59359e-09 -1.73118e-09 -2.19691e-09)
(-1.2225e-10 -3.61503e-09 -3.13951e-09)
(-1.89985e-09 -5.59232e-09 -5.0771e-09)
(-2.48499e-09 -6.4017e-09 -5.56702e-09)
(3.02898e-09 -5.72079e-11 8.23754e-10)
(3.3588e-09 -9.60592e-11 7.4089e-10)
(3.77058e-09 -1.88847e-10 5.95912e-10)
(4.00067e-09 -4.64013e-10 1.89103e-10)
(3.7878e-09 -1.00418e-09 -7.07941e-10)
(2.77958e-09 -1.6179e-09 -1.60918e-09)
(2.4034e-09 -2.63556e-09 -2.14947e-09)
(2.45473e-09 -3.61381e-09 -3.264e-09)
(1.69441e-09 -4.10509e-09 -4.0434e-09)
(-3.92701e-09 -6.91727e-09 -6.00117e-09)
(-6.69869e-09 -9.13333e-09 -6.15736e-09)
(3.27635e-09 8.71132e-11 8.5243e-10)
(3.53142e-09 4.44029e-11 8.56584e-10)
(4.08526e-09 -2.91752e-11 7.68995e-10)
(4.53826e-09 -2.06167e-10 4.19267e-10)
(4.08697e-09 -5.36308e-10 -4.3091e-10)
(2.94378e-09 -1.36436e-09 -1.50353e-09)
(8.784e-10 -3.47871e-09 -2.86861e-09)
(-9.13479e-10 -5.17489e-09 -4.53784e-09)
(-2.12537e-09 -6.47007e-09 -5.08227e-09)
(2.97377e-09 3.62187e-11 7.33611e-10)
(3.42382e-09 1.92305e-11 7.50868e-10)
(4.07327e-09 -2.91753e-11 6.79907e-10)
(4.49353e-09 -2.02416e-10 3.72602e-10)
(4.46631e-09 -5.39204e-10 -5.02707e-10)
(3.74433e-09 -1.01659e-09 -1.43637e-09)
(2.93893e-09 -2.26261e-09 -2.07995e-09)
(2.56147e-09 -3.53147e-09 -3.15139e-09)
(2.49195e-09 -4.35565e-09 -3.62404e-09)
(2.86686e-09 1.90944e-11 6.70913e-10)
(3.31823e-09 1.50579e-12 6.49369e-10)
(3.81937e-09 -6.06912e-11 5.70476e-10)
(4.33233e-09 -2.10692e-10 2.90869e-10)
(4.58528e-09 -5.39334e-10 -4.26149e-10)
(4.47131e-09 -9.27735e-10 -1.1147e-09)
(4.48876e-09 -1.76405e-09 -1.67136e-09)
(4.49421e-09 -2.7267e-09 -2.49411e-09)
(4.0536e-09 -3.39673e-09 -3.03207e-09)
(2.70132e-09 1.40832e-10 5.79195e-10)
(3.39823e-09 1.20058e-10 6.55785e-10)
(4.25745e-09 7.58188e-11 6.37256e-10)
(4.86022e-09 -2.06432e-11 3.17439e-10)
(5.0604e-09 -2.10856e-10 -2.91561e-10)
(5.03606e-09 -8.37202e-10 -9.08122e-10)
(4.33244e-09 -2.04822e-09 -1.53178e-09)
(3.84251e-09 -2.93133e-09 -1.78362e-09)
(2.69198e-09 1.11782e-10 4.86837e-10)
(3.27582e-09 1.02231e-10 5.53867e-10)
(4.06077e-09 9.57512e-11 5.24484e-10)
(4.77435e-09 5.48579e-11 2.99199e-10)
(5.19496e-09 -9.83868e-11 -2.38961e-10)
(5.20961e-09 -5.00947e-10 -7.68334e-10)
(5.03445e-09 -1.29508e-09 -1.33368e-09)
(2.8558e-09 9.0465e-11 4.2041e-10)
(3.34148e-09 1.00924e-10 4.68471e-10)
(4.03648e-09 1.34499e-10 4.40693e-10)
(4.73888e-09 7.08628e-11 2.75155e-10)
(5.26801e-09 -1.02283e-10 -1.21194e-10)
(5.47357e-09 -4.16286e-10 -5.42019e-10)
)
;

boundaryField
{
    inlet
    {
        type            calculated;
        value           nonuniform List<vector> 
12
(
(4.83803e-10 6.7918e-10 1.51808e-09)
(2.67532e-09 -2.43556e-10 1.57787e-09)
(-2.2443e-09 -4.90945e-10 8.26419e-10)
(1.27707e-09 6.24182e-10 1.36456e-09)
(1.89232e-09 4.70332e-10 1.65992e-09)
(7.28064e-10 1.20262e-10 7.74057e-10)
(1.20678e-09 4.29626e-10 1.51672e-09)
(6.73993e-10 1.35211e-10 1.02083e-09)
(3.53352e-10 1.33833e-10 7.81685e-10)
(1.2917e-09 3.65167e-10 1.17709e-09)
(7.02429e-10 1.66423e-10 8.08313e-10)
(4.83171e-10 6.46881e-11 5.392e-10)
)
;
    }
    outlet
    {
        type            calculated;
        value           nonuniform 0();
    }
    wall
    {
        type            calculated;
        value           nonuniform List<vector> 
66
(
(3.88742e-09 4.64832e-10 1.09352e-09)
(3.2333e-09 -3.69594e-10 1.34795e-09)
(-3.3415e-11 -4.58749e-10 6.65545e-10)
(5.03354e-09 6.44398e-11 2.00792e-09)
(3.48194e-09 -2.2111e-10 1.66802e-09)
(2.2844e-09 -1.31393e-10 1.00171e-09)
(8.05942e-09 7.25764e-11 2.32394e-09)
(5.04992e-09 1.3307e-10 2.33935e-09)
(7.9082e-09 4.92506e-10 1.90262e-09)
(1.12995e-08 1.50487e-09 2.98478e-09)
(1.02217e-08 -2.54302e-09 3.273e-09)
(1.50854e-08 -1.52673e-09 4.98764e-09)
(3.48987e-09 5.68527e-10 1.22456e-09)
(1.62144e-08 3.16996e-09 3.58582e-09)
(1.41997e-08 5.11361e-09 2.7245e-09)
(1.73936e-08 -1.30546e-09 -9.84448e-10)
(7.82644e-10 -5.41265e-09 -3.23707e-11)
(-3.9586e-10 1.04836e-08 8.42361e-10)
(-2.53301e-09 6.30782e-09 -9.8103e-10)
(-1.41763e-08 -8.87688e-10 -9.27198e-11)
(-7.22147e-09 7.16419e-10 1.74054e-09)
(1.47299e-09 1.66597e-08 -2.06053e-09)
(-7.93942e-09 -6.53338e-09 -4.29686e-09)
(-1.80916e-09 -1.00447e-08 4.14489e-09)
(1.0199e-08 -7.67913e-11 2.29408e-09)
(-1.0678e-06 -4.05408e-07 -4.97957e-07)
(-2.22812e-09 1.8291e-09 -3.0271e-09)
(1.57543e-08 5.51421e-10 -9.11203e-10)
(2.80901e-08 -2.94394e-09 2.90043e-09)
(-2.41124e-06 -7.59533e-07 -7.67708e-07)
(1.94261e-09 -7.86316e-09 -1.12428e-08)
(1.48735e-08 2.5209e-09 -3.97385e-09)
(1.80724e-08 3.6869e-09 5.9058e-10)
(-1.55321e-11 -4.51807e-10 6.87048e-10)
(5.85251e-10 8.94105e-11 6.92716e-10)
(2.18247e-10 1.14175e-10 7.25211e-10)
(3.30038e-10 4.08108e-11 4.6884e-10)
(2.04252e-09 -1.32227e-10 1.04729e-09)
(1.42606e-09 8.02169e-11 1.04786e-09)
(6.65222e-10 1.43198e-10 9.95529e-10)
(1.20736e-09 1.00329e-10 9.06429e-10)
(4.48066e-09 3.06135e-10 1.83606e-09)
(2.44522e-09 8.93713e-11 1.195e-09)
(1.48139e-09 1.56551e-10 1.07116e-09)
(1.33691e-09 4.14447e-10 1.09964e-09)
(3.99421e-09 6.22936e-10 1.18069e-09)
(2.95748e-09 2.0296e-10 1.36908e-09)
(3.11726e-09 3.94162e-10 2.04957e-09)
(3.20525e-09 2.90392e-10 1.28129e-09)
(9.25938e-09 -3.22056e-09 7.96691e-10)
(6.68962e-09 -6.75615e-10 2.02948e-10)
(7.63162e-09 -3.18986e-11 3.21299e-10)
(4.8163e-09 3.53713e-10 8.93037e-10)
(-6.38255e-10 2.86762e-12 1.56092e-09)
(5.26959e-09 2.54553e-11 4.45674e-10)
(8.05877e-09 9.63003e-10 3.04589e-10)
(5.31899e-09 1.17893e-09 8.01988e-10)
(4.75799e-09 2.40014e-09 2.4937e-09)
(6.16829e-09 1.86543e-10 2.87518e-09)
(1.17251e-08 1.02317e-10 4.4535e-10)
(3.82588e-08 -1.54087e-09 3.85423e-09)
(1.46951e-08 -7.27574e-10 1.79156e-09)
(1.66555e-08 -1.08949e-09 -9.94271e-10)
(1.40917e-08 3.50391e-09 1.25922e-09)
(3.15515e-09 -5.79944e-10 -7.98297e-10)
(1.04383e-08 -2.81872e-09 -4.53991e-09)
)
;
    }
    procBoundary2to0
    {
        type            processor;
        value           nonuniform List<vector> 
44
(
(4.17746e-09 -3.19375e-10 4.02117e-10)
(2.06453e-09 -8.72679e-10 -3.53819e-10)
(-4.08084e-09 -2.99312e-09 -3.16412e-09)
(-1.31618e-08 -8.58073e-09 -8.42673e-09)
(-2.92871e-08 -1.93445e-08 -1.79298e-08)
(-4.38754e-08 -2.42261e-08 -1.87776e-08)
(4.10826e-09 1.51077e-10 1.0856e-09)
(4.48946e-09 2.48625e-11 1.02448e-09)
(4.9142e-09 -1.64384e-10 6.42939e-10)
(4.9142e-09 -1.64384e-10 6.42939e-10)
(4.36852e-09 -2.65259e-10 3.88875e-10)
(2.69246e-09 -1.24834e-09 -6.7253e-10)
(-1.35808e-09 -2.11819e-09 -2.05749e-09)
(-6.25474e-09 -5.39098e-09 -4.83126e-09)
(-1.25312e-08 -1.04493e-08 -8.86924e-09)
(-1.84855e-08 -1.34392e-08 -8.89946e-09)
(3.76385e-09 1.62281e-10 1.07722e-09)
(4.07406e-09 5.63148e-11 9.99516e-10)
(4.2283e-09 -1.06379e-10 8.25623e-10)
(4.36852e-09 -2.65259e-10 3.88875e-10)
(2.69246e-09 -1.24834e-09 -6.7253e-10)
(2.69246e-09 -1.24834e-09 -6.7253e-10)
(2.2992e-09 -1.74972e-09 -1.30317e-09)
(-7.06749e-11 -3.64723e-09 -3.23781e-09)
(-2.45485e-09 -5.48557e-09 -4.02458e-09)
(-5.83185e-09 -7.84404e-09 -4.77275e-09)
(3.28126e-09 1.43585e-10 9.31733e-10)
(3.66571e-09 7.81556e-11 9.0263e-10)
(4.11095e-09 -1.88389e-11 8.87039e-10)
(4.37205e-09 -1.02651e-10 5.94687e-10)
(3.59982e-09 -6.13076e-10 -3.13318e-10)
(2.2992e-09 -1.74972e-09 -1.30317e-09)
(-7.06749e-11 -3.64723e-09 -3.23781e-09)
(-7.06749e-11 -3.64723e-09 -3.23781e-09)
(3.33064e-09 -2.98338e-09 -1.89463e-09)
(6.33963e-10 -4.54963e-09 -3.09747e-09)
(2.62791e-09 1.69892e-10 6.85875e-10)
(3.39424e-09 1.19335e-10 7.03158e-10)
(4.26695e-09 5.38523e-11 6.87228e-10)
(4.81173e-09 -1.86519e-11 5.44421e-10)
(4.93333e-09 -1.9338e-10 3.41066e-11)
(4.94228e-09 -6.88027e-10 -3.94983e-10)
(4.45208e-09 -1.69137e-09 -1.08884e-09)
(3.33064e-09 -2.98338e-09 -1.89463e-09)
)
;
    }
    procBoundary2to3
    {
        type            processor;
        value           nonuniform List<vector> 
12
(
(-4.35389e-08 -2.2192e-08 -1.52888e-08)
(-1.89257e-08 -1.28533e-08 -9.76593e-09)
(-4.45421e-09 -6.79415e-09 -5.67197e-09)
(1.51472e-09 -3.78571e-09 -4.06619e-09)
(-1.79816e-08 -1.32303e-08 -7.77176e-09)
(-7.88804e-09 -9.3069e-09 -6.01842e-09)
(1.98008e-11 -5.50364e-09 -4.52617e-09)
(3.26719e-09 -3.48911e-09 -3.881e-09)
(-7.94174e-09 -8.28897e-09 -4.60057e-09)
(-2.00263e-09 -5.57631e-09 -4.30898e-09)
(2.60276e-09 -4.50418e-09 -3.33146e-09)
(4.90574e-09 -3.06509e-09 -3.32024e-09)
)
;
    }
    procBoundary2to6
    {
        type            processor;
        value           nonuniform List<vector> 
32
(
(4.5648e-09 -3.27026e-09 -2.41193e-09)
(5.89647e-09 -1.80361e-09 -1.63718e-09)
(5.72306e-09 -2.7332e-09 -2.27537e-09)
(5.91749e-09 -7.09949e-10 -1.04718e-09)
(5.73252e-09 -1.63268e-09 -1.7275e-09)
(4.9962e-09 -2.299e-09 -2.31028e-09)
(2.36249e-09 1.65997e-10 3.77982e-10)
(3.14136e-09 1.29733e-10 3.86483e-10)
(4.14015e-09 8.39786e-11 3.72429e-10)
(4.97363e-09 6.09013e-11 2.70705e-10)
(5.59774e-09 9.39631e-11 -2.86265e-11)
(6.37534e-09 -8.19106e-11 -3.55116e-10)
(6.47229e-09 -5.86317e-10 -5.53645e-10)
(4.5648e-09 -3.27026e-09 -2.41193e-09)
(5.89647e-09 -1.80361e-09 -1.63718e-09)
(6.25661e-09 -9.53978e-10 -7.9934e-10)
(2.54125e-09 1.49069e-10 3.12703e-10)
(3.09279e-09 1.36158e-10 3.27383e-10)
(3.92429e-09 1.37068e-10 2.55932e-10)
(4.80224e-09 1.59269e-10 1.30592e-10)
(5.3991e-09 1.13573e-10 -9.2858e-11)
(6.0061e-09 -7.719e-11 -4.84983e-10)
(5.89647e-09 -1.80361e-09 -1.63718e-09)
(5.91749e-09 -7.09949e-10 -1.04718e-09)
(6.24541e-09 -5.81454e-10 -7.18093e-10)
(2.64883e-09 1.3536e-10 2.48017e-10)
(3.13016e-09 1.30811e-10 2.78202e-10)
(3.89524e-09 1.77041e-10 2.06393e-10)
(4.76129e-09 1.68575e-10 1.23157e-10)
(5.2873e-09 1.27311e-10 -1.19493e-10)
(5.91749e-09 -7.09949e-10 -1.04718e-09)
(5.69012e-09 -4.54296e-11 -4.32423e-10)
)
;
    }
}


// ************************************************************************* //
