/*--------------------------------*- C++ -*----------------------------------*\
| =========                 |                                                 |
| \\      /  F ield         | OpenFOAM: The Open Source CFD Toolbox           |
|  \\    /   O peration     | Version:  4.x                                   |
|   \\  /    A nd           | Web:      www.OpenFOAM.org                      |
|    \\/     M anipulation  |                                                 |
\*---------------------------------------------------------------------------*/
FoamFile
{
    version     2.0;
    format      ascii;
    class       volVectorField;
    location    "31.5";
    object      GField;
}
// * * * * * * * * * * * * * * * * * * * * * * * * * * * * * * * * * * * * * //

dimensions      [1 -2 -1 0 0 0 0];

internalField   nonuniform List<vector> 
114
(
(54.8806 -0.442811 -2.66749)
(111.121 -0.602929 -4.97383)
(63.1504 -0.459798 -2.35592)
(116.02 -0.569634 -3.69849)
(68.0653 0.110183 -1.31734)
(120.383 -0.000480403 -2.48925)
(98.9264 0.493544 -4.45343)
(42.2566 0.30991 -2.61066)
(103.614 0.964703 -5.17225)
(50.5013 0.655473 -2.44184)
(107.477 0.667617 -4.27591)
(55.9353 0.174884 -2.08744)
(111.057 0.103803 -3.42071)
(58.9373 -0.154583 -1.25364)
(114.762 0.0420173 -2.21868)
(99.8058 3.09698 -4.53146)
(44.5633 1.48543 -2.52807)
(105.913 3.10378 -4.80941)
(55.6471 1.7431 -2.2041)
(111.671 2.92545 -3.80014)
(63.3633 1.33476 -1.66587)
(116.421 2.23384 -2.86638)
(68.2225 0.650633 -1.03477)
(120.749 1.59214 -2.14322)
(100.106 1.99701 -3.84662)
(49.215 1.09667 -2.34472)
(109.319 2.10387 -4.04209)
(64.5863 1.15602 -2.20471)
(118.98 2.00782 -3.31882)
(77.3083 0.840779 -1.81857)
(127.846 1.56374 -2.53628)
(86.5789 0.176277 -1.23928)
(134.433 0.983833 -1.96228)
(27.43 -0.0830755 -2.26236)
(95.3065 0.20438 -4.40438)
(23.1686 0.167835 -1.79293)
(96.6571 0.939553 -2.1652)
(97.1551 1.20156 -7.63096)
(34.7093 0.288784 -3.6051)
(96.3829 1.25498 -7.93615)
(30.5865 0.71139 -2.83705)
(95.3751 1.56739 -5.91611)
(25.9851 0.354725 -2.11587)
(94.9561 0.660822 -3.94633)
(21.1991 -0.0200841 -1.41951)
(96.6181 0.355803 -2.54039)
(97.5471 3.63978 -7.83288)
(36.6764 1.73144 -4.04616)
(97.6855 4.03409 -8.41417)
(35.5688 1.6194 -3.33791)
(98.2709 3.69326 -6.55599)
(33.9492 1.17776 -2.60413)
(99.1625 2.95548 -5.07718)
(30.7692 0.433761 -2.05208)
(100.782 1.80191 -3.42207)
(98.1315 2.62328 -7.01113)
(43.8265 1.36361 -4.05575)
(102.783 2.83317 -7.2381)
(51.6897 1.20514 -3.95408)
(107.685 2.52051 -5.90965)
(58.0576 0.787815 -3.84284)
(112.201 1.99309 -4.68805)
(62.2149 0.140445 -3.01497)
(116.469 1.33945 -3.63739)
(3.89264 -0.123866 -0.813539)
(88.192 -0.69102 -0.928204)
(95.3854 1.96239 -6.82996)
(32.4998 0.661655 -3.42426)
(93.0964 1.81167 -6.34914)
(24.7087 0.528774 -2.29201)
(91.4849 1.25178 -4.35742)
(17.7707 0.141301 -1.66264)
(90.7464 -0.37732 -2.71385)
(11.7205 0.0784512 -1.57029)
(91.3452 -0.979103 -1.52806)
(96.364 3.70152 -6.39027)
(33.5706 1.47602 -3.25319)
(94.2233 3.95223 -5.9347)
(26.961 1.26967 -2.42144)
(92.7254 3.29221 -4.15954)
(20.7198 0.684936 -1.74196)
(92.0028 2.16283 -2.39485)
(13.2621 0.326206 -1.17864)
(92.2509 1.24999 -0.827666)
(97.0956 2.85415 -5.96649)
(40.568 1.60728 -3.54451)
(99.2993 3.62755 -5.9402)
(44.655 1.57124 -3.5504)
(102.181 3.24714 -4.71902)
(48.3515 0.978795 -3.23211)
(103.778 2.67904 -3.32684)
(49.8505 0.855977 -3.38461)
(106.63 1.73459 -2.6525)
(94.3261 1.99338 -5.69642)
(29.6334 1.19338 -2.39106)
(90.0439 2.68606 -4.79016)
(19.9026 1.03493 -1.7415)
(87.9216 2.10228 -3.27588)
(12.6033 0.964786 -1.05699)
(86.6356 1.31864 -1.81028)
(6.86885 0.791949 -0.865233)
(94.4781 4.5208 -4.75031)
(33.4369 2.11802 -2.30016)
(92.155 4.65273 -4.12483)
(27.7241 1.55686 -1.97851)
(91.0818 3.91548 -3.19658)
(23.03 1.32538 -1.45548)
(90.9399 3.11725 -1.91086)
(96.1434 3.06046 -4.41919)
(40.9029 1.58262 -2.74566)
(97.883 3.12956 -4.53261)
(43.7814 1.36343 -3.21701)
(99.7896 2.60995 -4.21787)
(46.2576 1.17298 -2.59154)
)
;

boundaryField
{
    inlet
    {
        type            calculated;
        value           uniform (67 0 0);
    }
    outlet
    {
        type            calculated;
        value           nonuniform 0();
    }
    wall
    {
        type            calculated;
        value           uniform (0 0 0);
    }
    procBoundary2to0
    {
        type            processor;
        value           nonuniform List<vector> 
44
(
(54.7364 -1.42219 -2.84546)
(111.46 -1.84456 -4.9692)
(62.35 -0.689859 -2.61918)
(116.262 -1.46078 -4.36652)
(66.9234 -0.480576 -1.71372)
(118.512 -1.19038 -3.32406)
(100.739 -1.40394 -5.38611)
(44.6721 -0.410166 -2.61671)
(106.417 -0.84071 -5.2717)
(106.417 -0.84071 -5.2717)
(32.5966 -0.139121 -3.36709)
(95.7927 -0.0476985 -7.11693)
(27.6071 -0.284307 -1.73749)
(96.0613 -1.21681 -3.77687)
(21.2592 0.192213 -0.722019)
(96.6628 -0.836152 -1.70324)
(96.5812 -0.726267 -9.20371)
(35.1265 -0.365481 -4.34622)
(96.9933 -0.691017 -9.42574)
(32.5966 -0.139121 -3.36709)
(95.7927 -0.0476985 -7.11693)
(95.7927 -0.0476985 -7.11693)
(8.32319 -0.243618 -1.23102)
(88.4213 -0.511455 -2.65511)
(7.59772 -0.326145 -1.32438)
(91.0299 -0.619965 -0.188333)
(94.9411 -0.455314 -7.06814)
(28.8611 -0.176058 -3.74619)
(91.4912 -0.236841 -7.23434)
(17.3341 -0.158844 -2.06711)
(89.1012 -0.161419 -4.42309)
(8.32319 -0.243618 -1.23102)
(88.4213 -0.511455 -2.65511)
(88.4213 -0.511455 -2.65511)
(2.4131 0.117775 -0.343893)
(84.2133 -0.201778 -0.688106)
(94.3437 -0.707175 -4.33268)
(29.4386 -0.00634285 -2.509)
(89.0038 0.127614 -4.01405)
(16.8226 0.299623 -1.53227)
(86.1436 0.658859 -2.89133)
(7.89313 0.239998 -0.89811)
(84.4668 0.311599 -2.10658)
(2.4131 0.117775 -0.343893)
)
;
    }
    procBoundary2to3
    {
        type            processor;
        value           nonuniform List<vector> 
12
(
(69.5441 -0.0918309 -0.694627)
(60.1752 0.0776597 -0.790543)
(70.8677 1.09719 -0.651412)
(92.6765 -0.296464 -1.31221)
(18.666 0.358176 -1.9628)
(17.8691 0.0404061 -1.3253)
(26.7075 0.377174 -1.78964)
(64.1183 -0.632005 -2.82885)
(1.08445 -0.0297261 -0.348929)
(5.74339 0.240132 -1.07039)
(6.53525 0.309436 -0.723683)
(49.9054 0.686464 -3.87305)
)
;
    }
    procBoundary2to6
    {
        type            processor;
        value           nonuniform List<vector> 
32
(
(85.4481 0.917277 -0.140464)
(19.5411 1.33603 -1.45768)
(91.8949 1.94179 -1.05002)
(101.951 1.94549 -2.81448)
(48.0885 0.606486 -3.13542)
(103.995 0.873642 -2.53974)
(92.1111 1.45884 -1.9321)
(27.6026 0.970305 -0.655697)
(87.8706 1.73969 -1.53823)
(14.7354 0.58129 -0.507704)
(84.9089 1.07181 -1.1433)
(5.21929 0.291227 -0.206979)
(83.876 0.0373167 -1.02177)
(85.4481 0.917277 -0.140464)
(19.5411 1.33603 -1.45768)
(1.11433e-05 -4.70422e-06 8.87753e-06)
(94.2287 4.96733 -1.4001)
(30.9635 1.72623 -0.763186)
(91.0139 4.57363 -1.17165)
(21.9584 1.24584 -0.790656)
(88.7636 2.99755 -0.870331)
(14.0621 0.810235 -0.584667)
(19.5411 1.33603 -1.45768)
(101.951 1.94549 -2.81448)
(87.6277 1.92213 -0.830417)
(96.113 3.29095 -1.71165)
(40.1918 1.6339 -1.14554)
(96.8935 3.53289 -1.78097)
(41.6922 1.28721 -1.73836)
(96.7822 2.60866 -1.76844)
(101.951 1.94549 -2.81448)
(40.7905 0.978477 -1.73317)
)
;
    }
}


// ************************************************************************* //
