/*--------------------------------*- C++ -*----------------------------------*\
| =========                 |                                                 |
| \\      /  F ield         | OpenFOAM: The Open Source CFD Toolbox           |
|  \\    /   O peration     | Version:  4.x                                   |
|   \\  /    A nd           | Web:      www.OpenFOAM.org                      |
|    \\/     M anipulation  |                                                 |
\*---------------------------------------------------------------------------*/
FoamFile
{
    version     2.0;
    format      ascii;
    class       volScalarField;
    location    "31.5";
    object      Ksl;
}
// * * * * * * * * * * * * * * * * * * * * * * * * * * * * * * * * * * * * * //

dimensions      [1 -3 -1 0 0 0 0];

internalField   nonuniform List<scalar> 
114
(
6316.56
3165.16
5591.62
3065.64
5195.17
2932.94
3405.15
8005.1
3329.42
6873.95
3269.52
6280.96
3186.48
5962.33
3071.64
3351.44
7541.82
3231.11
6191.03
3145.04
5533.59
3044.52
5175.33
2933.33
3297.7
6742.01
3093.5
5260.8
2906.61
4483.6
2730.82
4033.79
2617.19
12726.7
3702.83
15011.8
3611.06
3450.42
9759.18
3593.72
11314
3680.74
13380.6
3701.91
16381.6
3614.14
3416.32
9158.57
3531.18
9679.8
3552.26
10250.4
3548.12
11324.2
3480.68
3341.72
7557.13
3300.82
6547.08
3173.58
5911.77
3083.03
5538.8
2969.11
84745.6
3822.27
3496.86
10353.4
3683.1
13782.9
3761.31
19083.2
3767.93
28612.7
3710.77
3438.25
9948.57
3629.81
12581.6
3706.65
16385.8
3737.96
25540.6
3702.45
3368.51
8089.78
3380.46
7489.99
3296.51
6954.59
3273.1
6764.55
3172.86
3519.94
11275.1
3767.97
16827.9
3843.15
26301.4
3863.3
47192.3
3472.18
9902.65
3669.09
12074.7
3715.74
14458
3692.55
3365.94
7954.42
3400.74
7538.09
3351.58
7140.53
)
;

boundaryField
{
    inlet
    {
        type            zeroGradient;
    }
    outlet
    {
        type            zeroGradient;
    }
    wall
    {
        type            zeroGradient;
    }
    procBoundary2to0
    {
        type            processor;
        value           nonuniform List<scalar> 
44
(
6350.59
3182.69
5672.85
3064.54
5304.09
3015.11
3367.69
7601.08
3238.01
3238.01
10619.2
3670.65
12710.4
3693.34
16478.4
3644.22
3487.11
9648.05
3572.66
10619.2
3670.65
3670.65
40571.8
3880.6
43981.2
3738.84
3524.67
11644.5
3756.19
19585.6
3868.47
40571.8
3880.6
3880.6
134958
3912.37
3526.45
11380.7
3823.06
19936.5
3927.49
41885
3962.83
134958
)
;
    }
    procBoundary2to3
    {
        type            processor;
        value           nonuniform List<scalar> 
12
(
5089.5
5872.18
4981.45
3744.35
18472.7
19414
13074.9
5364.7
292951
57317.4
51584.9
6701.22
)
;
    }
    procBoundary2to6
    {
        type            processor;
        value           nonuniform List<scalar> 
32
(
3871.49
16906.1
3634.11
3260.04
6857.1
3185.33
3570.43
12041.3
3822.04
22486.7
3919.4
62835.3
3931.51
3871.49
16906.1
1e+10
3484.98
10653.4
3675.58
15070.1
3762.13
23380.9
16906.1
3260.04
3783.5
3371
8067.6
3383.59
7823.09
3402.64
3260.04
8000.4
)
;
    }
}


// ************************************************************************* //
