/*--------------------------------*- C++ -*----------------------------------*\
| =========                 |                                                 |
| \\      /  F ield         | OpenFOAM: The Open Source CFD Toolbox           |
|  \\    /   O peration     | Version:  4.x                                   |
|   \\  /    A nd           | Web:      www.OpenFOAM.org                      |
|    \\/     M anipulation  |                                                 |
\*---------------------------------------------------------------------------*/
FoamFile
{
    version     2.0;
    format      ascii;
    class       volScalarField;
    location    "31.5";
    object      QWallFluidCoeff;
}
// * * * * * * * * * * * * * * * * * * * * * * * * * * * * * * * * * * * * * //

dimensions      [1 -1 -3 -1 0 0 0];

internalField   nonuniform List<scalar> 
114
(
-1.76057e+06
-3.09519e+06
-1.96902e+06
-3.20261e+06
-2.08979e+06
-3.29779e+06
-2.82035e+06
-1.42917e+06
-2.92738e+06
-1.6473e+06
-3.01322e+06
-1.78686e+06
-3.09241e+06
-1.86247e+06
-3.17396e+06
-2.84149e+06
-1.49152e+06
-2.97963e+06
-1.7803e+06
-3.1072e+06
-1.97408e+06
-3.21138e+06
-2.09361e+06
-3.3059e+06
-5.69406e+06
-3.22764e+06
-6.10921e+06
-4.00957e+06
-6.53569e+06
-4.62834e+06
-6.92106e+06
-5.06633e+06
-7.20407e+06
0
0
0
0
0
0
0
0
0
0
0
0
0
0
0
0
0
0
0
0
0
0
-2.80642e+06
-1.47481e+06
-2.91223e+06
-1.68085e+06
-3.02022e+06
-1.84321e+06
-3.11926e+06
-1.94635e+06
-3.21262e+06
0
0
0
0
0
0
0
0
0
0
0
0
0
0
0
0
0
0
0
0
-2.78139e+06
-1.38623e+06
-2.83208e+06
-1.4959e+06
-2.89561e+06
-1.59247e+06
-2.93005e+06
-1.63186e+06
-2.99334e+06
0
0
0
0
0
0
0
0
0
0
0
0
0
0
0
-2.75788e+06
-1.39361e+06
-2.79777e+06
-1.47174e+06
-2.8405e+06
-1.53638e+06
)
;

boundaryField
{
    inlet
    {
        type            calculated;
        value           uniform 0;
    }
    outlet
    {
        type            calculated;
        value           nonuniform 0();
    }
    wall
    {
        type            calculated;
        value           uniform 0;
    }
    procBoundary2to0
    {
        type            processor;
        value           uniform 0;
    }
    procBoundary2to3
    {
        type            processor;
        value           uniform 0;
    }
    procBoundary2to6
    {
        type            processor;
        value           uniform 0;
    }
}


// ************************************************************************* //
