/*--------------------------------*- C++ -*----------------------------------*\
| =========                 |                                                 |
| \\      /  F ield         | OpenFOAM: The Open Source CFD Toolbox           |
|  \\    /   O peration     | Version:  4.x                                   |
|   \\  /    A nd           | Web:      www.OpenFOAM.org                      |
|    \\/     M anipulation  |                                                 |
\*---------------------------------------------------------------------------*/
FoamFile
{
    version     2.0;
    format      ascii;
    class       volScalarField;
    location    "5";
    object      Cs;
}
// * * * * * * * * * * * * * * * * * * * * * * * * * * * * * * * * * * * * * //

dimensions      [1 -3 0 0 0 0 0];

internalField   nonuniform List<scalar> 
87
(
334.495
334.598
334.693
334.796
334.877
334.923
334.956
334.963
335.475
334.803
334.944
335.067
335.159
335.188
335.173
335.129
335.074
335.054
334.966
335.091
335.168
335.214
335.214
335.181
335.131
335.083
335.052
334.667
334.741
334.824
334.904
334.978
335.02
335.048
335.044
337.505
335.026
335.108
335.179
335.228
335.244
335.227
335.196
335.157
335.238
335.089
335.169
335.228
335.253
335.25
335.23
335.197
335.161
335.273
334.772
334.81
334.859
334.917
334.983
335.027
335.066
335.08
338.758
335.066
335.134
335.186
335.215
335.242
335.238
335.224
335.196
335.569
335.102
335.159
335.212
335.239
335.235
335.22
335.198
335.174
335.301
334.839
334.857
334.887
335.069
335.115
335.088
)
;

boundaryField
{
    inlet
    {
        type            calculated;
        value           nonuniform 0();
    }
    outlet
    {
        type            calculated;
        value           uniform 335;
    }
    wall
    {
        type            calculated;
        value           nonuniform List<scalar> 
57
(
334.495
334.803
334.966
334.598
334.944
335.091
334.693
335.067
335.168
334.796
335.159
335.214
334.877
335.188
335.214
334.923
335.173
335.181
334.956
335.129
335.131
334.963
335.074
335.083
335.475
335.054
335.052
334.495
334.667
334.772
334.839
334.598
334.741
334.81
334.857
334.693
334.824
334.859
334.887
334.796
334.904
334.917
334.877
334.978
334.983
334.923
335.02
335.027
334.956
335.048
335.066
334.963
335.044
335.08
335.475
337.505
338.758
)
;
    }
    procBoundary1to0
    {
        type            processor;
        value           nonuniform List<scalar> 
12
(
334.423
334.647
334.819
334.602
334.913
334.993
334.726
334.972
335.024
334.82
335.005
335.034
)
;
    }
    procBoundary1to3
    {
        type            processor;
        value           nonuniform List<scalar> 
27
(
334.991
335.103
335.18
335.214
335.209
335.197
335.162
335.132
335.296
335.067
335.145
335.21
335.243
335.245
335.237
335.204
335.165
335.362
335.022
335.072
335.115
335.189
335.221
335.227
335.191
335.144
335.084
)
;
    }
    procBoundary1to5
    {
        type            processor;
        value           nonuniform List<scalar> 
32
(
334.92
334.966
335.001
335.051
335.07
336.649
335.164
335.189
335.215
335.211
335.201
335.183
335.188
335.137
335.184
335.216
335.228
335.213
335.171
335.134
335.049
334.926
334.934
334.92
335.164
334.959
335.128
335.164
335.137
335.17
335.137
335.086
)
;
    }
    procBoundary1to7
    {
        type            processor;
        value           uniform 335.033;
    }
}


// ************************************************************************* //
