/*--------------------------------*- C++ -*----------------------------------*\
| =========                 |                                                 |
| \\      /  F ield         | OpenFOAM: The Open Source CFD Toolbox           |
|  \\    /   O peration     | Version:  4.x                                   |
|   \\  /    A nd           | Web:      www.OpenFOAM.org                      |
|    \\/     M anipulation  |                                                 |
\*---------------------------------------------------------------------------*/
FoamFile
{
    version     2.0;
    format      ascii;
    class       volScalarField;
    location    "5";
    object      KslNext;
}
// * * * * * * * * * * * * * * * * * * * * * * * * * * * * * * * * * * * * * //

dimensions      [1 -3 -1 0 0 0 0];

internalField   nonuniform List<scalar> 
87
(
4886.36
2715.21
5258.93
2634.29
5035.51
2284.09
4624.94
1949.1
4957.38
12893.6
3138.71
20357.5
3180.39
16215.5
3133.52
22284
3527.71
5992.44
38250.1
3257.57
105332
3265.55
27466.4
3178.24
383570
3402.9
19567.8
5428.1
2776.81
6115.27
2753.25
6957.92
2515.31
7393.9
2289.33
4223.62
36574.4
3264.33
45696.6
3293.54
46194.1
3251.13
97523.3
3398.72
13717.8
37638.7
3386.36
51469.8
3415.33
29034.8
3309.25
51335.5
3199.47
19094.1
5122.09
2791.97
5568.56
2830.72
6800.24
2533.9
7579.88
2199.19
3529.64
32870.4
3448.56
134495
3462.33
40932.6
3334.4
94245.9
3058.57
8966.94
41686.6
3520.3
29874.7
3579.23
23101.4
3267.39
22943.9
2683.35
7209.92
4382.43
2618.7
4510.97
29731.5
3681.06
45375.6
)
;

boundaryField
{
    inlet
    {
        type            zeroGradient;
    }
    outlet
    {
        type            zeroGradient;
    }
    wall
    {
        type            zeroGradient;
    }
    procBoundary1to0
    {
        type            processor;
        value           uniform 0;
    }
    procBoundary1to3
    {
        type            processor;
        value           uniform 0;
    }
    procBoundary1to5
    {
        type            processor;
        value           uniform 0;
    }
    procBoundary1to7
    {
        type            processor;
        value           uniform 0;
    }
}


// ************************************************************************* //
