/*--------------------------------*- C++ -*----------------------------------*\
  =========                 |
  \\      /  F ield         | OpenFOAM: The Open Source CFD Toolbox
   \\    /   O peration     | Website:  https://openfoam.org
    \\  /    A nd           | Version:  4.x
     \\/     M anipulation  |
\*---------------------------------------------------------------------------*/
FoamFile
{
    version     2.0;
    format      ascii;
    class       Cloud<passiveParticle>;
    location    0;
    object      positions;
}
// * * * * * * * * * * * * * * * * * * * * * * * * * * * * * * * * * * * * * //

258
(
( 0.023876 0.0373683 0.0153893 ) 6
( 0.248451 0.0516106 -0.00686214 ) 2
( 0.0274395 0.0279956 0.0324879 ) 6
( 0.0326316 0.0721846 0.0175557 ) 25
( 0.2422 0.0712146 0.00032622 ) 2
( 0.196907 0.0712914 0.00281416 ) 1
( 0.225572 0.0399182 -0.0104032 ) 0
( 0.105984 0.0456253 0.0369985 ) 18
( 0.167622 0.0195681 0.0187475 ) 12
( 0.131374 0.0344984 0.015193 ) 10
( 0.0683156 0.0675099 0.0308739 ) 17
( 0.219126 0.0674945 0.00876352 ) 1
( 0.0543329 0.034736 0.026634 ) 7
( 0.139726 0.040024 0.0351756 ) 11
( 0.087615 0.0459122 0.0297732 ) 18
( 0.111076 0.0900107 0.0147601 ) 27
( 0.0346965 0.0152678 0.0196106 ) 7
( 0.0645756 0.0900784 0.0200266 ) 26
( 0.179057 0.0835148 0.0156112 ) 30
( 0.163853 0.0745241 0.0244693 ) 29
( 0.0484672 0.0728075 0.0304831 ) 25
( 0.240379 0.0901602 0.0189184 ) 32
( 0.229801 0.0220747 -0.00343456 ) 0
( 0.108692 0.0619874 0.0224944 ) 18
( 0.0963538 0.0291532 0.0242409 ) 9
( 0.189734 0.0509975 0.0147587 ) 21
( 0.132558 0.0148884 0.0178128 ) 10
( 0.214645 0.0717286 -0.00991279 ) 4
( 0.139659 0.0520658 0.0197307 ) 20
( 0.015383 0.0178829 0.0171818 ) 6
( 0.117385 0.0783753 0.0295099 ) 28
( 0.131645 0.0203061 0.0365586 ) 10
( 0.203404 0.0368817 0.0171592 ) 13
( 0.213708 0.0534067 0.0213286 ) 22
( 0.0097605 0.0744959 0.0216381 ) 24
( 0.206066 0.0518405 0.00319587 ) 1
( 0.0985648 0.0899607 0.0300018 ) 27
( 0.110433 0.0153318 0.0251168 ) 9
( 0.200858 0.0269681 0.0339848 ) 13
( 0.239249 0.0358949 0.0164187 ) 14
( 0.145895 0.0730748 0.0167069 ) 29
( 0.0914342 0.0633189 0.0383115 ) 18
( 0.191032 0.090224 0.00133922 ) 3
( 0.159506 0.055722 0.020896 ) 20
( 0.0195908 0.0901917 0.0281094 ) 24
( 0.216023 0.0868392 0.0210741 ) 31
( 0.231526 0.0529348 0.00298458 ) 2
( 0.224152 0.0278359 0.026171 ) 14
( 0.130334 0.0900923 0.0197342 ) 28
( 0.173209 0.0901637 -0.00755234 ) 3
( 0.00980853 0.0193783 0.036018 ) 6
( 0.231268 0.0491449 0.0302039 ) 23
( 0.196609 0.0901821 0.0218424 ) 31
( 0.0372671 0.0513468 0.0195738 ) 16
( 0.0682566 0.0502389 0.0209956 ) 17
( 0.0796963 0.0838145 0.0312231 ) 26
( 0.240248 0.0165977 0.0122599 ) 0
( 0.195115 0.0703319 0.0223652 ) 22
( 0.149197 0.0902456 0.0258447 ) 29
( 0.150673 0.0258042 0.0271247 ) 11
( 0.208173 0.0902236 -0.00851298 ) 4
( 0.243035 0.0903844 -0.00376419 ) 5
( 0.0919706 0.0724188 0.0206819 ) 27
( 0.0387395 0.0896957 0.0242731 ) 25
( 0.0186194 0.0568472 0.0224596 ) 15
( 0.227606 0.0748671 0.0316383 ) 32
( 0.00988826 0.0380707 0.0291714 ) 6
( 0.224556 0.0900779 0.00346537 ) 5
( 0.236164 0.0641103 0.0181746 ) 23
( 0.127171 0.0670148 0.0174872 ) 19
( 0.19772 0.0504866 0.0326692 ) 22
( 0.185082 0.0289342 0.0172535 ) 12
( 0.0762175 0.0319886 0.0213817 ) 8
( 0.247943 0.0753765 0.0296558 ) 32
( 0.0515485 0.0534929 0.0329334 ) 16
( 0.166706 0.0381126 0.0255315 ) 12
( 0.0536252 0.0151924 0.0535749 ) 34
( 0.0882873 0.031926 0.0573433 ) 36
( 0.167162 0.0675944 0.0422908 ) 21
( 0.113127 0.0418163 0.0190523 ) 10
( 0.0489571 0.0320108 0.062729 ) 34
( 0.208149 0.0547654 0.0520766 ) 49
( 0.0289493 0.0595432 0.0546025 ) 43
( 0.124579 0.0558404 0.0552421 ) 46
( 0.18144 0.0274622 0.0571432 ) 39
( 0.175563 0.0900127 0.0532028 ) 57
( 0.0314135 0.0403521 0.0591717 ) 34
( 0.0713283 0.0596393 0.0589313 ) 44
( 0.104741 0.021968 0.0623819 ) 36
( 0.107981 0.0804532 0.0593217 ) 54
( 0.105747 0.0594797 0.0601499 ) 45
( 0.0552753 0.0890397 0.0560926 ) 52
( 0.150307 0.0695895 0.0569352 ) 47
( 0.132027 0.0399013 0.0639645 ) 37
( 0.0208325 0.0793693 0.0569403 ) 51
( 0.179679 0.0552374 0.0554112 ) 48
( 0.139597 0.0214786 0.0647904 ) 38
( 0.0701548 0.0399379 0.0586887 ) 35
( 0.134407 0.0900887 0.0589163 ) 55
( 0.23818 0.0470329 0.0496567 ) 50
( 0.00987853 0.0170822 0.064414 ) 33
( 0.228707 0.0874575 0.056485 ) 59
( 0.207417 0.0760498 0.0524489 ) 58
( 0.0839849 0.0891587 0.0658707 ) 54
( 0.148916 0.0490399 0.0575015 ) 47
( 0.158894 0.090114 0.0674361 ) 56
( 0.00971874 0.0635617 0.059519 ) 42
( 0.0954831 0.0379381 0.0743991 ) 63
( 0.249294 0.0176013 0.0549481 ) 41
( 0.19232 0.0653364 0.0445626 ) 48
( 0.0446737 0.0527043 0.0697057 ) 43
( 0.0843274 0.0736552 0.0535427 ) 54
( 0.225261 0.0610087 0.0449018 ) 50
( 0.112977 0.090612 0.043612 ) 55
( 0.196971 0.0514025 0.0679587 ) 49
( 0.129689 0.0724639 0.0458718 ) 55
( 0.166271 0.0903845 0.0356908 ) 29
( 0.0615236 0.0168693 0.0732735 ) 62
( 0.0380992 0.0831313 0.046882 ) 52
( 0.229319 0.0181186 0.0603839 ) 41
( 0.199299 0.0203082 0.0523262 ) 40
( 0.211884 0.035248 0.0549213 ) 40
( 0.164723 0.0372311 0.0612635 ) 38
( 0.105976 0.0260145 0.0412644 ) 9
( 0.0215599 0.0251676 0.0509411 ) 33
( 0.0136034 0.0395719 0.0678724 ) 33
( 0.166521 0.0246556 0.0444898 ) 38
( 0.0439303 0.0708365 0.0614377 ) 43
( 0.249591 0.0572981 0.0374442 ) 23
( 0.0569729 0.0665035 0.0471884 ) 44
( 0.110967 0.0642082 0.0419027 ) 18
( 0.00975778 0.0903046 0.0449861 ) 51
( 0.216772 0.0897942 0.0407116 ) 31
( 0.0941217 0.0902461 0.0491086 ) 54
( 0.24909 0.0459728 0.0689963 ) 50
( 0.171052 0.0719326 0.0607731 ) 57
( 0.0311413 0.0651297 0.0358705 ) 16
( 0.178839 0.0560335 0.0313991 ) 21
( 0.152067 0.0549128 0.0390713 ) 20
( 0.0737458 0.0901361 0.0489798 ) 53
( 0.0637949 0.0297413 0.0431002 ) 35
( 0.0260419 0.0464149 0.0391511 ) 15
( 0.0431417 0.032077 0.043866 ) 34
( 0.12291 0.0336793 0.0479245 ) 37
( 0.148406 0.0306043 0.0499611 ) 38
( 0.151618 0.0902397 0.0490017 ) 56
( 0.18259 0.033307 0.0363182 ) 12
( 0.12588 0.0729117 0.065293 ) 55
( 0.209416 0.0666768 0.0352396 ) 22
( 0.0886868 0.0515549 0.0540833 ) 45
( 0.197004 0.090076 0.0417096 ) 31
( 0.1062 0.0404094 0.0559111 ) 36
( 0.116815 0.0472427 0.0742495 ) 73
( 0.247074 0.0787396 0.0562489 ) 59
( 0.0859819 0.0707762 0.0730813 ) 72
( 0.24633 0.0372628 0.0346601 ) 14
( 0.0123481 0.0605931 0.0405296 ) 15
( 0.215301 0.0639811 0.0725659 ) 76
( 0.228628 0.0304966 0.0452829 ) 41
( 0.121536 0.0252348 0.0721607 ) 64
( 0.0832102 0.0277758 0.0390321 ) 8
( 0.193507 0.0707935 0.0657102 ) 48
( 0.134432 0.0903036 0.0390171 ) 28
( 0.182092 0.0788784 0.0346706 ) 30
( 0.236466 0.0905774 0.0384412 ) 32
( 0.0274986 0.0631815 0.0738283 ) 69
( 0.180238 0.0153714 0.0733867 ) 66
( 0.0534197 0.0474406 0.0514557 ) 43
( 0.0537335 0.0904714 0.0367128 ) 25
( 0.0638179 0.0502653 0.0743149 ) 71
( 0.0726173 0.0512221 0.0412851 ) 17
( 0.0490908 0.0166263 0.0330458 ) 7
( 0.241281 0.0175156 0.0370557 ) 14
( 0.0348139 0.0902431 0.0651849 ) 52
( 0.214444 0.0412141 0.0367075 ) 13
( 0.158191 0.0589771 0.071748 ) 74
( 0.127568 0.0556492 0.0353457 ) 19
( 0.148969 0.074313 0.0376648 ) 29
( 0.21012 0.0837967 0.0703407 ) 58
( 0.134887 0.0572245 0.0734079 ) 73
( 0.0105294 0.0900344 0.0702577 ) 51
( 0.00967644 0.0408446 0.048678 ) 33
( 0.0274587 0.0230542 0.0733972 ) 60
( 0.193767 0.0900754 0.0611619 ) 57
( 0.238343 0.074451 0.0760569 ) 86
( 0.143242 0.0790935 0.0728446 ) 83
( 0.100928 0.0206444 0.0816399 ) 63
( 0.168369 0.0444749 0.0436694 ) 48
( 0.14903 0.0366625 0.0726693 ) 65
( 0.0660003 0.07451 0.0704547 ) 53
( 0.101909 0.0900237 0.0759533 ) 81
( 0.211759 0.0361102 0.074162 ) 67
( 0.0865177 0.0310921 0.0905466 ) 63
( 0.19344 0.0417353 0.0506128 ) 39
( 0.175172 0.0488694 0.0730401 ) 75
( 0.0727864 0.0192703 0.0572033 ) 35
( 0.00952435 0.0563093 0.077463 ) 69
( 0.165863 0.0755654 0.078974 ) 83
( 0.188739 0.0345152 0.0740486 ) 66
( 0.0930922 0.0552363 0.0830021 ) 72
( 0.244443 0.0429389 0.0903183 ) 77
( 0.121653 0.0901591 0.0740346 ) 82
( 0.0772263 0.0292002 0.0735637 ) 62
( 0.0426888 0.0732236 0.0810182 ) 79
( 0.0510506 0.0371054 0.0814377 ) 61
( 0.10919 0.0703282 0.0756894 ) 72
( 0.22919 0.0403033 0.0658501 ) 41
( 0.0226721 0.0734583 0.0901394 ) 78
( 0.169714 0.0309958 0.0795203 ) 66
( 0.0296857 0.0433786 0.0787458 ) 70
( 0.110466 0.0370254 0.0901245 ) 63
( 0.201969 0.0578346 0.0860745 ) 76
( 0.235925 0.0628369 0.0608756 ) 50
( 0.0765298 0.0738934 0.0901909 ) 80
( 0.165063 0.0149948 0.0903489 ) 65
( 0.198357 0.0771731 0.0846152 ) 85
( 0.00974467 0.0261304 0.081787 ) 60
( 0.227615 0.0905345 0.0760063 ) 86
( 0.183248 0.0647998 0.0815461 ) 75
( 0.147907 0.0528605 0.0877179 ) 74
( 0.234024 0.0547207 0.0785468 ) 77
( 0.0516972 0.0903165 0.0751561 ) 79
( 0.130641 0.0671971 0.0901209 ) 73
( 0.0602776 0.061187 0.0902412 ) 71
( 0.233338 0.0280394 0.0808502 ) 68
( 0.0711511 0.0904669 0.0804944 ) 80
( 0.140608 0.0900607 0.0901047 ) 83
( 0.0100356 0.0900253 0.0901333 ) 78
( 0.135458 0.0289927 0.0858326 ) 64
( 0.201371 0.0204409 0.0799102 ) 67
( 0.180683 0.0438759 0.0906869 ) 75
( 0.177948 0.0902329 0.0728849 ) 84
( 0.201349 0.0386439 0.090463 ) 67
( 0.0746154 0.0470272 0.0903473 ) 71
( 0.149866 0.0724766 0.0902602 ) 83
( 0.0399096 0.0558765 0.0902317 ) 70
( 0.115078 0.0814026 0.0905319 ) 82
( 0.223901 0.0667705 0.0903157 ) 77
( 0.111449 0.0573789 0.0903291 ) 73
( 0.0373983 0.0900353 0.0901467 ) 79
( 0.035959 0.0285225 0.0904109 ) 61
( 0.185385 0.0242246 0.0904828 ) 66
( 0.211973 0.0901966 0.0902912 ) 85
( 0.153944 0.0342864 0.0908813 ) 65
( 0.118197 0.0187139 0.0906009 ) 64
( 0.249929 0.0705763 0.0908185 ) 77
( 0.160639 0.0901311 0.0905197 ) 83
( 0.128924 0.0472918 0.0901285 ) 73
( 0.0662665 0.0283687 0.0903313 ) 62
( 0.243167 0.0900369 0.0901484 ) 86
( 0.221442 0.0406433 0.0904526 ) 67
( 0.217866 0.020872 0.0907998 ) 67
( 0.166744 0.0585869 0.0902475 ) 75
( 0.0138189 0.042982 0.090736 ) 69
( 0.0578122 0.0808324 0.0908181 ) 80
( 0.0882168 0.0902263 0.0902809 ) 81
( 0.180233 0.0821877 0.0905622 ) 84
( 0.09719 0.0727082 0.0906683 ) 81
)
