/*--------------------------------*- C++ -*----------------------------------*\
  =========                 |
  \\      /  F ield         | OpenFOAM: The Open Source CFD Toolbox
   \\    /   O peration     | Website:  https://openfoam.org
    \\  /    A nd           | Version:  4.x
     \\/     M anipulation  |
\*---------------------------------------------------------------------------*/
FoamFile
{
    version     2.0;
    format      ascii;
    class       vectorField;
    location    0;
    object      v;
}
// * * * * * * * * * * * * * * * * * * * * * * * * * * * * * * * * * * * * * //

302
(
( -1.73786e-08 -2.1692e-09 -4.30968e-09 )  
( -3.23618e-09 -1.33038e-08 7.51101e-08 )  
( -6.38986e-08 -7.54503e-09 6.36985e-08 )  
( -1.38416e-08 -9.14447e-09 4.47774e-08 )  
( 5.07235e-08 -8.72189e-09 4.77106e-08 )  
( 1.16312e-07 -1.45858e-08 9.80133e-08 )  
( 7.96768e-08 -2.91869e-08 8.01601e-08 )  
( -1.22863e-07 -1.03626e-08 5.68323e-08 )  
( -1.01582e-08 5.37602e-09 2.97382e-08 )  
( -2.75128e-08 -3.36077e-09 -6.2927e-08 )  
( -8.75264e-09 -3.87729e-08 9.08956e-08 )  
( 1.17712e-07 2.12393e-08 1.41286e-07 )  
( -2.19888e-09 6.79918e-09 -2.86064e-08 )  
( 3.63658e-09 1.07841e-08 1.25085e-07 )  
( 4.62197e-08 6.02934e-09 1.86046e-08 )  
( -9.34122e-07 -2.87802e-07 2.22666e-07 )  
( 1.03528e-07 9.74592e-09 6.16185e-08 )  
( -1.94832e-08 -1.3541e-08 9.64983e-08 )  
( 1.23863e-08 -5.19861e-08 3.81987e-08 )  
( 1.53928e-08 -1.13924e-08 1.26068e-07 )  
( 1.07105e-07 2.11137e-08 1.3508e-09 )  
( 8.22967e-08 -1.23806e-08 1.322e-07 )  
( -2.85625e-08 -1.67698e-08 6.68673e-08 )  
( 1.03774e-07 -1.53697e-08 1.27849e-07 )  
( -3.32019e-08 -1.62877e-08 1.16665e-07 )  
( -9.37718e-08 -3.50752e-09 8.38655e-08 )  
( -2.06705e-08 -1.15053e-07 1.24723e-07 )  
( -3.5803e-09 -2.70418e-08 1.3964e-07 )  
( -1.52316e-08 6.44515e-09 -2.17692e-10 )  
( -4.06857e-08 -7.07646e-08 1.6732e-07 )  
( -8.29497e-08 -1.89894e-08 7.38328e-08 )  
( 1.88179e-09 -5.33995e-09 4.44064e-08 )  
( -5.50687e-09 1.73834e-08 1.87601e-09 )  
( 4.42664e-08 -3.40571e-08 8.42022e-08 )  
( 3.70658e-08 1.70412e-08 1.14844e-07 )  
( 4.31357e-08 -4.60104e-09 1.46915e-07 )  
( -1.59905e-08 5.47452e-09 5.46017e-08 )  
( 3.27958e-08 -1.05488e-08 8.83006e-08 )  
( 6.68715e-08 -8.75324e-09 1.50144e-07 )  
( -9.72884e-07 -2.83567e-07 2.79728e-07 )  
( 1.39623e-08 6.98298e-09 1.68117e-08 )  
( -5.1898e-08 5.56022e-08 3.04522e-07 )  
( 9.84171e-08 -2.61897e-08 1.42743e-07 )  
( 5.94075e-08 -2.16096e-08 1.44429e-07 )  
( 2.93919e-08 6.28495e-09 -2.41202e-08 )  
( 6.51569e-08 -1.27047e-07 1.78379e-07 )  
( 4.86581e-08 -4.95729e-08 -5.92584e-09 )  
( 7.87239e-08 -1.3164e-08 -3.26262e-08 )  
( 9.3728e-08 -8.30066e-09 1.06649e-07 )  
( 4.39028e-08 8.72966e-09 1.5919e-07 )  
( 2.41301e-09 -8.2416e-10 1.0613e-07 )  
( 3.16815e-08 3.07454e-09 3.43535e-08 )  
( 9.37515e-08 1.85432e-09 7.65151e-08 )  
( -1.69523e-08 -6.18381e-09 4.63405e-08 )  
( 5.76225e-08 -1.97103e-08 6.8449e-08 )  
( 7.99342e-08 1.47013e-08 6.62207e-08 )  
( -5.27583e-08 -1.19631e-08 -7.28584e-11 )  
( -2.53215e-08 1.44278e-08 5.31867e-09 )  
( 6.7377e-08 -4.8004e-08 9.27298e-08 )  
( 3.53845e-08 -8.33702e-09 1.70621e-08 )  
( -1.43556e-07 -1.10694e-07 1.31233e-07 )  
( -2.67236e-08 -1.15109e-08 1.507e-07 )  
( 7.4673e-07 6.21189e-07 5.65685e-07 )  
( -4.67257e-08 -1.60716e-09 8.64301e-08 )  
( 9.07857e-08 -1.80242e-08 4.87139e-08 )  
( -1.41712e-07 -3.46495e-08 8.97717e-08 )  
( -8.45217e-08 -1.8466e-08 3.49827e-08 )  
( 1.1111e-08 2.41722e-09 -2.78158e-08 )  
( -1.97722e-08 -3.6887e-09 1.42183e-07 )  
( 1.06381e-07 -2.88235e-08 1.70574e-07 )  
( -6.59597e-08 -5.67665e-09 5.86619e-08 )  
( 1.52333e-08 -4.70693e-09 9.75464e-08 )  
( -1.84577e-08 1.63926e-08 1.73708e-08 )  
( -3.68257e-10 5.19636e-08 1.13908e-07 )  
( -6.19793e-08 -1.32814e-07 -3.27042e-08 )  
( 1.089e-08 -5.56086e-09 3.50809e-08 )  
( 7.04641e-08 -7.22284e-10 1.71835e-07 )  
( -5.7066e-09 1.01934e-07 2.83637e-07 )  
( 5.47915e-08 1.73259e-08 -1.13772e-08 )  
( -1.64349e-09 -6.19057e-09 1.27237e-08 )  
( 1.12384e-07 -2.01249e-08 1.39517e-07 )  
( -5.55748e-08 3.00979e-08 -2.93532e-09 )  
( -3.84158e-08 7.70224e-08 8.57279e-08 )  
( -1.00674e-07 1.79013e-08 1.15612e-07 )  
( -1.46517e-07 2.40411e-08 -3.77777e-08 )  
( 3.62189e-08 -5.94395e-09 6.20544e-08 )  
( 2.26674e-09 5.90543e-09 2.50797e-08 )  
( -1.39345e-07 -4.88532e-08 2.46167e-07 )  
( -9.65223e-09 -1.10643e-07 2.92472e-07 )  
( 4.86935e-08 -6.65756e-10 1.41292e-07 )  
( 2.59275e-08 9.65167e-09 -7.88337e-09 )  
( -2.72981e-08 1.05361e-08 4.70867e-08 )  
( 3.50834e-08 -6.33308e-09 5.08106e-08 )  
( 7.52087e-08 -2.05195e-08 -1.72483e-09 )  
( -5.99456e-08 -5.68594e-09 4.9699e-08 )  
( 9.95252e-08 -7.54565e-08 -3.97381e-08 )  
( 5.39785e-08 -3.76364e-08 4.35922e-08 )  
( -2.7292e-08 1.52396e-09 1.13573e-08 )  
( 8.13056e-08 7.55295e-10 7.90777e-08 )  
( 2.60885e-08 -4.88592e-09 7.08268e-08 )  
( -6.25643e-09 -6.06112e-09 3.71799e-08 )  
( 1.94074e-07 4.85641e-07 5.91927e-07 )  
( 1.69815e-06 -5.23217e-07 -4.69631e-07 )  
( -2.14703e-07 -7.32766e-08 1.2214e-07 )  
( 3.00174e-08 -4.31802e-08 -8.99242e-08 )  
( 3.54926e-08 -1.86999e-08 3.20884e-08 )  
( -1.7507e-09 -3.07641e-09 5.96172e-10 )  
( 9.91702e-09 -2.44122e-05 9.2008e-07 )  
( 8.2317e-08 -4.38449e-08 1.27459e-07 )  
( 7.95603e-08 1.01576e-09 1.42855e-07 )  
( 9.08821e-08 -2.88796e-08 1.50686e-07 )  
( -2.3172e-08 -6.02648e-09 6.73231e-08 )  
( -4.8427e-08 -8.11314e-08 5.30956e-08 )  
( -2.20557e-08 1.2829e-08 3.47534e-08 )  
( 9.40974e-08 -8.16865e-08 1.06811e-07 )  
( -6.11712e-08 -1.28263e-08 8.6341e-08 )  
( -2.68587e-08 -5.18649e-09 1.80957e-08 )  
( 5.68961e-08 -1.46052e-07 2.20488e-07 )  
( -3.24166e-08 -3.55545e-07 2.08196e-07 )  
( -2.35614e-08 -1.74081e-08 1.15211e-07 )  
( -2.76008e-08 -2.42815e-08 9.7661e-08 )  
( 3.81159e-08 5.89873e-09 1.22156e-08 )  
( 3.19175e-09 2.01975e-08 6.29904e-08 )  
( -3.16155e-08 2.3157e-08 1.04828e-07 )  
( 6.31919e-08 -1.80271e-08 3.62101e-08 )  
( -6.12525e-08 -3.49977e-08 6.88782e-08 )  
( -1.11229e-08 1.62803e-09 -1.04172e-08 )  
( 2.67656e-08 1.24761e-07 4.07796e-07 )  
( 3.23519e-09 -8.4782e-09 1.96575e-08 )  
( 3.11963e-08 -5.77956e-08 8.93963e-08 )  
( 1.15188e-08 -1.63066e-08 1.09142e-08 )  
( -1.62907e-08 8.07607e-09 3.30796e-08 )  
( 3.31608e-07 -4.87798e-08 -1.06053e-07 )  
( 4.66763e-08 -3.89899e-09 5.88829e-08 )  
( 2.19663e-08 -2.24603e-08 1.31307e-07 )  
( 1.96214e-07 1.97365e-07 -8.94416e-09 )  
( -2.41175e-08 -1.42977e-08 3.16713e-08 )  
( 3.14231e-08 -2.59579e-08 1.64611e-08 )  
( 1.95134e-08 -8.37909e-09 3.92393e-08 )  
( 2.54342e-08 1.22342e-07 2.40442e-07 )  
( -1.31078e-08 8.8821e-10 2.27205e-08 )  
( 4.34317e-08 1.12554e-09 8.81285e-08 )  
( 2.20331e-08 5.40878e-09 3.01354e-08 )  
( 2.57572e-08 4.23317e-08 1.12153e-07 )  
( -2.46949e-07 -1.15429e-07 1.25701e-07 )  
( -2.96315e-08 2.88555e-08 1.23379e-08 )  
( -8.19274e-08 -7.3163e-09 6.71028e-08 )  
( -7.15379e-09 8.76705e-11 -2.62211e-09 )  
( 3.0487e-08 -2.38726e-09 3.57963e-08 )  
( -8.44678e-09 -1.4629e-08 1.28196e-07 )  
( -4.1404e-08 9.88703e-10 1.49129e-08 )  
( 5.47135e-08 -1.29573e-08 1.4131e-07 )  
( 1.24998e-07 -4.25578e-08 1.3827e-07 )  
( 9.17786e-08 -1.41147e-08 8.3289e-08 )  
( -6.36119e-10 1.32551e-08 -7.55694e-09 )  
( 3.36909e-08 -9.59784e-09 2.96114e-08 )  
( -3.47808e-08 3.75546e-08 -2.18776e-09 )  
( -1.69087e-08 1.95985e-09 4.02334e-08 )  
( -7.68302e-08 -6.548e-09 7.1392e-08 )  
( 5.7829e-09 -2.98963e-09 1.67e-08 )  
( -8.15272e-08 -1.18245e-07 2.70267e-07 )  
( -3.83781e-08 9.68202e-09 -2.79629e-08 )  
( 5.09688e-08 -1.70638e-08 1.48943e-07 )  
( -4.51888e-09 1.92476e-08 4.8783e-08 )  
( -1.24266e-08 3.99498e-08 2.0578e-07 )  
( 5.56876e-08 -1.81924e-08 7.41806e-08 )  
( -5.65165e-09 8.88408e-09 6.21162e-08 )  
( -8.94019e-10 3.72062e-08 9.55286e-08 )  
( -2.5202e-08 1.43195e-08 8.19845e-08 )  
( 9.66735e-09 -3.94845e-08 1.85818e-07 )  
( 4.95101e-08 7.26576e-08 8.47049e-08 )  
( 7.52879e-08 -2.88315e-08 1.10732e-07 )  
( -3.26627e-08 1.44595e-07 1.37659e-08 )  
( -2.10849e-08 1.11968e-08 1.73074e-08 )  
( 1.68397e-08 -1.8971e-08 3.98737e-08 )  
( -1.2802e-08 5.90643e-09 3.59885e-08 )  
( -1.77613e-08 6.57007e-08 8.15144e-08 )  
( 1.06699e-07 -7.18503e-09 -3.46552e-08 )  
( 3.4631e-08 -7.34792e-08 2.20454e-08 )  
( 4.13702e-07 1.60327e-07 6.42739e-07 )  
( 6.20021e-09 -7.63385e-09 2.18184e-08 )  
( -2.04787e-09 8.4648e-10 1.80662e-08 )  
( -2.23384e-07 5.4551e-09 2.81723e-07 )  
( -1.86775e-07 -5.40751e-08 -1.21638e-08 )  
( -2.1747e-08 -7.49815e-09 2.82335e-08 )  
( 5.54626e-08 -4.03887e-08 4.54098e-08 )  
( -1.82978e-07 -1.80615e-08 5.96668e-09 )  
( 3.47017e-08 3.08663e-09 1.16218e-07 )  
( -1.42065e-08 -9.71196e-09 8.99665e-08 )  
( 7.64052e-08 2.85189e-08 4.06512e-09 )  
( 1.05029e-07 -2.03381e-08 1.71736e-07 )  
( -2.45167e-08 -1.46217e-08 5.08141e-08 )  
( -2.87658e-08 6.9931e-11 2.04294e-08 )  
( -3.16102e-08 4.99318e-09 3.3154e-08 )  
( -1.11936e-07 -2.74378e-08 9.59751e-08 )  
( -1.98486e-08 -9.99501e-09 5.62118e-08 )  
( -3.06287e-08 -7.4239e-09 1.64829e-08 )  
( 1.09736e-08 -3.76857e-08 1.29183e-07 )  
( -1.0123e-07 -1.11639e-08 6.82967e-08 )  
( -4.96178e-08 -1.22162e-08 3.62281e-08 )  
( -2.67321e-08 1.71879e-09 3.30682e-09 )  
( -1.17403e-08 7.12601e-09 2.69984e-08 )  
( -3.67745e-09 1.33159e-09 3.69001e-08 )  
( -5.77843e-08 -1.50308e-08 2.75966e-08 )  
( -1.1961e-08 -4.56968e-09 1.8215e-08 )  
( -1.04838e-08 -1.37603e-08 3.78507e-08 )  
( -1.04129e-08 5.17773e-09 1.73506e-08 )  
( -2.3468e-08 3.01636e-09 2.60127e-08 )  
( -2.2189e-08 3.92633e-10 1.35417e-08 )  
( -1.3891e-08 4.67105e-09 3.51816e-08 )  
( -1.92044e-08 6.1957e-08 1.59321e-07 )  
( -2.12376e-08 -3.99911e-09 2.34955e-08 )  
( -9.18522e-08 -2.36923e-08 1.06128e-07 )  
( -2.01545e-08 8.79366e-11 6.49884e-09 )  
( -4.93241e-08 2.00721e-08 -4.6751e-11 )  
( -4.48107e-08 -1.85354e-08 8.74021e-08 )  
( -5.1325e-08 -6.73636e-09 2.31974e-08 )  
( -6.57804e-08 -2.9226e-08 4.7395e-08 )  
( -6.65978e-08 -1.57169e-08 8.40641e-08 )  
( -4.26997e-08 -8.87884e-09 2.10369e-08 )  
( 6.36304e-08 5.81269e-08 7.63378e-08 )  
( -1.50721e-08 5.0849e-08 3.37737e-08 )  
( -3.44874e-08 -1.21617e-08 7.75231e-08 )  
( 3.82948e-08 -5.68574e-09 8.26604e-08 )  
( 1.51397e-08 -2.72893e-08 1.41754e-07 )  
( -5.4115e-08 -2.9334e-09 1.13608e-07 )  
( 7.16589e-08 -1.80964e-08 -7.56246e-09 )  
( -6.46975e-09 7.66722e-09 6.24308e-08 )  
( -1.39729e-08 -1.37886e-08 1.23321e-07 )  
( 2.08898e-07 1.23306e-07 3.34762e-07 )  
( -1.70685e-08 3.61782e-09 3.62977e-09 )  
( 1.10379e-07 -1.26774e-08 1.45452e-07 )  
( -9.84793e-08 -2.56426e-09 3.58217e-08 )  
( -6.21074e-09 -1.94035e-09 2.23436e-08 )  
( 2.14589e-09 -2.31496e-09 4.38825e-08 )  
( -7.23429e-08 1.19547e-08 4.252e-08 )  
( 4.10413e-08 1.48162e-08 -1.97777e-08 )  
( -1.13618e-07 1.41036e-07 1.77757e-08 )  
( -8.7117e-08 -6.31729e-09 7.59022e-08 )  
( -2.05695e-08 -1.09481e-08 1.18935e-08 )  
( -3.47231e-08 -2.41125e-08 1.02652e-07 )  
( -1.8081e-08 -1.96179e-09 7.5296e-09 )  
( 2.16574e-08 -2.3916e-08 7.30196e-08 )  
( 1.14929e-07 -1.68644e-08 1.07038e-07 )  
( -1.49313e-07 -1.89568e-08 5.5794e-08 )  
( -4.96983e-08 -2.97934e-08 7.74526e-08 )  
( 9.60049e-08 1.50792e-08 -4.04125e-08 )  
( 7.82579e-08 -3.12553e-08 1.42685e-07 )  
( -9.96687e-09 2.00324e-09 9.93489e-09 )  
( 2.54226e-08 -1.12667e-08 6.52244e-08 )  
( 4.0195e-08 -1.80553e-08 1.60108e-07 )  
( 1.93139e-08 4.60303e-09 6.56157e-08 )  
( -4.4665e-08 -8.01803e-09 1.44702e-07 )  
( -1.27482e-08 2.95888e-09 4.28359e-09 )  
( -3.1459e-08 -1.71887e-08 5.54895e-08 )  
( -1.11197e-08 -2.70851e-08 5.02833e-08 )  
( -6.51217e-08 -7.69926e-09 9.94519e-08 )  
( -8.73534e-08 -6.74602e-09 3.48196e-08 )  
( -5.93582e-08 -7.25128e-09 1.55946e-08 )  
( -2.26582e-08 -1.30613e-08 4.10451e-08 )  
( -8.66182e-09 5.10998e-09 3.81401e-08 )  
( -4.27615e-08 1.62923e-08 3.55819e-08 )  
( 2.77318e-09 9.23584e-09 6.34028e-08 )  
( -8.31711e-08 -1.0221e-08 5.98809e-08 )  
( -1.45661e-08 -3.89538e-10 3.59753e-09 )  
( -4.38316e-08 -2.31004e-08 4.63152e-08 )  
( -2.85328e-08 -1.55404e-08 7.91309e-08 )  
( -6.71488e-08 -1.45739e-08 1.14431e-07 )  
( -1.97184e-08 -1.99823e-09 6.36885e-09 )  
( -6.30804e-08 -1.02879e-08 8.62392e-08 )  
( -3.18467e-08 5.53157e-09 4.27936e-08 )  
( -1.21287e-08 9.45886e-09 1.00218e-08 )  
( -1.59956e-08 -1.29317e-08 4.0141e-08 )  
( 5.56575e-08 -4.83023e-09 4.37448e-08 )  
( 1.50224e-07 -2.67946e-08 1.39997e-07 )  
( 2.06098e-07 1.62055e-09 8.46231e-08 )  
( 2.13336e-08 9.77827e-09 -2.5663e-08 )  
( 2.93537e-08 -2.15543e-08 -3.07378e-08 )  
( 1.48879e-07 -9.9328e-08 1.05509e-07 )  
( 6.99049e-08 -7.30601e-09 8.33185e-08 )  
( -5.92871e-07 -1.67217e-07 1.29878e-07 )  
( 2.25489e-08 -3.3818e-08 5.0508e-08 )  
( 1.36776e-07 -2.29731e-08 1.52745e-07 )  
( 3.02385e-07 -4.98373e-07 9.21314e-08 )  
( 9.34492e-08 -5.60693e-08 1.08838e-07 )  
( 5.68495e-08 -3.0069e-08 4.85319e-08 )  
( 7.60291e-08 -8.9899e-08 3.67654e-08 )  
( 1.38556e-07 -9.25271e-08 1.52874e-07 )  
( 1.43097e-07 -2.16612e-08 1.44254e-07 )  
( 1.18407e-07 -5.73754e-08 9.51079e-08 )  
( 4.63381e-08 -3.57881e-08 5.16505e-08 )  
( 1.19041e-07 -1.86341e-08 6.15957e-08 )  
( -3.42662e-09 -6.23873e-09 2.10865e-08 )  
( -1.07392e-07 -1.23854e-08 -5.57596e-08 )  
( 1.3004e-07 -6.01192e-09 1.42789e-07 )  
( 8.2815e-08 -7.22226e-08 -9.97451e-08 )  
( 1.25201e-07 2.56863e-07 4.56003e-08 )  
( 1.4979e-07 -7.63886e-08 1.47306e-07 )  
( 1.4038e-07 -1.543e-08 1.65594e-07 )  
( 1.28138e-07 -4.48398e-07 7.37014e-08 )  
( 2.2268e-07 3.36629e-08 1.22947e-07 )  
( 1.42241e-07 -1.06587e-07 1.51375e-07 )  
)
