/*--------------------------------*- C++ -*----------------------------------*\
| =========                 |                                                 |
| \\      /  F ield         | OpenFOAM: The Open Source CFD Toolbox           |
|  \\    /   O peration     | Version:  4.x                                   |
|   \\  /    A nd           | Web:      www.OpenFOAM.org                      |
|    \\/     M anipulation  |                                                 |
\*---------------------------------------------------------------------------*/
FoamFile
{
    version     2.0;
    format      ascii;
    class       volScalarField;
    location    "14.5";
    object      Deff;
}
// * * * * * * * * * * * * * * * * * * * * * * * * * * * * * * * * * * * * * //

dimensions      [0 2 -1 0 0 0 0];

internalField   nonuniform List<scalar> 
108
(
9.88398e-08
9.88908e-08
9.87614e-08
9.88921e-08
9.88594e-08
9.88936e-08
9.87446e-08
9.87364e-08
9.87512e-08
9.88292e-08
9.86672e-08
9.87726e-08
9.88056e-08
9.87753e-08
9.88245e-08
9.86659e-08
9.86529e-08
9.86638e-08
9.88501e-08
9.87907e-08
9.87335e-08
9.88172e-08
9.87892e-08
9.88205e-08
9.86906e-08
9.86664e-08
9.87379e-08
9.90297e-08
9.90136e-08
9.89007e-08
9.87621e-08
9.87846e-08
9.88222e-08
9.88533e-08
9.87183e-08
9.87755e-08
9.84324e-08
9.84318e-08
9.82681e-08
9.82859e-08
9.8336e-08
9.83599e-08
9.82848e-08
9.82444e-08
9.82019e-08
9.84496e-08
9.84072e-08
9.83127e-08
9.83352e-08
9.83565e-08
9.83347e-08
9.81842e-08
9.82056e-08
9.82276e-08
9.83564e-08
9.8391e-08
9.8345e-08
9.83148e-08
9.83458e-08
9.83152e-08
9.82839e-08
9.82396e-08
9.82413e-08
9.85755e-08
9.86185e-08
9.85145e-08
9.84241e-08
9.83395e-08
9.84124e-08
9.83587e-08
9.83064e-08
9.8367e-08
9.80962e-08
9.80048e-08
9.79561e-08
9.79498e-08
9.80077e-08
9.79521e-08
9.78484e-08
9.79059e-08
9.79444e-08
9.80922e-08
9.8132e-08
9.80229e-08
9.81559e-08
9.81146e-08
9.7934e-08
9.7872e-08
9.78346e-08
9.79572e-08
9.82557e-08
9.81207e-08
9.80649e-08
9.81428e-08
9.80623e-08
9.79373e-08
9.79491e-08
9.79229e-08
9.80105e-08
9.83999e-08
9.84212e-08
9.82774e-08
9.82127e-08
9.81466e-08
9.80336e-08
9.80206e-08
9.79415e-08
9.79483e-08
)
;

boundaryField
{
    inlet
    {
        type            calculated;
        value           nonuniform 0();
    }
    outlet
    {
        type            calculated;
        value           uniform 0;
    }
    wall
    {
        type            calculated;
        value           uniform 0;
    }
    procBoundary3to1
    {
        type            processor;
        value           uniform 0;
    }
    procBoundary3to2
    {
        type            processor;
        value           uniform 0;
    }
    procBoundary3to7
    {
        type            processor;
        value           uniform 0;
    }
}


// ************************************************************************* //
