/*--------------------------------*- C++ -*----------------------------------*\
| =========                 |                                                 |
| \\      /  F ield         | OpenFOAM: The Open Source CFD Toolbox           |
|  \\    /   O peration     | Version:  4.x                                   |
|   \\  /    A nd           | Web:      www.OpenFOAM.org                      |
|    \\/     M anipulation  |                                                 |
\*---------------------------------------------------------------------------*/
FoamFile
{
    version     2.0;
    format      ascii;
    class       volScalarField;
    location    "14.5";
    object      KslNext;
}
// * * * * * * * * * * * * * * * * * * * * * * * * * * * * * * * * * * * * * //

dimensions      [1 -3 -1 0 0 0 0];

internalField   nonuniform List<scalar> 
108
(
4692.28
2943.62
5280.25
2966.06
6545.69
2877.73
7506.64
2375.18
5428.9
4838.65
3020.66
5561.01
2990.42
6959.42
2982.2
8648.56
2717.91
6653.19
4449.59
2953.76
4869.64
2994.68
6450.98
3351.89
12727.1
4505.98
46314.9
3853.07
2597.92
3660.74
2471.81
3628.46
2384.04
3881.89
2368.92
3647.37
16370.3
3854.97
15625.5
3633.34
14278.5
3460.27
11266.5
3413.92
4265.24
15152.4
3705.89
16319.4
3416.16
16189.1
3065.93
16326.4
2572.11
4543.09
10667
3722.59
12373.2
3577.26
12971
3363.88
11229
3356.19
6210.01
5065.11
3047.81
5237.14
2799.91
5282.55
2411.52
5211.32
1694.91
2606.8
283984
4182.09
348798
4023.16
55532.9
3867.97
43162
3997.26
23827.6
145031
4118.69
47066
3953.08
41257.1
3830.27
23808.6
3676.62
7457.29
121488
4208.38
43670.6
3950.21
32140.4
3664.82
18403.5
3118.71
13967.8
6053.91
3344.87
6667.14
3219.78
6954.67
3055.34
7315.19
2644.99
7915.01
)
;

boundaryField
{
    inlet
    {
        type            zeroGradient;
    }
    outlet
    {
        type            zeroGradient;
    }
    wall
    {
        type            zeroGradient;
    }
    procBoundary3to1
    {
        type            processor;
        value           uniform 0;
    }
    procBoundary3to2
    {
        type            processor;
        value           uniform 0;
    }
    procBoundary3to7
    {
        type            processor;
        value           uniform 0;
    }
}


// ************************************************************************* //
