/*--------------------------------*- C++ -*----------------------------------*\
| =========                 |                                                 |
| \\      /  F ield         | OpenFOAM: The Open Source CFD Toolbox           |
|  \\    /   O peration     | Version:  4.x                                   |
|   \\  /    A nd           | Web:      www.OpenFOAM.org                      |
|    \\/     M anipulation  |                                                 |
\*---------------------------------------------------------------------------*/
FoamFile
{
    version     2.0;
    format      ascii;
    class       volScalarField;
    location    "14.5";
    object      nu;
}
// * * * * * * * * * * * * * * * * * * * * * * * * * * * * * * * * * * * * * //

dimensions      [0 2 -1 0 0 0 0];

internalField   nonuniform List<scalar> 
108
(
1.00037e-06
1.00052e-06
1.00067e-06
1.00075e-06
1.00071e-06
1.00057e-06
1.00033e-06
1.00013e-06
9.93165e-07
1.00037e-06
1.00053e-06
1.00069e-06
1.0008e-06
1.00082e-06
1.00073e-06
1.00053e-06
1.00029e-06
9.85905e-07
1.00031e-06
1.00045e-06
1.00061e-06
1.00076e-06
1.00086e-06
1.00084e-06
1.00067e-06
1.00035e-06
9.99493e-07
1.00018e-06
1.00027e-06
1.00037e-06
1.0005e-06
1.00063e-06
1.00076e-06
1.00084e-06
1.00089e-06
9.61799e-07
1.00056e-06
1.00063e-06
1.00062e-06
1.00053e-06
1.00035e-06
1.00017e-06
9.9996e-07
9.99794e-07
9.99409e-07
1.00055e-06
1.00064e-06
1.00066e-06
1.0006e-06
1.00045e-06
1.00029e-06
1.00007e-06
9.99898e-07
9.99298e-07
1.0005e-06
1.00062e-06
1.00069e-06
1.0007e-06
1.00062e-06
1.0005e-06
1.0003e-06
1.00017e-06
9.98905e-07
1.00025e-06
1.00036e-06
1.00048e-06
1.00059e-06
1.00069e-06
1.00079e-06
1.0008e-06
1.00084e-06
1.00004e-06
1.00038e-06
1.0004e-06
1.00033e-06
1.00023e-06
1.0001e-06
9.99964e-07
9.99833e-07
9.99711e-07
9.99399e-07
1.00038e-06
1.00041e-06
1.00036e-06
1.00028e-06
1.00014e-06
1e-06
9.99863e-07
9.99767e-07
9.99326e-07
1.00039e-06
1.00045e-06
1.00042e-06
1.00036e-06
1.00023e-06
1.00015e-06
1.00001e-06
9.99993e-07
9.98392e-07
1.00025e-06
1.00035e-06
1.00045e-06
1.00055e-06
1.00064e-06
1.00073e-06
1.00076e-06
1.00078e-06
1.00055e-06
)
;

boundaryField
{
    inlet
    {
        type            calculated;
        value           nonuniform 0();
    }
    outlet
    {
        type            calculated;
        value           uniform 1e-06;
    }
    wall
    {
        type            calculated;
        value           nonuniform List<scalar> 
63
(
1.00037e-06
1.00037e-06
1.00031e-06
1.00018e-06
1.00052e-06
1.00053e-06
1.00045e-06
1.00027e-06
1.00067e-06
1.00069e-06
1.00061e-06
1.00037e-06
1.00075e-06
1.0008e-06
1.00076e-06
1.0005e-06
1.00071e-06
1.00082e-06
1.00086e-06
1.00063e-06
1.00057e-06
1.00073e-06
1.00084e-06
1.00076e-06
1.00033e-06
1.00053e-06
1.00067e-06
1.00084e-06
1.00013e-06
1.00029e-06
1.00035e-06
1.00089e-06
9.93165e-07
9.85905e-07
9.99493e-07
9.61799e-07
1.00018e-06
1.00025e-06
1.00025e-06
1.00027e-06
1.00036e-06
1.00035e-06
1.00037e-06
1.00048e-06
1.00045e-06
1.0005e-06
1.00059e-06
1.00055e-06
1.00063e-06
1.00069e-06
1.00064e-06
1.00076e-06
1.00079e-06
1.00073e-06
1.00084e-06
1.0008e-06
1.00076e-06
1.00089e-06
1.00084e-06
1.00078e-06
9.61799e-07
1.00004e-06
1.00055e-06
)
;
    }
    procBoundary3to1
    {
        type            processor;
        value           nonuniform List<scalar> 
27
(
1.00033e-06
1.0005e-06
1.00067e-06
1.00076e-06
1.00071e-06
1.00051e-06
1.0002e-06
9.99911e-07
9.99434e-07
1.00045e-06
1.00059e-06
1.00056e-06
1.00036e-06
1.00006e-06
9.99866e-07
9.99669e-07
9.99696e-07
9.99825e-07
1.00011e-06
1.00034e-06
1.00024e-06
1.00011e-06
9.99929e-07
9.99788e-07
9.9965e-07
9.99594e-07
9.99233e-07
)
;
    }
    procBoundary3to2
    {
        type            processor;
        value           nonuniform List<scalar> 
12
(
1.00025e-06
1.00025e-06
1.0002e-06
1.00012e-06
1.00046e-06
1.00042e-06
1.00036e-06
1.00017e-06
1.00036e-06
1.00031e-06
1.00031e-06
1.00018e-06
)
;
    }
    procBoundary3to7
    {
        type            processor;
        value           nonuniform List<scalar> 
36
(
1.00024e-06
1.00025e-06
1.00022e-06
1.00014e-06
1.00004e-06
9.99928e-07
9.99818e-07
9.99723e-07
9.99358e-07
1.00022e-06
1.00023e-06
1.0002e-06
1.00013e-06
1.00004e-06
9.99939e-07
9.99836e-07
9.99764e-07
9.99306e-07
1.00022e-06
1.00024e-06
1.00022e-06
1.00018e-06
1.0001e-06
1.00005e-06
9.99949e-07
9.99955e-07
9.99466e-07
1.00012e-06
1.00019e-06
1.00026e-06
1.00035e-06
1.00041e-06
1.0005e-06
1.00047e-06
1.00052e-06
1.00028e-06
)
;
    }
}


// ************************************************************************* //
