/*--------------------------------*- C++ -*----------------------------------*\
| =========                 |                                                 |
| \\      /  F ield         | OpenFOAM: The Open Source CFD Toolbox           |
|  \\    /   O peration     | Version:  4.x                                   |
|   \\  /    A nd           | Web:      www.OpenFOAM.org                      |
|    \\/     M anipulation  |                                                 |
\*---------------------------------------------------------------------------*/
FoamFile
{
    version     2.0;
    format      ascii;
    class       volScalarField;
    location    "14.5";
    object      SPartFluid;
}
// * * * * * * * * * * * * * * * * * * * * * * * * * * * * * * * * * * * * * //

dimensions      [1 -3 -1 0 0 0 0];

internalField   nonuniform List<scalar> 
108
(
6.97208e-65
3.25354e-65
5.8109e-65
2.55721e-65
4.10757e-65
3.02249e-65
4.72723e-65
4.26194e-65
4.18503e-65
5.19168e-65
7.7489e-65
4.1072e-65
4.6498e-65
5.42507e-65
3.875e-65
5.5023e-65
5.11463e-65
5.2701e-65
5.50237e-65
5.19238e-65
6.19994e-65
3.72e-65
4.80515e-65
3.79757e-65
5.73507e-65
5.26994e-65
4.02991e-65
4.65e-65
3.56505e-65
4.10754e-65
5.8898e-65
4.72708e-65
4.72747e-65
3.17769e-65
5.34768e-65
4.41758e-65
7.51261e-65
6.27259e-65
8.9855e-65
8.52248e-65
7.59433e-65
6.27717e-65
6.04447e-65
6.58678e-65
8.91196e-65
6.66343e-65
6.1986e-65
7.51614e-65
7.28415e-65
6.81969e-65
6.27713e-65
8.60198e-65
7.05198e-65
6.97456e-65
1.03843e-64
7.51726e-65
7.43972e-65
8.44714e-65
6.81989e-65
7.36233e-65
6.58751e-65
7.2073e-65
7.90467e-65
7.74981e-65
5.65758e-65
6.35493e-65
6.50961e-65
8.05975e-65
5.65751e-65
6.74286e-65
6.82018e-65
5.65747e-65
7.6658e-65
8.98001e-65
8.82784e-65
8.52157e-65
6.12163e-65
6.27678e-65
8.52423e-65
7.12924e-65
7.43902e-65
9.06398e-65
5.03601e-65
7.74769e-65
4.3391e-65
4.64968e-65
7.90446e-65
7.28448e-65
8.83429e-65
6.12193e-65
5.65677e-65
8.29218e-65
8.21443e-65
5.81201e-65
6.81968e-65
7.98225e-65
6.66486e-65
7.20713e-65
5.42469e-65
5.7348e-65
3.87509e-65
5.42507e-65
6.12237e-65
5.57992e-65
7.13003e-65
6.20013e-65
7.90499e-65
8.52469e-65
)
;

boundaryField
{
    inlet
    {
        type            calculated;
        value           nonuniform 0();
    }
    outlet
    {
        type            calculated;
        value           uniform 0;
    }
    wall
    {
        type            calculated;
        value           uniform 0;
    }
    procBoundary3to1
    {
        type            processor;
        value           nonuniform List<scalar> 
27
(
3.48439e-65
5.49803e-65
5.8095e-65
7.12838e-65
5.50213e-65
4.33989e-65
4.95978e-65
4.57224e-65
4.4948e-65
8.12189e-65
6.57768e-65
6.19446e-65
5.26768e-65
5.26939e-65
7.36196e-65
8.05944e-65
1.03066e-64
4.88205e-65
7.88154e-65
6.33979e-65
5.10732e-65
9.0615e-65
8.29047e-65
8.75652e-65
6.81936e-65
7.90431e-65
3.48714e-65
)
;
    }
    procBoundary3to2
    {
        type            processor;
        value           nonuniform List<scalar> 
12
(
2.63404e-65
3.95215e-65
5.26988e-65
3.0998e-65
9.37223e-65
5.19169e-65
5.96727e-65
4.26209e-65
7.97556e-65
4.8808e-65
8.36895e-65
8.91125e-65
)
;
    }
    procBoundary3to7
    {
        type            processor;
        value           nonuniform List<scalar> 
36
(
9.91153e-65
7.82107e-65
6.4285e-65
6.7404e-65
1.03058e-64
1.03839e-64
7.98163e-65
5.65699e-65
8.36909e-65
7.67033e-65
9.45182e-65
7.28278e-65
6.89585e-65
8.29193e-65
5.65713e-65
7.82669e-65
6.35446e-65
8.05925e-65
5.50188e-65
7.3619e-65
6.1994e-65
7.12939e-65
7.43981e-65
8.05988e-65
7.20732e-65
7.2071e-65
8.6019e-65
5.26959e-65
7.12999e-65
8.75744e-65
5.50233e-65
7.28489e-65
6.74257e-65
7.90501e-65
5.8899e-65
4.33986e-65
)
;
    }
}


// ************************************************************************* //
