/*--------------------------------*- C++ -*----------------------------------*\
| =========                 |                                                 |
| \\      /  F ield         | OpenFOAM: The Open Source CFD Toolbox           |
|  \\    /   O peration     | Version:  4.x                                   |
|   \\  /    A nd           | Web:      www.OpenFOAM.org                      |
|    \\/     M anipulation  |                                                 |
\*---------------------------------------------------------------------------*/
FoamFile
{
    version     2.0;
    format      ascii;
    class       volScalarField;
    location    "14.5";
    object      thCond;
}
// * * * * * * * * * * * * * * * * * * * * * * * * * * * * * * * * * * * * * //

dimensions      [1 1 -3 -1 0 0 0];

internalField   nonuniform List<scalar> 
108
(
191.866
191.964
191.713
191.967
191.904
191.97
191.681
191.665
191.694
191.845
191.531
191.735
191.799
191.74
191.836
191.528
191.503
191.524
191.885
191.77
191.659
191.822
191.767
191.828
191.576
191.529
191.668
192.234
192.203
191.984
191.715
191.758
191.831
191.892
191.63
191.741
191.075
191.073
190.756
190.79
190.888
190.934
190.788
190.71
190.627
191.108
191.026
190.842
190.886
190.927
190.885
190.593
190.634
190.677
190.927
190.994
190.905
190.846
190.907
190.847
190.786
190.7
190.704
191.352
191.436
191.234
191.058
190.894
191.036
190.932
190.83
190.948
190.422
190.245
190.15
190.138
190.25
190.142
189.941
190.053
190.127
190.414
190.492
190.28
190.538
190.458
190.107
189.987
189.914
190.152
190.732
190.47
190.361
190.512
190.356
190.114
190.137
190.086
190.256
191.012
191.053
190.774
190.648
190.52
190.3
190.275
190.122
190.135
)
;

boundaryField
{
    inlet
    {
        type            zeroGradient;
    }
    outlet
    {
        type            zeroGradient;
    }
    wall
    {
        type            zeroGradient;
    }
    procBoundary3to1
    {
        type            processor;
        value           nonuniform List<scalar> 
27
(
192.335
192.091
191.857
191.71
191.818
191.823
191.617
191.672
191.865
191.313
191.33
191.23
191.161
191.111
190.868
190.655
190.552
191.158
190.695
190.655
190.657
190.25
190.205
190.084
190.119
190.161
190.69
)
;
    }
    procBoundary3to2
    {
        type            processor;
        value           nonuniform List<scalar> 
12
(
192.42
192.263
192.236
192.649
191.225
191.475
191.47
191.831
190.734
190.887
190.718
190.87
)
;
    }
    procBoundary3to7
    {
        type            processor;
        value           nonuniform List<scalar> 
36
(
189.945
189.898
189.954
189.812
189.462
189.393
189.499
189.735
189.559
190.104
189.793
189.882
189.885
189.65
189.71
189.567
189.666
189.581
190.459
190.076
190.053
189.987
189.783
189.623
189.629
189.688
189.65
190.705
190.301
190.039
190.187
189.935
189.84
189.728
189.933
190.191
)
;
    }
}


// ************************************************************************* //
