/*--------------------------------*- C++ -*----------------------------------*\
| =========                 |                                                 |
| \\      /  F ield         | OpenFOAM: The Open Source CFD Toolbox           |
|  \\    /   O peration     | Version:  4.x                                   |
|   \\  /    A nd           | Web:      www.OpenFOAM.org                      |
|    \\/     M anipulation  |                                                 |
\*---------------------------------------------------------------------------*/
FoamFile
{
    version     2.0;
    format      ascii;
    class       volScalarField;
    location    "14.5";
    object      Deff;
}
// * * * * * * * * * * * * * * * * * * * * * * * * * * * * * * * * * * * * * //

dimensions      [0 2 -1 0 0 0 0];

internalField   nonuniform List<scalar> 
108
(
9.87798e-08
9.85535e-08
9.83924e-08
9.83806e-08
9.83258e-08
9.82984e-08
9.81893e-08
9.81363e-08
9.79599e-08
9.85655e-08
9.8463e-08
9.83009e-08
9.81602e-08
9.81332e-08
9.81375e-08
9.81285e-08
9.80959e-08
9.7912e-08
9.85294e-08
9.83297e-08
9.82335e-08
9.80795e-08
9.80796e-08
9.80821e-08
9.80355e-08
9.79132e-08
9.79907e-08
9.85573e-08
9.83867e-08
9.81987e-08
9.81344e-08
9.80116e-08
9.79917e-08
9.7863e-08
9.79918e-08
9.79885e-08
9.87578e-08
9.86041e-08
9.83886e-08
9.82384e-08
9.82158e-08
9.82419e-08
9.82116e-08
9.80185e-08
9.7883e-08
9.86342e-08
9.84523e-08
9.83407e-08
9.82086e-08
9.81648e-08
9.81262e-08
9.80602e-08
9.79373e-08
9.78558e-08
9.85923e-08
9.83587e-08
9.81662e-08
9.8052e-08
9.79912e-08
9.79741e-08
9.79561e-08
9.79158e-08
9.79056e-08
9.84078e-08
9.82765e-08
9.81804e-08
9.79616e-08
9.7892e-08
9.78966e-08
9.77921e-08
9.78713e-08
9.79021e-08
9.87591e-08
9.8541e-08
9.85258e-08
9.83011e-08
9.82298e-08
9.80418e-08
9.80379e-08
9.80303e-08
9.79796e-08
9.86274e-08
9.83365e-08
9.83612e-08
9.82741e-08
9.81711e-08
9.80382e-08
9.80374e-08
9.80145e-08
9.79109e-08
9.85291e-08
9.8289e-08
9.81709e-08
9.80736e-08
9.80691e-08
9.79765e-08
9.79852e-08
9.79277e-08
9.7944e-08
9.83631e-08
9.82775e-08
9.82052e-08
9.79915e-08
9.79312e-08
9.78158e-08
9.79955e-08
9.80127e-08
9.79657e-08
)
;

boundaryField
{
    inlet
    {
        type            calculated;
        value           uniform 0;
    }
    outlet
    {
        type            calculated;
        value           nonuniform 0();
    }
    wall
    {
        type            calculated;
        value           uniform 0;
    }
    procBoundary4to0
    {
        type            processor;
        value           uniform 0;
    }
    procBoundary4to5
    {
        type            processor;
        value           uniform 0;
    }
    procBoundary4to6
    {
        type            processor;
        value           uniform 0;
    }
}


// ************************************************************************* //
