/*--------------------------------*- C++ -*----------------------------------*\
| =========                 |                                                 |
| \\      /  F ield         | OpenFOAM: The Open Source CFD Toolbox           |
|  \\    /   O peration     | Version:  4.x                                   |
|   \\  /    A nd           | Web:      www.OpenFOAM.org                      |
|    \\/     M anipulation  |                                                 |
\*---------------------------------------------------------------------------*/
FoamFile
{
    version     2.0;
    format      ascii;
    class       volScalarField;
    location    "14.5";
    object      thCond;
}
// * * * * * * * * * * * * * * * * * * * * * * * * * * * * * * * * * * * * * //

dimensions      [1 1 -3 -1 0 0 0];

internalField   nonuniform List<scalar> 
108
(
191.749
191.31
190.997
190.974
190.868
190.814
190.603
190.5
190.158
191.333
191.134
190.819
190.546
190.494
190.502
190.485
190.421
190.064
191.263
190.875
190.689
190.39
190.39
190.395
190.304
190.067
190.217
191.317
190.986
190.621
190.496
190.258
190.219
189.969
190.219
190.213
191.706
191.408
190.99
190.698
190.654
190.705
190.646
190.271
190.008
191.466
191.113
190.897
190.64
190.555
190.48
190.352
190.114
189.955
191.385
190.932
190.558
190.336
190.218
190.185
190.15
190.072
190.052
191.027
190.772
190.586
190.161
190.026
190.035
189.832
189.985
190.045
191.709
191.286
191.256
190.82
190.681
190.317
190.309
190.294
190.196
191.453
190.888
190.936
190.767
190.567
190.309
190.308
190.264
190.062
191.262
190.796
190.567
190.378
190.369
190.19
190.207
190.095
190.127
190.94
190.774
190.634
190.219
190.102
189.878
190.227
190.26
190.169
)
;

boundaryField
{
    inlet
    {
        type            zeroGradient;
    }
    outlet
    {
        type            zeroGradient;
    }
    wall
    {
        type            zeroGradient;
    }
    procBoundary4to0
    {
        type            processor;
        value           nonuniform List<scalar> 
36
(
192.097
191.759
191.429
191.328
191.156
190.995
191.118
191.175
190.999
191.774
191.332
191.111
191.007
190.954
190.851
190.646
190.757
190.716
191.726
191.411
190.962
190.829
190.649
190.483
190.547
190.701
190.506
191.572
191.241
190.766
190.512
190.687
190.306
190.388
190.632
190.746
)
;
    }
    procBoundary4to5
    {
        type            processor;
        value           nonuniform List<scalar> 
12
(
190.345
190.141
189.973
189.781
190.23
190.172
190.012
190.022
190.703
190.248
190.105
189.969
)
;
    }
    procBoundary4to6
    {
        type            processor;
        value           nonuniform List<scalar> 
27
(
190.716
190.738
190.743
190.369
190.121
190.265
190.128
190.174
190.013
190.857
190.698
190.509
190.262
190.29
190.146
190.087
190.136
189.966
191.22
191.024
190.698
190.359
190.215
190.102
189.939
189.991
190.324
)
;
    }
}


// ************************************************************************* //
