/*--------------------------------*- C++ -*----------------------------------*\
| =========                 |                                                 |
| \\      /  F ield         | OpenFOAM: The Open Source CFD Toolbox           |
|  \\    /   O peration     | Version:  4.x                                   |
|   \\  /    A nd           | Web:      www.OpenFOAM.org                      |
|    \\/     M anipulation  |                                                 |
\*---------------------------------------------------------------------------*/
FoamFile
{
    version     2.0;
    format      ascii;
    class       volScalarField;
    location    "2";
    object      Cs;
}
// * * * * * * * * * * * * * * * * * * * * * * * * * * * * * * * * * * * * * //

dimensions      [1 -3 0 0 0 0 0];

internalField   nonuniform List<scalar> 
114
(
334.364
334.476
334.635
334.764
334.913
335.046
334.771
334.448
334.246
334.252
334.435
334.633
334.799
334.922
335.036
334.732
334.396
334.236
334.266
334.4
334.58
334.744
334.868
334.966
334.74
334.458
334.302
334.292
334.359
334.453
334.554
334.658
334.755
334.809
334.901
334.985
335.065
334.883
334.69
334.586
334.647
334.733
334.827
334.924
335.008
335.087
334.865
334.689
334.595
334.617
334.695
334.781
334.875
334.971
335.054
334.864
334.702
334.593
334.57
334.598
334.645
334.699
334.764
334.831
335.018
335.057
334.935
334.828
334.759
334.786
334.847
334.909
334.974
335.045
335.1
334.928
334.831
334.767
334.767
334.812
334.871
334.937
335.017
335.081
334.925
334.83
334.755
334.73
334.739
334.761
334.794
334.835
334.882
334.962
334.915
334.872
334.877
334.907
334.926
335.002
335.066
334.961
334.91
334.869
334.863
334.884
334.915
334.967
334.959
334.907
334.859
334.84
334.839
334.84
)
;

boundaryField
{
    inlet
    {
        type            calculated;
        value           uniform 335;
    }
    outlet
    {
        type            calculated;
        value           nonuniform 0();
    }
    wall
    {
        type            calculated;
        value           nonuniform List<scalar> 
66
(
334.771
334.732
334.74
334.448
334.396
334.458
334.246
334.236
334.302
334.364
334.252
334.266
334.292
334.476
334.435
334.4
334.359
334.635
334.633
334.58
334.453
334.764
334.799
334.744
334.554
334.913
334.922
334.868
334.658
335.046
335.036
334.966
334.755
334.74
334.864
334.925
334.959
334.458
334.702
334.83
334.907
334.302
334.593
334.755
334.859
334.292
334.57
334.73
334.84
334.359
334.598
334.739
334.839
334.453
334.645
334.761
334.84
334.554
334.699
334.794
334.658
334.764
334.835
334.755
334.831
334.882
)
;
    }
    procBoundary2to0
    {
        type            processor;
        value           nonuniform List<scalar> 
44
(
334.326
334.489
334.607
334.722
334.894
335.069
334.793
334.459
334.332
334.332
334.655
334.7
334.855
334.964
335.065
335.168
334.882
334.684
334.604
334.655
334.7
334.7
334.898
334.956
335.081
335.163
334.931
334.812
334.753
334.783
334.843
334.898
334.956
334.956
335.029
335.082
334.952
334.873
334.832
334.85
334.891
334.907
334.97
335.029
)
;
    }
    procBoundary2to3
    {
        type            processor;
        value           nonuniform List<scalar> 
12
(
335.175
335.156
335.079
334.841
335.17
335.178
335.142
334.901
335.091
335.144
335.128
334.927
)
;
    }
    procBoundary2to6
    {
        type            processor;
        value           nonuniform List<scalar> 
32
(
335.089
335.028
335.087
334.857
334.881
334.912
334.968
334.922
334.894
334.894
334.916
334.975
335.024
335.089
335.028
335.072
334.971
334.929
334.899
334.898
334.922
334.954
335.028
334.857
335.002
334.97
334.932
334.896
334.862
334.881
334.857
334.876
)
;
    }
}


// ************************************************************************* //
