/*--------------------------------*- C++ -*----------------------------------*\
| =========                 |                                                 |
| \\      /  F ield         | OpenFOAM: The Open Source CFD Toolbox           |
|  \\    /   O peration     | Version:  4.x                                   |
|   \\  /    A nd           | Web:      www.OpenFOAM.org                      |
|    \\/     M anipulation  |                                                 |
\*---------------------------------------------------------------------------*/
FoamFile
{
    version     2.0;
    format      ascii;
    class       volScalarField;
    location    "2";
    object      nu;
}
// * * * * * * * * * * * * * * * * * * * * * * * * * * * * * * * * * * * * * //

dimensions      [0 2 -1 0 0 0 0];

internalField   nonuniform List<scalar> 
114
(
1.0019e-06
1.00157e-06
1.00109e-06
1.00071e-06
1.00026e-06
9.99864e-07
1.00068e-06
1.00165e-06
1.00226e-06
1.00224e-06
1.00169e-06
1.0011e-06
1.0006e-06
1.00023e-06
9.99892e-07
1.0008e-06
1.00181e-06
1.00229e-06
1.0022e-06
1.0018e-06
1.00126e-06
1.00077e-06
1.00039e-06
1.0001e-06
1.00078e-06
1.00162e-06
1.00209e-06
1.00212e-06
1.00192e-06
1.00163e-06
1.00133e-06
1.00102e-06
1.00073e-06
1.00057e-06
1.00029e-06
1.00005e-06
9.99806e-07
1.00035e-06
1.00093e-06
1.00124e-06
1.00106e-06
1.0008e-06
1.00052e-06
1.00023e-06
9.99977e-07
9.99742e-07
1.0004e-06
1.00093e-06
1.00121e-06
1.00114e-06
1.00091e-06
1.00065e-06
1.00037e-06
1.00009e-06
9.99839e-07
1.00041e-06
1.00089e-06
1.00122e-06
1.00128e-06
1.0012e-06
1.00106e-06
1.0009e-06
1.0007e-06
1.00051e-06
9.99947e-07
9.99828e-07
1.00019e-06
1.00051e-06
1.00072e-06
1.00064e-06
1.00046e-06
1.00027e-06
1.00008e-06
9.99867e-07
9.99702e-07
1.00022e-06
1.0005e-06
1.0007e-06
1.0007e-06
1.00056e-06
1.00038e-06
1.00019e-06
9.9995e-07
9.99759e-07
1.00023e-06
1.00051e-06
1.00073e-06
1.00081e-06
1.00078e-06
1.00071e-06
1.00062e-06
1.00049e-06
1.00035e-06
1.00011e-06
1.00025e-06
1.00038e-06
1.00037e-06
1.00028e-06
1.00022e-06
9.99993e-07
9.99804e-07
1.00012e-06
1.00027e-06
1.00039e-06
1.00041e-06
1.00034e-06
1.00025e-06
1.0001e-06
1.00012e-06
1.00028e-06
1.00042e-06
1.00048e-06
1.00048e-06
1.00048e-06
)
;

boundaryField
{
    inlet
    {
        type            calculated;
        value           uniform 1e-06;
    }
    outlet
    {
        type            calculated;
        value           nonuniform 0();
    }
    wall
    {
        type            calculated;
        value           nonuniform List<scalar> 
66
(
1.00068e-06
1.0008e-06
1.00078e-06
1.00165e-06
1.00181e-06
1.00162e-06
1.00226e-06
1.00229e-06
1.00209e-06
1.0019e-06
1.00224e-06
1.0022e-06
1.00212e-06
1.00157e-06
1.00169e-06
1.0018e-06
1.00192e-06
1.00109e-06
1.0011e-06
1.00126e-06
1.00163e-06
1.00071e-06
1.0006e-06
1.00077e-06
1.00133e-06
1.00026e-06
1.00023e-06
1.00039e-06
1.00102e-06
9.99864e-07
9.99892e-07
1.0001e-06
1.00073e-06
1.00078e-06
1.00041e-06
1.00023e-06
1.00012e-06
1.00162e-06
1.00089e-06
1.00051e-06
1.00028e-06
1.00209e-06
1.00122e-06
1.00073e-06
1.00042e-06
1.00212e-06
1.00128e-06
1.00081e-06
1.00048e-06
1.00192e-06
1.0012e-06
1.00078e-06
1.00048e-06
1.00163e-06
1.00106e-06
1.00071e-06
1.00048e-06
1.00133e-06
1.0009e-06
1.00062e-06
1.00102e-06
1.0007e-06
1.00049e-06
1.00073e-06
1.00051e-06
1.00035e-06
)
;
    }
    procBoundary2to0
    {
        type            processor;
        value           nonuniform List<scalar> 
44
(
1.00202e-06
1.00153e-06
1.00117e-06
1.00083e-06
1.00032e-06
9.99794e-07
1.00062e-06
1.00162e-06
1.002e-06
1.002e-06
1.00103e-06
1.0009e-06
1.00043e-06
1.00011e-06
9.99806e-07
9.99498e-07
1.00035e-06
1.00095e-06
1.00118e-06
1.00103e-06
1.0009e-06
1.0009e-06
1.0003e-06
1.00013e-06
9.99758e-07
9.99514e-07
1.0002e-06
1.00056e-06
1.00074e-06
1.00065e-06
1.00047e-06
1.0003e-06
1.00013e-06
1.00013e-06
9.99914e-07
9.99756e-07
1.00014e-06
1.00038e-06
1.0005e-06
1.00045e-06
1.00033e-06
1.00028e-06
1.00009e-06
9.99914e-07
)
;
    }
    procBoundary2to3
    {
        type            processor;
        value           nonuniform List<scalar> 
12
(
9.99478e-07
9.99534e-07
9.99764e-07
1.00048e-06
9.99492e-07
9.9947e-07
9.99577e-07
1.0003e-06
9.99727e-07
9.99571e-07
9.99618e-07
1.00022e-06
)
;
    }
    procBoundary2to6
    {
        type            processor;
        value           nonuniform List<scalar> 
32
(
9.99735e-07
9.99916e-07
9.99742e-07
1.00043e-06
1.00035e-06
1.00026e-06
1.0001e-06
1.00023e-06
1.00032e-06
1.00032e-06
1.00025e-06
1.00008e-06
9.99929e-07
9.99735e-07
9.99916e-07
9.99784e-07
1.00009e-06
1.00021e-06
1.0003e-06
1.0003e-06
1.00023e-06
1.00014e-06
9.99916e-07
1.00043e-06
9.99994e-07
1.00009e-06
1.0002e-06
1.00031e-06
1.00041e-06
1.00036e-06
1.00043e-06
1.00037e-06
)
;
    }
}


// ************************************************************************* //
