/*--------------------------------*- C++ -*----------------------------------*\
| =========                 |                                                 |
| \\      /  F ield         | OpenFOAM: The Open Source CFD Toolbox           |
|  \\    /   O peration     | Version:  4.x                                   |
|   \\  /    A nd           | Web:      www.OpenFOAM.org                      |
|    \\/     M anipulation  |                                                 |
\*---------------------------------------------------------------------------*/
FoamFile
{
    version     2.0;
    format      ascii;
    class       surfaceScalarField;
    location    "21.5";
    object      phi;
}
// * * * * * * * * * * * * * * * * * * * * * * * * * * * * * * * * * * * * * //

dimensions      [0 3 -1 0 0 0 0];

internalField   nonuniform List<scalar> 
259
(
1.01019e-05
2.17491e-09
1.07044e-05
6.7062e-09
1.09767e-05
-3.55867e-08
-3.18457e-07
1.14783e-05
-3.24821e-08
-5.85215e-07
1.17363e-05
-4.71942e-08
-2.51197e-07
-1.07006e-08
-4.07428e-07
8.60496e-06
1.94715e-07
-6.92013e-07
8.87904e-06
9.70338e-08
-3.82855e-07
9.43522e-06
2.13058e-07
-7.63328e-07
9.64871e-06
1.21396e-07
-3.32715e-07
1.00958e-05
1.78087e-07
-6.18485e-07
1.02903e-05
4.90317e-08
-2.79081e-07
1.06777e-05
8.45009e-08
-5.04373e-07
1.08823e-05
-5.0345e-08
-2.01485e-07
1.67882e-08
-3.91706e-07
8.78902e-06
2.87666e-07
-7.1871e-07
9.14444e-06
1.51097e-07
-4.09475e-07
9.85479e-06
2.83059e-07
-7.80358e-07
1.01716e-05
1.59646e-07
-3.55066e-07
1.07231e-05
2.55905e-07
-6.29261e-07
1.09558e-05
1.02407e-07
-2.86095e-07
1.138e-05
1.74576e-07
-5.14293e-07
1.15533e-05
3.68373e-09
-2.27359e-07
8.75867e-08
-4.12576e-07
9.08076e-06
-6.2983e-07
9.62401e-06
-3.92152e-07
1.05699e-05
-6.62845e-07
1.11087e-05
-3.79137e-07
1.1914e-05
-5.49396e-07
1.23668e-05
-3.5042e-07
1.29887e-05
-4.47302e-07
1.32744e-05
-2.82061e-07
-4.01342e-07
7.41294e-06
6.03423e-09
7.22494e-06
4.04331e-08
7.16972e-06
-1.60708e-08
-1.97583e-07
5.64943e-08
-3.22826e-07
8.08098e-06
2.51629e-07
-8.42918e-07
8.02669e-06
1.03884e-07
-4.45352e-07
7.87164e-06
2.65485e-07
-8.50125e-07
7.78242e-06
1.1914e-07
-3.38751e-07
7.63085e-06
2.63247e-07
-6.4397e-07
7.55848e-06
6.3975e-08
-2.64651e-07
7.41185e-06
1.66991e-07
-4.84306e-07
7.43755e-06
-2.12094e-08
-2.22037e-07
8.57652e-08
-3.3904e-07
8.1893e-06
3.47136e-07
-8.40247e-07
8.17022e-06
1.80755e-07
-4.6727e-07
8.15516e-06
3.69942e-07
-8.6976e-07
8.13928e-06
1.62596e-07
-3.82637e-07
8.12161e-06
3.29756e-07
-6.78106e-07
8.09091e-06
1.12696e-07
-3.0411e-07
7.99398e-06
2.69191e-07
-5.19569e-07
7.94612e-06
4.3799e-08
-2.44503e-07
2.06387e-07
-3.38988e-07
8.64905e-06
-7.68481e-07
8.91708e-06
-4.79425e-07
9.4233e-06
-7.99122e-07
9.68393e-06
-4.77168e-07
1.01276e-05
-6.63313e-07
1.03453e-05
-4.55426e-07
1.06994e-05
-5.32193e-07
1.08915e-05
-4.30357e-07
-4.7225e-07
5.41152e-06
-7.5403e-09
-4.81089e-08
7.78118e-06
3.22503e-07
-6.96501e-07
7.58216e-06
1.29212e-07
-3.45588e-07
7.11434e-06
3.29208e-07
-6.20773e-07
6.93265e-06
1.09331e-07
-2.43455e-07
6.51754e-06
2.79316e-07
-4.2738e-07
6.35512e-06
5.04932e-08
-1.60761e-07
5.97624e-06
1.47271e-07
-2.62537e-07
5.87612e-06
2.13017e-08
-1.50752e-07
5.20867e-08
7.91446e-06
3.76226e-07
-6.45161e-07
7.73367e-06
1.88962e-07
-3.46237e-07
7.35215e-06
4.35247e-07
-5.94272e-07
7.18328e-06
1.75426e-07
-2.79863e-07
6.84482e-06
3.87313e-07
-4.47647e-07
6.69212e-06
1.08286e-07
-2.092e-07
6.29148e-06
3.14332e-07
-2.85995e-07
6.15863e-06
8.5808e-08
2.22533e-07
8.36784e-06
-5.96826e-07
8.45843e-06
-3.81056e-07
8.70715e-06
-6.12591e-07
8.81325e-06
-4.07845e-07
9.06877e-06
-5.31521e-07
9.07131e-06
-3.49681e-07
9.23369e-06
9.27819e-06
7.66184e-06
3.20744e-07
7.42069e-06
1.64178e-07
7.00813e-06
3.43738e-07
6.89368e-06
1.13535e-07
6.64456e-06
2.674e-07
6.57632e-06
8.76372e-08
6.38921e-06
2.17183e-07
7.81464e-06
4.12044e-07
7.63992e-06
2.09508e-07
7.34367e-06
4.06462e-07
7.22847e-06
1.56669e-07
7.01481e-06
3.33535e-07
6.93684e-06
1.27115e-07
8.36043e-06
8.45117e-06
8.66145e-06
8.74719e-06
8.95968e-06
)
;

boundaryField
{
    inlet
    {
        type            calculated;
        value           nonuniform List<scalar> 
12
(
-8.16327e-06
-8.16327e-06
-8.16327e-06
-8.16327e-06
-8.16327e-06
-8.16327e-06
-8.16327e-06
-8.16327e-06
-8.16327e-06
-8.16327e-06
-8.16327e-06
-8.16327e-06
)
;
    }
    outlet
    {
        type            calculated;
        value           nonuniform 0();
    }
    wall
    {
        type            calculated;
        value           uniform 0;
    }
    procBoundary2to0
    {
        type            processor;
        value           nonuniform List<scalar> 
44
(
1.2426e-07
1.42448e-07
8.17179e-08
1.16089e-07
4.04434e-08
6.73072e-08
5.56002e-08
1.17452e-08
-9.84257e-06
-5.90965e-09
-3.85729e-07
-7.51697e-07
4.87032e-08
1.00968e-07
1.76728e-08
5.44155e-08
-1.84378e-08
1.29057e-08
-2.3641e-08
-2.38892e-08
-7.53295e-06
-8.61905e-08
-2.53182e-07
-5.38613e-07
1.59121e-08
6.04165e-08
-8.6835e-08
-2.99518e-08
-9.07462e-08
-2.2932e-08
-8.07993e-08
8.03902e-09
-5.51087e-06
9.83703e-09
-1.06602e-07
-1.58047e-07
-4.46417e-08
-5.0684e-08
-1.24454e-07
-6.1503e-08
-1.24232e-07
-6.21661e-08
-9.13664e-08
-6.71268e-08
)
;
    }
    procBoundary2to3
    {
        type            processor;
        value           nonuniform List<scalar> 
12
(
1.20871e-05
1.12465e-05
1.18951e-05
1.37634e-05
6.97421e-06
7.35561e-06
7.75191e-06
1.11688e-05
5.23443e-06
5.49571e-06
5.77462e-06
9.36136e-06
)
;
    }
    procBoundary2to6
    {
        type            processor;
        value           nonuniform List<scalar> 
32
(
-5.88292e-08
-1.76157e-07
-1.25421e-07
-3.80243e-07
-3.89041e-07
-3.32888e-07
-4.7118e-07
-2.17934e-07
-4.2749e-07
-1.8104e-07
-3.21434e-07
-1.17992e-07
-2.01238e-07
6.32335e-06
7.81366e-08
-9.59058e-08
-3.87841e-07
-2.16846e-07
-3.60742e-07
-2.07796e-07
-3.00125e-07
-1.70703e-07
6.82001e-06
2.77058e-07
-2.29044e-07
-3.81948e-07
-2.62282e-07
-4.16415e-07
-3.36917e-07
-4.10471e-07
9.05169e-06
-3.14579e-07
)
;
    }
}


// ************************************************************************* //
