/*--------------------------------*- C++ -*----------------------------------*\
| =========                 |                                                 |
| \\      /  F ield         | OpenFOAM: The Open Source CFD Toolbox           |
|  \\    /   O peration     | Version:  4.x                                   |
|   \\  /    A nd           | Web:      www.OpenFOAM.org                      |
|    \\/     M anipulation  |                                                 |
\*---------------------------------------------------------------------------*/
FoamFile
{
    version     2.0;
    format      ascii;
    class       volScalarField;
    location    "21.5";
    object      Sm;
}
// * * * * * * * * * * * * * * * * * * * * * * * * * * * * * * * * * * * * * //

dimensions      [1 -3 -1 0 0 0 0];

internalField   nonuniform List<scalar> 
114
(
6.51002e-65
4.88251e-65
2.55748e-65
4.88246e-65
2.24747e-65
2.63496e-65
5.73507e-65
6.51006e-65
5.11504e-65
3.79751e-65
6.2e-65
4.41748e-65
5.88995e-65
6.12242e-65
3.95246e-65
4.03005e-65
5.65756e-65
4.57254e-65
4.96002e-65
4.49501e-65
4.57249e-65
5.34748e-65
4.41746e-65
5.26995e-65
4.41756e-65
4.26255e-65
4.65005e-65
4.57254e-65
3.33252e-65
3.79752e-65
2.7125e-65
4.80499e-65
3.1e-65
8.44742e-65
9.76486e-65
5.73489e-65
9.22229e-65
5.42506e-65
6.82006e-65
7.67254e-65
7.82751e-65
6.97498e-65
6.27744e-65
8.98988e-65
7.59486e-65
5.1924e-65
6.04507e-65
8.60258e-65
8.29256e-65
7.59502e-65
7.43999e-65
7.28497e-65
7.05244e-65
7.43991e-65
5.96741e-65
5.89007e-65
5.19256e-65
6.97506e-65
5.81253e-65
6.89752e-65
5.88999e-65
5.88998e-65
6.50995e-65
4.26247e-65
7.5948e-65
8.13727e-65
7.28508e-65
4.96004e-65
5.50252e-65
6.04499e-65
5.57996e-65
7.12991e-65
8.36986e-65
6.58735e-65
4.88237e-65
5.34756e-65
6.04506e-65
7.13004e-65
9.06751e-65
7.28497e-65
6.43244e-65
7.5174e-65
7.43988e-65
8.36982e-65
5.34756e-65
7.51757e-65
6.04505e-65
6.97502e-65
4.65001e-65
6.50997e-65
8.29245e-65
4.95994e-65
6.66491e-65
4.80505e-65
8.13756e-65
8.37003e-65
6.58749e-65
6.81995e-65
5.88992e-65
6.27738e-65
7.74979e-65
6.89758e-65
6.89756e-65
8.37005e-65
5.81251e-65
7.20747e-65
6.89743e-65
8.36989e-65
5.27006e-65
6.51006e-65
6.27754e-65
7.13002e-65
5.5025e-65
6.35496e-65
)
;

boundaryField
{
    inlet
    {
        type            calculated;
        value           uniform 0;
    }
    outlet
    {
        type            calculated;
        value           nonuniform 0();
    }
    wall
    {
        type            calculated;
        value           uniform 0;
    }
    procBoundary2to0
    {
        type            processor;
        value           nonuniform List<scalar> 
44
(
4.72751e-65
4.2625e-65
4.33998e-65
3.25497e-65
4.49495e-65
6.89741e-65
2.86754e-65
4.41754e-65
3.25503e-65
3.25503e-65
4.72749e-65
8.98996e-65
6.58745e-65
8.29239e-65
6.0449e-65
4.9599e-65
8.06009e-65
6.12255e-65
6.12253e-65
4.72749e-65
8.98996e-65
8.98996e-65
7.12991e-65
7.12985e-65
6.19984e-65
4.57238e-65
7.28508e-65
7.59506e-65
7.67252e-65
8.13749e-65
8.21494e-65
7.12991e-65
7.12985e-65
7.12985e-65
5.42485e-65
2.32492e-65
5.27006e-65
5.89005e-65
7.82753e-65
9.22248e-65
4.49497e-65
9.14486e-65
7.12984e-65
5.42485e-65
)
;
    }
    procBoundary2to3
    {
        type            processor;
        value           nonuniform List<scalar> 
12
(
6.97487e-65
5.19242e-65
5.50244e-65
4.64999e-65
7.51731e-65
6.66485e-65
1.03848e-64
7.74991e-65
7.67225e-65
9.06723e-65
5.11488e-65
8.52485e-65
)
;
    }
    procBoundary2to6
    {
        type            processor;
        value           nonuniform List<scalar> 
32
(
6.7423e-65
6.04489e-65
7.12983e-65
5.11496e-65
5.81243e-65
4.95992e-65
1.03851e-64
7.59506e-65
4.96002e-65
7.43999e-65
9.37742e-65
6.12241e-65
7.36237e-65
6.7423e-65
6.04489e-65
6.50984e-65
5.81256e-65
7.90507e-65
6.43253e-65
8.835e-65
7.05247e-65
7.82742e-65
6.04489e-65
5.11496e-65
7.0524e-65
4.96006e-65
7.20757e-65
5.42504e-65
6.12252e-65
7.595e-65
5.11496e-65
8.75745e-65
)
;
    }
}


// ************************************************************************* //
