/*--------------------------------*- C++ -*----------------------------------*\
| =========                 |                                                 |
| \\      /  F ield         | OpenFOAM: The Open Source CFD Toolbox           |
|  \\    /   O peration     | Version:  4.x                                   |
|   \\  /    A nd           | Web:      www.OpenFOAM.org                      |
|    \\/     M anipulation  |                                                 |
\*---------------------------------------------------------------------------*/
FoamFile
{
    version     2.0;
    format      ascii;
    class       volScalarField;
    location    "27.5";
    object      p_rgh;
}
// * * * * * * * * * * * * * * * * * * * * * * * * * * * * * * * * * * * * * //

dimensions      [1 -1 -2 0 0 0 0];

internalField   nonuniform List<scalar> 
132
(
109.308
93.1586
103.889
72.653
93.9556
55.9799
87.7466
37.7601
81.217
109.386
92.7641
102.705
74.108
94.7059
56.0526
87.9078
37.6236
81.1834
109.481
92.6884
102.616
74.6739
95.3027
56.353
88.2987
38.0459
81.5402
109.485
92.5316
102.654
109.788
93.0729
103.009
74.3501
94.9729
56.2825
88.2103
37.9624
81.5359
110.047
92.9895
103.074
74.702
95.463
56.3109
88.4338
37.75
81.6125
110.278
93.0168
103.296
75.0063
96.0426
56.5961
89.0166
37.961
82.2671
110.318
92.8516
103.341
75.0103
96.1137
110.373
93.1512
103.289
75.0273
95.7445
56.6812
88.5387
38.1451
81.5738
110.816
93.3087
103.737
75.2021
96.2592
56.7249
88.975
38.0508
81.829
111.227
93.5524
104.217
75.6134
96.6796
57.1262
89.0836
38.588
81.8374
111.463
93.7028
104.456
75.7922
96.9234
57.415
89.2082
110.594
93.3872
103.477
75.538
96.1292
57.3373
88.8509
39.0667
81.9945
111.17
93.6582
103.966
75.6737
96.4954
57.4913
89.1762
39.0388
82.168
111.534
93.9853
104.374
76.1556
96.8803
58.1873
89.4045
40.3742
82.3606
111.746
94.0986
104.564
76.1571
96.8867
58.2364
89.2395
40.2207
82.1466
)
;

boundaryField
{
    inlet
    {
        type            fixedFluxPressure;
        gradient        nonuniform List<scalar> 
16
(
-0.0252253
-0.0225881
-0.0201998
-0.0191455
-0.0134342
-0.0130411
-0.0123636
-0.011742
-0.00560212
-0.00557704
-0.00538735
-0.00519512
-2.32437e-07
-2.30626e-06
-5.20859e-06
-2.11268e-06
)
;
        value           nonuniform List<scalar> 
16
(
109.308
109.385
109.481
109.485
109.788
110.047
110.278
110.318
110.373
110.815
111.227
111.463
110.594
111.17
111.534
111.746
)
;
    }
    outlet
    {
        type            fixedValue;
        value           nonuniform 0();
    }
    wall
    {
        type            fixedFluxPressure;
        gradient        nonuniform List<scalar> 
66
(
1.55987e-05
2.55613e-05
2.0131e-05
2.80289e-05
6.55794e-05
0.00010415
0.000124384
0.000134823
3.75751e-05
5.55656e-05
6.55818e-05
7.32577e-05
8.5626e-05
0.000141024
0.000197054
6.6203e-05
0.000105252
0.00012121
0.000180276
0.000323179
0.000403096
0.000184344
0.000267785
0.000255497
0.000281464
0.000433956
0.000357815
0.000150938
0.000166854
0.000146948
-4.67179e-06
-3.12318e-06
-3.94066e-06
-6.93773e-06
-1.74897e-06
-1.27597e-05
-5.27977e-06
1.93153e-06
-9.936e-06
-1.05643e-05
-1.59488e-05
-1.51139e-05
4.13352e-05
3.52395e-05
-1.1191e-05
1.38029e-05
6.9182e-05
4.53108e-05
2.38216e-05
-3.33263e-06
0.000131479
7.50315e-05
6.26396e-05
7.67422e-06
6.9395e-05
3.80026e-05
4.88206e-05
2.97765e-05
7.69426e-05
0.000170865
7.43396e-05
3.4267e-05
3.27132e-05
2.40435e-06
-1.19034e-05
-6.4578e-06
)
;
        value           nonuniform List<scalar> 
66
(
109.308
109.386
109.481
109.485
93.1586
92.7641
92.6884
92.5316
103.889
102.705
102.616
102.654
72.653
74.108
74.6739
93.9556
94.7059
95.3027
55.9799
56.0526
56.353
87.7466
87.9078
88.2987
37.7601
37.6236
38.0459
81.217
81.1834
81.5402
109.308
109.788
110.373
110.594
93.1586
93.0729
93.1512
93.3872
103.889
103.009
103.289
103.477
72.653
74.3501
75.0273
75.538
93.9556
94.9729
95.7445
96.1292
55.9799
56.2825
56.6812
57.3373
87.7466
88.2103
88.5387
88.8509
37.7601
37.9624
38.1451
39.0667
81.217
81.5359
81.5738
81.9945
)
;
    }
    procBoundary0to1
    {
        type            processor;
        value           nonuniform List<scalar> 
12
(
19.3418
18.863
19.3543
19.3588
18.9146
19.456
19.5841
19.2453
20.4353
20.6862
20.6824
22.888
)
;
    }
    procBoundary0to2
    {
        type            processor;
        value           nonuniform List<scalar> 
44
(
74.7576
95.4253
56.3351
88.2954
37.6665
81.4794
109.37
92.4196
74.7576
102.587
74.7576
95.4253
56.4344
88.7926
37.4716
81.9159
110.205
92.9287
103.326
75.0786
56.4344
96.1303
56.4344
88.7926
38.9122
81.835
111.116
93.4303
104.107
75.6594
96.6604
57.504
38.9122
89.1547
38.9122
81.835
111.65
93.8935
104.38
75.9277
96.8714
57.8332
89.4268
39.7121
)
;
    }
    procBoundary0to4
    {
        type            processor;
        value           nonuniform List<scalar> 
36
(
110.996
93.5876
103.876
75.6786
96.4438
57.4294
89.0628
38.908
81.9076
111.651
93.886
104.513
75.8915
96.942
57.481
89.4453
38.9955
82.151
112.123
94.2079
104.855
76.259
97.1538
58.0038
89.5242
39.7553
82.0185
112.283
94.4783
105.059
76.6
97.3625
58.5067
89.6019
40.3982
82.2607
)
;
    }
    procBoundary0to6
    {
        type            processor;
        value           uniform 82.1705;
    }
    procBoundary0to7
    {
        type            processor;
        value           uniform 22.8071;
    }
}


// ************************************************************************* //
