/*--------------------------------*- C++ -*----------------------------------*\
| =========                 |                                                 |
| \\      /  F ield         | OpenFOAM: The Open Source CFD Toolbox           |
|  \\    /   O peration     | Version:  4.x                                   |
|   \\  /    A nd           | Web:      www.OpenFOAM.org                      |
|    \\/     M anipulation  |                                                 |
\*---------------------------------------------------------------------------*/
FoamFile
{
    version     2.0;
    format      ascii;
    class       volScalarField;
    location    "27.5";
    object      QPartFluid;
}
// * * * * * * * * * * * * * * * * * * * * * * * * * * * * * * * * * * * * * //

dimensions      [1 -1 -3 0 0 0 0];

internalField   nonuniform List<scalar> 
132
(
5.18558e+09
4.25927e+09
3.70163e+09
2.96856e+09
4.32537e+09
4.49409e+09
5.88978e+09
3.9482e+09
2.02654e+09
4.65158e+09
5.10553e+09
5.53276e+09
5.60772e+09
3.85289e+09
6.74278e+09
5.33648e+09
5.82005e+09
5.27064e+09
3.1166e+09
5.87874e+09
5.7503e+09
5.06861e+09
5.57432e+09
4.89896e+09
3.99752e+09
5.18066e+09
8.52277e+09
2.97851e+09
4.53267e+09
3.50806e+09
4.26745e+09
6.98051e+09
8.63965e+09
7.59142e+09
7.75149e+09
7.60898e+09
7.14134e+09
6.79039e+09
7.27603e+09
4.98155e+09
9.46422e+09
8.01861e+09
8.52724e+09
9.62803e+09
8.64537e+09
9.21677e+09
9.28266e+09
8.99305e+09
5.29681e+09
9.45833e+09
8.3971e+09
7.52218e+09
9.04729e+09
6.78039e+09
1.05174e+10
6.9006e+09
6.3418e+09
7.96204e+09
7.03771e+09
7.78628e+09
5.49994e+09
1.13064e+10
5.58684e+09
6.95758e+09
8.13223e+09
6.93737e+09
7.47757e+09
5.64646e+09
8.03152e+09
7.00317e+09
5.39283e+09
6.24751e+09
8.27397e+09
7.98243e+09
6.88939e+09
9.26323e+09
6.68265e+09
9.40545e+09
1.00308e+10
1.00831e+10
6.70055e+09
7.17537e+09
8.05402e+09
9.20129e+09
9.74674e+09
7.9054e+09
9.1093e+09
6.20109e+09
5.33464e+09
6.89708e+09
8.61745e+09
9.51193e+09
8.83058e+09
9.86252e+09
7.90531e+09
8.61372e+09
4.35045e+09
4.99951e+09
6.77018e+09
5.20753e+09
7.09694e+09
7.81962e+09
5.9264e+09
4.37136e+09
6.0725e+09
5.13447e+09
9.61005e+09
9.10175e+09
8.10358e+09
7.21725e+09
6.72152e+09
1.04793e+10
7.32221e+09
6.96487e+09
5.18501e+09
5.61677e+09
9.05336e+09
6.18959e+09
8.7111e+09
8.61846e+09
8.26084e+09
5.07139e+09
9.37313e+09
4.82591e+09
6.72692e+09
9.82538e+09
1.02271e+10
5.49629e+09
9.83463e+09
8.53151e+09
5.60579e+09
2.60569e+09
)
;

boundaryField
{
    inlet
    {
        type            calculated;
        value           uniform 0;
    }
    outlet
    {
        type            calculated;
        value           nonuniform 0();
    }
    wall
    {
        type            calculated;
        value           uniform 0;
    }
    procBoundary0to1
    {
        type            processor;
        value           nonuniform List<scalar> 
12
(
4.3257e+09
4.56876e+09
3.94749e+09
7.44673e+09
9.076e+09
7.84825e+09
7.05078e+09
6.35071e+09
9.17478e+09
6.59482e+09
7.95774e+09
5.90832e+09
)
;
    }
    procBoundary0to2
    {
        type            processor;
        value           nonuniform List<scalar> 
44
(
7.1339e+09
5.59031e+09
3.06401e+09
5.97673e+09
3.64479e+09
4.61113e+09
5.81493e+09
6.93781e+09
7.1339e+09
6.137e+09
7.1339e+09
5.59031e+09
9.83457e+09
1.2237e+10
6.61881e+09
1.12074e+10
4.73084e+09
7.94859e+09
9.60126e+09
9.21327e+09
9.83457e+09
8.91144e+09
9.83457e+09
1.2237e+10
7.73216e+09
9.14919e+09
6.86001e+09
5.74476e+09
6.74998e+09
6.88997e+09
6.77044e+09
7.76886e+09
7.73216e+09
9.8575e+09
7.73216e+09
9.14919e+09
4.89557e+09
9.5035e+09
1.03149e+10
7.2122e+09
8.25837e+09
6.33221e+09
7.60286e+09
7.70081e+09
)
;
    }
    procBoundary0to4
    {
        type            processor;
        value           nonuniform List<scalar> 
36
(
4.9269e+09
7.10225e+09
8.42542e+09
5.9653e+09
7.15007e+09
5.95891e+09
8.92269e+09
6.83054e+09
9.62549e+09
7.02137e+09
7.28453e+09
9.3906e+09
1.00182e+10
1.01179e+10
8.53374e+09
8.12106e+09
5.65919e+09
1.11333e+10
6.69029e+09
1.02821e+10
8.32268e+09
9.36992e+09
8.13433e+09
6.29798e+09
7.32269e+09
1.03719e+10
6.7581e+09
3.4596e+09
6.7359e+09
9.41304e+09
5.72958e+09
8.84288e+09
6.77212e+09
1.10882e+10
6.11853e+09
7.1003e+09
)
;
    }
    procBoundary0to6
    {
        type            processor;
        value           uniform 8.13028e+09;
    }
    procBoundary0to7
    {
        type            processor;
        value           uniform 1.02591e+10;
    }
}


// ************************************************************************* //
