/*--------------------------------*- C++ -*----------------------------------*\
| =========                 |                                                 |
| \\      /  F ield         | OpenFOAM: The Open Source CFD Toolbox           |
|  \\    /   O peration     | Version:  4.x                                   |
|   \\  /    A nd           | Web:      www.OpenFOAM.org                      |
|    \\/     M anipulation  |                                                 |
\*---------------------------------------------------------------------------*/
FoamFile
{
    version     2.0;
    format      ascii;
    class       volScalarField;
    location    "27.5";
    object      SPartFluid;
}
// * * * * * * * * * * * * * * * * * * * * * * * * * * * * * * * * * * * * * //

dimensions      [1 -3 -1 0 0 0 0];

internalField   nonuniform List<scalar> 
132
(
5.50257e-65
4.41755e-65
3.10003e-65
2.86752e-65
3.79753e-65
4.03002e-65
4.72752e-65
3.4875e-65
1.705e-65
4.88256e-65
4.72754e-65
4.57253e-65
5.11503e-65
3.17751e-65
5.81251e-65
4.41749e-65
4.95998e-65
3.95246e-65
2.71253e-65
5.34755e-65
4.72753e-65
4.72752e-65
4.26251e-65
4.33999e-65
3.25498e-65
4.49496e-65
6.89743e-65
2.86754e-65
4.41754e-65
3.25503e-65
4.18505e-65
6.66506e-65
8.06006e-65
7.05254e-65
6.82003e-65
7.13001e-65
5.73499e-65
6.43247e-65
6.19996e-65
5.42506e-65
7.98257e-65
6.27754e-65
7.20752e-65
7.285e-65
7.12999e-65
7.05246e-65
7.74993e-65
6.97491e-65
5.89007e-65
8.13757e-65
6.82003e-65
6.27751e-65
7.36249e-65
5.88998e-65
8.29243e-65
6.04493e-65
4.95992e-65
8.06009e-65
6.12255e-65
6.12253e-65
4.7275e-65
8.98999e-65
5.96757e-65
6.82007e-65
7.28505e-65
6.74253e-65
6.58752e-65
5.1925e-65
7.05248e-65
6.89746e-65
4.72746e-65
6.43257e-65
7.05257e-65
6.43254e-65
5.96752e-65
7.3625e-65
5.73498e-65
7.36245e-65
8.83491e-65
8.29239e-65
7.67259e-65
6.27755e-65
6.58753e-65
8.21501e-65
7.82749e-65
7.36246e-65
7.43993e-65
6.19991e-65
4.57242e-65
7.28508e-65
7.59506e-65
7.67253e-65
8.13751e-65
8.21498e-65
7.12997e-65
7.12993e-65
4.57256e-65
4.88255e-65
5.73505e-65
5.34753e-65
6.12252e-65
7.44e-65
4.80499e-65
4.10748e-65
4.95997e-65
5.50256e-65
8.13758e-65
7.28505e-65
6.74252e-65
5.8125e-65
5.96748e-65
8.36995e-65
6.58744e-65
5.50243e-65
4.57255e-65
4.96004e-65
7.28504e-65
5.73501e-65
7.28499e-65
8.05996e-65
6.74244e-65
5.11493e-65
8.05988e-65
5.27006e-65
5.89005e-65
7.98254e-65
9.06752e-65
4.495e-65
9.14496e-65
7.12994e-65
5.42494e-65
2.32496e-65
)
;

boundaryField
{
    inlet
    {
        type            calculated;
        value           uniform 0;
    }
    outlet
    {
        type            calculated;
        value           nonuniform 0();
    }
    wall
    {
        type            calculated;
        value           uniform 0;
    }
    procBoundary0to1
    {
        type            processor;
        value           nonuniform List<scalar> 
12
(
3.72e-65
3.64246e-65
3.48746e-65
6.66495e-65
7.20741e-65
7.12988e-65
7.05243e-65
5.57991e-65
8.91233e-65
6.58743e-65
7.0524e-65
5.73491e-65
)
;
    }
    procBoundary0to2
    {
        type            processor;
        value           nonuniform List<scalar> 
44
(
6.51003e-65
4.88251e-65
2.55749e-65
4.88248e-65
3.02247e-65
4.10746e-65
5.73507e-65
6.51006e-65
6.51003e-65
5.11504e-65
6.51003e-65
4.88251e-65
8.44746e-65
9.76492e-65
5.73493e-65
9.22237e-65
5.42506e-65
6.82006e-65
7.67254e-65
7.82752e-65
8.44746e-65
6.975e-65
8.44746e-65
9.76492e-65
7.59489e-65
8.13737e-65
7.28508e-65
4.96004e-65
5.50253e-65
6.12252e-65
5.58e-65
7.12997e-65
7.59489e-65
8.36995e-65
7.59489e-65
8.13737e-65
4.80505e-65
8.13757e-65
8.37005e-65
6.51002e-65
6.82e-65
5.88998e-65
6.27746e-65
7.74993e-65
)
;
    }
    procBoundary0to4
    {
        type            processor;
        value           nonuniform List<scalar> 
36
(
5.19256e-65
7.36258e-65
7.51757e-65
5.58004e-65
5.96753e-65
5.65752e-65
7.595e-65
6.74248e-65
8.91246e-65
7.75009e-65
6.35506e-65
7.36255e-65
8.60254e-65
8.21502e-65
7.5175e-65
6.35499e-65
5.42497e-65
9.06742e-65
6.97508e-65
8.75758e-65
6.66504e-65
8.44753e-65
6.66501e-65
5.96749e-65
6.12247e-65
9.68743e-65
5.65745e-65
4.34005e-65
5.73505e-65
7.59505e-65
5.19252e-65
7.3625e-65
6.35499e-65
9.22246e-65
5.96746e-65
5.96745e-65
)
;
    }
    procBoundary0to6
    {
        type            processor;
        value           uniform 6.74243e-65;
    }
    procBoundary0to7
    {
        type            processor;
        value           uniform 9.91986e-65;
    }
}


// ************************************************************************* //
