/*--------------------------------*- C++ -*----------------------------------*\
| =========                 |                                                 |
| \\      /  F ield         | OpenFOAM: The Open Source CFD Toolbox           |
|  \\    /   O peration     | Version:  4.x                                   |
|   \\  /    A nd           | Web:      www.OpenFOAM.org                      |
|    \\/     M anipulation  |                                                 |
\*---------------------------------------------------------------------------*/
FoamFile
{
    version     2.0;
    format      ascii;
    class       volVectorField;
    location    "27.5";
    object      UsNext;
}
// * * * * * * * * * * * * * * * * * * * * * * * * * * * * * * * * * * * * * //

dimensions      [0 1 -1 0 0 0 0];

internalField   nonuniform List<vector> 
132
(
(-5.49262e-10 7.01501e-10 -2.34224e-09)
(9.00417e-10 1.27358e-10 -4.77541e-09)
(1.3525e-08 1.60587e-09 -6.07293e-09)
(2.79645e-08 -3.91511e-09 -8.11016e-09)
(3.48363e-08 -1.18136e-08 -1.13049e-08)
(2.73072e-08 -1.432e-08 -1.96346e-08)
(2.8364e-08 -1.22538e-08 -3.25516e-08)
(8.54595e-09 -9.318e-09 -3.40863e-08)
(2.59118e-09 -6.21711e-09 -2.86858e-08)
(2.31587e-09 2.42215e-09 -3.81897e-09)
(1.25253e-08 -2.5998e-09 -7.05119e-09)
(2.6851e-08 -1.93188e-09 -8.61039e-09)
(3.38807e-08 -5.39814e-09 -1.17832e-08)
(4.45616e-08 -1.15928e-08 -1.70461e-08)
(4.61535e-08 -2.11334e-08 -3.06463e-08)
(6.81076e-08 -1.63083e-08 -4.4809e-08)
(5.81118e-08 -2.75667e-08 -4.55033e-08)
(3.51838e-08 -1.79089e-08 -2.90763e-08)
(1.09171e-08 -1.06869e-09 -3.00435e-09)
(1.58384e-08 -3.21058e-09 -8.01135e-09)
(2.53285e-08 -4.07094e-09 -9.91392e-09)
(3.22936e-08 -4.79954e-09 -1.50638e-08)
(4.33775e-08 -1.08015e-08 -1.8656e-08)
(5.57981e-08 -1.94527e-08 -3.4197e-08)
(6.78908e-08 -2.03759e-08 -4.06846e-08)
(6.1958e-08 -2.52524e-08 -3.21366e-08)
(3.70636e-08 -1.16422e-08 -2.34435e-08)
(1.63649e-09 -6.53195e-10 -4.14997e-09)
(1.17152e-08 -3.5623e-09 -8.70872e-09)
(1.83614e-08 -5.63316e-09 -1.11567e-08)
(6.12388e-10 4.57303e-10 -2.00587e-09)
(4.71275e-09 7.96749e-10 -5.1994e-09)
(1.02468e-08 1.55528e-09 -5.52541e-09)
(2.35778e-08 -2.47275e-09 -9.65729e-09)
(3.08969e-08 -6.75371e-09 -1.21885e-08)
(3.30813e-08 -5.6937e-09 -2.18077e-08)
(3.61265e-08 -5.75972e-09 -3.13834e-08)
(2.64922e-08 -1.37743e-08 -3.786e-08)
(5.83479e-09 -3.78123e-10 -1.90231e-08)
(3.14554e-09 8.06694e-10 -3.1343e-09)
(8.88418e-09 1.5587e-10 -5.44291e-09)
(1.72752e-08 1.23134e-10 -9.72112e-09)
(2.99371e-08 -3.33635e-09 -1.27394e-08)
(4.93041e-08 -9.53268e-09 -2.07171e-08)
(4.90308e-08 -1.07643e-08 -3.03929e-08)
(4.90835e-08 -1.06634e-08 -3.61993e-08)
(4.57071e-08 -1.59017e-08 -4.2476e-08)
(3.45262e-08 -6.89908e-09 -2.96595e-08)
(4.99405e-09 -4.20001e-10 -4.93461e-09)
(1.3916e-08 -2.08639e-09 -8.39366e-09)
(2.35751e-08 -2.92884e-09 -1.21932e-08)
(3.36703e-08 -6.04559e-09 -1.46561e-08)
(4.93973e-08 -1.25888e-08 -2.37202e-08)
(5.68948e-08 -1.47588e-08 -3.16599e-08)
(5.86726e-08 -2.03249e-08 -3.79656e-08)
(4.9728e-08 -1.89092e-08 -3.34541e-08)
(3.57274e-08 -1.06412e-08 -2.96605e-08)
(4.64569e-09 -1.14568e-09 -4.96429e-09)
(1.20154e-08 -2.70117e-09 -8.52256e-09)
(1.97826e-08 -3.12479e-09 -1.37262e-08)
(3.45166e-08 -8.10178e-09 -1.66046e-08)
(4.35292e-08 -7.22478e-09 -2.64298e-08)
(5.81395e-10 5.6411e-10 -2.61099e-09)
(3.66982e-09 3.0769e-10 -7.03909e-09)
(6.73383e-09 2.24932e-09 -6.41379e-09)
(1.45971e-08 6.93535e-10 -1.05819e-08)
(2.46005e-08 -3.38256e-09 -1.11868e-08)
(3.45444e-08 -4.09183e-09 -2.66025e-08)
(3.62881e-08 -7.02127e-09 -3.0458e-08)
(2.15972e-08 -5.00835e-09 -2.77999e-08)
(8.86877e-09 1.77678e-09 -1.68718e-08)
(1.45411e-09 3.19648e-10 -4.60372e-09)
(6.38166e-09 1.96984e-10 -9.41469e-09)
(1.48321e-08 1.2473e-09 -1.24702e-08)
(2.10471e-08 -2.61126e-09 -1.65836e-08)
(4.06272e-08 -3.06066e-09 -2.38734e-08)
(4.69519e-08 -4.44594e-09 -3.14709e-08)
(4.99669e-08 -8.01145e-09 -3.41959e-08)
(4.07045e-08 -7.15702e-09 -3.72275e-08)
(2.88816e-08 4.73876e-09 -2.51056e-08)
(3.31696e-09 -9.67195e-10 -5.73343e-09)
(9.28418e-09 -2.55937e-10 -9.86108e-09)
(1.94419e-08 -1.21029e-09 -1.37796e-08)
(2.68561e-08 -4.12079e-09 -1.75163e-08)
(4.41329e-08 -8.31965e-09 -2.6114e-08)
(4.24143e-08 -9.69124e-09 -3.6533e-08)
(5.70449e-08 -8.07587e-09 -2.60803e-08)
(3.44391e-08 -1.08322e-08 -3.37875e-08)
(2.28125e-08 -4.23323e-09 -2.46439e-08)
(2.88982e-09 -8.36516e-10 -5.33428e-09)
(1.04256e-08 -4.50425e-09 -1.07537e-08)
(1.88338e-08 -3.2929e-09 -1.52902e-08)
(2.79879e-08 -9.41772e-09 -1.8655e-08)
(4.40118e-08 -9.07489e-09 -2.84494e-08)
(4.37531e-08 -1.06614e-08 -3.32787e-08)
(4.65314e-08 -7.13175e-09 -3.25467e-08)
(6.83623e-11 9.88311e-10 -1.75702e-09)
(1.2082e-09 -1.1573e-10 -5.23171e-09)
(3.60187e-09 2.12048e-09 -5.98542e-09)
(8.3665e-09 -8.81804e-10 -8.86042e-09)
(1.41617e-08 4.70073e-10 -1.24914e-08)
(2.37219e-08 -5.03815e-10 -2.20431e-08)
(2.58657e-08 -4.25003e-09 -2.1486e-08)
(1.80215e-08 -2.31331e-09 -2.68689e-08)
(1.01125e-08 9.42401e-10 -1.67641e-08)
(6.64431e-10 4.86632e-10 -3.06506e-09)
(3.46937e-09 -1.18203e-09 -7.18801e-09)
(5.85414e-09 -2.35306e-09 -1.06525e-08)
(1.73105e-08 -2.77602e-09 -1.69338e-08)
(2.63691e-08 -5.19184e-09 -2.10771e-08)
(2.8397e-08 -7.09724e-09 -2.82329e-08)
(2.87607e-08 -7.48938e-09 -2.3631e-08)
(1.96996e-08 -8.5938e-09 -2.97869e-08)
(1.6628e-08 -2.05764e-09 -2.13587e-08)
(1.47454e-09 -1.61072e-09 -6.56375e-09)
(4.11654e-09 -1.84367e-09 -9.9245e-09)
(7.71809e-09 -3.35447e-09 -1.22844e-08)
(9.5952e-09 -5.62975e-09 -2.05683e-08)
(2.37366e-08 -4.5349e-09 -2.49378e-08)
(2.40733e-08 -8.0933e-09 -3.17578e-08)
(2.77176e-08 -7.92673e-09 -2.71726e-08)
(2.29363e-08 -1.11373e-08 -3.16156e-08)
(1.19355e-08 -4.30805e-09 -2.1022e-08)
(6.00691e-10 -1.47833e-09 -5.61536e-09)
(4.6435e-09 -2.72497e-09 -1.03855e-08)
(5.29237e-09 -2.62671e-09 -1.36033e-08)
(6.85034e-09 -3.70153e-09 -1.90476e-08)
(1.43585e-08 -4.52629e-09 -2.50179e-08)
(2.30317e-08 -6.03261e-09 -3.12268e-08)
(2.395e-08 -4.79818e-09 -2.94008e-08)
(2.1517e-08 -7.15841e-09 -2.77257e-08)
(3.22464e-08 -1.03814e-08 -2.71595e-08)
)
;

boundaryField
{
    inlet
    {
        type            calculated;
        value           nonuniform List<vector> 
16
(
(-5.49262e-10 7.01501e-10 -2.34224e-09)
(2.31587e-09 2.42215e-09 -3.81897e-09)
(1.09171e-08 -1.06869e-09 -3.00435e-09)
(1.63649e-09 -6.53195e-10 -4.14997e-09)
(6.12388e-10 4.57303e-10 -2.00587e-09)
(3.14554e-09 8.06694e-10 -3.1343e-09)
(4.99405e-09 -4.20001e-10 -4.93461e-09)
(4.64569e-09 -1.14568e-09 -4.96429e-09)
(5.81395e-10 5.6411e-10 -2.61099e-09)
(1.45411e-09 3.19648e-10 -4.60372e-09)
(3.31696e-09 -9.67195e-10 -5.73343e-09)
(2.88982e-09 -8.36516e-10 -5.33428e-09)
(6.83623e-11 9.88311e-10 -1.75702e-09)
(6.64431e-10 4.86632e-10 -3.06506e-09)
(1.47454e-09 -1.61072e-09 -6.56375e-09)
(6.00691e-10 -1.47833e-09 -5.61536e-09)
)
;
    }
    outlet
    {
        type            calculated;
        value           nonuniform 0();
    }
    wall
    {
        type            calculated;
        value           nonuniform List<vector> 
66
(
(-5.49262e-10 7.01501e-10 -2.34224e-09)
(2.31587e-09 2.42215e-09 -3.81897e-09)
(1.09171e-08 -1.06869e-09 -3.00435e-09)
(1.63649e-09 -6.53195e-10 -4.14997e-09)
(9.00417e-10 1.27358e-10 -4.77541e-09)
(1.25253e-08 -2.5998e-09 -7.05119e-09)
(1.58384e-08 -3.21058e-09 -8.01135e-09)
(1.17152e-08 -3.5623e-09 -8.70872e-09)
(1.3525e-08 1.60587e-09 -6.07293e-09)
(2.6851e-08 -1.93188e-09 -8.61039e-09)
(2.53285e-08 -4.07094e-09 -9.91392e-09)
(1.83614e-08 -5.63316e-09 -1.11567e-08)
(2.79645e-08 -3.91511e-09 -8.11016e-09)
(3.38807e-08 -5.39814e-09 -1.17832e-08)
(3.22936e-08 -4.79954e-09 -1.50638e-08)
(3.48363e-08 -1.18136e-08 -1.13049e-08)
(4.45616e-08 -1.15928e-08 -1.70461e-08)
(4.33775e-08 -1.08015e-08 -1.8656e-08)
(2.73072e-08 -1.432e-08 -1.96346e-08)
(4.61535e-08 -2.11334e-08 -3.06463e-08)
(5.57981e-08 -1.94527e-08 -3.4197e-08)
(2.8364e-08 -1.22538e-08 -3.25516e-08)
(6.81076e-08 -1.63083e-08 -4.4809e-08)
(6.78908e-08 -2.03759e-08 -4.06846e-08)
(8.54595e-09 -9.318e-09 -3.40863e-08)
(5.81118e-08 -2.75667e-08 -4.55033e-08)
(6.1958e-08 -2.52524e-08 -3.21366e-08)
(2.59118e-09 -6.21711e-09 -2.86858e-08)
(3.51838e-08 -1.79089e-08 -2.90763e-08)
(3.70636e-08 -1.16422e-08 -2.34435e-08)
(-5.49262e-10 7.01501e-10 -2.34224e-09)
(6.12388e-10 4.57303e-10 -2.00587e-09)
(5.81395e-10 5.6411e-10 -2.61099e-09)
(6.83623e-11 9.88311e-10 -1.75702e-09)
(9.00417e-10 1.27358e-10 -4.77541e-09)
(4.71275e-09 7.96749e-10 -5.1994e-09)
(3.66982e-09 3.0769e-10 -7.03909e-09)
(1.2082e-09 -1.1573e-10 -5.23171e-09)
(1.3525e-08 1.60587e-09 -6.07293e-09)
(1.02468e-08 1.55528e-09 -5.52541e-09)
(6.73383e-09 2.24932e-09 -6.41379e-09)
(3.60187e-09 2.12048e-09 -5.98542e-09)
(2.79645e-08 -3.91511e-09 -8.11016e-09)
(2.35778e-08 -2.47275e-09 -9.65729e-09)
(1.45971e-08 6.93535e-10 -1.05819e-08)
(8.3665e-09 -8.81804e-10 -8.86042e-09)
(3.48363e-08 -1.18136e-08 -1.13049e-08)
(3.08969e-08 -6.75371e-09 -1.21885e-08)
(2.46005e-08 -3.38256e-09 -1.11868e-08)
(1.41617e-08 4.70073e-10 -1.24914e-08)
(2.73072e-08 -1.432e-08 -1.96346e-08)
(3.30813e-08 -5.6937e-09 -2.18077e-08)
(3.45444e-08 -4.09183e-09 -2.66025e-08)
(2.37219e-08 -5.03815e-10 -2.20431e-08)
(2.8364e-08 -1.22538e-08 -3.25516e-08)
(3.61265e-08 -5.75972e-09 -3.13834e-08)
(3.62881e-08 -7.02127e-09 -3.0458e-08)
(2.58657e-08 -4.25003e-09 -2.1486e-08)
(8.54595e-09 -9.318e-09 -3.40863e-08)
(2.64922e-08 -1.37743e-08 -3.786e-08)
(2.15972e-08 -5.00835e-09 -2.77999e-08)
(1.80215e-08 -2.31331e-09 -2.68689e-08)
(2.59118e-09 -6.21711e-09 -2.86858e-08)
(5.83479e-09 -3.78123e-10 -1.90231e-08)
(8.86877e-09 1.77678e-09 -1.68718e-08)
(1.01125e-08 9.42401e-10 -1.67641e-08)
)
;
    }
    procBoundary0to1
    {
        type            processor;
        value           nonuniform List<vector> 
12
(
(2.67283e-08 -5.51602e-09 -4.80539e-09)
(4.51813e-08 -1.84031e-08 -2.08448e-08)
(6.36943e-08 -1.1833e-08 -3.57933e-08)
(1.97632e-08 -3.17367e-09 -6.62711e-09)
(3.71481e-08 -6.42677e-09 -2.04175e-08)
(6.06687e-08 -4.75001e-09 -3.82882e-08)
(1.19286e-08 1.26823e-09 -1.67033e-08)
(2.45686e-08 1.32282e-09 -2.82806e-08)
(3.42668e-08 8.35847e-09 -4.03144e-08)
(9.27857e-09 2.03094e-09 -1.42531e-08)
(1.84654e-08 -2.79037e-09 -2.05226e-08)
(1.74171e-08 -3.48473e-09 -2.37501e-08)
)
;
    }
    procBoundary0to2
    {
        type            processor;
        value           nonuniform List<vector> 
44
(
(2.54656e-08 -6.3965e-09 -1.57709e-08)
(4.71742e-08 -1.15974e-08 -1.81136e-08)
(5.81867e-08 -1.65446e-08 -2.71157e-08)
(7.22619e-08 -1.53036e-08 -3.07748e-08)
(5.74924e-08 -2.00987e-08 -2.76617e-08)
(5.4986e-08 -1.74834e-08 -2.47959e-08)
(8.3126e-11 -1.85614e-09 -4.43044e-09)
(8.67198e-09 -3.94791e-09 -9.50288e-09)
(2.54656e-08 -6.3965e-09 -1.57709e-08)
(1.65589e-08 -4.79611e-09 -1.34391e-08)
(2.54656e-08 -6.3965e-09 -1.57709e-08)
(4.71742e-08 -1.15974e-08 -1.81136e-08)
(5.38536e-08 -1.29407e-08 -2.98255e-08)
(5.7831e-08 -1.29857e-08 -3.43283e-08)
(5.38178e-08 -1.66524e-08 -2.59167e-08)
(4.9638e-08 -1.46193e-08 -2.79343e-08)
(2.63052e-09 -1.49238e-09 -4.13662e-09)
(9.28169e-09 -3.2688e-09 -9.17155e-09)
(1.5711e-08 -3.6173e-09 -1.38083e-08)
(2.55293e-08 -6.98895e-09 -1.76793e-08)
(5.38536e-08 -1.29407e-08 -2.98255e-08)
(3.31427e-08 -5.86115e-09 -2.30092e-08)
(5.38536e-08 -1.29407e-08 -2.98255e-08)
(5.7831e-08 -1.29857e-08 -3.43283e-08)
(4.05746e-08 -1.92835e-08 -3.44985e-08)
(4.13716e-08 -1.13463e-08 -3.27579e-08)
(1.53576e-09 -3.51697e-10 -5.10889e-09)
(6.04358e-09 -2.18863e-09 -9.95666e-09)
(1.24071e-08 -3.51252e-09 -1.45756e-08)
(1.86053e-08 -5.5525e-09 -1.80966e-08)
(2.9901e-08 -7.14607e-09 -2.33056e-08)
(3.67619e-08 -7.07036e-09 -2.66485e-08)
(4.05746e-08 -1.92835e-08 -3.44985e-08)
(4.24705e-08 -3.19555e-09 -2.541e-08)
(4.05746e-08 -1.92835e-08 -3.44985e-08)
(4.13716e-08 -1.13463e-08 -3.27579e-08)
(9.77643e-10 -2.54765e-10 -4.51602e-09)
(3.3469e-09 -6.73324e-10 -1.02902e-08)
(6.8393e-09 -1.90194e-09 -1.44469e-08)
(9.91731e-09 -3.06389e-09 -1.63422e-08)
(1.76378e-08 -5.6614e-09 -2.09647e-08)
(2.19849e-08 -3.52232e-09 -2.1075e-08)
(2.91104e-08 -2.06965e-09 -1.99084e-08)
(2.47022e-08 -3.49325e-09 -2.02936e-08)
)
;
    }
    procBoundary0to4
    {
        type            processor;
        value           nonuniform List<vector> 
36
(
(3.63255e-10 -6.16734e-11 -1.34392e-09)
(9.1956e-10 2.51573e-12 -2.22291e-09)
(1.24609e-09 -4.02707e-10 -3.98739e-09)
(6.38557e-09 -9.39056e-10 -5.60062e-09)
(1.15842e-08 -4.21021e-09 -9.66488e-09)
(1.68518e-08 1.93826e-10 -1.53069e-08)
(1.62188e-08 -2.47148e-09 -1.42987e-08)
(1.33569e-08 -1.89964e-09 -1.62081e-08)
(-1.10243e-09 3.847e-09 -5.12692e-09)
(7.72577e-10 -4.19265e-11 -2.70383e-09)
(1.52606e-09 5.97484e-10 -4.08262e-09)
(3.99799e-09 -2.83074e-09 -7.23116e-09)
(6.7852e-09 -3.31958e-09 -1.09247e-08)
(1.10703e-08 -5.99353e-09 -1.62342e-08)
(1.69462e-08 -2.73686e-09 -2.00516e-08)
(1.84502e-08 -4.07466e-09 -1.85816e-08)
(1.59618e-08 -4.44915e-09 -1.89886e-08)
(5.58969e-09 4.10436e-09 -1.24287e-08)
(3.89045e-10 -6.34586e-10 -3.29534e-09)
(2.2774e-09 -1.4643e-09 -7.61507e-09)
(3.98153e-09 -3.81433e-09 -1.05613e-08)
(5.76796e-09 -3.98029e-09 -1.67979e-08)
(8.9432e-09 -5.79428e-09 -1.95031e-08)
(1.41994e-08 -4.41454e-09 -1.98966e-08)
(1.63523e-08 -4.18439e-09 -2.10588e-08)
(1.71924e-08 -9.85055e-09 -2.15945e-08)
(9.82328e-09 -7.28666e-10 -1.22397e-08)
(4.57473e-10 -7.9493e-10 -4.20382e-09)
(1.08674e-09 -1.6329e-09 -6.95181e-09)
(2.46773e-09 -3.38879e-09 -1.012e-08)
(2.33178e-09 -3.6617e-09 -1.226e-08)
(7.42997e-09 -4.90135e-09 -1.85913e-08)
(1.21823e-08 -5.34431e-09 -2.2431e-08)
(8.52059e-09 1.87174e-09 -1.84612e-08)
(1.0007e-08 -5.0744e-09 -1.90615e-08)
(1.36014e-08 -3.25729e-09 -1.40374e-08)
)
;
    }
    procBoundary0to6
    {
        type            processor;
        value           uniform (2.46559e-08 -5.83803e-09 -2.03303e-08);
    }
    procBoundary0to7
    {
        type            processor;
        value           uniform (2.22301e-08 4.39391e-10 -2.95564e-08);
    }
}


// ************************************************************************* //
