/*--------------------------------*- C++ -*----------------------------------*\
| =========                 |                                                 |
| \\      /  F ield         | OpenFOAM: The Open Source CFD Toolbox           |
|  \\    /   O peration     | Version:  4.x                                   |
|   \\  /    A nd           | Web:      www.OpenFOAM.org                      |
|    \\/     M anipulation  |                                                 |
\*---------------------------------------------------------------------------*/
FoamFile
{
    version     2.0;
    format      ascii;
    class       surfaceScalarField;
    location    "41";
    object      phi;
}
// * * * * * * * * * * * * * * * * * * * * * * * * * * * * * * * * * * * * * //

dimensions      [0 3 -1 0 0 0 0];

internalField   nonuniform List<scalar> 
192
(
2.27728e-07
-1.48305e-08
7.11264e-06
7.75039e-08
-1.23401e-07
1.44221e-07
-1.39529e-07
9.25756e-06
-2.42552e-07
9.29864e-06
-2.96156e-07
-2.18267e-07
7.25275e-06
3.75071e-07
5.98019e-08
6.93624e-06
1.52587e-07
1.6163e-08
6.12254e-06
3.6721e-07
9.13046e-08
5.86636e-06
9.9604e-08
2.52291e-08
5.32905e-06
2.18959e-07
8.19081e-08
5.1813e-06
5.68754e-08
2.45553e-08
5.06708e-06
4.55405e-08
8.21849e-09
4.99031e-06
2.61307e-08
2.79654e-08
-1.10582e-07
-3.36586e-08
7.62792e-06
4.86136e-07
4.72019e-08
7.39633e-06
1.93987e-07
7.24046e-10
6.87281e-06
4.76157e-07
8.21498e-08
6.67405e-06
1.43697e-07
-2.22838e-08
6.23301e-06
3.15937e-07
7.60705e-08
6.07786e-06
9.66025e-08
-2.17699e-08
5.68589e-06
1.92267e-07
4.70772e-08
5.55244e-06
5.37246e-08
-1.75478e-08
1.36461e-09
-5.68116e-10
8.3052e-06
-1.64565e-08
8.3141e-06
-4.12463e-08
8.43547e-06
-1.02673e-08
8.3648e-06
-7.38825e-08
8.35146e-06
-1.10717e-08
8.29529e-06
-9.78725e-08
8.27539e-06
-3.03842e-08
8.16519e-06
-1.32232e-07
-2.89832e-08
7.55979e-06
4.32919e-07
3.06996e-07
7.34222e-06
1.84428e-07
1.10101e-07
6.82062e-06
4.42425e-07
3.07271e-07
6.66434e-06
1.28919e-07
9.04702e-08
6.24474e-06
3.3514e-07
2.55159e-07
6.10328e-06
8.95689e-08
7.09528e-08
5.75596e-06
2.26762e-07
1.53798e-07
5.62861e-06
5.58889e-08
8.36952e-08
1.35451e-07
1.05025e-07
7.95661e-06
4.51817e-07
2.34955e-07
7.83726e-06
2.06746e-07
9.7762e-08
7.66998e-06
4.39255e-07
2.52594e-07
7.56834e-06
1.48146e-07
6.01371e-08
7.42013e-06
3.43094e-07
2.16325e-07
7.29347e-06
1.36373e-07
5.80837e-08
7.08863e-06
2.78558e-07
2.00124e-07
7.00463e-06
9.75461e-08
2.47889e-08
1.82161e-07
1.17343e-07
8.44665e-06
1.51973e-07
8.56316e-06
4.89925e-08
8.83823e-06
1.53914e-07
8.86087e-06
5.16251e-08
9.05399e-06
1.38904e-07
9.08211e-06
1.03841e-08
9.2257e-06
1.04581e-07
9.22326e-06
-3.22501e-08
5.12564e-08
8.21654e-06
3.59398e-07
8.20706e-06
1.54505e-07
8.24578e-06
3.26467e-07
8.20798e-06
1.27576e-07
8.24958e-06
2.06412e-07
8.19384e-06
7.43708e-08
8.16077e-06
9.79626e-08
8.17216e-06
-1.12264e-08
2.73416e-10
8.40859e-06
3.49024e-07
8.49482e-06
1.66045e-07
8.73458e-06
3.39299e-07
8.76661e-06
1.55683e-07
8.94019e-06
2.49158e-07
8.96433e-06
1.08308e-07
9.0774e-06
1.85023e-07
9.06184e-06
2.91197e-08
5.42767e-08
8.66426e-06
8.8793e-06
9.37251e-06
9.57982e-06
9.96788e-06
1.00866e-05
1.03762e-05
1.03731e-05
)
;

boundaryField
{
    inlet
    {
        type            calculated;
        value           uniform -8.16327e-06;
    }
    outlet
    {
        type            calculated;
        value           nonuniform 0();
    }
    wall
    {
        type            calculated;
        value           uniform 0;
    }
    procBoundary6to0
    {
        type            processor;
        value           uniform -6.66142e-08;
    }
    procBoundary6to2
    {
        type            processor;
        value           nonuniform List<scalar> 
32
(
3.04004e-10
1.443e-07
1.17576e-07
3.23796e-07
3.32585e-07
2.60613e-07
4.4034e-07
1.67848e-07
3.45956e-07
1.15441e-07
1.98434e-07
5.29369e-08
4.32507e-08
-5.47363e-06
-1.09139e-07
2.26812e-08
3.77078e-07
1.89463e-07
3.32428e-07
1.76944e-07
2.67996e-07
1.3719e-07
-7.1019e-06
-2.96338e-07
1.98174e-07
3.60659e-07
2.26333e-07
3.65051e-07
2.88256e-07
3.40341e-07
-9.04247e-06
2.50653e-07
)
;
    }
    procBoundary6to4
    {
        type            processor;
        value           nonuniform List<scalar> 
27
(
3.53023e-08
-2.0092e-08
9.23555e-09
1.59057e-08
3.80093e-08
1.33794e-08
1.72084e-08
3.72769e-13
7.87378e-08
-7.66371e-08
-6.07957e-08
-1.3679e-07
-3.78838e-08
-8.87941e-08
5.49412e-09
-2.5014e-08
1.57285e-08
3.90583e-09
-1.05677e-07
-3.4923e-08
-5.79131e-08
6.90393e-10
7.14647e-09
5.23219e-08
8.89043e-08
8.35284e-08
1.12985e-07
)
;
    }
    procBoundary6to7
    {
        type            processor;
        value           nonuniform List<scalar> 
12
(
5.32704e-06
7.2181e-06
9.40051e-06
5.04098e-06
5.30153e-06
7.97727e-06
5.35057e-06
6.84001e-06
9.32518e-06
8.16393e-06
9.12518e-06
1.04786e-05
)
;
    }
}


// ************************************************************************* //
