/*--------------------------------*- C++ -*----------------------------------*\
  =========                 |
  \\      /  F ield         | OpenFOAM: The Open Source CFD Toolbox
   \\    /   O peration     | Website:  https://openfoam.org
    \\  /    A nd           | Version:  4.x
     \\/     M anipulation  |
\*---------------------------------------------------------------------------*/
FoamFile
{
    version     2.0;
    format      ascii;
    class       vectorField;
    location    0;
    object      v;
}
// * * * * * * * * * * * * * * * * * * * * * * * * * * * * * * * * * * * * * //

356
(
( -0.000227495 0.000156104 0.000302299 )  
( -0.000403662 6.34202e-05 0.000338217 )  
( -0.000688894 -0.000124159 0.000104027 )  
( -0.000278653 0.000119013 0.000293239 )  
( -0.00051484 4.77628e-05 0.000326817 )  
( -9.96328e-05 -2.39966e-05 0.000188449 )  
( -0.00099757 -0.000143563 0.000508471 )  
( -0.000427796 3.42795e-05 0.000314708 )  
( -0.00018813 -4.16558e-05 0.000208161 )  
( -0.000241052 6.66728e-05 0.000336701 )  
( -4.20301e-05 3.92929e-05 8.84997e-05 )  
( -0.000430471 -6.89319e-06 0.000168708 )  
( -0.000790076 -7.68413e-05 0.000415189 )  
( -0.000962983 -0.000147797 0.000388536 )  
( -0.00050772 -2.82779e-07 0.000469274 )  
( -0.000594139 5.14866e-07 0.000305973 )  
( -0.000761393 -4.43806e-05 0.000520905 )  
( -0.00122599 -0.000281442 0.000445722 )  
( -0.000664419 -7.68714e-05 0.000570477 )  
( -0.00097333 -0.000128705 0.000361058 )  
( -0.00109336 -6.47098e-05 5.145e-05 )  
( -0.000489431 -9.48817e-05 0.00016498 )  
( -0.000361102 1.51235e-05 0.000414121 )  
( -0.000679926 -6.08314e-05 0.000511409 )  
( -0.000944888 -0.000121959 0.000464931 )  
( -0.000358917 4.7714e-05 0.000311542 )  
( -0.000278079 3.03705e-05 0.000382458 )  
( -0.000797551 -8.6429e-05 0.000366043 )  
( -0.000133306 7.45594e-05 0.000216232 )  
( -0.000252912 -3.30986e-05 0.000183992 )  
( -0.000592227 -5.46505e-05 0.000380319 )  
( -0.000653765 -1.94616e-05 0.000584352 )  
( -0.000810885 -0.000113153 0.000271909 )  
( -0.000118248 9.06978e-05 0.000215082 )  
( -0.000580971 -3.48006e-05 0.000451962 )  
( -2.51923e-05 3.62137e-05 0.000102904 )  
( -0.000905309 -0.000210802 0.000455692 )  
( -3.39903e-05 9.44882e-06 0.000142559 )  
( -0.000337453 -2.12167e-05 0.000234809 )  
( -0.000153504 -5.01532e-05 0.00016088 )  
( -0.000272835 2.03273e-05 0.000217228 )  
( -0.000790639 -0.000147551 0.000395049 )  
( -0.000836909 -0.000124704 0.000464709 )  
( -0.00107899 -5.2126e-05 -4.36357e-05 )  
( -0.00106013 -0.000164663 0.000578871 )  
( -0.000200995 4.55891e-06 8.58591e-05 )  
( -0.000493154 -0.000168509 0.000164847 )  
( -7.2536e-05 4.5353e-05 0.000127937 )  
( -0.000756027 -8.72315e-05 0.000510163 )  
( -0.000380829 5.46277e-05 0.000237637 )  
( -0.000573241 -6.18232e-05 0.000571111 )  
( -0.000376605 -1.18938e-05 0.000230082 )  
( -0.000693516 -4.593e-05 0.000400203 )  
( -0.000809958 -8.82538e-05 0.000522316 )  
( -0.000537282 -2.74601e-06 0.000476701 )  
( -0.000640415 -2.07097e-05 0.000531931 )  
( -0.000410784 3.29223e-05 0.000319376 )  
( -0.000846046 -0.00013113 0.000520092 )  
( -0.000185379 6.3493e-05 0.000260246 )  
( -0.000364538 6.32667e-05 0.000395696 )  
( -0.000116869 8.13308e-05 0.000202902 )  
( -0.000432112 -0.000133987 0.000320859 )  
( -0.000107299 5.88779e-05 0.000120473 )  
( -0.000350594 -3.45887e-07 0.000262424 )  
( -0.000492817 3.86758e-05 0.000284358 )  
( -8.3048e-05 3.51572e-05 0.000115015 )  
( -0.000707169 -0.000136735 0.000187864 )  
( -0.000639587 -8.31654e-05 0.000472658 )  
( -0.000603641 -4.02033e-05 0.000391759 )  
( -0.000455999 -6.72436e-06 0.000271404 )  
( -0.000765638 -3.89486e-05 0.000518272 )  
( -0.00107991 -6.46185e-05 0.000533553 )  
( -0.000770104 -0.000107512 0.000572699 )  
( -0.000505148 7.27726e-05 0.000333469 )  
( -9.01655e-05 4.43041e-05 0.000162886 )  
( -0.00013629 3.77574e-05 0.000254536 )  
( -5.0781e-05 3.65946e-05 5.09968e-05 )  
( -0.000436782 1.99013e-05 0.000412322 )  
( -0.000973162 -0.00016279 0.000540121 )  
( -0.000904057 -0.000118433 0.00047359 )  
( -0.000122445 -4.36247e-05 0.000104454 )  
( -0.000142927 8.56849e-05 0.000277412 )  
( -0.000289222 0.000173678 0.000302088 )  
( -0.000346067 0.000120114 0.000291479 )  
( -6.76622e-05 3.14284e-05 0.000163075 )  
( -0.00027534 -5.53488e-05 0.000262362 )  
( -0.000263125 6.39861e-05 0.000338887 )  
( -0.000913028 -0.000130188 0.000532969 )  
( 1.01725e-05 1.67462e-05 5.04174e-05 )  
( -6.87867e-06 -4.31579e-06 2.4884e-05 )  
( -0.000668058 -4.82001e-05 0.00042743 )  
( -0.00068849 -3.42658e-05 0.00039654 )  
( -0.000342458 1.25318e-05 0.000188367 )  
( -0.000309601 -0.000113708 7.42877e-05 )  
( -0.000556113 -4.5834e-05 0.000375773 )  
( -0.000360011 8.54026e-05 0.000412019 )  
( -2.40924e-05 9.09005e-06 6.60765e-05 )  
( -0.000517092 1.27748e-05 0.00038213 )  
( -0.000509736 7.22295e-06 0.000207051 )  
( -0.000661242 -7.0127e-05 0.000419511 )  
( -0.000784993 -0.000133101 0.000286922 )  
( -0.00113386 -0.000204743 0.000481655 )  
( -0.000100255 7.42841e-06 0.000131234 )  
( -0.000308589 3.67001e-05 0.000129323 )  
( -0.000203021 -8.34746e-05 5.40598e-05 )  
( -3.25314e-05 6.04603e-05 0.00011325 )  
( -0.000586482 -4.31489e-05 0.000500317 )  
( -0.000743088 -0.000126161 0.000383871 )  
( -0.000591068 1.14472e-05 0.000336196 )  
( -0.000294481 -2.60007e-05 0.000217173 )  
( -0.000334395 -3.60501e-05 0.000211857 )  
( -0.000417602 -0.000124915 0.000289548 )  
( -0.000604039 -3.61383e-05 0.000466132 )  
( -0.000721322 -0.000226939 0.00043563 )  
( -0.000282702 -3.42889e-05 0.000332428 )  
( -0.000785412 -9.15581e-05 0.000192325 )  
( -0.000506871 1.42699e-05 0.000300374 )  
( -0.000865198 -9.84534e-05 0.000519143 )  
( -0.000869607 -0.000149726 0.000226698 )  
( -0.000681658 -5.9905e-05 0.000453772 )  
( -7.52928e-05 -2.32357e-05 9.47539e-05 )  
( -0.00021005 4.71248e-05 9.16202e-05 )  
( -0.000309953 5.67046e-05 0.000164763 )  
( -0.000531086 -4.29758e-05 0.000557399 )  
( -0.000156913 6.06415e-05 0.000230317 )  
( -2.0523e-05 2.8251e-05 0.000110306 )  
( -0.000770457 -5.39736e-05 0.000516593 )  
( -0.000829841 -0.000104163 0.000514942 )  
( -0.000641895 -2.42248e-05 0.000522415 )  
( -0.000501274 6.53688e-07 0.000393276 )  
( -0.000755947 -0.00010192 0.000440097 )  
( -3.47409e-05 2.43452e-05 6.77961e-05 )  
( -0.000677884 -1.92613e-05 0.000532737 )  
( -3.13183e-05 1.87482e-05 8.83767e-05 )  
( -0.000156119 -2.98195e-05 0.000127418 )  
( -3.83865e-05 8.09209e-05 0.000110512 )  
( -0.000131987 5.94801e-06 0.000103829 )  
( -0.00031857 5.45177e-05 0.000377732 )  
( -6.50979e-05 -4.35244e-05 8.77569e-05 )  
( -0.000515463 2.79238e-05 0.000390058 )  
( -3.51848e-05 4.2388e-05 0.000111392 )  
( -0.000696196 -6.07678e-05 0.000594276 )  
( -2.00944e-05 4.31672e-06 4.5949e-05 )  
( -0.000721808 -7.73691e-05 0.00033577 )  
( -6.05449e-05 3.31336e-05 0.000114629 )  
( -0.000409182 0.00011267 0.000380631 )  
( -0.000429434 9.81951e-05 0.000451813 )  
( -0.000374398 1.38713e-05 0.000451128 )  
( -0.000422406 2.326e-05 0.000350183 )  
( -9.62521e-05 2.08855e-05 9.23075e-05 )  
( -0.000171369 0.000138141 0.00024689 )  
( -0.000526627 -8.07529e-05 0.000278753 )  
( -0.000407435 9.77592e-05 0.000329399 )  
( -1.58262e-05 9.25507e-05 0.000137611 )  
( -0.000665787 -8.62062e-05 0.000351871 )  
( -0.000381986 4.38373e-05 0.000442952 )  
( -0.000585813 -2.80371e-05 0.000406949 )  
( -0.000224496 8.84322e-05 0.000300851 )  
( -1.91857e-05 9.74939e-05 7.78898e-05 )  
( -0.00057607 2.67882e-05 0.000489504 )  
( -0.000143292 0.000120759 0.000330003 )  
( -0.000468834 -3.58115e-05 0.000472262 )  
( -7.92304e-05 0.000142223 0.000148234 )  
( -0.000236268 0.000138438 0.000444036 )  
( -0.000376013 8.19934e-05 0.0003851 )  
( -0.000448988 -5.39243e-05 0.000206413 )  
( -0.00016719 0.000202715 0.000253795 )  
( -0.000389061 -1.45706e-05 0.000284904 )  
( -0.00051145 -3.17168e-05 0.00036328 )  
( -0.000485085 4.19203e-05 0.000468227 )  
( -0.000402691 1.20802e-05 0.000327637 )  
( -0.000226432 -4.0669e-05 0.000162597 )  
( -0.000410838 -5.85394e-06 0.000326328 )  
( -0.000321399 -2.08612e-05 0.000172094 )  
( -9.38274e-06 5.10336e-05 1.85045e-05 )  
( -0.000434482 -2.12969e-05 0.000192744 )  
( -0.000575938 4.73441e-06 0.000453695 )  
( -7.61854e-05 8.81753e-05 0.000176071 )  
( -0.000456704 -3.67508e-05 0.000267678 )  
( -0.000126521 0.000106888 0.000241416 )  
( -0.000201775 -4.88913e-06 0.000108805 )  
( -3.98951e-05 5.42519e-05 4.69426e-05 )  
( -0.000635576 -7.30083e-05 0.000341358 )  
( -0.000109625 0.000197238 0.000356351 )  
( -0.000437518 0.000118882 0.000460253 )  
( -0.000232775 5.05451e-06 0.000204978 )  
( -0.000411378 7.48305e-05 0.000375912 )  
( -0.000161942 9.6195e-05 0.000271767 )  
( -0.000412331 -4.27164e-05 0.000124455 )  
( -0.000470823 4.80898e-05 0.000439903 )  
( -6.07486e-05 -5.86243e-05 6.72044e-05 )  
( -0.000523566 -8.00844e-06 0.000253478 )  
( -3.27181e-05 -1.68684e-05 5.63898e-05 )  
( -0.00052524 1.74576e-05 0.000351107 )  
( -0.000412956 2.07247e-05 0.000471879 )  
( -0.000444954 -9.81011e-06 0.000296732 )  
( -0.000522512 2.73327e-06 0.000328123 )  
( -9.13418e-05 6.96045e-05 0.000115715 )  
( -0.000192238 -0.00013624 0.000197756 )  
( -0.000281807 2.41102e-07 0.000230489 )  
( -0.000108285 -4.48365e-05 7.75073e-05 )  
( -0.000435413 3.03857e-05 0.000401852 )  
( -5.63455e-06 -1.40877e-05 2.36388e-05 )  
( -2.57219e-06 2.11081e-06 2.16549e-05 )  
( -0.000452388 2.17889e-05 0.000291138 )  
( -0.000504447 3.4797e-05 0.000410534 )  
( -0.000554818 -6.82559e-05 0.000239039 )  
( -0.000537649 -1.41142e-05 0.000475719 )  
( -9.82243e-06 -6.03428e-07 3.18656e-05 )  
( -0.000330586 2.93955e-05 0.000446166 )  
( -0.000131624 2.89094e-05 0.000106011 )  
( -0.000147135 0.000131086 0.000232919 )  
( -3.79065e-05 -2.34813e-06 6.40286e-05 )  
( -0.000107726 0.000186769 0.000240795 )  
( 4.49841e-06 5.7012e-05 1.68695e-05 )  
( -5.81996e-05 7.21489e-05 0.000128383 )  
( -0.000552954 -7.75075e-05 0.000251146 )  
( -0.000157346 0.00017765 0.000281639 )  
( -0.000565485 9.048e-06 0.000355573 )  
( -0.000531673 -1.02102e-05 0.000356949 )  
( -0.000475234 8.45575e-05 0.000352384 )  
( -0.000543732 -3.37824e-05 0.00042466 )  
( -7.36808e-05 0.000107398 0.000197826 )  
( -0.000238236 2.23259e-05 0.000206608 )  
( -0.000875474 -0.00013705 0.000379253 )  
( -0.00047151 3.36012e-05 0.000438041 )  
( -0.000780551 -0.000255303 0.000513146 )  
( -0.000231251 7.03077e-05 0.000299486 )  
( -3.67404e-05 2.17945e-05 7.82456e-05 )  
( -0.000372302 5.2987e-05 0.000417335 )  
( -0.00086844 -0.000299146 0.000546605 )  
( -0.000758489 -0.000105258 0.00053185 )  
( -0.000174504 5.51879e-05 0.000276223 )  
( -0.00071071 -8.26186e-05 0.000605318 )  
( -0.000318246 4.94303e-05 0.000389419 )  
( -0.000715376 -0.000128686 0.000548134 )  
( -0.000556973 6.1644e-06 0.000435969 )  
( -3.08995e-05 2.7002e-05 8.04511e-05 )  
( -0.000295598 5.88535e-05 0.000326392 )  
( -0.000163304 0.000116684 0.000223699 )  
( -0.000571626 -1.97545e-05 0.000228781 )  
( -0.000206011 6.85821e-05 0.000276336 )  
( -2.79336e-05 0.000166859 0.000239939 )  
( -0.000493316 5.44828e-05 0.000423025 )  
( -0.000357891 2.7265e-05 0.000383972 )  
( -0.000632806 -3.75607e-07 0.000453895 )  
( -0.000417367 0.000127506 0.000449759 )  
( -7.33302e-05 9.53556e-05 0.000166063 )  
( -0.000573078 -8.31528e-05 0.000410963 )  
( -0.00034176 5.42893e-05 0.000347498 )  
( -3.9654e-06 -1.66048e-06 2.3826e-05 )  
( -6.50178e-05 0.000138087 0.000204374 )  
( -0.00039723 3.99016e-05 0.000378406 )  
( -0.00018209 3.5893e-05 0.000145698 )  
( -1.7754e-05 2.958e-05 9.80417e-05 )  
( -0.000760231 -7.91741e-05 0.000151799 )  
( -0.000931557 -0.000166991 0.000527234 )  
( -0.000305992 -5.82472e-06 0.000230926 )  
( -0.000202562 7.60906e-05 0.000283278 )  
( -0.000279474 3.34943e-05 0.000142915 )  
( -0.000103264 8.52387e-06 0.000196757 )  
( -0.000260286 5.92728e-06 0.000271459 )  
( -0.000298048 8.6872e-05 0.00031354 )  
( -0.000548217 9.70295e-05 0.000406486 )  
( -0.000151569 7.06584e-05 0.000232641 )  
( -0.000175018 4.38492e-05 0.000179894 )  
( -0.000926378 -0.000150586 0.000133286 )  
( -0.000507941 0.000128647 0.000341015 )  
( -0.000236877 2.30253e-05 0.000117933 )  
( -0.0003617 0.000100112 0.000428052 )  
( -0.000703785 -0.000117892 0.000479123 )  
( -0.00087799 -0.00010463 0.000376829 )  
( -0.000451071 2.56934e-05 0.00030037 )  
( -0.000560008 -5.32821e-05 0.000205269 )  
( -0.000787913 -8.40078e-05 0.000561512 )  
( -0.000295357 2.31795e-05 0.00026759 )  
( -8.18509e-05 -4.04544e-05 9.57059e-05 )  
( -0.000543275 1.93035e-05 0.000282518 )  
( -0.000698975 -8.18661e-05 0.000419341 )  
( -0.000505708 5.7836e-05 0.000371316 )  
( -0.000366056 1.06358e-05 0.000397297 )  
( -1.55645e-05 -5.34826e-06 4.5581e-05 )  
( -0.000595323 -1.57367e-05 0.000371536 )  
( -0.000633631 -4.67956e-05 0.000509869 )  
( -0.000415333 6.71018e-05 0.000394672 )  
( -0.000304716 8.95278e-05 0.000400173 )  
( -0.00056243 2.69172e-05 0.000475953 )  
( -0.000612801 -9.406e-05 0.000425988 )  
( -1.8238e-05 1.28601e-06 3.49825e-05 )  
( -0.000178389 6.55706e-05 0.000287945 )  
( -8.14092e-05 8.07471e-05 0.000180679 )  
( -0.000605855 -4.711e-05 0.000407864 )  
( -0.000699136 -4.21415e-05 0.000528803 )  
( -0.000235561 -5.96709e-05 2.47039e-05 )  
( -0.00032593 -1.01917e-05 0.000269888 )  
( -0.00029693 8.55787e-05 0.000333535 )  
( -0.000633397 -0.000104584 0.000226369 )  
( -9.06267e-05 9.41676e-05 0.000146226 )  
( -4.52913e-05 2.45042e-05 6.36536e-05 )  
( -0.000363015 4.84204e-05 0.000303301 )  
( -0.000659998 -6.42424e-05 0.000345005 )  
( -0.000123861 -4.82794e-06 0.000119586 )  
( -6.58285e-05 6.7844e-05 9.94386e-05 )  
( -0.000618526 -0.000145156 0.000420958 )  
( -0.000999897 -4.14572e-05 0.000535875 )  
( -0.000323264 -1.24741e-05 0.000205789 )  
( -3.64407e-05 -9.00229e-06 7.76159e-05 )  
( -8.61951e-05 5.07343e-05 0.000245331 )  
( -0.000238 1.53655e-05 0.00025094 )  
( -0.000374142 4.32693e-05 0.000317864 )  
( -1.17701e-05 2.30603e-05 9.18965e-05 )  
( -0.000349127 -6.95756e-05 0.000203969 )  
( -0.00101678 -0.000120523 4.92987e-05 )  
( -0.00132419 -0.000287963 0.000255541 )  
( -0.000470871 2.00646e-06 0.000457918 )  
( -0.000617009 6.28062e-05 0.000107796 )  
( -9.83149e-06 1.42079e-05 9.43739e-05 )  
( -0.000457435 4.19063e-06 0.000422516 )  
( -0.000684294 -9.0032e-05 0.000615708 )  
( -0.00116228 -0.000145516 0.000480207 )  
( -0.0008841 -0.000129317 0.00048214 )  
( -0.000372312 7.2352e-05 0.000235064 )  
( -0.000800347 -0.000107936 0.000463622 )  
( -0.000214618 0.000104934 0.000343689 )  
( -0.000370408 0.000107991 0.000210426 )  
( -0.000200196 4.88505e-05 0.000285945 )  
( -0.000462146 0.00018329 0.000332323 )  
( -7.87213e-05 -4.89788e-05 8.94471e-05 )  
( -0.000113395 8.14656e-05 0.000142809 )  
( -0.000217075 2.6215e-05 9.95783e-05 )  
( -0.000413676 -8.77806e-05 0.000279051 )  
( -0.000658557 0.00014577 0.000390814 )  
( -0.00136103 -0.00042823 0.000386848 )  
( -0.0010025 -0.000205658 0.000569617 )  
( -0.000336791 5.90486e-05 0.000238246 )  
( -1.64497e-05 2.24446e-05 0.000162299 )  
( -0.000337346 0.000133014 0.000324708 )  
( -0.000127843 7.12844e-05 0.00025379 )  
( -0.00030668 8.86575e-05 0.000379502 )  
( -0.00112492 5.35932e-05 0.000390474 )  
( -0.000285621 0.0002808 0.0001951 )  
( -0.000623316 -0.000231918 0.000459936 )  
( -0.00153487 -0.000186452 -0.000149931 )  
( 5.59348e-06 8.60973e-06 3.06969e-05 )  
( -0.000412218 0.000144837 0.000225683 )  
( -0.00150734 -0.000364452 0.000280975 )  
( -0.000368644 3.33356e-05 0.000411303 )  
( 1.83575e-05 6.89757e-05 0.000150822 )  
( -0.00029075 7.4754e-05 0.000214563 )  
( -0.000309039 0.000182182 0.000271272 )  
( 2.47072e-05 3.24383e-05 9.67618e-05 )  
( -0.00125673 -0.000118468 0.000585365 )  
( 2.74053e-05 3.88366e-05 0.000288376 )  
( 3.12504e-05 9.4122e-06 4.79423e-05 )  
( -0.000529652 -4.32909e-06 0.000582923 )  
( 4.0636e-05 3.34114e-05 7.16135e-05 )  
)
