/*--------------------------------*- C++ -*----------------------------------*\
| =========                 |                                                 |
| \\      /  F ield         | OpenFOAM: The Open Source CFD Toolbox           |
|  \\    /   O peration     | Version:  4.x                                   |
|   \\  /    A nd           | Web:      www.OpenFOAM.org                      |
|    \\/     M anipulation  |                                                 |
\*---------------------------------------------------------------------------*/
FoamFile
{
    version     2.0;
    format      ascii;
    class       volScalarField;
    location    "30.5";
    object      QPartFluidCoeff;
}
// * * * * * * * * * * * * * * * * * * * * * * * * * * * * * * * * * * * * * //

dimensions      [1 -1 -3 -1 0 0 0];

internalField   nonuniform List<scalar> 
108
(
-2.82601e+07
-1.28394e+07
-2.23576e+07
-1.08074e+07
-1.64934e+07
-1.25624e+07
-1.82514e+07
-1.70596e+07
-9.05001e+06
-2.10142e+07
-2.97918e+07
-1.6818e+07
-1.87041e+07
-2.07402e+07
-1.7096e+07
-2.03945e+07
-1.89836e+07
-1.24516e+07
-2.2142e+07
-2.27078e+07
-2.36553e+07
-1.65161e+07
-1.97114e+07
-1.79146e+07
-2.2503e+07
-2.33792e+07
-1.30222e+07
-1.44998e+07
-1.43775e+07
-1.56427e+07
-2.23128e+07
-1.84099e+07
-1.84564e+07
-1.20958e+07
-1.85875e+07
-1.51395e+07
-2.84857e+07
-2.67897e+07
-3.397e+07
-3.51605e+07
-2.78741e+07
-2.61784e+07
-2.23229e+07
-2.78254e+07
-2.42024e+07
-2.59441e+07
-2.71343e+07
-2.80285e+07
-3.03763e+07
-2.59361e+07
-2.6986e+07
-3.20572e+07
-3.00283e+07
-1.92337e+07
-4.25068e+07
-3.31296e+07
-3.01447e+07
-3.80417e+07
-2.83075e+07
-3.39647e+07
-2.72289e+07
-3.29135e+07
-2.57084e+07
-2.81255e+07
-2.38994e+07
-2.43974e+07
-2.68405e+07
-3.06642e+07
-2.558e+07
-2.43499e+07
-2.90163e+07
-1.84626e+07
-2.69548e+07
-3.6065e+07
-2.99791e+07
-3.38368e+07
-2.1517e+07
-2.5496e+07
-2.97493e+07
-2.79607e+07
-2.29709e+07
-3.22524e+07
-2.0774e+07
-2.7234e+07
-1.67888e+07
-1.46517e+07
-3.18251e+07
-2.57174e+07
-3.69726e+07
-1.7146e+07
-2.01998e+07
-3.45496e+07
-3.06834e+07
-2.43293e+07
-2.46147e+07
-3.33157e+07
-2.71742e+07
-3.11771e+07
-1.64672e+07
-2.94081e+07
-1.63951e+07
-1.95326e+07
-2.35499e+07
-2.17894e+07
-2.92246e+07
-2.19982e+07
-3.23545e+07
-2.58873e+07
)
;

boundaryField
{
    inlet
    {
        type            calculated;
        value           nonuniform 0();
    }
    outlet
    {
        type            calculated;
        value           uniform 0;
    }
    wall
    {
        type            calculated;
        value           uniform 0;
    }
    procBoundary3to1
    {
        type            processor;
        value           nonuniform List<scalar> 
27
(
299.072
537.594
471.687
675.857
473.397
435.708
421.951
462.463
312.159
601.496
643.662
543.527
515.961
433.68
695.842
697.914
981.336
324.276
701.663
590.985
408.872
834.585
660.689
799.319
560.8
730.918
255.279
)
;
    }
    procBoundary3to2
    {
        type            processor;
        value           nonuniform List<scalar> 
12
(
348.4
340.227
493.091
301.217
848.723
488.44
583.92
364.859
693.061
436.881
776.271
586.696
)
;
    }
    procBoundary3to7
    {
        type            processor;
        value           nonuniform List<scalar> 
36
(
750.833
683.038
481.062
597.626
834.346
944.174
605.872
503.525
491.856
569.131
857.523
558.779
613.187
633.937
524.664
598.563
587.123
527.3
394.489
708.646
516.972
673.69
620.173
789.295
646.208
688.968
516.321
532.974
567.575
675.324
451.119
596.482
603.667
605.682
525.943
269.027
)
;
    }
}


// ************************************************************************* //
