/*--------------------------------*- C++ -*----------------------------------*\
| =========                 |                                                 |
| \\      /  F ield         | OpenFOAM: The Open Source CFD Toolbox           |
|  \\    /   O peration     | Version:  4.x                                   |
|   \\  /    A nd           | Web:      www.OpenFOAM.org                      |
|    \\/     M anipulation  |                                                 |
\*---------------------------------------------------------------------------*/
FoamFile
{
    version     2.0;
    format      ascii;
    class       volVectorField;
    location    "30.5";
    object      Us;
}
// * * * * * * * * * * * * * * * * * * * * * * * * * * * * * * * * * * * * * //

dimensions      [0 1 -1 0 0 0 0];

internalField   nonuniform List<vector> 
108
(
(-1.2737e-08 -4.41164e-09 7.24183e-09)
(-1.53092e-08 -3.7284e-09 9.44007e-09)
(-2.41515e-08 6.88223e-09 8.24594e-09)
(-1.96329e-08 4.15993e-10 4.41666e-09)
(-1.89003e-08 -2.64629e-09 -4.07452e-09)
(-7.14044e-09 -2.20317e-09 -8.61282e-09)
(-1.88536e-09 -6.73696e-09 -2.28459e-08)
(8.85128e-08 4.8935e-08 -4.78204e-08)
(-1.03699e-06 2.53692e-08 -7.04627e-08)
(-1.35863e-08 -1.32063e-09 6.1701e-09)
(-1.78837e-08 -2.73524e-10 7.88364e-09)
(-1.73414e-08 -5.10607e-10 6.82441e-09)
(-1.72833e-08 1.43949e-10 4.55365e-09)
(-1.62338e-08 -6.52152e-10 -1.5904e-09)
(-1.31052e-08 1.58443e-09 -7.636e-09)
(-3.60395e-10 -2.76224e-10 -3.26852e-08)
(-2.08105e-09 1.88462e-08 -5.65425e-08)
(-1.56881e-06 4.99341e-08 -1.79456e-07)
(-1.24638e-08 -1.12949e-08 5.88808e-09)
(-1.49595e-08 -9.91804e-10 6.65136e-09)
(-1.43858e-08 -1.01171e-09 6.78373e-09)
(-1.31246e-08 -7.44077e-10 4.69917e-09)
(-1.31977e-08 3.95455e-10 -2.13222e-10)
(-6.68787e-09 1.14374e-09 -5.63816e-09)
(-5.16692e-09 9.68893e-10 -1.56007e-08)
(1.51257e-08 1.47682e-08 -3.44203e-08)
(1.03881e-08 -1.4746e-08 -4.11106e-08)
(-5.64573e-09 -2.66922e-09 1.87907e-09)
(-9.89173e-09 -1.4881e-09 4.20778e-09)
(-1.00355e-08 1.41659e-08 2.73567e-09)
(-7.10491e-09 -9.69161e-10 1.75262e-09)
(-1.0064e-08 5.06793e-11 1.00846e-09)
(-4.12392e-09 6.8405e-10 -1.67735e-09)
(6.28888e-09 7.33055e-09 -5.41477e-09)
(1.07285e-08 3.24167e-09 -5.9484e-09)
(5.0621e-11 2.91344e-07 -2.71311e-08)
(-1.18104e-08 -2.08314e-09 8.04258e-09)
(-1.2675e-08 4.08569e-10 8.10696e-09)
(-1.42918e-08 -1.56064e-09 7.06713e-09)
(-1.34158e-08 -1.27153e-09 2.92989e-09)
(-1.13921e-08 -2.20159e-09 -4.92902e-09)
(-7.44356e-09 -2.58383e-09 -1.06176e-08)
(-5.99714e-09 -4.56339e-10 -2.01439e-08)
(1.61773e-09 6.97402e-09 -4.0081e-08)
(-2.12964e-07 1.24879e-08 -5.02607e-08)
(-1.09277e-08 -1.3216e-09 5.72287e-09)
(-1.45783e-08 -2.71488e-10 7.51013e-09)
(-1.41247e-08 -3.89353e-10 7.10157e-09)
(-1.29419e-08 -3.811e-10 4.24781e-09)
(-1.07789e-08 -1.22711e-09 -1.43181e-09)
(-6.59298e-09 -3.74734e-10 -7.66726e-09)
(-1.50767e-08 -1.29513e-08 -2.15631e-08)
(-2.66194e-09 -6.23793e-09 -4.61224e-08)
(-5.78413e-09 -5.88452e-09 -6.90913e-08)
(-1.00615e-08 -2.04995e-09 4.73568e-09)
(-1.09553e-08 -1.59084e-10 5.77517e-09)
(-1.10972e-08 -2.05552e-10 6.51523e-09)
(-9.95238e-09 -4.74248e-10 3.80264e-09)
(-7.10054e-09 -3.87953e-10 -1.395e-09)
(-3.23095e-09 -4.35144e-10 -6.89216e-09)
(3.74638e-09 -4.32278e-09 -1.5148e-08)
(4.31038e-09 -4.56108e-09 -3.10915e-08)
(4.40616e-09 -6.89042e-09 -3.98626e-08)
(-5.91562e-09 -8.48756e-10 1.7796e-09)
(-9.80624e-09 -8.64142e-10 3.13367e-09)
(-6.57616e-09 -8.52248e-11 3.13417e-09)
(-5.99014e-09 -7.69419e-10 2.00012e-09)
(-4.06794e-09 -5.92084e-10 -4.80065e-10)
(-1.76008e-09 -4.44216e-10 -3.01249e-09)
(1.16781e-09 -2.46576e-10 -5.89816e-09)
(2.02439e-09 -2.09605e-09 -7.65477e-09)
(-8.0569e-12 -9.96592e-11 -1.87711e-08)
(-7.64249e-09 -8.21301e-10 5.35242e-09)
(-8.22599e-09 1.20783e-09 6.35943e-09)
(-9.17851e-09 1.50069e-09 5.26577e-09)
(-8.57719e-09 -8.37002e-10 2.14248e-09)
(-6.23119e-09 -1.15101e-09 -3.63779e-09)
(-5.7286e-09 -3.24516e-10 -6.81563e-09)
(-3.85282e-09 -4.41104e-10 -1.35199e-08)
(-2.15186e-09 3.38541e-10 -1.70611e-08)
(-1.83525e-09 1.43381e-09 -1.20864e-08)
(-8.1641e-09 -1.73264e-09 4.16154e-09)
(-9.82033e-09 7.0041e-10 6.30268e-09)
(-1.00419e-08 2.39932e-10 5.30924e-09)
(-8.06433e-09 -2.57575e-10 2.57661e-09)
(-5.59564e-09 -6.63838e-11 -1.63694e-09)
(-2.81383e-09 1.09462e-09 -5.81636e-09)
(-1.73952e-09 1.23965e-09 -1.41617e-08)
(-1.08527e-09 -4.25004e-10 -2.18712e-08)
(-4.07305e-09 2.0741e-09 -2.73132e-08)
(-7.33611e-09 -3.92626e-10 3.75199e-09)
(-7.76342e-09 3.28959e-10 5.22226e-09)
(-7.74547e-09 -1.57584e-09 4.86801e-09)
(-7.98221e-09 -2.46273e-09 2.39963e-09)
(-4.23204e-09 -5.27989e-10 -1.73864e-09)
(-3.26585e-10 2.33474e-10 -4.97182e-09)
(1.34155e-09 2.02077e-09 -1.01889e-08)
(2.23668e-09 1.95283e-09 -1.50131e-08)
(4.46278e-10 -2.86738e-09 -1.5863e-08)
(-4.17558e-09 3.54296e-10 1.23759e-09)
(-4.96547e-09 7.18292e-11 1.98983e-09)
(-5.65638e-09 -1.39453e-09 2.56908e-09)
(-3.68765e-09 -1.34969e-09 7.73396e-10)
(-2.66035e-09 -4.27474e-10 -6.47122e-10)
(-2.06741e-10 -1.25359e-09 -2.64338e-09)
(4.81293e-10 9.12361e-11 -4.09661e-09)
(1.73306e-09 -1.67573e-09 -5.58204e-09)
(1.83884e-09 -2.27331e-09 -7.04786e-09)
)
;

boundaryField
{
    inlet
    {
        type            zeroGradient;
    }
    outlet
    {
        type            zeroGradient;
    }
    wall
    {
        type            zeroGradient;
    }
    procBoundary3to1
    {
        type            processor;
        value           nonuniform List<vector> 
27
(
(-1.16629e-08 -4.91174e-09 9.98803e-09)
(-1.57248e-08 -8.5363e-09 1.27721e-08)
(-1.25371e-08 -1.00342e-08 1.07949e-08)
(-1.87532e-08 -3.89803e-09 2.85385e-09)
(-1.79144e-08 -4.55962e-09 -6.38805e-09)
(-6.46499e-09 -4.33405e-09 -9.44086e-09)
(3.61186e-09 -5.46887e-09 -2.1557e-08)
(2.20048e-08 7.57373e-09 -3.11876e-08)
(1.6839e-08 1.46852e-08 -3.10558e-08)
(-8.47444e-09 -6.27331e-10 9.50913e-09)
(-1.054e-08 -8.04174e-10 1.14129e-08)
(-1.21879e-08 -2.25985e-09 9.02539e-09)
(-1.39942e-08 -3.53334e-09 2.59335e-09)
(-1.01415e-08 -4.3626e-09 -6.51802e-09)
(-5.36287e-09 -5.39588e-09 -1.26977e-08)
(7.69697e-10 -3.54367e-09 -2.05203e-08)
(7.47086e-09 6.96697e-10 -2.57857e-08)
(1.90804e-09 1.81877e-09 -2.55839e-08)
(-4.32257e-09 7.85394e-10 6.24291e-09)
(-3.72369e-09 1.57058e-09 7.44034e-09)
(-5.33209e-09 2.62251e-09 6.03272e-09)
(-7.11937e-09 5.56854e-10 2.19073e-09)
(-5.58861e-09 -1.09685e-09 -3.28365e-09)
(-4.18759e-09 -2.62041e-09 -8.14844e-09)
(-1.62329e-09 8.23443e-10 -1.47903e-08)
(-2.3088e-09 -2.29795e-10 -1.29819e-08)
(-3.55994e-09 3.7328e-09 -1.26864e-08)
)
;
    }
    procBoundary3to2
    {
        type            processor;
        value           nonuniform List<vector> 
12
(
(-9.18277e-09 -2.49111e-09 3.47447e-09)
(-9.15652e-09 -2.23849e-09 3.43042e-09)
(-7.85645e-09 -1.89197e-09 2.26105e-09)
(-5.47875e-09 -1.67004e-10 1.07017e-09)
(-7.35445e-09 -1.87001e-09 4.22614e-09)
(-8.88882e-09 -1.88379e-09 3.99024e-09)
(-7.90645e-09 -1.43007e-09 2.78905e-09)
(-2.79554e-09 -8.45383e-11 3.67918e-10)
(-6.81658e-09 -1.38042e-09 4.66382e-09)
(-6.54995e-09 -1.58854e-09 3.36156e-09)
(-5.81983e-09 -9.10893e-10 2.40264e-09)
(-3.09152e-09 -3.51843e-10 9.95275e-10)
)
;
    }
    procBoundary3to7
    {
        type            processor;
        value           nonuniform List<vector> 
36
(
(-5.6922e-09 -1.92315e-10 3.8424e-09)
(-6.36248e-09 6.60612e-10 4.36537e-09)
(-5.72235e-09 1.47861e-09 3.46187e-09)
(-5.14499e-09 9.39993e-10 3.60696e-10)
(-4.98836e-09 9.67377e-10 -1.70765e-09)
(-6.05259e-09 4.20667e-10 -4.20553e-09)
(-5.13053e-09 6.04261e-10 -7.15706e-09)
(-5.58178e-09 7.12644e-10 -7.88776e-09)
(-3.59939e-09 -3.72873e-10 -7.29908e-09)
(-6.35871e-09 -8.14437e-10 2.59119e-09)
(-6.55097e-09 -3.9444e-11 3.98554e-09)
(-6.02403e-09 8.25112e-11 2.11342e-09)
(-6.00943e-09 -7.31756e-10 1.06007e-09)
(-2.995e-09 4.76406e-10 -1.93365e-09)
(-1.82967e-09 2.79978e-10 -4.14885e-09)
(-1.15577e-09 5.85554e-10 -7.1931e-09)
(-1.65336e-09 7.26591e-10 -1.22806e-08)
(-1.72343e-09 -1.25604e-09 -1.19689e-08)
(-5.29997e-09 -1.78371e-09 1.25653e-09)
(-6.10891e-09 -3.2964e-10 3.13809e-09)
(-5.5048e-09 -9.14909e-10 1.83277e-09)
(-5.25851e-09 -1.56851e-09 4.80097e-10)
(-3.34273e-09 -2.82474e-10 -1.55895e-09)
(-1.91358e-09 -6.08636e-10 -4.05436e-09)
(-4.48732e-10 3.92106e-10 -5.0178e-09)
(-6.95543e-10 6.06692e-10 -8.47429e-09)
(3.62779e-09 5.83257e-10 -8.11954e-09)
(-3.40112e-09 -1.44887e-09 1.34691e-10)
(-3.37189e-09 -2.77803e-10 4.44382e-10)
(-3.21416e-09 -8.90093e-10 6.63083e-10)
(-3.68678e-09 -9.70192e-10 -1.29833e-10)
(-2.64345e-09 -5.07777e-10 -4.56241e-10)
(-1.88091e-09 -9.25195e-10 -1.94849e-09)
(-7.12045e-10 -4.77693e-10 -3.09624e-09)
(6.02055e-10 9.49845e-11 -2.97369e-09)
(2.5719e-09 7.89767e-10 -3.19745e-09)
)
;
    }
}


// ************************************************************************* //
