/*--------------------------------*- C++ -*----------------------------------*\
| =========                 |                                                 |
| \\      /  F ield         | OpenFOAM: The Open Source CFD Toolbox           |
|  \\    /   O peration     | Version:  4.x                                   |
|   \\  /    A nd           | Web:      www.OpenFOAM.org                      |
|    \\/     M anipulation  |                                                 |
\*---------------------------------------------------------------------------*/
FoamFile
{
    version     2.0;
    format      ascii;
    class       volVectorField;
    location    "30.5";
    object      UsPrev;
}
// * * * * * * * * * * * * * * * * * * * * * * * * * * * * * * * * * * * * * //

dimensions      [0 1 -1 0 0 0 0];

internalField   nonuniform List<vector> 
108
(
(-1.27945e-08 -4.37041e-09 7.25565e-09)
(-1.54406e-08 -3.70978e-09 9.44145e-09)
(-2.42231e-08 6.8858e-09 8.23213e-09)
(-1.96962e-08 4.20397e-10 4.40331e-09)
(-1.89823e-08 -2.64596e-09 -4.07972e-09)
(-7.20613e-09 -2.20428e-09 -8.62186e-09)
(-1.96074e-09 -6.73732e-09 -2.28534e-08)
(8.8489e-08 4.89368e-08 -4.78264e-08)
(-1.03705e-06 2.53709e-08 -7.04686e-08)
(-1.36989e-08 -1.27886e-09 6.18209e-09)
(-1.80396e-08 -2.49814e-10 7.88762e-09)
(-1.74514e-08 -4.9508e-10 6.82212e-09)
(-1.73402e-08 1.54309e-10 4.55117e-09)
(-1.63122e-08 -6.49405e-10 -1.59327e-09)
(-1.31882e-08 1.58672e-09 -7.64248e-09)
(-4.21733e-10 -2.7605e-10 -3.26913e-08)
(-2.11629e-09 1.88453e-08 -5.65497e-08)
(-1.56888e-06 4.99312e-08 -1.79471e-07)
(-1.25883e-08 -1.12718e-08 5.89783e-09)
(-1.51343e-08 -9.75279e-10 6.65626e-09)
(-1.44681e-08 -1.00533e-09 6.79311e-09)
(-1.32131e-08 -7.35452e-10 4.69917e-09)
(-1.3285e-08 3.98165e-10 -2.13883e-10)
(-6.78843e-09 1.1475e-09 -5.64185e-09)
(-5.24421e-09 9.66985e-10 -1.56039e-08)
(1.50624e-08 1.47665e-08 -3.44228e-08)
(1.03528e-08 -1.47539e-08 -4.11083e-08)
(-5.70251e-09 -2.66294e-09 1.88276e-09)
(-1.00267e-08 -1.48205e-09 4.20883e-09)
(-1.01314e-08 1.41715e-08 2.73545e-09)
(-7.14079e-09 -9.66695e-10 1.75376e-09)
(-1.01274e-08 5.16801e-11 1.00766e-09)
(-4.15961e-09 6.84922e-10 -1.67798e-09)
(6.22038e-09 7.33182e-09 -5.41648e-09)
(1.07144e-08 3.24257e-09 -5.94895e-09)
(8.94306e-12 2.91488e-07 -2.71297e-08)
(-1.18802e-08 -2.04463e-09 8.06327e-09)
(-1.28457e-08 4.42513e-10 8.12201e-09)
(-1.43717e-08 -1.56596e-09 7.12313e-09)
(-1.34669e-08 -1.26017e-09 2.92421e-09)
(-1.14555e-08 -2.20081e-09 -4.93361e-09)
(-7.51793e-09 -2.58236e-09 -1.06293e-08)
(-6.07107e-09 -4.5443e-10 -2.0152e-08)
(1.55571e-09 6.97729e-09 -4.00933e-08)
(-2.13005e-07 1.24894e-08 -5.0265e-08)
(-1.1035e-08 -1.28078e-09 5.73994e-09)
(-1.47646e-08 -2.36199e-10 7.52611e-09)
(-1.42099e-08 -3.73723e-10 7.15018e-09)
(-1.3017e-08 -3.62312e-10 4.24891e-09)
(-1.08627e-08 -1.22378e-09 -1.43468e-09)
(-6.67722e-09 -3.69733e-10 -7.67398e-09)
(-1.51522e-08 -1.29492e-08 -2.15693e-08)
(-2.72902e-09 -6.23616e-09 -4.6132e-08)
(-5.81859e-09 -5.88606e-09 -6.90969e-08)
(-1.0198e-08 -2.02104e-09 4.74988e-09)
(-1.11586e-08 -1.37475e-10 5.7858e-09)
(-1.12091e-08 -1.93939e-10 6.58273e-09)
(-1.00605e-08 -4.62713e-10 3.81292e-09)
(-7.20084e-09 -3.8469e-10 -1.3956e-09)
(-3.32663e-09 -4.30681e-10 -6.89499e-09)
(3.65517e-09 -4.32183e-09 -1.51508e-08)
(4.23606e-09 -4.56024e-09 -3.10953e-08)
(4.36307e-09 -6.89306e-09 -3.98615e-08)
(-6.01133e-09 -8.37559e-10 1.78729e-09)
(-9.98164e-09 -8.56314e-10 3.14893e-09)
(-6.65507e-09 -8.1055e-11 3.2054e-09)
(-6.07277e-09 -7.64738e-10 2.00493e-09)
(-4.1457e-09 -5.89915e-10 -4.80869e-10)
(-1.84361e-09 -4.41712e-10 -3.01311e-09)
(1.10616e-09 -2.44405e-10 -5.89784e-09)
(1.97041e-09 -2.0953e-09 -7.65712e-09)
(-4.12355e-11 -1.01171e-10 -1.87697e-08)
(-7.71769e-09 -7.89087e-10 5.37899e-09)
(-8.33374e-09 1.23164e-09 6.38355e-09)
(-9.23655e-09 1.51331e-09 5.34156e-09)
(-8.67574e-09 -8.28518e-10 2.15419e-09)
(-6.28312e-09 -1.1491e-09 -3.64285e-09)
(-5.79503e-09 -3.14975e-10 -6.82659e-09)
(-3.91711e-09 -4.3576e-10 -1.35286e-08)
(-2.19775e-09 3.45617e-10 -1.70716e-08)
(-1.8675e-09 1.43548e-09 -1.20885e-08)
(-8.25852e-09 -1.7003e-09 4.1845e-09)
(-9.93704e-09 7.28584e-10 6.33843e-09)
(-1.01215e-08 2.63776e-10 5.3901e-09)
(-8.17963e-09 -2.41274e-10 2.58686e-09)
(-5.65543e-09 -6.19564e-11 -1.63887e-09)
(-2.87771e-09 1.10459e-09 -5.82062e-09)
(-1.80638e-09 1.24488e-09 -1.41668e-08)
(-1.144e-09 -4.19467e-10 -2.18789e-08)
(-4.10386e-09 2.07372e-09 -2.73156e-08)
(-7.46275e-09 -3.72571e-10 3.76936e-09)
(-7.90415e-09 3.47696e-10 5.23985e-09)
(-7.84445e-09 -1.56407e-09 4.95014e-09)
(-8.1313e-09 -2.44991e-09 2.41491e-09)
(-4.31301e-09 -5.24381e-10 -1.73865e-09)
(-4.05345e-10 2.39928e-10 -4.97247e-09)
(1.25506e-09 2.02461e-09 -1.01915e-08)
(2.17021e-09 1.95641e-09 -1.50173e-08)
(4.09568e-10 -2.87019e-09 -1.58626e-08)
(-4.2642e-09 3.60408e-10 1.24702e-09)
(-5.06633e-09 7.99037e-11 2.01781e-09)
(-5.73047e-09 -1.3894e-09 2.65282e-09)
(-3.80367e-09 -1.34742e-09 7.86938e-10)
(-2.7436e-09 -4.24466e-10 -6.45827e-10)
(-2.6213e-10 -1.25144e-09 -2.6427e-09)
(4.18479e-10 9.14057e-11 -4.09598e-09)
(1.67952e-09 -1.67315e-09 -5.58347e-09)
(1.80589e-09 -2.2747e-09 -7.04735e-09)
)
;

boundaryField
{
    inlet
    {
        type            calculated;
        value           nonuniform 0();
    }
    outlet
    {
        type            calculated;
        value           uniform (0 0 0);
    }
    wall
    {
        type            calculated;
        value           uniform (0 0 0);
    }
    procBoundary3to1
    {
        type            processor;
        value           uniform (0 0 0);
    }
    procBoundary3to2
    {
        type            processor;
        value           uniform (0 0 0);
    }
    procBoundary3to7
    {
        type            processor;
        value           uniform (0 0 0);
    }
}


// ************************************************************************* //
