/*--------------------------------*- C++ -*----------------------------------*\
| =========                 |                                                 |
| \\      /  F ield         | OpenFOAM: The Open Source CFD Toolbox           |
|  \\    /   O peration     | Version:  4.x                                   |
|   \\  /    A nd           | Web:      www.OpenFOAM.org                      |
|    \\/     M anipulation  |                                                 |
\*---------------------------------------------------------------------------*/
FoamFile
{
    version     2.0;
    format      ascii;
    class       volScalarField;
    location    "7";
    object      SPartFluid;
}
// * * * * * * * * * * * * * * * * * * * * * * * * * * * * * * * * * * * * * //

dimensions      [1 -3 -1 0 0 0 0];

internalField   nonuniform List<scalar> 
87
(
6.76448e-65
6.06166e-65
7.15273e-65
5.12589e-65
5.82805e-65
4.97484e-65
1.03916e-64
7.5998e-65
4.96328e-65
7.44569e-65
9.38585e-65
6.12915e-65
7.37212e-65
6.52102e-65
8.54098e-65
5.81631e-65
7.91035e-65
6.43717e-65
8.53214e-65
7.3697e-65
7.83701e-65
7.06254e-65
8.61717e-65
7.60873e-65
4.96332e-65
7.21246e-65
5.42911e-65
6.12788e-65
7.6029e-65
8.76886e-65
6.36496e-65
6.83211e-65
7.5313e-65
7.98736e-65
7.67713e-65
7.91009e-65
7.29016e-65
5.42931e-65
7.05874e-65
6.28359e-65
5.89619e-65
7.91338e-65
5.66103e-65
7.28959e-65
6.82463e-65
7.21293e-65
5.97256e-65
5.58561e-65
7.75856e-65
5.74136e-65
7.75855e-65
5.19579e-65
6.74682e-65
5.58398e-65
7.60107e-65
7.29169e-65
5.97362e-65
6.51764e-65
6.13068e-65
5.66411e-65
4.73034e-65
5.2732e-65
5.97137e-65
6.90228e-65
6.51491e-65
6.4377e-65
8.68757e-65
8.76508e-65
3.80059e-65
6.04867e-65
5.50591e-65
6.82454e-65
5.66167e-65
8.60939e-65
5.66255e-65
6.90409e-65
5.66278e-65
7.83416e-65
4.42024e-65
6.28144e-65
6.12668e-65
6.43735e-65
4.96435e-65
8.22273e-65
4.80985e-65
5.12034e-65
6.05035e-65
)
;

boundaryField
{
    inlet
    {
        type            calculated;
        value           uniform 0;
    }
    outlet
    {
        type            calculated;
        value           nonuniform 0();
    }
    wall
    {
        type            calculated;
        value           uniform 0;
    }
    procBoundary6to0
    {
        type            processor;
        value           uniform 2.3314e-65;
    }
    procBoundary6to2
    {
        type            processor;
        value           nonuniform List<scalar> 
32
(
4.91773e-65
7.472e-65
8.41937e-65
8.31715e-65
4.97947e-65
8.95691e-65
4.80838e-65
8.14311e-65
8.37643e-65
6.51595e-65
6.43959e-65
6.28669e-65
6.29027e-65
7.77161e-65
7.77161e-65
7.77161e-65
6.90251e-65
6.9026e-65
8.37686e-65
5.81814e-65
7.21632e-65
6.90882e-65
8.3883e-65
8.3883e-65
8.3883e-65
5.27389e-65
6.51501e-65
6.28293e-65
7.13732e-65
5.50959e-65
6.36549e-65
6.36549e-65
)
;
    }
    procBoundary6to4
    {
        type            processor;
        value           nonuniform List<scalar> 
27
(
4.34266e-65
5.73853e-65
7.59992e-65
5.19619e-65
7.36846e-65
6.0506e-65
9.54371e-65
5.97521e-65
5.97575e-65
6.66895e-65
7.21183e-65
5.97123e-65
8.53075e-65
8.76388e-65
6.4376e-65
9.61871e-65
7.91239e-65
6.82584e-65
7.75449e-65
7.05666e-65
5.81612e-65
7.83267e-65
7.13498e-65
9.22935e-65
4.49864e-65
4.88624e-65
6.35929e-65
)
;
    }
    procBoundary6to7
    {
        type            processor;
        value           nonuniform List<scalar> 
12
(
7.7019e-65
5.52164e-65
5.12886e-65
3.95873e-65
5.82107e-65
5.66538e-65
8.06591e-65
7.05758e-65
5.35141e-65
6.90073e-65
5.97025e-65
6.28092e-65
)
;
    }
}


// ************************************************************************* //
