/*--------------------------------*- C++ -*----------------------------------*\
| =========                 |                                                 |
| \\      /  F ield         | OpenFOAM: The Open Source CFD Toolbox           |
|  \\    /   O peration     | Version:  4.x                                   |
|   \\  /    A nd           | Web:      www.OpenFOAM.org                      |
|    \\/     M anipulation  |                                                 |
\*---------------------------------------------------------------------------*/
FoamFile
{
    version     2.0;
    format      ascii;
    class       volScalarField;
    location    "44.5";
    object      KslPrev;
}
// * * * * * * * * * * * * * * * * * * * * * * * * * * * * * * * * * * * * * //

dimensions      [1 -3 -1 0 0 0 0];

internalField   nonuniform List<scalar> 
114
(
6254.18
3142.69
5505.34
3028.39
5063.91
2874.95
3395.22
8093.55
3328.06
6999.63
3279.39
6456.55
3213.44
6230.77
3127.56
3347.7
7536.42
3225.19
6176.82
3136.18
5507.82
3031.28
5133.49
2913.24
3291.74
6769.29
3091.46
5286.48
2908.93
4512.02
2738.74
4071.73
2633.73
12866.3
3678.85
14789.2
3556.13
3435.76
9986.05
3588.56
12017.2
3691.34
15469.8
3740.77
23292.6
3709.41
3409.76
9116.13
3516.82
9504.37
3528.44
9842.16
3512.44
10442.9
3425.72
3332.51
7582.21
3292.33
6560.13
3166.44
5920.1
3077.96
5546.72
2968.18
24228.6
3652.51
3497.5
10721.5
3713.14
15723.4
3831.3
28153.4
3894.98
106950
3913.46
3440.8
9973.83
3636.54
12758.9
3722.52
17068
3767.69
28059.6
3745.52
3367.01
8178.61
3390.56
7657.23
3321.44
7199.84
3319.15
7143.41
3251.19
3502.78
11560.4
3749.49
17855
3819.3
30471.7
3822.04
80590.1
3459.58
9759.24
3633.21
11354.2
3653.22
12588.9
3597.05
3356.5
7969.36
3386.49
7493.06
3330.46
7032.23
)
;

boundaryField
{
    inlet
    {
        type            zeroGradient;
    }
    outlet
    {
        type            zeroGradient;
    }
    wall
    {
        type            zeroGradient;
    }
    procBoundary2to0
    {
        type            processor;
        value           uniform 0;
    }
    procBoundary2to3
    {
        type            processor;
        value           uniform 0;
    }
    procBoundary2to6
    {
        type            processor;
        value           uniform 0;
    }
}


// ************************************************************************* //
