/*--------------------------------*- C++ -*----------------------------------*\
| =========                 |                                                 |
| \\      /  F ield         | OpenFOAM: The Open Source CFD Toolbox           |
|  \\    /   O peration     | Version:  4.x                                   |
|   \\  /    A nd           | Web:      www.OpenFOAM.org                      |
|    \\/     M anipulation  |                                                 |
\*---------------------------------------------------------------------------*/
FoamFile
{
    version     2.0;
    format      ascii;
    class       volScalarField;
    location    "44.5";
    object      QPartFluidCoeff;
}
// * * * * * * * * * * * * * * * * * * * * * * * * * * * * * * * * * * * * * //

dimensions      [1 -1 -3 -1 0 0 0];

internalField   nonuniform List<scalar> 
114
(
-2.37838e+07
-1.86446e+07
-1.01752e+07
-1.9903e+07
-1.21222e+07
-1.53309e+07
-1.93863e+07
-2.31029e+07
-2.04418e+07
-1.45867e+07
-2.44569e+07
-1.66354e+07
-2.33257e+07
-2.2372e+07
-1.49053e+07
-1.29299e+07
-2.05552e+07
-1.69853e+07
-1.79755e+07
-1.93712e+07
-1.74823e+07
-2.26719e+07
-1.80029e+07
-2.1707e+07
-1.32884e+07
-1.33526e+07
-1.72017e+07
-1.514e+07
-1.31927e+07
-1.3655e+07
-1.01996e+07
-1.78041e+07
-1.32689e+07
-3.28305e+07
-4.10199e+07
-2.20415e+07
-3.74322e+07
-1.57748e+07
-2.6453e+07
-3.19761e+07
-3.05777e+07
-2.96081e+07
-2.32827e+07
-3.71736e+07
-2.89916e+07
-2.1356e+07
-1.95363e+07
-3.33778e+07
-3.55413e+07
-3.06174e+07
-3.14123e+07
-2.95765e+07
-3.05792e+07
-2.96765e+07
-2.56475e+07
-1.68818e+07
-1.79343e+07
-2.78618e+07
-2.00916e+07
-2.53318e+07
-2.17732e+07
-2.23984e+07
-2.3674e+07
-1.60693e+07
-2.68803e+07
-3.09826e+07
-2.28702e+07
-1.9125e+07
-2.24924e+07
-2.28795e+07
-2.25309e+07
-2.56117e+07
-3.27402e+07
-2.40183e+07
-1.91309e+07
-1.66391e+07
-2.31796e+07
-3.0303e+07
-3.49186e+07
-3.06089e+07
-2.33908e+07
-3.1578e+07
-2.82865e+07
-3.41195e+07
-1.66974e+07
-2.53385e+07
-2.32755e+07
-2.4965e+07
-1.59376e+07
-2.27939e+07
-3.23287e+07
-1.78369e+07
-2.58054e+07
-1.63299e+07
-3.16154e+07
-3.43382e+07
-2.38527e+07
-2.74713e+07
-2.09133e+07
-2.52941e+07
-2.49668e+07
-1.95748e+07
-2.63692e+07
-3.50956e+07
-2.20531e+07
-3.04177e+07
-2.56998e+07
-3.43853e+07
-1.41977e+07
-2.10126e+07
-2.5046e+07
-2.41709e+07
-2.25177e+07
-2.16644e+07
)
;

boundaryField
{
    inlet
    {
        type            calculated;
        value           uniform 0;
    }
    outlet
    {
        type            calculated;
        value           nonuniform 0();
    }
    wall
    {
        type            calculated;
        value           uniform 0;
    }
    procBoundary2to0
    {
        type            processor;
        value           nonuniform List<scalar> 
44
(
382.705
420.588
369.491
300.832
390.771
642.856
225.172
342.612
265.225
265.225
416.607
855.67
509.378
794.884
521.066
479.68
602.022
531.867
589.393
416.607
855.67
855.67
607.544
663.526
487.965
407.926
522.02
655.391
723.884
680.334
754.129
607.544
663.526
663.526
417.734
197.751
364.92
508.588
742.937
772.226
416.273
740.091
646.621
417.734
)
;
    }
    procBoundary2to3
    {
        type            processor;
        value           nonuniform List<scalar> 
12
(
641.733
467.929
501.763
327.957
646.627
575.238
963.05
637.099
623.218
721.958
456.493
662.791
)
;
    }
    procBoundary2to6
    {
        type            processor;
        value           nonuniform List<scalar> 
32
(
613.116
513.927
677.825
430.992
471.015
425.164
752.31
676.841
459.914
604.384
836.639
460.425
657.777
613.116
513.927
503.716
476.443
696.736
618.154
772.536
669.25
660.452
513.927
430.992
661.561
353.646
573.277
450.583
464.61
658.206
430.992
715.763
)
;
    }
}


// ************************************************************************* //
