/*--------------------------------*- C++ -*----------------------------------*\
| =========                 |                                                 |
| \\      /  F ield         | OpenFOAM: The Open Source CFD Toolbox           |
|  \\    /   O peration     | Version:  4.x                                   |
|   \\  /    A nd           | Web:      www.OpenFOAM.org                      |
|    \\/     M anipulation  |                                                 |
\*---------------------------------------------------------------------------*/
FoamFile
{
    version     2.0;
    format      ascii;
    class       volScalarField;
    location    "44.5";
    object      Qsource;
}
// * * * * * * * * * * * * * * * * * * * * * * * * * * * * * * * * * * * * * //

dimensions      [1 -1 -3 0 0 0 0];

internalField   nonuniform List<scalar> 
114
(
7.66718e+09
6.52634e+09
3.64996e+09
6.94001e+09
4.27585e+09
5.60366e+09
6.66365e+09
7.35565e+09
7.01037e+09
4.86253e+09
8.23758e+09
5.51408e+09
7.91735e+09
7.24982e+09
5.40824e+09
4.73176e+09
6.61399e+09
5.99007e+09
5.92719e+09
6.74447e+09
5.83824e+09
7.76676e+09
6.03193e+09
7.50752e+09
5.69639e+09
4.97033e+09
6.99283e+09
5.73902e+09
5.91503e+09
5.47611e+09
5.12837e+09
6.84734e+09
6.12741e+09
9.84914e+09
1.2306e+10
6.61244e+09
1.12297e+10
4.73243e+09
7.9359e+09
9.59284e+09
9.17331e+09
8.88243e+09
6.9848e+09
1.11521e+10
8.69748e+09
6.4068e+09
5.86088e+09
1.00133e+10
1.06624e+10
9.18522e+09
9.42369e+09
8.87294e+09
9.17376e+09
8.90296e+09
7.69426e+09
5.90795e+09
5.82132e+09
9.23343e+09
6.53051e+09
8.50636e+09
7.08366e+09
7.65534e+09
7.68463e+09
5.78348e+09
8.0641e+09
9.29479e+09
6.86107e+09
5.7375e+09
6.74771e+09
6.86384e+09
6.75928e+09
7.68352e+09
9.82206e+09
7.20549e+09
5.73926e+09
4.99172e+09
6.95389e+09
9.09091e+09
1.04756e+10
9.18267e+09
7.01724e+09
9.47341e+09
8.48596e+09
1.02359e+10
5.84368e+09
8.01367e+09
7.82984e+09
7.93015e+09
5.6442e+09
7.30252e+09
1.05671e+10
5.81929e+09
8.6216e+09
4.89896e+09
9.48463e+09
1.03014e+10
7.1558e+09
8.24139e+09
6.27398e+09
7.58823e+09
7.49003e+09
5.87244e+09
7.91075e+09
1.05287e+10
6.61592e+09
9.1253e+09
7.70994e+09
1.03156e+10
5.0885e+09
6.72118e+09
8.35591e+09
7.69489e+09
7.61184e+09
6.966e+09
)
;

boundaryField
{
    inlet
    {
        type            calculated;
        value           uniform 0;
    }
    outlet
    {
        type            calculated;
        value           nonuniform 0();
    }
    wall
    {
        type            calculated;
        value           uniform 0;
    }
    procBoundary2to0
    {
        type            processor;
        value           nonuniform List<scalar> 
44
(
5.58712e+09
6.49358e+09
5.46728e+09
4.93872e+09
5.77961e+09
9.47608e+09
3.83843e+09
4.98271e+09
4.40817e+09
4.40817e+09
5.51172e+09
1.13205e+10
6.73907e+09
1.05163e+10
6.8937e+09
6.34617e+09
7.96475e+09
7.0366e+09
7.79767e+09
5.51172e+09
1.13205e+10
1.13205e+10
8.03781e+09
8.77845e+09
6.45578e+09
5.39686e+09
6.90633e+09
8.67082e+09
9.57699e+09
9.00083e+09
9.97713e+09
8.03781e+09
8.77845e+09
8.77845e+09
5.52662e+09
2.61625e+09
4.82789e+09
6.72862e+09
9.82905e+09
1.02166e+10
5.50729e+09
9.79141e+09
8.5548e+09
5.52662e+09
)
;
    }
    procBoundary2to3
    {
        type            processor;
        value           nonuniform List<scalar> 
12
(
9.14934e+09
6.71848e+09
7.29123e+09
5.92103e+09
8.55488e+09
7.6104e+09
1.27412e+10
9.02486e+09
8.24518e+09
9.55151e+09
6.03941e+09
9.22014e+09
)
;
    }
    procBoundary2to6
    {
        type            processor;
        value           nonuniform List<scalar> 
32
(
8.11153e+09
6.79925e+09
8.96763e+09
6.57544e+09
6.71759e+09
6.51577e+09
9.95306e+09
8.95461e+09
6.08466e+09
7.99601e+09
1.10687e+10
6.09142e+09
8.70239e+09
8.11153e+09
6.79925e+09
6.66416e+09
6.30334e+09
9.21782e+09
8.17817e+09
1.02207e+10
8.85418e+09
8.73778e+09
6.79925e+09
6.57544e+09
8.75246e+09
5.50541e+09
7.99361e+09
6.79147e+09
6.56542e+09
9.53457e+09
6.57544e+09
9.87514e+09
)
;
    }
}


// ************************************************************************* //
