/*--------------------------------*- C++ -*----------------------------------*\
| =========                 |                                                 |
| \\      /  F ield         | OpenFOAM: The Open Source CFD Toolbox           |
|  \\    /   O peration     | Version:  4.x                                   |
|   \\  /    A nd           | Web:      www.OpenFOAM.org                      |
|    \\/     M anipulation  |                                                 |
\*---------------------------------------------------------------------------*/
FoamFile
{
    version     2.0;
    format      ascii;
    class       volVectorField;
    location    "36.5";
    object      ddtUrel;
}
// * * * * * * * * * * * * * * * * * * * * * * * * * * * * * * * * * * * * * //

dimensions      [0 1 -2 0 0 0 0];

internalField   nonuniform List<vector> 
108
(
(-7.99158e-09 7.2402e-10 1.28137e-09)
(-9.60383e-09 7.06983e-10 2.13444e-09)
(-7.5384e-09 5.66969e-10 2.82311e-09)
(-4.17727e-09 1.26448e-11 3.2082e-09)
(-9.86301e-10 -5.31218e-10 3.60545e-09)
(2.40036e-09 -1.26605e-09 3.98343e-09)
(3.76603e-09 -2.19092e-09 3.84844e-09)
(5.36749e-09 -4.6432e-09 2.40548e-09)
(-1.54258e-08 -1.32633e-08 -8.3626e-09)
(-3.89169e-09 3.77881e-10 1.27014e-09)
(-4.5452e-09 2.70529e-10 2.00724e-09)
(-3.54289e-09 6.954e-11 2.65436e-09)
(-1.53542e-09 -3.41049e-10 3.14423e-09)
(5.96921e-10 -7.61239e-10 3.5896e-09)
(3.25997e-09 -1.21624e-09 3.97203e-09)
(4.03103e-09 -1.43488e-09 3.9642e-09)
(5.00614e-09 -1.63683e-09 2.77951e-09)
(-8.5564e-09 -1.76335e-10 -4.87309e-09)
(-2.49119e-09 -2.0855e-10 1.13401e-09)
(-2.98906e-09 1.75142e-12 1.69971e-09)
(-2.47933e-09 -4.25879e-11 2.25424e-09)
(-7.04606e-10 -4.25797e-10 2.69554e-09)
(1.3553e-09 -6.52142e-10 3.13169e-09)
(3.84667e-09 -5.79209e-10 3.466e-09)
(5.03058e-09 4.47054e-10 3.55818e-09)
(8.02726e-09 2.48004e-09 3.29667e-09)
(3.59993e-09 9.73208e-09 -9.44742e-11)
(-2.29003e-09 7.24032e-11 9.13356e-10)
(-3.37605e-09 2.06274e-10 1.43064e-09)
(-4.37351e-09 8.51804e-10 1.8104e-09)
(-9.62739e-10 -1.34605e-10 2.18153e-09)
(1.4336e-09 -3.55922e-10 2.55404e-09)
(3.91039e-09 1.98808e-10 2.72151e-09)
(5.75372e-09 2.41007e-09 2.56359e-09)
(8.90994e-09 8.91459e-09 1.67171e-09)
(8.68004e-09 3.03767e-08 -3.00907e-09)
(-5.58383e-09 7.22515e-10 1.17e-09)
(-6.66851e-09 6.2479e-10 1.92046e-09)
(-5.64775e-09 3.54125e-10 2.57489e-09)
(-3.72384e-09 -1.17238e-10 2.93807e-09)
(-1.64684e-09 -5.95922e-10 3.32511e-09)
(3.51461e-10 -1.19882e-09 3.68535e-09)
(1.35123e-09 -1.8091e-09 3.80335e-09)
(1.1762e-09 -2.73574e-09 2.98797e-09)
(-2.87792e-09 -3.8921e-09 -1.36704e-09)
(-2.7286e-09 4.71581e-10 1.13681e-09)
(-3.25208e-09 3.26145e-10 1.82167e-09)
(-2.7989e-09 5.48978e-11 2.44059e-09)
(-1.66925e-09 -3.14312e-10 2.87789e-09)
(-2.52716e-10 -7.42836e-10 3.26661e-09)
(1.25055e-09 -1.18754e-09 3.60439e-09)
(1.59155e-09 -1.6645e-09 3.84474e-09)
(1.8804e-09 -1.30049e-09 3.43347e-09)
(-9.90288e-10 -7.29529e-10 1.25653e-09)
(-1.59866e-09 2.0753e-10 9.9886e-10)
(-2.00829e-09 1.06313e-10 1.55357e-09)
(-1.75377e-09 -1.00641e-10 2.10703e-09)
(-8.29466e-10 -3.65114e-10 2.47262e-09)
(3.64063e-10 -6.31564e-10 2.77465e-09)
(1.59237e-09 -6.81416e-10 3.07783e-09)
(2.03606e-09 -2.32972e-10 3.27963e-09)
(2.42036e-09 1.03152e-09 3.28713e-09)
(2.19612e-09 3.3238e-09 2.02873e-09)
(-1.53395e-09 1.78293e-10 8.34719e-10)
(-2.12672e-09 9.72604e-11 1.32e-09)
(-1.99477e-09 8.98517e-11 1.7431e-09)
(-8.21572e-10 -2.26836e-10 2.03086e-09)
(4.99551e-10 -3.47294e-10 2.27432e-09)
(1.80005e-09 -2.92963e-11 2.48271e-09)
(2.70042e-09 1.18943e-09 2.45872e-09)
(3.90307e-09 3.95954e-09 2.15049e-09)
(3.79802e-09 9.32001e-09 7.70623e-10)
(-3.6406e-09 6.79735e-10 9.21663e-10)
(-4.2456e-09 5.78205e-10 1.54956e-09)
(-3.83192e-09 3.07026e-10 2.10404e-09)
(-2.76444e-09 -1.5635e-10 2.47126e-09)
(-1.33609e-09 -6.0885e-10 2.81195e-09)
(2.01837e-11 -1.07025e-09 3.12694e-09)
(9.35697e-10 -1.48696e-09 3.357e-09)
(1.20567e-09 -1.77126e-09 3.04014e-09)
(9.00428e-10 -1.90291e-09 2.23039e-09)
(-1.82298e-09 5.25683e-10 9.01423e-10)
(-2.19021e-09 3.72566e-10 1.4859e-09)
(-2.01737e-09 8.40636e-11 1.98761e-09)
(-1.36072e-09 -2.46887e-10 2.38292e-09)
(-3.80081e-10 -6.18892e-10 2.69879e-09)
(5.91715e-10 -9.87335e-10 3.04841e-09)
(1.19182e-09 -1.19844e-09 3.35522e-09)
(1.36336e-09 -1.11119e-09 3.26562e-09)
(1.01715e-09 -8.0688e-10 2.67956e-09)
(-1.04162e-09 3.31866e-10 7.97825e-10)
(-1.33929e-09 1.92185e-10 1.29683e-09)
(-1.28647e-09 -4.17998e-11 1.77631e-09)
(-7.98749e-10 -2.77505e-10 2.09259e-09)
(-2.60532e-11 -5.21371e-10 2.34712e-09)
(7.06866e-10 -6.29056e-10 2.62186e-09)
(1.10704e-09 -5.33787e-10 2.90717e-09)
(1.28096e-09 2.70288e-11 2.83468e-09)
(1.49618e-09 7.3581e-10 2.49116e-09)
(-9.96635e-10 2.533e-10 6.83386e-10)
(-1.36698e-09 1.36942e-10 1.11553e-09)
(-1.30316e-09 3.66233e-12 1.52427e-09)
(-8.23561e-10 -1.77486e-10 1.7571e-09)
(-2.60883e-11 -3.25547e-10 1.99225e-09)
(6.76427e-10 -1.87755e-10 2.18621e-09)
(1.26247e-09 2.81856e-10 2.2957e-09)
(1.7324e-09 1.30534e-09 2.1669e-09)
(1.90445e-09 2.66303e-09 1.76354e-09)
)
;

boundaryField
{
    inlet
    {
        type            calculated;
        value           nonuniform 0();
    }
    outlet
    {
        type            calculated;
        value           nonuniform List<vector> 
12
(
(2.55778e-07 -1.53994e-08 1.17644e-09)
(3.89304e-07 -2.07754e-08 3.07913e-08)
(5.6712e-09 2.39281e-08 4.8468e-09)
(4.07609e-08 2.27396e-07 -3.77185e-08)
(5.31735e-08 -2.27632e-09 7.70456e-09)
(3.41075e-09 -3.12364e-09 1.43528e-08)
(-1.1024e-09 -3.75219e-09 6.80506e-09)
(-1.72445e-09 1.0857e-09 5.2146e-10)
(3.06311e-09 -2.78919e-09 5.73665e-09)
(7.0152e-09 -2.12647e-09 8.06162e-09)
(9.61004e-10 -4.71073e-09 5.41275e-09)
(-2.68747e-10 -2.02342e-09 1.36196e-09)
)
;
    }
    wall
    {
        type            calculated;
        value           nonuniform List<vector> 
63
(
(-6.8763e-09 2.38353e-09 1.68256e-09)
(-2.92535e-09 1.09332e-09 2.07138e-09)
(-3.35311e-09 -6.27201e-09 1.8779e-09)
(-3.96691e-09 -3.48986e-10 2.00727e-10)
(-1.26954e-08 1.63336e-09 3.42485e-09)
(-6.96334e-09 -6.91034e-11 3.43567e-09)
(-7.42953e-09 -9.80022e-10 2.06131e-09)
(-1.02824e-08 -4.75359e-10 1.38704e-09)
(-4.14625e-09 2.66063e-09 5.08609e-09)
(-7.33118e-10 -3.79002e-10 4.56506e-09)
(-8.57191e-10 -1.88971e-09 3.19054e-09)
(-3.43429e-08 1.12537e-08 6.79784e-10)
(3.99609e-09 2.55016e-10 4.72911e-09)
(7.80513e-09 -1.19612e-09 5.33572e-09)
(4.0935e-09 -2.24334e-09 3.61897e-09)
(2.32576e-09 -1.46163e-09 1.06281e-09)
(1.1263e-08 -7.73978e-10 5.20832e-09)
(9.91338e-09 -1.67458e-09 6.06821e-09)
(1.11271e-08 -1.74463e-09 5.28348e-09)
(8.48981e-09 -2.12069e-09 2.41643e-09)
(3.3799e-08 -3.25947e-09 7.38151e-09)
(3.29459e-08 -3.65948e-09 8.85846e-09)
(3.39646e-08 -3.33627e-09 6.74659e-09)
(2.24394e-08 -2.1914e-09 2.45499e-09)
(2.39733e-08 -6.83625e-09 5.91422e-09)
(1.946e-08 -3.47844e-09 9.52594e-09)
(2.44541e-08 2.89989e-09 9.29498e-09)
(2.08283e-08 -1.92769e-09 2.72035e-09)
(1.5612e-07 -4.31452e-09 2.82675e-08)
(9.66206e-08 -1.07423e-08 2.7659e-08)
(1.28302e-07 -1.82844e-08 2.25463e-08)
(5.65851e-08 -5.13448e-09 8.28709e-09)
(-1.92804e-07 -1.53074e-07 -1.07775e-07)
(-7.70536e-08 1.67438e-08 -5.26624e-08)
(3.24686e-08 4.22846e-08 1.16123e-08)
(5.48343e-08 2.28543e-07 -5.0921e-08)
(-4.13168e-09 -3.26014e-10 2.26003e-10)
(-1.47113e-09 1.25101e-10 3.38876e-10)
(-1.05853e-09 3.03569e-10 1.90785e-10)
(-1.55042e-08 -3.98242e-10 1.4543e-09)
(-6.49622e-09 -5.90103e-10 1.16038e-09)
(-3.99157e-09 -1.59939e-13 8.58033e-10)
(-6.7219e-08 1.29118e-08 9.82548e-10)
(-2.15876e-09 -2.96092e-10 1.59416e-09)
(-4.20823e-09 -1.58229e-10 1.8978e-09)
(1.04035e-09 -1.44578e-09 1.05772e-09)
(-1.77265e-09 -8.53926e-10 1.19377e-09)
(-4.00329e-09 -9.17577e-11 8.72027e-10)
(5.38488e-09 -2.08795e-09 2.29354e-09)
(-1.45745e-12 -9.62741e-10 8.67326e-10)
(-8.64883e-10 -9.06288e-10 1.23486e-09)
(1.58325e-08 -2.16223e-09 2.266e-09)
(1.53245e-09 -1.19724e-09 1.59645e-09)
(-1.45548e-09 -3.87242e-10 1.23589e-09)
(2.43012e-08 -3.25757e-09 2.40912e-09)
(-3.01763e-10 -6.24268e-10 9.63019e-10)
(3.13448e-10 -7.64423e-10 1.41008e-09)
(5.6074e-08 -5.03255e-09 8.29915e-09)
(9.27661e-09 -2.49154e-09 3.76893e-09)
(1.52487e-09 -1.18409e-09 1.86191e-09)
(7.97183e-08 2.11578e-07 -8.75533e-08)
(-3.22793e-10 8.72201e-10 1.48741e-10)
(-6.70859e-10 -2.17059e-09 1.60263e-09)
)
;
    }
    procBoundary3to1
    {
        type            processor;
        value           nonuniform List<vector> 
27
(
(-1.68125e-08 9.61997e-10 1.40144e-09)
(-2.27592e-08 1.08194e-09 2.26698e-09)
(-1.64184e-08 1.03096e-09 2.82292e-09)
(-8.8285e-09 3.95611e-10 3.06723e-09)
(-3.29156e-09 -1.26399e-10 3.38505e-09)
(1.5746e-09 -6.54541e-10 3.86442e-09)
(4.52758e-09 -1.4495e-09 4.09532e-09)
(8.72396e-09 -2.62778e-09 3.98571e-09)
(4.88484e-09 -5.12254e-09 7.38609e-10)
(-1.12749e-08 8.34562e-10 1.15233e-09)
(-1.41575e-08 8.34627e-10 1.89154e-09)
(-1.13173e-08 6.17825e-10 2.45179e-09)
(-7.07321e-09 1.56844e-10 2.7614e-09)
(-3.4147e-09 -2.94439e-10 3.14446e-09)
(-2.76384e-10 -7.90677e-10 3.55358e-09)
(1.92937e-09 -1.36022e-09 3.87589e-09)
(3.49635e-09 -1.98596e-09 3.75081e-09)
(3.64909e-09 -2.77165e-09 2.50021e-09)
(-6.7344e-09 6.80539e-10 8.25658e-10)
(-8.02562e-09 6.15242e-10 1.47965e-09)
(-6.87903e-09 4.20988e-10 1.95111e-09)
(-4.74095e-09 -1.85271e-11 2.30824e-09)
(-2.49987e-09 -4.5035e-10 2.6601e-09)
(-4.78622e-10 -8.99679e-10 3.01691e-09)
(1.15842e-09 -1.34793e-09 3.26637e-09)
(2.28447e-09 -1.59501e-09 3.22562e-09)
(2.85074e-09 -1.68409e-09 2.9223e-09)
)
;
    }
    procBoundary3to2
    {
        type            processor;
        value           nonuniform List<vector> 
12
(
(-6.21406e-09 3.66188e-10 2.81216e-10)
(-3.00884e-09 4.2437e-10 5.28484e-10)
(-1.7866e-09 2.3599e-10 5.40631e-10)
(-1.71252e-09 2.25054e-10 4.87051e-10)
(-3.99607e-09 6.22559e-10 4.27977e-10)
(-1.98976e-09 5.1155e-10 5.05395e-10)
(-1.1258e-09 3.52281e-10 4.82967e-10)
(-1.07369e-09 2.76124e-10 4.32416e-10)
(-2.54108e-09 6.38117e-10 3.58416e-10)
(-1.25559e-09 5.446e-10 4.09081e-10)
(-6.89985e-10 4.14968e-10 3.91282e-10)
(-6.82001e-10 3.24797e-10 3.51416e-10)
)
;
    }
    procBoundary3to7
    {
        type            processor;
        value           nonuniform List<vector> 
36
(
(-2.23595e-09 5.92559e-10 6.48081e-10)
(-2.60833e-09 4.56033e-10 1.13334e-09)
(-2.46446e-09 1.90366e-10 1.56092e-09)
(-1.87593e-09 -1.84125e-10 1.92065e-09)
(-1.01532e-09 -5.5301e-10 2.22022e-09)
(-9.49738e-11 -8.91164e-10 2.51737e-09)
(6.1681e-10 -1.14866e-09 2.73379e-09)
(1.11393e-09 -1.22554e-09 2.64147e-09)
(1.27113e-09 -1.14508e-09 2.51774e-09)
(-1.1446e-09 5.17994e-10 6.53618e-10)
(-1.41509e-09 3.87043e-10 1.10309e-09)
(-1.38049e-09 1.54394e-10 1.51142e-09)
(-1.0338e-09 -1.58999e-10 1.84879e-09)
(-4.39272e-10 -4.92023e-10 2.12873e-09)
(2.01896e-10 -7.46907e-10 2.41846e-09)
(6.55206e-10 -8.95417e-10 2.69068e-09)
(1.01321e-09 -8.00627e-10 2.7041e-09)
(1.14176e-09 -6.13419e-10 2.52457e-09)
(-6.41922e-10 3.88091e-10 5.76198e-10)
(-8.85375e-10 2.64711e-10 9.7948e-10)
(-8.89396e-10 8.83647e-11 1.36077e-09)
(-6.90666e-10 -1.2125e-10 1.64979e-09)
(-2.25092e-10 -3.55343e-10 1.89817e-09)
(2.37879e-10 -4.51925e-10 2.14538e-09)
(6.05131e-10 -4.54133e-10 2.37895e-09)
(8.96476e-10 -1.55353e-10 2.33692e-09)
(1.34805e-09 2.37583e-10 2.19555e-09)
(-7.27464e-10 2.86162e-10 5.01924e-10)
(-9.64228e-10 1.89641e-10 8.50731e-10)
(-9.37243e-10 6.58702e-11 1.19744e-09)
(-7.95446e-10 -7.6213e-11 1.4418e-09)
(-2.99949e-10 -2.13285e-10 1.65817e-09)
(1.20814e-10 -1.85179e-10 1.85515e-09)
(5.89445e-10 -2.87028e-11 2.01167e-09)
(1.02592e-09 3.62381e-10 1.91793e-09)
(1.3551e-09 8.86715e-10 1.74742e-09)
)
;
    }
}


// ************************************************************************* //
