/*--------------------------------*- C++ -*----------------------------------*\
| =========                 |                                                 |
| \\      /  F ield         | OpenFOAM: The Open Source CFD Toolbox           |
|  \\    /   O peration     | Version:  4.x                                   |
|   \\  /    A nd           | Web:      www.OpenFOAM.org                      |
|    \\/     M anipulation  |                                                 |
\*---------------------------------------------------------------------------*/
FoamFile
{
    version     2.0;
    format      ascii;
    class       volScalarField;
    location    "36.5";
    object      pSmooth;
}
// * * * * * * * * * * * * * * * * * * * * * * * * * * * * * * * * * * * * * //

dimensions      [1 -1 -2 0 0 0 0];

internalField   nonuniform List<scalar> 
108
(
18.2759
74.4163
0.1
68.5825
0.1
64.2957
0.1
62.4795
0.1
19.2379
74.602
0.100043
68.7443
0.1
63.902
0.1
59.8159
0.1
18.502
74.3874
0.1
68.5397
0.1
64.2081
0.1
63.0239
0.1
18.9309
74.378
0.1
68.6801
0.1
64.4504
0.1
63.7147
0.1
18.202
74.7247
0.1
68.4551
0.1
63.1182
0.1
59.4684
0.1
19.2709
74.7608
0.287048
68.3341
0.1
62.4587
0.1
57.1152
0.1
18.4116
74.503
0.1
68.2986
0.1
63.2063
0.1
61.2464
0.1
18.9371
74.4879
0.1
68.5429
0.1
63.7312
0.1
61.8712
0.1
19.4281
74.518
0.534662
68.1203
0.1
62.8352
0.1
58.2356
0.1
20.3683
74.5734
1.87657
68.3169
0.1
63.0389
0.1
58.0374
0.1
19.4273
74.6304
0.217073
67.9874
0.1
62.2663
0.1
58.0634
0.1
19.469
74.5474
0.318843
68.4763
0.1
63.3081
0.1
60.3104
0.1
)
;

boundaryField
{
    inlet
    {
        type            zeroGradient;
    }
    outlet
    {
        type            fixedValue;
        value           uniform 0;
    }
    wall
    {
        type            zeroGradient;
    }
    procBoundary3to1
    {
        type            processor;
        value           nonuniform List<scalar> 
27
(
19.0546
74.6371
0.1
68.6361
0.1
63.8436
0.1
61.4464
0.1
19.4355
75.0333
0.528214
68.4891
0.1
62.3479
0.1
56.1957
0.1
19.3971
74.4785
0.4794
68.2217
0.1
62.8435
0.1
58.8202
0.1
)
;
    }
    procBoundary3to2
    {
        type            processor;
        value           nonuniform List<scalar> 
12
(
81.0653
81.2168
81.0388
80.8781
81.4823
81.6014
81.3776
81.1565
81.4173
81.628
81.6031
81.3344
)
;
    }
    procBoundary3to7
    {
        type            processor;
        value           nonuniform List<scalar> 
36
(
21.8709
74.6507
3.57907
68.0762
0.1
62.2298
0.1
56.5299
0.1
21.2477
74.5713
2.79425
67.6805
0.1
60.978
0.1
54.6225
0.1
19.6257
74.5399
0.298699
67.9983
0.1
62.2938
0.1
58.8202
0.1
19.9123
74.5614
0.680159
68.2152
0.1
62.6426
0.1
58.9121
0.1
)
;
    }
}


// ************************************************************************* //
