/*--------------------------------*- C++ -*----------------------------------*\
| =========                 |                                                 |
| \\      /  F ield         | OpenFOAM: The Open Source CFD Toolbox           |
|  \\    /   O peration     | Version:  4.x                                   |
|   \\  /    A nd           | Web:      www.OpenFOAM.org                      |
|    \\/     M anipulation  |                                                 |
\*---------------------------------------------------------------------------*/
FoamFile
{
    version     2.0;
    format      ascii;
    class       volScalarField;
    location    "36.5";
    object      QWallFluidCoeff;
}
// * * * * * * * * * * * * * * * * * * * * * * * * * * * * * * * * * * * * * //

dimensions      [1 -1 -3 -1 0 0 0];

internalField   nonuniform List<scalar> 
108
(
-2.1466e+06
-3.43774e+06
-2.17342e+06
-3.58521e+06
-2.09306e+06
-3.7393e+06
-1.78469e+06
-3.92847e+06
-1.52207e+06
-1.84071e+06
-3.17619e+06
-1.76025e+06
-3.21888e+06
-1.54809e+06
-3.11354e+06
-1.06588e+06
-2.62973e+06
-517928
-2.16073e+06
-3.42119e+06
-2.18176e+06
-3.58565e+06
-2.1176e+06
-3.80841e+06
-1.88412e+06
-4.20021e+06
-1.83091e+06
-5.31793e+06
-7.44781e+06
-5.41889e+06
-7.69675e+06
-5.29363e+06
-8.15191e+06
-4.8285e+06
-9.05896e+06
-4.13669e+06
0
0
0
0
0
0
0
0
0
0
0
0
0
0
0
0
0
0
0
0
0
0
0
0
0
0
0
-1.98538e+06
-3.28793e+06
-1.97619e+06
-3.39824e+06
-1.86742e+06
-3.62365e+06
-1.62764e+06
-4.18712e+06
-1.96448e+06
0
0
0
0
0
0
0
0
0
0
0
0
0
0
0
0
0
0
0
0
0
0
0
0
0
0
0
-1.61692e+06
-3.05251e+06
-1.5921e+06
-3.13408e+06
-1.48762e+06
-3.28838e+06
-1.35867e+06
-3.76875e+06
-1.29842e+06
)
;

boundaryField
{
    inlet
    {
        type            calculated;
        value           nonuniform 0();
    }
    outlet
    {
        type            calculated;
        value           uniform 0;
    }
    wall
    {
        type            calculated;
        value           uniform 0;
    }
    procBoundary3to1
    {
        type            processor;
        value           uniform 0;
    }
    procBoundary3to2
    {
        type            processor;
        value           uniform 0;
    }
    procBoundary3to7
    {
        type            processor;
        value           uniform 0;
    }
}


// ************************************************************************* //
