/*--------------------------------*- C++ -*----------------------------------*\
| =========                 |                                                 |
| \\      /  F ield         | OpenFOAM: The Open Source CFD Toolbox           |
|  \\    /   O peration     | Version:  4.x                                   |
|   \\  /    A nd           | Web:      www.OpenFOAM.org                      |
|    \\/     M anipulation  |                                                 |
\*---------------------------------------------------------------------------*/
FoamFile
{
    version     2.0;
    format      ascii;
    class       volVectorField;
    location    "36.5";
    object      Us;
}
// * * * * * * * * * * * * * * * * * * * * * * * * * * * * * * * * * * * * * //

dimensions      [0 1 -1 0 0 0 0];

internalField   nonuniform List<vector> 
108
(
(-5.39861e-10 -5.99853e-09 6.61026e-09)
(-2.15879e-09 -5.58309e-09 7.87874e-09)
(-2.82079e-09 -7.35075e-09 6.47298e-09)
(-3.28032e-09 -3.55906e-09 2.78683e-09)
(-1.59671e-09 -2.76771e-09 -3.05488e-09)
(2.04563e-09 -5.1392e-10 -5.07875e-09)
(2.25018e-09 -4.31305e-09 -1.25798e-08)
(6.28721e-08 3.88268e-08 -2.88768e-08)
(-4.37537e-07 7.971e-09 -2.4925e-08)
(-5.31807e-09 -5.00177e-09 5.45981e-09)
(-6.79033e-09 -5.30536e-09 6.15696e-09)
(-7.2557e-09 -4.67218e-09 5.22115e-09)
(-7.75578e-09 -2.55803e-09 2.50068e-09)
(-7.96838e-09 -1.97124e-09 -1.85447e-09)
(-6.7758e-09 1.09556e-09 -5.22055e-09)
(-6.50078e-09 -2.10977e-10 -1.2481e-08)
(-1.4048e-08 2.5741e-08 -2.64507e-08)
(-6.85101e-07 1.86045e-08 -6.03596e-08)
(-1.98175e-09 5.49587e-09 2.98071e-09)
(-4.43937e-09 -4.3044e-09 4.79743e-09)
(-5.57685e-09 -3.78386e-09 4.26159e-09)
(-5.23273e-09 -1.9263e-09 2.23681e-09)
(-6.12649e-09 -8.33282e-10 -1.35656e-09)
(1.00432e-09 2.33055e-10 -5.1409e-09)
(3.52202e-09 -2.56275e-10 -1.13415e-08)
(2.18618e-08 1.00091e-08 -2.65679e-08)
(9.96712e-09 2.20863e-08 -3.77781e-08)
(-1.51532e-09 -1.98054e-09 1.59284e-09)
(-2.75191e-09 -4.78068e-09 2.30718e-09)
(-2.37078e-09 -1.99095e-08 2.76173e-09)
(-2.70983e-09 -1.47104e-09 3.17306e-10)
(-3.06953e-09 -8.32615e-10 -1.24578e-09)
(1.43109e-09 -4.1806e-11 -3.44832e-09)
(1.19995e-08 8.58744e-09 -4.79899e-09)
(1.65999e-08 6.04466e-09 -7.64102e-09)
(-2.63138e-09 2.72901e-07 -3.05455e-08)
(-5.74708e-10 -4.78166e-09 6.80936e-09)
(-7.37175e-10 -2.71137e-09 7.48843e-09)
(-1.88172e-09 -2.49008e-09 6.82632e-09)
(-2.37988e-10 -3.48657e-09 7.56763e-10)
(1.59202e-09 -2.44464e-09 -3.60474e-09)
(2.14918e-09 -1.31847e-09 -6.66469e-09)
(3.51335e-09 2.05656e-10 -1.4343e-08)
(1.55039e-08 6.2094e-09 -2.44643e-08)
(-8.08185e-08 1.19034e-09 -2.02518e-08)
(-3.97833e-09 -3.62792e-09 5.13559e-09)
(-5.07567e-09 -3.56048e-09 6.44509e-09)
(-5.32059e-09 -3.3886e-09 4.82459e-09)
(-4.36262e-09 -2.32015e-09 1.94651e-09)
(-4.11928e-09 -2.12081e-09 -1.94784e-09)
(-3.11917e-09 2.89702e-10 -5.52626e-09)
(1.66482e-10 1.80463e-09 -1.20639e-08)
(-3.47758e-10 -1.33123e-09 -2.49136e-08)
(2.53974e-09 -4.67867e-09 -3.20909e-08)
(-2.9236e-09 -2.00363e-09 3.81137e-09)
(-3.51656e-09 -2.82998e-09 4.26149e-09)
(-3.32647e-09 -2.06165e-09 3.91818e-09)
(-2.92951e-09 -1.31e-09 1.55553e-09)
(-1.54953e-09 -1.14604e-09 -2.62807e-09)
(1.82216e-09 -6.7708e-10 -5.60754e-09)
(4.41078e-09 1.50305e-09 -1.04995e-08)
(5.85064e-09 -2.20476e-09 -2.26028e-08)
(6.5141e-09 -3.7786e-09 -2.9032e-08)
(-1.41269e-09 -1.21245e-09 1.80929e-09)
(-3.17902e-09 -2.85173e-09 2.07386e-09)
(-2.24316e-09 -1.81102e-09 1.59222e-09)
(-1.23091e-09 -1.52086e-09 1.71468e-10)
(-2.49632e-10 -7.68336e-10 -2.29555e-09)
(1.96426e-09 -6.15563e-10 -3.95271e-09)
(4.17384e-09 4.3384e-10 -5.64727e-09)
(6.07984e-09 1.22738e-09 -7.83119e-09)
(1.52112e-09 -7.79094e-11 -2.04849e-08)
(1.57152e-09 -3.35699e-09 5.09399e-09)
(2.09327e-09 -1.17265e-09 5.91112e-09)
(1.34554e-09 -2.30042e-09 6.44701e-09)
(3.83501e-10 -2.64926e-09 1.24023e-09)
(2.45433e-09 -3.19854e-09 -2.95872e-09)
(3.90201e-09 -1.30579e-09 -6.72922e-09)
(3.39323e-09 -4.72862e-10 -1.18515e-08)
(6.91842e-09 -2.67496e-10 -1.40479e-08)
(5.4576e-09 3.63036e-11 -9.66122e-09)
(-1.67008e-09 -3.97987e-09 5.16756e-09)
(-3.29858e-09 -3.35448e-09 5.53026e-09)
(-2.88152e-09 -5.3993e-09 4.92996e-09)
(-4.15517e-10 -2.60395e-09 1.05287e-09)
(-2.52423e-10 -2.25604e-09 -3.27546e-09)
(4.60267e-10 -9.80671e-10 -6.3463e-09)
(8.40382e-10 8.66081e-10 -1.18139e-08)
(8.04662e-10 1.09848e-09 -1.61899e-08)
(-9.90909e-10 1.50204e-09 -1.42708e-08)
(-1.51947e-09 -1.64033e-09 3.69025e-09)
(-1.56268e-09 -2.34765e-09 4.12275e-09)
(-8.3454e-10 -3.09931e-10 4.4362e-09)
(-1.61306e-09 -1.77489e-09 8.67763e-10)
(-7.36386e-10 -1.53025e-09 -3.05095e-09)
(2.81967e-10 -7.38015e-10 -5.28491e-09)
(8.42303e-10 1.99879e-09 -8.08858e-09)
(1.64271e-09 1.68114e-09 -1.18911e-08)
(6.53552e-10 -1.33561e-09 -1.1838e-08)
(-6.26752e-10 -1.11725e-09 1.76115e-09)
(-1.55286e-09 -1.7094e-09 1.67344e-09)
(-2.14864e-09 -3.22872e-09 2.24765e-09)
(-1.73872e-09 -1.54823e-09 5.45901e-11)
(-1.42331e-09 -1.43603e-09 -2.58211e-09)
(-6.82331e-10 -9.5053e-10 -3.29183e-09)
(-1.40398e-10 1.25724e-10 -4.40147e-09)
(1.85122e-10 -1.89742e-10 -5.80127e-09)
(3.15405e-10 -2.1215e-09 -6.67177e-09)
)
;

boundaryField
{
    inlet
    {
        type            zeroGradient;
    }
    outlet
    {
        type            zeroGradient;
    }
    wall
    {
        type            zeroGradient;
    }
    procBoundary3to1
    {
        type            processor;
        value           nonuniform List<vector> 
27
(
(-6.56102e-11 -5.73985e-09 8.1596e-09)
(-4.03819e-09 -8.42027e-09 1.15695e-08)
(-1.03319e-08 2.21051e-09 6.83929e-09)
(-3.97053e-09 -6.43289e-10 1.17552e-09)
(-1.29494e-09 -2.31757e-09 -4.55147e-09)
(2.78461e-09 -2.49505e-09 -5.76312e-09)
(7.23681e-09 -3.15213e-09 -1.26077e-08)
(1.00059e-08 -2.02177e-09 -2.41631e-08)
(1.072e-08 7.27494e-09 -2.16067e-08)
(-1.01994e-09 -1.09418e-09 7.18662e-09)
(-1.78956e-09 -1.62385e-09 9.99199e-09)
(-1.19149e-09 -1.67145e-09 5.50891e-09)
(-1.27181e-09 -2.64495e-09 6.34866e-10)
(1.23855e-09 -2.96958e-09 -4.83824e-09)
(4.06196e-09 -3.80041e-09 -8.15349e-09)
(8.67549e-09 -8.60347e-10 -1.36928e-08)
(1.23465e-08 -5.19468e-10 -1.81328e-08)
(5.49451e-09 -4.35471e-09 -2.07924e-08)
(1.31822e-09 4.91285e-10 5.02948e-09)
(1.23664e-09 7.49923e-10 6.66192e-09)
(1.85158e-09 1.93095e-09 5.85551e-09)
(1.73999e-09 -1.68462e-10 1.33131e-09)
(2.22326e-09 -1.27105e-09 -2.84231e-09)
(3.55809e-09 -1.30556e-09 -6.70619e-09)
(5.81604e-09 1.66754e-09 -1.12243e-08)
(3.514e-09 -6.42135e-11 -1.11755e-08)
(3.1037e-09 -9.81223e-10 -9.24124e-09)
)
;
    }
    procBoundary3to2
    {
        type            processor;
        value           nonuniform List<vector> 
12
(
(-1.46262e-10 -3.72185e-09 4.07584e-09)
(-3.08116e-09 -2.94172e-09 3.52581e-09)
(-1.62178e-09 -1.80365e-09 2.83103e-09)
(-1.02349e-09 -1.47644e-09 1.98092e-09)
(-2.20721e-10 -2.82968e-09 4.26165e-09)
(-2.62305e-09 -2.41344e-09 3.577e-09)
(-2.48506e-09 -1.24599e-09 2.73891e-09)
(-8.8819e-10 -6.80082e-10 8.88263e-10)
(7.57005e-10 -1.89197e-09 4.07077e-09)
(-2.17226e-09 -1.98184e-09 3.21045e-09)
(-1.60749e-09 -1.37788e-09 2.41173e-09)
(-6.33426e-10 -6.62103e-10 1.47091e-09)
)
;
    }
    procBoundary3to7
    {
        type            processor;
        value           nonuniform List<vector> 
36
(
(2.22907e-09 -1.10924e-09 2.69788e-09)
(2.37486e-09 -1.2515e-09 3.52622e-09)
(2.02308e-09 -1.1404e-09 3.62976e-09)
(9.0573e-10 -1.90116e-09 2.22926e-10)
(1.50515e-09 -1.19856e-09 -1.76982e-09)
(8.64791e-10 -4.73827e-10 -5.44469e-09)
(-7.43307e-10 -6.50611e-11 -6.62314e-09)
(-3.14188e-10 1.26485e-09 -6.54778e-09)
(-7.55389e-11 -4.17723e-11 -5.2932e-09)
(3.58085e-10 -2.41246e-09 3.7897e-09)
(6.07865e-10 -2.03743e-09 3.17059e-09)
(5.02779e-10 -3.27824e-09 3.5199e-09)
(5.72726e-10 -2.3586e-09 1.12588e-09)
(2.49493e-10 -1.67528e-09 -2.25164e-09)
(-5.72833e-11 -1.21228e-09 -4.81664e-09)
(-2.96128e-10 -2.16706e-11 -6.81861e-09)
(-1.18747e-09 9.04913e-10 -1.02653e-08)
(-1.66345e-09 -1.31927e-10 -7.25741e-09)
(5.284e-10 -3.28191e-09 1.06495e-09)
(5.56822e-10 -2.34735e-09 2.35142e-09)
(-1.73415e-10 -2.56157e-09 1.76153e-09)
(-6.90117e-10 -1.98802e-09 2.13874e-10)
(-2.68132e-10 -1.63286e-09 -2.26399e-09)
(-9.22929e-10 -1.59405e-09 -3.93251e-09)
(-1.43856e-09 -2.2859e-10 -4.89939e-09)
(-1.44812e-09 2.90452e-10 -6.5367e-09)
(1.73586e-09 1.02883e-09 -4.8105e-09)
(-3.5803e-10 -3.14541e-09 9.90945e-11)
(-1.30446e-10 -1.54706e-09 6.1744e-10)
(-4.57557e-10 -1.59394e-09 1.01604e-09)
(-1.33729e-09 -1.38946e-09 1.51833e-10)
(-1.11379e-09 -1.26494e-09 -1.06478e-09)
(-1.63585e-09 -9.26193e-10 -2.08601e-09)
(-2.18379e-09 -6.75072e-10 -2.60179e-09)
(-1.68479e-09 8.00164e-10 -2.49334e-09)
(7.00512e-10 3.60394e-10 -9.51884e-10)
)
;
    }
}


// ************************************************************************* //
