/*--------------------------------*- C++ -*----------------------------------*\
| =========                 |                                                 |
| \\      /  F ield         | OpenFOAM: The Open Source CFD Toolbox           |
|  \\    /   O peration     | Version:  4.x                                   |
|   \\  /    A nd           | Web:      www.OpenFOAM.org                      |
|    \\/     M anipulation  |                                                 |
\*---------------------------------------------------------------------------*/
FoamFile
{
    version     2.0;
    format      ascii;
    class       volVectorField;
    location    "45.5";
    object      ddtUrel;
}
// * * * * * * * * * * * * * * * * * * * * * * * * * * * * * * * * * * * * * //

dimensions      [0 1 -2 0 0 0 0];

internalField   nonuniform List<vector> 
108
(
(-7.88361e-09 2.19234e-10 2.76985e-10)
(-9.3706e-09 3.21375e-10 4.07237e-10)
(-7.71556e-09 4.20723e-10 4.49939e-10)
(-5.22035e-09 4.7472e-10 4.13609e-10)
(-2.90117e-09 5.43527e-10 3.60794e-10)
(-7.22625e-10 6.49086e-10 3.05257e-10)
(1.06793e-09 7.67249e-10 2.15707e-10)
(3.39729e-09 8.94389e-10 1.22694e-10)
(4.03172e-09 5.66949e-10 -6.97488e-10)
(-4.08352e-09 2.36848e-10 1.53273e-10)
(-4.50598e-09 3.16699e-10 2.51031e-10)
(-3.8916e-09 3.88113e-10 2.8999e-10)
(-2.73337e-09 4.55494e-10 2.45183e-10)
(-1.3457e-09 5.62319e-10 1.16702e-10)
(3.53759e-10 7.47132e-10 -1.16814e-10)
(2.1747e-09 1.11113e-09 -5.2035e-10)
(4.81148e-09 1.66921e-09 -1.17899e-09)
(6.92698e-09 2.33136e-09 -2.37611e-09)
(-2.42393e-09 2.69261e-10 9.78843e-11)
(-2.58848e-09 3.05705e-10 1.73882e-10)
(-2.20629e-09 3.3964e-10 1.94974e-10)
(-1.44736e-09 4.16206e-10 1.08159e-10)
(-3.35067e-10 5.88085e-10 -1.08796e-10)
(1.41065e-09 9.29516e-10 -5.58173e-10)
(4.00676e-09 1.72073e-09 -1.47466e-09)
(8.93304e-09 3.36229e-09 -3.25629e-09)
(1.45573e-08 6.63558e-09 -6.48999e-09)
(-1.90264e-09 2.18554e-10 7.98962e-11)
(-2.05639e-09 2.78806e-10 1.40371e-10)
(-1.77111e-09 2.99044e-10 1.29075e-10)
(-9.86379e-10 4.04341e-10 1.68989e-11)
(1.72964e-10 6.25678e-10 -2.62449e-10)
(2.27583e-09 1.16036e-09 -9.1258e-10)
(6.20461e-09 2.53451e-09 -2.50877e-09)
(1.61547e-08 6.36916e-09 -6.66961e-09)
(4.09864e-08 1.81526e-08 -2.0057e-08)
(-5.99629e-09 2.15283e-10 2.27989e-10)
(-6.8827e-09 3.09706e-10 3.38658e-10)
(-5.96846e-09 3.86901e-10 3.8873e-10)
(-4.30692e-09 4.47015e-10 3.76117e-10)
(-2.61021e-09 5.10835e-10 3.25536e-10)
(-1.01687e-09 5.89907e-10 2.80098e-10)
(3.93138e-10 6.84965e-10 2.06297e-10)
(1.77407e-09 7.91535e-10 1.59832e-10)
(2.88378e-09 8.41431e-10 -1.66355e-10)
(-3.333e-09 2.22529e-10 1.32387e-10)
(-3.65773e-09 3.13484e-10 2.19541e-10)
(-3.27619e-09 3.86359e-10 2.65379e-10)
(-2.43919e-09 4.42712e-10 2.3822e-10)
(-1.34452e-09 5.22549e-10 1.28252e-10)
(-8.9629e-11 6.50747e-10 -6.10371e-11)
(1.30593e-09 8.87905e-10 -3.53913e-10)
(2.92432e-09 1.28193e-09 -7.7583e-10)
(4.3028e-09 1.66614e-09 -1.2957e-09)
(-2.06943e-09 2.2512e-10 9.12923e-11)
(-2.22256e-09 2.93308e-10 1.64665e-10)
(-1.96504e-09 3.42286e-10 1.95791e-10)
(-1.39451e-09 4.07731e-10 1.23358e-10)
(-5.24067e-10 5.31519e-10 -6.02863e-11)
(7.05797e-10 7.64208e-10 -4.02257e-10)
(2.46627e-09 1.26524e-09 -1.02412e-09)
(5.02023e-09 2.22453e-09 -2.02303e-09)
(7.73903e-09 3.47972e-09 -3.3261e-09)
(-1.65299e-09 2.08559e-10 7.45184e-11)
(-1.8123e-09 2.7459e-10 1.38161e-10)
(-1.52266e-09 3.2021e-10 1.47796e-10)
(-1.00004e-09 3.96976e-10 4.80987e-11)
(-1.14698e-10 5.57999e-10 -1.78557e-10)
(1.26535e-09 9.17347e-10 -6.49692e-10)
(3.65999e-09 1.72835e-09 -1.62372e-09)
(7.97122e-09 3.44808e-09 -3.45296e-09)
(1.40432e-08 6.43626e-09 -6.49956e-09)
(-4.09301e-09 1.93474e-10 1.70378e-10)
(-4.57197e-09 2.79518e-10 2.6647e-10)
(-4.127e-09 3.54768e-10 3.22014e-10)
(-3.17486e-09 4.02384e-10 3.17148e-10)
(-2.06598e-09 4.46988e-10 2.78461e-10)
(-9.97265e-10 4.81831e-10 2.35806e-10)
(3.31208e-12 4.86198e-10 1.87046e-10)
(8.7363e-10 5.28156e-10 1.41536e-10)
(1.6048e-09 5.88497e-10 9.23178e-11)
(-2.50004e-09 2.11751e-10 1.02524e-10)
(-2.71193e-09 3.02064e-10 1.8123e-10)
(-2.49251e-09 3.84946e-10 2.11748e-10)
(-1.96622e-09 4.20889e-10 2.11151e-10)
(-1.20167e-09 4.70259e-10 1.38636e-10)
(-3.42451e-10 5.26513e-10 3.93275e-12)
(6.06292e-10 6.26039e-10 -1.84596e-10)
(1.55749e-09 7.87915e-10 -4.18189e-10)
(2.33529e-09 9.76474e-10 -5.97734e-10)
(-1.66345e-09 2.12377e-10 7.79157e-11)
(-1.7651e-09 2.88389e-10 1.4262e-10)
(-1.60416e-09 3.53833e-10 1.68734e-10)
(-1.2283e-09 4.00702e-10 1.21509e-10)
(-6.04582e-10 4.71905e-10 1.68535e-12)
(1.95519e-10 5.83002e-10 -2.20574e-10)
(1.24054e-09 8.11432e-10 -5.84189e-10)
(2.53146e-09 1.21233e-09 -1.06501e-09)
(3.68981e-09 1.64388e-09 -1.44405e-09)
(-1.35162e-09 2.00502e-10 5.819e-11)
(-1.44794e-09 2.6461e-10 1.12825e-10)
(-1.2534e-09 3.25449e-10 1.32465e-10)
(-9.00546e-10 3.74327e-10 6.27347e-11)
(-3.0915e-10 4.70527e-10 -8.2016e-11)
(5.43704e-10 6.52211e-10 -3.78252e-10)
(1.79296e-09 1.01702e-09 -8.96897e-10)
(3.50743e-09 1.67794e-09 -1.63463e-09)
(5.31028e-09 2.44551e-09 -2.32261e-09)
)
;

boundaryField
{
    inlet
    {
        type            calculated;
        value           nonuniform 0();
    }
    outlet
    {
        type            calculated;
        value           nonuniform List<vector> 
12
(
(2.07434e-08 -3.89656e-10 5.05917e-10)
(2.95695e-08 -1.46867e-09 1.11702e-09)
(-1.47239e-09 3.83385e-09 2.46844e-09)
(2.88401e-07 1.27435e-07 -1.4532e-07)
(3.90026e-09 7.17798e-10 8.70493e-10)
(3.23944e-11 1.33041e-10 8.28567e-10)
(-4.8536e-11 -4.02806e-10 2.19544e-10)
(-2.14495e-09 1.47163e-09 2.9451e-09)
(-3.56227e-10 8.09159e-11 6.93504e-10)
(2.92414e-10 1.10879e-10 4.41996e-10)
(8.53229e-11 -6.43573e-10 9.32667e-10)
(-7.13273e-10 -7.4268e-10 1.70163e-09)
)
;
    }
    wall
    {
        type            calculated;
        value           nonuniform List<vector> 
63
(
(-3.59424e-09 1.74686e-10 2.50885e-10)
(-1.92153e-09 2.79852e-10 1.0504e-11)
(-9.35785e-10 8.98367e-10 -1.27977e-11)
(-1.07888e-09 9.67875e-11 5.80892e-11)
(-6.60521e-09 4.58593e-10 5.14893e-10)
(-2.08585e-09 3.82192e-10 3.04209e-10)
(-1.32772e-09 3.99053e-10 2.45322e-10)
(-1.93373e-09 3.3087e-10 2.8166e-10)
(-2.56023e-09 8.92797e-10 6.52047e-10)
(-8.76745e-10 4.5273e-10 4.36598e-10)
(2.03064e-11 1.79451e-10 4.70613e-10)
(-2.64437e-09 -1.71813e-10 2.03621e-10)
(-1.2231e-09 6.78117e-10 5.62588e-10)
(-1.64939e-10 4.2387e-10 4.52854e-10)
(2.57162e-10 6.30756e-11 3.52757e-10)
(-5.4644e-10 1.10929e-11 1.87076e-10)
(-2.75024e-10 4.97476e-10 5.89054e-10)
(-7.15684e-11 3.92643e-10 3.56096e-10)
(4.34639e-10 2.36406e-10 3.54797e-10)
(9.62572e-12 -9.05432e-11 2.4685e-10)
(4.27125e-09 5.94113e-10 7.91198e-10)
(3.52458e-09 2.19914e-10 4.92019e-10)
(3.72643e-09 -8.37587e-11 3.04852e-10)
(4.69931e-09 -1.62049e-10 3.53851e-10)
(1.26701e-09 -5.00299e-10 5.34283e-10)
(6.78221e-10 3.40849e-10 4.57953e-10)
(1.85356e-09 2.08875e-10 6.0679e-10)
(2.5631e-09 -5.87989e-10 1.17704e-10)
(1.79483e-08 8.4067e-10 3.57631e-09)
(8.49546e-09 -8.23096e-11 2.4005e-09)
(2.12238e-08 -2.75612e-09 2.11383e-09)
(2.44919e-08 -1.44963e-09 3.29404e-09)
(-1.24157e-09 -9.04915e-09 -4.9475e-09)
(7.00309e-09 -1.54068e-09 -1.98432e-09)
(-1.39567e-10 9.38877e-09 4.61789e-09)
(3.01383e-07 1.25294e-07 -1.5353e-07)
(-1.6459e-09 1.20672e-10 6.11977e-11)
(-1.1627e-09 1.71643e-10 6.4299e-11)
(-9.74362e-10 1.86723e-10 -1.09658e-10)
(-5.1169e-09 4.0544e-10 2.82866e-10)
(-3.95813e-09 3.43667e-10 3.45301e-10)
(-2.12965e-09 2.47733e-10 1.25557e-10)
(-5.74323e-09 4.73559e-11 1.72796e-10)
(-1.62689e-09 2.56791e-10 5.07163e-10)
(-8.99346e-10 4.02955e-10 3.53591e-10)
(-1.328e-09 4.00659e-11 1.78705e-10)
(-2.20717e-09 1.72341e-10 3.04738e-10)
(-8.71466e-10 2.18985e-10 1.60918e-10)
(-6.54802e-10 -4.12489e-11 2.0676e-10)
(-9.56609e-10 9.05578e-11 2.38368e-10)
(-8.67413e-10 2.11927e-10 3.10217e-10)
(2.41011e-09 -1.22321e-10 2.69015e-10)
(-1.85433e-09 1.03404e-11 2.04366e-10)
(-7.79999e-10 7.0139e-11 1.11409e-10)
(4.28343e-09 -1.13811e-09 1.00086e-10)
(-6.44244e-10 -1.83592e-10 -2.58506e-10)
(-6.16899e-10 -8.64074e-11 -1.52783e-10)
(2.09788e-08 -1.27938e-09 3.19992e-09)
(1.1773e-09 -4.24493e-10 4.7265e-10)
(-2.79355e-09 1.18914e-10 -6.00731e-10)
(6.59961e-07 -6.75359e-08 -5.25718e-07)
(-2.6626e-09 1.4788e-09 2.47522e-09)
(-1.751e-09 -6.52199e-10 1.8539e-09)
)
;
    }
    procBoundary3to1
    {
        type            processor;
        value           nonuniform List<vector> 
27
(
(-1.62332e-08 2.06327e-10 4.88031e-10)
(-2.18387e-08 3.07149e-10 7.01494e-10)
(-1.59649e-08 3.83412e-10 6.89305e-10)
(-9.64015e-09 4.37838e-10 5.87611e-10)
(-5.0146e-09 4.98872e-10 5.64025e-10)
(-1.63864e-09 5.75576e-10 6.48539e-10)
(9.6779e-10 6.56289e-10 7.99039e-10)
(4.06182e-09 7.65348e-10 1.14402e-09)
(5.08164e-09 6.60002e-10 8.47075e-10)
(-1.11361e-08 1.91574e-10 3.61638e-10)
(-1.37507e-08 2.76663e-10 5.11799e-10)
(-1.10834e-08 3.43162e-10 5.48822e-10)
(-7.33634e-09 4.01442e-10 5.04196e-10)
(-4.20213e-09 4.60633e-10 4.95625e-10)
(-1.78632e-09 5.12449e-10 5.63895e-10)
(1.57717e-10 5.58962e-10 6.8829e-10)
(1.88533e-09 6.15674e-10 8.90035e-10)
(3.09369e-09 6.29768e-10 8.88925e-10)
(-6.75765e-09 1.53195e-10 2.42047e-10)
(-7.86039e-09 2.25505e-10 3.63039e-10)
(-6.81098e-09 2.94551e-10 4.00166e-10)
(-4.92576e-09 3.48127e-10 3.96897e-10)
(-3.08114e-09 3.85589e-10 3.92161e-10)
(-1.53562e-09 3.96727e-10 4.38478e-10)
(-2.29268e-10 3.58948e-10 4.98988e-10)
(8.09538e-10 3.55852e-10 5.82979e-10)
(1.58938e-09 4.09868e-10 6.38816e-10)
)
;
    }
    procBoundary3to2
    {
        type            processor;
        value           nonuniform List<vector> 
12
(
(-5.69689e-09 1.38845e-10 1.21398e-10)
(-3.28059e-09 1.5e-10 5.6036e-11)
(-2.12636e-09 1.5565e-10 2.42019e-11)
(-1.78481e-09 1.58521e-10 1.36802e-11)
(-4.43011e-09 1.31563e-10 9.50005e-11)
(-2.66919e-09 1.4068e-10 4.61533e-11)
(-1.76433e-09 1.43464e-10 2.42662e-11)
(-1.45401e-09 1.42562e-10 1.69704e-11)
(-3.15068e-09 1.13869e-10 7.39237e-11)
(-2.0476e-09 1.26653e-10 3.98463e-11)
(-1.42646e-09 1.34055e-10 2.44754e-11)
(-1.19283e-09 1.31484e-10 1.6624e-11)
)
;
    }
    procBoundary3to7
    {
        type            processor;
        value           nonuniform List<vector> 
36
(
(-2.64299e-09 1.38268e-10 1.33743e-10)
(-2.90688e-09 2.15491e-10 2.03349e-10)
(-2.73272e-09 2.721e-10 2.46373e-10)
(-2.23906e-09 3.25968e-10 2.39608e-10)
(-1.56414e-09 3.53687e-10 2.09747e-10)
(-8.78165e-10 3.51007e-10 1.79736e-10)
(-1.99159e-10 3.05802e-10 1.34927e-10)
(3.50547e-10 2.59768e-10 9.12514e-11)
(7.88353e-10 2.91996e-10 8.73433e-11)
(-1.78222e-09 1.75693e-10 9.52307e-11)
(-1.92305e-09 2.47841e-10 1.53854e-10)
(-1.82586e-09 3.09172e-10 1.82671e-10)
(-1.52135e-09 3.5937e-10 1.71372e-10)
(-1.01824e-09 3.94626e-10 1.17458e-10)
(-4.58969e-10 3.99428e-10 3.51945e-11)
(1.55367e-10 3.93171e-10 -8.60895e-11)
(7.32519e-10 3.98446e-10 -2.2091e-10)
(1.17894e-09 4.86482e-10 -2.82266e-10)
(-1.283e-09 1.98071e-10 7.98547e-11)
(-1.36759e-09 2.5233e-10 1.21344e-10)
(-1.27674e-09 3.137e-10 1.45848e-10)
(-1.03384e-09 3.58058e-10 1.12499e-10)
(-6.1946e-10 4.0743e-10 3.18256e-11)
(-9.47338e-11 4.45301e-10 -1.01862e-10)
(5.11491e-10 4.82354e-10 -3.2713e-10)
(1.19098e-09 6.0739e-10 -5.49274e-10)
(1.80856e-09 8.53693e-10 -6.90645e-10)
(-1.08209e-09 1.91638e-10 7.00787e-11)
(-1.16251e-09 2.41089e-10 9.45514e-11)
(-1.02727e-09 2.92427e-10 1.10709e-10)
(-7.95588e-10 3.2841e-10 6.59022e-11)
(-4.1578e-10 3.79524e-10 -2.45547e-11)
(1.01291e-10 4.56388e-10 -1.90634e-10)
(7.6623e-10 5.58303e-10 -4.93938e-10)
(1.5725e-09 7.80055e-10 -7.97362e-10)
(2.29508e-09 1.07272e-09 -1.01655e-09)
)
;
    }
}


// ************************************************************************* //
