/*--------------------------------*- C++ -*----------------------------------*\
| =========                 |                                                 |
| \\      /  F ield         | OpenFOAM: The Open Source CFD Toolbox           |
|  \\    /   O peration     | Version:  4.x                                   |
|   \\  /    A nd           | Web:      www.OpenFOAM.org                      |
|    \\/     M anipulation  |                                                 |
\*---------------------------------------------------------------------------*/
FoamFile
{
    version     2.0;
    format      ascii;
    class       volScalarField;
    location    "45.5";
    object      p;
}
// * * * * * * * * * * * * * * * * * * * * * * * * * * * * * * * * * * * * * //

dimensions      [1 -1 -2 0 0 0 0];

internalField   nonuniform List<scalar> 
108
(
5651.68
5708.04
5631.56
5702.33
5610.65
5698.31
5587.61
5697.45
5561.26
5652.9
5708.55
5633.51
5702.75
5614.29
5697.7
5595.73
5692.5
5580.77
5652.1
5708.09
5632.11
5702.32
5611.09
5698.18
5587.82
5697.46
5559.79
5652.61
5708.23
5633.07
5702.53
5612.3
5698.18
5589.72
5697.14
5562.2
3773.72
3830.41
3753.88
3824.25
3733.29
3819.06
3711.93
3816.17
3691.42
3774.92
3830.75
3755.83
3824.16
3736.85
3818.03
3718.69
3812.29
3703.98
3773.99
3830.21
3753.64
3824.12
3732.1
3819.39
3708.66
3818.34
3682.17
3774.42
3830.33
3754.74
3824.43
3733.73
3819.68
3710.67
3818.02
3681.92
1896.77
1952.38
1877.44
1945.97
1857.99
1940.63
1838.94
1936.61
1822.35
1898.86
1952.51
1880.76
1946.35
1862.96
1940.73
1845.17
1934.9
1829.35
1897.53
1952.54
1878.41
1945.86
1859.24
1940.07
1839.75
1935.77
1822.54
1897.65
1952.67
1878.74
1946.54
1859.18
1940.99
1838.5
1936.89
1815.6
)
;

boundaryField
{
    inlet
    {
        type            calculated;
        value           nonuniform 0();
    }
    outlet
    {
        type            calculated;
        value           nonuniform List<scalar> 
12
(
5633.74
5633.74
5633.74
5633.74
3755.83
3755.83
3755.83
3755.83
1877.91
1877.91
1877.91
1877.91
)
;
    }
    wall
    {
        type            calculated;
        value           nonuniform List<scalar> 
63
(
6590.64
6591.86
6591.06
6591.56
6646.99
6647.51
6647.05
6647.18
6570.52
6572.47
6571.07
6572.03
6641.29
6641.71
6641.28
6641.49
6549.61
6553.25
6550.05
6551.26
6637.27
6636.65
6637.13
6637.14
6526.57
6534.69
6526.78
6528.68
6636.41
6631.46
6636.42
6636.09
6500.04
6520.67
6498.65
6516.72
5652.61
3774.42
1897.65
5708.23
3830.33
1952.67
5633.07
3754.74
1878.74
5702.53
3824.43
1946.54
5612.3
3733.73
1859.18
5698.18
3819.68
1940.99
5589.72
3710.67
1838.5
5697.14
3818.02
1936.89
5562.2
3681.92
1815.6
)
;
    }
    procBoundary3to1
    {
        type            processor;
        value           nonuniform List<scalar> 
27
(
5652.68
5708.52
5633.49
5702.47
5612.94
5697.58
5591.26
5694.92
5565.1
3775.08
3830.88
3756.2
3824.18
3737.23
3818.03
3719.59
3811.74
3703.79
1897.6
1952.47
1878.82
1946.13
1859.65
1940.53
1840.74
1936.05
1823.45
)
;
    }
    procBoundary3to2
    {
        type            processor;
        value           nonuniform List<scalar> 
12
(
5714.65
5715.09
5714.75
5714.72
3837.14
3837.65
3837.08
3837.01
1959.21
1959.38
1959.55
1959.4
)
;
    }
    procBoundary3to7
    {
        type            processor;
        value           nonuniform List<scalar> 
36
(
20.5352
74.5037
1.82644
68.0779
-16.8315
62.2519
-35.4279
57.4947
-51.2815
20.5667
74.6063
1.83648
67.8516
-16.4075
60.9402
-34.0353
54.6609
-49.3462
18.8372
74.427
-0.853692
68.0569
-21.1031
62.7204
-42.4517
59.9941
-64.4313
19.3913
74.5164
-0.123832
68.2364
-20.2367
62.8564
-41.448
59.7221
-63.5486
)
;
    }
}


// ************************************************************************* //
