/*--------------------------------*- C++ -*----------------------------------*\
| =========                 |                                                 |
| \\      /  F ield         | OpenFOAM: The Open Source CFD Toolbox           |
|  \\    /   O peration     | Version:  4.x                                   |
|   \\  /    A nd           | Web:      www.OpenFOAM.org                      |
|    \\/     M anipulation  |                                                 |
\*---------------------------------------------------------------------------*/
FoamFile
{
    version     2.0;
    format      ascii;
    class       volScalarField;
    location    "45.5";
    object      QWallFluid;
}
// * * * * * * * * * * * * * * * * * * * * * * * * * * * * * * * * * * * * * //

dimensions      [1 -1 -3 0 0 0 0];

internalField   nonuniform List<scalar> 
108
(
6.59497e+08
1.04561e+09
6.74706e+08
1.09892e+09
6.59413e+08
1.16105e+09
5.75138e+08
1.24584e+09
4.89955e+08
5.2687e+08
9.4108e+08
4.81771e+08
9.39405e+08
3.79035e+08
8.82477e+08
1.70456e+08
6.97042e+08
6546.13
6.52925e+08
1.03069e+09
6.60461e+08
1.08212e+09
6.40568e+08
1.15308e+09
5.69692e+08
1.28362e+09
5.42131e+08
1.58131e+09
2.22282e+09
1.60581e+09
2.28827e+09
1.56646e+09
2.41104e+09
1.43215e+09
2.65516e+09
1.08419e+09
0
0
0
0
0
0
0
0
0
0
0
0
0
0
0
0
0
0
0
0
0
0
0
0
0
0
0
5.96601e+08
9.89077e+08
5.93824e+08
1.0219e+09
5.61001e+08
1.08855e+09
4.9445e+08
1.25994e+09
6.18936e+08
0
0
0
0
0
0
0
0
0
0
0
0
0
0
0
0
0
0
0
0
0
0
0
0
0
0
0
4.47542e+08
8.91822e+08
4.21362e+08
9.01475e+08
3.74242e+08
9.27878e+08
3.29407e+08
1.03684e+09
3.0633e+08
)
;

boundaryField
{
    inlet
    {
        type            calculated;
        value           nonuniform 0();
    }
    outlet
    {
        type            calculated;
        value           uniform 0;
    }
    wall
    {
        type            calculated;
        value           uniform 0;
    }
    procBoundary3to1
    {
        type            processor;
        value           nonuniform List<scalar> 
27
(
6.12484e+08
9.95428e+08
6.00749e+08
1.02112e+09
5.755e+08
1.08001e+09
5.40099e+08
1.22569e+09
5.02866e+08
0
0
0
0
0
0
0
0
0
0
0
0
0
0
0
0
0
0
)
;
    }
    procBoundary3to2
    {
        type            processor;
        value           nonuniform List<scalar> 
12
(
1.00456e+09
9.36509e+08
9.95476e+08
2.14637e+09
0
0
0
9.63025e+08
0
0
0
8.7899e+08
)
;
    }
    procBoundary3to7
    {
        type            processor;
        value           nonuniform List<scalar> 
36
(
0
0
0
0
0
0
0
0
0
0
0
0
0
0
0
0
0
0
0
0
0
0
0
0
0
0
0
4.92008e+08
9.12051e+08
4.79874e+08
9.35626e+08
4.5341e+08
9.60233e+08
3.94222e+08
1.00341e+09
3.46666e+08
)
;
    }
}


// ************************************************************************* //
