/*--------------------------------*- C++ -*----------------------------------*\
| =========                 |                                                 |
| \\      /  F ield         | OpenFOAM: The Open Source CFD Toolbox           |
|  \\    /   O peration     | Version:  4.x                                   |
|   \\  /    A nd           | Web:      www.OpenFOAM.org                      |
|    \\/     M anipulation  |                                                 |
\*---------------------------------------------------------------------------*/
FoamFile
{
    version     2.0;
    format      ascii;
    class       volScalarField;
    location    "55.5";
    object      alpha.iron;
}
// * * * * * * * * * * * * * * * * * * * * * * * * * * * * * * * * * * * * * //

dimensions      [0 0 0 0 0 0 0];

internalField   nonuniform List<scalar> 
108
(
1
1
1
1
1
1
1
0.999999
0.999937
1
1
1
1
1
1
1
1
0.999999
1
1
1
1
1
1
1
1
0.999946
1
1
1
1
1
1
1
1
1.01512
1
1
1
1
1
1
1
0.999999
0.999974
1
1
1
1
1
1
1
1
0.999994
1
1
1
1
1
1
1
1
0.999977
1
1
1
1
1
1
1
1
0.999879
1
1
1
1
1
1
1
0.999999
0.999991
1
1
1
1
1
1
0.999999
0.999999
0.999994
1
1
1
1
1
1
1
1
0.999981
1
1
1
1
1
1
1
1
0.99992
)
;

boundaryField
{
    inlet
    {
        type            fixedValue;
        value           nonuniform 0();
    }
    outlet
    {
        type            fixedValue;
        value           uniform 1;
    }
    wall
    {
        type            zeroGradient;
    }
    procBoundary3to1
    {
        type            processor;
        value           nonuniform List<scalar> 
27
(
0.999999
1
1
1
1
1
1
1
0.999803
0.999992
0.999999
1
1
1
1
1
1
0.999983
1
1
1
1
1
1
0.999999
0.999999
0.999983
)
;
    }
    procBoundary3to2
    {
        type            processor;
        value           nonuniform List<scalar> 
12
(
1
1
1
1
1
1
1
1
1
1
1
1
)
;
    }
    procBoundary3to7
    {
        type            processor;
        value           nonuniform List<scalar> 
36
(
1
1
1
1
0.999999
1
0.999999
0.999999
0.99999
1
1
1
1
1
1
0.999999
0.999999
0.999984
1
1
1
1
1
1
1
1
0.999964
1
1
1
1
1
1
1
1
0.99993
)
;
    }
}


// ************************************************************************* //
