/*--------------------------------*- C++ -*----------------------------------*\
| =========                 |                                                 |
| \\      /  F ield         | OpenFOAM: The Open Source CFD Toolbox           |
|  \\    /   O peration     | Version:  4.x                                   |
|   \\  /    A nd           | Web:      www.OpenFOAM.org                      |
|    \\/     M anipulation  |                                                 |
\*---------------------------------------------------------------------------*/
FoamFile
{
    version     2.0;
    format      ascii;
    class       volScalarField;
    location    "55.5";
    object      pSmooth;
}
// * * * * * * * * * * * * * * * * * * * * * * * * * * * * * * * * * * * * * //

dimensions      [1 -1 -2 0 0 0 0];

internalField   nonuniform List<scalar> 
108
(
18.4952
74.6405
1.27878
68.8482
0.1
64.7859
0.1
63.8011
0.1
19.792
75.1535
2.51969
69.2516
0.1
64.0587
0.1
58.6127
0.1
18.9267
74.6717
1.52687
68.8525
0.1
64.625
0.1
63.7427
0.1
19.4691
74.8121
2.13972
69.0208
0.1
64.542
0.1
63.2725
0.1
18.4241
74.8921
1.25336
68.6803
0.1
63.5708
0.1
60.6642
0.1
19.7099
75.1661
2.56999
68.4856
0.1
62.3245
0.1
56.4806
0.1
18.6515
74.6817
1.07982
68.5645
0.1
63.8236
0.1
62.709
0.1
19.2359
74.8124
1.7984
68.83
0.1
64.0056
0.1
62.2144
0.1
19.451
74.7559
2.14786
68.282
0.1
62.9156
0.1
58.7945
0.1
21.5989
74.9278
4.24408
68.6335
0.1
62.8472
0.1
56.641
0.1
20.1774
74.8892
2.71636
68.2222
0.1
62.2711
0.1
57.7216
0.1
20.3474
75.1032
2.93672
68.8438
0.1
63.0904
0.1
58.6073
0.1
)
;

boundaryField
{
    inlet
    {
        type            zeroGradient;
    }
    outlet
    {
        type            fixedValue;
        value           uniform 0;
    }
    wall
    {
        type            zeroGradient;
    }
    procBoundary3to1
    {
        type            processor;
        value           nonuniform List<scalar> 
27
(
19.523
75.0317
2.30156
68.8825
0.1
63.8015
0.1
60.9271
0.1
19.8458
75.2713
2.70448
68.4859
0.1
62.079
0.1
55.6945
0.1
20.3062
74.8639
3.06025
68.3971
0.1
62.592
0.1
57.8742
0.1
)
;
    }
    procBoundary3to2
    {
        type            processor;
        value           nonuniform List<scalar> 
12
(
81.3061
81.7437
81.3544
81.3392
81.6781
82.162
81.5679
81.5236
81.6693
81.8066
82.0032
81.8994
)
;
    }
    procBoundary3to7
    {
        type            processor;
        value           nonuniform List<scalar> 
36
(
20.852
74.8571
3.24967
68.3585
0.1
62.4706
0.1
57.6927
0.1
21.2047
74.9134
3.50476
68.0115
0.1
61.0435
0.1
54.5652
0.1
19.3354
74.7121
1.68263
68.3464
0.1
63.0203
0.1
60.2663
0.1
19.9
74.7847
2.17098
68.4823
0.1
63.095
0.1
59.85
0.1
)
;
    }
}


// ************************************************************************* //
