/*--------------------------------*- C++ -*----------------------------------*\
| =========                 |                                                 |
| \\      /  F ield         | OpenFOAM: The Open Source CFD Toolbox           |
|  \\    /   O peration     | Version:  4.x                                   |
|   \\  /    A nd           | Web:      www.OpenFOAM.org                      |
|    \\/     M anipulation  |                                                 |
\*---------------------------------------------------------------------------*/
FoamFile
{
    version     2.0;
    format      ascii;
    class       surfaceScalarField;
    location    "42";
    object      phi;
}
// * * * * * * * * * * * * * * * * * * * * * * * * * * * * * * * * * * * * * //

dimensions      [0 3 -1 0 0 0 0];

internalField   nonuniform List<scalar> 
259
(
1.01489e-05
-1.77608e-08
1.07392e-05
-4.64035e-08
1.09952e-05
-6.24959e-08
-2.62294e-07
1.14275e-05
-8.73723e-08
-4.70407e-07
1.16509e-05
-7.73681e-08
-1.68623e-07
-7.26161e-08
-2.8139e-07
8.59866e-06
2.13115e-07
-7.26391e-07
8.83716e-06
1.04405e-07
-3.6842e-07
9.35118e-06
2.44409e-07
-7.90515e-07
9.50703e-06
1.37031e-07
-3.10638e-07
9.86118e-06
2.19421e-07
-6.19982e-07
9.96247e-06
8.02614e-08
-2.44045e-07
1.01712e-05
1.50148e-07
-4.46224e-07
1.02323e-05
1.21911e-08
-1.50662e-07
1.12735e-07
-2.34845e-07
8.81114e-06
2.96253e-07
-7.31015e-07
9.1556e-06
1.46276e-07
-3.86327e-07
9.87604e-06
3.01015e-07
-7.77053e-07
1.0177e-05
1.62099e-07
-3.26043e-07
1.07183e-05
2.82991e-07
-6.04844e-07
1.09386e-05
1.14593e-07
-2.54654e-07
1.13357e-05
2.12317e-07
-4.59243e-07
1.15159e-05
2.54707e-08
-1.93493e-07
1.3224e-07
-3.12772e-07
9.10463e-06
-6.45114e-07
9.62789e-06
-3.76985e-07
1.05969e-05
-6.68021e-07
1.11201e-05
-3.61027e-07
1.19471e-05
-5.44055e-07
1.23919e-05
-3.30195e-07
1.30254e-05
-4.21236e-07
1.32973e-05
-2.46413e-07
-3.16745e-07
7.44616e-06
1.59663e-08
7.30601e-06
3.71622e-08
7.33997e-06
6.14371e-09
-1.72922e-07
4.47103e-08
-2.37996e-07
8.0165e-06
3.08633e-07
-8.55808e-07
7.92053e-06
1.3115e-07
-4.06173e-07
7.6529e-06
3.509e-07
-8.37186e-07
7.5122e-06
1.49896e-07
-2.84896e-07
7.20267e-06
3.62965e-07
-5.85471e-07
7.05955e-06
1.06501e-07
-1.91459e-07
6.70565e-06
2.82394e-07
-3.37551e-07
6.6246e-06
5.00722e-08
-1.13538e-07
2.13539e-07
-8.73864e-08
8.19894e-06
3.74971e-07
-8.33031e-07
8.1847e-06
1.82386e-07
-4.23316e-07
8.1789e-06
4.13603e-07
-8.33964e-07
8.17078e-06
1.64797e-07
-3.32819e-07
8.1712e-06
3.76949e-07
-6.19247e-07
8.16368e-06
1.13029e-07
-2.53664e-07
8.11735e-06
3.03422e-07
-4.33941e-07
8.1472e-06
2.93204e-08
-2.02589e-07
1.93144e-07
-2.59074e-07
8.66029e-06
-7.67163e-07
8.91063e-06
-4.44949e-07
9.42886e-06
-7.72639e-07
9.66927e-06
-4.36645e-07
1.01174e-05
-6.15203e-07
1.03083e-05
-4.08141e-07
1.06429e-05
-4.5233e-07
1.07894e-05
-3.63629e-07
-3.3946e-07
6.35418e-06
-6.53886e-08
-1.20711e-07
7.75171e-06
3.15813e-07
-7.34063e-07
7.5477e-06
1.12214e-07
-3.27689e-07
7.02188e-06
3.0675e-07
-6.3786e-07
6.82585e-06
8.94591e-08
-2.06926e-07
6.32777e-06
2.32936e-07
-3.91192e-07
6.14196e-06
3.60975e-08
-1.08898e-07
5.68899e-06
8.42596e-08
-1.35577e-07
5.53579e-06
2.33358e-08
-4.90618e-08
-2.17636e-08
7.92422e-06
3.77621e-07
-6.55797e-07
7.76094e-06
1.73759e-07
-3.21574e-07
7.39353e-06
4.33897e-07
-5.937e-07
7.24182e-06
1.58575e-07
-2.5023e-07
6.9159e-06
3.72768e-07
-4.33152e-07
6.78308e-06
8.96085e-08
-1.74356e-07
6.4162e-06
2.67512e-07
-2.50316e-07
6.32133e-06
5.84273e-08
1.02162e-07
8.38006e-06
-6.06333e-07
8.46912e-06
-3.60254e-07
8.73368e-06
-6.03299e-07
8.83501e-06
-3.794e-07
9.09298e-06
-5.00408e-07
9.08352e-06
-3.09075e-07
9.21916e-06
9.24325e-06
7.54602e-06
4.05475e-07
7.25163e-06
1.99995e-07
6.66877e-06
4.74937e-07
6.4913e-06
1.49636e-07
6.06619e-06
4.0414e-07
5.93416e-06
1.24467e-07
5.59763e-06
3.1611e-07
7.8412e-06
4.51039e-07
7.69578e-06
2.14887e-07
7.44674e-06
4.66865e-07
7.36151e-06
1.63285e-07
7.21493e-06
3.9032e-07
7.17598e-06
1.28149e-07
8.36902e-06
8.45063e-06
8.67982e-06
8.7532e-06
8.98432e-06
)
;

boundaryField
{
    inlet
    {
        type            calculated;
        value           nonuniform List<scalar> 
12
(
-8.16327e-06
-8.16327e-06
-8.16327e-06
-8.16327e-06
-8.16327e-06
-8.16327e-06
-8.16327e-06
-8.16327e-06
-8.16327e-06
-8.16327e-06
-8.16327e-06
-8.16327e-06
)
;
    }
    outlet
    {
        type            calculated;
        value           nonuniform 0();
    }
    wall
    {
        type            calculated;
        value           uniform 0;
    }
    procBoundary2to0
    {
        type            processor;
        value           nonuniform List<scalar> 
44
(
1.10784e-07
1.48477e-07
6.88846e-08
1.25474e-07
2.25058e-08
7.72427e-08
7.78767e-08
2.55183e-08
-9.8958e-06
3.20855e-08
-3.46135e-07
-6.92407e-07
5.07195e-09
3.31056e-08
-3.58053e-08
-2.95487e-08
-3.24512e-08
2.56975e-09
-3.6594e-08
-3.49447e-08
-7.52736e-06
-8.79441e-08
-2.02126e-07
-4.00527e-07
6.7607e-08
1.11257e-07
-2.59982e-08
1.33061e-08
1.97465e-08
2.86008e-08
7.08671e-08
6.71503e-08
-6.39e-06
1.6673e-07
-1.39326e-07
-1.45549e-07
-8.34025e-08
-6.57944e-08
-1.87566e-07
-6.36896e-08
-1.76912e-07
-4.81621e-08
-7.6541e-08
-2.93456e-08
)
;
    }
    procBoundary2to3
    {
        type            processor;
        value           nonuniform List<scalar> 
12
(
1.19277e-05
1.02818e-05
1.18092e-05
1.37463e-05
7.28142e-06
6.30831e-06
8.11389e-06
1.10053e-05
6.27119e-06
5.34919e-06
6.05231e-06
9.26362e-06
)
;
    }
    procBoundary2to6
    {
        type            processor;
        value           nonuniform List<scalar> 
32
(
2.69249e-10
-1.42814e-07
-1.13975e-07
-3.20452e-07
-3.29295e-07
-2.57671e-07
-4.38887e-07
-1.67506e-07
-3.42371e-07
-1.15397e-07
-1.93311e-07
-5.31729e-08
-3.86167e-08
5.49013e-06
1.11027e-07
-2.32487e-08
-3.79295e-07
-1.91042e-07
-3.36593e-07
-1.78651e-07
-2.72748e-07
-1.39085e-07
7.14889e-06
2.95299e-07
-2.02419e-07
-3.6105e-07
-2.26979e-07
-3.65623e-07
-2.89492e-07
-3.41213e-07
9.05658e-06
-2.53188e-07
)
;
    }
}


// ************************************************************************* //
