/*--------------------------------*- C++ -*----------------------------------*\
| =========                 |                                                 |
| \\      /  F ield         | OpenFOAM: The Open Source CFD Toolbox           |
|  \\    /   O peration     | Version:  4.x                                   |
|   \\  /    A nd           | Web:      www.OpenFOAM.org                      |
|    \\/     M anipulation  |                                                 |
\*---------------------------------------------------------------------------*/
FoamFile
{
    version     2.0;
    format      ascii;
    class       volScalarField;
    location    "42";
    object      QWallFluid;
}
// * * * * * * * * * * * * * * * * * * * * * * * * * * * * * * * * * * * * * //

dimensions      [1 -1 -3 0 0 0 0];

internalField   nonuniform List<scalar> 
114
(
5.31375e+08
9.33109e+08
5.96595e+08
9.68902e+08
6.38059e+08
1.00366e+09
8.47883e+08
4.24784e+08
8.78042e+08
4.86589e+08
9.00806e+08
5.23467e+08
9.20098e+08
5.3859e+08
9.37535e+08
8.53283e+08
4.47126e+08
8.94921e+08
5.34363e+08
9.3344e+08
5.93374e+08
9.6541e+08
6.30797e+08
9.95547e+08
1.71045e+09
9.64467e+08
1.83296e+09
1.1973e+09
1.958e+09
1.3803e+09
2.06956e+09
1.5075e+09
2.14846e+09
0
0
0
0
0
0
0
0
0
0
0
0
0
0
0
0
0
0
0
0
0
0
8.43657e+08
4.40448e+08
8.74894e+08
5.02222e+08
9.06552e+08
5.50668e+08
9.35281e+08
5.81039e+08
9.61772e+08
0
0
0
0
0
0
0
0
0
0
0
0
0
0
0
0
0
0
0
0
8.34787e+08
4.12668e+08
8.48089e+08
4.42366e+08
8.64544e+08
4.6761e+08
8.71156e+08
4.74161e+08
8.843e+08
0
0
0
0
0
0
0
0
0
0
0
0
0
0
0
8.29459e+08
4.16516e+08
8.41874e+08
4.41813e+08
8.55528e+08
4.63632e+08
)
;

boundaryField
{
    inlet
    {
        type            calculated;
        value           uniform 0;
    }
    outlet
    {
        type            calculated;
        value           nonuniform 0();
    }
    wall
    {
        type            calculated;
        value           uniform 0;
    }
    procBoundary2to0
    {
        type            processor;
        value           nonuniform List<scalar> 
44
(
5.23904e+08
9.29483e+08
5.78958e+08
9.59082e+08
6.09844e+08
9.71609e+08
8.60024e+08
4.49333e+08
8.99673e+08
8.99673e+08
0
0
0
0
0
0
0
0
0
0
0
0
0
0
0
0
0
0
0
0
0
0
0
0
0
0
0
0
0
0
0
0
0
0
)
;
    }
    procBoundary2to3
    {
        type            processor;
        value           nonuniform List<scalar> 
12
(
6.57586e+08
5.30698e+08
6.52598e+08
1.58485e+09
0
0
0
5.94108e+08
0
0
0
4.62773e+08
)
;
    }
    procBoundary2to6
    {
        type            processor;
        value           nonuniform List<scalar> 
32
(
0
0
0
8.71285e+08
4.81333e+08
8.87062e+08
0
0
0
0
0
0
0
0
0
0
0
0
0
0
0
0
0
8.71285e+08
0
8.26981e+08
4.09518e+08
8.31075e+08
4.20235e+08
8.28164e+08
8.71285e+08
4.09604e+08
)
;
    }
}


// ************************************************************************* //
