/*--------------------------------*- C++ -*----------------------------------*\
| =========                 |                                                 |
| \\      /  F ield         | OpenFOAM: The Open Source CFD Toolbox           |
|  \\    /   O peration     | Version:  4.x                                   |
|   \\  /    A nd           | Web:      www.OpenFOAM.org                      |
|    \\/     M anipulation  |                                                 |
\*---------------------------------------------------------------------------*/
FoamFile
{
    version     2.0;
    format      ascii;
    class       volScalarField;
    location    "47.5";
    object      p;
}
// * * * * * * * * * * * * * * * * * * * * * * * * * * * * * * * * * * * * * //

dimensions      [1 -1 -2 0 0 0 0];

internalField   nonuniform List<scalar> 
108
(
5651.85
5708.13
5631.7
5702.39
5610.79
5698.39
5587.79
5697.92
5561.28
5653.07
5708.66
5633.67
5702.82
5614.44
5697.69
5595.74
5691.89
5580.75
5652.25
5708.19
5632.26
5702.38
5611.21
5698.15
5587.81
5697.23
5559.85
5652.82
5708.35
5633.23
5702.58
5612.43
5698.14
5589.81
5697.01
5562.44
3773.89
3830.51
3754.04
3824.34
3733.42
3819.15
3712.01
3816.31
3691.25
3775.09
3830.84
3755.99
3824.23
3736.99
3818.03
3718.75
3812.18
3704.08
3774.14
3830.31
3753.77
3824.19
3732.18
3819.41
3708.62
3818.3
3682.05
3774.6
3830.43
3754.88
3824.49
3733.83
3819.68
3710.7
3817.98
3681.96
1896.97
1952.49
1877.62
1946.08
1858.13
1940.7
1839
1936.66
1822.26
1899.09
1952.64
1881
1946.44
1863.18
1940.73
1845.36
1934.77
1829.51
1897.71
1952.65
1878.57
1945.93
1859.39
1940.06
1839.89
1935.68
1822.71
1897.84
1952.79
1878.91
1946.6
1859.35
1940.95
1838.7
1936.73
1816.02
)
;

boundaryField
{
    inlet
    {
        type            calculated;
        value           nonuniform 0();
    }
    outlet
    {
        type            calculated;
        value           nonuniform List<scalar> 
12
(
5633.74
5633.74
5633.74
5633.74
3755.83
3755.83
3755.83
3755.83
1877.91
1877.91
1877.91
1877.91
)
;
    }
    wall
    {
        type            calculated;
        value           nonuniform List<scalar> 
63
(
6590.81
6592.03
6591.21
6591.78
6647.09
6647.62
6647.15
6647.3
6570.65
6572.62
6571.22
6572.19
6641.35
6641.78
6641.34
6641.54
6549.74
6553.4
6550.17
6551.38
6637.35
6636.65
6637.11
6637.1
6526.75
6534.7
6526.77
6528.77
6636.88
6630.85
6636.19
6635.97
6500.08
6520.14
6498.71
6516.55
5652.82
3774.6
1897.84
5708.35
3830.43
1952.79
5633.23
3754.88
1878.91
5702.58
3824.49
1946.6
5612.43
3733.83
1859.35
5698.14
3819.68
1940.95
5589.81
3710.7
1838.7
5697.01
3817.98
1936.73
5562.44
3681.96
1816.02
)
;
    }
    procBoundary3to1
    {
        type            processor;
        value           nonuniform List<scalar> 
27
(
5652.87
5708.65
5633.71
5702.61
5613.15
5697.68
5591.55
5695.07
5565.24
3775.25
3831
3756.37
3824.29
3737.41
3818.12
3719.82
3811.81
3703.86
1897.82
1952.59
1879.04
1946.19
1859.9
1940.61
1841.03
1936.04
1823.59
)
;
    }
    procBoundary3to2
    {
        type            processor;
        value           nonuniform List<scalar> 
12
(
5714.78
5715.22
5714.88
5714.87
3837.26
3837.78
3837.19
3837.14
1959.35
1959.5
1959.7
1959.56
)
;
    }
    procBoundary3to7
    {
        type            processor;
        value           nonuniform List<scalar> 
36
(
20.6637
74.6315
1.92225
68.1889
-16.7581
62.3168
-35.3758
57.4967
-51.4322
20.7855
74.7108
2.03982
67.9428
-16.2489
60.9915
-33.9389
54.6488
-49.3024
18.9989
74.5276
-0.710269
68.1533
-20.9997
62.8075
-42.4346
60.0656
-64.5902
19.5472
74.6049
0.00696493
68.3092
-20.1328
62.9224
-41.3714
59.772
-63.5809
)
;
    }
}


// ************************************************************************* //
