/*--------------------------------*- C++ -*----------------------------------*\
| =========                 |                                                 |
| \\      /  F ield         | OpenFOAM: The Open Source CFD Toolbox           |
|  \\    /   O peration     | Version:  4.x                                   |
|   \\  /    A nd           | Web:      www.OpenFOAM.org                      |
|    \\/     M anipulation  |                                                 |
\*---------------------------------------------------------------------------*/
FoamFile
{
    version     2.0;
    format      ascii;
    class       volScalarField;
    location    "47.5";
    object      pSmooth;
}
// * * * * * * * * * * * * * * * * * * * * * * * * * * * * * * * * * * * * * //

dimensions      [1 -1 -2 0 0 0 0];

internalField   nonuniform List<scalar> 
108
(
18.2749
74.6036
0.1
68.8424
0.1
64.7985
0.1
63.7965
0.1
19.4922
75.1196
0.148201
69.2861
0.1
64.2031
0.1
58.9198
0.1
18.6787
74.6354
0.1
68.8419
0.1
64.6522
0.1
63.8122
0.1
19.2001
74.774
0.1
69.0383
0.1
64.63
0.1
63.4501
0.1
18.2199
74.8627
0.1
68.6665
0.1
63.544
0.1
60.5559
0.1
19.4081
75.1962
0.331502
68.5868
0.1
62.468
0.1
56.6176
0.1
18.4177
74.6493
0.1
68.548
0.1
63.793
0.1
62.6301
0.1
18.9825
74.7943
0.1
68.8462
0.1
64.0462
0.1
62.2688
0.1
19.1884
74.7327
0.1
68.2793
0.1
62.9547
0.1
58.8374
0.1
21.2838
74.8764
3.18441
68.6769
0.1
63.026
0.1
57.0393
0.1
19.9247
74.8943
0.803457
68.1834
0.1
62.3457
0.1
57.9047
0.1
20.0705
75.0373
1.14242
68.8608
0.1
63.2322
0.1
58.9757
0.1
)
;

boundaryField
{
    inlet
    {
        type            zeroGradient;
    }
    outlet
    {
        type            fixedValue;
        value           uniform 0;
    }
    wall
    {
        type            zeroGradient;
    }
    procBoundary3to1
    {
        type            processor;
        value           nonuniform List<scalar> 
27
(
19.2714
75.0057
0.1
68.9325
0.1
63.9455
0.1
61.1719
0.1
19.573
75.301
0.625336
68.5757
0.1
62.2586
0.1
55.8907
0.1
20.0258
74.8229
1.2235
68.4432
0.1
62.771
0.1
58.1932
0.1
)
;
    }
    procBoundary3to2
    {
        type            processor;
        value           nonuniform List<scalar> 
12
(
81.2355
81.666
81.2776
81.2546
81.624
82.1191
81.5102
81.4653
81.6018
81.7509
81.9182
81.7814
)
;
    }
    procBoundary3to7
    {
        type            processor;
        value           nonuniform List<scalar> 
36
(
20.8238
74.7747
2.08186
68.3094
0.1
62.4377
0.1
57.5362
0.1
20.9066
74.8626
2.15606
68.0767
0.1
61.1252
0.1
54.7153
0.1
19.1376
74.6822
0.1
68.2955
0.1
62.9291
0.1
60.0938
0.1
19.6886
74.766
0.164258
68.4759
0.1
63.0622
0.1
59.8088
0.1
)
;
    }
}


// ************************************************************************* //
