/*--------------------------------*- C++ -*----------------------------------*\
| =========                 |                                                 |
| \\      /  F ield         | OpenFOAM: The Open Source CFD Toolbox           |
|  \\    /   O peration     | Version:  4.x                                   |
|   \\  /    A nd           | Web:      www.OpenFOAM.org                      |
|    \\/     M anipulation  |                                                 |
\*---------------------------------------------------------------------------*/
FoamFile
{
    version     2.0;
    format      ascii;
    class       volScalarField;
    location    "11.5";
    object      QWallFluidCoeff;
}
// * * * * * * * * * * * * * * * * * * * * * * * * * * * * * * * * * * * * * //

dimensions      [1 -1 -3 -1 0 0 0];

internalField   nonuniform List<scalar> 
87
(
-6.07301e+06
-7.80256e+06
-5.99699e+06
-7.7687e+06
-5.35493e+06
-7.7275e+06
-4.38203e+06
-8.25882e+06
-5.23505e+06
-2.45857e+06
-3.45617e+06
-2.13131e+06
-3.28033e+06
-1.67258e+06
-3.13168e+06
-1.40998e+06
-2.97704e+06
-1.9676e+06
-1.72204e+06
-3.04109e+06
-1.24052e+06
-2.87644e+06
-578459
-2.75363e+06
-904451
-3.04024e+06
-2.56215e+06
-2.13474e+06
-3.33517e+06
-2.23606e+06
-3.52605e+06
-2.15444e+06
-3.80513e+06
-1.83643e+06
-4.78975e+06
-3.33448e+06
0
0
0
0
0
0
0
0
0
0
0
0
0
0
0
0
0
0
-1.67659e+06
-3.05927e+06
-2.03416e+06
-3.26046e+06
-2.07208e+06
-3.6254e+06
-2.03435e+06
-4.46746e+06
-1.68429e+06
0
0
0
0
0
0
0
0
0
0
0
0
0
0
0
0
0
0
-1.76196e+06
-3.08464e+06
-1.88305e+06
0
0
0
)
;

boundaryField
{
    inlet
    {
        type            calculated;
        value           nonuniform 0();
    }
    outlet
    {
        type            calculated;
        value           uniform 0;
    }
    wall
    {
        type            calculated;
        value           uniform 0;
    }
    procBoundary1to0
    {
        type            processor;
        value           uniform 0;
    }
    procBoundary1to3
    {
        type            processor;
        value           uniform 0;
    }
    procBoundary1to5
    {
        type            processor;
        value           uniform 0;
    }
    procBoundary1to7
    {
        type            processor;
        value           uniform 0;
    }
}


// ************************************************************************* //
