/*--------------------------------*- C++ -*----------------------------------*\
| =========                 |                                                 |
| \\      /  F ield         | OpenFOAM: The Open Source CFD Toolbox           |
|  \\    /   O peration     | Version:  4.x                                   |
|   \\  /    A nd           | Web:      www.OpenFOAM.org                      |
|    \\/     M anipulation  |                                                 |
\*---------------------------------------------------------------------------*/
FoamFile
{
    version     2.0;
    format      ascii;
    class       volScalarField;
    location    "11.5";
    object      thCond;
}
// * * * * * * * * * * * * * * * * * * * * * * * * * * * * * * * * * * * * * //

dimensions      [1 1 -3 -1 0 0 0];

internalField   nonuniform List<scalar> 
87
(
192.928
192.512
192.506
192.254
192.298
191.915
191.743
191.761
191.924
192.708
192.572
192.29
192.144
192.11
191.816
191.519
191.741
191.993
192.334
192.095
191.885
191.676
191.805
191.815
191.615
191.669
191.837
191.923
191.863
191.72
191.465
191.377
191.064
190.785
190.974
191.252
191.625
191.726
191.508
191.298
191.186
191.064
190.772
190.861
191.277
191.308
191.326
191.23
191.155
191.111
190.865
190.652
190.551
191.131
191.165
191.107
190.771
190.593
190.606
190.272
190.31
190.559
190.907
190.885
190.827
190.83
190.638
190.468
190.312
190.263
190.337
190.802
190.676
190.642
190.652
190.245
190.204
190.085
190.118
190.154
190.666
190.704
190.615
190.221
190.436
190.081
190.333
)
;

boundaryField
{
    inlet
    {
        type            zeroGradient;
    }
    outlet
    {
        type            zeroGradient;
    }
    wall
    {
        type            zeroGradient;
    }
    procBoundary1to0
    {
        type            processor;
        value           nonuniform List<scalar> 
12
(
193.301
192.765
192.269
192.124
191.813
191.695
191.537
191.195
191.141
191.019
190.75
190.525
)
;
    }
    procBoundary1to3
    {
        type            processor;
        value           nonuniform List<scalar> 
27
(
191.872
191.968
191.713
191.953
191.894
191.965
191.687
191.697
191.628
191.085
191.077
190.753
190.784
190.882
190.933
190.789
190.723
190.583
190.434
190.246
190.151
190.134
190.246
190.146
189.938
190.068
190.08
)
;
    }
    procBoundary1to5
    {
        type            processor;
        value           nonuniform List<scalar> 
32
(
190.191
190.002
189.996
189.914
189.88
189.894
190.196
190.215
190.088
189.93
189.739
189.697
189.827
190.052
190.143
189.933
189.938
189.934
189.737
189.821
189.698
190.342
190.371
190.191
190.196
190.06
190.118
190.196
190.052
190.042
190.052
189.956
)
;
    }
    procBoundary1to7
    {
        type            processor;
        value           uniform 189.959;
    }
}


// ************************************************************************* //
