/*--------------------------------*- C++ -*----------------------------------*\
| =========                 |                                                 |
| \\      /  F ield         | OpenFOAM: The Open Source CFD Toolbox           |
|  \\    /   O peration     | Version:  4.x                                   |
|   \\  /    A nd           | Web:      www.OpenFOAM.org                      |
|    \\/     M anipulation  |                                                 |
\*---------------------------------------------------------------------------*/
FoamFile
{
    version     2.0;
    format      ascii;
    class       volScalarField;
    location    "16.5";
    object      thCond;
}
// * * * * * * * * * * * * * * * * * * * * * * * * * * * * * * * * * * * * * //

dimensions      [1 1 -3 -1 0 0 0];

internalField   nonuniform List<scalar> 
132
(
193.199
193.207
193.288
193.259
193.086
192.909
192.858
193.056
193.266
193.214
193.049
192.995
192.87
192.921
192.615
192.682
192.693
192.731
193.381
192.925
192.83
192.679
192.654
192.6
192.621
192.538
192.263
193.222
192.903
192.831
192.857
192.395
192.11
192.092
192.029
191.958
192.027
192.013
192.078
192.595
192.163
192.118
191.952
191.839
191.756
191.7
191.663
191.737
192.394
192.03
191.976
191.859
191.672
191.581
191.42
191.649
191.652
192.115
192.076
191.945
191.812
191.351
192.23
191.878
191.602
191.54
191.47
191.519
191.338
191.333
191.478
191.977
191.687
191.542
191.421
191.231
191.266
191.04
190.931
191.002
191.718
191.611
191.369
191.07
190.933
190.895
190.851
191.014
191.076
191.597
191.443
191.187
190.936
190.798
190.743
190.691
192.087
191.749
191.418
191.316
191.144
190.983
191.105
191.163
190.988
191.764
191.321
191.099
190.994
190.94
190.837
190.632
190.743
190.703
191.715
191.399
190.949
190.815
190.633
190.466
190.53
190.685
190.491
191.559
191.228
190.751
190.495
190.669
190.286
190.368
190.613
190.727
)
;

boundaryField
{
    inlet
    {
        type            zeroGradient;
    }
    outlet
    {
        type            zeroGradient;
    }
    wall
    {
        type            zeroGradient;
    }
    procBoundary0to1
    {
        type            processor;
        value           nonuniform List<scalar> 
12
(
192.907
192.699
192.319
191.898
191.656
191.299
191.187
191.042
190.681
190.714
190.455
190.327
)
;
    }
    procBoundary0to2
    {
        type            processor;
        value           nonuniform List<scalar> 
44
(
192.416
192.389
192.567
192.334
192.579
192.392
192.797
192.538
192.416
192.55
192.416
192.389
191.283
191.104
191.481
191.211
192.247
191.962
191.719
191.577
191.283
191.487
191.283
191.104
190.782
190.702
191.651
191.608
191.336
191.114
191.043
190.837
190.782
190.617
190.782
190.702
191.415
190.989
190.717
190.662
190.579
190.537
190.422
190.378
)
;
    }
    procBoundary0to4
    {
        type            processor;
        value           nonuniform List<scalar> 
36
(
191.739
191.3
190.987
190.963
190.857
190.803
190.592
190.489
190.148
191.323
191.124
190.809
190.535
190.482
190.491
190.473
190.41
190.055
191.252
190.864
190.677
190.377
190.377
190.381
190.291
190.054
190.206
191.305
190.974
190.608
190.482
190.243
190.203
189.953
190.203
190.198
)
;
    }
    procBoundary0to6
    {
        type            processor;
        value           uniform 190.395;
    }
    procBoundary0to7
    {
        type            processor;
        value           uniform 189.931;
    }
}


// ************************************************************************* //
