/*--------------------------------*- C++ -*----------------------------------*\
| =========                 |                                                 |
| \\      /  F ield         | OpenFOAM: The Open Source CFD Toolbox           |
|  \\    /   O peration     | Version:  4.x                                   |
|   \\  /    A nd           | Web:      www.OpenFOAM.org                      |
|    \\/     M anipulation  |                                                 |
\*---------------------------------------------------------------------------*/
FoamFile
{
    version     2.0;
    format      ascii;
    class       volScalarField;
    location    "15";
    object      Deff;
}
// * * * * * * * * * * * * * * * * * * * * * * * * * * * * * * * * * * * * * //

dimensions      [0 2 -1 0 0 0 0];

internalField   nonuniform List<scalar> 
108
(
9.87802e-08
9.85539e-08
9.83927e-08
9.83808e-08
9.8326e-08
9.82984e-08
9.81893e-08
9.81362e-08
9.79598e-08
9.8566e-08
9.84635e-08
9.83013e-08
9.81605e-08
9.81333e-08
9.81376e-08
9.81284e-08
9.80958e-08
9.79118e-08
9.85299e-08
9.83302e-08
9.8234e-08
9.80798e-08
9.80798e-08
9.80821e-08
9.80353e-08
9.7913e-08
9.79905e-08
9.85579e-08
9.83873e-08
9.81993e-08
9.81348e-08
9.80118e-08
9.79917e-08
9.78628e-08
9.79915e-08
9.79882e-08
9.87581e-08
9.86045e-08
9.83888e-08
9.82386e-08
9.82159e-08
9.82419e-08
9.82115e-08
9.80184e-08
9.78828e-08
9.86345e-08
9.84527e-08
9.8341e-08
9.82089e-08
9.8165e-08
9.81262e-08
9.80602e-08
9.79372e-08
9.78556e-08
9.85928e-08
9.83591e-08
9.81666e-08
9.80523e-08
9.79913e-08
9.79741e-08
9.79561e-08
9.79156e-08
9.79054e-08
9.84083e-08
9.8277e-08
9.81809e-08
9.79619e-08
9.78922e-08
9.78966e-08
9.7792e-08
9.78711e-08
9.79018e-08
9.87595e-08
9.85413e-08
9.85261e-08
9.83013e-08
9.82299e-08
9.80419e-08
9.80379e-08
9.80302e-08
9.79794e-08
9.86277e-08
9.83368e-08
9.83614e-08
9.82743e-08
9.81712e-08
9.80382e-08
9.80373e-08
9.80144e-08
9.79107e-08
9.85295e-08
9.82894e-08
9.81712e-08
9.80738e-08
9.80692e-08
9.79765e-08
9.79852e-08
9.79276e-08
9.79438e-08
9.83636e-08
9.82779e-08
9.82056e-08
9.79917e-08
9.79313e-08
9.78159e-08
9.79954e-08
9.80126e-08
9.79655e-08
)
;

boundaryField
{
    inlet
    {
        type            calculated;
        value           uniform 0;
    }
    outlet
    {
        type            calculated;
        value           nonuniform 0();
    }
    wall
    {
        type            calculated;
        value           uniform 0;
    }
    procBoundary4to0
    {
        type            processor;
        value           uniform 0;
    }
    procBoundary4to5
    {
        type            processor;
        value           uniform 0;
    }
    procBoundary4to6
    {
        type            processor;
        value           uniform 0;
    }
}


// ************************************************************************* //
