/*--------------------------------*- C++ -*----------------------------------*\
| =========                 |                                                 |
| \\      /  F ield         | OpenFOAM: The Open Source CFD Toolbox           |
|  \\    /   O peration     | Version:  4.x                                   |
|   \\  /    A nd           | Web:      www.OpenFOAM.org                      |
|    \\/     M anipulation  |                                                 |
\*---------------------------------------------------------------------------*/
FoamFile
{
    version     2.0;
    format      ascii;
    class       volScalarField;
    location    "15";
    object      p_rgh;
}
// * * * * * * * * * * * * * * * * * * * * * * * * * * * * * * * * * * * * * //

dimensions      [1 -1 -2 0 0 0 0];

internalField   nonuniform List<scalar> 
108
(
-33531.3
-32555
-30593.5
-27828
-24378.2
-20649.8
-16844.8
-13383.8
-10267
-33922.1
-32927.7
-30925.1
-28077.2
-24497.7
-20624.3
-16702.2
-13182.9
-10058.3
-34643.9
-33619.6
-31541.1
-28541.6
-24718.8
-20571.6
-16431.3
-12798.9
-9657.98
-35568.7
-34508.3
-32342.7
-29156.7
-25020.3
-20486.6
-16043.1
-12274.2
-9122.52
-32936
-31998.7
-30121
-27485.7
-24207.8
-20665.6
-17024.5
-13664.3
-10582.7
-33245.3
-32288.7
-30371.4
-27669.5
-24300.9
-20658.7
-16930.2
-13518.8
-10424.8
-33812.3
-32823.9
-30835.5
-28012.6
-24470
-20638.3
-16752.5
-13250.4
-10131.5
-34530.1
-33501.1
-31429.1
-28457.3
-24690.7
-20607.7
-16513.1
-12896.9
-9751.34
-32612.5
-31690.8
-29861.7
-27302.6
-24123.2
-20675.5
-17107.4
-13800.2
-10744.5
-32880.7
-31943.4
-30071.5
-27454.4
-24199.9
-20672.3
-17037.2
-13687.3
-10617.3
-33366.7
-32400.8
-30463.2
-27737.1
-24340.3
-20664.7
-16905.1
-13475.5
-10377
-33979.4
-32973.9
-30960.4
-28105.4
-24525.6
-20650.6
-16726.1
-13203.3
-10072.9
)
;

boundaryField
{
    inlet
    {
        type            fixedFluxPressure;
        gradient        nonuniform List<scalar> 
12
(
2.95017
3.28085
3.83419
4.53237
5.23713
5.64809
6.40909
7.38282
7.4803
7.91219
8.93427
9.83925
)
;
        value           nonuniform List<scalar> 
12
(
-33531.2
-33922
-34643.8
-35568.7
-32935.9
-33245.2
-33812.2
-34530
-32612.4
-32880.6
-33366.6
-33979.3
)
;
    }
    outlet
    {
        type            fixedValue;
        value           nonuniform 0();
    }
    wall
    {
        type            fixedFluxPressure;
        gradient        nonuniform List<scalar> 
63
(
0.00815283
0.0154023
0.0143559
0.0169182
0.00631991
0.0464148
0.0446599
0.0428142
0.0103673
0.0162221
0.0176838
0.0145239
0.0262899
0.0477093
-0.0079966
0.059568
-0.00493115
0.0168425
0.0152733
0.00665783
0.00482759
-0.00434651
-0.0071306
0.0644289
0.00336583
0.00952277
-0.0256323
-0.00249677
-0.00629814
-0.00497418
-0.00984532
-0.0542507
-0.00426246
-0.00163356
-0.0118226
-0.0164092
0.00855742
0.0130034
0.00673617
0.0355474
0.0351276
0.00555035
0.0136317
0.00651695
0.00188179
0.0203698
0.0198063
-0.0105013
0.00246526
0.0149191
-0.00506541
0.00380714
-0.0012279
-0.00305791
0.00130017
0.0127068
-0.00500417
-0.00805372
-0.0191403
0.00756269
-0.000802721
-0.0124471
-0.0096092
)
;
        value           nonuniform List<scalar> 
63
(
-32612.5
-32880.7
-33366.7
-33979.4
-31690.8
-31943.4
-32400.8
-32973.9
-29861.7
-30071.5
-30463.2
-30960.4
-27302.6
-27454.4
-27737.1
-28105.4
-24123.2
-24199.9
-24340.3
-24525.6
-20675.5
-20672.3
-20664.7
-20650.6
-17107.4
-17037.2
-16905.1
-16726.1
-13800.2
-13687.3
-13475.5
-13203.3
-10744.5
-10617.3
-10377
-10072.9
-33531.3
-32936
-32612.5
-32555
-31998.7
-31690.8
-30593.5
-30121
-29861.7
-27828
-27485.7
-27302.6
-24378.2
-24207.8
-24123.2
-20649.8
-20665.6
-20675.5
-16844.8
-17024.5
-17107.4
-13383.8
-13664.3
-13800.2
-10267
-10582.7
-10744.5
)
;
    }
    procBoundary4to0
    {
        type            processor;
        value           nonuniform List<scalar> 
36
(
-34283.6
-33266.1
-31209.5
-28281
-24603.1
-20615.8
-16589.3
-12999.7
-9844.67
-34787.3
-33755.9
-31654.7
-28625
-24764.5
-20567.1
-16374
-12706.6
-9546.41
-35721.3
-34670.7
-32500.3
-29279.8
-25072.6
-20448.4
-15934.7
-12141.8
-8983.8
-36940.4
-35865.4
-33624.4
-30183
-25505.8
-20248.3
-15293.9
-11344.8
-8218.29
)
;
    }
    procBoundary4to5
    {
        type            processor;
        value           nonuniform List<scalar> 
12
(
-7743.81
-7545.54
-7175.45
-6692.33
-8057.99
-7905
-7624.92
-7265.03
-8223.87
-8094.96
-7859.29
-7557.42
)
;
    }
    procBoundary4to6
    {
        type            processor;
        value           nonuniform List<scalar> 
27
(
-36506.2
-35416.2
-33177.9
-29828.4
-25347.3
-20360.2
-15603.1
-11712
-8546.17
-35245.4
-34182
-32029.3
-28910.8
-24916.8
-20568.2
-16259.1
-12532.5
-9353.99
-34583.6
-33545.4
-31454.7
-28472.4
-24712.4
-20645
-16553
-12920.8
-9755.42
)
;
    }
}


// ************************************************************************* //
