/*--------------------------------*- C++ -*----------------------------------*\
| =========                 |                                                 |
| \\      /  F ield         | OpenFOAM: The Open Source CFD Toolbox           |
|  \\    /   O peration     | Version:  4.x                                   |
|   \\  /    A nd           | Web:      www.OpenFOAM.org                      |
|    \\/     M anipulation  |                                                 |
\*---------------------------------------------------------------------------*/
FoamFile
{
    version     2.0;
    format      ascii;
    class       volScalarField;
    location    "38";
    object      QPartFluid;
}
// * * * * * * * * * * * * * * * * * * * * * * * * * * * * * * * * * * * * * //

dimensions      [1 -1 -3 0 0 0 0];

internalField   nonuniform List<scalar> 
87
(
8.0766e+09
6.733e+09
8.92805e+09
5.6922e+09
6.21369e+09
5.61181e+09
9.95351e+09
8.95613e+09
6.08892e+09
8.01595e+09
1.10662e+10
6.1161e+09
8.69891e+09
6.65524e+09
9.95443e+09
6.30418e+09
9.22205e+09
8.18305e+09
1.0235e+10
8.86123e+09
8.75717e+09
8.76049e+09
9.2435e+09
9.39734e+09
4.67883e+09
7.58731e+09
5.96325e+09
6.15286e+09
8.71765e+09
9.49393e+09
7.36652e+09
6.35423e+09
8.8002e+09
7.35028e+09
9.0019e+09
9.66074e+09
8.6328e+09
6.67146e+09
7.8863e+09
7.93179e+09
6.09145e+09
9.56491e+09
5.3747e+09
8.87432e+09
8.84884e+09
8.04251e+09
7.94868e+09
6.56594e+09
1.00281e+10
6.59369e+09
9.97278e+09
4.81099e+09
6.67891e+09
6.181e+09
7.84428e+09
8.22288e+09
6.17997e+09
7.63516e+09
6.45119e+09
6.88521e+09
4.91304e+09
5.40714e+09
7.43407e+09
7.02533e+09
7.17239e+09
6.50469e+09
1.03021e+10
8.69134e+09
4.53728e+09
5.19819e+09
5.8331e+09
7.62911e+09
6.18834e+09
9.6738e+09
6.71607e+09
7.2074e+09
6.09753e+09
8.47429e+09
4.24814e+09
6.13585e+09
6.76652e+09
6.33719e+09
5.24334e+09
8.48893e+09
5.61622e+09
5.64772e+09
7.19306e+09
)
;

boundaryField
{
    inlet
    {
        type            calculated;
        value           uniform 0;
    }
    outlet
    {
        type            calculated;
        value           nonuniform 0();
    }
    wall
    {
        type            calculated;
        value           uniform 0;
    }
    procBoundary6to0
    {
        type            processor;
        value           uniform 2.59427e+09;
    }
    procBoundary6to2
    {
        type            processor;
        value           nonuniform List<scalar> 
32
(
5.75068e+09
8.51722e+09
1.02535e+10
9.71419e+09
5.38258e+09
7.75938e+09
4.89806e+09
9.48241e+09
1.02968e+10
7.15879e+09
8.23363e+09
6.2663e+09
7.56953e+09
7.4755e+09
7.4755e+09
7.4755e+09
5.87293e+09
7.90281e+09
1.05241e+10
6.59991e+09
9.11536e+09
7.66596e+09
1.03048e+10
1.03048e+10
1.03048e+10
4.25902e+09
6.30138e+09
7.51081e+09
7.2427e+09
6.74792e+09
6.48179e+09
6.48179e+09
)
;
    }
    procBoundary6to4
    {
        type            processor;
        value           nonuniform List<scalar> 
27
(
3.45657e+09
6.72747e+09
9.38986e+09
5.69374e+09
8.77924e+09
6.64027e+09
1.09993e+10
5.9755e+09
7.05082e+09
6.20477e+09
8.58385e+09
7.54336e+09
9.65681e+09
1.05242e+10
7.62211e+09
1.18403e+10
8.50542e+09
8.14059e+09
7.25301e+09
7.01208e+09
6.70019e+09
7.97818e+09
8.44069e+09
9.53664e+09
4.97175e+09
5.17788e+09
7.08661e+09
)
;
    }
    procBoundary6to7
    {
        type            processor;
        value           nonuniform List<scalar> 
12
(
7.43478e+09
5.24574e+09
7.05894e+09
3.84095e+09
6.00064e+09
6.76653e+09
8.53757e+09
8.19226e+09
6.03274e+09
7.28125e+09
6.33107e+09
6.09542e+09
)
;
    }
}


// ************************************************************************* //
