/*--------------------------------*- C++ -*----------------------------------*\
| =========                 |                                                 |
| \\      /  F ield         | OpenFOAM: The Open Source CFD Toolbox           |
|  \\    /   O peration     | Version:  4.x                                   |
|   \\  /    A nd           | Web:      www.OpenFOAM.org                      |
|    \\/     M anipulation  |                                                 |
\*---------------------------------------------------------------------------*/
FoamFile
{
    version     2.0;
    format      ascii;
    class       volVectorField;
    location    "20.5";
    object      DDtUrel;
}
// * * * * * * * * * * * * * * * * * * * * * * * * * * * * * * * * * * * * * //

dimensions      [0 1 -2 0 0 0 0];

internalField   nonuniform List<vector> 
114
(
(-6.37477e-05 -6.66786e-05 1.5005e-05)
(-0.000106877 -0.0001098 1.10793e-05)
(-0.000363831 -0.00024609 -5.30478e-05)
(-0.000584924 -0.000379808 -8.18011e-05)
(-0.00143042 -0.000768962 -0.000279682)
(-0.00248668 -0.00106995 -0.000438317)
(-1.27008e-06 -1.98161e-05 2.90022e-05)
(-8.64036e-05 -5.93379e-05 4.27383e-07)
(-0.000176486 -9.76669e-05 -2.4624e-05)
(-0.00038836 -0.000215078 -9.64785e-05)
(-0.000695722 -0.00033473 -0.000166563)
(-0.001227 -0.000708776 -0.000371086)
(-0.00186431 -0.00103425 -0.000543705)
(-5.18659e-06 -3.10975e-06 2.51696e-05)
(-4.35591e-05 -1.01481e-05 1.82965e-05)
(-0.000117243 -3.05501e-05 -8.0099e-06)
(-0.000228775 -5.66718e-05 -4.42382e-05)
(-0.000404192 -0.000115576 -0.000113204)
(-0.000695412 -0.000193451 -0.000213568)
(-0.00105477 -0.000380048 -0.000372149)
(-0.00156359 -0.000569555 -0.000513318)
(6.91721e-05 4.10176e-06 2.74294e-05)
(3.00102e-05 -1.29055e-05 2.72202e-05)
(2.21806e-05 -2.78213e-05 3.2823e-05)
(-5.41041e-05 -8.50444e-05 3.18266e-05)
(-0.000121748 -0.000147656 3.70497e-05)
(-0.000322222 -0.000298593 3.41216e-05)
(-0.000636943 -0.000506931 3.58534e-05)
(-0.0012597 -0.00090944 9.28201e-05)
(-0.00201292 -0.00133036 0.000197755)
(3.85101e-05 3.77532e-06 2.4497e-05)
(1.38688e-05 -1.15829e-05 2.14879e-05)
(-1.54767e-05 -3.09044e-05 2.12532e-05)
(-7.50144e-05 -7.07762e-05 1.13795e-05)
(-0.000177046 -0.000126711 3.22813e-06)
(-0.000346741 -0.000248282 -1.61627e-05)
(-0.000661186 -0.00042362 -3.44969e-05)
(-0.00109088 -0.000761294 -4.488e-05)
(-0.00160579 -0.00110854 -2.63968e-05)
(1.72227e-05 2.61885e-07 2.06402e-05)
(-6.03913e-06 -9.51998e-06 1.5064e-05)
(-3.94364e-05 -2.17995e-05 1.05616e-05)
(-9.9762e-05 -4.49574e-05 -4.35935e-06)
(-0.000202847 -7.85458e-05 -2.60959e-05)
(-0.000359144 -0.000152781 -5.83062e-05)
(-0.000626036 -0.00025566 -0.000106367)
(-0.000968277 -0.000443986 -0.000149136)
(-0.00147381 -0.00063407 -0.000169471)
(8.60769e-06 -3.46544e-06 1.69497e-05)
(-1.63139e-05 -3.80582e-06 1.02003e-05)
(9.69836e-05 -4.25187e-06 1.2461e-05)
(7.15802e-05 -2.63568e-05 1.96617e-05)
(0.000104524 -4.47585e-05 2.6883e-05)
(3.98623e-05 -0.000118576 4.79217e-05)
(7.73142e-05 -0.000190124 5.97373e-05)
(-0.000142096 -0.000418438 0.000128042)
(-0.000217147 -0.00066869 0.000127608)
(-0.00134725 -0.00144418 0.000460143)
(-0.00268703 -0.00213061 0.000767542)
(6.04777e-05 -8.09062e-06 9.5913e-06)
(3.97693e-05 -2.50228e-05 1.19852e-05)
(3.94339e-05 -4.45471e-05 1.2081e-05)
(-1.73159e-05 -0.000100228 2.00614e-05)
(-6.59707e-05 -0.000167022 2.43068e-05)
(-0.00024538 -0.000350505 5.29614e-05)
(-0.000500316 -0.000572657 7.23032e-05)
(-0.00112403 -0.00119937 0.000231773)
(-0.00183876 -0.00177806 0.000447234)
(3.46085e-05 -1.01035e-05 4.2489e-06)
(8.34043e-06 -2.05011e-05 7.46525e-06)
(-1.00611e-05 -3.14074e-05 6.34377e-06)
(-7.10594e-05 -6.82729e-05 1.92392e-06)
(-0.000155252 -0.00011233 -1.00902e-05)
(-0.000319609 -0.000218906 -9.99024e-06)
(-0.000592486 -0.000349381 -3.0885e-05)
(-0.000983062 -0.000662488 1.98871e-05)
(-0.00150332 -0.00102732 0.000126777)
(8.80906e-06 -5.25625e-06 3.33005e-06)
(-1.4471e-05 -8.91314e-06 1.05314e-06)
(-5.09798e-05 -1.40155e-05 -3.69539e-06)
(-0.000104392 -2.74087e-05 -1.51661e-05)
(0.000125899 -1.08127e-05 -2.39355e-06)
(0.000106762 -3.53702e-05 -1.74868e-06)
(0.000153002 -5.97798e-05 6.7374e-06)
(0.000101668 -0.000145618 2.26767e-05)
(0.000195563 -0.000229189 4.53612e-05)
(-1.06591e-05 -0.000512358 9.89468e-05)
(0.000120649 -0.000819507 0.000137018)
(-0.00146502 -0.00191441 0.000308056)
(-0.0033626 -0.00268559 0.000364615)
(8.48075e-05 -1.58493e-05 -2.46851e-06)
(6.54104e-05 -3.65546e-05 -2.42869e-06)
(7.6592e-05 -5.76629e-05 -1.21936e-06)
(2.22744e-05 -0.000127767 8.04817e-06)
(-2.87845e-07 -0.000203019 1.97177e-05)
(-0.000185659 -0.000434049 5.06711e-05)
(-0.000396687 -0.00069893 8.92475e-05)
(-0.00119344 -0.00156651 0.000204851)
(-0.00210641 -0.00231877 0.000281248)
(5.00695e-05 -1.59162e-05 -1.93733e-06)
(2.06547e-05 -3.00033e-05 -2.57258e-06)
(1.18918e-05 -4.20474e-05 -3.56955e-06)
(-5.20477e-05 -8.72892e-05 -2.83432e-06)
(-0.000118591 -0.000135053 -4.98264e-06)
(-0.000296831 -0.000268567 3.85725e-06)
(-0.000549538 -0.000431655 1.04874e-05)
(-0.00102193 -0.000830972 5.90977e-05)
(-0.00162099 -0.00135171 0.000107418)
(2.03989e-05 -9.40821e-06 -3.86186e-07)
(-7.27223e-06 -1.61758e-05 -4.56833e-06)
(-4.06147e-05 -2.21985e-05 -1.24597e-05)
(-9.80394e-05 -4.22585e-05 -1.53534e-05)
(-0.000196257 -6.10754e-05 -2.49399e-05)
(-0.000338625 -0.000122141 -3.80734e-05)
)
;

boundaryField
{
    inlet
    {
        type            calculated;
        value           nonuniform 0();
    }
    outlet
    {
        type            calculated;
        value           nonuniform List<vector> 
12
(
(-0.00818038 -0.00185895 -0.00150222)
(-0.00274013 -0.00333642 -0.00198629)
(-0.00222064 -0.00144179 -0.000709607)
(-0.0021845 -0.00171989 0.00142699)
(-0.000925737 -0.00118482 -8.17837e-05)
(-0.00241325 -0.000179293 3.6288e-06)
(-0.00962193 -0.00618514 0.00572376)
(-0.00247739 -0.0052674 0.00310482)
(-0.00241518 -0.00227247 0.00122316)
(-0.015428 -0.00800763 -0.000430973)
(-0.00352414 -0.00825025 0.00029757)
(-0.00318874 -0.00360935 0.000146983)
)
;
    }
    wall
    {
        type            calculated;
        value           nonuniform List<vector> 
66
(
(0.000455587 6.16252e-05 -5.821e-05)
(0.000213057 4.97414e-06 -4.97716e-05)
(0.000168389 -1.31766e-05 -3.11756e-05)
(4.55121e-05 3.89309e-07 1.25728e-05)
(0.000129408 -5.98328e-05 -9.05135e-05)
(5.5519e-05 -9.42494e-05 -5.17627e-05)
(-5.97546e-05 -8.80847e-05 -2.62686e-05)
(-1.08834e-05 -4.27972e-05 7.27552e-06)
(0.000851915 8.67625e-05 -5.46136e-05)
(0.000367285 1.96447e-05 -8.50375e-05)
(0.000220853 1.9959e-05 -1.93827e-05)
(-4.33094e-05 -5.29051e-06 -6.20384e-05)
(6.34269e-05 -0.000290302 -3.15368e-05)
(2.43673e-05 -0.000264695 -4.78381e-05)
(-7.22162e-05 -0.000151491 -3.22451e-06)
(-3.1127e-05 -9.25141e-05 1.57872e-05)
(0.00212933 0.000217448 -2.04844e-05)
(0.00049178 6.27997e-05 -6.04648e-05)
(0.000232175 5.47172e-05 -3.99407e-05)
(-0.000190248 4.50565e-05 2.23609e-05)
(-0.000165675 -0.000962446 0.000207637)
(-0.000115976 -0.000847014 1.43126e-05)
(-0.000198283 -0.000266195 3.81541e-05)
(-4.45594e-05 -0.000246013 6.59893e-05)
(0.0083025 0.000901774 -0.000119465)
(0.00070154 0.000417515 -1.30848e-05)
(-4.9384e-05 0.000115593 -1.1584e-05)
(-0.00164688 -0.0054682 0.000528471)
(-0.000722534 -0.00425194 0.000379895)
(-0.00056347 -0.000208671 0.000107229)
(-0.015428 -0.00800763 -0.000430973)
(-0.00352414 -0.00825025 0.00029757)
(-0.00318874 -0.00360935 0.000146983)
(9.70005e-05 6.84263e-05 5.9697e-05)
(0.000323788 7.23088e-05 -1.82387e-06)
(0.000455587 6.16252e-05 -5.821e-05)
(-0.000196648 -1.90026e-05 3.73946e-05)
(-2.93951e-07 -5.60966e-05 8.56245e-05)
(0.000129408 -5.98328e-05 -9.05135e-05)
(6.31383e-05 0.000127894 0.000105536)
(0.000724212 0.000128162 7.10953e-05)
(0.000851915 8.67625e-05 -5.46136e-05)
(-0.00022706 -0.000107728 -7.24632e-05)
(-0.000275929 -6.48622e-05 7.65837e-05)
(-1.72064e-05 -0.000201905 0.00028981)
(6.34269e-05 -0.000290302 -3.15368e-05)
(0.000838695 0.000204981 0.000239503)
(-0.00017713 8.86921e-05 0.000177013)
(0.00159543 0.000236646 9.88076e-05)
(0.00212933 0.000217448 -2.04844e-05)
(-0.000486533 -0.000306988 -0.00018245)
(-0.000301521 -6.05074e-05 0.000152146)
(-0.000144456 -0.000635196 0.000957253)
(-0.000165675 -0.000962446 0.000207637)
(0.00197882 0.000523042 0.000717107)
(-0.0010088 -2.74066e-05 0.000151276)
(0.00432015 0.000705017 -0.00052995)
(0.0083025 0.000901774 -0.000119465)
(-0.00137758 -0.0010579 -0.000522662)
(-0.000563455 -9.61228e-05 0.000375007)
(-0.0012596 -0.0026792 0.0028316)
(-0.00164688 -0.0054682 0.000528471)
(-0.00818038 -0.00185895 -0.00150222)
(-0.0021845 -0.00171989 0.00142699)
(-0.00962193 -0.00618514 0.00572376)
(-0.015428 -0.00800763 -0.000430973)
)
;
    }
    procBoundary5to1
    {
        type            processor;
        value           nonuniform List<vector> 
32
(
(-5.77526e-05 -5.26335e-05 2.57416e-05)
(-0.000104699 -8.82844e-05 9.86957e-06)
(-0.000379293 -0.000207455 -9.22441e-05)
(-0.000598778 -0.000322477 -0.000196575)
(-0.0015988 -0.000687691 -0.000522912)
(-0.00284132 -0.00090604 -0.000789265)
(8.8045e-06 -1.62369e-05 4.49618e-05)
(-9.19614e-05 -4.85263e-05 8.73809e-06)
(-0.000183608 -8.3594e-05 -2.68519e-05)
(-0.000422367 -0.000188227 -0.000143335)
(-0.00073834 -0.000283765 -0.00027278)
(-0.00140569 -0.000685975 -0.000647338)
(-0.00218872 -0.000981083 -0.000908518)
(9.22981e-06 2.64376e-06 3.81625e-05)
(-3.89789e-05 -5.69929e-06 2.96612e-05)
(-0.000126027 -2.12856e-05 -4.33646e-06)
(-0.000246111 -4.35457e-05 -5.55752e-05)
(-0.000446598 -8.92213e-05 -0.000158287)
(-0.000765609 -0.000152899 -0.000314577)
(-0.0011914 -0.00032158 -0.000588936)
(-0.00173054 -0.000494557 -0.000823727)
(0.00010028 1.20135e-05 3.80107e-05)
(4.55127e-05 -1.08716e-06 3.10931e-05)
(3.69147e-05 -1.41253e-05 3.36816e-05)
(3.69147e-05 -1.41253e-05 3.36816e-05)
(3.69147e-05 -1.41253e-05 3.36816e-05)
(6.46612e-05 5.90097e-06 3.98053e-05)
(2.17451e-05 -6.53649e-06 3.02386e-05)
(2.17451e-05 -6.53649e-06 3.02386e-05)
(2.17451e-05 -6.53649e-06 3.02386e-05)
(3.1228e-05 3.64937e-06 3.37158e-05)
(3.1228e-05 3.64937e-06 3.37158e-05)
)
;
    }
    procBoundary5to4
    {
        type            processor;
        value           nonuniform List<vector> 
12
(
(7.31916e-05 1.93003e-06 2.46426e-05)
(5.0948e-05 2.17886e-06 2.29698e-05)
(3.1561e-05 9.66052e-07 2.07566e-05)
(2.18415e-05 -3.29176e-07 1.83519e-05)
(8.57932e-05 -3.84985e-06 1.22992e-05)
(5.96014e-05 -5.47655e-06 1.12035e-05)
(3.86344e-05 -7.57935e-06 9.93427e-06)
(2.17698e-05 -4.64409e-06 8.01852e-06)
(0.00010951 -1.00783e-05 2.23585e-07)
(8.16908e-05 -1.36403e-05 1.37461e-07)
(5.28579e-05 -1.4425e-05 9.64533e-07)
(3.26327e-05 -9.72829e-06 3.20886e-06)
)
;
    }
    procBoundary5to7
    {
        type            processor;
        value           nonuniform List<vector> 
44
(
(-1.37191e-05 1.57804e-06 2.12625e-05)
(-5.91864e-05 4.86624e-07 1.19643e-05)
(-0.000123956 -2.31109e-06 -1.71287e-05)
(-0.000232693 -6.53207e-06 -5.73603e-05)
(-0.000394765 -1.65683e-05 -0.000138245)
(-0.000660527 -3.02661e-05 -0.000253686)
(-0.00100199 -3.22112e-05 -0.00044077)
(-0.00150907 -3.06264e-05 -0.000601813)
(1.89597e-05 2.61029e-06 3.11942e-05)
(-1.37191e-05 1.57804e-06 2.12625e-05)
(-4.96114e-05 -6.13793e-06 3.61631e-06)
(-0.000112358 -1.3329e-05 -1.6438e-05)
(-0.000206327 -1.95279e-05 -4.47619e-05)
(-0.000359347 -4.7903e-05 -9.34975e-05)
(-0.000587754 -7.43516e-05 -0.000154027)
(-0.000920773 -0.000130663 -0.000266169)
(-0.0014509 -0.000180321 -0.0003432)
(8.65228e-06 -1.76184e-06 1.44605e-05)
(-4.96114e-05 -6.13793e-06 3.61631e-06)
(-1.60175e-05 3.36879e-06 6.59281e-06)
(-4.96114e-05 -6.13793e-06 3.61631e-06)
(-0.000112358 -1.3329e-05 -1.6438e-05)
(-0.000206617 -4.44742e-05 -3.39869e-05)
(-0.000345714 -8.40432e-05 -5.68829e-05)
(-0.000600767 -0.000133131 -9.26984e-05)
(-0.000895484 -0.000232226 -0.000126387)
(-0.00133233 -0.000324734 -0.000123021)
(9.29272e-06 -1.07264e-07 1.74543e-06)
(-1.81583e-05 8.97736e-07 -2.77494e-06)
(-4.66063e-05 1.92398e-06 -9.51778e-06)
(-0.000206617 -4.44742e-05 -3.39869e-05)
(-0.000105984 8.92725e-06 -2.63307e-05)
(-0.000206617 -4.44742e-05 -3.39869e-05)
(-0.000345714 -8.40432e-05 -5.68829e-05)
(-0.000590205 -0.000175451 -6.42936e-05)
(-0.000905121 -0.000338512 -6.27223e-05)
(-0.0013753 -0.000523061 -4.75241e-05)
(1.03463e-05 -2.6568e-06 -6.15116e-06)
(-2.08416e-05 -1.73076e-06 -1.20764e-05)
(-5.65419e-05 -1.25091e-06 -1.92379e-05)
(-0.000116351 2.84122e-06 -3.12549e-05)
(-0.000219161 6.37883e-06 -4.77922e-05)
(-0.000590205 -0.000175451 -6.42936e-05)
(-0.000354255 1.84924e-05 -8.15109e-05)
)
;
    }
}


// ************************************************************************* //
