/*--------------------------------*- C++ -*----------------------------------*\
| =========                 |                                                 |
| \\      /  F ield         | OpenFOAM: The Open Source CFD Toolbox           |
|  \\    /   O peration     | Version:  4.x                                   |
|   \\  /    A nd           | Web:      www.OpenFOAM.org                      |
|    \\/     M anipulation  |                                                 |
\*---------------------------------------------------------------------------*/
FoamFile
{
    version     2.0;
    format      ascii;
    class       volScalarField;
    location    "20.5";
    object      Sm;
}
// * * * * * * * * * * * * * * * * * * * * * * * * * * * * * * * * * * * * * //

dimensions      [1 -3 -1 0 0 0 0];

internalField   nonuniform List<scalar> 
114
(
6.81975e-65
8.05969e-65
6.35478e-65
6.74226e-65
7.59476e-65
8.4472e-65
6.81964e-65
5.65722e-65
5.8122e-65
6.66468e-65
8.2146e-65
8.52463e-65
7.90465e-65
8.44699e-65
6.04463e-65
7.51705e-65
5.73466e-65
4.57225e-65
7.28461e-65
5.42473e-65
8.67955e-65
6.35477e-65
4.80485e-65
6.97472e-65
5.4248e-65
6.43226e-65
6.81977e-65
7.12976e-65
5.65734e-65
5.9673e-65
7.05218e-65
6.81969e-65
8.52458e-65
7.12966e-65
8.3696e-65
8.13713e-65
5.26977e-65
8.60214e-65
6.89721e-65
8.21456e-65
4.57224e-65
7.28458e-65
7.59457e-65
6.19966e-65
7.05214e-65
7.12964e-65
6.89717e-65
5.57973e-65
9.99692e-65
4.33973e-65
6.6648e-65
8.21477e-65
6.74229e-65
7.36229e-65
6.9748e-65
6.89733e-65
6.66483e-65
7.28485e-65
6.58734e-65
5.42479e-65
8.36967e-65
6.04475e-65
7.12972e-65
7.12972e-65
7.05222e-65
9.14469e-65
6.43229e-65
5.50232e-65
6.89716e-65
6.35469e-65
6.89716e-65
6.04472e-65
1.00745e-64
7.36217e-65
8.21464e-65
8.91212e-65
8.67963e-65
4.80476e-65
9.37703e-65
8.98954e-65
7.98209e-65
2.63496e-65
6.89739e-65
4.57243e-65
7.12988e-65
6.04489e-65
4.95992e-65
6.97489e-65
6.27743e-65
6.04492e-65
6.35482e-65
6.58733e-65
4.33987e-65
5.65735e-65
7.43979e-65
6.50982e-65
4.57238e-65
7.05233e-65
6.04485e-65
6.12227e-65
6.43228e-65
8.52467e-65
6.97475e-65
5.88978e-65
8.05971e-65
6.50977e-65
6.74228e-65
6.81978e-65
7.36222e-65
5.65728e-65
7.1297e-65
5.57978e-65
9.68708e-65
7.7497e-65
)
;

boundaryField
{
    inlet
    {
        type            calculated;
        value           nonuniform 0();
    }
    outlet
    {
        type            calculated;
        value           uniform 0;
    }
    wall
    {
        type            calculated;
        value           uniform 0;
    }
    procBoundary5to1
    {
        type            processor;
        value           nonuniform List<scalar> 
32
(
7.98222e-65
5.7348e-65
8.4472e-65
7.05226e-65
5.73483e-65
4.18486e-65
5.65724e-65
6.12222e-65
6.97467e-65
6.9747e-65
6.58721e-65
7.2072e-65
4.4173e-65
6.35464e-65
5.11471e-65
9.06698e-65
8.29203e-65
8.75703e-65
6.81966e-65
7.90461e-65
3.48733e-65
6.58725e-65
5.26981e-65
8.05969e-65
8.05969e-65
8.05969e-65
7.05216e-65
9.997e-65
9.997e-65
9.997e-65
5.73467e-65
5.73467e-65
)
;
    }
    procBoundary5to4
    {
        type            processor;
        value           nonuniform List<scalar> 
12
(
8.91222e-65
9.06711e-65
5.65721e-65
5.96718e-65
8.2148e-65
8.13722e-65
6.81971e-65
6.8197e-65
7.2074e-65
7.5948e-65
6.27731e-65
6.35478e-65
)
;
    }
    procBoundary5to7
    {
        type            processor;
        value           nonuniform List<scalar> 
44
(
7.827e-65
6.43208e-65
6.74207e-65
1.03069e-64
1.03844e-64
7.98205e-65
5.65719e-65
8.36955e-65
9.91938e-65
7.827e-65
6.43209e-65
7.36205e-65
6.7421e-65
6.89711e-65
8.60203e-65
8.44706e-65
7.36212e-65
3.95226e-65
6.43209e-65
8.5245e-65
6.43209e-65
7.36205e-65
5.03721e-65
5.8122e-65
7.36215e-65
6.04472e-65
5.81223e-65
8.05964e-65
7.36213e-65
6.81966e-65
5.03721e-65
5.19224e-65
5.03721e-65
5.8122e-65
5.50229e-65
6.43227e-65
6.1223e-65
6.89724e-65
5.81229e-65
7.67219e-65
7.43971e-65
5.1923e-65
5.50229e-65
3.87487e-65
)
;
    }
}


// ************************************************************************* //
