/*--------------------------------*- C++ -*----------------------------------*\
| =========                 |                                                 |
| \\      /  F ield         | OpenFOAM: The Open Source CFD Toolbox           |
|  \\    /   O peration     | Version:  4.x                                   |
|   \\  /    A nd           | Web:      www.OpenFOAM.org                      |
|    \\/     M anipulation  |                                                 |
\*---------------------------------------------------------------------------*/
FoamFile
{
    version     2.0;
    format      ascii;
    class       volVectorField;
    location    "20.5";
    object      Us;
}
// * * * * * * * * * * * * * * * * * * * * * * * * * * * * * * * * * * * * * //

dimensions      [0 1 -1 0 0 0 0];

internalField   nonuniform List<vector> 
114
(
(-1.3318e-08 3.26948e-09 1.1198e-09)
(-1.23006e-08 2.34341e-09 1.50435e-09)
(-1.3779e-08 2.96747e-09 9.68196e-10)
(-9.17183e-09 1.78501e-09 -1.121e-09)
(-9.4554e-09 1.87723e-09 -1.14027e-09)
(-1.41178e-07 3.05218e-08 -3.35581e-10)
(-2.2612e-08 5.25074e-09 1.08398e-09)
(-2.0903e-08 5.91041e-09 1.34323e-09)
(-2.0234e-08 5.20329e-09 1.78886e-09)
(-1.8011e-08 3.46432e-09 -2.21841e-10)
(-1.4924e-08 2.02518e-09 -1.8424e-09)
(-1.18741e-08 2.49775e-09 -9.09697e-10)
(-1.40888e-08 1.92912e-08 -4.42982e-09)
(-2.94135e-08 5.1858e-09 -1.90683e-09)
(-2.6664e-08 5.67016e-09 -4.46451e-11)
(-2.51407e-08 4.84475e-09 2.96968e-10)
(-2.25261e-08 3.89024e-09 8.7397e-10)
(-1.89066e-08 2.27235e-09 1.5511e-09)
(-1.36407e-08 -6.52269e-10 2.75083e-09)
(-9.30931e-09 5.8096e-10 -6.97874e-11)
(-4.9699e-09 5.37311e-09 -3.37833e-09)
(-6.59554e-09 8.2753e-10 1.99083e-09)
(-8.60914e-09 1.87594e-10 1.90608e-09)
(-9.78078e-09 1.43273e-09 1.44239e-09)
(-7.68978e-09 5.15567e-10 7.86648e-10)
(-7.45517e-09 -3.54749e-10 -7.19244e-10)
(-5.63727e-09 5.40753e-11 -8.29211e-11)
(-5.49512e-09 -6.31838e-10 -1.17056e-09)
(-5.49994e-09 -1.12721e-10 -2.33341e-09)
(-5.06033e-09 3.59477e-09 -6.92345e-09)
(-1.60007e-08 -3.98799e-10 -3.24227e-10)
(-1.99592e-08 -2.34584e-09 2.0367e-09)
(-1.74274e-08 3.63752e-09 3.429e-10)
(-1.58845e-08 8.19251e-10 5.99202e-10)
(-1.50982e-08 -1.37111e-10 -2.52427e-10)
(-1.38462e-08 3.95715e-11 3.15937e-11)
(-1.15421e-08 -3.63547e-10 -1.33896e-09)
(-8.49366e-09 6.49602e-11 -1.66393e-09)
(-7.6939e-09 2.08255e-09 -6.09173e-09)
(-2.26001e-08 1.51583e-09 -1.6221e-09)
(-2.42822e-08 3.26711e-09 -3.78467e-10)
(-2.32116e-08 3.8884e-09 8.64768e-10)
(-2.28922e-08 2.75969e-09 -1.10331e-10)
(-1.95722e-08 1.0232e-09 1.19257e-09)
(-1.62719e-08 3.3911e-10 5.89221e-10)
(-1.26631e-08 -5.56515e-10 9.6145e-10)
(-9.18215e-09 -1.33026e-09 4.73078e-11)
(-4.94767e-09 1.06747e-09 -1.83732e-09)
(-2.47125e-08 1.63598e-09 -1.88698e-09)
(-2.58499e-08 2.98239e-09 -1.42725e-09)
(-5.69409e-09 6.44874e-10 1.19744e-09)
(-5.69497e-09 -3.05109e-10 3.87669e-10)
(-5.7077e-09 3.52863e-10 1.96863e-10)
(-7.37865e-09 -2.39498e-09 3.06359e-09)
(-6.33867e-09 -1.10717e-09 -1.70157e-10)
(-4.27219e-09 -3.54593e-10 -4.3175e-10)
(-4.62706e-09 -1.07015e-09 -1.04459e-09)
(-6.7524e-09 4.97886e-10 -3.59048e-09)
(3.24384e-09 2.08305e-09 -1.31348e-08)
(-1.00329e-08 1.45431e-09 1.91265e-10)
(-1.05409e-08 8.06047e-10 6.64724e-10)
(-9.65977e-09 4.27629e-10 -1.32105e-10)
(-1.81774e-08 -2.96112e-09 -6.27364e-10)
(-1.21238e-08 -1.26786e-09 -1.51963e-10)
(-1.05979e-08 -1.44328e-09 2.9459e-10)
(-8.02457e-09 -2.10975e-10 -9.25373e-10)
(-7.46514e-09 1.48051e-09 -3.65776e-09)
(-2.94905e-09 5.09243e-09 -5.9365e-09)
(-1.79671e-08 9.81396e-10 -1.48373e-09)
(-1.92453e-08 1.15369e-09 1.92831e-10)
(-1.73274e-08 7.59755e-10 8.89937e-10)
(-1.93873e-08 6.20796e-10 -5.54514e-10)
(-1.63376e-08 -4.07914e-10 1.04547e-09)
(-1.3481e-08 -9.96991e-10 2.98594e-10)
(-1.0334e-08 -1.16175e-09 1.11767e-09)
(-7.84845e-09 -3.77706e-10 -1.02862e-09)
(-5.28689e-09 1.46518e-09 -2.46191e-09)
(-1.70232e-08 -2.14667e-10 -2.68679e-09)
(-2.06153e-08 1.6987e-09 -2.39292e-09)
(-2.15589e-08 1.34683e-09 -1.09406e-09)
(-2.03912e-08 1.09104e-09 -1.4356e-09)
(-2.87386e-09 -1.77723e-10 7.90739e-10)
(-3.8059e-09 6.67369e-12 -9.39531e-11)
(-1.07488e-09 1.23851e-10 2.95376e-10)
(-4.22467e-09 -1.15692e-09 1.95176e-09)
(-3.54907e-09 -2.61464e-10 5.41309e-11)
(-3.14505e-09 -6.57044e-10 5.01688e-10)
(-4.73118e-09 -2.26146e-10 1.49873e-10)
(-5.0793e-09 3.88069e-09 -4.98941e-09)
(2.057e-09 1.19619e-08 -1.25077e-08)
(-5.68505e-09 1.02426e-10 9.72986e-10)
(-6.24381e-09 -8.37455e-12 -2.75819e-10)
(-1.02445e-08 1.59973e-09 9.52621e-10)
(-2.13478e-08 -4.04287e-09 1.18374e-09)
(-6.68714e-09 -6.94283e-10 1.01666e-09)
(-5.7068e-09 -9.18865e-10 9.99898e-12)
(-6.20877e-09 -8.84747e-10 -5.79231e-11)
(-4.97718e-09 5.7493e-09 -1.68112e-09)
(-1.51035e-12 1.5431e-08 -1.8739e-09)
(-8.06117e-09 1.35984e-10 -8.6122e-11)
(-1.02462e-08 5.35796e-10 -8.94269e-10)
(-1.23494e-08 1.19637e-09 3.53305e-10)
(-1.27104e-08 3.52114e-10 3.42158e-10)
(-9.15507e-09 -1.21222e-09 6.90978e-10)
(-1.00111e-08 -1.38138e-09 -1.2048e-10)
(-7.43019e-09 -1.00124e-09 1.08035e-10)
(-5.74698e-09 1.38339e-10 -3.05009e-10)
(-3.06522e-09 1.24747e-09 -1.1616e-09)
(-1.08865e-08 -1.56775e-09 -7.07652e-10)
(-1.10859e-08 -7.1942e-11 -7.80281e-10)
(-8.66108e-09 1.64453e-08 -4.7153e-10)
(-1.21803e-08 1.01625e-09 -3.21439e-10)
(-1.25035e-08 -2.20471e-10 -1.75974e-10)
(-1.16098e-08 -1.00479e-09 1.88047e-10)
)
;

boundaryField
{
    inlet
    {
        type            zeroGradient;
    }
    outlet
    {
        type            zeroGradient;
    }
    wall
    {
        type            zeroGradient;
    }
    procBoundary5to1
    {
        type            processor;
        value           nonuniform List<vector> 
32
(
(-1.09515e-08 3.61479e-09 2.08294e-10)
(-1.07165e-08 3.79166e-09 4.64846e-10)
(-9.8312e-09 2.63549e-09 -1.9672e-09)
(-6.14034e-09 3.4078e-09 -2.78607e-09)
(-9.28918e-09 3.13493e-09 -4.99342e-09)
(-5.39528e-09 2.05828e-09 -1.63156e-08)
(-1.95371e-08 5.56933e-09 1.09083e-09)
(-1.99079e-08 5.79852e-09 8.18465e-11)
(-1.62066e-08 6.39294e-09 6.69062e-10)
(-9.35745e-09 5.95502e-09 -4.77006e-09)
(-1.32337e-09 2.80243e-09 -4.45219e-09)
(9.45595e-10 -5.82016e-10 -5.39008e-09)
(-1.06439e-08 7.52842e-09 -9.92215e-09)
(-2.72157e-08 8.51965e-09 -2.07552e-09)
(-2.42964e-08 9.18072e-09 -2.11509e-09)
(-2.45171e-08 6.39613e-09 -4.6718e-10)
(-1.86923e-08 6.39441e-09 2.07179e-09)
(-5.54482e-09 6.76711e-10 8.51169e-09)
(4.85456e-09 -2.97397e-09 -1.88201e-09)
(-2.50474e-09 -2.07096e-09 1.22841e-09)
(-9.04474e-09 5.14963e-09 -1.00826e-08)
(-1.04319e-08 1.44821e-09 -1.89698e-10)
(-1.12743e-08 -9.90011e-10 2.7604e-09)
(-1.02202e-08 1.34527e-09 1.88127e-09)
(-1.02202e-08 1.34527e-09 1.88127e-09)
(-1.02202e-08 1.34527e-09 1.88127e-09)
(-2.04718e-08 3.01041e-09 -1.14181e-09)
(-2.24914e-08 4.67027e-09 -2.12131e-11)
(-2.24914e-08 4.67027e-09 -2.12131e-11)
(-2.24914e-08 4.67027e-09 -2.12131e-11)
(-2.85024e-08 3.36971e-09 -1.77727e-09)
(-2.85024e-08 3.36971e-09 -1.77727e-09)
)
;
    }
    procBoundary5to4
    {
        type            processor;
        value           nonuniform List<vector> 
12
(
(-6.92061e-09 1.46033e-09 8.16014e-10)
(-1.72988e-08 1.4215e-09 9.93379e-10)
(-2.14205e-08 2.33938e-10 -1.41254e-09)
(-2.44288e-08 6.87932e-10 -1.86698e-09)
(-4.72085e-09 -2.31331e-11 2.47496e-10)
(-8.90555e-09 4.58567e-10 -2.64165e-10)
(-1.43771e-08 -1.22147e-09 -1.48661e-09)
(-1.57978e-08 5.50712e-10 -4.88625e-09)
(-2.36997e-09 -1.34504e-10 3.2951e-10)
(-4.23931e-09 -4.66339e-10 9.51287e-11)
(-6.61019e-09 -1.13168e-09 -9.81406e-10)
(-9.04944e-09 -7.14802e-10 -1.14527e-09)
)
;
    }
    procBoundary5to7
    {
        type            processor;
        value           nonuniform List<vector> 
44
(
(-2.8943e-08 4.20443e-09 -4.01492e-09)
(-2.89138e-08 5.26154e-09 -2.4033e-09)
(-2.80748e-08 2.81577e-09 -3.97768e-10)
(-2.38293e-08 2.60978e-09 2.20281e-09)
(-1.52067e-08 2.47549e-09 4.06613e-09)
(-1.15091e-08 -1.58748e-09 5.18542e-09)
(-8.08225e-09 -1.60283e-10 3.7413e-09)
(-4.76458e-09 1.28867e-09 -2.47052e-09)
(-2.79023e-08 4.38516e-09 -3.28765e-09)
(-2.8943e-08 4.20443e-09 -4.01492e-09)
(-2.65716e-08 3.19526e-09 -7.63237e-10)
(-2.74194e-08 -2.18754e-10 -9.33483e-10)
(-2.43317e-08 -2.56837e-09 1.47704e-10)
(-1.74469e-08 3.16837e-10 2.66565e-09)
(-1.30603e-08 -9.01615e-11 2.79656e-09)
(-8.33323e-09 -5.51896e-10 2.19174e-09)
(-6.63703e-09 -8.09006e-11 -2.6573e-09)
(-2.12635e-08 9.32068e-10 -2.9951e-09)
(-2.65716e-08 3.19526e-09 -7.63237e-10)
(-2.35281e-08 2.59229e-09 -2.71335e-09)
(-2.65716e-08 3.19526e-09 -7.63237e-10)
(-2.74194e-08 -2.18754e-10 -9.33483e-10)
(-1.96e-08 -1.23857e-09 -1.0025e-09)
(-1.44043e-08 -3.3461e-10 1.26948e-09)
(-1.10924e-08 3.83358e-11 1.6358e-09)
(-8.14853e-09 -7.18239e-10 1.54704e-10)
(-3.44847e-09 -6.9045e-10 -1.65877e-09)
(-1.59853e-08 -4.47773e-10 -2.06943e-09)
(-1.98998e-08 8.98191e-10 -1.00106e-09)
(-1.8259e-08 1.5198e-09 -3.39551e-10)
(-1.96e-08 -1.23857e-09 -1.0025e-09)
(-1.74428e-08 1.42775e-09 -1.43438e-09)
(-1.96e-08 -1.23857e-09 -1.0025e-09)
(-1.44043e-08 -3.3461e-10 1.26948e-09)
(-1.02884e-08 -8.27718e-10 4.30464e-12)
(-9.98544e-09 9.06093e-10 -1.68945e-10)
(-2.15466e-09 -3.982e-10 -2.29856e-09)
(-8.01251e-09 -6.67517e-10 -8.32233e-10)
(-1.08806e-08 -2.76867e-10 -5.33935e-10)
(-1.12194e-08 2.3588e-11 -4.32391e-10)
(-1.08985e-08 4.5656e-10 -8.76827e-10)
(-1.05004e-08 -2.19805e-11 -4.96501e-11)
(-1.02884e-08 -8.27718e-10 4.30464e-12)
(-1.26472e-08 1.57003e-09 2.12598e-09)
)
;
    }
}


// ************************************************************************* //
