/*--------------------------------*- C++ -*----------------------------------*\
| =========                 |                                                 |
| \\      /  F ield         | OpenFOAM: The Open Source CFD Toolbox           |
|  \\    /   O peration     | Version:  4.x                                   |
|   \\  /    A nd           | Web:      www.OpenFOAM.org                      |
|    \\/     M anipulation  |                                                 |
\*---------------------------------------------------------------------------*/
FoamFile
{
    version     2.0;
    format      ascii;
    class       volScalarField;
    location    "35.5";
    object      p_rgh;
}
// * * * * * * * * * * * * * * * * * * * * * * * * * * * * * * * * * * * * * //

dimensions      [1 -1 -2 0 0 0 0];

internalField   nonuniform List<scalar> 
87
(
19.266
74.103
-0.348967
68.3563
-21.5681
64.3684
-46.0722
64.7295
-87.2501
18.822
74.1811
-0.740113
68.362
-21.869
64.2244
-45.5031
63.5931
-68.0357
19.5087
74.2622
0.357504
68.0854
-20.0356
63.098
-41.8789
60.5441
-66.7843
19.4562
74.4177
0.500007
68.3026
-19.6222
63.0273
-40.9834
59.5235
-59.4632
19.1678
74.4923
-0.024164
68.2714
-20.27
62.8367
-41.1438
59.1288
-58.9149
19.8773
74.6855
1.09509
68.013
-17.7616
61.6533
-35.8651
55.4372
-50.319
19.2105
74.159
-0.18392
68.067
-20.9954
63.2373
-43.2331
61.2113
-65.3553
18.8761
74.1829
-0.643067
67.8715
-21.0172
62.6377
-42.2205
60.0224
-62.4868
19.8245
74.0864
1.0213
67.615
-18.0939
62.0885
-36.9132
57.8159
-53.5475
20.7055
74.9066
2.41568
20.6678
74.7498
22.6029
)
;

boundaryField
{
    inlet
    {
        type            fixedFluxPressure;
        gradient        nonuniform 0();
        value           nonuniform 0();
    }
    outlet
    {
        type            fixedValue;
        value           uniform 0;
    }
    wall
    {
        type            fixedFluxPressure;
        gradient        nonuniform List<scalar> 
57
(
-0.000129957
5.33879e-05
0.000266457
-0.000322889
2.13139e-05
0.000146754
-1.24552e-05
0.00013722
0.000332803
2.17926e-05
7.16573e-05
0.000106333
5.14475e-05
6.23878e-05
0.000111187
2.97718e-05
4.9986e-05
5.08383e-05
7.86307e-05
0.000166031
0.000273408
0.000171233
0.000130933
0.00015448
0.000731532
0.000697282
0.00034884
-2.49842e-05
-2.40786e-05
-2.97355e-06
-2.82387e-05
-0.00425799
-2.01433e-05
-1.0754e-05
-1.59306e-05
7.81494e-06
-2.93312e-05
-9.35411e-06
-4.36002e-05
1.41461e-05
1.16403e-05
9.13905e-06
1.67138e-05
1.31701e-05
2.19055e-05
0.000213502
-7.10616e-06
-2.33394e-06
0.000226771
2.37213e-07
-6.61048e-05
-2.91045e-05
-1.03086e-06
-2.22397e-05
0.000207701
6.85101e-05
-9.89891e-05
)
;
        value           nonuniform List<scalar> 
57
(
19.266
18.822
19.5088
74.103
74.1811
74.2622
-0.348967
-0.740111
0.357508
68.3563
68.362
68.0854
-21.5681
-21.869
-20.0356
64.3684
64.2244
63.098
-46.0722
-45.5031
-41.8789
64.7295
63.5932
60.5441
-87.25
-68.0357
-66.7843
19.266
19.4562
19.2105
20.7055
74.1029
74.4177
74.159
74.9066
-0.348967
0.500006
-0.18392
2.41568
68.3563
68.3026
68.067
-21.5681
-19.6222
-20.9954
64.3684
63.0273
63.2373
-46.0722
-40.9834
-43.2331
64.7295
59.5235
61.2113
-87.25
-59.4632
-65.3553
)
;
    }
    procBoundary1to0
    {
        type            processor;
        value           nonuniform List<scalar> 
12
(
80.5205
80.6182
80.8828
80.9859
81.1758
81.5225
80.7684
80.9709
81.1373
81.5469
81.7586
81.4832
)
;
    }
    procBoundary1to3
    {
        type            processor;
        value           nonuniform List<scalar> 
27
(
18.6198
74.0467
-1.19246
68.0847
-21.7152
63.7362
-43.72
61.9194
-69.1673
18.5316
74.3936
-1.06808
68.0042
-21.1606
62.6059
-40.9511
58.9528
-58.2675
19.8154
74.1858
0.981671
67.6272
-17.7064
62.2063
-35.8654
57.7167
-51.7382
)
;
    }
    procBoundary1to5
    {
        type            processor;
        value           nonuniform List<scalar> 
32
(
68.5395
-15.7974
62.1253
-32.7948
54.9775
-45.9515
2.07037
67.9337
-16.0993
61.7396
-33.8582
55.3161
-48.5018
74.4849
5.0886
67.717
-12.2171
60.9701
-28.5831
52.9438
-43.9402
19.731
74.2085
68.5395
2.07037
0.651886
19.9157
2.07037
74.4849
74.3397
74.4849
21.3317
)
;
    }
    procBoundary1to7
    {
        type            processor;
        value           uniform 22.0488;
    }
}


// ************************************************************************* //
