/*--------------------------------*- C++ -*----------------------------------*\
  =========                 |
  \\      /  F ield         | OpenFOAM: The Open Source CFD Toolbox
   \\    /   O peration     | Website:  https://openfoam.org
    \\  /    A nd           | Version:  4.x
     \\/     M anipulation  |
\*---------------------------------------------------------------------------*/
FoamFile
{
    version     2.0;
    format      ascii;
    class       Cloud<passiveParticle>;
    location    0;
    object      positions;
}
// * * * * * * * * * * * * * * * * * * * * * * * * * * * * * * * * * * * * * //

312
(
( 0.211636 -0.00559845 -0.0726899 ) 4
( 0.187125 -0.00942956 -0.0457047 ) 34
( 0.223507 -0.0130691 -0.0586231 ) 36
( 0.203084 -0.0136527 -0.0353131 ) 64
( 0.235611 -0.00379732 -0.0713092 ) 36
( 0.220449 -0.00513215 -0.0324566 ) 64
( 0.176649 -0.00934251 -0.0624314 ) 34
( 0.236043 -0.0090505 -0.0438661 ) 36
( 0.205769 -0.00151758 -0.0507308 ) 35
( 0.167617 -0.0112797 -0.0447176 ) 34
( 0.226315 -0.0111272 -0.0147029 ) 65
( 0.225285 0.0300912 -0.0273427 ) 74
( 0.0457746 0.0271863 -0.0469704 ) 38
( 0.215175 0.0376287 -0.0425633 ) 73
( 0.185394 0.022291 -0.0700909 ) 43
( 0.113546 0.038856 -0.0534822 ) 41
( 0.0323701 0.0742149 -0.0323243 ) 85
( 0.201838 0.0640982 -0.0450729 ) 53
( 0.212419 0.0180021 -0.0410326 ) 73
( 0.0749329 0.0448108 -0.0509455 ) 48
( 0.069772 0.0214995 -0.047136 ) 39
( 0.0322877 0.0515496 -0.0611037 ) 47
( 0.17349 0.0184087 -0.0546822 ) 43
( 0.125939 0.0707893 -0.04849 ) 50
( 0.0266249 0.0590222 -0.0436153 ) 46
( 0.023804 0.0902931 -0.0399015 ) 84
( 0.0433035 0.090133 -0.0543247 ) 56
( 0.0625371 0.0501643 -0.0659084 ) 48
( 0.0782583 0.0721586 -0.0575122 ) 57
( 0.13803 0.0576279 -0.0571836 ) 50
( 0.180672 0.0552029 -0.0492632 ) 52
( 0.0592454 0.0312521 -0.060899 ) 39
( 0.203249 0.00505998 -0.0291743 ) 64
( 0.100175 0.0434144 -0.0349085 ) 78
( 0.0790284 0.0455065 -0.0254511 ) 77
( 0.239279 0.0524603 -0.0724557 ) 23
( 0.156951 0.0557775 -0.0682867 ) 51
( 0.215946 0.0776978 -0.0410022 ) 91
( 0.244063 0.0826169 -0.0398877 ) 92
( 0.168106 0.0665574 -0.0389375 ) 81
( 0.0925581 0.0600485 -0.06728 ) 49
( 0.145311 0.0710993 -0.0444652 ) 51
( 0.110952 0.0824344 -0.0427507 ) 87
( 0.154428 0.0565544 -0.0289599 ) 80
( 0.136363 0.0382198 -0.053158 ) 41
( 0.210452 0.074244 -0.0597357 ) 62
( 0.0254444 0.0819912 -0.0577894 ) 55
( 0.186257 0.0389702 -0.0592992 ) 43
( 0.185158 0.0889747 -0.0709392 ) 61
( 0.168833 0.090123 -0.0375108 ) 90
( 0.223392 0.0641634 -0.0707751 ) 54
( 0.118342 0.0218131 -0.0623759 ) 41
( 0.114004 0.0888654 -0.0613268 ) 59
( 0.07246 0.0629159 -0.0321053 ) 77
( 0.0925385 0.0772656 -0.0356218 ) 87
( 0.133753 0.0243638 -0.0392069 ) 70
( 0.196355 0.0526723 -0.0696438 ) 53
( 0.144898 0.00355061 -0.0699986 ) 33
( 0.218452 0.0258932 -0.0583127 ) 44
( 0.0270908 0.0247931 -0.0326763 ) 66
( 0.0996141 0.0176926 -0.0675255 ) 40
( 0.0900863 0.0248287 -0.0214927 ) 69
( 0.125526 0.0399837 -0.0697495 ) 41
( 0.124099 0.0635371 -0.0278378 ) 79
( 0.00983487 0.0177762 -0.039504 ) 66
( 0.106552 0.0460328 -0.0707846 ) 49
( 0.0581498 0.0798821 -0.0461368 ) 57
( 0.100019 0.0251791 -0.0491486 ) 40
( 0.154485 0.0242602 -0.0524988 ) 42
( 0.225814 0.0635916 -0.0509603 ) 54
( 0.157079 0.00537372 -0.0468841 ) 33
( 0.181752 0.0316124 -0.0414272 ) 72
( 0.202691 0.0124757 -0.0703798 ) 35
( 0.088188 0.0572357 -0.0427356 ) 78
( 0.0977762 0.0749235 -0.0553166 ) 58
( 0.124694 0.051738 -0.0436907 ) 50
( 0.0899864 0.0619892 -0.0230638 ) 78
( 0.19125 0.0711543 -0.0642478 ) 52
( 0.231495 0.0689588 -0.032653 ) 83
( 0.0349145 0.0416907 -0.0389774 ) 67
( 0.144556 0.0731532 -0.0678242 ) 60
( 0.0619068 0.0465865 -0.0360549 ) 77
( 0.0762193 0.0886055 -0.0352383 ) 86
( 0.155543 0.0545388 -0.0485482 ) 51
( 0.00998173 0.0726728 -0.0468414 ) 55
( 0.193035 0.0220197 -0.0284547 ) 72
( 0.0379342 0.0181534 -0.0644944 ) 38
( 0.135984 0.0455827 -0.0287303 ) 79
( 0.00989889 0.0813161 -0.0289976 ) 84
( 0.0108163 0.0545504 -0.0549543 ) 46
( 0.169356 0.043901 -0.0320743 ) 81
( 0.0567191 0.0722487 -0.0644572 ) 57
( 0.151017 0.0900376 -0.059474 ) 60
( 0.0282663 0.0328987 -0.0554479 ) 38
( 0.114683 0.0289976 -0.0362518 ) 70
( 0.230024 0.0121084 -0.0340809 ) 65
( 0.248841 0.0608134 -0.0242684 ) 83
( 0.0279852 0.0556708 -0.0187466 ) 76
( 0.242052 0.0556009 -0.0425368 ) 83
( 0.0959955 0.0900508 -0.0694534 ) 58
( 0.16512 0.0708517 -0.0580592 ) 51
( 0.188483 0.0902899 -0.034761 ) 90
( 0.232061 0.0279742 -0.0742574 ) 14
( 0.239106 0.0160682 -0.059998 ) 45
( 0.196718 0.0449607 -0.0434945 ) 53
( 0.16448 0.0285393 -0.0691792 ) 42
( 0.0637425 0.0612414 -0.0495741 ) 48
( 0.247561 0.0106242 -0.0428896 ) 36
( 0.184922 0.0743484 -0.0457544 ) 61
( 0.083567 0.0270207 -0.0603176 ) 40
( 0.171184 0.0773787 -0.0226219 ) 90
( 0.167482 0.0393881 -0.0527898 ) 43
( 0.176738 0.0581247 -0.0685207 ) 52
( 0.11409 0.090295 -0.0250309 ) 88
( 0.227092 0.0901939 -0.0298857 ) 92
( 0.165896 0.0204202 -0.0366444 ) 71
( 0.205014 0.090136 -0.0702232 ) 62
( 0.188919 0.00642256 -0.0574791 ) 34
( 0.120868 0.0661701 -0.0671344 ) 50
( 0.058619 0.0274755 -0.0318613 ) 68
( 0.0472821 0.0567708 -0.0272679 ) 76
( 0.0843847 0.0320261 -0.0390002 ) 69
( 0.249929 0.0885736 -0.0220392 ) 92
( 0.00990932 0.0284627 -0.0677846 ) 37
( 0.222419 0.0110207 -0.0709284 ) 36
( 0.132838 0.0897485 -0.0675584 ) 59
( 0.049045 0.0481985 -0.0510608 ) 47
( 0.163321 0.0824993 -0.074057 ) 29
( 0.185424 0.0613852 -0.0308053 ) 81
( 0.00970049 0.0356774 -0.0493289 ) 37
( 0.207201 0.090034 -0.0282491 ) 91
( 0.211348 0.0510813 -0.056631 ) 53
( 0.0854262 0.0901629 -0.0526855 ) 58
( 0.233348 0.0281727 -0.0453313 ) 45
( 0.202854 0.0329535 -0.0684928 ) 44
( 0.128726 0.0902651 -0.048084 ) 59
( 0.0548872 0.0732219 -0.0190691 ) 85
( 0.0355391 0.0693617 -0.0693073 ) 47
( 0.2314 0.0450532 -0.055663 ) 54
( 0.0282596 0.0901529 -0.0195204 ) 85
( 0.228663 0.0900996 -0.0498597 ) 63
( 0.149121 0.0901859 -0.0397083 ) 89
( 0.0104506 0.0351163 -0.0297397 ) 66
( 0.151465 0.0373585 -0.0379404 ) 71
( 0.143491 0.0277993 -0.0686265 ) 42
( 0.0433606 0.0673001 -0.0504232 ) 47
( 0.167778 0.00694329 -0.0699128 ) 34
( 0.170801 0.0900657 -0.0572279 ) 61
( 0.19683 0.0238379 -0.0518352 ) 44
( 0.137143 0.0900817 -0.022756 ) 88
( 0.0527743 0.0273141 -0.0050322 ) 94
( 0.135503 0.070099 7.7534e-05 ) 105
( 0.0832873 0.0549735 -0.00355538 ) 103
( 0.0894555 0.0423287 0.0105558 ) 96
( 0.217851 0.0166443 0.0112611 ) 100
( 0.114812 0.0250188 0.00872071 ) 97
( 0.0430332 0.0347504 0.0105545 ) 94
( 0.110163 0.0412316 -0.00205036 ) 96
( 0.175626 0.0361781 -0.0120233 ) 99
( 0.168847 0.0486556 0.00178287 ) 107
( 0.191177 0.082213 -0.0167643 ) 90
( 0.125017 0.051069 0.00637663 ) 105
( 0.153887 0.039423 0.0108511 ) 98
( 0.04901 0.0902076 0.00758411 ) 109
( 0.125217 0.0234439 -0.00779715 ) 97
( 0.0098529 0.0488413 0.00689947 ) 101
( 0.0110368 0.0659916 -0.0165158 ) 75
( 0.103371 0.0901039 -0.00349672 ) 111
( 0.158976 0.0681932 -0.00999594 ) 106
( 0.193339 0.0595701 -0.0127647 ) 107
( 0.0293305 0.0881141 0.00605797 ) 109
( 0.0272611 0.0433887 -0.00308808 ) 101
( 0.0907316 0.0902243 0.0119065 ) 111
( 0.0756164 0.0182189 0.00723404 ) 95
( 0.0628437 0.0800406 -0.00214728 ) 110
( 0.207104 0.0272571 -0.0011524 ) 100
( 0.133916 0.0428021 -0.00903891 ) 97
( 0.0581805 0.0697168 0.0138851 ) 103
( 0.00990517 0.0682294 0.00299274 ) 101
( 0.124263 0.0776378 -0.0140498 ) 112
( 0.232375 0.0780962 -0.0152232 ) 92
( 0.16217 0.0798781 0.00558267 ) 113
( 0.163652 0.0259587 0.000283257 ) 98
( 0.145141 0.0901237 0.0064089 ) 113
( 0.0952697 0.0239303 0.00531515 ) 96
( 0.0643478 0.0605358 -0.00572407 ) 103
( 0.0201286 0.0274254 -0.0143909 ) 66
( 0.0466269 0.0898382 -0.0119411 ) 109
( 0.0663109 0.0371177 0.00535854 ) 95
( 0.0927882 0.0732001 -0.00373566 ) 111
( 0.0532015 0.0515884 0.00797428 ) 102
( 0.105719 0.0730605 -0.0187511 ) 87
( 0.153654 0.0900475 -0.0115678 ) 113
( 0.0292262 0.0233365 0.00247178 ) 94
( 0.142482 0.0276239 0.000298308 ) 98
( 0.22107 0.0370669 0.00869513 ) 100
( 0.153161 0.0467143 -0.0119473 ) 106
( 0.116952 0.0594656 -0.00964315 ) 105
( 0.0769993 0.0702084 0.00780971 ) 103
( 0.011091 0.0868579 -0.00997062 ) 108
( 0.0803675 0.089136 -0.00479181 ) 110
( 0.191335 0.0389583 -0.000721781 ) 99
( 0.125015 0.0903336 0.000715856 ) 112
( 0.21171 0.0530015 -0.0156891 ) 82
( 0.108937 0.0286649 -0.0172519 ) 69
( 0.082412 0.0340586 -0.00582012 ) 95
( 0.101109 0.0573487 0.00492283 ) 104
( 0.1827 0.0210215 -0.000699875 ) 99
( 0.0360935 0.0604801 0.00213846 ) 102
( 0.178907 0.071267 -0.00557438 ) 107
( 0.00975714 0.0442735 -0.0122829 ) 101
( 0.107805 0.0577703 -0.0547138 ) 49
( 0.00985264 0.0901743 -0.0670906 ) 55
( 0.216708 0.0558568 -0.0346666 ) 82
( 0.139891 0.060592 -0.0164258 ) 80
( 0.0517763 0.0144434 0.0101135 ) 94
( 0.00983811 0.0296276 0.00234295 ) 93
( 0.00990982 0.0901399 0.00951937 ) 108
( 0.0702106 0.0230231 -0.0165197 ) 68
( 0.220974 0.0444434 -0.0727107 ) 22
( 0.049948 0.0901423 -0.0313957 ) 85
( 0.158624 -0.0107538 -0.0703339 ) 33
( 0.00983229 0.056095 -0.0336321 ) 75
( 0.228049 0.0901267 -0.0697175 ) 63
( 0.0942383 0.0431393 -0.0554075 ) 49
( 0.224252 0.00562449 -0.0518746 ) 36
( 0.217642 0.0137642 -0.0187353 ) 64
( 0.230954 0.0582251 -0.0160084 ) 83
( 0.067178 0.0900601 -0.0606725 ) 57
( 0.240918 0.0425558 -0.0230224 ) 74
( 0.105908 0.0625532 -0.0355476 ) 78
( 0.145702 -0.0092588 -0.0541477 ) 33
( 0.202597 0.0901059 -0.0486999 ) 62
( 0.139605 0.0278595 -0.0206268 ) 71
( 0.249366 -0.00447284 -0.0301141 ) 65
( 0.0928329 0.090052 -0.0203588 ) 87
( 0.116521 0.0456713 -0.0239111 ) 79
( 0.150115 0.0575919 0.00404028 ) 106
( 0.150691 0.0759034 -0.026072 ) 89
( 0.15929 0.030492 -0.0211114 ) 71
( 0.188361 0.0424359 -0.0257321 ) 72
( 0.114301 0.0737651 0.00388855 ) 112
( 0.0407341 0.0312898 -0.020094 ) 67
( 0.0358807 0.0730607 -0.0129485 ) 109
( 0.173179 0.0166785 -0.0176438 ) 72
( 0.17527 0.0641335 0.0124314 ) 107
( 0.173013 0.055618 -0.0163634 ) 81
( 0.0960956 0.0446787 -0.0154357 ) 78
( 0.0755347 0.073491 -0.0158107 ) 86
( 0.205398 0.03459 -0.0193833 ) 73
( 0.203816 0.0703807 -0.0264445 ) 82
( 0.0636906 0.0415566 -0.0137072 ) 95
( 0.0453329 0.0476436 -0.00975562 ) 102
( 0.0653523 0.0902179 -0.0188539 ) 86
( 0.0117326 0.0704816 -0.0666255 ) 46
( 0.10997 0.0787571 -0.0780818 ) 27
( 0.178243 0.0403597 -0.0774837 ) 12
( 0.0290573 0.03167 -0.0760789 ) 7
( 0.237998 0.077631 -0.0814916 ) 32
( 0.198973 0.0749988 -0.0821592 ) 31
( 0.178392 -0.0141532 -0.0817022 ) 3
( 0.0516207 0.0238034 -0.0777101 ) 7
( 0.11229 0.0290242 -0.0799436 ) 10
( 0.0685116 0.0163292 -0.0702933 ) 39
( 0.0746594 0.0625889 -0.0755135 ) 17
( 0.13891 0.0535086 -0.0765753 ) 20
( 0.218306 0.0793221 -0.0833872 ) 31
( 0.0165957 0.0466556 -0.072207 ) 15
( 0.153466 0.0405243 -0.0806203 ) 11
( 0.0809386 0.0442261 -0.0700914 ) 48
( 0.0503695 0.0601673 -0.0789271 ) 16
( 0.15466 0.0164513 -0.0816098 ) 11
( 0.0456176 0.0419955 -0.0722804 ) 7
( 0.0457602 0.0859854 -0.0736873 ) 25
( 0.0852112 0.00826124 -0.0773944 ) 0
( 0.0787641 0.0820195 -0.0750938 ) 26
( 0.129634 0.0192586 -0.0800287 ) 10
( 0.133565 -0.00671241 -0.0827961 ) 1
( 0.160855 0.065969 -0.0849425 ) 20
( 0.186133 0.003607 -0.0770396 ) 3
( 0.0267392 0.0900568 -0.0774506 ) 24
( 0.234408 0.0125718 -0.086762 ) 5
( 0.0881667 -0.0102084 -0.0842287 ) 0
( 0.214286 0.0249215 -0.0827054 ) 13
( 0.0184286 0.0161317 -0.0825154 ) 6
( 0.209901 0.0570288 -0.0836033 ) 22
( 0.0104685 0.0799837 -0.0841598 ) 24
( 0.130453 0.0758649 -0.0816838 ) 28
( 0.0925578 0.0315218 -0.0799339 ) 9
( 0.0657154 0.0374729 -0.0809716 ) 8
( 0.120127 0.053966 -0.08308 ) 19
( 0.0315115 0.0548286 -0.082566 ) 16
( 0.179195 0.0730629 -0.0814484 ) 30
( 0.101886 0.0617574 -0.0847547 ) 18
( 0.196466 0.0407974 -0.0856636 ) 13
( 0.108518 0.00601084 -0.080974 ) 0
( 0.146697 0.0900827 -0.0818296 ) 29
( 0.0626233 0.0901253 -0.0832801 ) 26
( 0.233226 0.0420341 -0.0883043 ) 14
( 0.173285 0.0222253 -0.0859217 ) 12
( 0.091376 0.0891963 -0.0888068 ) 27
( 0.00991173 0.0600924 -0.0851917 ) 15
( 0.0108301 0.0343254 -0.0868037 ) 6
( 0.0374761 0.0144026 -0.0881013 ) 7
( 0.195392 0.0203566 -0.0872072 ) 13
( 0.031494 0.0739803 -0.0882518 ) 25
( 0.0852176 0.0513306 -0.0881984 ) 18
( 0.076856 0.0226521 -0.0884034 ) 8
( 0.134913 0.0371033 -0.0871674 ) 10
( 0.115052 -0.0111411 -0.0887727 ) 1
( 0.22935 0.0615739 -0.0896064 ) 23
( 0.0632777 0.0711727 -0.0894266 ) 17
)
