/*--------------------------------*- C++ -*----------------------------------*\
| =========                 |                                                 |
| \\      /  F ield         | OpenFOAM: The Open Source CFD Toolbox           |
|  \\    /   O peration     | Version:  4.x                                   |
|   \\  /    A nd           | Web:      www.OpenFOAM.org                      |
|    \\/     M anipulation  |                                                 |
\*---------------------------------------------------------------------------*/
FoamFile
{
    version     2.0;
    format      ascii;
    class       volVectorField;
    location    "9.5";
    object      DDtUrel;
}
// * * * * * * * * * * * * * * * * * * * * * * * * * * * * * * * * * * * * * //

dimensions      [0 1 -2 0 0 0 0];

internalField   nonuniform List<vector> 
108
(
(-5.70864e-05 -5.65779e-07 -5.34575e-05)
(-4.42231e-05 -2.36843e-06 -9.384e-05)
(-1.50681e-05 -9.19795e-06 -0.000144143)
(-5.11279e-05 -1.56805e-05 -0.000194349)
(-7.87828e-05 -3.29812e-05 -0.00028285)
(-0.000255529 -2.15822e-05 -0.000433548)
(-0.000430205 -4.1967e-05 -0.000647178)
(-0.00112236 8.02608e-05 -0.00109902)
(-0.00209381 0.000163666 -0.00136087)
(-4.97462e-05 -4.81664e-06 -4.30716e-05)
(-4.393e-05 -1.85894e-06 -9.27371e-05)
(-1.02357e-05 -5.95234e-06 -0.000149435)
(-5.10356e-05 7.13592e-06 -0.000203115)
(-7.46524e-05 1.02688e-05 -0.00030094)
(-0.00027013 4.75644e-05 -0.000469475)
(-0.00047401 9.43862e-05 -0.000742924)
(-0.00118344 0.000174793 -0.00126127)
(-0.00222927 0.000196137 -0.00152851)
(-4.47055e-05 4.60578e-06 -2.53693e-06)
(-5.96366e-05 -2.19692e-06 -6.58998e-05)
(-3.24048e-05 -5.62722e-08 -0.000136519)
(-7.58154e-05 2.93375e-05 -0.000196549)
(-0.00012173 5.81432e-05 -0.000309241)
(-0.000336241 0.00014086 -0.000508891)
(-0.000667212 0.000249417 -0.00088116)
(-0.00129709 0.000493739 -0.00147334)
(-0.0021738 0.000707887 -0.00190385)
(-1.04127e-05 1.06755e-05 7.12393e-05)
(-8.44958e-05 -2.66794e-06 -1.08195e-05)
(-6.74496e-05 -4.7317e-06 -0.00010605)
(-0.000128875 3.68231e-05 -0.00019338)
(-0.000125952 7.80229e-05 -0.000347242)
(-0.00035741 0.000214436 -0.000581043)
(-0.000620766 0.000366236 -0.00116415)
(-0.00143606 0.00080774 -0.00233339)
(-0.00250302 0.00113574 -0.0028837)
(1.27194e-05 -2.71744e-06 -5.85902e-05)
(-7.67935e-06 -3.96538e-06 -9.62197e-05)
(-1.28841e-05 -9.10589e-06 -0.000142434)
(-6.64823e-05 -1.31914e-05 -0.000194452)
(-0.000148995 -2.19246e-05 -0.000272002)
(-0.000314862 -2.49601e-05 -0.000411343)
(-0.000599938 -3.48982e-05 -0.00061186)
(-0.00105419 2.55295e-05 -0.00103846)
(-0.00169197 7.836e-05 -0.00133645)
(2.70201e-05 -6.5423e-06 -4.93056e-05)
(1.92866e-06 -2.96394e-06 -9.40837e-05)
(2.36827e-06 -5.2571e-06 -0.00014686)
(-5.56463e-05 1.38163e-05 -0.000201952)
(-0.000121699 3.01098e-05 -0.000290707)
(-0.000306331 8.3784e-05 -0.000452416)
(-0.000588391 0.000150267 -0.000706756)
(-0.00115002 0.000383541 -0.00121689)
(-0.00197915 0.000509997 -0.00148526)
(5.02284e-05 -9.56732e-06 -1.06246e-05)
(1.47204e-05 -9.4345e-06 -6.80465e-05)
(2.39864e-05 -6.0595e-06 -0.000134684)
(-3.91857e-05 2.77024e-05 -0.000203114)
(-8.39272e-05 6.22306e-05 -0.000312417)
(-0.000310125 0.0001705 -0.000510105)
(-0.000560392 0.000301374 -0.0008616)
(-0.00134646 0.000755374 -0.00146488)
(-0.00237729 0.00106545 -0.00190676)
(0.000102051 -1.61783e-05 7.08927e-05)
(2.68187e-05 -2.16796e-05 -2.03103e-05)
(4.51012e-05 -2.21441e-05 -0.000108907)
(-5.34174e-05 2.32075e-05 -0.000218661)
(-3.03062e-05 6.33122e-05 -0.000364941)
(-0.000299469 0.000223899 -0.000602957)
(-0.000408486 0.000385557 -0.00114638)
(-0.00155287 0.000964541 -0.00231754)
(-0.00298421 0.00138502 -0.00311018)
(3.96434e-05 -2.93318e-06 -5.2076e-05)
(1.02799e-05 -5.18108e-06 -8.46403e-05)
(-1.65093e-05 -1.01402e-05 -0.000130135)
(-8.08118e-05 -1.64094e-05 -0.000176157)
(-0.000181721 -2.83126e-05 -0.000245378)
(-0.000344379 -3.61029e-05 -0.00036278)
(-0.000637976 -5.12416e-05 -0.000535917)
(-0.00100882 -2.68176e-05 -0.000823094)
(-0.00150361 5.68774e-06 -0.0010839)
(6.41994e-05 -9.98026e-06 -4.72769e-05)
(2.8457e-05 -5.27943e-06 -8.49196e-05)
(1.0392e-05 -3.44211e-06 -0.000134893)
(-5.98762e-05 1.43628e-05 -0.00018908)
(-0.000136107 3.34357e-05 -0.000272449)
(-0.00032058 9.79529e-05 -0.000417905)
(-0.000591076 0.000175118 -0.000642264)
(-0.00112277 0.000459077 -0.00101701)
(-0.00183991 0.00070178 -0.00132465)
(0.000105793 -1.82714e-05 -1.89171e-05)
(6.75898e-05 -1.50015e-05 -6.86767e-05)
(6.05387e-05 -1.07656e-05 -0.000132015)
(-2.44688e-05 2.79209e-05 -0.000206671)
(-5.69917e-05 6.75326e-05 -0.000307797)
(-0.000282251 0.000195497 -0.000504775)
(-0.000480208 0.000340169 -0.000802713)
(-0.00135034 0.000877794 -0.00138473)
(-0.00244152 0.00121155 -0.00172376)
(0.000179925 -3.18592e-05 4.81059e-05)
(0.000119897 -3.51252e-05 -3.15138e-05)
(0.00012359 -3.60673e-05 -0.000109978)
(5.94822e-06 1.94878e-05 -0.000229686)
(1.92357e-05 6.89476e-05 -0.000362403)
(-0.000261288 0.000236954 -0.00060023)
(-0.000336992 0.000417735 -0.00101638)
(-0.00161096 0.00100202 -0.00184641)
(-0.00320432 0.00137729 -0.00238409)
)
;

boundaryField
{
    inlet
    {
        type            calculated;
        value           nonuniform 0();
    }
    outlet
    {
        type            calculated;
        value           nonuniform List<vector> 
12
(
(-0.00705701 0.00238022 -0.00227459)
(-0.00696767 -0.00216357 -0.00189072)
(-0.00321309 0.000563166 -0.00143794)
(-0.00549453 0.00274531 -0.00697451)
(-0.00244063 0.00132241 -0.00293396)
(-0.00398675 0.000914039 -0.00188036)
(-0.0055042 0.00344039 -0.00151373)
(-0.0102784 0.00451297 -0.0122793)
(-0.00187867 0.000745371 -0.00122588)
(-0.0035975 0.00256648 -0.00166528)
(-0.00679976 0.0032886 -0.00127169)
(-0.0118418 0.00223568 -0.00403963)
)
;
    }
    wall
    {
        type            calculated;
        value           nonuniform List<vector> 
63
(
(-0.000166597 3.01088e-05 -0.000233363)
(-0.000192936 -7.22534e-05 -0.000195631)
(-0.000351396 4.14304e-05 -0.000128387)
(-0.000127321 9.14754e-05 0.000322727)
(-0.000149892 3.8115e-05 -0.000104587)
(-0.000225538 2.70443e-05 -0.000144731)
(-0.000396036 -8.4645e-06 -0.00012234)
(-0.000796677 1.7656e-05 0.000229505)
(0.00026303 1.32055e-05 -0.000160501)
(0.000275198 -7.17921e-05 -0.000222896)
(6.3357e-05 -3.74934e-05 -0.000230339)
(-0.000265214 -0.000106942 -2.96195e-05)
(6.21471e-05 4.10944e-05 -7.8156e-05)
(-1.65484e-05 2.08267e-05 -0.000110652)
(-9.35346e-05 8.14173e-05 4.437e-06)
(-0.000731019 0.000102673 0.000109173)
(0.000829171 -0.000139362 -7.3805e-05)
(0.000782752 -0.000175342 -0.000133121)
(0.000177742 -4.33344e-05 7.29342e-05)
(0.000327608 -0.000124554 -0.000150442)
(0.000178188 0.000262456 -0.000269499)
(2.60605e-05 -0.00016804 -0.000170767)
(-0.000177202 2.68653e-05 0.000154361)
(-0.000496276 0.000360679 0.000396985)
(0.00252816 -0.000322981 0.000246547)
(0.00197196 -0.000242988 7.00424e-05)
(-0.000759114 -0.000232664 0.0002153)
(0.000659859 -0.00027404 -0.000186546)
(-0.000329696 0.00130799 -0.00185418)
(-3.46183e-05 -0.000960366 -0.00205815)
(-0.000268461 -0.000194178 -3.84361e-05)
(-0.000690243 0.0016571 -0.00702158)
(-0.00705701 0.00238022 -0.00227459)
(-0.00696767 -0.00216357 -0.00189072)
(-0.00321309 0.000563166 -0.00143794)
(-0.00549453 0.00274531 -0.00697451)
(-0.000127321 9.14754e-05 0.000322727)
(0.000582912 -0.000110769 0.00046336)
(0.000811699 -0.000133616 0.000358835)
(-0.000796677 1.7656e-05 0.000229505)
(-0.000183296 -9.22764e-05 0.000122608)
(0.000303013 -0.00016412 0.000114484)
(-0.000265214 -0.000106942 -2.96195e-05)
(0.000592425 -0.000230358 3.30127e-05)
(0.000896081 -0.000381508 0.000117107)
(-0.000731019 0.000102673 0.000109173)
(-0.000441432 -3.82465e-06 -0.000191412)
(-0.000167509 -6.30857e-05 -0.000271642)
(0.000327608 -0.000124554 -0.000150442)
(0.00122219 -0.000386422 -0.000290256)
(0.00133099 -0.000339479 -0.000261317)
(-0.000496276 0.000360679 0.000396985)
(-0.000724228 0.000372655 2.68095e-05)
(-0.000681743 0.000232801 -0.000336023)
(0.000659859 -0.00027404 -0.000186546)
(0.00384035 -0.000748095 -0.00032787)
(0.00423035 -0.000670403 -0.000369719)
(-0.000690243 0.0016571 -0.00702158)
(-0.00143522 0.00248445 -0.00754971)
(-0.00158517 0.00176417 -0.00315217)
(-0.00549453 0.00274531 -0.00697451)
(-0.0102784 0.00451297 -0.0122793)
(-0.0118418 0.00223568 -0.00403963)
)
;
    }
    procBoundary3to1
    {
        type            processor;
        value           nonuniform List<vector> 
27
(
(-7.27951e-05 -6.07328e-07 -3.32694e-05)
(-6.37458e-05 -9.15013e-06 -7.85604e-05)
(-4.38048e-05 -2.0172e-05 -0.000135366)
(-8.15918e-05 -4.80761e-05 -0.000182921)
(-0.000151275 -8.28913e-05 -0.000278142)
(-0.000325374 -0.000146488 -0.000407074)
(-0.000635985 -0.000244464 -0.000626877)
(-0.00109326 -0.000319356 -0.000951862)
(-0.0017674 -0.000418947 -0.00119619)
(1.08515e-05 1.40876e-08 -4.41817e-05)
(-1.2108e-05 -8.00849e-06 -8.29713e-05)
(-2.19371e-05 -1.85234e-05 -0.000135107)
(-8.00605e-05 -4.99448e-05 -0.000181242)
(-0.0001762 -9.16983e-05 -0.000261189)
(-0.000344717 -0.000165681 -0.000385806)
(-0.000660993 -0.000282762 -0.000597372)
(-0.00106712 -0.000476106 -0.000928545)
(-0.00162185 -0.000716538 -0.00120889)
(4.95357e-05 1.36281e-06 -4.17378e-05)
(1.56766e-05 -7.2454e-06 -7.2776e-05)
(-1.35603e-05 -1.90771e-05 -0.0001204)
(-7.85875e-05 -5.24831e-05 -0.000164726)
(-0.000182974 -0.000103223 -0.00023761)
(-0.000350577 -0.000188517 -0.000358228)
(-0.000641065 -0.000323613 -0.000543637)
(-0.00104193 -0.000579108 -0.000813302)
(-0.00155232 -0.000880808 -0.00104089)
)
;
    }
    procBoundary3to2
    {
        type            processor;
        value           nonuniform List<vector> 
12
(
(-9.42488e-05 -2.22303e-06 1.84608e-05)
(-8.16818e-05 1.77769e-06 3.10781e-05)
(-5.24337e-05 1.66453e-05 7.58585e-05)
(2.60319e-05 3.02563e-05 0.000145707)
(-8.95238e-07 -2.29705e-06 6.06703e-06)
(9.9804e-06 -3.03097e-06 1.8444e-05)
(4.15156e-05 -6.79869e-07 6.14378e-05)
(0.000110532 1.7596e-06 0.000139188)
(4.39566e-05 -1.9439e-06 -1.85211e-06)
(6.02608e-05 -4.22131e-06 6.50406e-06)
(9.87485e-05 -1.0083e-05 3.93466e-05)
(0.000169217 -1.672e-05 0.000102195)
)
;
    }
    procBoundary3to7
    {
        type            processor;
        value           nonuniform List<vector> 
36
(
(4.90914e-05 -5.71266e-06 -5.43297e-05)
(1.54468e-05 -7.4928e-06 -8.53399e-05)
(-3.80008e-05 -1.35958e-05 -0.000124044)
(-9.98676e-05 -2.09529e-05 -0.000160914)
(-0.000228522 -3.24058e-05 -0.000214209)
(-0.000366186 -5.02527e-05 -0.000307828)
(-0.00066115 -7.22259e-05 -0.000438532)
(-0.000951109 -8.56559e-05 -0.000657951)
(-0.00133103 -8.35353e-05 -0.000863175)
(7.70542e-05 -1.07918e-05 -4.99667e-05)
(3.59784e-05 -5.21352e-06 -8.54101e-05)
(2.77348e-06 -2.76371e-06 -0.000128881)
(-7.13578e-05 1.9351e-05 -0.000178877)
(-0.000167178 4.00664e-05 -0.000246248)
(-0.000340528 0.000106748 -0.000381711)
(-0.000627658 0.000177446 -0.000545439)
(-0.00105099 0.000425043 -0.00088164)
(-0.00162026 0.000727818 -0.00121985)
(0.000122759 -2.31785e-05 -3.19535e-05)
(7.80155e-05 -1.46031e-05 -7.84818e-05)
(5.76482e-05 -6.7151e-06 -0.000135253)
(-3.038e-05 3.56376e-05 -0.00020413)
(-9.52511e-05 7.78315e-05 -0.000285361)
(-0.000312094 0.000220328 -0.000482013)
(-0.000572526 0.000374615 -0.000708192)
(-0.00128388 0.000908477 -0.00128039)
(-0.00207505 0.00137651 -0.00178584)
(0.000200331 -4.02789e-05 1.77412e-05)
(0.000138083 -2.88725e-05 -5.45438e-05)
(0.000141238 -2.22957e-05 -0.000119533)
(1.40724e-05 4.05146e-05 -0.000236192)
(2.77433e-05 8.38282e-05 -0.000336167)
(-0.000281787 0.000279355 -0.000590819)
(-0.000345611 0.000455856 -0.000873274)
(-0.00160034 0.00113581 -0.00171957)
(-0.00305255 0.00165177 -0.0023465)
)
;
    }
}


// ************************************************************************* //
