/*--------------------------------*- C++ -*----------------------------------*\
| =========                 |                                                 |
| \\      /  F ield         | OpenFOAM: The Open Source CFD Toolbox           |
|  \\    /   O peration     | Version:  4.x                                   |
|   \\  /    A nd           | Web:      www.OpenFOAM.org                      |
|    \\/     M anipulation  |                                                 |
\*---------------------------------------------------------------------------*/
FoamFile
{
    version     2.0;
    format      ascii;
    class       volScalarField;
    location    "9.5";
    object      particleRelTemp;
}
// * * * * * * * * * * * * * * * * * * * * * * * * * * * * * * * * * * * * * //

dimensions      [0 0 0 0 0 0 0];

internalField   nonuniform List<scalar> 
108
(
1.58321e-08
1.99138e-08
2.82979e-08
3.34707e-08
4.28128e-08
5.45711e-08
7.17289e-08
8.19715e-08
1.0404e-07
-8.84738e-11
6.24724e-09
1.51362e-08
2.02391e-08
2.88274e-08
3.28922e-08
5.689e-08
6.67661e-08
8.33814e-08
-2.7727e-08
-2.43378e-08
-1.24526e-08
-9.26226e-09
2.58853e-09
8.58934e-09
2.76787e-08
3.42326e-08
5.50135e-08
-5.43794e-08
-4.9134e-08
-5.5101e-08
-3.65546e-08
-2.40295e-08
-2.19304e-08
-1.95873e-08
-6.75219e-09
-7.15455e-09
3.36707e-08
4.59101e-08
4.51678e-08
5.5006e-08
6.61855e-08
7.53754e-08
1.0015e-07
1.21805e-07
1.33366e-07
2.04632e-08
2.68057e-08
3.66267e-08
4.23894e-08
4.84374e-08
7.29183e-08
8.51851e-08
1.00254e-07
1.16141e-07
-9.64305e-09
2.70936e-10
7.06395e-09
1.17008e-08
2.22645e-08
3.28625e-08
5.00884e-08
6.4181e-08
7.65259e-08
-3.1028e-08
-3.06966e-08
-2.83642e-08
-1.76713e-08
-5.43202e-09
-5.54621e-09
1.51506e-08
2.29335e-08
3.14213e-08
5.70567e-08
6.05271e-08
6.687e-08
7.14417e-08
8.45763e-08
1.04568e-07
1.23596e-07
1.55103e-07
1.68441e-07
4.30675e-08
4.90075e-08
5.64732e-08
6.5198e-08
7.90746e-08
9.35258e-08
1.13415e-07
1.30044e-07
1.41524e-07
1.47476e-08
1.63452e-08
3.08268e-08
4.00629e-08
5.34848e-08
6.47972e-08
7.27176e-08
9.14305e-08
9.89042e-08
-1.06555e-08
-1.49465e-08
-3.92247e-09
6.07257e-09
1.96214e-08
2.17076e-08
3.57328e-08
5.00781e-08
6.60141e-08
)
;

boundaryField
{
    inlet
    {
        type            calculated;
        value           nonuniform 0();
    }
    outlet
    {
        type            calculated;
        value           nonuniform List<scalar> 
12
(
1.0404e-07
8.33814e-08
5.50135e-08
-7.15455e-09
1.33366e-07
1.16141e-07
7.65259e-08
3.14213e-08
1.68441e-07
1.41524e-07
9.89042e-08
6.60141e-08
)
;
    }
    wall
    {
        type            calculated;
        value           nonuniform List<scalar> 
63
(
1.58321e-08
-8.84738e-11
-2.7727e-08
-5.43794e-08
1.99138e-08
6.24724e-09
-2.43378e-08
-4.9134e-08
2.82979e-08
1.51362e-08
-1.24526e-08
-5.5101e-08
3.34707e-08
2.02391e-08
-9.26226e-09
-3.65546e-08
4.28128e-08
2.88274e-08
2.58853e-09
-2.40295e-08
5.45711e-08
3.28922e-08
8.58934e-09
-2.19304e-08
7.17289e-08
5.689e-08
2.76787e-08
-1.95873e-08
8.19715e-08
6.67661e-08
3.42326e-08
-6.75219e-09
1.0404e-07
8.33814e-08
5.50135e-08
-7.15455e-09
-5.43794e-08
-3.1028e-08
-1.06555e-08
-4.9134e-08
-3.06966e-08
-1.49465e-08
-5.5101e-08
-2.83642e-08
-3.92247e-09
-3.65546e-08
-1.76713e-08
6.07257e-09
-2.40295e-08
-5.43202e-09
1.96214e-08
-2.19304e-08
-5.54621e-09
2.17076e-08
-1.95873e-08
1.51506e-08
3.57328e-08
-6.75219e-09
2.29335e-08
5.00781e-08
-7.15455e-09
3.14213e-08
6.60141e-08
)
;
    }
    procBoundary3to1
    {
        type            processor;
        value           nonuniform List<scalar> 
27
(
1.29308e-08
1.25721e-08
1.92192e-08
2.80763e-08
3.78982e-08
4.53353e-08
7.10701e-08
7.96386e-08
9.75154e-08
3.53429e-08
2.89884e-08
3.54244e-08
4.01847e-08
5.98264e-08
7.37566e-08
8.95501e-08
1.18691e-07
1.43906e-07
4.80219e-08
5.24077e-08
5.20677e-08
6.43059e-08
7.85875e-08
9.84916e-08
1.23932e-07
1.47537e-07
1.67205e-07
)
;
    }
    procBoundary3to2
    {
        type            processor;
        value           nonuniform List<scalar> 
12
(
2.97309e-09
-9.82105e-09
-2.232e-08
-5.66117e-08
2.66939e-08
1.44367e-08
-1.11582e-08
-3.92617e-08
4.9763e-08
3.23368e-08
9.71837e-09
-1.30167e-08
)
;
    }
    procBoundary3to7
    {
        type            processor;
        value           nonuniform List<scalar> 
36
(
6.46298e-08
6.83048e-08
7.24072e-08
8.16995e-08
9.22174e-08
1.14293e-07
1.376e-07
1.63038e-07
1.79521e-07
5.23546e-08
5.93225e-08
6.77967e-08
7.40538e-08
8.71041e-08
9.77492e-08
1.15999e-07
1.38694e-07
1.57471e-07
2.65839e-08
3.11858e-08
3.94018e-08
4.62042e-08
5.83949e-08
6.21591e-08
7.9748e-08
9.96861e-08
1.13425e-07
2.17757e-09
3.15086e-09
9.53318e-09
1.88567e-08
2.5208e-08
3.11384e-08
4.41682e-08
5.33314e-08
6.36651e-08
)
;
    }
}


// ************************************************************************* //
