/*--------------------------------*- C++ -*----------------------------------*\
| =========                 |                                                 |
| \\      /  F ield         | OpenFOAM: The Open Source CFD Toolbox           |
|  \\    /   O peration     | Version:  4.x                                   |
|   \\  /    A nd           | Web:      www.OpenFOAM.org                      |
|    \\/     M anipulation  |                                                 |
\*---------------------------------------------------------------------------*/
FoamFile
{
    version     2.0;
    format      ascii;
    class       volVectorField;
    location    "9.5";
    object      U;
}
// * * * * * * * * * * * * * * * * * * * * * * * * * * * * * * * * * * * * * //

dimensions      [0 1 -1 0 0 0 0];

internalField   nonuniform List<vector> 
108
(
(0.0111445 0.000135751 0.000827906)
(0.0310019 0.000723375 0.000938027)
(0.008089 0.000373437 3.29153e-05)
(0.0317546 0.000772919 -0.000397836)
(0.00861868 0.000615076 -0.000563936)
(0.0346804 0.000379545 -0.000976525)
(0.0110489 0.00189075 -0.00193683)
(0.0425406 -0.000814237 -0.00054319)
(0.0109752 0.00738447 -0.0107943)
(0.0139889 0.00058273 0.00106133)
(0.0324572 0.00045833 0.00127658)
(0.0100731 0.000565296 0.000185441)
(0.0327276 -6.94991e-05 -0.00017406)
(0.00920945 0.000393445 -0.000420062)
(0.0350183 -0.00072014 -0.00121839)
(0.00996408 -0.000862214 -0.00117125)
(0.0408958 -0.0010988 -0.00150336)
(0.0105873 -0.0061925 -0.0115409)
(0.019262 0.00125514 0.00152077)
(0.0344731 0.00199125 0.00177152)
(0.0138116 0.00112724 0.000901443)
(0.0328817 0.00176125 0.000593028)
(0.0100853 0.00129274 0.000689971)
(0.0312559 0.0013667 0.000142115)
(0.00669697 0.00113462 0.00161114)
(0.0252229 -0.000365007 -0.0002103)
(0.00431678 -0.000202588 0.00215342)
(0.0317273 0.00165273 0.00194909)
(0.043258 0.00208065 0.00283243)
(0.0283697 0.00207391 0.00292257)
(0.0418473 0.00200502 0.00314635)
(0.0234679 0.0028614 0.00335092)
(0.0409982 0.00178725 0.00257657)
(0.0189918 0.00483784 0.00521697)
(0.0404383 0.0005477 0.00116946)
(0.01435 0.012014 -0.0240394)
(0.00638791 1.16757e-05 3.27247e-05)
(0.0295625 0.000180651 0.000524672)
(0.00688997 0.000115892 -0.000991999)
(0.0303622 0.000375612 -0.000951959)
(0.00750648 0.000408991 -0.00219439)
(0.0304189 0.000795187 -0.00152088)
(0.00793751 0.00121462 -0.00381585)
(0.029072 0.000586472 -9.37528e-05)
(0.00893529 0.00460618 -0.0154398)
(0.00691769 0.000135413 0.00028371)
(0.0305023 -0.000222363 0.000930542)
(0.00665145 0.000361398 -0.000741945)
(0.0314984 -0.000430975 -0.000727557)
(0.00644332 0.000815965 -0.00181291)
(0.0323004 -0.000496593 -0.00145985)
(0.00663971 0.00194726 -0.0028216)
(0.032534 -0.00151431 -0.000732327)
(0.0100007 0.007802 -0.016773)
(0.0075782 0.000382857 0.000698696)
(0.0307952 0.000841862 0.00172881)
(0.00642507 0.000362835 -9.19126e-05)
(0.0320683 0.000337852 0.000369402)
(0.00561919 0.000785658 -0.000643125)
(0.0339884 -0.000230983 -4.87651e-05)
(0.00558424 0.00231477 5.35008e-05)
(0.0373301 -0.00339373 -2.3781e-05)
(0.00628089 0.0142534 -0.000750468)
(0.023155 0.00110685 0.00223113)
(0.0387347 0.00120531 0.00436142)
(0.0234633 0.00101445 0.00308466)
(0.0409993 0.000408761 0.00513742)
(0.0216696 0.0013799 0.00253644)
(0.0446304 -0.000624047 0.0042951)
(0.018021 0.00334076 0.0026626)
(0.0551478 -0.00268987 0.00281005)
(0.00928344 0.0137765 -0.0258356)
(0.00248644 4.89311e-05 -2.62936e-05)
(0.0273599 0.00025139 0.000108076)
(0.00273522 0.000140966 -0.000364836)
(0.0278809 0.000252757 -0.00101334)
(0.00322177 0.000264208 -0.00101668)
(0.0277203 0.000205533 -0.00139926)
(0.00315177 0.000691642 -0.00158177)
(0.0251381 -9.31146e-05 -0.000253405)
(0.00361716 0.00232215 -0.00382545)
(0.00447726 0.000309337 0.000195877)
(0.0287265 -0.000123568 0.00033233)
(0.00461929 0.000440991 -0.00023107)
(0.0295569 -0.000302191 -0.000733749)
(0.00457916 0.000701392 -0.000757386)
(0.0306343 -0.000486037 -0.00133779)
(0.00488752 0.00175982 -0.00129144)
(0.0314421 -0.00200264 -0.00220282)
(0.00686042 0.00782525 -0.00467288)
(0.00396554 0.000237337 0.000298793)
(0.0287284 0.00047741 0.00093837)
(0.00436335 0.000199289 -0.000183403)
(0.0304745 -0.000208549 -0.000180528)
(0.00551275 0.00057596 -0.000970124)
(0.0339927 -0.00110842 -0.000606521)
(0.00736809 0.00221663 -0.00202941)
(0.0411669 -0.00374152 -0.000864328)
(0.00771325 0.0146038 -0.0115807)
(0.0186944 0.000665245 0.00199364)
(0.0353318 0.00055359 0.00411522)
(0.0208416 0.00023291 0.00321474)
(0.0385099 -0.000692695 0.00530302)
(0.0209066 0.000191661 0.0028983)
(0.0426825 -0.00192685 0.00462676)
(0.0180577 0.00113416 0.00168023)
(0.0533657 -0.00368905 0.00286695)
(0.00911549 0.00742876 -0.00888211)
)
;

boundaryField
{
    inlet
    {
        type            fixedValue;
        value           nonuniform 0();
    }
    outlet
    {
        type            zeroGradient;
    }
    wall
    {
        type            fixedValue;
        value           uniform (0 0 0);
    }
    procBoundary3to1
    {
        type            processor;
        value           nonuniform List<vector> 
27
(
(0.0118429 -0.000717595 0.000866597)
(0.031148 -0.000634664 0.00128052)
(0.00600311 -0.000306098 0.000106154)
(0.0307123 -4.95323e-05 -0.000467807)
(0.0034429 -0.000119628 -0.000230095)
(0.0303301 0.000158734 -0.00204392)
(0.00387709 0.00031061 -0.000372569)
(0.0269239 -0.000723478 -0.00266723)
(0.00762682 0.0046115 -0.000858048)
(0.00602751 -0.000220031 1.28868e-05)
(0.0300949 -8.65639e-07 0.000453233)
(0.00544967 -0.00016686 -0.000996893)
(0.0304616 0.000396647 -0.0014631)
(0.00420727 -0.000252124 -0.0016285)
(0.02962 0.000447292 -0.00201837)
(0.00114962 -0.000157706 -0.000618841)
(0.0252961 0.000801039 -0.00108477)
(0.000444222 -7.15349e-05 -0.000308777)
(0.00221676 -0.000168639 5.88501e-05)
(0.027548 0.00014813 -0.000214395)
(0.00110276 -9.14836e-05 -0.000111269)
(0.027663 0.000543488 -0.00130292)
(-4.56984e-08 7.18737e-10 2.47581e-09)
(0.0266249 0.000310802 -0.00143978)
(-1.94881e-08 -5.86063e-09 1.77122e-08)
(0.023879 0.000708846 -0.001853)
(0.00161397 -0.000396085 -0.00040469)
)
;
    }
    procBoundary3to2
    {
        type            processor;
        value           nonuniform List<vector> 
12
(
(0.0321261 0.000521842 0.00206289)
(0.0335381 0.000890652 0.0019391)
(0.0363793 0.00163665 0.00177444)
(0.0432674 0.00151628 0.00136735)
(0.0283499 0.000178329 0.00201655)
(0.0290044 -6.33674e-06 0.00205056)
(0.0295109 0.00100386 0.00221921)
(0.0362629 0.00137057 0.00197141)
(0.0264914 0.000127802 0.00109247)
(0.0274734 0.000136813 0.00132707)
(0.0274562 0.000832189 0.00180382)
(0.0326771 0.0010368 0.00203956)
)
;
    }
    procBoundary3to7
    {
        type            processor;
        value           nonuniform List<vector> 
36
(
(0.00560161 -1.64844e-05 -0.000380264)
(0.0277696 4.49222e-05 -3.78566e-05)
(0.00565297 8.71942e-05 -0.00133064)
(0.0268626 9.8195e-05 -0.00136807)
(0.00448345 0.000116261 -0.00204667)
(0.0244082 0.000359365 -0.00153467)
(0.00287548 0.000264953 -0.00206804)
(0.0181713 0.000252825 0.00116792)
(0.00360427 0.000716792 -0.00336158)
(0.00559374 0.000397397 -0.00028051)
(0.0294357 0.000112113 -3.99824e-05)
(0.00608925 0.000707046 -0.00103948)
(0.0302298 0.000203236 -0.00103259)
(0.00652828 0.0015015 -0.0021121)
(0.0307889 0.000177437 -0.00134237)
(0.00720421 0.0034702 -0.0041686)
(0.0292695 -0.00137535 -0.000191486)
(0.00716575 0.00734464 -0.00850585)
(0.00608699 2.29011e-05 -0.000172511)
(0.0294862 -2.28698e-05 7.46569e-05)
(0.00695179 -7.49043e-06 -0.00103919)
(0.0310055 -0.000519709 -0.00117573)
(0.00811368 0.000611546 -0.00258921)
(0.0324402 -0.00124698 -0.00138236)
(0.00955586 0.00362487 -0.00578398)
(0.0321445 -0.00318804 0.000206911)
(0.00885657 0.0187762 -0.0185782)
(0.0188648 0.000166812 0.00084919)
(0.0358537 -0.000129964 0.00281411)
(0.0207357 6.08838e-06 0.0014457)
(0.0394633 -0.00115377 0.00368503)
(0.0213547 0.000537971 0.000325557)
(0.044978 -0.00237195 0.00355798)
(0.0192608 0.00333549 -0.00370358)
(0.0560507 -0.0039658 0.0035402)
(0.0111703 0.0160883 -0.0212947)
)
;
    }
}


// ************************************************************************* //
