/*--------------------------------*- C++ -*----------------------------------*\
| =========                 |                                                 |
| \\      /  F ield         | OpenFOAM: The Open Source CFD Toolbox           |
|  \\    /   O peration     | Version:  4.x                                   |
|   \\  /    A nd           | Web:      www.OpenFOAM.org                      |
|    \\/     M anipulation  |                                                 |
\*---------------------------------------------------------------------------*/
FoamFile
{
    version     2.0;
    format      ascii;
    class       volScalarField;
    location    "23";
    object      Cs;
}
// * * * * * * * * * * * * * * * * * * * * * * * * * * * * * * * * * * * * * //

dimensions      [1 -3 0 0 0 0 0];

internalField   nonuniform List<scalar> 
108
(
334.997
334.994
334.99
334.985
334.976
334.964
334.945
334.925
336.191
334.999
334.998
334.996
334.991
334.982
334.967
334.946
334.917
338.524
334.971
334.962
334.954
334.947
334.939
334.932
334.92
334.904
334.914
334.993
334.994
334.994
334.994
334.991
334.989
334.978
334.971
343.783
334.979
334.961
334.936
334.909
334.88
334.868
334.858
334.865
334.86
334.987
334.973
334.952
334.928
334.901
334.883
334.865
334.857
334.695
334.994
334.985
334.968
334.944
334.913
334.89
334.862
334.86
334.734
334.997
334.996
334.993
334.989
334.98
334.971
334.95
334.942
334.41
334.963
334.942
334.92
334.902
334.892
334.889
334.902
334.91
334.977
334.979
334.962
334.941
334.918
334.902
334.889
334.892
334.884
334.908
334.984
334.968
334.946
334.922
334.902
334.886
334.882
334.877
334.875
334.997
334.994
334.99
334.982
334.971
334.956
334.94
334.924
334.65
)
;

boundaryField
{
    inlet
    {
        type            calculated;
        value           nonuniform 0();
    }
    outlet
    {
        type            calculated;
        value           uniform 335;
    }
    wall
    {
        type            calculated;
        value           nonuniform List<scalar> 
63
(
334.997
334.999
334.971
334.993
334.994
334.998
334.962
334.994
334.99
334.996
334.954
334.994
334.985
334.991
334.947
334.994
334.976
334.982
334.939
334.991
334.964
334.967
334.932
334.989
334.945
334.946
334.92
334.978
334.925
334.917
334.904
334.971
336.191
338.524
334.914
343.783
334.993
334.997
334.997
334.994
334.996
334.994
334.994
334.993
334.99
334.994
334.989
334.982
334.991
334.98
334.971
334.989
334.971
334.956
334.978
334.95
334.94
334.971
334.942
334.924
343.783
334.41
334.65
)
;
    }
    procBoundary3to1
    {
        type            processor;
        value           nonuniform List<scalar> 
27
(
334.996
334.993
334.989
334.982
334.971
334.954
334.927
334.898
334.825
334.979
334.963
334.939
334.916
334.892
334.884
334.881
334.887
334.907
334.969
334.954
334.941
334.928
334.923
334.921
334.94
334.941
335.022
)
;
    }
    procBoundary3to2
    {
        type            processor;
        value           nonuniform List<scalar> 
12
(
334.998
334.999
334.98
334.994
334.99
334.994
334.997
334.997
334.981
334.99
334.993
334.998
)
;
    }
    procBoundary3to7
    {
        type            processor;
        value           nonuniform List<scalar> 
36
(
334.981
334.968
334.955
334.94
334.934
334.931
334.944
334.957
335.215
334.987
334.977
334.966
334.953
334.944
334.935
334.942
334.94
335.032
334.99
334.983
334.973
334.96
334.95
334.937
334.937
334.931
334.97
334.998
334.996
334.993
334.989
334.982
334.975
334.964
334.953
334.531
)
;
    }
}


// ************************************************************************* //
