/*--------------------------------*- C++ -*----------------------------------*\
| =========                 |                                                 |
| \\      /  F ield         | OpenFOAM: The Open Source CFD Toolbox           |
|  \\    /   O peration     | Version:  4.x                                   |
|   \\  /    A nd           | Web:      www.OpenFOAM.org                      |
|    \\/     M anipulation  |                                                 |
\*---------------------------------------------------------------------------*/
FoamFile
{
    version     2.0;
    format      ascii;
    class       volScalarField;
    location    "23";
    object      QPartFluidCoeff;
}
// * * * * * * * * * * * * * * * * * * * * * * * * * * * * * * * * * * * * * //

dimensions      [1 -1 -3 -1 0 0 0];

internalField   nonuniform List<scalar> 
108
(
-2.87324e+07
-1.29328e+07
-2.28367e+07
-1.09473e+07
-1.7026e+07
-1.28297e+07
-1.89665e+07
-1.68644e+07
-1.10882e+07
-2.14092e+07
-2.98957e+07
-1.70705e+07
-1.8852e+07
-2.1312e+07
-1.72221e+07
-2.07876e+07
-1.92565e+07
-1.32015e+07
-2.22459e+07
-2.26618e+07
-2.38116e+07
-1.64352e+07
-1.96524e+07
-1.73761e+07
-2.21836e+07
-2.19354e+07
-1.26852e+07
-1.45426e+07
-1.31956e+07
-1.68103e+07
-2.21837e+07
-1.83648e+07
-1.82986e+07
-1.2183e+07
-1.7357e+07
-1.68195e+07
-2.86693e+07
-2.66055e+07
-3.42272e+07
-3.50866e+07
-2.82084e+07
-2.63502e+07
-2.28173e+07
-2.83693e+07
-2.67656e+07
-2.61254e+07
-2.70815e+07
-2.84787e+07
-3.04038e+07
-2.62407e+07
-2.73208e+07
-3.267e+07
-3.11866e+07
-2.07919e+07
-4.25433e+07
-3.27616e+07
-2.99415e+07
-3.73909e+07
-2.77519e+07
-3.28213e+07
-2.60969e+07
-3.13004e+07
-2.50641e+07
-2.81916e+07
-2.38194e+07
-2.34982e+07
-2.78516e+07
-3.07066e+07
-2.557e+07
-2.443e+07
-2.90493e+07
-2.01161e+07
-2.68995e+07
-3.57068e+07
-2.97382e+07
-3.34513e+07
-2.13238e+07
-2.53589e+07
-2.95085e+07
-2.75962e+07
-2.24891e+07
-3.20301e+07
-2.04589e+07
-2.7042e+07
-1.66122e+07
-1.44588e+07
-3.12982e+07
-2.56703e+07
-3.63985e+07
-1.8062e+07
-2.01202e+07
-3.40609e+07
-3.04225e+07
-2.38902e+07
-2.4129e+07
-3.26515e+07
-2.64276e+07
-3.05523e+07
-1.51717e+07
-2.93651e+07
-1.61542e+07
-1.94076e+07
-2.32224e+07
-2.152e+07
-2.8403e+07
-2.13471e+07
-3.14982e+07
-2.45822e+07
)
;

boundaryField
{
    inlet
    {
        type            calculated;
        value           nonuniform 0();
    }
    outlet
    {
        type            calculated;
        value           uniform 0;
    }
    wall
    {
        type            calculated;
        value           uniform 0;
    }
    procBoundary3to1
    {
        type            processor;
        value           nonuniform List<scalar> 
27
(
301.174
531.473
480.033
672.001
471.171
422.033
402.588
412.482
284.526
692.932
642.622
546.894
514.724
434.397
692.943
692.437
974.382
315.789
608.734
578.761
403.274
813.117
644.075
773.649
539.533
695.543
245.407
)
;
    }
    procBoundary3to2
    {
        type            processor;
        value           nonuniform List<scalar> 
12
(
229.659
340.882
491.826
299.617
846.479
487.515
581.24
362.576
691.53
434.344
771.461
581.801
)
;
    }
    procBoundary3to7
    {
        type            processor;
        value           nonuniform List<scalar> 
36
(
753.403
678.738
477.706
589.128
822.223
923.44
597.354
496.258
455.612
589.669
863.458
569.632
614.486
636.237
527.388
580.392
582.142
497.746
399.33
705.255
520.865
670.705
624.714
779.599
651.912
671.629
557.184
536.572
567.538
683.439
453.192
611
619.267
625.841
561.149
296.99
)
;
    }
}


// ************************************************************************* //
