/*--------------------------------*- C++ -*----------------------------------*\
| =========                 |                                                 |
| \\      /  F ield         | OpenFOAM: The Open Source CFD Toolbox           |
|  \\    /   O peration     | Version:  4.x                                   |
|   \\  /    A nd           | Web:      www.OpenFOAM.org                      |
|    \\/     M anipulation  |                                                 |
\*---------------------------------------------------------------------------*/
FoamFile
{
    version     2.0;
    format      ascii;
    class       volScalarField;
    location    "23";
    object      QWallFluidCoeff;
}
// * * * * * * * * * * * * * * * * * * * * * * * * * * * * * * * * * * * * * //

dimensions      [1 -1 -3 -1 0 0 0];

internalField   nonuniform List<scalar> 
108
(
-2.30762e+06
-3.40959e+06
-2.37221e+06
-3.53925e+06
-2.31878e+06
-3.66777e+06
-2.01781e+06
-3.96442e+06
-1.71442e+06
-2.08256e+06
-3.23709e+06
-2.11847e+06
-3.35779e+06
-2.06578e+06
-3.41183e+06
-1.76281e+06
-3.35893e+06
-1.13159e+06
-2.26194e+06
-3.34726e+06
-2.29354e+06
-3.43118e+06
-2.17061e+06
-3.38406e+06
-1.76942e+06
-3.02143e+06
-1.29628e+06
-5.43522e+06
-7.37236e+06
-5.57281e+06
-7.63642e+06
-5.52242e+06
-8.12907e+06
-5.19749e+06
-9.08146e+06
-5.06596e+06
0
0
0
0
0
0
0
0
0
0
0
0
0
0
0
0
0
0
0
0
0
0
0
0
0
0
0
-2.09032e+06
-3.28672e+06
-2.12807e+06
-3.45961e+06
-2.09314e+06
-3.82541e+06
-2.00933e+06
-4.70701e+06
-2.9764e+06
0
0
0
0
0
0
0
0
0
0
0
0
0
0
0
0
0
0
0
0
0
0
0
0
0
0
0
-1.6591e+06
-2.95184e+06
-1.62365e+06
-3.00754e+06
-1.49982e+06
-3.10926e+06
-1.31312e+06
-3.40111e+06
-671255
)
;

boundaryField
{
    inlet
    {
        type            calculated;
        value           nonuniform 0();
    }
    outlet
    {
        type            calculated;
        value           uniform 0;
    }
    wall
    {
        type            calculated;
        value           uniform 0;
    }
    procBoundary3to1
    {
        type            processor;
        value           uniform 0;
    }
    procBoundary3to2
    {
        type            processor;
        value           uniform 0;
    }
    procBoundary3to7
    {
        type            processor;
        value           uniform 0;
    }
}


// ************************************************************************* //
