/*--------------------------------*- C++ -*----------------------------------*\
| =========                 |                                                 |
| \\      /  F ield         | OpenFOAM: The Open Source CFD Toolbox           |
|  \\    /   O peration     | Version:  4.x                                   |
|   \\  /    A nd           | Web:      www.OpenFOAM.org                      |
|    \\/     M anipulation  |                                                 |
\*---------------------------------------------------------------------------*/
FoamFile
{
    version     2.0;
    format      ascii;
    class       volScalarField;
    location    "23";
    object      SPartFluid;
}
// * * * * * * * * * * * * * * * * * * * * * * * * * * * * * * * * * * * * * //

dimensions      [1 -3 -1 0 0 0 0];

internalField   nonuniform List<scalar> 
108
(
6.97498e-65
3.25499e-65
5.73498e-65
2.55749e-65
4.10748e-65
3.02249e-65
4.72747e-65
4.26248e-65
4.18497e-65
5.19249e-65
7.43998e-65
4.10749e-65
4.64998e-65
5.42498e-65
3.87499e-65
5.50247e-65
5.11497e-65
5.26996e-65
5.5025e-65
5.5025e-65
6.19999e-65
3.72e-65
4.8825e-65
3.71999e-65
5.73499e-65
5.26999e-65
4.02998e-65
4.65002e-65
3.56502e-65
4.10752e-65
5.89002e-65
4.80501e-65
4.65002e-65
3.17751e-65
5.34752e-65
4.41751e-65
7.51745e-65
6.27744e-65
9.06742e-65
8.52492e-65
7.59491e-65
6.27743e-65
6.04492e-65
6.58741e-65
8.91237e-65
6.66496e-65
6.19995e-65
7.51744e-65
7.28493e-65
6.81994e-65
6.27743e-65
8.60241e-65
7.05242e-65
6.97491e-65
1.0385e-64
7.51747e-65
7.43996e-65
8.44746e-65
6.81996e-65
7.36245e-65
6.58745e-65
7.20745e-65
7.90493e-65
7.75e-65
5.6575e-65
6.355e-65
6.51e-65
8.05998e-65
5.65749e-65
6.74248e-65
6.81999e-65
5.65749e-65
7.67242e-65
9.06739e-65
8.75738e-65
8.52488e-65
6.12241e-65
6.2774e-65
8.52486e-65
7.12988e-65
7.43987e-65
9.06742e-65
5.03744e-65
7.7499e-65
4.33994e-65
4.64993e-65
7.90489e-65
7.28489e-65
8.83486e-65
6.1224e-65
5.11497e-65
8.13744e-65
8.21492e-65
5.81244e-65
6.81992e-65
7.98241e-65
6.66493e-65
7.20741e-65
5.42494e-65
8.52498e-65
4.02999e-65
5.42498e-65
6.12247e-65
5.57997e-65
7.12996e-65
6.19996e-65
7.90496e-65
8.52493e-65
)
;

boundaryField
{
    inlet
    {
        type            calculated;
        value           nonuniform 0();
    }
    outlet
    {
        type            calculated;
        value           uniform 0;
    }
    wall
    {
        type            calculated;
        value           uniform 0;
    }
    procBoundary3to1
    {
        type            processor;
        value           nonuniform List<scalar> 
27
(
3.48749e-65
5.50249e-65
5.81248e-65
7.12997e-65
5.50247e-65
4.33998e-65
4.95997e-65
4.57247e-65
4.49496e-65
8.13745e-65
6.58746e-65
6.19995e-65
5.26995e-65
5.26995e-65
7.36242e-65
8.05991e-65
1.03074e-64
4.88243e-65
7.90493e-65
6.35493e-65
5.11494e-65
9.06738e-65
8.29238e-65
8.75737e-65
6.81989e-65
7.90487e-65
3.48744e-65
)
;
    }
    procBoundary3to2
    {
        type            processor;
        value           nonuniform List<scalar> 
12
(
2.635e-65
3.9525e-65
5.27001e-65
3.10002e-65
9.22246e-65
5.19249e-65
5.96749e-65
4.26251e-65
8.13744e-65
4.88247e-65
8.36996e-65
6.665e-65
)
;
    }
    procBoundary3to7
    {
        type            processor;
        value           nonuniform List<scalar> 
36
(
9.91987e-65
7.82739e-65
6.4324e-65
6.74239e-65
1.03073e-64
1.03848e-64
7.98235e-65
5.65739e-65
8.36983e-65
7.67241e-65
9.45487e-65
7.28489e-65
6.89739e-65
8.29236e-65
5.6574e-65
7.51737e-65
6.35489e-65
8.05985e-65
4.80496e-65
7.43993e-65
6.12243e-65
7.12991e-65
7.4399e-65
8.0599e-65
7.5174e-65
7.2074e-65
8.60238e-65
6.50997e-65
6.58747e-65
8.67994e-65
5.50246e-65
7.28494e-65
6.74245e-65
7.90493e-65
5.88996e-65
4.33997e-65
)
;
    }
}


// ************************************************************************* //
