/*--------------------------------*- C++ -*----------------------------------*\
| =========                 |                                                 |
| \\      /  F ield         | OpenFOAM: The Open Source CFD Toolbox           |
|  \\    /   O peration     | Version:  4.x                                   |
|   \\  /    A nd           | Web:      www.OpenFOAM.org                      |
|    \\/     M anipulation  |                                                 |
\*---------------------------------------------------------------------------*/
FoamFile
{
    version     2.0;
    format      ascii;
    class       volScalarField;
    location    "9";
    object      nu;
}
// * * * * * * * * * * * * * * * * * * * * * * * * * * * * * * * * * * * * * //

dimensions      [0 2 -1 0 0 0 0];

internalField   nonuniform List<scalar> 
87
(
1.00128e-06
1.00141e-06
1.00144e-06
1.00135e-06
1.00116e-06
1.00095e-06
1.00067e-06
1.00053e-06
9.77953e-07
1.00129e-06
1.00119e-06
1.00093e-06
1.00055e-06
1.00018e-06
9.99888e-07
9.9969e-07
9.99628e-07
9.99144e-07
1.00107e-06
1.00075e-06
1.00034e-06
9.99971e-07
9.99691e-07
9.99513e-07
9.99456e-07
9.99476e-07
9.99201e-07
1.00111e-06
1.0012e-06
1.0012e-06
1.00113e-06
1.00095e-06
1.0008e-06
1.0005e-06
1.00036e-06
9.94574e-07
1.00074e-06
1.00051e-06
1.0002e-06
9.99924e-07
9.99691e-07
9.99525e-07
9.99423e-07
9.99472e-07
9.98878e-07
1.00046e-06
1.00017e-06
9.99899e-07
9.99662e-07
9.99486e-07
9.99376e-07
9.99334e-07
9.99366e-07
9.99181e-07
1.00084e-06
1.00092e-06
1.00092e-06
1.00088e-06
1.00074e-06
1.00062e-06
1.00038e-06
1.00026e-06
9.96997e-07
1.00036e-06
1.00016e-06
9.99945e-07
9.9977e-07
9.99605e-07
9.99543e-07
9.99447e-07
9.99501e-07
9.98915e-07
1.0002e-06
9.99996e-07
9.99789e-07
9.99609e-07
9.99466e-07
9.99388e-07
9.99362e-07
9.99392e-07
9.99139e-07
1.00053e-06
1.00061e-06
1.00063e-06
1.00018e-06
1.00004e-06
1.0001e-06
)
;

boundaryField
{
    inlet
    {
        type            calculated;
        value           nonuniform 0();
    }
    outlet
    {
        type            calculated;
        value           uniform 1e-06;
    }
    wall
    {
        type            calculated;
        value           nonuniform List<scalar> 
57
(
1.00128e-06
1.00129e-06
1.00107e-06
1.00141e-06
1.00119e-06
1.00075e-06
1.00144e-06
1.00093e-06
1.00034e-06
1.00135e-06
1.00055e-06
9.99971e-07
1.00116e-06
1.00018e-06
9.99691e-07
1.00095e-06
9.99888e-07
9.99513e-07
1.00067e-06
9.9969e-07
9.99456e-07
1.00053e-06
9.99628e-07
9.99476e-07
9.77953e-07
9.99144e-07
9.99201e-07
1.00128e-06
1.00111e-06
1.00084e-06
1.00053e-06
1.00141e-06
1.0012e-06
1.00092e-06
1.00061e-06
1.00144e-06
1.0012e-06
1.00092e-06
1.00063e-06
1.00135e-06
1.00113e-06
1.00088e-06
1.00116e-06
1.00095e-06
1.00074e-06
1.00095e-06
1.0008e-06
1.00062e-06
1.00067e-06
1.0005e-06
1.00038e-06
1.00053e-06
1.00036e-06
1.00026e-06
9.77953e-07
9.94574e-07
9.96997e-07
)
;
    }
    procBoundary1to0
    {
        type            processor;
        value           nonuniform List<scalar> 
12
(
1.00107e-06
1.0012e-06
1.0012e-06
1.00097e-06
1.00087e-06
1.0007e-06
1.00074e-06
1.0005e-06
1.00038e-06
1.00045e-06
1.00028e-06
1.00022e-06
)
;
    }
    procBoundary1to3
    {
        type            processor;
        value           nonuniform List<scalar> 
27
(
1.00096e-06
1.00063e-06
1.00025e-06
9.99927e-07
9.99686e-07
9.99531e-07
9.99447e-07
9.99419e-07
9.96071e-07
1.0005e-06
1.00024e-06
9.99989e-07
9.99757e-07
9.99577e-07
9.99446e-07
9.9938e-07
9.99359e-07
9.9899e-07
1.00028e-06
1.00012e-06
9.99962e-07
9.99803e-07
9.99661e-07
9.99539e-07
9.99474e-07
9.9945e-07
9.99466e-07
)
;
    }
    procBoundary1to5
    {
        type            processor;
        value           nonuniform List<scalar> 
32
(
1.00062e-06
1.00054e-06
1.00048e-06
1.0003e-06
1.00022e-06
9.98966e-07
9.99891e-07
9.99781e-07
9.99644e-07
9.99618e-07
9.99533e-07
9.99592e-07
9.99326e-07
9.99959e-07
9.99808e-07
9.99665e-07
9.99548e-07
9.99468e-07
9.99446e-07
9.99468e-07
9.99408e-07
1.00033e-06
1.00037e-06
1.00062e-06
9.99891e-07
1.00036e-06
9.99986e-07
9.99891e-07
9.99959e-07
9.9984e-07
9.99959e-07
1.00001e-06
)
;
    }
    procBoundary1to7
    {
        type            processor;
        value           uniform 1.00019e-06;
    }
}


// ************************************************************************* //
