/*--------------------------------*- C++ -*----------------------------------*\
| =========                 |                                                 |
| \\      /  F ield         | OpenFOAM: The Open Source CFD Toolbox           |
|  \\    /   O peration     | Version:  4.x                                   |
|   \\  /    A nd           | Web:      www.OpenFOAM.org                      |
|    \\/     M anipulation  |                                                 |
\*---------------------------------------------------------------------------*/
FoamFile
{
    version     2.0;
    format      ascii;
    class       volScalarField;
    location    "9";
    object      QWallFluidCoeff;
}
// * * * * * * * * * * * * * * * * * * * * * * * * * * * * * * * * * * * * * //

dimensions      [1 -1 -3 -1 0 0 0];

internalField   nonuniform List<scalar> 
87
(
-5.82363e+06
-7.41492e+06
-5.2561e+06
-7.187e+06
-4.63334e+06
-7.212e+06
-4.16781e+06
-7.62625e+06
-4.87486e+06
-2.03451e+06
-3.14699e+06
-1.60256e+06
-3.02177e+06
-1.36871e+06
-2.96032e+06
-1.28283e+06
-2.76088e+06
-1.56769e+06
-1.20944e+06
-2.84409e+06
-700818
-2.81152e+06
-484134
-2.80993e+06
-570440
-2.56534e+06
-1.07684e+06
-2.24921e+06
-3.39374e+06
-2.28072e+06
-3.51358e+06
-2.1529e+06
-3.72454e+06
-1.94216e+06
-4.40207e+06
-2.8894e+06
0
0
0
0
0
0
0
0
0
0
0
0
0
0
0
0
0
0
-1.92016e+06
-3.14504e+06
-2.05433e+06
-3.30998e+06
-2.04802e+06
-3.56296e+06
-1.86958e+06
-4.34466e+06
-2.26193e+06
0
0
0
0
0
0
0
0
0
0
0
0
0
0
0
0
0
0
-1.95282e+06
-3.17182e+06
-2.10201e+06
0
0
0
)
;

boundaryField
{
    inlet
    {
        type            calculated;
        value           nonuniform 0();
    }
    outlet
    {
        type            calculated;
        value           uniform 0;
    }
    wall
    {
        type            calculated;
        value           uniform 0;
    }
    procBoundary1to0
    {
        type            processor;
        value           uniform 0;
    }
    procBoundary1to3
    {
        type            processor;
        value           uniform 0;
    }
    procBoundary1to5
    {
        type            processor;
        value           uniform 0;
    }
    procBoundary1to7
    {
        type            processor;
        value           uniform 0;
    }
}


// ************************************************************************* //
