/*--------------------------------*- C++ -*----------------------------------*\
| =========                 |                                                 |
| \\      /  F ield         | OpenFOAM: The Open Source CFD Toolbox           |
|  \\    /   O peration     | Version:  4.x                                   |
|   \\  /    A nd           | Web:      www.OpenFOAM.org                      |
|    \\/     M anipulation  |                                                 |
\*---------------------------------------------------------------------------*/
FoamFile
{
    version     2.0;
    format      ascii;
    class       volScalarField;
    location    "9";
    object      Sm;
}
// * * * * * * * * * * * * * * * * * * * * * * * * * * * * * * * * * * * * * //

dimensions      [1 -3 -1 0 0 0 0];

internalField   nonuniform List<scalar> 
87
(
3.71974e-65
5.88965e-65
3.79726e-65
5.1147e-65
3.25481e-65
4.88214e-65
4.41709e-65
5.03695e-65
4.80443e-65
3.64214e-65
3.25472e-65
4.64954e-65
4.18458e-65
3.71956e-65
5.03694e-65
6.58657e-65
4.57177e-65
3.95185e-65
3.48708e-65
5.50186e-65
5.50179e-65
7.43901e-65
5.50168e-65
4.3394e-65
4.95911e-65
4.57165e-65
4.49408e-65
6.43191e-65
5.657e-65
5.34702e-65
6.19946e-65
5.81192e-65
6.58676e-65
8.36892e-65
7.28394e-65
6.35398e-65
7.51664e-65
5.03687e-65
6.43172e-65
6.97411e-65
6.97406e-65
5.65662e-65
7.51625e-65
7.59344e-65
5.50117e-65
8.13628e-65
6.58656e-65
6.19909e-65
5.26919e-65
5.26911e-65
7.3611e-65
8.05836e-65
1.03051e-64
4.8812e-65
7.05175e-65
5.8119e-65
7.67167e-65
7.90413e-65
5.81181e-65
8.44633e-65
7.05143e-65
5.73409e-65
4.18418e-65
7.67141e-65
7.05154e-65
5.65674e-65
6.12163e-65
6.97388e-65
6.97381e-65
6.58615e-65
7.20587e-65
4.41631e-65
7.9037e-65
6.35395e-65
5.11415e-65
9.06594e-65
8.29094e-65
8.75567e-65
6.81836e-65
7.90292e-65
3.48647e-65
6.58674e-65
5.26945e-65
8.05911e-65
7.05148e-65
9.99605e-65
5.73401e-65
)
;

boundaryField
{
    inlet
    {
        type            calculated;
        value           nonuniform 0();
    }
    outlet
    {
        type            calculated;
        value           uniform 0;
    }
    wall
    {
        type            calculated;
        value           uniform 0;
    }
    procBoundary1to0
    {
        type            processor;
        value           nonuniform List<scalar> 
12
(
1.70485e-65
4.26206e-65
7.20671e-65
6.19945e-65
6.74166e-65
4.95932e-65
4.727e-65
6.27665e-65
4.57177e-65
4.95946e-65
5.50168e-65
8.05863e-65
)
;
    }
    procBoundary1to3
    {
        type            processor;
        value           nonuniform List<scalar> 
27
(
6.97408e-65
3.25458e-65
5.8117e-65
2.55719e-65
4.10689e-65
3.02207e-65
4.72666e-65
3.87432e-65
4.57159e-65
7.51636e-65
6.27647e-65
8.98858e-65
8.52362e-65
7.59364e-65
6.27634e-65
6.04367e-65
6.43093e-65
9.06519e-65
7.67117e-65
8.98844e-65
8.83343e-65
8.52347e-65
6.12129e-65
6.27615e-65
8.52297e-65
6.81814e-65
7.74776e-65
)
;
    }
    procBoundary1to5
    {
        type            processor;
        value           nonuniform List<scalar> 
32
(
6.81924e-65
8.05902e-65
6.35418e-65
6.74148e-65
7.5938e-65
8.44596e-65
6.81899e-65
5.65667e-65
5.81157e-65
6.66381e-65
8.21332e-65
8.52313e-65
7.90306e-65
8.44604e-65
6.04397e-65
7.43866e-65
5.8114e-65
4.57156e-65
6.97338e-65
5.73352e-65
8.67747e-65
6.27681e-65
4.88203e-65
6.81924e-65
6.81899e-65
6.97422e-65
7.12903e-65
6.81899e-65
8.44604e-65
6.8191e-65
8.44604e-65
8.21369e-65
)
;
    }
    procBoundary1to7
    {
        type            processor;
        value           uniform 9.91821e-65;
    }
}


// ************************************************************************* //
