/*--------------------------------*- C++ -*----------------------------------*\
| =========                 |                                                 |
| \\      /  F ield         | OpenFOAM: The Open Source CFD Toolbox           |
|  \\    /   O peration     | Version:  4.x                                   |
|   \\  /    A nd           | Web:      www.OpenFOAM.org                      |
|    \\/     M anipulation  |                                                 |
\*---------------------------------------------------------------------------*/
FoamFile
{
    version     2.0;
    format      ascii;
    class       volVectorField;
    location    "9";
    object      U;
}
// * * * * * * * * * * * * * * * * * * * * * * * * * * * * * * * * * * * * * //

dimensions      [0 1 -1 0 0 0 0];

internalField   nonuniform List<vector> 
87
(
(0.0309379 -0.00163992 0.00255736)
(0.042308 -0.00215643 0.00345776)
(0.0273696 -0.00240296 0.00313319)
(0.0409591 -0.0022821 0.00331178)
(0.0233322 -0.00317258 0.00305876)
(0.0415937 -0.00178925 0.00229599)
(0.0201524 -0.00491023 0.00387978)
(0.0448669 -3.64602e-05 0.00103413)
(0.0146958 -0.0126604 -0.0157012)
(0.0198344 -0.00177956 0.00148144)
(0.0343909 -0.00298778 0.00177368)
(0.0148335 -0.00194221 0.000714099)
(0.0330783 -0.0029316 0.000293442)
(0.0121355 -0.00227947 4.0607e-05)
(0.0325528 -0.00221645 -0.000600724)
(0.0109629 -0.00367798 0.00015992)
(0.0299545 0.000508461 -0.000522376)
(0.0110084 -0.00967952 1.45091e-05)
(0.0104794 -0.000644446 0.000675255)
(0.0308029 -0.000562268 0.000949581)
(0.00537297 -0.000273906 -7.22429e-06)
(0.0306999 -3.13767e-05 -0.000654049)
(0.0033809 -0.000132483 -0.000265574)
(0.03049 0.000180528 -0.00209009)
(0.00415552 0.000282415 -0.000426954)
(0.0272554 -0.000798834 -0.00249852)
(0.00790886 0.00462628 -0.000896484)
(0.0228953 -0.00109317 0.00290501)
(0.0383439 -0.00115783 0.00515186)
(0.023326 -0.00122208 0.00366216)
(0.04048 -0.000554292 0.00553747)
(0.0219116 -0.00188377 0.00305029)
(0.0442023 0.000516479 0.00447116)
(0.019137 -0.00453715 0.0026081)
(0.0547527 0.00251441 0.00293927)
(0.0122862 -0.0200131 -0.0216751)
(0.00946134 -0.000601644 0.000610385)
(0.0310029 -0.00118785 0.0013462)
(0.0092686 -0.000559027 -0.000419169)
(0.0319359 -0.000848175 -0.000484584)
(0.00879479 -0.00129809 -0.00147142)
(0.032146 -0.000709596 -0.000896975)
(0.00855251 -0.00395502 -0.00169922)
(0.0304032 0.00190446 5.87304e-05)
(0.00985742 -0.0213111 -0.00452565)
(0.00597365 -0.000191609 -0.000103753)
(0.0300721 4.43884e-05 -1.67822e-06)
(0.00541236 -0.000164894 -0.00113996)
(0.0304333 0.000420616 -0.00182461)
(0.0042399 -0.000268468 -0.00170385)
(0.0296153 0.00045052 -0.00212067)
(0.00122963 -0.00018796 -0.000657601)
(0.0254473 0.000730239 -0.000917345)
(0.000830018 -0.000154284 -0.000578398)
(0.0191439 -0.000577361 0.00276)
(0.0355653 -0.000386576 0.00501196)
(0.020901 -0.000371474 0.00404801)
(0.0384082 0.000547222 0.00581113)
(0.0209199 -0.00090525 0.00395278)
(0.0426655 0.00189378 0.00487985)
(0.0186579 -0.00334861 0.00287252)
(0.0544467 0.00358549 0.00221854)
(0.0119523 -0.0178185 -0.0103658)
(0.00532647 -0.00035667 0.00023658)
(0.0288904 -0.000582565 0.00020847)
(0.00567261 -0.00046688 -0.000215142)
(0.0298961 -9.2923e-05 -0.000885667)
(0.00574893 -0.00102975 -0.000750492)
(0.0304373 0.000777745 -0.00111696)
(0.00732908 -0.00371735 -0.00121823)
(0.0297544 0.00309007 -0.00129457)
(0.0104517 -0.0225439 -0.00508362)
(0.00275406 -0.000189146 9.67719e-06)
(0.0277077 0.000193279 -0.000470586)
(0.0014285 -0.000116236 -0.000179439)
(0.0277777 0.000581574 -0.00145531)
(-8.53658e-08 2.09269e-09 -4.5688e-09)
(0.0267799 0.000267715 -0.00144442)
(-4.21146e-08 -1.03344e-09 1.68416e-08)
(0.0242765 0.000603377 -0.00186773)
(0.00206503 -0.000570672 -0.000508459)
(0.0198983 -0.000349581 0.00213279)
(0.0365721 -7.98224e-05 0.00407654)
(0.0220584 6.47451e-05 0.00295479)
(0.00714101 -8.44098e-05 -4.48682e-05)
(0.0299656 2.89782e-05 -0.0001789)
(0.0051189 -0.000353028 -0.000246378)
)
;

boundaryField
{
    inlet
    {
        type            fixedValue;
        value           nonuniform 0();
    }
    outlet
    {
        type            zeroGradient;
    }
    wall
    {
        type            fixedValue;
        value           uniform (0 0 0);
    }
    procBoundary1to0
    {
        type            processor;
        value           nonuniform List<vector> 
12
(
(0.0428138 -0.00170229 0.00194445)
(0.0366526 -0.0026318 0.00185116)
(0.032516 -0.00120941 0.0020082)
(0.0359511 -0.00137425 0.00279486)
(0.029995 -0.00151277 0.00205448)
(0.0291337 -0.000316816 0.0019473)
(0.0328764 -0.00101045 0.00271334)
(0.0277846 -0.000950457 0.00133642)
(0.0270469 -0.00019613 0.00105211)
(0.0334994 -0.000745757 0.00208125)
(0.0285513 -0.000448245 0.000865502)
(0.0281168 -7.12518e-05 0.000792275)
)
;
    }
    procBoundary1to3
    {
        type            processor;
        value           nonuniform List<vector> 
27
(
(0.00968458 0.000125463 0.000639467)
(0.0307052 0.000728101 0.000639576)
(0.00734151 0.000345734 -9.13262e-05)
(0.0317088 0.000760482 -0.000578936)
(0.00825827 0.00059072 -0.000640186)
(0.0346969 0.000244332 -0.00105326)
(0.0109337 0.00183454 -0.00201621)
(0.0425734 -0.00105519 -0.000476545)
(0.0108948 0.00729708 -0.0103687)
(0.00649909 1.18441e-05 -8.01172e-05)
(0.0295913 0.000182004 0.000154677)
(0.00691197 0.000111564 -0.00114861)
(0.0303111 0.000346752 -0.00120325)
(0.00750224 0.000381459 -0.00232087)
(0.0303246 0.000744681 -0.00165863)
(0.00796894 0.0011414 -0.00390898)
(0.0288421 0.000490037 -4.13391e-05)
(0.0088798 0.00426092 -0.0149581)
(0.00284375 5.37928e-05 -8.06358e-05)
(0.0274434 0.000259868 -5.23002e-05)
(0.00289447 0.000145009 -0.000435184)
(0.0278537 0.000314225 -0.00113059)
(0.00329987 0.000263595 -0.00108176)
(0.0276461 0.000198214 -0.0014578)
(0.00303165 0.000646137 -0.00151861)
(0.0248578 -0.000227914 -0.000121902)
(0.00338446 0.00210068 -0.0034743)
)
;
    }
    procBoundary1to5
    {
        type            processor;
        value           nonuniform List<vector> 
32
(
(0.0402223 0.00113604 0.00458802)
(0.0224457 -0.000689857 0.00193702)
(0.0455686 0.00257136 0.00350632)
(0.0199055 -0.00381718 -0.00186213)
(0.0570373 0.00465819 0.0017855)
(0.0110499 -0.0177696 -0.0182163)
(0.00715328 -0.000100811 -0.00088784)
(0.0310335 0.000620403 -0.00129937)
(0.00745705 -0.000825791 -0.00189864)
(0.0318718 0.00134496 -0.00176055)
(0.00841742 -0.00381067 -0.00353565)
(0.030684 0.00370578 -0.00131755)
(0.00886977 -0.0208997 -0.00950343)
(0.0290768 0.000150306 -0.000109543)
(0.00467985 -0.000599985 -0.000869604)
(0.0296709 0.000100917 -0.001356)
(0.00442008 -0.00111433 -0.00151143)
(0.0298664 9.11546e-05 -0.00203367)
(0.00431152 -0.00211172 -0.00209326)
(0.0275672 0.00154766 -0.000513712)
(0.0053511 -0.00447249 -0.00324626)
(0.0161631 -0.000348667 0.00106575)
(0.0330925 0.000206172 0.00260598)
(0.0402223 0.00113604 0.00458802)
(0.00715328 -0.000100811 -0.00088784)
(0.0169407 -0.000201162 0.00158947)
(0.00100882 -8.22019e-05 -5.40783e-05)
(0.00715328 -0.000100811 -0.00088784)
(0.0290768 0.000150306 -0.000109543)
(0.0269306 0.000434819 -0.000616606)
(0.0290768 0.000150306 -0.000109543)
(0.000891143 -0.000129735 -5.55899e-05)
)
;
    }
    procBoundary1to7
    {
        type            processor;
        value           uniform (0.0057139 -8.06818e-06 -0.00042192);
    }
}


// ************************************************************************* //
