/*--------------------------------*- C++ -*----------------------------------*\
| =========                 |                                                 |
| \\      /  F ield         | OpenFOAM: The Open Source CFD Toolbox           |
|  \\    /   O peration     | Version:  4.x                                   |
|   \\  /    A nd           | Web:      www.OpenFOAM.org                      |
|    \\/     M anipulation  |                                                 |
\*---------------------------------------------------------------------------*/
FoamFile
{
    version     2.0;
    format      ascii;
    class       volVectorField;
    location    "9";
    object      Us;
}
// * * * * * * * * * * * * * * * * * * * * * * * * * * * * * * * * * * * * * //

dimensions      [0 1 -1 0 0 0 0];

internalField   nonuniform List<vector> 
87
(
(-2.62636e-09 2.87174e-08 9.13862e-08)
(2.90231e-07 1.8695e-06 1.8317e-07)
(-3.27923e-08 2.02324e-08 7.31045e-08)
(-2.16569e-08 8.62934e-09 2.01391e-08)
(-6.97007e-10 1.30317e-08 8.54487e-09)
(-4.30891e-09 5.15387e-08 7.88256e-09)
(-2.95241e-08 2.54149e-08 3.55281e-08)
(-4.60941e-06 -1.96691e-07 3.18986e-07)
(-2.47917e-06 6.63637e-09 3.96344e-07)
(-1.75833e-08 -5.03341e-09 7.77569e-08)
(-2.54187e-08 -1.09659e-08 1.04729e-07)
(-3.4484e-08 1.271e-08 6.70505e-08)
(-5.47153e-08 1.67915e-08 1.95099e-08)
(-5.55174e-08 2.68665e-08 -1.49414e-08)
(-5.2408e-08 -3.95089e-09 -9.15827e-10)
(-3.54616e-08 -2.93012e-08 2.86582e-08)
(-2.23677e-08 -1.31651e-08 9.47522e-08)
(1.2815e-08 1.20665e-07 2.28574e-07)
(-3.82887e-08 -1.38799e-08 6.26756e-08)
(-5.17839e-08 -2.03769e-08 5.87369e-08)
(-6.75471e-08 -1.34058e-08 4.60004e-08)
(-1.01714e-07 2.01187e-08 7.28104e-09)
(-9.78134e-08 6.49754e-09 -2.23468e-08)
(-7.22367e-08 4.57739e-09 -2.33261e-08)
(-3.98641e-08 2.60943e-09 1.39514e-08)
(-5.53395e-08 -5.73087e-08 7.92036e-08)
(-6.92836e-08 -1.02916e-07 7.5179e-08)
(-5.67326e-08 1.34755e-08 6.10979e-08)
(-3.02121e-08 1.50924e-08 1.02857e-07)
(-2.93993e-08 1.85336e-08 6.23609e-08)
(-2.68788e-08 1.01451e-08 1.98121e-08)
(-1.75728e-08 7.02318e-09 1.49999e-09)
(-7.89404e-09 -1.38046e-09 8.81308e-09)
(-2.03387e-08 -4.9589e-09 2.27025e-08)
(-2.07183e-08 -2.82902e-09 9.08189e-08)
(-2.23508e-08 4.94312e-09 1.03406e-07)
(-6.39135e-08 2.66991e-09 6.37921e-08)
(-6.4679e-08 -2.95292e-09 8.7301e-08)
(-5.3725e-08 1.63926e-08 6.46714e-08)
(-5.4536e-08 1.95342e-08 1.37123e-08)
(-4.99023e-08 1.28703e-08 -1.08818e-08)
(-3.08616e-08 8.81864e-09 -3.63717e-09)
(-3.02086e-08 -4.81998e-09 2.45881e-08)
(-3.86073e-08 -5.12748e-09 7.44015e-08)
(-7.73508e-08 1.17654e-08 1.31825e-07)
(-9.54972e-08 -9.2532e-09 6.54449e-08)
(-7.47924e-08 -4.74067e-09 6.61396e-08)
(-8.77965e-08 6.24023e-10 4.46506e-08)
(-1.01735e-07 1.11141e-08 9.35478e-09)
(-8.64942e-08 1.49078e-08 -1.50324e-08)
(-6.99231e-08 1.73617e-08 -1.85702e-08)
(-5.22554e-08 -2.62701e-09 1.01637e-08)
(-5.50206e-08 -2.48883e-09 5.15528e-08)
(-3.20442e-08 2.30754e-08 9.69034e-08)
(-7.80882e-08 -2.15921e-09 2.26481e-08)
(-7.38338e-08 6.85278e-10 3.03179e-08)
(-7.02172e-08 -1.03866e-11 3.69294e-08)
(-4.87314e-08 9.76076e-09 1.34564e-08)
(-2.94835e-08 1.14108e-08 4.41047e-09)
(-2.22802e-08 2.64295e-09 1.12908e-08)
(-1.47977e-08 -3.852e-09 1.49347e-08)
(4.6865e-09 -3.52831e-09 2.2929e-08)
(-1.09591e-08 -1.70571e-08 3.5823e-08)
(-1.23869e-07 -3.26646e-09 4.04171e-08)
(-1.10795e-07 -3.62087e-09 4.59206e-08)
(-1.09701e-07 4.73362e-10 5.104e-08)
(-9.41765e-08 4.66791e-09 2.00517e-08)
(-5.66331e-08 6.76646e-09 -4.58101e-09)
(-3.00444e-08 7.67317e-09 4.43871e-09)
(-3.03767e-08 -2.70192e-09 2.39228e-08)
(-2.54899e-08 1.38102e-08 3.69314e-08)
(-1.00386e-08 9.31341e-09 2.23753e-08)
(-1.37138e-07 -7.46233e-09 6.17566e-08)
(-1.24164e-07 -3.23647e-09 5.24924e-08)
(-1.21001e-07 4.96258e-09 5.34733e-08)
(-1.21928e-07 1.1442e-09 2.17865e-08)
(-9.52008e-08 3.34105e-09 -2.2944e-09)
(-7.38412e-08 1.36709e-08 -6.62216e-09)
(-5.09381e-08 9.63704e-10 1.91181e-08)
(-4.14422e-08 1.2595e-08 2.73815e-08)
(-3.67411e-08 2.24092e-08 2.35409e-08)
(-9.10844e-08 -4.90898e-09 1.187e-08)
(-7.30602e-08 -1.76354e-08 1.38113e-08)
(-6.39465e-08 -2.48259e-09 1.76325e-08)
(-1.41089e-07 -6.85227e-09 2.02525e-08)
(-1.29338e-07 -9.26568e-09 3.34778e-08)
(-1.59873e-07 -1.99701e-08 2.96497e-08)
)
;

boundaryField
{
    inlet
    {
        type            zeroGradient;
    }
    outlet
    {
        type            zeroGradient;
    }
    wall
    {
        type            zeroGradient;
    }
    procBoundary1to0
    {
        type            processor;
        value           nonuniform List<vector> 
12
(
(-3.00865e-08 9.58031e-10 2.19742e-08)
(-1.98625e-08 -4.59555e-09 6.42147e-08)
(-6.36996e-09 -3.52246e-08 8.02052e-08)
(-5.05436e-08 -1.39599e-08 2.53215e-08)
(-7.19752e-08 -8.89462e-09 4.56603e-08)
(-7.88479e-08 -1.66754e-08 7.643e-08)
(-8.6567e-08 -1.15976e-08 6.08163e-09)
(-1.29458e-07 -1.01035e-08 2.08318e-08)
(-1.38908e-07 -1.37531e-08 3.35203e-08)
(-1.18525e-07 -9.79064e-09 1.87446e-09)
(-1.46693e-07 -1.58088e-08 1.17952e-08)
(-1.61077e-07 -2.13996e-08 2.07226e-08)
)
;
    }
    procBoundary1to3
    {
        type            processor;
        value           nonuniform List<vector> 
27
(
(-4.76242e-08 -2.56692e-08 6.64301e-08)
(-7.36896e-08 -1.92438e-08 6.82219e-08)
(-8.13299e-08 -6.93047e-08 4.32677e-08)
(-1.09269e-07 -1.22775e-08 1.45087e-08)
(-1.03307e-07 9.89405e-09 -2.37334e-08)
(-8.32224e-08 1.81891e-08 -2.83662e-08)
(-4.77095e-08 2.37034e-08 2.00256e-08)
(-4.04727e-07 -2.58005e-07 1.50565e-07)
(2.99882e-06 -4.98131e-08 9.56178e-08)
(-9.57174e-08 -2.95032e-08 6.84838e-08)
(-1.09373e-07 -2.83921e-08 7.07619e-08)
(-1.07601e-07 -1.67652e-08 5.13643e-08)
(-1.15645e-07 -6.37513e-09 8.70868e-09)
(-9.46025e-08 8.19738e-09 -1.61424e-08)
(-7.78355e-08 1.95379e-08 -2.65718e-08)
(-4.99868e-08 1.09946e-08 -2.50798e-09)
(-3.72153e-08 -2.9054e-08 8.80242e-08)
(7.38745e-07 1.85304e-08 4.25517e-08)
(-1.43304e-07 -1.82251e-08 5.50476e-08)
(-1.35437e-07 -1.80629e-08 5.76708e-08)
(-1.28996e-07 -9.17601e-09 5.30376e-08)
(-1.25434e-07 -1.07281e-08 2.04833e-08)
(-1.01402e-07 1.38312e-09 -4.88319e-09)
(-6.72755e-08 7.21498e-09 -1.22734e-08)
(-5.35516e-08 6.74355e-09 -1.94357e-09)
(-4.13469e-08 1.07386e-08 2.90503e-08)
(-2.13363e-08 -1.73338e-09 4.88247e-08)
)
;
    }
    procBoundary1to5
    {
        type            processor;
        value           nonuniform List<vector> 
32
(
(-7.33959e-08 1.034e-08 1.23046e-08)
(-4.99929e-08 8.85533e-09 4.73e-09)
(-3.93068e-08 3.78801e-09 1.02748e-08)
(-1.61811e-08 3.77236e-10 1.12977e-08)
(-1.55278e-08 2.53277e-09 9.32341e-09)
(-9.0183e-08 2.48488e-08 1.56718e-09)
(-1.16792e-07 5.05695e-09 3.44117e-08)
(-1.03526e-07 1.08665e-08 2.40354e-08)
(-8.30306e-08 7.90521e-09 1.03213e-08)
(-5.15802e-08 5.36679e-09 4.11835e-09)
(-3.59953e-08 1.66696e-09 1.19708e-08)
(-2.14566e-08 7.77487e-09 1.5157e-08)
(-1.84822e-08 2.02074e-08 8.20556e-09)
(-1.42876e-07 -1.23995e-08 4.15186e-08)
(-1.31896e-07 -3.10376e-09 3.25006e-08)
(-1.13588e-07 2.19066e-09 1.97937e-08)
(-9.51165e-08 3.44448e-09 5.17534e-09)
(-7.02208e-08 7.48055e-09 -2.03428e-09)
(-4.83433e-08 4.95383e-09 1.32651e-10)
(-3.18694e-08 1.27802e-08 1.48772e-08)
(-1.83116e-08 5.20352e-09 8.85364e-09)
(-1.04836e-07 5.99343e-09 9.35928e-09)
(-1.01738e-07 -1.00989e-08 5.17342e-09)
(-7.33959e-08 1.034e-08 1.23046e-08)
(-1.16792e-07 5.05695e-09 3.44117e-08)
(-8.99739e-08 -6.60389e-09 1.17804e-08)
(-1.5346e-07 -2.80056e-08 1.24564e-08)
(-1.16792e-07 5.05695e-09 3.44117e-08)
(-1.42876e-07 -1.23995e-08 4.15186e-08)
(-1.57544e-07 -4.44642e-08 1.6587e-08)
(-1.42876e-07 -1.23995e-08 4.15186e-08)
(-1.63166e-07 -2.14177e-08 1.41286e-08)
)
;
    }
    procBoundary1to7
    {
        type            processor;
        value           uniform (-1.57087e-07 -1.56407e-08 4.20042e-08);
    }
}


// ************************************************************************* //
