/*--------------------------------*- C++ -*----------------------------------*\
| =========                 |                                                 |
| \\      /  F ield         | OpenFOAM: The Open Source CFD Toolbox           |
|  \\    /   O peration     | Version:  4.x                                   |
|   \\  /    A nd           | Web:      www.OpenFOAM.org                      |
|    \\/     M anipulation  |                                                 |
\*---------------------------------------------------------------------------*/
FoamFile
{
    version     2.0;
    format      ascii;
    class       volVectorField;
    location    "7";
    object      impParticleForces;
}
// * * * * * * * * * * * * * * * * * * * * * * * * * * * * * * * * * * * * * //

dimensions      [1 1 -2 0 0 0 0];

internalField   nonuniform List<vector> 
87
(
(0.00312919 -3.15425e-05 2.34044e-05)
(0.00320416 8.65566e-06 -6.21206e-06)
(0.00318341 -7.32845e-06 -4.71071e-05)
(0.00318138 -1.20596e-05 -8.58388e-05)
(0.00306939 -1.78348e-05 -0.000123852)
(0.00300282 -3.0954e-05 -0.000158993)
(0.00292121 -5.40848e-05 -0.000192641)
(0.00285571 -8.12691e-05 -0.000231078)
(0.00274603 -0.000113655 -0.000265494)
(0.00316345 -3.92015e-05 1.741e-05)
(0.00322596 -1.95727e-05 -1.83163e-05)
(0.00321975 -8.7771e-06 -6.03256e-05)
(0.00320551 -3.57902e-06 -0.000101996)
(0.0030932 -6.51906e-06 -0.000138802)
(0.00301644 -1.72527e-05 -0.000172196)
(0.00291497 -3.59503e-05 -0.000201967)
(0.00284407 -5.76342e-05 -0.00023155)
(0.00273444 -8.42301e-05 -0.000252011)
(0.00317363 -3.49456e-05 1.00749e-05)
(0.00326265 -1.87039e-05 -3.02774e-05)
(0.00323589 1.35464e-06 -7.60674e-05)
(0.00321892 1.44702e-05 -0.000121639)
(0.00308837 1.31523e-05 -0.000157191)
(0.0030068 7.51335e-06 -0.000189886)
(0.00288846 -4.02064e-06 -0.000215594)
(0.00281689 -1.73643e-05 -0.000239802)
(0.00271459 -2.57214e-05 -0.000254227)
(0.00321057 -3.93837e-05 3.02103e-05)
(0.00326328 -2.03803e-05 -3.7895e-06)
(0.00326998 -1.34928e-05 -4.42935e-05)
(0.00326398 -1.09297e-05 -8.47675e-05)
(0.00316037 -1.6466e-05 -0.000125251)
(0.00309694 -3.08363e-05 -0.000160749)
(0.00301061 -5.77853e-05 -0.000197287)
(0.00294959 -9.26895e-05 -0.000241697)
(0.0028036 -0.000137547 -0.00028845)
(0.00327029 -4.39174e-05 2.3823e-05)
(0.00331696 -2.54622e-05 -1.64138e-05)
(0.00330877 -1.00073e-05 -6.20968e-05)
(0.00330529 -2.3868e-06 -0.000106141)
(0.00319296 -4.99306e-06 -0.000144459)
(0.00311004 -1.72209e-05 -0.000177636)
(0.0030051 -3.99137e-05 -0.000208121)
(0.00293501 -6.83764e-05 -0.000240501)
(0.00278378 -0.000102721 -0.000262884)
(0.00327001 -3.84116e-05 1.34063e-05)
(0.003359 -2.07928e-05 -3.16846e-05)
(0.00332716 1.4488e-06 -8.1933e-05)
(0.00329273 1.4322e-05 -0.000129392)
(0.00316472 1.3874e-05 -0.00016589)
(0.00309119 7.74887e-06 -0.000198996)
(0.00297021 -5.74922e-06 -0.000223751)
(0.00290353 -2.13373e-05 -0.000247891)
(0.00275765 -3.42403e-05 -0.000260318)
(0.00322964 -3.76204e-05 3.00042e-05)
(0.00331166 -2.45915e-05 -1.67726e-06)
(0.00332996 -1.40805e-05 -4.31992e-05)
(0.00333663 -8.91941e-06 -8.34596e-05)
(0.00322324 -1.47277e-05 -0.000125505)
(0.00317422 -2.98857e-05 -0.000161686)
(0.00307025 -5.88883e-05 -0.000197002)
(0.00301273 -9.13795e-05 -0.000236389)
(0.00283557 -0.000134337 -0.000267065)
(0.00329581 -3.93969e-05 2.38851e-05)
(0.00337351 -2.43239e-05 -1.61915e-05)
(0.00334413 -9.92914e-06 -6.22661e-05)
(0.00334653 -1.22582e-06 -0.000108061)
(0.00323952 -5.15316e-06 -0.000145999)
(0.00317383 -1.83646e-05 -0.000179568)
(0.00304536 -4.33776e-05 -0.000209228)
(0.00297034 -7.53085e-05 -0.000241158)
(0.0028156 -0.000111842 -0.000259179)
(0.00329099 -3.41027e-05 1.41512e-05)
(0.00338786 -1.85498e-05 -3.22729e-05)
(0.00335058 -9.40732e-07 -8.34367e-05)
(0.00335821 1.24839e-05 -0.000136127)
(0.00322331 1.10693e-05 -0.000171297)
(0.00314526 3.3961e-06 -0.00020233)
(0.00299892 -1.18626e-05 -0.000223481)
(0.00291663 -2.93997e-05 -0.000245518)
(0.00277768 -4.45498e-05 -0.000254432)
(0.00322791 -3.41362e-05 2.53636e-05)
(0.00329167 -2.357e-05 -7.40622e-06)
(0.00332471 -1.47919e-05 -4.51147e-05)
(0.00328748 -3.37612e-05 1.95806e-05)
(0.00339418 -2.23367e-05 -1.84904e-05)
(0.0032738 -2.91029e-05 1.13578e-05)
)
;

boundaryField
{
    inlet
    {
        type            zeroGradient;
    }
    outlet
    {
        type            zeroGradient;
    }
    wall
    {
        type            zeroGradient;
    }
    procBoundary1to0
    {
        type            processor;
        value           nonuniform List<vector> 
12
(
(0.00304722 -4.92255e-05 4.3188e-05)
(0.00310409 -5.35586e-05 4.24768e-05)
(0.00311195 -4.6846e-05 3.8998e-05)
(0.00313755 -5.26071e-05 5.23014e-05)
(0.00318658 -5.51853e-05 4.91928e-05)
(0.00316938 -4.64066e-05 4.32884e-05)
(0.00314765 -4.81137e-05 5.16347e-05)
(0.00320101 -4.869e-05 4.96486e-05)
(0.0031813 -4.11481e-05 4.36031e-05)
(0.00316569 -4.32263e-05 4.89111e-05)
(0.00320508 -4.22453e-05 4.56563e-05)
(0.00319662 -3.63253e-05 4.1124e-05)
)
;
    }
    procBoundary1to3
    {
        type            processor;
        value           nonuniform List<vector> 
27
(
(0.00319981 -2.31051e-05 1.05237e-05)
(0.00327459 -6.51914e-06 -3.43026e-05)
(0.00327602 1.36997e-05 -8.63886e-05)
(0.00320747 2.43867e-05 -0.000133041)
(0.00309384 2.83787e-05 -0.000171057)
(0.00300315 2.77441e-05 -0.000203801)
(0.00289647 2.6859e-05 -0.000232397)
(0.00280815 2.46526e-05 -0.000257602)
(0.00272139 2.70615e-05 -0.000276612)
(0.00329036 -2.49067e-05 1.41643e-05)
(0.00340656 -9.10314e-06 -3.58587e-05)
(0.00339666 1.44229e-05 -9.64901e-05)
(0.00333649 2.82734e-05 -0.000148612)
(0.00318968 3.06645e-05 -0.000185098)
(0.00309374 2.96959e-05 -0.000215731)
(0.00296604 2.72482e-05 -0.000241182)
(0.00288721 2.56972e-05 -0.000265432)
(0.00277616 3.00381e-05 -0.000289107)
(0.00332015 -2.22118e-05 1.52936e-05)
(0.00344529 -9.68607e-06 -3.56443e-05)
(0.00341302 9.261e-06 -9.84069e-05)
(0.00337165 2.30712e-05 -0.000153456)
(0.00322421 2.56114e-05 -0.000188674)
(0.00313887 2.57104e-05 -0.000219453)
(0.00299952 2.3387e-05 -0.000241745)
(0.00289964 2.06805e-05 -0.00026033)
(0.00278522 2.23071e-05 -0.000274875)
)
;
    }
    procBoundary1to5
    {
        type            processor;
        value           nonuniform List<vector> 
32
(
(0.00333147 -1.02728e-05 -8.36135e-05)
(0.00323133 -1.69408e-05 -0.000123521)
(0.00318763 -3.07114e-05 -0.000157119)
(0.00306301 -6.26733e-05 -0.000191792)
(0.00301873 -9.85705e-05 -0.000227114)
(0.00285807 -0.00015155 -0.000261648)
(0.0033495 -1.09945e-05 -6.30848e-05)
(0.0033362 -4.75058e-06 -0.000105941)
(0.0032303 -9.81665e-06 -0.000142717)
(0.00318408 -2.20799e-05 -0.000175752)
(0.00305846 -5.05765e-05 -0.000204784)
(0.00299407 -8.52724e-05 -0.000233478)
(0.00284835 -0.000127307 -0.000251816)
(0.00338116 -1.78758e-05 -3.19185e-05)
(0.00333484 -5.11337e-06 -8.17645e-05)
(0.00332589 3.91914e-06 -0.000130949)
(0.00320842 2.15037e-06 -0.000165356)
(0.00312162 -5.83871e-06 -0.00019353)
(0.00299476 -2.19582e-05 -0.000215449)
(0.00289946 -4.07174e-05 -0.00023252)
(0.00278672 -6.10413e-05 -0.000243724)
(0.00321812 -3.1695e-05 2.02272e-05)
(0.00328017 -2.35849e-05 -1.02089e-05)
(0.00333147 -1.02728e-05 -8.36135e-05)
(0.0033495 -1.09945e-05 -6.30848e-05)
(0.00330697 -1.74546e-05 -4.60136e-05)
(0.00326208 -3.07926e-05 1.51687e-05)
(0.0033495 -1.09945e-05 -6.30848e-05)
(0.00338116 -1.78758e-05 -3.19185e-05)
(0.00333038 -2.21958e-05 -2.01574e-05)
(0.00338116 -1.78758e-05 -3.19185e-05)
(0.0032487 -2.69154e-05 7.62799e-06)
)
;
    }
    procBoundary1to7
    {
        type            processor;
        value           uniform (0.00330196 -1.98888e-05 1.06638e-05);
    }
}


// ************************************************************************* //
