/*--------------------------------*- C++ -*----------------------------------*\
| =========                 |                                                 |
| \\      /  F ield         | OpenFOAM: The Open Source CFD Toolbox           |
|  \\    /   O peration     | Version:  4.x                                   |
|   \\  /    A nd           | Web:      www.OpenFOAM.org                      |
|    \\/     M anipulation  |                                                 |
\*---------------------------------------------------------------------------*/
FoamFile
{
    version     2.0;
    format      ascii;
    class       volScalarField;
    location    "7";
    object      Ksl;
}
// * * * * * * * * * * * * * * * * * * * * * * * * * * * * * * * * * * * * * //

dimensions      [1 -3 -1 0 0 0 0];

internalField   nonuniform List<scalar> 
87
(
4239.13
3086.36
4658.35
3146.68
5106.95
2947.89
5433.04
2592.95
4904.76
6743.89
3604.6
7391.84
3702.8
8508.45
3747.5
10133.8
4037.69
7794.13
10669.7
3716.44
10916.6
3841.22
20336
3986.7
19924.1
4323.06
11733.5
4909.02
3225.15
5009.74
3200.17
5663.41
2996.62
6575.99
2493.73
3697.79
10230.8
3892.91
9649.45
3930.35
11735.1
4057.73
14397.6
4357.84
6133.73
12578.7
3915.96
11444.7
4029.15
15763.8
4261.64
37602.8
4840.33
28390
5233.78
3375.8
5144.9
3308.72
5603.17
3074.59
6636.61
2459.5
4549.96
12980.1
4160.66
13350.1
4178.76
17820.8
4271.98
16947.6
4328.21
5441.98
13769.8
4214
14845.7
4348
22486.6
4528.95
41250.9
4585.05
21464
5030.27
3274.36
4783.44
12114.5
4210.53
13907.7
)
;

boundaryField
{
    inlet
    {
        type            zeroGradient;
    }
    outlet
    {
        type            zeroGradient;
    }
    wall
    {
        type            zeroGradient;
    }
    procBoundary1to0
    {
        type            processor;
        value           nonuniform List<scalar> 
12
(
2982.06
3578.34
3970.6
3352.77
4064.69
4187.57
3532.21
4291.86
4376.23
3514.01
4276.41
4333.34
)
;
    }
    procBoundary1to3
    {
        type            processor;
        value           nonuniform List<scalar> 
27
(
12297.6
3457.98
8742.67
3732.75
14841.7
3676.87
11047.1
2973.39
7849.38
11320.4
3767.66
8737.11
4091.16
12006.9
4261.69
12844
4561.48
7746.79
15709.6
4230.62
13090.9
4392.59
17460.1
4607.33
27926.5
5263.14
36996.2
)
;
    }
    procBoundary1to5
    {
        type            processor;
        value           nonuniform List<scalar> 
32
(
3137.56
5005.4
2839.71
5810.12
2262.26
4178.1
13093.2
4130.87
15550.1
4121.54
12948.5
4148.24
5133.08
4242.33
14590.7
4211.05
15779.6
4137.25
15457.8
4288.62
13952.4
6095.07
3635.03
3137.56
13093.2
6100.66
21693.8
13093.2
4242.33
4655.93
4242.33
20955.9
)
;
    }
    procBoundary1to7
    {
        type            processor;
        value           uniform 12563.1;
    }
}


// ************************************************************************* //
