/*--------------------------------*- C++ -*----------------------------------*\
| =========                 |                                                 |
| \\      /  F ield         | OpenFOAM: The Open Source CFD Toolbox           |
|  \\    /   O peration     | Version:  4.x                                   |
|   \\  /    A nd           | Web:      www.OpenFOAM.org                      |
|    \\/     M anipulation  |                                                 |
\*---------------------------------------------------------------------------*/
FoamFile
{
    version     2.0;
    format      ascii;
    class       volScalarField;
    location    "7";
    object      nu;
}
// * * * * * * * * * * * * * * * * * * * * * * * * * * * * * * * * * * * * * //

dimensions      [0 2 -1 0 0 0 0];

internalField   nonuniform List<scalar> 
87
(
1.00167e-06
1.00155e-06
1.00134e-06
1.00106e-06
1.00078e-06
1.00057e-06
1.00036e-06
1.00026e-06
9.87123e-07
1.00119e-06
1.00078e-06
1.00036e-06
9.99979e-07
9.99708e-07
9.99564e-07
9.99531e-07
9.99634e-07
9.9946e-07
1.00065e-06
1.00022e-06
9.99851e-07
9.99587e-07
9.99436e-07
9.99403e-07
9.99467e-07
9.99575e-07
9.99508e-07
1.00126e-06
1.00117e-06
1.001e-06
1.0008e-06
1.00054e-06
1.00034e-06
1.0001e-06
1e-06
9.90936e-07
1.00038e-06
1.00006e-06
9.99789e-07
9.99574e-07
9.99419e-07
9.99352e-07
9.99351e-07
9.99466e-07
9.98935e-07
1.00009e-06
9.99809e-07
9.99573e-07
9.99406e-07
9.99315e-07
9.99294e-07
9.99331e-07
9.99416e-07
9.99069e-07
1.0009e-06
1.00085e-06
1.00073e-06
1.0006e-06
1.00042e-06
1.00027e-06
1.00006e-06
9.99949e-07
9.94721e-07
1.00012e-06
9.99889e-07
9.99675e-07
9.99548e-07
9.99413e-07
9.99383e-07
9.99346e-07
9.99423e-07
9.98714e-07
9.99969e-07
9.99761e-07
9.99566e-07
9.99424e-07
9.99344e-07
9.99329e-07
9.99358e-07
9.99419e-07
9.99016e-07
1.00058e-06
1.00057e-06
1.00052e-06
1.00002e-06
9.99848e-07
9.99933e-07
)
;

boundaryField
{
    inlet
    {
        type            calculated;
        value           nonuniform 0();
    }
    outlet
    {
        type            calculated;
        value           uniform 1e-06;
    }
    wall
    {
        type            calculated;
        value           nonuniform List<scalar> 
57
(
1.00167e-06
1.00119e-06
1.00065e-06
1.00155e-06
1.00078e-06
1.00022e-06
1.00134e-06
1.00036e-06
9.99851e-07
1.00106e-06
9.99979e-07
9.99587e-07
1.00078e-06
9.99708e-07
9.99436e-07
1.00057e-06
9.99564e-07
9.99403e-07
1.00036e-06
9.99531e-07
9.99467e-07
1.00026e-06
9.99634e-07
9.99575e-07
9.87123e-07
9.9946e-07
9.99508e-07
1.00167e-06
1.00126e-06
1.0009e-06
1.00058e-06
1.00155e-06
1.00117e-06
1.00085e-06
1.00057e-06
1.00134e-06
1.001e-06
1.00073e-06
1.00052e-06
1.00106e-06
1.0008e-06
1.0006e-06
1.00078e-06
1.00054e-06
1.00042e-06
1.00057e-06
1.00034e-06
1.00027e-06
1.00036e-06
1.0001e-06
1.00006e-06
1.00026e-06
1e-06
9.99949e-07
9.87123e-07
9.90936e-07
9.94721e-07
)
;
    }
    procBoundary1to0
    {
        type            processor;
        value           nonuniform List<scalar> 
12
(
1.00164e-06
1.00145e-06
1.00107e-06
1.00126e-06
1.0007e-06
1.0004e-06
1.0009e-06
1.00035e-06
1.00019e-06
1.00056e-06
1.00017e-06
1.00009e-06
)
;
    }
    procBoundary1to3
    {
        type            processor;
        value           nonuniform List<scalar> 
27
(
1.00052e-06
1.00012e-06
9.99785e-07
9.99557e-07
9.99434e-07
9.99386e-07
9.99402e-07
9.99443e-07
9.979e-07
1.00017e-06
9.99894e-07
9.99654e-07
9.99469e-07
9.99362e-07
9.99313e-07
9.99327e-07
9.99384e-07
9.9899e-07
1.0001e-06
9.99939e-07
9.99799e-07
9.99631e-07
9.995e-07
9.9941e-07
9.99414e-07
9.99472e-07
9.99603e-07
)
;
    }
    procBoundary1to5
    {
        type            processor;
        value           nonuniform List<scalar> 
32
(
1.00046e-06
1.00035e-06
1.00026e-06
1.00009e-06
1e-06
9.98215e-07
9.99692e-07
9.996e-07
9.99481e-07
9.99485e-07
9.99444e-07
9.99502e-07
9.99384e-07
9.99775e-07
9.9962e-07
9.99497e-07
9.99412e-07
9.99386e-07
9.99432e-07
9.99504e-07
9.99592e-07
1.00034e-06
1.00032e-06
1.00046e-06
9.99692e-07
1.00026e-06
9.9982e-07
9.99692e-07
9.99775e-07
9.99667e-07
9.99775e-07
9.99886e-07
)
;
    }
    procBoundary1to7
    {
        type            processor;
        value           uniform 1.00006e-06;
    }
}


// ************************************************************************* //
