/*--------------------------------*- C++ -*----------------------------------*\
| =========                 |                                                 |
| \\      /  F ield         | OpenFOAM: The Open Source CFD Toolbox           |
|  \\    /   O peration     | Version:  4.x                                   |
|   \\  /    A nd           | Web:      www.OpenFOAM.org                      |
|    \\/     M anipulation  |                                                 |
\*---------------------------------------------------------------------------*/
FoamFile
{
    version     2.0;
    format      ascii;
    class       volScalarField;
    location    "7";
    object      QPartFluidCoeff;
}
// * * * * * * * * * * * * * * * * * * * * * * * * * * * * * * * * * * * * * //

dimensions      [1 -1 -3 -1 0 0 0];

internalField   nonuniform List<scalar> 
87
(
-1.49903e+07
-2.42054e+07
-1.43625e+07
-2.18912e+07
-1.19842e+07
-1.82164e+07
-1.68065e+07
-2.04349e+07
-1.43914e+07
-1.52094e+07
-1.49731e+07
-1.89208e+07
-1.90014e+07
-1.4995e+07
-2.04869e+07
-2.2797e+07
-1.88782e+07
-1.31118e+07
-1.32521e+07
-2.39684e+07
-1.9682e+07
-3.07176e+07
-1.93948e+07
-1.7917e+07
-1.62689e+07
-1.78635e+07
-1.27633e+07
-2.62752e+07
-2.36018e+07
-2.27078e+07
-2.69277e+07
-2.27295e+07
-2.7129e+07
-3.12448e+07
-3.13911e+07
-2.23291e+07
-3.35778e+07
-2.37395e+07
-2.78645e+07
-3.26383e+07
-3.00477e+07
-2.55615e+07
-3.05583e+07
-3.33019e+07
-1.71184e+07
-3.34712e+07
-3.06519e+07
-2.63634e+07
-2.38464e+07
-2.04893e+07
-3.07247e+07
-3.00607e+07
-4.19029e+07
-1.31734e+07
-2.69635e+07
-2.58617e+07
-3.14521e+07
-3.50291e+07
-2.34206e+07
-3.53167e+07
-2.87668e+07
-2.80238e+07
-1.26473e+07
-3.33411e+07
-3.27685e+07
-2.40866e+07
-2.89309e+07
-2.9464e+07
-3.15815e+07
-2.66922e+07
-3.13181e+07
-1.41764e+07
-3.17939e+07
-2.93188e+07
-2.11397e+07
-4.08749e+07
-3.25974e+07
-3.71563e+07
-2.52069e+07
-3.22174e+07
-1.05742e+07
-2.51861e+07
-2.10815e+07
-3.16355e+07
-3.02443e+07
-4.6143e+07
-2.30417e+07
)
;

boundaryField
{
    inlet
    {
        type            calculated;
        value           nonuniform 0();
    }
    outlet
    {
        type            calculated;
        value           uniform 0;
    }
    wall
    {
        type            calculated;
        value           uniform 0;
    }
    procBoundary1to0
    {
        type            processor;
        value           nonuniform List<scalar> 
12
(
159.783
428.767
666.036
583.499
686.663
496.074
437.981
626.885
439.404
497.416
567.214
777.186
)
;
    }
    procBoundary1to3
    {
        type            processor;
        value           nonuniform List<scalar> 
27
(
603.435
304.892
525.134
249.563
339.971
279.052
398.849
335.067
286.334
703.042
685.864
890.438
861.082
688.355
607.115
529.963
613.8
608.638
723.59
939.61
848.971
871.951
557.78
612.027
730.667
606.105
526.935
)
;
    }
    procBoundary1to5
    {
        type            processor;
        value           nonuniform List<scalar> 
32
(
698.736
683.894
652.825
560.836
766.547
601.968
657.327
604.837
531.379
696.308
745.349
855.575
579.194
861.059
554.229
739.092
521.473
438.517
592.097
517.073
515.582
553.145
475.542
698.736
657.327
662.375
682.022
657.327
861.059
685.552
861.059
729.122
)
;
    }
    procBoundary1to7
    {
        type            processor;
        value           uniform 909.538;
    }
}


// ************************************************************************* //
