/*--------------------------------*- C++ -*----------------------------------*\
| =========                 |                                                 |
| \\      /  F ield         | OpenFOAM: The Open Source CFD Toolbox           |
|  \\    /   O peration     | Version:  4.x                                   |
|   \\  /    A nd           | Web:      www.OpenFOAM.org                      |
|    \\/     M anipulation  |                                                 |
\*---------------------------------------------------------------------------*/
FoamFile
{
    version     2.0;
    format      ascii;
    class       volScalarField;
    location    "7";
    object      QPartFluid;
}
// * * * * * * * * * * * * * * * * * * * * * * * * * * * * * * * * * * * * * //

dimensions      [1 -1 -3 0 0 0 0];

internalField   nonuniform List<scalar> 
87
(
4.49709e+09
7.26162e+09
4.30874e+09
6.56735e+09
3.59525e+09
5.46491e+09
5.04194e+09
6.13046e+09
4.31742e+09
4.56281e+09
4.49193e+09
5.67622e+09
5.70041e+09
4.49851e+09
6.14605e+09
6.83909e+09
5.66345e+09
3.93352e+09
3.97562e+09
7.19051e+09
5.90459e+09
9.21526e+09
5.81841e+09
5.37508e+09
4.88066e+09
5.35904e+09
3.82898e+09
7.88255e+09
7.08055e+09
6.81233e+09
8.0783e+09
6.81883e+09
8.13869e+09
9.37341e+09
9.41731e+09
6.69872e+09
1.00733e+10
7.12183e+09
8.35933e+09
9.79147e+09
9.0143e+09
7.66843e+09
9.16746e+09
9.99054e+09
5.13549e+09
1.00413e+10
9.19556e+09
7.90902e+09
7.15389e+09
6.14679e+09
9.21739e+09
9.01817e+09
1.25708e+10
3.952e+09
8.08905e+09
7.75849e+09
9.43561e+09
1.05087e+10
7.02617e+09
1.0595e+10
8.63001e+09
8.40711e+09
3.79419e+09
1.00023e+10
9.83054e+09
7.22598e+09
8.67925e+09
8.83919e+09
9.47442e+09
8.00765e+09
9.39541e+09
4.2529e+09
9.53816e+09
8.79563e+09
6.34188e+09
1.22624e+10
9.77921e+09
1.11469e+10
7.56205e+09
9.66519e+09
3.17225e+09
7.55583e+09
6.32445e+09
9.49064e+09
9.07328e+09
1.38429e+10
6.91249e+09
)
;

boundaryField
{
    inlet
    {
        type            calculated;
        value           nonuniform 0();
    }
    outlet
    {
        type            calculated;
        value           uniform 0;
    }
    wall
    {
        type            calculated;
        value           uniform 0;
    }
    procBoundary1to0
    {
        type            processor;
        value           nonuniform List<scalar> 
12
(
2.11392e+09
5.67258e+09
8.81164e+09
7.71969e+09
9.08454e+09
6.56305e+09
5.79448e+09
8.29367e+09
5.8133e+09
6.5808e+09
7.50422e+09
1.02821e+10
)
;
    }
    procBoundary1to3
    {
        type            processor;
        value           nonuniform List<scalar> 
27
(
7.98345e+09
4.03371e+09
6.94751e+09
3.3017e+09
4.4978e+09
3.69185e+09
5.27676e+09
4.43293e+09
3.78818e+09
9.30124e+09
9.07398e+09
1.17805e+10
1.13921e+10
9.10691e+09
8.03211e+09
7.01139e+09
8.12054e+09
8.05225e+09
9.57308e+09
1.2431e+10
1.12319e+10
1.15359e+10
7.37941e+09
8.0971e+09
9.66669e+09
8.01874e+09
6.97133e+09
)
;
    }
    procBoundary1to5
    {
        type            processor;
        value           nonuniform List<scalar> 
32
(
9.24427e+09
9.0479e+09
8.63686e+09
7.41985e+09
1.01414e+10
7.96402e+09
8.69643e+09
8.00198e+09
7.03013e+09
9.21213e+09
9.86094e+09
1.13192e+10
7.66271e+09
1.13918e+10
7.33244e+09
9.77817e+09
6.89907e+09
5.80157e+09
7.83342e+09
6.84085e+09
6.82113e+09
7.3181e+09
6.29141e+09
9.24427e+09
8.69643e+09
8.76321e+09
9.02314e+09
8.69643e+09
1.13918e+10
9.06984e+09
1.13918e+10
9.64626e+09
)
;
    }
    procBoundary1to7
    {
        type            processor;
        value           uniform 1.20332e+10;
    }
}


// ************************************************************************* //
