/*--------------------------------*- C++ -*----------------------------------*\
| =========                 |                                                 |
| \\      /  F ield         | OpenFOAM: The Open Source CFD Toolbox           |
|  \\    /   O peration     | Version:  4.x                                   |
|   \\  /    A nd           | Web:      www.OpenFOAM.org                      |
|    \\/     M anipulation  |                                                 |
\*---------------------------------------------------------------------------*/
FoamFile
{
    version     2.0;
    format      ascii;
    class       volScalarField;
    location    "7";
    object      QWallFluid;
}
// * * * * * * * * * * * * * * * * * * * * * * * * * * * * * * * * * * * * * //

dimensions      [1 -1 -3 0 0 0 0];

internalField   nonuniform List<scalar> 
87
(
1.81141e+09
2.35959e+09
1.68846e+09
2.29922e+09
1.51885e+09
2.2995e+09
1.37528e+09
2.4444e+09
1.4454e+09
6.27261e+08
1.0494e+09
5.8637e+08
1.01387e+09
5.06092e+08
9.51167e+08
4.15116e+08
8.54808e+08
4.92766e+08
4.32375e+08
1.02368e+09
4.27173e+08
9.78564e+08
2.49993e+08
9.03323e+08
2.4045e+08
8.02106e+08
3.51858e+08
8.05311e+08
1.14042e+09
8.00599e+08
1.13849e+09
7.01661e+08
1.1419e+09
5.92016e+08
1.27204e+09
9.06011e+08
0
0
0
0
0
0
0
0
0
0
0
0
0
0
0
0
0
0
7.56343e+08
1.09461e+09
7.78844e+08
1.10657e+09
7.0667e+08
1.1205e+09
5.90502e+08
1.296e+09
7.65344e+08
0
0
0
0
0
0
0
0
0
0
0
0
0
0
0
0
0
0
7.72509e+08
1.10418e+09
8.14407e+08
0
0
0
)
;

boundaryField
{
    inlet
    {
        type            calculated;
        value           nonuniform 0();
    }
    outlet
    {
        type            calculated;
        value           uniform 0;
    }
    wall
    {
        type            calculated;
        value           uniform 0;
    }
    procBoundary1to0
    {
        type            processor;
        value           nonuniform List<scalar> 
12
(
0
1.02765e+09
9.38337e+08
1.07764e+09
0
0
1.0235e+09
0
0
1.02089e+09
0
0
)
;
    }
    procBoundary1to3
    {
        type            processor;
        value           nonuniform List<scalar> 
27
(
3.84922e+08
1.085e+09
5.13415e+08
1.00451e+09
3.2303e+08
9.66242e+08
3.87176e+08
1.08073e+09
4.85094e+08
0
0
0
0
0
0
0
0
0
0
0
0
0
0
0
0
0
0
)
;
    }
    procBoundary1to5
    {
        type            processor;
        value           nonuniform List<scalar> 
32
(
1.14265e+09
7.64268e+08
1.1903e+09
6.49492e+08
1.36583e+09
8.03199e+08
0
0
0
0
0
0
0
0
0
0
0
0
0
0
0
6.55486e+08
1.0073e+09
1.14265e+09
0
6.65014e+08
0
0
0
0
0
0
)
;
    }
    procBoundary1to7
    {
        type            processor;
        value           uniform 0;
    }
}


// ************************************************************************* //
