/*--------------------------------*- C++ -*----------------------------------*\
| =========                 |                                                 |
| \\      /  F ield         | OpenFOAM: The Open Source CFD Toolbox           |
|  \\    /   O peration     | Version:  4.x                                   |
|   \\  /    A nd           | Web:      www.OpenFOAM.org                      |
|    \\/     M anipulation  |                                                 |
\*---------------------------------------------------------------------------*/
FoamFile
{
    version     2.0;
    format      ascii;
    class       volVectorField;
    location    "7";
    object      UsNext;
}
// * * * * * * * * * * * * * * * * * * * * * * * * * * * * * * * * * * * * * //

dimensions      [0 1 -1 0 0 0 0];

internalField   nonuniform List<vector> 
87
(
(-1.95687e-05 2.36101e-06 -1.30478e-06)
(-2.28362e-05 -4.26305e-07 -8.8301e-07)
(-2.32821e-05 -1.39364e-06 9.86424e-07)
(-1.69757e-05 -8.17327e-07 9.04909e-08)
(-1.04206e-05 -4.30137e-07 3.39463e-08)
(-8.57706e-06 -4.86309e-07 1.06997e-06)
(-4.95413e-06 -8.59973e-07 5.16122e-07)
(-9.69665e-06 -8.06152e-07 8.61955e-07)
(-4.10805e-06 -1.29916e-07 5.35427e-07)
(-2.83306e-05 5.53197e-06 -1.62347e-06)
(-3.45573e-05 5.50584e-06 -5.51636e-07)
(-2.79246e-05 -2.83103e-06 9.73142e-07)
(-2.34779e-05 -3.33939e-06 1.52293e-06)
(-2.08349e-05 -3.27583e-06 1.6657e-06)
(-1.01905e-05 -2.89766e-06 1.10407e-06)
(-6.4029e-06 -1.75266e-06 9.79372e-07)
(-2.57838e-06 -1.10959e-06 6.70816e-07)
(-6.28293e-07 -4.41272e-07 1.17967e-07)
(-2.44014e-05 9.45199e-06 -2.43571e-06)
(-3.60777e-05 6.05362e-06 -1.09041e-06)
(-3.17092e-05 -7.01895e-06 2.38621e-06)
(-2.09972e-05 -6.15516e-06 2.05856e-06)
(-1.56147e-05 -4.86502e-06 3.23469e-06)
(-8.5172e-06 -3.74452e-06 9.78838e-07)
(-5.17696e-06 -1.96126e-06 7.72597e-07)
(-1.41042e-06 -1.29734e-06 1.62626e-07)
(-1.81422e-07 -6.97482e-07 -1.76851e-07)
(-1.89478e-05 2.42918e-06 -1.20134e-06)
(-2.08089e-05 7.57922e-07 -1.35966e-06)
(-2.07835e-05 -5.38304e-07 6.72478e-07)
(-1.8242e-05 -1.33338e-07 1.0923e-06)
(-1.372e-05 -3.36402e-07 7.9104e-07)
(-6.85231e-06 -8.86962e-07 1.23243e-06)
(-5.89138e-06 -3.40801e-07 6.3632e-07)
(-3.06432e-06 5.13079e-08 6.53106e-07)
(-1.46289e-06 2.14736e-07 3.19771e-07)
(-2.83827e-05 4.42324e-06 -1.72465e-06)
(-3.21275e-05 3.24619e-06 -1.5314e-06)
(-3.37109e-05 -2.28364e-06 5.75804e-07)
(-2.74137e-05 -3.42703e-06 1.93348e-06)
(-1.90902e-05 -3.83207e-06 1.83911e-06)
(-1.29564e-05 -3.09404e-06 2.10295e-06)
(-8.91064e-06 -1.65049e-06 1.25263e-06)
(-3.79814e-06 -1.11424e-06 9.16933e-07)
(-1.02005e-06 -3.51524e-07 1.47782e-07)
(-2.77113e-05 6.56317e-06 -4.32853e-06)
(-3.50518e-05 4.08188e-06 -8.23152e-08)
(-3.77878e-05 -6.75938e-06 3.94637e-06)
(-2.42663e-05 -6.52372e-06 3.8282e-06)
(-1.57446e-05 -4.24108e-06 3.18757e-06)
(-1.07301e-05 -3.44204e-06 2.62615e-06)
(-6.3228e-06 -1.92976e-06 1.84535e-06)
(-2.5279e-06 -1.37064e-06 1.07309e-06)
(-6.87685e-07 -5.57491e-07 2.48703e-07)
(-1.64596e-05 5.67322e-07 -1.37443e-06)
(-1.82953e-05 -2.25392e-07 -1.52133e-06)
(-2.04974e-05 -4.23555e-06 8.18336e-07)
(-1.73918e-05 -8.14371e-07 1.57491e-06)
(-1.44789e-05 -8.0553e-07 1.78968e-06)
(-1.04852e-05 -4.51857e-07 1.88506e-06)
(-7.49308e-06 -4.05027e-07 1.50368e-06)
(-4.14036e-06 1.76509e-07 1.07814e-06)
(-2.23411e-06 4.20462e-07 5.12513e-07)
(-2.52414e-05 2.7158e-06 -2.92999e-06)
(-2.97577e-05 2.32255e-06 -2.23221e-06)
(-3.01564e-05 -5.4379e-07 8.9157e-07)
(-2.44635e-05 -3.08092e-06 3.70991e-06)
(-1.9544e-05 -1.83366e-06 3.44783e-06)
(-1.40357e-05 -2.11686e-06 2.97169e-06)
(-8.80967e-06 -8.37471e-07 2.1073e-06)
(-4.78878e-06 -5.53619e-07 1.43504e-06)
(-2.00193e-06 -4.00242e-07 3.62841e-07)
(-2.45175e-05 3.84049e-06 -4.43096e-06)
(-3.18991e-05 1.19195e-06 -5.83817e-07)
(-3.37652e-05 -2.00784e-06 2.13931e-06)
(-2.42035e-05 -3.54202e-06 4.72712e-06)
(-1.83479e-05 -3.44855e-06 4.48967e-06)
(-1.1416e-05 -2.58717e-06 3.18216e-06)
(-6.46663e-06 -1.32896e-06 2.14997e-06)
(-3.79041e-06 -6.86189e-07 1.53306e-06)
(-1.74732e-06 -4.58292e-07 2.37182e-07)
(-1.67818e-05 9.57504e-07 -1.60117e-06)
(-1.55282e-05 -1.54929e-06 -1.22133e-07)
(-1.63478e-05 -9.19836e-07 1.25968e-07)
(-2.54977e-05 1.48682e-06 -2.36015e-06)
(-2.80241e-05 1.458e-06 -1.10964e-06)
(-2.26223e-05 2.51523e-06 -3.47518e-06)
)
;

boundaryField
{
    inlet
    {
        type            calculated;
        value           nonuniform 0();
    }
    outlet
    {
        type            calculated;
        value           nonuniform List<vector> 9((-4.10805e-06 -1.29916e-07 5.35427e-07) (-6.28293e-07 -4.41272e-07 1.17967e-07) (-1.81422e-07 -6.97482e-07 -1.76851e-07) (-1.46289e-06 2.14736e-07 3.19771e-07) (-1.02005e-06 -3.51524e-07 1.47782e-07) (-6.87685e-07 -5.57491e-07 2.48703e-07) (-2.23411e-06 4.20462e-07 5.12513e-07) (-2.00193e-06 -4.00242e-07 3.62841e-07) (-1.74732e-06 -4.58292e-07 2.37182e-07));
    }
    wall
    {
        type            calculated;
        value           nonuniform List<vector> 
57
(
(-1.95687e-05 2.36101e-06 -1.30478e-06)
(-2.83306e-05 5.53197e-06 -1.62347e-06)
(-2.44014e-05 9.45199e-06 -2.43571e-06)
(-2.28362e-05 -4.26305e-07 -8.8301e-07)
(-3.45573e-05 5.50584e-06 -5.51636e-07)
(-3.60777e-05 6.05362e-06 -1.09041e-06)
(-2.32821e-05 -1.39364e-06 9.86424e-07)
(-2.79246e-05 -2.83103e-06 9.73142e-07)
(-3.17092e-05 -7.01895e-06 2.38621e-06)
(-1.69757e-05 -8.17327e-07 9.04909e-08)
(-2.34779e-05 -3.33939e-06 1.52293e-06)
(-2.09972e-05 -6.15516e-06 2.05856e-06)
(-1.04206e-05 -4.30137e-07 3.39463e-08)
(-2.08349e-05 -3.27583e-06 1.6657e-06)
(-1.56147e-05 -4.86502e-06 3.23469e-06)
(-8.57706e-06 -4.86309e-07 1.06997e-06)
(-1.01905e-05 -2.89766e-06 1.10407e-06)
(-8.5172e-06 -3.74452e-06 9.78838e-07)
(-4.95413e-06 -8.59973e-07 5.16122e-07)
(-6.4029e-06 -1.75266e-06 9.79372e-07)
(-5.17696e-06 -1.96126e-06 7.72597e-07)
(-9.69665e-06 -8.06152e-07 8.61955e-07)
(-2.57838e-06 -1.10959e-06 6.70816e-07)
(-1.41042e-06 -1.29734e-06 1.62626e-07)
(-4.10805e-06 -1.29916e-07 5.35427e-07)
(-6.28293e-07 -4.41272e-07 1.17967e-07)
(-1.81422e-07 -6.97482e-07 -1.76851e-07)
(-1.95687e-05 2.36101e-06 -1.30478e-06)
(-1.89478e-05 2.42918e-06 -1.20134e-06)
(-1.64596e-05 5.67322e-07 -1.37443e-06)
(-1.67818e-05 9.57504e-07 -1.60117e-06)
(-2.28362e-05 -4.26305e-07 -8.8301e-07)
(-2.08089e-05 7.57922e-07 -1.35966e-06)
(-1.82953e-05 -2.25392e-07 -1.52133e-06)
(-1.55282e-05 -1.54929e-06 -1.22133e-07)
(-2.32821e-05 -1.39364e-06 9.86424e-07)
(-2.07835e-05 -5.38304e-07 6.72478e-07)
(-2.04974e-05 -4.23555e-06 8.18336e-07)
(-1.63478e-05 -9.19836e-07 1.25968e-07)
(-1.69757e-05 -8.17327e-07 9.04909e-08)
(-1.8242e-05 -1.33338e-07 1.0923e-06)
(-1.73918e-05 -8.14371e-07 1.57491e-06)
(-1.04206e-05 -4.30137e-07 3.39463e-08)
(-1.372e-05 -3.36402e-07 7.9104e-07)
(-1.44789e-05 -8.0553e-07 1.78968e-06)
(-8.57706e-06 -4.86309e-07 1.06997e-06)
(-6.85231e-06 -8.86962e-07 1.23243e-06)
(-1.04852e-05 -4.51857e-07 1.88506e-06)
(-4.95413e-06 -8.59973e-07 5.16122e-07)
(-5.89138e-06 -3.40801e-07 6.3632e-07)
(-7.49308e-06 -4.05027e-07 1.50368e-06)
(-9.69665e-06 -8.06152e-07 8.61955e-07)
(-3.06432e-06 5.13079e-08 6.53106e-07)
(-4.14036e-06 1.76509e-07 1.07814e-06)
(-4.10805e-06 -1.29916e-07 5.35427e-07)
(-1.46289e-06 2.14736e-07 3.19771e-07)
(-2.23411e-06 4.20462e-07 5.12513e-07)
)
;
    }
    procBoundary1to0
    {
        type            processor;
        value           nonuniform List<vector> 
12
(
(-1.53507e-05 3.30611e-06 -1.67966e-06)
(-1.8656e-05 4.88784e-06 -8.09539e-07)
(-1.44159e-05 6.16526e-06 -1.3965e-06)
(-1.39353e-05 -6.64207e-07 -1.05954e-06)
(-1.92336e-05 4.20594e-06 -2.23793e-06)
(-1.60886e-05 5.49009e-06 -1.87919e-06)
(-1.42556e-05 -1.28388e-06 -2.13188e-06)
(-1.83258e-05 3.14479e-06 -2.80183e-06)
(-1.74774e-05 3.8241e-06 -2.47437e-06)
(-1.48342e-05 4.54312e-07 -2.33053e-06)
(-1.8124e-05 1.92349e-06 -2.73229e-06)
(-1.73989e-05 2.21695e-06 -2.09953e-06)
)
;
    }
    procBoundary1to3
    {
        type            processor;
        value           nonuniform List<vector> 
27
(
(-1.98626e-05 8.89185e-06 -5.76362e-06)
(-4.07283e-05 8.17762e-06 -4.74754e-06)
(-4.28954e-05 -1.04419e-05 8.45517e-06)
(-2.44335e-05 -9.98017e-06 6.85142e-06)
(-1.21663e-05 -6.88285e-06 4.66381e-06)
(-7.23403e-06 -3.54379e-06 2.61597e-06)
(-5.16633e-06 -2.05292e-06 7.18105e-07)
(-7.16355e-07 -1.02855e-06 3.08942e-07)
(3.06223e-06 -1.75247e-07 -1.62012e-07)
(-2.9191e-05 9.69122e-06 -6.50815e-06)
(-4.42108e-05 3.93087e-06 -5.32117e-06)
(-4.53535e-05 -5.21573e-06 4.58727e-06)
(-2.55378e-05 -8.11775e-06 7.2526e-06)
(-1.27195e-05 -5.81411e-06 4.63998e-06)
(-8.62351e-06 -4.02534e-06 2.85683e-06)
(-5.19594e-06 -1.90555e-06 1.82938e-06)
(-6.15786e-07 -8.96766e-07 8.62362e-07)
(1.32638e-06 -1.08075e-07 6.73973e-08)
(-2.83934e-05 4.5606e-06 -6.26619e-06)
(-3.50809e-05 3.40435e-06 -2.77702e-06)
(-4.13509e-05 -3.05051e-06 4.00973e-06)
(-2.5916e-05 -6.11599e-06 7.26573e-06)
(-1.60616e-05 -4.03473e-06 6.67615e-06)
(-9.93906e-06 -2.4541e-06 4.53337e-06)
(-6.93908e-06 -1.77575e-06 2.94043e-06)
(-2.27496e-06 -7.45116e-07 1.38177e-06)
(-9.07985e-07 -3.05496e-07 4.74828e-07)
)
;
    }
    procBoundary1to5
    {
        type            processor;
        value           nonuniform List<vector> 
32
(
(-1.66123e-05 6.60494e-07 1.98898e-06)
(-1.26969e-05 -1.14692e-06 1.7921e-06)
(-1.20835e-05 -4.69339e-07 1.86565e-06)
(-7.26093e-06 3.98802e-07 1.31198e-06)
(-4.61559e-06 4.96523e-07 9.26381e-07)
(-2.48429e-06 5.5689e-07 1.18251e-07)
(-2.82305e-05 9.2883e-08 1.20753e-06)
(-2.28751e-05 -6.88572e-07 2.78986e-06)
(-1.99208e-05 -1.87948e-06 2.81359e-06)
(-1.31738e-05 -3.90354e-07 2.40512e-06)
(-1.09991e-05 -1.26705e-06 2.41034e-06)
(-5.69174e-06 -4.07967e-07 1.27334e-06)
(-3.4923e-06 -5.75079e-07 7.0906e-07)
(-2.70781e-05 1.42451e-06 -2.73297e-06)
(-2.79994e-05 -1.1206e-06 1.72044e-06)
(-2.0699e-05 -2.95881e-06 4.11141e-06)
(-1.86295e-05 -2.16032e-06 3.66757e-06)
(-1.253e-05 -1.12893e-06 3.09274e-06)
(-9.13441e-06 -7.31606e-07 2.37788e-06)
(-4.77207e-06 -6.05613e-07 1.64345e-06)
(-1.63912e-06 -1.53482e-07 5.98441e-07)
(-1.5306e-05 -4.00169e-07 -1.24101e-06)
(-1.47053e-05 -2.87441e-07 -5.86387e-07)
(-1.66123e-05 6.60494e-07 1.98898e-06)
(-2.82305e-05 9.2883e-08 1.20753e-06)
(-1.93009e-05 -1.30241e-06 3.08858e-07)
(-2.30185e-05 1.08011e-06 -1.7966e-06)
(-2.82305e-05 9.2883e-08 1.20753e-06)
(-2.70781e-05 1.42451e-06 -2.73297e-06)
(-2.40279e-05 8.74332e-07 -7.95293e-07)
(-2.70781e-05 1.42451e-06 -2.73297e-06)
(-2.19738e-05 7.43812e-07 -1.76536e-06)
)
;
    }
    procBoundary1to7
    {
        type            processor;
        value           uniform (-2.30274e-05 2.56899e-06 -4.99277e-06);
    }
}


// ************************************************************************* //
