/*--------------------------------*- C++ -*----------------------------------*\
| =========                 |                                                 |
| \\      /  F ield         | OpenFOAM: The Open Source CFD Toolbox           |
|  \\    /   O peration     | Version:  4.x                                   |
|   \\  /    A nd           | Web:      www.OpenFOAM.org                      |
|    \\/     M anipulation  |                                                 |
\*---------------------------------------------------------------------------*/
FoamFile
{
    version     2.0;
    format      ascii;
    class       volScalarField;
    location    "14";
    object      Deff;
}
// * * * * * * * * * * * * * * * * * * * * * * * * * * * * * * * * * * * * * //

dimensions      [0 2 -1 0 0 0 0];

internalField   nonuniform List<scalar> 
87
(
9.80961e-08
9.81665e-08
9.81177e-08
9.83115e-08
9.83069e-08
9.82895e-08
9.82659e-08
9.82774e-08
9.82796e-08
9.80865e-08
9.79531e-08
9.80247e-08
9.79518e-08
9.79731e-08
9.78892e-08
9.85227e-08
9.83336e-08
9.8281e-08
9.80928e-08
9.80394e-08
9.79973e-08
9.79907e-08
9.79444e-08
9.79398e-08
9.87036e-08
9.84618e-08
9.84182e-08
9.82417e-08
9.80921e-08
9.80012e-08
9.81054e-08
9.80899e-08
9.80469e-08
9.83371e-08
9.82547e-08
9.8157e-08
9.80297e-08
9.80416e-08
9.79657e-08
9.7929e-08
9.79519e-08
9.78639e-08
9.85383e-08
9.8353e-08
9.82491e-08
9.81182e-08
9.80834e-08
9.8067e-08
9.7971e-08
9.80263e-08
9.79126e-08
9.86946e-08
9.84694e-08
9.83786e-08
9.81567e-08
9.80828e-08
9.80849e-08
9.80966e-08
9.81227e-08
9.8091e-08
9.85232e-08
9.8422e-08
9.82536e-08
9.8079e-08
9.80052e-08
9.79473e-08
9.78479e-08
9.78751e-08
9.80474e-08
9.86014e-08
9.84883e-08
9.82952e-08
9.81882e-08
9.80009e-08
9.80555e-08
9.80083e-08
9.80578e-08
9.79511e-08
9.87756e-08
9.85377e-08
9.83826e-08
9.82336e-08
9.81851e-08
9.8027e-08
9.81928e-08
9.82057e-08
9.80963e-08
)
;

boundaryField
{
    inlet
    {
        type            calculated;
        value           uniform 0;
    }
    outlet
    {
        type            calculated;
        value           nonuniform 0();
    }
    wall
    {
        type            calculated;
        value           uniform 0;
    }
    procBoundary6to0
    {
        type            processor;
        value           uniform 0;
    }
    procBoundary6to2
    {
        type            processor;
        value           uniform 0;
    }
    procBoundary6to4
    {
        type            processor;
        value           uniform 0;
    }
    procBoundary6to7
    {
        type            processor;
        value           uniform 0;
    }
}


// ************************************************************************* //
