/*--------------------------------*- C++ -*----------------------------------*\
| =========                 |                                                 |
| \\      /  F ield         | OpenFOAM: The Open Source CFD Toolbox           |
|  \\    /   O peration     | Version:  4.x                                   |
|   \\  /    A nd           | Web:      www.OpenFOAM.org                      |
|    \\/     M anipulation  |                                                 |
\*---------------------------------------------------------------------------*/
FoamFile
{
    version     2.0;
    format      ascii;
    class       volScalarField;
    location    "14";
    object      particleRelTemp;
}
// * * * * * * * * * * * * * * * * * * * * * * * * * * * * * * * * * * * * * //

dimensions      [0 0 0 0 0 0 0];

internalField   nonuniform List<scalar> 
87
(
5.17076e-08
-6.96118e-08
-7.20643e-08
-9.23748e-08
-8.93522e-08
-1.13257e-07
-1.37086e-07
-1.00384e-07
-8.44667e-08
-8.05471e-08
-6.66258e-08
-9.5043e-08
-5.83027e-08
-6.03364e-08
-4.80108e-08
-1.32327e-07
-1.08207e-07
-8.92374e-08
-8.68409e-08
-7.5938e-08
-8.98273e-08
-8.32309e-08
-8.94079e-08
-9.91068e-08
-1.44129e-07
-1.15374e-07
-1.06554e-07
-1.01456e-07
-9.84875e-08
-1.02495e-07
-1.07136e-07
-1.20047e-07
-1.23936e-07
-1.44102e-07
-1.10801e-07
-9.98954e-08
-9.94479e-08
-9.67545e-08
-9.7784e-08
-9.08845e-08
-9.47245e-08
-9.38609e-08
-1.48027e-07
-1.16723e-07
-1.05681e-07
-1.0423e-07
-1.05932e-07
-1.10827e-07
-1.0908e-07
-1.18292e-07
-1.19723e-07
-1.47839e-07
-1.29135e-07
-1.20033e-07
-1.20163e-07
-1.19074e-07
-1.30003e-07
-1.31277e-07
-1.34413e-07
-1.43326e-07
-1.45127e-07
-1.2436e-07
-1.10457e-07
-1.18308e-07
-1.16087e-07
-1.22211e-07
-1.1113e-07
-1.22647e-07
-1.3212e-07
-1.51351e-07
-1.28392e-07
-1.2233e-07
-1.23255e-07
-1.27043e-07
-1.32593e-07
-1.32216e-07
-1.38191e-07
-1.42351e-07
-1.4924e-07
-1.33841e-07
-1.2756e-07
-1.31868e-07
-1.35309e-07
-1.41382e-07
-1.43136e-07
-1.54084e-07
-1.55276e-07
)
;

boundaryField
{
    inlet
    {
        type            calculated;
        value           nonuniform List<scalar> 9(-1.37086e-07 -1.32327e-07 -1.44129e-07 -1.44102e-07 -1.48027e-07 -1.47839e-07 -1.45127e-07 -1.51351e-07 -1.4924e-07);
    }
    outlet
    {
        type            calculated;
        value           nonuniform 0();
    }
    wall
    {
        type            calculated;
        value           nonuniform List<scalar> 
57
(
-1.45127e-07
-1.51351e-07
-1.4924e-07
-1.2436e-07
-1.28392e-07
-1.33841e-07
-1.10457e-07
-1.2233e-07
-1.2756e-07
-1.18308e-07
-1.23255e-07
-1.31868e-07
-1.16087e-07
-1.27043e-07
-1.35309e-07
-1.22211e-07
-1.32593e-07
-1.41382e-07
-1.1113e-07
-1.32216e-07
-1.43136e-07
-1.22647e-07
-1.38191e-07
-1.54084e-07
-1.3212e-07
-1.42351e-07
-1.55276e-07
-1.44129e-07
-1.47839e-07
-1.4924e-07
-1.15374e-07
-1.29135e-07
-1.33841e-07
-1.06554e-07
-1.20033e-07
-1.2756e-07
-1.01456e-07
-1.20163e-07
-1.31868e-07
-9.84875e-08
-1.19074e-07
-1.35309e-07
-1.02495e-07
-1.30003e-07
-1.41382e-07
-9.23748e-08
-1.07136e-07
-1.31277e-07
-1.43136e-07
-8.93522e-08
-1.20047e-07
-1.34413e-07
-1.54084e-07
-1.13257e-07
-1.23936e-07
-1.43326e-07
-1.55276e-07
)
;
    }
    procBoundary6to0
    {
        type            processor;
        value           uniform 5.64942e-07;
    }
    procBoundary6to2
    {
        type            processor;
        value           nonuniform List<scalar> 
32
(
1.08095e-07
-3.88412e-08
-6.46472e-08
-7.04156e-08
-7.03265e-08
-1.00775e-07
-1.27061e-07
-8.67789e-08
-6.15759e-08
-5.71576e-08
-3.95805e-08
-4.73309e-08
-1.28464e-08
1.51277e-08
1.51277e-08
1.51277e-08
-1.44457e-07
-8.88754e-08
-7.09878e-08
-6.16936e-08
-5.48775e-08
-6.54024e-08
-6.17662e-08
-6.17662e-08
-6.17662e-08
-1.45785e-07
-1.01954e-07
-7.60563e-08
-8.29097e-08
-7.2763e-08
-9.232e-08
-9.232e-08
)
;
    }
    procBoundary6to4
    {
        type            processor;
        value           nonuniform List<scalar> 
27
(
-1.47308e-07
-9.93031e-08
-8.20203e-08
-7.6553e-08
-5.47375e-08
-4.72058e-08
-8.83704e-09
1.49026e-08
1.66963e-07
-1.42989e-07
-1.06998e-07
-9.34452e-08
-9.3433e-08
-8.01937e-08
-7.9484e-08
-6.49268e-08
-5.67959e-08
-4.88788e-08
-1.38245e-07
-1.20971e-07
-1.09433e-07
-1.07007e-07
-9.83619e-08
-1.08032e-07
-1.02639e-07
-1.03249e-07
-1.09786e-07
)
;
    }
    procBoundary6to7
    {
        type            processor;
        value           nonuniform List<scalar> 
12
(
-4.97118e-08
-1.16486e-07
-1.35176e-07
-9.11723e-08
-1.17085e-07
-1.39202e-07
-1.22225e-07
-1.3556e-07
-1.52296e-07
-1.35449e-07
-1.48894e-07
-1.6047e-07
)
;
    }
}


// ************************************************************************* //
