/*--------------------------------*- C++ -*----------------------------------*\
| =========                 |                                                 |
| \\      /  F ield         | OpenFOAM: The Open Source CFD Toolbox           |
|  \\    /   O peration     | Version:  4.x                                   |
|   \\  /    A nd           | Web:      www.OpenFOAM.org                      |
|    \\/     M anipulation  |                                                 |
\*---------------------------------------------------------------------------*/
FoamFile
{
    version     2.0;
    format      ascii;
    class       volVectorField;
    location    "32.5";
    object      U;
}
// * * * * * * * * * * * * * * * * * * * * * * * * * * * * * * * * * * * * * //

dimensions      [0 1 -1 0 0 0 0];

internalField   nonuniform List<vector> 
87
(
(0.0280608 0.000290261 -0.000758478)
(0.0430973 0.000149832 -0.000790947)
(0.0288864 0.000232999 -0.00120184)
(0.0458738 0.000227264 -0.000641636)
(0.0284387 -5.75923e-05 -0.00204005)
(0.0505819 0.000283897 0.00020839)
(0.025193 -0.00113933 -0.00391795)
(0.0612601 0.000922612 0.00299402)
(0.0131461 -0.00523824 -0.0111352)
(0.0242091 -0.000215965 -0.000654125)
(0.0404702 -0.000275795 -0.000689856)
(0.0247508 -0.000278131 -0.000820592)
(0.042808 0.000145932 -0.000340457)
(0.0236964 -0.000686205 -0.00119197)
(0.0460902 0.000980168 0.000948113)
(0.0198163 -0.00229567 -0.00242856)
(0.0521365 0.00322063 0.00373506)
(0.00912414 -0.00667345 -0.00456717)
(0.0207663 -5.42098e-05 -0.000679202)
(0.0379333 3.59926e-05 -0.000861411)
(0.020592 0.000107872 -0.000972012)
(0.0396821 0.000290365 -0.000299712)
(0.0192432 -0.000464787 -0.00195752)
(0.0421146 0.000391871 0.00114648)
(0.0164029 -0.0022944 -0.00415381)
(0.0475121 0.00155803 0.00480028)
(0.00932171 -0.00696265 -0.0104665)
(0.0182737 0.000266503 -0.000331418)
(0.0363713 0.00012754 -0.000365109)
(0.0182935 0.000401796 -0.000485447)
(0.0379915 0.000319304 3.77368e-05)
(0.0174333 0.000476923 -0.000774)
(0.040485 0.000651519 0.00111861)
(0.0148673 -2.11518e-05 -0.00212747)
(0.0451469 0.000947708 0.00381612)
(0.00741321 -0.00208526 -0.00777279)
(0.0107946 -0.000129935 -0.000248767)
(0.0329847 -0.000396076 -0.000217485)
(0.0103057 -0.000135321 -0.000189196)
(0.0346441 0.00035331 0.000579689)
(0.00924859 -0.000616226 -0.000425747)
(0.0366716 0.00173631 0.00224119)
(0.00832878 -0.00204282 -0.00135827)
(0.0388841 0.00471051 0.00517959)
(0.0061216 -0.00693603 -0.00337747)
(0.00405201 8.80716e-05 -0.00018882)
(0.0305307 -4.01967e-05 0.000201643)
(0.00137456 5.32184e-05 -0.000104731)
(0.030688 0.000291833 0.000941305)
(-1.33408e-08 -2.96309e-09 -6.34962e-09)
(0.029794 0.000653667 0.0022479)
(0.00122587 -0.000161316 -0.000439497)
(0.0273289 0.00164611 0.0047268)
(0.0081042 -0.00416479 -0.00846172)
(0.0163716 0.000117879 -0.00145925)
(0.0355246 8.48358e-05 -0.001221)
(0.0155692 0.000234552 -0.00200733)
(0.0370885 0.000481373 -0.00117322)
(0.0137648 -0.000114509 -0.00322415)
(0.0392727 0.000997408 -0.000329262)
(0.0110471 -0.000936503 -0.00560921)
(0.0416763 0.00194824 0.00373282)
(0.00622396 -0.00255792 -0.00917757)
(0.00713886 -0.000261226 -0.000876388)
(0.0318687 0.000114315 -0.000741074)
(0.00656145 -0.000411176 -0.00100397)
(0.0332446 0.00059979 -1.92048e-05)
(0.00622528 -0.000959325 -0.00167697)
(0.0347274 0.0013759 0.000979073)
(0.00666962 -0.00249089 -0.00330016)
(0.0362305 0.00337233 0.00412801)
(0.00576973 -0.00667516 -0.00546668)
(0.00176922 -0.000158469 -0.000406197)
(0.0296122 6.46865e-05 0.000240041)
(0.00175486 -0.000260332 -0.000584924)
(0.0301985 0.000239576 0.000491319)
(0.00267474 -0.000776888 -0.00123872)
(0.0303157 0.000197799 0.00136765)
(0.00471204 -0.00271653 -0.00285976)
(0.0287344 0.00283397 0.00378202)
(0.00917307 -0.00874743 -0.00450253)
(0.0133328 -7.12241e-05 -0.000537606)
(0.0324778 6.5506e-05 -0.000291214)
(0.0108818 0.000194581 -0.000563165)
(0.00296393 -0.000411481 -0.000238791)
(0.0292082 0.000282396 -0.000304965)
(-1.98161e-10 -2.64849e-09 9.71854e-09)
)
;

boundaryField
{
    inlet
    {
        type            fixedValue;
        value           nonuniform 0();
    }
    outlet
    {
        type            zeroGradient;
    }
    wall
    {
        type            fixedValue;
        value           uniform (0 0 0);
    }
    procBoundary1to0
    {
        type            processor;
        value           nonuniform List<vector> 
12
(
(0.0406746 -0.000135042 -0.00102372)
(0.0384461 -0.000689521 -0.0010025)
(0.0364895 -0.000370881 -0.00104758)
(0.0350394 -0.000173614 -0.00073725)
(0.0319873 -0.000731171 -0.000782199)
(0.0301747 -0.000229711 -0.000502609)
(0.0342256 -0.000320773 -0.00121054)
(0.0308492 -0.000497213 -0.00101207)
(0.0290558 -0.000243829 -4.71485e-05)
(0.032546 -0.000325693 -0.000684239)
(0.0290622 -0.000140987 -0.000651772)
(0.0266615 0.000365027 -0.000231577)
)
;
    }
    procBoundary1to3
    {
        type            processor;
        value           nonuniform List<vector> 
27
(
(0.0215065 -5.15359e-05 -0.000241539)
(0.0386649 8.54017e-05 -0.000568198)
(0.0215943 0.000177671 -0.000307497)
(0.0400901 4.42297e-05 1.92609e-05)
(0.0199897 -0.000393619 -0.000413605)
(0.0407553 -0.000417017 0.00151679)
(0.0151835 -0.0018926 -0.00114472)
(0.0402553 -0.000280945 0.00372796)
(0.00586647 -0.00465383 -0.00242844)
(0.00562691 0.000116423 -0.000588774)
(0.0313005 0.000520864 -0.00023914)
(0.00383661 0.000211977 -0.00061025)
(0.031846 0.000359957 0.000699816)
(0.00224357 0.000212731 -0.000621388)
(0.0316997 -0.000419956 0.00235943)
(0.00183647 0.000309499 -0.000965876)
(0.0304772 -0.00232461 0.00667854)
(0.0037011 0.00146394 -0.00425759)
(0.000467609 -1.56833e-05 -0.000150717)
(0.0285491 -0.000296562 0.000203973)
(-1.17002e-08 -1.14535e-09 1.0851e-08)
(0.0281107 -0.0002497 0.000833878)
(-9.34157e-09 -3.277e-09 -6.41742e-09)
(0.0271689 -0.000300353 0.00170807)
(-9.12641e-10 2.46213e-11 -2.04938e-08)
(0.0239208 -0.000131803 0.00476496)
(0.00616437 -2.57863e-05 -0.00301892)
)
;
    }
    procBoundary1to5
    {
        type            processor;
        value           nonuniform List<vector> 
32
(
(0.0311337 0.000652648 2.91544e-06)
(0.00663732 0.000182579 -0.000625164)
(0.0277199 0.000516741 0.000609663)
(0.00226879 0.00015441 -0.000328433)
(0.0208112 -0.000427482 0.00206856)
(0.00330643 0.000638342 0.000116585)
(0.000788218 -0.000155464 -9.51868e-05)
(0.02899 0.000927016 0.000374533)
(-2.53682e-09 -1.09874e-09 -8.10913e-10)
(0.0280731 0.00190361 0.00163463)
(4.10121e-05 -1.2554e-05 -1.33854e-05)
(0.0250094 0.00322192 0.0040296)
(0.00262579 -0.000435391 -0.00126558)
(0.0264934 0.000488466 -8.67454e-05)
(-4.16849e-09 -1.43167e-09 9.69786e-09)
(0.0262011 0.000443742 4.22822e-05)
(-3.04148e-09 -1.51059e-09 -2.02061e-09)
(0.0253944 0.000260693 0.000875327)
(0.00123406 -0.000226021 -0.000260438)
(0.023014 0.000589634 0.00236154)
(0.00883127 -0.000907952 -0.00104516)
(0.0143017 -0.000335188 4.05378e-05)
(0.0342189 -0.000312877 0.000386205)
(0.0311337 0.000652648 2.91544e-06)
(0.000788218 -0.000155464 -9.51868e-05)
(0.0137799 -0.000484888 0.000480805)
(0.00258594 -0.000292149 4.93177e-05)
(0.000788218 -0.000155464 -9.51868e-05)
(0.0264934 0.000488466 -8.67454e-05)
(0.0299352 1.05145e-05 0.000374465)
(0.0264934 0.000488466 -8.67454e-05)
(3.94588e-09 -3.68373e-09 9.54395e-09)
)
;
    }
    procBoundary1to7
    {
        type            processor;
        value           uniform (-1.44772e-09 -2.34488e-09 8.70291e-09);
    }
}


// ************************************************************************* //
