/*--------------------------------*- C++ -*----------------------------------*\
| =========                 |                                                 |
| \\      /  F ield         | OpenFOAM: The Open Source CFD Toolbox           |
|  \\    /   O peration     | Version:  4.x                                   |
|   \\  /    A nd           | Web:      www.OpenFOAM.org                      |
|    \\/     M anipulation  |                                                 |
\*---------------------------------------------------------------------------*/
FoamFile
{
    version     2.0;
    format      ascii;
    class       volVectorField;
    location    "32.5";
    object      Urel;
}
// * * * * * * * * * * * * * * * * * * * * * * * * * * * * * * * * * * * * * //

dimensions      [0 1 -1 0 0 0 0];

internalField   nonuniform List<vector> 
87
(
(-0.0254989 3.22784e-05 0.000571168)
(-0.0268571 -1.39156e-05 0.000515506)
(-0.0259463 -5.47628e-05 0.000489112)
(-0.0273027 -6.10745e-05 0.000413541)
(-0.0260006 -4.20038e-06 0.00046324)
(-0.027416 6.20394e-05 0.000328544)
(-0.0251813 0.000341664 0.000682176)
(-0.0265675 0.000499806 0.000571699)
(-0.0213505 0.00134275 0.00211724)
(-0.0244685 8.04314e-05 0.000532996)
(-0.0258706 3.4062e-05 0.000466596)
(-0.0248036 -4.36216e-06 0.000408684)
(-0.0262067 -3.22162e-05 0.000313278)
(-0.0247365 4.83762e-05 0.000317172)
(-0.0261495 4.08461e-05 0.000149001)
(-0.0238108 0.00039587 0.000445139)
(-0.0250698 0.000362681 0.000268284)
(-0.020311 0.00147197 0.00145135)
(-0.0233599 3.76826e-05 0.000490114)
(-0.0247823 -9.12577e-06 0.000421488)
(-0.023517 -4.31305e-05 0.000345212)
(-0.0249454 -5.63395e-05 0.000224154)
(-0.0232848 2.28521e-05 0.000238088)
(-0.0246607 4.92161e-05 1.70459e-05)
(-0.022274 0.000340344 0.000359177)
(-0.0234309 0.000347635 9.05083e-05)
(-0.0192847 0.00126708 0.00155457)
(-0.0235129 4.24119e-05 0.000523239)
(-0.0249646 -7.62306e-06 0.000459044)
(-0.0237334 -6.4234e-05 0.000418005)
(-0.0251998 -8.09978e-05 0.000325132)
(-0.0236255 -5.31314e-05 0.000348427)
(-0.0251008 -9.53553e-06 0.000188012)
(-0.0227894 0.000224488 0.000484296)
(-0.0240431 0.000374232 0.000299437)
(-0.0196569 0.00105097 0.00167177)
(-0.0221732 7.92026e-05 0.000471153)
(-0.023807 3.8632e-05 0.000389666)
(-0.0222905 -1.18642e-05 0.000320634)
(-0.0239827 -5.42377e-05 0.000195494)
(-0.0221476 1.97494e-05 0.000197432)
(-0.0238307 -3.43813e-05 -1.90083e-05)
(-0.021425 0.000310068 0.000256455)
(-0.022752 0.000215111 5.62424e-06)
(-0.0189107 0.0013591 0.00116027)
(-0.0208059 3.08342e-05 0.000411345)
(-0.0226044 -2.34284e-06 0.000304859)
(-0.0207067 -3.48136e-05 0.000236648)
(-0.0225974 -5.97096e-05 7.89237e-05)
(-0.0204463 -1.21144e-05 6.56893e-05)
(-0.0222126 -4.35239e-06 -0.000163563)
(-0.0197685 0.000180437 6.76973e-05)
(-0.020986 0.000229837 -0.000114039)
(-0.0181259 0.000989732 0.00123042)
(-0.0218922 7.23416e-05 0.000532549)
(-0.0233373 9.11891e-06 0.000461925)
(-0.0218499 -4.41111e-05 0.00045104)
(-0.0233405 -8.53348e-05 0.000347661)
(-0.0214964 -3.00805e-05 0.00040891)
(-0.0230063 -3.64386e-05 0.00019576)
(-0.0205504 0.00022015 0.000472609)
(-0.0217927 0.000269397 3.91747e-05)
(-0.0180426 0.000897721 0.00116161)
(-0.0203506 9.43819e-05 0.000441272)
(-0.0220861 2.30909e-05 0.000362985)
(-0.020302 6.7642e-06 0.000311745)
(-0.0221092 -6.45512e-05 0.000184456)
(-0.0200993 3.26554e-05 0.000208888)
(-0.0218583 -3.77931e-05 -1.9921e-05)
(-0.0194856 0.000294114 0.000219752)
(-0.0208323 0.000189806 -0.000162751)
(-0.0175724 0.00118157 0.000811213)
(-0.0189661 4.70638e-05 0.00033607)
(-0.020884 6.263e-07 0.000231768)
(-0.0189059 -9.72716e-06 0.000189403)
(-0.0208562 -4.42635e-05 4.85708e-05)
(-0.0187681 2.45291e-05 5.58265e-05)
(-0.0205606 2.29194e-05 -0.000169189)
(-0.018315 0.000246469 4.49522e-05)
(-0.0195755 0.00015263 -0.000265695)
(-0.0172059 0.00104658 0.000643479)
(-0.0207693 0.00011518 0.000341178)
(-0.0221481 4.70959e-05 0.00026217)
(-0.0204794 -6.71462e-06 0.000213941)
(-0.0191588 0.000119802 0.00028449)
(-0.0208842 3.38828e-05 0.000218711)
(-0.0179096 4.64783e-05 0.000222027)
)
;

boundaryField
{
    inlet
    {
        type            calculated;
        value           nonuniform 0();
    }
    outlet
    {
        type            calculated;
        value           nonuniform List<vector> 9((-0.0128298 0.00457026 0.0105277) (-0.00912742 0.00643473 0.00382187) (-0.00893656 0.00726252 0.0098632) (-0.0074696 0.00187571 0.00788325) (-0.00637646 0.00733914 0.00329797) (-0.0078473 0.00446562 0.00799346) (-0.00598684 0.0021722 0.00854584) (-0.00577818 0.00637903 0.00542617) (-0.00924069 0.00853257 0.00431365));
    }
    wall
    {
        type            calculated;
        value           nonuniform List<vector> 
57
(
(-3.14253e-09 9.06451e-09 3.09565e-08)
(-1.60664e-08 -3.183e-09 1.72916e-08)
(-1.93622e-08 -4.3448e-09 1.4707e-08)
(-4.98308e-08 1.14508e-06 1.1707e-07)
(-2.30044e-08 -1.23787e-08 3.20551e-08)
(-2.58615e-08 -7.39255e-09 1.76676e-08)
(-2.92927e-08 -8.3046e-09 2.36031e-08)
(-4.20699e-08 -1.13378e-08 1.49608e-08)
(-3.07996e-08 -1.80415e-09 1.42106e-08)
(-2.41833e-08 -1.29306e-09 3.05095e-09)
(-3.31054e-08 -1.72017e-09 1.54304e-09)
(-2.89402e-08 -2.93096e-09 5.31081e-09)
(-1.40649e-08 1.51546e-09 5.89891e-09)
(-2.87311e-08 3.63741e-10 -6.45753e-09)
(-2.7181e-08 -4.97602e-09 -4.71896e-09)
(-8.64069e-09 8.45934e-10 2.36558e-11)
(-1.66213e-08 -5.56935e-09 -5.27e-09)
(-1.37214e-08 -5.36209e-09 -6.95301e-09)
(6.57928e-09 -3.89009e-09 -1.05105e-08)
(-5.00709e-09 -8.23138e-09 -2.14049e-08)
(-2.08147e-09 -5.18914e-09 -1.87931e-08)
(7.39614e-07 1.20156e-08 -5.1854e-08)
(2.82882e-09 -1.31535e-08 -2.50612e-08)
(1.8588e-08 7.32752e-09 -3.05025e-08)
(3.84601e-07 -2.37287e-08 -7.68977e-08)
(-6.72178e-09 -3.771e-08 -4.2736e-08)
(1.59666e-08 1.38603e-08 -2.95614e-08)
(-3.14253e-09 9.06451e-09 3.09565e-08)
(-1.91132e-08 6.50154e-09 2.13384e-08)
(-9.40191e-09 3.88995e-10 6.21276e-09)
(-6.598e-09 -1.07413e-10 4.48578e-09)
(-4.98308e-08 1.14508e-06 1.1707e-07)
(-1.41149e-08 2.54614e-09 4.98279e-08)
(-9.88712e-09 1.91085e-09 9.01196e-09)
(-5.60377e-09 4.44966e-10 3.84041e-09)
(-2.92927e-08 -8.3046e-09 2.36031e-08)
(-1.11759e-08 -8.28e-10 1.86578e-08)
(-1.06069e-08 6.43727e-10 1.00369e-08)
(-7.82208e-09 4.47371e-10 5.69135e-09)
(-2.41833e-08 -1.29306e-09 3.05095e-09)
(-1.15982e-08 -8.02958e-10 1.28694e-09)
(-9.69704e-09 3.37233e-10 2.33408e-09)
(-1.40649e-08 1.51546e-09 5.89891e-09)
(-8.97061e-09 1.4467e-10 2.90335e-09)
(-8.98548e-09 7.45241e-10 1.11417e-09)
(-8.64069e-09 8.45934e-10 2.36558e-11)
(-4.15511e-09 -1.66116e-09 -1.87782e-09)
(-6.69054e-09 3.0073e-11 -2.65858e-09)
(6.57928e-09 -3.89009e-09 -1.05105e-08)
(6.81137e-10 -1.29049e-09 -7.96173e-09)
(-3.54948e-09 1.43309e-09 -5.11576e-09)
(7.39614e-07 1.20156e-08 -5.1854e-08)
(5.69311e-09 -2.92265e-09 -1.7278e-08)
(-1.97012e-09 1.7638e-09 -6.74651e-09)
(3.84601e-07 -2.37287e-08 -7.68977e-08)
(2.16139e-09 -8.80196e-09 -2.69518e-08)
(1.70276e-09 -8.48338e-11 -1.11275e-08)
)
;
    }
    procBoundary1to0
    {
        type            processor;
        value           nonuniform List<vector> 
12
(
(-0.0262079 0.000132563 0.000665892)
(-0.025345 0.000174718 0.00063793)
(-0.0244284 0.000103747 0.000600773)
(-0.0245664 0.000141742 0.000622264)
(-0.0235279 0.00017345 0.000584733)
(-0.0224997 9.1704e-05 0.000519751)
(-0.0231716 0.000167508 0.00058985)
(-0.0219985 0.000167881 0.000522365)
(-0.0208877 9.16638e-05 0.000410837)
(-0.0222233 0.000190674 0.000415569)
(-0.0210014 0.000167221 0.000365897)
(-0.0198826 7.22385e-05 0.000295591)
)
;
    }
    procBoundary1to3
    {
        type            processor;
        value           nonuniform List<vector> 
27
(
(-0.0230341 -2.15421e-05 0.000436226)
(-0.0244606 -5.92972e-05 0.000368559)
(-0.0231765 -8.67603e-05 0.000263679)
(-0.0245634 -8.801e-05 0.000132348)
(-0.022862 -5.79501e-05 6.99702e-05)
(-0.0240666 -2.26658e-05 -0.000142848)
(-0.0215634 8.23833e-05 5.73355e-05)
(-0.0223455 0.000106769 -0.000128409)
(-0.0184048 0.000354437 0.0008165)
(-0.0205049 -3.10346e-05 0.000410625)
(-0.0222907 -7.09298e-05 0.000304796)
(-0.0204173 -7.83812e-05 0.000226936)
(-0.022267 -9.14426e-05 4.77501e-05)
(-0.0201141 -7.7616e-05 2.23477e-05)
(-0.0218361 -3.64471e-05 -0.000248467)
(-0.0192899 -2.5285e-05 -5.4787e-05)
(-0.0205261 0.000107804 -0.000364584)
(-0.0174331 -4.52808e-05 0.000777209)
(-0.018523 -7.9775e-06 0.000307944)
(-0.0204603 -1.8103e-05 0.000207411)
(-0.0184324 -3.92107e-05 0.000139697)
(-0.0203784 -4.62155e-05 -8.79722e-06)
(-0.0182543 -4.49383e-05 -4.23218e-05)
(-0.0200292 -3.20984e-05 -0.000261316)
(-0.0176941 -1.64588e-05 -0.000153695)
(-0.0189898 7.45428e-06 -0.000417536)
(-0.0167245 -3.25217e-05 0.000454576)
)
;
    }
    procBoundary1to5
    {
        type            processor;
        value           nonuniform List<vector> 
32
(
(-0.0218556 -6.38756e-05 0.000102207)
(-0.019849 -1.78173e-05 6.41917e-05)
(-0.0211181 -1.38271e-05 -0.000122947)
(-0.0187031 0.000184724 -0.00013744)
(-0.0195371 0.000340018 -0.000398027)
(-0.0168595 0.000708966 -0.000221642)
(-0.0188977 1.61359e-05 0.000146044)
(-0.0207066 -6.87682e-05 2.95652e-05)
(-0.0185527 -9.91795e-06 -2.84861e-05)
(-0.0202636 -7.7301e-05 -0.000238227)
(-0.0178935 0.000154457 -0.000226634)
(-0.0191005 0.000126834 -0.000538786)
(-0.0165286 0.000774811 -0.000197513)
(-0.019764 -1.0326e-05 0.000160903)
(-0.0177902 -7.85776e-06 9.27965e-05)
(-0.0196536 -4.81293e-05 -9.42796e-06)
(-0.0176029 -1.90566e-06 -7.69881e-05)
(-0.0193297 8.3266e-06 -0.00025672)
(-0.0171756 0.000129162 -0.000243245)
(-0.0184293 0.000150045 -0.00047454)
(-0.0164977 0.000549633 -0.000159746)
(-0.0205998 0.000163851 0.000140232)
(-0.0220405 0.000113666 5.76863e-05)
(-0.0218556 -6.38756e-05 0.000102207)
(-0.0188977 1.61359e-05 0.000146044)
(-0.020454 8.01122e-05 -5.03214e-06)
(-0.0189671 0.000145929 0.000119285)
(-0.0188977 1.61359e-05 0.000146044)
(-0.019764 -1.0326e-05 0.000160903)
(-0.0207491 8.54382e-05 5.1855e-05)
(-0.019764 -1.0326e-05 0.000160903)
(-0.0177972 7.30764e-05 0.00011361)
)
;
    }
    procBoundary1to7
    {
        type            processor;
        value           uniform (-0.0175349 -6.42138e-06 0.000213676);
    }
}


// ************************************************************************* //
