/*--------------------------------*- C++ -*----------------------------------*\
| =========                 |                                                 |
| \\      /  F ield         | OpenFOAM: The Open Source CFD Toolbox           |
|  \\    /   O peration     | Version:  4.x                                   |
|   \\  /    A nd           | Web:      www.OpenFOAM.org                      |
|    \\/     M anipulation  |                                                 |
\*---------------------------------------------------------------------------*/
FoamFile
{
    version     2.0;
    format      ascii;
    class       volVectorField;
    location    "4";
    object      Urel;
}
// * * * * * * * * * * * * * * * * * * * * * * * * * * * * * * * * * * * * * //

dimensions      [0 1 -1 0 0 0 0];

internalField   nonuniform List<vector> 
108
(
(-0.0236008 0.0011957 -0.000195632)
(-0.0217589 0.00115545 -0.000436923)
(-0.0230817 0.00129225 -0.000796975)
(-0.0221357 0.00123004 -0.00108758)
(-0.0238043 0.00125858 -0.00139119)
(-0.0231258 0.00123735 -0.00150568)
(-0.0248219 0.00130144 -0.00157007)
(-0.0241045 0.0014668 -0.00147252)
(-0.0258313 0.00181161 -0.00127384)
(-0.0231877 0.00108912 -0.000252253)
(-0.0209157 0.000976592 -0.000459321)
(-0.0219306 0.00105023 -0.000751305)
(-0.0201076 0.000882252 -0.000911128)
(-0.0216171 0.000859297 -0.00111255)
(-0.0199634 0.000756744 -0.00106637)
(-0.0215362 0.000726887 -0.0010183)
(-0.0196927 0.00074417 -0.000784455)
(-0.0210591 0.00077007 -0.000213371)
(-0.0228097 0.000610549 -0.000364599)
(-0.0203936 0.000534387 -0.000534226)
(-0.021191 0.000528418 -0.000807383)
(-0.0190807 0.000430714 -0.0008632)
(-0.020469 0.00039564 -0.000954215)
(-0.0185449 0.00032054 -0.000861028)
(-0.0201796 0.000239651 -0.000733262)
(-0.0181646 0.000212516 -0.000508114)
(-0.0198734 -2.44207e-05 8.48773e-06)
(-0.0227197 7.3634e-05 -0.000387191)
(-0.0202282 3.2569e-05 -0.000549775)
(-0.0210165 3.61031e-06 -0.000819238)
(-0.0188656 -1.83903e-05 -0.000860546)
(-0.0202192 -4.81724e-05 -0.000948489)
(-0.018244 -5.17291e-05 -0.000825011)
(-0.0198627 -9.17316e-05 -0.0007132)
(-0.0178541 -6.00941e-05 -0.000493903)
(-0.019618 1.93179e-05 -0.000193782)
(-0.0238301 0.00106316 -0.000521086)
(-0.0220332 0.00102039 -0.000695389)
(-0.0234835 0.00113927 -0.000999713)
(-0.0226593 0.0010515 -0.00121241)
(-0.0245199 0.00109608 -0.001454)
(-0.0240415 0.00100296 -0.00158088)
(-0.0259635 0.00103979 -0.0016909)
(-0.0254902 0.00106926 -0.00170661)
(-0.0274615 0.00136378 -0.00166235)
(-0.0235338 0.000936148 -0.000659959)
(-0.0213682 0.000849183 -0.000794743)
(-0.0225947 0.000910974 -0.00109818)
(-0.0209838 0.000766007 -0.00116431)
(-0.0226989 0.0007816 -0.00132018)
(-0.0212338 0.000650485 -0.00127356)
(-0.0230805 0.000637501 -0.00128916)
(-0.0214748 0.000624714 -0.00119868)
(-0.023234 0.000753396 -0.00109632)
(-0.0232576 0.000534763 -0.000786725)
(-0.0210452 0.000469969 -0.000903655)
(-0.0220909 0.000463659 -0.00119996)
(-0.0203336 0.000389682 -0.00120244)
(-0.0218451 0.0003681 -0.00126811)
(-0.0201366 0.000287553 -0.00113446)
(-0.0218989 0.000236381 -0.00104628)
(-0.0200411 0.000182525 -0.000848028)
(-0.0218493 -4.91835e-06 -0.000569596)
(-0.0231896 7.52564e-05 -0.000798144)
(-0.0209111 3.76115e-05 -0.000915377)
(-0.0219402 2.40326e-05 -0.00119881)
(-0.0201526 -6.7075e-06 -0.0012049)
(-0.0216428 -3.92158e-05 -0.0012873)
(-0.0199245 -3.94145e-05 -0.00113624)
(-0.0216165 -7.89142e-05 -0.0010304)
(-0.0197927 -6.46372e-05 -0.000770505)
(-0.0216291 -0.000211997 -0.000585547)
(-0.0239892 0.000897567 -0.000613511)
(-0.0222614 0.000860281 -0.000750146)
(-0.0238132 0.000916836 -0.001009)
(-0.0231724 0.00084374 -0.00116684)
(-0.0252321 0.000868748 -0.00136417)
(-0.0250331 0.00076969 -0.00141822)
(-0.0272229 0.000818859 -0.00152052)
(-0.0271997 0.000773791 -0.00147783)
(-0.029475 0.000916002 -0.00146409)
(-0.0238232 0.000796531 -0.00076309)
(-0.0219711 0.000732472 -0.000888377)
(-0.0234095 0.00075458 -0.00119051)
(-0.0225093 0.00066379 -0.00128555)
(-0.0243756 0.000656175 -0.00144507)
(-0.0237364 0.00056407 -0.00139902)
(-0.0256785 0.000565025 -0.00138924)
(-0.0249625 0.000542199 -0.00128779)
(-0.0270112 0.000617506 -0.00129162)
(-0.0236145 0.000473104 -0.000855363)
(-0.0217577 0.000420869 -0.000988637)
(-0.0230998 0.000420273 -0.00129635)
(-0.0221439 0.000368471 -0.00137682)
(-0.0238759 0.000334104 -0.00150024)
(-0.0231232 0.000278977 -0.00138148)
(-0.0248918 0.000234351 -0.00130179)
(-0.0240569 0.000248682 -0.00109154)
(-0.0258328 0.000248964 -0.000986167)
(-0.0235595 5.29609e-05 -0.000893498)
(-0.0216345 3.93568e-05 -0.00100856)
(-0.022948 4.35241e-05 -0.00130052)
(-0.0219033 2.50843e-05 -0.00136621)
(-0.0236161 1.54769e-05 -0.00149284)
(-0.0228096 2.82588e-05 -0.00137192)
(-0.0245308 5.08416e-05 -0.00126801)
(-0.0236448 0.000134149 -0.000990282)
(-0.0252625 0.000254779 -0.000711241)
)
;

boundaryField
{
    inlet
    {
        type            calculated;
        value           nonuniform List<vector> 
12
(
(-0.0100061 1.0806e-06 8.34475e-05)
(-0.0100151 8.02632e-06 8.10669e-05)
(-0.0099931 3.01016e-06 9.48101e-05)
(-0.00999665 -1.10148e-05 0.000121335)
(-0.0100035 -2.00541e-05 8.56056e-05)
(-0.0100066 -1.25766e-06 6.78769e-05)
(-0.0100082 4.19699e-06 8.14531e-05)
(-0.0100018 -4.96565e-06 9.28604e-05)
(-0.0100026 -9.27509e-06 7.65999e-05)
(-0.00999918 6.55365e-07 7.75201e-05)
(-0.00999978 -6.36465e-06 8.17961e-05)
(-0.0100087 -9.37116e-06 8.32275e-05)
)
;
    }
    outlet
    {
        type            calculated;
        value           nonuniform 0();
    }
    wall
    {
        type            calculated;
        value           nonuniform List<vector> 
63
(
(-2.56929e-06 -9.27509e-06 7.65999e-05)
(8.20036e-07 6.55365e-07 7.75201e-05)
(2.22904e-07 -6.36465e-06 8.17961e-05)
(-8.72821e-06 -9.37116e-06 8.32275e-05)
(1.10137e-05 -3.50224e-06 5.90228e-05)
(4.77909e-06 -4.06032e-06 4.64988e-05)
(-3.11837e-07 7.55734e-06 5.07501e-05)
(-8.11211e-06 -5.96928e-06 0.00010601)
(8.74931e-06 3.91464e-07 6.1117e-05)
(2.82046e-06 -1.23993e-07 5.54895e-05)
(1.76445e-05 -1.51147e-05 6.20285e-05)
(1.06239e-05 8.50889e-06 0.000114637)
(1.65634e-05 -4.59228e-06 4.73888e-05)
(1.25244e-05 4.02723e-06 5.37044e-05)
(1.94586e-05 -2.93722e-06 8.9592e-05)
(1.09817e-05 3.91414e-06 7.20435e-05)
(5.414e-05 -1.2318e-05 0.00012769)
(3.36956e-05 1.98301e-05 5.17298e-05)
(-2.70481e-06 1.66865e-05 8.53131e-05)
(5.61931e-06 2.9341e-05 0.00010158)
(2.05963e-05 4.97393e-06 6.09567e-05)
(3.05847e-05 -1.92386e-05 8.77204e-05)
(1.09055e-05 -7.24203e-06 5.40243e-05)
(7.78299e-06 1.50225e-05 0.000113978)
(1.72708e-05 -3.58587e-06 4.4966e-05)
(2.77501e-05 2.80477e-06 6.85237e-05)
(5.09653e-05 -2.36771e-05 7.79682e-05)
(5.18273e-05 -1.43675e-05 0.000104876)
(7.13037e-05 5.21028e-07 9.90158e-05)
(3.34267e-05 -3.03014e-05 8.39127e-05)
(5.12635e-05 -8.77483e-06 3.83227e-05)
(8.66047e-05 9.86631e-06 9.03095e-05)
(5.21758e-05 -1.34729e-05 8.79532e-05)
(4.67114e-05 -4.57992e-05 8.96459e-05)
(5.31949e-05 -3.59602e-05 5.11929e-05)
(8.70431e-05 -9.84549e-06 8.52151e-05)
(-6.09466e-06 1.0806e-06 8.34475e-05)
(-3.45082e-06 -2.00541e-05 8.56056e-05)
(-2.56929e-06 -9.27509e-06 7.65999e-05)
(5.23955e-05 7.21086e-06 0.000120415)
(4.07312e-06 -6.90147e-06 6.51725e-05)
(1.10137e-05 -3.50224e-06 5.90228e-05)
(3.9809e-05 1.0033e-05 7.52903e-05)
(9.32773e-06 -2.874e-06 7.00277e-05)
(8.74931e-06 3.91464e-07 6.1117e-05)
(3.13968e-05 1.27229e-05 0.000156576)
(1.96379e-05 -1.13066e-05 0.000104444)
(1.65634e-05 -4.59228e-06 4.73888e-05)
(1.34644e-05 -1.81644e-06 0.000138335)
(3.03219e-05 -1.01604e-05 0.000146582)
(5.414e-05 -1.2318e-05 0.00012769)
(4.26112e-05 3.85896e-06 0.000105994)
(1.29418e-05 -4.3947e-06 8.41941e-05)
(2.05963e-05 4.97393e-06 6.09567e-05)
(6.16742e-05 -9.39095e-06 0.00012069)
(7.58429e-05 -1.41621e-05 0.000109788)
(1.72708e-05 -3.58587e-06 4.4966e-05)
(6.30067e-05 -8.40028e-06 0.000124649)
(6.6108e-05 -2.01699e-06 0.000115015)
(7.13037e-05 5.21028e-07 9.90158e-05)
(5.90601e-05 -7.53598e-06 9.86513e-05)
(5.31398e-05 -3.58769e-06 9.22843e-05)
(5.21758e-05 -1.34729e-05 8.79532e-05)
)
;
    }
    procBoundary4to0
    {
        type            processor;
        value           nonuniform List<vector> 
36
(
(-0.0234928 0.00126525 0.00021011)
(-0.0216211 0.0012299 -0.000133922)
(-0.022946 0.00137447 -0.000590539)
(-0.0219549 0.00131572 -0.000968668)
(-0.0235919 0.00138568 -0.00135335)
(-0.0228234 0.00131518 -0.00145471)
(-0.0244456 0.00137733 -0.00154269)
(-0.0236608 0.00138836 -0.00137708)
(-0.0253147 0.00155388 -0.00121959)
(-0.0230709 0.00118187 0.000212923)
(-0.0207881 0.00107702 -0.000101385)
(-0.0218156 0.00116748 -0.000468835)
(-0.0200017 0.00101653 -0.000727398)
(-0.0214461 0.000986553 -0.00100242)
(-0.0196851 0.000866636 -0.000934805)
(-0.0213136 0.000846513 -0.000896492)
(-0.0194337 0.000826285 -0.000622667)
(-0.0211846 0.000842576 -0.000171796)
(-0.0226104 0.000701116 0.000140855)
(-0.0201232 0.000609126 -0.000137523)
(-0.0209032 0.000617927 -0.000471888)
(-0.0186959 0.000497236 -0.000620058)
(-0.0200266 0.000442484 -0.000799375)
(-0.0179892 0.000380303 -0.000693189)
(-0.0195951 0.000326485 -0.000566459)
(-0.0175202 0.000304663 -0.000345829)
(-0.0193325 0.000246653 6.22781e-05)
(-0.0224819 6.57883e-05 0.000128536)
(-0.0199093 2.57267e-05 -0.000143501)
(-0.0206761 -1.83419e-06 -0.000471798)
(-0.0183872 -3.08959e-05 -0.000599651)
(-0.0197452 -5.63471e-05 -0.000756767)
(-0.0176716 -6.06326e-05 -0.00064184)
(-0.0193227 -9.29686e-05 -0.00055399)
(-0.0172721 -7.66549e-05 -0.000322677)
(-0.0191252 -5.1131e-05 -2.78249e-05)
)
;
    }
    procBoundary4to5
    {
        type            processor;
        value           nonuniform List<vector> 
12
(
(-0.0250766 0.00163181 -0.00114265)
(-0.018276 0.0008739 0.000167507)
(-0.0176806 0.000385662 3.23481e-05)
(-0.0176199 9.60112e-05 -2.40744e-06)
(-0.0269294 0.000989704 -0.00139471)
(-0.0205173 0.000648459 -0.000319314)
(-0.0191562 0.000519595 -5.00847e-05)
(-0.0197505 0.00026419 -0.000210078)
(-0.0295499 0.000619127 -0.00105579)
(-0.026146 0.000573991 -0.000612687)
(-0.0248212 0.000620704 -0.000315796)
(-0.0242147 0.000702938 -0.000295281)
)
;
    }
    procBoundary4to6
    {
        type            processor;
        value           nonuniform List<vector> 
27
(
(-0.0227377 -0.000547292 -0.000340945)
(-0.0202736 -0.000508622 -0.000496276)
(-0.0210236 -0.00054071 -0.000734863)
(-0.0189477 -0.000476518 -0.000808091)
(-0.0203475 -0.000480071 -0.000913825)
(-0.0185226 -0.000436182 -0.000827797)
(-0.0201665 -0.000490375 -0.000721764)
(-0.0183583 -0.000432364 -0.000552188)
(-0.0200121 -0.000444039 -0.00023173)
(-0.0232079 -0.000455501 -0.000797578)
(-0.0209621 -0.000427447 -0.000880871)
(-0.0219518 -0.000458772 -0.00111998)
(-0.020142 -0.000420006 -0.00111175)
(-0.0216789 -0.000434047 -0.00116085)
(-0.0200055 -0.000388713 -0.00102402)
(-0.0217896 -0.000422494 -0.00087222)
(-0.0200721 -0.000358148 -0.00069236)
(-0.0220066 -0.000382324 -0.000476928)
(-0.0236025 -0.000407295 -0.000888344)
(-0.0217354 -0.000374032 -0.000978473)
(-0.0230154 -0.000400342 -0.00124095)
(-0.02194 -0.00038033 -0.00128027)
(-0.0235984 -0.000389139 -0.00135409)
(-0.022648 -0.000342462 -0.00119878)
(-0.0242824 -0.000340068 -0.00101732)
(-0.0230507 -0.000269732 -0.000713907)
(-0.0245281 -0.000222755 -0.000321737)
)
;
    }
}


// ************************************************************************* //
