/*--------------------------------*- C++ -*----------------------------------*\
| =========                 |                                                 |
| \\      /  F ield         | OpenFOAM: The Open Source CFD Toolbox           |
|  \\    /   O peration     | Version:  4.x                                   |
|   \\  /    A nd           | Web:      www.OpenFOAM.org                      |
|    \\/     M anipulation  |                                                 |
\*---------------------------------------------------------------------------*/
FoamFile
{
    version     2.0;
    format      ascii;
    class       volVectorField;
    location    "47.5";
    object      GField;
}
// * * * * * * * * * * * * * * * * * * * * * * * * * * * * * * * * * * * * * //

dimensions      [1 -2 -1 0 0 0 0];

internalField   nonuniform List<vector> 
108
(
(96.1461 -2.92891 -1.81955)
(40.9672 -1.34241 -1.16927)
(97.5149 -3.07285 -1.72984)
(43.7005 -1.2485 -1.31704)
(99.3693 -2.29819 -0.855682)
(45.5765 -0.711938 -0.951131)
(100.996 -1.62184 -0.688543)
(46.0568 -0.697467 -0.921413)
(102.836 -1.58373 0.621576)
(94.3854 -5.32554 -1.5056)
(33.4803 -2.51078 -0.793794)
(92.2344 -5.47667 -1.11526)
(26.4725 -1.87484 -0.77378)
(90.9915 -4.04152 -0.393386)
(21.7081 -1.33883 -0.458037)
(91.2618 -3.04886 0.0400161)
(17.0883 -1.27375 -0.404574)
(91.6845 -1.86783 0.870766)
(94.1769 -2.96422 -1.32321)
(29.9059 -1.62637 -0.607296)
(89.7672 -3.31983 -0.538399)
(19.4893 -1.11866 -0.173171)
(87.9104 -2.87486 0.259975)
(12.1095 -0.817839 0.169061)
(87.6246 -1.65142 -0.448559)
(4.41842 -0.331219 0.192257)
(87.7254 0.428299 -0.554076)
(94.4356 -1.92135 -2.14377)
(29.8716 -0.508584 -0.817049)
(89.2152 -1.76195 -1.47568)
(18.0399 -0.710943 -0.741695)
(86.4478 -1.47943 -1.03386)
(7.77494 -0.421339 -0.222321)
(84.8598 0.243238 -0.716046)
(0.620381 -0.0533755 -0.0141418)
(84.4892 0.100958 0.206579)
(96.0519 -2.30932 0.592908)
(41.2832 -0.979579 0.210853)
(97.6622 -1.95659 0.650769)
(43.4119 -0.725819 -0.551041)
(98.7886 -1.54079 -0.0806188)
(45.073 -0.611212 -0.82001)
(100.247 -1.07777 0.0570017)
(44.1766 -0.0717322 -0.813457)
(100.079 -0.412252 0.464176)
(95.0978 -4.63212 1.2609)
(36.453 -2.4472 0.45768)
(94.2283 -4.86901 1.8623)
(33.3102 -1.73222 0.118665)
(93.5433 -3.77972 1.11513)
(29.9312 -1.18964 -0.246117)
(93.122 -2.32982 1.03486)
(25.2862 -0.663909 -0.248604)
(93.0505 -1.46826 1.23217)
(94.8142 -3.05479 1.72079)
(32.3537 -1.30688 0.685933)
(91.0237 -2.80977 2.15606)
(23.7464 -0.873857 0.485964)
(88.8616 -1.6341 1.61749)
(16.6051 -0.327866 0.261386)
(88.3664 -0.265343 1.53606)
(10.0084 -0.0213106 0.22857)
(88.5753 0.193761 0.944846)
(93.6395 -0.959455 1.24534)
(31.3813 0.0790802 1.01288)
(90.1254 -0.139101 2.42205)
(21.88 -0.0252358 0.642977)
(87.8095 -0.0972303 2.51648)
(14.4427 -0.242585 0.661004)
(87.3391 -0.155246 2.29524)
(9.01941 -0.200105 0.428045)
(88.3614 -0.163345 0.518765)
(96.4374 -2.22532 1.48975)
(45.7381 -1.14507 1.08148)
(101.626 -1.89049 2.23407)
(53.8585 -0.640677 0.82026)
(104.979 -1.11686 1.72185)
(58.259 -0.265799 0.561013)
(107.381 -0.711852 2.22933)
(61.8398 -0.297232 1.5551)
(111.315 -0.929285 3.01673)
(95.6264 -4.29296 1.55643)
(41.6383 -2.41323 0.919309)
(97.6198 -4.23184 2.29835)
(45.9963 -1.70244 0.925548)
(100.01 -2.77743 2.14173)
(48.7445 -1.27101 0.901538)
(102.062 -2.05835 2.59959)
(50.8407 -1.43326 1.19729)
(104.799 -2.02054 2.4238)
(94.5356 -2.96067 1.82339)
(39.0464 -1.32989 1.2429)
(94.7571 -2.86901 2.90118)
(39.9891 -1.21078 1.18329)
(96.0779 -1.69962 2.88004)
(41.5209 -0.516669 0.932086)
(97.9616 -0.610831 2.75751)
(43.3727 -0.582971 1.07267)
(100.246 -0.722912 2.60206)
(93.4072 -0.516147 1.57048)
(38.1391 -0.228703 1.0509)
(93.9052 -0.803091 2.29535)
(37.7036 -0.555665 0.970859)
(94.7207 -0.868521 2.22514)
(39.082 -0.826518 1.01849)
(97.2684 -1.04662 2.42739)
(42.2874 -0.922852 0.590303)
(99.9855 -1.23337 1.51956)
)
;

boundaryField
{
    inlet
    {
        type            calculated;
        value           uniform (67 0 0);
    }
    outlet
    {
        type            calculated;
        value           nonuniform 0();
    }
    wall
    {
        type            calculated;
        value           uniform (0 0 0);
    }
    procBoundary4to0
    {
        type            processor;
        value           nonuniform List<vector> 
36
(
(97.1052 -2.63584 -4.26712)
(40.2954 -1.17592 -2.72646)
(98.8316 -2.52802 -4.43109)
(43.4395 -0.844462 -2.62141)
(100.278 -1.81649 -3.46971)
(44.4902 -0.659324 -2.42106)
(101.245 -1.60145 -2.72849)
(43.4904 -0.0490558 -2.49915)
(101.175 -0.346567 -1.85617)
(95.9497 -5.13946 -4.88429)
(32.7005 -2.50704 -2.53785)
(93.6814 -5.81324 -4.9226)
(26.533 -1.98484 -1.88648)
(92.1247 -4.53374 -3.33737)
(20.1492 -1.52106 -1.30619)
(90.7507 -2.24303 -2.35131)
(12.5495 -1.14805 -1.06031)
(90.3375 0.0462572 -2.213)
(95.2385 -2.44522 -4.86942)
(28.6918 -1.08445 -2.3448)
(90.305 -2.40073 -4.17653)
(15.4462 -0.41052 -1.10613)
(86.577 -0.828249 -2.39803)
(4.29257 -0.0553415 -0.31998)
(83.9585 0.696977 -1.70811)
(3.38353e-05 1.6922e-06 1.61991e-06)
(81.2603 1.03281 -0.374037)
(95.0604 -0.47047 -4.59643)
(30.1527 0.10509 -2.61145)
(90.8648 0.521093 -4.70476)
(19.426 0.40544 -1.71796)
(89.4095 0.890826 -3.78048)
(12.5704 0.415869 -1.31322)
(88.8062 -0.180309 -2.68804)
(8.384 0.472492 -1.11701)
(88.538 -0.215208 -0.743328)
)
;
    }
    procBoundary4to5
    {
        type            processor;
        value           nonuniform List<vector> 
12
(
(45.4351 -0.923432 0.701339)
(10.0551 -1.21774 0.186637)
(7.26562e-05 -8.70137e-06 1.29852e-05)
(3.70569e-05 -3.05028e-06 3.27509e-06)
(41.9421 0.317241 -0.979015)
(21.4578 -0.953161 -0.233804)
(3.94983 -0.155907 0.150557)
(5.91092 -0.228893 0.513028)
(66.3731 -0.408027 2.21998)
(52.4778 -2.41624 1.15808)
(44.3515 -1.59078 1.23116)
(42.6371 -1.88774 0.709719)
)
;
    }
    procBoundary4to6
    {
        type            processor;
        value           nonuniform List<vector> 
27
(
(92.0698 0.970345 -1.77363)
(26.3876 0.610814 -0.557716)
(87.0741 1.05643 -1.19129)
(11.8756 0.214739 -0.380415)
(83.4102 0.366105 -0.633417)
(1.97633 0.0371922 -0.0749654)
(81.876 -0.619326 -0.284371)
(3.54368e-05 1.34179e-07 3.13809e-08)
(81.1505 -1.41479 -0.353611)
(92.9682 2.26681 3.01003)
(31.028 0.936581 0.975831)
(89.9018 2.52528 3.11653)
(22.0044 0.637568 0.960703)
(88.1714 1.74601 2.37191)
(14.3353 0.119257 0.652105)
(87.0343 0.795502 0.572198)
(7.49245 -0.0894232 0.618448)
(86.4725 0.322964 0.0680702)
(94.5962 2.18265 2.28652)
(40.1439 0.71891 0.961452)
(94.9402 1.63813 2.26954)
(40.2987 0.403867 0.654917)
(95.1617 0.622298 2.09218)
(40.1885 -0.256962 0.621915)
(95.4059 -0.553579 1.96373)
(38.3628 -0.783122 0.841324)
(97.0274 -0.795984 1.78256)
)
;
    }
}


// ************************************************************************* //
