/*--------------------------------*- C++ -*----------------------------------*\
| =========                 |                                                 |
| \\      /  F ield         | OpenFOAM: The Open Source CFD Toolbox           |
|  \\    /   O peration     | Version:  4.x                                   |
|   \\  /    A nd           | Web:      www.OpenFOAM.org                      |
|    \\/     M anipulation  |                                                 |
\*---------------------------------------------------------------------------*/
FoamFile
{
    version     2.0;
    format      ascii;
    class       volScalarField;
    location    "47.5";
    object      Qsource;
}
// * * * * * * * * * * * * * * * * * * * * * * * * * * * * * * * * * * * * * //

dimensions      [1 -1 -3 0 0 0 0];

internalField   nonuniform List<scalar> 
108
(
5.75119e+09
7.52666e+09
9.26289e+09
6.42035e+09
8.00648e+09
6.4482e+09
9.80368e+09
7.33295e+09
1.0523e+10
7.01806e+09
7.2982e+09
9.38931e+09
1.0043e+10
1.01172e+10
8.59464e+09
8.14429e+09
5.77714e+09
1.111e+10
6.68857e+09
1.02795e+10
8.31739e+09
9.37521e+09
8.12811e+09
6.31141e+09
7.3123e+09
1.03e+10
6.7443e+09
3.45807e+09
6.73287e+09
9.39923e+09
5.70844e+09
8.80502e+09
6.67618e+09
1.10316e+10
5.99411e+09
7.06847e+09
5.88951e+09
5.90923e+09
8.89121e+09
8.77091e+09
9.37093e+09
5.91128e+09
6.43134e+09
7.97492e+09
1.04337e+10
6.24689e+09
7.60079e+09
7.55611e+09
7.59423e+09
7.74245e+09
6.81328e+09
8.50759e+09
9.27018e+09
1.05042e+10
4.19563e+09
7.32445e+09
1.00302e+10
8.28961e+09
9.68043e+09
8.25392e+09
8.18555e+09
7.15279e+09
8.63615e+09
6.20479e+09
8.58445e+09
7.54362e+09
9.64825e+09
1.05231e+10
7.60781e+09
1.1838e+10
8.47112e+09
8.13977e+09
6.20992e+09
7.21269e+09
6.17315e+09
7.09379e+09
8.12424e+09
9.12076e+09
9.82722e+09
7.67878e+09
1.00676e+10
5.699e+09
9.4334e+09
7.96495e+09
6.30586e+09
8.32491e+09
8.19247e+09
8.25246e+09
6.72346e+09
9.4696e+09
6.04938e+09
7.86459e+09
9.28112e+09
7.58196e+09
7.54067e+09
7.35316e+09
8.21264e+09
8.37807e+09
7.90853e+09
8.06087e+09
7.40645e+09
7.51213e+09
8.36775e+09
9.25866e+09
9.93974e+09
5.80626e+09
5.60718e+09
7.94488e+09
)
;

boundaryField
{
    inlet
    {
        type            calculated;
        value           uniform 0;
    }
    outlet
    {
        type            calculated;
        value           nonuniform 0();
    }
    wall
    {
        type            calculated;
        value           uniform 0;
    }
    procBoundary4to0
    {
        type            processor;
        value           nonuniform List<scalar> 
36
(
5.18827e+09
5.40085e+09
7.61489e+09
5.62365e+09
7.93986e+09
8.21818e+09
6.76382e+09
4.76749e+09
6.89949e+09
5.1368e+09
9.59552e+09
9.09281e+09
8.08624e+09
7.19958e+09
6.62606e+09
1.04298e+10
7.18191e+09
6.92871e+09
5.18865e+09
5.58417e+09
9.05236e+09
6.10253e+09
8.69502e+09
8.40127e+09
8.24283e+09
4.9445e+09
9.33351e+09
4.82809e+09
6.73323e+09
9.83444e+09
1.02325e+10
5.51459e+09
9.82805e+09
8.5685e+09
5.56475e+09
2.62062e+09
)
;
    }
    procBoundary4to5
    {
        type            processor;
        value           nonuniform List<scalar> 
12
(
7.10344e+09
8.10921e+09
8.51228e+09
1.02777e+10
7.68333e+09
6.19784e+09
7.41361e+09
5.3004e+09
3.71928e+09
7.47889e+09
6.53521e+09
7.63341e+09
)
;
    }
    procBoundary4to6
    {
        type            processor;
        value           nonuniform List<scalar> 
27
(
9.9534e+09
8.95443e+09
6.08379e+09
7.98946e+09
1.10714e+10
6.08244e+09
8.70485e+09
6.66871e+09
9.96437e+09
7.34952e+09
9.00279e+09
9.65964e+09
8.6386e+09
6.67163e+09
7.89463e+09
7.93536e+09
6.11913e+09
9.5741e+09
5.72891e+09
5.8222e+09
8.25478e+09
7.44866e+09
7.99631e+09
6.93669e+09
1.11361e+10
9.13137e+09
5.3791e+09
)
;
    }
}


// ************************************************************************* //
