/*--------------------------------*- C++ -*----------------------------------*\
  =========                 |
  \\      /  F ield         | OpenFOAM: The Open Source CFD Toolbox
   \\    /   O peration     | Website:  https://openfoam.org
    \\  /    A nd           | Version:  4.x
     \\/     M anipulation  |
\*---------------------------------------------------------------------------*/
FoamFile
{
    version     2.0;
    format      ascii;
    class       vectorField;
    location    0;
    object      v;
}
// * * * * * * * * * * * * * * * * * * * * * * * * * * * * * * * * * * * * * //

325
(
( 5.57111e-07 5.84465e-08 -1.35796e-07 )  
( 8.23898e-07 -3.26905e-07 -8.80197e-08 )  
( -1.86446e-06 -4.2023e-07 1.12689e-07 )  
( 7.02932e-07 -3.02758e-07 -5.76239e-08 )  
( 3.82657e-07 -4.7207e-07 -2.11879e-08 )  
( 1.03621e-06 -3.24318e-07 -2.5025e-07 )  
( 4.31025e-07 -3.8751e-08 -6.05237e-08 )  
( 3.87819e-07 -1.05806e-07 -1.63737e-07 )  
( -1.94277e-06 -2.90416e-07 3.33478e-09 )  
( 4.43538e-07 4.69545e-08 -6.44561e-08 )  
( -2.0596e-06 1.95416e-09 2.38346e-07 )  
( -1.4837e-06 -2.55048e-07 8.10616e-08 )  
( -1.02135e-06 -5.83956e-07 -5.18584e-08 )  
( -2.08076e-06 -8.158e-08 4.31739e-07 )  
( -2.28185e-05 1.40955e-05 1.05162e-05 )  
( 2.79852e-07 -4.03046e-07 -1.32405e-08 )  
( 5.34392e-07 -2.46772e-07 -3.09557e-08 )  
( 9.44465e-07 -3.29992e-07 -2.38738e-07 )  
( 9.30765e-07 -3.49511e-07 -1.76588e-07 )  
( -5.31904e-07 -5.7231e-07 -3.2602e-08 )  
( 5.179e-07 -3.93522e-07 -3.27451e-08 )  
( -8.14902e-07 -5.3819e-07 -1.24693e-07 )  
( -2.00246e-06 -4.79607e-07 4.70205e-08 )  
( 3.89359e-07 -5.02817e-07 -5.67502e-08 )  
( 5.33334e-07 -1.69871e-07 -2.43359e-08 )  
( -1.69105e-06 -6.27522e-07 1.2213e-08 )  
( 8.57375e-07 -1.3843e-07 -1.97095e-07 )  
( -1.8076e-06 -2.87223e-07 1.30758e-07 )  
( 7.66547e-07 -2.63552e-07 -8.59215e-08 )  
( -9.12251e-07 -2.49103e-07 5.27605e-09 )  
( 4.99538e-07 -3.26258e-07 3.52482e-08 )  
( 1.08292e-06 -2.85027e-07 -1.93031e-07 )  
( -3.90541e-07 -1.61053e-07 -1.2412e-07 )  
( 1.0638e-06 -1.9632e-07 -2.29527e-07 )  
( 9.87345e-07 -2.9409e-07 -1.06953e-07 )  
( 5.10933e-07 -4.87132e-10 -7.01606e-08 )  
( 8.91212e-07 -2.32586e-07 -1.34207e-07 )  
( -2.20752e-07 -7.50683e-07 -1.74164e-07 )  
( 5.23763e-08 -6.94751e-07 -5.72469e-08 )  
( -9.26558e-07 -4.53966e-07 3.92968e-08 )  
( 6.01809e-07 4.15189e-09 -1.07499e-07 )  
( 9.92441e-07 -2.03464e-07 -2.44054e-07 )  
( 7.86662e-07 -2.05435e-07 -1.69254e-07 )  
( 9.01174e-07 -3.25548e-07 -1.47254e-07 )  
( 3.30137e-07 -2.58434e-07 -1.45881e-07 )  
( -9.6905e-07 -5.37266e-07 -5.74494e-09 )  
( -1.68086e-07 -7.88206e-07 -2.16865e-07 )  
( 6.97954e-07 -3.69151e-07 -1.67892e-07 )  
( 2.25408e-08 -3.98006e-07 -1.95235e-07 )  
( 7.13233e-07 -1.76167e-07 -4.24743e-09 )  
( 8.88732e-07 -1.89545e-07 -1.40828e-07 )  
( 7.12111e-07 -3.43309e-07 -8.40032e-09 )  
( -5.59108e-07 -6.23392e-07 -9.39949e-08 )  
( -9.39256e-07 -6.74725e-07 -2.25832e-07 )  
( -4.08821e-07 -1.60259e-07 5.60227e-08 )  
( 8.22646e-07 -4.04944e-07 -2.16971e-07 )  
( -4.36082e-07 -5.66064e-07 1.95298e-08 )  
( 2.47149e-07 1.16329e-08 -5.2458e-08 )  
( -1.15768e-06 -6.93352e-07 -1.32628e-07 )  
( 2.67319e-07 -4.20901e-09 -6.11317e-08 )  
( 8.9027e-07 -3.04134e-07 -7.47772e-08 )  
( 3.99904e-07 -8.14373e-08 -1.22269e-07 )  
( 5.17401e-07 -7.58277e-08 -1.22665e-07 )  
( -1.27325e-06 -6.78171e-07 4.26396e-08 )  
( 9.31311e-07 -1.4914e-07 -2.38068e-07 )  
( -1.42216e-06 -3.01603e-08 -1.33699e-08 )  
( -1.63787e-06 -3.03746e-07 -1.51253e-08 )  
( -4.19804e-07 -7.07275e-07 -1.35489e-07 )  
( -1.93032e-06 -2.49457e-07 8.46612e-08 )  
( 7.59571e-07 -1.14287e-07 -2.02925e-08 )  
( 8.47143e-07 -1.97173e-07 -2.37029e-07 )  
( 9.54203e-07 -3.47615e-07 -2.89198e-08 )  
( -1.88783e-07 -2.10457e-07 -1.23471e-07 )  
( 4.73907e-07 -2.67881e-07 -3.16434e-08 )  
( 9.24829e-07 -3.13086e-07 -1.85306e-07 )  
( -7.0111e-07 -6.12613e-07 -2.21158e-08 )  
( -7.54046e-07 -8.14101e-08 1.05452e-08 )  
( -1.90151e-06 -1.72575e-07 2.5011e-07 )  
( 9.81561e-07 -2.63628e-07 -2.3628e-07 )  
( -1.25819e-06 -4.92574e-07 4.24269e-09 )  
( 7.82752e-07 -3.50741e-07 -1.88603e-07 )  
( -1.33568e-06 -6.82908e-07 2.89332e-07 )  
( -6.36412e-07 -6.32366e-07 4.84481e-08 )  
( -1.7209e-06 -4.51313e-07 8.15709e-08 )  
( -8.69997e-07 -5.68133e-07 -5.36659e-08 )  
( 7.86895e-07 -1.8652e-07 -3.70369e-08 )  
( -1.42711e-06 -5.63107e-08 5.75271e-08 )  
( 1.96084e-07 -3.10415e-08 -6.44059e-08 )  
( 7.04441e-07 -2.88628e-07 -4.94392e-08 )  
( -6.58727e-07 7.91398e-08 2.61901e-07 )  
( 3.95533e-07 1.87215e-08 -1.22796e-07 )  
( 7.07737e-07 -2.5485e-07 -4.2649e-08 )  
( -2.48469e-08 -5.19556e-07 -3.37129e-07 )  
( 3.8439e-07 -9.12547e-08 -1.37811e-07 )  
( 3.81152e-07 -3.23993e-08 -8.42994e-08 )  
( 7.47283e-07 -4.96385e-07 -9.55736e-08 )  
( 5.47927e-07 -2.27434e-07 -1.60085e-07 )  
( 6.4141e-07 -1.41269e-07 -1.83533e-07 )  
( -1.48613e-06 -5.31762e-07 4.46943e-07 )  
( 2.09572e-07 -2.79521e-07 3.5264e-08 )  
( 4.20593e-08 -2.60729e-07 7.00077e-08 )  
( -8.84384e-08 -1.71155e-07 -8.77757e-08 )  
( -5.11624e-07 -2.91136e-07 2.7021e-08 )  
( 5.46274e-07 -9.43593e-08 -1.87154e-07 )  
( 2.92772e-07 -1.58505e-07 5.39643e-08 )  
( 5.01916e-07 -4.37061e-08 -7.10625e-08 )  
( -1.68343e-07 -3.33501e-07 1.83865e-07 )  
( 4.06549e-07 -1.6043e-07 1.52635e-07 )  
( -1.46326e-06 -2.01146e-07 -2.66746e-08 )  
( 6.48229e-07 -9.57739e-08 -1.35765e-07 )  
( 3.95078e-07 -1.98426e-07 4.39713e-08 )  
( 5.95104e-07 -5.40745e-08 -6.51571e-08 )  
( -3.95309e-07 -1.26304e-07 3.35387e-08 )  
( -1.10621e-06 -3.32047e-07 1.22541e-07 )  
( -9.70337e-07 2.97465e-07 4.72673e-07 )  
( 7.43729e-07 -1.67059e-07 -1.2374e-07 )  
( 7.34759e-07 -1.12969e-07 1.56861e-08 )  
( -3.27225e-07 -1.91556e-07 4.79008e-08 )  
( 2.65328e-07 2.12028e-08 3.23804e-08 )  
( -5.94858e-07 -8.84572e-07 1.38615e-07 )  
( 6.55952e-07 -4.03964e-08 -5.70257e-08 )  
( -3.52802e-07 -2.77778e-07 1.13941e-08 )  
( -7.65693e-07 -1.31077e-07 4.91811e-08 )  
( -1.62167e-08 -1.17422e-07 3.75341e-08 )  
( 6.7119e-07 -1.74235e-07 -2.81669e-08 )  
( -1.30754e-06 -3.10825e-07 3.1429e-08 )  
( -9.63841e-07 -4.38615e-07 -3.84865e-08 )  
( -6.65813e-07 -4.27982e-07 -1.62922e-07 )  
( 3.08069e-07 -4.43397e-08 -7.37509e-08 )  
( 6.47355e-07 -5.12002e-08 -8.19069e-08 )  
( 5.47614e-07 -2.80681e-08 -1.48919e-07 )  
( -9.14335e-07 -6.09158e-07 -1.02546e-07 )  
( 9.10388e-08 -3.42128e-07 5.48335e-08 )  
( 5.2839e-07 -9.18596e-09 -3.22883e-08 )  
( -1.78557e-07 -4.09179e-07 1.51786e-07 )  
( -9.09047e-07 -4.2917e-07 4.12923e-08 )  
( 6.83795e-07 -3.01758e-07 -1.42677e-07 )  
( -3.71459e-07 1.74836e-08 7.64436e-08 )  
( -1.68189e-06 8.66091e-08 -4.29036e-07 )  
( 5.21089e-07 -1.77317e-07 7.66014e-08 )  
( 4.33138e-07 -9.60204e-08 -4.04751e-08 )  
( -7.90739e-07 -5.02655e-07 -1.08647e-07 )  
( 5.59755e-07 -1.579e-07 -9.85014e-08 )  
( 6.95073e-07 -1.91998e-07 9.63404e-09 )  
( 6.6045e-07 -2.1218e-07 -5.47481e-08 )  
( 5.17579e-07 -2.06206e-07 6.26337e-08 )  
( -8.95242e-07 -3.52509e-07 -1.38464e-08 )  
( 3.27086e-07 -5.46483e-08 -3.56441e-08 )  
( 4.35989e-07 -8.05191e-09 -1.06096e-07 )  
( 5.54809e-07 -8.27264e-08 -1.11907e-07 )  
( 4.37844e-07 -1.28999e-07 -3.35132e-08 )  
( 7.12987e-08 -4.36236e-07 2.02332e-09 )  
( -1.55568e-06 2.4451e-08 -2.2572e-08 )  
( -6.57139e-07 -2.63193e-07 -4.44043e-08 )  
( 1.75028e-07 -4.29018e-07 -1.23789e-07 )  
( 9.01178e-07 -6.57049e-08 -1.50112e-07 )  
( 8.73181e-07 -2.45638e-07 -1.69075e-07 )  
( 2.84065e-07 -1.79413e-08 -1.58534e-08 )  
( 6.60236e-07 -1.8803e-07 2.98857e-09 )  
( -9.4431e-07 -5.62876e-07 -7.98622e-08 )  
( 2.20949e-07 -1.49266e-07 5.26022e-08 )  
( 7.95044e-07 -1.85622e-07 -1.64714e-07 )  
( 6.84551e-07 -7.72667e-08 -2.10346e-07 )  
( -4.53252e-07 -1.13815e-07 1.86658e-07 )  
( 7.9451e-07 -7.77164e-08 -6.7389e-08 )  
( -9.96521e-07 -4.86939e-07 4.37121e-08 )  
( 4.26086e-07 3.18868e-09 -1.08674e-07 )  
( -1.29877e-06 -4.73278e-07 -6.55543e-08 )  
( -3.93093e-07 -2.85188e-07 -9.68711e-08 )  
( 2.04164e-07 -3.15657e-07 1.10589e-07 )  
( -1.33407e-06 -3.48403e-07 1.58039e-07 )  
( 7.63014e-07 -2.46168e-07 -1.17082e-07 )  
( 3.08674e-07 -3.66625e-07 8.16624e-08 )  
( 5.47264e-07 -2.3566e-07 -7.26546e-08 )  
( -6.50966e-08 -2.09628e-07 1.00993e-07 )  
( 3.76373e-07 2.37794e-08 -7.23775e-08 )  
( -1.69027e-06 -3.545e-07 4.86187e-08 )  
( 4.55154e-07 -6.85073e-08 -2.16559e-08 )  
( -2.07072e-07 -9.16413e-08 1.75471e-08 )  
( -1.15707e-06 -2.78603e-07 1.67555e-08 )  
( 3.01287e-08 -5.80312e-07 -1.32139e-08 )  
( -6.70239e-07 -4.52157e-07 -3.46615e-08 )  
( 7.71496e-08 -2.31522e-07 1.90561e-08 )  
( -6.27112e-07 -5.23927e-07 4.00086e-08 )  
( 8.03499e-07 -2.02292e-07 4.89428e-08 )  
( 3.99989e-07 -1.21742e-08 2.7905e-08 )  
( 7.38483e-07 -1.49815e-07 -1.83909e-07 )  
( -5.08318e-07 -4.13454e-07 -2.14872e-08 )  
( 6.91477e-07 -1.4026e-07 -1.61467e-07 )  
( 5.17382e-07 -6.51922e-08 -2.61615e-08 )  
( 2.52996e-07 2.47068e-08 -6.33081e-08 )  
( 3.39229e-07 -1.35809e-08 -2.16912e-08 )  
( 3.84386e-07 -6.34073e-07 -2.31126e-07 )  
( -1.66134e-06 -2.52676e-07 -2.45149e-07 )  
( -1.08739e-06 -2.23873e-07 -1.23783e-07 )  
( 7.38843e-07 -2.42696e-07 -1.87034e-08 )  
( 1.97436e-07 -1.07923e-07 -9.99245e-10 )  
( 1.02288e-07 -2.00224e-07 1.58297e-07 )  
( -1.70912e-06 -3.80545e-07 5.2951e-08 )  
( 4.7973e-07 -7.98225e-09 -1.30643e-07 )  
( 7.44252e-07 -2.33882e-07 -1.98485e-07 )  
( 4.11211e-07 -1.62536e-07 -1.68724e-08 )  
( -9.64053e-07 -4.56062e-07 -3.84897e-08 )  
( 2.60222e-07 -3.8987e-08 -3.91262e-08 )  
( -8.18249e-07 -6.17916e-07 8.75402e-08 )  
( -5.2196e-07 -4.02039e-08 7.96751e-08 )  
( 5.86388e-07 -1.10954e-07 -1.35251e-08 )  
( 6.42346e-07 -1.6139e-07 -1.75934e-08 )  
( -6.34059e-07 -3.60678e-07 -8.17171e-08 )  
( -9.01687e-07 -2.36303e-07 -2.73505e-08 )  
( 4.26184e-07 -1.60451e-08 9.77423e-09 )  
( -4.95355e-07 -1.84709e-07 7.54373e-08 )  
( -7.68636e-07 -6.6476e-07 -1.81698e-07 )  
( -8.01063e-07 -6.32978e-09 8.93089e-08 )  
( 4.78477e-07 -5.7275e-08 -1.64103e-07 )  
( -1.46192e-06 -5.76336e-07 -8.59479e-08 )  
( 2.74059e-07 2.60788e-08 -6.35247e-08 )  
( 5.55226e-07 -1.01685e-07 -1.2465e-07 )  
( -7.6125e-07 -3.15303e-07 4.90541e-08 )  
( 4.93837e-07 -1.65787e-07 5.76839e-08 )  
( 4.90267e-07 -9.33845e-08 -5.1237e-08 )  
( 7.26288e-07 -3.51992e-07 2.49707e-08 )  
( -2.84701e-07 -1.87189e-07 -1.48653e-08 )  
( -8.79976e-07 -3.09799e-08 1.07201e-07 )  
( 5.13624e-07 -1.30666e-07 -2.94882e-08 )  
( -1.00005e-06 -5.06283e-08 1.90232e-07 )  
( 6.37614e-07 -9.58591e-08 -4.7708e-09 )  
( -4.50474e-08 -5.90619e-07 -8.789e-08 )  
( 8.57754e-07 -1.08016e-07 -1.9248e-07 )  
( -1.65122e-07 -2.72095e-07 1.53052e-07 )  
( 3.03635e-07 -2.85018e-07 8.4628e-08 )  
( 5.90131e-07 5.67131e-08 -1.353e-07 )  
( 7.51716e-07 -2.08147e-07 -9.15465e-08 )  
( -3.24223e-08 -1.06202e-07 3.47559e-08 )  
( -1.07784e-06 -1.00906e-06 -2.40661e-07 )  
( -5.92449e-07 -3.85702e-07 -2.55129e-08 )  
( -8.17144e-07 -2.92794e-07 7.82657e-08 )  
( 5.08961e-07 -8.12404e-08 -8.31339e-08 )  
( -4.16721e-07 -4.42925e-08 9.23848e-08 )  
( -7.74803e-07 -3.76201e-07 -1.7443e-07 )  
( 4.70121e-07 -1.31959e-07 9.68314e-08 )  
( 3.37105e-07 -3.70573e-08 -1.42432e-07 )  
( -1.02032e-06 -4.04716e-07 -8.71601e-08 )  
( -1.2899e-07 -1.19475e-07 1.24641e-07 )  
( 4.43588e-07 -8.77587e-08 -9.34089e-08 )  
( 5.39501e-07 -1.02119e-07 2.07013e-08 )  
( 4.50999e-07 -1.88587e-07 -9.84047e-08 )  
( -6.93401e-07 -6.66849e-07 1.56657e-08 )  
( 5.69094e-07 -7.28686e-08 -1.18661e-08 )  
( -2.22818e-07 -1.66685e-07 1.01111e-07 )  
( 5.98425e-07 -5.23881e-08 -1.88367e-07 )  
( 2.53139e-07 2.77882e-08 -5.86443e-08 )  
( 2.51943e-07 1.17419e-08 -1.52585e-07 )  
( -2.3548e-07 -5.98471e-08 -1.1324e-08 )  
( -1.09959e-06 -3.62338e-07 -1.85975e-08 )  
( 3.06716e-07 -1.00615e-07 8.69203e-08 )  
( 1.92033e-07 -1.78126e-07 7.8268e-08 )  
( -1.26319e-07 -1.15094e-07 -5.93082e-08 )  
( 7.00985e-07 -5.4778e-08 -2.88353e-09 )  
( 6.21805e-07 -1.04379e-07 -8.32766e-09 )  
( -8.58083e-08 -1.1536e-07 6.17737e-08 )  
( -1.77778e-06 -5.08173e-07 -4.95945e-09 )  
( -5.49425e-08 -6.19438e-08 7.35615e-08 )  
( 2.73977e-07 -2.21992e-08 -4.67493e-08 )  
( -3.58351e-07 1.16078e-08 1.82745e-08 )  
( 4.06702e-07 -7.45728e-08 -1.57638e-09 )  
( -4.60514e-07 -2.10913e-07 -1.15873e-08 )  
( 3.06649e-07 -1.13686e-07 -3.63043e-08 )  
( 3.32384e-07 1.03488e-08 -5.59189e-08 )  
( 3.57296e-07 -1.05571e-07 7.77797e-09 )  
( -1.13641e-06 -2.13104e-07 -5.73032e-08 )  
( -3.2937e-07 4.24911e-09 -1.09806e-08 )  
( 2.84642e-07 -9.41043e-08 9.03615e-09 )  
( 4.56061e-07 -8.58777e-08 -1.64172e-07 )  
( -3.91009e-07 -7.23784e-08 -2.01488e-08 )  
( 3.58307e-07 -1.24795e-07 -1.72127e-09 )  
( -6.501e-07 -6.00483e-08 1.0794e-07 )  
( -8.78474e-08 -6.10423e-08 1.07394e-07 )  
( 6.89607e-08 -5.60024e-08 1.88998e-08 )  
( 5.90063e-07 -1.87088e-07 -5.28731e-08 )  
( 3.56042e-07 -1.98648e-07 5.18565e-08 )  
( 4.26641e-07 -1.13701e-07 -2.8016e-08 )  
( -4.55556e-07 -1.82936e-07 1.09523e-07 )  
( 1.33755e-07 -8.23937e-08 4.02585e-08 )  
( -6.5266e-07 -1.91735e-08 3.81147e-08 )  
( 5.35778e-07 -1.06453e-07 -9.79976e-08 )  
( 2.47784e-07 -1.29958e-07 3.90691e-08 )  
( 4.85546e-07 2.18312e-08 -6.47169e-08 )  
( 2.07113e-07 -2.83431e-08 -3.09591e-08 )  
( -9.57053e-07 -2.36644e-07 -6.67552e-08 )  
( -1.81222e-07 -2.8115e-08 5.32986e-08 )  
( 2.99153e-07 -8.00097e-09 -1.13137e-07 )  
( 3.201e-08 -1.02377e-07 1.03901e-07 )  
( -2.62902e-07 -1.17851e-07 7.81223e-08 )  
( -3.25353e-07 -1.54625e-07 -1.42112e-08 )  
( -6.74197e-07 -2.23251e-07 1.3157e-07 )  
( -9.18209e-08 -8.04445e-08 8.14972e-08 )  
( -2.62918e-07 -1.97792e-07 1.01096e-07 )  
( 1.33462e-07 -5.15552e-08 8.73875e-08 )  
( 3.37417e-07 -6.33034e-08 -9.00055e-10 )  
( 2.44132e-08 -1.02067e-07 3.49523e-08 )  
( 3.36748e-07 -1.2882e-07 8.79625e-09 )  
( 3.1962e-07 -7.30788e-08 -2.9362e-08 )  
( 2.33519e-07 -9.20754e-08 5.26417e-08 )  
( 1.78384e-07 -6.42604e-08 1.66173e-08 )  
( -3.21491e-07 -3.06719e-08 9.47136e-08 )  
( -1.84173e-07 -7.25179e-08 4.52444e-08 )  
( 3.89089e-07 -8.99934e-08 -5.04825e-08 )  
( -1.2152e-07 -5.31626e-08 6.62013e-08 )  
( 2.78058e-07 2.62584e-08 -3.04686e-08 )  
( 1.94826e-07 -2.70705e-08 -3.17591e-08 )  
( 2.52678e-07 -6.66875e-08 9.64908e-08 )  
( -2.16393e-08 -7.82825e-08 3.45597e-08 )  
( 1.39336e-07 -3.4365e-08 1.05413e-08 )  
( 3.25287e-07 -1.01728e-07 -6.23624e-08 )  
( -5.97319e-06 2.91011e-06 9.56301e-08 )  
( 2.7702e-07 -1.25977e-07 1.42806e-08 )  
( -7.70732e-08 -6.70125e-08 4.23257e-08 )  
( -5.14168e-07 -1.52491e-07 -1.42589e-08 )  
( 4.31061e-07 -4.34491e-08 -7.39035e-08 )  
( 1.29417e-07 -2.63265e-08 1.92095e-08 )  
( -5.33509e-07 -1.88829e-07 2.20025e-08 )  
( -9.91435e-07 -1.09748e-07 5.13463e-08 )  
( -4.98187e-07 -1.77265e-07 5.8061e-08 )  
( -1.57447e-07 -7.21124e-08 8.55789e-08 )  
)
