/*--------------------------------*- C++ -*----------------------------------*\
  =========                 |
  \\      /  F ield         | OpenFOAM: The Open Source CFD Toolbox
   \\    /   O peration     | Website:  https://openfoam.org
    \\  /    A nd           | Version:  4.x
     \\/     M anipulation  |
\*---------------------------------------------------------------------------*/
FoamFile
{
    version     2.0;
    format      ascii;
    class       vectorField;
    location    0;
    object      v;
}
// * * * * * * * * * * * * * * * * * * * * * * * * * * * * * * * * * * * * * //

356
(
( 7.08242e-09 -1.90329e-09 3.43259e-09 )  
( 3.9199e-09 1.7584e-10 1.3647e-09 )  
( -1.25681e-08 4.55515e-09 1.91374e-08 )  
( 1.3317e-09 1.2363e-09 1.4937e-09 )  
( -9.811e-10 -7.98311e-10 1.43632e-09 )  
( 8.61806e-10 9.86484e-10 2.73174e-09 )  
( 1.22365e-09 1.23194e-10 5.643e-09 )  
( 6.96359e-10 4.88569e-10 8.0609e-10 )  
( 1.56821e-09 7.7952e-10 1.78373e-09 )  
( 2.66846e-09 8.49688e-10 1.53798e-09 )  
( 4.74134e-10 4.32812e-10 4.00363e-10 )  
( -4.16418e-09 2.38548e-10 -4.05208e-09 )  
( -5.91666e-10 2.01085e-10 4.37814e-09 )  
( 1.0099e-10 -6.66482e-10 6.89111e-09 )  
( 3.72414e-09 3.12954e-10 2.14737e-09 )  
( -1.97463e-09 -2.99958e-10 2.3033e-09 )  
( 5.53249e-10 -1.41394e-10 5.15752e-09 )  
( 1.01535e-09 -1.49256e-09 5.61532e-09 )  
( 3.34073e-09 -1.02902e-09 1.76398e-09 )  
( -7.25112e-10 -1.9188e-09 7.44838e-09 )  
( 1.90199e-09 -1.49393e-09 6.12009e-09 )  
( -7.61177e-09 8.9915e-10 1.25666e-08 )  
( 3.75768e-09 5.93162e-10 1.58285e-09 )  
( 2.04971e-09 -9.503e-10 2.01906e-09 )  
( -2.09296e-09 -5.77743e-11 4.87774e-09 )  
( 3.0272e-09 3.36852e-10 1.83817e-09 )  
( 2.86522e-09 6.91175e-10 2.0229e-09 )  
( -2.07288e-09 -1.46644e-09 3.78403e-09 )  
( 1.36886e-09 8.81638e-10 1.34834e-09 )  
( 4.44443e-09 6.9825e-10 3.72755e-09 )  
( -8.60114e-10 -1.73601e-09 3.21751e-09 )  
( 3.06388e-09 -1.08326e-09 2.03877e-09 )  
( -6.65517e-09 3.40198e-09 1.17533e-08 )  
( 1.12201e-09 6.76977e-10 1.14622e-09 )  
( 1.76175e-09 -5.40921e-10 1.49607e-09 )  
( -2.36863e-10 4.53452e-10 1.58648e-09 )  
( 1.85155e-09 -1.31581e-09 3.41389e-09 )  
( -6.35065e-11 1.03629e-09 2.3757e-09 )  
( 1.58033e-09 1.51223e-11 1.70712e-10 )  
( 2.65053e-09 9.02835e-11 1.90522e-09 )  
( 7.83373e-10 2.70776e-10 5.49236e-10 )  
( 7.34948e-10 -1.42867e-09 2.20462e-09 )  
( -2.38163e-11 -8.86305e-10 1.99944e-09 )  
( 1.55565e-09 -3.88071e-09 7.06532e-09 )  
( 2.37954e-10 -1.21353e-09 3.35463e-09 )  
( 1.14986e-09 -2.07195e-10 -2.54366e-10 )  
( -6.82469e-09 -3.92494e-09 6.64903e-09 )  
( 2.86829e-10 7.80121e-10 1.61017e-09 )  
( -1.5671e-10 -6.81783e-10 2.63822e-09 )  
( 3.59528e-09 -8.35309e-10 -2.32896e-09 )  
( 3.14049e-09 -2.91287e-10 1.93441e-09 )  
( 6.73351e-11 -4.99672e-11 2.13891e-10 )  
( 5.82456e-10 -4.09543e-10 3.09277e-09 )  
( 3.85346e-09 -5.11605e-10 2.6551e-09 )  
( 3.30926e-09 -3.00507e-10 1.37816e-09 )  
( 3.98761e-09 -7.74248e-10 2.05552e-09 )  
( 3.36901e-09 -5.80924e-10 6.03539e-10 )  
( 3.69843e-09 -6.07209e-10 4.04284e-09 )  
( 1.63263e-09 6.57918e-10 1.58364e-09 )  
( 2.9593e-09 1.17679e-10 1.52278e-09 )  
( 8.52643e-10 6.70901e-10 1.17776e-09 )  
( -1.24181e-09 -1.99998e-10 1.0943e-09 )  
( 1.73297e-09 8.96386e-10 7.33922e-10 )  
( 2.66526e-09 -4.37518e-10 3.86287e-10 )  
( 1.96628e-09 -1.90855e-10 3.30549e-10 )  
( 4.31866e-10 1.71786e-10 5.88365e-10 )  
( -2.34611e-09 6.46417e-09 1.04304e-08 )  
( 1.25028e-09 -4.5142e-10 1.98546e-09 )  
( 1.33247e-09 -2.04483e-10 2.47254e-09 )  
( 8.71174e-11 1.57584e-10 1.23321e-10 )  
( 2.86047e-09 2.85557e-10 3.16136e-09 )  
( 1.14267e-10 -2.724e-10 5.0423e-09 )  
( 4.17126e-09 -8.08423e-10 2.57578e-09 )  
( -4.6732e-10 -3.58086e-11 1.84226e-09 )  
( 8.77379e-10 7.22385e-10 1.43576e-09 )  
( 2.69202e-09 1.36484e-09 1.85041e-09 )  
( -1.18587e-09 4.966e-10 1.69734e-09 )  
( 4.16777e-09 3.04894e-10 2.00458e-09 )  
( 9.93119e-10 -9.10038e-10 3.09565e-09 )  
( 1.69671e-09 -9.7823e-10 2.89878e-09 )  
( 8.67013e-10 7.05981e-11 1.12107e-10 )  
( 1.15875e-09 1.17752e-09 1.50503e-09 )  
( 3.34507e-09 -1.1107e-09 1.82302e-09 )  
( 3.54196e-09 5.74106e-10 1.40084e-09 )  
( 1.36385e-09 8.40198e-10 1.08116e-09 )  
( 3.18544e-09 3.08111e-10 2.61078e-09 )  
( 2.37378e-09 9.85264e-10 1.64908e-09 )  
( 1.20808e-09 8.3544e-11 4.0293e-09 )  
( 4.66376e-10 1.62924e-10 6.97454e-10 )  
( 4.14742e-10 2.18324e-10 9.90381e-10 )  
( 2.07587e-09 -6.78646e-10 3.90433e-09 )  
( 2.08115e-09 -1.82424e-09 9.61288e-10 )  
( -1.51232e-09 5.19228e-10 1.34657e-09 )  
( -4.05564e-10 -3.23669e-09 6.06633e-09 )  
( 2.75431e-09 -4.02897e-10 6.68139e-10 )  
( 2.99005e-09 7.65032e-10 1.75067e-09 )  
( 5.09335e-10 6.36992e-10 6.46037e-10 )  
( 3.41922e-09 6.86512e-11 1.91385e-09 )  
( -2.62637e-09 -1.67466e-09 6.44391e-09 )  
( 1.93186e-09 -1.07726e-09 3.4517e-09 )  
( -1.06594e-09 2.02025e-09 8.33507e-09 )  
( -1.30262e-10 -9.8183e-10 6.07766e-09 )  
( 5.06901e-10 4.67965e-10 1.41328e-09 )  
( 8.07062e-10 5.17581e-10 -1.00157e-09 )  
( -1.44123e-08 -5.62737e-09 1.11606e-08 )  
( 5.52185e-10 6.31844e-10 1.33097e-09 )  
( 3.57902e-09 -4.24641e-10 2.36087e-09 )  
( -3.27508e-09 7.56621e-10 1.40179e-09 )  
( 1.02469e-09 -2.03706e-09 8.22778e-10 )  
( -7.39207e-10 -7.9459e-11 1.72669e-09 )  
( -3.11754e-11 -2.14789e-10 1.08901e-09 )  
( -4.01755e-10 1.96201e-10 1.11336e-09 )  
( 8.60859e-09 -2.11581e-10 5.70259e-09 )  
( -1.83353e-09 -2.72875e-10 2.5444e-09 )  
( 2.9147e-09 -8.86287e-12 1.12378e-09 )  
( -3.08742e-09 -4.1237e-09 7.79153e-09 )  
( 1.55857e-09 -9.67715e-10 -4.02877e-10 )  
( -7.1436e-10 2.41602e-10 4.6159e-09 )  
( -2.40694e-09 3.25595e-09 1.05438e-08 )  
( 1.87333e-09 -5.0782e-10 2.88612e-09 )  
( 2.45653e-09 6.75994e-10 2.86258e-09 )  
( -1.04578e-09 1.44606e-09 1.31504e-10 )  
( -8.69317e-11 -4.60066e-11 -8.44191e-10 )  
( 3.61869e-09 7.81338e-10 2.58798e-09 )  
( 1.7476e-09 8.98022e-10 1.99288e-09 )  
( 5.63595e-10 4.41827e-10 5.64234e-10 )  
( -7.76095e-10 -7.75919e-10 2.04354e-09 )  
( 3.11295e-09 -2.8458e-10 2.5177e-09 )  
( 4.71173e-09 -6.64688e-11 1.91781e-09 )  
( 3.0387e-09 -5.73322e-10 1.22253e-09 )  
( 6.34027e-10 -2.68706e-11 5.79341e-09 )  
( -5.46733e-12 5.18597e-10 1.17895e-09 )  
( 2.78178e-09 -2.13539e-09 1.03677e-09 )  
( 7.34334e-10 4.94306e-10 4.20398e-10 )  
( 7.33157e-10 1.05917e-10 -7.36798e-11 )  
( 1.03624e-09 1.36008e-09 1.59886e-09 )  
( 3.10541e-09 1.00436e-09 3.60809e-09 )  
( 3.18889e-09 3.05095e-10 1.66472e-09 )  
( 1.86866e-09 5.73719e-10 2.36367e-09 )  
( 2.27153e-09 -3.91416e-11 9.29576e-10 )  
( 4.81052e-10 4.70571e-10 5.95063e-10 )  
( 5.42934e-09 -1.77872e-09 2.8806e-09 )  
( 7.06653e-10 4.39167e-10 1.29475e-09 )  
( 4.98857e-10 -1.88751e-10 4.0096e-09 )  
( 6.3652e-10 3.78475e-10 7.4654e-10 )  
( 2.77194e-09 8.15224e-10 1.33248e-09 )  
( 1.83079e-09 1.16418e-09 5.63347e-10 )  
( 5.76339e-09 6.09258e-10 1.67792e-09 )  
( 7.61285e-11 3.61488e-10 1.67868e-09 )  
( 1.2995e-09 2.99563e-10 5.96923e-10 )  
( 1.99543e-09 -5.10336e-10 9.82386e-10 )  
( 3.13851e-10 1.57036e-09 6.38452e-09 )  
( 1.85664e-09 3.621e-10 3.72386e-10 )  
( 6.95661e-10 1.73864e-10 4.14931e-10 )  
( 4.56451e-09 -3.494e-10 5.67359e-09 )  
( 7.60014e-09 8.39258e-10 8.58424e-10 )  
( 5.59247e-09 -4.87256e-10 4.79224e-09 )  
( 4.47711e-09 -8.18113e-12 7.88133e-10 )  
( 1.01155e-09 8.60904e-10 4.10296e-10 )  
( 7.24729e-09 2.55016e-10 3.31507e-09 )  
( 4.80615e-09 5.38283e-10 7.70455e-10 )  
( 7.2363e-09 -1.51654e-09 1.66759e-09 )  
( 1.24634e-09 -1.27832e-10 2.69723e-10 )  
( 2.60202e-09 1.33411e-09 8.37406e-10 )  
( 2.16856e-09 1.10211e-09 1.99243e-09 )  
( -1.94873e-09 -8.93145e-11 4.58912e-09 )  
( 1.62425e-09 6.31682e-10 8.5699e-10 )  
( -8.14965e-10 8.31418e-11 3.07165e-09 )  
( 7.21738e-10 -5.46101e-10 3.23606e-09 )  
( 6.31485e-09 2.44671e-10 2.39294e-09 )  
( 6.30832e-11 3.75658e-10 9.79596e-10 )  
( -4.37457e-10 3.22234e-10 7.27774e-10 )  
( 1.32816e-09 6.35402e-10 2.41864e-09 )  
( -2.41087e-09 3.85946e-10 5.89588e-09 )  
( 4.25784e-11 2.8885e-10 5.76315e-10 )  
( 1.43751e-09 -1.03947e-10 5.86524e-09 )  
( 6.78146e-09 7.63382e-11 3.34152e-09 )  
( 1.04366e-09 7.29856e-10 6.11738e-10 )  
( -1.10785e-09 -1.36109e-09 3.768e-09 )  
( 2.50334e-09 4.98924e-10 4.15657e-10 )  
( 6.21173e-10 7.302e-10 1.40583e-09 )  
( 4.26928e-10 3.10864e-10 7.06948e-10 )  
( 1.96975e-09 2.80885e-10 5.03857e-09 )  
( 1.70306e-09 1.05239e-09 6.21227e-10 )  
( 5.78127e-09 7.66809e-10 2.27784e-09 )  
( 1.57441e-09 4.5019e-10 7.10937e-10 )  
( 1.36892e-09 9.11555e-10 1.19293e-09 )  
( 2.63462e-09 3.00606e-10 1.00156e-09 )  
( -1.35658e-09 -2.77069e-09 9.94976e-09 )  
( 2.85002e-09 8.66289e-10 2.21681e-09 )  
( 1.03794e-09 -2.77729e-11 9.67442e-10 )  
( 4.92837e-09 -2.30006e-11 4.80976e-09 )  
( 1.15439e-09 9.66965e-11 4.16907e-10 )  
( 6.47278e-09 -1.11927e-11 3.19814e-09 )  
( 4.74009e-09 1.14363e-09 1.61589e-09 )  
( -2.03455e-09 -9.81802e-10 3.69499e-09 )  
( 7.19799e-11 4.23258e-10 1.93111e-09 )  
( 2.5496e-10 2.20013e-10 3.21548e-10 )  
( 2.10526e-09 3.75588e-11 7.79653e-10 )  
( 2.17308e-10 1.03321e-10 6.61577e-10 )  
( 6.52871e-10 2.17671e-11 5.1396e-11 )  
( 1.52538e-09 6.55436e-10 1.87266e-09 )  
( 4.04503e-10 1.4523e-10 7.1664e-10 )  
( 1.88814e-10 9.01067e-11 4.9762e-10 )  
( -4.46372e-10 6.08858e-10 2.32315e-09 )  
( 3.73078e-09 1.31489e-09 3.23572e-09 )  
( 8.01833e-10 1.15835e-09 6.32286e-09 )  
( 5.37042e-09 9.95899e-10 1.71001e-09 )  
( 3.32609e-10 8.57814e-11 3.72701e-10 )  
( 6.65839e-09 1.07965e-09 4.5916e-11 )  
( 3.61268e-10 -7.95193e-11 2.598e-10 )  
( 3.59558e-09 4.40637e-10 -5.67826e-10 )  
( 2.60473e-10 3.12095e-10 6.54541e-10 )  
( 2.15031e-09 -2.02279e-10 6.71599e-10 )  
( 2.36657e-10 3.57343e-10 4.30387e-10 )  
( 6.5891e-10 1.89835e-10 4.98197e-10 )  
( -8.24519e-10 1.92611e-09 5.50423e-09 )  
( 3.41143e-09 8.21202e-10 1.20925e-09 )  
( 2.24067e-09 7.02319e-10 2.95465e-09 )  
( 3.57208e-09 2.33198e-10 4.29435e-09 )  
( 2.98562e-10 2.63929e-10 1.42364e-09 )  
( 3.63814e-09 6.9879e-10 1.72696e-09 )  
( 1.60466e-09 1.92433e-10 5.83783e-10 )  
( -2.12802e-10 9.94184e-11 1.232e-09 )  
( 4.62515e-09 -2.68641e-09 3.39945e-09 )  
( 3.02148e-09 -5.12593e-10 2.3548e-09 )  
( 2.96716e-09 -8.37592e-10 3.12587e-09 )  
( 3.37826e-09 -7.90474e-10 1.33598e-09 )  
( 1.96657e-10 -2.61694e-11 3.81502e-10 )  
( 3.08788e-09 9.116e-10 2.17558e-09 )  
( 3.31521e-09 -1.49447e-09 2.90416e-09 )  
( 2.56395e-09 -1.47801e-09 4.17424e-09 )  
( 1.66025e-09 -6.73274e-10 2.07668e-09 )  
( 2.90636e-09 -6.94218e-10 3.72166e-09 )  
( 1.83425e-09 2.98467e-10 1.56701e-09 )  
( 3.22989e-09 -1.0572e-09 2.32611e-09 )  
( 8.11609e-09 -8.08012e-10 4.11343e-09 )  
( 4.94554e-10 1.07401e-10 2.53211e-10 )  
( 3.72996e-09 -1.12885e-09 1.72101e-09 )  
( 2.30534e-09 -8.8198e-10 5.87451e-10 )  
( 5.96443e-09 -2.83963e-10 4.29724e-09 )  
( 3.97114e-09 -3.72522e-10 9.01266e-10 )  
( 3.90216e-09 8.10577e-10 -6.7054e-10 )  
( 5.56258e-09 -5.48324e-10 2.52564e-09 )  
( 5.21251e-09 2.43524e-10 1.31435e-09 )  
( 4.18395e-09 -9.35279e-10 3.29379e-09 )  
( 5.80519e-09 -3.09374e-10 2.61035e-09 )  
( 8.31183e-10 -1.89684e-10 2.41119e-10 )  
( 8.65181e-11 -6.44667e-10 1.57436e-09 )  
( 4.07029e-09 -3.55359e-10 1.41814e-09 )  
( 6.54617e-10 1.71608e-10 8.37521e-10 )  
( 8.48318e-10 4.99423e-10 1.45202e-09 )  
( 3.7981e-09 -3.90031e-11 1.59561e-09 )  
( 2.00366e-09 4.63735e-10 2.9138e-10 )  
( 4.71002e-10 2.33846e-10 7.60345e-10 )  
( 4.4425e-09 -6.83975e-10 6.81239e-09 )  
( -8.60312e-10 -2.9391e-10 2.50975e-09 )  
( -8.19651e-10 -1.57451e-10 7.40815e-10 )  
( 1.86147e-09 7.09293e-10 1.55709e-09 )  
( 6.47534e-10 2.0188e-11 2.43838e-10 )  
( 8.57963e-10 -3.45401e-11 1.38155e-09 )  
( 2.4218e-09 3.70548e-10 1.15677e-09 )  
( 4.36524e-09 2.05926e-10 1.39812e-09 )  
( 4.81443e-09 -1.79755e-09 3.01848e-09 )  
( 1.35365e-09 5.36599e-10 1.42998e-09 )  
( 7.14772e-10 3.22203e-10 9.88787e-10 )  
( -7.67104e-09 7.0498e-10 1.43532e-08 )  
( 4.30878e-09 -9.29071e-10 1.94624e-09 )  
( 2.98868e-09 -9.89158e-11 -3.05561e-09 )  
( 4.05436e-09 8.7665e-10 1.55038e-09 )  
( 7.15911e-09 -2.00446e-09 3.99445e-09 )  
( -2.41337e-09 -2.15707e-10 6.17287e-09 )  
( 7.40454e-09 -7.03822e-10 3.48758e-09 )  
( 3.64587e-09 8.20777e-10 7.40854e-09 )  
( 4.00364e-09 -9.32662e-10 3.34512e-09 )  
( 1.51497e-09 6.71175e-10 9.63899e-10 )  
( 1.02424e-09 4.27377e-10 1.14574e-09 )  
( -1.42157e-09 -2.74176e-09 4.40498e-09 )  
( 6.65587e-09 1.06173e-10 5.75558e-09 )  
( 1.04316e-09 2.76826e-10 1.35778e-09 )  
( 4.35589e-09 -1.31309e-09 1.99225e-09 )  
( 2.50876e-10 1.80357e-10 8.278e-10 )  
( 1.00992e-09 -1.01636e-09 2.50228e-09 )  
( 3.58116e-09 -1.74424e-09 3.27368e-09 )  
( 3.41149e-09 6.39442e-10 1.72711e-09 )  
( 4.72647e-09 5.1783e-10 1.0439e-09 )  
( 5.92232e-09 6.39494e-10 2.84811e-09 )  
( -5.65034e-10 -4.86456e-10 1.26403e-09 )  
( 2.45595e-10 1.89261e-10 3.4277e-10 )  
( 2.02189e-09 -6.58834e-11 8.0392e-10 )  
( 9.36104e-10 5.36133e-10 8.89518e-10 )  
( 3.99548e-09 -1.02147e-09 3.4044e-09 )  
( 4.80875e-09 4.18208e-11 3.89659e-09 )  
( 4.29773e-10 -2.09223e-09 1.09858e-08 )  
( 1.63719e-09 5.50223e-11 7.24099e-10 )  
( 5.1305e-09 -8.21393e-11 1.55282e-09 )  
( 1.74008e-09 2.11413e-09 7.72936e-09 )  
( 5.53648e-10 5.34533e-10 9.9359e-10 )  
( 4.81486e-10 3.56844e-10 3.75924e-10 )  
( 9.81127e-10 1.174e-10 4.55787e-10 )  
( 5.76584e-09 -2.05147e-10 5.45641e-09 )  
( 1.69362e-10 1.76543e-10 3.74596e-10 )  
( 7.21533e-10 5.06822e-10 5.52706e-10 )  
( -1.28155e-09 -8.63305e-10 1.76834e-09 )  
( 7.01281e-10 -1.20113e-09 3.28968e-09 )  
( 6.31878e-09 2.68197e-10 -1.23448e-09 )  
( 1.9726e-10 5.81458e-10 -1.83753e-10 )  
( 1.39135e-10 2.29606e-09 1.37095e-09 )  
( 6.6982e-09 3.55947e-09 2.68997e-09 )  
( 2.9511e-09 2.39346e-09 7.69378e-10 )  
( -1.85041e-09 1.03911e-09 1.07848e-09 )  
( -2.76391e-09 6.00233e-10 -4.76479e-10 )  
( 1.09031e-09 -7.64371e-09 9.86458e-09 )  
( 1.30413e-09 -3.53162e-09 7.3916e-09 )  
( 3.2857e-09 1.18062e-09 2.10061e-09 )  
( -3.64898e-09 9.52681e-10 -8.19322e-10 )  
( -7.44575e-10 8.45649e-10 5.71865e-10 )  
( 3.08976e-09 -2.35294e-09 4.89925e-10 )  
( 2.62791e-09 -8.86605e-10 1.2541e-09 )  
( -2.35797e-10 -3.16036e-10 5.4326e-09 )  
( 1.82584e-10 -4.69155e-10 2.91678e-09 )  
( -1.59686e-09 1.78778e-09 1.18508e-09 )  
( 2.78299e-09 -1.75918e-09 2.10813e-09 )  
( 1.79927e-09 1.51934e-09 1.4231e-09 )  
( -2.89152e-09 3.12032e-10 1.40094e-10 )  
( 7.5758e-10 1.55446e-09 7.72706e-10 )  
( 1.33446e-09 -2.71025e-09 1.31156e-09 )  
( 1.15167e-08 2.04736e-08 3.26824e-09 )  
( 1.67844e-09 1.70067e-09 6.75047e-10 )  
( 5.45579e-09 -1.76549e-09 -1.64549e-09 )  
( -1.79564e-09 7.34419e-10 2.44889e-09 )  
( -1.21315e-09 -1.95694e-10 1.86301e-09 )  
( -3.37529e-09 -1.77648e-09 5.40936e-09 )  
( -2.37946e-09 1.34077e-09 4.36886e-09 )  
( 6.56054e-09 2.80294e-09 2.87322e-10 )  
( 2.80374e-10 1.04709e-09 1.82653e-10 )  
( 2.14184e-09 8.82595e-10 1.41934e-09 )  
( 1.40821e-09 8.9217e-10 1.34072e-09 )  
( 1.91957e-09 2.93977e-10 1.23507e-09 )  
( -2.03264e-10 1.28142e-09 5.14021e-09 )  
( -4.67967e-10 1.22664e-09 1.48531e-10 )  
( -2.51682e-09 4.01035e-10 2.70614e-09 )  
( 7.65492e-10 -3.69632e-09 7.58301e-09 )  
( -6.85318e-10 5.64134e-10 4.15395e-10 )  
( 2.55125e-09 -2.70153e-09 6.29894e-10 )  
( 1.88059e-09 -2.9759e-09 7.04107e-09 )  
( 2.64053e-09 -4.16886e-10 1.38723e-09 )  
( -1.5948e-09 1.43938e-09 1.15498e-09 )  
( -2.96016e-09 4.91541e-10 7.7243e-10 )  
( 1.89514e-10 1.85951e-09 1.03298e-09 )  
( 1.03314e-09 6.48707e-10 5.90044e-10 )  
( 1.53138e-09 2.15333e-10 4.41029e-09 )  
( 1.49349e-09 1.1421e-09 1.06491e-09 )  
( 2.69883e-11 2.54525e-10 1.48019e-10 )  
( 1.40465e-09 -1.67618e-10 1.49338e-09 )  
( -5.34878e-10 5.3997e-10 2.4225e-10 )  
)
