/*--------------------------------*- C++ -*----------------------------------*\
| =========                 |                                                 |
| \\      /  F ield         | OpenFOAM: The Open Source CFD Toolbox           |
|  \\    /   O peration     | Version:  4.x                                   |
|   \\  /    A nd           | Web:      www.OpenFOAM.org                      |
|    \\/     M anipulation  |                                                 |
\*---------------------------------------------------------------------------*/
FoamFile
{
    version     2.0;
    format      ascii;
    class       volVectorField;
    location    "26.5";
    object      ddtUrel;
}
// * * * * * * * * * * * * * * * * * * * * * * * * * * * * * * * * * * * * * //

dimensions      [0 1 -2 0 0 0 0];

internalField   nonuniform List<vector> 
87
(
(7.03619e-08 -6.44352e-07 -8.23088e-07)
(5.10154e-07 2.62881e-08 -7.28203e-07)
(8.31797e-07 2.44831e-07 -6.5704e-07)
(3.91241e-07 7.17509e-08 -5.84676e-07)
(-2.34952e-07 -8.81333e-08 -7.39264e-07)
(-7.40381e-07 -8.67548e-08 -6.67129e-07)
(-1.54194e-06 3.30369e-08 -4.34129e-07)
(-2.01916e-06 8.85827e-08 -3.26396e-07)
(-1.57342e-06 6.05783e-08 -2.27232e-07)
(-3.42279e-07 -1.29223e-06 -1.09341e-06)
(2.58628e-07 -3.72558e-07 -8.82813e-07)
(4.88319e-07 -1.18019e-07 -7.39295e-07)
(1.08004e-07 1.3597e-08 -5.90807e-07)
(-2.11731e-07 -1.68607e-07 -6.35472e-07)
(-8.84117e-07 -1.07968e-07 -6.13212e-07)
(-1.63734e-06 7.76673e-08 -4.81067e-07)
(-2.1752e-06 8.00767e-08 -3.4702e-07)
(-1.69226e-06 8.07973e-08 -2.50739e-07)
(-1.73922e-06 -2.22373e-06 -1.8271e-06)
(-1.49476e-07 -9.40348e-07 -1.03921e-06)
(5.43966e-07 -5.06756e-07 -7.8188e-07)
(-6.71966e-08 -2.07402e-07 -6.40917e-07)
(-3.67775e-07 -9.24837e-08 -6.31028e-07)
(-6.00233e-07 -4.01557e-09 -5.65691e-07)
(-1.51683e-06 8.59441e-08 -4.76474e-07)
(-2.21632e-06 7.09424e-08 -4.73041e-07)
(-1.72951e-06 7.55017e-08 -3.9234e-07)
(3.58312e-07 -5.48438e-07 -6.91914e-07)
(5.5327e-07 -2.26932e-07 -5.85418e-07)
(8.42995e-07 -2.11189e-08 -4.86293e-07)
(5.0208e-07 -1.48315e-08 -5.07586e-07)
(1.61645e-07 -6.85247e-08 -6.28333e-07)
(-1.70572e-07 -4.35173e-08 -5.95028e-07)
(-1.04752e-06 2.44251e-08 -3.87003e-07)
(-1.57039e-06 6.45486e-08 -2.81847e-07)
(-1.36422e-06 7.97932e-08 -2.1092e-07)
(2.05203e-07 -1.02383e-06 -9.16771e-07)
(5.13028e-07 -5.08231e-07 -7.94495e-07)
(7.79266e-07 -2.17963e-07 -5.99659e-07)
(4.05779e-07 -3.94143e-08 -5.88278e-07)
(1.08643e-07 -1.28655e-07 -6.39805e-07)
(-2.95802e-07 -5.83425e-08 -5.55711e-07)
(-1.23858e-06 6.79677e-08 -4.05182e-07)
(-1.8845e-06 7.9869e-08 -2.84313e-07)
(-1.56224e-06 9.4483e-08 -2.23529e-07)
(-2.23847e-07 -1.57961e-06 -1.16386e-06)
(4.12258e-07 -7.89089e-07 -1.06163e-06)
(7.78963e-07 -5.17916e-07 -9.2621e-07)
(2.88009e-07 -2.4362e-07 -7.06242e-07)
(3.6133e-09 -8.59572e-08 -6.54146e-07)
(-2.77278e-07 5.15512e-08 -4.99643e-07)
(-1.42752e-06 1.30088e-07 -3.85677e-07)
(-2.22282e-06 1.18347e-07 -3.75374e-07)
(-1.70538e-06 1.13671e-07 -3.12697e-07)
(7.43045e-07 -4.23064e-07 -5.87719e-07)
(7.40512e-07 -2.89089e-07 -4.76929e-07)
(9.40332e-07 -8.08016e-08 -4.26516e-07)
(7.70671e-07 -5.68479e-08 -3.99951e-07)
(4.41327e-07 -7.63221e-08 -4.44635e-07)
(4.53201e-08 -3.68194e-08 -4.12103e-07)
(-7.9443e-07 3.20752e-08 -2.82377e-07)
(-1.3434e-06 7.36469e-08 -2.26629e-07)
(-1.12568e-06 1.02526e-07 -1.37663e-07)
(5.5674e-07 -6.25854e-07 -7.77193e-07)
(8.02874e-07 -4.8524e-07 -6.30354e-07)
(1.03601e-06 -3.23481e-07 -5.55584e-07)
(6.35666e-07 -1.043e-07 -4.85372e-07)
(4.61088e-07 -1.65175e-07 -4.29489e-07)
(2.93522e-08 -3.09509e-08 -4.15232e-07)
(-1.06615e-06 7.66973e-08 -3.0575e-07)
(-1.7531e-06 9.50788e-08 -2.01423e-07)
(-1.38608e-06 1.1455e-07 -1.43531e-07)
(2.70469e-07 -1.02137e-06 -1.00004e-06)
(4.54372e-07 -5.01906e-07 -8.65417e-07)
(1.22366e-06 -1.29792e-07 -7.66426e-07)
(7.89638e-07 -1.89577e-07 -5.88086e-07)
(4.91353e-07 -2.65079e-07 -4.67425e-07)
(2.98812e-08 1.46881e-08 -3.79434e-07)
(-1.20733e-06 7.56688e-08 -3.39952e-07)
(-1.9394e-06 7.64664e-08 -2.69228e-07)
(-1.61769e-06 1.13545e-07 -1.4324e-07)
(8.17473e-07 -3.47321e-07 -5.05231e-07)
(1.03424e-06 -2.60688e-07 -3.29408e-07)
(1.19209e-06 -1.44908e-07 -3.01256e-07)
(9.19585e-07 -4.72339e-07 -6.18725e-07)
(9.49763e-07 -4.32345e-07 -4.02622e-07)
(7.53033e-07 -6.37185e-07 -8.30754e-07)
)
;

boundaryField
{
    inlet
    {
        type            calculated;
        value           nonuniform 0();
    }
    outlet
    {
        type            calculated;
        value           nonuniform List<vector> 9((6.83481e-08 4.06451e-09 -1.07297e-07) (3.653e-08 5.98322e-08 -9.10891e-08) (-2.24397e-07 -3.45937e-07 -3.93538e-07) (2.67573e-07 5.52897e-08 -1.094e-07) (3.11951e-09 5.33095e-09 -1.90047e-07) (-3.00988e-08 4.38057e-08 -3.32625e-07) (3.77634e-07 -6.86794e-09 -3.5244e-08) (2.37952e-07 8.2159e-08 -1.55771e-07) (3.53142e-07 1.52259e-08 -3.31574e-07));
    }
    wall
    {
        type            calculated;
        value           nonuniform List<vector> 
57
(
(-3.6262e-06 6.78073e-07 6.43653e-07)
(1.41366e-06 1.85954e-07 7.05262e-07)
(-3.77946e-06 -1.14252e-06 -6.02641e-07)
(-7.5137e-07 4.09309e-06 -5.23796e-07)
(-1.58241e-06 2.92774e-06 -1.03403e-06)
(-1.65702e-07 1.05006e-06 6.89648e-07)
(4.38242e-06 3.08238e-06 -6.26997e-07)
(-1.11768e-06 1.069e-06 -1.71354e-06)
(5.89325e-06 -2.49425e-07 3.12291e-08)
(7.74974e-07 5.78609e-07 -1.70284e-07)
(1.7344e-07 1.41217e-06 2.35258e-07)
(-9.51276e-07 3.77979e-07 1.05551e-06)
(-5.78342e-06 -6.20553e-07 -2.25738e-06)
(3.10939e-06 -1.31267e-06 -5.09289e-07)
(-1.68962e-06 -4.81375e-07 -7.00661e-07)
(-3.55974e-06 -6.69601e-07 -1.46059e-06)
(-6.17407e-06 -1.16289e-06 -9.76584e-07)
(3.77877e-09 -5.37585e-07 -8.41485e-07)
(-3.50279e-06 3.44071e-07 4.6052e-08)
(-5.63835e-06 8.29347e-07 -8.07968e-07)
(-3.83928e-06 -2.29576e-07 -6.79022e-07)
(-6.55395e-06 2.13177e-07 -8.43832e-08)
(-7.01815e-06 1.18003e-08 -1.42827e-07)
(-8.39231e-06 -5.16287e-07 -9.93423e-07)
(-3.05367e-07 -3.43301e-08 1.6536e-07)
(-1.44563e-06 2.46251e-07 3.70988e-07)
(-1.31191e-06 -1.35428e-07 -3.12583e-07)
(-2.92971e-06 2.99351e-07 9.16674e-07)
(-2.1723e-06 -2.21679e-07 8.95949e-07)
(1.30549e-07 -3.41738e-07 -3.52376e-08)
(1.4699e-06 1.93496e-07 -7.62508e-07)
(6.06088e-06 3.02371e-06 -6.98057e-07)
(7.57793e-07 6.94011e-08 5.22258e-07)
(-3.7072e-07 -1.34862e-07 1.40497e-07)
(2.1758e-06 -2.00349e-07 3.69859e-07)
(9.9812e-06 3.27646e-06 -3.74731e-07)
(3.41202e-06 3.96215e-07 7.50695e-07)
(2.2004e-06 1.35629e-06 1.68109e-07)
(1.75088e-06 -9.65177e-08 1.66185e-07)
(1.39066e-06 6.77094e-07 -1.08203e-07)
(2.20619e-08 1.09307e-07 -1.61401e-08)
(8.8173e-07 -3.15442e-08 1.42305e-08)
(-1.87276e-06 -3.43981e-07 -2.00531e-06)
(3.38083e-07 -5.53713e-08 -1.56567e-06)
(-1.98827e-07 -4.09381e-07 -5.3731e-07)
(6.04013e-07 -8.42288e-07 -1.98264e-06)
(2.82962e-06 -1.45987e-07 -1.49673e-06)
(8.33393e-07 6.05387e-08 -4.79439e-07)
(-3.23785e-06 3.50318e-07 3.32274e-08)
(-2.13779e-06 -8.07329e-08 6.92564e-08)
(-2.3148e-06 -1.45201e-08 -4.13593e-09)
(-5.95787e-06 4.33162e-07 -1.09606e-07)
(-3.57322e-06 1.28931e-07 -2.74319e-07)
(-4.44486e-06 1.52111e-07 -3.15943e-07)
(-6.22545e-08 7.04356e-09 1.02498e-07)
(-1.32685e-07 9.01236e-08 -8.63389e-08)
(-4.52741e-08 -2.86284e-08 1.07499e-07)
)
;
    }
    procBoundary1to0
    {
        type            processor;
        value           nonuniform List<vector> 
12
(
(1.96023e-07 -1.04942e-06 -1.09637e-06)
(-4.36365e-07 -1.73439e-06 -1.64776e-06)
(-4.03561e-06 -3.62439e-06 -3.35941e-06)
(8.43003e-07 -7.36244e-07 -8.43204e-07)
(3.84624e-07 -1.15275e-06 -1.16208e-06)
(-7.86792e-07 -2.00503e-06 -1.88771e-06)
(9.96278e-07 -4.95268e-07 -6.52662e-07)
(9.38268e-07 -7.27591e-07 -8.69918e-07)
(5.33379e-07 -1.14582e-06 -1.2417e-06)
(8.91975e-07 -3.01867e-07 -5.05094e-07)
(1.04513e-06 -4.4188e-07 -6.87642e-07)
(9.70415e-07 -6.20791e-07 -8.78294e-07)
)
;
    }
    procBoundary1to3
    {
        type            processor;
        value           nonuniform List<vector> 
27
(
(-4.1208e-06 -3.28693e-06 -2.83377e-06)
(-3.97074e-07 -1.35285e-06 -1.40242e-06)
(3.75495e-07 -7.85805e-07 -1.05578e-06)
(-1.22925e-07 -4.15732e-07 -8.6327e-07)
(-7.09032e-08 1.13511e-07 -5.92753e-07)
(-2.96279e-07 2.11875e-07 -4.89439e-07)
(-1.45043e-06 2.26095e-07 -4.80732e-07)
(-2.07602e-06 1.83933e-07 -5.85297e-07)
(-1.87699e-06 1.24125e-07 -4.52656e-07)
(-7.89665e-07 -1.94129e-06 -1.71039e-06)
(3.65612e-07 -1.01081e-06 -1.15617e-06)
(8.68365e-07 -6.99687e-07 -6.0273e-07)
(4.44246e-07 -3.56447e-07 -7.16505e-07)
(2.20273e-07 5.48353e-08 -7.3167e-07)
(-1.26601e-07 1.75687e-07 -4.41942e-07)
(-1.26864e-06 2.33096e-07 -4.80075e-07)
(-2.05652e-06 1.96172e-07 -5.07099e-07)
(-1.73272e-06 1.7615e-07 -3.75016e-07)
(2.31663e-07 -1.18677e-06 -1.21823e-06)
(9.30645e-07 -6.1837e-07 -1.01693e-06)
(1.13457e-06 -4.09535e-07 -7.90347e-07)
(3.89405e-07 -1.92371e-07 -5.48563e-07)
(5.28775e-07 -8.5456e-09 -4.45374e-07)
(4.05743e-08 1.09419e-07 -3.91493e-07)
(-1.27514e-06 1.8647e-07 -3.53709e-07)
(-1.86123e-06 1.67397e-07 -3.26799e-07)
(-1.53313e-06 1.75873e-07 -2.21822e-07)
)
;
    }
    procBoundary1to5
    {
        type            processor;
        value           nonuniform List<vector> 
32
(
(8.46008e-07 -9.33422e-08 -2.90359e-07)
(5.14487e-07 -4.89826e-08 -2.73526e-07)
(7.07774e-08 -5.19722e-08 -2.32262e-07)
(-6.94132e-07 -1.84559e-08 -1.49963e-07)
(-1.14815e-06 5.23387e-08 -9.79028e-08)
(-1.03954e-06 9.68217e-08 -4.55268e-08)
(1.10147e-06 -2.71293e-07 -3.43837e-07)
(8.61814e-07 -1.17333e-07 -3.06861e-07)
(5.04142e-07 -1.34923e-07 -2.95013e-07)
(2.37278e-08 -4.96113e-08 -2.71505e-07)
(-9.01794e-07 4.86382e-09 -2.35071e-07)
(-1.39703e-06 7.12847e-08 -1.33033e-07)
(-1.25279e-06 1.34203e-07 -4.66236e-08)
(8.03263e-07 -4.38487e-07 -5.03012e-07)
(1.19543e-06 -2.74702e-07 -4.30265e-07)
(9.45519e-07 -1.51497e-07 -3.53267e-07)
(4.88428e-07 -1.35972e-07 -2.67567e-07)
(-1.46478e-07 1.0858e-08 -2.5315e-07)
(-1.09674e-06 7.70842e-08 -2.14956e-07)
(-1.54384e-06 6.75971e-08 -1.5907e-07)
(-1.29518e-06 1.4539e-07 -8.16902e-08)
(7.53251e-07 -2.06932e-07 -2.86202e-07)
(9.26451e-07 -2.09135e-07 -2.00987e-07)
(8.46008e-07 -9.33422e-08 -2.90359e-07)
(1.10147e-06 -2.71293e-07 -3.43837e-07)
(1.00592e-06 -1.05677e-07 -1.54653e-07)
(9.63482e-07 -2.89159e-07 -3.79131e-07)
(1.10147e-06 -2.71293e-07 -3.43837e-07)
(8.03263e-07 -4.38487e-07 -5.03012e-07)
(9.46938e-07 -2.88025e-07 -2.74582e-07)
(8.03263e-07 -4.38487e-07 -5.03012e-07)
(1.06977e-06 -4.04752e-07 -4.63085e-07)
)
;
    }
    procBoundary1to7
    {
        type            processor;
        value           uniform (1.01196e-06 -6.10019e-07 -7.68921e-07);
    }
}


// ************************************************************************* //
