/*--------------------------------*- C++ -*----------------------------------*\
| =========                 |                                                 |
| \\      /  F ield         | OpenFOAM: The Open Source CFD Toolbox           |
|  \\    /   O peration     | Version:  4.x                                   |
|   \\  /    A nd           | Web:      www.OpenFOAM.org                      |
|    \\/     M anipulation  |                                                 |
\*---------------------------------------------------------------------------*/
FoamFile
{
    version     2.0;
    format      ascii;
    class       volScalarField;
    location    "26.5";
    object      particleRelTemp;
}
// * * * * * * * * * * * * * * * * * * * * * * * * * * * * * * * * * * * * * //

dimensions      [0 0 0 0 0 0 0];

internalField   nonuniform List<scalar> 
87
(
3.13355e-08
2.71594e-08
2.41076e-08
1.42513e-08
1.0065e-09
-5.50837e-09
-1.02829e-08
-1.11843e-08
-1.01302e-08
4.5269e-08
4.04508e-08
3.12113e-08
1.70661e-08
6.1227e-09
-3.74705e-09
-8.18939e-09
-9.42248e-09
-8.54467e-09
4.92149e-08
4.36811e-08
3.32471e-08
1.62602e-08
3.86841e-09
-3.71746e-09
-7.19531e-09
-7.64889e-09
-6.34231e-09
3.76801e-08
3.56506e-08
3.0402e-08
1.93633e-08
6.68867e-09
-3.09158e-09
-7.37639e-09
-8.38274e-09
-8.08002e-09
4.41848e-08
4.47612e-08
3.71535e-08
2.07169e-08
6.97654e-09
-1.12345e-09
-5.64987e-09
-5.96712e-09
-4.38716e-09
5.40833e-08
4.94245e-08
3.58399e-08
2.11103e-08
4.92795e-09
-1.42002e-09
-4.74855e-09
-4.62134e-09
-3.03123e-09
3.73944e-08
3.6727e-08
2.99983e-08
1.8266e-08
7.50739e-09
-2.1423e-09
-5.59384e-09
-6.8905e-09
-5.90007e-09
4.57937e-08
4.21145e-08
3.6869e-08
2.25195e-08
8.01582e-09
-1.36652e-10
-4.03661e-09
-4.06977e-09
-2.95361e-09
5.14252e-08
4.53902e-08
3.7902e-08
2.2245e-08
8.51542e-09
-1.74388e-10
-2.98342e-09
-2.53367e-09
-1.33141e-09
3.12547e-08
2.34063e-08
2.1458e-08
3.39628e-08
3.09507e-08
3.75718e-08
)
;

boundaryField
{
    inlet
    {
        type            calculated;
        value           nonuniform 0();
    }
    outlet
    {
        type            calculated;
        value           nonuniform List<scalar> 9(-1.01302e-08 -8.54467e-09 -6.34231e-09 -8.08002e-09 -4.38716e-09 -3.03123e-09 -5.90007e-09 -2.95361e-09 -1.33141e-09);
    }
    wall
    {
        type            calculated;
        value           nonuniform List<scalar> 
57
(
3.13355e-08
4.5269e-08
4.92149e-08
2.71594e-08
4.04508e-08
4.36811e-08
2.41076e-08
3.12113e-08
3.32471e-08
1.42513e-08
1.70661e-08
1.62602e-08
1.0065e-09
6.1227e-09
3.86841e-09
-5.50837e-09
-3.74705e-09
-3.71746e-09
-1.02829e-08
-8.18939e-09
-7.19531e-09
-1.11843e-08
-9.42248e-09
-7.64889e-09
-1.01302e-08
-8.54467e-09
-6.34231e-09
3.13355e-08
3.76801e-08
3.73944e-08
3.12547e-08
2.71594e-08
3.56506e-08
3.6727e-08
2.34063e-08
2.41076e-08
3.0402e-08
2.99983e-08
2.1458e-08
1.42513e-08
1.93633e-08
1.8266e-08
1.0065e-09
6.68867e-09
7.50739e-09
-5.50837e-09
-3.09158e-09
-2.1423e-09
-1.02829e-08
-7.37639e-09
-5.59384e-09
-1.11843e-08
-8.38274e-09
-6.8905e-09
-1.01302e-08
-8.08002e-09
-5.90007e-09
)
;
    }
    procBoundary1to0
    {
        type            processor;
        value           nonuniform List<scalar> 
12
(
2.223e-08
3.99139e-08
4.52223e-08
3.18288e-08
4.38223e-08
5.21026e-08
3.28442e-08
4.17591e-08
4.55454e-08
2.46685e-08
3.41032e-08
3.32799e-08
)
;
    }
    procBoundary1to3
    {
        type            processor;
        value           nonuniform List<scalar> 
27
(
4.57439e-08
4.23171e-08
2.61388e-08
1.368e-08
8.14823e-11
-6.36384e-09
-7.87724e-09
-8.21392e-09
-6.04414e-09
4.73143e-08
4.27141e-08
3.11128e-08
1.52558e-08
2.43704e-09
-3.66607e-09
-5.84154e-09
-5.57676e-09
-4.40174e-09
4.09547e-08
4.19598e-08
2.9555e-08
1.79943e-08
4.81584e-09
-2.18426e-09
-3.78972e-09
-2.75196e-09
-1.80562e-09
)
;
    }
    procBoundary1to5
    {
        type            processor;
        value           nonuniform List<scalar> 
32
(
1.2638e-08
2.93199e-09
-3.44265e-09
-7.07096e-09
-7.52065e-09
-6.83438e-09
2.38616e-08
1.55758e-08
5.40272e-09
-2.34943e-09
-4.47732e-09
-4.95879e-09
-3.80353e-09
3.46248e-08
2.34222e-08
1.18476e-08
5.06218e-09
-1.51228e-09
-3.53236e-09
-2.90573e-09
-1.52874e-09
1.46204e-08
1.0415e-08
1.2638e-08
2.38616e-08
1.0178e-08
1.65413e-08
2.38616e-08
3.46248e-08
1.49305e-08
3.46248e-08
1.6744e-08
)
;
    }
    procBoundary1to7
    {
        type            processor;
        value           uniform 2.9862e-08;
    }
}


// ************************************************************************* //
