/*--------------------------------*- C++ -*----------------------------------*\
| =========                 |                                                 |
| \\      /  F ield         | OpenFOAM: The Open Source CFD Toolbox           |
|  \\    /   O peration     | Version:  4.x                                   |
|   \\  /    A nd           | Web:      www.OpenFOAM.org                      |
|    \\/     M anipulation  |                                                 |
\*---------------------------------------------------------------------------*/
FoamFile
{
    version     2.0;
    format      ascii;
    class       volScalarField;
    location    "26.5";
    object      QWallFluid;
}
// * * * * * * * * * * * * * * * * * * * * * * * * * * * * * * * * * * * * * //

dimensions      [1 -1 -3 0 0 0 0];

internalField   nonuniform List<scalar> 
87
(
1.58779e+09
2.23859e+09
1.59176e+09
2.31405e+09
1.56116e+09
2.43724e+09
1.39244e+09
2.69961e+09
8.89394e+08
7.24687e+08
1.08587e+09
7.24986e+08
1.12762e+09
7.17117e+08
1.19389e+09
6.29087e+08
1.33119e+09
4.44847e+08
6.20809e+08
9.99946e+08
5.85659e+08
9.97225e+08
5.15147e+08
9.80224e+08
3.87335e+08
9.38557e+08
2.90272e+08
5.71651e+08
9.8156e+08
5.54998e+08
1.00806e+09
5.32949e+08
1.06115e+09
4.76548e+08
1.18633e+09
4.12203e+08
0
0
0
0
0
0
0
0
0
0
0
0
0
0
0
0
0
0
4.88891e+08
9.2607e+08
4.35717e+08
9.20404e+08
3.68523e+08
9.21401e+08
2.93813e+08
9.30367e+08
2.37961e+08
0
0
0
0
0
0
0
0
0
0
0
0
0
0
0
0
0
0
4.64009e+08
8.97004e+08
4.20896e+08
0
0
0
)
;

boundaryField
{
    inlet
    {
        type            calculated;
        value           nonuniform 0();
    }
    outlet
    {
        type            calculated;
        value           uniform 0;
    }
    wall
    {
        type            calculated;
        value           uniform 0;
    }
    procBoundary1to0
    {
        type            processor;
        value           nonuniform List<scalar> 
12
(
2.18069e+09
1.03848e+09
9.72986e+08
9.54644e+08
0
0
9.0579e+08
0
0
8.9159e+08
0
0
)
;
    }
    procBoundary1to3
    {
        type            processor;
        value           nonuniform List<scalar> 
27
(
6.07972e+08
1.03538e+09
6.77584e+08
1.09255e+09
6.82619e+08
1.11248e+09
5.6318e+08
1.09903e+09
2.48273e+08
0
0
0
0
0
0
0
0
0
0
0
0
0
0
0
0
0
0
)
;
    }
    procBoundary1to5
    {
        type            processor;
        value           nonuniform List<scalar> 
32
(
8.85003e+08
3.48665e+08
8.42301e+08
2.44684e+08
7.2113e+08
2.35951e+08
0
0
0
0
0
0
0
0
0
0
0
0
0
0
0
4.03396e+08
8.7886e+08
8.85003e+08
0
3.68895e+08
0
0
0
0
0
0
)
;
    }
    procBoundary1to7
    {
        type            processor;
        value           uniform 0;
    }
}


// ************************************************************************* //
