/*--------------------------------*- C++ -*----------------------------------*\
| =========                 |                                                 |
| \\      /  F ield         | OpenFOAM: The Open Source CFD Toolbox           |
|  \\    /   O peration     | Version:  4.x                                   |
|   \\  /    A nd           | Web:      www.OpenFOAM.org                      |
|    \\/     M anipulation  |                                                 |
\*---------------------------------------------------------------------------*/
FoamFile
{
    version     2.0;
    format      ascii;
    class       volScalarField;
    location    "26.5";
    object      Sm;
}
// * * * * * * * * * * * * * * * * * * * * * * * * * * * * * * * * * * * * * //

dimensions      [1 -3 -1 0 0 0 0];

internalField   nonuniform List<scalar> 
87
(
3.71992e-65
5.88987e-65
3.79743e-65
5.11494e-65
3.95249e-65
4.18501e-65
4.41752e-65
5.03753e-65
4.80502e-65
3.64235e-65
3.25489e-65
4.64986e-65
4.18493e-65
3.40997e-65
5.0375e-65
6.58752e-65
4.57252e-65
3.95251e-65
3.48735e-65
5.57978e-65
5.73482e-65
7.12987e-65
5.50246e-65
4.33999e-65
4.96001e-65
4.57251e-65
4.495e-65
6.66477e-65
5.65731e-65
5.34735e-65
6.19988e-65
5.81244e-65
6.58749e-65
8.37001e-65
7.28502e-65
6.35501e-65
7.20719e-65
5.11476e-65
6.35478e-65
6.97485e-65
7.28492e-65
5.65748e-65
7.5175e-65
7.595e-65
5.50249e-65
7.12963e-65
6.5872e-65
6.19977e-65
5.26987e-65
5.26995e-65
7.36248e-65
8.05999e-65
1.03075e-64
4.88249e-65
7.05225e-65
5.73481e-65
7.67228e-65
7.98236e-65
5.73494e-65
8.44748e-65
7.0525e-65
5.73501e-65
4.185e-65
5.57973e-65
7.0522e-65
5.65729e-65
6.12235e-65
6.97492e-65
6.97497e-65
6.58749e-65
7.20749e-65
4.41749e-65
8.91206e-65
6.35471e-65
5.1148e-65
9.06729e-65
8.2924e-65
8.75746e-65
6.81998e-65
7.90498e-65
3.48748e-65
6.5873e-65
5.26988e-65
8.05982e-65
7.05225e-65
9.99718e-65
5.73478e-65
)
;

boundaryField
{
    inlet
    {
        type            calculated;
        value           nonuniform 0();
    }
    outlet
    {
        type            calculated;
        value           uniform 0;
    }
    wall
    {
        type            calculated;
        value           uniform 0;
    }
    procBoundary1to0
    {
        type            processor;
        value           nonuniform List<scalar> 
12
(
1.70498e-65
3.95235e-65
6.89723e-65
6.19982e-65
6.9747e-65
4.95975e-65
4.72736e-65
8.29217e-65
4.57228e-65
4.95989e-65
5.50232e-65
8.05972e-65
)
;
    }
    procBoundary1to3
    {
        type            processor;
        value           nonuniform List<scalar> 
27
(
6.97471e-65
3.25488e-65
5.73485e-65
2.55747e-65
4.10749e-65
3.02251e-65
4.72751e-65
4.57251e-65
3.875e-65
7.51716e-65
6.27724e-65
9.06722e-65
8.52486e-65
7.59494e-65
6.27749e-65
6.045e-65
6.5875e-65
8.91248e-65
7.67219e-65
9.06713e-65
8.75724e-65
8.52484e-65
6.12245e-65
6.27749e-65
8.52498e-65
7.12998e-65
7.43997e-65
)
;
    }
    procBoundary1to5
    {
        type            processor;
        value           nonuniform List<scalar> 
32
(
6.81991e-65
8.05994e-65
6.355e-65
6.74251e-65
7.59502e-65
8.44751e-65
6.81983e-65
5.6574e-65
5.81244e-65
6.66499e-65
8.21499e-65
8.525e-65
7.90499e-65
8.44721e-65
6.04485e-65
7.51739e-65
5.73495e-65
4.57249e-65
7.28499e-65
5.42499e-65
8.67996e-65
6.3549e-65
4.80495e-65
6.81991e-65
6.81983e-65
6.97492e-65
7.05237e-65
6.81983e-65
8.44721e-65
6.81989e-65
8.44721e-65
8.21485e-65
)
;
    }
    procBoundary1to7
    {
        type            processor;
        value           uniform 9.9197e-65;
    }
}


// ************************************************************************* //
