/*--------------------------------*- C++ -*----------------------------------*\
| =========                 |                                                 |
| \\      /  F ield         | OpenFOAM: The Open Source CFD Toolbox           |
|  \\    /   O peration     | Version:  4.x                                   |
|   \\  /    A nd           | Web:      www.OpenFOAM.org                      |
|    \\/     M anipulation  |                                                 |
\*---------------------------------------------------------------------------*/
FoamFile
{
    version     2.0;
    format      ascii;
    class       volScalarField;
    location    "5.5";
    object      Deff;
}
// * * * * * * * * * * * * * * * * * * * * * * * * * * * * * * * * * * * * * //

dimensions      [0 2 -1 0 0 0 0];

internalField   nonuniform List<scalar> 
114
(
9.79819e-08
9.78839e-08
9.78804e-08
9.78379e-08
9.78196e-08
9.78271e-08
9.79855e-08
9.79944e-08
9.79286e-08
9.78464e-08
9.77474e-08
9.77256e-08
9.77924e-08
9.79133e-08
9.79592e-08
9.78497e-08
9.78513e-08
9.78488e-08
9.77469e-08
9.77898e-08
9.77262e-08
9.80605e-08
9.80754e-08
9.79146e-08
9.79125e-08
9.78018e-08
9.77465e-08
9.77307e-08
9.77889e-08
9.78201e-08
9.79456e-08
9.79059e-08
9.77906e-08
9.77816e-08
9.76756e-08
9.7644e-08
9.77076e-08
9.76222e-08
9.77227e-08
9.78631e-08
9.79469e-08
9.77878e-08
9.77047e-08
9.76841e-08
9.76349e-08
9.76007e-08
9.76151e-08
9.76977e-08
9.77847e-08
9.78845e-08
9.79978e-08
9.78758e-08
9.78867e-08
9.77892e-08
9.77374e-08
9.77166e-08
9.76921e-08
9.7703e-08
9.77752e-08
9.79646e-08
9.78177e-08
9.78423e-08
9.7744e-08
9.76421e-08
9.76183e-08
9.75548e-08
9.76484e-08
9.77499e-08
9.78468e-08
9.7826e-08
9.77242e-08
9.76907e-08
9.74958e-08
9.75419e-08
9.75012e-08
9.74986e-08
9.75516e-08
9.7956e-08
9.76948e-08
9.7598e-08
9.76127e-08
9.82424e-08
9.80079e-08
9.80566e-08
9.78466e-08
9.78191e-08
9.78514e-08
9.77512e-08
9.77674e-08
9.78187e-08
9.80208e-08
9.79267e-08
9.79926e-08
9.78419e-08
9.7689e-08
9.77046e-08
9.77721e-08
9.76988e-08
9.77683e-08
9.79309e-08
9.78623e-08
9.76967e-08
9.76951e-08
9.76273e-08
9.75503e-08
9.76338e-08
9.76292e-08
9.76572e-08
9.78972e-08
9.78522e-08
9.76765e-08
9.7684e-08
9.75048e-08
9.75768e-08
)
;

boundaryField
{
    inlet
    {
        type            calculated;
        value           nonuniform 0();
    }
    outlet
    {
        type            calculated;
        value           uniform 0;
    }
    wall
    {
        type            calculated;
        value           uniform 0;
    }
    procBoundary5to1
    {
        type            processor;
        value           uniform 0;
    }
    procBoundary5to4
    {
        type            processor;
        value           uniform 0;
    }
    procBoundary5to7
    {
        type            processor;
        value           uniform 0;
    }
}


// ************************************************************************* //
