/*--------------------------------*- C++ -*----------------------------------*\
| =========                 |                                                 |
| \\      /  F ield         | OpenFOAM: The Open Source CFD Toolbox           |
|  \\    /   O peration     | Version:  4.x                                   |
|   \\  /    A nd           | Web:      www.OpenFOAM.org                      |
|    \\/     M anipulation  |                                                 |
\*---------------------------------------------------------------------------*/
FoamFile
{
    version     2.0;
    format      ascii;
    class       volScalarField;
    location    "5.5";
    object      magGField;
}
// * * * * * * * * * * * * * * * * * * * * * * * * * * * * * * * * * * * * * //

dimensions      [1 -2 -1 0 0 0 0];

internalField   nonuniform List<scalar> 
114
(
130.53
78.1136
138.973
60.8082
168.223
106.191
19.396
91.6929
3.2286
93.5822
23.4409
96.7718
79.4337
88.3657
3.20537
89.2172
18.6675
93.5484
29.4463
90.8415
38.4544
61.6201
110.384
61.1943
114.725
53.3286
115.022
45.2324
112.389
40.3195
12.1184
70.1493
12.8487
67.8021
2.93671
77.5423
7.51036
71.0631
24.911
1.42224
81.8576
16.4381
81.8606
29.474
76.2982
15.7405
61.3887
14.8151
13.7912
78.1652
74.3141
119.471
84.556
129.043
79.3683
137.529
64.2517
157.77
69.4592
1.70356
83.8926
5.68825
85.9692
0.00142547
94.8786
15.5177
94.9343
63.3018
17.8407
97.6957
18.2484
93.7005
9.88904
90.0346
11.5797
87.9982
28.7868
3.0396
62.3304
117.564
66.9837
82.7954
124.444
92.0333
135.949
94.3822
154.381
86.9336
202.976
89.2116
65.9597
112.202
72.8843
114.077
60.5911
111.185
48.5509
106.696
93.9963
72.8621
113.366
69.4071
111.196
59.1618
104.421
32.7332
95.1603
26.4976
61.7257
116.209
73.4874
108.624
38.209
92.2328
)
;

boundaryField
{
    inlet
    {
        type            calculated;
        value           nonuniform 0();
    }
    outlet
    {
        type            calculated;
        value           nonuniform List<scalar> 
12
(
232.189
174.557
84.86
88.4728
54.9813
32.7531
152.709
139.463
64.1683
194.581
206.828
58.6638
)
;
    }
    wall
    {
        type            calculated;
        value           uniform 0;
    }
    procBoundary5to1
    {
        type            processor;
        value           nonuniform List<scalar> 
32
(
121.368
65.218
126.557
53.6227
152.53
99.7942
5.38386
94.9201
2.18694
91.9253
11.4882
90.8641
59.5446
90.4206
3.42601
91.0797
22.6765
92.2825
16.0486
97.4127
34.7468
81.181
125.092
85.9594
85.9594
85.9594
18.7217
89.9314
89.9314
89.9314
14.1282
14.1282
)
;
    }
    procBoundary5to4
    {
        type            processor;
        value           nonuniform List<scalar> 
12
(
104.499
73.7245
83.1149
73.6972
110.786
83.6072
89.8133
77.5067
113.415
106.076
108.306
105.771
)
;
    }
    procBoundary5to7
    {
        type            processor;
        value           nonuniform List<scalar> 
44
(
83.3421
34.0355
78.2244
20.9934
64.7071
11.3208
32.1745
23.189
16.0449
83.3421
12.2022
72.2374
13.4155
32.109
0.907381
10.7205
17.6848
3.37231
12.2022
81.8819
12.2022
72.2374
0.962889
71.4489
12.5172
61.4898
17.5969
16.6127
91.9866
1.6371
0.962889
102.519
0.962889
71.4489
35.776
88.625
40.0255
28.2019
90.8858
7.20373
90.9199
52.167
35.776
85.2963
)
;
    }
}


// ************************************************************************* //
