/*--------------------------------*- C++ -*----------------------------------*\
| =========                 |                                                 |
| \\      /  F ield         | OpenFOAM: The Open Source CFD Toolbox           |
|  \\    /   O peration     | Version:  4.x                                   |
|   \\  /    A nd           | Web:      www.OpenFOAM.org                      |
|    \\/     M anipulation  |                                                 |
\*---------------------------------------------------------------------------*/
FoamFile
{
    version     2.0;
    format      ascii;
    class       volScalarField;
    location    "5.5";
    object      QWallFluidCoeff;
}
// * * * * * * * * * * * * * * * * * * * * * * * * * * * * * * * * * * * * * //

dimensions      [1 -1 -3 -1 0 0 0];

internalField   nonuniform List<scalar> 
114
(
-3.51775e+06
-2.33281e+06
-3.69863e+06
-1.90927e+06
-4.3093e+06
-2.9824e+06
0
0
0
0
0
0
0
0
0
0
0
0
0
0
0
-1.92964e+06
-3.07625e+06
-1.91896e+06
-3.17266e+06
-1.71896e+06
-3.17923e+06
-1.50681e+06
-3.12088e+06
-1.37439e+06
0
0
0
0
0
0
0
0
0
0
0
0
0
0
0
0
0
0
0
0
-2.24158e+06
-3.27724e+06
-2.48549e+06
-3.48565e+06
-2.36274e+06
-3.66785e+06
-1.99528e+06
-4.09371e+06
-2.12364e+06
0
0
0
0
0
0
0
0
0
0
0
0
0
0
0
0
0
0
0
0
0
0
-4.88801e+06
-6.77185e+06
-5.31966e+06
-7.26822e+06
-5.42799e+06
-8.04641e+06
-5.0825e+06
-1.00157e+07
-5.18877e+06
-2.03761e+06
-3.11673e+06
-2.20701e+06
-3.15833e+06
-1.90381e+06
-3.09411e+06
-1.59461e+06
-2.99375e+06
-2.70512e+06
-2.20647e+06
-3.14256e+06
-2.12237e+06
-3.09435e+06
-1.8678e+06
-2.94259e+06
-1.16329e+06
-2.73188e+06
-982342
-1.93228e+06
-3.20545e+06
-2.22161e+06
-3.03694e+06
-1.31653e+06
-2.66444e+06
)
;

boundaryField
{
    inlet
    {
        type            calculated;
        value           nonuniform 0();
    }
    outlet
    {
        type            calculated;
        value           uniform 0;
    }
    wall
    {
        type            calculated;
        value           uniform 0;
    }
    procBoundary5to1
    {
        type            processor;
        value           uniform 0;
    }
    procBoundary5to4
    {
        type            processor;
        value           uniform 0;
    }
    procBoundary5to7
    {
        type            processor;
        value           uniform 0;
    }
}


// ************************************************************************* //
