/*--------------------------------*- C++ -*----------------------------------*\
| =========                 |                                                 |
| \\      /  F ield         | OpenFOAM: The Open Source CFD Toolbox           |
|  \\    /   O peration     | Version:  4.x                                   |
|   \\  /    A nd           | Web:      www.OpenFOAM.org                      |
|    \\/     M anipulation  |                                                 |
\*---------------------------------------------------------------------------*/
FoamFile
{
    version     2.0;
    format      ascii;
    class       volVectorField;
    location    "5.5";
    object      Urel;
}
// * * * * * * * * * * * * * * * * * * * * * * * * * * * * * * * * * * * * * //

dimensions      [0 1 -1 0 0 0 0];

internalField   nonuniform List<vector> 
114
(
(-0.0252611 0.000590841 -9.90113e-05)
(-0.0236624 0.000906919 0.000326747)
(-0.0254798 0.00105784 0.000742006)
(-0.0232392 0.00228236 0.00143912)
(-0.0253839 0.00317209 0.00252753)
(-0.0206706 0.00668698 0.00521669)
(-0.0198127 0.000430014 0.000239097)
(-0.0217188 0.000382562 0.000686368)
(-0.0196002 0.000743026 0.000837862)
(-0.02186 0.00104953 0.00130285)
(-0.0195897 0.00208675 0.00187762)
(-0.021366 0.00297769 0.00272349)
(-0.0177773 0.00653049 0.00418865)
(-0.0201941 0.000299665 0.000253525)
(-0.0181328 0.000277429 0.000499115)
(-0.0201107 0.00024468 0.000918899)
(-0.017966 0.000646895 0.0012744)
(-0.0195344 0.0010417 0.0019314)
(-0.0168398 0.00181989 0.00252402)
(-0.017681 0.00228142 0.00323345)
(-0.0144004 0.00419332 0.00448663)
(-0.0232185 0.000910069 -0.000789493)
(-0.0248743 0.000681133 -0.000711745)
(-0.0237046 0.000674744 -0.000507769)
(-0.0253139 0.000650411 -0.000245174)
(-0.0237149 0.000827565 0.000158774)
(-0.025511 0.000988491 0.000504705)
(-0.0232473 0.00224203 0.000864632)
(-0.0245729 0.00315218 0.00151295)
(-0.0206984 0.00606366 0.00276924)
(-0.0193233 0.0004801 -2.45113e-05)
(-0.0211402 0.000391187 4.54073e-05)
(-0.0194665 0.000478345 9.99925e-05)
(-0.0211443 0.000471496 0.000469552)
(-0.0190351 0.00102698 0.000882142)
(-0.0214899 0.00136231 0.00116837)
(-0.0192689 0.00215864 0.00126502)
(-0.0205225 0.00314031 0.0016319)
(-0.01734 0.00583095 0.00217871)
(-0.0183172 0.000257254 6.71908e-05)
(-0.0203215 0.000418702 0.00022284)
(-0.0184848 0.000446643 0.000426418)
(-0.0201895 0.000405302 0.000852426)
(-0.018086 0.00116982 0.00106194)
(-0.0190129 0.0015694 0.00142101)
(-0.0160644 0.00197218 0.00161272)
(-0.0162922 0.00234813 0.00194021)
(-0.0130916 0.00402265 0.00227467)
(-0.0180809 5.96021e-05 0.000160626)
(-0.0196464 0.000148096 0.000610302)
(-0.0244717 0.00071657 -0.000930916)
(-0.0261873 0.000598265 -0.000722068)
(-0.0253242 0.000280005 -0.00052947)
(-0.0270107 7.44263e-05 -0.000251336)
(-0.0255525 0.000482615 7.61449e-06)
(-0.0272538 0.000787733 0.000301239)
(-0.0248851 0.0022386 0.000145447)
(-0.0265613 0.00323349 0.000413351)
(-0.0216443 0.00707475 -0.000728136)
(-0.0205948 0.000424605 -0.000258518)
(-0.022621 0.000366289 1.05522e-05)
(-0.0207856 0.000419326 0.000104832)
(-0.0233275 0.000342024 0.000419496)
(-0.0212819 0.000690001 0.000706719)
(-0.0234654 0.000966942 0.00100655)
(-0.0208883 0.00201278 0.00069112)
(-0.0223863 0.00293954 0.000691163)
(-0.018842 0.0066757 -0.000218792)
(-0.0195692 0.000395826 -6.32132e-06)
(-0.0217352 0.000534378 0.00038255)
(-0.0197679 0.000445304 0.000467524)
(-0.02173 0.000338672 0.000871926)
(-0.0194808 0.000678024 0.000825614)
(-0.021071 0.000886828 0.000929679)
(-0.018231 0.00154315 0.000737449)
(-0.0192381 0.00202964 0.000707295)
(-0.0160183 0.00409251 -0.000223492)
(-0.0192971 0.000173807 -1.49326e-05)
(-0.0208173 0.000325202 0.000424792)
(-0.0181373 0.000120917 0.000558757)
(-0.0203782 0.000160964 0.000785054)
(-0.0260578 0.00046097 -0.000679735)
(-0.0277934 0.000389204 -0.000419764)
(-0.0272093 0.000262284 8.44647e-06)
(-0.0288093 0.000225605 0.000346674)
(-0.0276357 0.000642491 0.000559364)
(-0.0292198 0.0010328 0.000626675)
(-0.0270768 0.00252077 0.000456529)
(-0.0290447 0.00367338 0.000326989)
(-0.0234709 0.00818981 -0.000512885)
(-0.0239984 0.000378402 -0.000437935)
(-0.0256012 0.000336145 -8.18119e-05)
(-0.0244777 0.000356491 0.000561297)
(-0.0259814 0.000351107 0.00110191)
(-0.0241836 0.000754157 0.0011043)
(-0.0255073 0.00106395 0.00110339)
(-0.0229689 0.00227105 0.000755942)
(-0.0241773 0.00321662 0.000531727)
(-0.0205901 0.00750086 -3.84297e-05)
(-0.0230673 0.000469312 -0.000156683)
(-0.0244749 0.000545332 0.000284137)
(-0.0230678 0.000535111 0.000653197)
(-0.0243003 0.000463416 0.00100951)
(-0.0222485 0.00073243 0.000974515)
(-0.0233394 0.000906413 0.000987955)
(-0.0206459 0.00159733 0.000723389)
(-0.021582 0.00215012 0.000532694)
(-0.0182527 0.00361046 -0.000134689)
(-0.0221751 0.000416309 -0.000157025)
(-0.0233761 0.000527093 4.44837e-05)
(-0.0216185 0.000339987 0.000490794)
(-0.0228143 0.000263857 0.00111652)
(-0.020622 0.000205262 0.000839889)
(-0.0218448 8.65316e-05 0.000836102)
)
;

boundaryField
{
    inlet
    {
        type            calculated;
        value           nonuniform 0();
    }
    outlet
    {
        type            calculated;
        value           nonuniform List<vector> 
12
(
(-0.0150866 0.0243923 0.0272073)
(-0.00777604 0.0324981 0.013826)
(-0.00126567 0.0203514 0.0159619)
(-0.0156201 0.0112003 0.0118598)
(-0.00380545 0.0146444 0.00303881)
(0.0096625 0.0137583 0.0017166)
(-0.0115993 0.0204191 -0.0173545)
(-0.00664908 0.0255306 -0.0094856)
(-0.00611156 0.0139336 -0.0100703)
(-0.0198213 0.0283502 -0.00402732)
(-0.0126524 0.0337129 0.00040958)
(-0.0110547 0.00204365 -0.000674093)
)
;
    }
    wall
    {
        type            calculated;
        value           nonuniform List<vector> 
66
(
(1.0109e-05 -1.77778e-07 7.90635e-06)
(6.72533e-06 1.71602e-06 1.17161e-05)
(1.01589e-05 -7.38151e-08 2.87345e-05)
(1.50045e-05 1.03537e-06 2.33183e-05)
(7.70828e-06 -5.73798e-08 1.37912e-05)
(3.73922e-06 3.42602e-06 7.92343e-06)
(9.99046e-06 3.03163e-06 1.913e-05)
(1.08094e-05 8.13874e-07 1.34829e-05)
(1.59797e-05 -1.93136e-06 2.56174e-05)
(1.09935e-05 -3.46671e-06 2.06491e-05)
(1.53958e-05 -1.96338e-06 1.00619e-05)
(1.17826e-05 -3.80245e-06 1.85023e-05)
(1.83487e-05 -6.15595e-06 2.58354e-05)
(1.26132e-05 -3.75735e-06 2.32466e-05)
(1.27439e-05 4.4767e-07 1.07462e-05)
(1.35173e-05 1.63744e-06 2.21031e-05)
(1.14788e-05 3.79961e-07 8.83651e-06)
(2.04807e-05 1.62364e-07 1.80097e-05)
(1.23631e-05 -2.7254e-06 1.17985e-05)
(1.04126e-05 -1.57012e-06 2.06353e-05)
(1.56863e-05 8.20204e-07 1.86061e-05)
(1.09987e-05 3.30974e-06 1.84036e-05)
(2.22485e-06 3.2052e-07 1.04476e-05)
(1.83189e-06 -3.77983e-06 2.63226e-05)
(1.20333e-05 -2.58471e-06 1.38916e-05)
(1.0481e-05 4.62602e-07 1.4162e-05)
(5.58569e-06 3.09757e-06 1.2129e-05)
(6.62103e-06 2.77307e-07 1.02581e-05)
(7.26091e-06 9.23577e-09 1.42793e-05)
(3.77969e-06 1.11094e-06 1.25133e-05)
(1.08796e-06 6.552e-07 8.77131e-06)
(1.99454e-06 3.89032e-06 1.4796e-05)
(1.43201e-07 2.51699e-06 1.14489e-05)
(9.89548e-06 -1.17028e-06 2.55621e-05)
(1.06809e-05 -2.68745e-07 1.67964e-05)
(1.0109e-05 -1.77778e-07 7.90635e-06)
(1.52571e-05 -1.59879e-06 2.36075e-05)
(1.59775e-05 -5.0785e-07 1.98026e-05)
(7.70828e-06 -5.73798e-08 1.37912e-05)
(1.57544e-05 -2.56499e-06 2.27152e-05)
(1.20557e-05 -1.71428e-06 2.22845e-05)
(1.59797e-05 -1.93136e-06 2.56174e-05)
(1.21314e-05 8.55769e-07 2.49281e-05)
(1.39995e-05 -2.6473e-06 2.01202e-05)
(1.12606e-05 -5.81161e-06 2.1653e-05)
(1.83487e-05 -6.15595e-06 2.58354e-05)
(1.02554e-05 -2.45404e-07 2.11939e-05)
(1.36768e-05 -1.53268e-06 1.5329e-05)
(1.04091e-05 -2.41115e-06 1.50778e-05)
(1.14788e-05 3.79961e-07 8.83651e-06)
(5.89013e-06 3.97524e-06 2.41831e-05)
(1.27333e-05 -4.83378e-07 2.07591e-05)
(1.36004e-05 7.05235e-07 1.81276e-05)
(1.56863e-05 8.20204e-07 1.86061e-05)
(2.60421e-06 1.16155e-07 2.16085e-05)
(1.0326e-05 -3.89556e-06 1.59435e-05)
(1.22465e-05 1.2006e-07 1.3509e-05)
(1.20333e-05 -2.58471e-06 1.38916e-05)
(2.43269e-06 -3.2567e-07 2.01716e-05)
(8.25369e-06 4.83337e-07 1.18251e-05)
(7.57166e-06 3.74296e-07 1.29023e-05)
(6.62103e-06 2.77307e-07 1.02581e-05)
(-3.72914e-06 -1.6569e-06 2.63618e-05)
(1.86714e-06 -1.47202e-06 1.25233e-05)
(1.21287e-06 -1.69178e-06 1.22121e-05)
(1.08796e-06 6.552e-07 8.77131e-06)
)
;
    }
    procBoundary5to1
    {
        type            processor;
        value           nonuniform List<vector> 
32
(
(-0.024709 0.000682512 -0.000145823)
(-0.0230715 0.000896869 0.00024268)
(-0.0248895 0.000987024 0.000650505)
(-0.0227002 0.00189488 0.00110717)
(-0.0246485 0.00253267 0.00229725)
(-0.02037 0.00540408 0.0043569)
(-0.019672 0.000482054 0.000164775)
(-0.0218188 0.000401467 0.000541034)
(-0.0196118 0.000638016 0.000774544)
(-0.0217598 0.000844846 0.0012051)
(-0.0194306 0.0015311 0.00161373)
(-0.0214254 0.00225631 0.00253266)
(-0.0181679 0.00469015 0.00327608)
(-0.0200522 0.000356059 0.000319538)
(-0.0179255 0.00024191 0.00044365)
(-0.0200977 0.000130124 0.000779939)
(-0.0180018 0.000355133 0.00115827)
(-0.0198852 0.00056783 0.00173678)
(-0.0175015 0.00110944 0.00219513)
(-0.0192192 0.00155554 0.00308377)
(-0.0161729 0.00285412 0.003813)
(-0.0233276 0.000737265 -0.000829542)
(-0.0248966 0.00061735 -0.000760368)
(-0.0237523 0.000606776 -0.000419856)
(-0.0237523 0.000606776 -0.000419856)
(-0.0237523 0.000606776 -0.000419856)
(-0.0197433 0.000467305 -0.000104263)
(-0.0216826 0.000406327 2.57365e-05)
(-0.0216826 0.000406327 2.57365e-05)
(-0.0216826 0.000406327 2.57365e-05)
(-0.0182813 0.000252224 0.000105651)
(-0.0182813 0.000252224 0.000105651)
)
;
    }
    procBoundary5to4
    {
        type            processor;
        value           nonuniform List<vector> 
12
(
(-0.0241734 0.000899159 -0.000970467)
(-0.021245 0.000432283 -0.00029656)
(-0.0203593 8.85794e-05 -6.91186e-05)
(-0.0199065 2.73196e-05 -6.09325e-05)
(-0.0252104 0.00080231 -0.00112253)
(-0.0226013 0.000446182 -0.000631525)
(-0.021696 0.000142945 -0.00033341)
(-0.0212198 -1.73573e-05 -0.000250823)
(-0.0264124 0.000548525 -0.000954137)
(-0.0249003 0.000380232 -0.000822755)
(-0.0240972 0.000292844 -0.000545697)
(-0.0234291 0.000276154 -0.000395648)
)
;
    }
    procBoundary5to7
    {
        type            processor;
        value           nonuniform List<vector> 
44
(
(-0.0197335 1.35887e-05 0.000451732)
(-0.0178949 -2.98627e-05 0.000771946)
(-0.0194147 -5.59164e-05 0.00120359)
(-0.0172589 -8.13388e-05 0.00164106)
(-0.017857 -6.27057e-05 0.00244783)
(-0.0146192 -3.83324e-05 0.00308706)
(-0.0144211 1.83654e-05 0.00379453)
(-0.0113714 0.00011172 0.00524775)
(-0.0179843 -2.5819e-06 0.00022102)
(-0.0197335 1.35887e-05 0.000451732)
(-0.0177579 8.51905e-05 0.000572314)
(-0.0190782 5.38866e-05 0.000716925)
(-0.0168617 7.33944e-05 0.00108593)
(-0.0163139 7.6382e-05 0.00149168)
(-0.0125273 0.000187202 0.00202079)
(-0.0115342 0.000271318 0.00260068)
(-0.00864991 0.000566661 0.00319414)
(-0.0183356 -0.000213561 0.000168209)
(-0.0177579 8.51905e-05 0.000572314)
(-0.0203302 -0.000149678 0.000555262)
(-0.0177579 8.51905e-05 0.000572314)
(-0.0190782 5.38866e-05 0.000716925)
(-0.0182088 0.000196432 0.000680577)
(-0.0192913 0.000212724 0.000581776)
(-0.016474 0.000387474 0.000474694)
(-0.0165498 0.000426229 0.000642389)
(-0.0137046 0.00103096 -0.000585823)
(-0.0196966 -0.000158546 8.8917e-05)
(-0.021325 -0.000290733 0.000559464)
(-0.0190328 -4.35504e-05 0.00053198)
(-0.0182088 0.000196432 0.000680577)
(-0.0209331 0.000230367 0.000934923)
(-0.0182088 0.000196432 0.000680577)
(-0.0192913 0.000212724 0.000581776)
(-0.0194378 0.00049556 0.00049774)
(-0.0204585 0.000524724 0.000393751)
(-0.016973 0.00129535 -0.000671856)
(-0.0212372 -8.69759e-06 5.98244e-05)
(-0.0224956 -8.14756e-06 0.000300278)
(-0.0201022 7.07885e-05 0.000419644)
(-0.0219805 0.000158345 0.000859063)
(-0.0190819 -9.44141e-05 0.00081556)
(-0.0194378 0.00049556 0.00049774)
(-0.0212064 -0.000175531 0.000697232)
)
;
    }
}


// ************************************************************************* //
