/*--------------------------------*- C++ -*----------------------------------*\
| =========                 |                                                 |
| \\      /  F ield         | OpenFOAM: The Open Source CFD Toolbox           |
|  \\    /   O peration     | Version:  4.x                                   |
|   \\  /    A nd           | Web:      www.OpenFOAM.org                      |
|    \\/     M anipulation  |                                                 |
\*---------------------------------------------------------------------------*/
FoamFile
{
    version     2.0;
    format      ascii;
    class       volVectorField;
    location    "5.5";
    object      Us;
}
// * * * * * * * * * * * * * * * * * * * * * * * * * * * * * * * * * * * * * //

dimensions      [0 1 -1 0 0 0 0];

internalField   nonuniform List<vector> 
114
(
(-1.64777e-06 2.20083e-07 -9.86168e-08)
(-1.33346e-06 1.42275e-07 3.66986e-08)
(-1.34793e-06 3.63106e-08 1.77849e-07)
(-8.2545e-07 -1.29501e-08 8.5898e-08)
(-8.89186e-07 1.20602e-07 -1.1801e-08)
(-3.49806e-06 -8.27351e-07 -2.76773e-08)
(-3.16839e-06 1.6509e-07 -3.93212e-07)
(-2.68336e-06 2.87519e-07 -2.34808e-07)
(-2.40042e-06 3.19138e-07 -2.05435e-07)
(-1.95e-06 1.11128e-07 3.00146e-08)
(-1.72508e-06 -5.24326e-09 1.13019e-07)
(-1.44523e-06 2.18005e-07 -7.3215e-09)
(-7.95895e-07 -2.98117e-07 -5.29402e-08)
(-4.0174e-06 -5.31454e-08 -5.13881e-07)
(-3.6837e-06 6.34281e-08 -4.58307e-07)
(-3.28938e-06 1.84162e-08 -3.34307e-07)
(-2.94445e-06 1.13897e-07 -2.33683e-07)
(-2.50244e-06 1.9657e-07 -1.5788e-07)
(-2.0982e-06 1.00747e-07 -9.9133e-08)
(-1.75283e-06 2.16756e-07 6.08728e-09)
(-8.62916e-07 3.46408e-07 1.26949e-08)
(-1.37435e-06 7.94264e-09 1.28347e-07)
(-1.40147e-06 -1.49312e-07 1.06581e-07)
(-1.42076e-06 3.88688e-08 -7.45134e-08)
(-1.02136e-06 6.64507e-08 -7.86479e-08)
(-9.60311e-07 1.06756e-08 -2.01525e-07)
(-7.53594e-07 6.14107e-08 -1.21747e-08)
(-7.42441e-07 2.53254e-08 -2.62961e-09)
(-7.92776e-07 6.26846e-08 -1.51153e-09)
(-5.25805e-07 2.58536e-07 -3.42262e-08)
(-2.81057e-06 -2.14113e-07 -2.19065e-07)
(-2.84984e-06 -4.20497e-07 3.95975e-08)
(-2.58878e-06 7.97748e-08 -3.8191e-07)
(-2.01061e-06 1.53378e-10 -2.76787e-07)
(-1.87474e-06 -2.55882e-08 -2.57754e-07)
(-1.71993e-06 5.61166e-08 -1.3038e-07)
(-1.60342e-06 1.15488e-07 -9.64457e-08)
(-1.34978e-06 2.96567e-07 -9.06959e-08)
(-8.59683e-07 2.22555e-07 -6.51997e-08)
(-3.50788e-06 -2.57561e-07 -5.22627e-07)
(-3.43333e-06 -1.50031e-07 -2.87935e-07)
(-3.18608e-06 -1.02095e-08 -3.66283e-07)
(-2.91024e-06 -5.31576e-08 -3.59099e-07)
(-2.46369e-06 5.09742e-08 -1.71464e-07)
(-2.11356e-06 6.98847e-08 -2.1596e-07)
(-1.85097e-06 5.94801e-08 -1.46572e-07)
(-1.48025e-06 1.49592e-07 -7.17872e-08)
(-5.68925e-07 1.87435e-07 -9.7424e-09)
(-3.77482e-06 -2.52213e-07 -3.31852e-07)
(-3.58104e-06 -1.89651e-07 -1.56231e-07)
(-1.23494e-06 9.25984e-08 7.53149e-08)
(-1.08444e-06 -9.66491e-08 -7.99898e-08)
(-9.89128e-07 4.09393e-08 -1.07636e-07)
(-9.06435e-07 -1.08172e-07 1.04772e-07)
(-8.6947e-07 -2.17039e-08 -7.03815e-08)
(-6.42545e-07 3.2139e-08 2.90684e-08)
(-6.56979e-07 1.99195e-08 -2.6379e-08)
(-7.64638e-07 8.05005e-08 -4.47383e-08)
(-4.70335e-07 1.38262e-07 -1.47006e-08)
(-2.02543e-06 1.98252e-07 -5.24762e-08)
(-1.85096e-06 -2.57084e-08 -8.9988e-08)
(-1.70729e-06 -8.96862e-08 -3.28869e-07)
(-2.85414e-06 -4.72139e-07 -3.19736e-07)
(-1.62536e-06 -7.53309e-08 -1.67196e-07)
(-1.47118e-06 -6.16322e-08 -9.2053e-08)
(-1.14347e-06 9.13586e-08 -7.54819e-08)
(-1.09941e-06 1.98878e-07 -1.52983e-07)
(-5.44614e-07 1.03616e-07 -8.98341e-08)
(-3.03696e-06 -4.09501e-07 -2.90188e-07)
(-2.92106e-06 -3.24642e-07 -1.37574e-07)
(-2.33741e-06 -2.87824e-07 -2.33294e-07)
(-2.33615e-06 -1.00959e-07 -2.43579e-07)
(-1.93616e-06 -1.87804e-08 -1.51824e-07)
(-1.65883e-06 -1.04144e-07 -2.28633e-07)
(-1.36341e-06 -1.05518e-07 -1.74902e-07)
(-1.06509e-06 4.10837e-08 -1.3163e-07)
(-6.35879e-07 9.70633e-08 -9.3331e-08)
(-3.35447e-06 -3.97891e-07 -4.31373e-07)
(-3.08034e-06 -3.46455e-07 -2.62675e-07)
(-2.79831e-06 -1.6756e-07 -1.93058e-07)
(-2.3286e-06 -1.54042e-07 -1.771e-07)
(-5.56683e-07 -8.12194e-08 7.41811e-08)
(-7.03672e-07 -2.95979e-08 -8.2051e-08)
(-5.10889e-07 6.34768e-08 2.13125e-08)
(-6.6145e-07 -2.89477e-08 6.49479e-08)
(-6.40938e-07 2.31984e-08 -4.35394e-08)
(-4.37485e-07 -6.44963e-08 6.06626e-08)
(-4.11796e-07 -4.59349e-09 2.02169e-08)
(-4.48296e-07 1.14621e-07 -5.53692e-08)
(-2.08306e-07 9.28148e-08 -5.58867e-08)
(-1.14702e-06 -1.34724e-08 1.32837e-07)
(-1.09699e-06 -1.27935e-07 -1.62543e-07)
(-5.18453e-06 1.27926e-06 1.03286e-06)
(-3.33514e-06 -8.79575e-07 5.91708e-08)
(-1.7837e-07 8.67024e-07 7.68941e-08)
(-8.66095e-07 -9.12533e-08 -8.31656e-08)
(-9.35383e-07 -5.055e-08 -3.04397e-08)
(-6.12427e-07 9.60689e-08 -5.2871e-08)
(-3.33067e-07 6.2443e-08 -6.51387e-08)
(-1.26533e-06 -3.73464e-07 3.47188e-08)
(-1.36399e-06 -1.75695e-07 -1.04943e-07)
(-9.30706e-07 -1.49516e-07 -9.8385e-09)
(-1.49116e-06 -1.38914e-08 -7.2087e-08)
(-8.06942e-07 1.75639e-07 -5.9445e-08)
(-1.21103e-06 -1.75571e-07 -1.77423e-07)
(-9.54897e-07 -1.25209e-07 -1.21099e-07)
(-7.47558e-07 -6.2761e-09 -7.03817e-08)
(-4.13193e-07 7.87244e-08 -1.00176e-07)
(-2.10213e-06 -4.8372e-07 -2.42893e-08)
(-1.89728e-06 -4.38178e-07 -1.10044e-07)
(-1.61242e-06 -1.87563e-07 -2.4511e-08)
(-1.37197e-06 4.30885e-08 -6.51098e-08)
(-1.30737e-06 -1.43587e-07 -1.28077e-07)
(-1.14132e-06 -2.35301e-07 -2.68524e-07)
)
;

boundaryField
{
    inlet
    {
        type            zeroGradient;
    }
    outlet
    {
        type            zeroGradient;
    }
    wall
    {
        type            zeroGradient;
    }
    procBoundary5to1
    {
        type            processor;
        value           nonuniform List<vector> 
32
(
(-1.66659e-06 2.10772e-07 -1.19652e-07)
(-1.37294e-06 1.91086e-07 9.30899e-08)
(-1.28508e-06 5.6845e-08 2.33896e-07)
(-1.11085e-06 -4.68172e-08 1.8831e-07)
(-1.12524e-06 2.10886e-07 3.36881e-08)
(-7.8793e-07 3.88394e-07 -2.9913e-08)
(-3.3367e-06 3.89781e-08 -3.38975e-07)
(-3.0185e-06 2.16252e-07 -2.88654e-07)
(-2.4469e-06 3.75642e-07 -7.27475e-08)
(-2.09771e-06 -1.99585e-08 2.70894e-07)
(-1.87455e-06 5.01642e-08 2.78862e-07)
(-1.84217e-06 2.57326e-07 1.12884e-07)
(-1.0056e-06 1.56785e-07 -3.02158e-08)
(-4.36726e-06 1.32673e-07 -5.07607e-07)
(-4.08812e-06 3.12255e-07 -5.00369e-07)
(-3.80366e-06 1.55855e-07 -4.21553e-07)
(-3.41671e-06 1.25242e-07 -2.24645e-07)
(-2.8662e-06 2.86826e-07 5.87047e-08)
(-2.29642e-06 6.85886e-08 2.40557e-07)
(-2.00536e-06 2.01398e-07 1.62344e-07)
(-1.27317e-06 7.48505e-08 1.1193e-07)
(-2.02378e-06 -7.20381e-10 -1.3731e-07)
(-1.55733e-06 -3.99148e-07 2.35834e-07)
(-1.4726e-06 -6.27639e-08 -1.23145e-08)
(-1.4726e-06 -6.27639e-08 -1.23145e-08)
(-1.4726e-06 -6.27639e-08 -1.23145e-08)
(-3.36918e-06 5.04648e-08 -3.51104e-07)
(-3.33175e-06 -8.59326e-08 -2.68006e-07)
(-3.33175e-06 -8.59326e-08 -2.68006e-07)
(-3.33175e-06 -8.59326e-08 -2.68006e-07)
(-4.01212e-06 -8.83811e-08 -5.3298e-07)
(-4.01212e-06 -8.83811e-08 -5.3298e-07)
)
;
    }
    procBoundary5to4
    {
        type            processor;
        value           nonuniform List<vector> 
12
(
(-1.23216e-06 1.48304e-07 -3.56804e-08)
(-3.03086e-06 9.22997e-08 -1.70143e-07)
(-3.36383e-06 -1.34881e-07 -4.09221e-07)
(-3.67737e-06 -8.45781e-08 -3.36441e-07)
(-1.03244e-06 -1.31231e-08 -9.62575e-08)
(-1.90145e-06 1.31398e-08 -1.55873e-07)
(-2.57467e-06 -3.02365e-07 -3.33234e-07)
(-3.01031e-06 -2.229e-07 -3.92317e-07)
(-5.69084e-07 2.27607e-08 2.07171e-08)
(-1.10737e-06 -5.35381e-08 -2.01611e-08)
(-1.39009e-06 -3.05435e-07 -1.39335e-07)
(-2.20081e-06 -2.49869e-07 -8.19993e-08)
)
;
    }
    procBoundary5to7
    {
        type            processor;
        value           nonuniform List<vector> 
44
(
(-4.21759e-06 -7.78775e-08 -3.72578e-07)
(-4.03422e-06 -3.89711e-08 -4.32046e-07)
(-3.72141e-06 -1.51636e-07 -3.51992e-07)
(-3.17706e-06 7.36339e-08 -2.20062e-07)
(-2.4822e-06 1.94125e-07 1.67597e-07)
(-2.10528e-06 6.88565e-08 -1.99012e-08)
(-1.68542e-06 7.32201e-08 8.64184e-08)
(-7.03567e-07 1.01091e-07 -4.61048e-08)
(-4.1686e-06 -7.97203e-08 -4.51878e-07)
(-4.21759e-06 -7.78775e-08 -3.72578e-07)
(-3.52336e-06 -1.26798e-07 -2.64888e-07)
(-2.91384e-06 7.53402e-09 -2.59171e-07)
(-1.62537e-06 6.2501e-07 -1.17126e-07)
(-2.22164e-06 -6.10331e-08 -1.61904e-07)
(-1.7931e-06 -3.77294e-08 -1.07734e-07)
(-1.41573e-06 7.92314e-09 -1.11835e-08)
(-6.35846e-07 6.05602e-08 -3.7803e-08)
(-3.63277e-06 -2.56019e-07 -1.5711e-07)
(-3.52336e-06 -1.26798e-07 -2.64888e-07)
(-3.55027e-06 -1.52743e-07 -1.41968e-07)
(-3.52336e-06 -1.26798e-07 -2.64888e-07)
(-2.91384e-06 7.53402e-09 -2.59171e-07)
(-1.6382e-06 1.59264e-07 -2.58265e-07)
(-1.74949e-06 -1.42524e-07 -2.76325e-07)
(-1.43468e-06 -8.03107e-08 -1.71755e-07)
(-1.19882e-06 -7.15258e-08 -1.51062e-07)
(-4.84012e-07 2.18128e-08 -1.95634e-08)
(-3.01236e-06 -4.31912e-07 -1.09976e-07)
(-3.19156e-06 -2.56943e-07 2.05455e-08)
(-2.71637e-06 1.9812e-08 7.4894e-08)
(-1.6382e-06 1.59264e-07 -2.58265e-07)
(-2.19225e-06 1.0756e-09 -1.20565e-07)
(-1.6382e-06 1.59264e-07 -2.58265e-07)
(-1.74949e-06 -1.42524e-07 -2.76325e-07)
(-1.14261e-06 -2.22466e-07 -2.18235e-07)
(-1.1567e-06 4.10876e-08 -1.29831e-07)
(-4.50636e-07 5.44059e-08 8.61164e-09)
(-1.96637e-06 -5.68498e-07 -3.96715e-08)
(-1.94376e-06 -4.40057e-07 -6.86198e-08)
(-1.63568e-06 -1.67551e-07 -6.08221e-08)
(-1.29904e-06 -1.10343e-07 -9.75626e-08)
(-1.1518e-06 -1.67278e-07 -1.52665e-07)
(-1.14261e-06 -2.22466e-07 -2.18235e-07)
(-1.3119e-06 -1.59441e-07 -1.10048e-07)
)
;
    }
}


// ************************************************************************* //
