/*--------------------------------*- C++ -*----------------------------------*\
| =========                 |                                                 |
| \\      /  F ield         | OpenFOAM: The Open Source CFD Toolbox           |
|  \\    /   O peration     | Version:  4.x                                   |
|   \\  /    A nd           | Web:      www.OpenFOAM.org                      |
|    \\/     M anipulation  |                                                 |
\*---------------------------------------------------------------------------*/
FoamFile
{
    version     2.0;
    format      ascii;
    class       volVectorField;
    location    "58";
    object      ddtUrel;
}
// * * * * * * * * * * * * * * * * * * * * * * * * * * * * * * * * * * * * * //

dimensions      [0 1 -2 0 0 0 0];

internalField   nonuniform List<vector> 
108
(
(1.71247e-08 -8.08532e-09 -9.03491e-09)
(1.90806e-08 -8.74982e-09 -7.47778e-09)
(2.18449e-08 -9.5427e-09 -9.03947e-10)
(2.71297e-08 -1.1606e-08 1.48757e-08)
(3.48657e-08 -1.65027e-08 4.25086e-08)
(4.72044e-08 -2.31318e-08 7.86676e-08)
(6.39541e-08 -2.72503e-08 1.19846e-07)
(8.07165e-08 -2.68618e-08 1.72475e-07)
(8.96619e-08 -3.94099e-08 2.25774e-07)
(1.71504e-08 -8.42913e-09 -1.28317e-08)
(1.90603e-08 -8.97556e-09 -1.11173e-08)
(2.20513e-08 -9.69262e-09 -3.25947e-09)
(2.6257e-08 -1.17646e-08 1.50365e-08)
(3.24312e-08 -1.6455e-08 4.66325e-08)
(4.23284e-08 -2.17738e-08 8.65749e-08)
(5.7638e-08 -2.33934e-08 1.30033e-07)
(7.53672e-08 -2.86052e-08 1.9103e-07)
(9.02418e-08 -4.04356e-08 2.51901e-07)
(1.57762e-08 -8.701e-09 -1.88293e-08)
(1.77475e-08 -8.82573e-09 -1.59915e-08)
(2.05022e-08 -8.54173e-09 -5.45459e-09)
(2.36394e-08 -9.10724e-09 1.5116e-08)
(2.6364e-08 -1.22373e-08 4.75968e-08)
(3.12216e-08 -1.55695e-08 8.6604e-08)
(4.02332e-08 -1.66282e-08 1.33093e-07)
(5.09553e-08 -2.13875e-08 1.96162e-07)
(6.02897e-08 -2.30198e-08 2.56657e-07)
(1.41572e-08 -9.18892e-09 -2.79922e-08)
(1.51578e-08 -7.79475e-09 -2.21372e-08)
(1.72053e-08 -4.7279e-09 -8.46812e-09)
(1.9122e-08 -2.01316e-09 1.30346e-08)
(1.86109e-08 -2.71132e-09 4.4615e-08)
(1.79713e-08 -5.2343e-09 8.38448e-08)
(2.09856e-08 -5.65904e-09 1.32017e-07)
(2.30536e-08 -7.32501e-09 1.86102e-07)
(2.87375e-08 -3.67563e-09 2.36238e-07)
(1.3509e-08 -6.95241e-09 -1.00286e-08)
(1.41667e-08 -7.64893e-09 -8.10542e-09)
(1.41752e-08 -8.74266e-09 -5.62357e-10)
(1.51048e-08 -1.08551e-08 1.43948e-08)
(1.76468e-08 -1.36334e-08 3.70318e-08)
(2.32776e-08 -1.61419e-08 6.42583e-08)
(3.07163e-08 -1.7935e-08 9.79792e-08)
(4.46236e-08 -2.19359e-08 1.38538e-07)
(5.30317e-08 -3.28054e-08 1.71087e-07)
(1.30796e-08 -7.15314e-09 -1.35159e-08)
(1.33177e-08 -7.77414e-09 -1.11685e-08)
(1.33768e-08 -8.66838e-09 -2.41855e-09)
(1.39333e-08 -1.02516e-08 1.41625e-08)
(1.63028e-08 -1.21389e-08 3.83724e-08)
(2.0477e-08 -1.32216e-08 6.75062e-08)
(2.72351e-08 -1.48262e-08 1.02946e-07)
(4.0964e-08 -1.90361e-08 1.4631e-07)
(5.03566e-08 -3.12173e-08 1.92518e-07)
(1.10967e-08 -6.71372e-09 -1.87579e-08)
(1.12777e-08 -6.62054e-09 -1.56114e-08)
(1.11576e-08 -6.13371e-09 -5.11756e-09)
(1.126e-08 -5.84954e-09 1.25515e-08)
(1.1701e-08 -6.21084e-09 3.70626e-08)
(1.30273e-08 -6.53289e-09 6.6357e-08)
(1.58225e-08 -7.95745e-09 1.04275e-07)
(2.61838e-08 -9.28436e-09 1.47176e-07)
(3.41972e-08 -1.35842e-08 1.89264e-07)
(8.39884e-09 -5.62252e-09 -2.58752e-08)
(7.94602e-09 -3.92825e-09 -2.12201e-08)
(7.26373e-09 -8.09075e-10 -9.54979e-09)
(6.56986e-09 1.68974e-09 8.8495e-09)
(5.61975e-09 1.68037e-09 3.40748e-08)
(4.21623e-09 1.31381e-09 6.32152e-08)
(4.80578e-09 2.766e-09 9.92723e-08)
(9.35647e-09 2.34381e-09 1.39964e-07)
(1.45792e-08 5.95245e-09 1.69243e-07)
(1.13705e-08 -6.41497e-09 -1.02841e-08)
(1.11017e-08 -7.29452e-09 -7.8153e-09)
(9.74762e-09 -8.77108e-09 1.86159e-10)
(8.73265e-09 -1.05534e-08 1.42124e-08)
(8.85174e-09 -1.20365e-08 3.30724e-08)
(9.89647e-09 -1.26172e-08 5.60127e-08)
(8.87948e-09 -1.43267e-08 8.50289e-08)
(1.74417e-08 -1.96712e-08 1.16726e-07)
(2.57807e-08 -3.09131e-08 1.43992e-07)
(1.06009e-08 -6.41693e-09 -1.33176e-08)
(9.77484e-09 -7.2113e-09 -1.02258e-08)
(8.33235e-09 -8.25077e-09 -1.08062e-09)
(7.38596e-09 -9.19919e-09 1.35299e-08)
(7.81451e-09 -9.17393e-09 3.28099e-08)
(8.2611e-09 -8.27403e-09 5.63462e-08)
(8.27741e-09 -1.17483e-08 8.66881e-08)
(1.39089e-08 -1.83832e-08 1.19162e-07)
(1.68522e-08 -3.32329e-08 1.48168e-07)
(8.26654e-09 -5.53658e-09 -1.79053e-08)
(7.18578e-09 -5.39308e-09 -1.41188e-08)
(5.81999e-09 -4.93502e-09 -4.11223e-09)
(5.0725e-09 -4.43682e-09 1.11501e-08)
(4.12105e-09 -3.70524e-09 3.11313e-08)
(2.98406e-09 -3.4795e-09 5.55947e-08)
(8.30498e-10 -6.48561e-09 8.43246e-08)
(4.52226e-09 -9.97629e-09 1.14832e-07)
(1.03783e-08 -2.2605e-08 1.38628e-07)
(5.09281e-09 -3.75329e-09 -2.43337e-08)
(4.03809e-09 -1.87927e-09 -1.94007e-08)
(2.10491e-09 6.58593e-10 -8.89837e-09)
(7.74102e-10 2.16301e-09 7.17542e-09)
(-1.7223e-09 1.54835e-09 2.80612e-08)
(-4.66097e-09 1.72335e-09 5.15073e-08)
(-8.30083e-09 3.68672e-09 7.72911e-08)
(-9.03052e-09 4.90434e-09 1.04996e-07)
(-3.64403e-09 3.00483e-09 1.24793e-07)
)
;

boundaryField
{
    inlet
    {
        type            calculated;
        value           nonuniform List<vector> 
12
(
(1.83257e-09 -9.77898e-11 -9.50781e-10)
(4.01867e-09 -2.04991e-10 -1.52305e-09)
(3.41094e-09 -1.17703e-09 -1.93727e-09)
(3.83779e-09 -1.33369e-09 -2.54398e-09)
(1.80454e-09 1.4597e-10 -8.08963e-10)
(1.72223e-09 -4.7908e-10 -1.10886e-09)
(5.21492e-10 -5.10459e-10 -1.08705e-09)
(4.2119e-10 -9.50745e-10 -1.21664e-09)
(3.35214e-10 -5.08683e-12 -1.8916e-10)
(6.13719e-11 -5.59938e-11 -2.51392e-10)
(3.7733e-10 -1.46482e-10 -4.51278e-10)
(-5.46965e-10 -4.91547e-11 -4.90233e-10)
)
;
    }
    outlet
    {
        type            calculated;
        value           nonuniform 0();
    }
    wall
    {
        type            calculated;
        value           nonuniform List<vector> 
63
(
(4.51379e-10 -6.26003e-12 -1.797e-10)
(3.53761e-10 -7.4447e-11 -2.40789e-10)
(8.1587e-10 -1.66755e-10 -4.30815e-10)
(2.6011e-10 -6.73577e-11 -4.53931e-10)
(3.40989e-10 -1.55928e-10 -3.26015e-10)
(8.15255e-10 -4.65031e-10 -6.678e-10)
(5.22634e-10 -9.04012e-10 -7.70391e-10)
(-1.20337e-09 -1.1624e-09 -1.53101e-10)
(-2.29406e-09 -8.07982e-10 2.7643e-10)
(-1.26121e-09 -1.17902e-09 2.58042e-10)
(-6.47731e-10 -1.86449e-09 -5.42962e-11)
(-6.7375e-09 -4.28507e-09 3.62676e-10)
(-4.71137e-09 -1.23298e-09 1.66165e-09)
(-6.16495e-09 -3.28424e-09 2.14099e-09)
(-6.83594e-09 -3.18343e-09 2.23327e-09)
(-9.10917e-09 -9.50018e-10 2.39309e-09)
(-1.28064e-08 -1.98217e-09 2.93826e-09)
(-2.14451e-08 -3.02822e-09 6.07065e-09)
(-3.2817e-08 -2.59038e-09 8.30836e-09)
(-3.50485e-08 3.43712e-09 8.43375e-09)
(-1.52388e-08 -4.05113e-09 5.1954e-09)
(-1.94176e-08 2.26671e-09 6.95953e-09)
(-3.06661e-08 -2.49565e-10 1.53457e-08)
(-4.47907e-08 4.36298e-09 1.75073e-08)
(-1.03082e-07 -1.05706e-08 2.24504e-08)
(-5.20512e-08 -5.01669e-09 1.31692e-08)
(-9.8546e-08 -1.91257e-09 2.97848e-08)
(-1.07639e-07 7.2363e-09 3.45693e-08)
(-7.03088e-08 -1.01127e-08 3.78863e-08)
(-1.05652e-07 -1.00359e-08 5.84317e-08)
(-1.03424e-07 7.11716e-09 5.59616e-08)
(-1.38816e-07 -3.72136e-09 4.74607e-08)
(-2.10878e-07 -3.7321e-08 5.91726e-08)
(-3.41565e-07 -5.99212e-08 1.11521e-07)
(-2.02452e-07 -9.58317e-08 7.65547e-08)
(-2.14349e-07 2.74254e-08 7.63877e-08)
(1.00355e-09 -6.43973e-11 -9.10855e-10)
(1.31829e-09 1.66561e-10 -8.0476e-10)
(2.57901e-10 -1.96431e-12 -1.84111e-10)
(2.22073e-09 1.23102e-10 -1.15466e-09)
(1.18605e-09 -5.78581e-12 -9.24549e-10)
(1.12221e-10 -1.49256e-10 -3.26833e-10)
(2.64852e-10 -1.59013e-09 -1.56706e-09)
(-6.17347e-10 -9.53045e-10 -1.06466e-10)
(-2.84131e-09 -8.10543e-10 2.87318e-10)
(7.9343e-09 -2.17935e-09 2.01846e-09)
(3.19338e-10 -1.32662e-09 2.90158e-09)
(-4.28571e-09 -1.25015e-09 1.72221e-09)
(-7.34603e-09 -1.01478e-08 6.68357e-09)
(-5.78892e-09 -3.41176e-09 6.28755e-09)
(-1.12513e-08 -2.01975e-09 3.01363e-09)
(9.21884e-09 -1.48621e-08 1.26793e-08)
(-3.88431e-09 -5.84924e-09 8.32754e-09)
(-1.38234e-08 -4.04704e-09 5.28992e-09)
(1.55292e-08 -1.92287e-08 5.79826e-08)
(-3.81038e-08 -1.81609e-08 3.59285e-08)
(-8.43189e-08 -1.06211e-08 2.31995e-08)
(1.01119e-07 1.62344e-08 1.35899e-07)
(3.68276e-09 -1.58302e-08 9.83727e-08)
(-4.46287e-08 -1.01592e-08 3.91787e-08)
(-2.38772e-07 -1.28446e-07 3.80966e-07)
(-5.99509e-08 -5.92056e-08 1.49434e-07)
(-1.69028e-07 -3.79013e-08 5.96546e-08)
)
;
    }
    procBoundary4to0
    {
        type            processor;
        value           nonuniform List<vector> 
36
(
(2.22117e-08 -8.71502e-09 -6.91062e-09)
(2.53608e-08 -8.98718e-09 -4.86998e-09)
(3.25171e-08 -1.01047e-08 2.72983e-09)
(4.39481e-08 -1.31688e-08 2.02609e-08)
(5.9651e-08 -1.98787e-08 5.19635e-08)
(8.23444e-08 -2.70611e-08 9.45321e-08)
(1.05655e-07 -3.10316e-08 1.42177e-07)
(1.29192e-07 -3.8606e-08 2.10113e-07)
(1.47741e-07 -4.41642e-08 2.73249e-07)
(2.242e-08 -9.18329e-09 -1.00023e-08)
(2.59002e-08 -9.59104e-09 -7.75384e-09)
(3.28873e-08 -1.08592e-08 1.32308e-09)
(4.38513e-08 -1.43025e-08 2.1922e-08)
(5.79087e-08 -2.11598e-08 5.66034e-08)
(7.90212e-08 -2.81836e-08 1.00212e-07)
(1.01973e-07 -3.26873e-08 1.55026e-07)
(1.25502e-07 -4.42477e-08 2.29004e-07)
(1.41482e-07 -4.36637e-08 3.04585e-07)
(2.21914e-08 -1.01925e-08 -1.5663e-08)
(2.58868e-08 -1.03941e-08 -1.22194e-08)
(3.2198e-08 -1.08207e-08 -8.4544e-10)
(4.01674e-08 -1.32553e-08 2.30534e-08)
(5.05495e-08 -1.90519e-08 5.96135e-08)
(6.46858e-08 -2.49803e-08 1.04221e-07)
(8.00664e-08 -2.85586e-08 1.60047e-07)
(9.05611e-08 -3.18737e-08 2.4008e-07)
(9.94757e-08 -1.88541e-08 3.17793e-07)
(2.08873e-08 -1.15208e-08 -2.39152e-08)
(2.42817e-08 -1.06392e-08 -1.75624e-08)
(2.91549e-08 -8.38297e-09 -3.22026e-09)
(3.37844e-08 -7.37651e-09 2.11854e-08)
(3.88595e-08 -9.70519e-09 5.53051e-08)
(4.48444e-08 -1.41597e-08 1.01159e-07)
(4.84438e-08 -1.38528e-08 1.575e-07)
(4.75775e-08 -1.03178e-08 2.2496e-07)
(5.5245e-08 -9.03125e-09 2.96888e-07)
)
;
    }
    procBoundary4to5
    {
        type            processor;
        value           nonuniform List<vector> 
12
(
(1.3056e-07 -3.38708e-08 2.35457e-07)
(1.11944e-07 -2.56541e-08 2.76073e-07)
(8.80029e-08 -8.41369e-10 2.85485e-07)
(4.77758e-08 1.71416e-08 2.77376e-07)
(9.18805e-08 -3.51741e-08 1.79218e-07)
(8.5012e-08 -3.02792e-08 1.98928e-07)
(7.31686e-08 -8.65322e-09 2.08456e-07)
(4.70382e-08 1.88378e-08 1.78295e-07)
(6.60963e-08 -3.67482e-08 1.48376e-07)
(5.4813e-08 -3.77484e-08 1.52589e-07)
(4.40231e-08 -2.01561e-08 1.45645e-07)
(2.78339e-08 6.45859e-09 1.2413e-07)
)
;
    }
    procBoundary4to6
    {
        type            processor;
        value           nonuniform List<vector> 
27
(
(1.15781e-08 -8.17503e-09 -2.84476e-08)
(1.22205e-08 -5.98245e-09 -2.28866e-08)
(1.32026e-08 -6.50178e-10 -9.09142e-09)
(1.28281e-08 4.84212e-09 1.17896e-08)
(1.12586e-08 7.15559e-09 3.9613e-08)
(8.61718e-09 8.49632e-09 7.4875e-08)
(7.11016e-09 1.46572e-08 1.12884e-07)
(6.25197e-09 2.21173e-08 1.53493e-07)
(1.28416e-08 3.16953e-08 1.90665e-07)
(5.91579e-09 -4.24923e-09 -2.57788e-08)
(4.93576e-09 -1.82241e-09 -2.13684e-08)
(3.90995e-09 2.80357e-09 -9.84727e-09)
(2.20104e-09 6.71292e-09 7.71793e-09)
(-5.61203e-10 8.15121e-09 3.04669e-08)
(-3.474e-09 9.70223e-09 5.78052e-08)
(-7.0907e-09 1.43314e-08 8.70886e-08)
(-7.87382e-09 2.15553e-08 1.16404e-07)
(-2.14534e-09 3.56031e-08 1.383e-07)
(2.43061e-09 -1.91144e-09 -2.42293e-08)
(1.233e-09 5.72403e-10 -1.99027e-08)
(-3.97054e-10 4.16128e-09 -9.62058e-09)
(-2.70982e-09 6.34673e-09 5.92915e-09)
(-5.92898e-09 6.69885e-09 2.46366e-08)
(-1.00781e-08 8.68592e-09 4.59637e-08)
(-1.54103e-08 1.29292e-08 6.9718e-08)
(-1.83343e-08 1.82723e-08 9.05836e-08)
(-1.18685e-08 2.48203e-08 1.02563e-07)
)
;
    }
}


// ************************************************************************* //
