/*--------------------------------*- C++ -*----------------------------------*\
| =========                 |                                                 |
| \\      /  F ield         | OpenFOAM: The Open Source CFD Toolbox           |
|  \\    /   O peration     | Version:  4.x                                   |
|   \\  /    A nd           | Web:      www.OpenFOAM.org                      |
|    \\/     M anipulation  |                                                 |
\*---------------------------------------------------------------------------*/
FoamFile
{
    version     2.0;
    format      ascii;
    class       volScalarField;
    location    "58";
    object      KslPrev;
}
// * * * * * * * * * * * * * * * * * * * * * * * * * * * * * * * * * * * * * //

dimensions      [1 -3 -1 0 0 0 0];

internalField   nonuniform List<scalar> 
108
(
3386.3
7946.24
3392.53
7590.77
3375.3
7292.22
3313.5
7144.02
3192.86
3478.66
9861.77
3654.84
12577.7
3705.73
15231.9
3683.81
18838.1
3609.56
3515.4
11221.6
3774.26
17481.8
3834.86
28634.8
3808.02
84482.6
3750.19
3491.04
11005.2
3771.25
17218.2
3847.1
33483.8
3870.33
126975
3835.53
3367.21
7856.76
3358.58
7556.89
3365.8
7292.75
3305.63
7383.16
3265.58
3449.83
8991.28
3543.04
9927.97
3579.32
10983.6
3568.65
12839.6
3537.45
3465.37
10247.1
3687.94
14178.3
3770.71
20675.9
3751.54
36161.7
3715.5
3498.63
10484.4
3706.54
14909.2
3777.77
22114
3748.38
33719
3647.96
3322.4
6963.87
3171.19
5967.41
3107.29
5543.7
3034.76
5230.81
2909
3374.8
7712.78
3356.22
7071.5
3289.6
6655.37
3196.59
6337.16
3079.01
3426.81
8289.01
3457.64
8163.4
3430.87
7888.81
3333.64
7523.53
3229.62
3467.92
8464.29
3493.66
8569.17
3454.47
8171.83
3318.92
7475.3
3190.92
)
;

boundaryField
{
    inlet
    {
        type            zeroGradient;
    }
    outlet
    {
        type            zeroGradient;
    }
    wall
    {
        type            zeroGradient;
    }
    procBoundary4to0
    {
        type            processor;
        value           uniform 0;
    }
    procBoundary4to5
    {
        type            processor;
        value           uniform 0;
    }
    procBoundary4to6
    {
        type            processor;
        value           uniform 0;
    }
}


// ************************************************************************* //
