/*--------------------------------*- C++ -*----------------------------------*\
| =========                 |                                                 |
| \\      /  F ield         | OpenFOAM: The Open Source CFD Toolbox           |
|  \\    /   O peration     | Version:  4.x                                   |
|   \\  /    A nd           | Web:      www.OpenFOAM.org                      |
|    \\/     M anipulation  |                                                 |
\*---------------------------------------------------------------------------*/
FoamFile
{
    version     2.0;
    format      ascii;
    class       volScalarField;
    location    "58";
    object      pSmooth;
}
// * * * * * * * * * * * * * * * * * * * * * * * * * * * * * * * * * * * * * //

dimensions      [1 -1 -2 0 0 0 0];

internalField   nonuniform List<scalar> 
108
(
110.493
93.1165
103.401
75.3145
96.0483
57.1405
88.7302
38.6056
81.5973
111.064
93.3464
103.927
75.4744
96.4191
57.1491
89.0088
38.6632
81.8739
111.729
93.8526
104.497
75.9884
96.8671
57.7856
89.3404
39.5
81.9134
111.71
93.9064
104.531
76.0117
96.9694
57.7991
89.3403
39.4189
81.8788
110.658
93.3297
103.658
75.6293
96.3172
57.4309
89.0976
39.1724
81.9369
111.099
93.4698
103.964
75.6955
96.5648
57.4784
89.254
39.0452
82.0026
111.713
94.005
104.589
76.0569
97.0795
57.7655
89.5675
39.4434
82.2359
111.762
93.81
104.485
75.9894
96.8485
57.5833
89.2658
38.9636
81.9457
110.362
93.0833
103.273
75.5923
96.0109
57.4456
88.6337
38.9349
81.4054
110.783
93.2558
103.538
75.5774
96.1658
57.3666
88.7402
38.8898
81.5642
111.332
93.6594
104.035
75.8384
96.5205
57.6657
89.0222
39.2955
81.7685
111.431
93.5172
104.064
75.7862
96.4303
57.3733
88.8211
39.0041
81.6737
)
;

boundaryField
{
    inlet
    {
        type            zeroGradient;
    }
    outlet
    {
        type            fixedValue;
        value           nonuniform 0();
    }
    wall
    {
        type            zeroGradient;
    }
    procBoundary4to0
    {
        type            processor;
        value           nonuniform List<scalar> 
36
(
110.261
93.0346
103.368
75.283
96.244
57.1513
89.0271
38.8811
82.1853
110.764
93.237
103.775
75.3477
96.5363
57.2088
89.2996
38.7082
82.2299
111.409
93.7964
104.504
75.9582
97.129
57.9271
89.4157
40.0303
82.0832
111.267
93.5673
104.174
75.5082
96.6263
57.2779
89.1021
38.7375
82.0217
)
;
    }
    procBoundary4to5
    {
        type            processor;
        value           nonuniform List<scalar> 
12
(
19.6098
19.7332
21.2017
21.4794
20.3636
20.124
21.015
20.5292
20.0612
19.9822
20.8077
20.45
)
;
    }
    procBoundary4to6
    {
        type            processor;
        value           nonuniform List<scalar> 
27
(
112.173
93.9569
104.88
76.4317
97.1611
58.4416
89.2502
40.6879
81.9323
111.927
93.8771
104.618
76.0602
97.0856
57.9971
89.5718
39.729
82.2573
111.451
93.7107
104.207
76.0116
96.6851
57.9488
89.2063
39.5757
82.0037
)
;
    }
}


// ************************************************************************* //
