/*--------------------------------*- C++ -*----------------------------------*\
| =========                 |                                                 |
| \\      /  F ield         | OpenFOAM: The Open Source CFD Toolbox           |
|  \\    /   O peration     | Version:  4.x                                   |
|   \\  /    A nd           | Web:      www.OpenFOAM.org                      |
|    \\/     M anipulation  |                                                 |
\*---------------------------------------------------------------------------*/
FoamFile
{
    version     2.0;
    format      ascii;
    class       volScalarField;
    location    "58";
    object      QWallFluid;
}
// * * * * * * * * * * * * * * * * * * * * * * * * * * * * * * * * * * * * * //

dimensions      [1 -1 -3 0 0 0 0];

internalField   nonuniform List<scalar> 
108
(
8.2681e+08
4.17775e+08
8.36151e+08
4.4e+08
8.48568e+08
4.55015e+08
8.59468e+08
4.58614e+08
8.71597e+08
0
0
0
0
0
0
0
0
0
0
0
0
0
0
0
0
0
0
0
0
0
0
0
0
0
0
0
8.25887e+08
4.20208e+08
8.36869e+08
4.37446e+08
8.44546e+08
4.50966e+08
8.54554e+08
4.44046e+08
8.53522e+08
0
0
0
0
0
0
0
0
0
0
0
0
0
0
0
0
0
0
0
0
0
0
0
0
0
0
0
1.65731e+09
9.12288e+08
1.72818e+09
1.03933e+09
1.77319e+09
1.10644e+09
1.80537e+09
1.16018e+09
1.85771e+09
8.23596e+08
4.24082e+08
8.37656e+08
4.59244e+08
8.53988e+08
4.81457e+08
8.68417e+08
4.98814e+08
8.87586e+08
8.15765e+08
4.01444e+08
8.16959e+08
4.08225e+08
8.25162e+08
4.19296e+08
8.36956e+08
4.3221e+08
8.50816e+08
8.0768e+08
3.95288e+08
8.11933e+08
3.92812e+08
8.18433e+08
4.05567e+08
8.37154e+08
4.3389e+08
8.57079e+08
)
;

boundaryField
{
    inlet
    {
        type            calculated;
        value           uniform 0;
    }
    outlet
    {
        type            calculated;
        value           nonuniform 0();
    }
    wall
    {
        type            calculated;
        value           uniform 0;
    }
    procBoundary4to0
    {
        type            processor;
        value           nonuniform List<scalar> 
36
(
8.33723e+08
4.1299e+08
8.45539e+08
4.3826e+08
8.55081e+08
4.46357e+08
8.61551e+08
4.3748e+08
8.60771e+08
0
0
0
0
0
0
0
0
0
0
0
0
0
0
0
0
0
0
0
0
0
0
0
0
0
0
0
)
;
    }
    procBoundary4to5
    {
        type            processor;
        value           nonuniform List<scalar> 
12
(
4.519e+08
0
0
0
4.26423e+08
0
0
0
1.22674e+09
5.12897e+08
4.36419e+08
4.41847e+08
)
;
    }
    procBoundary4to6
    {
        type            processor;
        value           nonuniform List<scalar> 
27
(
0
0
0
0
0
0
0
0
0
0
0
0
0
0
0
0
0
0
8.16135e+08
4.10096e+08
8.17824e+08
4.10014e+08
8.18338e+08
4.06572e+08
8.18467e+08
3.8615e+08
8.26664e+08
)
;
    }
}


// ************************************************************************* //
