/*--------------------------------*- C++ -*----------------------------------*\
| =========                 |                                                 |
| \\      /  F ield         | OpenFOAM: The Open Source CFD Toolbox           |
|  \\    /   O peration     | Version:  4.x                                   |
|   \\  /    A nd           | Web:      www.OpenFOAM.org                      |
|    \\/     M anipulation  |                                                 |
\*---------------------------------------------------------------------------*/
FoamFile
{
    version     2.0;
    format      ascii;
    class       volVectorField;
    location    "58";
    object      Us;
}
// * * * * * * * * * * * * * * * * * * * * * * * * * * * * * * * * * * * * * //

dimensions      [0 1 -1 0 0 0 0];

internalField   nonuniform List<vector> 
108
(
(2.55538e-11 -8.258e-13 4.7333e-11)
(2.04332e-11 1.41022e-11 1.33958e-12)
(1.35128e-10 -7.20071e-12 -7.21941e-11)
(1.52459e-10 -2.6103e-11 -1.46955e-10)
(2.09819e-10 -3.85003e-11 -2.41427e-10)
(2.12125e-10 -1.09894e-11 -2.56967e-10)
(3.2004e-10 -3.9644e-11 -2.38017e-10)
(1.51987e-10 4.25539e-11 -1.67053e-10)
(4.73925e-10 -7.23631e-11 4.59176e-11)
(4.09184e-11 4.19419e-13 -1.78733e-12)
(5.76985e-11 8.89382e-12 -5.15384e-11)
(1.67339e-10 -1.06023e-10 -1.52487e-10)
(1.41928e-10 -1.19461e-10 -2.68477e-10)
(2.04368e-10 -1.69547e-10 -3.38047e-10)
(2.16855e-10 -1.39529e-10 -2.76786e-10)
(4.43687e-10 -1.23632e-10 -2.63891e-10)
(5.35571e-10 -1.86323e-10 -1.26321e-10)
(1.01575e-09 -4.95007e-10 2.68009e-11)
(3.56415e-11 1.45847e-11 -5.48096e-11)
(8.3944e-11 2.43e-11 -1.57067e-10)
(1.48019e-10 -7.90941e-11 -2.52783e-10)
(1.29828e-10 -1.27117e-10 -3.48827e-10)
(2.01203e-10 -1.82428e-10 -3.94537e-10)
(2.0693e-10 -1.85256e-10 -3.2527e-10)
(3.63363e-10 -1.80534e-10 -2.96352e-10)
(5.61772e-10 -2.18837e-10 -1.88576e-10)
(8.60036e-10 -3.50792e-10 6.76056e-11)
(4.04219e-11 -1.01388e-11 -9.72965e-11)
(3.67026e-11 -3.74417e-11 -1.5673e-10)
(5.94116e-11 -1.214e-10 -2.40318e-10)
(7.11647e-11 -1.69402e-10 -2.47688e-10)
(2.09937e-10 -2.07962e-10 -3.13711e-10)
(2.46428e-10 -2.22868e-10 -3.208e-10)
(4.56359e-10 -1.91014e-10 -1.85766e-10)
(5.10894e-10 -2.03177e-10 -8.49886e-11)
(5.79281e-10 -1.7663e-10 1.53406e-10)
(8.55771e-12 1.96682e-11 4.08347e-12)
(3.81692e-12 3.04693e-11 -1.90078e-11)
(6.92542e-11 -5.678e-13 -4.78431e-11)
(3.35769e-11 1.10565e-11 -7.303e-11)
(9.59414e-11 -2.07745e-12 -1.03627e-10)
(4.40477e-11 -1.14036e-11 -1.41825e-10)
(1.76999e-10 2.60197e-11 -1.01418e-10)
(2.12405e-10 2.77975e-11 -5.28233e-11)
(5.04513e-10 4.4049e-11 4.89094e-11)
(2.74334e-11 -9.12218e-12 -9.45866e-12)
(2.71554e-11 1.02225e-11 -5.9906e-11)
(7.51978e-11 -1.94051e-11 -1.00235e-10)
(5.19301e-11 -5.79128e-11 -1.92416e-10)
(6.81764e-11 -7.24749e-11 -2.05062e-10)
(6.42291e-11 -1.05754e-10 -2.46662e-10)
(1.99234e-10 -1.4742e-10 -2.16266e-10)
(2.02937e-10 -1.61478e-10 -1.24034e-10)
(7.23324e-10 -1.51837e-10 5.37319e-11)
(2.1804e-11 1.94243e-12 -5.19371e-11)
(-1.64488e-11 1.13081e-11 -1.0826e-10)
(2.71565e-11 -3.01165e-11 -1.32824e-10)
(-2.38624e-11 -1.04928e-10 -1.89394e-10)
(2.64394e-11 -1.33445e-10 -2.5177e-10)
(3.48096e-11 -1.0929e-10 -2.34167e-10)
(1.46222e-10 -1.14799e-10 -2.40149e-10)
(3.00653e-10 -1.52033e-10 -1.67805e-10)
(5.70901e-10 -3.85052e-10 -3.72044e-11)
(1.1975e-11 -9.72007e-12 -6.81157e-11)
(2.34786e-12 -4.8894e-11 -1.28137e-10)
(7.86451e-12 -1.03335e-10 -1.80226e-10)
(2.6731e-12 -1.09782e-10 -1.82669e-10)
(7.9897e-11 -1.42539e-10 -2.29561e-10)
(1.59831e-10 -1.37546e-10 -2.09656e-10)
(2.15701e-10 -9.64485e-11 -1.69222e-10)
(3.29548e-10 -9.10466e-11 -1.55204e-10)
(6.50549e-10 -3.71791e-10 1.63481e-10)
(7.63868e-13 1.72361e-11 6.54552e-13)
(-7.94983e-12 2.30636e-11 -2.12437e-11)
(1.76055e-11 1.71128e-11 -1.58158e-11)
(-3.75412e-11 1.89607e-11 -2.9017e-11)
(3.23186e-11 3.55638e-11 -3.81086e-11)
(2.48671e-11 2.41193e-11 -6.12731e-11)
(7.98946e-11 4.13021e-11 -7.74013e-11)
(7.37795e-11 7.04638e-12 -2.57609e-11)
(2.33714e-10 1.30851e-11 -4.89978e-11)
(7.81187e-12 -4.13082e-12 -9.21403e-12)
(6.03809e-13 -2.4132e-12 -3.0237e-11)
(4.905e-11 -3.47582e-11 -4.80977e-11)
(3.76147e-12 -3.41523e-11 -4.53116e-11)
(2.91103e-11 -1.99458e-11 -8.56808e-11)
(-5.69568e-11 -1.47973e-10 -8.91467e-11)
(-1.04161e-11 -1.49308e-10 -8.98884e-11)
(9.14296e-11 -4.44094e-11 -3.37595e-11)
(2.58104e-10 -1.14025e-10 -5.2075e-11)
(1.32408e-11 1.70121e-11 -3.34651e-11)
(-2.56727e-11 1.44628e-11 -4.40703e-11)
(6.20135e-12 -3.51607e-11 -6.14683e-11)
(-2.58203e-11 -3.86657e-11 -7.34317e-11)
(-3.03659e-11 -4.79291e-11 -1.29274e-10)
(-7.3025e-11 -1.57924e-10 -1.34198e-10)
(-7.4117e-12 -1.01581e-10 -1.15076e-10)
(4.36197e-11 -9.85976e-11 -1.19608e-10)
(2.17313e-10 -2.10809e-10 -1.31163e-11)
(3.77931e-12 2.31667e-12 -3.53513e-11)
(-1.77297e-11 -5.51847e-11 -4.85236e-11)
(1.60628e-12 -7.96776e-11 -8.52303e-11)
(-1.16398e-12 -8.06636e-11 -9.57318e-11)
(4.54334e-11 -1.12933e-10 -1.18539e-10)
(7.38603e-12 -1.45333e-10 -1.02499e-10)
(4.57633e-11 -1.75674e-10 -1.39561e-10)
(-8.08285e-11 -1.90405e-10 -1.3643e-10)
(1.74362e-10 -1.98535e-10 -5.56406e-11)
)
;

boundaryField
{
    inlet
    {
        type            zeroGradient;
    }
    outlet
    {
        type            zeroGradient;
    }
    wall
    {
        type            zeroGradient;
    }
    procBoundary4to0
    {
        type            processor;
        value           nonuniform List<vector> 
36
(
(3.68335e-11 4.98381e-11 1.32095e-10)
(1.34479e-10 1.35578e-11 5.4254e-11)
(3.70018e-10 5.78853e-11 -2.9837e-11)
(2.35366e-10 -4.69789e-11 -2.40771e-10)
(3.41636e-10 -4.73921e-12 -3.5368e-10)
(3.85719e-10 -1.01373e-11 -3.91451e-10)
(4.02113e-10 -7.415e-11 -3.6398e-10)
(3.62761e-10 -1.34703e-10 -2.17812e-10)
(4.43167e-10 -1.23623e-10 -8.13756e-11)
(6.41592e-11 4.14325e-11 8.31708e-11)
(1.84787e-10 4.53323e-12 8.42794e-13)
(3.7919e-10 -1.07716e-10 -1.92157e-10)
(4.28141e-10 -1.2286e-10 -3.94054e-10)
(5.25472e-10 -1.43802e-10 -4.94851e-10)
(4.6805e-10 -1.76392e-10 -4.19829e-10)
(5.92974e-10 -1.7523e-10 -2.89396e-10)
(6.27751e-10 -3.41896e-10 -1.71525e-10)
(6.44719e-10 -3.58427e-10 1.15313e-10)
(6.96379e-11 4.38785e-11 -7.6025e-11)
(1.76035e-10 3.54988e-12 -1.61008e-10)
(3.32553e-10 -8.62465e-11 -2.80167e-10)
(2.0993e-10 -1.82651e-10 -4.42471e-10)
(3.94096e-10 -1.7526e-10 -4.98856e-10)
(3.98555e-10 -2.7687e-10 -4.25256e-10)
(5.74958e-10 -3.31602e-10 -2.89507e-10)
(6.2542e-10 -3.91323e-10 -2.12818e-10)
(7.27534e-10 -2.72301e-10 1.54227e-10)
(4.40181e-11 -2.75204e-12 -8.61179e-11)
(1.02063e-10 -2.60217e-11 -1.53218e-10)
(2.28327e-10 -8.70551e-11 -2.72959e-10)
(1.37928e-10 -1.88714e-10 -3.57796e-10)
(2.93245e-10 -2.07024e-10 -3.92357e-10)
(3.22982e-10 -2.50808e-10 -3.53963e-10)
(4.8395e-10 -3.74116e-10 -2.48052e-10)
(5.17534e-10 -3.24747e-10 -2.27207e-10)
(4.44862e-10 -3.73708e-10 5.10153e-11)
)
;
    }
    procBoundary4to5
    {
        type            processor;
        value           nonuniform List<vector> 
12
(
(7.87492e-10 -5.17447e-11 1.40055e-10)
(3.48736e-09 1.46415e-09 -2.1724e-11)
(9.29034e-10 -2.87868e-10 2.81357e-10)
(7.20521e-10 -3.62333e-10 4.18461e-10)
(9.23247e-10 -2.61444e-10 1.23133e-10)
(1.4949e-09 -5.04107e-10 1.47779e-10)
(1.06156e-09 -4.60207e-10 1.51595e-10)
(1.00928e-09 -2.69789e-10 6.62745e-11)
(8.44212e-10 7.34222e-11 -1.27951e-11)
(1.19267e-09 -1.64112e-10 -1.35473e-10)
(3.47335e-10 -1.32536e-10 -6.85305e-11)
(5.04656e-10 -1.96805e-10 -5.78852e-12)
)
;
    }
    procBoundary4to6
    {
        type            processor;
        value           nonuniform List<vector> 
27
(
(4.34241e-11 -5.34637e-11 -9.95003e-11)
(-4.23232e-12 -1.18954e-10 -1.71381e-10)
(-1.12199e-10 -1.54212e-10 -2.23696e-10)
(-1.35461e-10 -1.62882e-10 -3.025e-10)
(-1.87309e-11 -1.84281e-10 -3.32199e-10)
(-1.45276e-11 -1.53806e-10 -2.88165e-10)
(4.12586e-11 -1.38534e-10 -2.72297e-10)
(1.94231e-10 -1.11149e-10 -2.11162e-10)
(3.74177e-10 -1.54767e-10 2.49975e-11)
(1.53701e-11 -4.9855e-11 -6.43153e-11)
(-8.66878e-11 -9.07295e-11 -1.22404e-10)
(-1.13986e-10 -1.27755e-10 -1.4544e-10)
(-1.23411e-10 -9.83836e-11 -1.8556e-10)
(-9.59157e-11 -1.26988e-10 -1.97976e-10)
(-5.74854e-11 -1.19258e-10 -1.97706e-10)
(6.88972e-12 -1.2544e-10 -2.37043e-10)
(1.77735e-11 -9.76884e-11 -1.68474e-10)
(2.75518e-10 -6.54112e-11 1.89465e-11)
(3.49554e-12 -4.17097e-11 -3.31073e-11)
(-3.94739e-11 -4.61313e-11 -4.89928e-11)
(-5.5589e-11 -1.13968e-10 -9.37069e-11)
(-9.84214e-11 -8.18763e-11 -8.6686e-11)
(-5.75585e-11 -7.25653e-11 -8.14903e-11)
(-1.08074e-10 -1.14328e-10 -1.07483e-10)
(-1.86129e-11 -1.01025e-10 -1.49406e-10)
(-1.56103e-10 -1.78014e-10 -1.04943e-10)
(-1.02497e-10 -1.12573e-10 -1.01064e-10)
)
;
    }
}


// ************************************************************************* //
