/*--------------------------------*- C++ -*----------------------------------*\
| =========                 |                                                 |
| \\      /  F ield         | OpenFOAM: The Open Source CFD Toolbox           |
|  \\    /   O peration     | Version:  4.x                                   |
|   \\  /    A nd           | Web:      www.OpenFOAM.org                      |
|    \\/     M anipulation  |                                                 |
\*---------------------------------------------------------------------------*/
FoamFile
{
    version     2.0;
    format      ascii;
    class       volScalarField;
    location    "60";
    object      Ksl;
}
// * * * * * * * * * * * * * * * * * * * * * * * * * * * * * * * * * * * * * //

dimensions      [1 -3 -1 0 0 0 0];

internalField   nonuniform List<scalar> 
87
(
3796.09
12046.4
3474.2
3217.29
6571.77
3122.25
3574.18
12793.7
3867.3
29768.1
4012.88
265865
4064.93
1e+10
4061.36
3482.72
10834.6
3683.2
16040.7
3787.31
27816.2
3823.86
78723.2
3815.37
3367.95
8198.79
3394.87
8096.98
3436.93
8633.08
3444.1
9698.07
3478.57
3517.61
10659.6
3708.37
15117.3
3761.73
23431.6
3797.44
45564.4
3771.19
3442.31
9070.91
3561.8
9954.33
3586.5
10926.5
3602.42
12459.4
3542.71
3360.94
7536.73
3300.12
6922.63
3264.04
6613.18
3220.77
6453.76
3156.9
3427.7
8110.98
3460.77
8115.01
3424.49
8179.68
3425.32
8682.44
3363.31
3369.43
7564.99
3342.04
7046.84
3288.31
6745.18
3253.98
6650.69
3174.57
3315.66
6985.96
3199.19
6035.95
3070.14
5513.17
3022.64
5277.8
2975.24
)
;

boundaryField
{
    inlet
    {
        type            zeroGradient;
    }
    outlet
    {
        type            zeroGradient;
    }
    wall
    {
        type            zeroGradient;
    }
    procBoundary6to0
    {
        type            processor;
        value           uniform 3707.24;
    }
    procBoundary6to2
    {
        type            processor;
        value           nonuniform List<scalar> 
32
(
3953.35
36289.7
3757.22
3329.88
7303.27
3270.74
3506.53
11563.3
3756.34
17821
3830.26
30089.4
3837.23
75101.6
75101.6
75101.6
3465.23
9632.8
3629.89
10971.7
3640.22
11834.6
3575.46
3575.46
3575.46
3359.94
7945.45
3386.4
7442.31
3325.78
6955.02
6955.02
)
;
    }
    procBoundary6to4
    {
        type            processor;
        value           nonuniform List<scalar> 
27
(
3490.35
10998.7
3769.16
17133.3
3843.79
32985.4
3866.49
121690
3831.7
3498.07
10481.9
3705.01
14867
3775.15
21893
3744.78
32839.8
3643.71
3467.35
8466.09
3492.65
8567.42
3452.99
8166.08
3316.91
7464.57
3188.34
)
;
    }
    procBoundary6to7
    {
        type            processor;
        value           nonuniform List<scalar> 
12
(
894221
11452.5
6443.38
1e+10
9.97145e+09
13214.7
328664
13890.4
6328.67
9413.97
6630.7
5195.6
)
;
    }
}


// ************************************************************************* //
