/*--------------------------------*- C++ -*----------------------------------*\
| =========                 |                                                 |
| \\      /  F ield         | OpenFOAM: The Open Source CFD Toolbox           |
|  \\    /   O peration     | Version:  4.x                                   |
|   \\  /    A nd           | Web:      www.OpenFOAM.org                      |
|    \\/     M anipulation  |                                                 |
\*---------------------------------------------------------------------------*/
FoamFile
{
    version     2.0;
    format      ascii;
    class       volScalarField;
    location    "60";
    object      magGField;
}
// * * * * * * * * * * * * * * * * * * * * * * * * * * * * * * * * * * * * * //

dimensions      [1 -2 -1 0 0 0 0];

internalField   nonuniform List<scalar> 
87
(
87.5333
27.6352
96.4733
103.452
50.3532
106.312
92.1514
26.0273
86.958
11.1583
83.1043
1.23902
81.3668
3.12701e-05
80.455
94.5037
30.5214
90.9973
20.6862
88.2993
11.8617
86.855
4.14742
86.3386
96.3328
39.6199
96.7007
40.3564
95.908
37.8591
95.4227
33.4294
93.9304
93.0519
30.9387
89.9263
21.778
88.0898
13.9815
86.8605
7.10187
86.2581
94.6218
36.1992
93.2827
33.0194
92.5678
30.0508
91.9498
26.1954
92.6796
95.9396
42.6365
98.395
46.6132
99.6744
48.9706
101.457
50.255
103.241
94.6898
39.9978
94.9135
39.9487
94.9579
39.4641
94.9331
36.828
96.0387
95.3557
42.624
97.2564
45.9313
98.6085
47.8947
100.267
48.5724
101.711
96.4477
45.535
100.371
52.8515
104.461
58.0096
107.399
61.1455
108.684
)
;

boundaryField
{
    inlet
    {
        type            calculated;
        value           uniform 67;
    }
    outlet
    {
        type            calculated;
        value           nonuniform 0();
    }
    wall
    {
        type            calculated;
        value           uniform 0;
    }
    procBoundary6to0
    {
        type            processor;
        value           uniform 89.4165;
    }
    procBoundary6to2
    {
        type            processor;
        value           nonuniform List<scalar> 
32
(
85.8703
9.36881
90.9264
102.032
46.2573
103.467
94.9572
29.0337
90.5715
18.9093
88.4413
11.1084
87.5004
4.39408
4.39408
4.39408
94.9458
34.5418
93.4157
30.6576
93.2127
28.2808
94.1545
94.1545
94.1545
96.5048
41.0835
98.4931
44.5059
100.759
47.6254
47.6254
)
;
    }
    procBoundary6to4
    {
        type            processor;
        value           nonuniform List<scalar> 
27
(
94.5593
30.3768
89.6614
19.4975
87.1624
10.0139
85.677
2.67614
85.2725
93.6783
31.5521
90.3304
22.232
88.1737
14.9915
87.887
9.84176
89.0924
93.4571
38.2416
94.0833
37.958
95.039
39.5247
97.7819
43.0366
100.723
)
;
    }
    procBoundary6to7
    {
        type            processor;
        value           nonuniform List<scalar> 
12
(
0.365657
28.9301
51.0858
3.02063e-05
3.36999e-05
24.3877
0.976489
23.284
50.77
33.8371
48.1551
61.1349
)
;
    }
}


// ************************************************************************* //
