/*--------------------------------*- C++ -*----------------------------------*\
| =========                 |                                                 |
| \\      /  F ield         | OpenFOAM: The Open Source CFD Toolbox           |
|  \\    /   O peration     | Version:  4.x                                   |
|   \\  /    A nd           | Web:      www.OpenFOAM.org                      |
|    \\/     M anipulation  |                                                 |
\*---------------------------------------------------------------------------*/
FoamFile
{
    version     2.0;
    format      ascii;
    class       volVectorField;
    location    "31.5";
    object      ddtUrel;
}
// * * * * * * * * * * * * * * * * * * * * * * * * * * * * * * * * * * * * * //

dimensions      [0 1 -2 0 0 0 0];

internalField   nonuniform List<vector> 
132
(
(4.52217e-11 -4.50814e-09 -1.97006e-09)
(-1.27095e-09 -3.21458e-09 -1.30701e-09)
(4.38734e-10 -2.4486e-09 -2.3377e-09)
(-2.91026e-10 -1.28674e-09 -6.36331e-10)
(-2.50004e-09 -2.09623e-10 2.04506e-10)
(-6.3423e-09 3.71361e-10 -1.1404e-09)
(-1.35563e-08 1.23605e-09 -1.19308e-09)
(-1.67457e-08 1.14377e-09 -1.6537e-09)
(-1.59199e-08 1.26409e-09 -1.39037e-09)
(2.06319e-09 -3.71473e-09 -2.80652e-09)
(1.49462e-09 -2.78602e-09 -1.48002e-09)
(1.95695e-09 -2.4925e-09 -1.30258e-09)
(1.31267e-09 -1.5422e-09 -9.64162e-10)
(-2.28281e-09 -2.17711e-11 -8.23722e-10)
(-5.26936e-09 3.53735e-10 -1.29866e-09)
(-1.3394e-08 1.15753e-09 -1.73291e-09)
(-1.74231e-08 1.59495e-09 -1.98429e-09)
(-1.53307e-08 1.48473e-09 -1.61628e-09)
(4.56181e-09 -2.71422e-09 -2.21246e-09)
(3.93467e-09 -2.20296e-09 -2.09008e-09)
(3.6647e-09 -1.79832e-09 -2.03201e-09)
(2.2698e-09 -1.37056e-09 -1.04125e-09)
(-1.61371e-09 -1.16096e-10 -8.27159e-10)
(-4.6769e-09 3.26333e-10 -1.56403e-09)
(-1.20076e-08 5.12762e-10 -2.36462e-09)
(-1.60264e-08 1.08148e-09 -1.76366e-09)
(-1.37219e-08 9.77835e-10 -1.23072e-09)
(4.99861e-09 -2.2077e-09 -2.59242e-09)
(5.58787e-09 -1.89545e-09 -2.56946e-09)
(5.01193e-09 -1.73735e-09 -2.15619e-09)
(3.11284e-09 -1.31814e-09 -1.42946e-09)
(-1.75387e-10 -1.14214e-10 -1.38131e-09)
(-4.03781e-09 3.2247e-10 -1.58536e-09)
(-1.06334e-08 5.81303e-10 -1.85901e-09)
(-1.41983e-08 7.45212e-10 -1.32174e-09)
(-1.31067e-08 7.32788e-10 -1.06911e-09)
(2.55084e-09 -2.15989e-09 1.2215e-10)
(7.50384e-10 -1.24941e-09 -4.80865e-11)
(-1.88897e-09 -4.32583e-10 -1.9602e-10)
(-4.27788e-09 4.92683e-10 -6.73687e-10)
(-1.07122e-08 1.10082e-09 -7.85946e-10)
(-1.27475e-08 1.38809e-09 -6.26782e-10)
(-1.10155e-08 1.23534e-09 -4.55524e-10)
(5.15388e-09 -2.42333e-09 -1.1138e-09)
(3.89037e-09 -2.43837e-09 -4.76764e-10)
(3.04509e-09 -2.31318e-09 -5.13242e-11)
(1.22969e-09 -9.44903e-10 -3.16534e-10)
(-1.26861e-09 2.07331e-10 -5.06312e-10)
(-3.74418e-09 4.49368e-10 -8.73461e-10)
(-1.09658e-08 8.92883e-10 -1.02523e-09)
(-1.42999e-08 1.81175e-09 -5.33778e-10)
(-1.20713e-08 2.01354e-09 -1.56616e-10)
(5.49352e-09 -1.86338e-09 -1.4414e-09)
(4.47785e-09 -1.81762e-09 -1.11197e-09)
(3.55378e-09 -1.09249e-09 -5.18764e-10)
(1.74887e-09 -7.37498e-10 -3.74987e-10)
(-1.2601e-09 2.11771e-10 -5.06876e-10)
(-4.29852e-09 4.3835e-10 -8.74278e-10)
(-1.00196e-08 8.79951e-10 -8.33072e-10)
(-1.26671e-08 2.09935e-09 -2.40886e-10)
(-1.10589e-08 2.83085e-09 2.56067e-10)
(5.85107e-09 -1.67944e-09 -1.8215e-09)
(4.99871e-09 -1.48929e-09 -1.73991e-09)
(3.32776e-09 -1.184e-09 -1.08917e-09)
(1.92713e-09 -5.93511e-10 -7.81603e-10)
(-8.66231e-10 1.54373e-10 -7.64843e-10)
(-4.28471e-09 6.69622e-10 -7.54399e-10)
(-9.15709e-09 1.65696e-09 -4.78563e-10)
(-1.16749e-08 2.90636e-09 7.7559e-11)
(-1.08303e-08 4.11679e-09 6.67292e-10)
(-1.25589e-09 -4.37635e-10 5.94063e-10)
(-4.57473e-09 2.23496e-10 1.1399e-10)
(-9.64759e-09 9.18423e-10 -1.54678e-10)
(-1.10323e-08 1.47128e-09 1.20662e-10)
(-9.09637e-09 1.55603e-09 -9.48881e-11)
(5.23968e-09 -1.93005e-09 -8.00876e-10)
(4.14612e-09 -1.74181e-09 -8.52923e-11)
(3.25096e-09 -1.39586e-09 3.40941e-10)
(1.90878e-09 -5.1716e-10 1.46006e-10)
(-1.01294e-09 3.21021e-10 1.93619e-10)
(-3.87465e-09 7.01821e-10 -1.96691e-10)
(-9.68368e-09 1.57005e-09 -3.9176e-10)
(-1.22617e-08 2.58022e-09 7.80676e-11)
(-1.03102e-08 3.15052e-09 4.73721e-10)
(5.02744e-09 -1.28234e-09 -9.33935e-10)
(4.00325e-09 -9.77988e-10 -6.50304e-10)
(2.82937e-09 -7.29937e-10 -1.5725e-10)
(1.26888e-09 -2.18819e-10 -2.4765e-10)
(-1.08214e-09 5.4922e-10 -9.10099e-11)
(-3.68277e-09 1.04158e-09 -8.00744e-11)
(-8.86669e-09 2.17019e-09 2.6397e-10)
(-1.20079e-08 4.11681e-09 9.70436e-10)
(-1.11045e-08 6.21989e-09 1.60319e-09)
(4.60552e-09 -1.03136e-09 -1.15194e-09)
(3.27019e-09 -9.70846e-10 -1.00175e-09)
(2.12123e-09 -6.07539e-10 -5.6386e-10)
(7.49728e-10 -1.62164e-11 -4.20482e-10)
(-1.51184e-09 7.13806e-10 -2.46834e-10)
(-3.65951e-09 1.48108e-09 5.57012e-11)
(-8.38452e-09 3.07144e-09 4.36677e-10)
(-1.14962e-08 6.32857e-09 1.60998e-09)
(-1.21204e-08 1.14531e-08 3.24979e-09)
(-9.41303e-09 6.05446e-10 5.02448e-10)
(-1.1184e-08 1.40069e-09 2.87212e-10)
(-9.16682e-09 1.86661e-09 5.98713e-11)
(4.31985e-09 -1.39963e-09 -7.03529e-10)
(4.4163e-09 -1.6086e-09 1.01502e-10)
(2.98948e-09 -1.44339e-09 3.6858e-10)
(9.22833e-10 -4.07135e-10 1.67412e-10)
(-1.49222e-09 4.49615e-10 4.36174e-10)
(-4.46215e-09 8.00027e-10 4.02452e-10)
(-9.19903e-09 1.60875e-09 3.83173e-10)
(-1.12806e-08 3.14731e-09 5.66508e-10)
(-9.85505e-09 4.59795e-09 1.02842e-09)
(4.52319e-09 -8.51645e-10 -7.67808e-10)
(3.65939e-09 -1.0002e-09 -3.34222e-10)
(2.85668e-09 -7.34633e-10 2.76081e-11)
(1.04441e-09 8.32046e-11 -1.57292e-10)
(-1.24553e-09 8.84584e-10 1.92426e-10)
(-3.97105e-09 1.36365e-09 2.77938e-10)
(-8.68197e-09 3.09082e-09 6.38694e-10)
(-1.18794e-08 6.42352e-09 1.734e-09)
(-1.21509e-08 1.16366e-08 3.38063e-09)
(3.69076e-09 -7.32167e-10 -8.97033e-10)
(3.01981e-09 -7.80756e-10 -5.58292e-10)
(2.37153e-09 -5.59776e-10 -3.22222e-10)
(6.25584e-10 4.54138e-10 -1.539e-10)
(-1.98673e-09 1.94551e-09 1.07205e-10)
(-4.33736e-09 2.15864e-09 3.29107e-10)
(-8.16643e-09 4.79967e-09 1.10875e-09)
(-1.24781e-08 1.19869e-08 3.45617e-09)
(-1.90934e-08 3.3165e-08 1.02257e-08)
)
;

boundaryField
{
    inlet
    {
        type            calculated;
        value           nonuniform 0();
    }
    outlet
    {
        type            calculated;
        value           nonuniform List<vector> 
16
(
(6.94716e-10 2.36617e-09 2.62301e-09)
(1.6811e-09 2.01239e-09 2.37477e-09)
(1.51873e-09 -5.69245e-10 1.6216e-09)
(9.77259e-10 -4.12211e-10 1.20086e-09)
(-2.46086e-10 -8.69021e-10 2.34592e-09)
(-5.548e-10 -2.98936e-10 1.48883e-09)
(1.49631e-09 6.20582e-10 1.0001e-09)
(2.03255e-09 3.95746e-10 6.87146e-10)
(1.29185e-10 -9.38246e-10 -2.06358e-10)
(-8.40596e-11 1.51688e-10 -4.16131e-10)
(-1.19019e-10 -1.15713e-10 -6.31512e-11)
(2.74388e-09 -3.12628e-10 -9.09811e-11)
(1.2147e-09 -5.27908e-10 -2.77559e-10)
(3.40392e-10 -8.20509e-11 -1.97488e-10)
(3.31476e-10 8.44311e-11 1.54515e-10)
(-7.80118e-08 2.34421e-07 7.46976e-08)
)
;
    }
    wall
    {
        type            calculated;
        value           nonuniform List<vector> 
66
(
(4.21605e-09 -1.43588e-09 -5.25195e-10)
(6.34763e-09 -1.79419e-10 1.24744e-10)
(2.78906e-09 -1.12705e-09 3.31547e-10)
(1.40745e-08 -3.6756e-09 3.07529e-09)
(2.78781e-09 -2.12746e-09 1.65735e-09)
(6.99145e-10 -1.0421e-09 -3.01505e-10)
(7.36547e-09 -3.24073e-09 2.60884e-09)
(1.07079e-08 -8.98456e-10 2.20849e-09)
(4.56815e-09 -2.21229e-09 5.20909e-10)
(5.71197e-10 1.0937e-09 -9.26004e-11)
(5.15453e-09 8.57027e-10 -1.35779e-09)
(3.43369e-09 2.3535e-10 8.55887e-12)
(-5.0173e-09 7.76258e-10 2.09915e-09)
(-4.09576e-09 3.2644e-10 1.6767e-09)
(-1.05096e-08 1.34826e-08 2.29808e-09)
(2.22104e-09 -1.85893e-10 2.40481e-10)
(7.08706e-11 -1.46031e-09 2.98916e-10)
(-6.01727e-09 -2.99022e-10 1.72624e-10)
(-2.31802e-08 -2.16814e-09 1.03404e-09)
(-2.44965e-08 -5.14448e-10 2.21681e-10)
(-1.50409e-08 -2.4507e-10 2.64683e-10)
(-6.57972e-09 3.13484e-10 -3.41889e-10)
(-3.10256e-08 4.80673e-10 6.52945e-10)
(-2.60224e-08 7.48905e-10 4.35866e-10)
(-2.47226e-08 1.19e-10 -1.04504e-10)
(-1.36187e-08 -2.17119e-10 -8.2969e-10)
(8.777e-10 -5.21847e-10 -8.56495e-10)
(-1.97819e-09 1.61194e-11 -7.19989e-10)
(-2.7845e-09 9.33045e-11 7.12704e-11)
(-7.85893e-08 2.33668e-07 7.42471e-08)
(-3.95714e-10 1.68287e-09 -8.50524e-09)
(6.82395e-09 -1.96177e-09 -6.59952e-09)
(-1.22716e-11 -8.98811e-10 -2.03779e-09)
(-4.44455e-11 -1.05246e-09 2.29148e-10)
(2.03104e-08 2.73296e-09 -6.24338e-09)
(1.94432e-08 9.71043e-10 -5.27991e-09)
(1.97923e-10 4.50521e-11 -1.83352e-09)
(-5.28546e-10 -9.64049e-10 -2.84492e-10)
(1.23306e-08 -1.53781e-09 -6.02654e-09)
(-8.27819e-09 -2.41145e-09 5.32707e-10)
(-6.82088e-10 -4.21154e-10 2.74697e-10)
(5.94252e-09 -2.17034e-09 4.37267e-10)
(1.62901e-08 -3.22118e-09 -4.9571e-10)
(8.92191e-09 -5.92014e-10 2.37501e-10)
(-1.81221e-09 5.61654e-11 -8.1571e-11)
(2.76815e-09 2.12852e-10 7.9479e-11)
(2.53184e-09 5.77096e-10 -1.66275e-09)
(-1.63491e-10 -6.02996e-10 -1.1372e-09)
(-3.04944e-09 -2.67975e-10 -5.83983e-10)
(-1.50993e-08 1.37346e-08 2.41315e-09)
(5.22638e-09 2.34561e-09 -3.57964e-10)
(-9.12993e-09 1.39757e-09 -1.52991e-09)
(6.33631e-09 6.04162e-10 1.43227e-09)
(-3.27268e-09 -2.94008e-10 6.11379e-10)
(-2.00454e-08 1.43819e-10 -3.18242e-09)
(-1.64958e-08 7.44822e-10 1.3398e-09)
(-1.41657e-08 5.48046e-10 1.39143e-09)
(-7.34893e-09 3.17984e-10 -2.14345e-10)
(-2.70148e-08 -1.15304e-09 2.16748e-09)
(-2.12184e-08 2.10315e-09 1.29052e-09)
(-1.54706e-08 -2.55733e-10 7.03583e-10)
(-1.38674e-08 -2.03287e-10 -7.77571e-10)
(4.71289e-11 -9.56001e-10 2.53519e-09)
(3.62658e-09 -5.94774e-10 5.49349e-10)
(9.0886e-10 -5.07857e-10 5.49484e-10)
(-2.99607e-07 2.66051e-07 2.32637e-07)
)
;
    }
    procBoundary7to0
    {
        type            processor;
        value           uniform (6.33963e-10 -4.54963e-09 -3.09747e-09);
    }
    procBoundary7to1
    {
        type            processor;
        value           uniform (-2.67523e-09 -4.65421e-09 -2.28015e-09);
    }
    procBoundary7to3
    {
        type            processor;
        value           nonuniform List<vector> 
36
(
(-7.94174e-09 -8.28897e-09 -4.60057e-09)
(-4.23233e-09 -4.46625e-09 -3.34735e-09)
(-2.6581e-09 -2.97751e-09 -2.18766e-09)
(-6.97082e-09 -1.423e-09 -1.24941e-09)
(-5.17187e-09 -1.37219e-10 -1.34381e-09)
(-7.95485e-09 7.11384e-10 -1.9128e-09)
(-1.72328e-08 1.29788e-09 -2.68149e-09)
(-2.29722e-08 1.25776e-09 -3.79244e-09)
(-2.40711e-08 1.36946e-09 -4.27515e-09)
(-2.00263e-09 -5.57631e-09 -4.30898e-09)
(-2.71849e-09 -4.73233e-09 -3.75997e-09)
(-5.74016e-10 -5.33862e-09 -2.71883e-09)
(-1.97046e-09 -1.7587e-09 -1.54939e-09)
(-5.08392e-09 6.67464e-10 -1.46514e-09)
(-7.24006e-09 6.15934e-10 -2.14609e-09)
(-1.68699e-08 2.01134e-09 -3.09195e-09)
(-2.37858e-08 9.90877e-10 -4.1995e-09)
(-2.44735e-08 7.38373e-10 -4.66178e-09)
(2.60276e-09 -4.50418e-09 -3.33146e-09)
(2.51305e-09 -3.22716e-09 -3.39133e-09)
(2.12433e-09 -2.65121e-09 -2.8266e-09)
(2.42699e-10 -1.23131e-09 -2.05746e-09)
(-2.78116e-09 -7.92221e-11 -1.89767e-09)
(-5.63196e-09 1.81e-10 -2.61243e-09)
(-1.53862e-08 3.04983e-10 -3.38796e-09)
(-2.076e-08 -1.65809e-10 -4.09099e-09)
(-1.90241e-08 -4.79572e-10 -4.40288e-09)
(4.90574e-09 -3.06509e-09 -3.32024e-09)
(6.21334e-09 -2.67068e-09 -3.51128e-09)
(5.18597e-09 -2.67751e-09 -3.20866e-09)
(2.55668e-09 -1.56985e-09 -2.48543e-09)
(-6.67717e-10 -1.28821e-10 -2.15837e-09)
(-5.16963e-09 -2.73594e-10 -2.75432e-09)
(-1.2036e-08 -7.12171e-10 -3.24089e-09)
(-1.69893e-08 -8.58744e-10 -3.59512e-09)
(-1.52065e-08 -1.89748e-09 -3.87668e-09)
)
;
    }
    procBoundary7to5
    {
        type            processor;
        value           nonuniform List<vector> 
44
(
(-3.23122e-09 -3.33565e-09 -1.6406e-10)
(-3.10108e-10 -2.06233e-09 -2.42374e-11)
(-1.09899e-09 -1.13908e-09 -1.27312e-10)
(-3.08844e-09 -9.33274e-10 -2.28625e-10)
(-6.31524e-09 1.28581e-10 -8.17946e-10)
(-1.19898e-08 6.3458e-10 -1.14463e-09)
(-1.45645e-08 6.10175e-10 -1.29958e-09)
(-1.29069e-08 1.22936e-09 -8.93297e-10)
(3.62431e-09 -2.91021e-09 -5.45764e-10)
(3.69755e-09 -2.3252e-09 6.45454e-11)
(1.77074e-09 -1.65641e-09 6.26669e-10)
(1.15229e-09 -1.12784e-09 2.71693e-10)
(-2.3306e-09 -6.80509e-10 3.12753e-10)
(-4.18602e-09 1.91859e-11 -2.20096e-10)
(-9.41738e-09 6.25331e-10 -4.97942e-10)
(-1.09255e-08 5.0031e-10 -4.13603e-10)
(-9.10233e-09 6.26127e-10 -4.34453e-10)
(3.62431e-09 -2.91021e-09 -5.45764e-10)
(3.69755e-09 -2.3252e-09 6.45454e-11)
(3.69755e-09 -2.3252e-09 6.45454e-11)
(3.21054e-09 -1.6272e-09 1.26275e-10)
(1.73141e-09 -8.94893e-10 2.04821e-10)
(-4.28955e-10 -6.22363e-10 5.64022e-10)
(-3.04921e-09 -1.54327e-10 7.98732e-11)
(-8.0571e-09 1.08474e-10 -2.94209e-11)
(-9.44801e-09 2.74667e-10 1.54012e-10)
(-8.08921e-09 5.41588e-10 -1.37554e-10)
(4.92983e-09 -1.52991e-09 -2.31287e-11)
(3.70906e-09 -1.84801e-09 2.99066e-10)
(3.21054e-09 -1.6272e-09 1.26275e-10)
(1.73141e-09 -8.94893e-10 2.04821e-10)
(1.73141e-09 -8.94893e-10 2.04821e-10)
(-1.28035e-09 2.25095e-11 4.43892e-10)
(-4.08419e-09 4.53549e-10 2.56414e-10)
(-7.87473e-09 9.96182e-12 3.97493e-10)
(-9.50116e-09 4.20885e-10 5.98907e-11)
(-7.4696e-09 7.25298e-10 -3.26421e-10)
(4.98567e-09 -1.16088e-09 7.33233e-11)
(4.40239e-09 -1.74155e-09 5.50065e-10)
(2.89428e-09 -2.23217e-09 5.70025e-10)
(8.43067e-10 -8.56254e-10 3.6745e-10)
(-1.28035e-09 2.25095e-11 4.43892e-10)
(-4.08419e-09 4.53549e-10 2.56414e-10)
(-4.08419e-09 4.53549e-10 2.56414e-10)
)
;
    }
    procBoundary7to6
    {
        type            processor;
        value           nonuniform List<vector> 
12
(
(4.5648e-09 -3.27026e-09 -2.41193e-09)
(5.72306e-09 -2.7332e-09 -2.27537e-09)
(4.9962e-09 -2.299e-09 -2.31028e-09)
(6.01407e-09 -1.70172e-09 -9.2473e-10)
(6.74926e-09 -1.55311e-09 -1.21511e-09)
(6.17557e-09 -1.41885e-09 -1.51833e-09)
(6.51016e-09 -6.86089e-10 -3.76993e-10)
(6.20076e-09 -7.91597e-10 -8.30795e-10)
(5.14331e-09 -7.81199e-10 -1.15081e-09)
(5.85722e-09 -3.19538e-10 -1.4919e-10)
(5.78081e-09 -4.29756e-10 -6.27762e-10)
(4.73655e-09 -5.76367e-10 -8.19457e-10)
)
;
    }
}


// ************************************************************************* //
