/*--------------------------------*- C++ -*----------------------------------*\
| =========                 |                                                 |
| \\      /  F ield         | OpenFOAM: The Open Source CFD Toolbox           |
|  \\    /   O peration     | Version:  4.x                                   |
|   \\  /    A nd           | Web:      www.OpenFOAM.org                      |
|    \\/     M anipulation  |                                                 |
\*---------------------------------------------------------------------------*/
FoamFile
{
    version     2.0;
    format      ascii;
    class       volScalarField;
    location    "31.5";
    object      KslNext;
}
// * * * * * * * * * * * * * * * * * * * * * * * * * * * * * * * * * * * * * //

dimensions      [1 -3 -1 0 0 0 0];

internalField   nonuniform List<scalar> 
132
(
1e+10
3875.58
1e+10
3808.55
1e+10
3778.1
1e+10
3979.66
14016.9
119394
3888.16
337380
3875.8
56906.5
3905.22
16428.3
4031.13
6829.51
18520.8
3545.45
20539.8
3422.48
20494.1
3270.98
16647.5
2957.21
13061.7
6864.43
3097.99
7157.06
3010.32
8006.29
2954.89
9861.06
2832.71
14405.3
1e+10
3779.04
1e+10
3791.5
1e+10
4163.23
13528.5
1e+10
3865.2
1e+10
3780.19
1e+10
3727.94
1e+10
3797.02
35126.6
309324
3749.77
1e+10
3792.96
1e+10
4016.1
1e+10
4653.78
12496.4
8677.25
3270.76
10098.1
3230.53
12427.7
3165.53
14375.2
3016.56
17271.1
33771.9
3408.55
16096.4
3501.07
6704.68
2.12737e+06
3755.36
1e+10
3758.99
1e+10
3869.41
50421.5
4068
8292.62
14560.3
3440.53
15149.5
3250.04
14138.9
2956.94
12067.9
2483.56
9727.85
6308.19
3054.15
6386.59
2988.34
6738.07
2867.53
7748.56
2580.3
14907
8850.22
2414.94
8294.95
10246.7
3355.5
13281.8
3369.24
19632
3400.22
31059.2
3492.65
22272.8
6702.23
3081.64
7086.77
3065.81
8060.98
2948.81
9709.11
2780.97
16574.6
5070.59
2862.65
5186.52
2875.62
5518.32
2856.08
5790.86
3044.54
5695.08
)
;

boundaryField
{
    inlet
    {
        type            zeroGradient;
    }
    outlet
    {
        type            zeroGradient;
    }
    wall
    {
        type            zeroGradient;
    }
    procBoundary7to0
    {
        type            processor;
        value           uniform 0;
    }
    procBoundary7to1
    {
        type            processor;
        value           uniform 0;
    }
    procBoundary7to3
    {
        type            processor;
        value           uniform 0;
    }
    procBoundary7to5
    {
        type            processor;
        value           uniform 0;
    }
    procBoundary7to6
    {
        type            processor;
        value           uniform 0;
    }
}


// ************************************************************************* //
