/*--------------------------------*- C++ -*----------------------------------*\
| =========                 |                                                 |
| \\      /  F ield         | OpenFOAM: The Open Source CFD Toolbox           |
|  \\    /   O peration     | Version:  4.x                                   |
|   \\  /    A nd           | Web:      www.OpenFOAM.org                      |
|    \\/     M anipulation  |                                                 |
\*---------------------------------------------------------------------------*/
FoamFile
{
    version     2.0;
    format      ascii;
    class       volVectorField;
    location    "10.5";
    object      ddtUrel;
}
// * * * * * * * * * * * * * * * * * * * * * * * * * * * * * * * * * * * * * //

dimensions      [0 1 -2 0 0 0 0];

internalField   nonuniform List<vector> 
132
(
(3.12262e-07 1.25623e-08 -1.93757e-07)
(2.00638e-07 1.18792e-08 -1.87439e-07)
(-1.85273e-10 1.34947e-08 -1.81094e-07)
(-3.32543e-07 9.45153e-09 -1.81266e-07)
(-8.28111e-07 5.74347e-09 -1.79328e-07)
(-1.62635e-06 4.10534e-09 -1.82215e-07)
(-3.14197e-06 2.43695e-09 -1.86426e-07)
(-3.80751e-06 9.93111e-09 -1.53066e-07)
(-3.09e-06 8.7563e-09 -1.30382e-07)
(3.08304e-07 2.94418e-08 -1.96944e-07)
(1.93092e-07 2.42937e-08 -1.8888e-07)
(1.08512e-09 2.03673e-08 -1.86253e-07)
(-3.12338e-07 1.75095e-08 -1.83806e-07)
(-8.05247e-07 1.22191e-08 -1.73637e-07)
(-1.60079e-06 2.45817e-09 -1.71072e-07)
(-3.10896e-06 -9.10673e-09 -1.69274e-07)
(-3.82765e-06 -1.14804e-08 -1.37935e-07)
(-3.1274e-06 -6.53338e-09 -1.18237e-07)
(2.96816e-07 4.65813e-08 -2.02043e-07)
(1.97607e-07 3.85972e-08 -1.96397e-07)
(1.72196e-08 3.08849e-08 -1.86626e-07)
(-2.78024e-07 2.39647e-08 -1.75413e-07)
(-7.61469e-07 1.57247e-08 -1.65391e-07)
(-1.53477e-06 2.94967e-09 -1.64468e-07)
(-2.96522e-06 -1.74441e-08 -1.65879e-07)
(-3.58901e-06 -2.85876e-08 -1.35735e-07)
(-2.92661e-06 -1.08291e-08 -1.08592e-07)
(3.12179e-07 5.43509e-08 -1.92558e-07)
(2.35069e-07 4.80907e-08 -1.92393e-07)
(1.95437e-08 3.80169e-08 -1.80171e-07)
(-2.50556e-07 2.80645e-08 -1.68058e-07)
(-7.12712e-07 1.78551e-08 -1.61173e-07)
(-1.45037e-06 2.45686e-09 -1.55831e-07)
(-2.71708e-06 -1.19479e-08 -1.47428e-07)
(-3.27293e-06 -1.26787e-08 -1.14381e-07)
(-2.75552e-06 -3.88093e-10 -9.38149e-08)
(-4.06978e-10 1.26276e-08 -1.98726e-07)
(-3.312e-07 1.26699e-08 -1.9986e-07)
(-8.2395e-07 1.15319e-08 -1.97414e-07)
(-1.60062e-06 8.56676e-09 -1.96873e-07)
(-3.03367e-06 4.18033e-09 -1.90521e-07)
(-3.63059e-06 7.69654e-09 -1.69916e-07)
(-2.94088e-06 5.10718e-09 -1.36918e-07)
(3.24522e-07 2.22421e-08 -2.2131e-07)
(2.11303e-07 2.18222e-08 -2.07296e-07)
(1.2281e-08 2.15081e-08 -2.00512e-07)
(-3.06244e-07 1.67407e-08 -1.96227e-07)
(-7.95887e-07 1.22791e-08 -1.93793e-07)
(-1.56274e-06 4.58643e-09 -1.91027e-07)
(-2.9704e-06 -1.11484e-08 -1.79769e-07)
(-3.5906e-06 -1.67642e-08 -1.63258e-07)
(-2.93343e-06 -1.26751e-10 -1.33206e-07)
(3.25197e-07 3.54702e-08 -2.30304e-07)
(2.18384e-07 3.87107e-08 -2.14945e-07)
(3.6964e-08 3.57154e-08 -1.95452e-07)
(-2.58371e-07 1.91733e-08 -1.88526e-07)
(-7.48343e-07 7.52935e-09 -1.89334e-07)
(-1.50622e-06 -1.06585e-09 -1.80589e-07)
(-2.8499e-06 -2.12133e-08 -1.71891e-07)
(-3.36929e-06 -3.04878e-08 -1.50651e-07)
(-2.7271e-06 -2.0975e-09 -1.14402e-07)
(3.00631e-07 4.73398e-08 -2.32858e-07)
(2.26722e-07 5.16774e-08 -2.10132e-07)
(6.0133e-08 4.06947e-08 -1.90164e-07)
(-2.18321e-07 2.43275e-08 -1.80569e-07)
(-6.85725e-07 1.34189e-08 -1.77393e-07)
(-1.45862e-06 5.18615e-09 -1.70248e-07)
(-2.58253e-06 -1.47022e-09 -1.54752e-07)
(-3.10622e-06 -4.63397e-09 -1.40648e-07)
(-2.59613e-06 3.16814e-09 -1.08917e-07)
(-7.6247e-07 1.59005e-08 -2.07771e-07)
(-1.51296e-06 7.80079e-09 -1.99486e-07)
(-2.87036e-06 1.95441e-09 -2.01084e-07)
(-3.36299e-06 3.04209e-09 -1.96392e-07)
(-2.68019e-06 5.50481e-10 -1.41649e-07)
(3.27022e-07 1.821e-08 -2.40866e-07)
(2.19443e-07 2.31977e-08 -2.17909e-07)
(3.62136e-08 2.15987e-08 -2.02665e-07)
(-2.64395e-07 1.65017e-08 -1.98374e-07)
(-7.29155e-07 1.46157e-08 -1.99924e-07)
(-1.45543e-06 6.32345e-09 -1.90585e-07)
(-2.80095e-06 -1.00337e-08 -1.96153e-07)
(-3.27509e-06 -9.61452e-09 -1.93449e-07)
(-2.63295e-06 -3.17071e-10 -1.37987e-07)
(3.19915e-07 3.68472e-08 -2.462e-07)
(2.30145e-07 4.53671e-08 -2.20403e-07)
(6.3222e-08 3.54661e-08 -2.02123e-07)
(-1.99281e-07 1.86279e-08 -1.90494e-07)
(-6.67877e-07 1.43195e-08 -1.90319e-07)
(-1.38306e-06 8.24034e-09 -1.80617e-07)
(-2.65726e-06 -1.95214e-08 -1.77513e-07)
(-3.07139e-06 -2.53169e-08 -1.66078e-07)
(-2.49389e-06 2.63482e-10 -1.17801e-07)
(2.97415e-07 4.59469e-08 -2.44126e-07)
(2.37409e-07 5.15534e-08 -2.24328e-07)
(1.01942e-07 3.90341e-08 -1.97825e-07)
(-1.32722e-07 2.50089e-08 -1.83765e-07)
(-5.8366e-07 2.04115e-08 -1.78782e-07)
(-1.28928e-06 1.04171e-08 -1.70296e-07)
(-2.393e-06 -6.30047e-09 -1.61619e-07)
(-2.79697e-06 -1.29078e-08 -1.44902e-07)
(-2.37533e-06 -5.6161e-10 -1.10646e-07)
(-2.71636e-06 5.70282e-10 -2.02038e-07)
(-3.11213e-06 4.42326e-09 -2.04442e-07)
(-2.4621e-06 1.40849e-09 -1.49723e-07)
(3.826e-07 9.57372e-09 -2.47396e-07)
(2.6326e-07 2.13549e-08 -2.21087e-07)
(8.75737e-08 2.56041e-08 -1.9936e-07)
(-1.8569e-07 2.18291e-08 -1.95082e-07)
(-6.20123e-07 1.99794e-08 -1.95184e-07)
(-1.31001e-06 8.73721e-09 -1.8664e-07)
(-2.61521e-06 -5.83324e-09 -1.9657e-07)
(-3.01302e-06 -8.0578e-10 -2.15742e-07)
(-2.44941e-06 1.32276e-09 -1.60765e-07)
(3.86603e-07 4.43404e-08 -2.46624e-07)
(3.0726e-07 4.87499e-08 -2.22719e-07)
(1.72047e-07 4.19542e-08 -2.06161e-07)
(-7.93721e-08 2.80137e-08 -1.89175e-07)
(-5.69572e-07 2.17868e-08 -1.85655e-07)
(-1.21387e-06 1.36609e-08 -1.84303e-07)
(-2.37173e-06 -4.36559e-09 -1.79269e-07)
(-2.78211e-06 -1.27454e-09 -1.74559e-07)
(-2.3278e-06 7.9544e-09 -1.31881e-07)
(4.57939e-07 4.91191e-08 -2.50853e-07)
(3.7307e-07 4.70506e-08 -2.32633e-07)
(1.97173e-07 4.67639e-08 -2.01531e-07)
(-4.25433e-08 3.88122e-08 -1.8662e-07)
(-5.15879e-07 2.34706e-08 -1.83854e-07)
(-1.1813e-06 1.63797e-08 -1.73024e-07)
(-2.13604e-06 4.86282e-09 -1.58874e-07)
(-2.57197e-06 -1.00613e-09 -1.48317e-07)
(-2.2024e-06 3.84943e-09 -1.1676e-07)
)
;

boundaryField
{
    inlet
    {
        type            calculated;
        value           nonuniform 0();
    }
    outlet
    {
        type            calculated;
        value           nonuniform List<vector> 
16
(
(-1.95571e-07 -2.09332e-08 -1.2518e-07)
(-2.35025e-07 -3.31962e-08 -1.07879e-07)
(-1.2064e-07 -6.17695e-08 -1.18054e-07)
(-2.11292e-07 8.01173e-08 -4.70378e-08)
(-2.73076e-07 -4.14446e-08 -6.74657e-08)
(-2.10149e-07 6.718e-08 -1.108e-07)
(3.49674e-08 2.12158e-08 -6.96508e-08)
(-2.28295e-07 6.65819e-08 -1.89504e-08)
(-1.28507e-07 -2.93878e-08 -3.15471e-08)
(-1.05457e-07 -1.70366e-08 -4.20825e-08)
(5.17675e-08 -1.89636e-08 1.12136e-08)
(-2.50814e-08 2.43497e-08 -2.29401e-08)
(9.42326e-07 -2.40454e-08 6.50684e-08)
(3.13795e-07 -8.53751e-09 -8.50746e-08)
(1.51536e-07 2.39786e-08 -6.25148e-09)
(2.96108e-07 -6.94704e-09 -1.67079e-08)
)
;
    }
    wall
    {
        type            calculated;
        value           nonuniform List<vector> 
66
(
(1.76151e-06 -1.32456e-07 -3.97898e-07)
(1.64758e-06 3.4544e-07 -2.28978e-07)
(4.08488e-06 2.79826e-07 -2.10259e-07)
(8.17049e-07 1.84015e-08 -2.21523e-07)
(1.10524e-06 1.89846e-07 -2.08824e-07)
(2.60337e-06 5.44948e-08 -3.64883e-07)
(8.43645e-07 5.57556e-08 -5.5452e-08)
(1.64428e-06 9.94716e-08 -2.57703e-07)
(1.66544e-06 1.55972e-07 -1.09788e-07)
(7.73535e-07 2.90515e-08 -1.0689e-07)
(2.43845e-06 2.91441e-08 -1.45459e-07)
(1.41352e-06 1.29031e-07 -1.5452e-07)
(1.16947e-06 8.28444e-08 -1.91514e-07)
(5.07014e-07 4.9863e-08 -1.46362e-07)
(9.09893e-07 8.77123e-09 -2.50337e-07)
(2.22421e-06 2.03024e-08 -2.18253e-08)
(2.09599e-06 2.83318e-08 -2.48979e-07)
(-2.12886e-07 6.20422e-08 -1.66776e-07)
(-6.4726e-06 -1.61265e-08 -2.65262e-07)
(-6.04172e-06 5.42857e-10 -2.33822e-07)
(-3.63423e-06 -2.47094e-08 -2.05483e-07)
(-2.35229e-06 6.53e-08 -6.66986e-08)
(-6.16662e-06 3.97285e-08 -4.26237e-07)
(-4.33554e-06 3.62632e-08 -7.6121e-07)
(-4.18334e-06 6.49681e-08 -3.08267e-07)
(-3.99489e-06 2.48721e-08 -1.27739e-07)
(1.37708e-06 1.99405e-08 1.37813e-07)
(-1.74231e-08 6.36673e-09 -2.16417e-07)
(-2.38117e-07 7.08973e-08 9.009e-09)
(4.20978e-07 2.98867e-08 8.08267e-08)
(2.04815e-06 2.1757e-07 3.12029e-09)
(2.98399e-07 1.30823e-07 -3.58463e-07)
(-3.12006e-07 1.11998e-07 -2.47723e-07)
(1.89694e-06 1.8029e-07 -2.62661e-07)
(1.76035e-06 4.38543e-08 -2.03173e-07)
(5.56617e-07 1.53181e-07 -1.79111e-07)
(-9.15174e-08 1.45355e-07 -2.87986e-07)
(1.51797e-06 3.83188e-08 -3.2122e-07)
(6.45035e-08 8.68023e-09 -1.86462e-07)
(4.9779e-07 8.8757e-08 -1.50911e-07)
(5.19109e-07 1.65181e-08 -1.28602e-07)
(9.68216e-07 1.14648e-07 -1.42489e-07)
(2.47441e-07 3.86985e-08 -1.41643e-07)
(2.82671e-07 1.51765e-08 -1.70433e-07)
(1.30285e-06 -3.59831e-08 -1.29936e-07)
(1.53963e-06 1.32152e-07 -1.49112e-07)
(2.93013e-07 3.1946e-08 -1.62668e-07)
(8.53825e-07 -1.35578e-08 -1.62034e-07)
(1.19835e-06 8.52287e-08 -1.22845e-07)
(4.51282e-07 2.55113e-08 -2.27891e-07)
(6.92658e-07 -4.08322e-08 -1.49778e-07)
(-1.57645e-06 3.81562e-08 -2.39441e-07)
(5.37968e-07 6.05583e-08 -1.26591e-07)
(5.86613e-07 6.18619e-08 -1.33295e-07)
(-4.67244e-06 -9.32709e-08 -2.10293e-07)
(-3.36275e-06 1.43266e-07 -4.11252e-08)
(-3.75783e-06 -3.19235e-08 -1.53291e-07)
(-2.09589e-06 4.35678e-08 -6.62571e-08)
(-7.08458e-06 8.01321e-09 -3.3737e-09)
(-6.29475e-06 1.01617e-07 -2.4607e-07)
(-4.30039e-06 -9.30564e-08 -1.44468e-07)
(-3.88637e-06 -2.80475e-09 -1.57834e-07)
(-1.11972e-06 1.43014e-07 -3.08253e-08)
(-1.04516e-06 1.10934e-07 -2.0269e-08)
(-4.79221e-07 3.18928e-08 2.13595e-08)
(5.65893e-09 1.19071e-08 6.73722e-08)
)
;
    }
    procBoundary7to0
    {
        type            processor;
        value           uniform (4.0661e-07 1.59695e-08 -2.02931e-07);
    }
    procBoundary7to1
    {
        type            processor;
        value           uniform (3.20805e-07 3.06647e-09 -1.90303e-07);
    }
    procBoundary7to3
    {
        type            processor;
        value           nonuniform List<vector> 
36
(
(3.21684e-07 1.10658e-08 -1.65611e-07)
(2.16274e-07 8.89312e-09 -1.57559e-07)
(2.50339e-08 1.55835e-08 -1.50669e-07)
(-3.03822e-07 8.62698e-09 -1.53518e-07)
(-7.95222e-07 2.04302e-09 -1.54368e-07)
(-1.58131e-06 4.80183e-09 -1.54699e-07)
(-3.11108e-06 4.80735e-09 -1.57422e-07)
(-3.74646e-06 1.34896e-08 -1.33536e-07)
(-3.07101e-06 1.82699e-08 -1.34458e-07)
(3.15302e-07 2.61328e-08 -1.70177e-07)
(1.94195e-07 2.45272e-08 -1.63406e-07)
(9.95462e-09 2.42146e-08 -1.57585e-07)
(-2.92092e-07 1.75192e-08 -1.56135e-07)
(-7.76109e-07 7.67717e-09 -1.49057e-07)
(-1.56843e-06 6.84943e-09 -1.45168e-07)
(-3.10953e-06 -5.35324e-09 -1.44786e-07)
(-3.79628e-06 -1.22676e-08 -1.09005e-07)
(-3.08072e-06 -6.08279e-09 -1.0502e-07)
(2.75565e-07 4.12956e-08 -1.78351e-07)
(1.70639e-07 4.97952e-08 -1.68319e-07)
(8.47253e-09 3.85558e-08 -1.59213e-07)
(-2.71017e-07 3.2723e-08 -1.52459e-07)
(-7.3741e-07 1.76127e-08 -1.39794e-07)
(-1.50461e-06 1.29286e-08 -1.37569e-07)
(-2.97531e-06 -1.29857e-08 -1.35198e-07)
(-3.65022e-06 -3.31418e-08 -1.01209e-07)
(-2.95838e-06 -1.48544e-08 -8.92916e-08)
(2.05972e-07 4.70579e-08 -1.73325e-07)
(1.46507e-07 6.05163e-08 -1.71315e-07)
(1.84304e-08 4.92e-08 -1.58987e-07)
(-2.54185e-07 3.62115e-08 -1.43197e-07)
(-6.74184e-07 2.80529e-08 -1.3206e-07)
(-1.42732e-06 1.37737e-08 -1.30356e-07)
(-2.67722e-06 -1.02537e-08 -1.19045e-07)
(-3.3567e-06 -2.09979e-08 -8.16447e-08)
(-2.84409e-06 -1.35707e-08 -6.64962e-08)
)
;
    }
    procBoundary7to5
    {
        type            processor;
        value           nonuniform List<vector> 
44
(
(2.14185e-07 4.01839e-09 -1.81695e-07)
(7.76308e-09 3.47997e-09 -1.72006e-07)
(-3.26678e-07 -4.40915e-10 -1.74672e-07)
(-8.2855e-07 -3.1103e-09 -1.75301e-07)
(-1.61152e-06 -1.13208e-09 -1.76012e-07)
(-3.09585e-06 1.69011e-08 -1.81711e-07)
(-3.74303e-06 3.02363e-08 -1.5586e-07)
(-3.01541e-06 2.01451e-08 -1.34038e-07)
(3.16084e-07 1.19546e-08 -2.13802e-07)
(2.04133e-07 1.18907e-08 -2.05276e-07)
(4.40522e-09 4.1856e-09 -1.93262e-07)
(-3.19029e-07 4.05936e-09 -1.94715e-07)
(-8.17014e-07 1.02158e-09 -1.95811e-07)
(-1.58971e-06 1.20755e-09 -1.92612e-07)
(-3.01067e-06 1.56688e-08 -1.89386e-07)
(-3.6143e-06 3.1017e-08 -1.77666e-07)
(-2.89236e-06 1.82316e-08 -1.41211e-07)
(3.16084e-07 1.19546e-08 -2.13802e-07)
(2.04133e-07 1.18907e-08 -2.05276e-07)
(2.04133e-07 1.18907e-08 -2.05276e-07)
(1.99077e-08 1.3474e-08 -2.07084e-07)
(-2.81339e-07 1.54606e-08 -2.09077e-07)
(-7.58952e-07 6.05613e-09 -2.03554e-07)
(-1.49196e-06 4.78054e-09 -1.93348e-07)
(-2.80946e-06 1.4614e-08 -2.00189e-07)
(-3.27184e-06 1.84085e-08 -1.95334e-07)
(-2.67569e-06 7.33087e-09 -1.43718e-07)
(2.93783e-07 8.14475e-09 -2.24284e-07)
(2.00744e-07 7.41771e-09 -2.1435e-07)
(1.99077e-08 1.3474e-08 -2.07084e-07)
(-2.81339e-07 1.54606e-08 -2.09077e-07)
(-2.81339e-07 1.54606e-08 -2.09077e-07)
(-6.75293e-07 1.84025e-08 -2.13996e-07)
(-1.47126e-06 8.0415e-09 -2.04159e-07)
(-2.56814e-06 7.09194e-09 -1.93623e-07)
(-2.94865e-06 1.21338e-08 -1.82878e-07)
(-2.46286e-06 6.65923e-09 -1.40465e-07)
(3.1214e-07 6.5891e-10 -2.31261e-07)
(2.86109e-07 4.3024e-09 -2.16143e-07)
(7.94687e-08 1.58415e-08 -2.14447e-07)
(-2.18137e-07 1.89554e-08 -2.17172e-07)
(-6.75293e-07 1.84025e-08 -2.13996e-07)
(-1.47126e-06 8.0415e-09 -2.04159e-07)
(-1.47126e-06 8.0415e-09 -2.04159e-07)
)
;
    }
    procBoundary7to6
    {
        type            processor;
        value           nonuniform List<vector> 
12
(
(3.94533e-07 2.53127e-08 -2.06722e-07)
(3.722e-07 3.49632e-08 -2.09681e-07)
(3.21312e-07 3.82088e-08 -2.08425e-07)
(4.00506e-07 2.44084e-08 -2.28355e-07)
(4.02182e-07 2.62681e-08 -2.31599e-07)
(3.9112e-07 2.91286e-08 -2.33504e-07)
(3.85692e-07 2.04816e-08 -2.46958e-07)
(3.8698e-07 2.0493e-08 -2.52505e-07)
(3.72181e-07 2.63556e-08 -2.52258e-07)
(3.87423e-07 1.47979e-08 -2.55755e-07)
(4.08624e-07 1.99774e-08 -2.60369e-07)
(3.88667e-07 2.71799e-08 -2.55117e-07)
)
;
    }
}


// ************************************************************************* //
