/*--------------------------------*- C++ -*----------------------------------*\
| =========                 |                                                 |
| \\      /  F ield         | OpenFOAM: The Open Source CFD Toolbox           |
|  \\    /   O peration     | Version:  4.x                                   |
|   \\  /    A nd           | Web:      www.OpenFOAM.org                      |
|    \\/     M anipulation  |                                                 |
\*---------------------------------------------------------------------------*/
FoamFile
{
    version     2.0;
    format      ascii;
    class       volScalarField;
    location    "10.5";
    object      KslPrev;
}
// * * * * * * * * * * * * * * * * * * * * * * * * * * * * * * * * * * * * * //

dimensions      [1 -3 -1 0 0 0 0];

internalField   nonuniform List<scalar> 
132
(
19955.2
3857.44
19514.9
3976.9
23393.9
4337.98
28163.5
5466.06
17485.5
19926
3682.43
17922.1
3574.62
15858.4
3529.49
12158.1
3610.19
7593.8
17448.1
3667.4
15113.6
3510.04
12575.2
3411.78
9295.76
3333.81
3766.05
5809.33
3014.07
5455.93
2771.69
5369.76
2480.3
5728.56
1965.44
3793.66
1e+10
4453.98
1e+10
4772.04
7.38654e+09
5461.66
14959.6
183604
4068.76
111565
4114.73
52266.4
4280.61
21989.7
4769.39
10743.9
72131.4
4029.09
122247
4056.77
167297
4278.59
67317.4
4862.91
21194.1
7045.85
3338.77
7135.86
3259.49
7510.98
3219.65
8499.71
3386.46
9215.26
1e+10
4625.23
1e+10
5308.18
19421.9
27049.1
3792.27
37785.3
3686.77
55437.3
3634.81
62734.2
3946.68
21101
18397
3788.7
19319
3679.32
18382.6
3541.19
12827.5
3506.14
4806.63
5560.66
3016.69
5299.77
2849.18
5245.12
2548.03
5412.64
1950.8
5278.83
8322.58
3890.42
8155.33
8657.13
3476.84
10675.6
3597.24
17502.5
3864.39
40576.9
4570.55
17183.8
5989.31
3204.87
6124.82
3274.44
6962.77
3367.54
8341.66
3776.36
8643.11
5065.77
2962.73
4879.4
2895.3
4732.49
2693.64
4419.47
2477.2
3604.34
)
;

boundaryField
{
    inlet
    {
        type            zeroGradient;
    }
    outlet
    {
        type            zeroGradient;
    }
    wall
    {
        type            zeroGradient;
    }
    procBoundary7to0
    {
        type            processor;
        value           uniform 0;
    }
    procBoundary7to1
    {
        type            processor;
        value           uniform 0;
    }
    procBoundary7to3
    {
        type            processor;
        value           uniform 0;
    }
    procBoundary7to5
    {
        type            processor;
        value           uniform 0;
    }
    procBoundary7to6
    {
        type            processor;
        value           uniform 0;
    }
}


// ************************************************************************* //
