/*--------------------------------*- C++ -*----------------------------------*\
| =========                 |                                                 |
| \\      /  F ield         | OpenFOAM: The Open Source CFD Toolbox           |
|  \\    /   O peration     | Version:  4.x                                   |
|   \\  /    A nd           | Web:      www.OpenFOAM.org                      |
|    \\/     M anipulation  |                                                 |
\*---------------------------------------------------------------------------*/
FoamFile
{
    version     2.0;
    format      ascii;
    class       volScalarField;
    location    "10.5";
    object      nu;
}
// * * * * * * * * * * * * * * * * * * * * * * * * * * * * * * * * * * * * * //

dimensions      [0 2 -1 0 0 0 0];

internalField   nonuniform List<scalar> 
132
(
1.00026e-06
1.00017e-06
1.00005e-06
9.99918e-07
9.99792e-07
9.99683e-07
9.99641e-07
9.99653e-07
9.99717e-07
1.00019e-06
1.0001e-06
9.99992e-07
9.99875e-07
9.99765e-07
9.99667e-07
9.996e-07
9.99561e-07
9.99386e-07
1.00024e-06
1.00016e-06
1.00004e-06
9.99939e-07
9.99812e-07
9.99761e-07
9.9966e-07
9.99683e-07
9.99388e-07
1.00038e-06
1.00046e-06
1.00052e-06
1.00056e-06
1.00053e-06
1.00051e-06
1.00036e-06
1.00032e-06
9.9916e-07
9.99876e-07
9.9975e-07
9.99639e-07
9.99625e-07
9.99721e-07
9.99806e-07
9.99809e-07
1.00005e-06
9.99942e-07
9.9983e-07
9.99738e-07
9.99644e-07
9.99587e-07
9.99569e-07
9.99608e-07
9.99441e-07
1.00011e-06
1.00003e-06
9.99928e-07
9.9985e-07
9.99735e-07
9.99705e-07
9.99642e-07
9.99686e-07
9.99522e-07
1.00026e-06
1.00031e-06
1.00034e-06
1.00036e-06
1.00032e-06
1.0003e-06
1.00022e-06
1.00016e-06
9.99554e-07
9.99734e-07
9.99672e-07
9.99596e-07
9.99616e-07
9.99295e-07
1.00011e-06
1.00005e-06
9.99974e-07
9.99906e-07
9.99816e-07
9.99745e-07
9.99659e-07
9.99637e-07
9.99427e-07
1.00011e-06
1.00004e-06
9.99967e-07
9.99925e-07
9.99878e-07
9.99876e-07
9.99835e-07
9.99863e-07
9.99467e-07
1.00019e-06
1.00022e-06
1.00024e-06
1.00025e-06
1.00024e-06
1.00024e-06
1.00018e-06
1.00016e-06
9.98488e-07
1.00009e-06
1.00004e-06
9.98319e-07
1.00021e-06
1.00023e-06
1.00022e-06
1.00017e-06
1.00009e-06
9.99998e-07
9.99904e-07
9.99854e-07
9.99375e-07
1.00019e-06
1.00021e-06
1.00023e-06
1.00023e-06
1.00022e-06
1.0002e-06
1.00016e-06
1.00012e-06
9.99754e-07
1.00018e-06
1.00021e-06
1.00023e-06
1.00025e-06
1.00026e-06
1.00026e-06
1.00025e-06
1.00024e-06
1.00012e-06
)
;

boundaryField
{
    inlet
    {
        type            calculated;
        value           nonuniform 0();
    }
    outlet
    {
        type            calculated;
        value           uniform 1e-06;
    }
    wall
    {
        type            calculated;
        value           nonuniform List<scalar> 
66
(
1.00021e-06
1.00019e-06
1.00018e-06
1.00023e-06
1.00021e-06
1.00021e-06
1.00022e-06
1.00023e-06
1.00023e-06
1.00017e-06
1.00023e-06
1.00025e-06
1.00009e-06
1.00022e-06
1.00026e-06
9.99998e-07
1.0002e-06
1.00026e-06
1.00009e-06
9.99904e-07
1.00016e-06
1.00025e-06
1.00004e-06
9.99854e-07
1.00012e-06
1.00024e-06
9.98319e-07
9.99375e-07
9.99754e-07
1.00012e-06
1.00038e-06
1.00026e-06
1.00019e-06
1.00018e-06
1.00046e-06
1.00031e-06
1.00022e-06
1.00021e-06
1.00052e-06
1.00034e-06
1.00024e-06
1.00023e-06
1.00056e-06
1.00036e-06
1.00025e-06
1.00025e-06
1.00053e-06
1.00032e-06
1.00024e-06
1.00026e-06
1.00051e-06
1.0003e-06
1.00024e-06
1.00026e-06
1.00036e-06
1.00022e-06
1.00018e-06
1.00025e-06
1.00032e-06
1.00016e-06
1.00016e-06
1.00024e-06
9.9916e-07
9.99554e-07
9.98488e-07
1.00012e-06
)
;
    }
    procBoundary7to0
    {
        type            processor;
        value           uniform 1.00032e-06;
    }
    procBoundary7to1
    {
        type            processor;
        value           uniform 1.00019e-06;
    }
    procBoundary7to3
    {
        type            processor;
        value           nonuniform List<scalar> 
36
(
1.00038e-06
1.00024e-06
1.00009e-06
9.99929e-07
9.99783e-07
9.99648e-07
9.99552e-07
9.99483e-07
9.994e-07
1.00038e-06
1.00026e-06
1.0001e-06
9.99937e-07
9.99787e-07
9.99655e-07
9.99551e-07
9.99488e-07
9.99193e-07
1.00046e-06
1.00033e-06
1.00014e-06
9.99977e-07
9.99811e-07
9.99743e-07
9.99627e-07
9.99654e-07
9.98342e-07
1.00062e-06
1.00072e-06
1.00079e-06
1.00083e-06
1.00079e-06
1.00074e-06
1.00058e-06
1.00048e-06
9.98324e-07
)
;
    }
    procBoundary7to5
    {
        type            processor;
        value           nonuniform List<scalar> 
44
(
1.00008e-06
9.99941e-07
9.99798e-07
9.99667e-07
9.99562e-07
9.99498e-07
9.99489e-07
9.99326e-07
1.00011e-06
9.99995e-07
9.99848e-07
9.99737e-07
9.99631e-07
9.99574e-07
9.99544e-07
9.99593e-07
9.99398e-07
1.00011e-06
9.99995e-07
9.99995e-07
9.99934e-07
9.99842e-07
9.99819e-07
9.99783e-07
9.99698e-07
9.99716e-07
9.99382e-07
1.00014e-06
1.00005e-06
9.99934e-07
9.99842e-07
9.99842e-07
1.00019e-06
1.00015e-06
1.00016e-06
1.00012e-06
9.99284e-07
1.0002e-06
1.00021e-06
1.00022e-06
1.00021e-06
1.00019e-06
1.00015e-06
1.00015e-06
)
;
    }
    procBoundary7to6
    {
        type            processor;
        value           nonuniform List<scalar> 
12
(
1.00025e-06
1.0003e-06
1.0003e-06
1.00014e-06
1.00017e-06
1.00021e-06
1.00016e-06
1.00015e-06
1.00016e-06
1.00018e-06
1.00016e-06
1.00015e-06
)
;
    }
}


// ************************************************************************* //
