/*--------------------------------*- C++ -*----------------------------------*\
| =========                 |                                                 |
| \\      /  F ield         | OpenFOAM: The Open Source CFD Toolbox           |
|  \\    /   O peration     | Version:  4.x                                   |
|   \\  /    A nd           | Web:      www.OpenFOAM.org                      |
|    \\/     M anipulation  |                                                 |
\*---------------------------------------------------------------------------*/
FoamFile
{
    version     2.0;
    format      ascii;
    class       volScalarField;
    location    "10.5";
    object      QPartFluidCoeff;
}
// * * * * * * * * * * * * * * * * * * * * * * * * * * * * * * * * * * * * * //

dimensions      [1 -1 -3 -1 0 0 0];

internalField   nonuniform List<scalar> 
132
(
-3.49523e+07
-3.0888e+07
-2.25449e+07
-2.6729e+07
-3.77751e+07
-4.11052e+07
-2.72612e+07
-2.08524e+07
-2.05388e+07
-2.64371e+07
-3.88061e+07
-2.61929e+07
-2.74797e+07
-3.05302e+07
-2.41729e+07
-2.75283e+07
-2.67709e+07
-2.37334e+07
-2.04033e+07
-3.11213e+07
-2.39257e+07
-3.05112e+07
-2.89968e+07
-3.61324e+07
-3.09219e+07
-3.15965e+07
-2.74144e+07
-1.84153e+07
-2.71816e+07
-3.1288e+07
-2.06099e+07
-2.78531e+07
-2.88818e+07
-2.92806e+07
-2.63376e+07
-1.45762e+07
-2.17694e+07
-2.813e+07
-2.2907e+07
-2.62216e+07
-2.84863e+07
-3.10465e+07
-1.96787e+07
-1.28995e+07
-3.34371e+07
-2.47523e+07
-2.94029e+07
-2.90821e+07
-2.7415e+07
-1.9145e+07
-2.94289e+07
-1.58333e+07
-2.13533e+07
-3.51542e+07
-2.56348e+07
-2.35322e+07
-2.81486e+07
-3.59521e+07
-3.30955e+07
-2.85802e+07
-2.21581e+07
-1.92856e+07
-3.14533e+07
-2.16722e+07
-2.79403e+07
-2.61763e+07
-2.35593e+07
-2.33519e+07
-3.07651e+07
-1.59088e+07
-1.57167e+07
-2.25957e+07
-2.51033e+07
-2.27998e+07
-1.36104e+07
-2.90195e+07
-3.01882e+07
-2.38054e+07
-2.15158e+07
-3.00043e+07
-2.87894e+07
-2.45708e+07
-3.41977e+07
-2.09586e+07
-2.71416e+07
-3.13032e+07
-2.86499e+07
-2.97635e+07
-3.22871e+07
-3.28224e+07
-2.99843e+07
-3.02639e+07
-2.4471e+07
-1.96839e+07
-2.43105e+07
-2.46906e+07
-2.76861e+07
-2.28256e+07
-2.38742e+07
-2.92091e+07
-2.98557e+07
-1.98147e+07
-1.88933e+07
-2.37668e+07
-1.58104e+07
-2.42823e+07
-2.29633e+07
-2.47064e+07
-2.803e+07
-1.62541e+07
-1.54715e+07
-2.10314e+07
-2.32488e+07
-1.39935e+07
-2.12888e+07
-2.24403e+07
-2.13118e+07
-2.55857e+07
-2.46713e+07
-2.3536e+07
-2.50092e+07
-2.44502e+07
-2.09383e+07
-2.09311e+07
-2.6856e+07
-1.9819e+07
-2.40529e+07
-2.53657e+07
-2.39442e+07
-2.29347e+07
-2.4983e+07
-1.41648e+07
)
;

boundaryField
{
    inlet
    {
        type            calculated;
        value           nonuniform 0();
    }
    outlet
    {
        type            calculated;
        value           uniform 0;
    }
    wall
    {
        type            calculated;
        value           uniform 0;
    }
    procBoundary7to0
    {
        type            processor;
        value           uniform 198.611;
    }
    procBoundary7to1
    {
        type            processor;
        value           uniform 460.19;
    }
    procBoundary7to3
    {
        type            processor;
        value           nonuniform List<scalar> 
36
(
622.139
813.015
712.203
779.711
506.827
591.745
699.216
606.206
531.384
731.476
475.575
642.406
391.091
361.142
743.523
620.423
865.814
430.254
510.467
796.658
720.114
563.001
592.633
789.828
649.062
761.153
408.319
460.919
358.021
457.289
547.731
519.355
681.518
527.102
773.008
628.043
)
;
    }
    procBoundary7to5
    {
        type            processor;
        value           nonuniform List<scalar> 
44
(
769.822
486.43
672.826
474.718
412.567
554.312
499.817
504.1
774.954
382.037
552.812
679.348
463.509
617.137
540.318
587.02
333.789
774.954
382.037
382.037
705.497
719.808
865.433
696.995
670.161
804.232
591.253
287.058
862.215
705.497
719.808
719.808
780.367
612.103
526.459
584.084
482.061
538.666
473.314
573.225
503.639
780.367
612.103
612.103
)
;
    }
    procBoundary7to6
    {
        type            processor;
        value           nonuniform List<scalar> 
12
(
612.711
666.099
419.729
748.225
701.191
656.916
715.228
740.336
515.367
337.739
633.605
534.625
)
;
    }
}


// ************************************************************************* //
