/*--------------------------------*- C++ -*----------------------------------*\
| =========                 |                                                 |
| \\      /  F ield         | OpenFOAM: The Open Source CFD Toolbox           |
|  \\    /   O peration     | Version:  4.x                                   |
|   \\  /    A nd           | Web:      www.OpenFOAM.org                      |
|    \\/     M anipulation  |                                                 |
\*---------------------------------------------------------------------------*/
FoamFile
{
    version     2.0;
    format      ascii;
    class       volScalarField;
    location    "10.5";
    object      rho;
}
// * * * * * * * * * * * * * * * * * * * * * * * * * * * * * * * * * * * * * //

dimensions      [1 -3 0 0 0 0 0];

internalField   nonuniform List<scalar> 
132
(
6698.25
6698.88
6699.66
6700.55
6701.39
6702.12
6702.41
6702.32
6701.9
6698.71
6699.32
6700.05
6700.84
6701.57
6702.23
6702.68
6702.94
6704.12
6698.36
6698.94
6699.73
6700.41
6701.26
6701.6
6702.28
6702.13
6704.11
6697.47
6696.89
6696.53
6696.25
6696.42
6696.56
6697.56
6697.89
6705.63
6700.83
6701.67
6702.42
6702.51
6701.87
6701.3
6701.28
6699.68
6700.39
6701.14
6701.75
6702.39
6702.77
6702.89
6702.63
6703.75
6699.23
6699.78
6700.48
6701
6701.78
6701.98
6702.4
6702.1
6703.2
6698.26
6697.91
6697.75
6697.62
6697.84
6698
6698.56
6698.94
6702.99
6701.78
6702.2
6702.71
6702.58
6704.73
6699.25
6699.65
6700.17
6700.63
6701.23
6701.71
6702.29
6702.43
6703.84
6699.28
6699.75
6700.22
6700.5
6700.82
6700.83
6701.1
6700.91
6703.58
6698.74
6698.52
6698.41
6698.3
6698.39
6698.43
6698.77
6698.9
6710.14
6699.4
6699.73
6711.28
6698.57
6698.47
6698.55
6698.85
6699.4
6700.01
6700.65
6700.98
6704.19
6698.73
6698.57
6698.47
6698.43
6698.5
6698.63
6698.96
6699.19
6701.65
6698.78
6698.58
6698.43
6698.32
6698.26
6698.25
6698.32
6698.4
6699.2
)
;

boundaryField
{
    inlet
    {
        type            calculated;
        value           nonuniform 0();
    }
    outlet
    {
        type            calculated;
        value           uniform 6700;
    }
    wall
    {
        type            calculated;
        value           nonuniform List<scalar> 
66
(
6698.57
6698.73
6698.78
6698.47
6698.57
6698.58
6698.55
6698.47
6698.43
6698.85
6698.43
6698.32
6699.4
6698.5
6698.26
6700.01
6698.63
6698.25
6699.4
6700.65
6698.96
6698.32
6699.73
6700.98
6699.19
6698.4
6711.28
6704.19
6701.65
6699.2
6697.47
6698.26
6698.74
6698.78
6696.89
6697.91
6698.52
6698.58
6696.53
6697.75
6698.41
6698.43
6696.25
6697.62
6698.3
6698.32
6696.42
6697.84
6698.39
6698.26
6696.56
6698
6698.43
6698.25
6697.56
6698.56
6698.77
6698.32
6697.89
6698.94
6698.9
6698.4
6705.63
6702.99
6710.14
6699.2
)
;
    }
    procBoundary7to0
    {
        type            processor;
        value           uniform 6697.87;
    }
    procBoundary7to1
    {
        type            processor;
        value           uniform 6698.74;
    }
    procBoundary7to3
    {
        type            processor;
        value           nonuniform List<scalar> 
36
(
6697.47
6698.39
6699.42
6700.48
6701.45
6702.36
6703
6703.46
6704.02
6697.43
6698.28
6699.35
6700.42
6701.43
6702.31
6703.01
6703.43
6705.41
6696.95
6697.77
6699.06
6700.16
6701.27
6701.72
6702.5
6702.32
6711.12
6695.88
6695.15
6694.71
6694.43
6694.69
6695.05
6696.09
6696.77
6711.25
)
;
    }
    procBoundary7to5
    {
        type            processor;
        value           nonuniform List<scalar> 
44
(
6699.49
6700.4
6701.36
6702.23
6702.93
6703.36
6703.43
6704.52
6699.29
6700.03
6701.02
6701.76
6702.47
6702.85
6703.06
6702.73
6704.04
6699.29
6700.03
6700.03
6700.44
6701.06
6701.21
6701.46
6702.03
6701.9
6704.14
6699.09
6699.65
6700.44
6701.06
6701.06
6698.76
6698.97
6698.95
6699.19
6704.8
6698.65
6698.57
6698.55
6698.6
6698.76
6698.97
6698.97
)
;
    }
    procBoundary7to6
    {
        type            processor;
        value           nonuniform List<scalar> 
12
(
6698.31
6698.02
6698.02
6699.07
6698.83
6698.58
6698.95
6698.98
6698.96
6698.77
6698.93
6699.01
)
;
    }
}


// ************************************************************************* //
