/*--------------------------------*- C++ -*----------------------------------*\
| =========                 |                                                 |
| \\      /  F ield         | OpenFOAM: The Open Source CFD Toolbox           |
|  \\    /   O peration     | Version:  4.x                                   |
|   \\  /    A nd           | Web:      www.OpenFOAM.org                      |
|    \\/     M anipulation  |                                                 |
\*---------------------------------------------------------------------------*/
FoamFile
{
    version     2.0;
    format      ascii;
    class       volScalarField;
    location    "4.5";
    object      Cs;
}
// * * * * * * * * * * * * * * * * * * * * * * * * * * * * * * * * * * * * * //

dimensions      [1 -3 0 0 0 0 0];

internalField   nonuniform List<scalar> 
87
(
335.034
334.956
335.017
334.835
334.836
334.844
334.995
334.975
334.943
334.915
334.907
334.928
334.969
335.018
335.071
334.995
334.979
334.952
334.926
334.912
334.921
334.948
334.987
335.03
334.995
334.982
334.959
334.933
334.907
334.89
334.88
334.88
334.89
334.996
334.98
334.954
334.928
334.916
334.927
334.957
334.998
335.034
334.996
334.982
334.958
334.934
334.92
334.926
334.952
334.994
335.044
334.996
334.984
334.964
334.944
334.926
334.914
334.909
334.907
334.91
334.995
334.981
334.96
334.938
334.921
334.91
334.906
334.908
334.919
334.996
334.983
334.962
334.942
334.925
334.914
334.91
334.911
334.915
334.996
334.983
334.963
334.942
334.925
334.913
334.906
334.903
334.902
)
;

boundaryField
{
    inlet
    {
        type            calculated;
        value           uniform 335;
    }
    outlet
    {
        type            calculated;
        value           nonuniform 0();
    }
    wall
    {
        type            calculated;
        value           nonuniform List<scalar> 
57
(
334.995
334.996
334.996
334.981
334.983
334.983
334.96
334.962
334.963
334.938
334.942
334.942
334.921
334.925
334.925
334.91
334.914
334.913
334.906
334.91
334.906
334.908
334.911
334.903
334.919
334.915
334.902
334.995
334.996
334.996
334.982
334.984
334.983
334.959
334.964
334.963
334.933
334.944
334.942
334.907
334.926
334.925
334.89
334.914
334.913
334.835
334.88
334.909
334.906
334.836
334.88
334.907
334.903
334.844
334.89
334.91
334.902
)
;
    }
    procBoundary6to0
    {
        type            processor;
        value           uniform 335.005;
    }
    procBoundary6to2
    {
        type            processor;
        value           nonuniform List<scalar> 
32
(
335.013
334.908
334.983
334.734
334.747
334.765
334.994
334.973
334.936
334.903
334.888
334.899
334.931
334.982
334.982
334.982
334.994
334.973
334.935
334.898
334.875
334.881
334.907
334.907
334.907
334.994
334.976
334.944
334.909
334.873
334.849
334.849
)
;
    }
    procBoundary6to4
    {
        type            processor;
        value           nonuniform List<scalar> 
27
(
334.995
334.975
334.942
334.911
334.898
334.912
334.943
334.987
335.038
334.996
334.98
334.955
334.93
334.914
334.916
334.935
334.97
335.018
334.995
334.981
334.959
334.937
334.92
334.91
334.908
334.911
334.921
)
;
    }
    procBoundary6to7
    {
        type            processor;
        value           nonuniform List<scalar> 
12
(
335.075
335.07
334.869
335.118
335.07
334.909
335.066
335.085
334.917
334.943
334.918
334.904
)
;
    }
}


// ************************************************************************* //
