/*--------------------------------*- C++ -*----------------------------------*\
| =========                 |                                                 |
| \\      /  F ield         | OpenFOAM: The Open Source CFD Toolbox           |
|  \\    /   O peration     | Version:  4.x                                   |
|   \\  /    A nd           | Web:      www.OpenFOAM.org                      |
|    \\/     M anipulation  |                                                 |
\*---------------------------------------------------------------------------*/
FoamFile
{
    version     2.0;
    format      ascii;
    class       volScalarField;
    location    "4.5";
    object      Deff;
}
// * * * * * * * * * * * * * * * * * * * * * * * * * * * * * * * * * * * * * //

dimensions      [0 2 -1 0 0 0 0];

internalField   nonuniform List<scalar> 
87
(
9.81275e-08
9.81999e-08
9.81537e-08
9.83438e-08
9.83426e-08
9.83281e-08
9.82863e-08
9.83009e-08
9.83048e-08
9.81144e-08
9.79784e-08
9.80474e-08
9.79715e-08
9.7996e-08
9.79153e-08
9.85472e-08
9.83591e-08
9.83065e-08
9.81168e-08
9.80636e-08
9.80208e-08
9.80146e-08
9.79706e-08
9.79685e-08
9.87304e-08
9.84887e-08
9.84449e-08
9.82671e-08
9.81169e-08
9.80258e-08
9.81311e-08
9.81179e-08
9.80778e-08
9.83421e-08
9.82723e-08
9.8174e-08
9.80642e-08
9.80591e-08
9.79874e-08
9.79491e-08
9.79736e-08
9.78898e-08
9.8557e-08
9.83731e-08
9.82673e-08
9.81264e-08
9.8101e-08
9.80873e-08
9.79921e-08
9.80492e-08
9.79379e-08
9.87163e-08
9.84909e-08
9.83991e-08
9.81747e-08
9.81023e-08
9.81057e-08
9.81186e-08
9.81465e-08
9.8117e-08
9.85577e-08
9.84455e-08
9.82814e-08
9.81002e-08
9.80218e-08
9.79658e-08
9.78668e-08
9.78953e-08
9.80708e-08
9.86248e-08
9.85095e-08
9.83155e-08
9.8205e-08
9.80181e-08
9.80742e-08
9.8028e-08
9.80791e-08
9.79742e-08
9.87971e-08
9.85582e-08
9.84019e-08
9.82513e-08
9.82032e-08
9.8046e-08
9.82132e-08
9.82276e-08
9.81195e-08
)
;

boundaryField
{
    inlet
    {
        type            calculated;
        value           uniform 0;
    }
    outlet
    {
        type            calculated;
        value           nonuniform 0();
    }
    wall
    {
        type            calculated;
        value           uniform 0;
    }
    procBoundary6to0
    {
        type            processor;
        value           uniform 0;
    }
    procBoundary6to2
    {
        type            processor;
        value           uniform 0;
    }
    procBoundary6to4
    {
        type            processor;
        value           uniform 0;
    }
    procBoundary6to7
    {
        type            processor;
        value           uniform 0;
    }
}


// ************************************************************************* //
