/*--------------------------------*- C++ -*----------------------------------*\
| =========                 |                                                 |
| \\      /  F ield         | OpenFOAM: The Open Source CFD Toolbox           |
|  \\    /   O peration     | Version:  4.x                                   |
|   \\  /    A nd           | Web:      www.OpenFOAM.org                      |
|    \\/     M anipulation  |                                                 |
\*---------------------------------------------------------------------------*/
FoamFile
{
    version     2.0;
    format      ascii;
    class       volVectorField;
    location    "4.5";
    object      impParticleForces;
}
// * * * * * * * * * * * * * * * * * * * * * * * * * * * * * * * * * * * * * //

dimensions      [1 1 -2 0 0 0 0];

internalField   nonuniform List<vector> 
87
(
(0.00252403 8.38039e-06 -2.31206e-05)
(0.00251969 1.87103e-05 9.76075e-06)
(0.00254913 1.81307e-05 -1.46022e-05)
(0.00251067 2.69274e-05 3.02993e-05)
(0.00250613 2.49198e-05 1.50713e-05)
(0.00252322 2.44119e-05 -6.38514e-06)
(0.00242235 1.19965e-05 6.77076e-06)
(0.00244602 1.19007e-05 1.28709e-05)
(0.00247851 1.20092e-05 2.2473e-05)
(0.00248523 1.03653e-05 3.1243e-05)
(0.0025339 9.23337e-06 3.68476e-05)
(0.00251384 7.53256e-06 3.21626e-05)
(0.00255438 6.55185e-06 2.22886e-05)
(0.00252351 5.43982e-06 3.40654e-06)
(0.00255626 4.93278e-06 -2.10303e-05)
(0.00239237 2.52358e-05 5.80712e-06)
(0.00242706 2.6334e-05 1.09518e-05)
(0.00247627 2.72431e-05 2.04287e-05)
(0.00248895 2.43471e-05 3.00071e-05)
(0.00253668 2.2563e-05 3.6824e-05)
(0.0025302 1.92587e-05 3.45904e-05)
(0.00256765 1.70687e-05 2.6531e-05)
(0.00254875 1.47367e-05 9.25844e-06)
(0.00258207 1.37177e-05 -1.3666e-05)
(0.00234096 2.9397e-05 5.73867e-06)
(0.00237576 3.11276e-05 9.94131e-06)
(0.00241676 3.16715e-05 1.84883e-05)
(0.0024442 2.99291e-05 2.7782e-05)
(0.00250805 2.91396e-05 3.56591e-05)
(0.00252575 2.62661e-05 3.63501e-05)
(0.00254416 2.30589e-05 2.94381e-05)
(0.00252887 2.04081e-05 1.36209e-05)
(0.00257242 2.03167e-05 -5.45194e-06)
(0.00240943 9.90142e-06 2.05165e-05)
(0.002438 1.02363e-05 2.53733e-05)
(0.0024912 1.00852e-05 3.35927e-05)
(0.00248879 8.44967e-06 3.79107e-05)
(0.00252888 7.03721e-06 3.99621e-05)
(0.00253283 5.23831e-06 3.40954e-05)
(0.00257906 3.65991e-06 2.29012e-05)
(0.00254194 2.63855e-06 4.27204e-06)
(0.00258015 1.89639e-06 -1.94275e-05)
(0.00237314 2.19432e-05 1.79266e-05)
(0.00241657 2.3225e-05 2.26215e-05)
(0.00247082 2.38815e-05 3.05553e-05)
(0.00247499 2.08269e-05 3.54652e-05)
(0.00252905 1.92343e-05 3.9182e-05)
(0.00252495 1.56643e-05 3.40475e-05)
(0.00258422 1.36155e-05 2.50219e-05)
(0.00255561 1.08395e-05 7.6837e-06)
(0.00260343 9.19722e-06 -1.39886e-05)
(0.00233295 2.68543e-05 1.60057e-05)
(0.00235528 2.74465e-05 1.98545e-05)
(0.00240303 2.78962e-05 2.65736e-05)
(0.00243361 2.61491e-05 3.26429e-05)
(0.00248691 2.46564e-05 3.6664e-05)
(0.00250041 2.11733e-05 3.39618e-05)
(0.0025469 1.88861e-05 2.64585e-05)
(0.00254512 1.58536e-05 1.14284e-05)
(0.00258262 1.46523e-05 -7.54736e-06)
(0.00236894 8.18804e-06 2.54885e-05)
(0.00238519 8.14056e-06 2.92823e-05)
(0.00245056 7.96836e-06 3.62199e-05)
(0.0024609 6.59886e-06 3.92959e-05)
(0.00250334 5.10573e-06 4.01058e-05)
(0.00251709 3.39228e-06 3.35563e-05)
(0.0025724 1.45146e-06 2.21543e-05)
(0.00254092 4.14391e-07 3.76605e-06)
(0.00255033 -8.55509e-07 -1.93508e-05)
(0.00233707 1.89463e-05 2.30875e-05)
(0.00236247 1.92966e-05 2.67533e-05)
(0.00241935 1.94815e-05 3.29939e-05)
(0.00243989 1.75308e-05 3.65042e-05)
(0.00249488 1.58659e-05 3.84929e-05)
(0.00250436 1.2922e-05 3.26882e-05)
(0.0025521 1.08365e-05 2.26087e-05)
(0.00254132 8.18675e-06 5.447e-06)
(0.00257115 6.97415e-06 -1.59025e-05)
(0.00230733 2.37922e-05 2.08983e-05)
(0.00232637 2.41181e-05 2.41894e-05)
(0.00238032 2.44173e-05 2.95101e-05)
(0.00240042 2.24711e-05 3.35132e-05)
(0.00244342 2.04681e-05 3.51989e-05)
(0.00248386 1.78897e-05 3.1852e-05)
(0.00252095 1.53204e-05 2.25311e-05)
(0.00252794 1.24263e-05 7.28805e-06)
(0.00256946 1.10487e-05 -1.18945e-05)
)
;

boundaryField
{
    inlet
    {
        type            zeroGradient;
    }
    outlet
    {
        type            zeroGradient;
    }
    wall
    {
        type            zeroGradient;
    }
    procBoundary6to0
    {
        type            processor;
        value           uniform (0.00248778 -2.04028e-06 -2.47268e-05);
    }
    procBoundary6to2
    {
        type            processor;
        value           nonuniform List<vector> 
32
(
(0.00247819 1.06824e-05 -2.41158e-05)
(0.00249664 2.21245e-05 9.13541e-06)
(0.00251581 2.2433e-05 -1.44103e-05)
(0.0025079 3.15171e-05 3.20619e-05)
(0.00247706 2.9467e-05 1.49905e-05)
(0.00249678 2.97778e-05 -6.46083e-06)
(0.00239491 1.21666e-05 -7.89631e-06)
(0.0024372 1.31719e-05 -1.40355e-06)
(0.00249299 1.42162e-05 1.02569e-05)
(0.00247887 1.23407e-05 2.34266e-05)
(0.00251343 1.09373e-05 3.28388e-05)
(0.0024995 9.42778e-06 3.05279e-05)
(0.00253344 8.45538e-06 2.16542e-05)
(0.0025014 8.16321e-06 1.89887e-06)
(0.0025014 8.16321e-06 1.89887e-06)
(0.0025014 8.16321e-06 1.89887e-06)
(0.00237267 2.53225e-05 -7.35559e-06)
(0.0024148 2.74104e-05 -2.14461e-06)
(0.00248948 3.03956e-05 8.75643e-06)
(0.0024774 2.6764e-05 2.26759e-05)
(0.00252426 2.54213e-05 3.39791e-05)
(0.00250795 2.20045e-05 3.37458e-05)
(0.00255117 2.08901e-05 2.83929e-05)
(0.00255117 2.08901e-05 2.83929e-05)
(0.00255117 2.08901e-05 2.83929e-05)
(0.00232523 2.99915e-05 -5.45703e-06)
(0.00236634 3.23623e-05 -1.05321e-06)
(0.00243863 3.55648e-05 8.70692e-06)
(0.00244778 3.32929e-05 2.1841e-05)
(0.00248928 3.22359e-05 3.27893e-05)
(0.00248892 2.88882e-05 3.51829e-05)
(0.00248892 2.88882e-05 3.51829e-05)
)
;
    }
    procBoundary6to4
    {
        type            processor;
        value           nonuniform List<vector> 
27
(
(0.00238622 -6.32699e-06 8.34115e-06)
(0.00243597 -6.7325e-06 1.41584e-05)
(0.00249629 -6.37855e-06 2.45905e-05)
(0.00248844 -6.08786e-06 3.24897e-05)
(0.0025327 -5.82181e-06 3.79917e-05)
(0.00251828 -5.336e-06 3.3162e-05)
(0.00256591 -5.0011e-06 2.33519e-05)
(0.00251644 -4.26717e-06 3.20273e-06)
(0.00253197 -4.26646e-06 -2.17958e-05)
(0.00239938 -6.70636e-06 2.11809e-05)
(0.00243983 -6.83667e-06 2.66154e-05)
(0.00249523 -6.90553e-06 3.55133e-05)
(0.00251091 -6.64071e-06 4.09979e-05)
(0.00256456 -6.83268e-06 4.43138e-05)
(0.00254664 -6.68106e-06 3.71075e-05)
(0.00259422 -7.05104e-06 2.69109e-05)
(0.00255232 -6.47831e-06 6.70656e-06)
(0.00256696 -6.54375e-06 -1.73851e-05)
(0.0023856 -6.71045e-06 2.66198e-05)
(0.0023981 -6.62433e-06 3.08156e-05)
(0.00245856 -6.99403e-06 3.80173e-05)
(0.00248344 -7.09855e-06 4.22753e-05)
(0.00254074 -7.57482e-06 4.43312e-05)
(0.00254079 -7.63929e-06 3.74048e-05)
(0.00254766 -7.95007e-06 2.51313e-05)
(0.00254068 -8.36671e-06 6.97241e-06)
(0.00255548 -9.63289e-06 -1.56461e-05)
)
;
    }
    procBoundary6to7
    {
        type            processor;
        value           nonuniform List<vector> 
12
(
(0.0025071 8.61058e-06 -5.21443e-05)
(0.00252145 1.8871e-05 -4.35433e-05)
(0.00251489 2.60544e-05 -3.57178e-05)
(0.00251935 4.20663e-06 -4.89072e-05)
(0.00254818 1.40933e-05 -4.18547e-05)
(0.00254678 2.14832e-05 -3.37144e-05)
(0.00255781 7.31509e-07 -4.63894e-05)
(0.00257559 9.39597e-06 -3.99892e-05)
(0.00256609 1.46661e-05 -3.26365e-05)
(0.00253781 -2.08919e-06 -4.42596e-05)
(0.00254779 6.35162e-06 -4.03955e-05)
(0.00254696 1.07327e-05 -3.5821e-05)
)
;
    }
}


// ************************************************************************* //
