/*--------------------------------*- C++ -*----------------------------------*\
| =========                 |                                                 |
| \\      /  F ield         | OpenFOAM: The Open Source CFD Toolbox           |
|  \\    /   O peration     | Version:  4.x                                   |
|   \\  /    A nd           | Web:      www.OpenFOAM.org                      |
|    \\/     M anipulation  |                                                 |
\*---------------------------------------------------------------------------*/
FoamFile
{
    version     2.0;
    format      ascii;
    class       volScalarField;
    location    "4.5";
    object      QPartFluidCoeff;
}
// * * * * * * * * * * * * * * * * * * * * * * * * * * * * * * * * * * * * * //

dimensions      [1 -1 -3 -1 0 0 0];

internalField   nonuniform List<scalar> 
87
(
-2.75929e+07
-2.18057e+07
-2.98991e+07
-1.9601e+07
-2.17876e+07
-1.96172e+07
-3.2936e+07
-2.92798e+07
-2.00073e+07
-2.57809e+07
-3.66989e+07
-2.02696e+07
-2.92147e+07
-2.23538e+07
-3.37704e+07
-2.09875e+07
-3.01921e+07
-2.70705e+07
-3.22093e+07
-3.06306e+07
-2.90229e+07
-2.93314e+07
-3.15246e+07
-3.17489e+07
-1.5673e+07
-2.51942e+07
-1.99627e+07
-2.08414e+07
-2.94641e+07
-3.29395e+07
-2.49024e+07
-2.30821e+07
-3.07397e+07
-2.54124e+07
-2.95535e+07
-3.27653e+07
-2.68518e+07
-2.2614e+07
-2.62119e+07
-2.68182e+07
-2.05715e+07
-3.25986e+07
-1.79409e+07
-2.92142e+07
-2.94201e+07
-2.70574e+07
-2.65637e+07
-2.13005e+07
-3.35843e+07
-2.11553e+07
-3.35402e+07
-1.61001e+07
-2.20661e+07
-2.06215e+07
-2.62035e+07
-2.76245e+07
-2.11372e+07
-2.56623e+07
-2.29482e+07
-2.41029e+07
-1.55346e+07
-1.78398e+07
-2.43096e+07
-2.36373e+07
-2.42867e+07
-2.21746e+07
-3.51128e+07
-2.9365e+07
-1.53207e+07
-1.73533e+07
-1.91403e+07
-2.54709e+07
-2.05518e+07
-3.24451e+07
-2.06164e+07
-2.64273e+07
-2.10649e+07
-2.88514e+07
-1.42526e+07
-2.00622e+07
-2.25269e+07
-2.08645e+07
-1.75121e+07
-2.84418e+07
-1.89954e+07
-1.90629e+07
-2.48588e+07
)
;

boundaryField
{
    inlet
    {
        type            calculated;
        value           uniform 0;
    }
    outlet
    {
        type            calculated;
        value           nonuniform 0();
    }
    wall
    {
        type            calculated;
        value           uniform 0;
    }
    procBoundary6to0
    {
        type            processor;
        value           uniform 203.443;
    }
    procBoundary6to2
    {
        type            processor;
        value           nonuniform List<scalar> 
32
(
432.795
636.056
772.249
752.163
428.334
760.706
369.409
698.55
767.55
527.097
588.495
501.462
580.283
583.944
583.944
583.944
443.574
580.818
789.328
481.39
685.959
558.221
786.501
786.501
786.501
323.156
472.471
568.546
552.695
516.889
510.827
510.827
)
;
    }
    procBoundary6to4
    {
        type            processor;
        value           nonuniform List<scalar> 
27
(
258.814
499.566
702.098
421.769
662.399
474.599
863.948
457.647
536.48
469.827
643.223
572.777
731.863
836.012
556.447
913.842
659.71
631.841
567.461
526.627
510.272
626.835
665.657
752.738
391.771
419.633
560.51
)
;
    }
    procBoundary6to7
    {
        type            processor;
        value           nonuniform List<scalar> 
12
(
582.621
456.159
435.155
294.175
488.103
464.871
677.873
621.762
478.838
538.749
491.763
502.52
)
;
    }
}


// ************************************************************************* //
