/*--------------------------------*- C++ -*----------------------------------*\
| =========                 |                                                 |
| \\      /  F ield         | OpenFOAM: The Open Source CFD Toolbox           |
|  \\    /   O peration     | Version:  4.x                                   |
|   \\  /    A nd           | Web:      www.OpenFOAM.org                      |
|    \\/     M anipulation  |                                                 |
\*---------------------------------------------------------------------------*/
FoamFile
{
    version     2.0;
    format      ascii;
    class       volScalarField;
    location    "4.5";
    object      thCond;
}
// * * * * * * * * * * * * * * * * * * * * * * * * * * * * * * * * * * * * * //

dimensions      [1 1 -3 -1 0 0 0];

internalField   nonuniform List<scalar> 
87
(
190.483
190.623
190.534
190.903
190.9
190.872
190.791
190.819
190.827
190.457
190.193
190.327
190.18
190.228
190.071
191.298
190.932
190.83
190.462
190.359
190.276
190.264
190.178
190.174
191.653
191.184
191.099
190.754
190.462
190.285
190.49
190.464
190.386
190.899
190.764
190.573
190.36
190.35
190.211
190.136
190.184
190.021
191.316
190.96
190.754
190.481
190.431
190.405
190.22
190.331
190.115
191.626
191.188
191.01
190.574
190.434
190.44
190.466
190.52
190.462
191.318
191.1
190.782
190.43
190.278
190.169
189.977
190.032
190.373
191.448
191.224
190.848
190.633
190.27
190.379
190.29
190.389
190.185
191.783
191.319
191.015
190.723
190.63
190.325
190.649
190.677
190.467
)
;

boundaryField
{
    inlet
    {
        type            zeroGradient;
    }
    outlet
    {
        type            zeroGradient;
    }
    wall
    {
        type            zeroGradient;
    }
    procBoundary6to0
    {
        type            processor;
        value           uniform 190.806;
    }
    procBoundary6to2
    {
        type            processor;
        value           nonuniform List<scalar> 
32
(
190.983
190.952
190.825
191.113
191.318
190.98
191.529
191.106
190.837
190.789
190.712
190.604
190.508
190.468
190.468
190.468
191.522
191.228
190.907
190.885
190.735
190.645
190.493
190.493
190.493
191.824
191.43
191.223
190.993
191.015
190.849
190.849
)
;
    }
    procBoundary6to4
    {
        type            processor;
        value           nonuniform List<scalar> 
27
(
191.4
191.071
190.707
190.576
190.328
190.308
190.001
190.267
190.265
191.091
190.843
190.657
190.229
190.07
190.122
189.883
190.034
190.107
190.987
190.839
190.701
190.27
190.148
189.938
190.275
190.305
190.22
)
;
    }
    procBoundary6to7
    {
        type            processor;
        value           nonuniform List<scalar> 
12
(
190.174
190.539
190.803
190.211
190.268
190.451
189.927
190.085
190.391
190.079
190.199
190.305
)
;
    }
}


// ************************************************************************* //
