/*--------------------------------*- C++ -*----------------------------------*\
| =========                 |                                                 |
| \\      /  F ield         | OpenFOAM: The Open Source CFD Toolbox           |
|  \\    /   O peration     | Version:  4.x                                   |
|   \\  /    A nd           | Web:      www.OpenFOAM.org                      |
|    \\/     M anipulation  |                                                 |
\*---------------------------------------------------------------------------*/
FoamFile
{
    version     2.0;
    format      ascii;
    class       volVectorField;
    location    "4.5";
    object      UsNext;
}
// * * * * * * * * * * * * * * * * * * * * * * * * * * * * * * * * * * * * * //

dimensions      [0 1 -1 0 0 0 0];

internalField   nonuniform List<vector> 
87
(
(2.84473e-07 5.11643e-07 -1.75248e-07)
(4.42515e-07 5.24094e-07 8.18669e-08)
(8.41714e-09 4.69549e-07 1.12704e-07)
(2.48089e-07 2.59598e-07 -8.91505e-08)
(1.51413e-07 2.03288e-07 2.50887e-08)
(3.35888e-08 1.30509e-07 1.73396e-07)
(5.33159e-07 -1.79106e-07 -1.69767e-07)
(9.10481e-07 -5.07139e-07 -2.18862e-07)
(1.45933e-06 -3.85138e-07 -2.24276e-07)
(1.76062e-06 -2.26294e-07 -4.06674e-09)
(1.84428e-06 -1.0975e-08 -1.65621e-07)
(8.58104e-07 1.32862e-07 -1.41571e-07)
(6.02621e-07 3.30212e-07 2.65269e-08)
(-4.56336e-08 5.46511e-07 -3.06e-08)
(-4.58776e-07 4.57252e-07 2.2108e-08)
(5.892e-07 -1.35399e-07 -2.03032e-07)
(8.25695e-07 -4.04499e-07 -1.77243e-07)
(1.2538e-06 -3.08609e-07 -1.09388e-07)
(1.34702e-06 -7.51997e-08 3.74197e-08)
(1.29691e-06 1.13677e-07 -5.74019e-08)
(9.27859e-07 1.93949e-07 -5.36535e-08)
(2.25522e-07 5.44401e-07 6.10926e-08)
(-1.24324e-07 5.2205e-07 6.58872e-08)
(-4.30109e-07 3.53356e-07 9.80365e-08)
(1.14206e-07 -6.83677e-08 2.3718e-08)
(2.79387e-07 -4.35825e-07 -1.69712e-07)
(3.5675e-07 -8.15707e-08 -1.05452e-07)
(5.75907e-07 -1.29653e-07 -5.20054e-08)
(4.54026e-07 7.30597e-10 1.11973e-08)
(3.83584e-07 1.67932e-07 -1.88521e-08)
(1.6539e-08 2.70841e-07 1.86029e-08)
(-8.34087e-08 1.82609e-07 7.03253e-08)
(-2.15007e-07 1.69162e-07 7.8598e-08)
(1.31247e-07 -1.38726e-07 -9.85236e-08)
(5.78358e-07 -3.83636e-07 -2.40476e-07)
(8.18489e-07 -4.09186e-07 -2.67072e-07)
(7.73246e-07 -3.25814e-07 -7.8548e-08)
(4.77411e-07 -8.40325e-08 -1.01149e-08)
(-5.15403e-08 1.51804e-07 2.77072e-08)
(-3.79515e-07 1.82793e-07 8.95625e-08)
(-6.40821e-07 3.55039e-07 -2.06377e-08)
(-8.08963e-07 4.22673e-07 -2.0422e-08)
(2.53029e-07 -1.41943e-07 -1.6603e-07)
(4.77269e-07 -2.75857e-07 -1.03147e-07)
(6.58416e-07 -3.76389e-07 -1.04118e-07)
(7.07076e-07 -2.88992e-07 -5.26761e-08)
(2.83147e-07 4.93177e-08 3.08023e-08)
(-6.55195e-08 2.0676e-07 2.52239e-10)
(-1.30631e-07 2.31549e-07 2.53167e-07)
(-6.54765e-07 1.37085e-06 4.31357e-07)
(-8.19745e-07 2.85133e-07 6.43316e-08)
(-8.74164e-08 -4.08359e-08 2.48305e-08)
(-5.53495e-07 -4.13918e-07 -1.5502e-08)
(2.27547e-07 -1.11116e-07 -1.72537e-07)
(1.75731e-07 -1.17666e-07 -5.28515e-08)
(9.7201e-08 2.44362e-08 -4.46173e-09)
(-7.27004e-08 9.19248e-08 -6.87914e-09)
(-1.85424e-07 1.03534e-07 5.0795e-08)
(-2.28548e-07 1.62797e-07 1.01467e-07)
(-7.85216e-07 8.67227e-08 1.92599e-07)
(6.33e-08 -1.03872e-07 -3.46118e-08)
(6.83314e-08 -2.25457e-07 -6.8347e-08)
(2.81908e-07 -1.19302e-07 -1.44797e-07)
(2.15535e-07 -1.11668e-07 -5.46766e-08)
(1.30513e-07 -7.96741e-08 2.02941e-08)
(-5.33489e-08 5.60082e-08 3.52021e-08)
(-8.19928e-07 -2.87376e-07 -7.60134e-08)
(-8.48025e-07 4.08241e-07 -2.66721e-08)
(-1.13634e-06 3.1143e-07 -2.30136e-07)
(-9.98945e-08 -1.47196e-07 -1.0468e-07)
(1.32705e-07 -1.29431e-07 -7.36347e-08)
(-2.08572e-08 -1.66315e-07 -9.1177e-08)
(7.81388e-08 -1.03185e-07 -6.14251e-09)
(-5.82723e-08 3.18808e-10 2.31907e-08)
(-2.54543e-07 1.13495e-07 6.4101e-08)
(-9.11383e-07 -5.2821e-07 1.08684e-07)
(-9.57169e-07 2.66923e-06 4.26383e-07)
(-9.04156e-07 3.51194e-07 2.25191e-08)
(-7.19254e-07 -2.3544e-07 -3.78879e-08)
(-3.24589e-08 -3.06851e-08 -4.0491e-08)
(-1.6032e-08 -8.06429e-08 -1.02114e-07)
(-1.85445e-08 -3.73925e-08 -1.80633e-08)
(-4.9535e-08 1.886e-08 -1.50597e-08)
(-1.34791e-07 5.62465e-08 2.30086e-08)
(-2.33063e-07 9.7603e-08 5.85173e-08)
(-3.1305e-07 1.82157e-07 4.66531e-08)
(-4.97218e-07 -3.76396e-08 1.85911e-07)
)
;

boundaryField
{
    inlet
    {
        type            calculated;
        value           nonuniform List<vector> 9((5.33159e-07 -1.79106e-07 -1.69767e-07) (5.892e-07 -1.35399e-07 -2.03032e-07) (1.14206e-07 -6.83677e-08 2.3718e-08) (1.31247e-07 -1.38726e-07 -9.85236e-08) (2.53029e-07 -1.41943e-07 -1.6603e-07) (-8.74164e-08 -4.08359e-08 2.48305e-08) (6.33e-08 -1.03872e-07 -3.46118e-08) (-9.98945e-08 -1.47196e-07 -1.0468e-07) (-7.19254e-07 -2.3544e-07 -3.78879e-08));
    }
    outlet
    {
        type            calculated;
        value           nonuniform 0();
    }
    wall
    {
        type            calculated;
        value           nonuniform List<vector> 
57
(
(6.33e-08 -1.03872e-07 -3.46118e-08)
(-9.98945e-08 -1.47196e-07 -1.0468e-07)
(-7.19254e-07 -2.3544e-07 -3.78879e-08)
(6.83314e-08 -2.25457e-07 -6.8347e-08)
(1.32705e-07 -1.29431e-07 -7.36347e-08)
(-3.24589e-08 -3.06851e-08 -4.0491e-08)
(2.81908e-07 -1.19302e-07 -1.44797e-07)
(-2.08572e-08 -1.66315e-07 -9.1177e-08)
(-1.6032e-08 -8.06429e-08 -1.02114e-07)
(2.15535e-07 -1.11668e-07 -5.46766e-08)
(7.81388e-08 -1.03185e-07 -6.14251e-09)
(-1.85445e-08 -3.73925e-08 -1.80633e-08)
(1.30513e-07 -7.96741e-08 2.02941e-08)
(-5.82723e-08 3.18808e-10 2.31907e-08)
(-4.9535e-08 1.886e-08 -1.50597e-08)
(-5.33489e-08 5.60082e-08 3.52021e-08)
(-2.54543e-07 1.13495e-07 6.4101e-08)
(-1.34791e-07 5.62465e-08 2.30086e-08)
(-8.19928e-07 -2.87376e-07 -7.60134e-08)
(-9.11383e-07 -5.2821e-07 1.08684e-07)
(-2.33063e-07 9.7603e-08 5.85173e-08)
(-8.48025e-07 4.08241e-07 -2.66721e-08)
(-9.57169e-07 2.66923e-06 4.26383e-07)
(-3.1305e-07 1.82157e-07 4.66531e-08)
(-1.13634e-06 3.1143e-07 -2.30136e-07)
(-9.04156e-07 3.51194e-07 2.25191e-08)
(-4.97218e-07 -3.76396e-08 1.85911e-07)
(1.14206e-07 -6.83677e-08 2.3718e-08)
(-8.74164e-08 -4.08359e-08 2.48305e-08)
(-7.19254e-07 -2.3544e-07 -3.78879e-08)
(2.79387e-07 -4.35825e-07 -1.69712e-07)
(-5.53495e-07 -4.13918e-07 -1.5502e-08)
(-3.24589e-08 -3.06851e-08 -4.0491e-08)
(3.5675e-07 -8.15707e-08 -1.05452e-07)
(2.27547e-07 -1.11116e-07 -1.72537e-07)
(-1.6032e-08 -8.06429e-08 -1.02114e-07)
(5.75907e-07 -1.29653e-07 -5.20054e-08)
(1.75731e-07 -1.17666e-07 -5.28515e-08)
(-1.85445e-08 -3.73925e-08 -1.80633e-08)
(4.54026e-07 7.30597e-10 1.11973e-08)
(9.7201e-08 2.44362e-08 -4.46173e-09)
(-4.9535e-08 1.886e-08 -1.50597e-08)
(3.83584e-07 1.67932e-07 -1.88521e-08)
(-7.27004e-08 9.19248e-08 -6.87914e-09)
(-1.34791e-07 5.62465e-08 2.30086e-08)
(2.48089e-07 2.59598e-07 -8.91505e-08)
(1.6539e-08 2.70841e-07 1.86029e-08)
(-1.85424e-07 1.03534e-07 5.0795e-08)
(-2.33063e-07 9.7603e-08 5.85173e-08)
(1.51413e-07 2.03288e-07 2.50887e-08)
(-8.34087e-08 1.82609e-07 7.03253e-08)
(-2.28548e-07 1.62797e-07 1.01467e-07)
(-3.1305e-07 1.82157e-07 4.66531e-08)
(3.35888e-08 1.30509e-07 1.73396e-07)
(-2.15007e-07 1.69162e-07 7.8598e-08)
(-7.85216e-07 8.67227e-08 1.92599e-07)
(-4.97218e-07 -3.76396e-08 1.85911e-07)
)
;
    }
    procBoundary6to0
    {
        type            processor;
        value           uniform (7.682e-07 5.14644e-07 -4.08148e-07);
    }
    procBoundary6to2
    {
        type            processor;
        value           nonuniform List<vector> 
32
(
(1.01581e-06 5.90799e-07 -4.52677e-07)
(8.83089e-07 4.94866e-07 -1.9078e-07)
(4.27654e-07 5.65363e-07 1.28527e-07)
(5.61108e-07 2.10929e-07 -2.98628e-07)
(2.91092e-07 2.27218e-07 -2.79882e-08)
(5.45184e-08 4.38774e-07 1.69392e-07)
(4.10046e-07 -1.72222e-07 -9.99832e-08)
(1.42628e-06 -4.91258e-07 -2.5077e-07)
(2.50765e-06 -4.82484e-07 3.27327e-08)
(2.80024e-06 5.6279e-08 7.1218e-08)
(3.0553e-06 -5.03995e-08 -3.23424e-09)
(2.2478e-06 2.54693e-07 -1.73604e-07)
(1.88037e-06 6.84369e-07 -1.29931e-07)
(4.67513e-07 5.1176e-07 -2.36023e-07)
(4.67513e-07 5.1176e-07 -2.36023e-07)
(4.67513e-07 5.1176e-07 -2.36023e-07)
(3.30857e-07 -1.31105e-07 -8.47964e-08)
(1.39938e-06 -5.55572e-07 -2.69844e-07)
(1.59706e-06 -3.44851e-07 6.77257e-09)
(2.08778e-06 -1.27347e-07 9.20172e-08)
(2.22967e-06 9.28215e-08 -1.1867e-07)
(1.76264e-06 2.8263e-07 -1.45775e-07)
(9.2876e-07 6.32665e-07 -2.16993e-07)
(9.2876e-07 6.32665e-07 -2.16993e-07)
(9.2876e-07 6.32665e-07 -2.16993e-07)
(1.84853e-07 -1.83643e-07 5.76445e-08)
(5.15042e-07 -2.92802e-07 -5.7801e-08)
(9.11563e-07 -2.19051e-07 -9.51388e-08)
(8.30522e-07 -1.38033e-07 -7.21407e-08)
(1.18849e-06 5.95269e-08 3.89236e-08)
(5.12014e-07 9.77996e-08 -1.30406e-07)
(5.12014e-07 9.77996e-08 -1.30406e-07)
)
;
    }
    procBoundary6to4
    {
        type            processor;
        value           nonuniform List<vector> 
27
(
(2.86392e-07 -7.58169e-08 -7.39415e-08)
(7.32859e-07 -2.52295e-07 -1.45709e-07)
(1.32211e-06 -5.39846e-07 -2.21174e-07)
(1.47183e-06 -3.88798e-07 -4.56597e-07)
(1.73085e-06 -2.15931e-07 -1.17923e-07)
(1.40111e-06 -6.93467e-08 -2.06275e-07)
(4.78942e-07 2.43e-07 -4.79359e-07)
(-1.04662e-07 4.41817e-07 -2.49372e-07)
(-4.25303e-07 5.17817e-07 -2.84051e-07)
(6.80061e-08 -9.37009e-08 -7.81921e-08)
(2.71789e-07 -1.66438e-07 -1.40106e-07)
(7.50843e-07 -3.60904e-07 -3.10158e-07)
(8.80369e-07 -3.5031e-07 -1.96736e-07)
(8.74152e-07 -1.1105e-07 -7.03966e-08)
(3.3269e-07 -2.07035e-07 -7.58983e-08)
(-2.43861e-07 -1.57928e-07 -3.21175e-07)
(-6.34254e-07 4.03797e-07 -3.27191e-07)
(-1.2131e-06 5.81388e-07 -1.59127e-07)
(5.4053e-08 -5.21446e-08 -6.03463e-08)
(8.28855e-08 -1.73764e-08 -8.89189e-08)
(2.34801e-07 2.94353e-08 -1.30392e-07)
(2.90907e-07 -1.64912e-07 -7.91636e-08)
(3.29176e-07 -1.86008e-07 -3.82417e-08)
(1.18631e-07 -2.25446e-07 1.04843e-08)
(-3.36997e-07 -4.18559e-08 -3.65914e-08)
(-7.17537e-06 4.13635e-06 -7.1081e-08)
(-1.07204e-06 4.28226e-07 -1.20907e-07)
)
;
    }
    procBoundary6to7
    {
        type            processor;
        value           nonuniform List<vector> 
12
(
(-1.73241e-07 5.92977e-07 1.50578e-07)
(-3.46163e-07 3.37578e-07 1.35997e-07)
(-2.90223e-07 3.84456e-07 4.1995e-08)
(-5.49187e-07 3.31212e-07 1.45182e-07)
(-5.04421e-07 2.54963e-07 9.70137e-08)
(-2.76109e-07 3.13404e-07 2.33829e-08)
(-8.6014e-07 3.18437e-07 7.38785e-08)
(-7.48054e-07 2.23785e-07 8.37168e-09)
(-5.50671e-07 1.70314e-07 -2.51845e-08)
(-9.0453e-07 2.13634e-07 5.68094e-08)
(-7.16354e-07 2.61119e-07 -5.14882e-08)
(-4.11531e-07 1.52019e-07 -6.55045e-08)
)
;
    }
}


// ************************************************************************* //
