/*--------------------------------*- C++ -*----------------------------------*\
| =========                 |                                                 |
| \\      /  F ield         | OpenFOAM: The Open Source CFD Toolbox           |
|  \\    /   O peration     | Version:  4.x                                   |
|   \\  /    A nd           | Web:      www.OpenFOAM.org                      |
|    \\/     M anipulation  |                                                 |
\*---------------------------------------------------------------------------*/
FoamFile
{
    version     2.0;
    format      ascii;
    class       volScalarField;
    location    "48.5";
    object      magGField;
}
// * * * * * * * * * * * * * * * * * * * * * * * * * * * * * * * * * * * * * //

dimensions      [1 -2 -1 0 0 0 0];

internalField   nonuniform List<scalar> 
114
(
90.9965
8.8172
78.0237
3.02586e-05
55.0011
4.8333
0.770219
89.2946
1.47935
86.0788
5.66217
75.8893
25.7121
79.4457
3.69902e-05
77.9863
3.5609e-05
75.1539
3.4976e-05
64.5301
19.7994
45.4681
106.539
43.8976
110.423
40.0622
115.543
33.7761
126.922
37.2032
10.2213
92.5057
4.32185
93.4045
2.71924
93.1038
10.7863
89.1985
44.5098
3.62634e-05
87.2818
4.0066e-05
87.6258
2.30323
89.4868
9.84458
85.4582
23.8497
3.58123e-05
84.2884
41.984
101.143
39.3973
103.018
35.9805
104.926
28.112
105.717
20.2608
21.5053
94.5277
17.8033
96.7932
14.2135
99.0039
13.5251
102.489
27.0673
3.89159
88.5036
3.66476e-05
86.6091
3.53671e-05
82.2644
7.54744
75.0211
40.0838
5.93962
89.5257
3.47381
91.1745
66.4103
117.233
69.2194
125.148
69.4978
140.394
65.1503
174.875
56.4155
52.5841
108.847
53.5414
114.602
51.6176
122.541
44.4892
134.979
30.5557
44.3304
102.899
43.4405
106.812
42.9276
114.371
40.9519
133.598
38.8081
42.816
102.593
41.1614
105.568
37.9683
111.207
)
;

boundaryField
{
    inlet
    {
        type            calculated;
        value           nonuniform 0();
    }
    outlet
    {
        type            calculated;
        value           nonuniform List<scalar> 
12
(
10.6063
56.5315
43.6957
81.6919
98.2746
52.7358
44.6076
59.6765
89.4077
123.857
67.3285
86.094
)
;
    }
    wall
    {
        type            calculated;
        value           uniform 0;
    }
    procBoundary5to1
    {
        type            processor;
        value           nonuniform List<scalar> 
32
(
116.867
45.9117
121.95
38.3151
128.147
35.1359
28.2363
108.06
28.0563
113.459
29.9916
121.788
41.3025
91.3378
5.42546
91.8455
6.94819
91.7181
15.2566
87.6089
39.1407
37.4415
98.4619
25.478
25.478
25.478
5.61053
89.5494
89.5494
89.5494
3.23943e-05
3.23943e-05
)
;
    }
    procBoundary5to4
    {
        type            processor;
        value           nonuniform List<scalar> 
12
(
102.852
91.7319
87.6889
84.5846
100.087
93.0885
88.5436
88.4299
111.358
104.874
100.239
100.072
)
;
    }
    procBoundary5to7
    {
        type            processor;
        value           nonuniform List<scalar> 
44
(
88.3491
3.53014
88.1735
0.943074
85.9645
0.294454
75.0558
12.1649
4.2478
88.3491
3.68691e-05
83.8887
3.32679e-05
82.4537
3.02808e-05
73.9997
18.4268
3.52213e-05
3.68691e-05
81.7899
3.68691e-05
83.8887
6.36178
92.3719
13.7743
87.7607
43.0698
1.31114
86.5254
3.66707e-05
6.36178
85.9133
6.36178
92.3719
36.2312
125.632
35.656
36.5332
97.2719
33.0255
96.9163
29.2201
36.2312
96.785
)
;
    }
}


// ************************************************************************* //
