/*--------------------------------*- C++ -*----------------------------------*\
| =========                 |                                                 |
| \\      /  F ield         | OpenFOAM: The Open Source CFD Toolbox           |
|  \\    /   O peration     | Version:  4.x                                   |
|   \\  /    A nd           | Web:      www.OpenFOAM.org                      |
|    \\/     M anipulation  |                                                 |
\*---------------------------------------------------------------------------*/
FoamFile
{
    version     2.0;
    format      ascii;
    class       volScalarField;
    location    "48.5";
    object      particleRelTemp;
}
// * * * * * * * * * * * * * * * * * * * * * * * * * * * * * * * * * * * * * //

dimensions      [0 0 0 0 0 0 0];

internalField   nonuniform List<scalar> 
114
(
1.6992e-12
2.92276e-12
3.90746e-12
5.27726e-12
6.23779e-12
7.21743e-12
1.86846e-12
2.6988e-12
4.14224e-12
5.45162e-12
6.6722e-12
7.85509e-12
8.94783e-12
1.23957e-12
2.61476e-12
3.95546e-12
5.01603e-12
6.37989e-12
7.9745e-12
9.21247e-12
1.04389e-11
-9.24611e-13
-4.46158e-13
7.04143e-13
1.19628e-12
2.46801e-12
3.33679e-12
4.58002e-12
5.34619e-12
6.44815e-12
-4.8599e-13
3.36092e-13
1.49271e-12
2.42443e-12
3.72661e-12
4.99889e-12
5.99732e-12
7.27107e-12
8.16246e-12
2.29984e-13
1.57107e-12
2.27567e-12
3.69267e-12
5.01363e-12
6.14469e-12
7.65226e-12
9.064e-12
9.763e-12
4.16473e-13
2.04476e-12
-1.2823e-12
-7.34628e-13
-4.4001e-14
6.07467e-13
1.64757e-12
1.84438e-12
3.14837e-12
3.74842e-12
5.21023e-12
-6.92563e-13
-1.08971e-13
6.86037e-13
1.69128e-12
2.75152e-12
3.91714e-12
4.4868e-12
5.14391e-12
6.52689e-12
-1.07581e-13
6.11172e-13
1.63932e-12
2.60406e-12
3.99592e-12
5.14702e-12
6.28103e-12
7.35015e-12
8.13812e-12
-2.82575e-13
8.9101e-13
1.99226e-12
3.10395e-12
-1.79709e-12
-1.43784e-12
-1.14398e-12
-3.41061e-13
5.17654e-13
6.99132e-13
1.60206e-12
2.11538e-12
3.29793e-12
-1.30976e-12
-8.49662e-13
-1.71541e-13
6.92984e-13
1.53835e-12
2.35702e-12
3.31982e-12
3.84278e-12
4.93776e-12
-8.76526e-13
-1.88762e-13
7.37364e-13
1.76055e-12
2.9623e-12
4.10911e-12
4.76596e-12
5.54665e-12
6.26798e-12
-7.51681e-13
4.00009e-14
1.07762e-12
2.21841e-12
3.53061e-12
4.64499e-12
)
;

boundaryField
{
    inlet
    {
        type            calculated;
        value           nonuniform 0();
    }
    outlet
    {
        type            calculated;
        value           nonuniform List<scalar> 
12
(
7.21743e-12
8.94783e-12
1.04389e-11
6.44815e-12
8.16246e-12
9.763e-12
5.21023e-12
6.52689e-12
8.13812e-12
3.29793e-12
4.93776e-12
6.26798e-12
)
;
    }
    wall
    {
        type            calculated;
        value           nonuniform List<scalar> 
66
(
-1.79709e-12
-1.30976e-12
-8.76526e-13
-7.51681e-13
-1.43784e-12
-8.49662e-13
-1.88762e-13
4.00009e-14
-1.14398e-12
-1.71541e-13
7.37364e-13
1.07762e-12
-3.41061e-13
6.92984e-13
1.76055e-12
2.21841e-12
5.17654e-13
1.53835e-12
2.9623e-12
3.53061e-12
6.99132e-13
2.35702e-12
4.10911e-12
4.64499e-12
1.60206e-12
3.31982e-12
4.76596e-12
2.11538e-12
3.84278e-12
5.54665e-12
3.29793e-12
4.93776e-12
6.26798e-12
-9.24611e-13
-1.2823e-12
-1.79709e-12
-4.46158e-13
-7.34628e-13
-1.43784e-12
7.04143e-13
-4.4001e-14
-1.14398e-12
1.6992e-12
1.19628e-12
6.07467e-13
-3.41061e-13
2.92276e-12
2.46801e-12
1.64757e-12
5.17654e-13
3.90746e-12
3.33679e-12
1.84438e-12
6.99132e-13
5.27726e-12
4.58002e-12
3.14837e-12
1.60206e-12
6.23779e-12
5.34619e-12
3.74842e-12
2.11538e-12
7.21743e-12
6.44815e-12
5.21023e-12
3.29793e-12
)
;
    }
    procBoundary5to1
    {
        type            processor;
        value           nonuniform List<scalar> 
32
(
1.29165e-12
2.37492e-12
3.79129e-12
4.87746e-12
5.52564e-12
6.38469e-12
1.05666e-12
2.10603e-12
3.55292e-12
4.74234e-12
6.26701e-12
7.35646e-12
8.57253e-12
1.13371e-12
1.81036e-12
3.1954e-12
4.53577e-12
6.06612e-12
7.58978e-12
8.83119e-12
9.563e-12
-1.00339e-12
-2.10489e-13
6.68226e-13
6.68226e-13
6.68226e-13
-3.03081e-13
7.55512e-13
7.55512e-13
7.55512e-13
1.57225e-13
1.57225e-13
)
;
    }
    procBoundary5to4
    {
        type            processor;
        value           nonuniform List<scalar> 
12
(
-1.59991e-12
-1.13653e-12
-6.66542e-13
-4.41526e-13
-1.91895e-12
-1.48113e-12
-1.08386e-12
-8.36525e-13
-2.38561e-12
-1.95436e-12
-1.54176e-12
-1.43494e-12
)
;
    }
    procBoundary5to7
    {
        type            processor;
        value           nonuniform List<scalar> 
44
(
1.67979e-12
2.77901e-12
4.23551e-12
5.53301e-12
7.21495e-12
8.68348e-12
1.01071e-11
1.08384e-11
5.8835e-13
1.67979e-12
2.93097e-12
4.07024e-12
5.38602e-12
6.85894e-12
8.26246e-12
9.6825e-12
1.04291e-11
5.51802e-13
2.93097e-12
1.43397e-12
2.93097e-12
4.07024e-12
4.82908e-12
5.73066e-12
7.04644e-12
7.95745e-12
9.37083e-12
-2.93986e-13
1.01543e-12
1.84392e-12
4.82908e-12
3.10243e-12
4.82908e-12
5.73066e-12
5.67091e-12
6.61026e-12
7.16909e-12
-9.27516e-13
-3.88219e-14
1.05266e-12
2.08241e-12
3.22845e-12
5.67091e-12
4.32002e-12
)
;
    }
}


// ************************************************************************* //
