/*--------------------------------*- C++ -*----------------------------------*\
| =========                 |                                                 |
| \\      /  F ield         | OpenFOAM: The Open Source CFD Toolbox           |
|  \\    /   O peration     | Version:  4.x                                   |
|   \\  /    A nd           | Web:      www.OpenFOAM.org                      |
|    \\/     M anipulation  |                                                 |
\*---------------------------------------------------------------------------*/
FoamFile
{
    version     2.0;
    format      ascii;
    class       volScalarField;
    location    "48.5";
    object      QWallFluid;
}
// * * * * * * * * * * * * * * * * * * * * * * * * * * * * * * * * * * * * * //

dimensions      [1 -1 -3 0 0 0 0];

internalField   nonuniform List<scalar> 
114
(
7.90749e+08
1.22203e+08
6.99197e+08
5193.95
5.28586e+08
7.55464e+07
0
0
0
0
0
0
0
0
0
0
0
0
0
0
0
4.53925e+08
8.97065e+08
4.41338e+08
9.23137e+08
4.1021e+08
9.57222e+08
3.57854e+08
1.03193e+09
3.86619e+08
0
0
0
0
0
0
0
0
0
0
0
0
0
0
0
0
0
0
0
0
4.25878e+08
8.60533e+08
4.04754e+08
8.7327e+08
3.76419e+08
8.86189e+08
3.08981e+08
8.91527e+08
2.37763e+08
0
0
0
0
0
0
0
0
0
0
0
0
0
0
0
0
0
0
0
0
0
0
1.22924e+09
1.93681e+09
1.27066e+09
2.04075e+09
1.27475e+09
2.23731e+09
1.21055e+09
2.66705e+09
1.07887e+09
5.0992e+08
9.12581e+08
5.17334e+08
9.50982e+08
5.02409e+08
1.00333e+09
4.4609e+08
1.084e+09
3.30288e+08
4.44815e+08
8.72463e+08
4.37658e+08
8.98906e+08
4.33519e+08
9.49451e+08
4.17482e+08
1.07512e+09
3.99905e+08
4.32617e+08
8.70388e+08
4.1919e+08
8.90519e+08
3.92967e+08
9.28377e+08
)
;

boundaryField
{
    inlet
    {
        type            calculated;
        value           nonuniform 0();
    }
    outlet
    {
        type            calculated;
        value           uniform 0;
    }
    wall
    {
        type            calculated;
        value           uniform 0;
    }
    procBoundary5to1
    {
        type            processor;
        value           nonuniform List<scalar> 
32
(
9.6599e+08
4.57465e+08
9.99456e+08
3.95836e+08
1.03988e+09
3.69334e+08
0
0
0
0
0
0
0
0
0
0
0
0
0
0
0
3.88599e+08
8.42235e+08
2.85595e+08
2.85595e+08
2.85595e+08
0
0
0
0
0
0
)
;
    }
    procBoundary5to4
    {
        type            processor;
        value           nonuniform List<scalar> 
12
(
8.72147e+08
0
0
0
8.53339e+08
0
0
0
1.85877e+09
8.85833e+08
8.54372e+08
8.53233e+08
)
;
    }
    procBoundary5to7
    {
        type            processor;
        value           nonuniform List<scalar> 
44
(
0
0
0
0
0
0
0
0
0
0
0
0
0
0
0
0
0
0
0
0
0
0
0
0
0
0
0
0
0
0
0
0
0
0
3.78517e+08
1.02353e+09
3.73702e+08
3.81039e+08
8.34082e+08
3.51478e+08
8.31641e+08
3.18686e+08
3.78517e+08
8.3074e+08
)
;
    }
}


// ************************************************************************* //
