/*--------------------------------*- C++ -*----------------------------------*\
| =========                 |                                                 |
| \\      /  F ield         | OpenFOAM: The Open Source CFD Toolbox           |
|  \\    /   O peration     | Version:  4.x                                   |
|   \\  /    A nd           | Web:      www.OpenFOAM.org                      |
|    \\/     M anipulation  |                                                 |
\*---------------------------------------------------------------------------*/
FoamFile
{
    version     2.0;
    format      ascii;
    class       volVectorField;
    location    "48.5";
    object      Us;
}
// * * * * * * * * * * * * * * * * * * * * * * * * * * * * * * * * * * * * * //

dimensions      [0 1 -1 0 0 0 0];

internalField   nonuniform List<vector> 
114
(
(1.38494e-09 -2.39271e-10 1.33651e-09)
(1.07573e-09 -1.81924e-10 2.54366e-10)
(1.09359e-09 -1.39647e-10 -3.20053e-10)
(5.75362e-10 -3.86132e-12 -5.22211e-10)
(6.65419e-10 -1.48459e-10 -6.4149e-10)
(1.88201e-09 -2.0536e-10 -7.16031e-10)
(2.67948e-09 8.16652e-10 4.93638e-09)
(2.39479e-09 -1.40913e-10 2.12621e-09)
(2.00099e-09 -3.74566e-10 4.13052e-10)
(1.56724e-09 -5.94265e-11 -4.21434e-10)
(1.231e-09 1.69819e-10 -1.0892e-09)
(8.53782e-10 5.47674e-11 -1.25628e-09)
(4.71644e-10 -4.3416e-11 -9.75741e-10)
(1.91159e-09 4.33308e-10 3.1314e-09)
(2.58716e-09 8.30051e-10 2.86081e-09)
(2.82227e-09 2.39628e-10 1.46955e-09)
(2.3077e-09 -4.34451e-11 3.96787e-10)
(1.89912e-09 -3.23383e-11 -3.38297e-10)
(1.42453e-09 1.53342e-10 -8.76182e-10)
(1.17137e-09 6.39161e-11 -1.3541e-09)
(5.83085e-10 7.71571e-11 -6.04849e-10)
(-6.14479e-12 2.98035e-10 5.57701e-10)
(7.32354e-10 3.18012e-10 7.94985e-10)
(9.53127e-10 -1.64098e-11 1.10603e-09)
(1.01377e-09 -1.60282e-10 5.22435e-10)
(1.00865e-09 -3.29321e-11 3.61639e-10)
(7.77727e-10 -2.90117e-11 -1.90976e-10)
(6.27762e-10 6.69442e-11 -5.40966e-10)
(6.60792e-10 1.55471e-11 -8.03188e-10)
(7.21478e-11 1.30301e-10 -2.15118e-09)
(1.00737e-09 5.09074e-10 1.04515e-09)
(2.38237e-09 7.14996e-10 1.09521e-09)
(2.19324e-09 2.46682e-10 2.27556e-09)
(1.92565e-09 -7.47061e-11 1.04507e-09)
(1.78476e-09 -3.4967e-11 3.70898e-10)
(1.50803e-09 1.76975e-10 -2.36285e-10)
(1.40961e-09 1.86912e-10 -8.23174e-10)
(9.81505e-10 2.10263e-10 -1.16106e-09)
(1.04611e-09 1.7539e-10 -1.57774e-09)
(1.12077e-09 4.98012e-10 1.57148e-09)
(2.17867e-09 1.6835e-10 1.8486e-09)
(2.34545e-09 4.14225e-10 2.05089e-09)
(2.43737e-09 3.40958e-10 1.03416e-09)
(2.08772e-09 1.12549e-10 1.10623e-10)
(1.53783e-09 2.17306e-10 -2.74826e-10)
(1.20799e-09 3.76583e-10 -7.83446e-10)
(6.12407e-10 5.1899e-10 -1.06248e-09)
(8.47606e-11 3.23444e-10 -6.78521e-10)
(1.81033e-09 4.57375e-10 1.03548e-09)
(2.11777e-09 1.47919e-10 1.26438e-09)
(3.34239e-10 1.31314e-11 3.0912e-10)
(4.7686e-10 1.97847e-11 4.80528e-10)
(6.16956e-10 -1.68613e-10 6.75884e-10)
(8.43095e-10 -1.31829e-10 2.12807e-10)
(1.01888e-09 -5.12058e-11 1.48956e-10)
(5.53403e-10 -4.25404e-11 -1.51522e-10)
(1.32687e-10 8.7726e-11 -4.57027e-10)
(-3.02962e-10 4.9265e-10 -1.0697e-09)
(2.1337e-09 7.0912e-11 -5.03925e-09)
(6.73226e-10 -6.47532e-11 6.14535e-10)
(9.11727e-10 -1.63993e-10 8.44286e-10)
(1.12673e-09 -3.97925e-11 1.57518e-09)
(9.60012e-10 -5.86727e-10 8.06827e-10)
(1.65046e-09 7.03158e-12 2.43491e-10)
(1.26151e-09 1.50553e-10 -2.55488e-10)
(4.84544e-10 4.68492e-10 -8.11078e-10)
(4.10571e-10 1.20909e-09 -1.15844e-09)
(2.28916e-10 1.65785e-09 -2.23221e-09)
(1.00714e-09 7.1382e-10 1.03215e-09)
(1.19489e-09 1.41217e-10 8.85654e-10)
(1.59731e-09 5.64182e-10 1.29508e-09)
(1.97839e-09 1.51473e-11 6.90969e-10)
(1.55242e-09 5.81495e-11 7.46963e-11)
(1.00732e-09 2.9983e-10 -1.10829e-10)
(3.98102e-10 5.5078e-10 -5.70506e-10)
(1.95197e-11 8.90209e-10 -8.68645e-10)
(-1.02797e-10 1.07972e-09 -1.10065e-09)
(1.76388e-09 5.07249e-10 3.69155e-10)
(1.88118e-09 3.93881e-10 6.22499e-10)
(1.94735e-09 2.33319e-10 5.28334e-10)
(1.57813e-09 2.8904e-10 3.14389e-10)
(1.29371e-10 1.27282e-11 4.74181e-11)
(1.0727e-10 -1.851e-11 2.72758e-10)
(6.77176e-11 4.64181e-10 5.44912e-12)
(5.7181e-10 -1.15988e-10 9.00668e-11)
(6.81491e-10 -3.66289e-11 2.35054e-11)
(1.44374e-10 -1.87313e-11 -9.0563e-11)
(-5.69396e-10 2.32256e-10 -1.94039e-10)
(-7.6298e-10 1.58625e-09 -1.72271e-09)
(1.35824e-09 4.33071e-09 -4.87513e-09)
(3.16675e-10 -2.04772e-11 8.63008e-11)
(2.93003e-10 1.97246e-11 3.42434e-10)
(1.4558e-09 -4.80777e-10 5.15151e-10)
(-6.49213e-10 -7.21753e-10 1.07789e-10)
(7.30598e-10 -2.46689e-10 -4.7798e-11)
(7.89465e-10 8.58613e-11 -6.43834e-11)
(3.80101e-10 5.08279e-10 -5.87091e-10)
(-1.51072e-10 2.70456e-09 -8.38148e-10)
(1.26202e-09 6.23546e-09 -1.18736e-09)
(4.41652e-10 3.15427e-10 6.84514e-11)
(5.62781e-10 1.30643e-10 1.56137e-10)
(4.76357e-10 4.2202e-10 2.07929e-10)
(7.25559e-10 -1.17405e-10 1.63157e-10)
(7.73626e-10 1.02771e-10 8.81022e-12)
(6.61396e-10 2.42757e-10 3.30475e-11)
(2.74222e-10 4.55995e-10 -1.97719e-10)
(-1.42158e-10 8.41596e-10 -3.74953e-10)
(2.36576e-11 1.52016e-09 -5.95266e-10)
(1.18054e-09 2.70664e-10 8.84409e-11)
(1.25721e-09 2.34062e-10 1.48747e-10)
(1.23589e-09 -4.52598e-10 7.5359e-11)
(1.00586e-09 1.76895e-11 1.08813e-10)
(9.23404e-10 2.5567e-10 1.4738e-11)
(5.64225e-10 2.46331e-10 1.17423e-11)
)
;

boundaryField
{
    inlet
    {
        type            zeroGradient;
    }
    outlet
    {
        type            zeroGradient;
    }
    wall
    {
        type            zeroGradient;
    }
    procBoundary5to1
    {
        type            processor;
        value           nonuniform List<vector> 
32
(
(1.5792e-09 -3.46399e-10 1.33402e-09)
(1.06555e-09 -1.21836e-10 4.50857e-10)
(7.19156e-10 -1.97084e-10 -4.89713e-10)
(6.06189e-10 -9.35448e-12 -7.05767e-10)
(-3.30996e-10 -2.13861e-10 -1.04518e-09)
(3.96783e-10 -3.95433e-10 -2.71914e-09)
(1.99727e-09 4.10813e-10 8.01651e-09)
(1.03307e-09 -8.47811e-10 2.40131e-09)
(1.3372e-09 -4.80506e-10 3.31926e-10)
(1.18132e-09 6.22332e-11 -7.73953e-10)
(1.30204e-09 -1.21163e-10 -1.52679e-09)
(1.02572e-09 -6.69153e-10 -2.1144e-09)
(3.60011e-10 -7.28443e-10 -1.34049e-09)
(1.8068e-09 1.01603e-09 4.72389e-09)
(2.36038e-09 1.18549e-09 5.38985e-09)
(2.13771e-09 -1.9153e-10 2.04449e-09)
(1.89543e-09 -5.92685e-10 1.96026e-10)
(1.9864e-09 -4.07502e-10 -7.41788e-10)
(2.03242e-09 -2.26008e-10 -1.59644e-09)
(1.70632e-09 -1.59229e-10 -1.58667e-09)
(1.21475e-09 -9.77084e-10 -9.77721e-10)
(-3.20475e-10 2.17828e-10 2.23821e-09)
(6.52519e-10 8.80025e-10 8.16433e-10)
(7.38686e-10 5.63699e-10 1.80418e-09)
(7.38686e-10 5.63699e-10 1.80418e-09)
(7.38686e-10 5.63699e-10 1.80418e-09)
(-4.08456e-10 6.11338e-10 2.51477e-09)
(1.13673e-09 9.69542e-10 4.05584e-09)
(1.13673e-09 9.69542e-10 4.05584e-09)
(1.13673e-09 9.69542e-10 4.05584e-09)
(7.84537e-10 5.35908e-10 2.14833e-09)
(7.84537e-10 5.35908e-10 2.14833e-09)
)
;
    }
    procBoundary5to4
    {
        type            processor;
        value           nonuniform List<vector> 
12
(
(-2.37241e-10 -1.0584e-12 9.23063e-10)
(2.03426e-11 2.05308e-10 1.3082e-09)
(1.34108e-09 5.08684e-11 9.57666e-10)
(1.8835e-09 3.30552e-10 7.87615e-10)
(2.19163e-10 -4.56724e-11 3.22549e-10)
(3.99814e-10 -1.23702e-10 6.36981e-10)
(5.1313e-10 2.22091e-10 6.52185e-10)
(1.57946e-09 3.5768e-11 6.55999e-10)
(1.04625e-10 -2.27423e-11 8.88496e-11)
(1.13714e-10 -1.02918e-10 2.22491e-10)
(2.14175e-10 -1.43741e-11 2.13627e-10)
(9.01809e-10 1.24123e-10 1.67914e-10)
)
;
    }
    procBoundary5to7
    {
        type            processor;
        value           nonuniform List<vector> 
44
(
(2.35968e-09 1.78381e-10 1.58992e-09)
(2.56267e-09 4.91121e-10 1.96538e-09)
(2.53803e-09 6.4758e-11 6.62237e-10)
(2.3378e-09 -1.90365e-11 7.85104e-11)
(2.01949e-09 1.46279e-11 -8.45199e-10)
(1.38599e-09 1.55704e-10 -1.12291e-09)
(1.1431e-09 2.82965e-10 -1.27894e-09)
(5.2839e-10 4.40116e-11 -3.65943e-10)
(2.07874e-09 2.24841e-10 1.58721e-09)
(2.35968e-09 1.78381e-10 1.58992e-09)
(2.34913e-09 3.3594e-11 1.10471e-09)
(2.23637e-09 1.97352e-10 6.5367e-10)
(1.85118e-09 1.1126e-10 1.0455e-10)
(1.61832e-09 4.60579e-10 -3.5892e-10)
(1.02864e-09 5.53461e-10 -6.89509e-10)
(7.57086e-10 5.95118e-10 -8.59252e-10)
(2.95798e-10 4.08501e-10 -1.19361e-10)
(1.91798e-09 1.10486e-10 5.9523e-10)
(2.34913e-09 3.3594e-11 1.10471e-09)
(2.10198e-09 1.10414e-10 7.47113e-10)
(2.34913e-09 3.3594e-11 1.10471e-09)
(2.23637e-09 1.97352e-10 6.5367e-10)
(1.40783e-09 3.56102e-10 1.36135e-10)
(1.02243e-09 4.34352e-10 -1.61973e-10)
(4.47325e-10 5.10066e-10 -4.20801e-10)
(3.21902e-10 6.10286e-10 -1.9982e-10)
(2.05276e-10 5.19083e-10 5.14151e-11)
(1.67416e-09 2.8943e-10 4.32796e-10)
(1.91266e-09 3.77157e-10 4.11537e-10)
(1.78558e-09 2.061e-10 3.63072e-10)
(1.40783e-09 3.56102e-10 1.36135e-10)
(1.55665e-09 4.57868e-10 1.77235e-10)
(1.40783e-09 3.56102e-10 1.36135e-10)
(1.02243e-09 4.34352e-10 -1.61973e-10)
(3.3782e-10 3.43911e-10 -7.84877e-11)
(1.79937e-10 7.07646e-10 -3.23248e-11)
(4.8759e-11 1.56907e-09 3.97302e-10)
(7.37048e-10 2.0909e-10 1.67655e-10)
(8.80685e-10 3.4769e-10 7.94781e-11)
(8.60567e-10 1.85814e-10 3.72897e-11)
(8.03622e-10 2.91689e-10 2.72628e-11)
(7.11852e-10 4.03603e-10 7.08943e-11)
(3.3782e-10 3.43911e-10 -7.84877e-11)
(6.47647e-10 4.71802e-10 -1.26561e-10)
)
;
    }
}


// ************************************************************************* //
