/*--------------------------------*- C++ -*----------------------------------*\
| =========                 |                                                 |
| \\      /  F ield         | OpenFOAM: The Open Source CFD Toolbox           |
|  \\    /   O peration     | Version:  4.x                                   |
|   \\  /    A nd           | Web:      www.OpenFOAM.org                      |
|    \\/     M anipulation  |                                                 |
\*---------------------------------------------------------------------------*/
FoamFile
{
    version     2.0;
    format      ascii;
    class       volVectorField;
    location    "23";
    object      DDtUrel;
}
// * * * * * * * * * * * * * * * * * * * * * * * * * * * * * * * * * * * * * //

dimensions      [0 1 -2 0 0 0 0];

internalField   nonuniform List<vector> 
87
(
(0.00029145 4.49482e-05 5.65883e-05)
(0.000198933 2.93347e-05 5.12339e-05)
(0.000171337 1.9656e-05 5.18768e-05)
(-4.23778e-07 -9.58221e-06 3.75797e-05)
(-5.54712e-05 -3.77205e-05 8.21594e-06)
(-0.000474512 -0.000111957 -0.000113239)
(-0.000733234 -0.000190724 -0.000329907)
(-0.00216129 -0.000431716 -0.000971167)
(-0.00381533 -0.00052546 -0.00136013)
(0.000254234 2.84346e-05 5.98346e-05)
(0.000162617 9.45064e-06 5.82686e-05)
(0.000126066 -1.04394e-06 6.01033e-05)
(-5.53379e-05 -4.46023e-05 3.96866e-05)
(-0.000118105 -5.5374e-05 1.06119e-05)
(-0.000520712 -0.000162317 -0.000129267)
(-0.000744366 -0.000168895 -0.000301199)
(-0.00201776 -0.000560329 -0.000749287)
(-0.00342555 -0.000902166 -0.00112029)
(0.000176579 2.47026e-05 5.46269e-05)
(8.00486e-05 1.77482e-05 5.61961e-05)
(9.02302e-06 1.24749e-05 6.11251e-05)
(-0.000159422 -1.28624e-05 3.05549e-05)
(-0.000314366 -1.80243e-05 -1.09594e-05)
(-0.000601042 -6.03671e-05 -0.000149145)
(-0.000986186 -8.92951e-05 -0.000350988)
(-0.00165971 -0.000230041 -0.000695358)
(-0.00246513 -0.000431683 -0.000998903)
(0.000211987 3.60981e-05 4.62048e-05)
(0.000134934 2.3669e-05 3.50854e-05)
(0.000119906 1.52906e-05 4.37382e-05)
(-2.84237e-05 -1.57385e-05 1.73503e-05)
(-7.07876e-05 -4.05011e-05 9.58574e-06)
(-0.000435178 -0.000133983 -0.000121599)
(-0.000661423 -0.000220609 -0.000261426)
(-0.00188813 -0.000502933 -0.000891176)
(-0.00331788 -0.000639087 -0.00139037)
(0.000174336 2.15322e-05 5.32886e-05)
(0.000101451 9.86633e-06 4.43708e-05)
(7.94448e-05 4.0524e-06 5.28949e-05)
(-6.78505e-05 -3.18459e-05 1.66536e-05)
(-0.000130803 -4.42031e-05 7.38202e-07)
(-0.000470999 -0.000143805 -0.000148746)
(-0.000731149 -0.000194631 -0.000280501)
(-0.00176548 -0.000588671 -0.000814244)
(-0.00288685 -0.000900691 -0.00129082)
(0.000112951 1.70414e-05 5.51091e-05)
(4.6103e-05 1.22683e-05 4.54134e-05)
(-4.40006e-06 1.05587e-05 4.52994e-05)
(-0.000127367 -6.43174e-06 1.33231e-05)
(-0.000256644 -1.4851e-05 -2.95947e-05)
(-0.000515071 -5.79202e-05 -0.000158007)
(-0.000868079 -9.79979e-05 -0.000333326)
(-0.00146553 -0.000283364 -0.000716289)
(-0.00216459 -0.000458027 -0.00108422)
(0.000119241 2.65294e-05 3.74893e-05)
(5.56016e-05 1.31986e-05 3.12338e-05)
(3.23811e-05 3.00686e-06 3.39215e-05)
(-7.74846e-05 -3.54641e-05 1.13392e-05)
(-0.000149114 -6.59596e-05 -2.43315e-06)
(-0.000419982 -0.000163708 -9.04588e-05)
(-0.000700897 -0.000257436 -0.000174927)
(-0.00156143 -0.00051447 -0.000468484)
(-0.00261125 -0.000700598 -0.000761222)
(9.14314e-05 2.05329e-05 4.29792e-05)
(3.91631e-05 5.42221e-06 3.59826e-05)
(7.94275e-06 -7.25871e-06 3.81981e-05)
(-9.44115e-05 -3.70603e-05 6.22939e-06)
(-0.000193401 -6.66814e-05 -2.00786e-05)
(-0.000437158 -0.000156678 -0.000129301)
(-0.000763068 -0.000229929 -0.000240183)
(-0.001408 -0.000554355 -0.000613543)
(-0.00215154 -0.00082039 -0.00091698)
(5.39927e-05 1.3739e-05 4.00738e-05)
(1.44072e-05 6.34655e-06 3.18041e-05)
(-3.5968e-05 -5.87615e-07 2.79466e-05)
(-0.000122209 -1.48016e-05 -4.46989e-07)
(-0.000247615 -3.46889e-05 -4.12939e-05)
(-0.000453196 -7.32785e-05 -0.000135337)
(-0.000775226 -0.000125829 -0.000276616)
(-0.00120647 -0.000273284 -0.000557363)
(-0.00174052 -0.00040929 -0.000796504)
(8.87628e-05 1.69283e-05 3.20035e-05)
(3.2394e-05 4.54177e-06 2.61114e-05)
(1.34518e-05 -8.50852e-06 2.96822e-05)
(5.93426e-05 9.88356e-06 3.27872e-05)
(1.56767e-05 -2.21946e-06 2.62187e-05)
(2.88093e-05 7.65149e-06 2.8038e-05)
)
;

boundaryField
{
    inlet
    {
        type            calculated;
        value           nonuniform 0();
    }
    outlet
    {
        type            calculated;
        value           nonuniform List<vector> 9((-0.0118917 0.0006726 -0.00326211) (-0.0113847 -0.00460912 -0.00143704) (-0.00242585 -0.00140906 -0.000498196) (-0.00991071 -0.0004397 -0.005333) (-0.00801425 -0.00430979 -0.00482956) (-0.00275344 -0.00197591 -0.0020828) (-0.0063706 -0.000586994 -0.00107184) (-0.00329853 -0.00296727 -0.0031535) (-0.00170949 -0.000883318 -0.00103462));
    }
    wall
    {
        type            calculated;
        value           nonuniform List<vector> 
57
(
(0.000889336 0.000172343 0.000103251)
(0.000874809 7.42354e-05 0.000132058)
(0.00033298 0.00010508 6.87408e-05)
(0.000295855 8.83843e-05 5.97423e-05)
(0.000313047 -0.00010558 0.000117707)
(-0.000198 2.67436e-05 9.22037e-05)
(0.000934632 0.000159724 0.000100022)
(0.000957972 -1.43717e-05 0.000176323)
(-7.87163e-05 7.6386e-05 0.000237691)
(-0.00012476 0.000112897 0.000141809)
(-0.000250746 -0.000394443 0.000172654)
(-0.000692589 -0.000130262 0.00010613)
(0.00136273 0.000174014 0.000295118)
(0.00143138 5.35236e-05 0.00047333)
(-0.000845226 4.36921e-05 0.000298271)
(-0.000973095 0.000124414 0.000269867)
(-0.0011476 -0.00101075 4.6114e-05)
(-0.000866915 -0.00015623 0.000126531)
(0.00287066 0.000359061 0.000748417)
(0.00332295 0.000980047 0.000770939)
(-0.00164231 0.000109702 1.79577e-05)
(-0.00270634 -0.000296307 -0.00271354)
(-0.00301233 -0.00203904 -0.000286108)
(-0.000777014 5.13027e-06 0.0001122)
(-0.0118917 0.0006726 -0.00326211)
(-0.0113847 -0.00460912 -0.00143704)
(-0.00242585 -0.00140906 -0.000498196)
(0.000889336 0.000172343 0.000103251)
(0.000592061 0.000127691 7.28884e-05)
(0.000178321 9.25683e-05 5.0553e-05)
(0.00033242 9.1409e-05 6.73817e-05)
(0.000295855 8.83843e-05 5.97423e-05)
(8.34954e-05 6.74784e-05 -9.5055e-05)
(-0.000196763 2.12168e-05 -8.35337e-06)
(-8.28799e-05 4.83645e-05 -1.99802e-05)
(0.000934632 0.000159724 0.000100022)
(0.000786458 0.000147272 0.000134351)
(0.000178075 0.000123571 8.56406e-05)
(0.000308113 0.000142894 6.39927e-05)
(-0.00012476 0.000112897 0.000141809)
(-0.00018649 5.46328e-05 -8.44731e-05)
(-0.000263664 -5.2369e-05 -3.57378e-05)
(0.00136273 0.000174014 0.000295118)
(0.00134962 0.000262756 0.000477579)
(0.000415214 0.00016656 0.000190533)
(-0.000973095 0.000124414 0.000269867)
(-0.00069856 -0.00010292 -0.000131389)
(-0.000338256 -0.000143472 -0.000112503)
(0.00287066 0.000359061 0.000748417)
(0.00313455 0.000355594 0.00132941)
(0.00116111 0.000280063 0.000492641)
(-0.00270634 -0.000296307 -0.00271354)
(-0.00176985 -0.000896033 -0.00259969)
(-0.00103678 -0.000346899 0.000162125)
(-0.0118917 0.0006726 -0.00326211)
(-0.00991071 -0.0004397 -0.005333)
(-0.0063706 -0.000586994 -0.00107184)
)
;
    }
    procBoundary1to0
    {
        type            processor;
        value           nonuniform List<vector> 
12
(
(0.000309832 4.51894e-05 5.4316e-05)
(0.000268097 2.76893e-05 5.33098e-05)
(0.000202462 1.54801e-05 4.74391e-05)
(0.00021989 3.47099e-05 4.08292e-05)
(0.000181715 1.95516e-05 4.27116e-05)
(0.000132526 1.21562e-05 4.16106e-05)
(0.000132042 2.52101e-05 3.15017e-05)
(0.000104851 1.49527e-05 3.2873e-05)
(7.85517e-05 9.87874e-06 3.32264e-05)
(9.37014e-05 1.43098e-05 2.82012e-05)
(6.67204e-05 8.05344e-06 2.57641e-05)
(4.33808e-05 5.32191e-06 2.5052e-05)
)
;
    }
    procBoundary1to3
    {
        type            processor;
        value           nonuniform List<vector> 
27
(
(0.000186575 1.92664e-05 5.03329e-05)
(9.53575e-05 2.67925e-05 4.95806e-05)
(3.72693e-05 2.83036e-05 5.78843e-05)
(-0.000135706 2.94483e-05 2.55846e-05)
(-0.000255698 3.53913e-05 -1.24452e-05)
(-0.000576469 5.60593e-05 -0.000182745)
(-0.000825923 5.2248e-05 -0.000387951)
(-0.0016444 0.000141092 -0.000927533)
(-0.00267013 0.000170828 -0.00127643)
(0.000110085 1.32984e-05 4.95016e-05)
(4.36372e-05 1.54176e-05 4.15353e-05)
(-4.84208e-06 1.65201e-05 4.31801e-05)
(-0.000127635 1.93796e-05 6.24704e-06)
(-0.000244794 2.26526e-05 -3.75676e-05)
(-0.000499492 4.21727e-05 -0.00018705)
(-0.000800743 5.46873e-05 -0.000378883)
(-0.00139626 0.000166274 -0.000923848)
(-0.00211277 0.000220185 -0.00131428)
(5.09304e-05 7.2287e-06 3.89026e-05)
(9.54866e-06 8.31365e-06 2.89772e-05)
(-4.08051e-05 1.05889e-05 2.42809e-05)
(-0.000124618 1.04054e-05 -6.64979e-06)
(-0.000242977 1.54555e-05 -5.16161e-05)
(-0.000441472 1.715e-05 -0.000154653)
(-0.000736732 2.30885e-05 -0.000311065)
(-0.00115482 6.65981e-05 -0.000634281)
(-0.00169196 0.000117408 -0.000927539)
)
;
    }
    procBoundary1to5
    {
        type            processor;
        value           nonuniform List<vector> 
32
(
(-8.89568e-05 -5.6762e-05 1.6495e-05)
(-0.000156573 -9.54703e-05 1.87419e-05)
(-0.000403556 -0.000211187 -1.70672e-05)
(-0.000672793 -0.000324576 -2.01628e-05)
(-0.00135929 -0.000616244 -0.000107584)
(-0.0022477 -0.000876461 -0.000184494)
(-1.34993e-05 -1.3985e-05 2.88007e-05)
(-9.85835e-05 -5.07711e-05 7.06588e-06)
(-0.000199001 -8.48729e-05 -7.54111e-06)
(-0.000405843 -0.000185157 -6.29183e-05)
(-0.000717877 -0.000283754 -0.000112088)
(-0.00119223 -0.000583787 -0.000267635)
(-0.00177956 -0.000851634 -0.000410319)
(-5.22544e-06 7.33184e-07 2.27681e-05)
(-4.62781e-05 -7.01827e-06 2.04355e-05)
(-0.000118193 -2.48652e-05 2.39963e-07)
(-0.000233906 -4.88763e-05 -2.50349e-05)
(-0.000405746 -9.90191e-05 -8.45749e-05)
(-0.000691493 -0.000165676 -0.000169823)
(-0.00103598 -0.000321359 -0.000310112)
(-0.00152945 -0.000465505 -0.000432613)
(6.21829e-05 6.1465e-06 2.45343e-05)
(2.403e-05 -1.10072e-05 2.5992e-05)
(-8.89568e-05 -5.6762e-05 1.6495e-05)
(-1.34993e-05 -1.3985e-05 2.88007e-05)
(1.40824e-05 -2.71373e-05 3.29249e-05)
(3.43832e-05 4.74309e-06 2.13572e-05)
(-1.34993e-05 -1.3985e-05 2.88007e-05)
(-5.22544e-06 7.33184e-07 2.27681e-05)
(1.02816e-05 -1.00927e-05 2.06748e-05)
(-5.22544e-06 7.33184e-07 2.27681e-05)
(1.50138e-05 1.05268e-06 1.70654e-05)
)
;
    }
    procBoundary1to7
    {
        type            processor;
        value           uniform (1.99108e-05 3.70667e-06 2.53641e-05);
    }
}


// ************************************************************************* //
