/*--------------------------------*- C++ -*----------------------------------*\
| =========                 |                                                 |
| \\      /  F ield         | OpenFOAM: The Open Source CFD Toolbox           |
|  \\    /   O peration     | Version:  4.x                                   |
|   \\  /    A nd           | Web:      www.OpenFOAM.org                      |
|    \\/     M anipulation  |                                                 |
\*---------------------------------------------------------------------------*/
FoamFile
{
    version     2.0;
    format      ascii;
    class       volScalarField;
    location    "23";
    object      p;
}
// * * * * * * * * * * * * * * * * * * * * * * * * * * * * * * * * * * * * * //

dimensions      [1 -1 -2 0 0 0 0];

internalField   nonuniform List<scalar> 
87
(
5655.4
5705.52
5636.28
5699.11
5616.32
5694.42
5594.08
5693.03
5565.88
5655.16
5705.47
5636.18
5698.7
5615.71
5693.82
5592.91
5692.26
5563.74
5655.59
5705.92
5637.09
5699.44
5618.04
5693.64
5599.66
5688.3
5584.26
3777.41
3827.92
3758.36
3821.43
3738.06
3816.31
3715.57
3813.82
3687.76
3776.94
3827.73
3757.94
3820.95
3737.52
3815.26
3715.57
3812.16
3691.05
3777.48
3828.43
3758.83
3821.51
3739.87
3815.17
3721.22
3809.62
3704.71
1900.44
1950.3
1882.11
1943.5
1862.99
1937.46
1843.41
1932.64
1824.03
1900.13
1950.21
1881.79
1943.01
1863.06
1936.39
1844.45
1930.98
1828.23
1901.21
1950.01
1883.69
1943.26
1866.22
1936.94
1849.25
1929.6
1833.92
22.4564
72.4123
3.97017
22.4898
72.3083
23.6196
)
;

boundaryField
{
    inlet
    {
        type            calculated;
        value           nonuniform 0();
    }
    outlet
    {
        type            calculated;
        value           nonuniform List<scalar> 9(5633.74 5633.74 5633.74 3755.83 3755.83 3755.83 1877.91 1877.91 1877.91);
    }
    wall
    {
        type            calculated;
        value           nonuniform List<scalar> 
57
(
6594.32
6594.11
6594.54
6644.45
6644.41
6644.85
6575.2
6575.12
6576.02
6638.03
6637.63
6638.35
6555.24
6554.62
6556.92
6633.33
6632.71
6632.46
6532.98
6531.76
6538.41
6631.91
6631.08
6626.97
6517.24
6500.86
6522.73
5655.4
3777.41
1900.44
22.4564
5705.52
3827.92
1950.3
72.4123
5636.28
3758.36
1882.11
3.97017
5699.11
3821.43
1943.5
5616.32
3738.06
1862.99
5694.42
3816.31
1937.46
5594.08
3715.57
1843.41
5693.03
3813.82
1932.64
5565.88
3687.76
1824.03
)
;
    }
    procBoundary1to0
    {
        type            processor;
        value           nonuniform List<scalar> 
12
(
5712.65
5712.65
5713.01
3835.03
3835.04
3835.59
1957.48
1957.61
1957.8
79.5511
79.7339
79.987
)
;
    }
    procBoundary1to3
    {
        type            processor;
        value           nonuniform List<scalar> 
27
(
5655.11
5705.44
5636.21
5698.64
5616.74
5693.17
5595.76
5689.98
5571.15
3777.09
3828.04
3758.37
3820.72
3738.98
3814.22
3720.2
3809.12
3703.01
1900.68
1949.95
1882.54
1942.78
1864.56
1936.49
1847.17
1930.34
1831.11
)
;
    }
    procBoundary1to5
    {
        type            processor;
        value           nonuniform List<scalar> 
32
(
65.8019
-15.2665
60.2596
-35.0977
56.3718
-55.372
3.89062
65.3321
-14.5888
59.07
-32.8226
53.9412
-49.4897
72.6259
5.84062
65.5687
-11.83
59.4357
-28.8173
53.0924
-44.7591
-1854.88
-1805.36
65.8019
3.89062
-1872.88
-1854.59
3.89062
72.6259
-1805.29
72.6259
-1853.45
)
;
    }
    procBoundary1to7
    {
        type            processor;
        value           uniform 24.2203;
    }
}


// ************************************************************************* //
