/*--------------------------------*- C++ -*----------------------------------*\
| =========                 |                                                 |
| \\      /  F ield         | OpenFOAM: The Open Source CFD Toolbox           |
|  \\    /   O peration     | Version:  4.x                                   |
|   \\  /    A nd           | Web:      www.OpenFOAM.org                      |
|    \\/     M anipulation  |                                                 |
\*---------------------------------------------------------------------------*/
FoamFile
{
    version     2.0;
    format      ascii;
    class       volScalarField;
    location    "23";
    object      pSmooth;
}
// * * * * * * * * * * * * * * * * * * * * * * * * * * * * * * * * * * * * * //

dimensions      [1 -1 -2 0 0 0 0];

internalField   nonuniform List<scalar> 
87
(
21.6855
71.9402
2.72011
65.6302
0.1
60.9739
0.1
59.9065
0.1
21.1664
71.674
2.30094
65.2127
0.1
60.5296
0.1
59.4584
0.1
21.6427
72.1385
3.27328
65.9055
0.1
60.9835
0.1
56.6597
0.1
21.3312
72.1216
2.48009
65.8282
0.1
60.9358
0.1
58.8692
0.1
21.1157
72.1274
2.38709
65.7062
0.1
60.3752
0.1
57.5367
0.1
21.7365
73.0361
3.60337
66.7235
0.1
60.745
0.1
55.0957
0.1
22.3172
72.4037
4.03922
65.7285
0.1
59.8777
0.1
55.465
0.1
22.2415
72.6617
4.31348
65.8926
0.1
59.4035
0.1
53.8862
0.1
23.3294
72.3835
5.93329
65.7944
0.1
59.561
0.1
52.1199
0.1
22.1898
72.3485
3.60573
22.2725
72.2681
23.324
)
;

boundaryField
{
    inlet
    {
        type            zeroGradient;
    }
    outlet
    {
        type            fixedValue;
        value           uniform 0;
    }
    wall
    {
        type            zeroGradient;
    }
    procBoundary1to0
    {
        type            processor;
        value           nonuniform List<scalar> 
12
(
78.9296
78.7615
79.1483
79.0814
79.1891
79.8121
79.4819
79.712
79.9496
79.4663
79.6825
79.9182
)
;
    }
    procBoundary1to3
    {
        type            processor;
        value           nonuniform List<scalar> 
27
(
21.2191
71.5905
2.46849
65.0234
0.1
60.1294
0.1
57.716
0.1
21.4411
72.5788
3.30805
66.0381
0.1
59.9531
0.1
54.7287
0.1
22.9661
72.4818
5.0934
65.5045
0.1
59.2433
0.1
52.8919
0.1
)
;
    }
    procBoundary1to5
    {
        type            processor;
        value           nonuniform List<scalar> 
32
(
65.7357
0.1
60.144
0.1
56.4568
0.1
3.58484
65.2707
0.1
58.961
0.1
53.7579
0.1
72.6243
5.42359
65.6507
0.1
59.3716
0.1
53.1033
0.1
22.8289
72.522
65.7357
3.58484
4.76167
23.0952
3.58484
72.6243
72.5016
72.6243
24.1701
)
;
    }
    procBoundary1to7
    {
        type            processor;
        value           uniform 24.0703;
    }
}


// ************************************************************************* //
