/*--------------------------------*- C++ -*----------------------------------*\
| =========                 |                                                 |
| \\      /  F ield         | OpenFOAM: The Open Source CFD Toolbox           |
|  \\    /   O peration     | Version:  4.x                                   |
|   \\  /    A nd           | Web:      www.OpenFOAM.org                      |
|    \\/     M anipulation  |                                                 |
\*---------------------------------------------------------------------------*/
FoamFile
{
    version     2.0;
    format      ascii;
    class       volScalarField;
    location    "23";
    object      QWallFluid;
}
// * * * * * * * * * * * * * * * * * * * * * * * * * * * * * * * * * * * * * //

dimensions      [1 -1 -3 0 0 0 0];

internalField   nonuniform List<scalar> 
87
(
1.66415e+09
2.23027e+09
1.69524e+09
2.31767e+09
1.66779e+09
2.44656e+09
1.498e+09
2.70777e+09
9.65383e+08
7.5801e+08
1.07379e+09
7.80656e+08
1.12163e+09
7.66154e+08
1.19207e+09
6.76054e+08
1.34099e+09
5.46617e+08
6.47955e+08
9.79503e+08
6.18982e+08
9.70884e+08
5.34013e+08
9.17596e+08
3.76099e+08
7.61583e+08
2.27972e+08
6.06437e+08
9.76496e+08
6.11213e+08
1.01524e+09
5.84615e+08
1.08363e+09
5.07811e+08
1.24317e+09
5.32515e+08
0
0
0
0
0
0
0
0
0
0
0
0
0
0
0
0
0
0
4.86213e+08
8.80543e+08
4.44426e+08
8.81462e+08
3.88889e+08
8.94023e+08
3.2862e+08
9.44461e+08
2.08964e+08
0
0
0
0
0
0
0
0
0
0
0
0
0
0
0
0
0
0
5.11236e+08
8.97304e+08
4.91352e+08
0
0
0
)
;

boundaryField
{
    inlet
    {
        type            calculated;
        value           nonuniform 0();
    }
    outlet
    {
        type            calculated;
        value           uniform 0;
    }
    wall
    {
        type            calculated;
        value           uniform 0;
    }
    procBoundary1to0
    {
        type            processor;
        value           nonuniform List<scalar> 
12
(
2.16093e+09
1.02602e+09
9.6126e+08
9.43092e+08
0
0
8.73438e+08
0
0
8.79924e+08
0
0
)
;
    }
    procBoundary1to3
    {
        type            processor;
        value           nonuniform List<scalar> 
27
(
6.92286e+08
1.02288e+09
7.11664e+08
1.06177e+09
6.95634e+08
1.10033e+09
6.05344e+08
1.18933e+09
5.14325e+08
0
0
0
0
0
0
0
0
0
0
0
0
0
0
0
0
0
0
)
;
    }
    procBoundary1to5
    {
        type            processor;
        value           nonuniform List<scalar> 
32
(
9.09495e+08
4.3891e+08
9.28031e+08
3.4506e+08
9.50299e+08
1.87118e+08
0
0
0
0
0
0
0
0
0
0
0
0
0
0
0
4.29965e+08
8.38017e+08
9.09495e+08
0
3.8862e+08
0
0
0
0
0
0
)
;
    }
    procBoundary1to7
    {
        type            processor;
        value           uniform 0;
    }
}


// ************************************************************************* //
