/*--------------------------------*- C++ -*----------------------------------*\
| =========                 |                                                 |
| \\      /  F ield         | OpenFOAM: The Open Source CFD Toolbox           |
|  \\    /   O peration     | Version:  4.x                                   |
|   \\  /    A nd           | Web:      www.OpenFOAM.org                      |
|    \\/     M anipulation  |                                                 |
\*---------------------------------------------------------------------------*/
FoamFile
{
    version     2.0;
    format      ascii;
    class       volVectorField;
    location    "23";
    object      UsNext;
}
// * * * * * * * * * * * * * * * * * * * * * * * * * * * * * * * * * * * * * //

dimensions      [0 1 -1 0 0 0 0];

internalField   nonuniform List<vector> 
87
(
(4.63561e-09 1.21049e-08 2.82006e-08)
(-1.17547e-07 1.06153e-06 8.92858e-08)
(-1.14417e-08 5.66704e-09 1.19576e-08)
(-4.89945e-09 1.80867e-09 5.18187e-10)
(5.13938e-10 2.33935e-09 -7.20047e-10)
(9.49715e-09 1.99342e-10 -6.00131e-09)
(3.55254e-08 -7.80291e-09 -1.25857e-08)
(1.31425e-06 8.4451e-09 -8.89141e-08)
(6.7498e-07 -4.16846e-08 -1.27328e-07)
(-4.98782e-09 3.72481e-09 1.29719e-08)
(-1.93978e-09 -8.4122e-10 2.16527e-08)
(-5.37784e-09 3.89922e-09 4.81392e-09)
(8.2578e-09 5.84344e-10 -5.37505e-10)
(1.66862e-08 -1.00363e-08 3.8277e-09)
(2.8582e-08 5.50248e-09 -6.11177e-09)
(4.04465e-08 -1.03553e-08 -1.66371e-08)
(4.39734e-08 -3.25305e-08 -2.63241e-08)
(-5.33964e-09 -6.83621e-08 -6.2738e-08)
(5.2769e-09 2.74177e-09 2.92979e-09)
(7.34636e-09 -7.66472e-10 5.33289e-09)
(1.2745e-08 6.57244e-09 1.91067e-09)
(2.28422e-08 6.56487e-10 -6.09423e-10)
(2.77169e-08 -2.82693e-09 2.16792e-09)
(4.08763e-08 7.46938e-10 1.28951e-08)
(4.63807e-08 -1.00261e-08 3.66391e-09)
(4.19742e-08 -2.55249e-08 -2.91938e-08)
(3.36001e-08 -6.32553e-09 -2.82243e-08)
(-9.94156e-09 8.77118e-09 1.77573e-08)
(-4.25299e-10 7.89263e-09 3.20305e-08)
(2.10983e-09 6.36837e-09 1.03288e-08)
(1.7428e-09 7.13262e-10 -1.30605e-10)
(5.82787e-09 6.05972e-10 -6.59284e-10)
(7.48681e-09 2.22447e-09 -5.7287e-09)
(1.83541e-08 -1.70816e-09 -9.947e-09)
(2.468e-08 -9.59961e-09 -2.12139e-08)
(7.46297e-09 -1.68809e-08 -4.13605e-08)
(-8.6561e-09 8.34508e-09 1.23428e-08)
(-5.04254e-09 4.26163e-09 1.65373e-08)
(6.75006e-09 8.60724e-09 5.93401e-09)
(6.93233e-09 2.82583e-09 -4.8231e-10)
(1.79005e-08 -3.72307e-09 -1.22e-09)
(2.19592e-08 -1.2539e-09 -7.53959e-09)
(2.90388e-08 -5.75454e-09 -1.22371e-08)
(3.32088e-08 -1.25553e-08 -1.7518e-08)
(2.95469e-08 -2.07594e-08 -4.81284e-08)
(2.32493e-09 6.55926e-09 9.40349e-10)
(5.39847e-09 6.49134e-09 3.05284e-09)
(1.25318e-08 8.20819e-09 -7.97422e-10)
(1.46411e-08 1.95164e-09 -4.08851e-10)
(2.27114e-08 -5.55138e-09 1.77352e-09)
(2.84727e-08 -7.34446e-09 1.69336e-09)
(3.5399e-08 -5.80555e-09 -6.72228e-09)
(3.92932e-08 -1.13122e-08 -9.66506e-09)
(8.64767e-09 -1.08824e-08 -2.78147e-08)
(-2.94673e-09 2.28662e-09 1.52879e-09)
(-1.78891e-09 4.20593e-09 3.54542e-09)
(-1.92072e-10 3.26058e-09 2.3777e-09)
(1.11611e-09 1.4439e-09 -9.41883e-10)
(-1.37333e-09 1.09015e-09 -1.57583e-09)
(-3.09805e-09 7.60514e-10 -4.26973e-09)
(-1.84084e-09 2.22189e-09 -5.02493e-09)
(-5.84594e-09 1.41852e-09 -6.77373e-09)
(-9.53772e-10 1.42941e-09 -1.73808e-08)
(-4.50645e-09 6.12209e-09 2.78589e-09)
(-1.05217e-09 5.73201e-09 2.84501e-09)
(1.3232e-09 4.61968e-09 2.45211e-09)
(1.88077e-09 2.967e-09 -9.68886e-10)
(1.16309e-09 1.369e-09 -2.44048e-09)
(2.91847e-09 4.01072e-09 -9.13022e-09)
(6.03732e-09 1.56311e-09 -9.62416e-09)
(6.51713e-09 -2.75504e-09 -1.06972e-08)
(-5.00071e-09 4.48548e-09 -1.18629e-08)
(-1.17761e-09 6.81289e-09 2.43167e-10)
(1.70736e-09 5.59868e-09 1.48996e-09)
(3.33526e-09 5.8527e-09 2.73657e-10)
(3.84442e-09 3.98712e-09 -6.3906e-10)
(7.17421e-09 3.04367e-09 -1.87499e-09)
(1.13745e-08 -2.00256e-09 -1.82878e-09)
(1.4438e-08 -2.31637e-09 -9.23165e-09)
(6.28582e-09 -3.3732e-09 -4.5801e-09)
(-1.81446e-09 1.94062e-09 -1.14455e-08)
(-1.13334e-09 1.73313e-09 7.60031e-10)
(-3.01015e-09 9.87676e-10 1.77275e-09)
(-1.51634e-09 1.75388e-09 1.42451e-09)
(-3.11483e-09 2.95061e-09 7.44329e-10)
(-2.93219e-09 4.34844e-09 1.33399e-09)
(-4.69837e-09 4.09757e-09 1.29727e-09)
)
;

boundaryField
{
    inlet
    {
        type            calculated;
        value           nonuniform 0();
    }
    outlet
    {
        type            calculated;
        value           nonuniform List<vector> 9((6.7498e-07 -4.16846e-08 -1.27328e-07) (-5.33964e-09 -6.83621e-08 -6.2738e-08) (3.36001e-08 -6.32553e-09 -2.82243e-08) (7.46297e-09 -1.68809e-08 -4.13605e-08) (2.95469e-08 -2.07594e-08 -4.81284e-08) (8.64767e-09 -1.08824e-08 -2.78147e-08) (-9.53772e-10 1.42941e-09 -1.73808e-08) (-5.00071e-09 4.48548e-09 -1.18629e-08) (-1.81446e-09 1.94062e-09 -1.14455e-08));
    }
    wall
    {
        type            calculated;
        value           nonuniform List<vector> 
57
(
(4.63561e-09 1.21049e-08 2.82006e-08)
(-4.98782e-09 3.72481e-09 1.29719e-08)
(5.2769e-09 2.74177e-09 2.92979e-09)
(-1.17547e-07 1.06153e-06 8.92858e-08)
(-1.93978e-09 -8.4122e-10 2.16527e-08)
(7.34636e-09 -7.66472e-10 5.33289e-09)
(-1.14417e-08 5.66704e-09 1.19576e-08)
(-5.37784e-09 3.89922e-09 4.81392e-09)
(1.2745e-08 6.57244e-09 1.91067e-09)
(-4.89945e-09 1.80867e-09 5.18187e-10)
(8.2578e-09 5.84344e-10 -5.37505e-10)
(2.28422e-08 6.56487e-10 -6.09423e-10)
(5.13938e-10 2.33935e-09 -7.20047e-10)
(1.66862e-08 -1.00363e-08 3.8277e-09)
(2.77169e-08 -2.82693e-09 2.16792e-09)
(9.49715e-09 1.99342e-10 -6.00131e-09)
(2.8582e-08 5.50248e-09 -6.11177e-09)
(4.08763e-08 7.46938e-10 1.28951e-08)
(3.55254e-08 -7.80291e-09 -1.25857e-08)
(4.04465e-08 -1.03553e-08 -1.66371e-08)
(4.63807e-08 -1.00261e-08 3.66391e-09)
(1.31425e-06 8.4451e-09 -8.89141e-08)
(4.39734e-08 -3.25305e-08 -2.63241e-08)
(4.19742e-08 -2.55249e-08 -2.91938e-08)
(6.7498e-07 -4.16846e-08 -1.27328e-07)
(-5.33964e-09 -6.83621e-08 -6.2738e-08)
(3.36001e-08 -6.32553e-09 -2.82243e-08)
(4.63561e-09 1.21049e-08 2.82006e-08)
(-9.94156e-09 8.77118e-09 1.77573e-08)
(-2.94673e-09 2.28662e-09 1.52879e-09)
(-1.13334e-09 1.73313e-09 7.60031e-10)
(-1.17547e-07 1.06153e-06 8.92858e-08)
(-4.25299e-10 7.89263e-09 3.20305e-08)
(-1.78891e-09 4.20593e-09 3.54542e-09)
(-3.01015e-09 9.87676e-10 1.77275e-09)
(-1.14417e-08 5.66704e-09 1.19576e-08)
(2.10983e-09 6.36837e-09 1.03288e-08)
(-1.92072e-10 3.26058e-09 2.3777e-09)
(-1.51634e-09 1.75388e-09 1.42451e-09)
(-4.89945e-09 1.80867e-09 5.18187e-10)
(1.7428e-09 7.13262e-10 -1.30605e-10)
(1.11611e-09 1.4439e-09 -9.41883e-10)
(5.13938e-10 2.33935e-09 -7.20047e-10)
(5.82787e-09 6.05972e-10 -6.59284e-10)
(-1.37333e-09 1.09015e-09 -1.57583e-09)
(9.49715e-09 1.99342e-10 -6.00131e-09)
(7.48681e-09 2.22447e-09 -5.7287e-09)
(-3.09805e-09 7.60514e-10 -4.26973e-09)
(3.55254e-08 -7.80291e-09 -1.25857e-08)
(1.83541e-08 -1.70816e-09 -9.947e-09)
(-1.84084e-09 2.22189e-09 -5.02493e-09)
(1.31425e-06 8.4451e-09 -8.89141e-08)
(2.468e-08 -9.59961e-09 -2.12139e-08)
(-5.84594e-09 1.41852e-09 -6.77373e-09)
(6.7498e-07 -4.16846e-08 -1.27328e-07)
(7.46297e-09 -1.68809e-08 -4.13605e-08)
(-9.53772e-10 1.42941e-09 -1.73808e-08)
)
;
    }
    procBoundary1to0
    {
        type            processor;
        value           nonuniform List<vector> 
12
(
(-6.92439e-09 5.45226e-09 2.56835e-09)
(-6.28416e-09 4.06194e-09 7.8988e-09)
(-5.77573e-09 4.40302e-09 7.45356e-09)
(-6.03574e-09 -2.40286e-11 4.90461e-09)
(-6.35378e-09 6.65934e-09 7.41063e-09)
(-4.59942e-09 5.70438e-09 5.189e-09)
(-4.10197e-09 1.17186e-09 5.20277e-09)
(-5.39973e-09 7.35006e-09 6.17112e-09)
(-5.82349e-09 6.79716e-09 6.14287e-09)
(-1.91792e-09 9.92432e-10 3.50346e-09)
(-3.87008e-09 2.9567e-09 2.9947e-09)
(-5.80065e-09 3.30383e-09 4.62493e-09)
)
;
    }
    procBoundary1to3
    {
        type            processor;
        value           nonuniform List<vector> 
27
(
(9.67359e-10 2.55116e-09 3.88531e-09)
(8.68521e-09 1.78486e-09 -1.86663e-10)
(1.56242e-08 4.54102e-09 -3.22766e-09)
(2.04105e-08 2.0675e-10 -4.31757e-09)
(3.30367e-08 -7.01134e-09 -2.57078e-09)
(4.74897e-08 -1.01424e-08 7.46865e-09)
(6.88413e-08 -8.80244e-09 -7.42899e-09)
(3.15343e-07 5.95959e-08 -3.70665e-08)
(4.52991e-08 -3.76567e-09 -5.29276e-08)
(5.23164e-09 3.0839e-09 1.0381e-09)
(8.18301e-09 2.97295e-09 -1.78209e-09)
(1.24832e-08 4.60174e-09 -2.68749e-09)
(1.47925e-08 -5.74532e-10 -3.75586e-09)
(2.52314e-08 -4.51681e-09 -1.79602e-09)
(3.61777e-08 -7.84425e-09 3.27181e-09)
(3.65169e-08 -5.3759e-09 -3.88012e-09)
(5.22489e-08 -5.84045e-09 -2.74687e-08)
(8.02818e-10 -4.45308e-09 -4.41787e-08)
(2.03709e-09 3.85654e-09 -7.06751e-10)
(4.37571e-09 3.24102e-09 -2.24379e-09)
(6.16209e-09 3.24563e-09 -2.14259e-09)
(7.38626e-09 1.49615e-09 -2.10662e-09)
(1.07113e-08 -3.41233e-09 4.68654e-10)
(-9.13894e-10 -5.10468e-09 5.84882e-10)
(1.25003e-08 -5.33195e-09 6.95507e-10)
(8.77419e-09 -4.33814e-09 -5.17007e-09)
(2.44327e-09 2.29024e-09 -5.85679e-09)
)
;
    }
    procBoundary1to5
    {
        type            processor;
        value           nonuniform List<vector> 
32
(
(-1.81562e-09 1.63218e-09 7.51791e-10)
(-3.81411e-09 1.0738e-09 5.82877e-10)
(-6.62713e-09 2.41671e-09 -5.43587e-10)
(-5.8047e-09 1.49104e-09 -2.46986e-09)
(-5.82831e-09 8.03503e-10 -2.57686e-09)
(-8.71171e-08 1.9027e-08 -6.26042e-10)
(-1.66694e-09 3.63185e-09 1.90064e-09)
(-1.67256e-09 3.52175e-09 4.91183e-10)
(-2.54438e-09 2.00403e-09 5.42553e-10)
(-5.61932e-09 2.11106e-09 -2.64682e-09)
(-5.81098e-09 1.88065e-09 -4.88219e-09)
(-5.47227e-09 8.96808e-10 -5.00382e-09)
(-7.34275e-09 1.22575e-08 -6.79168e-09)
(-3.33867e-09 4.27925e-09 7.20255e-10)
(-6.95701e-10 4.00209e-09 5.70976e-10)
(8.10889e-10 3.44123e-09 -5.82018e-10)
(2.49913e-10 2.1929e-09 -1.04204e-09)
(-8.28626e-10 6.21215e-10 -1.38526e-09)
(-1.11914e-09 -8.27722e-10 -8.99095e-10)
(-1.22622e-09 -5.28701e-10 -4.22945e-09)
(8.01387e-11 3.8298e-09 -5.25932e-09)
(2.13709e-11 9.96928e-10 1.33165e-09)
(-3.47636e-10 9.77501e-10 1.35666e-09)
(-1.81562e-09 1.63218e-09 7.51791e-10)
(-1.66694e-09 3.63185e-09 1.90064e-09)
(-1.34663e-10 1.2065e-09 1.33649e-09)
(-5.00251e-10 1.49971e-09 9.9458e-10)
(-1.66694e-09 3.63185e-09 1.90064e-09)
(-3.33867e-09 4.27925e-09 7.20255e-10)
(-6.82523e-10 7.85379e-10 1.45463e-09)
(-3.33867e-09 4.27925e-09 7.20255e-10)
(-1.52799e-09 2.86231e-09 1.42696e-09)
)
;
    }
    procBoundary1to7
    {
        type            processor;
        value           uniform (-1.43241e-09 4.26785e-09 -9.37994e-11);
    }
}


// ************************************************************************* //
