/*--------------------------------*- C++ -*----------------------------------*\
| =========                 |                                                 |
| \\      /  F ield         | OpenFOAM: The Open Source CFD Toolbox           |
|  \\    /   O peration     | Version:  4.x                                   |
|   \\  /    A nd           | Web:      www.OpenFOAM.org                      |
|    \\/     M anipulation  |                                                 |
\*---------------------------------------------------------------------------*/
FoamFile
{
    version     2.0;
    format      ascii;
    class       volScalarField;
    location    "55";
    object      p;
}
// * * * * * * * * * * * * * * * * * * * * * * * * * * * * * * * * * * * * * //

dimensions      [1 -1 -2 0 0 0 0];

internalField   nonuniform List<scalar> 
87
(
82.3075
38.0975
81.8206
88.8403
38.4028
81.8442
-1765.59
-1783.87
-1772.88
-1801.47
-1780.61
-1819.58
-1788.48
-1837.53
-1795.78
-1766.24
-1784.14
-1773.35
-1801.98
-1780.78
-1820.25
-1788.23
-1838.51
-1795.61
-1766.83
-1784.41
-1773.88
-1802.07
-1781.15
-1820.3
-1788.51
-1838.45
-1795.42
-3643.76
-3661.86
-3651.05
-3679.73
-3658.58
-3697.86
-3666.09
-3716.21
-3673.37
-3644.44
-3662.19
-3651.69
-3680
-3659.16
-3698.2
-3666.57
-3716.65
-3673.78
-3644.94
-3662.42
-3652.06
-3680.09
-3659.42
-3698.3
-3666.76
-3716.62
-3673.84
-5522.16
-5539.95
-5529.38
-5557.7
-5536.9
-5575.83
-5544.38
-5594.27
-5551.55
-5522.64
-5540.21
-5529.8
-5557.9
-5537.22
-5576.18
-5544.62
-5594.46
-5551.76
-5523.02
-5540.33
-5530.09
-5557.98
-5537.39
-5576.09
-5544.73
-5594.25
-5551.69
)
;

boundaryField
{
    inlet
    {
        type            calculated;
        value           nonuniform List<scalar> 9(-1765.59 -1766.24 -1766.83 -3643.76 -3644.44 -3644.94 -5522.16 -5522.64 -5523.02);
    }
    outlet
    {
        type            calculated;
        value           nonuniform 0();
    }
    wall
    {
        type            calculated;
        value           nonuniform List<scalar> 
57
(
-6461.11
-6461.6
-6461.98
-6478.91
-6479.16
-6479.28
-6468.34
-6468.76
-6469.05
-6496.66
-6496.86
-6496.94
-6475.86
-6476.18
-6476.35
-6514.79
-6515.13
-6515.05
-6483.33
-6483.58
-6483.68
-6533.23
-6533.41
-6533.21
-6490.51
-6490.71
-6490.65
-1766.83
-3644.94
-5523.02
-1784.41
-3662.42
-5540.33
-1773.88
-3652.06
-5530.09
-1802.07
-3680.09
-5557.98
-1781.15
-3659.42
-5537.39
-1820.3
-3698.3
-5576.09
88.8403
-1788.51
-3666.76
-5544.73
38.4028
-1838.45
-3716.62
-5594.25
81.8442
-1795.42
-3673.84
-5551.69
)
;
    }
    procBoundary6to0
    {
        type            processor;
        value           uniform 82.2034;
    }
    procBoundary6to2
    {
        type            processor;
        value           nonuniform List<scalar> 
32
(
1959.93
1916.47
1960.12
1966.91
1916.54
1960.01
111.671
93.8097
104.543
75.7342
97.098
57.5169
89.6401
39.2436
39.2436
39.2436
111.011
93.3081
103.835
75.2417
96.3828
56.8509
88.9635
88.9635
88.9635
110.504
93.088
103.455
75.1683
96.1226
56.8854
56.8854
)
;
    }
    procBoundary6to4
    {
        type            processor;
        value           nonuniform List<scalar> 
27
(
-1766.02
-1783.89
-1773.2
-1801.86
-1780.78
-1820.16
-1788.42
-1838.66
-1795.87
-3643.9
-3661.91
-3651.16
-3679.8
-3658.8
-3698.27
-3666.38
-3716.94
-3673.68
-5522.16
-5540.13
-5529.51
-5557.92
-5537.14
-5576.39
-5544.75
-5594.81
-5551.88
)
;
    }
    procBoundary6to7
    {
        type            processor;
        value           nonuniform List<scalar> 
12
(
21.0479
19.1015
19.6753
-1855.16
-1856.8
-1856.7
-3734.54
-3735.29
-3735.07
-5612.44
-5612.93
-5612.56
)
;
    }
}


// ************************************************************************* //
