/*--------------------------------*- C++ -*----------------------------------*\
| =========                 |                                                 |
| \\      /  F ield         | OpenFOAM: The Open Source CFD Toolbox           |
|  \\    /   O peration     | Version:  4.x                                   |
|   \\  /    A nd           | Web:      www.OpenFOAM.org                      |
|    \\/     M anipulation  |                                                 |
\*---------------------------------------------------------------------------*/
FoamFile
{
    version     2.0;
    format      ascii;
    class       volScalarField;
    location    "3";
    object      Deff;
}
// * * * * * * * * * * * * * * * * * * * * * * * * * * * * * * * * * * * * * //

dimensions      [0 2 -1 0 0 0 0];

internalField   nonuniform List<scalar> 
114
(
9.79992e-08
9.78961e-08
9.78893e-08
9.78451e-08
9.78255e-08
9.78314e-08
9.80081e-08
9.80125e-08
9.7942e-08
9.78561e-08
9.77551e-08
9.77314e-08
9.77972e-08
9.7937e-08
9.79824e-08
9.78677e-08
9.78635e-08
9.78575e-08
9.77538e-08
9.77951e-08
9.77304e-08
9.80773e-08
9.80921e-08
9.79304e-08
9.79256e-08
9.78122e-08
9.77542e-08
9.77373e-08
9.77939e-08
9.78236e-08
9.79645e-08
9.79239e-08
9.7806e-08
9.77949e-08
9.7686e-08
9.76522e-08
9.77142e-08
9.76269e-08
9.77266e-08
9.78789e-08
9.79635e-08
9.78027e-08
9.77178e-08
9.76965e-08
9.76425e-08
9.76067e-08
9.76197e-08
9.77003e-08
9.77993e-08
9.79004e-08
9.80114e-08
9.78885e-08
9.78995e-08
9.77997e-08
9.77465e-08
9.77245e-08
9.76981e-08
9.77071e-08
9.77791e-08
9.79789e-08
9.78307e-08
9.78552e-08
9.7755e-08
9.76509e-08
9.76261e-08
9.75612e-08
9.76529e-08
9.77537e-08
9.78592e-08
9.78388e-08
9.77357e-08
9.77009e-08
9.75049e-08
9.75495e-08
9.75075e-08
9.75034e-08
9.7554e-08
9.79678e-08
9.77071e-08
9.76088e-08
9.7622e-08
9.82552e-08
9.80193e-08
9.80689e-08
9.78567e-08
9.78277e-08
9.78592e-08
9.7757e-08
9.7771e-08
9.78218e-08
9.80318e-08
9.79379e-08
9.80044e-08
9.78525e-08
9.76977e-08
9.77116e-08
9.77782e-08
9.77031e-08
9.77714e-08
9.79416e-08
9.78734e-08
9.77076e-08
9.77044e-08
9.76348e-08
9.75571e-08
9.76384e-08
9.76324e-08
9.7659e-08
9.79062e-08
9.78633e-08
9.76854e-08
9.76909e-08
9.75104e-08
9.75815e-08
)
;

boundaryField
{
    inlet
    {
        type            calculated;
        value           nonuniform 0();
    }
    outlet
    {
        type            calculated;
        value           uniform 0;
    }
    wall
    {
        type            calculated;
        value           uniform 0;
    }
    procBoundary5to1
    {
        type            processor;
        value           uniform 0;
    }
    procBoundary5to4
    {
        type            processor;
        value           uniform 0;
    }
    procBoundary5to7
    {
        type            processor;
        value           uniform 0;
    }
}


// ************************************************************************* //
