/*--------------------------------*- C++ -*----------------------------------*\
| =========                 |                                                 |
| \\      /  F ield         | OpenFOAM: The Open Source CFD Toolbox           |
|  \\    /   O peration     | Version:  4.x                                   |
|   \\  /    A nd           | Web:      www.OpenFOAM.org                      |
|    \\/     M anipulation  |                                                 |
\*---------------------------------------------------------------------------*/
FoamFile
{
    version     2.0;
    format      ascii;
    class       volScalarField;
    location    "3";
    object      p;
}
// * * * * * * * * * * * * * * * * * * * * * * * * * * * * * * * * * * * * * //

dimensions      [1 -1 -2 0 0 0 0];

internalField   nonuniform List<scalar> 
114
(
-50.081
-191.73
-140.007
-368.61
-162.044
-178.622
-90.5861
-12.7129
-130.944
-31.8603
-122.204
51.2803
-64.3623
34.4149
-45.8184
42.1402
-49.8561
88.6589
9.23612
181.009
-42.1858
-1924.24
-1870.58
-1963.38
-1891.62
-2011.62
-1934.51
-2109.27
-1959.45
-2041.82
-1910.64
-1859.85
-1952.66
-1871.01
-1973.95
-1876.82
-1993.77
-1864.18
-1952.93
-1901.05
-1843.14
-1917.93
-1834.99
-1925.67
-1805.22
-1897.42
-1763.54
-1932.44
-1885.41
-1825.89
-3799.41
-3739.73
-3831.48
-3753.7
-3871.64
-3782.33
-3943.31
-3773.44
-3894.52
-3794.2
-3731.99
-3822.86
-3740.67
-3848.52
-3747.77
-3879.33
-3749.09
-3860.12
-3781.41
-3717.63
-3797.81
-3715.25
-3814.89
-3698.24
-3814.39
-3675.97
-3833.45
-3768.09
-3701.27
-3777.7
-3694.64
-5672.94
-5613.35
-5702.15
-5623.48
-5739.71
-5644.28
-5792.2
-5618.85
-5768.43
-5668.05
-5606.24
-5692.31
-5610.74
-5719.03
-5619.5
-5750.29
-5618
-5728.86
-5657.61
-5595.39
-5677.69
-5590.61
-5692.47
-5579.42
-5702.42
-5569.55
-5712.06
-5646.84
-5582.12
-5659.26
-5571.19
-5661.87
-5548.63
)
;

boundaryField
{
    inlet
    {
        type            calculated;
        value           nonuniform 0();
    }
    outlet
    {
        type            calculated;
        value           nonuniform List<scalar> 
12
(
0
0
0
-1877.91
-1877.91
-1877.91
-3755.83
-3755.83
-3755.83
-5633.74
-5633.74
-5633.74
)
;
    }
    wall
    {
        type            calculated;
        value           nonuniform List<scalar> 
66
(
-6611.67
-6606.87
-6596.42
-6585.65
-6552.1
-6545.12
-6534.26
-6521.01
-6640.93
-6631.21
-6616.62
-6598.2
-6562.28
-6549.66
-6529.6
-6510.17
-6678.53
-6657.99
-6631.52
-6600.9
-6583.12
-6558.52
-6518.5
-6487.7
-6731.09
-6689.41
-6641.53
-6557.75
-6557.14
-6508.67
-6711.39
-6668.21
-6651.59
-1924.24
-3799.41
-5672.94
-1870.58
-3739.73
-5613.35
-1963.38
-3831.48
-5702.15
-50.0811
-1891.62
-3753.7
-5623.48
-191.731
-2011.62
-3871.64
-5739.71
-140.007
-1934.51
-3782.33
-5644.28
-368.611
-2109.27
-3943.31
-5792.2
-162.044
-1959.45
-3773.44
-5618.85
-178.622
-2041.82
-3894.52
-5768.43
)
;
    }
    procBoundary5to1
    {
        type            processor;
        value           nonuniform List<scalar> 
32
(
1782.88
1609.25
1584.58
1093.54
1159.96
1661.02
1781.64
1840.45
1707.1
1780.26
1781.2
2093.77
1872.52
1906.53
1833.53
1932.5
1853.91
1996.82
1968.11
2231.3
1906.66
-57.5994
-5.78389
-110.41
-110.41
-110.41
-48.3826
5.11454
5.11454
5.11454
-28.1273
-28.1273
)
;
    }
    procBoundary5to4
    {
        type            processor;
        value           nonuniform List<scalar> 
12
(
-1854.04
-1851.96
-1836.58
-1830.8
-3729.04
-3726.88
-3716.88
-3710.89
-5604.27
-5600.89
-5592.73
-5586.26
)
;
    }
    procBoundary5to7
    {
        type            processor;
        value           nonuniform List<scalar> 
44
(
54.2037
-15.2251
67.2007
-12.4877
105.787
32.015
158.517
-19.9828
-10.9529
54.2037
-1889.82
-1808.58
-1885.51
-1767.57
-1855.85
-1756.58
-1916.19
-1886.8
-1889.82
-1818.21
-1889.82
-1808.58
-3780.07
-3669.06
-3768.81
-3662.89
-3794.69
-3766.08
-3698.02
-3780.6
-3780.07
-3687.29
-3780.07
-3669.06
-5656.88
-5549.64
-5704.45
-5636.74
-5575.4
-5662
-5565.38
-5659.58
-5656.88
-5537.37
)
;
    }
}


// ************************************************************************* //
