/*--------------------------------*- C++ -*----------------------------------*\
| =========                 |                                                 |
| \\      /  F ield         | OpenFOAM: The Open Source CFD Toolbox           |
|  \\    /   O peration     | Version:  4.x                                   |
|   \\  /    A nd           | Web:      www.OpenFOAM.org                      |
|    \\/     M anipulation  |                                                 |
\*---------------------------------------------------------------------------*/
FoamFile
{
    version     2.0;
    format      ascii;
    class       volScalarField;
    location    "3";
    object      pSmooth;
}
// * * * * * * * * * * * * * * * * * * * * * * * * * * * * * * * * * * * * * //

dimensions      [1 -1 -2 0 0 0 0];

internalField   nonuniform List<scalar> 
114
(
136.796
0.509961
108.734
0.921327
98.5604
0.1
58.2859
133.689
0.277079
102.334
0.290616
80.3283
0.1
177.997
63.7657
138.988
2.49616
108.254
0.158883
88.5365
0.1
121.485
174.76
59.3422
136.592
0.724795
110.299
0.549481
95.3926
0.1
125.822
180.635
53.4676
130.239
0.257947
106.896
0.26216
85.9909
0.1
127.376
176.889
66.7351
140.415
6.35348
111.078
0.101494
91.9998
0.1
123.85
177.806
116.768
171.637
56.6876
137.174
0.230839
109.389
0.300432
97.4165
0.1
118.191
174.465
54.6779
137.373
0.142518
105.877
0.167911
81.3768
0.1
120.933
175.509
60.5529
137.241
0.16485
109.032
0.1
90.0953
0.1
120.113
173.1
59.5576
137.117
117.796
172.189
57.3259
136.458
0.180541
109.907
0.203834
110.432
0.1
116.608
173.696
56.5484
137.035
0.109032
109.458
0.129113
87.3965
0.1
120.069
173.71
57.0356
136.153
0.171811
110.471
0.1
95.8326
0.1
116.127
170.972
58.2641
137.541
1.84568
110.753
)
;

boundaryField
{
    inlet
    {
        type            zeroGradient;
    }
    outlet
    {
        type            fixedValue;
        value           uniform 0;
    }
    wall
    {
        type            zeroGradient;
    }
    procBoundary5to1
    {
        type            processor;
        value           nonuniform List<scalar> 
32
(
137.014
1.27407
107.696
1.73196
92.1359
0.215559
59.649
134.6
0.366875
103.152
0.281416
79.8091
0.1
178.048
68.3281
139.589
5.62021
107.684
0.339586
86.7556
0.1
120.803
173.804
58.1603
58.1603
58.1603
121.912
174.639
174.639
174.639
126.004
126.004
)
;
    }
    procBoundary5to4
    {
        type            processor;
        value           nonuniform List<scalar> 
12
(
214.969
218.621
218.746
216.872
212.571
213.396
214.636
213.412
212.146
212.47
213.532
211.797
)
;
    }
    procBoundary5to7
    {
        type            processor;
        value           nonuniform List<scalar> 
44
(
176.702
63.1357
135.046
8.27464
106.583
0.367038
81.2004
0.1
123.559
176.702
66.9065
140.457
12.5396
113.635
0.272723
94.5967
0.1
122.523
66.9065
174.712
66.9065
140.457
3.38705
107.375
0.214261
79.0006
0.1
118.846
176.115
57.7179
3.38705
136.689
3.38705
107.375
0.193901
95.2543
0.1
124.322
184.392
50.1584
130.274
0.408027
0.193901
108.446
)
;
    }
}


// ************************************************************************* //
