/*--------------------------------*- C++ -*----------------------------------*\
| =========                 |                                                 |
| \\      /  F ield         | OpenFOAM: The Open Source CFD Toolbox           |
|  \\    /   O peration     | Version:  4.x                                   |
|   \\  /    A nd           | Web:      www.OpenFOAM.org                      |
|    \\/     M anipulation  |                                                 |
\*---------------------------------------------------------------------------*/
FoamFile
{
    version     2.0;
    format      ascii;
    class       volScalarField;
    location    "3";
    object      Sm;
}
// * * * * * * * * * * * * * * * * * * * * * * * * * * * * * * * * * * * * * //

dimensions      [1 -3 -1 0 0 0 0];

internalField   nonuniform List<scalar> 
114
(
6.82248e-65
8.05867e-65
6.34879e-65
6.72886e-65
7.57324e-65
8.41539e-65
6.82513e-65
5.65984e-65
5.81105e-65
6.65325e-65
8.1897e-65
8.48629e-65
7.86018e-65
8.45466e-65
6.05043e-65
7.44189e-65
5.80898e-65
4.56315e-65
6.94694e-65
5.70213e-65
8.61871e-65
6.27783e-65
4.88359e-65
6.97791e-65
5.42656e-65
6.43156e-65
6.81482e-65
7.11892e-65
5.6443e-65
5.94815e-65
7.13075e-65
6.82279e-65
8.52964e-65
7.1316e-65
8.36721e-65
8.12529e-65
5.25776e-65
8.5678e-65
6.86316e-65
8.2151e-65
4.57521e-65
7.29023e-65
7.59729e-65
6.19605e-65
7.03789e-65
7.10343e-65
6.86145e-65
5.54694e-65
9.99753e-65
4.42055e-65
6.66466e-65
8.2163e-65
6.74412e-65
7.36381e-65
6.97447e-65
6.89422e-65
6.65738e-65
7.27324e-65
6.57072e-65
5.34733e-65
8.37205e-65
6.202e-65
7.1313e-65
7.12858e-65
7.0454e-65
9.12809e-65
6.41511e-65
5.48272e-65
8.05891e-65
6.35652e-65
7.05521e-65
5.96826e-65
1.01481e-64
7.35225e-65
8.19249e-65
8.8763e-65
8.63654e-65
3.56465e-65
9.37987e-65
8.99334e-65
7.9842e-65
2.63494e-65
6.89799e-65
4.57301e-65
7.13079e-65
6.04472e-65
4.95806e-65
6.96944e-65
6.27041e-65
6.03517e-65
6.04417e-65
6.89803e-65
4.18596e-65
5.65796e-65
7.43871e-65
6.50552e-65
4.56602e-65
7.03809e-65
6.02895e-65
6.27582e-65
6.27794e-65
8.52688e-65
6.89836e-65
5.88811e-65
8.05135e-65
6.49818e-65
6.724e-65
6.79709e-65
7.20515e-65
5.50301e-65
7.28674e-65
5.65782e-65
9.68426e-65
7.74086e-65
)
;

boundaryField
{
    inlet
    {
        type            calculated;
        value           nonuniform 0();
    }
    outlet
    {
        type            calculated;
        value           uniform 0;
    }
    wall
    {
        type            calculated;
        value           uniform 0;
    }
    procBoundary5to1
    {
        type            processor;
        value           nonuniform List<scalar> 
32
(
7.90763e-65
5.81034e-65
8.43487e-65
7.0352e-65
5.71465e-65
4.1651e-65
5.66273e-65
6.12511e-65
6.96959e-65
6.96117e-65
6.5612e-65
7.16999e-65
4.38682e-65
6.36263e-65
5.12067e-65
9.07202e-65
8.28592e-65
8.73389e-65
6.78574e-65
7.85555e-65
3.46001e-65
6.58921e-65
5.27252e-65
8.06463e-65
8.06463e-65
8.06463e-65
7.05521e-65
1.00045e-64
1.00045e-64
1.00045e-64
5.7371e-65
5.7371e-65
)
;
    }
    procBoundary5to4
    {
        type            processor;
        value           nonuniform List<scalar> 
12
(
8.90961e-65
9.06319e-65
5.65384e-65
5.96307e-65
8.21176e-65
8.21025e-65
6.81497e-65
6.81432e-65
7.20468e-65
7.59049e-65
6.27319e-65
6.34979e-65
)
;
    }
    procBoundary5to7
    {
        type            processor;
        value           nonuniform List<scalar> 
44
(
7.83412e-65
6.43843e-65
6.74527e-65
1.05319e-64
1.04328e-64
7.94287e-65
5.62037e-65
8.3077e-65
9.92339e-65
7.83412e-65
6.43728e-65
7.36414e-65
6.34955e-65
6.95629e-65
8.5625e-65
8.39682e-65
7.31517e-65
3.95353e-65
6.43728e-65
8.45185e-65
6.43728e-65
7.36414e-65
5.03463e-65
5.80157e-65
7.33662e-65
6.0166e-65
5.77801e-65
8.05805e-65
7.36483e-65
6.82281e-65
5.03463e-65
5.19315e-65
5.03463e-65
5.80157e-65
5.48889e-65
6.41191e-65
6.0992e-65
6.89499e-65
5.81323e-65
7.67418e-65
7.44059e-65
5.19045e-65
5.48889e-65
3.87051e-65
)
;
    }
}


// ************************************************************************* //
