/*--------------------------------*- C++ -*----------------------------------*\
| =========                 |                                                 |
| \\      /  F ield         | OpenFOAM: The Open Source CFD Toolbox           |
|  \\    /   O peration     | Version:  4.x                                   |
|   \\  /    A nd           | Web:      www.OpenFOAM.org                      |
|    \\/     M anipulation  |                                                 |
\*---------------------------------------------------------------------------*/
FoamFile
{
    version     2.0;
    format      ascii;
    class       volScalarField;
    location    "3";
    object      T;
}
// * * * * * * * * * * * * * * * * * * * * * * * * * * * * * * * * * * * * * //

dimensions      [0 0 0 1 0 0 0];

internalField   nonuniform List<scalar> 
114
(
300.001
300
299.999
299.997
299.995
299.994
300.001
300.001
299.999
299.997
299.995
299.992
299.99
300.001
300.002
300.001
299.999
299.997
299.993
299.99
299.988
300
300
300.001
300.001
300
299.999
299.997
299.996
299.995
300
300.001
300.001
300
299.999
299.998
299.996
299.993
299.991
300
300.001
300.001
300
299.999
299.997
299.993
299.991
299.989
300
300.001
300
300
300
300
300
299.999
299.998
299.997
299.996
300
300
300.001
300
300
299.998
299.997
299.996
299.993
300
300
300.001
300
299.999
299.997
299.995
299.993
299.991
300
300
300.001
300
300
300
300
300
300
300
299.999
299.998
299.997
300
300
300
300
300
299.999
299.998
299.997
299.996
299.999
300
300
300
300
299.998
299.997
299.996
299.994
299.999
300
300
300
299.999
299.998
)
;

boundaryField
{
    inlet
    {
        type            fixedValue;
        value           nonuniform 0();
    }
    outlet
    {
        type            zeroGradient;
    }
    wall
    {
        type            zeroGradient;
    }
    procBoundary5to1
    {
        type            processor;
        value           nonuniform List<scalar> 
32
(
300.001
299.999
299.998
299.996
299.994
299.992
300.002
300.001
299.999
299.997
299.993
299.991
299.988
300.002
300.002
300.001
299.999
299.995
299.992
299.989
299.986
300
300.001
300.001
300.001
300.001
300.001
300.001
300.001
300.001
300.001
300.001
)
;
    }
    procBoundary5to4
    {
        type            processor;
        value           nonuniform List<scalar> 
12
(
299.999
299.999
299.999
299.999
299.999
299.999
299.999
299.999
299.999
299.999
299.999
299.999
)
;
    }
    procBoundary5to7
    {
        type            processor;
        value           nonuniform List<scalar> 
44
(
300.001
300.002
300.001
299.999
299.995
299.992
299.989
299.987
300.001
300.001
300.001
300
299.999
299.995
299.992
299.99
299.989
300
300.001
300.001
300.001
300
299.999
299.997
299.994
299.992
299.99
300
300
300.001
299.999
300
299.999
299.997
299.996
299.995
299.994
299.999
300
300
300
299.999
299.996
299.998
)
;
    }
}


// ************************************************************************* //
