/*--------------------------------*- C++ -*----------------------------------*\
| =========                 |                                                 |
| \\      /  F ield         | OpenFOAM: The Open Source CFD Toolbox           |
|  \\    /   O peration     | Version:  4.x                                   |
|   \\  /    A nd           | Web:      www.OpenFOAM.org                      |
|    \\/     M anipulation  |                                                 |
\*---------------------------------------------------------------------------*/
FoamFile
{
    version     2.0;
    format      ascii;
    class       volScalarField;
    location    "3";
    object      thCond;
}
// * * * * * * * * * * * * * * * * * * * * * * * * * * * * * * * * * * * * * //

dimensions      [1 1 -3 -1 0 0 0];

internalField   nonuniform List<scalar> 
114
(
190.234
190.034
190.02
189.935
189.896
189.908
190.251
190.26
190.123
189.956
189.76
189.714
189.842
190.113
190.201
189.978
189.97
189.959
189.757
189.838
189.712
190.385
190.414
190.1
190.091
189.871
189.758
189.725
189.835
189.893
190.166
190.088
189.859
189.837
189.626
189.56
189.68
189.511
189.705
190
190.165
189.852
189.688
189.646
189.541
189.472
189.497
189.654
189.846
190.042
190.258
190.019
190.04
189.846
189.743
189.7
189.649
189.667
189.806
190.194
189.907
189.954
189.76
189.558
189.509
189.383
189.561
189.757
189.962
189.922
189.722
189.655
189.274
189.361
189.279
189.271
189.369
190.173
189.667
189.476
189.502
190.731
190.273
190.369
189.957
189.901
189.962
189.763
189.791
189.889
190.297
190.115
190.244
189.949
189.648
189.675
189.805
189.659
189.792
190.122
189.99
189.668
189.661
189.526
189.376
189.533
189.522
189.573
190.053
189.97
189.625
189.635
189.285
189.423
)
;

boundaryField
{
    inlet
    {
        type            zeroGradient;
    }
    outlet
    {
        type            zeroGradient;
    }
    wall
    {
        type            zeroGradient;
    }
    procBoundary5to1
    {
        type            processor;
        value           nonuniform List<scalar> 
32
(
190.643
190.645
190.303
190.334
190.578
190.923
190.914
190.694
190.508
190.343
190.287
190.354
190.819
190.733
190.752
190.298
190.242
190.114
190.142
190.171
190.682
190.767
190.673
190.275
190.275
190.275
190.492
190.138
190.138
190.138
190.387
190.387
)
;
    }
    procBoundary5to4
    {
        type            processor;
        value           nonuniform List<scalar> 
12
(
190.206
190.115
190.264
190.274
190.038
189.985
190.081
190.115
190.212
190.096
190.163
190.228
)
;
    }
    procBoundary5to7
    {
        type            processor;
        value           nonuniform List<scalar> 
44
(
189.966
190.02
189.853
189.474
189.409
189.522
189.745
189.555
190.015
189.966
189.801
189.617
189.552
189.437
189.286
189.333
189.466
190.221
189.801
189.753
189.801
189.617
189.558
189.511
189.375
189.46
189.568
189.934
189.75
189.662
189.558
189.711
189.558
189.511
189.616
189.598
189.687
190.085
189.982
189.667
189.635
189.715
189.616
189.845
)
;
    }
}


// ************************************************************************* //
