/*--------------------------------*- C++ -*----------------------------------*\
| =========                 |                                                 |
| \\      /  F ield         | OpenFOAM: The Open Source CFD Toolbox           |
|  \\    /   O peration     | Version:  4.x                                   |
|   \\  /    A nd           | Web:      www.OpenFOAM.org                      |
|    \\/     M anipulation  |                                                 |
\*---------------------------------------------------------------------------*/
FoamFile
{
    version     2.0;
    format      ascii;
    class       volVectorField;
    location    "3";
    object      Urel;
}
// * * * * * * * * * * * * * * * * * * * * * * * * * * * * * * * * * * * * * //

dimensions      [0 1 -1 0 0 0 0];

internalField   nonuniform List<vector> 
114
(
(-0.0303957 0.00135687 -0.00223963)
(-0.0296172 0.00124201 -0.00228934)
(-0.0320107 0.0010178 -0.00233381)
(-0.0304851 0.00176905 -0.00280868)
(-0.0331221 0.00245935 -0.00278643)
(-0.0267768 0.00809728 -0.00212621)
(-0.019618 0.00125022 -0.000916952)
(-0.0220887 0.00108784 -0.00113108)
(-0.0204022 0.000887921 -0.000950901)
(-0.0230496 0.000782849 -0.000662692)
(-0.0211775 0.00134683 -0.00106651)
(-0.023902 0.00180095 -0.00112858)
(-0.0200743 0.00812367 -0.00192079)
(-0.0176362 0.000798307 -0.000246135)
(-0.015717 0.000723078 -0.000287279)
(-0.0174561 0.000634108 -0.000177109)
(-0.0152665 0.000652253 -0.000116125)
(-0.0172655 0.000506288 0.000173735)
(-0.0148823 0.00106985 0.00014836)
(-0.0171792 0.00102957 0.000368381)
(-0.014469 0.00370981 -0.000877531)
(-0.0284196 0.00169206 -0.00235907)
(-0.0306359 0.00165013 -0.00214761)
(-0.0303467 0.000975062 -0.00198344)
(-0.032691 0.000459097 -0.00171018)
(-0.0320231 0.00059577 -0.00165753)
(-0.0341416 0.000709403 -0.0014805)
(-0.0324511 0.00166633 -0.00164612)
(-0.03407 0.00253533 -0.00150693)
(-0.0294083 0.00690896 -0.000308141)
(-0.0203278 0.00104996 -0.00110832)
(-0.0222988 0.000995558 -0.000810291)
(-0.01995 0.000906402 -0.000507999)
(-0.0236498 0.000773505 -0.000322884)
(-0.0223156 0.000650404 -0.000441664)
(-0.0250051 0.000664746 -9.38617e-05)
(-0.0226859 0.00143751 -0.000552644)
(-0.0249026 0.00226 -0.000680262)
(-0.0216448 0.00713853 -0.00118043)
(-0.0177295 0.000441541 -0.000645092)
(-0.0194234 0.000418137 -0.000358281)
(-0.0175908 0.000797258 -0.000282167)
(-0.0194765 0.00103503 -3.0972e-05)
(-0.0174898 0.000780772 -7.37861e-05)
(-0.0194421 0.000689616 0.000182378)
(-0.0167912 0.00141893 1.60637e-05)
(-0.0181906 0.00203597 1.11769e-05)
(-0.0150807 0.00436357 -0.00117357)
(-0.0169025 8.81847e-05 -0.000396596)
(-0.0186926 -2.5172e-05 -0.0002015)
(-0.0310469 0.000902728 -0.00223106)
(-0.0334199 0.000798694 -0.00194946)
(-0.0332416 0.000377256 -0.00155203)
(-0.0354147 0.000183627 -0.00110907)
(-0.0344804 0.000239985 -0.00112557)
(-0.0364239 0.000346134 -0.00102165)
(-0.0340312 0.00145187 -0.00159729)
(-0.0354057 0.00227532 -0.00169498)
(-0.0289941 0.00831422 -0.00427124)
(-0.0242954 0.000770874 -0.00134385)
(-0.0263957 0.000657354 -0.00108995)
(-0.0251567 0.000461495 -0.000485895)
(-0.0274916 0.000240904 0.000205041)
(-0.0257582 0.000277267 -0.000133857)
(-0.0282209 0.000310756 -3.89417e-05)
(-0.0253824 0.00118059 -0.000736884)
(-0.0273628 0.00182495 -0.00112864)
(-0.0235969 0.0075747 -0.00362176)
(-0.0213609 0.00045544 -0.000861188)
(-0.0232957 0.000461201 -0.000415046)
(-0.0218305 0.000438317 -0.000338476)
(-0.0237328 0.000254801 -2.12904e-05)
(-0.0218028 0.000344259 -4.38658e-05)
(-0.0240306 0.000286237 -3.40983e-05)
(-0.0214256 0.000870377 -0.000564349)
(-0.0232731 0.00121737 -0.000934544)
(-0.0198639 0.00374842 -0.00428833)
(-0.0203855 0.000248016 -0.000620951)
(-0.0220538 0.000345348 -0.000276764)
(-0.0204222 0.000143755 -0.000252427)
(-0.0219893 -1.26571e-05 -1.7865e-05)
(-0.0346907 0.000603284 -0.00179544)
(-0.0372434 0.00046954 -0.00149257)
(-0.037547 0.000154416 -0.0011104)
(-0.0394539 1.35436e-05 -0.000834211)
(-0.0386434 0.000192573 -0.000683248)
(-0.0403114 0.000405975 -0.00066869)
(-0.0379334 0.00163081 -0.00110559)
(-0.0392909 0.0027944 -0.00159017)
(-0.0315978 0.0093709 -0.00419051)
(-0.0300218 0.000756765 -0.00120595)
(-0.0323079 0.00063353 -0.000886417)
(-0.0316718 0.000354962 -0.000437221)
(-0.0333381 9.12276e-05 -0.000158669)
(-0.0314589 0.000219834 1.54844e-05)
(-0.0331468 0.000286828 5.47134e-05)
(-0.0300489 0.00124082 -0.000525699)
(-0.031396 0.00213433 -0.00104908)
(-0.026608 0.00828235 -0.00382105)
(-0.0278345 0.000542247 -0.00095372)
(-0.0299282 0.000533151 -0.000668138)
(-0.0292141 0.0003287 -0.000555378)
(-0.0308976 5.03253e-05 -0.000394383)
(-0.0293619 8.74342e-05 -0.000182584)
(-0.0310682 5.80638e-05 -0.000161837)
(-0.0287289 0.000533359 -0.000513759)
(-0.0299098 0.00111859 -0.00110532)
(-0.0254978 0.00149155 -0.0040203)
(-0.0269538 0.000698239 -0.00092777)
(-0.0285162 0.00105095 -0.000635439)
(-0.027351 0.000323504 -0.000678248)
(-0.0293104 -0.000111085 -0.000471079)
(-0.0279606 0.000144011 -0.000391613)
(-0.0299125 0.000129757 -0.000432753)
)
;

boundaryField
{
    inlet
    {
        type            calculated;
        value           nonuniform 0();
    }
    outlet
    {
        type            calculated;
        value           nonuniform List<vector> 
12
(
(-0.0323123 0.0367697 0.00950449)
(-0.00878824 0.0526865 -0.000727936)
(-0.000847027 0.012714 -0.00223955)
(-0.0473811 0.0124214 0.023951)
(-0.00626374 0.0277867 0.00425512)
(0.00937829 0.0197167 0.000995817)
(-0.015497 0.0312118 -0.0269927)
(-0.00305283 0.0348229 -0.0145308)
(-0.00321382 0.0135088 -0.0212764)
(-0.0299306 0.037254 -0.0135022)
(-0.00845229 0.0478223 -0.0116709)
(-0.0282173 -0.0252119 -0.00625966)
)
;
    }
    wall
    {
        type            calculated;
        value           nonuniform List<vector> 
66
(
(0.000157585 -5.76662e-06 9.11922e-05)
(0.000147201 1.27827e-05 0.000139906)
(0.00020947 -6.98794e-06 0.00035252)
(0.000246011 1.19743e-05 0.000270053)
(0.000137693 -3.09675e-06 0.000166083)
(0.000111723 3.9243e-05 9.56626e-05)
(0.000196073 3.9928e-05 0.000237263)
(0.000191284 1.89294e-05 0.000168513)
(0.000231316 -3.46862e-05 0.000315451)
(0.000234865 -5.74409e-05 0.000233445)
(0.0002653 -1.8539e-05 0.000123713)
(0.00022668 -3.37261e-05 0.000233406)
(0.000259022 -6.40239e-05 0.000311937)
(0.000254558 -1.68285e-05 0.000287156)
(0.000220874 2.37809e-05 0.000139408)
(0.00022064 4.3e-05 0.000279549)
(0.000173589 2.99458e-06 0.000108243)
(0.00028751 5.4947e-06 0.000219418)
(0.000192507 -1.51987e-05 0.000138846)
(0.000176747 -9.79275e-07 0.000249427)
(0.000214804 2.10568e-06 0.000203717)
(0.000157999 3.45652e-05 0.000200614)
(5.51547e-05 1.16904e-05 0.000130732)
(6.47442e-05 -4.65247e-05 0.0003189)
(0.000165177 -3.21888e-05 0.000168417)
(0.000152966 -2.65986e-07 0.000173779)
(9.10807e-05 3.17541e-05 0.000151485)
(9.61768e-05 2.01337e-06 0.000129348)
(0.000103334 -1.72812e-06 0.000177423)
(6.13224e-05 1.01802e-05 0.00015395)
(1.88583e-05 6.56318e-06 0.000109768)
(3.055e-05 4.53037e-05 0.000183505)
(9.39673e-06 2.88309e-05 0.00014075)
(0.000208045 -2.28346e-05 0.00030465)
(0.000203825 -7.04846e-06 0.000195685)
(0.000157585 -5.76662e-06 9.11922e-05)
(0.000267052 -2.05665e-05 0.000278485)
(0.000264023 -5.08205e-06 0.000232885)
(0.000137693 -3.09675e-06 0.000166083)
(0.000280329 -3.42948e-05 0.000271485)
(0.000208198 -1.74429e-05 0.000264425)
(0.000231316 -3.46862e-05 0.000315451)
(0.000259592 8.09933e-06 0.000290662)
(0.000243769 -3.35159e-05 0.000236675)
(0.000191839 -6.72088e-05 0.000258253)
(0.000259022 -6.40239e-05 0.000311937)
(0.000214959 1.51629e-06 0.000242978)
(0.000220502 -1.54725e-05 0.000199571)
(0.000178196 -2.83206e-05 0.000185141)
(0.000173589 2.99458e-06 0.000108243)
(0.000156849 2.41374e-05 0.000273722)
(0.00019334 -8.55505e-06 0.00024646)
(0.000197001 2.50302e-06 0.000208898)
(0.000214804 2.10568e-06 0.000203717)
(8.66899e-05 1.08436e-06 0.000263976)
(0.000157153 -4.83619e-05 0.000193809)
(0.000179224 -4.10718e-06 0.000163908)
(0.000165177 -3.21888e-05 0.000168417)
(6.68226e-05 -3.37902e-06 0.000248421)
(0.000127884 3.68707e-06 0.000147115)
(0.000110244 2.36875e-06 0.000160214)
(9.61768e-05 2.01337e-06 0.000129348)
(2.46091e-06 -2.095e-05 0.000321499)
(3.80872e-05 -1.8449e-05 0.00015078)
(2.42599e-05 -2.22826e-05 0.000147829)
(1.88583e-05 6.56318e-06 0.000109768)
)
;
    }
    procBoundary5to1
    {
        type            processor;
        value           nonuniform List<vector> 
32
(
(-0.0271621 0.00181202 -0.00222938)
(-0.026019 0.00146971 -0.00274696)
(-0.0280376 0.000979688 -0.00327449)
(-0.0263046 0.00126629 -0.00467434)
(-0.0280614 0.00165222 -0.00498055)
(-0.0223319 0.00587731 -0.00725297)
(-0.0177962 0.00172127 -0.00107143)
(-0.0194271 0.00141469 -0.00110797)
(-0.0174598 0.000998256 -0.0014702)
(-0.0196604 0.000719042 -0.00163681)
(-0.0178186 0.000952446 -0.00265639)
(-0.0203724 0.00121777 -0.00289149)
(-0.0170378 0.0056849 -0.0047279)
(-0.0154201 0.000828526 -0.000255295)
(-0.0132635 0.000801531 -0.000473191)
(-0.0145298 0.000649235 -0.000425751)
(-0.012346 0.000427021 -0.000511775)
(-0.0141087 0.000160578 -0.00045131)
(-0.0120794 0.000557553 -0.00101192)
(-0.0144453 0.00060578 -0.000896723)
(-0.012654 0.00245195 -0.00297233)
(-0.0265175 0.00194341 -0.00230085)
(-0.0285957 0.00190489 -0.00215419)
(-0.0281486 0.00167428 -0.00226831)
(-0.0281486 0.00167428 -0.00226831)
(-0.0281486 0.00167428 -0.00226831)
(-0.0193432 0.00138895 -0.000946046)
(-0.0212326 0.00141194 -0.000562391)
(-0.0212326 0.00141194 -0.000562391)
(-0.0212326 0.00141194 -0.000562391)
(-0.0160105 0.000641394 -0.000438095)
(-0.0160105 0.000641394 -0.000438095)
)
;
    }
    procBoundary5to4
    {
        type            processor;
        value           nonuniform List<vector> 
12
(
(-0.0286785 0.00174512 -0.00249395)
(-0.0222614 0.00112998 -0.00140277)
(-0.0194856 0.000440709 -0.000888335)
(-0.0188728 0.00035534 -0.000795026)
(-0.030976 0.00105324 -0.00245254)
(-0.0252746 0.000814401 -0.00166686)
(-0.0226977 0.000478067 -0.00120409)
(-0.0219218 0.000249423 -0.00106526)
(-0.0339523 0.000807107 -0.00204561)
(-0.0303086 0.000847628 -0.00152469)
(-0.0284035 0.000496826 -0.00128549)
(-0.0276827 0.000496363 -0.00126945)
)
;
    }
    procBoundary5to7
    {
        type            processor;
        value           nonuniform List<vector> 
44
(
(-0.0174793 0.000206752 1.20515e-05)
(-0.0152308 -0.000119428 1.20764e-05)
(-0.0168997 -0.000377259 0.000267643)
(-0.0142081 -0.000344839 0.000459167)
(-0.0158467 -0.000479036 0.00108228)
(-0.0127309 -0.000398858 0.00149957)
(-0.0138014 -0.000647027 0.002146)
(-0.0116294 -0.000203621 0.00168448)
(-0.0156514 0.000118392 -0.000127384)
(-0.0174793 0.000206752 1.20515e-05)
(-0.0167312 2.10034e-05 -8.87055e-05)
(-0.0180438 -6.04115e-05 0.000266361)
(-0.015392 -3.47325e-05 0.000260379)
(-0.0167211 -0.000120743 0.000507767)
(-0.0132138 -1.61914e-05 0.000241891)
(-0.0126708 -0.000315978 0.000587408)
(-0.00903551 0.000303091 -0.000308269)
(-0.0163826 -0.000470801 -0.000138364)
(-0.0167312 2.10034e-05 -8.87055e-05)
(-0.0191151 -0.000438468 1.64065e-05)
(-0.0167312 2.10034e-05 -8.87055e-05)
(-0.0180438 -6.04115e-05 0.000266361)
(-0.0200573 0.000175926 -8.46093e-05)
(-0.0217233 0.000162675 -0.000177948)
(-0.0193823 0.000361493 -0.001279)
(-0.0203636 -0.000107343 -0.00160645)
(-0.0171048 0.00105498 -0.00634086)
(-0.0203815 -0.000257426 -0.000285352)
(-0.0220001 -0.000130415 0.000618941)
(-0.0202425 -0.000143896 -0.000247136)
(-0.0200573 0.000175926 -8.46093e-05)
(-0.0220168 -0.000102625 -0.000293623)
(-0.0200573 0.000175926 -8.46093e-05)
(-0.0217233 0.000162675 -0.000177948)
(-0.0279838 0.0003902 -0.00113705)
(-0.030022 0.000172354 -0.00181843)
(-0.0244554 0.00155961 -0.00630462)
(-0.0250149 -0.000124037 -0.000389545)
(-0.0258545 -2.03406e-05 -6.44888e-05)
(-0.02245 3.50246e-05 -0.000748889)
(-0.026359 0.00019236 -0.000693329)
(-0.023672 0.000176137 -0.000274711)
(-0.0279838 0.0003902 -0.00113705)
(-0.0266421 0.000176956 -0.000453076)
)
;
    }
}


// ************************************************************************* //
