/*--------------------------------*- C++ -*----------------------------------*\
| =========                 |                                                 |
| \\      /  F ield         | OpenFOAM: The Open Source CFD Toolbox           |
|  \\    /   O peration     | Version:  4.x                                   |
|   \\  /    A nd           | Web:      www.OpenFOAM.org                      |
|    \\/     M anipulation  |                                                 |
\*---------------------------------------------------------------------------*/
FoamFile
{
    version     2.0;
    format      ascii;
    class       volScalarField;
    location    "18.5";
    object      magGField;
}
// * * * * * * * * * * * * * * * * * * * * * * * * * * * * * * * * * * * * * //

dimensions      [1 -2 -1 0 0 0 0];

internalField   nonuniform List<scalar> 
114
(
56.9774
109.146
65.7754
114.638
72.9289
120.247
96.3622
45.0434
101.527
53.9876
106.188
61.1224
111.263
67.6679
116.966
97.2833
46.8617
103.503
57.8208
109.491
65.966
114.655
72.9856
119.795
97.762
50.7569
106.615
64.4207
115.232
75.224
123.013
84.5033
129.925
31.3922
92.5682
26.5577
92.1663
94.7392
38.5535
94.6009
36.0022
94.1555
33.1294
94.164
28.8676
95.4012
95.1559
39.9081
95.544
39.6412
96.3113
39.4239
97.3738
37.0004
97.4576
95.8779
46.2035
100.581
53.5663
105.493
59.9632
110.307
64.6658
114.795
4.79766
84.6207
93.0048
35.4156
90.5212
27.9952
88.5765
21.0723
87.0285
13.0788
86.5152
93.9029
36.5026
91.5957
30.0333
89.7885
23.9216
88.4801
15.3651
87.3587
94.8361
42.6159
96.7706
45.9118
99.3146
49.107
100.505
50.0713
102.335
92.1479
34.1807
88.9245
27.4091
87.9563
22.3451
87.8595
17.015
92.2093
36.3301
89.8889
31.1324
88.8823
26.6552
88.715
93.9872
43.1437
95.7796
45.4702
97.692
47.3095
)
;

boundaryField
{
    inlet
    {
        type            calculated;
        value           uniform 67;
    }
    outlet
    {
        type            calculated;
        value           nonuniform 0();
    }
    wall
    {
        type            calculated;
        value           uniform 0;
    }
    procBoundary2to0
    {
        type            processor;
        value           nonuniform List<scalar> 
44
(
56.3306
109.205
63.6402
114.081
69.2208
116.637
98.2818
47.0034
104.164
104.164
36.2296
93.5891
32.9539
94.809
27.2817
94.8976
94.3105
38.3225
94.8981
36.2296
93.5891
93.5891
12.2162
84.9019
6.56391
85.5316
92.4137
32.3161
88.8579
21.6494
86.0226
12.2162
84.9019
84.9019
12.5467
84.6495
92.3631
33.7501
88.0512
24.0848
86.2025
17.5779
85.1489
12.5467
)
;
    }
    procBoundary2to3
    {
        type            processor;
        value           nonuniform List<scalar> 
12
(
76.6442
72.3022
77.4813
92.604
20.0705
23.7274
30.9344
67.4392
0.000527242
4.57458
7.12757
48.7462
)
;
    }
    procBoundary2to6
    {
        type            processor;
        value           nonuniform List<scalar> 
32
(
88.2572
22.7882
89.4803
99.866
49.1871
102.44
90.0163
29.9946
85.4838
16.9245
82.0418
6.21854
80.4941
88.2572
22.7882
0.000280973
91.7524
34.0549
88.4046
26.2008
85.8927
19.5316
22.7882
99.866
84.2917
93.8851
41.7853
94.1624
41.9717
93.3053
99.866
39.7778
)
;
    }
}


// ************************************************************************* //
