/*--------------------------------*- C++ -*----------------------------------*\
| =========                 |                                                 |
| \\      /  F ield         | OpenFOAM: The Open Source CFD Toolbox           |
|  \\    /   O peration     | Version:  4.x                                   |
|   \\  /    A nd           | Web:      www.OpenFOAM.org                      |
|    \\/     M anipulation  |                                                 |
\*---------------------------------------------------------------------------*/
FoamFile
{
    version     2.0;
    format      ascii;
    class       volScalarField;
    location    "18.5";
    object      Qsource;
}
// * * * * * * * * * * * * * * * * * * * * * * * * * * * * * * * * * * * * * //

dimensions      [1 -1 -3 0 0 0 0];

internalField   nonuniform List<scalar> 
114
(
7.71338e+09
6.49212e+09
3.69167e+09
6.93937e+09
3.49665e+09
4.03076e+09
6.61615e+09
7.40572e+09
6.97479e+09
4.95199e+09
8.25483e+09
5.64694e+09
8.00571e+09
7.54343e+09
5.50429e+09
4.68872e+09
6.6527e+09
5.95937e+09
5.97193e+09
6.71015e+09
5.88917e+09
7.74669e+09
6.15309e+09
7.52385e+09
5.63609e+09
4.99885e+09
6.92025e+09
5.73871e+09
5.8432e+09
5.43319e+09
5.0598e+09
6.81412e+09
6.05725e+09
9.92931e+09
1.22414e+10
6.65663e+09
1.11974e+10
4.71274e+09
7.98318e+09
9.59822e+09
9.29109e+09
8.92237e+09
7.21986e+09
1.1289e+10
8.93656e+09
6.47452e+09
5.83055e+09
1.0058e+10
1.06289e+10
9.23384e+09
9.43675e+09
8.93645e+09
9.18655e+09
9.00991e+09
7.72274e+09
5.86714e+09
5.86758e+09
9.17278e+09
6.54796e+09
8.45083e+09
7.11909e+09
7.62077e+09
7.72628e+09
5.75118e+09
7.8769e+09
9.18381e+09
6.84325e+09
5.77685e+09
6.7599e+09
6.88973e+09
6.79838e+09
7.89093e+09
9.91649e+09
7.34027e+09
5.76547e+09
4.96849e+09
6.99198e+09
9.0666e+09
1.05552e+10
9.18229e+09
7.12269e+09
9.4765e+09
8.54748e+09
1.02121e+10
5.798e+09
8.05602e+09
7.77421e+09
7.97185e+09
5.61395e+09
7.32828e+09
1.05082e+10
5.87659e+09
8.56435e+09
4.8813e+09
9.55903e+09
1.03316e+10
7.41043e+09
8.30946e+09
6.46297e+09
7.64964e+09
7.95978e+09
5.85432e+09
7.9542e+09
1.04973e+10
6.65504e+09
9.09045e+09
7.73344e+09
1.02864e+10
5.04992e+09
6.76664e+09
8.29542e+09
7.71458e+09
7.54353e+09
6.95577e+09
)
;

boundaryField
{
    inlet
    {
        type            calculated;
        value           uniform 0;
    }
    outlet
    {
        type            calculated;
        value           nonuniform 0();
    }
    wall
    {
        type            calculated;
        value           uniform 0;
    }
    procBoundary2to0
    {
        type            processor;
        value           nonuniform List<scalar> 
44
(
5.63613e+09
6.47416e+09
5.52539e+09
4.95592e+09
5.86636e+09
9.49534e+09
3.79526e+09
5.00924e+09
4.37975e+09
4.37975e+09
5.54362e+09
1.13221e+10
7.72429e+09
1.05424e+10
7.00445e+09
6.33686e+09
7.9299e+09
7.07643e+09
7.76844e+09
5.54362e+09
1.13221e+10
1.13221e+10
8.05212e+09
8.67845e+09
6.32517e+09
5.35512e+09
6.87923e+09
8.70035e+09
9.53652e+09
9.02077e+09
9.94862e+09
8.05212e+09
8.67845e+09
8.67845e+09
5.65661e+09
2.61647e+09
4.82025e+09
6.78128e+09
9.66722e+09
1.05298e+10
5.51909e+09
1.00027e+10
8.56435e+09
5.65661e+09
)
;
    }
    procBoundary2to3
    {
        type            processor;
        value           nonuniform List<scalar> 
12
(
9.29715e+09
7.1584e+09
7.39993e+09
5.95336e+09
8.55055e+09
7.83845e+09
1.2815e+10
9.07356e+09
8.08572e+09
9.63761e+09
6.03182e+09
9.24918e+09
)
;
    }
    procBoundary2to6
    {
        type            processor;
        value           nonuniform List<scalar> 
32
(
8.16243e+09
6.74298e+09
8.87243e+09
6.50089e+09
6.67433e+09
6.43786e+09
9.94279e+09
8.99414e+09
6.09563e+09
8.13456e+09
1.11518e+10
6.24106e+09
8.75197e+09
8.16243e+09
6.74298e+09
6.69828e+09
6.27791e+09
9.26509e+09
8.15034e+09
1.02894e+10
8.83103e+09
8.84243e+09
6.74298e+09
6.50089e+09
8.72518e+09
5.46033e+09
8.03786e+09
6.7393e+09
6.57442e+09
9.44654e+09
6.50089e+09
9.84967e+09
)
;
    }
}


// ************************************************************************* //
