/*--------------------------------*- C++ -*----------------------------------*\
| =========                 |                                                 |
| \\      /  F ield         | OpenFOAM: The Open Source CFD Toolbox           |
|  \\    /   O peration     | Version:  4.x                                   |
|   \\  /    A nd           | Web:      www.OpenFOAM.org                      |
|    \\/     M anipulation  |                                                 |
\*---------------------------------------------------------------------------*/
FoamFile
{
    version     2.0;
    format      ascii;
    class       volVectorField;
    location    "18.5";
    object      UsNext;
}
// * * * * * * * * * * * * * * * * * * * * * * * * * * * * * * * * * * * * * //

dimensions      [0 1 -1 0 0 0 0];

internalField   nonuniform List<vector> 
114
(
(1.34454e-08 -1.87396e-08 -3.0243e-08)
(-1.74475e-08 -2.35205e-08 -4.25734e-08)
(-7.78878e-08 -3.7398e-08 -2.34714e-08)
(-1.10663e-07 -2.65764e-08 -3.371e-08)
(-1.4212e-07 -1.53277e-08 -3.77641e-08)
(-1.72594e-07 7.79558e-09 -3.89169e-08)
(1.79676e-07 -6.95148e-08 -1.53842e-08)
(2.7142e-08 -8.82472e-09 -1.38185e-08)
(2.4215e-08 -8.77154e-09 -2.7306e-08)
(9.29504e-09 -1.16137e-08 -2.86458e-08)
(-2.10173e-08 -1.66925e-08 -3.03647e-08)
(-7.86235e-08 -2.11949e-08 -1.54265e-08)
(-1.31595e-07 -2.0629e-08 -1.84322e-08)
(-1.62824e-07 -2.7379e-08 -3.38809e-08)
(-1.70603e-07 5.54841e-09 -3.57561e-08)
(2.03501e-08 -7.30064e-09 -1.03835e-08)
(2.75687e-08 -1.59036e-09 -1.56591e-08)
(2.23552e-08 1.00221e-09 -2.7172e-08)
(7.13872e-10 1.27901e-08 -3.36397e-08)
(-2.45955e-08 7.92123e-09 -3.07293e-08)
(-7.14344e-08 1.55281e-09 -6.18483e-09)
(-1.16275e-07 -1.83244e-08 -1.4342e-08)
(-1.50523e-07 5.60484e-09 -2.08596e-08)
(-1.49383e-07 9.60844e-09 -3.33245e-08)
(3.77004e-08 -9.77576e-10 -2.02482e-09)
(2.29541e-08 1.79949e-09 -9.41273e-09)
(2.13073e-08 1.56065e-10 -2.19721e-08)
(2.43402e-08 -3.04485e-09 -1.34492e-08)
(-8.28479e-10 1.6233e-08 -1.0082e-08)
(-2.65843e-08 5.65882e-09 2.1167e-09)
(-6.36299e-08 -8.16191e-09 -1.78722e-08)
(-8.78625e-08 3.21499e-08 -9.65572e-09)
(-9.11427e-08 1.99814e-08 -2.19349e-08)
(-6.91577e-08 -3.24258e-08 -2.48312e-08)
(-1.02736e-07 -2.91017e-08 -3.52639e-08)
(-1.43119e-07 -1.31666e-08 -3.21065e-08)
(-1.60623e-07 4.30964e-09 -3.41664e-08)
(1.54956e-08 -6.29036e-09 -5.48869e-09)
(2.68622e-08 -9.79737e-09 -1.50592e-08)
(2.38728e-08 -9.18642e-09 -2.54215e-08)
(5.65296e-09 -6.55498e-09 -2.76373e-08)
(-1.1505e-08 -1.12023e-08 -2.57431e-08)
(-7.71774e-08 -2.65519e-08 -9.639e-09)
(-1.16755e-07 -2.3925e-08 -1.92128e-08)
(-1.44028e-07 -1.71149e-08 -3.14678e-08)
(-1.6512e-07 -4.71538e-10 -3.27962e-08)
(2.42257e-08 -4.73183e-09 -8.88494e-09)
(2.48336e-08 -5.22749e-09 -1.44684e-08)
(2.10921e-08 -1.95614e-09 -2.2344e-08)
(8.46234e-09 -1.27462e-09 -2.70412e-08)
(-1.63665e-08 4.19864e-09 -1.454e-08)
(-5.50582e-08 -3.30621e-09 -7.65174e-09)
(-9.56172e-08 -6.92412e-09 -1.06164e-08)
(-1.22141e-07 -6.81415e-09 -2.09003e-08)
(-1.41071e-07 -2.21855e-09 -2.83033e-08)
(1.84783e-08 -2.08528e-09 -4.8914e-09)
(2.23564e-08 -9.5138e-10 -1.30473e-08)
(1.74008e-08 5.39179e-10 -1.74571e-08)
(6.09694e-09 2.52933e-09 -1.25216e-08)
(-5.43942e-09 5.20732e-09 -4.21565e-10)
(-2.03377e-08 2.7133e-09 -3.17607e-09)
(-4.63757e-08 5.49543e-10 -1.45719e-08)
(-6.70692e-08 2.44493e-09 -1.21093e-08)
(-5.33843e-08 3.33783e-10 -1.43259e-08)
(-1.33181e-07 -1.73162e-08 -2.60132e-08)
(-1.55501e-07 9.97879e-10 -2.85698e-08)
(1.80931e-08 -2.10537e-09 -5.04685e-09)
(2.70028e-08 -8.35256e-09 -1.16216e-08)
(2.53513e-08 -8.91207e-09 -2.00145e-08)
(1.14772e-09 -5.32342e-09 -2.62282e-08)
(-2.11418e-08 -1.28678e-08 -2.49377e-08)
(-6.51139e-08 -2.08221e-08 -1.61511e-08)
(-8.69464e-08 -1.73841e-08 -2.30086e-08)
(-1.22197e-07 -1.6669e-08 -2.6905e-08)
(-1.45508e-07 -5.44845e-09 -2.72383e-08)
(1.75613e-08 -3.85272e-09 -4.90459e-09)
(2.75298e-08 -6.32457e-09 -9.01345e-09)
(1.97472e-08 -3.42524e-09 -1.99443e-08)
(7.74233e-09 -3.44481e-09 -2.12901e-08)
(-1.75308e-08 -1.47399e-09 -1.19801e-08)
(-4.91435e-08 -8.52916e-09 -9.37011e-09)
(-7.46025e-08 -3.81592e-09 -1.5119e-08)
(-1.0382e-07 -1.23217e-08 -2.01376e-08)
(-1.24252e-07 -8.39608e-09 -2.3332e-08)
(1.67365e-08 -4.41553e-09 -4.98739e-09)
(2.2895e-08 -4.13786e-09 -9.15531e-09)
(1.9776e-08 1.67877e-09 -9.28534e-09)
(8.73318e-09 2.22097e-09 -1.00393e-08)
(-5.97184e-09 4.19659e-09 -6.34542e-09)
(-1.96476e-08 1.8417e-09 -8.07724e-09)
(-3.83009e-08 2.72512e-09 -7.35304e-09)
(-5.42781e-08 4.65354e-09 -1.59954e-08)
(-7.22768e-08 -1.1172e-08 -1.93866e-08)
(1.62435e-08 -1.29955e-09 -3.59396e-09)
(2.78702e-08 -7.22059e-09 -7.82753e-09)
(2.77171e-08 -9.77758e-09 -1.31768e-08)
(7.44371e-09 -8.44272e-09 -1.5098e-08)
(-1.96928e-08 -1.53367e-08 -1.48864e-08)
(-5.75388e-08 -1.36932e-08 -1.0793e-08)
(-8.60516e-08 -1.25655e-08 -1.88912e-08)
(-1.18877e-07 -1.30454e-08 -1.99276e-08)
(1.40931e-08 -1.90584e-09 -1.1155e-09)
(3.05092e-08 -4.77261e-09 -7.83992e-09)
(2.48185e-08 -1.20466e-09 -1.15432e-08)
(9.81463e-09 -9.35106e-10 -1.24547e-08)
(-1.6789e-08 -5.32808e-09 -1.03152e-08)
(-4.24911e-08 -9.71269e-09 -1.13161e-08)
(-6.18179e-08 -3.56482e-09 -1.58428e-08)
(1.2309e-08 -1.52079e-09 -2.17259e-09)
(1.85279e-08 -5.37773e-09 -7.27202e-09)
(2.46661e-08 -1.77037e-09 -8.28511e-09)
(1.35229e-08 2.0269e-09 -5.05309e-09)
(-4.34367e-09 1.78271e-09 -7.33378e-09)
(-1.80729e-08 -9.84393e-10 -5.77461e-09)
)
;

boundaryField
{
    inlet
    {
        type            calculated;
        value           nonuniform List<vector> 
12
(
(1.79676e-07 -6.95148e-08 -1.53842e-08)
(2.03501e-08 -7.30064e-09 -1.03835e-08)
(3.77004e-08 -9.77576e-10 -2.02482e-09)
(1.54956e-08 -6.29036e-09 -5.48869e-09)
(2.42257e-08 -4.73183e-09 -8.88494e-09)
(1.84783e-08 -2.08528e-09 -4.8914e-09)
(1.80931e-08 -2.10537e-09 -5.04685e-09)
(1.75613e-08 -3.85272e-09 -4.90459e-09)
(1.67365e-08 -4.41553e-09 -4.98739e-09)
(1.62435e-08 -1.29955e-09 -3.59396e-09)
(1.40931e-08 -1.90584e-09 -1.1155e-09)
(1.2309e-08 -1.52079e-09 -2.17259e-09)
)
;
    }
    outlet
    {
        type            calculated;
        value           nonuniform 0();
    }
    wall
    {
        type            calculated;
        value           nonuniform List<vector> 
66
(
(1.79676e-07 -6.95148e-08 -1.53842e-08)
(2.03501e-08 -7.30064e-09 -1.03835e-08)
(3.77004e-08 -9.77576e-10 -2.02482e-09)
(2.7142e-08 -8.82472e-09 -1.38185e-08)
(2.75687e-08 -1.59036e-09 -1.56591e-08)
(2.29541e-08 1.79949e-09 -9.41273e-09)
(2.4215e-08 -8.77154e-09 -2.7306e-08)
(2.23552e-08 1.00221e-09 -2.7172e-08)
(2.13073e-08 1.56065e-10 -2.19721e-08)
(1.34454e-08 -1.87396e-08 -3.0243e-08)
(9.29504e-09 -1.16137e-08 -2.86458e-08)
(7.13872e-10 1.27901e-08 -3.36397e-08)
(2.43402e-08 -3.04485e-09 -1.34492e-08)
(-1.74475e-08 -2.35205e-08 -4.25734e-08)
(-2.10173e-08 -1.66925e-08 -3.03647e-08)
(-2.45955e-08 7.92123e-09 -3.07293e-08)
(-8.28479e-10 1.6233e-08 -1.0082e-08)
(-7.78878e-08 -3.7398e-08 -2.34714e-08)
(-7.86235e-08 -2.11949e-08 -1.54265e-08)
(-7.14344e-08 1.55281e-09 -6.18483e-09)
(-2.65843e-08 5.65882e-09 2.1167e-09)
(-1.10663e-07 -2.65764e-08 -3.371e-08)
(-1.31595e-07 -2.0629e-08 -1.84322e-08)
(-1.16275e-07 -1.83244e-08 -1.4342e-08)
(-6.36299e-08 -8.16191e-09 -1.78722e-08)
(-1.4212e-07 -1.53277e-08 -3.77641e-08)
(-1.62824e-07 -2.7379e-08 -3.38809e-08)
(-1.50523e-07 5.60484e-09 -2.08596e-08)
(-8.78625e-08 3.21499e-08 -9.65572e-09)
(-1.72594e-07 7.79558e-09 -3.89169e-08)
(-1.70603e-07 5.54841e-09 -3.57561e-08)
(-1.49383e-07 9.60844e-09 -3.33245e-08)
(-9.11427e-08 1.99814e-08 -2.19349e-08)
(3.77004e-08 -9.77576e-10 -2.02482e-09)
(1.84783e-08 -2.08528e-09 -4.8914e-09)
(1.67365e-08 -4.41553e-09 -4.98739e-09)
(1.2309e-08 -1.52079e-09 -2.17259e-09)
(2.29541e-08 1.79949e-09 -9.41273e-09)
(2.23564e-08 -9.5138e-10 -1.30473e-08)
(2.2895e-08 -4.13786e-09 -9.15531e-09)
(1.85279e-08 -5.37773e-09 -7.27202e-09)
(2.13073e-08 1.56065e-10 -2.19721e-08)
(1.74008e-08 5.39179e-10 -1.74571e-08)
(1.9776e-08 1.67877e-09 -9.28534e-09)
(2.46661e-08 -1.77037e-09 -8.28511e-09)
(2.43402e-08 -3.04485e-09 -1.34492e-08)
(6.09694e-09 2.52933e-09 -1.25216e-08)
(8.73318e-09 2.22097e-09 -1.00393e-08)
(1.35229e-08 2.0269e-09 -5.05309e-09)
(-8.28479e-10 1.6233e-08 -1.0082e-08)
(-5.43942e-09 5.20732e-09 -4.21565e-10)
(-5.97184e-09 4.19659e-09 -6.34542e-09)
(-4.34367e-09 1.78271e-09 -7.33378e-09)
(-2.65843e-08 5.65882e-09 2.1167e-09)
(-2.03377e-08 2.7133e-09 -3.17607e-09)
(-1.96476e-08 1.8417e-09 -8.07724e-09)
(-1.80729e-08 -9.84393e-10 -5.77461e-09)
(-6.36299e-08 -8.16191e-09 -1.78722e-08)
(-4.63757e-08 5.49543e-10 -1.45719e-08)
(-3.83009e-08 2.72512e-09 -7.35304e-09)
(-8.78625e-08 3.21499e-08 -9.65572e-09)
(-6.70692e-08 2.44493e-09 -1.21093e-08)
(-5.42781e-08 4.65354e-09 -1.59954e-08)
(-9.11427e-08 1.99814e-08 -2.19349e-08)
(-5.33843e-08 3.33783e-10 -1.43259e-08)
(-7.22768e-08 -1.1172e-08 -1.93866e-08)
)
;
    }
    procBoundary2to0
    {
        type            processor;
        value           nonuniform List<vector> 
44
(
(1.00738e-08 -2.74492e-08 -3.74965e-08)
(-1.17592e-08 -3.74831e-08 -4.74373e-08)
(-5.97935e-08 -3.79144e-08 -3.69001e-08)
(-8.90775e-08 -2.99838e-08 -3.30944e-08)
(-1.30923e-07 -2.37504e-08 -3.07845e-08)
(-1.60386e-07 -2.14987e-09 -3.10757e-08)
(1.23953e-08 -4.65753e-09 -8.11654e-09)
(2.96279e-08 -8.32609e-09 -1.59193e-08)
(2.77658e-08 -1.39e-08 -2.36986e-08)
(2.77658e-08 -1.39e-08 -2.36986e-08)
(2.49697e-09 -2.04038e-08 -3.08445e-08)
(-1.77352e-08 -2.87304e-08 -2.40572e-08)
(-6.2252e-08 -3.14161e-08 -3.61864e-08)
(-9.72701e-08 -2.87978e-08 -3.56794e-08)
(-1.23269e-07 -1.12506e-08 -2.86557e-08)
(-1.49541e-07 7.06604e-09 -2.77101e-08)
(1.81235e-08 -7.07823e-09 -8.30697e-09)
(2.74959e-08 -1.25318e-08 -1.53356e-08)
(2.78089e-08 -2.06616e-08 -2.60012e-08)
(2.49697e-09 -2.04038e-08 -3.08445e-08)
(-1.77352e-08 -2.87304e-08 -2.40572e-08)
(-1.77352e-08 -2.87304e-08 -2.40572e-08)
(-5.98796e-08 -2.50068e-08 -2.05243e-08)
(-9.96035e-08 -1.851e-08 -3.23198e-08)
(-1.25018e-07 -1.26789e-08 -2.61947e-08)
(-1.46766e-07 -2.45806e-09 -1.85426e-08)
(1.7191e-08 -4.82207e-09 -7.11682e-09)
(2.79808e-08 -1.08339e-08 -1.46295e-08)
(3.01048e-08 -2.00413e-08 -2.21125e-08)
(8.28449e-09 -1.72908e-08 -2.67953e-08)
(-3.23643e-08 -2.27319e-08 -2.09519e-08)
(-5.98796e-08 -2.50068e-08 -2.05243e-08)
(-9.96035e-08 -1.851e-08 -3.23198e-08)
(-9.96035e-08 -1.851e-08 -3.23198e-08)
(-1.18152e-07 -1.50882e-08 -2.38271e-08)
(-1.45439e-07 -2.71665e-09 -2.44893e-08)
(2.15658e-08 -4.29279e-09 -6.90386e-09)
(3.06138e-08 -8.04123e-09 -1.11894e-08)
(3.66837e-08 -1.17942e-08 -1.38955e-08)
(7.10796e-09 -1.84611e-08 -1.80845e-08)
(-2.22162e-08 -2.58872e-08 -2.18939e-08)
(-6.70753e-08 -2.09805e-08 -2.22904e-08)
(-1.02658e-07 -1.75031e-08 -2.81319e-08)
(-1.18152e-07 -1.50882e-08 -2.38271e-08)
)
;
    }
    procBoundary2to3
    {
        type            processor;
        value           nonuniform List<vector> 
12
(
(-1.77911e-07 1.89497e-08 -3.57148e-08)
(-1.79459e-07 8.65373e-09 -3.57099e-08)
(-1.50253e-07 -8.41104e-11 -2.64572e-08)
(-7.65931e-08 -1.13092e-09 -9.82497e-09)
(-1.83771e-07 1.9662e-08 -2.90059e-08)
(-1.71971e-07 7.02817e-09 -3.04856e-08)
(-1.4935e-07 -5.65861e-09 -3.01439e-08)
(-9.21631e-08 -5.39566e-09 -1.99483e-08)
(-1.78047e-07 1.85547e-08 -2.17761e-08)
(-1.64847e-07 1.49101e-08 -2.65423e-08)
(-1.47247e-07 1.40519e-08 -1.95293e-08)
(-9.0548e-08 1.15385e-08 -2.21114e-08)
)
;
    }
    procBoundary2to6
    {
        type            processor;
        value           nonuniform List<vector> 
32
(
(-1.31729e-07 -5.22028e-09 -1.81111e-08)
(-9.0909e-08 -1.31988e-08 -1.55069e-08)
(-1.16468e-07 -1.21635e-09 -1.99779e-08)
(-2.33474e-08 -1.7759e-09 -6.69272e-09)
(-4.79537e-08 -7.17966e-09 -1.63648e-08)
(-3.96881e-08 -1.52568e-09 -1.68441e-08)
(1.96808e-08 -2.03591e-09 -1.82602e-09)
(2.75968e-08 -7.52998e-09 -4.47814e-09)
(2.96274e-08 -9.60112e-09 -6.61938e-09)
(1.62218e-08 -1.25657e-08 -7.67067e-09)
(-1.73556e-08 -1.14869e-08 -1.0896e-08)
(-5.87452e-08 -1.82486e-08 -5.13795e-09)
(-7.70742e-08 -1.9486e-08 -9.76684e-09)
(-1.31729e-07 -5.22028e-09 -1.81111e-08)
(-9.0909e-08 -1.31988e-08 -1.55069e-08)
(-9.9566e-08 -1.51036e-08 -1.171e-08)
(2.70292e-08 1.09636e-09 -1.60667e-10)
(3.15645e-08 -5.17247e-09 -3.61757e-09)
(3.34584e-08 -3.79963e-09 -5.03147e-09)
(1.06742e-08 -4.31559e-09 -3.67131e-09)
(-6.63515e-09 -6.68452e-10 -9.98294e-09)
(-3.73888e-08 -6.71096e-09 -7.62688e-09)
(-9.0909e-08 -1.31988e-08 -1.55069e-08)
(-2.33474e-08 -1.7759e-09 -6.69272e-09)
(-6.65804e-08 -8.40861e-09 -1.37187e-08)
(8.95541e-09 1.0979e-09 -2.85352e-09)
(3.22953e-08 -2.95756e-09 -5.02959e-09)
(1.70326e-08 3.65478e-09 -2.49018e-09)
(9.11465e-09 1.68346e-09 -2.08423e-09)
(1.06861e-09 1.91043e-09 -2.97304e-09)
(-2.33474e-08 -1.7759e-09 -6.69272e-09)
(-1.7918e-08 -1.21883e-10 -3.66229e-09)
)
;
    }
}


// ************************************************************************* //
