/*--------------------------------*- C++ -*----------------------------------*\
| =========                 |                                                 |
| \\      /  F ield         | OpenFOAM: The Open Source CFD Toolbox           |
|  \\    /   O peration     | Version:  4.x                                   |
|   \\  /    A nd           | Web:      www.OpenFOAM.org                      |
|    \\/     M anipulation  |                                                 |
\*---------------------------------------------------------------------------*/
FoamFile
{
    version     2.0;
    format      ascii;
    class       volVectorField;
    location    "18.5";
    object      UsPrev;
}
// * * * * * * * * * * * * * * * * * * * * * * * * * * * * * * * * * * * * * //

dimensions      [0 1 -1 0 0 0 0];

internalField   nonuniform List<vector> 
114
(
(1.4075e-08 -1.88792e-08 -3.02765e-08)
(-1.70052e-08 -2.39706e-08 -4.26495e-08)
(-7.76984e-08 -3.78039e-08 -2.35989e-08)
(-1.10724e-07 -2.69028e-08 -3.38053e-08)
(-1.42266e-07 -1.55334e-08 -3.78723e-08)
(-1.72744e-07 7.70918e-09 -3.90191e-08)
(1.79845e-07 -6.91067e-08 -1.53981e-08)
(2.73629e-08 -8.47161e-09 -1.38002e-08)
(2.45826e-08 -8.57482e-09 -2.73092e-08)
(9.7368e-09 -1.16239e-08 -2.86615e-08)
(-2.06877e-08 -1.68587e-08 -3.04043e-08)
(-7.84585e-08 -2.13913e-08 -1.54777e-08)
(-1.31554e-07 -2.07984e-08 -1.84857e-08)
(-1.62881e-07 -2.74951e-08 -3.39442e-08)
(-1.70702e-07 5.47921e-09 -3.58273e-08)
(2.03966e-08 -7.16237e-09 -1.03871e-08)
(2.77072e-08 -1.42545e-09 -1.56551e-08)
(2.25718e-08 1.09241e-09 -2.71781e-08)
(9.46624e-10 1.28279e-08 -3.36515e-08)
(-2.42981e-08 7.87111e-09 -3.07545e-08)
(-7.1282e-08 1.47546e-09 -6.20849e-09)
(-1.162e-07 -1.8418e-08 -1.43782e-08)
(-1.5053e-07 5.53722e-09 -2.09054e-08)
(-1.49435e-07 9.57009e-09 -3.33798e-08)
(3.77445e-08 -9.4268e-10 -2.01358e-09)
(2.30218e-08 1.84869e-09 -9.40712e-09)
(2.14563e-08 1.91631e-10 -2.19722e-08)
(2.4476e-08 -3.03196e-09 -1.34529e-08)
(-6.42245e-10 1.62356e-08 -1.00923e-08)
(-2.64655e-08 5.6436e-09 2.10963e-09)
(-6.35653e-08 -8.18121e-09 -1.78951e-08)
(-8.78524e-08 3.21515e-08 -9.68086e-09)
(-9.11614e-08 1.99764e-08 -2.19685e-08)
(-6.89521e-08 -3.28603e-08 -2.49966e-08)
(-1.02749e-07 -2.942e-08 -3.54276e-08)
(-1.43236e-07 -1.33292e-08 -3.22261e-08)
(-1.60764e-07 4.20022e-09 -3.42945e-08)
(1.55841e-08 -5.97702e-09 -5.44701e-09)
(2.71438e-08 -9.36489e-09 -1.49881e-08)
(2.43792e-08 -8.95866e-09 -2.53867e-08)
(6.11189e-09 -6.55061e-09 -2.76483e-08)
(-1.10845e-08 -1.13544e-08 -2.57887e-08)
(-7.69814e-08 -2.67439e-08 -9.70549e-09)
(-1.16675e-07 -2.41113e-08 -1.92978e-08)
(-1.44063e-07 -1.724e-08 -3.15582e-08)
(-1.65205e-07 -5.66308e-10 -3.28919e-08)
(2.42921e-08 -4.57101e-09 -8.85186e-09)
(2.50036e-08 -5.0338e-09 -1.4427e-08)
(2.13841e-08 -1.82154e-09 -2.23192e-08)
(8.77442e-09 -1.24055e-09 -2.70383e-08)
(-1.60743e-08 4.15274e-09 -1.45554e-08)
(-5.48667e-08 -3.38063e-09 -7.67939e-09)
(-9.55054e-08 -7.01488e-09 -1.06627e-08)
(-1.22124e-07 -6.88194e-09 -2.09549e-08)
(-1.41103e-07 -2.2779e-09 -2.83713e-08)
(1.85122e-08 -2.03669e-09 -4.86001e-09)
(2.24562e-08 -8.88603e-10 -1.30225e-08)
(1.75816e-08 5.84384e-10 -1.74369e-08)
(6.24702e-09 2.54244e-09 -1.25159e-08)
(-5.29628e-09 5.20433e-09 -4.20938e-10)
(-2.0195e-08 2.68912e-09 -3.18756e-09)
(-4.62942e-08 5.20741e-10 -1.4597e-08)
(-6.70417e-08 2.42263e-09 -1.21353e-08)
(-5.33877e-08 3.20385e-10 -1.43559e-08)
(-1.33258e-07 -1.74276e-08 -2.61436e-08)
(-1.55605e-07 9.23173e-10 -2.87041e-08)
(1.81824e-08 -1.82272e-09 -4.88869e-09)
(2.72382e-08 -8.03878e-09 -1.14841e-08)
(2.57369e-08 -8.73389e-09 -1.99435e-08)
(1.48862e-09 -5.29357e-09 -2.62204e-08)
(-2.08184e-08 -1.29584e-08 -2.49788e-08)
(-6.49515e-08 -2.09438e-08 -1.62178e-08)
(-8.68644e-08 -1.75077e-08 -2.30967e-08)
(-1.22213e-07 -1.67636e-08 -2.70016e-08)
(-1.45565e-07 -5.52416e-09 -2.73446e-08)
(1.76055e-08 -3.71554e-09 -4.80387e-09)
(2.76617e-08 -6.16391e-09 -8.91044e-09)
(2.00074e-08 -3.31127e-09 -1.98861e-08)
(7.98898e-09 -3.41459e-09 -2.12726e-08)
(-1.72748e-08 -1.50793e-09 -1.19877e-08)
(-4.90048e-08 -8.58253e-09 -9.39644e-09)
(-7.44982e-08 -3.88767e-09 -1.51702e-08)
(-1.03802e-07 -1.23784e-08 -2.0196e-08)
(-1.24278e-07 -8.44804e-09 -2.34082e-08)
(1.67691e-08 -4.3796e-09 -4.92771e-09)
(2.29682e-08 -4.0901e-09 -9.09714e-09)
(1.99071e-08 1.71403e-09 -9.24267e-09)
(8.89025e-09 2.23763e-09 -1.00202e-08)
(-5.86264e-09 4.19833e-09 -6.34003e-09)
(-1.95409e-08 1.82621e-09 -8.08568e-09)
(-3.82211e-08 2.70509e-09 -7.37354e-09)
(-5.42471e-08 4.63195e-09 -1.60291e-08)
(-7.22776e-08 -1.11962e-08 -1.94302e-08)
(1.62787e-08 -1.02197e-09 -3.30317e-09)
(2.80185e-08 -6.95862e-09 -7.6531e-09)
(2.80013e-08 -9.63015e-09 -1.30801e-08)
(7.70271e-09 -8.40017e-09 -1.50635e-08)
(-1.94176e-08 -1.53735e-08 -1.48988e-08)
(-5.74056e-08 -1.37618e-08 -1.08349e-08)
(-8.59748e-08 -1.26533e-08 -1.89707e-08)
(-1.18894e-07 -1.31032e-08 -2.00096e-08)
(1.41098e-08 -1.81816e-09 -9.77815e-10)
(3.05818e-08 -4.65558e-09 -7.7134e-09)
(2.49844e-08 -1.11809e-09 -1.14623e-08)
(1.0013e-08 -9.01701e-10 -1.24171e-08)
(-1.65773e-08 -5.3433e-09 -1.03022e-08)
(-4.23675e-08 -9.75293e-09 -1.13347e-08)
(-6.17314e-08 -3.61346e-09 -1.58809e-08)
(1.23213e-08 -1.50758e-09 -2.11222e-09)
(1.85744e-08 -5.35122e-09 -7.21136e-09)
(2.4791e-08 -1.73394e-09 -8.2255e-09)
(1.36362e-08 2.03804e-09 -5.02393e-09)
(-4.19336e-09 1.77893e-09 -7.31606e-09)
(-1.79906e-08 -9.95269e-10 -5.77638e-09)
)
;

boundaryField
{
    inlet
    {
        type            calculated;
        value           uniform (0 0 0);
    }
    outlet
    {
        type            calculated;
        value           nonuniform 0();
    }
    wall
    {
        type            calculated;
        value           uniform (0 0 0);
    }
    procBoundary2to0
    {
        type            processor;
        value           uniform (0 0 0);
    }
    procBoundary2to3
    {
        type            processor;
        value           uniform (0 0 0);
    }
    procBoundary2to6
    {
        type            processor;
        value           uniform (0 0 0);
    }
}


// ************************************************************************* //
