/*--------------------------------*- C++ -*----------------------------------*\
| =========                 |                                                 |
| \\      /  F ield         | OpenFOAM: The Open Source CFD Toolbox           |
|  \\    /   O peration     | Version:  4.x                                   |
|   \\  /    A nd           | Web:      www.OpenFOAM.org                      |
|    \\/     M anipulation  |                                                 |
\*---------------------------------------------------------------------------*/
FoamFile
{
    version     2.0;
    format      ascii;
    class       volScalarField;
    location    "7";
    object      Deff;
}
// * * * * * * * * * * * * * * * * * * * * * * * * * * * * * * * * * * * * * //

dimensions      [0 2 -1 0 0 0 0];

internalField   nonuniform List<scalar> 
108
(
9.88676e-08
9.89098e-08
9.87768e-08
9.88966e-08
9.88629e-08
9.88975e-08
9.87528e-08
9.87575e-08
9.87224e-08
9.88879e-08
9.86881e-08
9.87905e-08
9.88176e-08
9.87814e-08
9.88302e-08
9.86715e-08
9.86637e-08
9.86469e-08
9.89302e-08
9.88302e-08
9.87588e-08
9.88347e-08
9.87889e-08
9.88236e-08
9.86918e-08
9.86668e-08
9.87331e-08
9.90942e-08
9.90557e-08
9.89334e-08
9.87941e-08
9.88252e-08
9.88237e-08
9.8851e-08
9.87168e-08
9.87726e-08
9.84571e-08
9.84478e-08
9.82803e-08
9.82928e-08
9.83409e-08
9.83651e-08
9.829e-08
9.82555e-08
9.81838e-08
9.8493e-08
9.84241e-08
9.83286e-08
9.83472e-08
9.83639e-08
9.83405e-08
9.81875e-08
9.82084e-08
9.82205e-08
9.84052e-08
9.84218e-08
9.83683e-08
9.8334e-08
9.83558e-08
9.83249e-08
9.82781e-08
9.82382e-08
9.82389e-08
9.86224e-08
9.8653e-08
9.85446e-08
9.84622e-08
9.83515e-08
9.84155e-08
9.83491e-08
9.8304e-08
9.8365e-08
9.81164e-08
9.80174e-08
9.79669e-08
9.79559e-08
9.8012e-08
9.7959e-08
9.78513e-08
9.79179e-08
9.79244e-08
9.81244e-08
9.81484e-08
9.80391e-08
9.81678e-08
9.81209e-08
9.7939e-08
9.7876e-08
9.78374e-08
9.79523e-08
9.82907e-08
9.81445e-08
9.80836e-08
9.81574e-08
9.80712e-08
9.79408e-08
9.79479e-08
9.79226e-08
9.8009e-08
9.84367e-08
9.84466e-08
9.82989e-08
9.82308e-08
9.81557e-08
9.80353e-08
9.80193e-08
9.79401e-08
9.79468e-08
)
;

boundaryField
{
    inlet
    {
        type            calculated;
        value           nonuniform 0();
    }
    outlet
    {
        type            calculated;
        value           uniform 0;
    }
    wall
    {
        type            calculated;
        value           uniform 0;
    }
    procBoundary3to1
    {
        type            processor;
        value           uniform 0;
    }
    procBoundary3to2
    {
        type            processor;
        value           uniform 0;
    }
    procBoundary3to7
    {
        type            processor;
        value           uniform 0;
    }
}


// ************************************************************************* //
