/*--------------------------------*- C++ -*----------------------------------*\
| =========                 |                                                 |
| \\      /  F ield         | OpenFOAM: The Open Source CFD Toolbox           |
|  \\    /   O peration     | Version:  4.x                                   |
|   \\  /    A nd           | Web:      www.OpenFOAM.org                      |
|    \\/     M anipulation  |                                                 |
\*---------------------------------------------------------------------------*/
FoamFile
{
    version     2.0;
    format      ascii;
    class       volVectorField;
    location    "7";
    object      GField;
}
// * * * * * * * * * * * * * * * * * * * * * * * * * * * * * * * * * * * * * //

dimensions      [1 -2 -1 0 0 0 0];

internalField   nonuniform List<vector> 
108
(
(35.6786 -9.52482 2.29138)
(134.957 -6.88723 0.625586)
(51.941 10.4051 -2.56353)
(122.011 12.4398 -4.34487)
(28.2739 8.21913 -4.02952)
(116.742 2.08017 -5.81537)
(35.0349 9.05335 -8.92554)
(134.347 -5.72849 -0.331998)
(30.3782 25.2549 -29.666)
(47.9041 0.42874 3.00161)
(147.757 1.40685 1.64691)
(77.5124 4.07724 -4.49076)
(123.706 2.82372 -6.68404)
(40.5253 6.38151 -6.78131)
(120.791 -1.14126 -6.57759)
(37.9969 4.87192 -9.22824)
(136.773 -6.80308 -3.24359)
(30.8235 -2.64241 -31.4389)
(62.1373 10.0841 3.63297)
(144.589 13.4343 2.1086)
(74.6898 -4.00159 -2.90727)
(129.984 -0.547014 -6.4407)
(47.0553 3.80716 -5.07653)
(120.413 4.35542 -4.09192)
(35.3774 7.62384 -3.34624)
(116.88 -2.17844 3.23)
(14.5982 3.86966 -3.70843)
(110.094 9.74001 8.59155)
(163.473 10.5024 9.142)
(109.224 2.44987 4.8439)
(151.096 1.93713 3.50355)
(80.7103 4.77306 2.34726)
(142.946 2.50026 1.78064)
(65.7785 9.39223 5.00538)
(149.554 -0.678437 3.33504)
(48.409 28.86 -79.8121)
(39.5994 -7.50881 3.24113)
(125.762 -6.33939 0.560313)
(52.1923 8.38654 -8.80153)
(112.007 8.1814 -10.6107)
(33.7174 6.89715 -13.1863)
(100.454 4.85618 -9.53833)
(27.5728 5.8905 -15.183)
(87.7276 0.396325 0.113908)
(25.8308 11.0715 -40.816)
(40.7213 -0.66826 6.65345)
(137.675 -0.786734 4.62351)
(64.1055 2.78995 -12.9271)
(114.12 -0.915511 -14.2922)
(28.25 5.11346 -13.019)
(103.238 -0.178233 -9.71834)
(22.6328 7.72309 -12.3227)
(96.6278 -4.59802 -2.20884)
(29.9803 21.9434 -42.2738)
(41.6405 5.70044 5.53379)
(131.275 7.13526 2.80382)
(52.6436 -4.82825 -7.5328)
(118.439 -4.27891 -10.3912)
(22.9336 0.838317 -8.5903)
(106.86 -1.21653 -6.03716)
(12.2757 5.19582 -4.77971)
(104.983 -10.2133 2.63758)
(15.236 39.5296 -14.6733)
(96.4738 5.39402 13.8882)
(154.412 5.18517 16.677)
(100.95 -0.100584 4.39261)
(148.131 -1.29877 6.1917)
(74.4563 2.8753 -3.247)
(141.473 -3.08035 2.3893)
(52.4981 9.04164 -1.85829)
(155.694 -9.55102 2.96956)
(26.71 40.721 -91.5562)
(28.048 -3.96018 5.39625)
(110.701 -2.2583 2.70259)
(34.5684 3.5793 -6.0705)
(103.491 4.82381 -10.9297)
(22.7017 4.69082 -9.69821)
(92.2038 3.3455 -8.72503)
(12.1453 3.64833 -7.06071)
(74.8731 -2.07785 -0.288388)
(6.67663 3.82929 -6.76029)
(39.0984 0.275617 8.2847)
(121.254 -0.642974 5.40438)
(48.5149 2.63025 -10.6391)
(111.7 0.465526 -13.3812)
(29.0832 4.83417 -10.5181)
(102.36 -0.254886 -9.62871)
(22.7506 8.8756 -7.50284)
(99.6139 -4.92192 -8.99206)
(23.1281 28.5658 -11.8715)
(34.5639 2.41901 6.4798)
(118.591 2.11306 3.53717)
(39.9064 -1.37598 -6.62944)
(114.694 -3.2431 -10.473)
(26.1687 1.29453 -10.3406)
(111.278 -3.03135 -6.66565)
(21.3765 7.07445 -8.98976)
(125.098 -11.399 -3.8443)
(21.1285 49.7945 -31.8287)
(89.5736 3.30538 14.2473)
(144.956 2.49225 16.9653)
(99.3474 -0.11829 5.57972)
(145.376 -3.47879 7.69212)
(82.5054 0.64005 -1.63242)
(142.818 -6.17401 4.17432)
(61.1822 5.20823 -1.40085)
(167.074 -10.658 0.493511)
(30.0861 32.757 -43.5191)
)
;

boundaryField
{
    inlet
    {
        type            calculated;
        value           nonuniform 0();
    }
    outlet
    {
        type            calculated;
        value           nonuniform List<vector> 
12
(
(63.3257 52.6457 -61.8409)
(64.3827 -5.51933 -65.6679)
(30.3784 8.05266 -7.71715)
(98.4038 58.6654 -162.239)
(55.4965 23.7867 -87.6917)
(64.2608 47.0344 -90.6111)
(32.6092 84.6043 -31.4049)
(56.543 86.2031 -193.817)
(14.5641 8.35303 -14.7466)
(50.3477 62.1851 -25.8431)
(45.8134 107.97 -69.0149)
(65.2819 71.0771 -94.4292)
)
;
    }
    wall
    {
        type            calculated;
        value           uniform (0 0 0);
    }
    procBoundary3to1
    {
        type            processor;
        value           nonuniform List<vector> 
27
(
(41.7136 -9.48093 0.857071)
(125.451 -7.16268 -0.445639)
(41.8019 5.05716 -1.76204)
(118.459 8.00846 -3.16532)
(20.4684 6.46852 -2.13282)
(106.967 6.89191 -7.74539)
(19.7541 4.84124 -2.92193)
(92.4653 -2.70628 -4.87331)
(28.3948 16.4376 -4.14424)
(35.7009 -6.91537 0.955547)
(120.188 -4.14181 -2.94756)
(39.9527 4.01382 -5.95006)
(113.503 8.56168 -9.17386)
(26.1224 4.86404 -8.84002)
(100.097 5.16942 -9.71714)
(9.87333 1.83845 -4.2105)
(82.6256 2.13093 -1.85785)
(11.9243 -1.23517 -6.47698)
(32.4082 -4.81992 2.49425)
(110.561 -1.33064 -2.7732)
(30.7409 1.81498 -3.49556)
(104.559 6.61649 -9.13755)
(18.5057 3.11878 -5.15306)
(93.9518 3.00538 -7.10891)
(9.39315 1.08898 -2.816)
(86.2853 0.279005 -8.03996)
(17.088 -4.3968 -3.07976)
)
;
    }
    procBoundary3to2
    {
        type            processor;
        value           nonuniform List<vector> 
12
(
(107.4 -4.68938 5.95133)
(108.558 0.441998 5.87874)
(119.334 8.22499 7.22249)
(148.043 9.63356 10.4504)
(102.068 -3.95061 6.94691)
(102.573 -2.42929 8.94224)
(106.753 3.70888 10.8234)
(133.782 6.23852 18.2804)
(97.4353 -3.21873 6.76976)
(101.4 -0.8391 8.29642)
(100.884 1.85115 10.3605)
(123.833 4.0912 18.2814)
)
;
    }
    procBoundary3to7
    {
        type            processor;
        value           nonuniform List<vector> 
36
(
(35.2487 -1.81702 2.72786)
(105.442 -0.672017 -0.326771)
(39.9702 1.89365 -8.38151)
(97.7195 2.1163 -11.0949)
(29.3666 2.95848 -14.2223)
(78.9092 2.34097 -7.33512)
(13.8385 2.18342 -9.33006)
(51.7195 0.982786 2.93695)
(7.39789 1.22975 -6.34182)
(36.747 0.645504 4.18615)
(112.178 0.0520952 1.61855)
(41.7091 2.7096 -8.37765)
(109.521 0.58558 -11.1501)
(32.9843 6.15624 -13.524)
(102.201 2.54736 -9.86221)
(28.2919 13.1666 -17.5542)
(92.3934 -1.8847 -1.69824)
(20.7209 23.2365 -25.2332)
(36.6028 0.240987 3.73102)
(112.342 -0.474491 0.561707)
(40.733 -0.475268 -7.39655)
(111.787 -2.83124 -12.6236)
(31.7418 1.635 -13.2898)
(103.482 -3.71 -8.55238)
(30.1224 10.8814 -20.2066)
(97.0255 -9.29787 -0.075948)
(25.8677 61.1753 -56.2347)
(87.8128 0.923238 9.52633)
(139.405 -0.628189 12.1932)
(94.3125 -0.102449 0.788091)
(144.353 -3.4697 3.86936)
(84.445 3.18894 -8.77494)
(148.812 -6.62565 1.69262)
(67.607 12.2249 -19.3618)
(178.368 -11.7333 3.8818)
(36.1554 55.7786 -78.6696)
)
;
    }
}


// ************************************************************************* //
