/*--------------------------------*- C++ -*----------------------------------*\
| =========                 |                                                 |
| \\      /  F ield         | OpenFOAM: The Open Source CFD Toolbox           |
|  \\    /   O peration     | Version:  4.x                                   |
|   \\  /    A nd           | Web:      www.OpenFOAM.org                      |
|    \\/     M anipulation  |                                                 |
\*---------------------------------------------------------------------------*/
FoamFile
{
    version     2.0;
    format      ascii;
    class       volScalarField;
    location    "7";
    object      QWallFluid;
}
// * * * * * * * * * * * * * * * * * * * * * * * * * * * * * * * * * * * * * //

dimensions      [1 -1 -3 0 0 0 0];

internalField   nonuniform List<scalar> 
108
(
3.84922e+08
1.085e+09
5.13415e+08
1.00451e+09
3.2303e+08
9.66242e+08
3.87176e+08
1.08073e+09
4.85094e+08
4.74036e+08
1.16545e+09
6.9723e+08
1.01235e+09
4.22608e+08
9.93059e+08
4.04808e+08
1.09685e+09
4.43026e+08
5.8965e+08
1.14936e+09
6.76376e+08
1.05283e+09
4.69933e+08
9.90344e+08
3.79459e+08
9.66504e+08
1.92409e+08
1.85208e+09
2.53432e+09
1.83202e+09
2.37341e+09
1.43928e+09
2.27021e+09
1.23255e+09
2.35384e+09
1.6741e+09
0
0
0
0
0
0
0
0
0
0
0
0
0
0
0
0
0
0
0
0
0
0
0
0
0
0
0
8.36452e+08
1.21331e+09
8.59867e+08
1.16856e+09
6.74417e+08
1.12588e+09
5.15493e+08
1.21717e+09
8.77909e+08
0
0
0
0
0
0
0
0
0
0
0
0
0
0
0
0
0
0
0
0
0
0
0
0
0
0
0
7.89103e+08
1.15404e+09
8.49359e+08
1.15186e+09
7.31279e+08
1.13532e+09
5.77382e+08
1.28781e+09
5.83442e+08
)
;

boundaryField
{
    inlet
    {
        type            calculated;
        value           nonuniform 0();
    }
    outlet
    {
        type            calculated;
        value           uniform 0;
    }
    wall
    {
        type            calculated;
        value           uniform 0;
    }
    procBoundary3to1
    {
        type            processor;
        value           nonuniform List<scalar> 
27
(
4.32375e+08
1.02368e+09
4.27173e+08
9.78564e+08
2.49993e+08
9.03323e+08
2.4045e+08
8.02106e+08
3.51858e+08
0
0
0
0
0
0
0
0
0
0
0
0
0
0
0
0
0
0
)
;
    }
    procBoundary3to2
    {
        type            processor;
        value           nonuniform List<scalar> 
12
(
9.04659e+08
9.11715e+08
9.85564e+08
2.3429e+09
0
0
0
1.08523e+09
0
0
0
1.02098e+09
)
;
    }
    procBoundary3to7
    {
        type            processor;
        value           nonuniform List<scalar> 
36
(
0
0
0
0
0
0
0
0
0
0
0
0
0
0
0
0
0
0
0
0
0
0
0
0
0
0
0
7.72176e+08
1.11576e+09
8.13741e+08
1.14442e+09
7.48495e+08
1.173e+09
6.51145e+08
1.35739e+09
8.73096e+08
)
;
    }
}


// ************************************************************************* //
