/*--------------------------------*- C++ -*----------------------------------*\
| =========                 |                                                 |
| \\      /  F ield         | OpenFOAM: The Open Source CFD Toolbox           |
|  \\    /   O peration     | Version:  4.x                                   |
|   \\  /    A nd           | Web:      www.OpenFOAM.org                      |
|    \\/     M anipulation  |                                                 |
\*---------------------------------------------------------------------------*/
FoamFile
{
    version     2.0;
    format      ascii;
    class       volScalarField;
    location    "7";
    object      SPartFluid;
}
// * * * * * * * * * * * * * * * * * * * * * * * * * * * * * * * * * * * * * //

dimensions      [1 -3 -1 0 0 0 0];

internalField   nonuniform List<scalar> 
108
(
7.08659e-65
3.30367e-65
5.69118e-65
2.50392e-65
4.06437e-65
3.00248e-65
4.70462e-65
3.8603e-65
4.55613e-65
5.20034e-65
8.59234e-65
3.93632e-65
4.51691e-65
5.35074e-65
3.84659e-65
5.47387e-65
4.9399e-65
5.40502e-65
5.59508e-65
5.30467e-65
6.0737e-65
3.65826e-65
5.05992e-65
3.769e-65
5.70417e-65
5.24803e-65
4.01475e-65
4.69395e-65
3.5922e-65
4.07246e-65
5.83166e-65
4.22523e-65
4.84972e-65
3.16212e-65
5.32598e-65
4.40146e-65
7.61844e-65
6.35503e-65
8.80065e-65
8.39677e-65
7.52275e-65
6.23748e-65
6.01789e-65
6.4084e-65
9.03582e-65
6.69616e-65
6.7008e-65
7.08829e-65
7.10819e-65
6.7333e-65
6.22982e-65
8.55822e-65
7.02358e-65
6.9497e-65
1.05258e-64
7.62575e-65
7.3307e-65
8.32953e-65
6.75555e-65
7.15688e-65
6.70924e-65
7.17867e-65
7.87591e-65
7.81576e-65
5.68126e-65
6.31924e-65
6.14699e-65
8.15089e-65
5.62222e-65
6.8639e-65
6.79277e-65
5.6372e-65
7.72692e-65
9.04838e-65
8.77803e-65
8.44892e-65
6.08362e-65
6.16839e-65
8.56807e-65
6.79613e-65
7.72434e-65
9.08583e-65
5.14899e-65
7.63454e-65
4.27963e-65
4.61479e-65
7.85962e-65
7.25194e-65
8.80214e-65
6.1015e-65
5.69675e-65
8.34425e-65
8.15281e-65
5.76018e-65
6.77186e-65
7.93906e-65
6.63521e-65
7.18092e-65
5.40654e-65
5.76486e-65
3.8821e-65
5.40547e-65
6.08859e-65
5.54689e-65
7.09447e-65
6.17368e-65
7.87603e-65
8.49686e-65
)
;

boundaryField
{
    inlet
    {
        type            calculated;
        value           nonuniform 0();
    }
    outlet
    {
        type            calculated;
        value           uniform 0;
    }
    wall
    {
        type            calculated;
        value           uniform 0;
    }
    procBoundary3to1
    {
        type            processor;
        value           nonuniform List<scalar> 
27
(
3.50987e-65
5.53084e-65
5.47105e-65
7.38485e-65
5.46644e-65
4.31751e-65
4.94036e-65
4.55695e-65
4.48046e-65
8.18205e-65
6.6078e-65
6.17093e-65
5.23657e-65
5.24131e-65
7.32946e-65
8.02962e-65
1.02726e-64
4.86693e-65
7.93322e-65
6.36739e-65
5.10284e-65
9.02814e-65
8.25616e-65
8.72311e-65
6.79647e-65
7.88016e-65
3.47669e-65
)
;
    }
    procBoundary3to2
    {
        type            processor;
        value           nonuniform List<scalar> 
12
(
2.65851e-65
4.00241e-65
3.13303e-65
3.12342e-65
9.45605e-65
5.24932e-65
6.3321e-65
4.28992e-65
8.02578e-65
4.91773e-65
8.41937e-65
8.95691e-65
)
;
    }
    procBoundary3to7
    {
        type            processor;
        value           nonuniform List<scalar> 
36
(
9.94988e-65
7.8393e-65
6.41648e-65
6.71716e-65
1.02651e-64
1.03464e-64
7.95624e-65
5.64054e-65
8.34501e-65
7.7019e-65
9.48054e-65
7.26003e-65
6.71069e-65
8.40977e-65
5.63527e-65
7.49123e-65
6.33546e-65
8.03549e-65
5.52164e-65
7.37433e-65
6.18466e-65
7.10028e-65
7.40728e-65
8.02798e-65
7.49093e-65
7.18527e-65
8.57693e-65
5.12886e-65
7.2936e-65
8.74177e-65
5.48342e-65
7.17904e-65
6.79428e-65
7.87914e-65
5.87265e-65
4.32795e-65
)
;
    }
}


// ************************************************************************* //
