/*--------------------------------*- C++ -*----------------------------------*\
| =========                 |                                                 |
| \\      /  F ield         | OpenFOAM: The Open Source CFD Toolbox           |
|  \\    /   O peration     | Version:  4.x                                   |
|   \\  /    A nd           | Web:      www.OpenFOAM.org                      |
|    \\/     M anipulation  |                                                 |
\*---------------------------------------------------------------------------*/
FoamFile
{
    version     2.0;
    format      ascii;
    class       volVectorField;
    location    "7";
    object      UsPrev;
}
// * * * * * * * * * * * * * * * * * * * * * * * * * * * * * * * * * * * * * //

dimensions      [0 1 -1 0 0 0 0];

internalField   nonuniform List<vector> 
108
(
(-1.70441e-05 1.05699e-05 -3.07318e-06)
(-4.19163e-05 1.04411e-05 -4.04258e-06)
(-4.07016e-05 -1.32141e-05 5.60128e-06)
(-1.95221e-05 -9.90999e-06 4.58454e-06)
(-8.5704e-06 -5.40707e-06 3.55637e-06)
(-7.43473e-06 -3.69118e-06 2.13779e-06)
(-4.09468e-06 -2.28063e-06 2.40606e-07)
(-7.73393e-07 -1.11148e-06 1.73919e-07)
(3.51674e-06 -1.27789e-07 -2.31275e-07)
(-1.42579e-05 1.60054e-07 -6.19999e-06)
(-5.92094e-05 5.43364e-07 -9.11815e-06)
(-6.45795e-05 1.90517e-06 9.10618e-06)
(-1.13336e-05 -3.15221e-06 5.41865e-06)
(-3.89339e-06 -1.28363e-06 1.89682e-06)
(-5.03277e-06 -1.83206e-06 1.81831e-06)
(-1.88534e-06 -6.90271e-07 1.13699e-06)
(-2.21805e-07 -4.72475e-07 7.59922e-07)
(5.31457e-06 7.09167e-08 -2.82823e-08)
(-2.65934e-05 -9.87742e-06 -4.10971e-06)
(-5.03227e-05 -1.33275e-05 -3.78711e-06)
(-4.61821e-05 1.2487e-05 8.17149e-07)
(-2.33628e-05 7.1223e-06 4.90114e-06)
(-9.60203e-06 1.46204e-06 2.65051e-06)
(-7.25866e-06 9.13477e-07 1.98273e-06)
(-2.24598e-06 5.84212e-07 8.10939e-07)
(1.6738e-06 -2.80513e-07 4.75994e-07)
(2.37254e-06 -1.84715e-07 -2.22019e-07)
(-1.3781e-05 -3.29251e-06 -3.37557e-06)
(-3.00619e-05 -3.6424e-06 -2.63063e-06)
(-3.82349e-05 2.19255e-06 5.96321e-07)
(-1.81367e-05 3.40196e-06 2.29185e-06)
(-1.00787e-05 1.80676e-06 2.33302e-06)
(-4.63586e-06 1.01542e-06 1.25101e-06)
(-2.42659e-06 1.78167e-07 9.8574e-07)
(5.87408e-07 1.3532e-07 6.71619e-07)
(2.60419e-06 -1.41231e-05 8.3535e-07)
(-2.56923e-05 9.90885e-06 -7.68713e-06)
(-5.18977e-05 7.55716e-06 -6.69848e-06)
(-4.74939e-05 -8.81865e-06 6.55005e-06)
(-2.37063e-05 -8.78765e-06 8.57027e-06)
(-1.14006e-05 -5.23881e-06 4.83284e-06)
(-8.71834e-06 -3.98473e-06 3.05433e-06)
(-4.53312e-06 -2.03287e-06 1.80094e-06)
(-4.11851e-07 -9.49313e-07 1.06345e-06)
(1.69725e-06 -5.02947e-08 2.01964e-08)
(-1.9716e-05 2.8487e-06 -9.50744e-06)
(-6.3031e-05 -2.34893e-07 -6.6519e-06)
(-5.77673e-05 -1.11421e-06 1.33926e-05)
(-2.30181e-05 -2.31599e-06 1.13254e-05)
(-7.8149e-06 -2.6415e-06 6.35668e-06)
(-6.48669e-06 -2.02425e-06 4.14691e-06)
(-3.07207e-06 -8.10932e-07 2.03123e-06)
(3.89998e-07 -5.28962e-07 1.15713e-06)
(1.96353e-06 -3.31244e-08 1.27216e-07)
(-2.63754e-05 -6.57936e-06 -7.49111e-06)
(-5.5763e-05 -6.93547e-06 -4.53559e-06)
(-5.51694e-05 6.47711e-06 6.50083e-06)
(-3.0685e-05 6.68645e-06 7.99391e-06)
(-1.50218e-05 1.66334e-06 6.67656e-06)
(-8.72613e-06 1.00472e-06 4.28373e-06)
(-3.36642e-06 5.90245e-07 2.0924e-06)
(9.44598e-07 3.61319e-07 1.24873e-06)
(2.10917e-06 8.98508e-08 2.4139e-07)
(-2.04462e-05 -3.39702e-06 -4.22619e-06)
(-3.65427e-05 -3.76414e-06 -2.64407e-06)
(-3.36348e-05 2.00198e-06 9.60253e-07)
(-2.67665e-05 5.59226e-06 4.50511e-06)
(-1.47248e-05 1.48062e-06 4.39539e-06)
(-6.28467e-06 9.53199e-07 3.06664e-06)
(-2.98631e-06 1.23552e-07 1.85398e-06)
(3.91061e-07 1.21515e-07 1.26248e-06)
(1.46593e-06 -4.95765e-08 7.91202e-07)
(-2.49607e-05 4.31303e-06 -8.53414e-06)
(-3.54888e-05 4.46945e-06 -4.34025e-06)
(-3.57656e-05 -4.49624e-06 6.68257e-06)
(-2.5265e-05 -5.66547e-06 9.43072e-06)
(-1.53093e-05 -3.73889e-06 6.95615e-06)
(-1.05004e-05 -2.3927e-06 4.75793e-06)
(-6.34727e-06 -1.76056e-06 2.89492e-06)
(-1.93819e-06 -9.58501e-07 1.62886e-06)
(-1.98793e-07 -1.90453e-07 2.68307e-07)
(-2.19856e-05 1.00621e-06 -1.08161e-05)
(-4.26369e-05 7.75256e-07 -7.97738e-06)
(-3.97073e-05 -1.81655e-06 1.06682e-05)
(-2.0139e-05 -2.52517e-06 1.15218e-05)
(-1.1913e-05 -1.69869e-06 8.99931e-06)
(-8.89095e-06 -1.6328e-06 5.58852e-06)
(-5.06518e-06 -6.30133e-07 3.28482e-06)
(-8.73159e-07 -4.80497e-07 1.94645e-06)
(4.81936e-07 -3.0249e-07 5.7408e-07)
(-3.11388e-05 -2.74297e-06 -8.86801e-06)
(-4.61852e-05 -2.89917e-06 -8.52155e-06)
(-4.15472e-05 4.22447e-06 8.84197e-06)
(-2.93574e-05 2.30412e-06 9.67235e-06)
(-1.60203e-05 7.44074e-07 8.58522e-06)
(-1.14401e-05 5.14847e-08 6.19241e-06)
(-5.54162e-06 1.37296e-07 3.60565e-06)
(-8.4398e-07 1.62068e-07 2.06251e-06)
(6.82555e-07 -1.82565e-08 4.90673e-07)
(-2.04506e-05 -3.90234e-07 -5.2662e-06)
(-2.58023e-05 -2.52947e-06 -3.34669e-06)
(-2.85821e-05 3.5089e-06 1.80336e-06)
(-2.0467e-05 4.20526e-06 5.35336e-06)
(-1.78885e-05 2.95893e-07 6.14938e-06)
(-9.37567e-06 8.16975e-07 4.49758e-06)
(-3.44868e-06 5.84696e-08 2.18067e-06)
(-1.3953e-06 7.71165e-08 1.92079e-06)
(7.49508e-08 5.93054e-08 6.61153e-07)
)
;

boundaryField
{
    inlet
    {
        type            calculated;
        value           nonuniform 0();
    }
    outlet
    {
        type            calculated;
        value           uniform (0 0 0);
    }
    wall
    {
        type            calculated;
        value           uniform (0 0 0);
    }
    procBoundary3to1
    {
        type            processor;
        value           uniform (0 0 0);
    }
    procBoundary3to2
    {
        type            processor;
        value           uniform (0 0 0);
    }
    procBoundary3to7
    {
        type            processor;
        value           uniform (0 0 0);
    }
}


// ************************************************************************* //
