/*--------------------------------*- C++ -*----------------------------------*\
| =========                 |                                                 |
| \\      /  F ield         | OpenFOAM: The Open Source CFD Toolbox           |
|  \\    /   O peration     | Version:  4.x                                   |
|   \\  /    A nd           | Web:      www.OpenFOAM.org                      |
|    \\/     M anipulation  |                                                 |
\*---------------------------------------------------------------------------*/
FoamFile
{
    version     2.0;
    format      ascii;
    class       volVectorField;
    location    "34.5";
    object      ddtUrel;
}
// * * * * * * * * * * * * * * * * * * * * * * * * * * * * * * * * * * * * * //

dimensions      [0 1 -2 0 0 0 0];

internalField   nonuniform List<vector> 
108
(
(3.13927e-10 5.50581e-11 8.66996e-11)
(3.60754e-10 5.15808e-11 5.95367e-11)
(3.88235e-10 3.99264e-11 3.73162e-13)
(3.76329e-10 2.33522e-11 -8.69517e-11)
(3.16141e-10 5.58936e-12 -1.9275e-10)
(2.11821e-10 -9.09869e-12 -3.03681e-10)
(1.44411e-11 -2.97961e-11 -4.35578e-10)
(-3.74378e-10 -1.40703e-11 -5.76282e-10)
(-9.31895e-10 4.14959e-11 -7.42937e-10)
(3.18617e-10 5.42011e-11 8.87765e-11)
(3.68622e-10 5.21448e-11 6.26012e-11)
(4.07112e-10 4.30769e-11 3.00253e-12)
(4.24868e-10 2.05169e-11 -8.55801e-11)
(4.00569e-10 -4.30253e-12 -1.94896e-10)
(3.24563e-10 -2.72164e-11 -3.13137e-10)
(1.65313e-10 -4.30311e-11 -4.6987e-10)
(-9.61158e-11 -3.43239e-11 -6.27558e-10)
(-4.058e-10 3.14325e-11 -8.37401e-10)
(3.21282e-10 4.47893e-11 8.93157e-11)
(3.88494e-10 4.11982e-11 6.79776e-11)
(4.63573e-10 3.20949e-11 1.2935e-11)
(5.31106e-10 1.44735e-11 -7.16382e-11)
(5.5852e-10 -1.47923e-11 -1.79834e-10)
(5.54451e-10 -3.23353e-11 -3.11308e-10)
(4.62621e-10 -6.492e-11 -4.86428e-10)
(3.24605e-10 -4.5064e-11 -6.84924e-10)
(1.56704e-10 -4.6342e-14 -9.25368e-10)
(3.17014e-10 2.04559e-11 8.34067e-11)
(4.04211e-10 9.99855e-12 6.74632e-11)
(5.0922e-10 -4.45996e-12 1.87284e-11)
(6.23877e-10 -1.43363e-11 -6.65145e-11)
(7.15013e-10 -3.20152e-11 -1.70096e-10)
(7.80373e-10 -5.44764e-11 -3.14726e-10)
(7.5327e-10 -9.40734e-11 -5.07724e-10)
(7.16729e-10 -4.82304e-11 -7.41464e-10)
(6.93697e-10 -1.20325e-11 -9.86828e-10)
(3.25723e-10 4.37672e-11 4.5029e-11)
(3.55889e-10 4.183e-11 2.58612e-11)
(3.86484e-10 3.32675e-11 -1.9001e-11)
(4.03967e-10 2.12324e-11 -8.39171e-11)
(4.10235e-10 1.2055e-11 -1.62921e-10)
(3.89667e-10 9.43682e-12 -2.51594e-10)
(3.31627e-10 4.93745e-12 -3.57314e-10)
(1.55737e-10 3.09987e-11 -4.72296e-10)
(-2.14229e-11 8.00846e-11 -6.19391e-10)
(3.23446e-10 4.42617e-11 4.7603e-11)
(3.61788e-10 4.39285e-11 2.76688e-11)
(4.0506e-10 3.51274e-11 -1.73399e-11)
(4.4115e-10 2.26884e-11 -8.35379e-11)
(4.7323e-10 1.40183e-11 -1.64841e-10)
(4.5732e-10 7.77891e-12 -2.59493e-10)
(4.14443e-10 -2.68803e-12 -3.82513e-10)
(2.83048e-10 2.30358e-11 -5.15087e-10)
(2.01565e-10 9.67194e-11 -6.8777e-10)
(3.215e-10 3.73824e-11 4.49183e-11)
(3.81731e-10 3.69756e-11 2.6247e-11)
(4.50495e-10 2.89326e-11 -1.26691e-11)
(5.18393e-10 1.80367e-11 -7.44947e-11)
(5.84342e-10 7.01147e-12 -1.60539e-10)
(6.11232e-10 9.46755e-12 -2.59143e-10)
(5.93449e-10 -1.51587e-12 -3.94916e-10)
(5.15476e-10 3.9272e-11 -5.47282e-10)
(5.12523e-10 1.14324e-10 -7.31796e-10)
(3.23368e-10 1.84274e-11 3.76689e-11)
(3.98472e-10 1.42127e-11 2.17881e-11)
(4.99338e-10 4.26347e-12 -1.45961e-11)
(5.94815e-10 -3.51643e-12 -7.13222e-11)
(6.90923e-10 -4.91369e-12 -1.57578e-10)
(7.55497e-10 6.93668e-12 -2.68836e-10)
(7.66999e-10 8.60622e-12 -4.13514e-10)
(7.4673e-10 4.88898e-11 -5.73456e-10)
(8.00164e-10 9.12984e-11 -7.62197e-10)
(3.39862e-10 3.55799e-11 2.0662e-11)
(3.65272e-10 3.4206e-11 5.31364e-12)
(4.16094e-10 2.92175e-11 -3.18367e-11)
(4.58323e-10 2.16304e-11 -8.40854e-11)
(5.11352e-10 1.83204e-11 -1.46079e-10)
(5.28783e-10 2.10428e-11 -2.21661e-10)
(5.68556e-10 2.23382e-11 -3.10426e-10)
(4.4981e-10 4.9837e-11 -4.13749e-10)
(4.09891e-10 1.06673e-10 -5.31026e-10)
(3.53527e-10 3.48968e-11 2.01787e-11)
(3.72302e-10 3.64191e-11 4.80076e-12)
(4.39352e-10 3.07515e-11 -2.95437e-11)
(4.90775e-10 2.65122e-11 -8.25047e-11)
(5.76356e-10 2.09897e-11 -1.45738e-10)
(5.99153e-10 2.36239e-11 -2.26963e-10)
(6.21435e-10 1.82685e-11 -3.23486e-10)
(5.53328e-10 5.53724e-11 -4.4194e-10)
(5.82365e-10 1.24621e-10 -5.70598e-10)
(3.46263e-10 3.04135e-11 1.94976e-11)
(3.90374e-10 3.50014e-11 3.10342e-12)
(4.74882e-10 2.90707e-11 -2.7584e-11)
(5.48632e-10 2.34418e-11 -7.75293e-11)
(6.76126e-10 1.87816e-11 -1.44758e-10)
(7.18201e-10 3.0847e-11 -2.29755e-10)
(7.55973e-10 3.96348e-11 -3.37958e-10)
(6.90953e-10 8.84795e-11 -4.54168e-10)
(7.63577e-10 1.60936e-10 -5.98277e-10)
(3.3956e-10 1.55729e-11 1.19833e-11)
(4.04116e-10 2.07082e-11 -8.17647e-13)
(5.26837e-10 1.77856e-11 -2.87987e-11)
(6.16546e-10 7.27077e-12 -7.50569e-11)
(7.53616e-10 6.70131e-12 -1.45449e-10)
(8.06609e-10 3.07574e-11 -2.35807e-10)
(8.59058e-10 6.83357e-11 -3.3953e-10)
(8.1515e-10 1.3506e-10 -4.72976e-10)
(9.53448e-10 1.56436e-10 -6.27001e-10)
)
;

boundaryField
{
    inlet
    {
        type            calculated;
        value           nonuniform List<vector> 
12
(
(1.6173e-10 2.85807e-11 1.15994e-10)
(1.92521e-10 3.85905e-11 1.23522e-10)
(2.36659e-10 6.45597e-11 1.40517e-10)
(2.93919e-10 3.57973e-11 1.21423e-10)
(2.96117e-10 3.23557e-11 5.90322e-11)
(2.48047e-10 6.07177e-11 9.15195e-11)
(7.48299e-11 6.96726e-11 6.54907e-11)
(1.59848e-10 4.3935e-11 3.90598e-11)
(3.0066e-10 1.66014e-11 -2.81296e-12)
(5.11343e-10 1.04548e-11 -1.36665e-11)
(3.23937e-10 2.31033e-11 1.65862e-11)
(2.48391e-10 1.33939e-11 -2.03237e-11)
)
;
    }
    outlet
    {
        type            calculated;
        value           nonuniform 0();
    }
    wall
    {
        type            calculated;
        value           nonuniform List<vector> 
63
(
(4.93308e-10 1.22389e-11 4.5808e-13)
(9.13521e-10 -5.71354e-12 -7.75503e-12)
(5.2824e-10 1.69014e-11 2.02446e-11)
(3.81881e-10 1.22191e-11 -1.86627e-11)
(3.84395e-10 1.21344e-11 1.76508e-11)
(3.23973e-10 3.97314e-11 1.31593e-11)
(3.92734e-10 9.51273e-11 3.38984e-12)
(3.67478e-10 1.06777e-10 -3.45332e-11)
(7.19621e-10 1.73623e-11 -8.97158e-12)
(9.32025e-10 1.01106e-11 1.37001e-11)
(8.79348e-10 3.99773e-11 2.53264e-11)
(1.37693e-09 9.50296e-11 -2.98651e-11)
(6.57954e-10 -6.95165e-12 -4.32008e-11)
(6.63216e-10 5.87395e-11 -2.99604e-11)
(6.01343e-10 5.80295e-11 -3.43145e-12)
(8.15653e-10 4.34536e-13 -1.34301e-11)
(1.14696e-09 8.20038e-12 -4.16801e-11)
(1.78463e-09 1.27834e-11 -2.04801e-11)
(2.26625e-09 5.04577e-12 -1.92895e-12)
(2.08913e-09 -8.64385e-11 -4.6989e-11)
(9.23357e-10 5.08201e-11 -7.5939e-11)
(1.19455e-09 4.6756e-11 -7.90848e-11)
(1.60929e-09 7.55113e-11 -3.25465e-11)
(1.31522e-09 5.6148e-11 -1.13523e-10)
(2.64411e-09 2.15555e-12 -6.37117e-11)
(2.16119e-09 -1.55631e-10 -3.95495e-11)
(2.85231e-09 -3.91123e-11 -1.3556e-10)
(2.18265e-09 2.1473e-10 -4.26465e-11)
(1.39765e-09 -9.79073e-12 -8.406e-11)
(1.76394e-09 -6.27704e-11 -1.95954e-10)
(1.5731e-09 5.30624e-11 -8.03963e-11)
(8.39546e-10 7.35505e-10 -3.63269e-11)
(2.05023e-09 9.71824e-11 -1.05791e-10)
(3.80167e-09 1.6069e-10 -2.84606e-10)
(3.70299e-09 3.82448e-10 -2.07461e-10)
(4.49811e-09 1.63174e-10 -2.81993e-10)
(1.34274e-10 3.04973e-11 1.14072e-10)
(2.66428e-10 3.47384e-11 5.62634e-11)
(2.71024e-10 1.75793e-11 -3.50444e-12)
(3.33341e-10 5.43251e-11 8.72751e-11)
(4.0791e-10 4.80912e-11 7.27783e-11)
(3.39691e-10 1.39941e-11 1.65682e-11)
(3.76866e-10 5.00241e-11 3.21769e-11)
(3.5133e-10 2.86658e-11 2.7388e-11)
(5.66033e-10 2.11553e-11 -1.28121e-11)
(2.64727e-10 4.72693e-11 -1.98808e-11)
(2.6312e-10 -9.25277e-13 -2.70677e-11)
(5.01924e-10 -4.70372e-12 -4.70471e-11)
(2.52414e-10 1.1719e-10 -1.73225e-10)
(2.66918e-10 -1.48573e-11 -9.26826e-11)
(8.384e-10 1.19561e-11 -4.84203e-11)
(5.39867e-10 1.4063e-10 -2.65562e-10)
(4.45759e-10 5.8444e-11 -1.14072e-10)
(7.68203e-10 4.98638e-11 -7.9452e-11)
(1.5101e-09 -6.34512e-12 -3.50437e-10)
(1.10555e-09 -2.62657e-11 -1.36266e-10)
(1.96215e-09 -1.2134e-12 -7.19319e-11)
(9.72867e-10 -6.99468e-11 -3.92254e-10)
(8.15404e-10 2.63551e-11 -9.75102e-11)
(9.23742e-10 -1.15307e-11 -9.78744e-11)
(1.08767e-09 7.9059e-11 -3.46062e-10)
(1.2932e-09 8.92566e-11 -3.13602e-10)
(1.67335e-09 1.12247e-10 -1.23881e-10)
)
;
    }
    procBoundary4to0
    {
        type            processor;
        value           nonuniform List<vector> 
36
(
(3.12569e-10 7.69785e-11 1.48009e-10)
(3.71353e-10 6.57449e-11 1.20005e-10)
(4.14341e-10 4.15124e-11 4.29099e-11)
(3.61551e-10 1.04825e-11 -8.9075e-11)
(2.17071e-10 -2.62984e-11 -2.24002e-10)
(-5.70068e-11 -4.93866e-11 -3.49428e-10)
(-5.53816e-10 -8.29842e-11 -4.93784e-10)
(-1.37292e-09 -6.68223e-11 -6.49155e-10)
(-2.73749e-09 7.46666e-12 -8.32747e-10)
(3.08612e-10 7.34616e-11 1.48356e-10)
(3.70031e-10 6.53104e-11 1.22521e-10)
(4.12188e-10 4.56108e-11 4.73306e-11)
(4.19736e-10 9.11395e-12 -7.87893e-11)
(3.10579e-10 -3.00677e-11 -2.27481e-10)
(1.10677e-10 -6.71094e-11 -3.62597e-10)
(-2.68667e-10 -1.17716e-10 -5.36928e-10)
(-8.57513e-10 -1.3725e-10 -7.30162e-10)
(-1.78321e-09 -9.3601e-11 -9.9847e-10)
(3.16652e-10 6.08576e-11 1.5145e-10)
(3.80154e-10 4.72786e-11 1.26028e-10)
(4.47255e-10 2.23763e-11 6.14797e-11)
(5.20523e-10 -2.66447e-12 -4.51185e-11)
(4.89181e-10 -4.78516e-11 -1.94082e-10)
(3.99579e-10 -9.22877e-11 -3.55619e-10)
(1.67671e-10 -1.62965e-10 -5.82682e-10)
(-1.56014e-10 -2.01743e-10 -8.24052e-10)
(-7.06e-10 -2.01256e-10 -1.15855e-09)
(2.925e-10 2.99556e-11 1.43102e-10)
(3.85509e-10 7.51495e-12 1.33164e-10)
(4.96713e-10 -2.18333e-11 8.36987e-11)
(6.26423e-10 -4.55969e-11 -5.20341e-12)
(6.8934e-10 -7.79989e-11 -1.51384e-10)
(7.00438e-10 -1.31629e-10 -3.27748e-10)
(6.33479e-10 -1.894e-10 -5.75109e-10)
(4.84271e-10 -2.12768e-10 -8.56073e-10)
(1.93429e-10 -1.95832e-10 -1.22139e-09)
)
;
    }
    procBoundary4to5
    {
        type            processor;
        value           nonuniform List<vector> 
12
(
(-1.5191e-09 1.53578e-10 -9.27277e-10)
(-7.77606e-10 1.61656e-10 -1.04818e-09)
(-1.63546e-11 1.24567e-10 -1.18269e-09)
(6.27582e-10 1.40996e-10 -1.26058e-09)
(-1.99118e-10 1.59811e-10 -7.79379e-10)
(7.54867e-11 1.82192e-10 -8.48183e-10)
(4.52833e-10 2.12347e-10 -9.11147e-10)
(7.72855e-10 2.25145e-10 -9.15331e-10)
(3.49291e-10 1.56853e-10 -6.60552e-10)
(5.20571e-10 1.78115e-10 -6.97376e-10)
(7.1686e-10 2.16072e-10 -7.23038e-10)
(9.15708e-10 2.48382e-10 -7.36977e-10)
)
;
    }
    procBoundary4to6
    {
        type            processor;
        value           nonuniform List<vector> 
27
(
(3.06512e-10 -9.11159e-12 8.35964e-11)
(3.93894e-10 -2.67097e-11 7.579e-11)
(5.01959e-10 -4.75945e-11 4.35546e-11)
(6.38719e-10 -6.1373e-11 -1.70283e-11)
(7.53362e-10 -6.91339e-11 -1.25381e-10)
(8.90057e-10 -6.14859e-11 -2.81656e-10)
(9.39729e-10 -5.52047e-11 -4.59393e-10)
(9.89372e-10 -1.62526e-11 -6.82706e-10)
(1.02262e-09 1.73899e-11 -9.20129e-10)
(3.12278e-10 -9.63874e-12 4.15575e-11)
(4.00118e-10 -1.9847e-11 3.02063e-11)
(5.03354e-10 -2.84216e-11 -4.58359e-13)
(6.1004e-10 -3.55247e-11 -4.82346e-11)
(7.18232e-10 -3.36745e-11 -1.32686e-10)
(8.34698e-10 -2.12096e-11 -2.41445e-10)
(9.19051e-10 8.26228e-12 -3.82223e-10)
(9.86095e-10 5.95309e-11 -5.63986e-10)
(1.0541e-09 1.06643e-10 -7.32291e-10)
(3.19294e-10 -1.26595e-11 1.60213e-11)
(3.9429e-10 -1.20675e-11 5.95697e-12)
(5.25871e-10 -8.22363e-12 -1.90961e-11)
(6.26216e-10 -1.3243e-11 -6.4264e-11)
(7.59993e-10 -1.14191e-11 -1.33214e-10)
(8.60244e-10 1.10187e-11 -2.22337e-10)
(9.8096e-10 4.54952e-11 -3.27448e-10)
(1.03137e-09 1.13651e-10 -4.54788e-10)
(1.1262e-09 1.72953e-10 -5.77782e-10)
)
;
    }
}


// ************************************************************************* //
