/*--------------------------------*- C++ -*----------------------------------*\
| =========                 |                                                 |
| \\      /  F ield         | OpenFOAM: The Open Source CFD Toolbox           |
|  \\    /   O peration     | Version:  4.x                                   |
|   \\  /    A nd           | Web:      www.OpenFOAM.org                      |
|    \\/     M anipulation  |                                                 |
\*---------------------------------------------------------------------------*/
FoamFile
{
    version     2.0;
    format      ascii;
    class       surfaceScalarField;
    location    "34.5";
    object      phi;
}
// * * * * * * * * * * * * * * * * * * * * * * * * * * * * * * * * * * * * * //

dimensions      [0 3 -1 0 0 0 0];

internalField   nonuniform List<scalar> 
249
(
8.36347e-06
-4.86959e-07
-7.94362e-08
8.41545e-06
-2.25256e-07
-6.24022e-08
8.61854e-06
-5.06274e-07
-7.38582e-08
8.67864e-06
-1.82145e-07
-1.18588e-07
8.85209e-06
-3.77532e-07
-6.86329e-08
8.87714e-06
-1.18671e-07
-1.17423e-07
8.98656e-06
-2.77252e-07
-5.78947e-08
9.0016e-06
-1.13553e-07
-1.23801e-07
-1.98216e-07
2.58985e-08
7.79275e-06
-4.80067e-07
-6.61416e-09
7.62716e-06
-2.37358e-07
-1.52019e-08
7.22298e-06
-5.05669e-07
5.37928e-08
7.09246e-06
-1.71565e-07
-3.59932e-08
6.8434e-06
-3.92048e-07
4.88251e-08
6.78438e-06
-1.22646e-07
-4.2129e-08
6.5698e-06
-2.57181e-07
6.50893e-08
6.49609e-06
-8.8255e-08
-4.02365e-08
-6.73481e-08
1.28364e-07
7.56913e-06
-2.70073e-07
-3.28543e-09
7.27092e-06
-1.16831e-07
-1.20901e-08
6.65838e-06
-2.663e-07
5.66241e-08
6.49216e-06
-1.01568e-07
3.00074e-09
6.0895e-06
-2.3014e-07
7.46061e-08
6.00032e-06
-7.06518e-08
1.11882e-08
5.64545e-06
-9.61236e-08
4.77798e-08
5.57498e-06
-2.45389e-08
1.53131e-08
3.13341e-08
-3.36475e-08
7.55441e-06
-1.72285e-08
7.1864e-06
3.71021e-08
6.48098e-06
1.1419e-07
6.2498e-06
2.64782e-08
5.68227e-06
1.52778e-07
5.52962e-06
5.50289e-08
5.19221e-06
1.35251e-07
5.13074e-06
3.76641e-08
1.10474e-08
8.38105e-06
-4.15898e-07
1.18675e-07
8.45303e-06
-2.07056e-07
7.26795e-08
8.62893e-06
-4.11849e-07
1.62086e-07
8.65159e-06
-1.51007e-07
9.75672e-09
8.82572e-06
-3.26487e-07
8.37222e-08
8.84812e-06
-1.14469e-07
-2.53531e-08
8.89208e-06
-2.18272e-07
1.16419e-07
8.79241e-06
-5.3467e-08
2.93422e-08
-1.31463e-07
1.79582e-07
8.03351e-06
-4.63878e-07
1.7112e-07
7.95541e-06
-2.28008e-07
8.38507e-08
7.81486e-06
-4.69031e-07
2.51526e-07
7.72503e-06
-1.59832e-07
6.2658e-08
7.58768e-06
-3.36161e-07
1.95855e-07
7.48893e-06
-9.48018e-08
3.69508e-08
7.28893e-06
-1.67251e-07
2.14073e-07
7.18842e-06
-4.5242e-08
5.20461e-08
-8.66072e-08
2.08004e-07
7.7579e-06
-2.57008e-07
1.95214e-07
7.49779e-06
-8.4008e-08
1.04015e-07
7.0111e-06
-2.02128e-07
2.76415e-07
6.82847e-06
-6.15764e-08
8.7372e-08
6.45798e-06
-1.28339e-07
2.37277e-07
6.35418e-06
-3.90876e-08
5.92682e-08
6.0633e-06
-4.52147e-08
2.16627e-07
5.98193e-06
-1.67798e-08
6.82213e-08
-5.10789e-09
1.60888e-07
7.62879e-06
1.81875e-07
7.38479e-06
1.33874e-07
6.85925e-06
2.98579e-07
6.67348e-06
1.10038e-07
6.31582e-06
2.93587e-07
6.22069e-06
1.1558e-07
6.01181e-06
2.80724e-07
5.97371e-06
7.5214e-08
1.12833e-07
8.6697e-06
-3.87762e-07
8.95423e-06
-2.11849e-07
9.48333e-06
-3.67009e-07
9.63422e-06
-1.41134e-07
9.95593e-06
-2.37996e-07
1.00262e-05
-9.55972e-08
1.03181e-05
-1.75543e-07
1.04581e-05
-1.10594e-07
-1.905e-07
8.37474e-06
-4.2812e-07
8.4668e-06
-2.20055e-07
8.7725e-06
-4.21179e-07
8.86652e-06
-1.72495e-07
9.09366e-06
-2.69285e-07
9.1446e-06
-1.09591e-07
9.35068e-06
-1.67549e-07
9.41949e-06
-1.27355e-07
-1.79224e-07
8.13633e-06
-2.05969e-07
8.11228e-06
-9.19888e-08
8.18481e-06
-2.173e-07
8.20407e-06
-1.04384e-07
8.32673e-06
-1.54668e-07
8.3558e-06
-7.93904e-08
8.51172e-06
-1.06844e-07
8.54027e-06
-8.76779e-08
-1.27736e-07
8.0242e-06
8.02387e-06
8.03427e-06
8.03236e-06
8.16798e-06
8.24797e-06
8.50743e-06
8.57062e-06
)
;

boundaryField
{
    inlet
    {
        type            calculated;
        value           nonuniform List<scalar> 
12
(
-8.16327e-06
-8.16327e-06
-8.16327e-06
-8.16327e-06
-8.16327e-06
-8.16327e-06
-8.16327e-06
-8.16327e-06
-8.16327e-06
-8.16327e-06
-8.16327e-06
-8.16327e-06
)
;
    }
    outlet
    {
        type            calculated;
        value           nonuniform 0();
    }
    wall
    {
        type            calculated;
        value           nonuniform List<scalar> 
63
(
0
0
0
0
0
0
0
0
0
0
0
0
0
0
0
0
0
0
0
0
0
-2.46519e-32
0
0
0
0
0
0
0
0
0
0
0
0
0
0
0
0
0
0
0
0
0
0
0
3.08149e-33
0
0
0
0
0
0
0
0
0
0
0
0
0
0
0
0
0
)
;
    }
    procBoundary4to0
    {
        type            processor;
        value           nonuniform List<scalar> 
36
(
3.66186e-07
2.35678e-07
3.77046e-07
2.40632e-07
2.72722e-07
2.11035e-07
2.2573e-07
2.22318e-07
1.12755e-07
3.7024e-07
1.92895e-07
3.49776e-07
1.55938e-07
2.14745e-07
1.0513e-07
1.29417e-07
8.86441e-08
5.9053e-08
3.87426e-07
1.89774e-07
3.1655e-07
9.32221e-08
1.66139e-07
2.6004e-08
1.46035e-07
-8.56843e-09
1.00633e-07
3.60467e-07
1.74917e-07
2.88968e-07
1.01806e-07
1.844e-07
3.00253e-08
1.17036e-07
-2.42785e-10
2.78472e-08
)
;
    }
    procBoundary4to5
    {
        type            processor;
        value           nonuniform List<scalar> 
12
(
9.06116e-06
6.17781e-06
5.40932e-06
5.18956e-06
8.77018e-06
7.06392e-06
5.70589e-06
5.87984e-06
1.08282e-05
9.61622e-06
8.64967e-06
8.67279e-06
)
;
    }
    procBoundary4to6
    {
        type            processor;
        value           nonuniform List<scalar> 
27
(
-4.45803e-09
3.91571e-08
3.59704e-08
1.32504e-09
2.1126e-10
-3.06082e-09
-1.09937e-08
-4.90552e-10
-6.63864e-08
7.83599e-08
6.32222e-08
1.39028e-07
4.06303e-08
8.85103e-08
-4.51008e-09
1.82007e-08
-1.62318e-08
-1.30217e-08
1.14969e-07
4.22169e-08
7.08814e-08
7.55977e-09
3.30447e-09
-4.3798e-08
-8.55875e-08
-7.5655e-08
-1.17073e-07
)
;
    }
}


// ************************************************************************* //
