/*--------------------------------*- C++ -*----------------------------------*\
| =========                 |                                                 |
| \\      /  F ield         | OpenFOAM: The Open Source CFD Toolbox           |
|  \\    /   O peration     | Version:  4.x                                   |
|   \\  /    A nd           | Web:      www.OpenFOAM.org                      |
|    \\/     M anipulation  |                                                 |
\*---------------------------------------------------------------------------*/
FoamFile
{
    version     2.0;
    format      ascii;
    class       volScalarField;
    location    "34.5";
    object      pSmooth;
}
// * * * * * * * * * * * * * * * * * * * * * * * * * * * * * * * * * * * * * //

dimensions      [1 -1 -2 0 0 0 0];

internalField   nonuniform List<scalar> 
108
(
110.185
92.8163
103.129
75.0149
95.8109
56.8487
88.5296
38.3293
81.4331
110.84
93.1206
103.747
75.2405
96.27
56.9216
88.8805
38.4582
81.7558
111.325
93.4511
104.128
75.5707
96.5453
57.3583
89.0728
39.0825
81.7079
111.534
93.7571
104.392
75.9508
96.8298
57.8894
89.1585
39.6844
81.6253
110.355
93.0479
103.358
75.3753
96.0292
57.2133
88.8357
39.0061
81.7179
110.864
93.2503
103.734
75.4984
96.3439
57.3229
89.0542
38.9581
81.8348
111.362
93.6755
104.242
75.7579
96.756
57.5041
89.2923
39.2271
82.0397
111.607
93.6729
104.349
75.8876
96.7121
57.5392
89.119
39.0148
81.7934
110.068
92.8038
103.003
75.3295
95.7707
57.2104
88.4305
38.7409
81.2482
110.546
93.0306
103.324
75.3672
95.9759
57.1923
88.579
38.7766
81.4363
110.987
93.3289
103.722
75.527
96.2518
57.3811
88.8099
39.0437
81.6237
111.231
93.3333
103.886
75.6325
96.2707
57.2749
88.6781
38.9915
81.5546
)
;

boundaryField
{
    inlet
    {
        type            zeroGradient;
    }
    outlet
    {
        type            fixedValue;
        value           nonuniform 0();
    }
    wall
    {
        type            zeroGradient;
    }
    procBoundary4to0
    {
        type            processor;
        value           nonuniform List<scalar> 
36
(
109.941
92.7372
103.037
75.0158
95.9148
56.9148
88.7083
38.6777
81.8577
110.539
93.0261
103.536
75.1537
96.2863
57.0528
89.0621
38.6467
82.061
111.008
93.426
104.077
75.6208
96.7538
57.608
89.2073
39.6751
81.8096
111.237
93.5729
104.228
75.6898
96.7097
57.7939
89.0896
39.7593
81.7183
)
;
    }
    procBoundary4to5
    {
        type            processor;
        value           nonuniform List<scalar> 
12
(
19.3519
19.5825
20.7911
21.8608
20.2722
20.1328
20.8461
20.7358
19.9239
19.9613
20.582
20.5635
)
;
    }
    procBoundary4to6
    {
        type            processor;
        value           nonuniform List<scalar> 
27
(
111.657
93.4448
104.361
75.8642
96.7425
57.7508
89.0729
39.7818
81.6845
111.6
93.5588
104.31
75.7535
96.8157
57.7122
89.3609
39.4786
82.0877
111.082
93.3543
103.871
75.6674
96.406
57.6156
89.0052
39.2465
81.8631
)
;
    }
}


// ************************************************************************* //
