/*--------------------------------*- C++ -*----------------------------------*\
| =========                 |                                                 |
| \\      /  F ield         | OpenFOAM: The Open Source CFD Toolbox           |
|  \\    /   O peration     | Version:  4.x                                   |
|   \\  /    A nd           | Web:      www.OpenFOAM.org                      |
|    \\/     M anipulation  |                                                 |
\*---------------------------------------------------------------------------*/
FoamFile
{
    version     2.0;
    format      ascii;
    class       volScalarField;
    location    "34.5";
    object      QWallFluid;
}
// * * * * * * * * * * * * * * * * * * * * * * * * * * * * * * * * * * * * * //

dimensions      [1 -1 -3 0 0 0 0];

internalField   nonuniform List<scalar> 
108
(
8.27546e+08
4.16976e+08
8.36687e+08
4.38731e+08
8.48833e+08
4.53312e+08
8.59605e+08
4.56731e+08
8.71774e+08
0
0
0
0
0
0
0
0
0
0
0
0
0
0
0
0
0
0
0
0
0
0
0
0
0
0
0
8.25551e+08
4.21144e+08
8.36852e+08
4.39276e+08
8.44923e+08
4.54233e+08
8.55436e+08
4.49104e+08
8.54699e+08
0
0
0
0
0
0
0
0
0
0
0
0
0
0
0
0
0
0
0
0
0
0
0
0
0
0
0
1.65763e+09
9.11338e+08
1.72792e+09
1.0373e+09
1.77218e+09
1.10305e+09
1.8034e+09
1.15551e+09
1.85489e+09
8.23762e+08
4.23481e+08
8.3743e+08
4.58381e+08
8.53187e+08
4.79966e+08
8.66763e+08
4.96041e+08
8.84752e+08
8.15978e+08
4.00129e+08
8.16649e+08
4.04587e+08
8.24202e+08
4.12811e+08
8.35327e+08
4.22787e+08
8.48913e+08
8.0764e+08
3.94267e+08
8.11021e+08
3.90337e+08
8.1638e+08
4.00668e+08
8.33385e+08
4.24476e+08
8.50792e+08
)
;

boundaryField
{
    inlet
    {
        type            calculated;
        value           uniform 0;
    }
    outlet
    {
        type            calculated;
        value           nonuniform 0();
    }
    wall
    {
        type            calculated;
        value           uniform 0;
    }
    procBoundary4to0
    {
        type            processor;
        value           nonuniform List<scalar> 
36
(
8.33067e+08
4.1458e+08
8.45477e+08
4.40811e+08
8.55718e+08
4.51474e+08
8.63547e+08
4.51333e+08
8.66325e+08
0
0
0
0
0
0
0
0
0
0
0
0
0
0
0
0
0
0
0
0
0
0
0
0
0
0
0
)
;
    }
    procBoundary4to5
    {
        type            processor;
        value           nonuniform List<scalar> 
12
(
4.50585e+08
0
0
0
4.32408e+08
0
0
0
1.22076e+09
5.08096e+08
4.23767e+08
4.24478e+08
)
;
    }
    procBoundary4to6
    {
        type            processor;
        value           nonuniform List<scalar> 
27
(
0
0
0
0
0
0
0
0
0
0
0
0
0
0
0
0
0
0
8.16438e+08
4.08519e+08
8.17703e+08
4.04563e+08
8.17465e+08
3.96216e+08
8.1679e+08
3.73334e+08
8.2498e+08
)
;
    }
}


// ************************************************************************* //
