/*--------------------------------*- C++ -*----------------------------------*\
| =========                 |                                                 |
| \\      /  F ield         | OpenFOAM: The Open Source CFD Toolbox           |
|  \\    /   O peration     | Version:  4.x                                   |
|   \\  /    A nd           | Web:      www.OpenFOAM.org                      |
|    \\/     M anipulation  |                                                 |
\*---------------------------------------------------------------------------*/
FoamFile
{
    version     2.0;
    format      ascii;
    class       volVectorField;
    location    "34.5";
    object      UsNext;
}
// * * * * * * * * * * * * * * * * * * * * * * * * * * * * * * * * * * * * * //

dimensions      [0 1 -1 0 0 0 0];

internalField   nonuniform List<vector> 
108
(
(-6.08753e-11 -6.80386e-12 3.07328e-10)
(1.92105e-10 -2.40812e-11 4.36184e-10)
(1.60081e-10 -9.5472e-11 6.03018e-10)
(3.24158e-10 -6.00116e-11 8.76615e-10)
(3.25685e-10 1.59618e-11 1.11731e-09)
(1.51232e-10 -1.22776e-10 1.1955e-09)
(-7.01789e-11 -4.48887e-10 1.84911e-09)
(3.19598e-10 -1.52169e-10 2.00141e-09)
(-5.12507e-10 -1.96529e-10 2.11802e-09)
(-4.1848e-11 -7.69445e-11 5.0656e-10)
(2.99245e-10 -3.79657e-10 6.53949e-10)
(3.01584e-10 -2.25949e-10 1.08669e-09)
(5.36447e-10 -2.86405e-10 1.50858e-09)
(4.15918e-10 -2.61084e-10 1.94581e-09)
(4.85785e-10 -5.45244e-10 1.87281e-09)
(1.54816e-10 -8.06339e-10 2.68035e-09)
(-9.85159e-11 -7.05103e-10 3.02996e-09)
(-7.64736e-10 -2.51715e-10 3.68206e-09)
(-6.94544e-11 -1.54616e-10 5.89783e-10)
(1.92257e-10 -3.46417e-10 9.72517e-10)
(3.65318e-10 -3.66859e-10 1.38459e-09)
(5.35354e-10 -5.28228e-10 1.85584e-09)
(4.6545e-10 -6.98634e-10 2.3356e-09)
(5.34593e-10 -8.71894e-10 2.40333e-09)
(2.99089e-10 -1.0465e-09 2.8664e-09)
(3.50882e-10 -1.08618e-09 3.21587e-09)
(8.4412e-10 -1.26673e-09 3.11843e-09)
(-3.50915e-11 -1.89469e-10 5.49317e-10)
(1.01898e-10 -6.15991e-10 9.15206e-10)
(-2.51878e-10 -8.14478e-10 1.55883e-09)
(-1.16456e-11 -9.79073e-10 1.50931e-09)
(4.72505e-11 -1.35934e-09 2.31893e-09)
(-2.35622e-10 -1.35246e-09 2.53177e-09)
(7.21164e-10 -1.71305e-09 2.8974e-09)
(4.05461e-11 -2.32598e-09 2.62948e-09)
(-9.25939e-11 -2.15186e-09 2.45542e-09)
(-5.38436e-11 -3.41419e-11 2.13377e-10)
(8.89078e-11 -1.5613e-10 3.5179e-10)
(1.9694e-10 -1.00314e-10 4.03438e-10)
(3.27611e-10 -8.70738e-11 5.32661e-10)
(3.70447e-10 -6.33069e-11 6.2145e-10)
(2.93439e-10 -1.3694e-10 8.0549e-10)
(2.78758e-10 -3.51161e-10 9.97168e-10)
(3.26235e-10 -1.76273e-10 1.34377e-09)
(5.81074e-10 -2.8172e-10 1.14403e-09)
(-8.3574e-11 -1.44978e-10 4.05699e-10)
(9.30688e-11 -3.25082e-10 5.11897e-10)
(2.4835e-10 -2.97614e-10 6.01745e-10)
(5.60165e-10 -3.63861e-10 1.11273e-09)
(6.71186e-10 -3.0427e-10 1.30722e-09)
(6.00336e-10 -2.74457e-10 1.47672e-09)
(7.76126e-10 -2.34736e-10 1.80809e-09)
(1.02554e-09 -5.7974e-11 2.05219e-09)
(1.13709e-09 -5.43714e-10 2.16351e-09)
(-3.735e-11 -1.0315e-10 3.97682e-10)
(8.64602e-11 -4.58576e-10 5.91851e-10)
(4.60482e-10 -2.48138e-10 6.4993e-10)
(6.94606e-10 -2.5211e-10 1.05032e-09)
(8.91233e-10 -2.93742e-10 1.56325e-09)
(7.78283e-10 -6.106e-10 1.76914e-09)
(9.50637e-10 -7.47985e-10 1.98294e-09)
(1.58943e-09 -7.22173e-10 1.95915e-09)
(1.43747e-09 -1.00484e-09 2.58739e-09)
(-2.59637e-11 -2.85739e-10 3.40058e-10)
(5.05737e-11 -6.05139e-10 5.748e-10)
(1.21158e-10 -5.58683e-10 9.17441e-10)
(1.23397e-10 -6.0565e-10 1.02854e-09)
(2.20544e-10 -7.8992e-10 1.5386e-09)
(3.57604e-10 -1.19676e-09 1.5469e-09)
(8.99276e-10 -1.12396e-09 2.02928e-09)
(1.45757e-09 -1.46038e-09 2.00405e-09)
(2.45836e-09 -1.86696e-09 1.84341e-09)
(-2.54866e-11 1.81221e-11 2.09509e-10)
(1.12513e-10 -9.08518e-11 2.0342e-10)
(1.28666e-10 -7.33511e-11 2.13378e-10)
(2.78099e-10 -9.23769e-11 2.75149e-10)
(1.72024e-10 -1.00204e-10 3.19564e-10)
(2.21413e-10 -1.66823e-10 3.39093e-10)
(6.80905e-11 -2.90036e-10 7.14553e-10)
(3.78627e-10 -1.3726e-10 6.59138e-10)
(6.10606e-10 -1.97798e-10 4.5622e-10)
(-8.56852e-11 -1.1779e-10 4.11131e-10)
(1.16354e-10 -1.94287e-10 2.25798e-10)
(1.45679e-10 -1.72838e-10 3.64624e-10)
(2.70757e-10 -1.71756e-10 3.54211e-10)
(3.26128e-10 -1.77059e-10 6.67495e-10)
(6.59656e-10 1.54506e-10 5.3313e-10)
(7.63338e-10 1.66775e-10 6.96925e-10)
(8.12246e-10 -2.93148e-10 9.94631e-10)
(9.57655e-10 -3.85693e-10 1.07542e-09)
(-9.04234e-11 -5.25353e-11 2.6398e-10)
(1.75594e-10 -2.67339e-10 2.4344e-10)
(2.17135e-10 -1.98696e-10 3.55528e-10)
(3.12448e-10 -2.27196e-10 4.17079e-10)
(4.52421e-10 -1.98069e-10 8.74576e-10)
(6.44227e-10 -1.84733e-10 8.63408e-10)
(1.25211e-09 -2.24167e-10 8.8339e-10)
(1.40623e-09 -3.84623e-10 1.01882e-09)
(1.57023e-09 -7.88149e-10 1.1981e-09)
(-2.52633e-11 -2.01999e-10 1.37626e-10)
(9.57487e-11 -4.43109e-10 2.01544e-10)
(4.22889e-11 -4.70157e-10 4.93811e-10)
(2.3179e-10 -3.33954e-10 5.55941e-10)
(1.36343e-10 -3.00799e-10 6.76708e-10)
(2.76546e-10 -4.50231e-10 6.16192e-10)
(8.76207e-10 -7.87641e-10 7.27671e-10)
(9.30295e-09 -5.78851e-09 8.68118e-10)
(2.0674e-09 -1.42627e-09 1.3084e-09)
)
;

boundaryField
{
    inlet
    {
        type            calculated;
        value           nonuniform List<vector> 
12
(
(-6.08753e-11 -6.80386e-12 3.07328e-10)
(-4.1848e-11 -7.69445e-11 5.0656e-10)
(-6.94544e-11 -1.54616e-10 5.89783e-10)
(-3.50915e-11 -1.89469e-10 5.49317e-10)
(-5.38436e-11 -3.41419e-11 2.13377e-10)
(-8.3574e-11 -1.44978e-10 4.05699e-10)
(-3.735e-11 -1.0315e-10 3.97682e-10)
(-2.59637e-11 -2.85739e-10 3.40058e-10)
(-2.54866e-11 1.81221e-11 2.09509e-10)
(-8.56852e-11 -1.1779e-10 4.11131e-10)
(-9.04234e-11 -5.25353e-11 2.6398e-10)
(-2.52633e-11 -2.01999e-10 1.37626e-10)
)
;
    }
    outlet
    {
        type            calculated;
        value           nonuniform 0();
    }
    wall
    {
        type            calculated;
        value           nonuniform List<vector> 
63
(
(-2.54866e-11 1.81221e-11 2.09509e-10)
(-8.56852e-11 -1.1779e-10 4.11131e-10)
(-9.04234e-11 -5.25353e-11 2.6398e-10)
(-2.52633e-11 -2.01999e-10 1.37626e-10)
(1.12513e-10 -9.08518e-11 2.0342e-10)
(1.16354e-10 -1.94287e-10 2.25798e-10)
(1.75594e-10 -2.67339e-10 2.4344e-10)
(9.57487e-11 -4.43109e-10 2.01544e-10)
(1.28666e-10 -7.33511e-11 2.13378e-10)
(1.45679e-10 -1.72838e-10 3.64624e-10)
(2.17135e-10 -1.98696e-10 3.55528e-10)
(4.22889e-11 -4.70157e-10 4.93811e-10)
(2.78099e-10 -9.23769e-11 2.75149e-10)
(2.70757e-10 -1.71756e-10 3.54211e-10)
(3.12448e-10 -2.27196e-10 4.17079e-10)
(2.3179e-10 -3.33954e-10 5.55941e-10)
(1.72024e-10 -1.00204e-10 3.19564e-10)
(3.26128e-10 -1.77059e-10 6.67495e-10)
(4.52421e-10 -1.98069e-10 8.74576e-10)
(1.36343e-10 -3.00799e-10 6.76708e-10)
(2.21413e-10 -1.66823e-10 3.39093e-10)
(6.59656e-10 1.54506e-10 5.3313e-10)
(6.44227e-10 -1.84733e-10 8.63408e-10)
(2.76546e-10 -4.50231e-10 6.16192e-10)
(6.80905e-11 -2.90036e-10 7.14553e-10)
(7.63338e-10 1.66775e-10 6.96925e-10)
(1.25211e-09 -2.24167e-10 8.8339e-10)
(8.76207e-10 -7.87641e-10 7.27671e-10)
(3.78627e-10 -1.3726e-10 6.59138e-10)
(8.12246e-10 -2.93148e-10 9.94631e-10)
(1.40623e-09 -3.84623e-10 1.01882e-09)
(9.30295e-09 -5.78851e-09 8.68118e-10)
(6.10606e-10 -1.97798e-10 4.5622e-10)
(9.57655e-10 -3.85693e-10 1.07542e-09)
(1.57023e-09 -7.88149e-10 1.1981e-09)
(2.0674e-09 -1.42627e-09 1.3084e-09)
(-6.08753e-11 -6.80386e-12 3.07328e-10)
(-5.38436e-11 -3.41419e-11 2.13377e-10)
(-2.54866e-11 1.81221e-11 2.09509e-10)
(1.92105e-10 -2.40812e-11 4.36184e-10)
(8.89078e-11 -1.5613e-10 3.5179e-10)
(1.12513e-10 -9.08518e-11 2.0342e-10)
(1.60081e-10 -9.5472e-11 6.03018e-10)
(1.9694e-10 -1.00314e-10 4.03438e-10)
(1.28666e-10 -7.33511e-11 2.13378e-10)
(3.24158e-10 -6.00116e-11 8.76615e-10)
(3.27611e-10 -8.70738e-11 5.32661e-10)
(2.78099e-10 -9.23769e-11 2.75149e-10)
(3.25685e-10 1.59618e-11 1.11731e-09)
(3.70447e-10 -6.33069e-11 6.2145e-10)
(1.72024e-10 -1.00204e-10 3.19564e-10)
(1.51232e-10 -1.22776e-10 1.1955e-09)
(2.93439e-10 -1.3694e-10 8.0549e-10)
(2.21413e-10 -1.66823e-10 3.39093e-10)
(-7.01789e-11 -4.48887e-10 1.84911e-09)
(2.78758e-10 -3.51161e-10 9.97168e-10)
(6.80905e-11 -2.90036e-10 7.14553e-10)
(3.19598e-10 -1.52169e-10 2.00141e-09)
(3.26235e-10 -1.76273e-10 1.34377e-09)
(3.78627e-10 -1.3726e-10 6.59138e-10)
(-5.12507e-10 -1.96529e-10 2.11802e-09)
(5.81074e-10 -2.8172e-10 1.14403e-09)
(6.10606e-10 -1.97798e-10 4.5622e-10)
)
;
    }
    procBoundary4to0
    {
        type            processor;
        value           nonuniform List<vector> 
36
(
(2.8254e-11 -3.43863e-11 4.26017e-10)
(3.27684e-11 -1.70106e-10 8.19921e-10)
(2.92277e-11 -3.75118e-10 9.30672e-10)
(1.90345e-11 -4.0898e-11 8.867e-10)
(-2.35109e-10 -2.6947e-10 9.40111e-10)
(-7.34517e-10 -1.52797e-10 1.71286e-09)
(-1.01627e-09 -1.80375e-10 2.30981e-09)
(-1.34286e-09 -6.05042e-10 3.0452e-09)
(-1.19132e-09 -8.74486e-10 4.92167e-09)
(-5.02168e-13 -1.31103e-10 6.01816e-10)
(1.28675e-11 -1.71702e-10 1.04218e-09)
(1.62849e-10 -2.63401e-10 1.50372e-09)
(6.29824e-11 -4.22264e-10 1.84156e-09)
(-4.57389e-10 -4.78016e-10 2.07996e-09)
(-7.11691e-10 -2.99426e-10 2.6904e-09)
(-9.28785e-10 -4.05439e-10 3.28553e-09)
(-1.30906e-09 -1.1699e-09 3.69306e-09)
(-1.90995e-09 -4.14027e-10 4.5685e-09)
(-5.53214e-11 -1.6468e-10 1.04418e-09)
(9.21157e-12 -3.37012e-10 1.27531e-09)
(3.45611e-10 -5.60752e-10 1.63634e-09)
(5.9363e-10 -3.75712e-10 2.17816e-09)
(1.40064e-10 -1.21872e-09 2.63458e-09)
(9.20633e-11 -7.18228e-10 3.26012e-09)
(1.75409e-10 -1.13102e-09 3.66322e-09)
(-3.04007e-10 -1.47581e-09 4.32858e-09)
(-8.18685e-10 1.10227e-10 5.05318e-09)
(-1.35055e-10 -2.08921e-10 7.34656e-10)
(-1.55984e-11 -5.76209e-10 1.20233e-09)
(3.48097e-10 -8.72608e-10 1.52614e-09)
(7.14207e-11 -1.42163e-09 2.05282e-09)
(4.66457e-10 -1.74586e-09 2.50306e-09)
(-5.55406e-10 -1.78232e-09 3.75439e-09)
(3.66247e-10 -2.13916e-09 4.13853e-09)
(-2.52578e-10 -2.07899e-09 3.932e-09)
(-2.81282e-09 -2.27493e-09 4.75771e-09)
)
;
    }
    procBoundary4to5
    {
        type            processor;
        value           nonuniform List<vector> 
12
(
(-1.63439e-10 2.44696e-10 1.67016e-09)
(1.13821e-09 3.47795e-10 2.58432e-09)
(7.19275e-10 -7.72902e-10 3.5515e-09)
(-4.7391e-10 -1.42025e-09 1.87793e-09)
(4.0223e-10 -8.18744e-11 1.26878e-09)
(1.28762e-09 -1.02196e-10 2.03552e-09)
(2.17159e-09 -6.26463e-10 2.80823e-09)
(3.32112e-09 -1.08052e-09 1.04993e-09)
(2.41945e-10 -7.40552e-11 5.22039e-10)
(1.06205e-09 5.79756e-11 8.48646e-10)
(1.64837e-09 -1.31993e-10 5.65199e-10)
(2.83517e-09 -2.43303e-10 5.59548e-10)
)
;
    }
    procBoundary4to6
    {
        type            processor;
        value           nonuniform List<vector> 
27
(
(-2.74997e-10 -2.61354e-10 4.82731e-10)
(-4.06855e-10 -6.60202e-10 9.32685e-10)
(-7.57653e-10 -7.98978e-10 1.38088e-09)
(-8.43168e-10 -9.48118e-10 1.78237e-09)
(-1.62614e-09 -1.23199e-09 2.09557e-09)
(-1.427e-09 -1.57901e-09 2.27526e-09)
(-1.95667e-09 -2.14651e-09 2.63951e-09)
(-2.09504e-09 -2.88113e-09 2.60147e-09)
(-1.85496e-09 -2.20023e-09 2.47808e-09)
(-1.53656e-10 -2.34129e-10 2.91141e-10)
(-1.85854e-11 -5.63443e-10 5.02827e-10)
(-1.29994e-10 -5.87084e-10 9.23231e-10)
(-2.45444e-10 -5.93679e-10 1.02195e-09)
(-1.70007e-10 -6.2673e-10 1.11358e-09)
(-1.08252e-10 -1.14409e-09 1.45497e-09)
(-2.40063e-10 -1.49419e-09 1.60035e-09)
(6.76259e-11 -2.30148e-09 2.12181e-09)
(2.77006e-10 -2.14392e-09 1.72299e-09)
(-7.57461e-11 -2.2641e-10 1.94005e-10)
(-2.32133e-11 -4.83344e-10 2.40441e-10)
(2.71806e-11 -4.8552e-10 4.89257e-10)
(9.31643e-11 -2.8765e-10 4.12471e-10)
(-3.80275e-11 -4.17891e-10 5.09426e-10)
(1.92766e-10 -7.93233e-10 6.35923e-10)
(4.08703e-10 -1.20656e-09 8.98299e-10)
(1.2292e-09 -1.68427e-09 8.14176e-10)
(1.48451e-09 -2.09328e-09 8.94554e-10)
)
;
    }
}


// ************************************************************************* //
