/*--------------------------------*- C++ -*----------------------------------*\
| =========                 |                                                 |
| \\      /  F ield         | OpenFOAM: The Open Source CFD Toolbox           |
|  \\    /   O peration     | Version:  4.x                                   |
|   \\  /    A nd           | Web:      www.OpenFOAM.org                      |
|    \\/     M anipulation  |                                                 |
\*---------------------------------------------------------------------------*/
FoamFile
{
    version     2.0;
    format      ascii;
    class       volVectorField;
    location    "57.5";
    object      GField;
}
// * * * * * * * * * * * * * * * * * * * * * * * * * * * * * * * * * * * * * //

dimensions      [1 -2 -1 0 0 0 0];

internalField   nonuniform List<vector> 
132
(
(100.219 -1.21252 -4.3462)
(48.8972 -0.737545 -3.04822)
(110.483 -1.36764 -5.1583)
(65.2669 -0.365584 -2.97581)
(119.766 -0.723553 -4.48429)
(77.2847 0.155362 -2.5825)
(127.188 -0.222053 -3.97866)
(86.3005 0.654038 -2.81682)
(134.983 0.228987 -3.90289)
(100.535 -3.32293 -4.94267)
(46.2791 -2.40781 -2.94341)
(107.853 -4.24248 -5.42115)
(58.7182 -2.24294 -3.11496)
(115.4 -3.62471 -5.08049)
(68.3441 -1.77555 -2.73562)
(121.57 -3.33475 -4.52711)
(75.6272 -2.59674 -2.72741)
(127.566 -3.56711 -4.00197)
(101.314 -1.9337 -5.50585)
(44.366 -1.13816 -2.84792)
(106.22 -2.14979 -5.78522)
(54.3006 -1.17684 -2.99408)
(111.143 -1.35723 -5.42384)
(61.6039 -0.355328 -2.7847)
(115.608 -0.932953 -4.77004)
(65.8092 8.80135e-05 -1.90477)
(117.598 -0.700962 -3.56605)
(100.755 -1.58706 -5.37936)
(44.9141 -0.547797 -2.60124)
(106.66 -1.19508 -5.31172)
(99.0521 -1.76234 -6.85991)
(42.0463 -0.680143 -3.87806)
(102.583 -1.67092 -6.68218)
(48.4751 -0.629931 -3.149)
(106.289 -1.39001 -4.59661)
(53.4097 -0.194929 -2.14759)
(109.709 -0.913612 -3.22888)
(56.5724 0.39027 -1.54744)
(112.818 -0.186137 -2.05392)
(98.5618 -4.21523 -7.70887)
(37.2636 -1.98144 -3.68301)
(99.5494 -4.67067 -7.27189)
(37.9677 -1.82177 -2.94163)
(99.9475 -4.23107 -5.25691)
(36.5528 -1.34164 -1.80513)
(100.731 -3.7195 -3.73369)
(33.8598 -0.986567 -1.06147)
(101.982 -2.96954 -1.90839)
(97.8886 -2.23345 -8.44646)
(33.6696 -0.659086 -3.56731)
(97.3728 -1.94159 -8.1698)
(30.3744 -0.515135 -2.8015)
(95.9151 -1.27082 -5.72874)
(24.6512 -0.00927523 -1.57049)
(94.7543 -0.20254 -3.22406)
(16.8527 0.419318 -0.6621)
(94.9155 0.302556 -1.31747)
(96.6051 -0.589312 -8.91763)
(34.9584 -0.25659 -4.15178)
(97.0285 -0.608908 -8.72582)
(32.36 -0.010072 -3.0968)
(95.9941 -0.133819 -6.3441)
(97.1942 -2.12828 -5.87525)
(40.84 -0.888781 -3.53863)
(99.6403 -2.10623 -6.11822)
(45.4609 -0.794138 -3.46726)
(102.824 -1.78553 -5.01551)
(49.6315 -0.349541 -3.30004)
(106.095 -1.22653 -4.08347)
(52.1848 0.209376 -3.74858)
(109.822 -0.181737 -4.14851)
(96.4517 -4.83578 -6.55399)
(35.5895 -2.30281 -3.48821)
(96.319 -5.60427 -6.56442)
(33.8666 -2.17541 -2.76228)
(96.2028 -4.71986 -4.82077)
(31.3899 -1.52481 -2.45407)
(96.9683 -3.36251 -3.94533)
(28.5799 -1.44644 -2.36101)
(99.0735 -2.46654 -3.16432)
(95.4466 -3.21154 -6.8373)
(31.2916 -1.44055 -3.55731)
(93.0938 -3.45039 -7.16592)
(22.7191 -0.905628 -2.43435)
(90.7838 -2.28573 -4.73386)
(15.3995 -0.419359 -1.70438)
(90.1726 -1.20152 -1.76497)
(10.7839 -0.31028 -1.60218)
(90.7133 -1.11175 0.0660419)
(94.8009 -1.13342 -6.50419)
(30.3361 -0.591619 -3.44555)
(92.158 -1.46964 -6.52067)
(21.7695 -0.623142 -1.89758)
(90.7914 -1.5948 -3.79451)
(16.277 -0.908165 -1.4283)
(91.3199 -1.60043 -2.52032)
(97.0866 -2.53644 -4.24027)
(40.3019 -1.1069 -2.70622)
(98.8111 -2.39079 -4.38898)
(43.4354 -0.7726 -2.58957)
(100.262 -1.67451 -3.4227)
(44.4574 -0.579161 -2.38364)
(101.236 -1.45036 -2.69836)
(43.3583 0.0614871 -2.48275)
(101.151 -0.174317 -1.88976)
(95.9035 -5.20261 -4.80612)
(32.7235 -2.5514 -2.48958)
(93.6367 -5.89202 -4.82526)
(26.4725 -2.02006 -1.83328)
(92.1063 -4.58136 -3.25177)
(20.0172 -1.54623 -1.25604)
(90.816 -2.23936 -2.29771)
(12.5132 -1.17957 -1.0339)
(90.5452 0.0619452 -2.17693)
(95.2081 -2.27541 -4.88557)
(28.6183 -0.989941 -2.35698)
(90.219 -2.09944 -4.174)
(15.2712 -0.339451 -1.1132)
(86.4584 -0.522712 -2.37439)
(4.14113 -0.0319443 -0.318009)
(83.8259 0.852243 -1.66855)
(3.49643e-05 -1.26077e-06 -2.64934e-06)
(81.102 0.928148 -0.326327)
(94.9723 -0.429655 -4.40196)
(30.6663 0.127904 -2.52264)
(91.0238 0.578566 -4.43939)
(20.7906 0.443359 -1.69399)
(89.8282 0.940826 -3.5701)
(14.8441 0.491738 -1.39503)
(89.4296 -0.120492 -2.73107)
(11.1529 0.624834 -1.31866)
(89.3063 -0.0998398 -1.30583)
)
;

boundaryField
{
    inlet
    {
        type            calculated;
        value           uniform (67 0 0);
    }
    outlet
    {
        type            calculated;
        value           nonuniform 0();
    }
    wall
    {
        type            calculated;
        value           uniform (0 0 0);
    }
    procBoundary0to1
    {
        type            processor;
        value           nonuniform List<vector> 
12
(
(93.4559 1.90138 -3.15558)
(80.4089 -2.66016 -3.03861)
(66.0733 0.437213 -2.27008)
(58.0244 1.29869 -1.09331)
(30.7243 -1.056 -0.493015)
(8.42752 0.409657 -0.567166)
(52.8078 1.44377 -4.65336)
(27.9617 -2.21234 -3.04879)
(5.85777 -0.329908 -1.3049)
(37.0385 0.505286 -1.41699)
(5.76582 -0.874465 -0.544014)
(3.34073e-05 -2.81154e-06 1.58534e-06)
)
;
    }
    procBoundary0to2
    {
        type            processor;
        value           nonuniform List<vector> 
44
(
(55.3729 -0.632642 -2.67377)
(111.733 -1.07399 -5.03044)
(64.0351 -0.731705 -2.40142)
(117.289 -1.16372 -3.71022)
(69.748 -0.400263 -1.38841)
(122.776 -0.865966 -2.37442)
(99.1928 0.171247 -4.31846)
(41.7598 0.0477294 -2.43992)
(55.3729 -0.632642 -2.67377)
(103.574 0.455481 -5.09344)
(55.3729 -0.632642 -2.67377)
(111.733 -1.07399 -5.03044)
(27.3372 0.032248 -1.96995)
(96.0087 -0.203092 -3.9736)
(23.8683 0.202356 -1.44575)
(98.3479 0.157309 -2.24704)
(97.5244 1.19831 -8.069)
(34.0079 0.262242 -3.8638)
(96.4655 1.25676 -8.53146)
(28.9058 0.658665 -3.14402)
(27.3372 0.032248 -1.96995)
(94.9524 1.59731 -6.46122)
(27.3372 0.032248 -1.96995)
(96.0087 -0.203092 -3.9736)
(14.2555 -1.0443 -1.5622)
(92.5634 -0.207616 -2.04377)
(95.4476 1.18906 -6.70345)
(30.8613 0.153194 -3.16777)
(92.1168 0.398545 -6.00259)
(20.342 -0.0290486 -1.76643)
(89.2816 -0.447111 -3.65945)
(10.0053 -0.282751 -0.805566)
(14.2555 -1.0443 -1.5622)
(87.0546 -1.78346 -1.53744)
(14.2555 -1.0443 -1.5622)
(92.5634 -0.207616 -2.04377)
(94.7269 1.82351 -5.61707)
(28.9835 0.973501 -2.27999)
(90.3801 2.50467 -4.47137)
(18.9087 0.659792 -1.55979)
(88.3421 1.99611 -2.39826)
(11.1804 0.456984 -0.818803)
(87.4475 1.53438 -0.129269)
(4.56464 0.246161 -0.474072)
)
;
    }
    procBoundary0to4
    {
        type            processor;
        value           nonuniform List<vector> 
36
(
(96.1484 -2.79992 -1.8233)
(40.9586 -1.24602 -1.1701)
(97.5093 -2.9003 -1.74078)
(43.7026 -1.13943 -1.31544)
(99.3576 -2.12911 -0.871412)
(45.5986 -0.587674 -0.951369)
(100.972 -1.46752 -0.706999)
(46.0569 -0.545638 -0.938068)
(102.763 -1.41381 0.622686)
(94.3757 -5.45108 -1.4902)
(33.5586 -2.60265 -0.78034)
(92.2634 -5.65914 -1.10471)
(26.6063 -1.97267 -0.754465)
(91.0497 -4.22084 -0.386811)
(21.8955 -1.43936 -0.438458)
(91.3468 -3.17021 0.0315013)
(17.4739 -1.37477 -0.402859)
(91.8375 -1.85918 0.845661)
(94.1774 -2.84509 -1.35968)
(29.7492 -1.5366 -0.625167)
(89.6571 -3.12967 -0.60802)
(19.141 -1.00662 -0.190983)
(87.7252 -2.70961 0.132888)
(11.5972 -0.696301 0.140058)
(87.4418 -1.68899 -0.631263)
(3.89268 -0.249876 0.157014)
(87.6302 -0.100433 -0.65043)
(94.4846 -1.95649 -2.19207)
(30.3352 -0.533701 -0.843309)
(89.5599 -1.81862 -1.62853)
(19.3405 -0.767799 -0.795321)
(87.0385 -1.51048 -1.21594)
(9.80437 -0.536974 -0.27269)
(85.5527 0.228242 -0.798977)
(2.53203 -0.22601 -0.0524235)
(85.1461 -0.154883 0.324845)
)
;
    }
    procBoundary0to6
    {
        type            processor;
        value           uniform (87.452 1.86865 -0.710132);
    }
    procBoundary0to7
    {
        type            processor;
        value           uniform (6.1964 0.717439 -1.04177);
    }
}


// ************************************************************************* //
