/*--------------------------------*- C++ -*----------------------------------*\
| =========                 |                                                 |
| \\      /  F ield         | OpenFOAM: The Open Source CFD Toolbox           |
|  \\    /   O peration     | Version:  4.x                                   |
|   \\  /    A nd           | Web:      www.OpenFOAM.org                      |
|    \\/     M anipulation  |                                                 |
\*---------------------------------------------------------------------------*/
FoamFile
{
    version     2.0;
    format      ascii;
    class       volScalarField;
    location    "57.5";
    object      KslNext;
}
// * * * * * * * * * * * * * * * * * * * * * * * * * * * * * * * * * * * * * //

dimensions      [1 -3 -1 0 0 0 0];

internalField   nonuniform List<scalar> 
132
(
3318.99
6837.58
3090.27
5265.42
2910.12
4543.73
2800.82
4105.22
2636.83
3338.01
7303.47
3197.53
5895.62
3051.52
5172.61
2933.54
4705.06
2819.5
3348.44
7671.65
3260.8
6398.31
3189.47
5736.63
3079.43
5390.96
3037.73
3366.99
7558.92
3229.39
3369.93
7937.04
3299.82
7043.34
3264.39
6516.16
3222.28
6173.7
3118.35
3401.65
9083.92
3471.05
9120.66
3537.96
9638.87
3537.32
10408.7
3485.62
3437.66
10091.7
3559.83
11438.2
3675.82
14233.8
3746.26
20788.2
3715.41
3487.78
9701.38
3573.99
10704.6
3664.8
3402.21
8111.5
3380.72
7414.73
3328.04
6895.67
3254.35
6527.36
3120.8
3458.55
9441.15
3553.84
10094.7
3610.69
10984
3599.17
11977.7
3482.39
3500.36
10764.6
3691.75
15026.6
3826.1
22177.6
3843.94
31238.2
3766.55
3533.36
11108.2
3735.31
15667.1
3804.79
20920.3
3769.45
3386.9
8179.98
3393.29
7688.45
3370.83
7558.33
3358.34
7735.54
3326.32
3459.24
10201.5
3629.26
12771.4
3704.32
16836.7
3759.11
26644.9
3728.35
3513.92
11730.3
3784.53
22107.1
3936.07
80855.7
4040.17
1e+10
4108.12
3507.42
10943.2
3745.49
16187.8
3778.71
22414.4
3762.45
29444.3
3710.78
)
;

boundaryField
{
    inlet
    {
        type            zeroGradient;
    }
    outlet
    {
        type            zeroGradient;
    }
    wall
    {
        type            zeroGradient;
    }
    procBoundary0to1
    {
        type            processor;
        value           uniform 0;
    }
    procBoundary0to2
    {
        type            processor;
        value           uniform 0;
    }
    procBoundary0to4
    {
        type            processor;
        value           uniform 0;
    }
    procBoundary0to6
    {
        type            processor;
        value           uniform 0;
    }
    procBoundary0to7
    {
        type            processor;
        value           uniform 0;
    }
}


// ************************************************************************* //
