/*--------------------------------*- C++ -*----------------------------------*\
| =========                 |                                                 |
| \\      /  F ield         | OpenFOAM: The Open Source CFD Toolbox           |
|  \\    /   O peration     | Version:  4.x                                   |
|   \\  /    A nd           | Web:      www.OpenFOAM.org                      |
|    \\/     M anipulation  |                                                 |
\*---------------------------------------------------------------------------*/
FoamFile
{
    version     2.0;
    format      ascii;
    class       surfaceScalarField;
    location    "45.5";
    object      phi;
}
// * * * * * * * * * * * * * * * * * * * * * * * * * * * * * * * * * * * * * //

dimensions      [0 3 -1 0 0 0 0];

internalField   nonuniform List<scalar> 
308
(
5.46703e-06
1.85233e-08
5.57029e-06
8.38653e-08
5.42971e-06
3.04508e-08
-4.37522e-08
5.44321e-06
9.97016e-08
7.5814e-08
5.16404e-06
4.77614e-08
-5.52625e-09
5.27101e-06
2.96591e-08
2.956e-07
4.40775e-06
4.16517e-07
-4.59185e-12
5.16421e-06
-7.36149e-07
8.08428e-07
2.08656e-06
-2.53883e-08
5.24848e-06
1.43963e-07
-1.59081e-10
5.3156e-06
1.01247e-07
-1.0967e-08
5.14255e-06
2.03505e-07
-1.2805e-12
5.39726e-06
-1.51998e-08
5.48544e-08
5.02773e-06
4.19275e-07
-1.49294e-08
5.83591e-06
-4.32058e-07
1.82342e-07
5.1245e-06
1.12963e-06
-4.57438e-08
6.28368e-06
-1.46951e-06
3.53145e-07
3.47893e-06
2.3524e-07
7.57929e-06
5.26075e-08
-1.31201e-07
7.67806e-06
1.32666e-08
-6.74751e-08
7.80411e-06
7.37525e-08
-2.09508e-07
7.95257e-06
-1.34714e-07
-7.56434e-08
8.10141e-06
2.17431e-07
-3.65518e-07
8.18982e-06
-4.41742e-07
3.91588e-08
8.42364e-06
5.66457e-07
-6.2261e-07
8.2115e-06
-9.65666e-07
6.16173e-07
1.5811e-06
-8.76002e-07
9.61349e-06
-3.66659e-07
9.63953e-06
-2.64787e-07
9.71026e-06
-4.64046e-07
9.63157e-06
-2.16361e-07
9.68788e-06
-5.75194e-07
9.30699e-06
3.87597e-08
9.48632e-06
-8.5898e-07
8.68293e-06
8.04406e-07
-1.51548e-06
5.07887e-06
-6.75651e-13
5.15167e-06
-8.50834e-08
4.99246e-06
-5.67924e-13
1.05728e-07
5.07702e-06
2.73706e-08
1.57664e-07
4.45697e-06
-3.99347e-13
3.8452e-07
5.70542e-06
5.04955e-07
-2.3796e-07
-3.50844e-07
2.22978e-06
4.9719e-06
8.56123e-13
8.59888e-09
5.03259e-06
-1.43113e-07
1.93759e-09
5.03259e-06
1.04189e-12
1.30381e-12
5.10461e-06
-1.42289e-07
4.00448e-08
5.08316e-06
1.09025e-12
6.51807e-09
5.16673e-06
5.26046e-08
7.35364e-08
4.97969e-06
4.11486e-13
1.41298e-07
5.74574e-06
2.20428e-07
-1.28386e-07
-2.20143e-07
8.51348e-07
5.12081e-06
-1.01553e-08
2.64646e-08
5.18342e-06
-2.52835e-07
-2.03578e-08
4.93956e-06
-1.39278e-08
4.82789e-08
5.01355e-06
-3.08489e-07
1.65694e-08
4.47737e-06
4.15572e-09
1.66507e-07
4.56153e-06
-8.8786e-08
9.63896e-08
3.51277e-06
2.59726e-13
4.26147e-07
4.36548e-06
1.07765e-07
-1.23869e-07
-8.7029e-08
1.50548e-06
7.38492e-06
-1.12239e-07
6.82721e-06
4.0086e-08
6.42677e-06
-7.75321e-08
5.80516e-06
9.67609e-08
5.14431e-06
8.98092e-08
4.91695e-06
1.77336e-07
3.78192e-06
2.76054e-07
4.56699e-06
1.271e-07
1.32874e-06
5.88286e-06
-1.97946e-08
6.42779e-06
-9.47126e-08
5.93588e-06
8.08016e-08
6.82645e-07
7.02816e-06
-4.72434e-07
-7.65172e-07
1.14886e-06
2.99448e-06
5.28738e-06
5.88799e-08
4.39996e-08
5.30498e-06
5.04473e-08
2.84738e-09
5.19732e-06
7.00613e-08
2.92011e-08
5.33298e-06
-8.84839e-08
-1.40915e-08
5.05529e-06
1.61342e-07
1.03073e-07
5.67638e-06
-4.46902e-07
-1.95362e-07
5.08315e-06
5.30869e-07
2.84463e-07
6.48578e-06
-1.25858e-06
-7.4488e-07
2.69131e-06
1.14659e-06
6.93719e-06
5.02185e-08
-1.66502e-09
6.98624e-06
1.08207e-08
-2.97826e-08
7.17941e-06
-4.52647e-09
-7.03087e-08
7.42767e-06
-1.56925e-07
-1.63248e-07
7.84622e-06
-1.43945e-08
-7.63024e-08
8.22638e-06
-4.79595e-07
-2.51076e-07
9.11841e-06
1.10004e-07
-4.5018e-08
9.13649e-06
-8.9267e-07
-5.07861e-07
1.11324e-06
9.51021e-07
9.36824e-06
-4.98078e-08
9.37724e-06
4.19024e-08
9.36971e-06
-7.4522e-08
9.29771e-06
1.18378e-08
9.48829e-06
-1.1517e-07
9.19286e-06
-6.82644e-09
9.90567e-06
-3.26758e-07
9.20344e-06
-6.33362e-08
1.42693e-07
9.53367e-06
-8.24993e-07
9.03503e-06
2.29603e-07
-1.47519e-06
8.13521e-06
-3.69367e-08
8.06311e-06
-4.29921e-08
7.93667e-06
-9.82924e-08
7.89177e-06
-1.25602e-07
7.78919e-06
-2.14083e-07
7.62456e-06
-1.70086e-07
7.44566e-06
-3.61628e-07
6.99069e-06
-6.03046e-08
-5.32611e-07
9.13825e-06
-3.61668e-08
9.11829e-06
-5.28198e-08
9.04171e-06
-9.20213e-08
8.88623e-06
-1.33374e-07
8.82459e-06
-2.28737e-07
8.51924e-06
-1.15816e-07
8.54615e-06
-4.33557e-07
7.856e-06
1.21987e-07
-1.07911e-06
1.03634e-05
1.03525e-05
1.01859e-05
1.00644e-05
9.72049e-06
9.59785e-06
8.83754e-06
8.89619e-06
)
;

boundaryField
{
    inlet
    {
        type            calculated;
        value           nonuniform 0();
    }
    outlet
    {
        type            calculated;
        value           nonuniform List<scalar> 
16
(
1.53335e-06
4.77337e-06
8.82322e-06
9.27715e-06
2.95359e-06
4.99893e-06
1.85088e-06
1.63574e-06
4.42549e-06
4.64809e-06
1.1269e-05
1.15027e-05
1.19366e-05
7.1947e-06
9.35352e-06
7.95977e-06
)
;
    }
    wall
    {
        type            calculated;
        value           nonuniform List<scalar> 
66
(
0
0
0
0
0
0
0
0
0
0
0
0
0
0
0
0
0
0
0
0
0
0
0
0
0
0
0
0
0
0
0
0
0
0
0
0
0
0
0
-2.46519e-32
0
0
0
-1.54074e-33
0
0
0
-9.86076e-32
0
0
0
0
1.2326e-32
0
0
0
0
0
0
0
0
0
0
0
-4.93038e-32
0
)
;
    }
    procBoundary7to0
    {
        type            processor;
        value           uniform -5.59836e-06;
    }
    procBoundary7to1
    {
        type            processor;
        value           uniform -1.92649e-08;
    }
    procBoundary7to3
    {
        type            processor;
        value           nonuniform List<scalar> 
36
(
1.63343e-07
3.18482e-08
1.85608e-07
-4.91565e-08
2.41711e-07
-3.69212e-07
4.4675e-07
-1.32642e-06
1.8519e-06
-1.75712e-11
-7.35372e-08
-8.30086e-13
-1.94667e-07
1.29463e-08
-5.288e-07
4.40447e-08
-7.78966e-07
-1.17302e-07
1.45774e-07
5.66835e-08
2.13219e-07
4.66952e-08
4.18518e-07
-1.17881e-07
9.51953e-07
-9.07873e-07
2.16212e-06
3.57181e-07
2.52017e-07
4.67068e-07
1.60334e-07
7.36319e-07
-9.96102e-08
1.24611e-06
-9.66682e-07
2.50234e-06
)
;
    }
    procBoundary7to5
    {
        type            processor;
        value           nonuniform List<scalar> 
44
(
-1.79217e-07
-3.17348e-08
-1.39857e-07
-4.77839e-09
-6.30107e-08
-8.52992e-12
4.97683e-07
-2.82217e-07
-3.12708e-08
-3.9749e-08
5.46321e-13
2.64123e-08
4.79505e-08
2.6005e-08
2.35526e-07
-7.07016e-07
8.4751e-07
6.69998e-13
-5.15789e-06
6.95153e-08
3.5267e-08
6.16902e-08
1.95251e-08
-1.48286e-07
1.12985e-07
-9.26379e-08
6.89108e-07
1.3862e-08
-6.89625e-08
8.40128e-09
-5.9777e-06
6.95558e-09
2.0084e-07
-1.44265e-07
8.61785e-07
-4.96132e-07
1.56807e-06
1.62128e-07
1.17941e-07
2.53936e-07
1.56403e-07
4.19745e-07
-8.88782e-06
1.3935e-07
)
;
    }
    procBoundary7to6
    {
        type            processor;
        value           nonuniform List<scalar> 
12
(
-5.37374e-06
-7.50251e-06
-9.55141e-06
-4.98066e-06
-5.26832e-06
-7.6495e-06
-5.39552e-06
-6.9004e-06
-9.38045e-06
-8.2164e-06
-9.14068e-06
-1.04494e-05
)
;
    }
}


// ************************************************************************* //
