/*--------------------------------*- C++ -*----------------------------------*\
  =========                 |
  \\      /  F ield         | OpenFOAM: The Open Source CFD Toolbox
   \\    /   O peration     | Website:  https://openfoam.org
    \\  /    A nd           | Version:  4.x
     \\/     M anipulation  |
\*---------------------------------------------------------------------------*/
FoamFile
{
    version     2.0;
    format      ascii;
    class       Cloud<passiveParticle>;
    location    0;
    object      positions;
}
// * * * * * * * * * * * * * * * * * * * * * * * * * * * * * * * * * * * * * //

301
(
( 0.253049 0.0900617 -0.056043 ) 63
( 0.250597 0.0316051 -0.0549912 ) 45
( 0.250419 0.030004 -0.0352013 ) 81
( 0.254191 0.0692933 -0.0505431 ) 54
( 0.251187 0.0682387 -0.0700765 ) 54
( 0.250676 0.0107698 -0.0753171 ) 0
( 0.250243 0.0359356 -0.0744111 ) 9
( 0.256137 0.0313048 -0.0150919 ) 81
( 0.381281 -0.0139626 -0.0338336 ) 76
( 0.421137 -0.0111031 -0.0808731 ) 6
( 0.473715 -0.00616485 -0.0415525 ) 80
( 0.324672 -0.010518 -0.0764337 ) 2
( 0.404085 -0.00381733 -0.0736072 ) 5
( 0.490062 -0.0109737 -0.0578899 ) 44
( 0.371834 -0.0059173 -0.0493152 ) 40
( 0.46894 -0.00178214 -0.0855765 ) 7
( 0.342773 -0.00284655 -0.0731457 ) 3
( 0.334809 -0.0140246 -0.0328896 ) 75
( 0.439395 -0.00178658 -0.0578823 ) 42
( 0.321777 -0.0118085 -0.0474634 ) 38
( 0.360942 -0.000878239 -0.0651764 ) 39
( 0.31078 -0.0059813 -0.0628544 ) 38
( 0.354356 -0.0122706 -0.0387292 ) 75
( 0.272268 -0.00317622 -0.0685601 ) 36
( 0.283977 -0.0122318 -0.0390198 ) 73
( 0.436788 0.000624717 -0.0774099 ) 6
( 0.490047 -0.0122367 -0.0777862 ) 8
( 0.302548 -0.00849713 -0.0445397 ) 37
( 0.394248 -0.00441081 -0.0448823 ) 41
( 0.472418 -0.0116064 -0.0685293 ) 44
( 0.275514 -0.0100741 -0.0201412 ) 72
( 0.473099 -0.012634 -0.021239 ) 80
( 0.387738 0.0265481 -0.0548507 ) 49
( 0.304053 0.0718422 -0.064876 ) 64
( 0.337168 0.0639259 -0.0468478 ) 57
( 0.325658 0.0164964 -0.0485149 ) 47
( 0.443457 0.0376376 -0.0467154 ) 51
( 0.286797 0.0646722 -0.0583397 ) 55
( 0.331373 0.0508322 -0.0606207 ) 56
( 0.455513 0.0129917 -0.0859504 ) 7
( 0.369772 0.0348607 -0.0533001 ) 49
( 0.490043 0.0227729 -0.0532214 ) 53
( 0.324646 0.0376352 -0.0747363 ) 11
( 0.293405 0.0258579 -0.057585 ) 46
( 0.379334 0.00962016 -0.0642977 ) 40
( 0.470555 0.0686835 -0.0578247 ) 61
( 0.431464 0.0710892 -0.0625355 ) 60
( 0.456103 0.0710637 -0.0785529 ) 25
( 0.342878 0.0322396 -0.0689904 ) 48
( 0.320274 0.0460847 -0.0447524 ) 56
( 0.301147 0.0613395 -0.0452299 ) 55
( 0.368843 0.0542668 -0.049421 ) 58
( 0.353902 0.0454987 -0.0592677 ) 57
( 0.324525 0.0853668 -0.0376009 ) 101
( 0.353226 0.083584 -0.0695358 ) 66
( 0.452617 0.0771985 -0.0555868 ) 70
( 0.286656 0.0901324 -0.0312633 ) 100
( 0.417254 0.0203431 -0.0480828 ) 51
( 0.334527 0.0725425 -0.064604 ) 66
( 0.388369 0.0701609 -0.0536666 ) 58
( 0.471251 0.0901318 -0.0645266 ) 70
( 0.474022 0.0680421 -0.0382294 ) 98
( 0.489908 0.0146846 -0.0839053 ) 17
( 0.265492 0.0160628 -0.0366543 ) 81
( 0.400023 0.0667141 -0.0694625 ) 59
( 0.327218 0.0285194 -0.0321896 ) 83
( 0.349384 0.0641417 -0.0205678 ) 93
( 0.395639 0.0137454 -0.0780081 ) 5
( 0.306478 0.0317645 -0.0403547 ) 83
( 0.303101 0.0349274 -0.0724391 ) 10
( 0.458203 0.0434174 -0.0606816 ) 61
( 0.272669 0.051333 -0.0543675 ) 54
( 0.411072 0.0510378 -0.0599877 ) 59
( 0.457366 0.0242747 -0.0515555 ) 52
( 0.430491 0.0824069 -0.0788445 ) 33
( 0.365821 0.0410847 -0.034868 ) 85
( 0.316161 0.031467 -0.0577359 ) 47
( 0.473542 0.0304681 -0.0614054 ) 53
( 0.366764 0.0115084 -0.0796872 ) 4
( 0.291023 0.0900353 -0.0505774 ) 64
( 0.26927 0.0164638 -0.0711145 ) 45
( 0.4054 0.0262692 -0.0641226 ) 50
( 0.474286 0.0474076 -0.0501123 ) 62
( 0.441217 0.0387107 -0.0696288 ) 51
( 0.419666 0.0138342 -0.070437 ) 42
( 0.346598 0.0806608 -0.0509811 ) 66
( 0.438859 0.0558675 -0.0405006 ) 96
( 0.437511 0.0204498 -0.0764298 ) 15
( 0.478491 0.0748857 -0.0750944 ) 35
( 0.334709 0.0338926 -0.0508518 ) 48
( 0.380865 0.0381448 -0.0694577 ) 49
( 0.460919 0.0406583 -0.0375937 ) 88
( 0.401584 0.0836934 -0.0593965 ) 68
( 0.363372 0.0533886 -0.0748178 ) 22
( 0.280564 0.0682285 -0.0395893 ) 91
( 0.422513 0.0628915 -0.0782602 ) 24
( 0.371553 0.0898624 -0.0742986 ) 31
( 0.397056 0.0211285 -0.0382483 ) 86
( 0.347256 0.0156407 -0.0790668 ) 12
( 0.352829 0.0296429 -0.0443162 ) 48
( 0.273623 0.0789472 -0.0547243 ) 63
( 0.489962 0.0339081 -0.0785514 ) 17
( 0.385546 0.0736942 -0.0845498 ) 31
( 0.4582 0.0291157 -0.0744657 ) 16
( 0.42427 0.0430513 -0.0793141 ) 24
( 0.287554 0.0824468 -0.0686001 ) 64
( 0.430988 0.0736879 -0.0429542 ) 69
( 0.490014 0.0900028 -0.0822978 ) 35
( 0.293683 0.05268 -0.0726084 ) 19
( 0.326675 0.00583562 -0.0652176 ) 38
( 0.293879 0.0110447 -0.0709369 ) 37
( 0.351141 0.0159378 -0.0301043 ) 84
( 0.490036 0.0537895 -0.0821704 ) 26
( 0.413126 0.0679718 -0.0496368 ) 59
( 0.319476 0.0690684 -0.0771683 ) 20
( 0.457922 0.058317 -0.0463257 ) 61
( 0.380966 0.00957774 -0.0400069 ) 76
( 0.473287 0.0107773 -0.053744 ) 44
( 0.472281 0.0135844 -0.0733705 ) 8
( 0.284103 0.0210979 -0.040795 ) 82
( 0.26941 0.0318466 -0.0485289 ) 45
( 0.361908 0.0187513 -0.0617819 ) 49
( 0.472153 0.0230671 -0.0383466 ) 88
( 0.308333 0.0495579 -0.0293456 ) 92
( 0.37114 0.0729123 -0.0630407 ) 67
( 0.437808 0.0900968 -0.0616349 ) 69
( 0.429012 0.00665542 -0.0396035 ) 78
( 0.488693 0.0765111 -0.0485605 ) 71
( 0.391369 0.0508276 -0.0566987 ) 59
( 0.474898 0.0497723 -0.069813 ) 62
( 0.406258 0.0515261 -0.0806428 ) 23
( 0.398496 0.0717119 -0.0366491 ) 104
( 0.392603 0.090136 -0.0758954 ) 32
( 0.412606 0.0900785 -0.0746929 ) 32
( 0.274107 0.00935133 -0.0532226 ) 36
( 0.4366 0.0199097 -0.0540282 ) 51
( 0.444181 0.0900518 -0.0430164 ) 69
( 0.356296 0.00637241 -0.0472203 ) 39
( 0.3299 0.090083 -0.0560929 ) 65
( 0.490205 0.0413651 -0.0601329 ) 53
( 0.433096 0.025298 -0.0351806 ) 87
( 0.342706 0.0155032 -0.0583689 ) 48
( 0.363897 0.0727441 -0.0445466 ) 67
( 0.490257 0.0380004 -0.0405869 ) 89
( 0.469777 0.0900466 -0.0846287 ) 34
( 0.419523 0.0507303 -0.041923 ) 96
( 0.283671 0.0519604 -0.0219936 ) 91
( 0.425821 0.0902893 -0.0339684 ) 105
( 0.363689 0.0902179 -0.0539992 ) 67
( 0.300679 0.0105971 -0.0394854 ) 73
( 0.265931 0.0902198 -0.0403656 ) 99
( 0.3009 0.0440521 -0.0548876 ) 55
( 0.342968 0.0554631 -0.0760719 ) 21
( 0.352863 0.0652171 -0.0618187 ) 57
( 0.398423 0.0085572 -0.0590376 ) 41
( 0.382987 0.0900404 -0.0580301 ) 67
( 0.417469 0.0015946 -0.0549492 ) 42
( 0.448785 0.00808168 -0.043547 ) 43
( 0.295762 0.0668475 -0.0271258 ) 91
( 0.385489 0.0566807 -0.0387163 ) 94
( 0.490538 0.0901597 -0.0624028 ) 71
( 0.399143 0.0329848 -0.0818036 ) 14
( 0.308443 0.012954 -0.0574655 ) 38
( 0.490131 0.052395 -0.0264017 ) 98
( 0.490058 0.0903499 -0.0346571 ) 107
( 0.270902 0.0663231 -0.0699721 ) 54
( 0.307834 0.0800133 -0.0471212 ) 65
( 0.464361 0.0900773 -0.0459524 ) 70
( 0.322138 0.0657404 -0.0340335 ) 92
( 0.490102 0.00458405 -0.045011 ) 44
( 0.490016 0.0627462 -0.0643621 ) 62
( 0.266501 0.0471559 -0.0728106 ) 18
( 0.431057 0.0512661 -0.058106 ) 60
( 0.34729 0.0904267 -0.0339529 ) 102
( 0.311666 0.090156 -0.0638852 ) 65
( 0.405527 0.0902531 -0.0410638 ) 104
( 0.490362 0.0573092 -0.0452993 ) 62
( 0.382722 0.0576116 -0.0732285 ) 22
( 0.455433 0.0495086 -0.0794071 ) 25
( 0.473257 0.0276574 -0.0874667 ) 17
( 0.267438 0.0901221 -0.0698219 ) 63
( 0.381498 0.0825218 -0.0397012 ) 103
( 0.4524 0.011919 -0.0663202 ) 43
( 0.445228 0.0893385 -0.090372 ) 34
( 0.37525 0.0248493 -0.0286717 ) 85
( 0.335292 0.0900485 -0.0751916 ) 30
( 0.453693 0.0899922 -0.0728137 ) 34
( 0.318731 0.0646591 -0.0536498 ) 56
( 0.287035 0.047984 -0.0411315 ) 91
( 0.447867 0.0599711 -0.0642153 ) 61
( 0.315885 0.0197536 -0.0745941 ) 11
( 0.474029 0.0715779 -0.0148919 ) 107
( 0.393469 0.0606486 -0.0209923 ) 95
( 0.410659 0.0815314 -0.024309 ) 104
( 0.317581 0.0369822 -0.0169195 ) 83
( 0.455563 0.077652 -0.0162602 ) 106
( 0.390687 0.0155846 -0.0202984 ) 86
( 0.490007 0.0185318 -0.0308328 ) 89
( 0.323807 0.0606392 -0.0149903 ) 92
( 0.363372 0.0818095 -0.0270461 ) 103
( 0.407753 0.0246554 -0.0171659 ) 86
( 0.440626 0.00383877 -0.0235545 ) 78
( 0.466818 0.0229605 -0.0192455 ) 88
( 0.348715 0.0850754 -0.0144492 ) 102
( 0.380691 0.0455533 -0.023028 ) 94
( 0.447788 0.0607692 -0.0235609 ) 97
( 0.431128 0.0440386 -0.0265564 ) 96
( 0.393032 0.0902479 -0.0254604 ) 104
( 0.4148 0.0430345 -0.0155279 ) 95
( 0.45827 0.00596837 -0.0147333 ) 79
( 0.490071 0.0721758 -0.0271412 ) 107
( 0.439602 0.0251611 -0.0164895 ) 87
( 0.305836 0.0221498 -0.0230989 ) 83
( 0.423895 0.014266 -0.0212997 ) 78
( 0.269766 0.0900759 -0.020814 ) 99
( 0.333341 0.0124353 -0.0221262 ) 75
( 0.415003 0.0620374 -0.0262732 ) 95
( 0.331009 0.0782718 -0.0203201 ) 101
( 0.270645 0.0348228 -0.0289205 ) 81
( 0.380722 0.0751005 -0.0213655 ) 103
( 0.471481 0.0895551 -0.0275549 ) 106
( 0.490082 0.0899538 -0.0146775 ) 107
( 0.259636 0.0468918 -0.0400546 ) 90
( 0.256025 -0.000333067 -0.0572508 ) 36
( 0.459539 -0.00334129 -0.0558901 ) 43
( 0.321477 -0.00175309 -0.0157263 ) 74
( 0.362357 0.0334446 -0.0751972 ) 13
( 0.419542 0.0900564 -0.0548245 ) 69
( 0.318791 0.00539892 -0.0337912 ) 74
( 0.489739 0.00726358 -0.065434 ) 44
( 0.4094 0.00580125 -0.0368754 ) 77
( 0.280324 0.0330543 -0.0706342 ) 46
( 0.265919 0.0564159 -0.0145094 ) 90
( 0.442783 0.090355 -0.0234663 ) 105
( 0.474723 0.00636838 -0.0261976 ) 80
( 0.262446 0.0722906 -0.0327578 ) 99
( 0.387758 -0.00839053 -0.063148 ) 40
( 0.423766 0.0332139 -0.0620456 ) 51
( 0.269056 0.0104237 -0.0180015 ) 72
( 0.428059 -0.012795 -0.0421562 ) 78
( 0.266209 -0.00364047 -0.0404633 ) 72
( 0.39664 -0.00296823 -0.0244291 ) 77
( 0.337356 0.000507233 -0.0462066 ) 39
( 0.254458 -0.00878693 -0.0752741 ) 0
( 0.331351 0.0476133 -0.0281011 ) 92
( 0.455501 0.0751439 -0.0359459 ) 106
( 0.37698 -0.00562276 -0.0796192 ) 4
( 0.313053 0.052404 -0.0682013 ) 56
( 0.402929 0.0374099 -0.047908 ) 50
( 0.253234 0.0510288 -0.0584122 ) 54
( 0.288945 -0.00309535 -0.057821 ) 37
( 0.349006 0.0495925 -0.0405296 ) 93
( 0.313883 -0.0138316 -0.0292064 ) 74
( 0.415478 0.033376 -0.0331542 ) 86
( 0.347396 -0.00227036 -0.0230224 ) 75
( 0.490146 -0.00980357 -0.0310475 ) 80
( 0.290498 0.0340737 -0.0274585 ) 82
( 0.277735 0.0714198 -0.02 ) 90
( 0.368075 0.0606181 -0.0266798 ) 94
( 0.365379 0.00205788 -0.0302684 ) 76
( 0.452275 0.0238695 -0.032219 ) 88
( 0.305846 0.0854397 -0.0281284 ) 101
( 0.477016 0.0378409 -0.0261722 ) 89
( 0.250468 0.0141124 -0.023525 ) 72
( 0.420217 -0.00485882 -0.0242621 ) 78
( 0.350226 0.0418151 -0.0224705 ) 84
( 0.468225 0.0552715 -0.0242779 ) 97
( 0.295255 -0.0110146 -0.0230485 ) 73
( 0.431926 0.0737014 -0.0229999 ) 105
( 0.286704 0.0067223 -0.0261986 ) 73
( 0.456918 -0.00495869 -0.031104 ) 79
( 0.399611 0.043664 -0.028437 ) 95
( 0.449942 0.0412129 -0.021275 ) 88
( 0.346388 -0.013753 -0.0569061 ) 39
( 0.281786 -0.0119624 -0.0836599 ) 1
( 0.470937 0.0602062 -0.0863073 ) 25
( 0.380563 0.0250814 -0.0844966 ) 13
( 0.384036 0.04442 -0.0881151 ) 22
( 0.300453 0.0676212 -0.0840022 ) 19
( 0.347432 0.0394115 -0.0870131 ) 12
( 0.445158 0.0342797 -0.0886532 ) 16
( 0.27575 0.0792518 -0.0843269 ) 27
( 0.283025 0.0196973 -0.0852056 ) 10
( 0.329461 0.00855592 -0.084742 ) 2
( 0.278861 0.0564646 -0.0853651 ) 19
( 0.364155 0.0721298 -0.0816674 ) 31
( 0.302209 0.0873461 -0.0811903 ) 28
( 0.311211 0.0459516 -0.0869604 ) 20
( 0.266441 0.0307652 -0.0847518 ) 9
( 0.343188 0.0738481 -0.0837391 ) 30
( 0.357053 0.0900342 -0.087988 ) 30
( 0.408097 0.0742882 -0.0860272 ) 32
( 0.253468 0.0900653 -0.0839893 ) 27
( 0.417217 0.025723 -0.0862215 ) 15
( 0.308749 0.00220437 -0.0808893 ) 2
( 0.438086 0.0547765 -0.0876984 ) 24
( 0.260979 0.065648 -0.0872484 ) 18
( 0.290048 0.039243 -0.0869022 ) 10
( 0.302311 0.0234233 -0.0887211 ) 10
( 0.320683 0.0883742 -0.0886365 ) 29
( 0.265901 0.0037329 -0.0861322 ) 0
)
