/*--------------------------------*- C++ -*----------------------------------*\
  =========                 |
  \\      /  F ield         | OpenFOAM: The Open Source CFD Toolbox
   \\    /   O peration     | Website:  https://openfoam.org
    \\  /    A nd           | Version:  4.x
     \\/     M anipulation  |
\*---------------------------------------------------------------------------*/
FoamFile
{
    version     2.0;
    format      ascii;
    class       vectorField;
    location    0;
    object      v;
}
// * * * * * * * * * * * * * * * * * * * * * * * * * * * * * * * * * * * * * //

258
(
( 1.3898e-08 3.56399e-09 9.13729e-09 )  
( -1.3431e-07 -2.7834e-09 4.13664e-08 )  
( 1.17305e-08 4.02305e-09 8.80092e-09 )  
( 1.40866e-08 -3.31443e-09 7.97253e-09 )  
( -1.20836e-07 -2.71423e-10 1.58038e-08 )  
( -7.90478e-08 -2.11866e-08 -1.41501e-08 )  
( -1.261e-07 -8.82467e-09 2.60793e-08 )  
( 8.58822e-09 4.69508e-10 -9.23437e-09 )  
( -1.0287e-07 -1.56031e-08 -2.22674e-08 )  
( -3.32451e-08 -2.66813e-09 -3.40361e-08 )  
( 1.8661e-08 4.80515e-10 3.08018e-09 )  
( -1.3856e-07 -1.0171e-08 6.74947e-09 )  
( 1.43123e-08 2.06965e-09 5.22791e-09 )  
( -6.68988e-08 9.03035e-10 -1.77352e-08 )  
( 9.20785e-09 -2.2822e-10 -4.64557e-09 )  
( -1.50371e-09 4.54297e-10 -6.34968e-09 )  
( 1.48451e-08 5.49323e-09 9.02098e-09 )  
( 5.46288e-09 1.21138e-09 3.41141e-09 )  
( -4.88312e-08 -3.89859e-09 -1.24746e-08 )  
( -4.68986e-08 -3.03232e-09 -1.39652e-08 )  
( 1.64152e-08 -9.15843e-10 4.93087e-09 )  
( -8.88314e-08 4.15679e-09 -9.13435e-09 )  
( -1.39518e-07 -7.96229e-09 3.51958e-08 )  
( 1.10378e-09 -2.142e-09 -7.39414e-09 )  
( 9.71502e-09 1.56085e-09 -1.03515e-08 )  
( -9.21387e-08 -6.661e-09 -1.92474e-08 )  
( -4.67051e-08 -4.59356e-09 -3.11466e-08 )  
( -1.01206e-07 -1.22606e-08 -5.4991e-09 )  
( -1.71648e-08 -1.16491e-08 -2.81562e-08 )  
( 8.4453e-09 4.30433e-09 8.22012e-09 )  
( -1.07203e-09 3.22644e-11 -1.17544e-08 )  
( -1.31341e-08 8.25931e-09 -2.97591e-08 )  
( -1.28798e-07 -2.06516e-08 6.76079e-09 )  
( -1.18431e-07 -1.87852e-08 2.54143e-09 )  
( 2.97751e-09 7.23246e-11 5.59469e-09 )  
( -1.20473e-07 -1.54955e-08 4.45715e-09 )  
( 2.72638e-09 1.61189e-09 -3.19258e-09 )  
( 9.1432e-09 -4.71256e-09 -1.25074e-08 )  
( -1.27812e-07 -1.51975e-08 8.63278e-09 )  
( -1.47372e-07 -2.08224e-09 3.38634e-08 )  
( -2.52582e-08 3.23769e-09 -2.10118e-08 )  
( 3.64017e-09 -4.44657e-10 -4.73898e-09 )  
( -3.09813e-08 -3.31147e-09 -1.36239e-08 )  
( -5.86005e-08 -2.04741e-09 -1.82031e-08 )  
( 3.36768e-09 1.88183e-10 4.54045e-09 )  
( -7.98577e-08 2.08349e-08 6.18175e-09 )  
( -1.38817e-07 -3.68994e-09 2.25676e-08 )  
( -1.42586e-07 -1.03976e-08 2.31464e-08 )  
( -5.35095e-09 3.18546e-09 -6.35138e-09 )  
( -2.64975e-08 3.09026e-09 -1.42732e-08 )  
( 6.18208e-09 3.26173e-09 5.24844e-09 )  
( -1.39002e-07 -4.10252e-10 2.46075e-08 )  
( -7.23962e-08 2.93833e-09 -1.79849e-09 )  
( 1.47103e-08 2.55672e-09 6.66837e-09 )  
( 2.23075e-08 4.96769e-10 1.5183e-09 )  
( 8.93069e-09 2.01476e-09 2.62945e-10 )  
( -1.5212e-07 -6.37676e-09 4.68729e-08 )  
( -9.35482e-08 -1.0523e-08 -1.87972e-08 )  
( -1.57741e-08 3.36597e-09 -7.1279e-09 )  
( -8.52466e-08 -1.6847e-08 -5.92961e-09 )  
( -4.12886e-08 -6.87669e-09 -1.38357e-08 )  
( -3.93608e-08 -8.89387e-09 -6.98797e-09 )  
( 6.31082e-09 -6.27004e-11 -3.72427e-09 )  
( 5.22973e-09 -1.47915e-09 4.95261e-09 )  
( 1.07025e-08 2.90784e-09 5.89414e-09 )  
( -1.06353e-07 1.65626e-08 1.58793e-08 )  
( 6.86609e-09 2.72851e-09 4.93806e-09 )  
( -2.28945e-08 1.23265e-08 2.19048e-08 )  
( -1.43369e-07 -6.18831e-09 1.67923e-08 )  
( -9.4244e-09 -1.74398e-09 -2.19378e-08 )  
( -1.14589e-07 -1.06594e-08 -1.12799e-08 )  
( -1.09183e-07 -1.43361e-08 -4.51205e-09 )  
( 2.0815e-08 -1.09335e-10 -2.4959e-09 )  
( -1.5818e-07 -2.04414e-09 1.16475e-08 )  
( 1.39858e-08 5.58016e-10 6.33711e-09 )  
( -8.7527e-08 -8.7609e-09 -8.82308e-09 )  
( 9.74731e-09 5.03258e-09 4.89043e-09 )  
( 7.2383e-09 2.4395e-09 -7.37766e-10 )  
( -7.60692e-08 -3.14946e-09 -5.43308e-09 )  
( 7.12735e-09 -3.44723e-09 -1.65103e-08 )  
( 1.08577e-08 4.18528e-09 6.8401e-09 )  
( -1.20291e-07 -5.12488e-09 -1.09668e-08 )  
( 1.26189e-08 8.6221e-10 5.23559e-09 )  
( -3.53506e-09 7.76074e-09 -1.11825e-08 )  
( -1.1549e-07 -1.49713e-08 1.21493e-09 )  
( -3.17717e-08 -2.53275e-09 -2.90765e-10 )  
( 9.49283e-09 1.64246e-09 3.48852e-09 )  
( 1.33065e-08 -4.39867e-10 2.55756e-09 )  
( -2.38184e-09 2.404e-09 -5.85624e-10 )  
( 7.37941e-11 -2.11941e-09 -4.66807e-09 )  
( 9.5292e-10 3.46123e-09 -6.43042e-09 )  
( 6.31334e-09 1.5346e-09 1.45561e-09 )  
( -4.00111e-08 7.56254e-09 -1.34323e-08 )  
( -3.44061e-08 2.69122e-09 -6.0794e-09 )  
( 8.78559e-09 3.06525e-11 -5.85277e-09 )  
( -8.54531e-08 -7.05999e-09 -3.17064e-09 )  
( -4.11534e-08 2.49513e-09 4.11455e-09 )  
( 1.11699e-08 8.59266e-10 1.4441e-09 )  
( -8.93441e-09 3.72792e-09 -3.75707e-09 )  
( -1.47101e-07 1.2589e-09 2.29721e-08 )  
( 4.33402e-09 2.44968e-09 2.7781e-09 )  
( -3.45232e-08 3.68605e-09 5.67076e-09 )  
( -7.86509e-08 3.51626e-10 -1.31979e-08 )  
( 5.27751e-09 3.42053e-10 -6.56648e-12 )  
( -7.22672e-08 8.38032e-09 2.48937e-09 )  
( -2.35859e-08 4.87278e-09 -1.35504e-09 )  
( 4.27267e-09 3.9911e-09 4.07573e-09 )  
( 2.72581e-09 1.92995e-09 1.8491e-09 )  
( -1.40968e-07 -3.48575e-09 2.74135e-08 )  
( -9.69017e-08 -1.56426e-08 -1.41271e-08 )  
( 1.14693e-08 1.8432e-09 2.37358e-09 )  
( 6.24106e-09 -2.91393e-10 -8.84079e-10 )  
( -1.26595e-07 1.65316e-08 1.56709e-08 )  
( 1.54154e-09 -1.1363e-09 -5.66339e-09 )  
( -7.67286e-08 -4.37767e-09 8.02218e-09 )  
( -2.82614e-09 5.92757e-09 -6.67205e-09 )  
( -2.67555e-08 -2.22082e-09 -5.98834e-09 )  
( 1.17108e-08 7.97399e-10 1.12379e-09 )  
( 4.17964e-08 4.26204e-09 -3.8699e-09 )  
( -1.22291e-07 -9.61059e-09 1.86006e-08 )  
( -1.27152e-07 -1.68761e-08 5.0964e-09 )  
( -1.2638e-07 -2.26011e-08 1.62548e-08 )  
( -8.63506e-08 5.2739e-09 2.51585e-09 )  
( 6.16533e-09 -9.56696e-10 -1.27782e-08 )  
( 7.29046e-09 3.52694e-09 5.92586e-09 )  
( 5.95778e-09 4.4224e-09 2.32817e-09 )  
( -1.04972e-07 -8.89429e-09 -1.70087e-08 )  
( 1.35917e-08 4.05503e-10 3.90358e-09 )  
( -1.55231e-07 3.07122e-09 2.966e-08 )  
( 1.56143e-08 3.59964e-10 3.95524e-09 )  
( -3.04506e-09 9.8426e-09 -7.17214e-09 )  
( 1.93386e-09 1.19989e-09 1.15676e-09 )  
( -4.95656e-08 2.63791e-08 5.15732e-09 )  
( 1.95603e-09 7.24812e-10 -2.58588e-09 )  
( -1.25513e-07 -1.16522e-08 3.27897e-08 )  
( -5.42586e-08 8.01135e-09 -1.26492e-08 )  
( 1.70465e-08 2.46085e-10 8.23953e-09 )  
( -9.80493e-08 -6.40158e-09 -5.80638e-09 )  
( -7.23984e-08 1.8504e-09 -1.14652e-08 )  
( 6.93038e-09 -7.38097e-10 9.68602e-10 )  
( 1.21642e-08 3.04611e-09 2.31022e-09 )  
( 1.18028e-08 2.44287e-09 1.0562e-08 )  
( 1.36273e-08 1.78814e-09 7.64821e-09 )  
( -2.53364e-09 6.39298e-09 -1.83805e-08 )  
( -8.50571e-08 4.18052e-09 -6.45402e-09 )  
( -1.48526e-08 -1.36383e-09 -5.10383e-09 )  
( -1.11921e-07 -1.84462e-08 3.10099e-09 )  
( -5.67201e-09 3.89874e-09 -6.26242e-09 )  
( -1.08208e-07 -4.03833e-09 -1.37682e-08 )  
( 7.07465e-09 -8.88482e-10 -2.74191e-09 )  
( -5.48258e-08 -1.6749e-09 -3.29529e-10 )  
( 3.60247e-09 2.42315e-09 -8.03148e-09 )  
( -3.19948e-08 6.64907e-09 -7.11717e-09 )  
( -1.61414e-07 -3.0497e-09 5.50402e-08 )  
( 6.17838e-09 1.19426e-09 -7.52385e-10 )  
( -1.49092e-07 -1.8186e-09 3.32907e-08 )  
( 1.354e-08 5.05257e-09 5.30173e-09 )  
( -3.08015e-07 5.55766e-07 5.93894e-08 )  
( -1.40646e-07 -4.2337e-09 2.03807e-08 )  
( -1.83643e-08 -4.34815e-10 3.61661e-09 )  
( 1.11619e-08 1.509e-09 -2.51088e-09 )  
( -5.07968e-08 -2.96895e-09 -6.92865e-09 )  
( -8.59896e-09 6.29632e-09 -4.62579e-09 )  
( -6.51773e-08 -9.13165e-09 -9.52656e-09 )  
( -4.73287e-08 -2.07293e-09 -5.5831e-09 )  
( 8.19405e-09 9.0053e-10 3.65269e-09 )  
( -1.14075e-07 -2.42302e-08 2.68699e-10 )  
( 1.25266e-08 2.1496e-09 5.04679e-09 )  
( 6.05218e-09 9.90051e-10 2.60949e-09 )  
( 1.23757e-08 1.91088e-09 1.45412e-09 )  
( 1.39805e-08 3.7841e-10 2.28897e-09 )  
( 1.54793e-08 3.5931e-09 4.94757e-09 )  
( -1.58572e-07 -8.50338e-09 3.29978e-08 )  
( 1.01629e-08 -1.88206e-09 -7.55997e-09 )  
( -1.34075e-07 -1.03519e-08 1.4719e-08 )  
( -5.50972e-08 1.68771e-08 -7.33726e-09 )  
( -2.26004e-08 1.79674e-08 -2.8283e-08 )  
( -4.94903e-08 1.04538e-08 -1.32104e-08 )  
( -3.52768e-08 1.08752e-09 -1.08057e-08 )  
( -1.77101e-08 6.4989e-10 -3.90393e-09 )  
( 2.95851e-08 -2.31021e-09 6.49518e-09 )  
( 4.18579e-09 2.9494e-09 2.67765e-09 )  
( 6.48196e-09 4.21095e-09 6.9699e-10 )  
( -3.74196e-08 -6.84144e-09 1.77037e-09 )  
( -9.37817e-08 -3.5797e-08 4.53623e-08 )  
( -1.80025e-08 2.85366e-09 -4.07458e-09 )  
( -5.79809e-09 3.98323e-10 1.29782e-09 )  
( -9.47524e-08 -6.88694e-09 -2.01006e-09 )  
( -6.00621e-08 7.37102e-09 1.385e-08 )  
( 1.55971e-08 -1.64589e-08 2.36573e-08 )  
( 1.75809e-10 1.55608e-09 2.80686e-09 )  
( -1.19821e-07 -9.6123e-09 1.2749e-08 )  
( 1.46515e-10 1.34596e-09 7.48415e-10 )  
( -1.01436e-07 -2.35041e-08 -6.03054e-10 )  
( -7.76163e-08 -5.74499e-10 3.41406e-09 )  
( 1.15614e-08 1.59112e-09 3.69644e-10 )  
( 2.84752e-09 4.3377e-09 2.97997e-09 )  
( -2.52001e-08 5.35305e-09 -5.81665e-09 )  
( -8.8186e-08 1.35597e-09 -6.80004e-09 )  
( -9.21848e-10 2.02713e-09 1.03495e-09 )  
( -9.36569e-08 -1.02098e-08 -2.58785e-09 )  
( -3.44908e-09 1.40198e-09 -2.10905e-09 )  
( 6.85287e-09 1.8485e-09 4.83658e-11 )  
( 9.42086e-09 -1.029e-09 1.24824e-09 )  
( 8.25079e-09 5.84015e-09 4.28582e-09 )  
( -2.87854e-09 3.78679e-10 -2.27908e-09 )  
( -1.27719e-07 -1.39901e-08 1.0301e-08 )  
( 1.57318e-07 7.30538e-08 7.59453e-10 )  
( -7.28787e-08 -4.02037e-09 -1.38028e-08 )  
( 7.18248e-09 2.86267e-09 1.57842e-09 )  
( -1.38259e-08 8.57988e-10 -1.10777e-09 )  
( -7.97281e-08 -8.93152e-09 1.06777e-08 )  
( -1.4262e-07 -1.71282e-08 3.69103e-08 )  
( 3.08685e-09 9.26116e-10 -2.61685e-11 )  
( -4.13917e-08 -4.79789e-09 -5.16678e-11 )  
( -3.14783e-08 -4.26257e-10 -4.26546e-09 )  
( 3.42776e-09 2.87312e-09 1.13292e-09 )  
( -3.93791e-08 -8.01204e-10 1.29202e-08 )  
( -3.72844e-08 -9.31196e-10 -1.67758e-08 )  
( -2.72245e-08 -2.0928e-09 3.00666e-09 )  
( -1.43942e-07 -3.16329e-08 1.86198e-08 )  
( 4.76901e-09 1.1574e-09 4.95655e-10 )  
( -6.22457e-09 4.5802e-09 1.54234e-09 )  
( 7.01728e-09 1.92657e-09 -1.12159e-10 )  
( -1.19853e-07 -2.94952e-08 -1.20932e-08 )  
( 4.72426e-09 3.36466e-10 1.02627e-09 )  
( -5.0481e-09 8.5502e-10 1.295e-09 )  
( 3.09457e-08 1.27171e-09 2.1438e-09 )  
( -3.15092e-08 1.75889e-09 1.15824e-08 )  
( -1.08237e-07 -1.48937e-08 -6.22959e-09 )  
( -8.43862e-08 -5.0008e-08 -3.9025e-09 )  
( -2.75053e-08 1.08563e-09 2.46704e-09 )  
( -7.75847e-08 -6.86299e-09 1.6247e-08 )  
( 6.18216e-09 1.95425e-09 1.52017e-09 )  
( -1.46497e-08 -1.6816e-09 -4.62943e-09 )  
( 6.66625e-09 1.73237e-10 1.20112e-09 )  
( 4.41536e-10 -3.85221e-10 -1.40259e-09 )  
( -3.97876e-08 3.70364e-08 1.22896e-08 )  
( -4.64931e-09 1.23772e-10 2.36999e-10 )  
( 2.69706e-09 -1.00838e-09 5.72832e-11 )  
( 5.19844e-09 4.14352e-09 7.07138e-10 )  
( -7.08161e-08 -9.86372e-09 3.78732e-10 )  
( -1.64023e-08 -3.54032e-09 -2.53609e-09 )  
( -3.26636e-08 1.52636e-09 4.83483e-09 )  
( -7.74132e-09 6.96617e-10 -3.4937e-10 )  
( -4.1852e-08 -2.23604e-08 1.64295e-08 )  
( -1.24064e-08 -1.99886e-09 3.78182e-09 )  
( -1.7754e-08 2.30684e-09 -1.04425e-09 )  
( 5.86309e-09 2.87019e-09 1.52195e-09 )  
( -2.25523e-08 1.45835e-09 1.05928e-08 )  
( -7.20829e-08 -2.72205e-09 -6.53315e-09 )  
( -8.35362e-08 -1.89066e-08 1.88288e-09 )  
( -2.31442e-08 -4.1363e-09 1.35361e-10 )  
( 2.77994e-09 2.35614e-09 7.00415e-10 )  
( 3.99175e-09 1.16104e-09 8.9941e-10 )  
( 1.30139e-09 1.18081e-09 1.23299e-09 )  
( -1.95722e-08 -1.95235e-09 -1.27036e-09 )  
( -1.41413e-09 1.16582e-09 3.81231e-10 )  
)
