/*--------------------------------*- C++ -*----------------------------------*\
| =========                 |                                                 |
| \\      /  F ield         | OpenFOAM: The Open Source CFD Toolbox           |
|  \\    /   O peration     | Version:  4.x                                   |
|   \\  /    A nd           | Web:      www.OpenFOAM.org                      |
|    \\/     M anipulation  |                                                 |
\*---------------------------------------------------------------------------*/
FoamFile
{
    version     2.0;
    format      ascii;
    class       volScalarField;
    location    "2.5";
    object      Deff;
}
// * * * * * * * * * * * * * * * * * * * * * * * * * * * * * * * * * * * * * //

dimensions      [0 2 -1 0 0 0 0];

internalField   nonuniform List<scalar> 
108
(
9.8837e-08
9.86081e-08
9.84435e-08
9.84272e-08
9.83677e-08
9.83351e-08
9.82243e-08
9.81646e-08
9.79848e-08
9.86215e-08
9.85178e-08
9.83563e-08
9.82102e-08
9.81766e-08
9.81794e-08
9.8164e-08
9.81262e-08
9.79377e-08
9.85841e-08
9.83847e-08
9.82958e-08
9.81258e-08
9.81137e-08
9.81257e-08
9.80675e-08
9.794e-08
9.80141e-08
9.86082e-08
9.8439e-08
9.82523e-08
9.8185e-08
9.80593e-08
9.80466e-08
9.78839e-08
9.80161e-08
9.80194e-08
9.88074e-08
9.86512e-08
9.84318e-08
9.82796e-08
9.82574e-08
9.8282e-08
9.82529e-08
9.80343e-08
9.78983e-08
9.86846e-08
9.84988e-08
9.83788e-08
9.82458e-08
9.8211e-08
9.81633e-08
9.80945e-08
9.79631e-08
9.78706e-08
9.86442e-08
9.84064e-08
9.82131e-08
9.80992e-08
9.80484e-08
9.80175e-08
9.7988e-08
9.79402e-08
9.792e-08
9.84486e-08
9.83208e-08
9.82258e-08
9.80077e-08
9.79355e-08
9.7934e-08
9.78204e-08
9.78982e-08
9.79369e-08
9.88068e-08
9.85856e-08
9.85681e-08
9.83426e-08
9.82726e-08
9.8088e-08
9.81035e-08
9.80187e-08
9.79877e-08
9.86795e-08
9.83816e-08
9.84033e-08
9.83171e-08
9.82158e-08
9.80778e-08
9.80743e-08
9.80327e-08
9.79277e-08
9.85982e-08
9.83341e-08
9.8216e-08
9.8126e-08
9.8125e-08
9.80129e-08
9.8016e-08
9.79507e-08
9.79621e-08
9.83944e-08
9.83188e-08
9.82482e-08
9.80269e-08
9.7965e-08
9.78506e-08
9.80241e-08
9.80385e-08
9.79952e-08
)
;

boundaryField
{
    inlet
    {
        type            calculated;
        value           uniform 0;
    }
    outlet
    {
        type            calculated;
        value           nonuniform 0();
    }
    wall
    {
        type            calculated;
        value           uniform 0;
    }
    procBoundary4to0
    {
        type            processor;
        value           uniform 0;
    }
    procBoundary4to5
    {
        type            processor;
        value           uniform 0;
    }
    procBoundary4to6
    {
        type            processor;
        value           uniform 0;
    }
}


// ************************************************************************* //
