/*--------------------------------*- C++ -*----------------------------------*\
| =========                 |                                                 |
| \\      /  F ield         | OpenFOAM: The Open Source CFD Toolbox           |
|  \\    /   O peration     | Version:  4.x                                   |
|   \\  /    A nd           | Web:      www.OpenFOAM.org                      |
|    \\/     M anipulation  |                                                 |
\*---------------------------------------------------------------------------*/
FoamFile
{
    version     2.0;
    format      ascii;
    class       volScalarField;
    location    "2.5";
    object      KslPrev;
}
// * * * * * * * * * * * * * * * * * * * * * * * * * * * * * * * * * * * * * //

dimensions      [1 -3 -1 0 0 0 0];

internalField   nonuniform List<scalar> 
108
(
3891.47
9259.63
3771.43
6833.16
3577.3
5667.3
3384.05
4868.6
3021.38
4043.1
16027.6
4385.04
34416.1
4773.26
539323
5202.99
14836.3
6261.81
4291.57
17602.9
4892.84
82164.4
5409.92
255814
5398.2
34401.6
4701.82
4098.76
17869.8
4574.28
42763.2
4868.97
211732
4880.4
18681.9
3976.51
3889.34
9347.01
3767.22
6926.24
3605.76
5415.8
3347.69
4386.57
3092.67
3990.68
15551.2
4256.64
32168.4
4773.2
253190
5317.86
271080
4830.93
4092.72
13523.1
4344.73
20959.1
4720.99
318583
5041.25
20124.5
5044.79
4017.82
14051
4239.88
17602.4
4535.15
32197.3
4863.3
181174
5090.11
3868.97
9890.57
3750.83
7513.95
3652.27
5841.43
3398.37
4430.9
2991.54
3884.93
10181.1
3819.53
7668.76
3697.28
6633.96
3584.27
6117.42
3430.19
3997.11
9966.39
3865.36
7490.83
3625.14
6213.73
3413.19
5273.81
3285.32
3984.87
10335.1
3889.5
7673.05
3662.03
5955.3
3333.99
4680.36
3014.25
)
;

boundaryField
{
    inlet
    {
        type            zeroGradient;
    }
    outlet
    {
        type            zeroGradient;
    }
    wall
    {
        type            zeroGradient;
    }
    procBoundary4to0
    {
        type            processor;
        value           uniform 0;
    }
    procBoundary4to5
    {
        type            processor;
        value           uniform 0;
    }
    procBoundary4to6
    {
        type            processor;
        value           uniform 0;
    }
}


// ************************************************************************* //
