/*--------------------------------*- C++ -*----------------------------------*\
| =========                 |                                                 |
| \\      /  F ield         | OpenFOAM: The Open Source CFD Toolbox           |
|  \\    /   O peration     | Version:  4.x                                   |
|   \\  /    A nd           | Web:      www.OpenFOAM.org                      |
|    \\/     M anipulation  |                                                 |
\*---------------------------------------------------------------------------*/
FoamFile
{
    version     2.0;
    format      ascii;
    class       volScalarField;
    location    "2.5";
    object      QWallFluidCoeff;
}
// * * * * * * * * * * * * * * * * * * * * * * * * * * * * * * * * * * * * * //

dimensions      [1 -1 -3 -1 0 0 0];

internalField   nonuniform List<scalar> 
108
(
-2.90087e+06
-1.46059e+06
-3.06709e+06
-1.94101e+06
-3.33412e+06
-2.32819e+06
-3.56974e+06
-2.65102e+06
-3.86738e+06
0
0
0
0
0
0
0
0
0
0
0
0
0
0
0
0
0
0
0
0
0
0
0
0
0
0
0
-2.90202e+06
-1.45275e+06
-3.06976e+06
-1.91928e+06
-3.32608e+06
-2.42258e+06
-3.62862e+06
-2.92539e+06
-3.87777e+06
0
0
0
0
0
0
0
0
0
0
0
0
0
0
0
0
0
0
0
0
0
0
0
0
0
0
0
-5.80662e+06
-2.74914e+06
-6.10667e+06
-3.55838e+06
-6.52878e+06
-4.53616e+06
-7.1542e+06
-5.80561e+06
-7.987e+06
-2.90638e+06
-1.35112e+06
-3.04217e+06
-1.76418e+06
-3.23989e+06
-2.04574e+06
-3.39671e+06
-2.21855e+06
-3.52667e+06
-2.84531e+06
-1.37678e+06
-3.00538e+06
-1.78924e+06
-3.27658e+06
-2.13803e+06
-3.49251e+06
-2.46193e+06
-3.58409e+06
-2.8455e+06
-1.33758e+06
-2.99389e+06
-1.7549e+06
-3.23958e+06
-2.19775e+06
-3.52502e+06
-2.67592e+06
-3.78791e+06
)
;

boundaryField
{
    inlet
    {
        type            calculated;
        value           uniform 0;
    }
    outlet
    {
        type            calculated;
        value           nonuniform 0();
    }
    wall
    {
        type            calculated;
        value           uniform 0;
    }
    procBoundary4to0
    {
        type            processor;
        value           uniform 0;
    }
    procBoundary4to5
    {
        type            processor;
        value           uniform 0;
    }
    procBoundary4to6
    {
        type            processor;
        value           uniform 0;
    }
}


// ************************************************************************* //
