/*--------------------------------*- C++ -*----------------------------------*\
| =========                 |                                                 |
| \\      /  F ield         | OpenFOAM: The Open Source CFD Toolbox           |
|  \\    /   O peration     | Version:  4.x                                   |
|   \\  /    A nd           | Web:      www.OpenFOAM.org                      |
|    \\/     M anipulation  |                                                 |
\*---------------------------------------------------------------------------*/
FoamFile
{
    version     2.0;
    format      ascii;
    class       volScalarField;
    location    "24";
    object      Cs;
}
// * * * * * * * * * * * * * * * * * * * * * * * * * * * * * * * * * * * * * //

dimensions      [1 -3 0 0 0 0 0];

internalField   nonuniform List<scalar> 
114
(
334.991
334.987
334.981
334.972
334.959
334.624
334.981
334.971
334.963
334.947
334.945
334.931
334.951
334.98
334.97
334.96
334.953
334.948
334.953
334.956
335.035
334.998
334.996
334.994
334.991
334.986
334.98
334.972
334.959
334.762
334.99
334.985
334.979
334.974
334.973
334.973
334.982
334.977
334.998
334.987
334.98
334.973
334.968
334.968
334.972
334.987
335
335.334
334.985
334.977
334.999
334.998
334.997
334.995
334.992
334.989
334.984
334.981
334.698
334.995
334.992
334.987
334.982
334.978
334.976
334.976
334.977
335.01
334.994
334.989
334.984
334.978
334.974
334.972
334.975
334.978
335.042
334.99
334.984
334.977
334.97
334.999
334.998
334.998
334.997
334.995
334.993
334.99
334.988
337.03
334.999
334.998
334.996
334.994
334.992
334.988
334.984
334.98
334.931
334.998
334.997
334.995
334.992
334.988
334.984
334.978
334.973
334.928
334.997
334.995
334.992
334.988
334.983
334.978
)
;

boundaryField
{
    inlet
    {
        type            calculated;
        value           nonuniform 0();
    }
    outlet
    {
        type            calculated;
        value           uniform 335;
    }
    wall
    {
        type            calculated;
        value           nonuniform List<scalar> 
66
(
334.999
334.999
334.998
334.997
334.998
334.998
334.997
334.995
334.998
334.996
334.995
334.992
334.997
334.994
334.992
334.988
334.995
334.992
334.988
334.983
334.993
334.988
334.984
334.978
334.99
334.984
334.978
334.988
334.98
334.973
337.03
334.931
334.928
334.998
334.999
334.999
334.996
334.998
334.998
334.994
334.997
334.998
334.991
334.991
334.995
334.997
334.987
334.986
334.992
334.995
334.981
334.98
334.989
334.993
334.972
334.972
334.984
334.99
334.959
334.959
334.981
334.988
334.624
334.762
334.698
337.03
)
;
    }
    procBoundary5to1
    {
        type            processor;
        value           nonuniform List<scalar> 
32
(
334.982
334.972
334.962
334.945
334.934
334.499
334.934
334.902
334.873
334.86
334.86
334.87
334.852
334.961
334.947
334.934
334.926
334.92
334.933
334.929
334.989
334.998
334.996
334.994
334.994
334.994
334.992
334.987
334.987
334.987
334.988
334.988
)
;
    }
    procBoundary5to4
    {
        type            processor;
        value           nonuniform List<scalar> 
12
(
334.999
334.995
334.993
334.992
334.999
334.998
334.997
334.995
334.999
334.999
334.999
334.998
)
;
    }
    procBoundary5to7
    {
        type            processor;
        value           nonuniform List<scalar> 
44
(
334.974
334.961
334.946
334.937
334.931
334.939
334.946
335.195
334.985
334.974
334.969
334.963
334.963
334.966
334.981
334.992
335.53
334.979
334.969
334.97
334.969
334.963
334.968
334.972
334.984
334.999
335.078
334.992
334.987
334.981
334.968
334.975
334.968
334.972
334.972
334.967
334.878
334.998
334.996
334.993
334.989
334.983
334.972
334.977
)
;
    }
}


// ************************************************************************* //
