/*--------------------------------*- C++ -*----------------------------------*\
| =========                 |                                                 |
| \\      /  F ield         | OpenFOAM: The Open Source CFD Toolbox           |
|  \\    /   O peration     | Version:  4.x                                   |
|   \\  /    A nd           | Web:      www.OpenFOAM.org                      |
|    \\/     M anipulation  |                                                 |
\*---------------------------------------------------------------------------*/
FoamFile
{
    version     2.0;
    format      ascii;
    class       volVectorField;
    location    "24";
    object      DDtUrel;
}
// * * * * * * * * * * * * * * * * * * * * * * * * * * * * * * * * * * * * * //

dimensions      [0 1 -2 0 0 0 0];

internalField   nonuniform List<vector> 
114
(
(-9.9134e-05 -5.41899e-05 1.90324e-05)
(-0.000174309 -9.22847e-05 2.34458e-05)
(-0.00041401 -0.000202989 -3.69252e-06)
(-0.000698446 -0.000316322 -1.79388e-06)
(-0.00131938 -0.00058671 -5.94583e-05)
(-0.00213045 -0.000848055 -0.000100643)
(-1.93745e-05 -1.14014e-05 2.88088e-05)
(-0.000103513 -4.81457e-05 9.7828e-06)
(-0.000205838 -8.26002e-05 -1.30441e-06)
(-0.00040901 -0.000177123 -5.0581e-05)
(-0.000720584 -0.000272409 -9.2855e-05)
(-0.00117133 -0.000549638 -0.000232705)
(-0.00173626 -0.000804728 -0.000367067)
(-5.63525e-06 1.91426e-06 2.17957e-05)
(-4.75649e-05 -6.13104e-06 2.06335e-05)
(-0.000118405 -2.4051e-05 2.37571e-06)
(-0.000234213 -4.72242e-05 -1.92511e-05)
(-0.000403862 -9.48313e-05 -7.45628e-05)
(-0.000687085 -0.000158768 -0.000153658)
(-0.00102435 -0.000304216 -0.000287982)
(-0.00151214 -0.000435437 -0.000404647)
(6.04567e-05 6.36601e-06 2.39672e-05)
(2.23584e-05 -1.05442e-05 2.62031e-05)
(1.19049e-05 -2.67508e-05 3.41343e-05)
(-6.09121e-05 -8.23336e-05 4.21347e-05)
(-0.000127658 -0.000145368 5.87324e-05)
(-0.000313749 -0.000289134 9.31159e-05)
(-0.000602735 -0.000486921 0.000146862)
(-0.00117881 -0.000891892 0.000390585)
(-0.00187986 -0.00132744 0.00061956)
(3.31487e-05 4.97723e-06 2.02928e-05)
(8.85124e-06 -9.53448e-06 2.0432e-05)
(-2.15189e-05 -2.88532e-05 2.53153e-05)
(-7.93985e-05 -6.68005e-05 2.32333e-05)
(-0.000179746 -0.000121261 2.91889e-05)
(-0.000340559 -0.000232294 3.03332e-05)
(-0.000641834 -0.000393937 4.69381e-05)
(-0.0010415 -0.000708857 0.000108421)
(-0.00152444 -0.00103176 0.000194354)
(1.43435e-05 1.34566e-06 1.56303e-05)
(-7.24892e-06 -7.69657e-06 1.45102e-05)
(-4.02831e-05 -2.00281e-05 1.59569e-05)
(-9.98343e-05 -4.15077e-05 8.77776e-06)
(-0.000200758 -7.34087e-05 1.6101e-06)
(-0.000351261 -0.000140427 -1.93392e-05)
(-0.00061022 -0.000233625 -4.82186e-05)
(-0.00093852 -0.000403162 -5.48239e-05)
(-0.0014239 -0.000573898 -4.94786e-05)
(9.6402e-06 -1.69867e-06 1.15138e-05)
(-1.59624e-05 -2.28466e-06 9.46391e-06)
(9.59717e-05 -5.80913e-06 9.67949e-06)
(7.29885e-05 -2.74176e-05 1.83256e-05)
(0.000107353 -4.77698e-05 2.64685e-05)
(4.6868e-05 -0.000119664 5.4156e-05)
(9.17202e-05 -0.000191991 7.27148e-05)
(-0.000118919 -0.00041655 0.000167933)
(-0.000159146 -0.000666366 0.000209862)
(-0.00131694 -0.00145037 0.000667634)
(-0.00266829 -0.00214457 0.00101913)
(5.69091e-05 -8.40205e-06 6.52164e-06)
(3.62862e-05 -2.52164e-05 1.22416e-05)
(3.78506e-05 -4.48841e-05 1.63738e-05)
(-1.62268e-05 -9.93027e-05 3.16896e-05)
(-5.97404e-05 -0.000165662 4.75213e-05)
(-0.000228971 -0.000344287 9.39476e-05)
(-0.000470576 -0.000562512 0.000142722)
(-0.00108497 -0.00118392 0.000357876)
(-0.00178363 -0.00175804 0.000614231)
(3.04335e-05 -8.31107e-06 1.29741e-06)
(3.86903e-06 -1.95634e-05 8.52794e-06)
(-1.25273e-05 -3.16496e-05 1.2926e-05)
(-7.15412e-05 -6.64868e-05 1.59424e-05)
(-0.00015012 -0.000110347 1.58719e-05)
(-0.000306408 -0.000212807 2.80762e-05)
(-0.000570978 -0.000337712 2.46421e-05)
(-0.000951981 -0.000639634 0.000101052)
(-0.00145969 -0.00100036 0.00022577)
(6.1939e-06 -4.06794e-06 -4.10849e-07)
(-1.82807e-05 -7.74827e-06 1.64112e-06)
(-5.29566e-05 -1.23417e-05 3.5289e-06)
(-0.000104523 -2.45365e-05 -1.18622e-06)
(0.000131883 -1.44667e-05 -3.22824e-06)
(0.000115773 -3.88846e-05 -1.19696e-06)
(0.000163765 -6.47498e-05 1.00782e-05)
(0.000114891 -0.000149667 3.12258e-05)
(0.000211662 -0.000234143 6.30144e-05)
(5.79801e-06 -0.000513988 0.000136523)
(0.000140319 -0.000818653 0.00021302)
(-0.0014453 -0.00190054 0.000469804)
(-0.00332199 -0.00266311 0.000572117)
(8.31866e-05 -1.82972e-05 -4.04364e-06)
(6.35795e-05 -3.84559e-05 -1.37877e-06)
(7.6211e-05 -5.98511e-05 5.10963e-06)
(2.47806e-05 -0.00012847 2.01011e-05)
(6.76426e-06 -0.000203386 4.22384e-05)
(-0.000170881 -0.000430017 8.80092e-05)
(-0.000374312 -0.000691134 0.000153184)
(-0.00115751 -0.00154559 0.000310384)
(-0.00204844 -0.00228823 0.000422004)
(4.1831e-05 -1.66404e-05 -5.47652e-06)
(1.1349e-05 -3.00157e-05 -1.82829e-06)
(3.50969e-06 -4.20672e-05 3.01201e-06)
(-5.70062e-05 -8.51746e-05 1.05402e-05)
(-0.00011824 -0.000132314 1.90284e-05)
(-0.00028601 -0.000261558 3.82188e-05)
(-0.000529844 -0.000421918 6.27068e-05)
(-0.000987099 -0.000812483 0.000131044)
(-0.00156975 -0.00132565 0.00019076)
(8.49308e-06 -8.70548e-06 -6.89049e-06)
(-2.19174e-05 -1.45739e-05 -5.20467e-06)
(-5.37316e-05 -1.9776e-05 -4.07374e-06)
(-0.000106278 -3.82885e-05 -1.4902e-06)
(-0.000198169 -5.61854e-05 -7.11617e-08)
(-0.000329163 -0.000113961 -5.92041e-06)
)
;

boundaryField
{
    inlet
    {
        type            calculated;
        value           nonuniform 0();
    }
    outlet
    {
        type            calculated;
        value           nonuniform List<vector> 
12
(
(-0.00553886 -0.000916079 0.000351749)
(-0.00249829 -0.00198258 -0.00155046)
(-0.00203414 -0.000833472 -0.000486199)
(-0.00205749 -0.00260962 0.00364521)
(-0.000865624 -0.001046 0.00035016)
(-0.00230468 -0.000149144 0.000113655)
(-0.0101691 -0.00649162 0.00599111)
(-0.00231274 -0.00535573 0.00326919)
(-0.00236436 -0.00231373 0.00122896)
(-0.0153059 -0.00787034 -5.84955e-06)
(-0.00331227 -0.00811811 0.000443551)
(-0.00304722 -0.00357428 0.000108767)
)
;
    }
    wall
    {
        type            calculated;
        value           nonuniform List<vector> 
66
(
(0.000501972 4.33179e-05 -5.31899e-05)
(0.000214013 -8.82614e-06 -4.71016e-05)
(0.00013457 -2.12713e-05 -4.14401e-05)
(-1.56553e-05 2.12207e-06 -2.8968e-05)
(0.000199075 -7.06245e-05 -9.0252e-05)
(4.29895e-05 -9.95162e-05 -5.44349e-05)
(-9.69123e-05 -8.78372e-05 -2.8214e-05)
(-9.87867e-05 -3.53703e-05 -9.62804e-06)
(0.000918751 5.95429e-05 -5.67478e-05)
(0.000356162 7.82704e-06 -6.55323e-05)
(0.000176163 1.27634e-05 -2.06014e-05)
(-0.000125262 3.37435e-06 -2.37452e-05)
(0.000127152 -0.000307841 -3.92086e-05)
(1.58003e-05 -0.00026512 -4.32275e-05)
(-0.000109703 -0.000140619 -1.79357e-06)
(-8.86208e-05 -7.63178e-05 1.9335e-05)
(0.00218648 0.000175202 -3.85272e-05)
(0.000483947 4.84538e-05 -4.39424e-05)
(0.00018758 5.08497e-05 -1.91395e-05)
(-0.00024837 4.91246e-05 6.72979e-05)
(-0.000173839 -0.000989512 0.000178982)
(-9.87198e-05 -0.000839206 1.07055e-05)
(-0.000197447 -0.000245698 3.45419e-05)
(-3.13954e-05 -0.000224462 6.77446e-05)
(0.00820673 0.000842777 -0.00017888)
(0.000698571 0.000403136 -1.88389e-05)
(-5.33383e-05 0.000105834 6.54542e-06)
(-0.00177674 -0.00540006 0.000851953)
(-0.000670885 -0.00417397 0.000373699)
(-0.000512268 -0.000203483 0.000113781)
(-0.0153059 -0.00787034 -5.84955e-06)
(-0.00331227 -0.00811811 0.000443551)
(-0.00304722 -0.00357428 0.000108767)
(6.93696e-05 7.05142e-05 6.24739e-05)
(0.000326172 5.64387e-05 -1.20366e-05)
(0.000501972 4.33179e-05 -5.31899e-05)
(-0.000194067 -1.51406e-05 5.30664e-05)
(2.38334e-05 -5.48322e-05 7.43278e-05)
(0.000199075 -7.06245e-05 -9.0252e-05)
(5.08732e-05 0.000110032 9.81659e-05)
(0.000747425 9.78908e-05 2.09037e-05)
(0.000918751 5.95429e-05 -5.67478e-05)
(-0.000337765 -8.82465e-05 -3.78958e-05)
(-0.000236782 -7.77213e-05 0.000106147)
(2.07014e-05 -0.000203045 0.000259676)
(0.000127152 -0.000307841 -3.92086e-05)
(0.000273959 0.000180519 0.000178424)
(-0.000110432 2.27405e-05 0.000156791)
(0.00168736 0.000206846 -2.58991e-05)
(0.00218648 0.000175202 -3.85272e-05)
(-0.000549389 -0.000158855 5.64552e-06)
(-0.000188138 -0.00016183 0.000289767)
(-0.000119263 -0.00064832 0.00089234)
(-0.000173839 -0.000989512 0.000178982)
(0.000239345 0.000366682 0.000513432)
(-0.000617231 -7.3835e-05 9.93607e-05)
(0.00485762 0.000662542 -0.00074888)
(0.00820673 0.000842777 -0.00017888)
(-0.000918414 -0.0001129 0.000236352)
(-0.000341147 -0.000577494 0.00183242)
(-0.00143069 -0.00288819 0.0034148)
(-0.00177674 -0.00540006 0.000851953)
(-0.00553886 -0.000916079 0.000351749)
(-0.00205749 -0.00260962 0.00364521)
(-0.0101691 -0.00649162 0.00599111)
(-0.0153059 -0.00787034 -5.84955e-06)
)
;
    }
    procBoundary5to1
    {
        type            processor;
        value           nonuniform List<vector> 
32
(
(-8.36213e-05 -3.1162e-05 7.78829e-06)
(-0.000161551 -6.11907e-05 -4.37509e-06)
(-0.00042811 -0.000154376 -8.76063e-05)
(-0.000722407 -0.000246628 -0.000164472)
(-0.00153782 -0.000482915 -0.000450112)
(-0.00252031 -0.000666276 -0.000745566)
(7.08035e-06 -4.39675e-06 3.54586e-05)
(-9.48612e-05 -3.39652e-05 5.21449e-06)
(-0.000194469 -6.23445e-05 -1.75247e-05)
(-0.000437606 -0.000149307 -0.000124037)
(-0.000763033 -0.000219305 -0.000226926)
(-0.00139941 -0.000523221 -0.000598508)
(-0.00212627 -0.000788358 -0.000913148)
(1.54994e-05 7.52987e-06 2.96014e-05)
(-3.53347e-05 1.26724e-06 2.72726e-05)
(-0.000120658 -1.31843e-05 2.57177e-07)
(-0.000246658 -3.26554e-05 -3.77297e-05)
(-0.00045238 -6.99748e-05 -0.000128266)
(-0.000773235 -0.000120088 -0.000262291)
(-0.00120445 -0.000262784 -0.000543965)
(-0.0017358 -0.000391237 -0.000784901)
(8.40117e-05 1.80586e-05 3.03136e-05)
(2.67393e-05 6.02982e-06 2.50956e-05)
(3.54893e-06 -6.82535e-06 2.97074e-05)
(3.54893e-06 -6.82535e-06 2.97074e-05)
(3.54893e-06 -6.82535e-06 2.97074e-05)
(5.6441e-05 1.12552e-05 3.02778e-05)
(1.24443e-05 -6.26086e-07 2.48699e-05)
(1.24443e-05 -6.26086e-07 2.48699e-05)
(1.24443e-05 -6.26086e-07 2.48699e-05)
(2.7546e-05 8.81928e-06 2.59722e-05)
(2.7546e-05 8.81928e-06 2.59722e-05)
)
;
    }
    procBoundary5to4
    {
        type            processor;
        value           nonuniform List<vector> 
12
(
(6.58839e-05 5.21673e-06 2.08676e-05)
(4.60683e-05 4.45589e-06 1.75126e-05)
(3.02829e-05 2.67169e-06 1.41793e-05)
(2.21068e-05 4.58552e-07 1.12637e-05)
(8.43898e-05 -4.26001e-06 9.43729e-06)
(5.58034e-05 -5.56132e-06 6.96672e-06)
(3.54228e-05 -7.01098e-06 4.35144e-06)
(1.94031e-05 -4.09551e-06 1.19115e-06)
(0.000113796 -1.24459e-05 -1.2705e-06)
(8.04245e-05 -1.56177e-05 -2.81353e-06)
(4.69823e-05 -1.56772e-05 -4.40231e-06)
(2.39928e-05 -9.92887e-06 -4.40944e-06)
)
;
    }
    procBoundary5to7
    {
        type            processor;
        value           nonuniform List<vector> 
44
(
(-9.8739e-06 3.35884e-06 1.74631e-05)
(-5.39629e-05 1.99878e-06 1.46897e-05)
(-0.000119661 1.1568e-06 -5.91534e-06)
(-0.000226573 -2.91706e-07 -3.02389e-05)
(-0.000391475 -6.54968e-06 -9.9104e-05)
(-0.000650147 -1.61941e-05 -0.000191572)
(-0.000988383 1.21884e-06 -0.000362746)
(-0.00149798 1.94731e-05 -0.000514069)
(2.01656e-05 3.89297e-06 2.35877e-05)
(-9.8739e-06 3.35884e-06 1.74631e-05)
(-4.84034e-05 -4.48138e-06 1.03465e-05)
(-0.000110561 -1.03539e-05 -2.99568e-06)
(-0.000202445 -1.52572e-05 -1.71568e-05)
(-0.000352447 -3.89922e-05 -5.60514e-05)
(-0.000574127 -5.9286e-05 -9.83815e-05)
(-0.000901803 -0.000104989 -0.000193186)
(-0.00142556 -0.000147242 -0.000261191)
(8.05969e-06 -2.74829e-07 8.39573e-06)
(-4.84034e-05 -4.48138e-06 1.03465e-05)
(-1.59572e-05 4.38251e-06 4.38355e-06)
(-4.84034e-05 -4.48138e-06 1.03465e-05)
(-0.000110561 -1.03539e-05 -2.99568e-06)
(-0.000201514 -4.02146e-05 -7.82916e-06)
(-0.000335667 -7.64611e-05 -2.26045e-05)
(-0.00058441 -0.0001215 -4.3163e-05)
(-0.000871942 -0.000211451 -6.14658e-05)
(-0.00130315 -0.00029654 -4.80737e-05)
(7.27337e-06 -7.8494e-07 -3.45599e-06)
(-2.17065e-05 2.02277e-06 -3.74633e-06)
(-4.88436e-05 5.05059e-06 -3.86119e-06)
(-0.000201514 -4.02146e-05 -7.82916e-06)
(-0.000106021 1.27824e-05 -1.37568e-05)
(-0.000201514 -4.02146e-05 -7.82916e-06)
(-0.000335667 -7.64611e-05 -2.26045e-05)
(-0.000573959 -0.0001657 -1.794e-05)
(-0.000874349 -0.000321272 -3.4166e-06)
(-0.0013353 -0.000497354 1.45283e-05)
(1.01496e-06 -1.43784e-06 -1.19842e-05)
(-3.22222e-05 5.86828e-08 -1.33466e-05)
(-6.65592e-05 1.51525e-06 -1.38905e-05)
(-0.00012141 6.40738e-06 -1.95221e-05)
(-0.000217429 1.18051e-05 -2.5955e-05)
(-0.000573959 -0.0001657 -1.794e-05)
(-0.000343285 2.59709e-05 -5.11013e-05)
)
;
    }
}


// ************************************************************************* //
