/*--------------------------------*- C++ -*----------------------------------*\
| =========                 |                                                 |
| \\      /  F ield         | OpenFOAM: The Open Source CFD Toolbox           |
|  \\    /   O peration     | Version:  4.x                                   |
|   \\  /    A nd           | Web:      www.OpenFOAM.org                      |
|    \\/     M anipulation  |                                                 |
\*---------------------------------------------------------------------------*/
FoamFile
{
    version     2.0;
    format      ascii;
    class       volVectorField;
    location    "24";
    object      impParticleForces;
}
// * * * * * * * * * * * * * * * * * * * * * * * * * * * * * * * * * * * * * //

dimensions      [1 1 -2 0 0 0 0];

internalField   nonuniform List<vector> 
114
(
(0.00241508 -7.87446e-07 -9.84272e-07)
(0.00237699 -8.49803e-06 8.26265e-06)
(0.00238436 -1.7027e-05 1.76634e-05)
(0.00232863 -2.99988e-05 2.36873e-05)
(0.00231255 -4.15471e-05 3.10825e-05)
(0.0022244 -5.87065e-05 3.04778e-05)
(0.00240455 2.8841e-06 -9.8586e-06)
(0.00241856 -1.41016e-07 4.36951e-07)
(0.00238154 -6.32732e-06 9.08196e-06)
(0.00239589 -1.31508e-05 1.82107e-05)
(0.00234223 -2.44993e-05 2.13451e-05)
(0.00232382 -3.32646e-05 2.58336e-05)
(0.00223552 -4.94428e-05 1.97164e-05)
(0.00241469 5.25681e-06 -1.83503e-05)
(0.00237684 5.40774e-06 -8.61778e-06)
(0.00239668 3.9801e-06 1.72035e-06)
(0.00235858 7.67502e-07 9.67877e-06)
(0.00235528 -3.0861e-06 1.71622e-05)
(0.00230919 -8.55648e-06 1.92928e-05)
(0.00228001 -1.42995e-05 1.84813e-05)
(0.00221235 -2.30743e-05 1.1044e-05)
(0.00236599 -7.05649e-06 -2.22609e-05)
(0.0023716 -5.83926e-06 -1.36022e-05)
(0.00236805 -7.54662e-06 -4.87263e-06)
(0.00237555 -1.17938e-05 5.27534e-06)
(0.00235538 -2.04129e-05 1.56028e-05)
(0.00237282 -3.17403e-05 2.77577e-05)
(0.00232594 -4.97289e-05 3.85544e-05)
(0.00230583 -6.85247e-05 5.12875e-05)
(0.00222734 -9.41323e-05 6.89094e-05)
(0.00238826 -6.05775e-06 -2.19188e-05)
(0.00239754 -4.8064e-06 -1.32968e-05)
(0.0023784 -5.93698e-06 -4.30103e-06)
(0.00239609 -9.6161e-06 5.93145e-06)
(0.00236391 -1.65411e-05 1.5159e-05)
(0.00237975 -2.62915e-05 2.65063e-05)
(0.00232097 -4.03538e-05 3.3501e-05)
(0.00231062 -5.58084e-05 4.39129e-05)
(0.0022273 -7.65559e-05 4.92649e-05)
(0.00236136 -1.8627e-06 -2.12833e-05)
(0.00236598 -6.7092e-07 -1.31255e-05)
(0.00234883 -1.38171e-06 -4.61852e-06)
(0.00237041 -3.54803e-06 5.01917e-06)
(0.00233387 -7.63342e-06 1.30399e-05)
(0.00234193 -1.31546e-05 2.1774e-05)
(0.00229057 -2.1222e-05 2.57681e-05)
(0.00227033 -2.97965e-05 2.85835e-05)
(0.00219544 -4.11733e-05 2.852e-05)
(0.00235039 4.02723e-06 -2.23313e-05)
(0.0023546 4.93134e-06 -1.46995e-05)
(0.00235876 -1.24743e-05 -1.65076e-05)
(0.00237888 -1.29842e-05 -8.85798e-06)
(0.00236029 -1.58174e-05 -1.04321e-06)
(0.00237637 -2.1363e-05 8.26747e-06)
(0.00236818 -3.21368e-05 1.90916e-05)
(0.00238867 -4.62813e-05 3.07214e-05)
(0.00236255 -7.32665e-05 4.64921e-05)
(0.00239293 -0.000103552 6.17578e-05)
(0.00227373 -0.000150582 9.24991e-05)
(0.00236992 -1.07874e-05 -1.62176e-05)
(0.00240517 -1.15813e-05 -8.69931e-06)
(0.0023691 -1.37321e-05 -1.23144e-06)
(0.00238937 -1.90015e-05 7.88058e-06)
(0.0023745 -2.81133e-05 1.77521e-05)
(0.00239389 -4.1254e-05 2.89735e-05)
(0.00237005 -6.40935e-05 4.11362e-05)
(0.00235683 -8.76892e-05 5.20298e-05)
(0.00225481 -0.000126946 6.78508e-05)
(0.00234871 -6.14942e-06 -1.63382e-05)
(0.00236777 -6.28582e-06 -9.67609e-06)
(0.00234871 -7.96762e-06 -2.29651e-06)
(0.00235788 -1.12627e-05 5.97135e-06)
(0.00235017 -1.76989e-05 1.46946e-05)
(0.00235542 -2.57086e-05 2.28959e-05)
(0.00230936 -3.84585e-05 2.99408e-05)
(0.00229335 -5.22421e-05 3.41798e-05)
(0.00221287 -7.19081e-05 4.01562e-05)
(0.00233103 7.52608e-07 -1.77799e-05)
(0.00236712 9.58359e-07 -1.15085e-05)
(0.00233089 7.07788e-07 -4.92573e-06)
(0.00234393 4.30015e-09 2.49297e-06)
(0.00230482 -1.38355e-05 -1.41744e-05)
(0.00232702 -1.53341e-05 -7.71543e-06)
(0.00231337 -1.89166e-05 -7.8569e-07)
(0.00233983 -2.56555e-05 7.78205e-06)
(0.00233791 -3.74606e-05 1.73447e-05)
(0.00236448 -5.40473e-05 2.83206e-05)
(0.00235918 -8.60296e-05 4.21157e-05)
(0.00240576 -0.000120329 5.77971e-05)
(0.00227868 -0.000176754 7.73964e-05)
(0.00233517 -1.28247e-05 -1.39977e-05)
(0.00235898 -1.42763e-05 -7.71125e-06)
(0.00233227 -1.74513e-05 -1.06674e-06)
(0.00235041 -2.33304e-05 7.07545e-06)
(0.00234764 -3.39566e-05 1.59978e-05)
(0.00235605 -4.82238e-05 2.61716e-05)
(0.00234152 -7.36181e-05 3.71393e-05)
(0.00234794 -0.00010277 4.91865e-05)
(0.00225904 -0.000155374 6.27175e-05)
(0.00231286 -8.08095e-06 -1.46106e-05)
(0.00233565 -9.0851e-06 -8.74981e-06)
(0.00232154 -1.14204e-05 -2.26955e-06)
(0.00232879 -1.532e-05 5.07394e-06)
(0.00231509 -2.24557e-05 1.27202e-05)
(0.00232588 -3.197e-05 2.08117e-05)
(0.00228487 -4.62515e-05 2.76964e-05)
(0.00226865 -6.24248e-05 3.40358e-05)
(0.00220378 -8.81247e-05 4.02331e-05)
(0.00230035 -9.26878e-07 -1.58429e-05)
(0.00231829 -1.058e-06 -1.05819e-05)
(0.00230072 -1.93474e-06 -4.77893e-06)
(0.00231017 -3.28741e-06 1.55137e-06)
(0.00229405 -6.28202e-06 7.84527e-06)
(0.00227948 -8.97998e-06 1.35088e-05)
)
;

boundaryField
{
    inlet
    {
        type            zeroGradient;
    }
    outlet
    {
        type            zeroGradient;
    }
    wall
    {
        type            zeroGradient;
    }
    procBoundary5to1
    {
        type            processor;
        value           nonuniform List<vector> 
32
(
(0.00247074 1.11642e-05 -7.04888e-06)
(0.00242705 2.20593e-06 1.55036e-06)
(0.00243555 -6.5745e-06 8.25632e-06)
(0.00239188 -1.71568e-05 1.0131e-05)
(0.00236789 -2.71102e-05 1.13874e-05)
(0.00225548 -4.26476e-05 -1.92643e-06)
(0.00244889 1.41546e-05 -1.48752e-05)
(0.00247947 9.52993e-06 -4.09527e-06)
(0.00244597 2.76397e-06 4.0008e-06)
(0.00245337 -3.98391e-06 1.15389e-05)
(0.002401 -1.32786e-05 1.18783e-05)
(0.00238025 -2.15815e-05 1.1128e-05)
(0.00226335 -3.82227e-05 -6.45314e-06)
(0.00245689 1.25132e-05 -2.32483e-05)
(0.00242759 1.26413e-05 -1.26234e-05)
(0.00246021 1.08846e-05 -1.05333e-06)
(0.00241573 7.62589e-06 6.66034e-06)
(0.00242208 4.22643e-06 1.40714e-05)
(0.00236504 1.5359e-07 1.43363e-05)
(0.00234197 -3.70275e-06 1.15265e-05)
(0.002245 -1.23409e-05 -4.78588e-06)
(0.00238293 1.42381e-06 -2.94826e-05)
(0.0023903 4.77846e-06 -2.00591e-05)
(0.00239312 3.42804e-06 -1.09984e-05)
(0.00239312 3.42804e-06 -1.09984e-05)
(0.00239312 3.42804e-06 -1.09984e-05)
(0.00241225 5.89892e-07 -2.94549e-05)
(0.00244391 3.27071e-06 -2.00312e-05)
(0.00244391 3.27071e-06 -2.00312e-05)
(0.00244391 3.27071e-06 -2.00312e-05)
(0.00238485 2.95955e-06 -2.8032e-05)
(0.00238485 2.95955e-06 -2.8032e-05)
)
;
    }
    procBoundary5to4
    {
        type            processor;
        value           nonuniform List<vector> 
12
(
(0.00239184 -1.02148e-05 -3.02033e-05)
(0.00242106 -9.1007e-06 -3.01421e-05)
(0.00238448 -4.0296e-06 -2.88871e-05)
(0.00236716 2.75122e-06 -2.95181e-05)
(0.00239109 -1.40852e-05 -2.26928e-05)
(0.00241296 -1.24972e-05 -2.21859e-05)
(0.00238295 -7.26432e-06 -2.20212e-05)
(0.00235751 1.14866e-07 -2.31425e-05)
(0.00235088 -1.4888e-05 -1.96206e-05)
(0.00235776 -1.31768e-05 -1.92849e-05)
(0.00233755 -8.33415e-06 -1.95163e-05)
(0.00232203 -1.10106e-06 -2.04594e-05)
)
;
    }
    procBoundary5to7
    {
        type            processor;
        value           nonuniform List<vector> 
44
(
(0.0024041 9.25679e-06 -1.91503e-05)
(0.00236788 9.91277e-06 -9.84496e-06)
(0.00238477 1.03118e-05 1.58129e-07)
(0.00236603 1.04601e-05 8.60498e-06)
(0.00237478 1.05854e-05 1.6612e-05)
(0.00230522 9.75849e-06 1.59982e-05)
(0.00227615 9.45691e-06 1.35838e-05)
(0.00220554 1.03084e-05 2.42615e-06)
(0.00238073 7.43285e-06 -2.8479e-05)
(0.0024041 9.25679e-06 -1.91503e-05)
(0.00233348 5.30008e-06 -6.70053e-06)
(0.00235351 5.19391e-06 2.20615e-06)
(0.00232189 4.59805e-06 9.37951e-06)
(0.00232964 4.07283e-06 1.67738e-05)
(0.0022819 1.82962e-06 1.87322e-05)
(0.00226883 9.33593e-07 1.99743e-05)
(0.00218703 -2.74304e-06 1.34617e-05)
(0.00234452 1.00565e-05 -2.46591e-05)
(0.00233348 5.30008e-06 -6.70053e-06)
(0.00237934 1.11541e-05 -1.75847e-05)
(0.00233348 5.30008e-06 -6.70053e-06)
(0.00235351 5.19391e-06 2.20615e-06)
(0.00230186 -1.50584e-06 8.89103e-06)
(0.0023087 -3.66728e-06 1.52528e-05)
(0.00226808 -7.56467e-06 1.86092e-05)
(0.00224681 -1.09929e-05 1.99373e-05)
(0.00217266 -1.66722e-05 1.94774e-05)
(0.00234318 8.4746e-06 -2.00836e-05)
(0.00236563 9.36847e-06 -1.46569e-05)
(0.00232514 1.01812e-05 -8.78993e-06)
(0.00230186 -1.50584e-06 8.89103e-06)
(0.00233835 1.17251e-05 -2.513e-06)
(0.00230186 -1.50584e-06 8.89103e-06)
(0.0023087 -3.66728e-06 1.52528e-05)
(0.00223978 -1.44928e-05 1.73852e-05)
(0.00222378 -1.85829e-05 1.95588e-05)
(0.00215743 -2.76335e-05 2.12649e-05)
(0.00231115 7.15322e-06 -1.81372e-05)
(0.00232045 7.82986e-06 -1.35633e-05)
(0.00229609 8.40323e-06 -8.71801e-06)
(0.00231253 9.61181e-06 -3.56952e-06)
(0.0022777 1.10672e-05 9.64355e-07)
(0.00223978 -1.44928e-05 1.73852e-05)
(0.00227356 1.32548e-05 5.10535e-06)
)
;
    }
}


// ************************************************************************* //
