/*--------------------------------*- C++ -*----------------------------------*\
| =========                 |                                                 |
| \\      /  F ield         | OpenFOAM: The Open Source CFD Toolbox           |
|  \\    /   O peration     | Version:  4.x                                   |
|   \\  /    A nd           | Web:      www.OpenFOAM.org                      |
|    \\/     M anipulation  |                                                 |
\*---------------------------------------------------------------------------*/
FoamFile
{
    version     2.0;
    format      ascii;
    class       volScalarField;
    location    "24";
    object      particleRelTemp;
}
// * * * * * * * * * * * * * * * * * * * * * * * * * * * * * * * * * * * * * //

dimensions      [0 0 0 0 0 0 0];

internalField   nonuniform List<scalar> 
114
(
4.9281e-09
5.8436e-09
6.42122e-09
7.3425e-09
8.10908e-09
9.31944e-09
7.1988e-09
7.72097e-09
9.52628e-09
1.02692e-08
1.12022e-08
1.16215e-08
1.30208e-08
8.20308e-09
9.91506e-09
1.11272e-08
1.1885e-08
1.27208e-08
1.39041e-08
1.46191e-08
1.59593e-08
1.32939e-09
1.93517e-09
3.86627e-09
3.87908e-09
5.18088e-09
5.467e-09
6.41405e-09
6.52446e-09
7.53232e-09
3.30759e-09
4.78253e-09
6.41252e-09
6.92352e-09
8.57056e-09
9.2677e-09
9.77803e-09
1.05971e-08
1.13178e-08
6.14763e-09
8.5538e-09
9.11059e-09
1.05568e-08
1.14471e-08
1.21035e-08
1.32692e-08
1.43259e-08
1.46602e-08
6.94769e-09
9.70117e-09
-9.24389e-11
5.86402e-10
1.64525e-09
1.84468e-09
2.98179e-09
1.89161e-09
3.31753e-09
3.0292e-09
4.54043e-09
2.15329e-09
2.97898e-09
3.83019e-09
5.11028e-09
5.97552e-09
6.99443e-09
6.47771e-09
6.41546e-09
7.92907e-09
4.62524e-09
5.77934e-09
6.91092e-09
7.8913e-09
9.31026e-09
9.97105e-09
1.0642e-08
1.11458e-08
1.17878e-08
4.25756e-09
6.50652e-09
8.00695e-09
9.41036e-09
-2.50849e-09
-1.84727e-09
-1.98591e-09
-7.76913e-10
2.25668e-11
-7.32308e-10
1.4754e-10
-1.20985e-10
1.03162e-09
-2.98188e-10
4.40619e-10
1.30145e-09
2.29688e-09
2.83858e-09
3.49518e-09
4.08068e-09
3.95296e-09
4.88265e-09
1.86945e-09
2.8177e-09
4.21584e-09
5.30927e-09
6.71424e-09
7.58636e-09
7.52793e-09
7.8695e-09
8.30265e-09
2.43036e-09
3.79508e-09
5.50483e-09
6.79976e-09
8.37765e-09
8.81496e-09
)
;

boundaryField
{
    inlet
    {
        type            calculated;
        value           nonuniform 0();
    }
    outlet
    {
        type            calculated;
        value           nonuniform List<scalar> 
12
(
9.31944e-09
1.30208e-08
1.59593e-08
7.53232e-09
1.13178e-08
1.46602e-08
4.54043e-09
7.92907e-09
1.17878e-08
1.03162e-09
4.88265e-09
8.30265e-09
)
;
    }
    wall
    {
        type            calculated;
        value           nonuniform List<scalar> 
66
(
-2.50849e-09
-2.98188e-10
1.86945e-09
2.43036e-09
-1.84727e-09
4.40619e-10
2.8177e-09
3.79508e-09
-1.98591e-09
1.30145e-09
4.21584e-09
5.50483e-09
-7.76913e-10
2.29688e-09
5.30927e-09
6.79976e-09
2.25668e-11
2.83858e-09
6.71424e-09
8.37765e-09
-7.32308e-10
3.49518e-09
7.58636e-09
8.81496e-09
1.4754e-10
4.08068e-09
7.52793e-09
-1.20985e-10
3.95296e-09
7.8695e-09
1.03162e-09
4.88265e-09
8.30265e-09
1.32939e-09
-9.24389e-11
-2.50849e-09
1.93517e-09
5.86402e-10
-1.84727e-09
3.86627e-09
1.64525e-09
-1.98591e-09
4.9281e-09
3.87908e-09
1.84468e-09
-7.76913e-10
5.8436e-09
5.18088e-09
2.98179e-09
2.25668e-11
6.42122e-09
5.467e-09
1.89161e-09
-7.32308e-10
7.3425e-09
6.41405e-09
3.31753e-09
1.4754e-10
8.10908e-09
6.52446e-09
3.0292e-09
-1.20985e-10
9.31944e-09
7.53232e-09
4.54043e-09
1.03162e-09
)
;
    }
    procBoundary5to1
    {
        type            processor;
        value           nonuniform List<scalar> 
32
(
3.87026e-09
4.80235e-09
6.07231e-09
6.94001e-09
7.14902e-09
8.22379e-09
5.2061e-09
6.3054e-09
7.76834e-09
8.58406e-09
9.7952e-09
1.08502e-08
1.22921e-08
7.1031e-09
7.62916e-09
9.66041e-09
1.06577e-08
1.17404e-08
1.26361e-08
1.40268e-08
1.43773e-08
1.19912e-09
2.32479e-09
3.67753e-09
3.67753e-09
3.67753e-09
3.89122e-09
5.69591e-09
5.69591e-09
5.69591e-09
6.4216e-09
6.4216e-09
)
;
    }
    procBoundary5to4
    {
        type            processor;
        value           nonuniform List<scalar> 
12
(
-3.20934e-10
2.06028e-09
4.12208e-09
5.2399e-09
-1.72884e-09
3.33651e-10
2.19423e-09
3.22682e-09
-3.79418e-09
-1.68815e-09
1.23929e-10
9.11409e-10
)
;
    }
    procBoundary5to7
    {
        type            processor;
        value           nonuniform List<scalar> 
44
(
9.39528e-09
1.08425e-08
1.22476e-08
1.30117e-08
1.42474e-08
1.51084e-08
1.62349e-08
1.66576e-08
7.62232e-09
9.39528e-09
1.0904e-08
1.17865e-08
1.27509e-08
1.37823e-08
1.45733e-08
1.5544e-08
1.60032e-08
6.92038e-09
1.0904e-08
8.39121e-09
1.0904e-08
1.17865e-08
1.1668e-08
1.17468e-08
1.21511e-08
1.26791e-08
1.40045e-08
3.94221e-09
6.747e-09
7.56455e-09
1.1668e-08
8.69277e-09
1.1668e-08
1.17468e-08
9.39511e-09
1.00235e-08
9.8859e-09
1.79908e-09
3.33212e-09
5.13181e-09
6.07561e-09
7.17087e-09
9.39511e-09
7.91319e-09
)
;
    }
}


// ************************************************************************* //
