/*--------------------------------*- C++ -*----------------------------------*\
| =========                 |                                                 |
| \\      /  F ield         | OpenFOAM: The Open Source CFD Toolbox           |
|  \\    /   O peration     | Version:  4.x                                   |
|   \\  /    A nd           | Web:      www.OpenFOAM.org                      |
|    \\/     M anipulation  |                                                 |
\*---------------------------------------------------------------------------*/
FoamFile
{
    version     2.0;
    format      ascii;
    class       volVectorField;
    location    "24";
    object      UsNext;
}
// * * * * * * * * * * * * * * * * * * * * * * * * * * * * * * * * * * * * * //

dimensions      [0 1 -1 0 0 0 0];

internalField   nonuniform List<vector> 
114
(
(-1.34556e-09 1.8657e-09 2.02883e-10)
(-2.89083e-09 1.27585e-09 -2.77553e-10)
(-5.17958e-09 2.49353e-09 -1.57093e-09)
(-4.39172e-09 1.17498e-09 -3.02737e-09)
(-3.83266e-09 -3.66641e-10 -3.06699e-09)
(-7.75902e-08 1.17616e-08 -4.41584e-10)
(-9.27366e-11 4.48559e-09 6.77032e-10)
(-9.65062e-10 3.78669e-09 -9.26128e-10)
(-2.55759e-09 2.86693e-09 -1.29972e-09)
(-4.77152e-09 2.64658e-09 -4.46352e-09)
(-4.69445e-09 2.17322e-09 -6.02149e-09)
(-3.1971e-09 3.19453e-10 -7.34985e-09)
(-4.20103e-09 7.6958e-09 -7.85799e-09)
(1.74438e-09 4.07895e-09 1.76187e-10)
(1.68317e-09 4.31133e-09 -1.68278e-09)
(7.77443e-10 4.7835e-09 -3.48901e-09)
(4.20343e-10 3.32371e-09 -3.97711e-09)
(-5.57769e-10 1.51272e-09 -4.38958e-09)
(-5.97921e-10 -1.60994e-10 -3.65411e-09)
(-3.92856e-10 -2.36091e-10 -6.48892e-09)
(2.83564e-10 -4.61756e-10 -6.18698e-09)
(9.14983e-10 8.78271e-10 7.94808e-10)
(7.86838e-10 9.8439e-10 9.08429e-10)
(8.6318e-10 1.1578e-09 5.86078e-10)
(8.24121e-10 2.6939e-10 5.11044e-10)
(2.26613e-10 2.82334e-10 -3.98108e-10)
(-8.52461e-10 2.09303e-10 -1.13793e-09)
(-3.11104e-09 1.05115e-10 -2.32308e-09)
(-9.37351e-10 -2.3218e-09 -2.11583e-09)
(-5.49327e-11 -1.34145e-09 -6.27091e-09)
(1.83401e-09 1.63804e-09 7.15946e-10)
(2.2267e-09 1.89488e-09 7.14684e-10)
(1.83349e-09 2.2156e-09 1.35258e-10)
(5.85487e-10 1.24323e-09 -4.36646e-10)
(-6.55538e-10 9.73796e-10 -1.60137e-09)
(-2.47014e-09 1.47023e-09 -2.45405e-09)
(-3.29185e-09 4.39424e-10 -3.71658e-09)
(-5.66045e-09 -1.24915e-10 -3.13598e-09)
(3.75242e-09 2.38991e-10 -5.59895e-09)
(1.40561e-09 2.52329e-09 1.02399e-09)
(2.08953e-09 2.97657e-09 -4.14124e-10)
(1.92601e-09 2.84417e-09 -9.46045e-10)
(1.42486e-09 2.70745e-09 -2.49504e-09)
(-1.47423e-10 1.48755e-09 -2.6284e-09)
(-1.46658e-09 1.28495e-09 -2.92157e-09)
(-2.46188e-09 3.28477e-10 -2.96153e-09)
(-1.81691e-09 3.01032e-09 -2.63156e-09)
(5.91407e-10 2.76989e-09 -2.42052e-09)
(1.73558e-09 2.61801e-09 1.79707e-10)
(2.68132e-09 2.88002e-09 -1.45092e-09)
(1.13381e-09 2.92625e-10 2.90749e-10)
(9.71966e-10 3.96434e-10 1.93677e-10)
(1.22982e-09 5.04062e-10 -5.39271e-11)
(2.05399e-09 7.7461e-10 -1.25216e-09)
(5.89908e-10 3.48698e-10 -5.40396e-10)
(-2.25828e-09 1.57954e-10 -1.10354e-09)
(-4.65269e-09 4.04283e-11 -1.60569e-09)
(-6.84864e-09 -4.89901e-11 -1.24049e-09)
(8.9515e-09 1.92761e-09 -1.44715e-08)
(2.15858e-09 6.72247e-10 3.54274e-10)
(2.00727e-09 9.59893e-10 4.81427e-10)
(2.54245e-09 9.88614e-10 -1.54142e-10)
(6.78353e-09 2.20984e-09 -7.95606e-10)
(3.23688e-10 9.00196e-10 -1.23568e-09)
(-1.70603e-09 1.02542e-09 -2.02512e-09)
(-4.55066e-09 1.61551e-09 -2.36609e-09)
(-3.62091e-09 3.0138e-09 4.28796e-10)
(2.53966e-09 6.34988e-09 -5.17935e-10)
(2.74392e-09 2.23285e-09 6.44152e-10)
(2.61659e-09 2.36068e-09 -1.22375e-10)
(2.53239e-09 1.99677e-09 -7.60304e-10)
(2.03876e-09 1.66943e-09 -1.66236e-09)
(-2.90281e-10 1.04319e-09 -1.17014e-09)
(-1.51308e-09 1.08506e-09 -1.46934e-09)
(-2.74677e-09 8.34756e-10 -1.06887e-09)
(-2.64531e-09 1.79959e-09 4.80633e-11)
(-6.77298e-10 2.64111e-09 -8.40846e-10)
(3.16152e-09 2.18831e-09 5.17468e-10)
(2.953e-09 2.40663e-09 -7.3367e-10)
(2.8742e-09 2.13672e-09 -1.69365e-09)
(1.95094e-09 2.22996e-09 -2.18228e-09)
(5.41524e-10 1.37042e-10 1.26583e-10)
(7.30836e-10 7.85478e-11 1.92516e-10)
(1.08447e-09 -1.28701e-10 3.19963e-10)
(1.80058e-09 2.7883e-10 -5.88137e-10)
(6.41731e-10 1.67191e-11 -7.09112e-11)
(-3.02189e-09 1.60041e-10 1.78273e-10)
(-6.70623e-09 1.56118e-09 2.99921e-10)
(-6.58429e-09 5.48082e-09 -5.14868e-09)
(3.24111e-09 1.65475e-08 -1.52429e-08)
(1.30973e-09 2.82684e-10 6.16738e-11)
(1.2652e-09 4.45703e-10 3.06777e-10)
(4.35259e-09 -7.36869e-10 -4.57199e-10)
(1.07124e-08 2.81918e-09 -2.68759e-10)
(1.52599e-09 1.33977e-09 -5.25766e-11)
(-1.46076e-09 5.75979e-10 -2.64415e-10)
(-3.60976e-09 1.55964e-09 -9.74727e-10)
(-3.27376e-09 9.0712e-09 -2.66572e-10)
(2.90763e-09 2.17275e-08 -5.15764e-10)
(1.46169e-09 9.65198e-10 -4.86011e-11)
(1.44533e-09 8.43652e-10 -7.94106e-11)
(1.18677e-09 6.85822e-10 -3.69685e-10)
(3.28455e-09 3.99774e-10 -3.11151e-10)
(5.22142e-10 1.03068e-09 -3.58672e-10)
(-1.40307e-09 4.26685e-10 -5.13838e-10)
(-1.98961e-09 8.03448e-10 -1.60121e-10)
(-2.13949e-09 1.53343e-09 2.11148e-10)
(-7.83694e-10 2.46118e-09 8.63888e-11)
(2.70457e-09 1.50642e-09 -6.34517e-11)
(2.1375e-09 1.5265e-09 -3.21158e-10)
(5.1947e-09 1.52967e-08 -5.4151e-10)
(1.15536e-09 9.46125e-10 -7.42362e-10)
(-8.07407e-11 9.39312e-10 -3.4106e-10)
(-1.12573e-09 1.0683e-10 -1.42394e-10)
)
;

boundaryField
{
    inlet
    {
        type            calculated;
        value           nonuniform 0();
    }
    outlet
    {
        type            calculated;
        value           nonuniform List<vector> 
12
(
(-7.75902e-08 1.17616e-08 -4.41584e-10)
(-4.20103e-09 7.6958e-09 -7.85799e-09)
(2.83564e-10 -4.61756e-10 -6.18698e-09)
(-5.49327e-11 -1.34145e-09 -6.27091e-09)
(3.75242e-09 2.38991e-10 -5.59895e-09)
(5.91407e-10 2.76989e-09 -2.42052e-09)
(8.9515e-09 1.92761e-09 -1.44715e-08)
(2.53966e-09 6.34988e-09 -5.17935e-10)
(-6.77298e-10 2.64111e-09 -8.40846e-10)
(3.24111e-09 1.65475e-08 -1.52429e-08)
(2.90763e-09 2.17275e-08 -5.15764e-10)
(-7.83694e-10 2.46118e-09 8.63888e-11)
)
;
    }
    wall
    {
        type            calculated;
        value           nonuniform List<vector> 
66
(
(5.41524e-10 1.37042e-10 1.26583e-10)
(1.30973e-09 2.82684e-10 6.16738e-11)
(1.46169e-09 9.65198e-10 -4.86011e-11)
(2.70457e-09 1.50642e-09 -6.34517e-11)
(7.30836e-10 7.85478e-11 1.92516e-10)
(1.2652e-09 4.45703e-10 3.06777e-10)
(1.44533e-09 8.43652e-10 -7.94106e-11)
(2.1375e-09 1.5265e-09 -3.21158e-10)
(1.08447e-09 -1.28701e-10 3.19963e-10)
(4.35259e-09 -7.36869e-10 -4.57199e-10)
(1.18677e-09 6.85822e-10 -3.69685e-10)
(5.1947e-09 1.52967e-08 -5.4151e-10)
(1.80058e-09 2.7883e-10 -5.88137e-10)
(1.07124e-08 2.81918e-09 -2.68759e-10)
(3.28455e-09 3.99774e-10 -3.11151e-10)
(1.15536e-09 9.46125e-10 -7.42362e-10)
(6.41731e-10 1.67191e-11 -7.09112e-11)
(1.52599e-09 1.33977e-09 -5.25766e-11)
(5.22142e-10 1.03068e-09 -3.58672e-10)
(-8.07407e-11 9.39312e-10 -3.4106e-10)
(-3.02189e-09 1.60041e-10 1.78273e-10)
(-1.46076e-09 5.75979e-10 -2.64415e-10)
(-1.40307e-09 4.26685e-10 -5.13838e-10)
(-1.12573e-09 1.0683e-10 -1.42394e-10)
(-6.70623e-09 1.56118e-09 2.99921e-10)
(-3.60976e-09 1.55964e-09 -9.74727e-10)
(-1.98961e-09 8.03448e-10 -1.60121e-10)
(-6.58429e-09 5.48082e-09 -5.14868e-09)
(-3.27376e-09 9.0712e-09 -2.66572e-10)
(-2.13949e-09 1.53343e-09 2.11148e-10)
(3.24111e-09 1.65475e-08 -1.52429e-08)
(2.90763e-09 2.17275e-08 -5.15764e-10)
(-7.83694e-10 2.46118e-09 8.63888e-11)
(9.14983e-10 8.78271e-10 7.94808e-10)
(1.13381e-09 2.92625e-10 2.90749e-10)
(5.41524e-10 1.37042e-10 1.26583e-10)
(7.86838e-10 9.8439e-10 9.08429e-10)
(9.71966e-10 3.96434e-10 1.93677e-10)
(7.30836e-10 7.85478e-11 1.92516e-10)
(8.6318e-10 1.1578e-09 5.86078e-10)
(1.22982e-09 5.04062e-10 -5.39271e-11)
(1.08447e-09 -1.28701e-10 3.19963e-10)
(-1.34556e-09 1.8657e-09 2.02883e-10)
(8.24121e-10 2.6939e-10 5.11044e-10)
(2.05399e-09 7.7461e-10 -1.25216e-09)
(1.80058e-09 2.7883e-10 -5.88137e-10)
(-2.89083e-09 1.27585e-09 -2.77553e-10)
(2.26613e-10 2.82334e-10 -3.98108e-10)
(5.89908e-10 3.48698e-10 -5.40396e-10)
(6.41731e-10 1.67191e-11 -7.09112e-11)
(-5.17958e-09 2.49353e-09 -1.57093e-09)
(-8.52461e-10 2.09303e-10 -1.13793e-09)
(-2.25828e-09 1.57954e-10 -1.10354e-09)
(-3.02189e-09 1.60041e-10 1.78273e-10)
(-4.39172e-09 1.17498e-09 -3.02737e-09)
(-3.11104e-09 1.05115e-10 -2.32308e-09)
(-4.65269e-09 4.04283e-11 -1.60569e-09)
(-6.70623e-09 1.56118e-09 2.99921e-10)
(-3.83266e-09 -3.66641e-10 -3.06699e-09)
(-9.37351e-10 -2.3218e-09 -2.11583e-09)
(-6.84864e-09 -4.89901e-11 -1.24049e-09)
(-6.58429e-09 5.48082e-09 -5.14868e-09)
(-7.75902e-08 1.17616e-08 -4.41584e-10)
(-5.49327e-11 -1.34145e-09 -6.27091e-09)
(8.9515e-09 1.92761e-09 -1.44715e-08)
(3.24111e-09 1.65475e-08 -1.52429e-08)
)
;
    }
    procBoundary5to1
    {
        type            processor;
        value           nonuniform List<vector> 
32
(
(1.5595e-09 1.19299e-09 -1.22309e-09)
(-3.35744e-10 8.07954e-10 -2.15023e-09)
(-9.66236e-10 5.27813e-10 -4.42029e-09)
(4.80339e-10 1.53435e-09 -5.00864e-09)
(-1.54891e-09 8.67395e-11 -6.77084e-09)
(1.27474e-09 -8.76413e-10 -1.5134e-08)
(2.31606e-09 3.80743e-09 2.3027e-09)
(2.26445e-09 2.36342e-09 -2.49812e-09)
(2.03937e-09 9.63691e-10 -4.47198e-09)
(4.62253e-09 3.609e-09 -9.76981e-09)
(7.31464e-09 8.23181e-10 -9.84108e-09)
(8.6537e-09 -5.06183e-09 -1.16476e-08)
(-2.05025e-09 1.08672e-09 -1.10849e-08)
(4.87646e-09 4.506e-09 6.68621e-10)
(4.78785e-09 4.82543e-09 -9.30051e-10)
(4.30805e-09 3.85046e-09 -4.00233e-09)
(7.33799e-09 2.83349e-09 -6.25603e-09)
(1.04521e-08 -1.58586e-09 -7.18312e-09)
(1.31525e-08 -1.79985e-09 -1.18202e-08)
(6.5427e-09 -3.52194e-09 -6.98103e-09)
(-6.00923e-10 3.17474e-10 -1.06928e-08)
(-8.25605e-11 1.67217e-09 1.31418e-09)
(-1.31738e-09 1.31353e-09 1.21313e-09)
(-7.15296e-10 1.73038e-09 9.59154e-10)
(-7.15296e-10 1.73038e-09 9.59154e-10)
(-7.15296e-10 1.73038e-09 9.59154e-10)
(-6.19631e-10 3.13216e-09 1.09364e-09)
(-5.59447e-11 4.03215e-09 1.15539e-09)
(-5.59447e-11 4.03215e-09 1.15539e-09)
(-5.59447e-11 4.03215e-09 1.15539e-09)
(-8.17935e-10 3.43474e-09 1.0852e-09)
(-8.17935e-10 3.43474e-09 1.0852e-09)
)
;
    }
    procBoundary5to4
    {
        type            processor;
        value           nonuniform List<vector> 
12
(
(3.62896e-10 2.89606e-10 1.23496e-09)
(7.83697e-10 1.31985e-09 2.22074e-09)
(1.03571e-09 1.66786e-09 1.9863e-09)
(7.44165e-10 1.75938e-09 1.1749e-09)
(8.7817e-10 2.14633e-10 6.09583e-10)
(1.80777e-09 6.70287e-10 1.00756e-09)
(1.82586e-09 1.41286e-09 1.33119e-09)
(1.98708e-09 1.74547e-09 9.15298e-10)
(4.44414e-10 4.17e-11 1.99737e-10)
(1.21122e-09 1.42612e-10 4.34315e-10)
(1.54531e-09 6.35937e-10 5.61144e-10)
(2.71018e-09 1.17566e-09 3.72846e-10)
)
;
    }
    procBoundary5to7
    {
        type            processor;
        value           nonuniform List<vector> 
44
(
(2.78914e-09 2.95016e-09 -1.96216e-09)
(3.61411e-09 3.84192e-09 -3.00878e-09)
(4.20153e-09 3.62907e-09 -4.75139e-09)
(2.57673e-09 2.23722e-09 -4.74117e-09)
(1.72796e-09 1.52284e-09 -6.09595e-09)
(6.22718e-10 -8.96216e-10 -4.08409e-09)
(7.13266e-11 1.85794e-10 -3.51991e-09)
(-9.0219e-10 -4.9183e-10 -4.58211e-09)
(1.65672e-09 3.23611e-09 -2.38998e-10)
(2.78914e-09 2.95016e-09 -1.96216e-09)
(2.78502e-09 3.22195e-09 -2.01722e-09)
(2.36839e-09 2.54452e-09 -2.85946e-09)
(-8.34982e-10 5.07181e-10 -2.513e-09)
(-4.90738e-10 1.09159e-09 -2.79169e-09)
(-1.06249e-09 8.1632e-10 -2.61644e-09)
(-9.10192e-10 1.93725e-09 -2.22757e-09)
(-1.41512e-09 1.10197e-09 -2.97141e-09)
(3.09988e-09 1.88021e-09 -5.20397e-10)
(2.78502e-09 3.22195e-09 -2.01722e-09)
(3.01379e-09 2.43495e-09 -1.32094e-09)
(2.78502e-09 3.22195e-09 -2.01722e-09)
(2.36839e-09 2.54452e-09 -2.85946e-09)
(-1.32306e-10 9.41316e-10 -9.9074e-10)
(-8.56461e-10 9.36304e-10 -1.07039e-09)
(-1.7288e-09 6.85592e-10 -1.04326e-09)
(-1.59538e-09 7.11388e-10 -6.77204e-10)
(2.66452e-11 5.29926e-10 -3.61688e-10)
(3.35231e-09 1.93368e-09 8.58228e-11)
(3.59091e-09 1.81918e-09 -1.01624e-09)
(3.79498e-09 1.16949e-09 -1.90038e-09)
(-1.32306e-10 9.41316e-10 -9.9074e-10)
(2.65601e-09 1.64493e-09 -1.67268e-09)
(-1.32306e-10 9.41316e-10 -9.9074e-10)
(-8.56461e-10 9.36304e-10 -1.07039e-09)
(-2.01784e-09 4.4955e-10 1.66274e-10)
(-2.75046e-09 1.14161e-09 -1.23396e-10)
(-5.02456e-10 4.09535e-10 3.98391e-10)
(2.93315e-09 1.81283e-09 1.20901e-10)
(3.02527e-09 1.55093e-09 -2.56592e-10)
(2.7185e-09 9.76905e-10 -5.60891e-10)
(1.88607e-09 1.08978e-09 -3.67362e-10)
(1.07522e-09 9.19933e-10 -2.09076e-10)
(-2.01784e-09 4.4955e-10 1.66274e-10)
(6.40631e-10 1.60017e-09 -3.69778e-10)
)
;
    }
}


// ************************************************************************* //
