/*--------------------------------*- C++ -*----------------------------------*\
| =========                 |                                                 |
| \\      /  F ield         | OpenFOAM: The Open Source CFD Toolbox           |
|  \\    /   O peration     | Version:  4.x                                   |
|   \\  /    A nd           | Web:      www.OpenFOAM.org                      |
|    \\/     M anipulation  |                                                 |
\*---------------------------------------------------------------------------*/
FoamFile
{
    version     2.0;
    format      ascii;
    class       volVectorField;
    location    "24";
    object      UsPrev;
}
// * * * * * * * * * * * * * * * * * * * * * * * * * * * * * * * * * * * * * //

dimensions      [0 1 -1 0 0 0 0];

internalField   nonuniform List<vector> 
114
(
(-1.5613e-09 1.83348e-09 3.90724e-10)
(-2.62735e-09 1.24652e-09 -1.58281e-10)
(-4.74237e-09 2.44747e-09 -1.09896e-09)
(-3.95798e-09 1.26032e-09 -2.63577e-09)
(-4.47489e-09 9.6173e-10 -1.04469e-09)
(-7.96517e-08 1.29319e-08 6.07818e-10)
(8.04902e-12 4.43907e-09 8.6279e-10)
(-1.14222e-09 3.71758e-09 -6.91779e-10)
(-2.22789e-09 2.82367e-09 -1.09866e-09)
(-4.03076e-09 2.46202e-09 -3.9353e-09)
(-3.40996e-09 2.02808e-09 -5.38253e-09)
(-4.58576e-09 3.79805e-10 -1.0674e-09)
(-7.64206e-09 7.90266e-09 -3.20032e-09)
(1.7584e-09 4.01207e-09 3.165e-10)
(1.73959e-09 4.25659e-09 -1.52105e-09)
(5.47455e-10 4.71389e-09 -3.31412e-09)
(5.92496e-10 3.28809e-09 -3.82987e-09)
(-2.03471e-10 1.19912e-09 -4.00012e-09)
(-5.05372e-11 -4.8587e-10 -3.0687e-09)
(-8.54203e-10 -2.17748e-09 -3.18098e-09)
(-1.86437e-09 -1.1189e-09 -4.50821e-09)
(9.44381e-10 8.63158e-10 8.04918e-10)
(8.84067e-10 9.93379e-10 9.65711e-10)
(1.00499e-09 1.13443e-09 6.9703e-10)
(7.01348e-10 2.27754e-10 6.28513e-10)
(6.84203e-10 2.43969e-10 -3.19006e-10)
(-2.58564e-10 9.78997e-11 -9.7396e-10)
(-1.53e-09 2.43377e-10 -2.15686e-09)
(-2.04731e-09 2.72294e-09 -2.05162e-09)
(-4.19906e-09 5.26592e-09 -7.17219e-09)
(1.89413e-09 1.59323e-09 7.39982e-10)
(2.32919e-09 1.85963e-09 7.97982e-10)
(1.93471e-09 2.15388e-09 2.80854e-10)
(5.15545e-10 1.13618e-09 -2.52215e-10)
(-2.41312e-10 9.29125e-10 -1.46418e-09)
(-1.71592e-09 1.21962e-09 -2.20769e-09)
(-7.14601e-10 4.23305e-10 -3.482e-09)
(7.98213e-10 9.04048e-10 -2.79107e-09)
(-5.63327e-09 1.57825e-09 -6.70504e-09)
(1.40646e-09 2.4598e-09 1.08094e-09)
(2.13415e-09 2.88074e-09 -2.87375e-10)
(1.99625e-09 2.76131e-09 -7.92246e-10)
(1.17754e-09 2.56999e-09 -2.30946e-09)
(1.60525e-10 1.41301e-09 -2.51231e-09)
(-7.90289e-10 8.57563e-10 -2.71049e-09)
(-8.90693e-10 1.69952e-11 -2.87465e-09)
(-2.12131e-09 -2.96649e-09 -2.21562e-09)
(-3.9659e-09 -9.65207e-10 -2.25328e-09)
(1.72434e-09 2.56e-09 2.47401e-10)
(2.67885e-09 2.78547e-09 -1.32456e-09)
(1.21784e-09 2.75646e-10 3.05799e-10)
(1.11501e-09 3.76527e-10 2.54907e-10)
(1.44656e-09 4.655e-10 3.00207e-11)
(1.821e-09 7.15272e-10 -1.18465e-09)
(1.0659e-09 2.88415e-10 -4.98735e-10)
(-1.84792e-09 1.01274e-10 -1.19087e-09)
(-4.1746e-09 8.82929e-11 -1.87907e-09)
(-8.62478e-09 1.2287e-09 -3.7264e-09)
(5.63827e-09 3.76771e-09 -1.65814e-08)
(2.26008e-09 6.24285e-10 3.68234e-10)
(2.17696e-09 8.98521e-10 5.30678e-10)
(2.72092e-09 8.87697e-10 -3.11086e-11)
(6.64541e-09 2.06357e-09 -6.7626e-10)
(8.41322e-10 7.69223e-10 -1.13029e-09)
(-9.66471e-10 7.43823e-10 -2.08957e-09)
(-3.07147e-09 1.44066e-09 -3.00965e-09)
(-5.70039e-09 2.9124e-09 -7.05444e-09)
(-1.8325e-09 8.73293e-09 -9.72887e-09)
(2.78949e-09 2.16818e-09 6.77153e-10)
(2.69032e-09 2.26102e-09 -4.62947e-11)
(2.62786e-09 1.86953e-09 -6.34933e-10)
(1.91595e-09 1.50049e-09 -1.52391e-09)
(1.02789e-10 8.85782e-10 -1.0502e-09)
(-1.07336e-09 6.69468e-10 -1.49071e-09)
(-2.4777e-09 3.90647e-10 -1.41321e-09)
(-3.38957e-09 -1.55549e-10 -2.69825e-09)
(-3.09511e-09 1.85671e-09 -2.68794e-09)
(3.20676e-09 2.12761e-09 5.31533e-10)
(2.99364e-09 2.31137e-09 -6.62968e-10)
(2.91343e-09 2.03093e-09 -1.60716e-09)
(1.69439e-09 2.01269e-09 -2.05268e-09)
(6.12139e-10 1.16178e-10 1.40751e-10)
(8.35884e-10 6.37749e-11 2.18077e-10)
(1.24899e-09 -1.34976e-10 3.31721e-10)
(1.49697e-09 2.3259e-10 -5.65025e-10)
(8.41349e-10 -2.20536e-11 -6.09532e-11)
(-2.91042e-09 9.07252e-11 1.0731e-10)
(-7.02476e-09 1.56087e-09 5.14546e-11)
(-7.94956e-09 5.45604e-09 -6.39562e-09)
(2.22268e-09 1.65873e-08 -1.57127e-08)
(1.40964e-09 2.48847e-10 7.55146e-11)
(1.406e-09 3.94058e-10 3.25354e-10)
(4.59016e-09 -8.28312e-10 -4.09758e-10)
(1.05976e-08 2.72048e-09 -2.41026e-10)
(1.87684e-09 1.2634e-09 -2.32703e-11)
(-1.25203e-09 4.24825e-10 -3.50512e-10)
(-4.14702e-09 1.42494e-09 -1.84336e-09)
(-4.48381e-09 8.82864e-09 -2.68706e-09)
(1.51217e-09 2.19247e-08 -1.94081e-09)
(1.52773e-09 9.22314e-10 -3.93806e-11)
(1.54921e-09 7.64838e-10 -5.99548e-11)
(1.28789e-09 5.91458e-10 -3.34207e-10)
(3.09362e-09 2.63946e-10 -2.60534e-10)
(7.37746e-10 9.05254e-10 -3.04594e-10)
(-1.21056e-09 1.74356e-10 -5.72836e-10)
(-2.27065e-09 6.23563e-10 -4.34362e-10)
(-2.82829e-09 1.22012e-09 -9.14955e-10)
(-1.75198e-09 2.56393e-09 -5.68434e-10)
(2.73043e-09 1.45436e-09 -5.0839e-11)
(2.19759e-09 1.43804e-09 -2.94874e-10)
(5.23672e-09 1.52073e-08 -5.07101e-10)
(9.58017e-10 7.66231e-10 -6.80995e-10)
(1.36608e-10 8.30112e-10 -2.63177e-10)
(-1.05374e-09 -6.75231e-11 -6.02086e-11)
)
;

boundaryField
{
    inlet
    {
        type            calculated;
        value           nonuniform 0();
    }
    outlet
    {
        type            calculated;
        value           uniform (0 0 0);
    }
    wall
    {
        type            calculated;
        value           uniform (0 0 0);
    }
    procBoundary5to1
    {
        type            processor;
        value           uniform (0 0 0);
    }
    procBoundary5to4
    {
        type            processor;
        value           uniform (0 0 0);
    }
    procBoundary5to7
    {
        type            processor;
        value           uniform (0 0 0);
    }
}


// ************************************************************************* //
