/*--------------------------------*- C++ -*----------------------------------*\
| =========                 |                                                 |
| \\      /  F ield         | OpenFOAM: The Open Source CFD Toolbox           |
|  \\    /   O peration     | Version:  4.x                                   |
|   \\  /    A nd           | Web:      www.OpenFOAM.org                      |
|    \\/     M anipulation  |                                                 |
\*---------------------------------------------------------------------------*/
FoamFile
{
    version     2.0;
    format      ascii;
    class       volVectorField;
    location    "20";
    object      ddtUrel;
}
// * * * * * * * * * * * * * * * * * * * * * * * * * * * * * * * * * * * * * //

dimensions      [0 1 -2 0 0 0 0];

internalField   nonuniform List<vector> 
108
(
(3.89279e-07 -8.419e-08 -1.16053e-07)
(3.50637e-07 -8.14435e-08 -1.35306e-07)
(2.9726e-07 -9.6808e-08 -1.301e-07)
(1.78376e-07 -6.91244e-08 -1.11065e-07)
(8.53742e-08 -2.50004e-08 -9.80865e-08)
(6.1879e-10 -8.83991e-09 -8.14355e-08)
(-1.1844e-07 -3.73512e-09 -7.65969e-08)
(-1.56405e-07 1.2309e-09 -7.34153e-08)
(-1.47561e-07 2.73033e-10 -6.0838e-08)
(4.38325e-07 -1.12498e-07 -1.83039e-07)
(3.9824e-07 -1.23029e-07 -2.00601e-07)
(3.3556e-07 -1.19907e-07 -1.84694e-07)
(2.31397e-07 -7.73901e-08 -1.47547e-07)
(1.38191e-07 -1.9202e-08 -1.15722e-07)
(3.49203e-08 -1.15305e-09 -9.12727e-08)
(-1.03121e-07 4.94769e-09 -8.77868e-08)
(-1.67668e-07 6.5764e-09 -8.27297e-08)
(-1.35954e-07 1.96799e-08 -7.06222e-08)
(4.67403e-07 -1.20503e-07 -2.59028e-07)
(4.37058e-07 -1.46899e-07 -2.75407e-07)
(3.84631e-07 -1.28904e-07 -2.45417e-07)
(2.95829e-07 -7.79396e-08 -1.86057e-07)
(2.23222e-07 -3.60716e-08 -1.50118e-07)
(7.85651e-08 -2.87415e-09 -1.08563e-07)
(-6.90883e-08 8.63894e-09 -9.78593e-08)
(-1.46677e-07 3.63878e-08 -8.86373e-08)
(-8.78796e-08 7.97581e-08 -9.63652e-08)
(4.7792e-07 -1.18437e-07 -3.25683e-07)
(4.76638e-07 -1.39968e-07 -3.45747e-07)
(4.13277e-07 -1.04103e-07 -2.93065e-07)
(3.45172e-07 -7.58294e-08 -2.10533e-07)
(3.22276e-07 -7.14563e-08 -1.90605e-07)
(1.29726e-07 -2.10434e-08 -1.25518e-07)
(-2.67521e-08 2.23381e-09 -9.40013e-08)
(-7.14208e-08 6.97954e-08 -1.06684e-07)
(5.71663e-08 2.22911e-07 -1.96537e-07)
(3.62521e-07 -7.97899e-08 -1.22958e-07)
(3.52893e-07 -7.98102e-08 -1.44575e-07)
(3.04205e-07 -9.38332e-08 -1.27355e-07)
(1.99447e-07 -6.99661e-08 -1.06895e-07)
(1.05387e-07 -3.03951e-08 -9.11868e-08)
(3.07057e-08 -1.00945e-08 -6.54844e-08)
(-1.14872e-07 -2.30797e-09 -5.38699e-08)
(-1.77748e-07 5.02237e-09 -4.90903e-08)
(-1.55623e-07 5.11633e-09 -4.16051e-08)
(4.38368e-07 -1.03509e-07 -2.03041e-07)
(4.21511e-07 -1.18831e-07 -2.22237e-07)
(3.56987e-07 -1.18163e-07 -1.89941e-07)
(2.52883e-07 -8.16336e-08 -1.40297e-07)
(1.45427e-07 -2.60119e-08 -1.05322e-07)
(4.4673e-08 -5.63066e-09 -7.56007e-08)
(-1.04016e-07 1.11701e-09 -5.99538e-08)
(-1.83193e-07 4.58916e-09 -5.33404e-08)
(-1.67751e-07 1.08974e-08 -4.01818e-08)
(5.12237e-07 -1.1999e-07 -3.11197e-07)
(5.08257e-07 -1.44622e-07 -3.19287e-07)
(4.32414e-07 -1.31862e-07 -2.57899e-07)
(3.26876e-07 -8.20469e-08 -1.81753e-07)
(2.04559e-07 -3.44936e-08 -1.25486e-07)
(7.79271e-08 -9.5056e-09 -8.43619e-08)
(-9.20412e-08 1.04836e-09 -5.8537e-08)
(-1.71593e-07 1.50595e-08 -4.68855e-08)
(-1.46263e-07 3.29752e-08 -3.95324e-08)
(5.7911e-07 -1.12326e-07 -4.51193e-07)
(6.08496e-07 -1.32142e-07 -4.36134e-07)
(4.91313e-07 -1.21954e-07 -3.14312e-07)
(3.70597e-07 -7.8974e-08 -2.0835e-07)
(2.51185e-07 -4.67049e-08 -1.43059e-07)
(1.0295e-07 -1.79825e-08 -8.98707e-08)
(-4.52488e-08 1.41586e-09 -5.28948e-08)
(-1.26816e-07 3.03951e-08 -4.71599e-08)
(-1.10436e-07 6.74671e-08 -5.46903e-08)
(3.41624e-07 -7.27604e-08 -1.41535e-07)
(3.51644e-07 -7.47657e-08 -1.49284e-07)
(3.03598e-07 -7.96585e-08 -1.35657e-07)
(1.90978e-07 -5.98144e-08 -1.05923e-07)
(1.07342e-07 -3.93382e-08 -7.11993e-08)
(3.92402e-08 -2.00399e-08 -4.69152e-08)
(-1.25388e-07 -1.13662e-08 -2.4927e-08)
(-2.13296e-07 -8.2445e-09 -1.15589e-08)
(-1.90383e-07 -4.01468e-09 -3.08079e-09)
(4.57503e-07 -9.99141e-08 -2.53145e-07)
(4.45456e-07 -1.13571e-07 -2.50788e-07)
(3.79689e-07 -1.18815e-07 -2.01573e-07)
(2.54514e-07 -8.4823e-08 -1.38067e-07)
(1.39499e-07 -3.75237e-08 -8.91984e-08)
(3.7079e-08 -2.06624e-08 -5.24178e-08)
(-1.37492e-07 -1.31479e-08 -2.22785e-08)
(-2.34336e-07 -9.07647e-09 -2.30405e-09)
(-2.20566e-07 -5.27165e-09 1.20084e-08)
(6.07084e-07 -1.47666e-07 -4.52115e-07)
(5.9802e-07 -1.60693e-07 -4.10446e-07)
(4.82648e-07 -1.4543e-07 -2.88207e-07)
(3.39671e-07 -9.43829e-08 -1.86073e-07)
(1.92417e-07 -4.61133e-08 -1.10102e-07)
(5.80403e-08 -2.19377e-08 -5.62159e-08)
(-1.24581e-07 -1.30427e-08 -1.54924e-08)
(-2.34722e-07 -5.93501e-09 1.4782e-08)
(-2.3542e-07 6.63312e-10 3.18662e-08)
(8.04785e-07 -1.60423e-07 -7.7907e-07)
(7.95786e-07 -1.83712e-07 -6.27433e-07)
(5.74008e-07 -1.49773e-07 -3.84837e-07)
(3.75963e-07 -9.32866e-08 -2.25122e-07)
(2.19836e-07 -4.88496e-08 -1.26161e-07)
(5.97578e-08 -2.63513e-08 -5.61201e-08)
(-1.11491e-07 -1.31536e-08 -6.99224e-09)
(-2.24591e-07 1.44393e-11 2.668e-08)
(-2.40725e-07 7.44834e-09 4.66964e-08)
)
;

boundaryField
{
    inlet
    {
        type            calculated;
        value           nonuniform 0();
    }
    outlet
    {
        type            calculated;
        value           nonuniform List<vector> 
12
(
(9.59638e-08 -6.53415e-08 -6.71384e-08)
(4.44555e-08 7.83715e-09 -6.57071e-08)
(3.32836e-08 1.24288e-07 -7.26493e-08)
(1.49111e-06 1.62208e-06 -1.2303e-06)
(5.57173e-08 2.57546e-08 -7.75689e-08)
(3.72511e-08 1.35688e-09 -5.0551e-08)
(4.3947e-08 7.71032e-09 -2.32431e-08)
(3.3848e-08 -1.67804e-08 1.79901e-08)
(5.07096e-08 1.46314e-08 -3.72314e-08)
(4.83847e-08 4.95199e-10 4.24477e-09)
(3.47705e-08 -1.22824e-09 -1.34194e-08)
(2.55826e-08 -1.41651e-08 1.80362e-08)
)
;
    }
    wall
    {
        type            calculated;
        value           nonuniform List<vector> 
63
(
(6.61124e-07 -1.03397e-07 -4.2899e-09)
(7.96381e-07 -2.5004e-07 -1.17103e-07)
(4.31701e-07 -1.49775e-07 -1.9382e-07)
(-6.2658e-08 -7.0328e-08 -2.39988e-07)
(3.69996e-07 1.66839e-08 -7.48798e-08)
(2.46327e-07 -2.31721e-07 -2.04788e-07)
(-8.82542e-08 -3.54918e-07 -3.30307e-07)
(-5.61631e-07 -3.31105e-07 -5.2624e-07)
(4.63989e-07 -2.89455e-07 -9.13479e-08)
(2.84338e-07 -2.63795e-07 -2.37453e-07)
(6.97364e-08 -3.08846e-07 -3.58952e-07)
(-3.09922e-07 4.00538e-08 -4.8449e-07)
(-9.67025e-08 -1.40291e-07 -6.67896e-08)
(-1.19499e-07 -8.8084e-08 -1.35546e-07)
(2.57776e-08 -2.30882e-08 -1.82757e-07)
(1.34939e-07 9.57372e-09 -1.00889e-07)
(-1.64067e-07 1.0352e-07 -1.04692e-07)
(-4.41804e-08 2.23526e-07 -8.96884e-08)
(2.4433e-07 5.28849e-08 -2.60084e-07)
(7.84477e-07 -4.52578e-07 -7.20825e-07)
(-1.51324e-07 2.76745e-08 -8.47632e-08)
(-7.03574e-08 8.85681e-08 -6.95685e-08)
(-5.1242e-08 1.37379e-07 -1.03216e-07)
(-4.42331e-08 -8.95434e-09 -1.99793e-07)
(-4.86064e-07 -1.87999e-08 -9.6998e-08)
(-5.73138e-07 7.44705e-08 -2.05235e-07)
(-4.21771e-07 9.49599e-09 -2.81836e-07)
(-1.62928e-07 -1.70284e-07 -9.43609e-08)
(-3.31102e-07 5.70156e-08 -2.04019e-07)
(-8.72468e-07 -1.05631e-07 -1.90194e-07)
(-7.43814e-07 2.24807e-08 -1.17857e-07)
(-3.13564e-07 2.13115e-08 -8.50246e-08)
(-6.71229e-08 -2.09149e-08 -6.43235e-08)
(-8.92844e-08 1.276e-09 -6.90315e-08)
(-2.42712e-08 1.29243e-07 -7.52827e-08)
(1.5461e-06 1.70835e-06 -1.31709e-06)
(2.4091e-07 -8.4245e-08 -2.28117e-07)
(5.22259e-07 5.4239e-08 -5.8056e-07)
(9.37466e-07 1.8543e-07 -1.94699e-06)
(9.27627e-07 -3.4374e-07 -5.31245e-07)
(1.25831e-06 -3.23835e-08 -8.37333e-07)
(1.77994e-06 -2.17985e-07 -1.09953e-06)
(2.90856e-07 4.00116e-08 -4.55401e-07)
(8.04328e-07 -1.64851e-07 -2.87493e-07)
(9.3811e-07 -2.47162e-07 -2.93642e-07)
(3.03022e-07 1.08112e-08 -9.43256e-08)
(5.26484e-07 -4.68675e-09 -1.33012e-07)
(3.87957e-07 -6.15187e-08 -1.31675e-07)
(1.88136e-06 -3.78012e-07 -5.73011e-07)
(2.56524e-07 2.28786e-09 -7.16032e-08)
(2.63607e-07 4.26467e-08 -9.36769e-08)
(2.7044e-07 3.17825e-09 -1.85523e-07)
(1.88355e-07 3.44723e-08 -2.45947e-08)
(1.12244e-07 2.41756e-09 4.2339e-09)
(-1.15028e-07 -1.06812e-07 -6.79633e-09)
(-9.93415e-08 5.08557e-09 3.85875e-08)
(-1.32221e-07 -6.89381e-09 -6.44779e-09)
(-2.79826e-07 2.98226e-08 -8.43822e-08)
(-2.31688e-07 2.58631e-08 -5.80995e-08)
(-4.17075e-07 3.92881e-08 -1.25392e-08)
(4.48431e-06 4.62043e-06 -4.77524e-06)
(-3.1073e-08 5.97903e-09 -9.45298e-09)
(-3.66621e-08 -7.99415e-09 1.47017e-08)
)
;
    }
    procBoundary3to1
    {
        type            processor;
        value           nonuniform List<vector> 
27
(
(3.18468e-07 -6.99334e-08 -7.78384e-08)
(2.97558e-07 -5.51672e-08 -9.77487e-08)
(2.57961e-07 -6.15902e-08 -9.85029e-08)
(1.34898e-07 -4.17475e-08 -8.54903e-08)
(4.82352e-08 -3.44181e-08 -8.59025e-08)
(-2.08383e-08 -2.50057e-08 -7.98193e-08)
(-1.21298e-07 -1.3773e-08 -6.71582e-08)
(-1.7972e-07 -1.7756e-08 -5.8763e-08)
(-1.31848e-07 -1.80998e-08 -4.77249e-08)
(3.0165e-07 -7.01878e-08 -7.58964e-08)
(2.8165e-07 -5.61847e-08 -1.00089e-07)
(2.57173e-07 -6.01282e-08 -1.01917e-07)
(1.5176e-07 -4.44485e-08 -8.62964e-08)
(7.15136e-08 -3.28322e-08 -7.45785e-08)
(1.18937e-08 -2.24548e-08 -6.2663e-08)
(-1.09442e-07 -1.18483e-08 -5.13771e-08)
(-1.74646e-07 -1.2387e-08 -3.74724e-08)
(-1.41121e-07 -1.23287e-08 -3.53583e-08)
(2.77623e-07 -6.57378e-08 -8.86277e-08)
(2.74125e-07 -5.16294e-08 -9.87677e-08)
(2.45124e-07 -4.78988e-08 -1.02292e-07)
(1.5928e-07 -3.97525e-08 -8.559e-08)
(8.9391e-08 -4.1414e-08 -5.83404e-08)
(3.30308e-08 -2.29558e-08 -4.27947e-08)
(-1.02458e-07 -1.19124e-08 -2.46317e-08)
(-1.94116e-07 -1.30396e-08 -7.53876e-09)
(-1.69862e-07 -1.22971e-08 -4.30253e-09)
)
;
    }
    procBoundary3to2
    {
        type            processor;
        value           nonuniform List<vector> 
12
(
(4.14901e-07 -7.72673e-08 -1.01388e-07)
(4.35989e-07 -8.55326e-08 -1.57943e-07)
(4.54658e-07 -9.48601e-08 -2.22113e-07)
(4.76827e-07 -1.08439e-07 -2.74818e-07)
(3.71354e-07 -6.41549e-08 -1.03824e-07)
(4.15082e-07 -7.2585e-08 -1.71149e-07)
(4.63143e-07 -8.09358e-08 -2.61114e-07)
(4.67466e-07 -8.72504e-08 -3.6643e-07)
(3.51431e-07 -5.52939e-08 -1.18297e-07)
(4.19492e-07 -6.61693e-08 -2.03341e-07)
(5.14131e-07 -7.97103e-08 -3.34142e-07)
(5.73333e-07 -7.34914e-08 -5.01997e-07)
)
;
    }
    procBoundary3to7
    {
        type            processor;
        value           nonuniform List<vector> 
36
(
(3.45668e-07 -7.25741e-08 -1.54516e-07)
(3.36287e-07 -7.64311e-08 -1.50958e-07)
(2.8416e-07 -7.45701e-08 -1.33755e-07)
(1.90731e-07 -5.81248e-08 -9.80185e-08)
(1.00624e-07 -4.21791e-08 -5.02205e-08)
(1.96878e-08 -2.72104e-08 -2.59518e-08)
(-1.45137e-07 -2.12023e-08 1.04022e-09)
(-2.55352e-07 -1.86793e-08 2.73828e-08)
(-2.43224e-07 -1.48076e-08 4.28714e-08)
(4.79146e-07 -1.15575e-07 -3.05281e-07)
(4.61402e-07 -1.20491e-07 -2.70723e-07)
(3.76038e-07 -1.11962e-07 -2.0558e-07)
(2.55096e-07 -8.04404e-08 -1.31448e-07)
(1.25865e-07 -4.65438e-08 -6.94917e-08)
(7.08681e-09 -3.17014e-08 -2.43566e-08)
(-1.79013e-07 -2.68372e-08 1.87183e-08)
(-3.03564e-07 -2.20952e-08 5.49389e-08)
(-3.1859e-07 -1.91818e-08 8.15057e-08)
(7.35362e-07 -2.21403e-07 -7.13672e-07)
(7.04422e-07 -1.97956e-07 -5.3043e-07)
(5.12301e-07 -1.50145e-07 -3.30588e-07)
(3.30001e-07 -1.01175e-07 -1.86028e-07)
(1.61129e-07 -5.42407e-08 -9.135e-08)
(4.99476e-09 -3.21483e-08 -2.32221e-08)
(-2.04793e-07 -2.9393e-08 4.0131e-08)
(-3.53426e-07 -2.53939e-08 9.61105e-08)
(-3.99079e-07 -2.53659e-08 1.36624e-07)
(1.51116e-06 -4.03591e-07 -1.51654e-06)
(1.1876e-06 -3.06561e-07 -9.75039e-07)
(6.64563e-07 -1.73641e-07 -4.87372e-07)
(3.82947e-07 -1.06639e-07 -2.39273e-07)
(1.82875e-07 -5.88165e-08 -1.08282e-07)
(-3.65476e-11 -3.39688e-08 -1.8558e-08)
(-2.2e-07 -3.00215e-08 5.88013e-08)
(-3.91556e-07 -2.92663e-08 1.32192e-07)
(-4.76601e-07 -3.23506e-08 1.90253e-07)
)
;
    }
}


// ************************************************************************* //
