/*--------------------------------*- C++ -*----------------------------------*\
| =========                 |                                                 |
| \\      /  F ield         | OpenFOAM: The Open Source CFD Toolbox           |
|  \\    /   O peration     | Version:  4.x                                   |
|   \\  /    A nd           | Web:      www.OpenFOAM.org                      |
|    \\/     M anipulation  |                                                 |
\*---------------------------------------------------------------------------*/
FoamFile
{
    version     2.0;
    format      ascii;
    class       volScalarField;
    location    "20";
    object      p_rgh;
}
// * * * * * * * * * * * * * * * * * * * * * * * * * * * * * * * * * * * * * //

dimensions      [1 -1 -2 0 0 0 0];

internalField   nonuniform List<scalar> 
108
(
21.0846
71.8703
2.5074
65.3995
-16.2821
60.8953
-35.3228
58.4142
-91.2231
21.202
71.7613
2.62539
65.8472
-15.6455
61.4741
-33.619
58.8589
-125.25
22.0426
72.5974
3.35277
66.1098
-15.2612
61.1842
-32.955
57.8612
-48.238
21.2682
71.6913
2.45795
65.3608
-17.3118
60.7019
-38.3932
59.641
-240.881
21.5262
73.0427
3.70415
66.542
-14.7167
60.2534
-33.469
54.6666
-52.09
21.4013
72.9623
3.02032
66.8984
-16.0907
61.661
-36.641
57.7857
-61.0927
21.4513
72.6775
3.26462
66.4804
-15.2161
60.733
-33.854
55.6244
-50.2585
21.173
72.0165
2.14902
65.7664
-18.2521
60.9392
-41.703
60.3999
-70.8671
22.7912
72.6536
4.93588
65.8217
-13.0235
59.4449
-30.9427
52.9636
-48.1862
22.9261
72.6353
5.10796
66.1182
-12.6416
59.546
-30.8355
52.9335
-48.8251
22.4616
72.8376
4.39374
65.8981
-13.6704
59.5828
-32.3024
53.6081
-52.0029
22.1679
72.3286
3.92935
65.77
-15.0073
59.9969
-35.2877
56.1138
-56.5
)
;

boundaryField
{
    inlet
    {
        type            fixedFluxPressure;
        gradient        nonuniform 0();
        value           nonuniform 0();
    }
    outlet
    {
        type            fixedValue;
        value           uniform 0;
    }
    wall
    {
        type            fixedFluxPressure;
        gradient        nonuniform List<scalar> 
63
(
7.30503e-05
8.50468e-05
3.17182e-05
1.74902e-05
4.76614e-05
6.40084e-05
3.53948e-05
1.44866e-05
6.85877e-05
0.000105346
6.40671e-05
-7.08346e-06
-3.5054e-06
-2.01139e-05
1.05335e-05
1.09462e-05
-0.000222759
-0.000210458
-2.71031e-05
0.000114916
-0.000239473
-0.000188845
-8.33984e-05
3.16996e-05
-0.000432631
-0.00021274
-0.000482294
-4.90247e-05
7.64661e-05
-1.53301e-05
-4.34584e-05
7.14863e-05
0.00045444
0.00164966
0.000808759
0.00155735
-1.45367e-05
-2.89388e-05
3.11667e-05
3.48506e-06
3.9679e-07
1.79448e-05
-0.000165726
6.94311e-06
2.17334e-05
-1.37026e-05
-1.78049e-05
-2.07708e-05
-0.000120524
-8.92458e-05
-0.000142243
-7.29859e-05
-5.09948e-05
-2.66451e-05
0.000142137
9.08412e-06
-4.96188e-05
6.99763e-05
1.82625e-05
-2.37943e-05
0.0330189
5.31101e-05
-0.000458915
)
;
        value           nonuniform List<scalar> 
63
(
21.0846
21.202
22.0426
21.2682
71.8703
71.7613
72.5974
71.6913
2.5074
2.62539
3.35278
2.45795
65.3995
65.8472
66.1098
65.3608
-16.2821
-15.6455
-15.2612
-17.3118
60.8953
61.4741
61.1842
60.7019
-35.3228
-33.619
-32.955
-38.3932
58.4142
58.8589
57.8612
59.641
-91.2231
-125.25
-48.238
-240.881
21.2682
21.173
22.1679
71.6913
72.0165
72.3286
2.45795
2.14902
3.92935
65.3608
65.7664
65.77
-17.3118
-18.2521
-15.0073
60.7019
60.9392
59.9969
-38.3932
-41.703
-35.2877
59.641
60.3999
56.1138
-240.88
-70.8671
-56.5
)
;
    }
    procBoundary3to1
    {
        type            processor;
        value           nonuniform List<scalar> 
27
(
21.546
72.6719
3.09163
66.315
-15.0764
61.8928
-31.9693
57.5114
-47.0138
21.6779
73.3549
3.76203
67.323
-14.76
61.1226
-34.0244
55.175
-51.5692
23.0133
72.4774
5.55765
66.1364
-12.0927
59.8734
-29.871
52.5802
-46.0421
)
;
    }
    procBoundary3to2
    {
        type            processor;
        value           nonuniform List<scalar> 
12
(
79.0812
78.9598
79.814
78.8603
79.8699
79.6696
79.5528
79.1149
80.1527
80.0567
80.1162
79.6051
)
;
    }
    procBoundary3to7
    {
        type            processor;
        value           nonuniform List<scalar> 
36
(
23.592
72.5262
5.79799
65.2286
-11.6657
58.6122
-29.1355
52.1526
-45.2087
22.2035
72.5353
3.54775
65.7292
-14.9919
59.5399
-33.5372
54.5531
-50.5354
22.2197
72.337
3.66752
65.2676
-15.0794
58.5902
-34.0791
53.0032
-50.7652
21.9359
72.1983
2.9255
65.4717
-17.0351
59.7912
-39.464
57.1586
-66.9089
)
;
    }
}


// ************************************************************************* //
