/*--------------------------------*- C++ -*----------------------------------*\
| =========                 |                                                 |
| \\      /  F ield         | OpenFOAM: The Open Source CFD Toolbox           |
|  \\    /   O peration     | Version:  4.x                                   |
|   \\  /    A nd           | Web:      www.OpenFOAM.org                      |
|    \\/     M anipulation  |                                                 |
\*---------------------------------------------------------------------------*/
FoamFile
{
    version     2.0;
    format      ascii;
    class       volScalarField;
    location    "20";
    object      QPartFluid;
}
// * * * * * * * * * * * * * * * * * * * * * * * * * * * * * * * * * * * * * //

dimensions      [1 -1 -3 0 0 0 0];

internalField   nonuniform List<scalar> 
108
(
8.61467e+09
3.86903e+09
6.81022e+09
3.26104e+09
5.03789e+09
3.8015e+09
5.5854e+09
5.01864e+09
3.32589e+09
6.47347e+09
8.99428e+09
5.12657e+09
5.63637e+09
6.35767e+09
5.11779e+09
6.15601e+09
5.6942e+09
3.94852e+09
6.69063e+09
6.80369e+09
7.14138e+09
4.91296e+09
5.85314e+09
5.13588e+09
6.46985e+09
6.3962e+09
3.55987e+09
4.35225e+09
3.95395e+09
5.03426e+09
6.64064e+09
5.48903e+09
5.45251e+09
3.62969e+09
5.12508e+09
5.03665e+09
8.55593e+09
7.94012e+09
1.0167e+10
1.04574e+10
8.36463e+09
7.84689e+09
6.80348e+09
8.4991e+09
8.07414e+09
7.83648e+09
8.11824e+09
8.49226e+09
9.09217e+09
7.80738e+09
8.20177e+09
9.76191e+09
9.3764e+09
6.29731e+09
1.27931e+10
9.82596e+09
8.97201e+09
1.11889e+10
8.29592e+09
9.81286e+09
7.83109e+09
9.35747e+09
7.47354e+09
8.4552e+09
7.14147e+09
7.03571e+09
8.33764e+09
9.18365e+09
7.65635e+09
7.33135e+09
8.71773e+09
6.03315e+09
8.06034e+09
1.0708e+10
8.93725e+09
1.00427e+10
6.40017e+09
7.65013e+09
8.89522e+09
8.34762e+09
6.76159e+09
9.60978e+09
6.14016e+09
8.11565e+09
4.99191e+09
4.34798e+09
9.4732e+09
7.80982e+09
1.11179e+10
5.55482e+09
6.03353e+09
1.02257e+10
9.12373e+09
7.18272e+09
7.25458e+09
9.87267e+09
8.03135e+09
9.33362e+09
4.67762e+09
8.79237e+09
4.84599e+09
5.80311e+09
6.96538e+09
6.45298e+09
8.56983e+09
6.44719e+09
9.5994e+09
7.5104e+09
)
;

boundaryField
{
    inlet
    {
        type            calculated;
        value           nonuniform 0();
    }
    outlet
    {
        type            calculated;
        value           uniform 0;
    }
    wall
    {
        type            calculated;
        value           uniform 0;
    }
    procBoundary3to1
    {
        type            processor;
        value           nonuniform List<scalar> 
27
(
3.97964e+09
7.02105e+09
6.32243e+09
8.83114e+09
6.14864e+09
5.50584e+09
5.15126e+09
5.32643e+09
3.63056e+09
9.13288e+09
8.48514e+09
7.18097e+09
6.78122e+09
5.66844e+09
9.08377e+09
8.98343e+09
1.27455e+10
4.02507e+09
8.05904e+09
7.68672e+09
5.34213e+09
1.08496e+10
8.55752e+09
1.03276e+10
7.15124e+09
9.24291e+09
3.17263e+09
)
;
    }
    procBoundary3to2
    {
        type            processor;
        value           nonuniform List<scalar> 
12
(
3.04058e+09
4.5254e+09
6.52264e+09
3.95711e+09
1.11901e+10
6.46099e+09
7.70694e+09
4.79879e+09
9.15957e+09
5.75454e+09
1.02119e+10
7.69973e+09
)
;
    }
    procBoundary3to7
    {
        type            processor;
        value           nonuniform List<scalar> 
36
(
1.00756e+10
9.04449e+09
6.37018e+09
7.84105e+09
1.09683e+10
1.22664e+10
7.96367e+09
6.54171e+09
6.02427e+09
7.80267e+09
1.14698e+10
7.56257e+09
8.17575e+09
8.49381e+09
7.04047e+09
7.79827e+09
7.82289e+09
6.73593e+09
5.27154e+09
9.33591e+09
6.89098e+09
8.88715e+09
8.28265e+09
1.03603e+10
8.70093e+09
8.98342e+09
7.48141e+09
7.06579e+09
7.49351e+09
9.00168e+09
5.9907e+09
8.06204e+09
8.20853e+09
8.30602e+09
7.47857e+09
3.97271e+09
)
;
    }
}


// ************************************************************************* //
