/*--------------------------------*- C++ -*----------------------------------*\
| =========                 |                                                 |
| \\      /  F ield         | OpenFOAM: The Open Source CFD Toolbox           |
|  \\    /   O peration     | Version:  4.x                                   |
|   \\  /    A nd           | Web:      www.OpenFOAM.org                      |
|    \\/     M anipulation  |                                                 |
\*---------------------------------------------------------------------------*/
FoamFile
{
    version     2.0;
    format      ascii;
    class       volVectorField;
    location    "20";
    object      Urel;
}
// * * * * * * * * * * * * * * * * * * * * * * * * * * * * * * * * * * * * * //

dimensions      [0 1 -1 0 0 0 0];

internalField   nonuniform List<vector> 
108
(
(-0.0234113 5.29443e-05 0.000335182)
(-0.0246257 -6.44578e-06 0.000153059)
(-0.0234145 -5.06058e-05 -7.76781e-05)
(-0.024491 -0.000116029 -0.000320391)
(-0.0228067 -0.000151048 -0.000433766)
(-0.0237283 -0.000238149 -0.000571274)
(-0.0213766 -0.000317414 -0.000175049)
(-0.0222188 -0.000394294 0.000245643)
(-0.018638 -0.000788823 0.00210618)
(-0.0235124 -2.85158e-06 0.000332115)
(-0.0247711 -2.29983e-05 0.00014919)
(-0.0235742 -5.64734e-05 -0.000112805)
(-0.0246874 -0.000104015 -0.000356882)
(-0.0230162 -0.000178268 -0.0005634)
(-0.0239017 -0.000287909 -0.000669716)
(-0.0215091 -0.000392258 -0.000483616)
(-0.0220679 -0.00063531 0.000122493)
(-0.0186064 -0.000666415 0.00154845)
(-0.0242856 -9.9946e-05 0.00038438)
(-0.0255322 -0.000122693 0.000205546)
(-0.0244462 -0.000157601 -4.68792e-05)
(-0.0255025 -0.000255004 -0.00030847)
(-0.0238822 -0.00045137 -0.000527475)
(-0.0246387 -0.000622916 -0.000700437)
(-0.0221645 -0.00105155 -0.000476667)
(-0.0223593 -0.00120976 7.11633e-05)
(-0.0189343 -0.00222392 0.00132898)
(-0.0253931 -0.000147071 0.000439622)
(-0.0266617 -0.000169804 0.000278889)
(-0.0258327 -0.000229893 3.09163e-05)
(-0.0269713 -0.000346595 -0.000197909)
(-0.0256926 -0.000646934 -0.00046952)
(-0.0266855 -0.000892498 -0.000599443)
(-0.024523 -0.00162471 -0.0005224)
(-0.0252439 -0.00196896 0.000511903)
(-0.0209242 -0.00398185 0.00308361)
(-0.0206604 3.56256e-05 0.000314794)
(-0.0222421 -1.53809e-05 9.56755e-05)
(-0.0204515 -3.46234e-05 -6.56053e-05)
(-0.0221115 -8.97526e-05 -0.000317854)
(-0.020069 -0.000118704 -0.000330444)
(-0.0216686 -0.000187362 -0.000494222)
(-0.0193616 -0.000295481 -4.5416e-05)
(-0.0205642 -0.000375769 0.000232598)
(-0.0177973 -0.00103597 0.00236642)
(-0.0209834 -3.29776e-05 0.000351107)
(-0.0225927 -5.58661e-05 0.000135349)
(-0.0208654 -8.90544e-05 -3.46426e-05)
(-0.0225646 -0.000125454 -0.000308081)
(-0.0205518 -0.000220771 -0.000343786)
(-0.0222783 -0.000306075 -0.000575551)
(-0.0198422 -0.000510377 -0.000156604)
(-0.0214297 -0.000705214 0.000113616)
(-0.0180656 -0.00123952 0.00218851)
(-0.0219294 -0.000132424 0.000419997)
(-0.0234417 -0.00016708 0.000230129)
(-0.0218711 -0.00018609 3.20884e-05)
(-0.0234381 -0.000264169 -0.000249886)
(-0.0215546 -0.000415444 -0.000323935)
(-0.0230988 -0.000561397 -0.000573729)
(-0.0207581 -0.000962738 -0.000211482)
(-0.0218528 -0.00113427 6.82691e-05)
(-0.0186517 -0.00270469 0.00144515)
(-0.0235364 -0.000212125 0.000544961)
(-0.0248915 -0.000238355 0.000379694)
(-0.0237864 -0.000289236 0.000199481)
(-0.0251892 -0.00036438 -4.48541e-05)
(-0.0237569 -0.000642636 -0.000156721)
(-0.0253201 -0.000795988 -0.000384632)
(-0.0231959 -0.00155974 -6.59784e-05)
(-0.0249509 -0.00178785 0.000466192)
(-0.020141 -0.00421588 0.00325727)
(-0.0185454 3.69776e-05 0.000196173)
(-0.0203682 2.08085e-05 -8.15089e-07)
(-0.0183962 -5.54327e-06 -9.79218e-05)
(-0.0202491 -4.25615e-05 -0.000298743)
(-0.0181735 -6.35702e-05 -0.000274007)
(-0.0199258 -0.000142649 -0.000349165)
(-0.0176517 -0.000136524 -5.16961e-05)
(-0.0190028 -0.000207847 0.000208242)
(-0.0165438 -0.000371475 0.00130676)
(-0.0189262 -5.81395e-05 0.000235014)
(-0.0207128 -5.0794e-05 3.70363e-05)
(-0.0187477 -9.50553e-05 -5.94217e-05)
(-0.0206376 -0.00013196 -0.000274429)
(-0.0185868 -0.000207554 -0.000251786)
(-0.0204734 -0.000305632 -0.000376925)
(-0.0183099 -0.000469944 4.50378e-06)
(-0.0198208 -0.000626455 0.000253641)
(-0.0173036 -0.00123023 0.0017777)
(-0.0198885 -0.000160698 0.000318614)
(-0.0216032 -0.000173249 0.000129846)
(-0.0197454 -0.000191147 2.1896e-05)
(-0.0216051 -0.000252708 -0.000213745)
(-0.0196447 -0.000355269 -0.000195346)
(-0.0215217 -0.000460782 -0.0003622)
(-0.0193604 -0.000800715 -6.1094e-06)
(-0.020873 -0.000929031 0.000192704)
(-0.0178711 -0.00223796 0.00133157)
(-0.0216527 -0.000240108 0.000460748)
(-0.0230411 -0.000259302 0.000301945)
(-0.0217266 -0.000278135 0.000174437)
(-0.0232265 -0.000327364 -3.75725e-05)
(-0.021714 -0.000520981 -5.94942e-05)
(-0.0233642 -0.000638917 -0.000246123)
(-0.0213498 -0.00115592 9.90212e-05)
(-0.022989 -0.00134182 0.000201084)
(-0.0188319 -0.00275307 0.00161949)
)
;

boundaryField
{
    inlet
    {
        type            calculated;
        value           nonuniform 0();
    }
    outlet
    {
        type            calculated;
        value           nonuniform List<vector> 
12
(
(-0.011016 -0.00645914 0.0126497)
(-0.00795469 0.00613456 0.00316736)
(-0.00360426 -0.00342046 -0.000995375)
(-0.0154269 -0.0151705 0.0162554)
(-0.0102934 -0.011251 0.0175858)
(-0.00685738 -0.000888522 0.0138594)
(-0.00704289 -0.0105525 -0.00121596)
(-0.0107178 -0.0219082 0.0234015)
(-0.00384139 -0.00130991 0.00298998)
(-0.00985314 -0.0032387 0.00995816)
(-0.00575291 -0.00567376 0.00169235)
(-0.00552118 -0.0037306 0.00228065)
)
;
    }
    wall
    {
        type            calculated;
        value           nonuniform List<vector> 
63
(
(-3.63938e-07 1.13121e-07 3.77482e-08)
(-4.42918e-07 1.73089e-07 1.15268e-07)
(-5.40962e-07 1.44428e-07 2.18305e-07)
(-3.17648e-07 8.82073e-08 2.46672e-07)
(-4.0778e-07 1.41685e-07 8.26262e-08)
(-4.9269e-07 2.79925e-07 1.8924e-07)
(-6.62603e-07 3.39256e-07 3.08063e-07)
(-7.24961e-07 3.35488e-07 5.288e-07)
(-4.72287e-07 1.99458e-07 8.39412e-08)
(-5.49961e-07 2.47601e-07 2.04516e-07)
(-6.62911e-07 3.00355e-07 3.04041e-07)
(-7.1566e-07 -8.4657e-08 4.43027e-07)
(-4.74419e-07 1.19751e-07 9.88427e-08)
(-4.96566e-07 1.22365e-07 1.67934e-07)
(-5.5799e-07 9.071e-08 1.6916e-07)
(-4.5214e-07 1.68589e-08 1.16603e-07)
(-4.05112e-07 1.19911e-08 1.1908e-07)
(-3.68713e-07 -5.9117e-08 9.90724e-08)
(-8.32987e-07 4.74359e-08 2.52324e-07)
(-1.92065e-06 4.06377e-07 6.64659e-07)
(-2.79615e-07 -4.293e-08 1.0625e-07)
(-2.82331e-07 -5.50119e-08 9.62947e-08)
(-2.60394e-07 -1.16045e-07 1.38559e-07)
(-6.31429e-07 1.51125e-08 2.16623e-07)
(-1.99197e-07 -3.0202e-08 1.55018e-07)
(-1.45135e-07 -1.34477e-08 1.9731e-07)
(-1.89927e-07 -2.17273e-08 2.51484e-07)
(-4.82942e-08 1.81676e-07 8.75169e-08)
(-1.55435e-07 4.78162e-08 1.0971e-07)
(-8.29785e-08 2.48761e-08 1.61829e-07)
(-8.69924e-08 -6.17106e-08 1.15924e-07)
(-1.4673e-08 9.84144e-10 4.06919e-08)
(-6.33827e-08 7.20522e-09 6.4134e-08)
(-5.45347e-08 -3.41328e-08 1.05051e-08)
(-4.74267e-08 -1.41959e-08 4.60196e-08)
(-3.24764e-08 4.07373e-06 -1.76545e-07)
(-3.17648e-07 8.82073e-08 2.46672e-07)
(-4.76856e-07 -1.82844e-08 6.28569e-07)
(-3.3524e-07 -1.72916e-08 1.78247e-06)
(-7.24961e-07 3.35488e-07 5.288e-07)
(-1.02889e-06 3.78211e-08 8.14088e-07)
(-1.25327e-06 2.32029e-07 1.10075e-06)
(-7.1566e-07 -8.4657e-08 4.43027e-07)
(-4.62708e-07 1.55463e-07 2.83538e-07)
(-6.51094e-07 2.29669e-07 3.05374e-07)
(-4.5214e-07 1.68589e-08 1.16603e-07)
(-4.12581e-07 4.03088e-08 1.33312e-07)
(-3.90662e-07 6.14087e-08 1.0557e-07)
(-1.92065e-06 4.06377e-07 6.64659e-07)
(-3.63778e-07 -1.10574e-08 6.62854e-08)
(-3.49444e-07 -5.60837e-08 6.74747e-08)
(-6.31429e-07 1.51125e-08 2.16623e-07)
(-3.15952e-07 -3.07353e-08 1.17223e-08)
(-2.405e-07 1.82773e-09 -4.78348e-09)
(-4.82942e-08 1.81676e-07 8.75169e-08)
(-1.94398e-07 -9.88558e-09 -4.72486e-08)
(-1.72368e-07 -7.47854e-09 2.97876e-09)
(-1.4673e-08 9.84144e-10 4.06919e-08)
(-1.06232e-07 5.78994e-09 -1.62004e-08)
(-1.07377e-07 -2.35365e-08 -2.60337e-08)
(-3.24764e-08 4.07373e-06 -1.76545e-07)
(-4.38564e-08 7.16121e-09 -1.0818e-07)
(-2.82007e-08 -8.74045e-09 -4.80024e-08)
)
;
    }
    procBoundary3to1
    {
        type            processor;
        value           nonuniform List<vector> 
27
(
(-0.0236828 0.000167121 0.00032207)
(-0.0249033 0.000121391 0.000140403)
(-0.0236202 0.000112579 -0.000102763)
(-0.0246836 8.49331e-05 -0.00033295)
(-0.022816 0.000169914 -0.00046144)
(-0.0236409 0.000125536 -0.000569041)
(-0.0210418 0.000319373 -0.000295287)
(-0.0214304 0.000197303 8.89152e-05)
(-0.0181961 0.000769831 0.000929579)
(-0.0210296 0.000159213 0.000311169)
(-0.0226363 0.000134794 7.33756e-05)
(-0.0207848 0.000101972 -7.6887e-05)
(-0.0224865 6.65154e-05 -0.000343511)
(-0.0203007 0.000101036 -0.000359238)
(-0.0219094 5.15855e-05 -0.000528871)
(-0.0193457 0.000210815 -0.000182429)
(-0.0204017 0.000146362 6.51672e-06)
(-0.0174615 0.000891838 0.00115349)
(-0.0189735 0.000146826 0.00020191)
(-0.0207661 0.000110435 -7.03815e-06)
(-0.018848 0.000107767 -9.97814e-05)
(-0.020668 9.48146e-05 -0.00030774)
(-0.0186098 0.000132709 -0.000287862)
(-0.0202883 0.000156953 -0.000377557)
(-0.0179921 0.000291576 -0.000114219)
(-0.0191552 0.000339807 9.63976e-05)
(-0.0167814 0.00096734 0.000943503)
)
;
    }
    procBoundary3to2
    {
        type            processor;
        value           nonuniform List<vector> 
12
(
(-0.0243257 7.2263e-05 0.000551818)
(-0.024408 -5.92523e-06 0.000551937)
(-0.025069 -0.000114962 0.000574775)
(-0.0259678 -0.000164325 0.000604331)
(-0.0222238 5.25462e-05 0.000529744)
(-0.0224759 -3.45889e-05 0.000563841)
(-0.0232496 -0.000161758 0.000620656)
(-0.0244379 -0.000235 0.000703857)
(-0.0204674 5.59676e-05 0.000362907)
(-0.0207744 -5.39374e-05 0.000389402)
(-0.0215815 -0.000190527 0.000462466)
(-0.0228314 -0.000271158 0.000583007)
)
;
    }
    procBoundary3to7
    {
        type            processor;
        value           nonuniform List<vector> 
36
(
(-0.0177309 3.318e-05 0.000131995)
(-0.0194831 1.41885e-05 -2.51589e-05)
(-0.0175199 1.06178e-05 -8.97437e-05)
(-0.0193366 -1.49698e-05 -0.000241146)
(-0.0173111 -1.96695e-05 -0.000210711)
(-0.0190252 -5.25009e-05 -0.00028796)
(-0.0168529 -3.14128e-05 -4.48214e-05)
(-0.0181671 -2.37812e-05 9.37022e-05)
(-0.0158376 -5.20774e-05 0.000755471)
(-0.0181591 -0.000100838 0.000177345)
(-0.0198938 -0.000108905 1.61168e-05)
(-0.0180115 -0.000132712 -1.99502e-05)
(-0.0198157 -0.000151868 -0.000182601)
(-0.0178619 -0.000233361 -0.000119258)
(-0.0196238 -0.00028667 -0.000216821)
(-0.0175261 -0.000461409 0.000116958)
(-0.0188411 -0.000512941 0.00020958)
(-0.0165035 -0.00105519 0.00122648)
(-0.0191781 -0.00018346 0.000280038)
(-0.0208057 -0.000205071 0.000126098)
(-0.0191095 -0.00022032 8.47008e-05)
(-0.0208214 -0.000274468 -9.61516e-05)
(-0.0190544 -0.000387995 -1.31954e-05)
(-0.0207404 -0.000468833 -0.000141409)
(-0.0187834 -0.000866987 0.000249658)
(-0.0199829 -0.000962963 0.000285152)
(-0.0174725 -0.00252623 0.00157055)
(-0.0207304 -0.000258671 0.000428505)
(-0.0221373 -0.000269448 0.000296288)
(-0.0208119 -0.000306812 0.000249506)
(-0.0223441 -0.00033224 6.83845e-05)
(-0.0208633 -0.00052696 0.000138561)
(-0.0225486 -0.000576398 -6.26205e-05)
(-0.0205715 -0.00113687 0.000359985)
(-0.0222214 -0.00122943 0.000188302)
(-0.0184369 -0.00297967 0.00155561)
)
;
    }
}


// ************************************************************************* //
