/*--------------------------------*- C++ -*----------------------------------*\
| =========                 |                                                 |
| \\      /  F ield         | OpenFOAM: The Open Source CFD Toolbox           |
|  \\    /   O peration     | Version:  4.x                                   |
|   \\  /    A nd           | Web:      www.OpenFOAM.org                      |
|    \\/     M anipulation  |                                                 |
\*---------------------------------------------------------------------------*/
FoamFile
{
    version     2.0;
    format      ascii;
    class       volVectorField;
    location    "50.5";
    object      ddtUrel;
}
// * * * * * * * * * * * * * * * * * * * * * * * * * * * * * * * * * * * * * //

dimensions      [0 1 -2 0 0 0 0];

internalField   nonuniform List<vector> 
108
(
(-6.88915e-09 -3.54481e-10 -6.34602e-12)
(-8.16822e-09 -5.41887e-10 -2.06366e-12)
(-6.42555e-09 -8.33343e-10 -6.04075e-11)
(-3.9271e-09 -1.23878e-09 -1.51099e-10)
(-1.67518e-09 -1.77819e-09 -2.49019e-10)
(1.91751e-10 -2.39722e-09 -3.47422e-10)
(1.54664e-09 -3.06628e-09 -4.7529e-10)
(2.71141e-09 -3.66116e-09 -6.26526e-10)
(3.02571e-09 -4.11255e-09 -9.11619e-10)
(-3.21821e-09 -4.22333e-10 -1.10771e-10)
(-3.45549e-09 -6.60344e-10 -1.43139e-10)
(-2.70907e-09 -1.03215e-09 -2.14407e-10)
(-1.46118e-09 -1.56687e-09 -3.19622e-10)
(-9.99774e-11 -2.28025e-09 -4.72157e-10)
(1.36293e-09 -3.12676e-09 -6.98644e-10)
(2.75655e-09 -3.9889e-09 -1.05465e-09)
(4.25471e-09 -4.6503e-09 -1.55849e-09)
(5.10586e-09 -4.92246e-09 -2.17802e-09)
(-1.63877e-09 -4.87458e-10 -1.53044e-10)
(-1.59249e-09 -7.65729e-10 -2.07185e-10)
(-1.09792e-09 -1.20716e-09 -2.98336e-10)
(-2.1465e-10 -1.85967e-09 -4.42796e-10)
(8.94183e-10 -2.72578e-09 -6.67607e-10)
(2.40121e-09 -3.7526e-09 -1.04667e-09)
(4.39077e-09 -4.70275e-09 -1.71923e-09)
(7.57159e-09 -5.13199e-09 -2.89641e-09)
(1.12398e-08 -4.47196e-09 -4.74547e-09)
(-1.08038e-09 -5.06402e-10 -1.47224e-10)
(-9.96661e-10 -8.10538e-10 -2.17804e-10)
(-6.12205e-10 -1.27419e-09 -3.29495e-10)
(2.48804e-10 -2.02001e-09 -4.9753e-10)
(1.36804e-09 -2.98189e-09 -7.82471e-10)
(3.11261e-09 -4.08827e-09 -1.29554e-09)
(5.98913e-09 -4.97941e-09 -2.35747e-09)
(1.25793e-08 -4.66077e-09 -4.8602e-09)
(2.87281e-08 -2.27562e-10 -1.24291e-08)
(-5.06304e-09 -4.07271e-10 -5.32794e-11)
(-5.72972e-09 -6.40414e-10 -6.91465e-11)
(-4.66116e-09 -1.00932e-09 -1.2705e-10)
(-2.90554e-09 -1.54852e-09 -2.14926e-10)
(-1.14797e-09 -2.2912e-09 -3.33136e-10)
(4.18576e-10 -3.20451e-09 -4.66073e-10)
(1.71709e-09 -4.23104e-09 -6.26611e-10)
(2.79174e-09 -5.1723e-09 -7.61102e-10)
(3.44078e-09 -5.78587e-09 -9.57795e-10)
(-2.49675e-09 -4.89919e-10 -1.30592e-10)
(-2.60695e-09 -7.88455e-10 -1.76932e-10)
(-2.0341e-09 -1.26647e-09 -2.58181e-10)
(-1.01674e-09 -1.98635e-09 -3.81602e-10)
(2.14208e-10 -3.00441e-09 -5.63479e-10)
(1.55703e-09 -4.31095e-09 -8.27226e-10)
(2.93742e-09 -5.78015e-09 -1.18946e-09)
(4.25608e-09 -7.13033e-09 -1.62641e-09)
(5.20284e-09 -7.94963e-09 -2.00956e-09)
(-1.27649e-09 -5.51415e-10 -1.65583e-10)
(-1.2024e-09 -9.14521e-10 -2.29446e-10)
(-7.5476e-10 -1.4978e-09 -3.38952e-10)
(3.87875e-11 -2.39112e-09 -5.05232e-10)
(1.12063e-09 -3.66696e-09 -7.65761e-10)
(2.53846e-09 -5.3405e-09 -1.17188e-09)
(4.3173e-09 -7.23717e-09 -1.78322e-09)
(6.46266e-09 -8.90502e-09 -2.62859e-09)
(8.49783e-09 -9.74403e-09 -3.52475e-09)
(-8.35786e-10 -5.83011e-10 -1.62503e-10)
(-7.21188e-10 -9.81501e-10 -2.39103e-10)
(-2.81696e-10 -1.62519e-09 -3.63775e-10)
(4.7588e-10 -2.62676e-09 -5.61607e-10)
(1.5697e-09 -4.06535e-09 -8.79343e-10)
(3.13432e-09 -5.95796e-09 -1.39874e-09)
(5.42788e-09 -8.09706e-09 -2.24631e-09)
(8.89276e-09 -9.86101e-09 -3.58794e-09)
(1.32749e-08 -1.0233e-08 -5.50847e-09)
(-3.24648e-09 -5.05983e-10 -1.01026e-10)
(-3.48994e-09 -8.3504e-10 -1.35807e-10)
(-2.82519e-09 -1.36561e-09 -2.09182e-10)
(-1.64484e-09 -2.17045e-09 -3.20381e-10)
(-2.92401e-10 -3.34428e-09 -4.87383e-10)
(1.0743e-09 -4.90156e-09 -7.07754e-10)
(2.38752e-09 -6.77101e-09 -9.68316e-10)
(3.5151e-09 -8.57948e-09 -1.22405e-09)
(4.28709e-09 -9.76683e-09 -1.41401e-09)
(-1.70173e-09 -6.13843e-10 -1.52801e-10)
(-1.67622e-09 -1.03823e-09 -2.18434e-10)
(-1.18642e-09 -1.74416e-09 -3.28268e-10)
(-3.02716e-10 -2.84575e-09 -4.97189e-10)
(8.65914e-10 -4.52261e-09 -7.53356e-10)
(2.2715e-09 -6.85739e-09 -1.13268e-09)
(3.85204e-09 -9.76302e-09 -1.61842e-09)
(5.38642e-09 -1.2736e-08 -2.15649e-09)
(6.48564e-09 -1.47561e-08 -2.54276e-09)
(-8.81287e-10 -6.9851e-10 -1.80467e-10)
(-7.32358e-10 -1.21247e-09 -2.70032e-10)
(-2.62581e-10 -2.08044e-09 -4.15146e-10)
(5.70975e-10 -3.47678e-09 -6.43064e-10)
(1.7564e-09 -5.66197e-09 -9.9661e-10)
(3.37754e-09 -8.82356e-09 -1.54382e-09)
(5.43719e-09 -1.29187e-08 -2.29594e-09)
(7.68208e-09 -1.7316e-08 -3.18009e-09)
(9.45135e-09 -2.04594e-08 -3.85174e-09)
(-5.53629e-10 -7.48828e-10 -1.88754e-10)
(-3.6679e-10 -1.3155e-09 -2.86463e-10)
(1.34779e-10 -2.27882e-09 -4.4962e-10)
(9.86483e-10 -3.87829e-09 -7.1412e-10)
(2.24755e-09 -6.39297e-09 -1.14173e-09)
(4.08707e-09 -1.01218e-08 -1.8135e-09)
(6.5898e-09 -1.51028e-08 -2.77346e-09)
(9.56481e-09 -2.06413e-08 -3.97147e-09)
(1.2145e-08 -2.4747e-08 -4.9732e-09)
)
;

boundaryField
{
    inlet
    {
        type            calculated;
        value           nonuniform 0();
    }
    outlet
    {
        type            calculated;
        value           nonuniform List<vector> 
12
(
(1.4916e-09 3.56193e-10 6.53861e-10)
(2.40027e-09 -3.78359e-10 2.43085e-10)
(-1.20524e-09 1.39833e-09 1.3275e-09)
(1.83923e-07 5.77819e-08 -8.10642e-08)
(4.52469e-12 2.03764e-10 4.90729e-10)
(-2.3496e-10 -4.20289e-11 2.79107e-10)
(-1.02771e-10 -1.46697e-10 8.88325e-11)
(-1.38457e-09 8.85701e-10 1.95384e-09)
(-2.93299e-10 1.37333e-10 3.20068e-10)
(-8.98758e-11 9.64181e-11 1.88545e-10)
(-1.51485e-10 -2.9398e-10 6.17518e-10)
(-5.43425e-10 -3.28404e-10 1.33515e-09)
)
;
    }
    wall
    {
        type            calculated;
        value           nonuniform List<vector> 
63
(
(-2.76519e-09 7.48084e-11 -6.21105e-11)
(-9.89102e-10 8.58413e-11 -1.98537e-10)
(-7.43352e-10 -1.3561e-10 -2.42028e-10)
(-5.83051e-10 1.102e-11 8.89276e-13)
(-5.81375e-09 2.19652e-10 -1.4167e-11)
(-1.27054e-09 1.43314e-10 -1.42397e-10)
(-9.09783e-10 1.56448e-11 -1.88971e-10)
(-8.42637e-10 8.17482e-11 -5.08619e-11)
(-1.55761e-09 2.22794e-10 -2.9445e-11)
(-7.80855e-12 1.50121e-10 -1.84138e-10)
(5.2573e-11 2.85159e-11 -1.6278e-10)
(-1.68548e-09 5.01166e-10 -1.38668e-10)
(-5.76399e-10 3.70747e-10 -2.52978e-11)
(9.6728e-10 1.89686e-10 -1.04163e-10)
(1.19621e-09 6.24003e-11 -1.89816e-10)
(2.67115e-10 4.32596e-11 -8.78072e-11)
(5.48331e-10 2.78858e-10 2.38048e-11)
(6.84637e-10 1.89384e-10 -4.09548e-11)
(8.78067e-10 1.32915e-10 -6.94936e-11)
(3.48248e-10 2.58362e-11 -8.37294e-11)
(2.50467e-09 5.26985e-10 2.79319e-10)
(2.25699e-09 2.47561e-10 1.75715e-10)
(2.3792e-09 3.02149e-11 2.24929e-11)
(2.73649e-09 -7.56651e-11 8.00228e-11)
(-1.57626e-10 3.19883e-10 3.37343e-10)
(6.87152e-10 2.17439e-10 9.91199e-11)
(1.31263e-09 1.89061e-10 1.4641e-10)
(1.13923e-09 -1.99889e-10 1.09578e-10)
(2.0515e-10 2.18217e-10 6.09241e-10)
(1.85875e-09 2.08e-10 3.98294e-10)
(8.58058e-09 -1.08076e-10 4.94692e-10)
(1.32792e-08 -6.96361e-10 1.83804e-09)
(-6.22745e-09 -1.63354e-09 -9.31101e-10)
(-4.8891e-09 -3.93072e-10 -6.98268e-10)
(-1.59158e-09 4.16521e-09 2.33514e-09)
(1.91644e-07 5.62121e-08 -8.48374e-08)
(-6.85823e-10 1.89936e-11 5.1958e-12)
(-2.0399e-10 1.19376e-10 -3.59218e-11)
(-3.15719e-10 1.00229e-10 -1.0772e-10)
(-2.21274e-09 1.17847e-10 -5.24783e-11)
(-1.11064e-09 1.12026e-10 -1.65221e-11)
(-7.01663e-10 9.61825e-11 -8.77219e-11)
(-3.77922e-09 6.59337e-10 -1.63729e-10)
(-3.55661e-10 8.56461e-11 -2.81293e-11)
(-1.42989e-10 1.69992e-10 -9.42623e-11)
(5.81935e-11 4.95537e-11 -9.17187e-11)
(-4.10535e-10 6.16693e-11 -6.75331e-11)
(4.38138e-10 2.51402e-11 -9.30516e-11)
(1.62036e-10 3.66268e-11 -9.91264e-11)
(-9.25073e-11 3.68377e-11 -5.97774e-11)
(1.35378e-10 6.1972e-11 -6.73929e-11)
(1.87874e-09 -6.56607e-11 4.44906e-11)
(-5.70279e-10 2.9813e-11 -6.99224e-11)
(2.44845e-10 3.03752e-12 -9.33804e-11)
(2.07836e-09 -4.86056e-10 1.19701e-10)
(-1.71926e-11 -6.59354e-11 -1.4324e-10)
(1.95474e-10 1.15582e-11 5.23173e-11)
(1.14044e-08 -5.97216e-10 1.80032e-09)
(8.04845e-10 -1.64618e-10 4.72617e-10)
(-1.028e-09 1.3256e-10 5.006e-11)
(4.16959e-07 -7.4111e-08 -3.02558e-07)
(-1.72002e-09 8.80765e-10 1.63388e-09)
(-9.34922e-10 -2.91909e-10 1.45519e-09)
)
;
    }
    procBoundary3to1
    {
        type            processor;
        value           nonuniform List<vector> 
27
(
(-1.50148e-08 -3.01219e-10 1.8812e-10)
(-2.02805e-08 -4.46256e-10 2.88631e-10)
(-1.44723e-08 -6.70004e-10 1.85756e-10)
(-8.3199e-09 -9.70287e-10 4.92736e-11)
(-3.90517e-09 -1.35546e-09 -3.03938e-11)
(-9.45397e-10 -1.77348e-09 -4.19632e-11)
(1.12857e-09 -2.22012e-09 3.57479e-12)
(3.08081e-09 -2.58484e-09 1.87157e-10)
(3.85027e-09 -2.86548e-09 1.15627e-10)
(-1.00837e-08 -3.43841e-10 7.56886e-11)
(-1.24381e-08 -5.26454e-10 1.13784e-10)
(-9.69572e-09 -8.05992e-10 5.79043e-11)
(-5.97913e-09 -1.19457e-09 -3.30228e-11)
(-2.9228e-09 -1.70554e-09 -1.13417e-10)
(-6.68813e-10 -2.30687e-09 -1.48288e-10)
(1.02967e-09 -2.96738e-09 -1.4966e-10)
(2.37637e-09 -3.54934e-09 -8.16561e-11)
(3.18924e-09 -3.92519e-09 -1.09049e-10)
(-5.88546e-09 -4.27291e-10 -2.19424e-11)
(-6.75034e-09 -6.86235e-10 -2.03528e-11)
(-5.54045e-09 -1.07623e-09 -7.21136e-11)
(-3.53761e-09 -1.63587e-09 -1.51257e-10)
(-1.60752e-09 -2.41564e-09 -2.50323e-10)
(2.26916e-11 -3.39735e-09 -3.40932e-10)
(1.38787e-09 -4.53282e-09 -4.40821e-10)
(2.45684e-09 -5.56967e-09 -5.2192e-10)
(3.12926e-09 -6.23103e-09 -5.91257e-10)
)
;
    }
    procBoundary3to2
    {
        type            processor;
        value           nonuniform List<vector> 
12
(
(-4.93451e-09 -2.384e-10 -3.39805e-11)
(-2.58948e-09 -2.74959e-10 -9.06844e-11)
(-1.46574e-09 -3.07363e-10 -1.08051e-10)
(-1.07568e-09 -3.10407e-10 -1.03997e-10)
(-3.74321e-09 -2.67049e-10 -6.32541e-11)
(-2.0238e-09 -3.06559e-10 -1.04543e-10)
(-1.14458e-09 -3.3792e-10 -1.14638e-10)
(-8.14944e-10 -3.50171e-10 -1.08789e-10)
(-2.52431e-09 -3.17882e-10 -8.98678e-11)
(-1.43347e-09 -3.65742e-10 -1.15822e-10)
(-8.26569e-10 -4.04371e-10 -1.25391e-10)
(-5.78917e-10 -4.30363e-10 -1.24816e-10)
)
;
    }
    procBoundary3to7
    {
        type            processor;
        value           nonuniform List<vector> 
36
(
(-1.89497e-09 -6.54494e-10 -1.37837e-10)
(-1.90221e-09 -1.12052e-09 -1.94132e-10)
(-1.40142e-09 -1.88496e-09 -2.99438e-10)
(-4.93879e-10 -3.09896e-09 -4.63914e-10)
(7.03551e-10 -4.95945e-09 -7.19285e-10)
(2.12173e-09 -7.59748e-09 -1.08668e-09)
(3.70538e-09 -1.09538e-08 -1.5561e-09)
(5.226e-09 -1.44594e-08 -2.05874e-09)
(6.27522e-09 -1.68931e-08 -2.41173e-09)
(-1.02689e-09 -7.87514e-10 -1.7709e-10)
(-8.85483e-10 -1.3904e-09 -2.67459e-10)
(-3.88748e-10 -2.42371e-09 -4.21726e-10)
(4.99976e-10 -4.1464e-09 -6.71756e-10)
(1.82534e-09 -6.91649e-09 -1.07193e-09)
(3.63528e-09 -1.10873e-08 -1.68708e-09)
(5.93737e-09 -1.67389e-08 -2.52446e-09)
(8.41453e-09 -2.31053e-08 -3.4829e-09)
(1.02635e-08 -2.78606e-08 -4.20223e-09)
(-5.13551e-10 -9.0993e-10 -2.01132e-10)
(-2.75021e-10 -1.64254e-09 -3.21857e-10)
(2.76826e-10 -2.93666e-09 -5.24184e-10)
(1.26699e-09 -5.17454e-09 -8.59396e-10)
(2.83365e-09 -8.91857e-09 -1.41586e-09)
(5.20995e-09 -1.48715e-08 -2.31444e-09)
(8.51667e-09 -2.34816e-08 -3.61877e-09)
(1.24562e-08 -3.39716e-08 -5.22661e-09)
(1.56795e-08 -4.2537e-08 -6.54046e-09)
(-2.77561e-10 -9.85915e-10 -2.11509e-10)
(-1.68927e-12 -1.79833e-09 -3.45021e-10)
(6.20213e-10 -3.25888e-09 -5.76531e-10)
(1.70873e-09 -5.83719e-09 -9.67913e-10)
(3.47658e-09 -1.0267e-08 -1.63919e-09)
(6.31534e-09 -1.75644e-08 -2.75306e-09)
(1.04936e-08 -2.86565e-08 -4.44869e-09)
(1.58723e-08 -4.30857e-08 -6.67344e-09)
(2.06578e-08 -5.5933e-08 -8.66253e-09)
)
;
    }
}


// ************************************************************************* //
