/*--------------------------------*- C++ -*----------------------------------*\
| =========                 |                                                 |
| \\      /  F ield         | OpenFOAM: The Open Source CFD Toolbox           |
|  \\    /   O peration     | Version:  4.x                                   |
|   \\  /    A nd           | Web:      www.OpenFOAM.org                      |
|    \\/     M anipulation  |                                                 |
\*---------------------------------------------------------------------------*/
FoamFile
{
    version     2.0;
    format      ascii;
    class       volVectorField;
    location    "50.5";
    object      GField;
}
// * * * * * * * * * * * * * * * * * * * * * * * * * * * * * * * * * * * * * //

dimensions      [1 -2 -1 0 0 0 0];

internalField   nonuniform List<vector> 
108
(
(72.6059 -1.0598 -0.816623)
(129.113 -1.1142 -1.5462)
(74.7176 -1.38068 -0.937467)
(137.485 -2.36076 0.215544)
(72.4558 -5.45811 -1.54605)
(147.355 -4.44661 4.43055)
(59.2881 -14.6857 -5.48453)
(160.954 0.679463 10.7219)
(28.9809 -37.2103 -17.2398)
(54.5196 -1.37863 -0.513557)
(112.805 -0.837355 -0.477739)
(48.4385 -1.36411 -0.646777)
(112.23 -0.690275 2.98801)
(35.2912 -1.24734 -0.440859)
(103.222 0.189569 7.95173)
(12.0704 -0.242371 -0.269175)
(76.1278 -0.128205 9.93728)
(-1.41974e-05 3.49362e-06 -1.17499e-06)
(71.6847 1.9755 0.357891)
(126.703 2.53846 0.157487)
(72.6139 2.65756 1.90626)
(134.547 2.55099 2.37876)
(69.44 7.21267 4.40855)
(145.465 2.4393 6.26115)
(57.308 17.661 5.86429)
(166.033 -8.46768 8.69028)
(31.1187 46.498 -0.054576)
(90.8967 -2.07774 0.21557)
(139.079 -1.84792 0.0700204)
(92.5731 -4.2825 1.48782)
(144.056 -3.39742 1.70561)
(89.6217 -5.81932 3.10984)
(153.505 -3.56138 4.31045)
(79.6373 -7.49074 6.02075)
(172.384 -3.39477 8.70754)
(44.0715 -3.21441 -31.146)
(21.4698 0.204639 -1.60404)
(102.199 0.604729 -1.18272)
(18.2459 0.336357 -2.01588)
(106.367 0.193764 1.81106)
(15.822 0.249316 -3.26274)
(112.198 -1.00061 7.46319)
(14.7721 -0.0307607 -7.22699)
(118.375 -3.5313 19.962)
(17.5323 -2.53603 -33.2978)
(7.11843 -0.0868493 -0.984427)
(94.0281 0.946124 0.755368)
(1.34766 0.0316714 -0.310378)
(93.4581 0.508225 2.80827)
(0.0960721 0.00904113 -0.033394)
(89.1183 -1.19319 5.77263)
(2.32152 0.705696 -0.965438)
(74.6109 -8.88053 9.01381)
(11.5814 10.0023 -4.70128)
(31.9579 1.45171 -3.08388)
(106.633 2.32711 -2.43403)
(32.4714 2.66095 -4.44052)
(114.846 -0.113928 0.730671)
(34.6528 6.58389 -7.84811)
(128.664 -3.86045 6.44217)
(36.6739 17.6729 -15.7508)
(150.13 -14.4703 17.0229)
(24.5016 59.1965 -46.2663)
(64.0628 -1.7534 -4.24659)
(120.414 -1.51869 -3.4501)
(63.4934 -3.87957 -5.67715)
(125.404 -3.28326 -2.35938)
(58.6586 -5.75703 -8.35036)
(135.779 -4.18441 1.37484)
(49.3211 -6.10913 -11.5061)
(162.556 -2.0909 12.4352)
(29.5001 6.93726 -59.5032)
(11.8887 -1.09597 -2.25583)
(93.4651 -0.693509 -0.461017)
(9.7028 -1.43182 -2.54559)
(94.6226 -1.62615 0.693171)
(10.3467 -2.79714 -4.39699)
(93.8235 -2.07239 3.71654)
(12.6475 -5.1622 -8.17317)
(85.848 3.29856 11.6631)
(24.0432 -12.8264 -27.7463)
(3.56301e-05 -2.8757e-06 -1.86175e-06)
(84.6091 -0.788148 1.47719)
(3.56746e-05 -2.8521e-06 -2.54167e-06)
(84.0268 0.206438 2.18235)
(3.29924e-05 -4.18799e-06 -7.06419e-06)
(81.6342 2.65084 5.75194)
(3.12305e-05 -2.17926e-06 -7.69539e-06)
(69.9714 3.5252 8.0855)
(11.4821 -0.398502 -1.57486)
(3.08692 0.292288 -0.167486)
(92.3627 -0.704637 -0.196545)
(3.76926e-05 5.1132e-06 -3.19922e-06)
(93.8786 -0.96472 1.10938)
(3.89325 1.15135 -0.752529)
(95.6209 -0.748836 3.69667)
(15.2463 8.10681 -5.24677)
(92.04 -6.53464 9.96235)
(30.9122 34.7787 -21.7329)
(43.5361 -0.287415 -2.08487)
(105.073 -0.858949 -0.837668)
(39.8999 -1.15992 -2.3074)
(106.025 -3.25851 0.489288)
(33.8084 -0.738206 -3.63601)
(109.281 -4.06325 2.47265)
(27.1332 1.24337 -6.14237)
(124.041 -3.69017 8.24603)
(18.6857 11.2351 -15.922)
)
;

boundaryField
{
    inlet
    {
        type            calculated;
        value           nonuniform 0();
    }
    outlet
    {
        type            calculated;
        value           nonuniform List<vector> 
12
(
(60.3997 -77.5508 -35.9299)
(-2.9743e-05 7.31901e-06 -2.46156e-06)
(64.9405 97.0351 -0.113893)
(90.2862 -6.58514 -63.8066)
(37.6662 -5.44837 -71.5365)
(24.8472 21.4593 -10.0863)
(52.5279 126.909 -99.1884)
(62.811 14.7707 -126.693)
(52.4125 -27.9607 -60.4851)
(25.0123 -0.868084 -3.43063)
(67.1399 75.5378 -47.203)
(40.7316 24.4907 -34.7072)
)
;
    }
    wall
    {
        type            calculated;
        value           uniform (0 0 0);
    }
    procBoundary3to1
    {
        type            processor;
        value           nonuniform List<vector> 
27
(
(66.1938 0.606532 -2.25477)
(121.236 0.951062 -2.4413)
(64.5896 1.63907 -3.08731)
(125.095 1.90013 -0.151312)
(60.9798 0.793989 -6.3804)
(134.089 2.12051 3.87532)
(54.6677 -3.09906 -14.2244)
(156.631 3.91771 14.5554)
(33.6788 -13.4041 -37.5717)
(8.08074 0.405707 -0.519402)
(94.9368 1.01989 0.689202)
(1.04121 0.097785 -0.106769)
(94.4294 1.29097 2.36607)
(3.78997e-05 -8.6263e-07 -7.51135e-06)
(89.9347 0.393642 5.63644)
(6.52159 0.523068 -2.59047)
(81.2291 -0.983268 13.1123)
(29.334 1.18805 -34.6879)
(6.33013 -0.350712 -1.37951)
(91.1795 -0.0288857 0.539271)
(4.61229 -0.3695 -1.52802)
(91.6704 1.55318 0.312618)
(5.96289 -0.977774 -2.77963)
(91.5644 2.9744 1.86781)
(12.4523 -4.64162 -7.39923)
(86.8301 8.80807 7.7435)
(27.6681 -21.8638 -17.0401)
)
;
    }
    procBoundary3to2
    {
        type            processor;
        value           nonuniform List<vector> 
12
(
(122.729 -0.755798 -2.4327)
(112.303 -0.727781 -2.4314)
(121.317 2.42373 -1.15661)
(133.203 -0.435964 -1.0342)
(98.2423 0.193325 -2.22035)
(93.7541 0.488896 -0.787031)
(102.439 3.34568 -4.11905)
(116.431 -0.0789166 -4.38057)
(92.5406 -0.190114 -2.02674)
(85.9729 -1.59328 0.156187)
(90.959 -0.20545 -0.412518)
(103.479 0.674384 -1.52732)
)
;
    }
    procBoundary3to7
    {
        type            processor;
        value           nonuniform List<vector> 
36
(
(4.82921 0.559383 -0.855254)
(88.5597 1.19585 -0.383089)
(3.72406 0.82906 -1.09242)
(88.37 1.66678 -0.147937)
(1.07188 0.336036 -0.449867)
(86.0971 2.27103 2.28537)
(0.391113 0.170518 -0.219223)
(74.575 -3.89867 9.87639)
(10.1523 4.22913 -5.50392)
(0.191974 0.0254636 -0.0230781)
(87.0669 0.519132 -0.306309)
(3.75462e-05 7.16933e-06 -2.56013e-06)
(85.2991 0.0453189 0.845194)
(2.10787 0.676023 -0.22008)
(81.7795 -2.11759 2.93494)
(12.5138 6.79262 -0.76884)
(73.1778 -9.11853 4.54001)
(28.8187 31.2497 2.84146)
(28.1527 2.72634 -2.26393)
(99.5383 1.49531 -0.793338)
(27.6436 3.78446 -3.6566)
(104.12 -0.235143 -1.81768)
(26.9724 6.58118 -6.15294)
(109.649 -5.73185 -1.54382)
(24.5785 11.9575 -10.1852)
(117.434 -16.7479 4.6699)
(17.2193 27.6282 -15.4144)
(50.7974 -1.58193 -3.89398)
(109.231 -1.10482 -3.51606)
(49.2548 -2.20241 -5.42065)
(112.756 -1.79221 -2.99813)
(45.2715 -2.68468 -8.48968)
(116.181 -1.81823 0.292868)
(35.0739 -2.68604 -14.0849)
(122.662 -0.0416026 7.2305)
(18.2496 -1.23934 -26.6366)
)
;
    }
}


// ************************************************************************* //
