/*--------------------------------*- C++ -*----------------------------------*\
| =========                 |                                                 |
| \\      /  F ield         | OpenFOAM: The Open Source CFD Toolbox           |
|  \\    /   O peration     | Version:  4.x                                   |
|   \\  /    A nd           | Web:      www.OpenFOAM.org                      |
|    \\/     M anipulation  |                                                 |
\*---------------------------------------------------------------------------*/
FoamFile
{
    version     2.0;
    format      ascii;
    class       volVectorField;
    location    "50.5";
    object      U;
}
// * * * * * * * * * * * * * * * * * * * * * * * * * * * * * * * * * * * * * //

dimensions      [0 1 -1 0 0 0 0];

internalField   nonuniform List<vector> 
108
(
(0.022565 -0.000329323 -0.000253812)
(0.0399591 -0.000344672 -0.000478587)
(0.0232638 -0.000429438 -0.000292137)
(0.0425129 -0.000729774 6.65962e-05)
(0.02244 -0.00169022 -0.000478821)
(0.0455521 -0.00137423 0.00136971)
(0.018471 -0.00457471 -0.00170808)
(0.050191 0.000213056 0.00334402)
(0.00901547 -0.0115744 -0.00536261)
(0.0169468 -0.000428491 -0.000159685)
(0.0353098 -0.000262129 -0.000149586)
(0.0150773 -0.000424814 -0.000201402)
(0.0348648 -0.000214422 0.000928206)
(0.010979 -0.000387955 -0.000137156)
(0.0320232 5.89415e-05 0.00246691)
(0.00377651 -7.55606e-05 -8.42124e-05)
(0.0238295 -3.92535e-05 0.00311)
(-6.57137e-09 1.30234e-09 -7.29287e-10)
(0.0222673 0.000613508 0.000111028)
(0.0394826 0.00079095 4.90378e-05)
(0.0226595 0.000829213 0.000594836)
(0.0417782 0.000792087 0.000738607)
(0.0215917 0.00224272 0.00137078)
(0.0451302 0.000756757 0.00194247)
(0.0179035 0.00551719 0.00183196)
(0.0519349 -0.00264941 0.00271815)
(0.00969216 0.0144826 -1.70272e-05)
(0.0279889 -0.000639943 6.65557e-05)
(0.0428664 -0.000569609 2.1615e-05)
(0.0286228 -0.00132413 0.000460017)
(0.0448514 -0.00105778 0.000531025)
(0.0278732 -0.00180987 0.000967173)
(0.0476198 -0.00110482 0.00133714)
(0.0246715 -0.00232073 0.00186519)
(0.0538117 -0.00105992 0.00271813)
(0.0134753 -0.000982915 -0.00952332)
(0.00681007 6.49085e-05 -0.000508829)
(0.032404 0.000191801 -0.000375087)
(0.0058356 0.0001077 -0.000645037)
(0.0339736 6.20242e-05 0.000578368)
(0.00503886 7.956e-05 -0.00103909)
(0.035681 -0.000317756 0.00237337)
(0.00471668 -8.6056e-06 -0.00230749)
(0.0378794 -0.00112949 0.00638844)
(0.00562178 -0.000813198 -0.010677)
(0.00225662 -2.76151e-05 -0.000312135)
(0.0298584 0.000300434 0.000239781)
(0.000430033 1.01251e-05 -9.91594e-05)
(0.0297719 0.000161953 0.00089452)
(3.06609e-05 2.93677e-06 -1.06608e-05)
(0.0283803 -0.000379964 0.00183824)
(0.000745446 0.000226117 -0.00031019)
(0.0239248 -0.00284756 0.00288968)
(0.00370826 0.0032029 -0.00150566)
(0.0101873 0.00046285 -0.000983147)
(0.0339152 0.000740154 -0.000774201)
(0.0103463 0.00084784 -0.00141492)
(0.0366269 -3.63325e-05 0.000232974)
(0.0110309 0.00209582 -0.0024983)
(0.0410176 -0.00123076 0.00205364)
(0.011711 0.00564323 -0.00502986)
(0.0480529 -0.00463175 0.00544833)
(0.00783976 0.0189417 -0.0148043)
(0.0202148 -0.000553126 -0.00133989)
(0.0378715 -0.000477625 -0.00108509)
(0.0200633 -0.00122591 -0.00179394)
(0.0397329 -0.00104026 -0.000747578)
(0.018677 -0.00183306 -0.00265882)
(0.0430565 -0.00132692 0.000435905)
(0.0156858 -0.001943 -0.00365945)
(0.0518439 -0.000666919 0.00396589)
(0.00937463 0.00220454 -0.0189094)
(0.00384247 -0.000354227 -0.000729126)
(0.0303481 -0.000225165 -0.000149743)
(0.00315692 -0.000465817 -0.000828289)
(0.0307933 -0.000529131 0.000225537)
(0.00335568 -0.000907042 -0.00142606)
(0.0305208 -0.000673913 0.00120883)
(0.00413819 -0.00168865 -0.00267489)
(0.027995 0.00107586 0.0038033)
(0.00782271 -0.00417322 -0.00902764)
(1.15866e-08 -9.69417e-10 -6.64008e-10)
(0.027272 -0.000254029 0.000476087)
(1.16636e-08 -8.14477e-10 -1.00717e-09)
(0.0270319 6.64561e-05 0.000702001)
(1.08397e-08 -1.23922e-09 -2.42817e-09)
(0.0265835 0.000863276 0.0018729)
(1.01008e-08 -6.99687e-10 -3.06568e-09)
(0.0229108 0.00115431 0.00264722)
(0.00373307 -0.000129573 -0.000512019)
(0.000988481 9.36235e-05 -5.35799e-05)
(0.0297957 -0.000227294 -6.34319e-05)
(1.23032e-08 1.68048e-09 -1.12837e-09)
(0.0302255 -0.000310587 0.000357119)
(0.00125895 0.000372304 -0.000243403)
(0.0311357 -0.000243855 0.00120359)
(0.00496096 0.00263779 -0.00170739)
(0.029988 -0.00212912 0.00324575)
(0.0100208 0.0112743 -0.00704525)
(0.0139536 -9.20804e-05 -0.000668309)
(0.0334248 -0.000273233 -0.000266512)
(0.0127643 -0.000371066 -0.000738187)
(0.0340047 -0.00104507 0.000156876)
(0.0108807 -0.00023758 -0.00117025)
(0.03539 -0.00131587 0.000800675)
(0.00879285 0.000402906 -0.0019906)
(0.0403727 -0.00120108 0.00268385)
(0.00607924 0.00365532 -0.0051802)
)
;

boundaryField
{
    inlet
    {
        type            fixedValue;
        value           nonuniform 0();
    }
    outlet
    {
        type            zeroGradient;
    }
    wall
    {
        type            fixedValue;
        value           uniform (0 0 0);
    }
    procBoundary3to1
    {
        type            processor;
        value           nonuniform List<vector> 
27
(
(0.0202871 0.000185939 -0.000691044)
(0.0373866 0.000293465 -0.000752799)
(0.0200294 0.00050875 -0.000957135)
(0.0389461 0.000591798 -4.70538e-05)
(0.018928 0.000246651 -0.00198043)
(0.0416115 0.000658343 0.00120255)
(0.0170591 -0.000966755 -0.00443928)
(0.0488041 0.00122038 0.00453532)
(0.0104387 -0.00415448 -0.0116449)
(0.00254007 0.00012756 -0.000163281)
(0.0298715 0.000320994 0.000216915)
(0.000328479 3.09803e-05 -3.34133e-05)
(0.0298453 0.000408155 0.000747896)
(1.16884e-08 1.22147e-10 -2.3556e-09)
(0.0286514 0.000125798 0.00179576)
(0.00209013 0.000168693 -0.000830126)
(0.0261094 -0.0003158 0.00421477)
(0.00926811 0.000375382 -0.0109593)
(0.00203317 -0.000112635 -0.000443111)
(0.0292569 -9.23844e-06 0.000173043)
(0.00147886 -0.000118445 -0.00048989)
(0.0297337 0.000503853 0.000101427)
(0.00193621 -0.000317391 -0.000902613)
(0.0298356 0.000969413 0.000608805)
(0.00405315 -0.00151047 -0.00240759)
(0.0282257 0.00286337 0.00251739)
(0.00885773 -0.0069994 -0.00545519)
)
;
    }
    procBoundary3to2
    {
        type            processor;
        value           nonuniform List<vector> 
12
(
(0.0377638 -0.000232558 -0.000748567)
(0.034574 -0.000224132 -0.000748579)
(0.0373541 0.000746159 -0.000356127)
(0.0405735 -0.000132838 -0.000314961)
(0.0310651 6.11081e-05 -0.000702146)
(0.0294382 0.000153453 -0.000247178)
(0.0321633 0.00105043 -0.00129327)
(0.0361854 -2.45113e-05 -0.00136138)
(0.0296535 -6.0935e-05 -0.000649488)
(0.0274154 -0.000508098 4.97759e-05)
(0.029121 -6.57876e-05 -0.000132063)
(0.0328598 0.000214154 -0.000485005)
)
;
    }
    procBoundary3to7
    {
        type            processor;
        value           nonuniform List<vector> 
36
(
(0.00158172 0.000183218 -0.000280152)
(0.0290351 0.00039208 -0.000125642)
(0.00121863 0.00027129 -0.000357499)
(0.0290336 0.000547658 -4.86309e-05)
(0.000355868 0.000111633 -0.00014937)
(0.0286385 0.000755516 0.000760112)
(0.000129647 5.6615e-05 -7.2827e-05)
(0.0245478 -0.00128326 0.00325093)
(0.00335951 0.00139948 -0.00182134)
(6.25808e-05 8.30049e-06 -7.53689e-06)
(0.0286328 0.00017074 -0.000100769)
(1.23781e-08 2.37862e-09 -9.42353e-10)
(0.0279654 1.48918e-05 0.000277042)
(0.000695897 0.000223215 -7.27376e-05)
(0.0269436 -0.000697624 0.00096686)
(0.00413772 0.00224605 -0.000254381)
(0.0241358 -0.00300749 0.00149733)
(0.0095303 0.0103343 0.000939639)
(0.00907513 0.000878851 -0.000729788)
(0.0324609 0.000487659 -0.000258752)
(0.00901804 0.0012346 -0.00119291)
(0.0340346 -7.68427e-05 -0.000594214)
(0.00887071 0.00216444 -0.00202364)
(0.0362315 -0.00189398 -0.000510196)
(0.00812402 0.00395238 -0.00336658)
(0.0387196 -0.00552203 0.00153966)
(0.00568339 0.00911908 -0.00508775)
(0.0163696 -0.000509777 -0.00125489)
(0.0353987 -0.000358032 -0.0011395)
(0.0160774 -0.00071889 -0.00176941)
(0.0366432 -0.000582416 -0.000974368)
(0.0148206 -0.000878886 -0.00277933)
(0.038139 -0.000596871 9.60972e-05)
(0.0115525 -0.000884735 -0.00463926)
(0.040148 -1.36098e-05 0.00236652)
(0.00592823 -0.000402605 -0.00865279)
)
;
    }
}


// ************************************************************************* //
