/*--------------------------------*- C++ -*----------------------------------*\
| =========                 |                                                 |
| \\      /  F ield         | OpenFOAM: The Open Source CFD Toolbox           |
|  \\    /   O peration     | Version:  4.x                                   |
|   \\  /    A nd           | Web:      www.OpenFOAM.org                      |
|    \\/     M anipulation  |                                                 |
\*---------------------------------------------------------------------------*/
FoamFile
{
    version     2.0;
    format      ascii;
    class       volVectorField;
    location    "50.5";
    object      UsPrev;
}
// * * * * * * * * * * * * * * * * * * * * * * * * * * * * * * * * * * * * * //

dimensions      [0 1 -1 0 0 0 0];

internalField   nonuniform List<vector> 
108
(
(2.01697e-09 -3.4094e-09 1.50995e-09)
(2.67384e-09 -5.25248e-09 1.96711e-09)
(3.51423e-09 -7.65803e-09 5.11517e-10)
(2.07549e-09 -2.54005e-09 1.40957e-10)
(1.30033e-09 -1.22788e-09 -5.14325e-10)
(1.81785e-09 -1.05417e-09 -7.95377e-10)
(2.41782e-09 -1.0979e-09 -5.99882e-10)
(-3.33888e-09 -1.40105e-09 -2.23885e-10)
(-8.78305e-09 -7.71399e-10 6.38602e-10)
(1.3509e-09 -1.40834e-09 7.4285e-10)
(1.1628e-09 -1.41099e-09 4.98153e-10)
(1.43164e-09 -1.39856e-09 5.07576e-11)
(1.82e-09 -8.16879e-10 -3.69637e-10)
(1.29153e-09 -5.684e-10 -5.3219e-10)
(5.95386e-10 -4.81235e-10 -7.33227e-10)
(-1.29593e-10 -4.18369e-10 -4.92234e-10)
(-2.11554e-09 -6.83553e-10 -6.43978e-10)
(-1.37766e-08 1.73187e-10 -2.5828e-10)
(1.32117e-09 2.62936e-10 3.50436e-10)
(1.76987e-09 -8.7991e-10 2.63745e-10)
(9.83032e-10 8.83467e-11 -1.42546e-10)
(1.29726e-09 -1.4118e-10 -4.57327e-10)
(1.16765e-09 -2.9347e-10 -4.45592e-10)
(8.89069e-11 -2.89106e-11 -5.19629e-10)
(-4.89281e-10 3.40285e-10 -4.64655e-10)
(-3.27353e-09 -1.32909e-10 -1.75532e-09)
(-2.06661e-09 9.69235e-09 -3.7125e-09)
(6.68125e-10 -1.70615e-10 3.14227e-11)
(1.19736e-09 -6.50095e-10 -1.85049e-10)
(9.95101e-10 -1.36547e-09 -7.49731e-11)
(8.10519e-10 5.96645e-12 -1.33384e-10)
(1.09036e-09 4.81378e-11 -2.13792e-10)
(6.15826e-10 2.24742e-10 -6.10902e-10)
(3.97819e-09 1.50065e-09 -4.49807e-10)
(3.8135e-09 1.65506e-09 -2.26399e-09)
(-2.13263e-09 3.88801e-07 -1.57571e-08)
(2.03628e-09 -2.05905e-09 1.29588e-09)
(2.1812e-09 -1.07469e-09 1.42004e-09)
(1.97209e-09 -1.56281e-09 1.05928e-09)
(1.93677e-09 -1.00441e-09 3.28739e-10)
(1.77086e-09 -8.26389e-10 -4.68602e-10)
(1.4361e-09 -1.08471e-09 -9.20381e-10)
(1.75294e-09 -8.11254e-10 -1.25555e-09)
(1.7755e-09 -6.82222e-10 -5.84942e-10)
(-5.54799e-10 -6.99382e-10 3.19413e-10)
(1.49319e-09 -8.2701e-10 6.45943e-10)
(1.55282e-09 -9.73207e-10 4.3155e-10)
(1.79564e-09 -9.36372e-10 2.0442e-11)
(1.90017e-09 -7.78266e-10 -4.46808e-10)
(1.61685e-09 -4.68255e-10 -5.41039e-10)
(1.05095e-09 -5.52683e-10 -7.38631e-10)
(1.38964e-09 2.27897e-10 -8.09052e-10)
(7.55212e-10 -2.54252e-10 -5.80667e-10)
(6.25981e-10 2.63053e-10 -9.13301e-10)
(1.16509e-09 -4.60816e-10 4.4841e-10)
(1.323e-09 -5.2188e-10 1.85814e-10)
(1.40307e-09 -3.17692e-10 -2.53641e-10)
(1.22894e-09 -3.78334e-10 -4.11383e-10)
(1.08216e-09 -2.889e-10 -3.41079e-10)
(6.77e-10 -2.17131e-10 -2.59895e-10)
(-2.74254e-10 -9.76939e-11 -5.53211e-10)
(-6.36376e-10 3.27695e-10 -1.69464e-09)
(-5.43637e-10 1.75045e-10 -2.18506e-09)
(7.82278e-10 -2.35763e-10 1.86829e-10)
(1.28233e-09 -3.52775e-10 -5.04659e-11)
(7.53292e-10 -1.97486e-10 -1.60185e-10)
(7.836e-10 -1.34695e-10 -1.2235e-10)
(7.88946e-10 -4.16281e-11 -1.82425e-10)
(1.04336e-09 -1.20389e-10 -1.51706e-10)
(9.556e-10 3.89265e-10 -6.52334e-10)
(5.17338e-10 5.12027e-10 -2.38137e-09)
(-2.81715e-10 1.73148e-10 -9.3357e-09)
(1.87213e-09 -1.54017e-10 1.17917e-09)
(2.11036e-09 3.99992e-11 1.55052e-09)
(2.00431e-09 9.92417e-10 2.02449e-09)
(2.21499e-09 -3.99369e-10 5.93978e-10)
(2.01716e-09 -5.26736e-10 -2.34361e-10)
(1.69874e-09 -5.25991e-10 -7.69958e-10)
(1.64239e-09 -4.39698e-10 -1.09914e-09)
(1.342e-09 -3.43451e-10 -8.00772e-10)
(9.40264e-10 -1.68525e-10 -3.51174e-10)
(1.56046e-09 -3.07238e-10 5.85667e-10)
(1.86324e-09 -4.29604e-10 4.01736e-10)
(2.21483e-09 -1.21367e-10 4.90345e-10)
(2.04191e-09 -2.32645e-10 -1.87729e-10)
(1.76522e-09 -2.50204e-10 -4.87038e-10)
(1.41672e-09 -1.55445e-10 -5.01011e-10)
(1.16501e-09 -8.29608e-11 -7.65822e-10)
(1.03445e-09 5.45725e-11 -6.27573e-10)
(5.3858e-10 -2.71276e-11 -2.96238e-10)
(1.30813e-09 -3.19613e-10 2.33277e-10)
(1.41526e-09 -3.96893e-10 1.13997e-10)
(1.54917e-09 -2.50603e-11 -1.19587e-11)
(1.31976e-09 -1.24758e-10 -1.30502e-10)
(1.11239e-09 -8.56731e-11 -2.00712e-10)
(6.96162e-10 4.33243e-11 -1.24331e-10)
(2.63794e-10 -4.53949e-12 -4.31989e-10)
(4.19696e-10 1.33972e-10 -1.44742e-09)
(2.46881e-10 -2.75662e-10 -1.79344e-09)
(7.20198e-10 -3.12533e-10 2.48997e-10)
(8.2881e-10 -2.63567e-10 4.91231e-11)
(8.93233e-10 -7.23835e-11 -5.52512e-11)
(6.4481e-10 1.48995e-10 -6.19622e-12)
(4.63655e-10 -4.48321e-11 -1.28614e-10)
(2.27189e-10 6.75429e-11 2.6056e-12)
(-1.95683e-10 7.18923e-11 -3.67436e-10)
(-3.7468e-10 -1.49768e-10 -1.53899e-09)
(-1.91099e-10 -1.00345e-09 -3.20442e-09)
)
;

boundaryField
{
    inlet
    {
        type            calculated;
        value           nonuniform 0();
    }
    outlet
    {
        type            calculated;
        value           uniform (0 0 0);
    }
    wall
    {
        type            calculated;
        value           uniform (0 0 0);
    }
    procBoundary3to1
    {
        type            processor;
        value           uniform (0 0 0);
    }
    procBoundary3to2
    {
        type            processor;
        value           uniform (0 0 0);
    }
    procBoundary3to7
    {
        type            processor;
        value           uniform (0 0 0);
    }
}


// ************************************************************************* //
