/*--------------------------------*- C++ -*----------------------------------*\
| =========                 |                                                 |
| \\      /  F ield         | OpenFOAM: The Open Source CFD Toolbox           |
|  \\    /   O peration     | Version:  4.x                                   |
|   \\  /    A nd           | Web:      www.OpenFOAM.org                      |
|    \\/     M anipulation  |                                                 |
\*---------------------------------------------------------------------------*/
FoamFile
{
    version     2.0;
    format      ascii;
    class       volVectorField;
    location    "19.5";
    object      ddtUrel;
}
// * * * * * * * * * * * * * * * * * * * * * * * * * * * * * * * * * * * * * //

dimensions      [0 1 -2 0 0 0 0];

internalField   nonuniform List<vector> 
132
(
(-3.95213e-08 3.45612e-09 -1.67743e-07)
(3.97626e-08 -5.01289e-09 -1.24084e-07)
(1.73327e-07 9.30839e-09 -7.00706e-08)
(2.77559e-07 1.37373e-08 -3.00343e-08)
(3.58623e-07 2.65038e-08 -1.37966e-08)
(4.159e-07 2.43883e-08 -1.00975e-08)
(4.66108e-07 9.58744e-09 -2.39863e-08)
(4.70108e-07 -1.19436e-08 -4.0743e-08)
(3.97244e-07 -3.6761e-08 -5.54419e-08)
(8.14257e-08 -8.94399e-10 -7.26045e-08)
(1.38864e-07 -1.16539e-08 -6.91257e-08)
(2.25091e-07 -8.1919e-09 -4.14624e-08)
(3.14036e-07 1.38172e-08 -1.68057e-08)
(3.85912e-07 3.53296e-08 -9.43833e-09)
(4.27914e-07 3.23549e-08 -1.30054e-08)
(4.84246e-07 4.40805e-09 -3.1376e-08)
(5.1387e-07 -2.25225e-08 -5.73413e-08)
(4.78095e-07 -6.19681e-08 -6.88248e-08)
(1.57344e-07 -1.82148e-09 -2.03108e-08)
(1.99404e-07 -3.66605e-09 -1.99064e-08)
(2.77333e-07 -4.99518e-10 -1.3967e-08)
(3.59016e-07 1.97367e-08 -1.13098e-08)
(4.20566e-07 3.99359e-08 -1.14013e-08)
(4.50268e-07 3.32306e-08 -2.7833e-08)
(5.15407e-07 5.39521e-10 -4.92783e-08)
(5.7012e-07 -4.79487e-08 -8.07993e-08)
(5.69381e-07 -9.73654e-08 -1.10674e-07)
(1.57765e-07 3.64671e-10 -6.76707e-09)
(2.1354e-07 -1.055e-09 -6.07688e-09)
(2.96725e-07 1.12389e-09 -9.20275e-09)
(5.85524e-08 -8.61003e-10 -8.34233e-08)
(1.01261e-07 -1.50278e-09 -7.07706e-08)
(1.728e-07 -5.03605e-09 -5.65053e-08)
(2.47939e-07 8.30673e-09 -2.51812e-08)
(3.13978e-07 2.11365e-08 -1.4873e-08)
(3.74078e-07 2.44156e-08 -1.27264e-08)
(4.1259e-07 5.51179e-09 -2.51191e-08)
(4.47107e-07 -1.13865e-08 -4.61324e-08)
(4.2031e-07 -2.583e-08 -6.25019e-08)
(9.88641e-08 3.03298e-10 -4.83651e-08)
(1.16933e-07 -7.95379e-09 -6.13671e-08)
(1.72703e-07 -4.5037e-08 -9.12234e-08)
(2.72491e-07 4.3001e-09 -2.54044e-08)
(3.37185e-07 2.83765e-08 -1.4954e-08)
(3.84129e-07 2.69935e-08 -2.07943e-08)
(4.3327e-07 5.33885e-09 -3.60738e-08)
(4.78773e-07 -2.1027e-08 -6.33503e-08)
(4.63656e-07 -5.99033e-08 -6.46159e-08)
(1.32179e-07 3.63428e-09 -1.7028e-08)
(1.68908e-07 3.85525e-09 -1.74056e-08)
(2.30207e-07 -7.3616e-10 -2.22667e-08)
(3.13626e-07 1.76041e-08 -1.426e-08)
(3.67722e-07 3.21803e-08 -2.25497e-08)
(3.97799e-07 2.63775e-08 -3.77927e-08)
(4.53861e-07 2.24293e-09 -5.04414e-08)
(5.02643e-07 -3.4195e-08 -8.71008e-08)
(4.97008e-07 -8.94364e-08 -1.08096e-07)
(1.42583e-07 4.51547e-09 -6.52321e-09)
(1.87075e-07 5.57137e-09 -6.75789e-09)
(2.53163e-07 6.66655e-09 -1.05126e-08)
(3.38096e-07 2.00714e-08 -1.76356e-08)
(3.72585e-07 2.77683e-08 -4.45449e-08)
(8.24612e-08 3.22667e-09 -4.2845e-08)
(1.10003e-07 4.17453e-09 -3.82284e-08)
(1.59113e-07 5.64213e-09 -3.02451e-08)
(2.17379e-07 1.17351e-08 -1.70539e-08)
(2.74422e-07 2.09375e-08 -1.3911e-08)
(3.40247e-07 2.60931e-08 -1.56431e-08)
(3.84822e-07 8.8874e-09 -3.23795e-08)
(4.15234e-07 -1.02516e-08 -5.01797e-08)
(4.08758e-07 -1.88121e-08 -7.32601e-08)
(9.47408e-08 4.02485e-09 -2.82059e-08)
(1.23088e-07 4.44651e-09 -2.86168e-08)
(1.72343e-07 1.22488e-09 -2.95355e-08)
(2.40068e-07 1.37097e-08 -1.60878e-08)
(2.97875e-07 2.4029e-08 -1.93751e-08)
(3.47314e-07 2.31984e-08 -2.90132e-08)
(3.98475e-07 1.15781e-08 -4.16332e-08)
(4.50097e-07 -1.51833e-08 -6.40307e-08)
(4.44108e-07 -4.98111e-08 -8.93463e-08)
(1.13986e-07 7.8908e-09 -1.17014e-08)
(1.47682e-07 8.94663e-09 -1.35363e-08)
(2.03235e-07 8.83626e-09 -1.63225e-08)
(2.70696e-07 2.05644e-08 -1.54527e-08)
(3.26704e-07 2.64873e-08 -3.23234e-08)
(3.74326e-07 2.61073e-08 -4.34129e-08)
(4.21517e-07 1.15888e-08 -5.88823e-08)
(4.68815e-07 -1.9979e-08 -9.16011e-08)
(4.58592e-07 -8.40002e-08 -1.21418e-07)
(1.25037e-07 8.25637e-09 -7.19499e-09)
(1.63514e-07 6.56903e-09 -9.08788e-09)
(2.19382e-07 1.11266e-08 -1.10161e-08)
(2.87755e-07 2.20969e-08 -2.37159e-08)
(3.39939e-07 2.76073e-08 -5.18908e-08)
(3.97408e-07 2.32218e-08 -7.10552e-08)
(4.50503e-07 -2.71401e-09 -9.54668e-08)
(9.21717e-08 8.01613e-09 -2.48701e-08)
(1.13231e-07 8.60991e-09 -2.20673e-08)
(1.43261e-07 1.09855e-08 -1.64186e-08)
(1.89615e-07 1.8039e-08 -1.03764e-08)
(2.38229e-07 2.32045e-08 -1.35041e-08)
(3.01244e-07 2.13102e-08 -2.30352e-08)
(3.40069e-07 9.63826e-09 -3.97298e-08)
(3.70851e-07 -8.26346e-09 -5.25959e-08)
(3.76479e-07 -1.90957e-08 -8.16503e-08)
(9.32975e-08 4.86053e-09 -1.93901e-08)
(1.17386e-07 8.60273e-09 -1.81025e-08)
(1.51119e-07 1.10386e-08 -1.35878e-08)
(2.05791e-07 1.79511e-08 -1.08927e-08)
(2.57207e-07 2.41498e-08 -1.97583e-08)
(3.13877e-07 2.20043e-08 -3.17085e-08)
(3.57185e-07 1.25208e-08 -4.25313e-08)
(3.98176e-07 -1.21289e-08 -6.28371e-08)
(3.90418e-07 -3.74525e-08 -1.07083e-07)
(1.01248e-07 9.70533e-09 -1.26235e-08)
(1.26258e-07 1.14941e-08 -1.37977e-08)
(1.70206e-07 1.32872e-08 -1.46963e-08)
(2.28618e-07 1.97608e-08 -1.91298e-08)
(2.8454e-07 2.46949e-08 -3.49906e-08)
(3.45268e-07 2.8496e-08 -4.46645e-08)
(3.86833e-07 1.78794e-08 -5.93732e-08)
(4.19951e-07 -1.20642e-08 -9.13657e-08)
(4.23378e-07 -6.02086e-08 -1.36767e-07)
(1.04729e-07 1.06446e-08 -1.04061e-08)
(1.36566e-07 1.17699e-08 -1.22218e-08)
(1.91231e-07 1.71627e-08 -1.71685e-08)
(2.50174e-07 2.15625e-08 -2.96088e-08)
(3.13896e-07 2.74601e-08 -5.04726e-08)
(3.69942e-07 2.55399e-08 -6.85009e-08)
(4.04992e-07 5.11582e-09 -9.57653e-08)
(4.50087e-07 -2.14282e-08 -1.49605e-07)
(5.0809e-07 -7.48076e-08 -2.11484e-07)
)
;

boundaryField
{
    inlet
    {
        type            calculated;
        value           nonuniform List<vector> 
16
(
(-1.23076e-06 3.72852e-08 -8.33835e-07)
(-4.85483e-08 -9.12212e-09 -3.3891e-08)
(3.07728e-07 -1.33724e-09 9.80059e-08)
(2.3843e-09 -1.43913e-09 1.6174e-08)
(1.93872e-08 -5.09869e-08 -1.32466e-07)
(1.67793e-08 -6.96103e-09 3.42104e-08)
(5.03128e-09 1.85964e-08 4.76837e-08)
(1.10242e-08 1.70294e-08 4.21684e-08)
(-8.02919e-09 -6.30714e-09 -3.77174e-08)
(-3.16163e-08 -1.92006e-09 1.05067e-08)
(-3.30216e-08 2.34718e-08 4.86813e-08)
(-4.80585e-09 2.32298e-08 2.25876e-08)
(1.07319e-08 1.23675e-08 -1.90296e-08)
(-2.32278e-08 -4.26043e-08 4.49932e-10)
(-1.70523e-08 2.17886e-08 3.15724e-08)
(-2.0323e-08 3.43712e-08 -5.69013e-09)
)
;
    }
    outlet
    {
        type            calculated;
        value           nonuniform 0();
    }
    wall
    {
        type            calculated;
        value           nonuniform List<vector> 
66
(
(-1.75703e-06 -1.6625e-07 -9.96099e-07)
(-5.01022e-08 -2.99139e-09 -3.58923e-08)
(3.85053e-07 -1.85321e-08 9.17845e-08)
(3.81453e-08 -7.74319e-09 1.25209e-08)
(-9.58357e-07 -1.32568e-07 -5.78855e-07)
(9.89079e-08 -1.23027e-07 -1.87448e-07)
(3.89779e-07 -1.60571e-08 4.65831e-08)
(2.87302e-07 -2.64842e-08 3.45772e-08)
(-9.42282e-08 1.24697e-07 -1.63476e-07)
(6.76483e-07 -3.47475e-08 1.2737e-07)
(7.1541e-07 -4.9794e-08 8.34135e-08)
(5.00132e-07 -2.6171e-08 2.08829e-08)
(3.91713e-07 1.38784e-08 -1.85343e-08)
(6.69505e-07 6.59863e-09 6.25837e-08)
(8.14964e-07 3.06392e-08 2.75229e-08)
(5.36273e-07 6.37345e-08 1.52497e-08)
(8.50677e-07 1.40562e-07 6.88765e-08)
(1.16879e-06 1.92655e-07 1.32611e-07)
(6.30869e-07 5.23687e-08 5.21468e-08)
(7.75718e-07 1.44524e-07 9.48659e-08)
(7.62272e-07 1.40876e-07 7.56836e-08)
(8.5869e-07 5.90127e-08 1.71052e-08)
(1.00474e-06 3.38066e-08 4.96686e-08)
(1.0936e-06 1.32313e-07 5.76487e-08)
(6.65542e-07 2.86047e-08 1.27056e-08)
(8.91194e-07 2.9963e-08 -8.14305e-08)
(1.169e-06 -9.15784e-08 2.29268e-08)
(3.25921e-07 -1.05394e-07 3.03863e-08)
(6.92766e-07 -1.17519e-07 1.99511e-08)
(1.12017e-06 -2.22153e-07 -1.32272e-07)
(-8.22483e-07 2.14083e-08 -8.72536e-07)
(-3.2971e-08 -4.45569e-08 -1.10128e-07)
(5.55703e-09 -3.50209e-09 -3.93811e-08)
(2.91534e-08 1.26647e-08 -1.96749e-08)
(-6.70403e-07 -7.70882e-08 -5.30251e-07)
(1.13789e-07 1.89942e-08 -6.57143e-08)
(6.8534e-08 1.05266e-08 -2.61129e-08)
(5.49302e-08 6.00845e-09 -9.39735e-09)
(2.84194e-07 1.25351e-07 -1.68032e-07)
(2.15627e-07 -9.61021e-10 -3.60429e-08)
(1.71575e-07 1.92312e-08 -5.48502e-09)
(1.93433e-08 3.82449e-09 7.08171e-09)
(3.65634e-07 1.56063e-08 -9.12195e-09)
(2.39679e-07 -2.91403e-09 3.01119e-08)
(1.5095e-07 -1.39375e-08 2.36853e-08)
(9.86443e-08 2.6095e-08 2.99869e-08)
(6.47111e-07 6.23956e-08 1.513e-08)
(2.65834e-07 9.40453e-09 1.61525e-08)
(1.18182e-07 1.88645e-08 8.55906e-09)
(1.70879e-07 3.19668e-08 5.32686e-08)
(6.00713e-07 5.44439e-08 5.8787e-08)
(5.31243e-07 6.31486e-08 7.50109e-08)
(5.7302e-07 1.19069e-07 1.01263e-07)
(4.52603e-07 3.78285e-08 5.15416e-08)
(8.76037e-07 5.71444e-08 2.43447e-08)
(1.8635e-07 -4.04194e-08 4.72842e-08)
(5.51489e-07 1.83848e-08 3.88627e-08)
(4.16146e-07 9.72891e-09 -3.3878e-08)
(7.31202e-07 2.34943e-08 1.69388e-08)
(6.18098e-07 -3.32499e-09 6.57815e-09)
(4.47887e-07 -3.96135e-08 1.13618e-08)
(3.78083e-07 -2.70693e-08 3.88056e-08)
(-3.23256e-07 -1.44414e-07 6.07544e-09)
(1.02264e-06 1.6178e-08 -3.34916e-08)
(8.0676e-07 5.33051e-08 -8.07198e-09)
(4.11491e-07 4.75994e-09 -9.49952e-08)
)
;
    }
    procBoundary0to1
    {
        type            processor;
        value           nonuniform List<vector> 
12
(
(3.07986e-07 -2.16229e-08 -8.14237e-08)
(4.13801e-07 -6.48377e-08 -9.0876e-08)
(5.09899e-07 -1.15308e-07 -1.32215e-07)
(3.24658e-07 -3.40995e-08 -8.07017e-08)
(3.90671e-07 -7.10939e-08 -8.64813e-08)
(4.80807e-07 -1.15878e-07 -1.28942e-07)
(3.28954e-07 -3.40062e-08 -8.66497e-08)
(3.61373e-07 -6.8415e-08 -1.06463e-07)
(4.40353e-07 -1.08878e-07 -1.49701e-07)
(3.48215e-07 -3.4924e-08 -9.56702e-08)
(3.61907e-07 -5.67257e-08 -1.23246e-07)
(4.28436e-07 -8.47782e-08 -1.64844e-07)
)
;
    }
    procBoundary0to2
    {
        type            processor;
        value           nonuniform List<vector> 
44
(
(3.73719e-07 1.7156e-08 -1.33854e-08)
(4.25369e-07 3.08188e-08 -3.28193e-08)
(4.32288e-07 2.02696e-08 -7.07181e-08)
(5.07117e-07 -2.11376e-08 -1.04712e-07)
(5.94066e-07 -8.10473e-08 -1.3029e-07)
(6.63898e-07 -1.28316e-07 -1.7214e-07)
(1.42195e-07 2.68194e-09 -5.21128e-09)
(2.02975e-07 -3.94332e-09 -7.51249e-09)
(3.73719e-07 1.7156e-08 -1.33854e-08)
(2.80404e-07 -6.00373e-09 -1.44172e-08)
(3.73719e-07 1.7156e-08 -1.33854e-08)
(4.25369e-07 3.08188e-08 -3.28193e-08)
(4.15365e-07 1.75843e-08 -7.13527e-08)
(4.8501e-07 -1.92141e-08 -9.65062e-08)
(5.47074e-07 -6.02443e-08 -1.38282e-07)
(5.93276e-07 -1.06819e-07 -1.75918e-07)
(1.43143e-07 3.45358e-09 -5.71534e-09)
(1.89803e-07 1.16013e-09 -7.14016e-09)
(2.55592e-07 -2.12267e-11 -1.37699e-08)
(3.28958e-07 4.63698e-09 -2.97143e-08)
(4.15365e-07 1.75843e-08 -7.13527e-08)
(3.71438e-07 1.10561e-08 -7.11072e-08)
(4.15365e-07 1.75843e-08 -7.13527e-08)
(4.8501e-07 -1.92141e-08 -9.65062e-08)
(5.23112e-07 -4.20521e-08 -1.47872e-07)
(5.61381e-07 -9.23972e-08 -1.99381e-07)
(1.29583e-07 8.14712e-09 -7.30065e-09)
(1.65783e-07 5.88974e-09 -9.36074e-09)
(2.24372e-07 6.84106e-09 -1.53633e-08)
(2.91509e-07 1.126e-08 -3.34693e-08)
(3.42916e-07 1.4816e-08 -7.16745e-08)
(3.87046e-07 7.5397e-09 -1.11392e-07)
(5.23112e-07 -4.20521e-08 -1.47872e-07)
(4.68674e-07 -2.29285e-08 -1.60216e-07)
(5.23112e-07 -4.20521e-08 -1.47872e-07)
(5.61381e-07 -9.23972e-08 -1.99381e-07)
(1.11915e-07 9.46465e-09 -9.13462e-09)
(1.45049e-07 1.04391e-08 -1.22039e-08)
(1.95147e-07 1.44802e-08 -2.18136e-08)
(2.59648e-07 1.7573e-08 -4.33033e-08)
(3.21709e-07 1.75241e-08 -7.43916e-08)
(3.81594e-07 6.98312e-09 -1.05551e-07)
(4.59909e-07 -1.24268e-08 -1.54084e-07)
(5.63704e-07 -4.10408e-08 -2.44283e-07)
)
;
    }
    procBoundary0to4
    {
        type            processor;
        value           nonuniform List<vector> 
36
(
(8.59497e-08 9.89855e-09 -1.36141e-08)
(1.04676e-07 1.16444e-08 -1.50019e-08)
(1.32408e-07 1.62132e-08 -1.23736e-08)
(1.66743e-07 2.02157e-08 -1.01261e-08)
(2.05062e-07 2.52699e-08 -1.64844e-08)
(2.50343e-07 1.99034e-08 -2.82483e-08)
(2.91084e-07 7.25123e-09 -3.96801e-08)
(3.17363e-07 -6.84595e-09 -5.14134e-08)
(3.27165e-07 -2.09389e-08 -7.54688e-08)
(8.69897e-08 9.79825e-09 -1.47434e-08)
(1.06681e-07 1.24342e-08 -1.45042e-08)
(1.37697e-07 1.75335e-08 -1.04793e-08)
(1.79284e-07 2.36694e-08 -1.24031e-08)
(2.22649e-07 2.81849e-08 -2.17401e-08)
(2.69498e-07 2.5215e-08 -3.17931e-08)
(3.08827e-07 1.10827e-08 -4.71644e-08)
(3.33703e-07 -9.35676e-09 -6.32284e-08)
(3.41112e-07 -3.01385e-08 -9.77302e-08)
(8.99255e-08 1.37785e-08 -1.44846e-08)
(1.0995e-07 1.71066e-08 -1.32489e-08)
(1.4701e-07 2.04004e-08 -1.47287e-08)
(1.93498e-07 2.49219e-08 -2.16667e-08)
(2.49949e-07 2.83083e-08 -3.37642e-08)
(3.03942e-07 2.94925e-08 -4.73086e-08)
(3.38733e-07 1.76624e-08 -6.15844e-08)
(3.61523e-07 -1.00677e-08 -8.62301e-08)
(3.808e-07 -4.73007e-08 -1.2595e-07)
(9.05302e-08 1.48736e-08 -1.256e-08)
(1.16878e-07 1.89761e-08 -1.30391e-08)
(1.60328e-07 2.38897e-08 -2.0644e-08)
(2.12708e-07 2.71184e-08 -3.25079e-08)
(2.7405e-07 2.74138e-08 -4.93943e-08)
(3.41153e-07 2.62737e-08 -7.3853e-08)
(3.75384e-07 1.09139e-08 -9.17342e-08)
(4.11912e-07 -1.26235e-08 -1.29444e-07)
(4.68353e-07 -6.93028e-08 -1.96252e-07)
)
;
    }
    procBoundary0to6
    {
        type            processor;
        value           uniform (6.70299e-07 -1.03457e-07 -3.75417e-07);
    }
    procBoundary0to7
    {
        type            processor;
        value           uniform (5.5198e-07 -1.20581e-07 -2.5865e-07);
    }
}


// ************************************************************************* //
