/*--------------------------------*- C++ -*----------------------------------*\
| =========                 |                                                 |
| \\      /  F ield         | OpenFOAM: The Open Source CFD Toolbox           |
|  \\    /   O peration     | Version:  4.x                                   |
|   \\  /    A nd           | Web:      www.OpenFOAM.org                      |
|    \\/     M anipulation  |                                                 |
\*---------------------------------------------------------------------------*/
FoamFile
{
    version     2.0;
    format      ascii;
    class       volScalarField;
    location    "19.5";
    object      SPartFluid;
}
// * * * * * * * * * * * * * * * * * * * * * * * * * * * * * * * * * * * * * //

dimensions      [1 -3 -1 0 0 0 0];

internalField   nonuniform List<scalar> 
132
(
5.50256e-65
4.41753e-65
3.10001e-65
2.86749e-65
3.79748e-65
4.02994e-65
4.72742e-65
3.48743e-65
1.70497e-65
4.88255e-65
4.72752e-65
4.57249e-65
5.11494e-65
3.17743e-65
5.81235e-65
4.41735e-65
4.95981e-65
3.9523e-65
2.71252e-65
5.3475e-65
4.72748e-65
4.72743e-65
4.2624e-65
4.33986e-65
3.25485e-65
4.49477e-65
6.89713e-65
2.86753e-65
4.41751e-65
3.255e-65
4.18504e-65
6.66502e-65
8.05998e-65
7.05243e-65
6.81988e-65
7.12982e-65
5.73482e-65
6.43224e-65
6.19974e-65
5.42504e-65
7.98252e-65
6.27746e-65
7.20737e-65
7.2848e-65
7.12975e-65
7.05217e-65
7.74956e-65
6.97456e-65
5.89005e-65
8.1375e-65
6.81992e-65
6.27736e-65
6.66477e-65
6.58722e-65
8.29204e-65
6.04461e-65
4.95964e-65
8.06006e-65
6.1225e-65
6.12243e-65
4.72737e-65
8.98967e-65
5.96755e-65
6.82003e-65
7.28497e-65
6.7424e-65
6.58736e-65
5.19232e-65
7.0522e-65
6.89715e-65
4.72725e-65
6.43255e-65
7.05251e-65
6.43244e-65
5.96738e-65
7.36227e-65
5.73474e-65
7.36208e-65
8.83444e-65
8.29191e-65
7.67256e-65
6.2775e-65
6.58742e-65
8.21478e-65
7.82719e-65
7.36209e-65
7.43949e-65
6.19947e-65
4.57211e-65
7.28505e-65
7.59498e-65
7.67238e-65
8.13728e-65
8.21464e-65
7.1296e-65
7.12945e-65
4.57255e-65
4.88251e-65
5.73498e-65
5.34742e-65
6.12236e-65
7.43975e-65
4.80481e-65
4.10728e-65
4.95973e-65
5.50255e-65
8.13751e-65
7.28494e-65
6.74237e-65
5.81231e-65
5.96721e-65
8.36951e-65
6.58704e-65
5.50207e-65
4.57253e-65
4.95998e-65
7.28492e-65
5.73484e-65
7.28471e-65
8.05952e-65
6.74201e-65
5.11455e-65
8.05927e-65
5.27004e-65
5.88999e-65
7.8274e-65
9.22224e-65
4.49482e-65
9.14445e-65
7.12945e-65
5.42453e-65
2.32475e-65
)
;

boundaryField
{
    inlet
    {
        type            calculated;
        value           uniform 0;
    }
    outlet
    {
        type            calculated;
        value           nonuniform 0();
    }
    wall
    {
        type            calculated;
        value           uniform 0;
    }
    procBoundary0to1
    {
        type            processor;
        value           nonuniform List<scalar> 
12
(
3.71991e-65
3.64232e-65
3.48729e-65
6.66469e-65
7.20707e-65
8.13684e-65
7.05208e-65
5.57954e-65
7.90427e-65
6.58707e-65
7.05193e-65
5.73445e-65
)
;
    }
    procBoundary0to2
    {
        type            processor;
        value           nonuniform List<scalar> 
44
(
6.50991e-65
4.8824e-65
2.55738e-65
4.88228e-65
2.24736e-65
2.63483e-65
5.73505e-65
6.51002e-65
6.50991e-65
5.11498e-65
6.50991e-65
4.8824e-65
8.44708e-65
9.7644e-65
5.73459e-65
9.22178e-65
5.42504e-65
6.82001e-65
7.67242e-65
7.82733e-65
8.44708e-65
6.97476e-65
8.44708e-65
9.7644e-65
7.59434e-65
8.13677e-65
7.28506e-65
4.96e-65
5.50242e-65
6.04484e-65
5.57977e-65
7.1296e-65
7.59434e-65
8.36944e-65
7.59434e-65
8.13677e-65
4.80503e-65
8.13748e-65
8.36989e-65
6.58733e-65
6.81972e-65
5.88966e-65
6.27705e-65
7.74934e-65
)
;
    }
    procBoundary0to4
    {
        type            processor;
        value           nonuniform List<scalar> 
36
(
5.19255e-65
7.36254e-65
7.51749e-65
5.57994e-65
5.96737e-65
5.65734e-65
7.5947e-65
6.74216e-65
8.91202e-65
7.75007e-65
6.35502e-65
7.36244e-65
8.60235e-65
8.21475e-65
7.5172e-65
6.35467e-65
5.42464e-65
9.06684e-65
6.97505e-65
8.7575e-65
6.66493e-65
8.44732e-65
6.66475e-65
5.9672e-65
6.1221e-65
9.68677e-65
5.65703e-65
4.34003e-65
5.735e-65
7.59491e-65
5.19237e-65
7.3622e-65
6.35465e-65
9.22186e-65
5.96702e-65
5.96697e-65
)
;
    }
    procBoundary0to6
    {
        type            processor;
        value           uniform 6.74188e-65;
    }
    procBoundary0to7
    {
        type            processor;
        value           uniform 9.91899e-65;
    }
}


// ************************************************************************* //
