/*--------------------------------*- C++ -*----------------------------------*\
| =========                 |                                                 |
| \\      /  F ield         | OpenFOAM: The Open Source CFD Toolbox           |
|  \\    /   O peration     | Version:  4.x                                   |
|   \\  /    A nd           | Web:      www.OpenFOAM.org                      |
|    \\/     M anipulation  |                                                 |
\*---------------------------------------------------------------------------*/
FoamFile
{
    version     2.0;
    format      ascii;
    class       volVectorField;
    location    "30.5";
    object      DDtUrel;
}
// * * * * * * * * * * * * * * * * * * * * * * * * * * * * * * * * * * * * * //

dimensions      [0 1 -2 0 0 0 0];

internalField   nonuniform List<vector> 
132
(
(0.00185131 -6.85187e-05 -0.000171188)
(0.00123838 -3.73939e-05 -9.49288e-05)
(0.000863721 -9.47401e-06 -3.54483e-05)
(0.000656899 7.87124e-06 1.08708e-06)
(0.000510782 1.74604e-05 1.8838e-05)
(0.000427365 2.19309e-05 2.63149e-05)
(0.000348853 2.50752e-05 2.60143e-05)
(0.000315151 3.37316e-05 3.02333e-05)
(0.000260305 4.43036e-05 3.13028e-05)
(0.00181761 -7.58568e-05 -0.000174433)
(0.00119316 -3.84709e-05 -9.45049e-05)
(0.000815649 -9.13547e-06 -3.62629e-05)
(0.000606258 7.84328e-06 -2.00568e-07)
(0.000461874 1.65708e-05 1.96638e-05)
(0.000381728 1.78802e-05 2.85334e-05)
(0.000307338 1.67557e-05 3.08888e-05)
(0.000271637 2.44176e-05 3.32429e-05)
(0.000220827 3.42802e-05 3.06563e-05)
(0.00178383 -5.53034e-05 -0.000177824)
(0.00114974 -2.69081e-05 -9.45853e-05)
(0.000768837 -7.42959e-06 -3.60172e-05)
(0.000552844 6.58196e-06 -5.80939e-07)
(0.000409833 1.24852e-05 1.96234e-05)
(0.000330089 1.32174e-05 3.08237e-05)
(0.000257089 1.37303e-05 3.62461e-05)
(0.00021828 1.71424e-05 3.5434e-05)
(0.000170059 2.12857e-05 2.7963e-05)
(0.00177099 -1.9554e-05 -0.000178104)
(0.00113413 -5.21791e-06 -9.38285e-05)
(0.000751318 -4.68202e-07 -3.48217e-05)
(0.00179088 -7.34952e-05 -0.000193797)
(0.00115215 -3.83427e-05 -9.73952e-05)
(0.000765171 -1.13284e-05 -3.41057e-05)
(0.000549677 5.73315e-06 5.28629e-06)
(0.000406232 1.66598e-05 1.96367e-05)
(0.000327975 2.19458e-05 2.83161e-05)
(0.00025727 2.6233e-05 2.73128e-05)
(0.000226588 3.20233e-05 3.36288e-05)
(0.00017838 3.69361e-05 3.08377e-05)
(0.001753 -8.09226e-05 -0.000199288)
(0.00110359 -3.86183e-05 -9.74985e-05)
(0.000716024 -1.01722e-05 -3.40029e-05)
(0.000498529 6.02807e-06 5.05192e-06)
(0.000357706 1.51223e-05 2.03406e-05)
(0.000282645 1.85173e-05 2.98279e-05)
(0.000216682 2.0155e-05 2.97363e-05)
(0.000188779 2.37383e-05 3.50999e-05)
(0.000146362 2.62013e-05 3.03556e-05)
(0.00171542 -5.79121e-05 -0.000205049)
(0.00105923 -2.64276e-05 -9.8922e-05)
(0.000670004 -6.88038e-06 -3.39798e-05)
(0.000451079 5.55786e-06 6.71699e-06)
(0.000312878 1.07684e-05 2.16818e-05)
(0.00023817 1.42456e-05 3.4951e-05)
(0.000176567 1.36649e-05 3.26228e-05)
(0.000148209 1.54234e-05 3.62219e-05)
(0.00011033 1.62164e-05 2.84102e-05)
(0.00170249 -1.71726e-05 -0.000209496)
(0.00104302 -6.19414e-06 -9.97819e-05)
(0.000652933 -1.97199e-07 -3.31358e-05)
(0.000434302 4.18302e-06 7.0758e-06)
(0.000297743 2.83677e-06 2.14731e-05)
(0.00174056 -8.30083e-05 -0.000178098)
(0.00107969 -4.23765e-05 -8.99375e-05)
(0.000685438 -1.27105e-05 -3.60234e-05)
(0.000464704 4.82824e-06 -1.5982e-07)
(0.000322484 1.51447e-05 1.0744e-05)
(0.000247368 2.07258e-05 2.03363e-05)
(0.000181837 2.36732e-05 1.71481e-05)
(0.000154269 2.91691e-05 2.2157e-05)
(0.000108703 3.17384e-05 1.86933e-05)
(0.00169673 -9.1583e-05 -0.000183333)
(0.00102682 -4.30025e-05 -8.91137e-05)
(0.000633552 -1.1634e-05 -3.32293e-05)
(0.000412734 6.97861e-06 2.87281e-06)
(0.000276093 1.47519e-05 1.23162e-05)
(0.000203713 2.12345e-05 2.14869e-05)
(0.00014537 1.90714e-05 2.04987e-05)
(0.000122109 2.29868e-05 2.43091e-05)
(8.55655e-05 2.1636e-05 2.07813e-05)
(0.00165264 -6.70975e-05 -0.000186657)
(0.000974945 -2.97921e-05 -8.93349e-05)
(0.000584612 -7.47573e-06 -3.20936e-05)
(0.000365798 6.65603e-06 5.10103e-06)
(0.000239102 9.68373e-06 1.45786e-05)
(0.0001676 1.52454e-05 2.56388e-05)
(0.000120079 1.22953e-05 2.36125e-05)
(9.24517e-05 1.46062e-05 2.81836e-05)
(6.85239e-05 1.37138e-05 2.34805e-05)
(0.00163576 -1.38844e-05 -0.000189191)
(0.000954523 -5.22179e-06 -8.93207e-05)
(0.000566641 -1.14509e-06 -3.10932e-05)
(0.000349655 2.10648e-06 6.27679e-06)
(0.000226899 1.71333e-06 1.46655e-05)
(0.000156611 1.54225e-06 2.52008e-05)
(0.000112026 3.30127e-06 2.34977e-05)
(0.00171425 -9.08864e-05 -0.000136204)
(0.00104131 -4.43293e-05 -7.09219e-05)
(0.000639611 -1.2475e-05 -3.0813e-05)
(0.000412908 6.44092e-06 -3.13331e-06)
(0.000270094 1.35147e-05 5.33339e-06)
(0.000192492 1.82595e-05 1.27955e-05)
(0.00013083 2.10691e-05 1.23024e-05)
(0.000102726 2.4387e-05 1.88715e-05)
(5.83963e-05 2.26434e-05 2.14279e-05)
(0.00166475 -9.83448e-05 -0.000137916)
(0.000982377 -4.44763e-05 -6.8919e-05)
(0.000584892 -1.23062e-05 -2.80395e-05)
(0.000361955 6.87737e-06 -7.55659e-08)
(0.000228284 1.19316e-05 7.2005e-06)
(0.000155385 1.84143e-05 1.4168e-05)
(0.00010179 1.63821e-05 1.36779e-05)
(7.609e-05 2.09748e-05 1.73131e-05)
(4.38525e-05 1.7415e-05 1.72875e-05)
(0.00161912 -6.89961e-05 -0.000137268)
(0.000929098 -3.04084e-05 -6.55067e-05)
(0.000537384 -8.34261e-06 -2.54549e-05)
(0.000316038 6.26514e-06 1.38573e-06)
(0.000194472 8.31248e-06 8.08681e-06)
(0.000121227 1.36473e-05 1.39342e-05)
(8.14792e-05 1.11018e-05 1.51993e-05)
(5.17742e-05 1.2442e-05 1.89906e-05)
(3.34519e-05 1.12328e-05 1.60611e-05)
(0.00160375 -1.39143e-05 -0.000136128)
(0.000908811 -3.31108e-06 -6.52516e-05)
(0.000520457 -7.24397e-08 -2.55927e-05)
(0.000302109 2.5153e-06 3.64051e-07)
(0.000183951 1.90964e-06 7.93713e-06)
(0.000114319 1.69813e-06 1.38775e-05)
(7.48614e-05 2.39168e-06 1.45534e-05)
(4.71934e-05 3.62358e-06 1.71045e-05)
(3.00232e-05 3.33734e-06 1.51966e-05)
)
;

boundaryField
{
    inlet
    {
        type            calculated;
        value           nonuniform List<vector> 
16
(
(0.0041252 -0.000131648 -0.000339091)
(0.00403952 -0.000266828 -0.000356872)
(0.0039836 -0.000185892 -0.000373656)
(0.00400059 -9.42598e-05 -0.000371123)
(0.0039459 -0.000150753 -0.000606753)
(0.0038306 -0.000294063 -0.000653302)
(0.00374866 -0.000194084 -0.000692616)
(0.00377086 -7.06384e-05 -0.000769174)
(0.00394247 -0.000193411 -0.000527891)
(0.00379357 -0.00036216 -0.000584704)
(0.00367557 -0.000298244 -0.000599428)
(0.00363081 -2.78449e-05 -0.000638513)
(0.00396732 -0.000233082 -0.000395466)
(0.00377277 -0.000398198 -0.000430272)
(0.00366217 -0.000275166 -0.000428224)
(0.00366395 -4.86724e-05 -0.00039956)
)
;
    }
    outlet
    {
        type            calculated;
        value           nonuniform 0();
    }
    wall
    {
        type            calculated;
        value           nonuniform List<vector> 
66
(
(0.0041252 -0.000131648 -0.000339091)
(0.00403952 -0.000266828 -0.000356872)
(0.0039836 -0.000185892 -0.000373656)
(0.00400059 -9.42598e-05 -0.000371123)
(0.000868654 -2.08442e-05 -3.42584e-05)
(0.000661977 -5.065e-05 -1.35537e-05)
(0.000521427 -3.04822e-05 -3.91413e-06)
(0.000547802 3.32195e-05 1.16818e-05)
(0.000769997 2.94993e-05 3.70901e-05)
(0.000572233 2.9899e-05 2.53789e-05)
(0.000447437 -7.49508e-06 2.97825e-05)
(0.000481512 -2.4764e-06 3.97176e-05)
(0.000943336 3.9651e-05 5.31097e-05)
(0.000733954 4.38855e-05 3.34326e-05)
(0.000526403 4.20151e-05 2.30959e-05)
(0.000777696 3.91667e-05 4.71464e-05)
(0.0005828 5.48333e-05 5.5797e-05)
(0.000399984 5.15605e-05 3.68997e-05)
(0.000855882 3.86115e-05 3.85562e-05)
(0.000684879 2.57007e-05 4.5427e-05)
(0.000480896 2.60888e-05 2.97178e-05)
(0.000611196 2.91662e-05 -7.57223e-06)
(0.000486324 -3.83571e-05 3.29175e-05)
(0.000278352 1.52517e-05 7.42845e-05)
(0.000788117 6.12568e-05 2.08159e-05)
(0.000604644 1.31082e-05 4.60701e-05)
(0.000309285 1.99214e-05 5.12007e-05)
(0.00051484 0.000139226 4.45059e-05)
(0.000352638 9.22634e-05 2.69978e-05)
(8.93828e-05 2.48876e-05 -2.78167e-05)
(0.0041252 -0.000131648 -0.000339091)
(0.0039459 -0.000150753 -0.000606753)
(0.00394247 -0.000193411 -0.000527891)
(0.00396732 -0.000233082 -0.000395466)
(0.000868654 -2.08442e-05 -3.42584e-05)
(0.000443036 -1.67163e-06 -2.01559e-05)
(0.000273412 -1.13495e-05 -1.69532e-05)
(0.000263089 2.94384e-06 -2.08337e-05)
(0.000769997 2.94993e-05 3.70901e-05)
(0.000302534 1.59597e-05 5.2951e-05)
(0.000178342 1.83374e-05 -7.94799e-06)
(0.000155441 3.24167e-05 -6.46078e-06)
(0.000943336 3.9651e-05 5.31097e-05)
(0.000404637 2.08808e-05 0.000116684)
(0.000267878 1.3868e-05 6.37848e-05)
(0.000204431 4.84629e-05 4.6673e-05)
(0.000777696 3.91667e-05 4.71464e-05)
(0.00028023 4.18305e-05 6.54764e-05)
(0.000151393 3.20791e-05 -5.28049e-07)
(9.22359e-05 1.89172e-05 -1.77727e-06)
(0.000855882 3.86115e-05 3.85562e-05)
(0.000384848 3.94962e-05 8.56171e-05)
(0.000271114 3.15372e-05 5.68253e-05)
(0.000148697 1.62371e-05 3.13751e-05)
(0.000611196 2.91662e-05 -7.57223e-06)
(0.000202268 5.13277e-05 3.12426e-05)
(9.56822e-05 2.96547e-05 -3.59969e-05)
(1.16374e-05 3.85981e-05 -1.87039e-05)
(0.000788117 6.12568e-05 2.08159e-05)
(0.000349484 6.37052e-05 0.00010418)
(0.000247456 6.34562e-05 1.79407e-05)
(0.000119634 5.61742e-05 3.26636e-05)
(0.00051484 0.000139226 4.45059e-05)
(0.000126421 7.78807e-05 6.34925e-05)
(2.00587e-05 6.78966e-05 -4.50068e-05)
(-8.79845e-05 1.24423e-05 5.79855e-05)
)
;
    }
    procBoundary0to1
    {
        type            processor;
        value           nonuniform List<vector> 
12
(
(0.000241503 4.20473e-05 2.93515e-05)
(0.000210313 3.67218e-05 3.14502e-05)
(0.000158624 2.81968e-05 3.1166e-05)
(0.000164827 3.73406e-05 2.94888e-05)
(0.000137249 3.11114e-05 3.41009e-05)
(9.37882e-05 1.92517e-05 3.37362e-05)
(9.40492e-05 3.64239e-05 1.88773e-05)
(7.59534e-05 2.85223e-05 2.30645e-05)
(4.51742e-05 1.61914e-05 2.4841e-05)
(3.66494e-05 2.71765e-05 2.12881e-05)
(2.58135e-05 2.2387e-05 1.711e-05)
(1.00481e-05 1.25097e-05 1.51929e-05)
)
;
    }
    procBoundary0to2
    {
        type            processor;
        value           nonuniform List<vector> 
44
(
(0.000532692 3.36033e-06 1.12889e-07)
(0.000391029 2.82782e-06 2.13933e-05)
(0.000314071 3.54487e-06 3.54406e-05)
(0.000244323 7.18808e-06 3.93916e-05)
(0.000215228 9.8959e-06 3.8741e-05)
(0.000166012 9.35871e-06 3.1822e-05)
(0.00177253 2.30365e-05 -0.000173141)
(0.00113214 1.50427e-05 -9.48261e-05)
(0.000532692 3.36033e-06 1.12889e-07)
(0.000746689 7.83239e-06 -3.41963e-05)
(0.000532692 3.36033e-06 1.12889e-07)
(0.000391029 2.82782e-06 2.13933e-05)
(0.000225999 3.78486e-06 3.62324e-05)
(0.000167897 5.28243e-06 3.25557e-05)
(0.000145246 8.58564e-06 3.68271e-05)
(0.00010644 8.49379e-06 2.69282e-05)
(0.00171026 2.84756e-05 -0.000198997)
(0.00104735 1.5139e-05 -9.81568e-05)
(0.000655887 7.93422e-06 -3.3865e-05)
(0.000437084 1.41557e-06 6.03589e-06)
(0.000225999 3.78486e-06 3.62324e-05)
(0.000302014 -5.03943e-06 1.96539e-05)
(0.000225999 3.78486e-06 3.62324e-05)
(0.000167897 5.28243e-06 3.25557e-05)
(8.41306e-05 4.39575e-06 2.64636e-05)
(6.09435e-05 5.80125e-06 2.2199e-05)
(0.00165356 3.80323e-05 -0.000183425)
(0.00097085 1.70709e-05 -8.63328e-05)
(0.00057923 6.4481e-06 -3.15216e-05)
(0.00036157 -1.54641e-06 4.04027e-06)
(0.000233616 -5.32802e-06 1.37679e-05)
(0.000165825 -1.11156e-05 2.43145e-05)
(8.41306e-05 4.39575e-06 2.64636e-05)
(0.000116423 -6.58797e-06 2.17117e-05)
(8.41306e-05 4.39575e-06 2.64636e-05)
(6.09435e-05 5.80125e-06 2.2199e-05)
(0.00161999 4.33954e-05 -0.000138707)
(0.000926422 2.07457e-05 -6.42852e-05)
(0.00053535 6.94569e-06 -2.6721e-05)
(0.000317454 -2.07911e-06 -4.26093e-07)
(0.000193819 -3.93882e-06 7.64945e-06)
(0.000124666 -8.16508e-06 1.42591e-05)
(8.13251e-05 -6.04018e-06 1.31723e-05)
(5.40477e-05 -5.06855e-06 1.715e-05)
)
;
    }
    procBoundary0to4
    {
        type            processor;
        value           nonuniform List<vector> 
36
(
(0.00171378 -9.4136e-05 -7.70148e-05)
(0.0010288 -4.60431e-05 -4.36441e-05)
(0.000621637 -1.34026e-05 -2.32059e-05)
(0.000391463 6.4462e-06 -5.13698e-06)
(0.00024849 1.41815e-05 1.42343e-06)
(0.000172112 1.83199e-05 6.18003e-06)
(0.000112324 1.68633e-05 8.68699e-06)
(8.95054e-05 1.80077e-05 1.68686e-05)
(4.63751e-05 1.56386e-05 1.92699e-05)
(0.00166259 -0.000100999 -7.23903e-05)
(0.00096958 -4.40149e-05 -4.00403e-05)
(0.00056757 -1.16758e-05 -2.04396e-05)
(0.000344227 7.79672e-06 -4.54787e-06)
(0.000209767 1.23352e-05 1.89775e-06)
(0.000138719 1.73321e-05 6.61817e-06)
(8.65281e-05 1.43321e-05 8.43798e-06)
(6.473e-05 1.68851e-05 1.3244e-05)
(3.21417e-05 1.27464e-05 1.2914e-05)
(0.00161833 -7.0135e-05 -6.92992e-05)
(0.000917595 -3.00575e-05 -3.62683e-05)
(0.000524168 -8.65652e-06 -1.68311e-05)
(0.000305328 4.5852e-06 -2.41242e-06)
(0.000180813 7.70484e-06 2.73272e-06)
(0.000111935 1.24174e-05 5.89066e-06)
(6.85416e-05 1.00748e-05 7.1529e-06)
(4.50296e-05 1.11429e-05 8.93306e-06)
(2.1722e-05 8.13017e-06 7.73393e-06)
(0.00160247 -1.60676e-05 -6.83353e-05)
(0.000897262 -4.23846e-06 -3.50538e-05)
(0.000507439 -2.30067e-06 -1.71605e-05)
(0.00028856 3.65601e-07 -3.50389e-06)
(0.000168778 1.18632e-06 2.7068e-06)
(9.90209e-05 1.72835e-06 5.33441e-06)
(6.07229e-05 1.56076e-06 5.74008e-06)
(3.49611e-05 2.47605e-06 7.35369e-06)
(1.6818e-05 1.4522e-06 5.36048e-06)
)
;
    }
    procBoundary0to6
    {
        type            processor;
        value           uniform (3.456e-05 -3.11259e-06 1.20622e-05);
    }
    procBoundary0to7
    {
        type            processor;
        value           uniform (1.50148e-05 4.3209e-06 1.55868e-05);
    }
}


// ************************************************************************* //
