/*--------------------------------*- C++ -*----------------------------------*\
| =========                 |                                                 |
| \\      /  F ield         | OpenFOAM: The Open Source CFD Toolbox           |
|  \\    /   O peration     | Version:  4.x                                   |
|   \\  /    A nd           | Web:      www.OpenFOAM.org                      |
|    \\/     M anipulation  |                                                 |
\*---------------------------------------------------------------------------*/
FoamFile
{
    version     2.0;
    format      ascii;
    class       volScalarField;
    location    "30.5";
    object      particleRelTemp;
}
// * * * * * * * * * * * * * * * * * * * * * * * * * * * * * * * * * * * * * //

dimensions      [0 0 0 0 0 0 0];

internalField   nonuniform List<scalar> 
132
(
-4.86771e-09
-4.55462e-09
-4.21893e-09
-3.55712e-09
-3.25059e-09
-2.76409e-09
-2.25649e-09
-1.74891e-09
-1.40905e-09
-4.8141e-09
-4.29651e-09
-3.76954e-09
-3.35702e-09
-2.64938e-09
-2.05358e-09
-1.06944e-09
-6.59537e-10
1.04002e-11
-4.65887e-09
-4.21052e-09
-3.64856e-09
-2.96385e-09
-2.27197e-09
-1.46077e-09
-5.63055e-10
1.95383e-10
6.00297e-10
-4.96879e-09
-4.2899e-09
-4.01322e-09
-4.90919e-09
-4.36393e-09
-3.81453e-09
-3.22744e-09
-2.61976e-09
-1.89009e-09
-1.56129e-09
-7.97985e-10
-3.29771e-10
-4.83677e-09
-4.25347e-09
-3.43838e-09
-2.77959e-09
-2.15002e-09
-1.41552e-09
-4.89319e-10
3.55024e-10
9.04739e-10
-4.79364e-09
-4.09658e-09
-3.30648e-09
-2.58047e-09
-1.65345e-09
-1.00406e-09
1.69885e-10
1.08893e-09
1.79564e-09
-4.74026e-09
-4.09093e-09
-3.28535e-09
-2.3147e-09
-1.59563e-09
-4.80732e-09
-4.3424e-09
-3.62225e-09
-2.83254e-09
-2.11946e-09
-1.18302e-09
-5.31396e-10
1.01251e-10
6.72986e-10
-4.73149e-09
-4.10257e-09
-3.32939e-09
-2.56635e-09
-1.59742e-09
-6.21323e-10
2.24305e-10
1.12479e-09
1.76022e-09
-4.73022e-09
-4.06713e-09
-3.14493e-09
-2.1937e-09
-1.18654e-09
1.06773e-10
1.18768e-09
2.34642e-09
2.65729e-09
-4.69675e-09
-3.90581e-09
-3.05015e-09
-2.20331e-09
-1.05253e-09
-1.105e-10
1.57007e-09
-4.89499e-09
-4.23827e-09
-3.66462e-09
-2.85489e-09
-2.01032e-09
-1.0737e-09
-4.72455e-10
5.84378e-10
1.06804e-09
-4.79098e-09
-4.1992e-09
-3.4543e-09
-2.43732e-09
-1.43184e-09
-3.22339e-10
7.33626e-10
1.46426e-09
2.30413e-09
-4.53483e-09
-3.95786e-09
-3.24863e-09
-1.93788e-09
-9.90414e-10
4.7203e-10
1.60649e-09
2.63215e-09
3.04267e-09
-4.69262e-09
-4.05277e-09
-3.13116e-09
-1.95551e-09
-9.34063e-10
3.70133e-10
1.91302e-09
2.66957e-09
3.42673e-09
)
;

boundaryField
{
    inlet
    {
        type            calculated;
        value           nonuniform List<scalar> 
16
(
-4.86771e-09
-4.8141e-09
-4.65887e-09
-4.96879e-09
-4.90919e-09
-4.83677e-09
-4.79364e-09
-4.74026e-09
-4.80732e-09
-4.73149e-09
-4.73022e-09
-4.69675e-09
-4.89499e-09
-4.79098e-09
-4.53483e-09
-4.69262e-09
)
;
    }
    outlet
    {
        type            calculated;
        value           nonuniform 0();
    }
    wall
    {
        type            calculated;
        value           nonuniform List<scalar> 
66
(
-4.86771e-09
-4.8141e-09
-4.65887e-09
-4.96879e-09
-4.55462e-09
-4.29651e-09
-4.21052e-09
-4.2899e-09
-4.21893e-09
-3.76954e-09
-3.64856e-09
-4.01322e-09
-3.55712e-09
-3.35702e-09
-2.96385e-09
-3.25059e-09
-2.64938e-09
-2.27197e-09
-2.76409e-09
-2.05358e-09
-1.46077e-09
-2.25649e-09
-1.06944e-09
-5.63055e-10
-1.74891e-09
-6.59537e-10
1.95383e-10
-1.40905e-09
1.04002e-11
6.00297e-10
-4.86771e-09
-4.90919e-09
-4.80732e-09
-4.89499e-09
-4.55462e-09
-4.36393e-09
-4.3424e-09
-4.23827e-09
-4.21893e-09
-3.81453e-09
-3.62225e-09
-3.66462e-09
-3.55712e-09
-3.22744e-09
-2.83254e-09
-2.85489e-09
-3.25059e-09
-2.61976e-09
-2.11946e-09
-2.01032e-09
-2.76409e-09
-1.89009e-09
-1.18302e-09
-1.0737e-09
-2.25649e-09
-1.56129e-09
-5.31396e-10
-4.72455e-10
-1.74891e-09
-7.97985e-10
1.01251e-10
5.84378e-10
-1.40905e-09
-3.29771e-10
6.72986e-10
1.06804e-09
)
;
    }
    procBoundary0to1
    {
        type            processor;
        value           nonuniform List<scalar> 
12
(
-8.23575e-10
3.92794e-10
1.31128e-09
1.28661e-10
7.67124e-10
2.48112e-09
1.08126e-09
2.33864e-09
3.19278e-09
1.48712e-09
2.6025e-09
3.75197e-09
)
;
    }
    procBoundary0to2
    {
        type            processor;
        value           nonuniform List<scalar> 
44
(
-3.07512e-09
-2.36742e-09
-1.1339e-09
-3.96855e-10
5.33636e-10
6.35446e-10
-4.85234e-09
-4.37179e-09
-3.07512e-09
-3.83191e-09
-3.07512e-09
-2.36742e-09
-6.52768e-10
4.46353e-10
1.24867e-09
1.86419e-09
-4.88351e-09
-4.32862e-09
-3.56152e-09
-2.73824e-09
-6.52768e-10
-1.95681e-09
-6.52768e-10
4.46353e-10
2.40979e-09
2.995e-09
-4.73026e-09
-4.18967e-09
-3.32733e-09
-2.39792e-09
-1.36316e-09
-1.76171e-10
2.40979e-09
7.6059e-10
2.40979e-09
2.995e-09
-4.70347e-09
-3.93092e-09
-3.12517e-09
-2.28495e-09
-1.2068e-09
2.2718e-12
1.12643e-09
2.39497e-09
)
;
    }
    procBoundary0to4
    {
        type            processor;
        value           nonuniform List<scalar> 
36
(
-4.8438e-09
-4.41722e-09
-3.77788e-09
-3.02164e-09
-2.35908e-09
-1.61634e-09
-5.63007e-10
2.98108e-10
7.60269e-10
-4.78083e-09
-4.27762e-09
-3.47358e-09
-2.6544e-09
-1.67629e-09
-7.56862e-10
2.07641e-10
1.18382e-09
1.89791e-09
-4.75485e-09
-4.09612e-09
-3.12335e-09
-2.27043e-09
-1.16587e-09
-1.44277e-10
1.0539e-09
2.03888e-09
2.68344e-09
-4.74977e-09
-4.11977e-09
-3.17053e-09
-2.23955e-09
-9.19161e-10
1.83195e-10
1.41643e-09
2.28798e-09
3.15447e-09
)
;
    }
    procBoundary0to6
    {
        type            processor;
        value           uniform 2.90429e-09;
    }
    procBoundary0to7
    {
        type            processor;
        value           uniform 4.05739e-09;
    }
}


// ************************************************************************* //
