/*--------------------------------*- C++ -*----------------------------------*\
| =========                 |                                                 |
| \\      /  F ield         | OpenFOAM: The Open Source CFD Toolbox           |
|  \\    /   O peration     | Version:  4.x                                   |
|   \\  /    A nd           | Web:      www.OpenFOAM.org                      |
|    \\/     M anipulation  |                                                 |
\*---------------------------------------------------------------------------*/
FoamFile
{
    version     2.0;
    format      ascii;
    class       volVectorField;
    location    "30.5";
    object      Us;
}
// * * * * * * * * * * * * * * * * * * * * * * * * * * * * * * * * * * * * * //

dimensions      [0 1 -1 0 0 0 0];

internalField   nonuniform List<vector> 
132
(
(-4.51452e-10 1.75766e-10 -1.13244e-10)
(-6.5791e-10 4.68347e-10 1.64793e-10)
(3.88425e-09 -7.26282e-10 1.1082e-09)
(1.30048e-09 -7.91919e-10 -7.8255e-10)
(-1.50152e-09 -7.61358e-10 1.99673e-11)
(-2.47568e-09 -7.64773e-10 2.56912e-10)
(-2.39205e-09 -1.2404e-10 3.92856e-10)
(-5.11673e-09 -2.1235e-10 -6.30348e-10)
(-7.66373e-09 1.13821e-09 -5.46597e-10)
(-2.81238e-10 2.46791e-10 -4.46568e-10)
(-7.07205e-10 1.02062e-09 -2.87057e-10)
(8.20089e-10 6.02013e-10 -4.59942e-10)
(-2.20885e-10 -1.3503e-09 -2.20144e-10)
(-9.99831e-10 -1.71986e-09 6.84674e-10)
(-2.93374e-09 -1.44717e-09 9.22798e-10)
(-2.53292e-09 -4.39157e-10 1.44575e-09)
(-5.38567e-09 7.00862e-10 2.39684e-09)
(-8.40918e-09 -2.19932e-09 5.81755e-09)
(-4.79922e-10 6.03762e-10 -2.79246e-10)
(-3.88413e-10 5.00161e-10 -1.77585e-10)
(2.34915e-10 3.14548e-10 -3.52502e-11)
(-1.12452e-10 -1.30351e-09 7.94052e-11)
(-1.58461e-10 -2.204e-09 3.60014e-10)
(-2.15212e-09 -1.72972e-09 1.7024e-09)
(-2.70858e-09 -9.91541e-10 2.41058e-09)
(-4.17134e-09 -2.79275e-09 3.88132e-09)
(-6.13981e-09 -2.18923e-09 4.26397e-09)
(1.11195e-10 2.25826e-10 1.98264e-10)
(-2.76527e-10 1.4184e-10 -4.43124e-11)
(-4.09723e-10 -5.18786e-11 -1.31947e-10)
(-1.40782e-11 9.37096e-11 3.94171e-10)
(-2.08775e-10 2.4541e-10 9.04475e-10)
(9.96205e-10 6.95062e-11 1.34242e-09)
(1.04128e-09 -5.20383e-10 -1.07473e-09)
(-5.19417e-10 -6.86465e-10 -8.3154e-11)
(-1.26975e-09 -1.04044e-09 3.69632e-10)
(-2.08703e-09 -3.84605e-10 4.18107e-10)
(-4.46561e-09 -6.54083e-10 -6.55658e-10)
(-8.09988e-09 -3.38988e-09 3.81629e-09)
(1.06616e-10 2.44076e-10 3.29412e-10)
(2.17653e-10 4.32319e-10 7.32215e-10)
(1.47401e-09 -3.64617e-11 1.029e-09)
(5.77364e-10 -6.8846e-10 -9.03585e-11)
(-7.59697e-10 -1.32833e-09 8.10439e-10)
(-1.53214e-09 -1.20477e-09 9.22885e-10)
(-3.01029e-09 -3.99731e-10 1.8023e-09)
(-4.76309e-09 1.2281e-10 2.07505e-09)
(-8.2145e-09 7.39433e-10 6.83494e-09)
(1.57238e-10 1.29454e-10 3.19419e-10)
(2.08056e-10 2.2831e-10 3.85135e-10)
(8.14507e-10 -2.26491e-10 3.62431e-10)
(6.93886e-10 -1.0314e-09 4.97181e-10)
(2.23942e-11 -1.5975e-09 6.93157e-10)
(-1.52135e-09 -1.79031e-09 1.52153e-09)
(-2.7881e-09 -1.36134e-09 2.78332e-09)
(-3.8466e-09 -9.23645e-10 4.25145e-09)
(-5.16486e-09 -2.25235e-10 5.49042e-09)
(9.7756e-11 7.10998e-11 3.95198e-10)
(4.44866e-11 -2.83066e-11 4.30081e-10)
(5.62763e-10 -3.01343e-10 3.13507e-10)
(2.40603e-11 -1.12567e-09 9.64542e-10)
(-6.35054e-10 -1.07117e-09 7.17775e-10)
(4.31716e-11 1.99403e-11 2.93804e-10)
(7.75434e-11 2.70705e-11 3.60509e-10)
(5.12421e-10 -1.17872e-10 4.91576e-10)
(-4.56292e-11 -2.81814e-10 -1.89304e-10)
(1.22854e-10 -4.46912e-10 -2.5746e-10)
(-1.73278e-10 -5.99154e-10 6.79251e-13)
(-4.25872e-10 -4.65919e-10 2.33804e-10)
(-1.76185e-09 -2.89946e-10 3.11013e-10)
(-5.46031e-09 -1.41768e-09 4.99277e-09)
(1.90169e-11 1.95585e-10 2.3129e-10)
(2.35313e-10 1.75027e-10 3.14218e-10)
(7.51149e-10 -8.31018e-11 3.71258e-10)
(2.83962e-10 -6.35359e-10 -4.37279e-11)
(1.63751e-10 -9.24432e-10 2.89976e-10)
(-5.06954e-10 -6.82712e-10 7.18337e-10)
(-8.99166e-10 -4.6497e-10 1.25589e-09)
(-2.41943e-09 4.86469e-10 1.64733e-09)
(-7.11557e-09 2.54529e-09 6.35522e-09)
(1.13143e-10 3.25423e-11 1.93938e-11)
(4.98197e-10 5.87816e-12 1.29849e-10)
(1.01222e-09 -2.82412e-10 1.01591e-10)
(9.64209e-10 -6.5074e-10 -4.0705e-11)
(5.01575e-10 -1.29172e-09 2.00896e-11)
(-9.69722e-10 -6.19898e-10 6.28691e-10)
(4.03623e-10 -3.32551e-10 2.04476e-09)
(-3.60739e-09 4.4732e-10 3.12107e-09)
(-4.97218e-09 2.87388e-09 5.50696e-09)
(5.16198e-11 -1.14096e-10 -1.37282e-11)
(4.14328e-10 -5.46641e-10 -4.23808e-11)
(9.21254e-10 -8.17098e-10 -2.56803e-10)
(5.43275e-10 -9.79105e-10 6.41191e-11)
(-3.59124e-10 -1.12391e-09 2.86803e-10)
(-1.93708e-09 -1.21304e-09 1.06082e-09)
(-3.03553e-09 -1.18795e-09 1.9668e-09)
(9.05579e-11 -5.86837e-12 2.21744e-10)
(-1.77541e-10 -2.08893e-10 2.24088e-10)
(2.84384e-10 -5.52311e-11 1.30317e-10)
(-2.23517e-10 -3.28315e-10 -1.84101e-10)
(-9.05977e-11 -3.46726e-10 -2.9525e-10)
(-3.3222e-10 -3.29732e-10 -1.15381e-10)
(-6.43517e-10 -1.28216e-10 5.73973e-10)
(-2.55143e-09 2.41109e-10 1.15284e-09)
(-3.94368e-09 5.56915e-11 3.42802e-09)
(3.80762e-11 -1.09711e-10 1.62013e-10)
(-2.411e-10 -3.46775e-10 1.49824e-10)
(6.61885e-11 -8.47885e-10 3.66071e-11)
(-5.332e-10 -9.15903e-10 5.08694e-11)
(-6.24662e-10 -1.18134e-09 1.52691e-10)
(-1.49084e-09 -7.31334e-10 8.60247e-11)
(-2.32912e-09 1.21572e-10 1.13908e-09)
(-3.79951e-09 3.56245e-10 1.38475e-09)
(-5.59049e-09 1.98284e-09 3.02507e-09)
(-2.1796e-10 -1.29192e-10 -5.36553e-11)
(-3.8447e-10 -2.78449e-10 -5.11429e-11)
(-5.16328e-11 -5.23719e-10 2.93809e-11)
(-1.88929e-09 -6.84218e-10 -2.31982e-10)
(-1.36394e-09 -1.24188e-09 -9.25475e-11)
(-3.18918e-09 -6.52028e-10 5.08139e-11)
(-3.16487e-09 -1.18157e-10 1.46086e-09)
(-4.5393e-09 8.55973e-11 2.05581e-09)
(-5.12709e-09 2.68783e-09 3.52895e-09)
(-1.53922e-10 -7.78405e-11 -1.94838e-10)
(-4.84837e-10 -9.13302e-11 -3.42689e-10)
(-9.02055e-10 -1.72061e-10 -1.3124e-10)
(-3.32416e-09 -7.47332e-10 -3.97125e-10)
(-4.01891e-09 -1.2846e-09 -8.139e-10)
(-4.77293e-09 -8.53541e-10 6.55016e-10)
(-5.28602e-09 -4.86522e-10 1.66113e-09)
(-5.87451e-09 -3.3842e-10 2.40737e-09)
(-7.11244e-09 -7.75882e-10 3.89221e-09)
)
;

boundaryField
{
    inlet
    {
        type            zeroGradient;
    }
    outlet
    {
        type            zeroGradient;
    }
    wall
    {
        type            zeroGradient;
    }
    procBoundary0to1
    {
        type            processor;
        value           nonuniform List<vector> 
12
(
(1.06934e-09 8.18101e-09 2.72362e-08)
(-1.00131e-08 -4.09068e-09 1.37149e-08)
(-1.16629e-08 -4.91174e-09 9.98803e-09)
(-1.38093e-08 5.56053e-09 1.89973e-08)
(-1.45415e-08 1.7404e-09 1.54212e-08)
(-8.47444e-09 -6.27331e-10 9.50913e-09)
(-5.40012e-09 6.35106e-10 4.01394e-09)
(-7.27221e-09 2.11441e-09 7.46717e-09)
(-4.32257e-09 7.85394e-10 6.24291e-09)
(-4.22206e-09 5.64982e-10 2.64668e-09)
(-6.99188e-09 2.03097e-09 3.6869e-09)
(-5.04554e-09 1.44614e-09 3.40229e-09)
)
;
    }
    procBoundary0to2
    {
        type            processor;
        value           nonuniform List<vector> 
44
(
(-8.73758e-10 -8.98506e-10 4.75732e-10)
(-1.19303e-09 -1.49824e-09 4.12101e-10)
(-3.47033e-09 -1.94281e-09 2.30611e-09)
(-4.76551e-09 -1.8831e-09 2.72607e-09)
(-7.16743e-09 -2.7633e-09 3.60301e-09)
(-9.18277e-09 -2.49111e-09 3.47447e-09)
(3.35594e-09 -1.24614e-09 -3.54719e-10)
(-6.38276e-10 1.99981e-11 2.0015e-11)
(-8.73758e-10 -8.98506e-10 4.75732e-10)
(-6.7185e-10 -1.32847e-10 1.24548e-10)
(-8.73758e-10 -8.98506e-10 4.75732e-10)
(-1.19303e-09 -1.49824e-09 4.12101e-10)
(-1.66712e-09 -1.73025e-09 2.0902e-09)
(-3.71637e-09 -2.02661e-09 2.87593e-09)
(-6.52627e-09 -1.88337e-09 4.00121e-09)
(-7.35445e-09 -1.87001e-09 4.22614e-09)
(-1.40546e-10 1.703e-11 5.76996e-11)
(-4.78999e-10 -5.94389e-11 2.40275e-10)
(-6.25644e-10 -1.81694e-10 3.02938e-10)
(-9.4376e-10 -5.52673e-10 5.93951e-10)
(-1.66712e-09 -1.73025e-09 2.0902e-09)
(-1.27389e-09 -3.61242e-10 8.27462e-10)
(-1.66712e-09 -1.73025e-09 2.0902e-09)
(-3.71637e-09 -2.02661e-09 2.87593e-09)
(-5.311e-09 -1.32939e-09 3.2105e-09)
(-6.81658e-09 -1.38042e-09 4.66382e-09)
(-1.37412e-10 -2.1216e-10 -1.55006e-10)
(-4.22447e-10 -3.71564e-11 -1.57926e-10)
(-5.18403e-10 -1.64574e-10 -1.23866e-10)
(-1.12141e-09 -4.28391e-10 -1.56584e-10)
(-1.14449e-09 -5.71687e-10 3.19536e-10)
(-2.82303e-09 -1.3058e-09 1.55596e-09)
(-5.311e-09 -1.32939e-09 3.2105e-09)
(-3.487e-09 -9.77911e-10 1.81318e-09)
(-5.311e-09 -1.32939e-09 3.2105e-09)
(-6.81658e-09 -1.38042e-09 4.66382e-09)
(-2.14632e-10 3.86387e-11 -1.75469e-10)
(-8.91234e-10 2.35757e-10 -3.48996e-10)
(-1.18385e-09 3.21575e-10 -3.51445e-10)
(-2.01302e-09 7.13212e-11 -1.2342e-10)
(-2.61143e-09 -3.46339e-10 1.1944e-10)
(-3.88633e-09 -3.0701e-10 8.48798e-10)
(-4.3176e-09 -5.28895e-10 1.61797e-09)
(-5.45987e-09 -1.0092e-09 1.80071e-09)
)
;
    }
    procBoundary0to4
    {
        type            processor;
        value           nonuniform List<vector> 
36
(
(-5.0577e-11 -7.53745e-11 1.74917e-10)
(-1.85242e-10 -1.38241e-10 2.12589e-10)
(-9.59658e-11 -2.17215e-10 2.16798e-10)
(1.28891e-10 -2.83414e-10 2.13454e-10)
(5.12448e-10 -3.08528e-10 2.07059e-10)
(4.6901e-10 -1.39031e-10 -1.7031e-10)
(-1.20773e-10 -3.67767e-10 4.73221e-10)
(-4.06121e-10 -8.87583e-11 4.24573e-10)
(-1.78955e-09 1.0367e-10 1.15946e-09)
(-1.00333e-10 -1.31312e-10 1.61181e-10)
(-3.64368e-10 -4.01459e-10 2.47777e-10)
(-4.16084e-10 -6.36292e-10 3.11009e-10)
(-5.7536e-10 -6.37741e-10 2.82157e-10)
(-8.56184e-10 -8.86173e-10 2.65251e-10)
(-9.2013e-10 -5.78096e-10 -1.52758e-10)
(-1.52334e-09 -6.96836e-10 9.69337e-10)
(-2.61697e-09 3.66695e-10 1.00579e-09)
(-4.20161e-09 9.44343e-10 2.10809e-09)
(-2.02405e-10 -1.40628e-10 9.09163e-11)
(-6.92059e-10 -4.09768e-10 6.75809e-11)
(-1.23524e-09 -6.79429e-10 2.32364e-10)
(-2.03931e-09 -5.23504e-10 1.10293e-10)
(-2.70761e-09 -1.20913e-09 1.31946e-10)
(-3.70019e-09 -8.60819e-10 2.79211e-10)
(-3.94963e-09 -1.52779e-10 9.12274e-10)
(-4.20043e-09 -1.53055e-10 8.1304e-10)
(-4.08851e-09 6.79635e-10 6.76223e-10)
(-2.37033e-10 -8.6166e-11 -4.24217e-11)
(-9.04846e-10 -2.82055e-10 1.32734e-10)
(-1.94758e-09 -2.80006e-10 6.51602e-10)
(-3.06259e-09 -4.2025e-10 5.3278e-10)
(-4.17807e-09 -9.33112e-10 4.27543e-10)
(-5.65366e-09 -7.67118e-10 6.14125e-10)
(-4.75592e-09 1.37703e-10 1.63162e-09)
(-5.51799e-09 -8.98798e-10 1.51315e-09)
(-5.03031e-09 -2.17933e-10 9.52063e-10)
)
;
    }
    procBoundary0to6
    {
        type            processor;
        value           uniform (-5.65852e-09 -1.09292e-09 2.6172e-09);
    }
    procBoundary0to7
    {
        type            processor;
        value           uniform (-5.6922e-09 -1.92315e-10 3.8424e-09);
    }
}


// ************************************************************************* //
