
atom_style      granular
atom_modify     map array
boundary        f f f
newton          off

communicate     single vel yes

units           si
processors      2 2 2

region          reg block -0.5 0.5 -0.5 0.5 -0.0025 1 units box
create_box      1 reg
Created orthogonal box = (-0.5 -0.5 -0.0025) to (0.5 0.5 1)
  2 by 2 by 2 MPI processor grid

neighbor        0.007 bin
neigh_modify    delay 0

# contact model
include         in.contact_settings
# Material properties required for granular pair styles
fix             m1 all property/global youngsModulus	                peratomtype       5.e6
fix             m2 all property/global poissonsRatio 	                peratomtype	  0.3
fix             m3 all property/global coefficientRestitution           peratomtypepair 1 0.3
fix             m4 all property/global coefficientFriction 	        peratomtypepair 1 0.5
fix             m5 all property/global coefficientRollingFriction       peratomtypepair 1 0.2
fix             m6 all property/global coefficientRollingViscousDamping peratomtypepair 1 0.3

# pair style
pair_style	gran model hertz tangential history rolling_friction epsd
pair_coeff  	* *

# timestep
timestep	1e-4

# hearth settings
include         in.hearth_settings
# hearth settings
variable        hearthRadius  equal 0.5     # hearth radius (m)
variable        coreRadius    equal 0.15    # radius of core region (m)
variable        liquidLevel   equal 0.4     # initial liquid level (m) [set in setFieldsDict as well!]
variable        liquidDensity equal 6700.   # liquid density (kg/m3)

# heat/mass transfer settings
variable        particlekInit equal 5000    # particle thermal conductivity during init (W/Km)
variable        particlekRun  equal 40.0    # particle thermal conductivity during run  (W/Km) [sped up! 2.0*20!]
variable        particleCp    equal 870     # particle heat capacity (J/kgK)
variable        Tinlet        equal 1823.15 # particle inlet temperature (K) [set in CFD as well!]
variable        Tinit         equal 1623.15 # initial temperature (K) [set in CFD as well!]
variable        Twall         equal 1423.15 # wall temperature (K) [set in CFD as well!]
variable        rRemove       equal 0.001   # radius at which dissolved particles are removed (m)

# zone definitions
variable        forceZmin     equal 0.70    # lower boundary of force zone (m)
variable        forceZmax     equal 0.80    # upper boundary of force zone (m)
variable        insZmin       equal 0.70    # lower boundary of insertion zone (m)
variable        insZmax       equal 0.80    # upper boundary of insertion zone (m)

region          bedReg        cylinder z 0 0 ${hearthRadius} 0            ${insZmax}
region          bedReg        cylinder z 0 0 0.5 0            ${insZmax}
region          bedReg        cylinder z 0 0 0.5 0            0.8
region          coreReg       cylinder z 0 0 ${coreRadius}   0            ${insZmax} side in
region          coreReg       cylinder z 0 0 0.15   0            ${insZmax} side in
region          coreReg       cylinder z 0 0 0.15   0            0.8 side in
region          invCoreReg    cylinder z 0 0 ${coreRadius}   0            ${insZmax} side out
region          invCoreReg    cylinder z 0 0 0.15   0            ${insZmax} side out
region          invCoreReg    cylinder z 0 0 0.15   0            0.8 side out
region          shellReg      intersect 2 bedReg invCoreReg

region		insReg        cylinder z 0 0 ${hearthRadius} ${insZmin}   ${insZmax}
region		insReg        cylinder z 0 0 0.5 ${insZmin}   ${insZmax}
region		insReg        cylinder z 0 0 0.5 0.7   ${insZmax}
region		insReg        cylinder z 0 0 0.5 0.7   0.8
region          insCoreReg    intersect 2 insReg coreReg
region          insShellReg   intersect 2 insReg invCoreReg

region		forceReg      cylinder z 0 0 ${hearthRadius} ${forceZmin} ${forceZmax}
region		forceReg      cylinder z 0 0 0.5 ${forceZmin} ${forceZmax}
region		forceReg      cylinder z 0 0 0.5 0.7 ${forceZmax}
region		forceReg      cylinder z 0 0 0.5 0.7 0.8
region          freeboard     cylinder z 0 0 ${hearthRadius} ${insZmax} INF
region          freeboard     cylinder z 0 0 0.5 ${insZmax} INF
region          freeboard     cylinder z 0 0 0.5 0.8 INF

region          mushroom      block 0.4 0.5 -0.05 0.05 0.2 0.3 side out # mushroom cutout
region          initReg       intersect 2 bedReg mushroom # entire bed minus mushroom
region          initCoreReg   intersect 2 initReg coreReg
region          initShellReg  intersect 2 initReg invCoreReg

# total burden weight
variable        pressureMin   equal 2000    # lower pressure value (Pa), near wall
variable        pressureMax   equal 20000   # upper pressure value (Pa), near core

# kinetic energy
variable        kinEn         equal ke      # kinetic energy (J)
variable        kinEnMax      equal 2.      # kinetic energy threshold for init (J)

# coke removal settings
variable        cokeRateInit  equal 20.     # coke combustion rate during init (kg/s)
variable        cokeRateRun   equal 1.      # coke combustion rate during run (kg/s)
variable        delInt        equal 0.1     # removal interval (s) [set in liggghtsCommands as well!]

variable        nFreeboard    equal count(all,freeboard)

variable        nRaceways     equal count(all,raceways)
variable        mRaceways     equal mass(all,raceways)
variable        avMass        equal "v_mRaceways/(v_nRaceways+1e-3)"

variable        delIntSteps   equal "floor(v_delInt/dt)"

variable        nDelInit      equal "v_delIntSteps*dt*v_cokeRateInit/v_avMass"
variable        fDelInit      equal "v_nDelInit/(v_nRaceways+1e-3)"

variable        nDelRun       equal "v_delIntSteps*dt*v_cokeRateRun/v_avMass"
variable        fDelRun       equal "v_nDelRun/(v_nRaceways+1e-3)"




# heat transfer
fix             m7 all property/global thermalConductivity peratomtype ${particlekInit} # lambda in [W/(K*m)]
fix             m7 all property/global thermalConductivity peratomtype 5000 
fix             m8 all property/global thermalCapacity     peratomtype ${particleCp}  # cp in [J/(kg*K)]
fix             m8 all property/global thermalCapacity     peratomtype 870  

fix             heattransfer all heat/gran/conduction initial_temperature ${Tinlet}
fix             heattransfer all heat/gran/conduction initial_temperature 1823.15

# walls
include         in.wall_settings
fix		sides     all mesh/surface file ../DEM/mesh/small_hearth_sides.stl       type 1 temperature ${Twall} curvature 1e-5
fix		sides     all mesh/surface file ../DEM/mesh/small_hearth_sides.stl       type 1 temperature 1423.15 curvature 1e-5
fix 		bottom    all mesh/surface file ../DEM/mesh/small_hearth_bottom.stl      type 1 temperature ${Twall}
fix 		bottom    all mesh/surface file ../DEM/mesh/small_hearth_bottom.stl      type 1 temperature 1423.15
fix		granwalls all wall/gran model hertz tangential history rolling_friction epsd mesh n_meshes 2 meshes sides bottom temperature ${Twall}
fix		granwalls all wall/gran model hertz tangential history rolling_friction epsd mesh n_meshes 2 meshes sides bottom temperature 1423.15

# gravity
fix		gravi all gravity 9.81 vector 0.0 0.0 -1.0

######################################

# particle distribution
include	   	in.particleSizeDistribution1
# Particle size distribution for LIGGGHTS

# mean radius = 0.0100000 m
# standard deviation = 0.00000 m
# density = 900 kg/m3

fix	pts1 all particletemplate/sphere 10007 atom_type 1 density constant 900 radius constant 0.01

fix	pdd1 all particledistribution/discrete 10009 1 pts1 1.000000
include	   	in.particleSizeDistribution2
# Particle size distribution for LIGGGHTS

# mean radius = 0.0125000 m
# standard deviation = 0.00000 m
# density = 900 kg/m3

fix	pts2 all particletemplate/sphere 10037 atom_type 1 density constant 900 radius constant 0.0125

fix	pdd2 all particledistribution/discrete 10039 1 pts2 1.000000

# raceways
include		in.raceways
# Raceway definition for LIGGGHTS

# reactor radius = 0.500000 m
# raceway height = 0.500000 m
# raceway diameter = 0.100000 m
# raceway length = 0.100000 m
# number of raceways = 8

variable angle1 equal 0.000000
region raceway1 cylinder x 0.000000 0.500000 0.050000 0.400000 0.500000 rotate v_angle1 0 0 0 0 0 1
variable angle2 equal 0.785398
region raceway2 cylinder x 0.000000 0.500000 0.050000 0.400000 0.500000 rotate v_angle2 0 0 0 0 0 1
variable angle3 equal 1.570796
region raceway3 cylinder x 0.000000 0.500000 0.050000 0.400000 0.500000 rotate v_angle3 0 0 0 0 0 1
variable angle4 equal 2.356194
region raceway4 cylinder x 0.000000 0.500000 0.050000 0.400000 0.500000 rotate v_angle4 0 0 0 0 0 1
variable angle5 equal 3.141593
region raceway5 cylinder x 0.000000 0.500000 0.050000 0.400000 0.500000 rotate v_angle5 0 0 0 0 0 1
variable angle6 equal 3.926991
region raceway6 cylinder x 0.000000 0.500000 0.050000 0.400000 0.500000 rotate v_angle6 0 0 0 0 0 1
variable angle7 equal 4.712389
region raceway7 cylinder x 0.000000 0.500000 0.050000 0.400000 0.500000 rotate v_angle7 0 0 0 0 0 1
variable angle8 equal 5.497787
region raceway8 cylinder x 0.000000 0.500000 0.050000 0.400000 0.500000 rotate v_angle8 0 0 0 0 0 1

region raceways union 8 raceway1 raceway2 raceway3 raceway4 raceway5 raceway6 raceway7 raceway8

######################################

# add a wall between core and shell regions
fix             coreWall all wall/gran model hertz tangential history primitive type 1 zcylinder ${coreRadius} 0 0
fix             coreWall all wall/gran model hertz tangential history primitive type 1 zcylinder 0.15 0 0

# insert in bed volume
fix         	ins1 all insert/pack seed 32452843 distributiontemplate pdd1 all_in yes insert_every 100 overlapcheck yes region initShellReg volumefraction_region 0.7
fix         	ins2 all insert/pack seed 32452843 distributiontemplate pdd2 all_in yes insert_every 100 overlapcheck yes region initCoreReg  volumefraction_region 0.7

# insert the first particles
run             1
INFO: Particle insertion ins1: inserting every 100 steps
INFO: Particle insertion ins2: inserting every 100 steps
Memory usage per processor = 11.4934 Mbytes
Step Temp E_pair E_mol TotEng Press 
       0            0            0            0            0            0 
INFO: Particle insertion ins1: inserted 41733 particle templates (mass 157.329703) at step 1
 - a total of 41733 particle templates (mass 157.329703) inserted so far.
WARNING: Particle insertion: Less insertions than requested (/home/ht45454/CFDEM/LIGGGHTS/src/fix_insert.cpp:814)
INFO: Particle insertion ins2: inserted 1856 particle templates (mass 13.665928) at step 1
 - a total of 1856 particle templates (mass 13.665928) inserted so far.
WARNING: Particle insertion: Less insertions than requested (/home/ht45454/CFDEM/LIGGGHTS/src/fix_insert.cpp:814)
       1            0            0            0            0            0 
Loop time of 0.401981 on 8 procs for 1 steps with 43589 atoms
Max time of 0.401982 on 8 procs for 1 steps with 43589 atoms

Pair  time (%) = 0.000301196 (0.0749279)
Max Pair time (ib) = 0.000452843 (50.3483)
Neigh time (%) = 0.00453368 (1.12783)
Max Neigh time (ib) = 0.00694565 (53.2012)
Comm  time (%) = 0.00355099 (0.883372)
Max Comm time (ib) = 0.00520696 (46.634)
Outpt time (%) = 0.000125205 (0.0311471)
Max Outpt time (ib) = 0.000176149 (40.6882)
Other time (%) = 0.39347 (97.8827)
Max Other time (ib) = 0.393674 (0.0518537)

Nlocal:    5448.62 ave 6878 max 4065 min
Histogram: 4 0 0 0 0 0 0 0 0 4
Nghost:    1027.88 ave 1199 max 859 min
Histogram: 4 0 0 0 0 0 0 0 0 4
Neighs:    15389.5 ave 19609 max 11316 min
Histogram: 4 0 0 0 0 0 0 0 0 4

Total # of neighbors = 123116
Ave neighs/atom = 2.82447
Neighbor list builds = 1
Dangerous builds = 0

# apply nve integration to all particles
fix	    	integr all nve/sphere

######################################

# add load
include         in.pressure_profile
# Pressure profile definition for LIGGGHTS

# reactor radius = 0.500000 m
# R1 = 0.150000 m
# R2 = 0.400000 m
# number of bins = 12

# Region01
region   forceReg01		 cylinder z 0 0 0.15	${forceZmin} ${forceZmax} side in  	# center region
region   forceReg01		 cylinder z 0 0 0.15	0.7 ${forceZmax} side in  	
region   forceReg01		 cylinder z 0 0 0.15	0.7 0.8 side in  	
variable nForceReg01	 equal count(all,forceReg01) 								# number of particles inside
variable forceRegArea01	 equal 0.070686												# ring area (m2)
variable forceFact01	 equal 1												# force factor [0-1] (-)
variable totalForce01	 equal "-(v_forceFact01*(v_pressureMax-v_pressureMin)+v_pressureMin)*v_forceRegArea01"	# total force (N)
variable forcePerPart01	 equal "v_totalForce01/(v_nForceReg01+1e-3)"				# force per particle (N)
fix      force01		 all addforce 0 0 v_forcePerPart01 region forceReg01		# apply force

# Region02
region   forceRegIn02	 cylinder z 0 0 0.15	${forceZmin} ${forceZmax} side out 	# inner region
region   forceRegIn02	 cylinder z 0 0 0.15	0.7 ${forceZmax} side out 	
region   forceRegIn02	 cylinder z 0 0 0.15	0.7 0.8 side out 	
region   forceRegOut02	 cylinder z 0 0 0.17083	${forceZmin} ${forceZmax} side in  	# outer region
region   forceRegOut02	 cylinder z 0 0 0.17083	0.7 ${forceZmax} side in  	
region   forceRegOut02	 cylinder z 0 0 0.17083	0.7 0.8 side in  	
region   forceReg02		 intersect 2 forceRegIn02 forceRegOut02						# annular region
variable nForceReg02	 equal count(all,forceReg02) 								# number of particles inside
variable forceRegArea02	 equal 0.020998												# ring area (m2)
variable forceFact02	 equal 0.95833												# force factor [0-1] (-)
variable totalForce02	 equal "-(v_forceFact02*(v_pressureMax-v_pressureMin)+v_pressureMin)*v_forceRegArea02"	# total force (N)
variable forcePerPart02	 equal "v_totalForce02/(v_nForceReg02+1e-3)"				# force per particle (N)
fix      force02		 all addforce 0 0 v_forcePerPart02 region forceReg02		# apply force

# Region03
region   forceRegIn03	 cylinder z 0 0 0.17083	${forceZmin} ${forceZmax} side out 	# inner region
region   forceRegIn03	 cylinder z 0 0 0.17083	0.7 ${forceZmax} side out 	
region   forceRegIn03	 cylinder z 0 0 0.17083	0.7 0.8 side out 	
region   forceRegOut03	 cylinder z 0 0 0.19167	${forceZmin} ${forceZmax} side in  	# outer region
region   forceRegOut03	 cylinder z 0 0 0.19167	0.7 ${forceZmax} side in  	
region   forceRegOut03	 cylinder z 0 0 0.19167	0.7 0.8 side in  	
region   forceReg03		 intersect 2 forceRegIn03 forceRegOut03						# annular region
variable nForceReg03	 equal count(all,forceReg03) 								# number of particles inside
variable forceRegArea03	 equal 0.023726												# ring area (m2)
variable forceFact03	 equal 0.875												# force factor [0-1] (-)
variable totalForce03	 equal "-(v_forceFact03*(v_pressureMax-v_pressureMin)+v_pressureMin)*v_forceRegArea03"	# total force (N)
variable forcePerPart03	 equal "v_totalForce03/(v_nForceReg03+1e-3)"				# force per particle (N)
fix      force03		 all addforce 0 0 v_forcePerPart03 region forceReg03		# apply force

# Region04
region   forceRegIn04	 cylinder z 0 0 0.19167	${forceZmin} ${forceZmax} side out 	# inner region
region   forceRegIn04	 cylinder z 0 0 0.19167	0.7 ${forceZmax} side out 	
region   forceRegIn04	 cylinder z 0 0 0.19167	0.7 0.8 side out 	
region   forceRegOut04	 cylinder z 0 0 0.2125	${forceZmin} ${forceZmax} side in  	# outer region
region   forceRegOut04	 cylinder z 0 0 0.2125	0.7 ${forceZmax} side in  	
region   forceRegOut04	 cylinder z 0 0 0.2125	0.7 0.8 side in  	
region   forceReg04		 intersect 2 forceRegIn04 forceRegOut04						# annular region
variable nForceReg04	 equal count(all,forceReg04) 								# number of particles inside
variable forceRegArea04	 equal 0.026453												# ring area (m2)
variable forceFact04	 equal 0.79167												# force factor [0-1] (-)
variable totalForce04	 equal "-(v_forceFact04*(v_pressureMax-v_pressureMin)+v_pressureMin)*v_forceRegArea04"	# total force (N)
variable forcePerPart04	 equal "v_totalForce04/(v_nForceReg04+1e-3)"				# force per particle (N)
fix      force04		 all addforce 0 0 v_forcePerPart04 region forceReg04		# apply force

# Region05
region   forceRegIn05	 cylinder z 0 0 0.2125	${forceZmin} ${forceZmax} side out 	# inner region
region   forceRegIn05	 cylinder z 0 0 0.2125	0.7 ${forceZmax} side out 	
region   forceRegIn05	 cylinder z 0 0 0.2125	0.7 0.8 side out 	
region   forceRegOut05	 cylinder z 0 0 0.23333	${forceZmin} ${forceZmax} side in  	# outer region
region   forceRegOut05	 cylinder z 0 0 0.23333	0.7 ${forceZmax} side in  	
region   forceRegOut05	 cylinder z 0 0 0.23333	0.7 0.8 side in  	
region   forceReg05		 intersect 2 forceRegIn05 forceRegOut05						# annular region
variable nForceReg05	 equal count(all,forceReg05) 								# number of particles inside
variable forceRegArea05	 equal 0.02918												# ring area (m2)
variable forceFact05	 equal 0.70833												# force factor [0-1] (-)
variable totalForce05	 equal "-(v_forceFact05*(v_pressureMax-v_pressureMin)+v_pressureMin)*v_forceRegArea05"	# total force (N)
variable forcePerPart05	 equal "v_totalForce05/(v_nForceReg05+1e-3)"				# force per particle (N)
fix      force05		 all addforce 0 0 v_forcePerPart05 region forceReg05		# apply force

# Region06
region   forceRegIn06	 cylinder z 0 0 0.23333	${forceZmin} ${forceZmax} side out 	# inner region
region   forceRegIn06	 cylinder z 0 0 0.23333	0.7 ${forceZmax} side out 	
region   forceRegIn06	 cylinder z 0 0 0.23333	0.7 0.8 side out 	
region   forceRegOut06	 cylinder z 0 0 0.25417	${forceZmin} ${forceZmax} side in  	# outer region
region   forceRegOut06	 cylinder z 0 0 0.25417	0.7 ${forceZmax} side in  	
region   forceRegOut06	 cylinder z 0 0 0.25417	0.7 0.8 side in  	
region   forceReg06		 intersect 2 forceRegIn06 forceRegOut06						# annular region
variable nForceReg06	 equal count(all,forceReg06) 								# number of particles inside
variable forceRegArea06	 equal 0.031907												# ring area (m2)
variable forceFact06	 equal 0.625												# force factor [0-1] (-)
variable totalForce06	 equal "-(v_forceFact06*(v_pressureMax-v_pressureMin)+v_pressureMin)*v_forceRegArea06"	# total force (N)
variable forcePerPart06	 equal "v_totalForce06/(v_nForceReg06+1e-3)"				# force per particle (N)
fix      force06		 all addforce 0 0 v_forcePerPart06 region forceReg06		# apply force

# Region07
region   forceRegIn07	 cylinder z 0 0 0.25417	${forceZmin} ${forceZmax} side out 	# inner region
region   forceRegIn07	 cylinder z 0 0 0.25417	0.7 ${forceZmax} side out 	
region   forceRegIn07	 cylinder z 0 0 0.25417	0.7 0.8 side out 	
region   forceRegOut07	 cylinder z 0 0 0.275	${forceZmin} ${forceZmax} side in  	# outer region
region   forceRegOut07	 cylinder z 0 0 0.275	0.7 ${forceZmax} side in  	
region   forceRegOut07	 cylinder z 0 0 0.275	0.7 0.8 side in  	
region   forceReg07		 intersect 2 forceRegIn07 forceRegOut07						# annular region
variable nForceReg07	 equal count(all,forceReg07) 								# number of particles inside
variable forceRegArea07	 equal 0.034634												# ring area (m2)
variable forceFact07	 equal 0.54167												# force factor [0-1] (-)
variable totalForce07	 equal "-(v_forceFact07*(v_pressureMax-v_pressureMin)+v_pressureMin)*v_forceRegArea07"	# total force (N)
variable forcePerPart07	 equal "v_totalForce07/(v_nForceReg07+1e-3)"				# force per particle (N)
fix      force07		 all addforce 0 0 v_forcePerPart07 region forceReg07		# apply force

# Region08
region   forceRegIn08	 cylinder z 0 0 0.275	${forceZmin} ${forceZmax} side out 	# inner region
region   forceRegIn08	 cylinder z 0 0 0.275	0.7 ${forceZmax} side out 	
region   forceRegIn08	 cylinder z 0 0 0.275	0.7 0.8 side out 	
region   forceRegOut08	 cylinder z 0 0 0.29583	${forceZmin} ${forceZmax} side in  	# outer region
region   forceRegOut08	 cylinder z 0 0 0.29583	0.7 ${forceZmax} side in  	
region   forceRegOut08	 cylinder z 0 0 0.29583	0.7 0.8 side in  	
region   forceReg08		 intersect 2 forceRegIn08 forceRegOut08						# annular region
variable nForceReg08	 equal count(all,forceReg08) 								# number of particles inside
variable forceRegArea08	 equal 0.037361												# ring area (m2)
variable forceFact08	 equal 0.45833												# force factor [0-1] (-)
variable totalForce08	 equal "-(v_forceFact08*(v_pressureMax-v_pressureMin)+v_pressureMin)*v_forceRegArea08"	# total force (N)
variable forcePerPart08	 equal "v_totalForce08/(v_nForceReg08+1e-3)"				# force per particle (N)
fix      force08		 all addforce 0 0 v_forcePerPart08 region forceReg08		# apply force

# Region09
region   forceRegIn09	 cylinder z 0 0 0.29583	${forceZmin} ${forceZmax} side out 	# inner region
region   forceRegIn09	 cylinder z 0 0 0.29583	0.7 ${forceZmax} side out 	
region   forceRegIn09	 cylinder z 0 0 0.29583	0.7 0.8 side out 	
region   forceRegOut09	 cylinder z 0 0 0.31667	${forceZmin} ${forceZmax} side in  	# outer region
region   forceRegOut09	 cylinder z 0 0 0.31667	0.7 ${forceZmax} side in  	
region   forceRegOut09	 cylinder z 0 0 0.31667	0.7 0.8 side in  	
region   forceReg09		 intersect 2 forceRegIn09 forceRegOut09						# annular region
variable nForceReg09	 equal count(all,forceReg09) 								# number of particles inside
variable forceRegArea09	 equal 0.040088												# ring area (m2)
variable forceFact09	 equal 0.375												# force factor [0-1] (-)
variable totalForce09	 equal "-(v_forceFact09*(v_pressureMax-v_pressureMin)+v_pressureMin)*v_forceRegArea09"	# total force (N)
variable forcePerPart09	 equal "v_totalForce09/(v_nForceReg09+1e-3)"				# force per particle (N)
fix      force09		 all addforce 0 0 v_forcePerPart09 region forceReg09		# apply force

# Region10
region   forceRegIn10	 cylinder z 0 0 0.31667	${forceZmin} ${forceZmax} side out 	# inner region
region   forceRegIn10	 cylinder z 0 0 0.31667	0.7 ${forceZmax} side out 	
region   forceRegIn10	 cylinder z 0 0 0.31667	0.7 0.8 side out 	
region   forceRegOut10	 cylinder z 0 0 0.3375	${forceZmin} ${forceZmax} side in  	# outer region
region   forceRegOut10	 cylinder z 0 0 0.3375	0.7 ${forceZmax} side in  	
region   forceRegOut10	 cylinder z 0 0 0.3375	0.7 0.8 side in  	
region   forceReg10		 intersect 2 forceRegIn10 forceRegOut10						# annular region
variable nForceReg10	 equal count(all,forceReg10) 								# number of particles inside
variable forceRegArea10	 equal 0.042815												# ring area (m2)
variable forceFact10	 equal 0.29167												# force factor [0-1] (-)
variable totalForce10	 equal "-(v_forceFact10*(v_pressureMax-v_pressureMin)+v_pressureMin)*v_forceRegArea10"	# total force (N)
variable forcePerPart10	 equal "v_totalForce10/(v_nForceReg10+1e-3)"				# force per particle (N)
fix      force10		 all addforce 0 0 v_forcePerPart10 region forceReg10		# apply force

# Region11
region   forceRegIn11	 cylinder z 0 0 0.3375	${forceZmin} ${forceZmax} side out 	# inner region
region   forceRegIn11	 cylinder z 0 0 0.3375	0.7 ${forceZmax} side out 	
region   forceRegIn11	 cylinder z 0 0 0.3375	0.7 0.8 side out 	
region   forceRegOut11	 cylinder z 0 0 0.35833	${forceZmin} ${forceZmax} side in  	# outer region
region   forceRegOut11	 cylinder z 0 0 0.35833	0.7 ${forceZmax} side in  	
region   forceRegOut11	 cylinder z 0 0 0.35833	0.7 0.8 side in  	
region   forceReg11		 intersect 2 forceRegIn11 forceRegOut11						# annular region
variable nForceReg11	 equal count(all,forceReg11) 								# number of particles inside
variable forceRegArea11	 equal 0.045542												# ring area (m2)
variable forceFact11	 equal 0.20833												# force factor [0-1] (-)
variable totalForce11	 equal "-(v_forceFact11*(v_pressureMax-v_pressureMin)+v_pressureMin)*v_forceRegArea11"	# total force (N)
variable forcePerPart11	 equal "v_totalForce11/(v_nForceReg11+1e-3)"				# force per particle (N)
fix      force11		 all addforce 0 0 v_forcePerPart11 region forceReg11		# apply force

# Region12
region   forceRegIn12	 cylinder z 0 0 0.35833	${forceZmin} ${forceZmax} side out 	# inner region
region   forceRegIn12	 cylinder z 0 0 0.35833	0.7 ${forceZmax} side out 	
region   forceRegIn12	 cylinder z 0 0 0.35833	0.7 0.8 side out 	
region   forceRegOut12	 cylinder z 0 0 0.37917	${forceZmin} ${forceZmax} side in  	# outer region
region   forceRegOut12	 cylinder z 0 0 0.37917	0.7 ${forceZmax} side in  	
region   forceRegOut12	 cylinder z 0 0 0.37917	0.7 0.8 side in  	
region   forceReg12		 intersect 2 forceRegIn12 forceRegOut12						# annular region
variable nForceReg12	 equal count(all,forceReg12) 								# number of particles inside
variable forceRegArea12	 equal 0.048269												# ring area (m2)
variable forceFact12	 equal 0.125												# force factor [0-1] (-)
variable totalForce12	 equal "-(v_forceFact12*(v_pressureMax-v_pressureMin)+v_pressureMin)*v_forceRegArea12"	# total force (N)
variable forcePerPart12	 equal "v_totalForce12/(v_nForceReg12+1e-3)"				# force per particle (N)
fix      force12		 all addforce 0 0 v_forcePerPart12 region forceReg12		# apply force

# Region13
region   forceRegIn13	 cylinder z 0 0 0.37917	${forceZmin} ${forceZmax} side out 	# inner region
region   forceRegIn13	 cylinder z 0 0 0.37917	0.7 ${forceZmax} side out 	
region   forceRegIn13	 cylinder z 0 0 0.37917	0.7 0.8 side out 	
region   forceRegOut13	 cylinder z 0 0 0.4	${forceZmin} ${forceZmax} side in  	# outer region
region   forceRegOut13	 cylinder z 0 0 0.4	0.7 ${forceZmax} side in  	
region   forceRegOut13	 cylinder z 0 0 0.4	0.7 0.8 side in  	
region   forceReg13		 intersect 2 forceRegIn13 forceRegOut13						# annular region
variable nForceReg13	 equal count(all,forceReg13) 								# number of particles inside
variable forceRegArea13	 equal 0.050996												# ring area (m2)
variable forceFact13	 equal 0.041667												# force factor [0-1] (-)
variable totalForce13	 equal "-(v_forceFact13*(v_pressureMax-v_pressureMin)+v_pressureMin)*v_forceRegArea13"	# total force (N)
variable forcePerPart13	 equal "v_totalForce13/(v_nForceReg13+1e-3)"				# force per particle (N)
fix      force13		 all addforce 0 0 v_forcePerPart13 region forceReg13		# apply force

# Region14
region   forceRegIn14	 cylinder z 0 0 0.4	${forceZmin} ${forceZmax} side out 	# inner region
region   forceRegIn14	 cylinder z 0 0 0.4	0.7 ${forceZmax} side out 	
region   forceRegIn14	 cylinder z 0 0 0.4	0.7 0.8 side out 	
region   forceRegOut14	 cylinder z 0 0 0.5	${forceZmin} ${forceZmax} side in  	# outer region
region   forceRegOut14	 cylinder z 0 0 0.5	0.7 ${forceZmax} side in  	
region   forceRegOut14	 cylinder z 0 0 0.5	0.7 0.8 side in  	
region   forceReg14		 intersect 2 forceRegIn14 forceRegOut14						# annular region
variable nForceReg14	 equal count(all,forceReg14) 								# number of particles inside
variable forceRegArea14	 equal 0.28274												# ring area (m2)
variable forceFact14	 equal 0												# force factor [0-1] (-)
variable totalForce14	 equal "-(v_forceFact14*(v_pressureMax-v_pressureMin)+v_pressureMin)*v_forceRegArea14"	# total force (N)
variable forcePerPart14	 equal "v_totalForce14/(v_nForceReg14+1e-3)"				# force per particle (N)
fix      force14		 all addforce 0 0 v_forcePerPart14 region forceReg14		# apply force

variable totalForce		 equal "v_forcePerPart01*v_nForceReg01+v_forcePerPart02*v_nForceReg02+v_forcePerPart03*v_nForceReg03+v_forcePerPart04*v_nForceReg04+v_forcePerPart05*v_nForceReg05+v_forcePerPart06*v_nForceReg06+v_forcePerPart07*v_nForceReg07+v_forcePerPart08*v_nForceReg08+v_forcePerPart09*v_nForceReg09+v_forcePerPart10*v_nForceReg10+v_forcePerPart11*v_nForceReg11+v_forcePerPart12*v_nForceReg12+v_forcePerPart13*v_nForceReg13+v_forcePerPart14*v_nForceReg14" 	# sum of all forces (N)
variable nForceReg		 equal "v_nForceReg01+v_nForceReg02+v_nForceReg03+v_nForceReg04+v_nForceReg05+v_nForceReg06+v_nForceReg07+v_nForceReg08+v_nForceReg09+v_nForceReg10+v_nForceReg11+v_nForceReg12+v_nForceReg13+v_nForceReg14" 	# sum of all numbers of particles (N)
variable avForcePerPart	 equal "v_totalForce/(v_nForceReg+1e-3)"	# average force per particle (N)

# add buoyancy
fix	  	archi all buoyancy density ${liquidDensity} dim z level ${liquidLevel}
fix	  	archi all buoyancy density 6700 dim z level ${liquidLevel}
fix	  	archi all buoyancy density 6700 dim z level 0.4

######################################

# output settings
thermo_style	custom step time atoms ke v_nForceReg v_totalForce v_avForcePerPart
thermo          100

# dump settings
dump            dmp all custom 1000 post/dump*.liggghts_init id type x y z ix iy iz vx vy vz fx fy fz omegax omegay omegaz radius density f_Temp[0]

######################################

# run for some steps
label           run1
run		1000 post no
Memory usage per processor = 16.015 Mbytes
Step Time Atoms KinEng nForceRe totalFor avForceP 
       1       0.0001    43589            0         5320   -6145.8824   -1.1552408 
     100         0.01    43589    149.37594         4732   -6145.8734   -1.2987895 
INFO: Particle insertion ins1: inserted 2087 particle templates (mass 7.867805) at step 101
 - a total of 43820 particle templates (mass 165.197508) inserted so far.
WARNING: Particle insertion: Less insertions than requested (/home/ht45454/CFDEM/LIGGGHTS/src/fix_insert.cpp:814)
INFO: Particle insertion ins2: inserted 183 particle templates (mass 1.347449) at step 101
 - a total of 2039 particle templates (mass 15.013377) inserted so far.
WARNING: Particle insertion: Less insertions than requested (/home/ht45454/CFDEM/LIGGGHTS/src/fix_insert.cpp:814)
     200         0.02    45859     366.6874         3900   -6145.8539   -1.5758596 
INFO: Particle insertion ins1: inserted 2864 particle templates (mass 10.797026) at step 201
 - a total of 46684 particle templates (mass 175.994534) inserted so far.
WARNING: Particle insertion: Less insertions than requested (/home/ht45454/CFDEM/LIGGGHTS/src/fix_insert.cpp:814)
INFO: Particle insertion ins2: inserted 197 particle templates (mass 1.450532) at step 201
 - a total of 2236 particle templates (mass 16.463909) inserted so far.
WARNING: Particle insertion: Less insertions than requested (/home/ht45454/CFDEM/LIGGGHTS/src/fix_insert.cpp:814)
     300         0.03    48920    575.86223         3714   -6145.8486   -1.6547784 
INFO: Particle insertion ins1: inserted 2896 particle templates (mass 10.917663) at step 301
 - a total of 49580 particle templates (mass 186.912197) inserted so far.
WARNING: Particle insertion: Less insertions than requested (/home/ht45454/CFDEM/LIGGGHTS/src/fix_insert.cpp:814)
INFO: Particle insertion ins2: inserted 208 particle templates (mass 1.531526) at step 301
 - a total of 2444 particle templates (mass 17.995435) inserted so far.
WARNING: Particle insertion: Less insertions than requested (/home/ht45454/CFDEM/LIGGGHTS/src/fix_insert.cpp:814)
     400         0.04    52024    749.36097         3521    -6145.848   -1.7454832 
INFO: Particle insertion ins1: inserted 3722 particle templates (mass 14.031609) at step 401
 - a total of 53302 particle templates (mass 200.943806) inserted so far.
WARNING: Particle insertion: Less insertions than requested (/home/ht45454/CFDEM/LIGGGHTS/src/fix_insert.cpp:814)
INFO: Particle insertion ins2: inserted 246 particle templates (mass 1.811325) at step 401
 - a total of 2690 particle templates (mass 19.806760) inserted so far.
WARNING: Particle insertion: Less insertions than requested (/home/ht45454/CFDEM/LIGGGHTS/src/fix_insert.cpp:814)
     500         0.05    55992     763.2805         3484   -6145.8484   -1.7640203 
INFO: Particle insertion ins1: inserted 4114 particle templates (mass 15.509415) at step 501
 - a total of 57416 particle templates (mass 216.453221) inserted so far.
WARNING: Particle insertion: Less insertions than requested (/home/ht45454/CFDEM/LIGGGHTS/src/fix_insert.cpp:814)
INFO: Particle insertion ins2: inserted 259 particle templates (mass 1.907045) at step 501
 - a total of 2949 particle templates (mass 21.713805) inserted so far.
WARNING: Particle insertion: Less insertions than requested (/home/ht45454/CFDEM/LIGGGHTS/src/fix_insert.cpp:814)
     600         0.06    60365    635.21641         3570   -6145.8476   -1.7215255 
INFO: Particle insertion ins1: inserted 4133 particle templates (mass 15.581043) at step 601
 - a total of 61549 particle templates (mass 232.034263) inserted so far.
WARNING: Particle insertion: Less insertions than requested (/home/ht45454/CFDEM/LIGGGHTS/src/fix_insert.cpp:814)
INFO: Particle insertion ins2: inserted 243 particle templates (mass 1.789235) at step 601
 - a total of 3192 particle templates (mass 23.503040) inserted so far.
WARNING: Particle insertion: Less insertions than requested (/home/ht45454/CFDEM/LIGGGHTS/src/fix_insert.cpp:814)
     700         0.07    64741    384.10687         3856   -6145.8587   -1.5938426 
INFO: Particle insertion ins1: inserted 4521 particle templates (mass 17.043768) at step 701
 - a total of 66070 particle templates (mass 249.078032) inserted so far.
WARNING: Particle insertion: Less insertions than requested (/home/ht45454/CFDEM/LIGGGHTS/src/fix_insert.cpp:814)
INFO: Particle insertion ins2: inserted 225 particle templates (mass 1.656699) at step 701
 - a total of 3417 particle templates (mass 25.159739) inserted so far.
WARNING: Particle insertion: Less insertions than requested (/home/ht45454/CFDEM/LIGGGHTS/src/fix_insert.cpp:814)
     800         0.08    69487    144.00652         5110   -6145.8755   -1.2027151 
INFO: Particle insertion ins1: inserted 3526 particle templates (mass 13.292707) at step 801
 - a total of 69596 particle templates (mass 262.370739) inserted so far.
WARNING: Particle insertion: Less insertions than requested (/home/ht45454/CFDEM/LIGGGHTS/src/fix_insert.cpp:814)
INFO: Particle insertion ins2: inserted 153 particle templates (mass 1.126555) at step 801
 - a total of 3570 particle templates (mass 26.286295) inserted so far.
WARNING: Particle insertion: Less insertions than requested (/home/ht45454/CFDEM/LIGGGHTS/src/fix_insert.cpp:814)
     900         0.09    73166    78.616914         6707   -6145.8875  -0.91633914 
INFO: Particle insertion ins1: inserted 2081 particle templates (mass 7.845185) at step 901
 - a total of 71677 particle templates (mass 270.215924) inserted so far.
WARNING: Particle insertion: Less insertions than requested (/home/ht45454/CFDEM/LIGGGHTS/src/fix_insert.cpp:814)
INFO: Particle insertion ins2: inserted 93 particle templates (mass 0.684769) at step 901
 - a total of 3663 particle templates (mass 26.971064) inserted so far.
WARNING: Particle insertion: Less insertions than requested (/home/ht45454/CFDEM/LIGGGHTS/src/fix_insert.cpp:814)
    1000          0.1    75340     34.79539         7942   -6145.8913   -0.7738467 
INFO: Particle insertion ins1: inserted 1390 particle templates (mass 5.240177) at step 1001
 - a total of 73067 particle templates (mass 275.456101) inserted so far.
WARNING: Particle insertion: Less insertions than requested (/home/ht45454/CFDEM/LIGGGHTS/src/fix_insert.cpp:814)
INFO: Particle insertion ins2: inserted 59 particle templates (mass 0.434423) at step 1001
 - a total of 3722 particle templates (mass 27.405487) inserted so far.
WARNING: Particle insertion: Less insertions than requested (/home/ht45454/CFDEM/LIGGGHTS/src/fix_insert.cpp:814)
    1001       0.1001    76789    34.591935         8393   -6145.8925    -0.732264 
Loop time of 15.7931 on 8 procs for 1000 steps with 76789 atoms
Max time of 15.7931 on 8 procs for 1000 steps with 76789 atoms

# repeat until kinetic energy is below treshold
if              "${kinEn} > ${kinEnMax}" then "jump SELF run1"
jump SELF run1
run		1000 post no
Memory usage per processor = 26.7915 Mbytes
Step Time Atoms KinEng nForceRe totalFor avForceP 
    1001       0.1001    76789    34.591935         8393   -6145.8925    -0.732264 
    1100         0.11    76789    22.630313         8504   -6145.8925  -0.72270599 
INFO: Particle insertion ins1: inserted 999 particle templates (mass 3.766141) at step 1101
 - a total of 74066 particle templates (mass 279.222242) inserted so far.
WARNING: Particle insertion: Less insertions than requested (/home/ht45454/CFDEM/LIGGGHTS/src/fix_insert.cpp:814)
INFO: Particle insertion ins2: inserted 59 particle templates (mass 0.434423) at step 1101
 - a total of 3781 particle templates (mass 27.839911) inserted so far.
WARNING: Particle insertion: Less insertions than requested (/home/ht45454/CFDEM/LIGGGHTS/src/fix_insert.cpp:814)
    1200         0.12    77847     13.84775         8839   -6145.8931  -0.69531536 
INFO: Particle insertion ins1: inserted 789 particle templates (mass 2.974460) at step 1201
 - a total of 74855 particle templates (mass 282.196702) inserted so far.
WARNING: Particle insertion: Less insertions than requested (/home/ht45454/CFDEM/LIGGGHTS/src/fix_insert.cpp:814)
INFO: Particle insertion ins2: inserted 32 particle templates (mass 0.235619) at step 1201
 - a total of 3813 particle templates (mass 28.075530) inserted so far.
WARNING: Particle insertion: Less insertions than requested (/home/ht45454/CFDEM/LIGGGHTS/src/fix_insert.cpp:814)
    1300         0.13    78668    8.4035469         9014   -6145.8934  -0.68181637 
INFO: Particle insertion ins1: inserted 636 particle templates (mass 2.397664) at step 1301
 - a total of 75491 particle templates (mass 284.594365) inserted so far.
WARNING: Particle insertion: Less insertions than requested (/home/ht45454/CFDEM/LIGGGHTS/src/fix_insert.cpp:814)
INFO: Particle insertion ins2: inserted 28 particle templates (mass 0.206167) at step 1301
 - a total of 3841 particle templates (mass 28.281697) inserted so far.
WARNING: Particle insertion: Less insertions than requested (/home/ht45454/CFDEM/LIGGGHTS/src/fix_insert.cpp:814)
    1400         0.14    79332      4.43097         9045   -6145.8935  -0.67947959 
INFO: Particle insertion ins1: inserted 556 particle templates (mass 2.096071) at step 1401
 - a total of 76047 particle templates (mass 286.690436) inserted so far.
WARNING: Particle insertion: Less insertions than requested (/home/ht45454/CFDEM/LIGGGHTS/src/fix_insert.cpp:814)
INFO: Particle insertion ins2: inserted 22 particle templates (mass 0.161988) at step 1401
 - a total of 3863 particle templates (mass 28.443685) inserted so far.
WARNING: Particle insertion: Less insertions than requested (/home/ht45454/CFDEM/LIGGGHTS/src/fix_insert.cpp:814)
    1500         0.15    79910    3.0294854         9062   -6145.8936  -0.67820491 
INFO: Particle insertion ins1: inserted 434 particle templates (mass 1.636141) at step 1501
 - a total of 76481 particle templates (mass 288.326577) inserted so far.
WARNING: Particle insertion: Less insertions than requested (/home/ht45454/CFDEM/LIGGGHTS/src/fix_insert.cpp:814)
INFO: Particle insertion ins2: inserted 19 particle templates (mass 0.139899) at step 1501
 - a total of 3882 particle templates (mass 28.583584) inserted so far.
WARNING: Particle insertion: Less insertions than requested (/home/ht45454/CFDEM/LIGGGHTS/src/fix_insert.cpp:814)
    1600         0.16    80363    1.8900093         9101   -6145.8936  -0.67529864 
INFO: Particle insertion ins1: inserted 283 particle templates (mass 1.066885) at step 1601
 - a total of 76764 particle templates (mass 289.393462) inserted so far.
WARNING: Particle insertion: Less insertions than requested (/home/ht45454/CFDEM/LIGGGHTS/src/fix_insert.cpp:814)
INFO: Particle insertion ins2: inserted 12 particle templates (mass 0.088357) at step 1601
 - a total of 3894 particle templates (mass 28.671942) inserted so far.
WARNING: Particle insertion: Less insertions than requested (/home/ht45454/CFDEM/LIGGGHTS/src/fix_insert.cpp:814)
    1700         0.17    80658    0.7450611         9104   -6145.8936  -0.67507612 
INFO: Particle insertion ins1: inserted 181 particle templates (mass 0.682354) at step 1701
 - a total of 76945 particle templates (mass 290.075816) inserted so far.
WARNING: Particle insertion: Less insertions than requested (/home/ht45454/CFDEM/LIGGGHTS/src/fix_insert.cpp:814)
INFO: Particle insertion ins2: inserted 11 particle templates (mass 0.080994) at step 1701
 - a total of 3905 particle templates (mass 28.752936) inserted so far.
WARNING: Particle insertion: Less insertions than requested (/home/ht45454/CFDEM/LIGGGHTS/src/fix_insert.cpp:814)
    1800         0.18    80850   0.54089865         9097   -6145.8936  -0.67559558 
INFO: Particle insertion ins1: inserted 134 particle templates (mass 0.505168) at step 1801
 - a total of 77079 particle templates (mass 290.580984) inserted so far.
WARNING: Particle insertion: Less insertions than requested (/home/ht45454/CFDEM/LIGGGHTS/src/fix_insert.cpp:814)
INFO: Particle insertion ins2: inserted 4 particle templates (mass 0.029452) at step 1801
 - a total of 3909 particle templates (mass 28.782388) inserted so far.
WARNING: Particle insertion: Less insertions than requested (/home/ht45454/CFDEM/LIGGGHTS/src/fix_insert.cpp:814)
    1900         0.19    80988    0.6718615         9157   -6145.8937  -0.67116884 
INFO: Particle insertion ins1: inserted 135 particle templates (mass 0.508938) at step 1901
 - a total of 77214 particle templates (mass 291.089922) inserted so far.
WARNING: Particle insertion: Less insertions than requested (/home/ht45454/CFDEM/LIGGGHTS/src/fix_insert.cpp:814)
INFO: Particle insertion ins2: inserted 7 particle templates (mass 0.051542) at step 1901
 - a total of 3916 particle templates (mass 28.833930) inserted so far.
WARNING: Particle insertion: Less insertions than requested (/home/ht45454/CFDEM/LIGGGHTS/src/fix_insert.cpp:814)
    2000          0.2    81130   0.37558926         9219   -6145.8938  -0.66665507 
INFO: Particle insertion ins1: inserted 106 particle templates (mass 0.399611) at step 2001
 - a total of 77320 particle templates (mass 291.489533) inserted so far.
WARNING: Particle insertion: Less insertions than requested (/home/ht45454/CFDEM/LIGGGHTS/src/fix_insert.cpp:814)
INFO: Particle insertion ins2: inserted 2 particle templates (mass 0.014726) at step 2001
 - a total of 3918 particle templates (mass 28.848656) inserted so far.
WARNING: Particle insertion: Less insertions than requested (/home/ht45454/CFDEM/LIGGGHTS/src/fix_insert.cpp:814)
    2001       0.2001    81238   0.37127921         9226   -6145.8938  -0.66614926 
Loop time of 20.8967 on 8 procs for 1000 steps with 81238 atoms
Max time of 20.8967 on 8 procs for 1000 steps with 81238 atoms

# repeat until kinetic energy is below treshold
if              "${kinEn} > ${kinEnMax}" then "jump SELF run1"

# remove wall between core and shell regions and run some more steps
unfix           coreWall
run             5000 pre no post no
Step Time Atoms KinEng nForceRe totalFor avForceP 
    2001       0.2001    81238   0.37127921         9226   -6145.8938  -0.66614926 
    2100         0.21    81238   0.37127921         9226   -6145.8938  -0.66614926 
    2200         0.22    81238   0.37127921         9226   -6145.8938  -0.66614926 
    2300         0.23    81238   0.37127921         9226   -6145.8938  -0.66614926 
    2400         0.24    81238   0.37127921         9226   -6145.8938  -0.66614926 
    2500         0.25    81238   0.37127921         9226   -6145.8938  -0.66614926 
    2600         0.26    81238   0.37127921         9226   -6145.8938  -0.66614926 
    2700         0.27    81238   0.37127921         9226   -6145.8938  -0.66614926 
    2800         0.28    81238   0.37127921         9226   -6145.8938  -0.66614926 
    2900         0.29    81238   0.37127921         9226   -6145.8938  -0.66614926 
    3000          0.3    81238   0.37127921         9226   -6145.8938  -0.66614926 
    3100         0.31    81238   0.37127921         9226   -6145.8938  -0.66614926 
    3200         0.32    81238   0.37127921         9226   -6145.8938  -0.66614926 
    3300         0.33    81238   0.37127921         9226   -6145.8938  -0.66614926 
    3400         0.34    81238   0.37127921         9226   -6145.8938  -0.66614926 
    3500         0.35    81238   0.37127921         9226   -6145.8938  -0.66614926 
    3600         0.36    81238   0.37127921         9226   -6145.8938  -0.66614926 
    3700         0.37    81238   0.37127921         9226   -6145.8938  -0.66614926 
    3800         0.38    81238   0.37127921         9226   -6145.8938  -0.66614926 
    3900         0.39    81238   0.37127921         9226   -6145.8938  -0.66614926 
    4000          0.4    81238   0.37127921         9226   -6145.8938  -0.66614926 
    4100         0.41    81238   0.37127921         9226   -6145.8938  -0.66614926 
    4200         0.42    81238   0.37127921         9226   -6145.8938  -0.66614926 
    4300         0.43    81238   0.37127921         9226   -6145.8938  -0.66614926 
    4400         0.44    81238   0.37127921         9226   -6145.8938  -0.66614926 
    4500         0.45    81238   0.37127921         9226   -6145.8938  -0.66614926 
    4600         0.46    81238   0.37127921         9226   -6145.8938  -0.66614926 
    4700         0.47    81238   0.37127921         9226   -6145.8938  -0.66614926 
    4800         0.48    81238   0.37127921         9226   -6145.8938  -0.66614926 
    4900         0.49    81238   0.37127921         9226   -6145.8938  -0.66614926 
    5000          0.5    81238   0.37127921         9226   -6145.8938  -0.66614926 
    5100         0.51    81238   0.37127921         9226   -6145.8938  -0.66614926 
    5200         0.52    81238   0.37127921         9226   -6145.8938  -0.66614926 
    5300         0.53    81238   0.37127921         9226   -6145.8938  -0.66614926 
    5400         0.54    81238   0.37127921         9226   -6145.8938  -0.66614926 
    5500         0.55    81238   0.37127921         9226   -6145.8938  -0.66614926 
    5600         0.56    81238   0.37127921         9226   -6145.8938  -0.66614926 
    5700         0.57    81238   0.37127921         9226   -6145.8938  -0.66614926 
    5800         0.58    81238   0.37127921         9226   -6145.8938  -0.66614926 
    5900         0.59    81238   0.37127921         9226   -6145.8938  -0.66614926 
    6000          0.6    81238   0.37127921         9226   -6145.8938  -0.66614926 
    6100         0.61    81238   0.37127921         9226   -6145.8938  -0.66614926 
    6200         0.62    81238   0.37127921         9226   -6145.8938  -0.66614926 
    6300         0.63    81238   0.37127921         9226   -6145.8938  -0.66614926 
    6400         0.64    81238   0.37127921         9226   -6145.8938  -0.66614926 
    6500         0.65    81238   0.37127921         9226   -6145.8938  -0.66614926 
    6600         0.66    81238   0.37127921         9226   -6145.8938  -0.66614926 
    6700         0.67    81238   0.37127921         9226   -6145.8938  -0.66614926 
    6800         0.68    81238   0.37127921         9226   -6145.8938  -0.66614926 
    6900         0.69    81238   0.37127921         9226   -6145.8938  -0.66614926 
    7000          0.7    81238   0.37127921         9226   -6145.8938  -0.66614926 
    7001       0.7001    81238   0.37127921         9226   -6145.8938  -0.66614926 
Loop time of 72.9736 on 8 procs for 5000 steps with 81238 atoms
Max time of 72.9736 on 8 procs for 5000 steps with 81238 atoms

######################################

# stop insertion
unfix		ins1
unfix		ins2

######################################

# set all temperatures
set             region bedReg property/atom Temp ${Tinit}
set             region bedReg property/atom Temp 1623.15
  81238 settings made for property/atom

# insert in insertion volume
fix         	ins3 all insert/pack seed 32452843 distributiontemplate pdd1 all_in yes insert_every ${delIntSteps} overlapcheck yes region insShellReg volumefraction_region 0.7
fix         	ins3 all insert/pack seed 32452843 distributiontemplate pdd1 all_in yes insert_every 1000 overlapcheck yes region insShellReg volumefraction_region 0.7
fix         	ins4 all insert/pack seed 32452843 distributiontemplate pdd2 all_in yes insert_every ${delIntSteps} overlapcheck yes region insCoreReg  volumefraction_region 0.7
fix         	ins4 all insert/pack seed 32452843 distributiontemplate pdd2 all_in yes insert_every 1000 overlapcheck yes region insCoreReg  volumefraction_region 0.7

# run for some steps and remove particles in raceways
label	     	run2
run		100000 pre no post yes every ${delIntSteps} "delete_atoms porosity raceways ${fDelInit} 123457 compress no" "delete_atoms region freeboard compress no" "set region raceways property/atom Temp ${Tinlet}"
run		100000 pre no post yes every 1000 "delete_atoms porosity raceways ${fDelInit} 123457 compress no" "delete_atoms region freeboard compress no" "set region raceways property/atom Temp ${Tinlet}"
INFO: Particle insertion ins3: inserting every 1000 steps
INFO: Particle insertion ins4: inserting every 1000 steps
Memory usage per processor = 26.5216 Mbytes
Step Time Atoms KinEng nForceRe totalFor avForceP 
    7001       0.7001    81238   0.37127921         9226   -6145.8938  -0.66614926 
INFO: Particle insertion ins3: inserted 8 particle templates (mass 0.030159) at step 7002
 - a total of 8 particle templates (mass 0.030159) inserted so far.
WARNING: Particle insertion: Less insertions than requested (/home/ht45454/CFDEM/LIGGGHTS/src/fix_insert.cpp:814)
INFO: Particle insertion ins4: inserted 2 particle templates (mass 0.014726) at step 7002
 - a total of 2 particle templates (mass 0.014726) inserted so far.
WARNING: Particle insertion: Less insertions than requested (/home/ht45454/CFDEM/LIGGGHTS/src/fix_insert.cpp:814)
    7100         0.71    81248    3.4264006         9202   -6145.8938  -0.66788667 
    7200         0.72    81248    4.2310842         9033   -6145.8934  -0.68038223 
    7300         0.73    81248    2.3079638         8904    -6145.893  -0.69023947 
    7400         0.74    81248   0.72737234         8877   -6145.8929  -0.69233888 
    7500         0.75    81248   0.77685591         8897    -6145.893  -0.69078255 
    7600         0.76    81248     1.084293         8944   -6145.8931  -0.68715255 
    7700         0.77    81248   0.24057721         8996   -6145.8932  -0.68318058 
    7800         0.78    81248   0.27881659         8975   -6145.8932  -0.68477911 
    7900         0.79    81248   0.72324607         8930   -6145.8931  -0.68822983 
    8000          0.8    81248   0.29789409         8906    -6145.893  -0.69008447 
    8001       0.8001    81248   0.29190574         8906    -6145.893  -0.69008447 
Loop time of 15.835 on 8 procs for 1000 steps with 81248 atoms
Max time of 15.835 on 8 procs for 1000 steps with 81248 atoms

Pair  time (%) = 3.17757 (20.0667)
Max Pair time (ib) = 4.08482 (28.5519)
Neigh time (%) = 0.305883 (1.93169)
Max Neigh time (ib) = 0.392277 (28.244)
Comm  time (%) = 0.773527 (4.88491)
Max Comm time (ib) = 1.01832 (31.6463)
Outpt time (%) = 0.263234 (1.66235)
Max Outpt time (ib) = 0.263754 (0.19778)
Other time (%) = 11.3148 (71.4544)
Max Other time (ib) = 12.0461 (6.46314)

Nlocal:    10156 ave 12703 max 7630 min
Histogram: 4 0 0 0 0 0 0 0 0 4
Nghost:    2295.88 ave 2669 max 1953 min
Histogram: 4 0 0 0 0 0 0 0 1 3
Neighs:    57769 ave 72035 max 43872 min
Histogram: 4 0 0 0 0 0 0 0 0 4

Total # of neighbors = 462152
Ave neighs/atom = 5.68816
Neighbor list builds = 30
Dangerous builds = 0
delete_atoms porosity raceways ${fDelInit} 123457 compress no
delete_atoms porosity raceways 4.95809791563537 123457 compress no
Deleted 107 atoms, new total = 81141
delete_atoms region freeboard compress no
Deleted 0 atoms, new total = 81141
set region raceways property/atom Temp ${Tinlet}
set region raceways property/atom Temp 1823.15
  0 settings made for property/atom
Step Time Atoms KinEng nForceRe totalFor avForceP 
    8001       0.8001    81141   0.29188197         8906    -6145.893  -0.69008447 
INFO: Particle insertion ins3: inserted 193 particle templates (mass 0.727593) at step 8002
 - a total of 201 particle templates (mass 0.757752) inserted so far.
WARNING: Particle insertion: Less insertions than requested (/home/ht45454/CFDEM/LIGGGHTS/src/fix_insert.cpp:814)
INFO: Particle insertion ins4: inserted 36 particle templates (mass 0.265072) at step 8002
 - a total of 38 particle templates (mass 0.279798) inserted so far.
WARNING: Particle insertion: Less insertions than requested (/home/ht45454/CFDEM/LIGGGHTS/src/fix_insert.cpp:814)
    8100         0.81    81370     0.487181         9145   -6145.8938  -0.67204955 
    8200         0.82    81370   0.59454211         9166   -6145.8939  -0.67050984 
    8300         0.83    81370   0.36350416         9216    -6145.894   -0.6668721 
    8400         0.84    81370   0.13376382         9245    -6145.894  -0.66478025 
    8500         0.85    81370   0.34904928         9203   -6145.8939  -0.66781411 
    8600         0.86    81370   0.30351978         9135   -6145.8938  -0.67278523 
    8700         0.87    81370  0.075337277         9102   -6145.8937  -0.67522446 
    8800         0.88    81370   0.19757431         9108   -6145.8937  -0.67477965 
    8900         0.89    81370   0.21641049         9138   -6145.8938  -0.67256436 
    9000          0.9    81370  0.026471928         9167   -6145.8939  -0.67043669 
    9001       0.9001    81370  0.025565685         9167   -6145.8939  -0.67043669 
Loop time of 15.8359 on 8 procs for 1000 steps with 81370 atoms
Max time of 15.8359 on 8 procs for 1000 steps with 81370 atoms

Pair  time (%) = 3.18077 (20.0858)
Max Pair time (ib) = 4.05584 (27.5113)
Neigh time (%) = 0.296119 (1.86992)
Max Neigh time (ib) = 0.379565 (28.1799)
Comm  time (%) = 0.777238 (4.90807)
Max Comm time (ib) = 1.01775 (30.9443)
Outpt time (%) = 0.26436 (1.66937)
Max Outpt time (ib) = 0.264916 (0.210416)
Other time (%) = 11.3174 (71.4668)
Max Other time (ib) = 12.0576 (6.54036)

Nlocal:    10171.2 ave 12703 max 7670 min
Histogram: 4 0 0 0 0 0 0 0 0 4
Nghost:    2292.38 ave 2668 max 1963 min
Histogram: 4 0 0 0 0 0 0 0 2 2
Neighs:    57775.5 ave 71959 max 44025 min
Histogram: 4 0 0 0 0 0 0 0 0 4

Total # of neighbors = 462204
Ave neighs/atom = 5.68028
Neighbor list builds = 59
Dangerous builds = 0
delete_atoms porosity raceways ${fDelInit} 123457 compress no
delete_atoms porosity raceways 5.70447824702134 123457 compress no
Deleted 93 atoms, new total = 81277
delete_atoms region freeboard compress no
Deleted 0 atoms, new total = 81277
set region raceways property/atom Temp ${Tinlet}
set region raceways property/atom Temp 1823.15
  0 settings made for property/atom
Step Time Atoms KinEng nForceRe totalFor avForceP 
    9001       0.9001    81277  0.024702525         9167   -6145.8939  -0.67043669 
INFO: Particle insertion ins3: inserted 41 particle templates (mass 0.154566) at step 9002
 - a total of 242 particle templates (mass 0.912319) inserted so far.
WARNING: Particle insertion: Less insertions than requested (/home/ht45454/CFDEM/LIGGGHTS/src/fix_insert.cpp:814)
INFO: Particle insertion ins4: inserted 5 particle templates (mass 0.036816) at step 9002
 - a total of 43 particle templates (mass 0.316614) inserted so far.
WARNING: Particle insertion: Less insertions than requested (/home/ht45454/CFDEM/LIGGGHTS/src/fix_insert.cpp:814)
    9100         0.91    81323   0.15663556         9202   -6145.8939  -0.66788668 
    9200         0.92    81323   0.27847728         9171   -6145.8939  -0.67014428 
    9300         0.93    81323   0.11369202         9160   -6145.8939  -0.67094904 
    9400         0.94    81323   0.10788375         9175   -6145.8939  -0.66985212 
    9500         0.95    81323   0.18707153         9197   -6145.8939  -0.66824978 
    9600         0.96    81323  0.091109424         9225    -6145.894   -0.6662215 
    9700         0.97    81323  0.083684335         9214    -6145.894  -0.66701686 
    9800         0.98    81323    0.1799151         9180   -6145.8939  -0.66948728 
    9900         0.99    81323    0.1163584         9146   -6145.8938  -0.67197607 
   10000            1    81323  0.052558377         9133   -6145.8938  -0.67293256 
   10001       1.0001    81323  0.052885475         9135   -6145.8938  -0.67278523 
Loop time of 15.8503 on 8 procs for 1000 steps with 81323 atoms
Max time of 15.8503 on 8 procs for 1000 steps with 81323 atoms

Pair  time (%) = 3.16712 (19.9814)
Max Pair time (ib) = 3.9963 (26.1809)
Neigh time (%) = 0.29431 (1.85681)
Max Neigh time (ib) = 0.369854 (25.6682)
Comm  time (%) = 0.768316 (4.84733)
Max Comm time (ib) = 1.01429 (32.0148)
Outpt time (%) = 0.261289 (1.64848)
Max Outpt time (ib) = 0.261794 (0.193074)
Other time (%) = 11.3593 (71.6659)
Max Other time (ib) = 12.0664 (6.22491)

Nlocal:    10165.4 ave 12704 max 7650 min
Histogram: 4 0 0 0 0 0 0 0 0 4
Nghost:    2288.38 ave 2661 max 1953 min
Histogram: 4 0 0 0 0 0 0 0 2 2
Neighs:    57754.8 ave 72026 max 43872 min
Histogram: 4 0 0 0 0 0 0 0 0 4

Total # of neighbors = 462038
Ave neighs/atom = 5.68152
Neighbor list builds = 88
Dangerous builds = 0
delete_atoms porosity raceways ${fDelInit} 123457 compress no
delete_atoms porosity raceways 6.6314559621623 123457 compress no
Deleted 80 atoms, new total = 81243
delete_atoms region freeboard compress no
Deleted 0 atoms, new total = 81243
set region raceways property/atom Temp ${Tinlet}
set region raceways property/atom Temp 1823.15
  0 settings made for property/atom
Step Time Atoms KinEng nForceRe totalFor avForceP 
   10001       1.0001    81243  0.035198188         9135   -6145.8938  -0.67278523 
INFO: Particle insertion ins3: inserted 61 particle templates (mass 0.229965) at step 10002
 - a total of 303 particle templates (mass 1.142283) inserted so far.
WARNING: Particle insertion: Less insertions than requested (/home/ht45454/CFDEM/LIGGGHTS/src/fix_insert.cpp:814)
INFO: Particle insertion ins4: inserted 5 particle templates (mass 0.036816) at step 10002
 - a total of 48 particle templates (mass 0.353429) inserted so far.
WARNING: Particle insertion: Less insertions than requested (/home/ht45454/CFDEM/LIGGGHTS/src/fix_insert.cpp:814)
   10100         1.01    81309   0.11805197         9209    -6145.894  -0.66737901 
   10200         1.02    81309  0.094519419         9226    -6145.894  -0.66614929 
   10300         1.03    81309  0.055179664         9233    -6145.894  -0.66564425 
   10400         1.04    81309    0.1262517         9228    -6145.894  -0.66600491 
   10500         1.05    81309    0.1310088         9215    -6145.894  -0.66694447 
   10600         1.06    81309  0.075038549         9207   -6145.8939  -0.66752398 
   10700         1.07    81309  0.093592038         9218    -6145.894  -0.66672741 
   10800         1.08    81309   0.10524456         9229    -6145.894  -0.66593275 
   10900         1.09    81309  0.077997914         9235    -6145.894  -0.66550009 
   11000          1.1    81309   0.10686733         9222    -6145.894  -0.66643822 
   11001       1.1001    81309   0.10740102         9221    -6145.894   -0.6665105 
Loop time of 16.3842 on 8 procs for 1000 steps with 81309 atoms
Max time of 16.3842 on 8 procs for 1000 steps with 81309 atoms

Pair  time (%) = 3.2649 (19.9271)
Max Pair time (ib) = 4.09112 (25.306)
Neigh time (%) = 0.296552 (1.80999)
Max Neigh time (ib) = 0.376874 (27.0852)
Comm  time (%) = 0.782509 (4.776)
Max Comm time (ib) = 1.02015 (30.3696)
Outpt time (%) = 0.281474 (1.71796)
Max Outpt time (ib) = 0.282221 (0.265178)
Other time (%) = 11.7588 (71.7689)
Max Other time (ib) = 12.4376 (5.77273)

Nlocal:    10163.6 ave 12694 max 7652 min
Histogram: 4 0 0 0 0 0 0 0 0 4
Nghost:    2282 ave 2663 max 1947 min
Histogram: 4 0 0 0 0 0 0 0 2 2
Neighs:    57684.6 ave 71916 max 43776 min
Histogram: 4 0 0 0 0 0 0 0 0 4

Total # of neighbors = 461477
Ave neighs/atom = 5.6756
Neighbor list builds = 116
Dangerous builds = 0
delete_atoms porosity raceways ${fDelInit} 123457 compress no
delete_atoms porosity raceways 9.14683580987902 123457 compress no
Deleted 58 atoms, new total = 81251
delete_atoms region freeboard compress no
Deleted 0 atoms, new total = 81251
set region raceways property/atom Temp ${Tinlet}
set region raceways property/atom Temp 1823.15
  0 settings made for property/atom
Step Time Atoms KinEng nForceRe totalFor avForceP 
   11001       1.1001    81251  0.075998845         9221    -6145.894   -0.6665105 
INFO: Particle insertion ins3: inserted 20 particle templates (mass 0.075398) at step 11002
 - a total of 323 particle templates (mass 1.217681) inserted so far.
WARNING: Particle insertion: Less insertions than requested (/home/ht45454/CFDEM/LIGGGHTS/src/fix_insert.cpp:814)
INFO: Particle insertion ins4: inserted 0 particle templates (mass 0.000000) at step 11002
 - a total of 48 particle templates (mass 0.353429) inserted so far.
WARNING: Particle insertion: Less insertions than requested (/home/ht45454/CFDEM/LIGGGHTS/src/fix_insert.cpp:814)
   11100         1.11    81271    0.1070032         9218   -6145.8939  -0.66672741 
   11200         1.12    81271   0.06512013         9197   -6145.8939  -0.66824978 
   11300         1.13    81271  0.060841919         9195   -6145.8939  -0.66839513 
   11400         1.14    81271  0.075818122         9204   -6145.8939  -0.66774155 
   11500         1.15    81271  0.056874939         9215    -6145.894  -0.66694447 
   11600         1.16    81271  0.070735283         9217    -6145.894  -0.66679975 
   11700         1.17    81271   0.10071387         9209   -6145.8939  -0.66737901 
   11800         1.18    81271  0.094122598         9205   -6145.8939  -0.66766901 
   11900         1.19    81271   0.09518696         9206   -6145.8939  -0.66759649 
   12000          1.2    81271  0.098413075         9210   -6145.8939  -0.66730655 
   12001       1.2001    81271  0.098135624         9209   -6145.8939  -0.66737901 
Loop time of 16.624 on 8 procs for 1000 steps with 81271 atoms
Max time of 16.624 on 8 procs for 1000 steps with 81271 atoms

Pair  time (%) = 3.30987 (19.9101)
Max Pair time (ib) = 4.13563 (24.9483)
Neigh time (%) = 0.324786 (1.95371)
Max Neigh time (ib) = 0.423594 (30.4224)
Comm  time (%) = 0.824107 (4.95732)
Max Comm time (ib) = 1.07637 (30.6106)
Outpt time (%) = 0.278312 (1.67415)
Max Outpt time (ib) = 0.278878 (0.203474)
Other time (%) = 11.887 (71.5047)
Max Other time (ib) = 12.5587 (5.6509)

Nlocal:    10158.9 ave 12695 max 7633 min
Histogram: 4 0 0 0 0 0 0 0 0 4
Nghost:    2279.75 ave 2661 max 1937 min
Histogram: 4 0 0 0 0 0 0 0 2 2
Neighs:    57664.5 ave 71935 max 43668 min
Histogram: 4 0 0 0 0 0 0 0 0 4

Total # of neighbors = 461316
Ave neighs/atom = 5.67627
Neighbor list builds = 146
Dangerous builds = 0
delete_atoms porosity raceways ${fDelInit} 123457 compress no
delete_atoms porosity raceways 8.03812843898459 123457 compress no
Deleted 66 atoms, new total = 81205
delete_atoms region freeboard compress no
Deleted 0 atoms, new total = 81205
set region raceways property/atom Temp ${Tinlet}
set region raceways property/atom Temp 1823.15
  0 settings made for property/atom
Step Time Atoms KinEng nForceRe totalFor avForceP 
   12001       1.2001    81205  0.060626904         9209   -6145.8939  -0.66737901 
INFO: Particle insertion ins3: inserted 33 particle templates (mass 0.124407) at step 12002
 - a total of 356 particle templates (mass 1.342088) inserted so far.
WARNING: Particle insertion: Less insertions than requested (/home/ht45454/CFDEM/LIGGGHTS/src/fix_insert.cpp:814)
INFO: Particle insertion ins4: inserted 1 particle templates (mass 0.007363) at step 12002
 - a total of 49 particle templates (mass 0.360792) inserted so far.
WARNING: Particle insertion: Less insertions than requested (/home/ht45454/CFDEM/LIGGGHTS/src/fix_insert.cpp:814)
   12100         1.21    81239  0.069606171         9246    -6145.894  -0.66470834 
   12200         1.22    81239    0.0681834         9240    -6145.894  -0.66513997 
   12300         1.23    81239  0.079958183         9221    -6145.894   -0.6665105 
   12400         1.24    81239  0.079370341         9202   -6145.8939  -0.66788668 
   12500         1.25    81239  0.073256148         9191   -6145.8939  -0.66868602 
   12600         1.26    81239  0.094797996         9190   -6145.8939  -0.66875878 
   12700         1.27    81239   0.11496123         9196   -6145.8939  -0.66832245 
   12800         1.28    81239   0.12931526         9202   -6145.8939  -0.66788668 
   12900         1.29    81239   0.14417458         9193   -6145.8939  -0.66854054 
   13000          1.3    81239   0.12031377         9186   -6145.8939  -0.66904999 
   13001       1.3001    81239   0.11999668         9184   -6145.8939  -0.66919569 
Loop time of 16.779 on 8 procs for 1000 steps with 81239 atoms
Max time of 16.779 on 8 procs for 1000 steps with 81239 atoms

Pair  time (%) = 3.29433 (19.6337)
Max Pair time (ib) = 4.09159 (24.2011)
Neigh time (%) = 0.327014 (1.94895)
Max Neigh time (ib) = 0.419269 (28.2113)
Comm  time (%) = 0.815166 (4.85826)
Max Comm time (ib) = 1.07224 (31.5364)
Outpt time (%) = 0.277232 (1.65226)
Max Outpt time (ib) = 0.278363 (0.407914)
Other time (%) = 12.0652 (71.9069)
Max Other time (ib) = 12.7703 (5.8442)

Nlocal:    10154.9 ave 12696 max 7613 min
Histogram: 4 0 0 0 0 0 0 0 0 4
Nghost:    2278.38 ave 2663 max 1938 min
Histogram: 4 0 0 0 0 0 0 0 2 2
Neighs:    57630.5 ave 71934 max 43492 min
Histogram: 4 0 0 0 0 0 0 0 0 4

Total # of neighbors = 461044
Ave neighs/atom = 5.67516
Neighbor list builds = 176
Dangerous builds = 0
delete_atoms porosity raceways ${fDelInit} 123457 compress no
delete_atoms porosity raceways 7.68864459381136 123457 compress no
Deleted 69 atoms, new total = 81170
delete_atoms region freeboard compress no
Deleted 0 atoms, new total = 81170
set region raceways property/atom Temp ${Tinlet}
set region raceways property/atom Temp 1823.15
  0 settings made for property/atom
Step Time Atoms KinEng nForceRe totalFor avForceP 
   13001       1.3001    81170  0.075670756         9184   -6145.8939  -0.66919569 
INFO: Particle insertion ins3: inserted 36 particle templates (mass 0.135717) at step 13002
 - a total of 392 particle templates (mass 1.477805) inserted so far.
WARNING: Particle insertion: Less insertions than requested (/home/ht45454/CFDEM/LIGGGHTS/src/fix_insert.cpp:814)
INFO: Particle insertion ins4: inserted 0 particle templates (mass 0.000000) at step 13002
 - a total of 49 particle templates (mass 0.360792) inserted so far.
WARNING: Particle insertion: Less insertions than requested (/home/ht45454/CFDEM/LIGGGHTS/src/fix_insert.cpp:814)
   13100         1.31    81206  0.074996361         9220   -6145.8939  -0.66658278 
   13200         1.32    81206  0.084978487         9221   -6145.8939   -0.6665105 
   13300         1.33    81206   0.10635021         9218   -6145.8939  -0.66672741 
   13400         1.34    81206   0.11609011         9211   -6145.8939   -0.6672341 
   13500         1.35    81206   0.14160476         9198   -6145.8939  -0.66817713 
   13600         1.36    81206    0.1612151         9184   -6145.8939  -0.66919569 
   13700         1.37    81206   0.17464951         9169   -6145.8939  -0.67029046 
   13800         1.38    81206   0.16853545         9161   -6145.8939   -0.6708758 
   13900         1.39    81206   0.14220044         9160   -6145.8938  -0.67094904 
   14000          1.4    81206   0.10916705         9163   -6145.8938  -0.67072936 
   14001       1.4001    81206   0.10882275         9163   -6145.8938  -0.67072936 
Loop time of 16.7701 on 8 procs for 1000 steps with 81206 atoms
Max time of 16.7701 on 8 procs for 1000 steps with 81206 atoms

Pair  time (%) = 3.25073 (19.3841)
Max Pair time (ib) = 4.03592 (24.1542)
Neigh time (%) = 0.357021 (2.12891)
Max Neigh time (ib) = 0.449423 (25.8815)
Comm  time (%) = 0.81914 (4.88452)
Max Comm time (ib) = 1.07492 (31.2252)
Outpt time (%) = 0.28016 (1.67059)
Max Outpt time (ib) = 0.280711 (0.196722)
Other time (%) = 12.0631 (71.9319)
Max Other time (ib) = 12.7552 (5.73779)

Nlocal:    10150.8 ave 12695 max 7595 min
Histogram: 4 0 0 0 0 0 0 0 0 4
Nghost:    2278.75 ave 2664 max 1933 min
Histogram: 4 0 0 0 0 0 0 0 2 2
Neighs:    57611.5 ave 71918 max 43405 min
Histogram: 4 0 0 0 0 0 0 0 0 4

Total # of neighbors = 460892
Ave neighs/atom = 5.67559
Neighbor list builds = 209
Dangerous builds = 0
delete_atoms porosity raceways ${fDelInit} 123457 compress no
delete_atoms porosity raceways 7.07355302630646 123457 compress no
Deleted 75 atoms, new total = 81131
delete_atoms region freeboard compress no
Deleted 0 atoms, new total = 81131
set region raceways property/atom Temp ${Tinlet}
set region raceways property/atom Temp 1823.15
  0 settings made for property/atom
Step Time Atoms KinEng nForceRe totalFor avForceP 
   14001       1.4001    81131  0.086852967         9163   -6145.8938  -0.67072936 
INFO: Particle insertion ins3: inserted 62 particle templates (mass 0.233734) at step 14002
 - a total of 454 particle templates (mass 1.711540) inserted so far.
WARNING: Particle insertion: Less insertions than requested (/home/ht45454/CFDEM/LIGGGHTS/src/fix_insert.cpp:814)
INFO: Particle insertion ins4: inserted 2 particle templates (mass 0.014726) at step 14002
 - a total of 51 particle templates (mass 0.375518) inserted so far.
WARNING: Particle insertion: Less insertions than requested (/home/ht45454/CFDEM/LIGGGHTS/src/fix_insert.cpp:814)
   14100         1.41    81195   0.11576973         9222   -6145.8939  -0.66643822 
   14200         1.42    81195  0.096779184         9215   -6145.8939  -0.66694447 
   14300         1.43    81195  0.091720751         9207   -6145.8939  -0.66752398 
   14400         1.44    81195  0.091899339         9205   -6145.8939  -0.66766901 
   14500         1.45    81195  0.092350366         9205   -6145.8939  -0.66766901 
   14600         1.46    81195  0.080957682         9200   -6145.8939  -0.66803187 
   14700         1.47    81195  0.070928512         9190   -6145.8939  -0.66875878 
   14800         1.48    81195   0.06968305         9182   -6145.8939  -0.66934145 
   14900         1.49    81195  0.066370145         9172   -6145.8939  -0.67007122 
   15000          1.5    81195  0.057585083         9164   -6145.8938  -0.67065617 
   15001       1.5001    81195  0.057437891         9165   -6145.8939    -0.670583 
Loop time of 16.6454 on 8 procs for 1000 steps with 81195 atoms
Max time of 16.6454 on 8 procs for 1000 steps with 81195 atoms

Pair  time (%) = 3.27041 (19.6475)
Max Pair time (ib) = 4.16722 (27.4218)
Neigh time (%) = 0.366909 (2.20426)
Max Neigh time (ib) = 0.458212 (24.8844)
Comm  time (%) = 0.816975 (4.90811)
Max Comm time (ib) = 1.07776 (31.9213)
Outpt time (%) = 0.279495 (1.67911)
Max Outpt time (ib) = 0.279967 (0.168904)
Other time (%) = 11.9116 (71.561)
Max Other time (ib) = 12.587 (5.66956)

Nlocal:    10149.4 ave 12697 max 7585 min
Histogram: 4 0 0 0 0 0 0 0 0 4
Nghost:    2277.12 ave 2661 max 1926 min
Histogram: 4 0 0 0 0 0 0 0 2 2
Neighs:    57590.9 ave 71948 max 43315 min
Histogram: 4 0 0 0 0 0 0 0 0 4

Total # of neighbors = 460727
Ave neighs/atom = 5.67433
Neighbor list builds = 243
Dangerous builds = 0
delete_atoms porosity raceways ${fDelInit} 123457 compress no
delete_atoms porosity raceways 8.03812843898459 123457 compress no
Deleted 66 atoms, new total = 81129
delete_atoms region freeboard compress no
Deleted 0 atoms, new total = 81129
set region raceways property/atom Temp ${Tinlet}
set region raceways property/atom Temp 1823.15
  0 settings made for property/atom
Step Time Atoms KinEng nForceRe totalFor avForceP 
   15001       1.5001    81129  0.018863659         9165   -6145.8939    -0.670583 
INFO: Particle insertion ins3: inserted 58 particle templates (mass 0.218655) at step 15002
 - a total of 512 particle templates (mass 1.930195) inserted so far.
WARNING: Particle insertion: Less insertions than requested (/home/ht45454/CFDEM/LIGGGHTS/src/fix_insert.cpp:814)
INFO: Particle insertion ins4: inserted 1 particle templates (mass 0.007363) at step 15002
 - a total of 52 particle templates (mass 0.382882) inserted so far.
WARNING: Particle insertion: Less insertions than requested (/home/ht45454/CFDEM/LIGGGHTS/src/fix_insert.cpp:814)
   15100         1.51    81188  0.051851249         9220   -6145.8939  -0.66658278 
   15200         1.52    81188   0.04388042         9224    -6145.894  -0.66629372 
   15300         1.53    81188  0.045552534         9220    -6145.894  -0.66658279 
   15400         1.54    81188  0.061263749         9218    -6145.894  -0.66672741 
   15500         1.55    81188  0.073765804         9218   -6145.8939  -0.66672741 
   15600         1.56    81188  0.088416943         9213   -6145.8939  -0.66708925 
   15700         1.57    81188  0.098964715         9206   -6145.8939  -0.66759649 
   15800         1.58    81188   0.10537484         9199   -6145.8939  -0.66810449 
   15900         1.59    81188   0.10777763         9186   -6145.8939  -0.66904999 
   16000          1.6    81188  0.092589625         9173   -6145.8939  -0.66999817 
   16001       1.6001    81188  0.092163228         9173   -6145.8939  -0.66999817 
Loop time of 16.6318 on 8 procs for 1000 steps with 81188 atoms
Max time of 16.6318 on 8 procs for 1000 steps with 81188 atoms

Pair  time (%) = 3.29231 (19.7952)
Max Pair time (ib) = 4.15999 (26.3548)
Neigh time (%) = 0.334614 (2.01189)
Max Neigh time (ib) = 0.421439 (25.9479)
Comm  time (%) = 0.801134 (4.81687)
Max Comm time (ib) = 1.04497 (30.4363)
Outpt time (%) = 0.275719 (1.65778)
Max Outpt time (ib) = 0.276345 (0.226824)
Other time (%) = 11.9281 (71.7182)
Max Other time (ib) = 12.6043 (5.66955)

Nlocal:    10148.5 ave 12696 max 7590 min
Histogram: 4 0 0 0 0 0 0 0 0 4
Nghost:    2274.88 ave 2666 max 1926 min
Histogram: 4 0 0 0 0 0 0 0 2 2
Neighs:    57577.9 ave 71927 max 43309 min
Histogram: 4 0 0 0 0 0 0 0 0 4

Total # of neighbors = 460623
Ave neighs/atom = 5.67354
Neighbor list builds = 274
Dangerous builds = 0
delete_atoms porosity raceways ${fDelInit} 123457 compress no
delete_atoms porosity raceways 8.42089645988865 123457 compress no
Deleted 63 atoms, new total = 81125
delete_atoms region freeboard compress no
Deleted 0 atoms, new total = 81125
set region raceways property/atom Temp ${Tinlet}
set region raceways property/atom Temp 1823.15
  0 settings made for property/atom
Step Time Atoms KinEng nForceRe totalFor avForceP 
   16001       1.6001    81125  0.056777624         9173   -6145.8939  -0.66999817 
INFO: Particle insertion ins3: inserted 44 particle templates (mass 0.165876) at step 16002
 - a total of 556 particle templates (mass 2.096071) inserted so far.
WARNING: Particle insertion: Less insertions than requested (/home/ht45454/CFDEM/LIGGGHTS/src/fix_insert.cpp:814)
INFO: Particle insertion ins4: inserted 1 particle templates (mass 0.007363) at step 16002
 - a total of 53 particle templates (mass 0.390245) inserted so far.
WARNING: Particle insertion: Less insertions than requested (/home/ht45454/CFDEM/LIGGGHTS/src/fix_insert.cpp:814)
   16100         1.61    81170  0.073943992         9213   -6145.8939  -0.66708925 
   16200         1.62    81170  0.071954048         9207   -6145.8939  -0.66752398 
   16300         1.63    81170  0.077871099         9205   -6145.8939  -0.66766901 
   16400         1.64    81170  0.077832069         9198   -6145.8939  -0.66817713 
   16500         1.65    81170  0.075840023         9196   -6145.8939  -0.66832245 
   16600         1.66    81170  0.078939828         9194   -6145.8939  -0.66846783 
   16700         1.67    81170   0.08664323         9193   -6145.8939  -0.66854055 
   16800         1.68    81170  0.092608442         9190   -6145.8939  -0.66875878 
   16900         1.69    81170  0.099455709         9188   -6145.8939  -0.66890436 
   17000          1.7    81170   0.10220016         9182   -6145.8939  -0.66934145 
   17001       1.7001    81170   0.10227164         9183   -6145.8939  -0.66926856 
Loop time of 16.5216 on 8 procs for 1000 steps with 81170 atoms
Max time of 16.5216 on 8 procs for 1000 steps with 81170 atoms

Pair  time (%) = 3.28424 (19.8784)
Max Pair time (ib) = 4.13902 (26.0268)
Neigh time (%) = 0.325391 (1.96948)
Max Neigh time (ib) = 0.412667 (26.8219)
Comm  time (%) = 0.793861 (4.80498)
Max Comm time (ib) = 1.04379 (31.4831)
Outpt time (%) = 0.276761 (1.67515)
Max Outpt time (ib) = 0.277315 (0.199977)
Other time (%) = 11.8414 (71.672)
Max Other time (ib) = 12.5085 (5.63398)

Nlocal:    10146.2 ave 12696 max 7577 min
Histogram: 4 0 0 0 0 0 0 0 0 4
Nghost:    2274.25 ave 2666 max 1925 min
Histogram: 4 0 0 0 0 0 0 0 2 2
Neighs:    57548 ave 71929 max 43148 min
Histogram: 4 0 0 0 0 0 0 0 0 4

Total # of neighbors = 460384
Ave neighs/atom = 5.67185
Neighbor list builds = 304
Dangerous builds = 0
delete_atoms porosity raceways ${fDelInit} 123457 compress no
delete_atoms porosity raceways 8.28931995270288 123457 compress no
Deleted 64 atoms, new total = 81106
delete_atoms region freeboard compress no
Deleted 0 atoms, new total = 81106
set region raceways property/atom Temp ${Tinlet}
set region raceways property/atom Temp 1823.15
  0 settings made for property/atom
Step Time Atoms KinEng nForceRe totalFor avForceP 
   17001       1.7001    81106  0.060633238         9183   -6145.8939  -0.66926856 
INFO: Particle insertion ins3: inserted 51 particle templates (mass 0.192265) at step 17002
 - a total of 607 particle templates (mass 2.288336) inserted so far.
WARNING: Particle insertion: Less insertions than requested (/home/ht45454/CFDEM/LIGGGHTS/src/fix_insert.cpp:814)
INFO: Particle insertion ins4: inserted 1 particle templates (mass 0.007363) at step 17002
 - a total of 54 particle templates (mass 0.397608) inserted so far.
WARNING: Particle insertion: Less insertions than requested (/home/ht45454/CFDEM/LIGGGHTS/src/fix_insert.cpp:814)
   17100         1.71    81158   0.10233381         9225    -6145.894  -0.66622149 
   17200         1.72    81158   0.10613777         9212   -6145.8939  -0.66716167 
   17300         1.73    81158   0.10084797         9201   -6145.8939  -0.66795927 
   17400         1.74    81158  0.086251542         9188   -6145.8939  -0.66890436 
   17500         1.75    81158  0.077798986         9179   -6145.8939  -0.66956021 
   17600         1.76    81158  0.072131795         9177   -6145.8939  -0.66970614 
   17700         1.77    81158  0.072656628         9180   -6145.8939  -0.66948728 
   17800         1.78    81158  0.089017077         9181   -6145.8939  -0.66941436 
   17900         1.79    81158    0.1014056         9180   -6145.8939  -0.66948728 
   18000          1.8    81158   0.10785463         9176   -6145.8939  -0.66977912 
   18001       1.8001    81158   0.10809263         9177   -6145.8939  -0.66970614 
Loop time of 16.5928 on 8 procs for 1000 steps with 81158 atoms
Max time of 16.5928 on 8 procs for 1000 steps with 81158 atoms

Pair  time (%) = 3.26938 (19.7036)
Max Pair time (ib) = 4.23 (29.3824)
Neigh time (%) = 0.34374 (2.07162)
Max Neigh time (ib) = 0.433479 (26.1066)
Comm  time (%) = 0.821661 (4.95192)
Max Comm time (ib) = 1.08555 (32.1164)
Outpt time (%) = 0.274588 (1.65486)
Max Outpt time (ib) = 0.275621 (0.376113)
Other time (%) = 11.8834 (71.618)
Max Other time (ib) = 12.5612 (5.70388)

Nlocal:    10144.8 ave 12696 max 7568 min
Histogram: 4 0 0 0 0 0 0 0 0 4
Nghost:    2273.25 ave 2667 max 1920 min
Histogram: 4 0 0 0 0 0 0 0 2 2
Neighs:    57533 ave 71931 max 43081 min
Histogram: 4 0 0 0 0 0 0 0 0 4

Total # of neighbors = 460264
Ave neighs/atom = 5.67121
Neighbor list builds = 336
Dangerous builds = 0
delete_atoms porosity raceways ${fDelInit} 123457 compress no
delete_atoms porosity raceways 8.16179195343053 123457 compress no
Deleted 65 atoms, new total = 81093
delete_atoms region freeboard compress no
Deleted 0 atoms, new total = 81093
set region raceways property/atom Temp ${Tinlet}
set region raceways property/atom Temp 1823.15
  0 settings made for property/atom
Step Time Atoms KinEng nForceRe totalFor avForceP 
   18001       1.8001    81093  0.061586198         9177   -6145.8939  -0.66970614 
INFO: Particle insertion ins3: inserted 50 particle templates (mass 0.188496) at step 18002
 - a total of 657 particle templates (mass 2.476832) inserted so far.
[...]
set region raceways property/atom Temp 1823.15
  0 settings made for property/atom
Step Time Atoms KinEng nForceRe totalFor avForceP 
  100001      10.0001    80916  0.036462913         9231   -6145.8938  -0.66578845 
INFO: Particle insertion ins3: inserted 59 particle templates (mass 0.222425) at step 100002
 - a total of 5808 particle templates (mass 21.895644) inserted so far.
WARNING: Particle insertion: Less insertions than requested (/home/ht45454/CFDEM/LIGGGHTS/src/fix_insert.cpp:814)
INFO: Particle insertion ins4: inserted 1 particle templates (mass 0.007363) at step 100002
 - a total of 271 particle templates (mass 1.995402) inserted so far.
WARNING: Particle insertion: Less insertions than requested (/home/ht45454/CFDEM/LIGGGHTS/src/fix_insert.cpp:814)
  100100        10.01    80976   0.10666237         9279    -6145.894  -0.66234436 
  100200        10.02    80976   0.11207799         9275   -6145.8939     -0.66263 
  100300        10.03    80976   0.11392762         9265   -6145.8939   -0.6633452 
  100400        10.04    80976   0.12444237         9250   -6145.8939  -0.66442089 
  100500        10.05    80976   0.12881142         9249   -6145.8939  -0.66449273 
  100600        10.06    80976    0.1313167         9243   -6145.8939  -0.66492407 
  100700        10.07    80976   0.13370581         9238   -6145.8939  -0.66528396 
  100800        10.08    80976   0.13538973         9225   -6145.8939  -0.66622148 
  100900        10.09    80976   0.12869226         9218   -6145.8938   -0.6667274 
  101000         10.1    80976   0.11033704         9209   -6145.8938  -0.66737899 
  101001      10.1001    80976   0.10994356         9208   -6145.8938  -0.66745147 
Loop time of 15.1224 on 8 procs for 1000 steps with 80976 atoms
Max time of 15.1224 on 8 procs for 1000 steps with 80976 atoms

Pair  time (%) = 2.86378 (18.9374)
Max Pair time (ib) = 3.76358 (31.4197)
Neigh time (%) = 0.351274 (2.32288)
Max Neigh time (ib) = 0.462775 (31.7416)
Comm  time (%) = 0.703827 (4.6542)
Max Comm time (ib) = 0.933309 (32.6049)
Outpt time (%) = 0.245175 (1.62127)
Max Outpt time (ib) = 0.245763 (0.23986)
Other time (%) = 10.9583 (72.4643)
Max Other time (ib) = 11.5446 (5.34985)

Nlocal:    10122 ave 12699 max 7482 min
Histogram: 4 0 0 0 0 0 0 0 0 4
Nghost:    2272.88 ave 2655 max 1884 min
Histogram: 2 2 0 0 0 0 0 0 1 3
Neighs:    57410.2 ave 71932 max 42535 min
Histogram: 4 0 0 0 0 0 0 0 0 4

Total # of neighbors = 459282
Ave neighs/atom = 5.67183
Neighbor list builds = 3094
Dangerous builds = 0
delete_atoms porosity raceways ${fDelInit} 123457 compress no
delete_atoms porosity raceways 6.80967800366447 123457 compress no
Deleted 76 atoms, new total = 80900
delete_atoms region freeboard compress no
Deleted 0 atoms, new total = 80900
set region raceways property/atom Temp ${Tinlet}
set region raceways property/atom Temp 1823.15
  0 settings made for property/atom
Step Time Atoms KinEng nForceRe totalFor avForceP 
  101001      10.1001    80900  0.066827034         9208   -6145.8938  -0.66745147 
INFO: Particle insertion ins3: inserted 59 particle templates (mass 0.222425) at step 101002
 - a total of 5867 particle templates (mass 22.118069) inserted so far.
WARNING: Particle insertion: Less insertions than requested (/home/ht45454/CFDEM/LIGGGHTS/src/fix_insert.cpp:814)
INFO: Particle insertion ins4: inserted 4 particle templates (mass 0.029452) at step 101002
 - a total of 275 particle templates (mass 2.024855) inserted so far.
WARNING: Particle insertion: Less insertions than requested (/home/ht45454/CFDEM/LIGGGHTS/src/fix_insert.cpp:814)
  101100        10.11    80963    0.1161407         9269   -6145.8939  -0.66305894 
  101200        10.12    80963   0.11020041         9268   -6145.8939  -0.66313048 
  101300        10.13    80963   0.10089162         9258   -6145.8939  -0.66384675 
  101400        10.14    80963  0.094156206         9250   -6145.8939  -0.66442089 
  101500        10.15    80963  0.084668675         9242   -6145.8939  -0.66499602 
  101600        10.16    80963  0.088471782         9235   -6145.8939  -0.66550008 
  101700        10.17    80963   0.09553885         9234   -6145.8939  -0.66557215 
  101800        10.18    80963   0.11769525         9227   -6145.8939  -0.66607708 
  101900        10.19    80963    0.1360898         9215   -6145.8938  -0.66694446 
  102000         10.2    80963   0.13117468         9203   -6145.8938   -0.6678141 
  102001      10.2001    80963   0.13101228         9203   -6145.8938   -0.6678141 
Loop time of 14.7403 on 8 procs for 1000 steps with 80963 atoms
Max time of 14.7403 on 8 procs for 1000 steps with 80963 atoms

Pair  time (%) = 2.83897 (19.26)
Max Pair time (ib) = 3.57126 (25.794)
Neigh time (%) = 0.329698 (2.23672)
Max Neigh time (ib) = 0.421722 (27.9115)
Comm  time (%) = 0.670043 (4.54566)
Max Comm time (ib) = 0.884456 (31.9998)
Outpt time (%) = 0.238854 (1.62042)
Max Outpt time (ib) = 0.239394 (0.226082)
Other time (%) = 10.6627 (72.3372)
Max Other time (ib) = 11.2292 (5.31318)

Nlocal:    10120.4 ave 12700 max 7473 min
Histogram: 4 0 0 0 0 0 0 0 0 4
Nghost:    2272.88 ave 2655 max 1877 min
Histogram: 2 2 0 0 0 0 0 0 1 3
Neighs:    57404 ave 71931 max 42469 min
Histogram: 4 0 0 0 0 0 0 0 0 4

Total # of neighbors = 459232
Ave neighs/atom = 5.67212
Neighbor list builds = 3126
Dangerous builds = 0
delete_atoms porosity raceways ${fDelInit} 123457 compress no
delete_atoms porosity raceways 7.80709462549344 123457 compress no
Deleted 67 atoms, new total = 80896
delete_atoms region freeboard compress no
Deleted 0 atoms, new total = 80896
set region raceways property/atom Temp ${Tinlet}
set region raceways property/atom Temp 1823.15
  0 settings made for property/atom
Step Time Atoms KinEng nForceRe totalFor avForceP 
  102001      10.2001    80896  0.086847799         9203   -6145.8938   -0.6678141 
INFO: Particle insertion ins3: inserted 64 particle templates (mass 0.241274) at step 102002
 - a total of 5931 particle templates (mass 22.359343) inserted so far.
WARNING: Particle insertion: Less insertions than requested (/home/ht45454/CFDEM/LIGGGHTS/src/fix_insert.cpp:814)
INFO: Particle insertion ins4: inserted 2 particle templates (mass 0.014726) at step 102002
 - a total of 277 particle templates (mass 2.039581) inserted so far.
WARNING: Particle insertion: Less insertions than requested (/home/ht45454/CFDEM/LIGGGHTS/src/fix_insert.cpp:814)
  102100        10.21    80962   0.14830115         9260   -6145.8939  -0.66370338 
  102200        10.22    80962   0.12022627         9250   -6145.8939  -0.66442089 
  102300        10.23    80962  0.093839663         9235   -6145.8939  -0.66550008 
  102400        10.24    80962  0.070157318         9229   -6145.8939  -0.66593273 
  102500        10.25    80962  0.068819626         9228   -6145.8939   -0.6660049 
  102600        10.26    80962  0.077043434         9227   -6145.8939  -0.66607708 
  102700        10.27    80962  0.085130046         9232   -6145.8939  -0.66571634 
  102800        10.28    80962  0.096636639         9223   -6145.8939  -0.66636595 
  102900        10.29    80962    0.1151912         9217   -6145.8939  -0.66679974 
  103000         10.3    80962  0.096978967         9206   -6145.8938  -0.66759648 
  103001      10.3001    80962  0.096903757         9208   -6145.8938  -0.66745147 
Loop time of 14.5754 on 8 procs for 1000 steps with 80962 atoms
Max time of 14.5754 on 8 procs for 1000 steps with 80962 atoms

Pair  time (%) = 2.82984 (19.4152)
Max Pair time (ib) = 3.47143 (22.6725)
Neigh time (%) = 0.318486 (2.1851)
Max Neigh time (ib) = 0.401 (25.908)
Comm  time (%) = 0.667638 (4.58058)
Max Comm time (ib) = 0.873871 (30.89)
Outpt time (%) = 0.257754 (1.76842)
Max Outpt time (ib) = 0.258577 (0.319451)
Other time (%) = 10.5017 (72.0507)
Max Other time (ib) = 11.0327 (5.05652)

Nlocal:    10120.2 ave 12701 max 7473 min
Histogram: 4 0 0 0 0 0 0 0 0 4
Nghost:    2272.88 ave 2656 max 1871 min
Histogram: 2 2 0 0 0 0 0 0 1 3
Neighs:    57398.8 ave 71934 max 42423 min
Histogram: 4 0 0 0 0 0 0 0 0 4

Total # of neighbors = 459190
Ave neighs/atom = 5.67167
Neighbor list builds = 3157
Dangerous builds = 0
delete_atoms porosity raceways ${fDelInit} 123457 compress no
delete_atoms porosity raceways 8.17358077185148 123457 compress no
Deleted 63 atoms, new total = 80899
delete_atoms region freeboard compress no
Deleted 0 atoms, new total = 80899
set region raceways property/atom Temp ${Tinlet}
set region raceways property/atom Temp 1823.15
  0 settings made for property/atom
Step Time Atoms KinEng nForceRe totalFor avForceP 
  103001      10.3001    80899  0.066621376         9208   -6145.8938  -0.66745147 
INFO: Particle insertion ins3: inserted 71 particle templates (mass 0.267664) at step 103002
 - a total of 6002 particle templates (mass 22.627007) inserted so far.
WARNING: Particle insertion: Less insertions than requested (/home/ht45454/CFDEM/LIGGGHTS/src/fix_insert.cpp:814)
INFO: Particle insertion ins4: inserted 2 particle templates (mass 0.014726) at step 103002
 - a total of 279 particle templates (mass 2.054307) inserted so far.
WARNING: Particle insertion: Less insertions than requested (/home/ht45454/CFDEM/LIGGGHTS/src/fix_insert.cpp:814)
  103100        10.31    80972   0.12561697         9268    -6145.894  -0.66313048 
  103200        10.32    80972   0.12000359         9255   -6145.8939  -0.66406194 
  103300        10.33    80972   0.11058269         9250   -6145.8939  -0.66442089 
  103400        10.34    80972   0.10975746         9243   -6145.8939  -0.66492408 
  103500        10.35    80972   0.12081412         9232   -6145.8939  -0.66571634 
  103600        10.36    80972   0.13580267         9225   -6145.8939  -0.66622148 
  103700        10.37    80972   0.13975639         9217   -6145.8939  -0.66679974 
  103800        10.38    80972   0.12577672         9211   -6145.8938  -0.66723409 
  103900        10.39    80972   0.10536005         9204   -6145.8938  -0.66774154 
  104000         10.4    80972  0.078625505         9196   -6145.8938  -0.66832244 
  104001      10.4001    80972  0.078446274         9196   -6145.8938  -0.66832244 
Loop time of 15.3207 on 8 procs for 1000 steps with 80972 atoms
Max time of 15.3207 on 8 procs for 1000 steps with 80972 atoms

Pair  time (%) = 2.86176 (18.6791)
Max Pair time (ib) = 3.69396 (29.0799)
Neigh time (%) = 0.339271 (2.21447)
Max Neigh time (ib) = 0.432447 (27.4637)
Comm  time (%) = 0.705467 (4.60468)
Max Comm time (ib) = 0.919988 (30.4084)
Outpt time (%) = 0.268309 (1.75129)
Max Outpt time (ib) = 0.269007 (0.260196)
Other time (%) = 11.1458 (72.7505)
Max Other time (ib) = 11.7799 (5.68903)

Nlocal:    10121.5 ave 12699 max 7480 min
Histogram: 4 0 0 0 0 0 0 0 0 4
Nghost:    2272.5 ave 2653 max 1874 min
Histogram: 2 2 0 0 0 0 0 0 1 3
Neighs:    57413.1 ave 71920 max 42478 min
Histogram: 4 0 0 0 0 0 0 0 0 4

Total # of neighbors = 459305
Ave neighs/atom = 5.67239
Neighbor list builds = 3190
Dangerous builds = 0
delete_atoms porosity raceways ${fDelInit} 123457 compress no
delete_atoms porosity raceways 7.69910533475533 123457 compress no
Deleted 67 atoms, new total = 80905
delete_atoms region freeboard compress no
Deleted 0 atoms, new total = 80905
set region raceways property/atom Temp ${Tinlet}
set region raceways property/atom Temp 1823.15
  0 settings made for property/atom
Step Time Atoms KinEng nForceRe totalFor avForceP 
  104001      10.4001    80905  0.058103424         9196   -6145.8938  -0.66832244 
INFO: Particle insertion ins3: inserted 68 particle templates (mass 0.256354) at step 104002
 - a total of 6070 particle templates (mass 22.883361) inserted so far.
WARNING: Particle insertion: Less insertions than requested (/home/ht45454/CFDEM/LIGGGHTS/src/fix_insert.cpp:814)
INFO: Particle insertion ins4: inserted 2 particle templates (mass 0.014726) at step 104002
 - a total of 281 particle templates (mass 2.069033) inserted so far.
WARNING: Particle insertion: Less insertions than requested (/home/ht45454/CFDEM/LIGGGHTS/src/fix_insert.cpp:814)
  104100        10.41    80975   0.10803161         9264   -6145.8939  -0.66341681 
  104200        10.42    80975   0.08793328         9259   -6145.8939  -0.66377506 
  104300        10.43    80975  0.077916728         9256   -6145.8939   -0.6639902 
  104400        10.44    80975  0.074928229         9247   -6145.8939  -0.66463645 
  104500        10.45    80975  0.076490842         9243   -6145.8939  -0.66492408 
  104600        10.46    80975  0.070141761         9236   -6145.8939  -0.66542802 
  104700        10.47    80975  0.069330009         9232   -6145.8939  -0.66571634 
  104800        10.48    80975  0.069045117         9226   -6145.8939  -0.66614928 
  104900        10.49    80975   0.07523089         9222   -6145.8939  -0.66643821 
  105000         10.5    80975  0.071120554         9219   -6145.8939  -0.66665508 
  105001      10.5001    80975  0.071061156         9220   -6145.8939  -0.66658278 
Loop time of 15.1486 on 8 procs for 1000 steps with 80975 atoms
Max time of 15.1486 on 8 procs for 1000 steps with 80975 atoms

Pair  time (%) = 2.8511 (18.8209)
Max Pair time (ib) = 3.64238 (27.7533)
Neigh time (%) = 0.308787 (2.03839)
Max Neigh time (ib) = 0.38676 (25.2514)
Comm  time (%) = 0.681049 (4.49579)
Max Comm time (ib) = 0.896325 (31.6095)
Outpt time (%) = 0.26717 (1.76366)
Max Outpt time (ib) = 0.267812 (0.240116)
Other time (%) = 11.0405 (72.8813)
Max Other time (ib) = 11.6618 (5.62803)

Nlocal:    10121.9 ave 12701 max 7477 min
Histogram: 4 0 0 0 0 0 0 0 0 4
Nghost:    2272.25 ave 2658 max 1873 min
Histogram: 2 2 0 0 0 0 0 0 2 2
Neighs:    57409.4 ave 71936 max 42464 min
Histogram: 4 0 0 0 0 0 0 0 0 4

Total # of neighbors = 459275
Ave neighs/atom = 5.67181
Neighbor list builds = 3220
Dangerous builds = 0
delete_atoms porosity raceways ${fDelInit} 123457 compress no
delete_atoms porosity raceways 7.92370000613091 123457 compress no
Deleted 66 atoms, new total = 80909
delete_atoms region freeboard compress no
Deleted 0 atoms, new total = 80909
set region raceways property/atom Temp ${Tinlet}
set region raceways property/atom Temp 1823.15
  0 settings made for property/atom
Step Time Atoms KinEng nForceRe totalFor avForceP 
  105001      10.5001    80909  0.031830016         9220   -6145.8939  -0.66658278 
INFO: Particle insertion ins3: inserted 53 particle templates (mass 0.199805) at step 105002
 - a total of 6123 particle templates (mass 23.083166) inserted so far.
WARNING: Particle insertion: Less insertions than requested (/home/ht45454/CFDEM/LIGGGHTS/src/fix_insert.cpp:814)
INFO: Particle insertion ins4: inserted 5 particle templates (mass 0.036816) at step 105002
 - a total of 286 particle templates (mass 2.105849) inserted so far.
WARNING: Particle insertion: Less insertions than requested (/home/ht45454/CFDEM/LIGGGHTS/src/fix_insert.cpp:814)
  105100        10.51    80967  0.089646455         9274    -6145.894  -0.66270146 
  105200        10.52    80967  0.079193537         9265    -6145.894   -0.6633452 
  105300        10.53    80967  0.091296015         9260    -6145.894  -0.66370338 
  105400        10.54    80967   0.10117121         9253   -6145.8939  -0.66420548 
  105500        10.55    80967   0.10177539         9246   -6145.8939  -0.66470834 
  105600        10.56    80967   0.10552872         9244   -6145.8939  -0.66485215 
  105700        10.57    80967   0.11194939         9236   -6145.8939  -0.66542802 
  105800        10.58    80967    0.1125967         9220   -6145.8939  -0.66658278 
  105900        10.59    80967    0.1063676         9214   -6145.8939  -0.66701684 
  106000         10.6    80967  0.094960508         9208   -6145.8939  -0.66745148 
  106001      10.6001    80967  0.094729295         9205   -6145.8939    -0.667669 
Loop time of 15.0115 on 8 procs for 1000 steps with 80967 atoms
Max time of 15.0115 on 8 procs for 1000 steps with 80967 atoms

Pair  time (%) = 2.85111 (18.9928)
Max Pair time (ib) = 3.56441 (25.0183)
Neigh time (%) = 0.349086 (2.32545)
Max Neigh time (ib) = 0.439829 (25.9946)
Comm  time (%) = 0.693113 (4.61721)
Max Comm time (ib) = 0.922116 (33.0397)
Outpt time (%) = 0.254969 (1.69849)
Max Outpt time (ib) = 0.255515 (0.213851)
Other time (%) = 10.8633 (72.3661)
Max Other time (ib) = 11.4476 (5.37881)

Nlocal:    10120.9 ave 12701 max 7473 min
Histogram: 4 0 0 0 0 0 0 0 0 4
Nghost:    2270.75 ave 2658 max 1874 min
Histogram: 2 2 0 0 0 0 0 0 2 2
Neighs:    57393.8 ave 71937 max 42437 min
Histogram: 4 0 0 0 0 0 0 0 0 4

Total # of neighbors = 459150
Ave neighs/atom = 5.67083
Neighbor list builds = 3254
Dangerous builds = 0
delete_atoms porosity raceways ${fDelInit} 123457 compress no
delete_atoms porosity raceways 8.28931995270288 123457 compress no
Deleted 64 atoms, new total = 80903
delete_atoms region freeboard compress no
Deleted 0 atoms, new total = 80903
set region raceways property/atom Temp ${Tinlet}
set region raceways property/atom Temp 1823.15
  0 settings made for property/atom
Step Time Atoms KinEng nForceRe totalFor avForceP 
  106001      10.6001    80903  0.053553569         9205   -6145.8939    -0.667669 
INFO: Particle insertion ins3: inserted 53 particle templates (mass 0.199805) at step 106002
 - a total of 6176 particle templates (mass 23.282971) inserted so far.
WARNING: Particle insertion: Less insertions than requested (/home/ht45454/CFDEM/LIGGGHTS/src/fix_insert.cpp:814)
INFO: Particle insertion ins4: inserted 2 particle templates (mass 0.014726) at step 106002
 - a total of 288 particle templates (mass 2.120575) inserted so far.
WARNING: Particle insertion: Less insertions than requested (/home/ht45454/CFDEM/LIGGGHTS/src/fix_insert.cpp:814)
  106100        10.61    80958    0.1014996         9262    -6145.894  -0.66356006 
  106200        10.62    80958  0.096795281         9257   -6145.8939  -0.66391847 
  106300        10.63    80958   0.10465972         9252   -6145.8939  -0.66427727 
  106400        10.64    80958    0.1106676         9242   -6145.8939  -0.66499602 
  106500        10.65    80958   0.10243874         9234   -6145.8939  -0.66557215 
  106600        10.66    80958   0.10941992         9231   -6145.8939  -0.66578845 
  106700        10.67    80958   0.11595269         9228   -6145.8939   -0.6660049 
  106800        10.68    80958   0.12017164         9225   -6145.8939  -0.66622148 
  106900        10.69    80958   0.12335742         9211   -6145.8938  -0.66723409 
  107000         10.7    80958   0.11978011         9204   -6145.8938  -0.66774154 
  107001      10.7001    80958   0.11959761         9203   -6145.8938   -0.6678141 
Loop time of 15.1188 on 8 procs for 1000 steps with 80958 atoms
Max time of 15.1188 on 8 procs for 1000 steps with 80958 atoms

Pair  time (%) = 2.85395 (18.8768)
Max Pair time (ib) = 3.61412 (26.6359)
Neigh time (%) = 0.360302 (2.38314)
Max Neigh time (ib) = 0.463199 (28.5588)
Comm  time (%) = 0.71174 (4.70766)
Max Comm time (ib) = 0.935312 (31.412)
Outpt time (%) = 0.262144 (1.7339)
Max Outpt time (ib) = 0.262625 (0.183403)
Other time (%) = 10.9306 (72.2985)
Max Other time (ib) = 11.5518 (5.68255)

Nlocal:    10119.8 ave 12700 max 7473 min
Histogram: 4 0 0 0 0 0 0 0 0 4
Nghost:    2270.38 ave 2659 max 1880 min
Histogram: 2 2 0 0 0 0 0 0 2 2
Neighs:    57387.9 ave 71930 max 42432 min
Histogram: 4 0 0 0 0 0 0 0 0 4

Total # of neighbors = 459103
Ave neighs/atom = 5.67088
Neighbor list builds = 3289
Dangerous builds = 0
delete_atoms porosity raceways ${fDelInit} 123457 compress no
delete_atoms porosity raceways 7.37789103134964 123457 compress no
Deleted 70 atoms, new total = 80888
delete_atoms region freeboard compress no
Deleted 0 atoms, new total = 80888
set region raceways property/atom Temp ${Tinlet}
set region raceways property/atom Temp 1823.15
  0 settings made for property/atom

######################################

# remove buoyancy
unfix		archi

# write restart file
write_restart   post/restart/liggghts.restart

