/*--------------------------------*- C++ -*----------------------------------*\
| =========                 |                                                 |
| \\      /  F ield         | OpenFOAM: The Open Source CFD Toolbox           |
|  \\    /   O peration     | Version:  4.x                                   |
|   \\  /    A nd           | Web:      www.OpenFOAM.org                      |
|    \\/     M anipulation  |                                                 |
\*---------------------------------------------------------------------------*/
FoamFile
{
    version     2.0;
    format      ascii;
    class       volScalarField;
    location    "31";
    object      p_rgh;
}
// * * * * * * * * * * * * * * * * * * * * * * * * * * * * * * * * * * * * * //

dimensions      [1 -1 -2 0 0 0 0];

internalField   nonuniform List<scalar> 
108
(
110.813
93.426
103.665
75.5549
96.2178
57.3331
88.8392
38.8212
81.6823
111.456
93.7217
104.283
75.7772
96.6865
57.4035
89.1991
38.9373
81.9988
111.922
94.0367
104.656
76.1105
96.9599
57.8709
89.3826
39.6293
81.9263
112.096
94.3146
104.883
76.4787
97.224
58.4029
89.4787
40.2342
81.8809
110.889
93.5842
103.804
75.8905
96.358
57.7013
89.0623
39.491
81.8744
111.398
93.7868
104.19
76.0141
96.6924
57.8095
89.306
39.4369
82.0162
111.872
94.1978
104.663
76.2854
97.0688
58.0371
89.5143
39.7977
82.1998
112.121
94.1898
104.807
76.3921
97.0894
58.0201
89.415
39.4745
82.0172
110.607
93.3443
103.48
75.8557
96.1591
57.7209
88.7335
39.258
81.4745
111.085
93.5699
103.807
75.8897
96.3744
57.6935
88.8938
39.2763
81.6805
111.511
93.859
104.188
76.0561
96.6359
57.9116
89.1185
39.6067
81.8741
111.753
93.8561
104.365
76.1424
96.6795
57.7637
89.0144
39.4663
81.8251
)
;

boundaryField
{
    inlet
    {
        type            fixedFluxPressure;
        gradient        nonuniform List<scalar> 
12
(
0.000280085
0.000272383
0.000271109
0.000268106
0.000494455
0.000476613
0.000466982
0.000450433
0.000715067
0.000689104
0.000670975
0.000645463
)
;
        value           nonuniform List<scalar> 
12
(
110.813
111.456
111.922
112.096
110.889
111.398
111.872
112.121
110.607
111.085
111.511
111.753
)
;
    }
    outlet
    {
        type            fixedValue;
        value           nonuniform 0();
    }
    wall
    {
        type            fixedFluxPressure;
        gradient        nonuniform List<scalar> 
63
(
1.99894e-06
3.96864e-06
1.71956e-06
1.59304e-06
2.51146e-06
3.46408e-06
4.68918e-06
5.70281e-06
1.80167e-06
2.20974e-06
2.0715e-06
4.28963e-06
3.88129e-06
5.13866e-06
5.56426e-06
8.38337e-06
2.16537e-06
3.41056e-06
4.64863e-06
5.51166e-06
4.19635e-06
5.60965e-06
1.09295e-05
1.3716e-05
3.92264e-06
3.77107e-06
7.78219e-06
5.46801e-06
6.47873e-06
1.17667e-05
1.36789e-05
1.23916e-05
3.81279e-06
8.07039e-06
7.47934e-06
8.71444e-06
6.05651e-07
7.29153e-07
7.93761e-08
2.55544e-06
3.43186e-06
1.30077e-06
1.88426e-06
1.30169e-06
6.76943e-07
4.79609e-06
9.56634e-07
7.04349e-07
2.75001e-06
4.42755e-07
4.26873e-07
6.03479e-06
3.88482e-06
2.00206e-06
4.14081e-06
2.06561e-06
1.12331e-06
2.30094e-06
5.67061e-06
1.46008e-06
2.06334e-06
2.30515e-06
1.47425e-06
)
;
        value           nonuniform List<scalar> 
63
(
110.607
111.085
111.511
111.753
93.3443
93.5699
93.859
93.8561
103.48
103.807
104.188
104.365
75.8557
75.8897
76.0561
76.1424
96.1591
96.3744
96.6359
96.6795
57.7209
57.6935
57.9116
57.7637
88.7335
88.8938
89.1185
89.0144
39.258
39.2763
39.6067
39.4663
81.4745
81.6805
81.8741
81.8251
110.813
110.889
110.607
93.426
93.5842
93.3443
103.665
103.804
103.48
75.5549
75.8905
75.8557
96.2178
96.358
96.1591
57.3331
57.7013
57.7209
88.8392
89.0623
88.7335
38.8212
39.491
39.258
81.6823
81.8744
81.4745
)
;
    }
    procBoundary4to0
    {
        type            processor;
        value           nonuniform List<scalar> 
36
(
110.602
93.372
103.517
75.5083
96.1649
57.3008
88.8484
39.0565
81.9457
111.168
93.6369
103.998
75.6406
96.5327
57.4392
89.1947
38.9963
82.1474
111.593
94.0082
104.512
76.1398
97.021
58.0929
89.4167
40.1879
81.9857
111.773
94.1125
104.639
76.1928
96.9886
58.2814
89.3231
40.2895
82.0009
)
;
    }
    procBoundary4to5
    {
        type            processor;
        value           nonuniform List<scalar> 
12
(
19.8896
20.0962
21.401
22.464
20.7923
20.626
21.4941
21.1723
20.4574
20.4887
21.2205
21.0386
)
;
    }
    procBoundary4to6
    {
        type            processor;
        value           nonuniform List<scalar> 
27
(
112.184
93.9633
104.828
76.3389
97.1336
58.1561
89.4189
40.1093
81.8959
112.084
94.0552
104.722
76.2572
97.1429
58.2183
89.6251
40.0031
82.3178
111.581
93.857
104.318
76.1709
96.7863
58.1173
89.322
39.7692
82.1237
)
;
    }
}


// ************************************************************************* //
