/*--------------------------------*- C++ -*----------------------------------*\
| =========                 |                                                 |
| \\      /  F ield         | OpenFOAM: The Open Source CFD Toolbox           |
|  \\    /   O peration     | Version:  4.x                                   |
|   \\  /    A nd           | Web:      www.OpenFOAM.org                      |
|    \\/     M anipulation  |                                                 |
\*---------------------------------------------------------------------------*/
FoamFile
{
    version     2.0;
    format      ascii;
    class       volScalarField;
    location    "31";
    object      particleRelTemp;
}
// * * * * * * * * * * * * * * * * * * * * * * * * * * * * * * * * * * * * * //

dimensions      [0 0 0 0 0 0 0];

internalField   nonuniform List<scalar> 
108
(
-4.02994e-09
-3.69698e-09
-3.19282e-09
-2.5919e-09
-2.0634e-09
-1.46437e-09
-6.13641e-10
8.93294e-11
4.83533e-10
-3.9807e-09
-3.58573e-09
-2.95242e-09
-2.302e-09
-1.52006e-09
-7.76821e-10
7.22909e-12
8.01902e-10
1.39362e-09
-3.96013e-09
-3.44376e-09
-2.67584e-09
-1.99852e-09
-1.11227e-09
-2.83466e-10
6.91765e-10
1.49411e-09
2.05537e-09
-3.95611e-09
-3.46074e-09
-2.70861e-09
-1.96829e-09
-9.10774e-10
-1.81097e-11
9.9369e-10
1.72607e-09
2.44062e-09
-4.02235e-09
-3.73851e-09
-3.29825e-09
-2.80479e-09
-2.37172e-09
-1.88222e-09
-1.33239e-09
-4.5738e-10
-1.10443e-10
-3.97241e-09
-3.61733e-09
-3.15524e-09
-2.51322e-09
-1.86018e-09
-1.25247e-09
-4.85874e-10
-1.8434e-11
6.28898e-10
-4.05633e-09
-3.54806e-09
-2.96803e-09
-2.35955e-09
-1.51453e-09
-6.32716e-10
1.37477e-10
7.9782e-10
1.26636e-09
-3.97618e-09
-3.5637e-09
-2.86722e-09
-2.28222e-09
-1.3741e-09
-4.79579e-10
2.50704e-10
1.0182e-09
1.55695e-09
-4.13828e-09
-3.80711e-09
-3.47538e-09
-3.03723e-09
-2.7048e-09
-2.18082e-09
-1.66041e-09
-1.13922e-09
-9.21374e-10
-4.06457e-09
-3.73848e-09
-3.20196e-09
-2.86365e-09
-2.29578e-09
-1.6722e-09
-1.12995e-09
-6.02387e-10
-1.52612e-10
-4.03794e-09
-3.61447e-09
-3.0866e-09
-2.56494e-09
-2.00666e-09
-1.08391e-09
-5.96215e-10
4.02348e-11
4.66907e-10
-3.99061e-09
-3.62901e-09
-3.12743e-09
-2.42797e-09
-1.80885e-09
-1.09674e-09
-3.82622e-10
2.90726e-10
6.94162e-10
)
;

boundaryField
{
    inlet
    {
        type            calculated;
        value           nonuniform List<scalar> 
12
(
-4.02994e-09
-3.9807e-09
-3.96013e-09
-3.95611e-09
-4.02235e-09
-3.97241e-09
-4.05633e-09
-3.97618e-09
-4.13828e-09
-4.06457e-09
-4.03794e-09
-3.99061e-09
)
;
    }
    outlet
    {
        type            calculated;
        value           nonuniform 0();
    }
    wall
    {
        type            calculated;
        value           nonuniform List<scalar> 
63
(
-4.13828e-09
-4.06457e-09
-4.03794e-09
-3.99061e-09
-3.80711e-09
-3.73848e-09
-3.61447e-09
-3.62901e-09
-3.47538e-09
-3.20196e-09
-3.0866e-09
-3.12743e-09
-3.03723e-09
-2.86365e-09
-2.56494e-09
-2.42797e-09
-2.7048e-09
-2.29578e-09
-2.00666e-09
-1.80885e-09
-2.18082e-09
-1.6722e-09
-1.08391e-09
-1.09674e-09
-1.66041e-09
-1.12995e-09
-5.96215e-10
-3.82622e-10
-1.13922e-09
-6.02387e-10
4.02348e-11
2.90726e-10
-9.21374e-10
-1.52612e-10
4.66907e-10
6.94162e-10
-4.02994e-09
-4.02235e-09
-4.13828e-09
-3.69698e-09
-3.73851e-09
-3.80711e-09
-3.19282e-09
-3.29825e-09
-3.47538e-09
-2.5919e-09
-2.80479e-09
-3.03723e-09
-2.0634e-09
-2.37172e-09
-2.7048e-09
-1.46437e-09
-1.88222e-09
-2.18082e-09
-6.13641e-10
-1.33239e-09
-1.66041e-09
8.93294e-11
-4.5738e-10
-1.13922e-09
4.83533e-10
-1.10443e-10
-9.21374e-10
)
;
    }
    procBoundary4to0
    {
        type            processor;
        value           nonuniform List<scalar> 
36
(
-4.07135e-09
-3.55988e-09
-3.11066e-09
-2.4683e-09
-1.7969e-09
-1.04792e-09
-5.62769e-10
2.86008e-10
6.90247e-10
-3.99034e-09
-3.52828e-09
-2.94323e-09
-2.14028e-09
-1.338e-09
-4.48233e-10
4.04908e-10
9.97826e-10
1.68185e-09
-3.79018e-09
-3.33923e-09
-2.78199e-09
-1.74541e-09
-9.89137e-10
1.90434e-10
1.1022e-09
1.92988e-09
2.28953e-09
-3.91274e-09
-3.41323e-09
-2.68679e-09
-1.75507e-09
-9.41725e-10
1.10403e-10
1.35947e-09
1.97923e-09
2.60479e-09
)
;
    }
    procBoundary4to5
    {
        type            processor;
        value           nonuniform List<scalar> 
12
(
9.49185e-10
1.6501e-09
2.57884e-09
2.7913e-09
3.92896e-10
1.12604e-09
1.93993e-09
1.75464e-09
-5.61465e-10
2.06542e-10
9.3198e-10
1.05965e-09
)
;
    }
    procBoundary4to6
    {
        type            processor;
        value           nonuniform List<scalar> 
27
(
-3.89845e-09
-3.39931e-09
-2.6961e-09
-1.85088e-09
-9.79245e-10
-1.94767e-10
4.59727e-10
1.15503e-09
1.97582e-09
-3.98268e-09
-3.48658e-09
-2.96485e-09
-2.25371e-09
-1.55184e-09
-7.8288e-10
-8.62717e-11
6.22089e-10
1.2057e-09
-4.02781e-09
-3.68938e-09
-3.18052e-09
-2.57177e-09
-2.00011e-09
-1.18296e-09
-5.67394e-10
-7.07418e-11
7.26205e-11
)
;
    }
}


// ************************************************************************* //
