/*--------------------------------*- C++ -*----------------------------------*\
| =========                 |                                                 |
| \\      /  F ield         | OpenFOAM: The Open Source CFD Toolbox           |
|  \\    /   O peration     | Version:  4.x                                   |
|   \\  /    A nd           | Web:      www.OpenFOAM.org                      |
|    \\/     M anipulation  |                                                 |
\*---------------------------------------------------------------------------*/
FoamFile
{
    version     2.0;
    format      ascii;
    class       volVectorField;
    location    "31";
    object      U;
}
// * * * * * * * * * * * * * * * * * * * * * * * * * * * * * * * * * * * * * //

dimensions      [0 1 -1 0 0 0 0];

internalField   nonuniform List<vector> 
108
(
(0.0298785 -0.000986731 -0.000625298)
(0.0128834 -0.000478049 -0.000412457)
(0.030892 -0.00108444 -0.000660728)
(0.0138059 -0.000451671 -0.000475171)
(0.031535 -0.000844236 -0.00040782)
(0.0143763 -0.000274097 -0.00038333)
(0.0322195 -0.000608789 -0.000388047)
(0.0145037 -0.0002511 -0.000428626)
(0.0331215 -0.000535508 -5.98285e-05)
(0.0296853 -0.00158614 -0.000511692)
(0.0104998 -0.000723758 -0.000269113)
(0.0293528 -0.00164717 -0.000462992)
(0.00820277 -0.000526 -0.000265936)
(0.0291436 -0.00120371 -0.000282858)
(0.00639157 -0.000352837 -0.000168295)
(0.0291614 -0.000861093 -0.000172915)
(0.004678 -0.000326917 -0.000147809)
(0.0295682 -0.000440707 0.000154547)
(0.0296762 -0.000939111 -0.000529014)
(0.00946678 -0.000535505 -0.000252116)
(0.0286784 -0.00102441 -0.000375018)
(0.0060279 -0.000387576 -9.93176e-05)
(0.0282292 -0.000845674 -8.01652e-05)
(0.0034796 -0.000290988 1.82522e-05)
(0.0281234 -0.000456294 -7.35053e-05)
(0.00122087 -0.000125191 3.65245e-05)
(0.0282862 0.000125314 -0.000208087)
(0.0296228 -0.000415514 -0.000593719)
(0.00949164 -4.27533e-05 -0.000184263)
(0.0284076 -0.000263506 -0.000375037)
(0.00584566 -0.000116854 -0.00012205)
(0.0276727 -0.000255482 -0.000207281)
(0.00271406 -6.30961e-05 4.5735e-05)
(0.0273287 -5.60816e-05 -0.000113646)
(0.000429844 -1.57248e-05 2.67566e-05)
(0.0271491 4.91527e-05 5.67793e-05)
(0.0297826 -0.000788363 0.00020994)
(0.0131113 -0.000363676 7.67242e-05)
(0.0309218 -0.00072279 0.000273496)
(0.0141264 -0.000290521 -0.000174909)
(0.031631 -0.000603775 5.19058e-05)
(0.014794 -0.000254955 -0.000282571)
(0.0321858 -0.000460944 7.90763e-05)
(0.0148984 -8.21054e-05 -0.000319384)
(0.0328253 -0.000248346 0.000159973)
(0.0296962 -0.00139944 0.000444285)
(0.0116645 -0.000750815 0.000170561)
(0.0299039 -0.00148101 0.000698153)
(0.0108426 -0.000548307 5.60728e-05)
(0.0299841 -0.00117439 0.000484604)
(0.00982714 -0.000405787 -8.00936e-05)
(0.0300193 -0.000762991 0.000438131)
(0.0084192 -0.000274566 -0.000108331)
(0.0303338 -0.000552524 0.000421766)
(0.0296236 -0.00103957 0.000517416)
(0.0104901 -0.000475146 0.00019194)
(0.0291108 -0.00103323 0.00069775)
(0.00796986 -0.00033769 0.000120754)
(0.028691 -0.000669191 0.000522317)
(0.00585504 -0.000145491 4.09929e-05)
(0.0285542 -0.000205908 0.000426709)
(0.00416355 -2.26834e-05 4.00062e-05)
(0.0286513 -2.71825e-05 0.000114164)
(0.0296209 -0.000327646 0.000426602)
(0.01007 2.12084e-05 0.000350906)
(0.0288262 -9.29726e-05 0.000808641)
(0.00709435 8.05803e-07 0.000250025)
(0.0285365 -0.00010191 0.000830463)
(0.00469143 -6.34255e-05 0.000273662)
(0.0285767 -0.000171289 0.000753446)
(0.00302245 -5.06015e-05 0.000207436)
(0.0287365 -0.000207596 0.000183862)
(0.0299559 -0.000743488 0.000395131)
(0.0144379 -0.000403306 0.000294762)
(0.031941 -0.000667124 0.000556862)
(0.0171658 -0.000248783 0.000200478)
(0.0334938 -0.000425122 0.000346946)
(0.0187652 -0.000122424 9.9425e-05)
(0.0345659 -0.000283992 0.000470382)
(0.0198358 -0.000120312 0.000388366)
(0.035854 -0.000333598 0.000682062)
(0.0299233 -0.00130083 0.000440394)
(0.0132918 -0.000735658 0.000265958)
(0.0309658 -0.0013011 0.00062288)
(0.0146943 -0.000517956 0.000264936)
(0.032022 -0.0008752 0.000538704)
(0.0157309 -0.000409259 0.000253667)
(0.032875 -0.000696308 0.000662628)
(0.0163552 -0.000507447 0.000337068)
(0.0339123 -0.000757399 0.000591809)
(0.0297178 -0.000956841 0.000501109)
(0.0124512 -0.000443868 0.000357567)
(0.0303086 -0.000960104 0.000765184)
(0.0127415 -0.000411846 0.000341135)
(0.030801 -0.000591972 0.000707611)
(0.0130751 -0.000188499 0.000260753)
(0.0314157 -0.000247057 0.000632404)
(0.0133733 -0.00020052 0.000299839)
(0.032009 -0.000287614 0.000550473)
(0.029648 -0.000119106 0.000512262)
(0.0121855 -3.35883e-05 0.000352156)
(0.0300215 -0.000203255 0.000729671)
(0.0121137 -0.000127773 0.000331413)
(0.0306901 -0.000253133 0.000681971)
(0.0124785 -0.000199862 0.000336258)
(0.0313093 -0.000352766 0.000686522)
(0.0130859 -0.000198013 0.000169829)
(0.0320972 -0.000419108 0.000339139)
)
;

boundaryField
{
    inlet
    {
        type            fixedValue;
        value           uniform (0.01 0 0);
    }
    outlet
    {
        type            zeroGradient;
    }
    wall
    {
        type            fixedValue;
        value           uniform (0 0 0);
    }
    procBoundary4to0
    {
        type            processor;
        value           nonuniform List<vector> 
36
(
(0.0297662 -0.000901528 -0.00131395)
(0.0127216 -0.000441604 -0.000869721)
(0.0309112 -0.000892864 -0.00140062)
(0.0139268 -0.000337709 -0.000866276)
(0.0316947 -0.000651918 -0.0011272)
(0.0145501 -0.000274789 -0.000837604)
(0.0321859 -0.000583071 -0.000929622)
(0.0146525 -0.000101525 -0.00090153)
(0.0325677 -0.000316178 -0.00071126)
(0.0296664 -0.00148856 -0.00149321)
(0.0105621 -0.000747406 -0.000810721)
(0.0295735 -0.00167472 -0.00152657)
(0.00904503 -0.000630158 -0.000637097)
(0.029337 -0.00136458 -0.00103269)
(0.00759108 -0.000559957 -0.000477097)
(0.0292708 -0.000960367 -0.000726406)
(0.00576656 -0.000541493 -0.00044614)
(0.0290904 -0.000293424 -0.000677459)
(0.0294228 -0.000953501 -0.00150919)
(0.00951616 -0.000499143 -0.000786017)
(0.0286115 -0.00108949 -0.00133258)
(0.00597983 -0.0003331 -0.000456518)
(0.0277622 -0.000690099 -0.000814647)
(0.00274482 -0.000189516 -0.000244472)
(0.0270795 -0.000204338 -0.000658032)
(0.000515775 -5.2535e-05 -6.32802e-05)
(0.0265907 0.000131005 -0.000240464)
(0.0294633 -0.000225204 -0.00134358)
(0.00934418 -2.5063e-06 -0.000790955)
(0.0284528 2.99499e-05 -0.00126498)
(0.00554514 0.000100096 -0.000501457)
(0.027611 0.00020094 -0.000910374)
(0.00276369 8.66859e-05 -0.000313449)
(0.0273276 0.000105876 -0.000692432)
(0.000992492 5.04411e-05 -0.00014246)
(0.0269786 -2.7701e-05 -0.000278253)
)
;
    }
    procBoundary4to5
    {
        type            processor;
        value           nonuniform List<vector> 
12
(
(0.0140951 -0.000303439 -1.92081e-05)
(0.0024334 -0.000286668 2.88812e-05)
(3.69746e-09 -1.44051e-09 5.55317e-09)
(2.35112e-09 -1.14934e-09 6.16075e-09)
(0.0144112 5.28449e-05 -0.000436126)
(0.00720948 -0.000418076 -0.000131495)
(0.00253888 -0.000105387 4.23618e-05)
(0.00209671 -6.20259e-05 0.000233827)
(0.0209033 -0.00014122 0.000536397)
(0.0167414 -0.000888273 0.0002929)
(0.0131349 -0.0004839 0.000340802)
(0.0129675 -0.000480401 0.000190031)
)
;
    }
    procBoundary4to6
    {
        type            processor;
        value           nonuniform List<vector> 
27
(
(0.0294676 0.000466912 -0.000620494)
(0.00885256 0.000312518 -0.000211805)
(0.0280944 0.000552423 -0.000494846)
(0.004808 0.000192005 -0.000166866)
(0.0276452 0.000342854 -0.000372734)
(0.00174789 9.99738e-05 -7.04122e-05)
(0.0273128 1.43573e-05 -0.000332189)
(4.00848e-09 -1.10505e-09 2.26102e-09)
(0.0271319 -0.000298077 -0.000350565)
(0.0295125 0.000754376 0.00079511)
(0.0100626 0.000338644 0.000196494)
(0.0288161 0.000853951 0.000758306)
(0.00728149 0.000258147 0.000170914)
(0.028427 0.000600419 0.000554936)
(0.00479553 8.53635e-05 5.71323e-05)
(0.0281871 0.000264458 0.000191046)
(0.00239622 -6.94322e-07 6.92451e-05)
(0.0280587 6.95942e-05 -0.000278646)
(0.0297832 0.000766196 0.00071421)
(0.0126994 0.000298508 0.000310018)
(0.0302725 0.000639405 0.000658211)
(0.0127392 0.000229566 0.000209497)
(0.0306574 0.000339005 0.000551092)
(0.0124212 5.59591e-05 0.000193508)
(0.0308036 -2.65259e-05 0.000473399)
(0.0114875 -6.98094e-05 0.000259543)
(0.0307267 -9.61805e-05 0.00037881)
)
;
    }
}


// ************************************************************************* //
