/*--------------------------------*- C++ -*----------------------------------*\
| =========                 |                                                 |
| \\      /  F ield         | OpenFOAM: The Open Source CFD Toolbox           |
|  \\    /   O peration     | Version:  4.x                                   |
|   \\  /    A nd           | Web:      www.OpenFOAM.org                      |
|    \\/     M anipulation  |                                                 |
\*---------------------------------------------------------------------------*/
FoamFile
{
    version     2.0;
    format      ascii;
    class       volVectorField;
    location    "31";
    object      Urel;
}
// * * * * * * * * * * * * * * * * * * * * * * * * * * * * * * * * * * * * * //

dimensions      [0 1 -1 0 0 0 0];

internalField   nonuniform List<vector> 
108
(
(-0.0233289 0.000629727 0.000542283)
(-0.0214062 0.000563272 0.000507713)
(-0.0223407 0.000573952 0.000500317)
(-0.0208882 0.000480522 0.00045431)
(-0.022082 0.000456962 0.000412806)
(-0.0207468 0.00036175 0.000369027)
(-0.0220329 0.000333363 0.000327121)
(-0.020682 0.000255991 0.000283577)
(-0.0220402 0.00022543 0.0002062)
(-0.0231377 0.000621652 0.000526026)
(-0.0210093 0.00054049 0.000484677)
(-0.0218528 0.00056493 0.000467781)
(-0.0200558 0.000451128 0.000413519)
(-0.0212901 0.000440932 0.000372379)
(-0.0195595 0.000335677 0.000321194)
(-0.0210071 0.000313999 0.00028043)
(-0.0192296 0.000234868 0.000233957)
(-0.0208523 0.000198201 0.000171745)
(-0.0229446 0.000417937 0.00051533)
(-0.0206643 0.000364579 0.000466654)
(-0.0214053 0.000375372 0.000438918)
(-0.0193687 0.000299463 0.000374381)
(-0.0205782 0.000290422 0.000328311)
(-0.0185973 0.000217384 0.000275188)
(-0.020103 0.000190824 0.000239593)
(-0.0180918 0.000138136 0.000194029)
(-0.0198269 0.000101981 0.000157968)
(-0.0228561 0.000110076 0.000512536)
(-0.0205322 7.87082e-05 0.000455957)
(-0.0212176 7.93945e-05 0.000431098)
(-0.0191112 6.34109e-05 0.000367691)
(-0.0202783 6.22246e-05 0.000328155)
(-0.0182241 4.60987e-05 0.000267872)
(-0.0197182 4.28013e-05 0.000240892)
(-0.0176598 3.06796e-05 0.000193691)
(-0.0193866 2.22309e-05 0.000162325)
(-0.023397 0.000606942 0.000208571)
(-0.0215444 0.000544227 0.000206326)
(-0.0225065 0.000539698 0.000181958)
(-0.0211433 0.000455367 0.000198948)
(-0.0223452 0.000429712 0.000169607)
(-0.0210948 0.000348384 0.000169282)
(-0.02236 0.000318656 0.000118261)
(-0.0211036 0.000250295 0.000110222)
(-0.0224341 0.00022805 4.80146e-05)
(-0.0232297 0.00060241 0.000178277)
(-0.0212169 0.000529956 0.000179268)
(-0.0220912 0.000542488 0.000135233)
(-0.0204747 0.000438091 0.000154362)
(-0.021674 0.000424434 0.00011469)
(-0.0201376 0.000328611 0.000123949)
(-0.0214912 0.000305411 7.16326e-05)
(-0.019922 0.000241205 7.66575e-05)
(-0.0214231 0.000228678 2.51904e-05)
(-0.0230435 0.000415961 0.000154799)
(-0.0208864 0.000357081 0.000155555)
(-0.0216641 0.0003689 0.000106192)
(-0.019808 0.000292899 0.000119483)
(-0.020992 0.00028003 7.62168e-05)
(-0.0192087 0.00021067 8.62624e-05)
(-0.0206354 0.000187441 4.53001e-05)
(-0.0188392 0.000149718 5.56829e-05)
(-0.0204426 0.000139185 3.59895e-05)
(-0.0229594 9.86704e-05 0.000145819)
(-0.0207397 7.07337e-05 0.000138137)
(-0.0214738 7.05816e-05 9.19786e-05)
(-0.0195229 5.88742e-05 0.000103213)
(-0.0207023 6.07364e-05 5.57134e-05)
(-0.0188063 5.41165e-05 6.7255e-05)
(-0.0202691 5.87447e-05 3.30547e-05)
(-0.0183593 5.26271e-05 5.54779e-05)
(-0.0200206 6.46911e-05 5.2451e-05)
(-0.0235133 0.000591947 5.28587e-05)
(-0.0217788 0.000534195 5.41636e-05)
(-0.0227998 0.000520201 2.92733e-05)
(-0.0216306 0.000435976 5.2687e-05)
(-0.0228356 0.000400641 3.79235e-05)
(-0.0217712 0.000327018 4.01139e-05)
(-0.0229973 0.000301012 -1.10124e-05)
(-0.0219512 0.000256247 -3.07328e-05)
(-0.0232258 0.000248961 -7.7434e-05)
(-0.0233625 0.000585813 3.27089e-05)
(-0.0214927 0.000518738 3.65877e-05)
(-0.0224281 0.000521954 9.90626e-07)
(-0.0210646 0.000423695 2.07454e-05)
(-0.0222508 0.000397747 -4.48728e-06)
(-0.0210074 0.000319789 2.86914e-06)
(-0.0222661 0.000302198 -4.31775e-05)
(-0.0210396 0.000265376 -3.94246e-05)
(-0.0223699 0.000269549 -7.20149e-05)
(-0.0231807 0.000402585 9.34286e-06)
(-0.0211963 0.000348838 1.12769e-05)
(-0.0220395 0.000360541 -2.93321e-05)
(-0.0204808 0.00029238 -1.00558e-05)
(-0.0216279 0.000272772 -4.04657e-05)
(-0.0202027 0.000213469 -2.18915e-05)
(-0.0214832 0.000197408 -5.51416e-05)
(-0.0200874 0.000178212 -3.73395e-05)
(-0.0214423 0.000186178 -5.40588e-05)
(-0.0231017 8.05897e-05 -6.12806e-06)
(-0.0210716 6.98481e-05 5.67878e-08)
(-0.0218681 7.7125e-05 -3.68373e-05)
(-0.0202317 6.93335e-05 -1.66363e-05)
(-0.0213667 7.44451e-05 -4.7364e-05)
(-0.0198535 7.09561e-05 -2.8944e-05)
(-0.0211369 8.27736e-05 -5.25763e-05)
(-0.0196593 8.12225e-05 -1.50582e-05)
(-0.0210238 0.000105232 -1.49087e-05)
)
;

boundaryField
{
    inlet
    {
        type            calculated;
        value           nonuniform List<vector> 
12
(
(-0.01 -1.55219e-10 -2.73524e-11)
(-0.01 -3.17237e-10 -2.42138e-10)
(-0.01 -3.59923e-10 -3.89386e-10)
(-0.01 -2.89552e-10 -5.87892e-10)
(-0.01 -1.27776e-10 1.94377e-11)
(-0.01 -4.11922e-10 -1.43157e-10)
(-0.01 -2.52763e-10 -2.13227e-10)
(-0.01 -2.51973e-10 -1.70791e-10)
(-0.01 -8.06169e-12 3.3444e-10)
(-0.01 -2.12239e-10 7.32207e-10)
(-0.01 -1.56212e-11 1.25312e-10)
(-0.01 3.78384e-13 1.24845e-10)
)
;
    }
    outlet
    {
        type            calculated;
        value           nonuniform 0();
    }
    wall
    {
        type            calculated;
        value           nonuniform List<vector> 
63
(
(-2.13007e-10 -8.06169e-12 3.3444e-10)
(-3.70066e-10 -2.12239e-10 7.32207e-10)
(-1.97634e-10 -1.56212e-11 1.25312e-10)
(-3.98749e-10 3.78384e-13 1.24845e-10)
(-4.33132e-10 -1.09331e-10 1.4095e-10)
(-5.58653e-10 -3.09431e-10 1.37373e-10)
(-8.1442e-10 -3.70199e-10 1.89207e-10)
(-7.62158e-10 -5.66447e-10 2.8789e-10)
(-7.20854e-10 -9.29617e-11 2.26982e-10)
(-9.00995e-10 -4.18451e-10 1.09563e-10)
(-9.50924e-10 -5.61659e-10 3.76941e-11)
(-1.79712e-09 -9.7957e-10 4.40853e-10)
(-1.22079e-09 -8.29902e-12 1.30032e-10)
(-1.45348e-09 -4.5242e-10 4.43099e-11)
(-1.80207e-09 -5.76417e-10 2.14765e-11)
(-2.09871e-09 -4.15849e-10 1.81901e-10)
(-1.6594e-09 -3.34457e-11 1.66156e-10)
(-2.22435e-09 -5.93967e-11 8.64741e-11)
(-4.14079e-09 -3.66383e-10 -5.97827e-11)
(-3.26246e-09 -2.11957e-10 6.40011e-10)
(-2.14355e-09 -1.1755e-10 9.75548e-11)
(-3.76467e-09 -6.56413e-10 4.42601e-10)
(-5.49895e-09 -7.03628e-10 7.10724e-11)
(-3.89108e-09 -2.5868e-10 8.11584e-10)
(-2.47503e-09 -1.15875e-10 4.88937e-10)
(-3.82491e-09 -2.27866e-10 2.39469e-10)
(-3.99607e-09 -4.54706e-10 7.72152e-10)
(-4.16504e-09 -2.29539e-09 8.57614e-10)
(-2.00797e-09 -1.06929e-11 2.20834e-10)
(-3.43727e-09 4.23433e-12 7.55969e-10)
(-4.91265e-09 -9.02397e-10 -3.47022e-11)
(6.88083e-09 -9.2453e-09 5.4728e-10)
(-2.69562e-09 -3.55693e-10 3.54769e-10)
(-4.14585e-09 -4.40315e-11 9.68557e-10)
(-6.30323e-09 7.53627e-10 2.23607e-10)
(-6.18925e-09 -3.35286e-10 9.33671e-10)
(-2.37818e-10 -1.55219e-10 -2.73524e-11)
(-3.58026e-10 -1.27776e-10 1.94377e-11)
(-2.13007e-10 -8.06169e-12 3.3444e-10)
(-5.81069e-10 -2.40135e-10 -2.81926e-11)
(-7.05381e-10 -2.0349e-10 -2.19042e-11)
(-4.33132e-10 -1.09331e-10 1.4095e-10)
(-1.10215e-09 -4.00722e-10 -1.55154e-10)
(-1.02106e-09 -2.37425e-10 -1.46204e-10)
(-7.20854e-10 -9.29617e-11 2.26982e-10)
(-1.40537e-09 -5.61453e-10 -5.93911e-10)
(-1.5478e-09 -1.29471e-10 -1.05053e-10)
(-1.22079e-09 -8.29902e-12 1.30032e-10)
(-1.10366e-09 -8.88652e-10 -9.25662e-10)
(-2.13317e-09 -4.75978e-11 -2.07158e-10)
(-1.6594e-09 -3.34457e-11 1.66156e-10)
(-1.30362e-09 -7.92933e-10 -8.30525e-10)
(-2.39024e-09 -3.32063e-10 -2.91414e-10)
(-2.14355e-09 -1.1755e-10 9.75548e-11)
(-2.85567e-09 -1.19313e-09 5.38838e-10)
(-2.59215e-09 -3.27961e-10 6.71041e-10)
(-2.47503e-09 -1.15875e-10 4.88937e-10)
(-5.48643e-09 1.5825e-10 -6.90623e-10)
(-4.74116e-09 -5.96754e-10 1.85098e-10)
(-2.00797e-09 -1.06929e-11 2.20834e-10)
(-6.1136e-09 3.13142e-10 8.07157e-10)
(-5.11099e-09 -3.12413e-10 3.92469e-10)
(-2.69562e-09 -3.55693e-10 3.54769e-10)
)
;
    }
    procBoundary4to0
    {
        type            processor;
        value           nonuniform List<vector> 
36
(
(-0.0233471 0.00061324 0.000896554)
(-0.0214297 0.000551241 0.000831497)
(-0.0224011 0.000558763 0.000831321)
(-0.0209871 0.000471064 0.000736693)
(-0.0222147 0.000447172 0.00069257)
(-0.0209152 0.000360155 0.000609225)
(-0.0222163 0.000327883 0.000559669)
(-0.0208974 0.000237225 0.000496204)
(-0.022234 0.000191698 0.000421651)
(-0.0231619 0.000606825 0.000908833)
(-0.0210442 0.000533291 0.000825708)
(-0.0219225 0.000562054 0.000823907)
(-0.0201759 0.000454535 0.000703107)
(-0.0214124 0.00044775 0.000657438)
(-0.0197427 0.000344977 0.00055506)
(-0.0211682 0.000317649 0.000508176)
(-0.0194435 0.000236221 0.000427603)
(-0.0210117 0.000182177 0.000371112)
(-0.0229576 0.000411972 0.000908643)
(-0.0206965 0.000359721 0.00081603)
(-0.0214556 0.00037529 0.00079861)
(-0.019438 0.000293407 0.000666675)
(-0.0206434 0.00027973 0.000613683)
(-0.0186706 0.000207075 0.000503712)
(-0.0201713 0.000173557 0.000458695)
(-0.0181865 0.000124842 0.000359327)
(-0.019884 8.47594e-05 0.000299684)
(-0.022877 0.000100012 0.000901483)
(-0.0205628 7.4735e-05 0.000810775)
(-0.0212775 6.45172e-05 0.000789859)
(-0.019176 4.44079e-05 0.000660526)
(-0.0203692 3.20241e-05 0.000609967)
(-0.0183392 2.38724e-05 0.000497127)
(-0.0198536 1.73368e-05 0.000452328)
(-0.0178375 7.22196e-06 0.000354652)
(-0.0195421 -3.40133e-06 0.000299869)
)
;
    }
    procBoundary4to5
    {
        type            processor;
        value           nonuniform List<vector> 
12
(
(-0.0205841 0.000161973 0.000152175)
(-0.0189579 0.000147958 0.000129797)
(-0.0177969 7.5898e-05 0.000118816)
(-0.0173787 1.78025e-05 0.00012974)
(-0.0211046 0.000172158 5.14993e-05)
(-0.019784 0.000195175 3.16787e-05)
(-0.0186046 0.000127191 3.11927e-05)
(-0.0180992 5.6849e-05 4.94033e-05)
(-0.0221593 0.000211311 -8.22547e-05)
(-0.0211046 0.000263233 -6.24109e-05)
(-0.0200037 0.000195319 -4.22057e-05)
(-0.0195039 0.000118329 5.35245e-06)
)
;
    }
    procBoundary4to6
    {
        type            processor;
        value           nonuniform List<vector> 
27
(
(-0.0228999 -0.000237928 0.000509291)
(-0.0205833 -0.000214933 0.000457787)
(-0.0213072 -0.000225781 0.000440917)
(-0.0192243 -0.000180633 0.000382873)
(-0.0204449 -0.000171537 0.000351904)
(-0.0183942 -0.000130175 0.000297004)
(-0.0199219 -0.000105493 0.000275931)
(-0.0178635 -7.71939e-05 0.000231874)
(-0.0196151 -5.03444e-05 0.000221637)
(-0.0230119 -0.000258478 0.000121012)
(-0.0208271 -0.000222528 0.00014347)
(-0.0215899 -0.000239926 0.000101779)
(-0.019697 -0.000184864 0.000120545)
(-0.0208762 -0.000179883 8.50655e-05)
(-0.019024 -0.000125304 0.00010263)
(-0.020445 -0.000107813 8.32427e-05)
(-0.0185462 -6.83669e-05 9.95206e-05)
(-0.0201652 -4.99049e-05 0.000119135)
(-0.0231746 -0.000259997 -2.26848e-05)
(-0.0211916 -0.00021681 6.07835e-06)
(-0.0220062 -0.000224117 -1.94344e-05)
(-0.0204267 -0.000175302 8.06188e-06)
(-0.0215398 -0.000159149 -1.54905e-05)
(-0.0200434 -0.000111743 6.39153e-06)
(-0.0212755 -8.20763e-05 -8.00141e-06)
(-0.0197533 -4.9256e-05 1.99027e-05)
(-0.0210759 -2.57471e-05 3.21805e-05)
)
;
    }
}


// ************************************************************************* //
