/*--------------------------------*- C++ -*----------------------------------*\
| =========                 |                                                 |
| \\      /  F ield         | OpenFOAM: The Open Source CFD Toolbox           |
|  \\    /   O peration     | Version:  4.x                                   |
|   \\  /    A nd           | Web:      www.OpenFOAM.org                      |
|    \\/     M anipulation  |                                                 |
\*---------------------------------------------------------------------------*/
FoamFile
{
    version     2.0;
    format      ascii;
    class       volScalarField;
    location    "17";
    object      Cs;
}
// * * * * * * * * * * * * * * * * * * * * * * * * * * * * * * * * * * * * * //

dimensions      [1 -3 0 0 0 0 0];

internalField   nonuniform List<scalar> 
108
(
334.952
334.927
334.894
334.855
334.817
334.793
334.8
334.83
337.318
334.957
334.928
334.892
334.85
334.806
334.773
334.763
334.786
339.622
334.934
334.926
334.905
334.871
334.826
334.78
334.754
334.782
334.934
334.979
334.965
334.95
334.93
334.902
334.869
334.829
334.796
347.155
334.88
334.843
334.816
334.808
334.824
334.856
334.917
334.967
335.086
334.893
334.852
334.82
334.803
334.805
334.82
334.865
334.904
335.168
334.912
334.87
334.831
334.803
334.787
334.785
334.809
334.837
335.063
334.967
334.946
334.922
334.894
334.862
334.834
334.809
334.788
334.569
334.892
334.877
334.877
334.888
334.918
334.954
334.998
335.04
335.142
334.912
334.886
334.876
334.876
334.904
334.929
334.976
335.001
335.161
334.915
334.885
334.868
334.859
334.879
334.891
334.932
334.932
335.381
334.96
334.936
334.913
334.886
334.858
334.827
334.81
334.785
334.666
)
;

boundaryField
{
    inlet
    {
        type            calculated;
        value           nonuniform 0();
    }
    outlet
    {
        type            calculated;
        value           uniform 335;
    }
    wall
    {
        type            calculated;
        value           nonuniform List<scalar> 
63
(
334.952
334.957
334.934
334.979
334.927
334.928
334.926
334.965
334.894
334.892
334.905
334.95
334.855
334.85
334.871
334.93
334.817
334.806
334.826
334.902
334.793
334.773
334.78
334.869
334.8
334.763
334.754
334.829
334.83
334.786
334.782
334.796
337.318
339.622
334.934
347.155
334.979
334.967
334.96
334.965
334.946
334.936
334.95
334.922
334.913
334.93
334.894
334.886
334.902
334.862
334.858
334.869
334.834
334.827
334.829
334.809
334.81
334.796
334.788
334.785
347.155
334.569
334.666
)
;
    }
    procBoundary3to1
    {
        type            processor;
        value           nonuniform List<scalar> 
27
(
334.954
334.93
334.896
334.854
334.812
334.791
334.82
334.896
335.039
334.895
334.862
334.834
334.833
334.877
334.935
335.02
335.06
335.03
334.937
334.921
334.914
334.919
334.957
335.002
335.052
335.076
335.183
)
;
    }
    procBoundary3to2
    {
        type            processor;
        value           nonuniform List<scalar> 
12
(
334.972
334.982
334.932
334.991
334.921
334.935
334.95
334.983
334.914
334.941
334.945
334.98
)
;
    }
    procBoundary3to7
    {
        type            processor;
        value           nonuniform List<scalar> 
36
(
334.94
334.926
334.923
334.929
334.95
334.98
335.016
335.052
335.283
334.947
334.932
334.929
334.933
334.951
334.973
335.006
335.031
335.187
334.952
334.936
334.929
334.925
334.937
334.947
334.974
334.973
335.116
334.979
334.968
334.955
334.936
334.918
334.89
334.885
334.856
334.703
)
;
    }
}


// ************************************************************************* //
