/*--------------------------------*- C++ -*----------------------------------*\
| =========                 |                                                 |
| \\      /  F ield         | OpenFOAM: The Open Source CFD Toolbox           |
|  \\    /   O peration     | Version:  4.x                                   |
|   \\  /    A nd           | Web:      www.OpenFOAM.org                      |
|    \\/     M anipulation  |                                                 |
\*---------------------------------------------------------------------------*/
FoamFile
{
    version     2.0;
    format      ascii;
    class       volVectorField;
    location    "17";
    object      DDtUrel;
}
// * * * * * * * * * * * * * * * * * * * * * * * * * * * * * * * * * * * * * //

dimensions      [0 1 -2 0 0 0 0];

internalField   nonuniform List<vector> 
108
(
(0.000102975 1.52745e-05 0.000115061)
(-4.84189e-05 2.93224e-05 9.29871e-05)
(-0.000124097 3.42952e-05 6.68263e-05)
(-0.000264425 2.75001e-05 -1.70515e-05)
(-0.000319338 3.24077e-05 -0.000128722)
(-0.000485555 3.84116e-05 -0.000346203)
(-0.000592861 4.32431e-05 -0.00066019)
(-0.00116127 8.57773e-05 -0.00120849)
(-0.002032 -3.01974e-05 -0.00147516)
(0.000124805 8.23953e-06 0.000119165)
(-2.35778e-05 2.57992e-05 0.000102212)
(-9.99692e-05 4.02167e-05 7.54241e-05)
(-0.000247096 5.42278e-05 4.0651e-06)
(-0.000330712 7.9981e-05 -0.000121936)
(-0.000516821 0.000106486 -0.000331059)
(-0.000735971 0.000177962 -0.00069999)
(-0.00126601 0.000189003 -0.00122668)
(-0.00213664 0.000124533 -0.00143031)
(0.000170087 9.82512e-06 0.000121028)
(2.25961e-05 3.25999e-05 0.000114278)
(-7.1616e-05 6.73129e-05 9.84276e-05)
(-0.000231489 0.000115272 3.49888e-05)
(-0.000358036 0.000160281 -8.54221e-05)
(-0.000558121 0.000249499 -0.000327789)
(-0.000885073 0.000368163 -0.00075921)
(-0.00137753 0.000617237 -0.00137506)
(-0.0020805 0.000888253 -0.00181962)
(0.000266119 1.1931e-05 0.000116542)
(0.000129546 4.79423e-05 0.000122212)
(6.65466e-05 9.0433e-05 0.000111572)
(-9.7621e-05 0.000174779 7.42787e-05)
(-0.000171694 0.000237665 -4.05998e-05)
(-0.000468031 0.0004108 -0.000269016)
(-0.000717997 0.000554695 -0.000907127)
(-0.00162418 0.00110713 -0.00211858)
(-0.00278944 0.00157844 -0.00264796)
(6.16258e-05 3.38978e-06 9.30298e-05)
(-3.38722e-05 1.50102e-05 6.43288e-05)
(-7.92052e-05 2.02835e-05 3.64184e-05)
(-0.000179569 2.19198e-05 -3.81585e-05)
(-0.000245571 2.51332e-05 -0.000136753)
(-0.000406277 5.39559e-05 -0.000326092)
(-0.000599481 7.20174e-05 -0.000589018)
(-0.000983776 0.000154201 -0.00114814)
(-0.00154821 0.000127353 -0.00155121)
(8.88619e-05 2.27677e-06 9.66864e-05)
(-8.84532e-06 1.82129e-05 6.90302e-05)
(-4.37557e-05 3.13182e-05 4.40219e-05)
(-0.000157627 5.05801e-05 -2.88964e-05)
(-0.000197785 7.58932e-05 -0.00012392)
(-0.000398682 0.000127445 -0.000327478)
(-0.000548431 0.000204182 -0.000637361)
(-0.00118094 0.000336125 -0.0013028)
(-0.00217645 0.000341833 -0.00162556)
(0.00012099 3.16052e-06 0.000102507)
(2.60239e-05 2.44841e-05 8.17392e-05)
(-1.46122e-05 5.02418e-05 6.34914e-05)
(-0.000126038 9.10999e-05 -5.17557e-06)
(-0.000184986 0.000137817 -0.000101905)
(-0.000393368 0.000242621 -0.000326376)
(-0.000656303 0.000377189 -0.00070679)
(-0.00135729 0.000799247 -0.0013566)
(-0.00228284 0.00121973 -0.00193409)
(0.000198943 3.97236e-06 0.000104504)
(9.53893e-05 3.50495e-05 9.13048e-05)
(8.62291e-05 6.36035e-05 8.3617e-05)
(-4.08508e-05 0.000135866 2.53804e-05)
(-9.66623e-06 0.000185696 -5.64675e-05)
(-0.000291326 0.000373014 -0.000306507)
(-0.000256665 0.000517552 -0.000813109)
(-0.00166078 0.00130527 -0.00212354)
(-0.00331196 0.00205034 -0.00309971)
(3.98594e-05 -4.31778e-06 5.47866e-05)
(-2.63893e-05 4.9477e-06 3.35263e-05)
(-6.60884e-05 9.63746e-06 4.18345e-06)
(-0.000145701 7.43085e-06 -4.8537e-05)
(-0.000227095 1.00057e-05 -0.00012775)
(-0.000389681 3.03647e-06 -0.000261048)
(-0.000638041 1.4923e-06 -0.000460191)
(-0.0010039 7.97358e-06 -0.000811664)
(-0.00153818 5.9095e-05 -0.00114704)
(5.39555e-05 -2.70875e-06 5.93728e-05)
(-7.13018e-06 9.32303e-06 3.6398e-05)
(-4.20123e-05 2.01968e-05 7.08159e-06)
(-0.000123973 3.76256e-05 -4.86688e-05)
(-0.00019238 6.34193e-05 -0.0001331)
(-0.000374592 0.000104596 -0.000295074)
(-0.000612873 0.000168094 -0.000534597)
(-0.00112937 0.000325503 -0.00102033)
(-0.00186774 0.000441204 -0.0013638)
(7.97445e-05 -8.74989e-07 7.0675e-05)
(2.1849e-05 1.40154e-05 4.83962e-05)
(-5.55324e-06 3.35883e-05 2.39345e-05)
(-8.67296e-05 6.51366e-05 -3.54324e-05)
(-0.00014674 0.000104023 -0.000122547)
(-0.000346378 0.000198004 -0.000304624)
(-0.000598376 0.00031736 -0.000579091)
(-0.00130154 0.000670823 -0.00107491)
(-0.0022189 0.000956196 -0.0014224)
(0.000127138 -3.0129e-06 8.33189e-05)
(5.92048e-05 1.68707e-05 6.70472e-05)
(5.41767e-05 3.90562e-05 5.06594e-05)
(-3.62394e-05 9.03684e-05 -1.0648e-05)
(-4.5842e-05 0.000134595 -8.56929e-05)
(-0.000288238 0.00026976 -0.00029925)
(-0.000437268 0.000417726 -0.000606256)
(-0.00155436 0.000911517 -0.00134281)
(-0.00286574 0.00144609 -0.00202301)
)
;

boundaryField
{
    inlet
    {
        type            calculated;
        value           nonuniform 0();
    }
    outlet
    {
        type            calculated;
        value           nonuniform List<vector> 
12
(
(-0.00717853 1.88176e-05 -0.0031133)
(-0.00532725 -0.00261511 -0.000162592)
(-0.00139422 0.000976143 -0.00156434)
(-0.00713587 0.0037743 -0.00551708)
(-0.00166679 0.00222654 -0.00512616)
(-0.00806895 -0.00131023 -0.00335417)
(-0.00327064 0.00454948 -0.00309852)
(-0.0147793 0.0103029 -0.014512)
(-0.00250508 0.00154325 -0.00220142)
(-0.00384171 0.000718885 -0.00331064)
(-0.00487619 0.00109453 -0.000114562)
(-0.00821324 0.0032941 -0.00459914)
)
;
    }
    wall
    {
        type            calculated;
        value           nonuniform List<vector> 
63
(
(0.000364995 0.000137937 0.000276824)
(0.000405776 1.76404e-05 0.000283756)
(0.00042744 2.49135e-05 0.000248626)
(0.00105616 -2.00479e-05 0.000143417)
(-0.000364335 0.000196348 0.000150886)
(-0.000365693 2.79538e-05 0.000226983)
(-0.000346982 -7.37589e-06 0.000256225)
(0.000323954 0.000113498 0.000294051)
(-7.14414e-05 0.000219048 0.000306252)
(-5.55172e-05 4.00104e-06 0.00027196)
(-0.000368788 8.8972e-05 0.000389736)
(0.000757255 0.000108096 0.000323394)
(-0.000797641 0.000112104 6.51503e-05)
(-0.00072108 -7.7644e-05 0.000251765)
(-0.00102558 0.000203552 0.00031698)
(-0.000153589 0.000545887 0.000595751)
(-2.58711e-05 0.000162859 0.000202499)
(-0.000356591 -9.91774e-06 6.24893e-05)
(-0.00130405 9.48318e-05 0.000334572)
(0.000620225 0.000276621 0.000513094)
(-0.000730456 0.000201701 -0.000244444)
(-0.000739498 -0.00033298 0.000212371)
(-0.00105391 0.000119065 0.0001105)
(-0.000883416 0.00111503 0.00135344)
(0.00178793 5.50533e-05 -0.000138251)
(-0.000284738 0.000123376 -0.000321451)
(-0.00201517 -7.1212e-05 -5.0662e-05)
(0.000506565 -8.44062e-05 0.000209476)
(-0.000641936 0.00126879 -0.00302631)
(-0.000400331 -0.00101237 -0.00164161)
(-0.000344076 -0.000200109 -0.000163963)
(-0.00142963 0.0022631 -0.00659081)
(-0.00717853 1.88176e-05 -0.0031133)
(-0.00532725 -0.00261511 -0.000162592)
(-0.00139422 0.000976143 -0.00156434)
(-0.00713587 0.0037743 -0.00551708)
(0.00105616 -2.00479e-05 0.000143417)
(0.000685752 -7.09002e-05 0.000191356)
(0.000239616 -8.85571e-05 0.00016023)
(0.000323954 0.000113498 0.000294051)
(9.35766e-06 9.23826e-05 8.25424e-05)
(-0.000103637 -3.11402e-05 0.000121492)
(0.000757255 0.000108096 0.000323394)
(0.000936162 -4.39413e-05 0.000324076)
(0.00040449 -7.06619e-05 0.000253628)
(-0.000153589 0.000545887 0.000595751)
(-0.00013106 0.00036585 0.000156692)
(-0.000144573 0.000108062 6.76706e-05)
(0.000620225 0.000276621 0.000513094)
(0.00214951 -0.000115938 0.000668674)
(0.000864817 -0.000126041 0.000377459)
(-0.000883416 0.00111503 0.00135344)
(-0.000472139 0.00111071 0.000448364)
(-0.000391218 0.000212949 -6.50184e-05)
(0.000506565 -8.44062e-05 0.000209476)
(0.00759435 -0.000944398 0.00112059)
(0.00265839 -0.000524375 0.000818759)
(-0.00142963 0.0022631 -0.00659081)
(-0.00222658 0.00480631 -0.00796162)
(-0.0016263 0.000453723 -0.00107028)
(-0.00713587 0.0037743 -0.00551708)
(-0.0147793 0.0103029 -0.014512)
(-0.00821324 0.0032941 -0.00459914)
)
;
    }
    procBoundary3to1
    {
        type            processor;
        value           nonuniform List<vector> 
27
(
(9.42748e-05 6.6246e-06 0.000118747)
(-6.45628e-05 2.19667e-06 9.76283e-05)
(-0.000141642 -5.3012e-06 7.14807e-05)
(-0.000282942 -3.36308e-05 -1.44762e-05)
(-0.000359771 -5.15477e-05 -0.000123884)
(-0.000516016 -9.72102e-05 -0.000312678)
(-0.000733793 -0.000164 -0.000614504)
(-0.00108421 -0.00030447 -0.000954961)
(-0.00165324 -0.000481046 -0.00119114)
(4.75108e-05 3.8705e-06 9.98251e-05)
(-4.68761e-05 4.33605e-06 7.06454e-05)
(-9.57954e-05 -6.71959e-08 4.4329e-05)
(-0.000184338 -2.55307e-05 -2.30504e-05)
(-0.000286664 -5.10207e-05 -0.000117979)
(-0.00043284 -0.000109104 -0.000278991)
(-0.000670889 -0.000196402 -0.000524206)
(-0.000802277 -0.000347252 -0.000868762)
(-0.00100405 -0.000575239 -0.00121616)
(2.29951e-05 2.5937e-06 5.7828e-05)
(-3.41906e-05 2.83143e-06 4.19203e-05)
(-6.77179e-05 -5.15117e-06 1.53951e-05)
(-0.000142263 -3.00787e-05 -3.4912e-05)
(-0.000226773 -6.2859e-05 -0.000111483)
(-0.000390465 -0.000127749 -0.000225662)
(-0.000650571 -0.000219832 -0.00039172)
(-0.00097331 -0.000423333 -0.000673447)
(-0.00145291 -0.000661489 -0.000939013)
)
;
    }
    procBoundary3to2
    {
        type            processor;
        value           nonuniform List<vector> 
12
(
(0.00020065 -1.04162e-05 0.000100581)
(0.000197961 -1.47189e-05 0.000108626)
(0.000236508 -1.17106e-05 0.000111921)
(0.00031332 -4.76105e-06 0.000109587)
(0.000132372 -1.00824e-05 8.60576e-05)
(0.000130464 -1.20363e-05 9.16143e-05)
(0.000160744 -9.25105e-06 9.90092e-05)
(0.000230886 -4.08932e-06 0.00010136)
(9.86692e-05 -1.00672e-05 5.62718e-05)
(8.63281e-05 -9.78078e-06 6.61001e-05)
(0.000109628 -6.57882e-06 7.32069e-05)
(0.000159483 -5.35295e-06 8.06761e-05)
)
;
    }
    procBoundary3to7
    {
        type            processor;
        value           nonuniform List<vector> 
36
(
(2.48886e-05 -7.84231e-06 3.58644e-05)
(-2.72092e-05 -1.81707e-06 1.4247e-05)
(-7.03091e-05 -3.7863e-07 -1.2298e-05)
(-0.00013199 -3.73854e-06 -4.84909e-05)
(-0.000230638 -8.63805e-06 -0.000107027)
(-0.000382835 -2.68905e-05 -0.000202842)
(-0.000639943 -4.65614e-05 -0.000338741)
(-0.000998058 -8.13292e-05 -0.000559039)
(-0.00153281 -0.000101229 -0.000744737)
(4.44299e-05 -2.88358e-06 3.39479e-05)
(-1.00686e-05 5.78356e-06 1.06846e-05)
(-4.15803e-05 1.32606e-05 -1.74197e-05)
(-0.00011521 2.7509e-05 -5.84014e-05)
(-0.00020028 4.13898e-05 -0.000121835)
(-0.000373265 8.2104e-05 -0.000242229)
(-0.000646549 0.000132892 -0.000404558)
(-0.00106531 0.000271642 -0.000717374)
(-0.00167402 0.000439385 -0.000987913)
(6.898e-05 -4.97864e-07 4.69295e-05)
(1.71806e-05 1.0858e-05 2.30009e-05)
(-4.03228e-06 2.45982e-05 -8.47573e-08)
(-7.76962e-05 5.41149e-05 -5.2951e-05)
(-0.000148628 8.48862e-05 -0.000119638)
(-0.000343812 0.000184538 -0.000266678)
(-0.000627423 0.000290886 -0.000449147)
(-0.00122642 0.000661436 -0.00085813)
(-0.00196161 0.000974432 -0.00116308)
(0.000104307 -2.42685e-06 6.96992e-05)
(4.71543e-05 1.49653e-05 4.37022e-05)
(5.77839e-05 2.49941e-05 2.55976e-05)
(-3.13293e-05 7.17269e-05 -3.30311e-05)
(-3.1764e-05 0.00010269 -8.2584e-05)
(-0.000292417 0.000243175 -0.000264404)
(-0.000443378 0.000360014 -0.00043737)
(-0.00147127 0.000864612 -0.000978428)
(-0.00270703 0.00129378 -0.00142552)
)
;
    }
}


// ************************************************************************* //
