/*--------------------------------*- C++ -*----------------------------------*\
| =========                 |                                                 |
| \\      /  F ield         | OpenFOAM: The Open Source CFD Toolbox           |
|  \\    /   O peration     | Version:  4.x                                   |
|   \\  /    A nd           | Web:      www.OpenFOAM.org                      |
|    \\/     M anipulation  |                                                 |
\*---------------------------------------------------------------------------*/
FoamFile
{
    version     2.0;
    format      ascii;
    class       volVectorField;
    location    "17";
    object      impParticleForces;
}
// * * * * * * * * * * * * * * * * * * * * * * * * * * * * * * * * * * * * * //

dimensions      [1 1 -2 0 0 0 0];

internalField   nonuniform List<vector> 
108
(
(0.00250702 4.03797e-06 -2.50662e-05)
(0.00248872 7.63224e-06 -9.92046e-06)
(0.00247982 8.95935e-06 2.4894e-06)
(0.00245843 8.89839e-06 1.08547e-05)
(0.00242972 9.616e-06 1.29576e-05)
(0.00240479 1.08007e-05 7.91702e-06)
(0.00235946 1.40678e-05 -8.85412e-06)
(0.00231452 1.77527e-05 -3.58899e-05)
(0.00223828 1.97143e-05 -5.9536e-05)
(0.0025056 7.01972e-06 -2.57857e-05)
(0.00251656 9.99235e-06 -1.08459e-05)
(0.00248297 1.30352e-05 1.7225e-06)
(0.00246653 1.64161e-05 1.09155e-05)
(0.00244249 2.07729e-05 1.44835e-05)
(0.00243261 2.68873e-05 1.01236e-05)
(0.00237183 3.59876e-05 -7.2892e-06)
(0.00232309 4.69258e-05 -3.6575e-05)
(0.00224146 5.4453e-05 -6.48449e-05)
(0.0024939 1.12563e-05 -2.7441e-05)
(0.00249944 1.43262e-05 -1.28833e-05)
(0.00248267 1.82648e-05 -9.39365e-09)
(0.00247907 2.4127e-05 9.84971e-06)
(0.00245467 3.2201e-05 1.42546e-05)
(0.00244239 4.30598e-05 1.15109e-05)
(0.00237546 5.82822e-05 -6.90428e-06)
(0.00232963 7.58645e-05 -3.88006e-05)
(0.00225185 9.46105e-05 -7.10083e-05)
(0.00242258 1.32547e-05 -2.74827e-05)
(0.00243761 1.65012e-05 -1.41782e-05)
(0.00245383 2.14126e-05 -1.81649e-06)
(0.00245917 2.84668e-05 7.26858e-06)
(0.00243886 3.87116e-05 1.16307e-05)
(0.00242136 5.21062e-05 7.75058e-06)
(0.00236081 7.24391e-05 -1.02373e-05)
(0.00231112 9.6254e-05 -4.8839e-05)
(0.00226218 0.000136113 -0.000100378)
(0.00250326 2.63335e-06 -2.30973e-05)
(0.00251695 5.79926e-06 -7.88182e-06)
(0.00249424 7.1935e-06 3.5247e-06)
(0.00249891 7.98869e-06 1.22141e-05)
(0.00245199 8.8721e-06 1.30787e-05)
(0.00244729 1.06826e-05 8.91442e-06)
(0.00239431 1.42443e-05 -8.33592e-06)
(0.00237735 2.04337e-05 -3.45879e-05)
(0.00228386 2.82183e-05 -7.33305e-05)
(0.00250935 7.06746e-06 -2.44976e-05)
(0.00252852 9.71237e-06 -9.51693e-06)
(0.0024946 1.25667e-05 2.28579e-06)
(0.00249854 1.60447e-05 1.14722e-05)
(0.00246178 2.05372e-05 1.34764e-05)
(0.00247383 2.68494e-05 1.09603e-05)
(0.00242032 3.66026e-05 -7.53251e-06)
(0.00240696 5.05484e-05 -3.64736e-05)
(0.00229602 6.35243e-05 -7.67857e-05)
(0.0025332 1.21498e-05 -2.73135e-05)
(0.00253672 1.51091e-05 -1.22297e-05)
(0.00250679 1.84663e-05 2.60666e-07)
(0.00253136 2.439e-05 1.08037e-05)
(0.00249052 3.19586e-05 1.39982e-05)
(0.00250226 4.27419e-05 1.31603e-05)
(0.00243373 5.73508e-05 -5.8741e-06)
(0.00240925 7.84516e-05 -3.68558e-05)
(0.0023083 0.000106046 -7.61205e-05)
(0.00246072 1.43871e-05 -2.78408e-05)
(0.00247704 1.73842e-05 -1.46493e-05)
(0.00246581 2.17225e-05 -2.8304e-06)
(0.00250121 2.85216e-05 6.62753e-06)
(0.00248215 3.86789e-05 1.09141e-05)
(0.00249855 5.05449e-05 9.58015e-06)
(0.00241756 7.07098e-05 -9.78902e-06)
(0.00240826 9.60737e-05 -4.21266e-05)
(0.0023014 0.000143578 -0.000101811)
(0.0024549 7.41834e-07 -1.85692e-05)
(0.002485 2.4663e-06 -4.99339e-06)
(0.00245012 4.0288e-06 3.89322e-06)
(0.00246571 5.05258e-06 1.06003e-05)
(0.00242184 5.81298e-06 1.03074e-05)
(0.00243449 7.81774e-06 5.73578e-06)
(0.00238105 9.66118e-06 -8.06509e-06)
(0.00235555 1.35884e-05 -2.90507e-05)
(0.00226994 1.60715e-05 -5.34257e-05)
(0.00246124 6.69032e-06 -2.00733e-05)
(0.00247626 8.58072e-06 -6.70742e-06)
(0.00244541 1.11099e-05 2.14189e-06)
(0.00243822 1.40592e-05 8.23391e-06)
(0.00241272 1.80283e-05 8.52832e-06)
(0.00244844 2.43863e-05 4.8956e-06)
(0.00240198 3.24796e-05 -1.10841e-05)
(0.0024024 4.49888e-05 -3.58408e-05)
(0.00229281 5.72005e-05 -6.64617e-05)
(0.00246248 1.20245e-05 -2.26201e-05)
(0.00249248 1.47764e-05 -9.44692e-06)
(0.00245751 1.74301e-05 -9.04172e-09)
(0.00246178 2.20609e-05 7.22729e-06)
(0.00244027 2.8444e-05 8.15591e-06)
(0.00247522 3.81003e-05 5.31829e-06)
(0.00243019 5.10046e-05 -1.0077e-05)
(0.00241538 6.964e-05 -3.54619e-05)
(0.00230268 9.3431e-05 -6.63742e-05)
(0.00242948 1.45487e-05 -2.4413e-05)
(0.00243368 1.68988e-05 -1.22927e-05)
(0.00242046 2.04622e-05 -2.80268e-06)
(0.00243878 2.60248e-05 4.49284e-06)
(0.00243951 3.44604e-05 6.54381e-06)
(0.00246346 4.51464e-05 4.5036e-06)
(0.00240978 6.19953e-05 -1.1857e-05)
(0.00241317 8.41562e-05 -3.49159e-05)
(0.00230726 0.000116105 -7.31418e-05)
)
;

boundaryField
{
    inlet
    {
        type            zeroGradient;
    }
    outlet
    {
        type            zeroGradient;
    }
    wall
    {
        type            zeroGradient;
    }
    procBoundary3to1
    {
        type            processor;
        value           nonuniform List<vector> 
27
(
(0.00248557 4.63296e-06 -2.37974e-05)
(0.0025127 9.70128e-06 -9.12492e-06)
(0.0024872 6.17344e-06 3.37273e-06)
(0.00250123 5.90209e-07 1.29933e-05)
(0.00244257 -5.22614e-06 1.46431e-05)
(0.00242508 -1.02098e-05 1.09835e-05)
(0.00236213 -1.67646e-05 -3.82531e-06)
(0.00232656 -2.25788e-05 -2.47104e-05)
(0.00223644 -3.25335e-05 -4.28717e-05)
(0.00250048 -6.76106e-08 -2.22267e-05)
(0.00252247 3.16524e-06 -6.94461e-06)
(0.00249182 1.86488e-06 4.56003e-06)
(0.00250202 -1.97274e-06 1.37826e-05)
(0.00245324 -6.17756e-06 1.50667e-05)
(0.0024572 -1.06096e-05 1.23954e-05)
(0.00240483 -1.73031e-05 -1.70945e-06)
(0.00237907 -2.32749e-05 -2.25083e-05)
(0.00226017 -3.60987e-05 -4.57899e-05)
(0.00245227 -4.30368e-06 -1.84572e-05)
(0.00248042 -2.12812e-06 -4.49318e-06)
(0.00244917 -2.7033e-06 4.98576e-06)
(0.00248636 -5.40054e-06 1.32014e-05)
(0.00243878 -8.69234e-06 1.33756e-05)
(0.00244804 -1.2819e-05 9.70638e-06)
(0.00238532 -1.91536e-05 -1.30358e-06)
(0.00235813 -2.62286e-05 -1.77545e-05)
(0.00225372 -3.79438e-05 -3.46763e-05)
)
;
    }
    procBoundary3to2
    {
        type            processor;
        value           nonuniform List<vector> 
12
(
(0.00247237 3.41907e-07 -4.01598e-05)
(0.00247808 4.62679e-06 -4.11773e-05)
(0.00248704 9.17918e-06 -4.25384e-05)
(0.002436 1.13561e-05 -4.1921e-05)
(0.0025167 -9.43445e-07 -3.95283e-05)
(0.00250202 4.70207e-06 -4.02408e-05)
(0.00250915 1.01292e-05 -4.20989e-05)
(0.00244145 1.23561e-05 -4.13844e-05)
(0.00246348 -1.89605e-06 -3.32949e-05)
(0.00246226 4.81259e-06 -3.43643e-05)
(0.00248216 1.0805e-05 -3.68247e-05)
(0.00243387 1.31183e-05 -3.7429e-05)
)
;
    }
    procBoundary3to7
    {
        type            processor;
        value           nonuniform List<vector> 
36
(
(0.00241397 -1.07046e-06 -1.41133e-05)
(0.00243778 3.70844e-07 -2.96059e-06)
(0.00240075 1.07133e-06 3.6871e-06)
(0.0024205 1.70439e-06 8.64296e-06)
(0.00240428 2.17518e-06 8.282e-06)
(0.00241602 3.06159e-06 4.32881e-06)
(0.00234509 2.90699e-06 -6.58501e-06)
(0.00231321 3.65879e-06 -2.08639e-05)
(0.00223692 3.27632e-06 -3.71351e-05)
(0.00241136 5.94003e-06 -1.55112e-05)
(0.00245487 7.94831e-06 -3.93538e-06)
(0.00240653 9.44707e-06 1.77518e-06)
(0.00241905 1.20232e-05 6.1716e-06)
(0.00239635 1.53918e-05 4.98609e-06)
(0.0024141 1.98225e-05 7.92094e-07)
(0.00236096 2.65831e-05 -1.26669e-05)
(0.00234641 3.4731e-05 -2.94944e-05)
(0.00226116 4.63451e-05 -5.2489e-05)
(0.00240691 1.11593e-05 -1.84235e-05)
(0.00244713 1.36374e-05 -7.59051e-06)
(0.00241206 1.58911e-05 -1.01046e-06)
(0.00243009 2.00757e-05 3.97048e-06)
(0.00241531 2.56474e-05 3.05498e-06)
(0.00244924 3.33974e-05 -2.63726e-07)
(0.00239641 4.54797e-05 -1.44592e-05)
(0.00237422 5.98329e-05 -3.2188e-05)
(0.00227971 8.62047e-05 -6.11757e-05)
(0.00238836 1.39365e-05 -2.07007e-05)
(0.00240194 1.60159e-05 -1.0653e-05)
(0.00239082 1.92218e-05 -3.75235e-06)
(0.00239331 2.36964e-05 1.34322e-06)
(0.00240406 3.11009e-05 1.30566e-06)
(0.00242344 3.92394e-05 -7.18999e-07)
(0.00238285 5.44556e-05 -1.43737e-05)
(0.00238338 6.8532e-05 -2.65177e-05)
(0.0022698 9.45432e-05 -5.45802e-05)
)
;
    }
}


// ************************************************************************* //
