/*--------------------------------*- C++ -*----------------------------------*\
| =========                 |                                                 |
| \\      /  F ield         | OpenFOAM: The Open Source CFD Toolbox           |
|  \\    /   O peration     | Version:  4.x                                   |
|   \\  /    A nd           | Web:      www.OpenFOAM.org                      |
|    \\/     M anipulation  |                                                 |
\*---------------------------------------------------------------------------*/
FoamFile
{
    version     2.0;
    format      ascii;
    class       volScalarField;
    location    "17";
    object      Qsource;
}
// * * * * * * * * * * * * * * * * * * * * * * * * * * * * * * * * * * * * * //

dimensions      [1 -1 -3 0 0 0 0];

internalField   nonuniform List<scalar> 
108
(
9.28261e+09
4.86499e+09
7.40985e+09
4.25316e+09
5.51875e+09
4.78078e+09
5.93653e+09
6.12509e+09
3.93875e+09
7.1618e+09
9.98885e+09
5.73826e+09
6.60499e+09
6.81252e+09
6.0548e+09
6.51552e+09
6.60104e+09
4.41127e+09
7.41416e+09
7.8127e+09
7.78327e+09
5.87769e+09
6.35629e+09
5.9517e+09
6.54898e+09
6.87283e+09
3.34955e+09
5.94466e+09
6.14918e+09
6.66332e+09
8.88104e+09
7.08141e+09
7.75552e+09
5.11692e+09
7.44189e+09
6.63861e+09
8.55194e+09
7.93116e+09
1.01566e+10
1.04518e+10
8.4504e+09
7.85798e+09
6.9013e+09
8.56227e+09
8.18536e+09
7.83487e+09
8.12065e+09
8.43058e+09
9.08805e+09
7.75506e+09
8.26043e+09
9.76143e+09
9.48447e+09
6.48148e+09
1.28278e+10
9.82443e+09
8.96008e+09
1.11718e+10
8.29548e+09
9.81681e+09
7.89344e+09
9.36392e+09
7.51635e+09
9.05609e+09
8.10894e+09
7.61215e+09
9.33627e+09
9.74662e+09
8.78933e+09
7.94387e+09
1.01808e+10
6.95743e+09
8.13574e+09
1.07683e+10
9.01906e+09
1.01284e+10
6.48008e+09
7.76553e+09
9.05362e+09
8.44336e+09
6.72612e+09
9.71434e+09
6.17241e+09
8.16004e+09
5.03028e+09
4.40106e+09
9.61847e+09
7.95669e+09
1.13566e+10
5.71003e+09
6.042e+09
1.02331e+10
9.17213e+09
7.21269e+09
7.30704e+09
9.96966e+09
8.14952e+09
9.50163e+09
4.83172e+09
9.20945e+09
5.72124e+09
6.2366e+09
7.88215e+09
6.90374e+09
9.62242e+09
6.9204e+09
1.09333e+10
8.04317e+09
)
;

boundaryField
{
    inlet
    {
        type            calculated;
        value           nonuniform 0();
    }
    outlet
    {
        type            calculated;
        value           uniform 0;
    }
    wall
    {
        type            calculated;
        value           uniform 0;
    }
    procBoundary3to1
    {
        type            processor;
        value           nonuniform List<scalar> 
27
(
4.62152e+09
7.99826e+09
6.86553e+09
9.71991e+09
6.44757e+09
6.33618e+09
5.1397e+09
6.02564e+09
3.74959e+09
9.10827e+09
8.44038e+09
7.12446e+09
6.70094e+09
5.61018e+09
8.9308e+09
8.81617e+09
1.20509e+10
3.77454e+09
8.08515e+09
7.7476e+09
5.36513e+09
1.10006e+10
8.63115e+09
1.04742e+10
7.20691e+09
9.29895e+09
3.01798e+09
)
;
    }
    procBoundary3to2
    {
        type            processor;
        value           nonuniform List<scalar> 
12
(
4.03348e+09
5.52539e+09
7.55816e+09
6.06286e+09
1.12183e+10
6.49562e+09
7.74518e+09
5.75095e+09
9.23028e+09
5.78766e+09
1.02167e+10
8.55286e+09
)
;
    }
    procBoundary3to7
    {
        type            processor;
        value           nonuniform List<scalar> 
36
(
1.0344e+10
9.17004e+09
6.53476e+09
7.93979e+09
1.11244e+10
1.24012e+10
8.07645e+09
6.59435e+09
6.03176e+09
7.85893e+09
1.15783e+10
7.64476e+09
8.26481e+09
8.59941e+09
7.12879e+09
7.91883e+09
7.95663e+09
6.88479e+09
5.26084e+09
9.35558e+09
6.90574e+09
8.92977e+09
8.33769e+09
1.04363e+10
8.78724e+09
9.09537e+09
7.60109e+09
7.4933e+09
8.3714e+09
9.43543e+09
6.93779e+09
8.51829e+09
9.26196e+09
8.79399e+09
8.7474e+09
4.60229e+09
)
;
    }
}


// ************************************************************************* //
