/*--------------------------------*- C++ -*----------------------------------*\
  =========                 |
  \\      /  F ield         | OpenFOAM: The Open Source CFD Toolbox
   \\    /   O peration     | Website:  https://openfoam.org
    \\  /    A nd           | Version:  4.x
     \\/     M anipulation  |
\*---------------------------------------------------------------------------*/
FoamFile
{
    version     2.0;
    format      ascii;
    class       Cloud<passiveParticle>;
    location    0;
    object      positions;
}
// * * * * * * * * * * * * * * * * * * * * * * * * * * * * * * * * * * * * * //

310
(
( 0.211663 -0.00560173 -0.0726898 ) 4
( 0.187171 -0.00943536 -0.0456949 ) 34
( 0.223548 -0.0130728 -0.0586364 ) 36
( 0.203137 -0.0136602 -0.0353165 ) 64
( 0.235647 -0.00379962 -0.071324 ) 36
( 0.220495 -0.00514229 -0.0324743 ) 64
( 0.17668 -0.00935458 -0.0624137 ) 34
( 0.236087 -0.0090553 -0.0438793 ) 36
( 0.205812 -0.00152574 -0.0507365 ) 35
( 0.167668 -0.0112935 -0.0446931 ) 34
( 0.226383 -0.0111473 -0.0147378 ) 65
( 0.225317 0.0300854 -0.0273506 ) 74
( 0.0457949 0.0271906 -0.0469737 ) 38
( 0.215219 0.0376247 -0.0425769 ) 73
( 0.185434 0.0222806 -0.0700947 ) 43
( 0.11357 0.0388498 -0.0534931 ) 41
( 0.0323534 0.0742101 -0.0323392 ) 85
( 0.201887 0.0641001 -0.0450994 ) 53
( 0.212456 0.0179986 -0.041042 ) 73
( 0.0749581 0.0448062 -0.050957 ) 48
( 0.0697994 0.0214954 -0.0471466 ) 39
( 0.0323082 0.0515493 -0.0611207 ) 47
( 0.173536 0.0184014 -0.054683 ) 43
( 0.125972 0.0707839 -0.0485141 ) 50
( 0.0266301 0.0590186 -0.0436364 ) 46
( 0.0238066 0.0902946 -0.0399179 ) 84
( 0.043324 0.090133 -0.0543616 ) 56
( 0.0625567 0.0501667 -0.0659364 ) 48
( 0.0782808 0.0721563 -0.0575334 ) 57
( 0.138066 0.0576176 -0.0571975 ) 50
( 0.180712 0.0551968 -0.0492798 ) 52
( 0.0592731 0.0312515 -0.0609032 ) 39
( 0.20329 0.00506177 -0.0291805 ) 64
( 0.100196 0.0434139 -0.0349115 ) 78
( 0.0790444 0.0455011 -0.0254588 ) 77
( 0.239327 0.0524655 -0.0725158 ) 23
( 0.157 0.0557706 -0.0683001 ) 51
( 0.215984 0.0776837 -0.0410355 ) 91
( 0.244102 0.0826063 -0.0399024 ) 92
( 0.168148 0.0665533 -0.03895 ) 81
( 0.0925736 0.0600493 -0.0672991 ) 49
( 0.14534 0.0710968 -0.0444812 ) 51
( 0.110987 0.0824328 -0.0427705 ) 87
( 0.154461 0.0565515 -0.0289756 ) 80
( 0.136385 0.0382071 -0.0531673 ) 41
( 0.210503 0.0742358 -0.0597828 ) 62
( 0.025458 0.0819979 -0.0578101 ) 55
( 0.1863 0.0389642 -0.0593076 ) 43
( 0.185183 0.0889686 -0.0709463 ) 61
( 0.168862 0.0901205 -0.0375181 ) 90
( 0.223437 0.0641705 -0.0708696 ) 54
( 0.118362 0.0217988 -0.0623757 ) 41
( 0.114024 0.0888486 -0.0613523 ) 59
( 0.0724803 0.0629138 -0.032122 ) 77
( 0.0925608 0.0772642 -0.0356245 ) 87
( 0.133777 0.0243516 -0.0392104 ) 70
( 0.196398 0.052661 -0.0696628 ) 53
( 0.144927 0.00354021 -0.0699944 ) 33
( 0.218491 0.0258879 -0.0583236 ) 44
( 0.0270926 0.0248077 -0.0326874 ) 66
( 0.099636 0.0176756 -0.0675199 ) 40
( 0.0901183 0.0248103 -0.0214976 ) 69
( 0.125558 0.0399822 -0.0697644 ) 41
( 0.124125 0.0635316 -0.0278537 ) 79
( 0.00983556 0.0177898 -0.0395184 ) 66
( 0.106582 0.0460283 -0.0707977 ) 49
( 0.0581586 0.0798815 -0.046157 ) 57
( 0.10004 0.0251735 -0.0491488 ) 40
( 0.154536 0.0242518 -0.0525075 ) 42
( 0.225864 0.063589 -0.0509996 ) 54
( 0.15713 0.00536269 -0.0468852 ) 33
( 0.18179 0.0316136 -0.041436 ) 72
( 0.202729 0.0124665 -0.070388 ) 35
( 0.0882113 0.0572314 -0.0427484 ) 78
( 0.0977972 0.074923 -0.0553257 ) 58
( 0.124726 0.0517325 -0.0437064 ) 50
( 0.0900024 0.0619835 -0.0230714 ) 78
( 0.191292 0.0711419 -0.0642664 ) 52
( 0.23153 0.0689436 -0.0326773 ) 83
( 0.0349279 0.0416946 -0.0389923 ) 67
( 0.14457 0.0731575 -0.0678339 ) 60
( 0.0619314 0.046582 -0.0360706 ) 77
( 0.0762405 0.0886055 -0.0352411 ) 86
( 0.155581 0.0545416 -0.0485624 ) 51
( 0.00997592 0.0726678 -0.0468563 ) 55
( 0.193066 0.0220145 -0.0284622 ) 72
( 0.037946 0.0181533 -0.0644948 ) 38
( 0.136012 0.0455718 -0.0287411 ) 79
( 0.00989872 0.0813166 -0.0290155 ) 84
( 0.0108237 0.0545523 -0.054974 ) 46
( 0.169392 0.0439032 -0.0320887 ) 81
( 0.0567459 0.0722483 -0.0644815 ) 57
( 0.151043 0.0900392 -0.0594861 ) 60
( 0.0282701 0.0329035 -0.0554591 ) 38
( 0.114707 0.0289893 -0.036257 ) 70
( 0.230063 0.0120969 -0.0340986 ) 65
( 0.248877 0.0607995 -0.024277 ) 83
( 0.0279784 0.0556803 -0.01877 ) 76
( 0.242084 0.0555917 -0.0425614 ) 83
( 0.096007 0.0900454 -0.0694635 ) 58
( 0.165468 0.0708285 -0.0581186 ) 51
( 0.188513 0.0902889 -0.0347794 ) 90
( 0.232098 0.0279743 -0.0742795 ) 14
( 0.239141 0.0160665 -0.0600137 ) 45
( 0.196762 0.0449595 -0.0435029 ) 53
( 0.164524 0.0285305 -0.0691849 ) 42
( 0.0637639 0.0612406 -0.0495946 ) 48
( 0.247596 0.0106212 -0.0429005 ) 36
( 0.184964 0.0743431 -0.0457752 ) 61
( 0.0835909 0.0270161 -0.0603261 ) 40
( 0.171221 0.0773751 -0.0226328 ) 90
( 0.167523 0.0393908 -0.0528025 ) 43
( 0.176785 0.0581062 -0.0685449 ) 52
( 0.114109 0.0902924 -0.0250442 ) 88
( 0.227135 0.0901919 -0.0299076 ) 92
( 0.165936 0.0204039 -0.0366493 ) 71
( 0.20504 0.0901346 -0.0702467 ) 62
( 0.188962 0.00641391 -0.0574803 ) 34
( 0.120876 0.0661726 -0.0671542 ) 50
( 0.0586502 0.027465 -0.0318744 ) 68
( 0.0473121 0.0567654 -0.0272785 ) 76
( 0.0844097 0.0320213 -0.0390042 ) 69
( 0.24996 0.088576 -0.0220538 ) 92
( 0.00990976 0.0284649 -0.0677903 ) 37
( 0.222455 0.0110175 -0.070944 ) 36
( 0.132863 0.0897391 -0.0675756 ) 59
( 0.0490634 0.0481961 -0.0510749 ) 47
( 0.163352 0.082485 -0.0740664 ) 29
( 0.185468 0.061387 -0.0308161 ) 81
( 0.00970266 0.0356841 -0.0493384 ) 37
( 0.207241 0.0900327 -0.028281 ) 91
( 0.211392 0.0510738 -0.0566464 ) 53
( 0.0854457 0.0901595 -0.0526886 ) 58
( 0.233384 0.0281683 -0.0453414 ) 45
( 0.202893 0.0329441 -0.0685051 ) 44
( 0.128741 0.0902635 -0.0481023 ) 59
( 0.0549034 0.0732208 -0.0190752 ) 85
( 0.0355587 0.069365 -0.0693251 ) 47
( 0.231446 0.0450439 -0.0556921 ) 54
( 0.0282717 0.090155 -0.0195275 ) 85
( 0.228709 0.0900953 -0.0498747 ) 63
( 0.149153 0.0901869 -0.0397233 ) 89
( 0.0104533 0.0351326 -0.0297526 ) 66
( 0.151501 0.0373463 -0.0379472 ) 71
( 0.143524 0.0277801 -0.068625 ) 42
( 0.0433677 0.0672993 -0.0504424 ) 47
( 0.167816 0.00692975 -0.0699045 ) 34
( 0.170829 0.0900637 -0.0572341 ) 61
( 0.196871 0.0238361 -0.0518432 ) 44
( 0.137176 0.0900809 -0.0227744 ) 88
( 0.0527805 0.0273105 -0.00504798 ) 94
( 0.135532 0.0700963 6.0809e-05 ) 105
( 0.0833015 0.0549723 -0.0035674 ) 103
( 0.0894783 0.0423314 0.0105398 ) 96
( 0.217869 0.0165944 0.0112944 ) 100
( 0.114844 0.0250206 0.00870283 ) 97
( 0.0430417 0.0347623 0.0105329 ) 94
( 0.11019 0.041242 -0.00206846 ) 96
( 0.175663 0.0361701 -0.0120383 ) 99
( 0.168881 0.0486545 0.0017647 ) 107
( 0.191221 0.0822048 -0.0167859 ) 90
( 0.125036 0.0510772 0.00636103 ) 105
( 0.153925 0.0394126 0.0108318 ) 98
( 0.0490169 0.0902063 0.00757925 ) 109
( 0.125258 0.0234313 -0.00780149 ) 97
( 0.00985462 0.0488475 0.00689142 ) 101
( 0.0110369 0.0659965 -0.0165292 ) 75
( 0.103384 0.0901075 -0.0035008 ) 111
( 0.159004 0.068193 -0.010009 ) 106
( 0.193377 0.0595717 -0.0127747 ) 107
( 0.0293368 0.0881072 0.00604047 ) 109
( 0.0272697 0.0434108 -0.00310279 ) 101
( 0.0907391 0.0902261 0.0119002 ) 111
( 0.0756426 0.0182153 0.0072312 ) 95
( 0.0628589 0.0800441 -0.00215611 ) 110
( 0.20712 0.027241 -0.00112185 ) 100
( 0.13395 0.0427865 -0.00903814 ) 97
( 0.0582072 0.0697176 0.0138761 ) 103
( 0.0098997 0.0682369 0.00298095 ) 101
( 0.124289 0.0776386 -0.0140646 ) 112
( 0.232427 0.0780826 -0.0152548 ) 92
( 0.162191 0.0798799 0.00557423 ) 113
( 0.163686 0.0259435 0.00028121 ) 98
( 0.145159 0.0901214 0.00640226 ) 113
( 0.0953041 0.023916 0.00530154 ) 96
( 0.0643656 0.0605415 -0.00573656 ) 103
( 0.020124 0.0274374 -0.0144068 ) 66
( 0.0466391 0.0898356 -0.011948 ) 109
( 0.0663305 0.0371131 0.00534557 ) 95
( 0.092813 0.073203 -0.00374222 ) 111
( 0.0532207 0.0515929 0.00795877 ) 102
( 0.105742 0.0730528 -0.0187607 ) 87
( 0.153677 0.0900482 -0.0115731 ) 113
( 0.0292376 0.0233613 0.00244598 ) 94
( 0.142532 0.0275971 0.000288263 ) 98
( 0.221097 0.0370501 0.00870906 ) 100
( 0.153192 0.046708 -0.0119646 ) 106
( 0.116991 0.0594704 -0.00966101 ) 105
( 0.077022 0.0702149 0.00779677 ) 103
( 0.011094 0.086871 -0.00999176 ) 108
( 0.0803803 0.0891378 -0.00480099 ) 110
( 0.191368 0.0389653 -0.000739339 ) 99
( 0.125031 0.0903334 0.000708295 ) 112
( 0.211745 0.0529944 -0.0156997 ) 82
( 0.108973 0.0286567 -0.0172555 ) 69
( 0.0824344 0.0340377 -0.00582837 ) 95
( 0.101127 0.0573497 0.00491235 ) 104
( 0.182735 0.0210209 -0.000700463 ) 99
( 0.0361241 0.0604907 0.00211926 ) 102
( 0.178943 0.0712715 -0.00558551 ) 107
( 0.00975606 0.0442861 -0.0122916 ) 101
( 0.107822 0.0577675 -0.0547268 ) 49
( 0.00985758 0.0901752 -0.067098 ) 55
( 0.216744 0.0558423 -0.0346846 ) 82
( 0.139919 0.0605858 -0.0164435 ) 80
( 0.0518154 0.0144504 0.0101073 ) 94
( 0.00984017 0.0296383 0.00233403 ) 93
( 0.00991262 0.0901384 0.00950127 ) 108
( 0.0702331 0.0230067 -0.0165289 ) 68
( 0.221016 0.0444462 -0.0727286 ) 22
( 0.0499578 0.0901385 -0.0314056 ) 85
( 0.158655 -0.0107626 -0.0703188 ) 33
( 0.00983534 0.0560938 -0.0336438 ) 75
( 0.228093 0.090125 -0.0697318 ) 63
( 0.0942615 0.0431353 -0.0554208 ) 49
( 0.224292 0.00562007 -0.0518913 ) 36
( 0.217691 0.0137881 -0.018762 ) 64
( 0.230985 0.05821 -0.0160188 ) 83
( 0.0672033 0.090061 -0.060682 ) 57
( 0.240953 0.0425462 -0.0230292 ) 74
( 0.10593 0.0625486 -0.0355599 ) 78
( 0.145743 -0.00927041 -0.0541418 ) 33
( 0.202636 0.0901038 -0.0487114 ) 62
( 0.139643 0.0278488 -0.020633 ) 71
( 0.249403 -0.00447311 -0.0301213 ) 65
( 0.0928493 0.0900518 -0.0203614 ) 87
( 0.116545 0.0456686 -0.0239203 ) 79
( 0.150137 0.0575838 0.00401988 ) 106
( 0.150728 0.0759032 -0.0260894 ) 89
( 0.159325 0.0304814 -0.0211185 ) 71
( 0.188395 0.0424316 -0.0257435 ) 72
( 0.114327 0.073765 0.00387541 ) 112
( 0.0407359 0.031295 -0.0201036 ) 67
( 0.0358962 0.0730594 -0.0129725 ) 109
( 0.173198 0.0166518 -0.0176239 ) 72
( 0.175291 0.0641382 0.0124159 ) 107
( 0.173047 0.0556237 -0.0163784 ) 81
( 0.0961088 0.0446739 -0.0154376 ) 78
( 0.075551 0.073493 -0.015824 ) 86
( 0.205428 0.034576 -0.0193728 ) 73
( 0.20387 0.0703869 -0.0264719 ) 82
( 0.0637051 0.0415435 -0.0137192 ) 95
( 0.0453499 0.0476421 -0.00976816 ) 102
( 0.0653626 0.0902183 -0.0188633 ) 86
( 0.0117486 0.0704828 -0.0666412 ) 46
( 0.10996 0.0787368 -0.0781076 ) 27
( 0.178294 0.0403391 -0.0774968 ) 12
( 0.0290722 0.0316664 -0.0760884 ) 7
( 0.238033 0.0776441 -0.0815367 ) 32
( 0.199012 0.0750086 -0.0821746 ) 31
( 0.178422 -0.014171 -0.0816846 ) 3
( 0.0516399 0.0237947 -0.077705 ) 7
( 0.112314 0.029015 -0.0799395 ) 10
( 0.0685317 0.0163181 -0.0702927 ) 39
( 0.0746779 0.0625876 -0.0755784 ) 17
( 0.13895 0.0534864 -0.0765837 ) 20
( 0.21834 0.0793488 -0.083418 ) 31
( 0.0166145 0.0466542 -0.072221 ) 15
( 0.153508 0.0405098 -0.0806282 ) 11
( 0.080961 0.0442241 -0.0701145 ) 48
( 0.0503939 0.0601683 -0.0789588 ) 16
( 0.154699 0.0164339 -0.0816069 ) 11
( 0.0456367 0.0419921 -0.0722965 ) 7
( 0.0457815 0.0859684 -0.0737273 ) 25
( 0.085233 0.00825421 -0.0773933 ) 0
( 0.078779 0.0820176 -0.075134 ) 26
( 0.129657 0.0192477 -0.08002 ) 10
( 0.133593 -0.00672883 -0.0827866 ) 1
( 0.160902 0.0659585 -0.0849569 ) 20
( 0.186166 0.00359248 -0.0770355 ) 3
( 0.0267512 0.0900567 -0.0774594 ) 24
( 0.234443 0.012569 -0.0867786 ) 5
( 0.0882068 -0.0102127 -0.0842217 ) 0
( 0.21432 0.0249151 -0.0827212 ) 13
( 0.0184445 0.0161225 -0.0825165 ) 6
( 0.209922 0.0569989 -0.0836486 ) 22
( 0.0104481 0.0799843 -0.0841682 ) 24
( 0.130473 0.0758575 -0.0817029 ) 28
( 0.0925817 0.0315023 -0.0799395 ) 9
( 0.0657349 0.0374571 -0.0809857 ) 8
( 0.120166 0.0539766 -0.0830793 ) 19
( 0.03153 0.0548224 -0.0825973 ) 16
( 0.179236 0.0730556 -0.0814637 ) 30
( 0.101905 0.0617105 -0.0847702 ) 18
( 0.196513 0.0407819 -0.0856794 ) 13
( 0.10854 0.00598775 -0.0809635 ) 0
( 0.146736 0.0900848 -0.0818327 ) 29
( 0.0626452 0.0901113 -0.0833336 ) 26
( 0.233232 0.0420385 -0.0883466 ) 14
( 0.173324 0.0222029 -0.0859232 ) 12
( 0.0914324 0.0891565 -0.0888268 ) 27
( 0.00991228 0.060091 -0.0851977 ) 15
( 0.0108355 0.0343223 -0.0868108 ) 6
( 0.0374929 0.0143976 -0.0880957 ) 7
( 0.195425 0.0203482 -0.0872137 ) 13
( 0.0315007 0.0739808 -0.0882671 ) 25
( 0.0860143 0.0501954 -0.0884289 ) 18
( 0.0768792 0.0226375 -0.0884117 ) 8
( 0.134956 0.0370808 -0.0871789 ) 10
( 0.115083 -0.0111567 -0.0887725 ) 1
)
