/*--------------------------------*- C++ -*----------------------------------*\
| =========                 |                                                 |
| \\      /  F ield         | OpenFOAM: The Open Source CFD Toolbox           |
|  \\    /   O peration     | Version:  4.x                                   |
|   \\  /    A nd           | Web:      www.OpenFOAM.org                      |
|    \\/     M anipulation  |                                                 |
\*---------------------------------------------------------------------------*/
FoamFile
{
    version     2.0;
    format      ascii;
    class       volScalarField;
    location    "45.5";
    object      magGField;
}
// * * * * * * * * * * * * * * * * * * * * * * * * * * * * * * * * * * * * * //

dimensions      [1 -2 -1 0 0 0 0];

internalField   nonuniform List<scalar> 
114
(
91.133
9.23761
78.0042
3.05338e-05
54.6176
4.22401
0.297496
88.9657
0.767091
85.6475
5.15442
75.3821
25.1961
79.4982
3.88078e-05
78.0378
3.73932e-05
75.2198
3.73381e-05
64.5408
19.8643
45.3692
106.527
43.7367
110.405
39.8257
115.517
33.5401
126.896
37.2528
10.0724
92.3765
4.11235
93.2085
2.39881
92.9416
10.5487
89.1297
44.3618
0.0679834
87.6971
4.03142e-05
88.0835
2.66107
90.0583
10.3399
85.9551
24.2885
3.81509e-05
84.1617
41.864
101.068
39.1639
102.801
35.5541
104.382
27.4828
104.371
19.6926
21.4354
94.4413
17.7247
96.6241
14.1432
98.6937
13.3998
102.066
26.7454
4.04392
88.6528
3.69032e-05
86.7556
3.51961e-05
82.4479
8.20518
75.353
41.2299
6.04774
89.2308
3.5122
90.7794
66.3695
117.246
69.1754
125.193
69.4845
140.56
65.3301
175.476
56.968
52.4605
108.747
53.3956
114.475
51.479
122.437
44.4137
135.013
30.4178
44.4276
103.125
43.6294
107.199
43.2068
114.98
41.334
134.586
39.8325
42.4465
102.307
40.6668
105.127
37.359
110.508
)
;

boundaryField
{
    inlet
    {
        type            calculated;
        value           nonuniform 0();
    }
    outlet
    {
        type            calculated;
        value           nonuniform List<scalar> 
12
(
9.26927
55.398
43.8413
81.8049
97.9495
53.7072
43.3591
58.9686
91.9658
125.006
67.023
88.3618
)
;
    }
    wall
    {
        type            calculated;
        value           uniform 0;
    }
    procBoundary5to1
    {
        type            processor;
        value           nonuniform List<scalar> 
32
(
117.206
46.3868
122.555
39.1161
129.302
35.9689
27.9988
108.025
27.9387
113.312
30.09
121.462
41.4364
91.7157
6.49622
92.2117
7.62678
91.9229
15.5022
87.5914
39.0645
37.6322
98.5839
25.8371
25.8371
25.8371
5.4719
89.4364
89.4364
89.4364
3.46147e-05
3.46147e-05
)
;
    }
    procBoundary5to4
    {
        type            processor;
        value           nonuniform List<scalar> 
12
(
102.848
91.661
87.5726
84.2764
100.071
93.0428
88.6511
88.2334
111.362
104.806
100.361
99.8892
)
;
    }
    procBoundary5to7
    {
        type            processor;
        value           nonuniform List<scalar> 
44
(
88.0286
2.5077
87.981
0.249058
85.868
0.00013862
74.0137
11.8602
2.7708
88.0286
3.90903e-05
83.987
3.46423e-05
82.6908
3.21732e-05
74.2404
19.1658
3.76844e-05
3.90903e-05
82.1129
3.90903e-05
83.987
6.33496
91.8785
13.7901
87.1918
42.5368
1.19111
86.5702
3.88276e-05
6.33496
85.9248
6.33496
91.8785
35.5376
124.508
34.0481
36.8355
97.7086
33.6118
97.8904
30.5421
35.5376
98.9569
)
;
    }
}


// ************************************************************************* //
