/*--------------------------------*- C++ -*----------------------------------*\
| =========                 |                                                 |
| \\      /  F ield         | OpenFOAM: The Open Source CFD Toolbox           |
|  \\    /   O peration     | Version:  4.x                                   |
|   \\  /    A nd           | Web:      www.OpenFOAM.org                      |
|    \\/     M anipulation  |                                                 |
\*---------------------------------------------------------------------------*/
FoamFile
{
    version     2.0;
    format      ascii;
    class       volScalarField;
    location    "13";
    object      thCond;
}
// * * * * * * * * * * * * * * * * * * * * * * * * * * * * * * * * * * * * * //

dimensions      [1 1 -3 -1 0 0 0];

internalField   nonuniform List<scalar> 
108
(
191.86
191.957
191.711
191.952
191.895
191.969
191.692
191.702
191.634
191.863
191.511
191.73
191.794
191.733
191.836
191.533
191.519
191.487
191.893
191.769
191.66
191.822
191.742
191.826
191.573
191.526
191.655
192.238
192.208
191.996
191.737
191.795
191.842
191.887
191.624
191.732
191.075
191.067
190.751
190.781
190.88
190.933
190.794
190.728
190.587
191.125
191.01
190.838
190.884
190.924
190.886
190.593
190.635
190.659
190.936
190.996
190.91
190.854
190.904
190.858
190.77
190.693
190.695
191.359
191.442
191.249
191.098
190.88
191.047
190.911
190.822
190.94
190.425
190.239
190.147
190.13
190.243
190.14
189.946
190.073
190.084
190.43
190.487
190.283
190.539
190.454
190.106
189.989
189.915
190.138
190.744
190.474
190.366
190.517
190.356
190.11
190.128
190.08
190.248
191.025
191.057
190.782
190.657
190.517
190.296
190.267
190.114
190.128
)
;

boundaryField
{
    inlet
    {
        type            zeroGradient;
    }
    outlet
    {
        type            zeroGradient;
    }
    wall
    {
        type            zeroGradient;
    }
    procBoundary3to1
    {
        type            processor;
        value           nonuniform List<scalar> 
27
(
192.323
192.086
191.878
191.673
191.807
191.823
191.623
191.677
191.844
191.299
191.318
191.223
191.148
191.104
190.867
190.658
190.557
191.136
190.669
190.635
190.646
190.24
190.199
190.084
190.121
190.158
190.67
)
;
    }
    procBoundary3to2
    {
        type            processor;
        value           nonuniform List<scalar> 
12
(
192.421
192.271
192.241
192.652
191.232
191.485
191.478
191.837
190.75
190.9
190.728
190.875
)
;
    }
    procBoundary3to7
    {
        type            processor;
        value           nonuniform List<scalar> 
36
(
189.951
189.897
189.954
189.814
189.458
189.394
189.505
189.733
189.542
190.115
189.797
189.886
189.897
189.637
189.709
189.589
189.667
189.572
190.474
190.084
190.062
189.996
189.775
189.613
189.596
189.678
189.64
190.728
190.289
190.044
190.19
189.936
189.827
189.712
189.923
190.182
)
;
    }
}


// ************************************************************************* //
