/*--------------------------------*- C++ -*----------------------------------*\
| =========                 |                                                 |
| \\      /  F ield         | OpenFOAM: The Open Source CFD Toolbox           |
|  \\    /   O peration     | Version:  4.x                                   |
|   \\  /    A nd           | Web:      www.OpenFOAM.org                      |
|    \\/     M anipulation  |                                                 |
\*---------------------------------------------------------------------------*/
FoamFile
{
    version     2.0;
    format      ascii;
    class       volVectorField;
    location    "18";
    object      ddtUrel;
}
// * * * * * * * * * * * * * * * * * * * * * * * * * * * * * * * * * * * * * //

dimensions      [0 1 -2 0 0 0 0];

internalField   nonuniform List<vector> 
108
(
(2.47886e-06 -6.10506e-07 -9.28233e-07)
(2.17515e-06 -5.7823e-07 -1.04968e-06)
(1.77789e-06 -6.84413e-07 -9.90697e-07)
(9.36453e-07 -4.95226e-07 -8.31401e-07)
(3.28051e-07 -1.88718e-07 -7.25413e-07)
(-1.78397e-07 -8.71006e-08 -6.05522e-07)
(-1.01862e-06 -7.1213e-08 -5.91512e-07)
(-1.29579e-06 -5.45272e-08 -6.11002e-07)
(-1.19823e-06 -8.242e-08 -4.97477e-07)
(2.83064e-06 -8.19041e-07 -1.42436e-06)
(2.51524e-06 -8.87487e-07 -1.53468e-06)
(2.06496e-06 -8.64967e-07 -1.39786e-06)
(1.34455e-06 -5.7141e-07 -1.1028e-06)
(7.41762e-07 -1.66701e-07 -8.60201e-07)
(9.27812e-08 -6.20806e-08 -6.8603e-07)
(-8.78897e-07 -6.25431e-08 -6.65935e-07)
(-1.33973e-06 -1.06339e-07 -6.31161e-07)
(-1.10288e-06 -5.3503e-08 -5.0517e-07)
(3.07147e-06 -8.77348e-07 -1.98133e-06)
(2.83252e-06 -1.06407e-06 -2.08614e-06)
(2.46073e-06 -9.34787e-07 -1.84882e-06)
(1.85098e-06 -5.87417e-07 -1.39509e-06)
(1.39488e-06 -3.07834e-07 -1.12213e-06)
(4.34197e-07 -1.09597e-07 -8.22854e-07)
(-6.13115e-07 -1.09354e-07 -7.27142e-07)
(-1.21637e-06 -4.32151e-08 -6.00414e-07)
(-9.19484e-07 6.62636e-08 -5.20531e-07)
(3.18782e-06 -8.63625e-07 -2.46515e-06)
(3.15939e-06 -1.01588e-06 -2.60127e-06)
(2.71834e-06 -7.52473e-07 -2.20045e-06)
(2.25134e-06 -5.78744e-07 -1.58355e-06)
(2.15077e-06 -5.81814e-07 -1.42828e-06)
(8.37348e-07 -2.68872e-07 -9.49448e-07)
(-3.09437e-07 -2.26389e-07 -6.7725e-07)
(-8.5094e-07 -3.80298e-08 -5.92293e-07)
(-6.79228e-07 1.42872e-07 -5.63914e-07)
(2.3014e-06 -5.80174e-07 -9.76242e-07)
(2.21093e-06 -5.6932e-07 -1.11876e-06)
(1.84767e-06 -6.71152e-07 -9.771e-07)
(1.1049e-06 -5.05581e-07 -8.13977e-07)
(4.882e-07 -2.28731e-07 -6.99705e-07)
(4.61737e-08 -9.50245e-08 -5.23752e-07)
(-9.34098e-07 -5.65489e-08 -4.65352e-07)
(-1.32239e-06 -1.69865e-08 -4.62087e-07)
(-1.106e-06 -2.91499e-08 -4.14762e-07)
(2.85928e-06 -7.56284e-07 -1.57001e-06)
(2.71588e-06 -8.59556e-07 -1.69608e-06)
(2.24639e-06 -8.56856e-07 -1.4448e-06)
(1.52285e-06 -6.03258e-07 -1.06704e-06)
(8.19321e-07 -2.15873e-07 -8.16532e-07)
(1.99075e-07 -8.90006e-08 -6.18169e-07)
(-7.91701e-07 -7.30633e-08 -5.29976e-07)
(-1.28677e-06 -8.3059e-08 -5.02708e-07)
(-1.11813e-06 -6.82388e-08 -4.06683e-07)
(3.42994e-06 -8.7977e-07 -2.36694e-06)
(3.38664e-06 -1.0527e-06 -2.41389e-06)
(2.8417e-06 -9.62727e-07 -1.95228e-06)
(2.11557e-06 -6.17773e-07 -1.38571e-06)
(1.31074e-06 -2.93773e-07 -9.84601e-07)
(5.04529e-07 -1.44465e-07 -7.05619e-07)
(-6.37883e-07 -1.2339e-07 -5.36423e-07)
(-1.14431e-06 -9.73795e-08 -4.55887e-07)
(-9.40996e-07 -5.56812e-08 -3.75764e-07)
(3.95794e-06 -8.23651e-07 -3.39543e-06)
(4.15611e-06 -9.63331e-07 -3.27608e-06)
(3.31893e-06 -8.93712e-07 -2.37133e-06)
(2.48628e-06 -6.02272e-07 -1.5924e-06)
(1.70536e-06 -3.9505e-07 -1.12868e-06)
(7.45236e-07 -2.25186e-07 -7.61022e-07)
(-2.46045e-07 -1.60444e-07 -5.03889e-07)
(-8.18837e-07 -8.53647e-08 -4.36093e-07)
(-7.86332e-07 -3.68412e-08 -3.73474e-07)
(2.16763e-06 -5.32319e-07 -1.10864e-06)
(2.22556e-06 -5.37222e-07 -1.15521e-06)
(1.87882e-06 -5.72039e-07 -1.05044e-06)
(1.094e-06 -4.3354e-07 -8.33311e-07)
(5.76661e-07 -2.93896e-07 -5.96548e-07)
(2.08293e-07 -1.65214e-07 -4.49654e-07)
(-8.60923e-07 -1.16244e-07 -3.33486e-07)
(-1.38139e-06 -1.05225e-07 -2.83515e-07)
(-1.12632e-06 -8.1645e-08 -2.50631e-07)
(3.02921e-06 -7.32289e-07 -1.93615e-06)
(2.9273e-06 -8.25047e-07 -1.91044e-06)
(2.45917e-06 -8.66668e-07 -1.54645e-06)
(1.59766e-06 -6.29105e-07 -1.08361e-06)
(8.71399e-07 -2.96535e-07 -7.56904e-07)
(2.81688e-07 -1.93623e-07 -5.35762e-07)
(-8.17798e-07 -1.59648e-07 -3.81562e-07)
(-1.35482e-06 -1.53542e-07 -3.02996e-07)
(-1.12815e-06 -1.42699e-07 -2.44121e-07)
(4.16067e-06 -1.08534e-06 -3.40446e-06)
(4.08664e-06 -1.17511e-06 -3.09291e-06)
(3.2594e-06 -1.06896e-06 -2.19521e-06)
(2.27923e-06 -7.1092e-07 -1.45709e-06)
(1.33353e-06 -3.75397e-07 -9.42798e-07)
(5.40678e-07 -2.24023e-07 -6.14484e-07)
(-5.72665e-07 -1.90969e-07 -4.0458e-07)
(-1.14748e-06 -1.81777e-07 -2.78039e-07)
(-9.90376e-07 -1.71334e-07 -2.17459e-07)
(5.65438e-06 -1.18019e-06 -5.8184e-06)
(5.58019e-06 -1.34794e-06 -4.69915e-06)
(3.97742e-06 -1.10425e-06 -2.91549e-06)
(2.60397e-06 -7.08603e-07 -1.76052e-06)
(1.59868e-06 -4.05087e-07 -1.082e-06)
(6.36474e-07 -2.67819e-07 -6.46612e-07)
(-3.61102e-07 -2.14456e-07 -3.93918e-07)
(-9.17455e-07 -1.81987e-07 -2.62369e-07)
(-8.52427e-07 -1.91395e-07 -1.94345e-07)
)
;

boundaryField
{
    inlet
    {
        type            calculated;
        value           nonuniform 0();
    }
    outlet
    {
        type            calculated;
        value           nonuniform List<vector> 
12
(
(4.89654e-07 -5.31563e-07 -3.45062e-07)
(5.46674e-08 1.89657e-07 -3.1541e-07)
(2.55382e-07 1.04685e-06 -6.61182e-07)
(1.364e-06 1.43712e-06 -1.20889e-06)
(3.54698e-07 2.34775e-07 -5.84886e-07)
(1.95285e-07 -1.34898e-08 -3.16673e-07)
(2.671e-07 5.53959e-08 -1.59708e-07)
(3.43081e-07 -1.54888e-08 -1.7966e-09)
(3.07079e-07 1.27554e-07 -2.66276e-07)
(2.74402e-07 1.81129e-08 3.06624e-08)
(2.09129e-07 -1.59475e-08 -6.01313e-08)
(1.88e-07 -4.86835e-08 6.33685e-08)
)
;
    }
    wall
    {
        type            calculated;
        value           nonuniform List<vector> 
63
(
(4.10454e-06 -7.23858e-07 -1.52783e-07)
(5.11765e-06 -1.80449e-06 -9.88415e-07)
(2.56727e-06 -1.06462e-06 -1.53202e-06)
(-7.82153e-07 -5.15806e-07 -1.80561e-06)
(1.86628e-06 1.63961e-07 -6.04614e-07)
(9.35929e-07 -1.65285e-06 -1.57107e-06)
(-1.33952e-06 -2.53689e-06 -2.48935e-06)
(-4.65797e-06 -2.39384e-06 -3.89811e-06)
(2.61834e-06 -1.99182e-06 -6.69179e-07)
(1.33768e-06 -1.8674e-06 -1.77505e-06)
(-1.35783e-07 -2.17044e-06 -2.66095e-06)
(-2.5572e-06 4.46926e-07 -3.5556e-06)
(-1.31824e-06 -9.773e-07 -4.2126e-07)
(-1.33606e-06 -6.45929e-07 -8.968e-07)
(-3.2225e-07 -1.95876e-07 -1.27671e-06)
(5.70248e-07 3.25743e-08 -7.22882e-07)
(-1.50965e-06 7.8704e-07 -6.26298e-07)
(-5.57003e-07 1.61099e-06 -4.84341e-07)
(1.42088e-06 3.9059e-07 -1.74248e-06)
(5.25557e-06 -3.36943e-06 -5.17657e-06)
(-4.59544e-07 2.43582e-07 -4.03623e-07)
(-2.03453e-07 6.3855e-07 -3.62316e-07)
(-4.02073e-07 9.76684e-07 -6.86591e-07)
(-3.83024e-07 -9.39631e-08 -1.4069e-06)
(-3.51436e-06 -9.9449e-08 -5.62969e-07)
(-4.34821e-06 4.61818e-07 -1.30179e-06)
(-3.18024e-06 -3.9661e-08 -1.91087e-06)
(-1.17993e-06 -1.33911e-06 -6.50544e-07)
(-3.2395e-06 4.80952e-07 -1.85583e-06)
(-6.67658e-06 -8.86851e-07 -1.35605e-06)
(-5.48855e-06 2.65331e-08 -7.63097e-07)
(-2.90221e-06 1.88295e-07 -8.00976e-07)
(-9.50876e-07 -2.1034e-07 -3.15006e-07)
(-1.00597e-06 3.13179e-07 -3.63149e-07)
(-1.44627e-07 1.07189e-06 -6.81687e-07)
(9.92765e-07 1.54319e-06 -1.28729e-06)
(1.50943e-06 -6.18953e-07 -1.71765e-06)
(3.59773e-06 3.89751e-07 -4.35671e-06)
(6.59005e-06 1.40966e-06 -1.44484e-05)
(6.32508e-06 -2.48735e-06 -3.93439e-06)
(8.80145e-06 -2.00573e-07 -6.21582e-06)
(1.27289e-05 -1.56561e-06 -8.16702e-06)
(1.95652e-06 4.46653e-07 -3.34084e-06)
(5.5595e-06 -1.17179e-06 -2.12144e-06)
(6.52181e-06 -1.77977e-06 -2.18568e-06)
(1.85806e-06 4.15696e-08 -6.74725e-07)
(3.5987e-06 -5.79257e-08 -9.61484e-07)
(2.62596e-06 -4.85429e-07 -9.72098e-07)
(1.3512e-05 -2.81226e-06 -4.07639e-06)
(1.73957e-06 -2.74759e-08 -5.47657e-07)
(1.70471e-06 2.66936e-07 -6.90709e-07)
(2.18034e-06 -2.39698e-09 -1.29699e-06)
(1.47344e-06 2.29271e-07 -1.69115e-07)
(6.69973e-07 6.30052e-09 4.97526e-08)
(-9.62433e-07 -8.90972e-07 -3.39446e-08)
(-7.80789e-07 2.56144e-09 3.12612e-07)
(-1.10965e-06 -4.99526e-08 -3.01288e-08)
(-2.65789e-06 2.52408e-07 -7.95612e-07)
(-1.81251e-06 2.07731e-07 -4.81891e-07)
(-3.00456e-06 2.67746e-07 -5.39464e-08)
(3.70595e-06 4.26007e-06 -4.44999e-06)
(-1.2733e-07 9.0187e-08 -1.25324e-07)
(-2.23107e-07 -1.06926e-09 3.78814e-08)
)
;
    }
    procBoundary3to1
    {
        type            processor;
        value           nonuniform List<vector> 
27
(
(2.0184e-06 -5.06021e-07 -6.37702e-07)
(1.86672e-06 -3.79996e-07 -7.67677e-07)
(1.53766e-06 -4.19764e-07 -7.56368e-07)
(6.41311e-07 -2.83009e-07 -6.4544e-07)
(6.28457e-08 -2.44094e-07 -6.3853e-07)
(-3.45261e-07 -1.8357e-07 -5.93382e-07)
(-1.06289e-06 -1.13632e-07 -5.24294e-07)
(-1.48653e-06 -1.53016e-07 -4.97852e-07)
(-1.12453e-06 -1.63456e-07 -4.25427e-07)
(1.89353e-06 -5.10785e-07 -6.21904e-07)
(1.73567e-06 -3.9394e-07 -7.84609e-07)
(1.5351e-06 -4.18961e-07 -7.85382e-07)
(7.72798e-07 -3.06789e-07 -6.61715e-07)
(2.41058e-07 -2.31026e-07 -5.73237e-07)
(-1.07855e-07 -1.63934e-07 -4.9367e-07)
(-9.31241e-07 -9.80719e-08 -4.32255e-07)
(-1.36287e-06 -1.1165e-07 -3.59198e-07)
(-1.0837e-06 -1.17844e-07 -3.55048e-07)
(1.721e-06 -4.83781e-07 -7.11463e-07)
(1.68087e-06 -3.68245e-07 -7.74798e-07)
(1.46774e-06 -3.33964e-07 -7.96262e-07)
(8.65655e-07 -2.75633e-07 -6.73733e-07)
(4.25011e-07 -2.92778e-07 -4.84045e-07)
(1.15593e-07 -1.66422e-07 -3.88345e-07)
(-7.77236e-07 -9.84672e-08 -2.8456e-07)
(-1.36967e-06 -1.13196e-07 -1.90378e-07)
(-1.13541e-06 -1.10409e-07 -1.84244e-07)
)
;
    }
    procBoundary3to2
    {
        type            processor;
        value           nonuniform List<vector> 
12
(
(2.69467e-06 -5.77783e-07 -8.34501e-07)
(2.84322e-06 -6.35033e-07 -1.25054e-06)
(3.00253e-06 -6.97133e-07 -1.71863e-06)
(3.19497e-06 -7.90742e-07 -2.09879e-06)
(2.40222e-06 -4.83183e-07 -8.47936e-07)
(2.72125e-06 -5.43182e-07 -1.34413e-06)
(3.09876e-06 -6.00961e-07 -2.00334e-06)
(3.16661e-06 -6.43923e-07 -2.77279e-06)
(2.27707e-06 -4.21291e-07 -9.46747e-07)
(2.78429e-06 -4.99848e-07 -1.5744e-06)
(3.50677e-06 -5.97249e-07 -2.53641e-06)
(3.97854e-06 -5.49014e-07 -3.77205e-06)
)
;
    }
    procBoundary3to7
    {
        type            processor;
        value           nonuniform List<vector> 
36
(
(2.23077e-06 -5.38052e-07 -1.20061e-06)
(2.15313e-06 -5.57808e-07 -1.17187e-06)
(1.78971e-06 -5.42193e-07 -1.0528e-06)
(1.16778e-06 -4.26295e-07 -8.10307e-07)
(6.35403e-07 -3.15214e-07 -4.99018e-07)
(2.24591e-07 -2.15245e-07 -3.80933e-07)
(-7.78222e-07 -1.86174e-07 -2.67201e-07)
(-1.38291e-06 -1.7947e-07 -1.63846e-07)
(-1.14685e-06 -1.58128e-07 -1.13379e-07)
(3.22739e-06 -8.54088e-07 -2.31694e-06)
(3.09268e-06 -8.83933e-07 -2.06416e-06)
(2.49551e-06 -8.22483e-07 -1.59775e-06)
(1.6923e-06 -6.00792e-07 -1.08205e-06)
(9.14877e-07 -3.62862e-07 -6.9232e-07)
(2.90667e-07 -2.70976e-07 -4.59616e-07)
(-7.61865e-07 -2.54435e-07 -2.85113e-07)
(-1.33845e-06 -2.41143e-07 -1.79723e-07)
(-1.19253e-06 -2.33892e-07 -1.07175e-07)
(5.14893e-06 -1.63803e-06 -5.33292e-06)
(4.92165e-06 -1.45808e-06 -3.98805e-06)
(3.54872e-06 -1.11037e-06 -2.53515e-06)
(2.31591e-06 -7.6235e-07 -1.51449e-06)
(1.28332e-06 -4.34221e-07 -9.0721e-07)
(4.6145e-07 -2.9556e-07 -5.51636e-07)
(-6.30562e-07 -3.0057e-07 -3.02732e-07)
(-1.19213e-06 -3.08843e-07 -1.55341e-07)
(-1.09588e-06 -3.36161e-07 -7.74538e-08)
(1.09117e-05 -2.98298e-06 -1.12625e-05)
(8.52383e-06 -2.2619e-06 -7.27781e-06)
(4.71907e-06 -1.28791e-06 -3.70294e-06)
(2.76606e-06 -8.06615e-07 -1.9269e-06)
(1.52899e-06 -4.75409e-07 -1.06761e-06)
(5.67436e-07 -3.20214e-07 -5.88412e-07)
(-4.87626e-07 -3.24162e-07 -2.99684e-07)
(-1.03295e-06 -3.67973e-07 -1.26927e-07)
(-1.03475e-06 -4.31983e-07 -3.00373e-08)
)
;
    }
}


// ************************************************************************* //
