/*--------------------------------*- C++ -*----------------------------------*\
| =========                 |                                                 |
| \\      /  F ield         | OpenFOAM: The Open Source CFD Toolbox           |
|  \\    /   O peration     | Version:  4.x                                   |
|   \\  /    A nd           | Web:      www.OpenFOAM.org                      |
|    \\/     M anipulation  |                                                 |
\*---------------------------------------------------------------------------*/
FoamFile
{
    version     2.0;
    format      ascii;
    class       volVectorField;
    location    "18";
    object      U;
}
// * * * * * * * * * * * * * * * * * * * * * * * * * * * * * * * * * * * * * //

dimensions      [0 1 -1 0 0 0 0];

internalField   nonuniform List<vector> 
108
(
(0.0237212 -0.000113672 -0.000348559)
(0.0383367 0.000330238 -0.00041853)
(0.0236554 0.000484795 -1.42287e-05)
(0.0391426 0.000991972 0.000868053)
(0.0213487 0.000956891 0.00034744)
(0.0396774 0.00146865 0.0023922)
(0.0168432 0.00198819 -0.00054533)
(0.0438271 0.000572444 0.00308161)
(0.0110999 0.00637858 -0.0132963)
(0.0225236 -0.000301936 9.50764e-06)
(0.0377018 -0.000405205 -0.000135821)
(0.0222039 -0.000368397 0.000842355)
(0.0382234 -0.000522591 0.00111454)
(0.0198779 -0.000775135 0.00225028)
(0.037361 -0.000608965 0.00223014)
(0.0148262 -0.00222386 0.00403149)
(0.0350076 3.28699e-05 0.00237038)
(0.00813285 -0.00640988 -0.00321933)
(0.024169 2.16443e-05 -0.00026882)
(0.0384513 0.000146748 -0.000251186)
(0.0237483 -5.4413e-05 0.000380082)
(0.0382087 0.000152475 0.00106957)
(0.0197775 0.000860274 0.00157706)
(0.0348791 0.000284289 0.0030488)
(0.0111149 0.00224751 0.00231576)
(0.0257888 -0.00175851 0.00339256)
(0.00211271 0.00193026 0.000676175)
(0.0284583 2.94469e-05 -0.000334522)
(0.0423284 6.10003e-05 -0.000466327)
(0.0299442 0.00025625 0.000351877)
(0.0446557 0.00016761 0.000322134)
(0.0296526 0.00175083 0.00187566)
(0.046922 0.000801942 0.00183031)
(0.0261211 0.00532447 0.00556771)
(0.0498081 -7.8694e-05 0.00305847)
(0.015094 0.0154262 -0.0168879)
(0.00635687 6.96837e-05 -0.000470101)
(0.0292368 0.000607448 0.000154961)
(0.00430417 0.000205505 -0.0002366)
(0.0299426 0.000563629 0.00113862)
(0.00409892 0.000457853 -0.000418968)
(0.0308319 0.000486308 0.00230437)
(0.00650123 0.00181806 -0.00175064)
(0.0312004 -0.000238068 0.00398707)
(0.0106398 0.0112232 -0.017825)
(0.00736803 -0.000108325 -0.000571086)
(0.0309776 -7.58222e-05 4.25949e-05)
(0.00589629 5.63665e-05 -0.000382649)
(0.0328266 -0.000321347 0.00133853)
(0.00515986 0.000166576 -0.000443126)
(0.0360151 -0.000430639 0.00335305)
(0.00514218 0.000339904 -0.000506487)
(0.0425446 -0.000175878 0.00586777)
(0.00708646 0.00105042 -0.0145404)
(0.00988019 1.17847e-05 -0.000545084)
(0.0307554 0.000498149 -0.000315831)
(0.00758771 4.38733e-05 -0.00013605)
(0.0311776 0.000277397 0.00148168)
(0.00570955 0.000403686 0.000160091)
(0.031533 3.88157e-05 0.00364136)
(0.00531409 0.00150861 0.000724195)
(0.0289639 -0.00354508 0.00503561)
(0.00702526 0.0101547 0.00159145)
(0.0211413 0.000489195 -0.00150971)
(0.0374689 0.00055285 -0.00137366)
(0.0214313 0.000843859 -0.0012963)
(0.0401712 0.00023734 -0.000344841)
(0.0210105 0.00226612 -0.00091496)
(0.045809 -9.21653e-05 0.00182069)
(0.019716 0.00639447 0.000398239)
(0.0610253 -0.00225136 0.00550165)
(0.0106937 0.0222871 -0.0228836)
(-2.68618e-07 2.66915e-08 -3.50586e-08)
(0.0274596 -0.000226149 0.00066526)
(-3.13808e-07 3.59805e-08 -8.22253e-09)
(0.0277563 0.00016308 0.000960401)
(-2.53445e-07 2.73842e-09 1.82518e-08)
(0.0277408 0.000918282 0.000911782)
(0.000257321 3.6347e-05 -9.54979e-05)
(0.0264621 0.000355066 0.00168648)
(0.00371482 0.00139329 -0.00294772)
(0.00166802 2.90842e-05 -5.44172e-05)
(0.0281143 -0.00044082 0.000868997)
(-2.88158e-07 2.67196e-08 -1.43638e-08)
(0.0284716 -7.53207e-05 0.0013629)
(-2.23706e-07 3.12056e-09 1.46472e-08)
(0.029514 0.000139673 0.00184988)
(0.00314834 0.000476755 -0.00086187)
(0.0308625 -0.000422528 0.00252194)
(0.00991514 0.00365568 -0.010955)
(0.00243938 0.000114291 -6.47389e-05)
(0.02833 0.000341583 0.000806129)
(0.00014245 1.00456e-05 2.43072e-06)
(0.0290052 0.000284748 0.00168743)
(-1.97702e-07 -1.64696e-08 -7.44935e-10)
(0.0300308 -0.000695623 0.00233819)
(0.00228297 0.000797288 3.72748e-05)
(0.0326282 -0.00393323 0.00280787)
(0.00596072 0.00632471 -0.00224003)
(0.0154269 0.000364599 -0.00077962)
(0.0332642 0.00058503 -0.000371331)
(0.0149238 0.000413465 -0.000422155)
(0.0347587 9.39348e-05 0.000651931)
(0.0141417 0.000996674 -0.000293731)
(0.0378845 -0.000322487 0.00214103)
(0.0125133 0.0022666 -0.000521912)
(0.0460618 -0.0023622 0.00535733)
(0.00591372 0.00432579 -0.00251189)
)
;

boundaryField
{
    inlet
    {
        type            fixedValue;
        value           nonuniform 0();
    }
    outlet
    {
        type            zeroGradient;
    }
    wall
    {
        type            fixedValue;
        value           uniform (0 0 0);
    }
    procBoundary3to1
    {
        type            processor;
        value           nonuniform List<vector> 
27
(
(0.0217377 -0.00047952 -0.00019306)
(0.0368731 -0.00016577 -0.000437933)
(0.0203214 -0.000507466 0.000410605)
(0.0363573 -3.58208e-06 0.000990155)
(0.0150222 -0.00115659 0.000980183)
(0.0327948 0.000251423 0.00171888)
(0.00746576 -0.00160939 0.00105564)
(0.0252769 0.00226271 0.000448319)
(0.00388704 -0.00148968 0.00107996)
(0.00550489 -0.000286091 -0.000460836)
(0.0296433 -0.000479823 0.000592958)
(0.00183916 -0.000166431 -0.000160616)
(0.0299775 0.000312446 0.00168121)
(-2.43576e-07 5.05932e-09 3.88384e-08)
(0.0296667 0.00136216 0.00239033)
(-6.47789e-08 -4.32457e-09 4.77635e-08)
(0.0262093 0.00359656 0.00302247)
(0.00203671 -0.0023949 -0.000742314)
(-2.52287e-07 2.22059e-08 -3.06571e-08)
(0.0270962 0.000177479 0.000934491)
(-2.79179e-07 3.91552e-08 -1.00609e-08)
(0.0271703 1.19789e-05 0.00109555)
(-2.39137e-07 3.47678e-08 -4.36935e-10)
(0.0266919 -4.1112e-05 0.000719442)
(0.000275256 -6.87977e-05 -7.80529e-05)
(0.0239266 0.00151485 0.000630008)
(0.00456392 -0.00111862 -0.00232931)
)
;
    }
    procBoundary3to2
    {
        type            processor;
        value           nonuniform List<vector> 
12
(
(0.0367173 -2.89116e-05 -0.000994157)
(0.0360423 -0.000158723 -0.000878747)
(0.0369441 0.000258053 -0.000815201)
(0.0394922 0.000155761 -0.000802418)
(0.0290404 0.000211141 -0.00113504)
(0.0298919 -7.82538e-05 -0.00131318)
(0.0305483 0.000586138 -0.00143753)
(0.0355556 0.000716385 -0.00202076)
(0.0270826 -2.08131e-05 -9.47859e-05)
(0.0276013 -7.28883e-05 1.69974e-05)
(0.0279032 0.000523726 -0.000112633)
(0.0324055 0.000690665 -0.000941407)
)
;
    }
    procBoundary3to7
    {
        type            processor;
        value           nonuniform List<vector> 
36
(
(0.00243536 7.22524e-05 -0.000215877)
(0.0274548 0.000236836 0.000462734)
(0.000886904 6.58785e-05 -0.000111603)
(0.0269808 0.000227126 0.000871)
(-2.29664e-07 2.12499e-08 -1.02965e-09)
(0.0261669 0.000163234 0.00126123)
(-9.31817e-08 3.3488e-10 1.13054e-08)
(0.0242354 -0.000551787 0.00143778)
(0.00279105 0.000847418 -0.00109864)
(0.00434356 0.000413973 -0.000328304)
(0.0295487 0.000505293 0.000731102)
(0.00384937 0.000580548 -0.000467571)
(0.0300402 0.000338366 0.000851522)
(0.00361278 0.000862892 -0.000765701)
(0.0302769 0.000247857 0.00114005)
(0.00398464 0.00153155 -0.00159134)
(0.0284568 -0.000860722 0.00227181)
(0.00603048 0.00288246 -0.00516092)
(0.00672757 0.000133235 -0.000506098)
(0.0298217 0.000531879 0.000385651)
(0.00648433 0.000231287 -0.000625759)
(0.0304744 0.000464014 0.000935008)
(0.00667849 0.000810452 -0.00115144)
(0.0308899 -6.36646e-05 0.00114507)
(0.00789451 0.00303237 -0.00279311)
(0.0293403 -0.00262792 0.00222595)
(0.0101333 0.0141955 -0.0112253)
(0.0158854 0.000482545 -0.00129419)
(0.034411 0.000482614 -0.000650835)
(0.016266 0.000757464 -0.00143611)
(0.0368228 6.80885e-05 0.000135053)
(0.016277 0.00162706 -0.00196437)
(0.0412515 -0.00082876 0.00169082)
(0.015028 0.00407862 -0.00376607)
(0.0497716 -0.00336869 0.00504639)
(0.00951669 0.0135643 -0.00986119)
)
;
    }
}


// ************************************************************************* //
