/*--------------------------------*- C++ -*----------------------------------*\
| =========                 |                                                 |
| \\      /  F ield         | OpenFOAM: The Open Source CFD Toolbox           |
|  \\    /   O peration     | Version:  4.x                                   |
|   \\  /    A nd           | Web:      www.OpenFOAM.org                      |
|    \\/     M anipulation  |                                                 |
\*---------------------------------------------------------------------------*/
FoamFile
{
    version     2.0;
    format      ascii;
    class       volVectorField;
    location    "29";
    object      ddtUrel;
}
// * * * * * * * * * * * * * * * * * * * * * * * * * * * * * * * * * * * * * //

dimensions      [0 1 -2 0 0 0 0];

internalField   nonuniform List<vector> 
132
(
(3.81356e-08 3.03678e-09 -8.99425e-11)
(4.3834e-08 2.59197e-09 -1.1494e-09)
(5.06178e-08 2.96742e-09 -3.28326e-09)
(5.38492e-08 3.66451e-10 -5.94921e-09)
(5.46058e-08 -2.62731e-09 -1.22977e-08)
(5.1223e-08 -1.22569e-08 -2.44105e-08)
(4.31858e-08 -3.3289e-08 -4.40263e-08)
(3.49204e-08 -5.63338e-08 -6.43122e-08)
(-1.77222e-08 -8.05566e-08 -7.78775e-08)
(4.46852e-08 3.96407e-09 3.5745e-10)
(5.29023e-08 2.6673e-09 -1.06136e-09)
(5.71383e-08 2.13132e-09 -3.28641e-09)
(6.03764e-08 3.12231e-10 -7.70528e-09)
(5.70589e-08 -1.89872e-09 -1.74454e-08)
(3.77238e-08 -1.55427e-08 -3.83119e-08)
(1.11873e-08 -5.26218e-08 -7.43777e-08)
(-1.81924e-08 -9.84981e-08 -1.15227e-07)
(-6.41252e-08 -1.3621e-07 -1.23105e-07)
(5.46182e-08 4.53421e-09 1.47591e-09)
(6.10025e-08 2.27685e-09 -6.64141e-10)
(6.84438e-08 5.36241e-10 -5.14028e-09)
(7.34409e-08 -5.64041e-10 -1.32434e-08)
(6.17065e-08 -6.63369e-09 -2.60441e-08)
(5.79048e-09 -3.30597e-08 -6.52352e-08)
(-7.81662e-08 -1.0157e-07 -1.33661e-07)
(-2.37625e-07 -2.32652e-07 -2.51927e-07)
(-3.54863e-07 -2.91452e-07 -2.64406e-07)
(5.66588e-08 2.29283e-09 2.15547e-09)
(6.40802e-08 1.21239e-09 -3.34991e-10)
(7.42373e-08 -1.07015e-10 -7.52155e-09)
(3.60874e-08 2.80383e-09 -1.98323e-10)
(4.05217e-08 2.42749e-09 -1.03422e-09)
(4.72203e-08 2.06854e-09 -3.00129e-09)
(5.1114e-08 1.46145e-10 -5.1778e-09)
(5.27926e-08 -2.09042e-09 -1.09222e-08)
(5.29247e-08 -9.9527e-09 -2.11406e-08)
(4.67829e-08 -2.73442e-08 -3.52288e-08)
(5.03578e-08 -4.41712e-08 -4.93849e-08)
(4.2075e-08 -5.58311e-08 -5.80338e-08)
(4.42819e-08 3.44726e-09 1.5279e-10)
(4.71296e-08 2.65705e-09 -1.18698e-09)
(5.17504e-08 2.55327e-09 -3.52647e-09)
(5.80638e-08 1.00366e-10 -6.50031e-09)
(5.67106e-08 -4.21825e-10 -1.64264e-08)
(4.62519e-08 -1.11833e-08 -3.35746e-08)
(3.09944e-08 -3.82959e-08 -5.56936e-08)
(2.22602e-08 -6.89601e-08 -8.28692e-08)
(6.34667e-09 -8.94094e-08 -8.38082e-08)
(4.87556e-08 3.75635e-09 7.694e-10)
(5.40212e-08 2.64256e-09 -7.59524e-10)
(5.974e-08 1.14461e-09 -4.12182e-09)
(6.90527e-08 3.25574e-10 -1.01819e-08)
(6.23765e-08 -4.25773e-09 -2.5128e-08)
(3.11804e-08 -2.18823e-08 -5.13308e-08)
(-8.04e-09 -6.19759e-08 -8.91205e-08)
(-5.66962e-08 -1.23434e-07 -1.40986e-07)
(-8.71932e-08 -1.59073e-07 -1.43735e-07)
(5.22314e-08 2.62281e-09 2.00378e-09)
(5.84809e-08 1.7834e-09 -6.68633e-10)
(6.4909e-08 8.13796e-10 -5.37398e-09)
(7.43187e-08 1.0847e-10 -1.37718e-08)
(6.43509e-08 -1.08866e-08 -3.04692e-08)
(3.25934e-08 2.41414e-09 -4.06579e-10)
(3.68917e-08 2.40669e-09 -1.44161e-09)
(4.46901e-08 1.77519e-09 -2.80328e-09)
(5.10906e-08 4.43684e-10 -4.85113e-09)
(5.5034e-08 -2.04511e-09 -1.03698e-08)
(6.17002e-08 -7.26923e-09 -1.68184e-08)
(6.25843e-08 -1.77495e-08 -2.56844e-08)
(6.48335e-08 -2.88003e-08 -3.53279e-08)
(6.20275e-08 -3.71119e-08 -4.37316e-08)
(3.65321e-08 2.95364e-09 -1.48132e-11)
(4.16771e-08 2.6323e-09 -1.31878e-09)
(4.89644e-08 2.08197e-09 -3.2562e-09)
(5.63736e-08 1.04872e-09 -6.34838e-09)
(5.89098e-08 -1.14357e-09 -1.59811e-08)
(5.93853e-08 -8.01252e-09 -2.67658e-08)
(5.76424e-08 -2.21451e-08 -3.77893e-08)
(6.096e-08 -3.99853e-08 -5.44357e-08)
(5.74977e-08 -5.57562e-08 -6.11184e-08)
(4.17986e-08 3.17583e-09 2.74149e-10)
(4.75214e-08 2.72577e-09 -1.09692e-09)
(5.50283e-08 2.13479e-09 -3.67495e-09)
(6.39875e-08 1.90748e-09 -8.77116e-09)
(6.43214e-08 -1.47898e-09 -2.3366e-08)
(5.86048e-08 -1.12793e-08 -3.67602e-08)
(4.7158e-08 -3.1826e-08 -5.51006e-08)
(4.06439e-08 -6.17341e-08 -8.03764e-08)
(2.53406e-08 -8.96345e-08 -9.17056e-08)
(4.528e-08 2.71837e-09 4.73193e-10)
(5.2039e-08 2.34659e-09 -1.66848e-09)
(6.11764e-08 2.15078e-09 -4.29194e-09)
(7.04173e-08 1.98131e-09 -1.07884e-08)
(6.94964e-08 -3.27068e-09 -2.55646e-08)
(6.34924e-08 -1.64266e-08 -4.10728e-08)
(4.6433e-08 -3.89658e-08 -6.73946e-08)
(3.31999e-08 2.55796e-09 -1.28727e-09)
(3.81123e-08 2.29739e-09 -2.38972e-09)
(4.51411e-08 1.49813e-09 -3.89761e-09)
(5.23887e-08 6.74895e-10 -5.25186e-09)
(5.68729e-08 -1.91244e-09 -8.52731e-09)
(6.3959e-08 -5.62104e-09 -1.32587e-08)
(6.68905e-08 -1.29804e-08 -1.98723e-08)
(6.8551e-08 -1.83775e-08 -2.55518e-08)
(5.89181e-08 -2.20008e-08 -3.33255e-08)
(3.43401e-08 2.81513e-09 -1.15048e-09)
(4.07536e-08 2.60364e-09 -2.38948e-09)
(4.89764e-08 2.39226e-09 -4.01553e-09)
(5.70451e-08 2.0662e-09 -6.51208e-09)
(6.20387e-08 1.64584e-10 -1.23386e-08)
(6.67047e-08 -4.25092e-09 -1.84506e-08)
(6.85806e-08 -1.38282e-08 -2.6575e-08)
(7.30043e-08 -2.24414e-08 -3.54307e-08)
(7.14147e-08 -3.30226e-08 -4.80071e-08)
(3.73787e-08 3.11226e-09 -7.81116e-10)
(4.43797e-08 2.98619e-09 -2.43651e-09)
(5.38203e-08 3.27432e-09 -4.76883e-09)
(6.36275e-08 3.42093e-09 -8.42319e-09)
(7.02582e-08 1.67566e-09 -1.70821e-08)
(7.48734e-08 -3.56192e-09 -2.45441e-08)
(7.5937e-08 -1.55858e-08 -3.58802e-08)
(7.70827e-08 -2.97918e-08 -4.69604e-08)
(6.56108e-08 -4.73859e-08 -6.35679e-08)
(3.56331e-08 3.35334e-09 -1.68383e-09)
(4.63189e-08 3.20145e-09 -3.08713e-09)
(5.908e-08 3.21518e-09 -5.46809e-09)
(6.9716e-08 3.28606e-09 -1.0137e-08)
(7.73127e-08 1.92585e-09 -1.96066e-08)
(8.50626e-08 -3.39294e-09 -2.77906e-08)
(8.78252e-08 -1.48041e-08 -3.84919e-08)
(8.45976e-08 -3.02393e-08 -5.02687e-08)
(6.48192e-08 -4.89374e-08 -6.69294e-08)
)
;

boundaryField
{
    inlet
    {
        type            calculated;
        value           nonuniform List<vector> 
16
(
(8.15907e-09 2.25595e-09 2.78447e-09)
(1.43273e-08 1.08326e-08 6.04308e-09)
(4.96596e-08 3.4604e-08 1.89818e-08)
(2.00523e-08 9.33791e-09 4.86218e-09)
(4.74826e-09 1.41227e-09 4.99982e-09)
(1.53228e-08 7.70257e-09 1.20382e-08)
(2.06299e-08 1.46167e-08 1.68569e-08)
(1.84401e-08 1.30007e-08 1.60011e-08)
(6.0041e-09 1.06275e-09 6.37949e-09)
(7.62743e-09 4.40003e-09 1.0255e-08)
(1.02846e-08 6.40861e-09 1.36467e-08)
(9.21627e-09 6.21621e-09 1.22763e-08)
(4.52096e-09 6.84559e-10 4.42298e-09)
(4.75209e-09 2.25227e-09 5.74426e-09)
(1.75306e-08 5.49395e-09 1.58122e-08)
(1.11578e-08 5.19094e-09 9.81295e-09)
)
;
    }
    outlet
    {
        type            calculated;
        value           nonuniform 0();
    }
    wall
    {
        type            calculated;
        value           nonuniform List<vector> 
66
(
(9.30895e-09 2.00939e-09 2.2805e-09)
(1.90373e-08 8.27147e-09 4.46291e-09)
(5.36093e-08 2.41735e-08 1.2134e-08)
(2.01448e-08 5.53132e-09 3.21457e-09)
(1.19413e-08 8.12264e-10 2.71536e-09)
(7.52867e-08 2.36092e-09 5.39439e-09)
(8.76e-08 6.74368e-09 8.26812e-09)
(7.78513e-08 6.50612e-09 8.73716e-09)
(3.49397e-08 1.52328e-08 -1.2365e-09)
(1.18372e-07 7.71865e-09 7.85016e-09)
(1.41979e-07 -5.8306e-09 7.90822e-09)
(1.14333e-07 4.12574e-09 6.06763e-09)
(6.44431e-08 3.87759e-09 9.74185e-09)
(1.08503e-07 4.8325e-09 1.64199e-08)
(1.67463e-07 1.47086e-08 -3.73487e-09)
(7.86381e-08 1.78539e-08 1.57447e-08)
(1.59319e-07 5.72601e-08 2.20853e-08)
(2.7497e-07 7.25874e-08 3.99034e-08)
(1.04524e-07 3.08647e-08 2.74347e-08)
(1.4271e-07 1.12498e-07 2.83435e-08)
(1.2261e-07 1.21118e-07 1.92572e-08)
(1.61893e-07 2.15273e-08 2.85506e-08)
(1.98857e-07 4.08524e-08 -1.6395e-08)
(1.39689e-07 1.17382e-07 -6.84499e-08)
(3.65831e-07 2.80625e-08 1.14164e-08)
(4.70076e-07 1.32356e-08 -8.03938e-08)
(4.69521e-07 9.65502e-08 -1.97301e-07)
(-1.65935e-07 -2.1214e-07 -1.96343e-07)
(4.23536e-07 -4.35769e-07 -1.90319e-07)
(3.20714e-07 -2.29631e-07 -3.76386e-07)
(9.70025e-09 1.80763e-09 3.00821e-09)
(5.27369e-09 1.16966e-09 4.43219e-09)
(5.92811e-09 9.36837e-10 5.45501e-09)
(4.26415e-09 6.23261e-10 4.35738e-09)
(1.07176e-08 7.67092e-10 2.9616e-09)
(1.90233e-08 1.99952e-09 6.05132e-09)
(1.42851e-08 1.25e-09 3.72325e-09)
(1.00278e-08 1.31345e-09 3.25069e-09)
(6.56868e-08 1.65833e-08 -5.27394e-10)
(4.30602e-08 2.67516e-09 5.94973e-09)
(2.42441e-08 1.97109e-09 5.60301e-09)
(1.10137e-08 4.09175e-10 2.58603e-09)
(5.17406e-08 3.6945e-09 1.00209e-08)
(3.35823e-08 3.05972e-09 9.34309e-09)
(2.72174e-08 3.22786e-09 1.06053e-08)
(2.52409e-08 2.65106e-09 8.32273e-09)
(8.61289e-08 1.71183e-08 1.78387e-08)
(3.50033e-08 1.26444e-08 1.56901e-08)
(1.68547e-08 4.47988e-09 5.36571e-09)
(3.29963e-08 2.66184e-09 6.6178e-09)
(9.97495e-08 2.7913e-08 3.06436e-08)
(1.02998e-07 2.68096e-08 4.23986e-08)
(1.17465e-07 2.25199e-08 3.24471e-08)
(9.0252e-08 8.62792e-09 1.24088e-08)
(1.4331e-07 2.35801e-08 3.82539e-08)
(1.79879e-08 -4.79153e-09 3.07163e-08)
(1.25697e-07 8.73426e-09 2.57994e-08)
(9.43692e-08 5.88604e-09 -4.04214e-09)
(3.18597e-07 3.7678e-08 2.76235e-08)
(2.10276e-07 2.36697e-08 6.74295e-08)
(1.35128e-07 -1.00166e-08 6.04628e-09)
(9.61869e-08 -6.9968e-09 1.27156e-08)
(-3.88049e-07 -2.12218e-07 -2.20621e-07)
(3.58272e-07 -1.52843e-09 -2.75092e-08)
(2.7032e-07 4.97106e-09 -5.84686e-09)
(1.13209e-07 -5.49232e-10 -4.29388e-08)
)
;
    }
    procBoundary0to1
    {
        type            processor;
        value           nonuniform List<vector> 
12
(
(-7.03221e-08 -4.65694e-08 -5.62996e-08)
(-7.33126e-08 -9.98762e-08 -7.88561e-08)
(-1.72286e-07 -1.76616e-07 -1.3951e-07)
(-1.342e-08 -4.00202e-08 -4.68908e-08)
(-1.58565e-08 -7.89261e-08 -6.51216e-08)
(-4.43085e-08 -1.24625e-07 -8.53936e-08)
(3.68049e-08 -3.11675e-08 -3.98797e-08)
(2.40734e-08 -4.7548e-08 -5.49289e-08)
(2.8522e-09 -8.01126e-08 -7.28516e-08)
(5.19397e-08 -2.58794e-08 -3.47787e-08)
(6.07509e-08 -3.57657e-08 -4.37585e-08)
(4.76823e-08 -4.92159e-08 -6.08569e-08)
)
;
    }
    procBoundary0to2
    {
        type            processor;
        value           nonuniform List<vector> 
44
(
(7.70021e-08 -3.8293e-09 -1.72986e-08)
(5.88466e-08 -1.35302e-08 -3.3947e-08)
(-2.15495e-08 -4.7425e-08 -8.7805e-08)
(-2.19307e-07 -1.67183e-07 -2.179e-07)
(-9.3479e-07 -6.07589e-07 -6.52533e-07)
(-1.46874e-06 -7.9057e-07 -6.89288e-07)
(5.40083e-08 1.91392e-09 3.11139e-09)
(6.02364e-08 2.51642e-10 3.06433e-10)
(7.70021e-08 -3.8293e-09 -1.72986e-08)
(6.99389e-08 -1.2995e-09 -6.23171e-09)
(7.70021e-08 -3.8293e-09 -1.72986e-08)
(5.88466e-08 -1.35302e-08 -3.3947e-08)
(2.18076e-08 -3.59116e-08 -6.40735e-08)
(-4.74894e-08 -9.10585e-08 -1.19286e-07)
(-2.02354e-07 -1.99136e-07 -2.28073e-07)
(-2.90019e-07 -2.53428e-07 -2.31559e-07)
(5.0974e-08 1.88713e-09 2.76542e-09)
(5.61824e-08 1.12526e-09 -6.67845e-12)
(6.47805e-08 3.18572e-10 -5.43731e-09)
(7.40252e-08 -2.09507e-09 -1.43954e-08)
(2.18076e-08 -3.59116e-08 -6.40735e-08)
(6.60141e-08 -6.82033e-09 -3.07094e-08)
(2.18076e-08 -3.59116e-08 -6.40735e-08)
(-4.74894e-08 -9.10585e-08 -1.19286e-07)
(1.40809e-08 -7.8859e-08 -1.03217e-07)
(-1.73972e-09 -1.05084e-07 -1.07381e-07)
(4.53584e-08 2.25365e-09 3.46729e-10)
(5.06085e-08 2.11334e-09 -1.39123e-09)
(6.11264e-08 2.00915e-09 -4.85794e-09)
(7.22719e-08 7.42802e-10 -1.18172e-08)
(7.4377e-08 -2.3579e-09 -2.52588e-08)
(6.95285e-08 -1.1529e-08 -4.11085e-08)
(1.40809e-08 -7.8859e-08 -1.03217e-07)
(5.49962e-08 -3.66313e-08 -5.98004e-08)
(1.40809e-08 -7.8859e-08 -1.03217e-07)
(-1.73972e-09 -1.05084e-07 -1.07381e-07)
(3.70138e-08 3.19409e-09 -2.21005e-09)
(4.69985e-08 3.46574e-09 -2.96412e-09)
(6.0013e-08 3.58719e-09 -5.30946e-09)
(7.1434e-08 3.1535e-09 -1.16234e-08)
(7.97554e-08 1.55093e-09 -2.17445e-08)
(8.64715e-08 -5.22428e-09 -3.15238e-08)
(8.62048e-08 -1.90855e-08 -4.09986e-08)
(8.88801e-08 -2.95109e-08 -4.60388e-08)
)
;
    }
    procBoundary0to4
    {
        type            processor;
        value           nonuniform List<vector> 
36
(
(3.03802e-08 2.32981e-09 -1.95162e-09)
(3.53528e-08 2.14194e-09 -2.9433e-09)
(4.32576e-08 1.79249e-09 -4.44347e-09)
(4.9834e-08 1.27141e-09 -5.42965e-09)
(5.46112e-08 -1.01395e-09 -7.37026e-09)
(6.06622e-08 -3.76871e-09 -1.0702e-08)
(6.37138e-08 -8.94863e-09 -1.48859e-08)
(6.14912e-08 -1.37875e-08 -1.87189e-08)
(5.44637e-08 -1.9449e-08 -2.36249e-08)
(3.17232e-08 2.76418e-09 -1.87197e-09)
(3.74547e-08 2.55611e-09 -3.1818e-09)
(4.49214e-08 2.49934e-09 -4.88167e-09)
(5.24422e-08 1.67059e-09 -6.45308e-09)
(5.87987e-08 -3.66704e-11 -9.53165e-09)
(6.46049e-08 -3.36343e-09 -1.34667e-08)
(6.82564e-08 -7.88071e-09 -1.88134e-08)
(7.1227e-08 -1.28365e-08 -2.33142e-08)
(8.06167e-08 -2.27871e-08 -2.9902e-08)
(3.24077e-08 3.19021e-09 -2.27103e-09)
(3.9319e-08 3.24766e-09 -3.21354e-09)
(4.93855e-08 3.36671e-09 -5.14415e-09)
(5.85274e-08 3.09356e-09 -8.19291e-09)
(6.72632e-08 1.20042e-09 -1.30155e-08)
(7.62188e-08 -2.31053e-09 -1.80102e-08)
(8.2093e-08 -8.85393e-09 -2.36683e-08)
(8.55013e-08 -1.4883e-08 -3.01915e-08)
(9.07028e-08 -2.7857e-08 -3.68384e-08)
(3.15385e-08 3.67264e-09 -3.31127e-09)
(4.10172e-08 3.76025e-09 -3.75108e-09)
(5.29749e-08 4.01148e-09 -5.81164e-09)
(6.41321e-08 4.02197e-09 -1.08815e-08)
(7.37375e-08 3.03034e-09 -1.73351e-08)
(8.50813e-08 -2.27528e-09 -2.24897e-08)
(8.84778e-08 -1.05195e-08 -2.92713e-08)
(9.46935e-08 -1.46842e-08 -3.47422e-08)
(1.04601e-07 -2.51669e-08 -3.94001e-08)
)
;
    }
    procBoundary0to6
    {
        type            processor;
        value           uniform (1.07527e-07 -3.36753e-08 -5.55179e-08);
    }
    procBoundary0to7
    {
        type            processor;
        value           uniform (6.92224e-08 -4.7192e-08 -5.56455e-08);
    }
}


// ************************************************************************* //
