/*--------------------------------*- C++ -*----------------------------------*\
| =========                 |                                                 |
| \\      /  F ield         | OpenFOAM: The Open Source CFD Toolbox           |
|  \\    /   O peration     | Version:  4.x                                   |
|   \\  /    A nd           | Web:      www.OpenFOAM.org                      |
|    \\/     M anipulation  |                                                 |
\*---------------------------------------------------------------------------*/
FoamFile
{
    version     2.0;
    format      ascii;
    class       volVectorField;
    location    "29";
    object      GField;
}
// * * * * * * * * * * * * * * * * * * * * * * * * * * * * * * * * * * * * * //

dimensions      [1 -2 -1 0 0 0 0];

internalField   nonuniform List<vector> 
132
(
(100.024 -1.55586 -3.90503)
(49.1271 -1.0244 -2.73894)
(110.373 -1.87091 -4.41295)
(65.617 -0.75244 -2.58522)
(119.788 -1.281 -3.6218)
(77.8078 -0.334927 -2.14636)
(127.462 -0.761898 -3.11746)
(86.9745 -0.0231626 -2.32356)
(135.688 -0.0190195 -2.88714)
(100.397 -3.01466 -4.47778)
(46.4052 -2.14091 -2.62104)
(107.709 -3.77312 -4.61284)
(58.9737 -1.86652 -2.67953)
(115.258 -3.06755 -4.07048)
(68.8176 -1.25654 -2.15823)
(121.388 -2.67421 -3.42883)
(76.4107 -1.85357 -1.89727)
(127.166 -2.48782 -2.85998)
(101.069 -2.2112 -4.97534)
(44.5991 -1.33234 -2.50186)
(106.1 -2.61639 -4.91972)
(54.5926 -1.43845 -2.54232)
(111.207 -1.89954 -4.52688)
(62.031 -0.679808 -2.26148)
(115.811 -1.47098 -4.11507)
(66.3615 -0.415208 -1.31254)
(117.767 -1.1039 -3.34955)
(100.691 -1.349 -5.09121)
(44.6894 -0.377369 -2.39094)
(106.359 -0.737416 -4.8124)
(98.6765 -2.06376 -7.30137)
(42.7407 -0.910393 -4.25962)
(102.507 -2.04189 -7.49798)
(49.5096 -0.854047 -3.68627)
(106.58 -1.6964 -5.62711)
(54.8308 -0.384931 -2.87919)
(110.414 -1.09407 -4.35774)
(58.4649 0.233129 -2.55789)
(113.882 -0.18276 -2.91581)
(98.2694 -3.84095 -8.23167)
(38.1838 -1.74325 -4.09942)
(99.646 -4.11545 -8.2529)
(39.8588 -1.53218 -3.51318)
(100.525 -3.71079 -6.50539)
(39.731 -0.989082 -2.52256)
(101.874 -3.39196 -5.14793)
(38.7366 -0.516071 -1.95289)
(103.761 -2.88717 -3.27381)
(97.4791 -2.63873 -8.89009)
(34.9182 -0.913274 -3.94415)
(97.5481 -2.62316 -9.07494)
(32.5545 -0.760902 -3.29869)
(96.7476 -2.10471 -6.79593)
(27.6777 -0.191223 -2.03771)
(96.1692 -1.20601 -4.06304)
(20.7249 0.295395 -1.03607)
(96.609 -1.01937 -1.75707)
(96.4703 -0.745542 -9.54499)
(35.433 -0.388491 -4.60091)
(97.0459 -0.70629 -9.94184)
(33.1387 -0.177924 -3.70663)
(96.0666 -0.0108177 -7.69397)
(97.1689 -2.54062 -5.82903)
(40.5527 -1.16576 -3.54626)
(99.3249 -2.72626 -5.89394)
(44.6858 -1.10474 -3.5259)
(102.077 -2.49879 -4.74457)
(48.2504 -0.737926 -3.46319)
(104.745 -2.0074 -3.83201)
(50.0284 -0.337864 -3.94901)
(107.623 -0.962079 -3.59419)
(96.5259 -4.59185 -6.62967)
(34.9 -2.06118 -3.54618)
(95.9302 -5.31684 -6.43558)
(32.1703 -1.8493 -2.80971)
(95.1773 -4.34461 -4.59123)
(28.2651 -1.0589 -2.48068)
(95.0865 -2.68633 -3.74965)
(23.119 -0.748766 -2.2365)
(96.0675 -1.52071 -3.10106)
(95.3248 -3.57505 -6.62828)
(30.1829 -1.59072 -3.43863)
(92.4357 -4.08275 -6.58509)
(19.3158 -0.954376 -2.20379)
(89.7594 -2.81042 -4.28529)
(9.58329 -0.377322 -1.26322)
(88.972 -1.02861 -2.21857)
(3.78792 -0.179709 -0.718751)
(89.3308 -0.0513491 -0.476855)
(94.7753 -0.274857 -6.91644)
(28.2198 -0.0848588 -3.6338)
(90.8789 0.0631132 -6.89249)
(15.548 -0.0782432 -1.87436)
(88.1128 0.17809 -4.03256)
(5.40952 -0.124827 -0.841302)
(87.2821 -0.206748 -2.35041)
(96.4491 -2.93726 -4.19512)
(41.1607 -1.43659 -2.7578)
(98.4764 -2.85174 -4.37368)
(44.6632 -1.09345 -2.70374)
(100.368 -2.04761 -3.49402)
(46.3851 -0.887334 -2.58016)
(102.033 -1.7943 -2.92205)
(47.2711 -0.324457 -2.78565)
(103.213 -0.943744 -2.31571)
(95.3071 -4.67945 -4.75408)
(33.851 -2.34387 -2.56444)
(93.381 -5.05889 -4.7714)
(29.0728 -2.00453 -2.01987)
(92.3411 -4.07144 -3.23325)
(24.7264 -1.87807 -1.53702)
(91.5243 -3.07889 -2.27134)
(19.3581 -1.96661 -1.47548)
(91.5034 -1.97099 -2.00582)
(94.3239 -2.99793 -4.67704)
(31.0518 -1.59071 -2.44538)
(90.0271 -3.3123 -3.96452)
(20.5523 -1.12169 -1.44878)
(86.724 -2.00729 -2.35381)
(11.4921 -0.795352 -0.916602)
(84.3557 -0.581155 -1.99477)
(4.83726 -0.511921 -0.510825)
(82.6632 -0.167424 -0.796642)
(94.1875 -0.823518 -4.11466)
(30.2722 -0.0464906 -2.441)
(89.1452 -0.102324 -3.66782)
(18.9506 0.326017 -1.58954)
(86.4792 0.406338 -2.51346)
(11.6018 0.37951 -1.21991)
(84.8756 0.326554 -2.13077)
(7.34428 0.423373 -1.02646)
(84.5706 0.836925 -1.80397)
)
;

boundaryField
{
    inlet
    {
        type            calculated;
        value           uniform (67 0 0);
    }
    outlet
    {
        type            calculated;
        value           nonuniform 0();
    }
    wall
    {
        type            calculated;
        value           uniform (0 0 0);
    }
    procBoundary0to1
    {
        type            processor;
        value           nonuniform List<vector> 
12
(
(93.1839 1.52337 -1.79042)
(81.5754 -0.84186 -1.61926)
(66.971 0.0261001 -1.61054)
(60.3056 1.24522 -1.75234)
(37.9633 -0.415027 -1.35057)
(12.035 0.298408 -0.96167)
(50.0776 0.676612 -4.55741)
(19.2243 -1.08169 -2.4451)
(0.25052 -0.022662 -0.0661166)
(45.004 -0.106698 -1.72484)
(13.5886 -2.13634 -1.07201)
(3.74834e-05 1.34858e-06 -2.89107e-05)
)
;
    }
    procBoundary0to2
    {
        type            processor;
        value           nonuniform List<vector> 
44
(
(54.8678 -0.402406 -2.35373)
(111.057 -0.47306 -4.46278)
(63.1675 -0.41547 -1.93023)
(115.953 -0.432115 -3.2409)
(68.1828 0.157191 -0.790343)
(120.368 0.0993472 -2.32981)
(98.8083 0.520146 -4.22319)
(42.3857 0.324482 -2.45478)
(54.8678 -0.402406 -2.35373)
(103.51 0.985838 -4.84336)
(54.8678 -0.402406 -2.35373)
(111.057 -0.47306 -4.46278)
(28.3132 -0.139535 -2.66425)
(95.8178 0.384324 -4.87245)
(24.4877 0.09769 -2.24405)
(97.3187 1.28363 -2.40157)
(96.98 1.14074 -7.83563)
(35.0093 0.2438 -3.76522)
(96.2798 1.13346 -8.21482)
(31.0277 0.64406 -3.02205)
(28.3132 -0.139535 -2.66425)
(95.3312 1.36794 -6.15676)
(28.3132 -0.139535 -2.66425)
(95.8178 0.384324 -4.87245)
(0.792287 -0.0153295 -0.177796)
(87.2525 -0.553575 -1.18552)
(95.2614 2.10121 -6.70521)
(32.4084 0.752265 -3.35386)
(92.8047 1.98156 -6.09022)
(24.4199 0.637843 -2.22933)
(91.0127 1.38566 -4.10884)
(17.5277 0.26487 -1.63415)
(0.792287 -0.0153295 -0.177796)
(90.1084 -0.410513 -2.59322)
(0.792287 -0.0153295 -0.177796)
(87.2525 -0.553575 -1.18552)
(94.0609 1.83429 -5.56245)
(30.0712 1.13981 -2.33519)
(89.8698 2.38813 -4.58783)
(20.6684 1.03071 -1.71055)
(87.8458 1.71656 -3.15581)
(13.5805 1.02923 -1.04061)
(86.6929 0.975713 -2.18661)
(8.02103 0.934177 -0.924386)
)
;
    }
    procBoundary0to4
    {
        type            processor;
        value           nonuniform List<vector> 
36
(
(96.1246 -3.19401 -2.1187)
(40.8287 -1.51832 -1.36728)
(97.2586 -3.45664 -2.24885)
(43.2114 -1.40889 -1.53267)
(98.774 -2.70131 -1.42899)
(44.5872 -0.834834 -1.2028)
(99.9592 -1.91965 -1.28036)
(44.1952 -0.722138 -1.28947)
(101.146 -1.46812 -0.149198)
(94.4546 -5.07028 -1.78913)
(32.9911 -2.2764 -0.924291)
(91.9767 -5.15403 -1.72633)
(24.9823 -1.59215 -0.8608)
(90.3423 -3.67253 -1.19055)
(18.8137 -1.01571 -0.520217)
(90.2045 -2.49322 -0.844808)
(13.0515 -0.875986 -0.428186)
(90.2214 -1.07631 0.262699)
(94.1663 -2.95581 -1.81091)
(29.5476 -1.65206 -0.832525)
(89.4494 -3.06528 -1.40838)
(18.2464 -1.14247 -0.30547)
(87.1954 -2.33829 -0.466784)
(10.1712 -0.829104 0.084754)
(86.5096 -1.17201 -0.15391)
(3.44627 -0.359564 0.132957)
(86.6341 -0.128652 0.437078)
(94.1784 -1.22776 -2.13211)
(29.9762 -0.0928524 -0.689981)
(88.6296 -0.637207 -1.60764)
(18.7214 -0.339587 -0.448316)
(85.4605 -0.616496 -1.19847)
(9.85494 -0.202892 0.150247)
(83.4778 -0.380767 -0.876762)
(3.40327 -0.113138 0.216112)
(83.0134 0.086412 0.216728)
)
;
    }
    procBoundary0to6
    {
        type            processor;
        value           uniform (85.6331 1.2653 -0.272447);
    }
    procBoundary0to7
    {
        type            processor;
        value           uniform (2.92021 0.28176 -0.54685);
    }
}


// ************************************************************************* //
