/*--------------------------------*- C++ -*----------------------------------*\
| =========                 |                                                 |
| \\      /  F ield         | OpenFOAM: The Open Source CFD Toolbox           |
|  \\    /   O peration     | Version:  4.x                                   |
|   \\  /    A nd           | Web:      www.OpenFOAM.org                      |
|    \\/     M anipulation  |                                                 |
\*---------------------------------------------------------------------------*/
FoamFile
{
    version     2.0;
    format      ascii;
    class       volVectorField;
    location    "29";
    object      impParticleForces;
}
// * * * * * * * * * * * * * * * * * * * * * * * * * * * * * * * * * * * * * //

dimensions      [1 1 -2 0 0 0 0];

internalField   nonuniform List<vector> 
132
(
(0.00225873 -2.07969e-05 -8.82645e-05)
(0.0022728 -2.06062e-05 -8.79812e-05)
(0.00231478 -1.97039e-05 -8.66665e-05)
(0.00233254 -1.68411e-05 -8.21642e-05)
(0.00237621 -1.2991e-05 -7.71485e-05)
(0.00240558 -6.96144e-06 -7.03837e-05)
(0.00244442 1.55829e-06 -6.32545e-05)
(0.00241947 1.58584e-05 -5.36988e-05)
(0.0024163 4.08379e-05 -4.40113e-05)
(0.00227981 -1.85864e-05 -9.01966e-05)
(0.00231006 -1.88328e-05 -9.10049e-05)
(0.00235786 -1.82677e-05 -9.00436e-05)
(0.0023759 -1.54262e-05 -8.53066e-05)
(0.00241329 -1.18358e-05 -7.98738e-05)
(0.00244221 -6.45309e-06 -7.26775e-05)
(0.00246067 9.75625e-07 -6.44715e-05)
(0.00245738 1.21257e-05 -5.5031e-05)
(0.0024769 2.86319e-05 -4.58136e-05)
(0.00229488 -1.23786e-05 -9.18273e-05)
(0.0023313 -1.26188e-05 -9.30905e-05)
(0.00237714 -1.19328e-05 -9.20216e-05)
(0.00239537 -9.52772e-06 -8.70302e-05)
(0.00244588 -6.89546e-06 -8.20341e-05)
(0.00244164 -2.29996e-06 -7.32455e-05)
(0.00246019 3.16067e-06 -6.4801e-05)
(0.00245824 1.0812e-05 -5.50883e-05)
(0.00249286 2.03668e-05 -4.63882e-05)
(0.00230407 -3.30881e-06 -9.22262e-05)
(0.00232547 -2.84789e-06 -9.2694e-05)
(0.00236341 -1.85134e-06 -9.13604e-05)
(0.00228952 -2.238e-05 -8.78716e-05)
(0.00232123 -2.29156e-05 -8.88539e-05)
(0.00236764 -2.23001e-05 -8.80266e-05)
(0.00239023 -1.94173e-05 -8.33174e-05)
(0.00243078 -1.57249e-05 -7.81396e-05)
(0.0024427 -9.64484e-06 -7.05949e-05)
(0.00247669 -1.86864e-06 -6.35791e-05)
(0.00244809 1.02087e-05 -5.38981e-05)
(0.00246086 2.73892e-05 -4.48585e-05)
(0.00231847 -2.04212e-05 -9.03583e-05)
(0.00237338 -2.16527e-05 -9.31203e-05)
(0.00241995 -2.12634e-05 -9.23507e-05)
(0.00243834 -1.82698e-05 -8.69955e-05)
(0.00249378 -1.5325e-05 -8.22864e-05)
(0.00248917 -9.11059e-06 -7.33316e-05)
(0.0025206 -2.46533e-06 -6.56818e-05)
(0.00249616 7.75222e-06 -5.55303e-05)
(0.00251027 2.0463e-05 -4.61016e-05)
(0.00233919 -1.36363e-05 -9.2452e-05)
(0.0023895 -1.4458e-05 -9.50066e-05)
(0.00243618 -1.39087e-05 -9.43124e-05)
(0.0024524 -1.14534e-05 -8.85365e-05)
(0.0024985 -8.76114e-06 -8.31872e-05)
(0.00248728 -4.01109e-06 -7.36086e-05)
(0.00252709 9.51709e-07 -6.58458e-05)
(0.00248129 8.27049e-06 -5.46624e-05)
(0.00249373 1.63978e-05 -4.51263e-05)
(0.00236051 -3.55891e-06 -9.41523e-05)
(0.00238531 -3.17656e-06 -9.48327e-05)
(0.00244052 -2.38584e-06 -9.51822e-05)
(0.00244878 -6.90036e-07 -8.86497e-05)
(0.00251347 1.22881e-06 -8.47103e-05)
(0.00230361 -2.41514e-05 -8.16805e-05)
(0.00233399 -2.47528e-05 -8.25675e-05)
(0.00238659 -2.45491e-05 -8.21259e-05)
(0.00239471 -2.14498e-05 -7.72284e-05)
(0.00243177 -1.80172e-05 -7.23466e-05)
(0.00243081 -1.22438e-05 -6.52208e-05)
(0.00246067 -5.84046e-06 -5.88172e-05)
(0.00243211 3.6087e-06 -5.02972e-05)
(0.00243297 1.47639e-05 -4.17815e-05)
(0.00234297 -2.24425e-05 -8.45127e-05)
(0.00238641 -2.35492e-05 -8.63277e-05)
(0.00243366 -2.33979e-05 -8.55794e-05)
(0.00244189 -2.02437e-05 -8.02899e-05)
(0.00248695 -1.73487e-05 -7.54643e-05)
(0.00246986 -1.12444e-05 -6.71242e-05)
(0.00250803 -5.74682e-06 -6.05908e-05)
(0.00247467 2.61297e-06 -5.15378e-05)
(0.00247996 1.17733e-05 -4.27722e-05)
(0.00236172 -1.4943e-05 -8.59523e-05)
(0.00239808 -1.5508e-05 -8.76045e-05)
(0.00245307 -1.55405e-05 -8.74393e-05)
(0.00246316 -1.30925e-05 -8.20075e-05)
(0.00250377 -1.06446e-05 -7.66147e-05)
(0.00247442 -5.70302e-06 -6.72464e-05)
(0.00249909 -1.17065e-06 -5.9583e-05)
(0.00244382 5.07306e-06 -4.95823e-05)
(0.00244748 1.13535e-05 -4.08097e-05)
(0.00237425 -3.4898e-06 -8.69287e-05)
(0.00240782 -3.25029e-06 -8.84738e-05)
(0.00246675 -2.45491e-06 -8.8578e-05)
(0.00246394 -9.38257e-07 -8.23264e-05)
(0.00249738 7.5951e-07 -7.66536e-05)
(0.00247598 2.97952e-06 -6.76452e-05)
(0.00249346 5.58925e-06 -5.96027e-05)
(0.00229724 -2.50947e-05 -7.01209e-05)
(0.00232745 -2.5765e-05 -7.06631e-05)
(0.00238507 -2.59059e-05 -7.04308e-05)
(0.00238367 -2.2601e-05 -6.59163e-05)
(0.00242094 -1.94438e-05 -6.19176e-05)
(0.00241984 -1.4455e-05 -5.6223e-05)
(0.00243702 -8.998e-06 -5.01259e-05)
(0.00240326 -1.65626e-06 -4.2728e-05)
(0.00241893 5.57488e-06 -3.5611e-05)
(0.00234103 -2.3421e-05 -7.22449e-05)
(0.00239241 -2.50378e-05 -7.37511e-05)
(0.00244369 -2.51806e-05 -7.30034e-05)
(0.00244312 -2.17869e-05 -6.84135e-05)
(0.00246055 -1.82529e-05 -6.32969e-05)
(0.00244554 -1.30694e-05 -5.67178e-05)
(0.00247989 -8.584e-06 -5.09699e-05)
(0.00243186 -1.66617e-06 -4.30858e-05)
(0.00244524 4.7964e-06 -3.57957e-05)
(0.002361 -1.57423e-05 -7.32156e-05)
(0.00239568 -1.62128e-05 -7.39171e-05)
(0.00245987 -1.65181e-05 -7.37667e-05)
(0.00244519 -1.36499e-05 -6.84625e-05)
(0.00247019 -1.1195e-05 -6.34761e-05)
(0.00244888 -6.9991e-06 -5.64701e-05)
(0.00246347 -2.85779e-06 -5.00151e-05)
(0.00240858 2.04683e-06 -4.18715e-05)
(0.00242422 6.60733e-06 -3.46134e-05)
(0.00235979 -3.65757e-06 -7.31035e-05)
(0.00240465 -3.39398e-06 -7.44022e-05)
(0.00246975 -2.79345e-06 -7.42324e-05)
(0.00245934 -1.2398e-06 -6.92246e-05)
(0.00246089 2.73431e-07 -6.3257e-05)
(0.00244843 2.25183e-06 -5.67247e-05)
(0.00245717 4.47867e-06 -5.00847e-05)
(0.00240101 7.07236e-06 -4.20082e-05)
(0.00239424 9.80106e-06 -3.46208e-05)
)
;

boundaryField
{
    inlet
    {
        type            zeroGradient;
    }
    outlet
    {
        type            zeroGradient;
    }
    wall
    {
        type            zeroGradient;
    }
    procBoundary0to1
    {
        type            processor;
        value           nonuniform List<vector> 
12
(
(0.00243988 9.36625e-05 -3.36591e-05)
(0.00247403 5.45055e-05 -3.54258e-05)
(0.00247645 3.26568e-05 -3.5919e-05)
(0.00246203 5.3596e-05 -3.52448e-05)
(0.00250584 3.7226e-05 -3.60311e-05)
(0.00248898 2.56873e-05 -3.51354e-05)
(0.00242417 2.81875e-05 -3.33069e-05)
(0.00245596 2.21451e-05 -3.32268e-05)
(0.0024481 1.78218e-05 -3.18208e-05)
(0.00239519 1.3558e-05 -2.78124e-05)
(0.0024273 1.15981e-05 -2.78868e-05)
(0.00240514 1.14222e-05 -2.68171e-05)
)
;
    }
    procBoundary0to2
    {
        type            processor;
        value           nonuniform List<vector> 
44
(
(0.00240396 -3.01087e-07 -8.77858e-05)
(0.00244123 1.53992e-06 -8.20633e-05)
(0.0024401 4.15234e-06 -7.34568e-05)
(0.00247547 7.46401e-06 -6.54971e-05)
(0.00245307 1.19607e-05 -5.51805e-05)
(0.00246621 1.73004e-05 -4.58902e-05)
(0.00231144 6.58571e-06 -9.1809e-05)
(0.00233898 7.45776e-06 -9.2916e-05)
(0.00240396 -3.01087e-07 -8.77858e-05)
(0.00238341 8.58394e-06 -9.18982e-05)
(0.00240396 -3.01087e-07 -8.77858e-05)
(0.00244123 1.53992e-06 -8.20633e-05)
(0.00250181 3.49705e-06 -7.47563e-05)
(0.00253773 6.67926e-06 -6.67515e-05)
(0.00248331 1.07809e-05 -5.49759e-05)
(0.00250503 1.54933e-05 -4.57742e-05)
(0.00233827 7.38679e-06 -9.14276e-05)
(0.00238618 8.41662e-06 -9.39998e-05)
(0.00245138 9.83737e-06 -9.48955e-05)
(0.002462 1.05662e-05 -8.90341e-05)
(0.00250181 3.49705e-06 -7.47563e-05)
(0.0024981 1.14623e-05 -8.31877e-05)
(0.00250181 3.49705e-06 -7.47563e-05)
(0.00253773 6.67926e-06 -6.67515e-05)
(0.00244419 8.97272e-06 -4.97055e-05)
(0.00245076 1.2652e-05 -4.10862e-05)
(0.0023632 8.40468e-06 -8.5518e-05)
(0.0023939 9.2907e-06 -8.66002e-05)
(0.00244993 1.06736e-05 -8.67363e-05)
(0.00245392 1.10885e-05 -8.13593e-05)
(0.00247647 1.15939e-05 -7.54222e-05)
(0.00246344 1.16772e-05 -6.71925e-05)
(0.00244419 8.97272e-06 -4.97055e-05)
(0.00249057 1.2516e-05 -6.00252e-05)
(0.00244419 8.97272e-06 -4.97055e-05)
(0.00245076 1.2652e-05 -4.10862e-05)
(0.00236644 8.97085e-06 -7.31163e-05)
(0.00241491 1.015e-05 -7.43495e-05)
(0.00246598 1.15766e-05 -7.41189e-05)
(0.00244622 1.13165e-05 -6.87459e-05)
(0.0024645 1.16661e-05 -6.37644e-05)
(0.002435 1.14333e-05 -5.66991e-05)
(0.00245243 1.19503e-05 -5.07003e-05)
(0.00241292 1.24408e-05 -4.31395e-05)
)
;
    }
    procBoundary0to4
    {
        type            processor;
        value           nonuniform List<vector> 
36
(
(0.00229417 -2.56647e-05 -5.70798e-05)
(0.00232102 -2.62098e-05 -5.70813e-05)
(0.00237928 -2.65496e-05 -5.62628e-05)
(0.00238702 -2.36445e-05 -5.33318e-05)
(0.00241874 -2.0574e-05 -4.97992e-05)
(0.00240052 -1.55413e-05 -4.50374e-05)
(0.00242918 -1.12412e-05 -4.00321e-05)
(0.00239519 -5.36486e-06 -3.39647e-05)
(0.00241191 -3.28616e-07 -2.76475e-05)
(0.00234259 -2.41119e-05 -5.79616e-05)
(0.00237729 -2.50502e-05 -5.7933e-05)
(0.00244089 -2.5884e-05 -5.7102e-05)
(0.00244276 -2.2674e-05 -5.40712e-05)
(0.00246162 -1.93614e-05 -5.0065e-05)
(0.00243401 -1.4223e-05 -4.49753e-05)
(0.0024526 -1.0045e-05 -3.98355e-05)
(0.00241129 -4.5014e-06 -3.37566e-05)
(0.00244398 -1.46125e-07 -2.77197e-05)
(0.00236419 -1.6309e-05 -5.83516e-05)
(0.00241041 -1.7344e-05 -5.86422e-05)
(0.00245518 -1.72317e-05 -5.7012e-05)
(0.00244603 -1.45441e-05 -5.35851e-05)
(0.00245978 -1.19373e-05 -4.92332e-05)
(0.00242441 -7.93982e-06 -4.41154e-05)
(0.00243805 -4.53678e-06 -3.89682e-05)
(0.00240805 -7.85288e-07 -3.32844e-05)
(0.00240979 2.92199e-06 -2.72582e-05)
(0.0023521 -3.74957e-06 -5.80058e-05)
(0.00240308 -3.93735e-06 -5.79912e-05)
(0.00245534 -3.22386e-06 -5.66879e-05)
(0.00243497 -2.08097e-06 -5.3123e-05)
(0.00245776 -8.36119e-07 -4.90914e-05)
(0.00242547 1.00794e-06 -4.41689e-05)
(0.00244785 2.76364e-06 -3.92503e-05)
(0.00238823 4.87607e-06 -3.35618e-05)
(0.0023944 6.94908e-06 -2.80527e-05)
)
;
    }
    procBoundary0to6
    {
        type            processor;
        value           uniform (0.00242672 1.35156e-05 -3.62435e-05);
    }
    procBoundary0to7
    {
        type            processor;
        value           uniform (0.002404 1.25587e-05 -2.74219e-05);
    }
}


// ************************************************************************* //
