/*--------------------------------*- C++ -*----------------------------------*\
| =========                 |                                                 |
| \\      /  F ield         | OpenFOAM: The Open Source CFD Toolbox           |
|  \\    /   O peration     | Version:  4.x                                   |
|   \\  /    A nd           | Web:      www.OpenFOAM.org                      |
|    \\/     M anipulation  |                                                 |
\*---------------------------------------------------------------------------*/
FoamFile
{
    version     2.0;
    format      ascii;
    class       volScalarField;
    location    "29";
    object      Ksl;
}
// * * * * * * * * * * * * * * * * * * * * * * * * * * * * * * * * * * * * * //

dimensions      [1 -3 -1 0 0 0 0];

internalField   nonuniform List<scalar> 
132
(
3325.43
6807.67
3094.59
5241.02
2912.29
4518.47
2798.56
4078.79
2626.36
3343.38
7289.71
3204.4
5877.34
3059.43
5145.98
2943.05
4666.34
2833.76
3357.06
7635.36
3266.27
6369.77
3191.05
5705.46
3078.37
5353.27
3036.62
3369.92
7600.84
3240.68
3380.26
7800.71
3300.04
6892.73
3254.69
6345.67
3201.97
5973.18
3090.23
3409.69
8859.67
3465.66
8686.1
3517.07
8868.68
3497.37
9100.64
3426.07
3449.12
9720.35
3548.88
10658.9
3640.31
12670.9
3689.44
16896.5
3648.01
3489.84
9557.27
3568.62
10435.6
3658.71
3400.61
8161.7
3388.92
7534.65
3349.38
7082.58
3291.77
6794.47
3180.05
3453.92
9621.44
3566.27
10615.6
3646.36
12177.4
3664.17
14761.9
3582.92
3502.15
11145.6
3713.88
17621.4
3861.84
35444.2
3884.2
87957.6
3810.96
3531.16
11909.6
3781.74
21827.7
3912.01
62370.6
3932.14
3405.66
8000.84
3400.93
7467.19
3362.75
7233.09
3326.37
7082.44
3253.48
3478.37
9860.52
3637.44
11622
3690.89
13614.9
3722.25
17186.9
3679
3542.35
10795.8
3785.98
16384.7
3914.8
29003.3
4002.25
67795.6
4013.98
3533.24
11074.9
3819.3
17721.5
3916.12
28559.9
3948.78
44408.4
3900.35
)
;

boundaryField
{
    inlet
    {
        type            zeroGradient;
    }
    outlet
    {
        type            zeroGradient;
    }
    wall
    {
        type            zeroGradient;
    }
    procBoundary0to1
    {
        type            processor;
        value           nonuniform List<scalar> 
12
(
3828.89
4409.55
5320.27
5810.25
9332.83
28917.5
6731.08
17589.8
1.29263e+06
7328.07
24058.1
1e+10
)
;
    }
    procBoundary0to2
    {
        type            processor;
        value           nonuniform List<scalar> 
44
(
6320.79
3168.38
5593.89
3069.65
5191.16
2936.51
3409.76
7983.53
6320.79
3333.74
6320.79
3168.38
12320.2
3683.29
14195.7
3589.13
3456.18
9672.74
3596.97
11150.5
12320.2
3682.73
12320.2
3683.29
415309
3865.72
3501.71
10384.4
3695.22
13946.8
3781.54
19352.1
415309
3796.27
415309
3865.72
3530.77
11117.9
3777.34
16221.3
3849.53
24447.1
3864.46
40512.8
)
;
    }
    procBoundary0to4
    {
        type            processor;
        value           nonuniform List<scalar> 
36
(
3382.71
7957.52
3395.74
7660.32
3387.63
7435.77
3336.84
7416.95
3232.55
3472.61
10022.3
3662.14
13376
3727.79
17686.2
3719.95
25169.7
3662.04
3511.66
11272.6
3777.22
18264.2
3849.71
32433
3836.7
93889.3
3777.02
3499.48
11130.1
3806.69
17803.9
3910.41
33415.8
3952.75
95046.5
3915.79
)
;
    }
    procBoundary0to6
    {
        type            processor;
        value           uniform 3868.44;
    }
    procBoundary0to7
    {
        type            processor;
        value           uniform 108473;
    }
}


// ************************************************************************* //
