/*--------------------------------*- C++ -*----------------------------------*\
| =========                 |                                                 |
| \\      /  F ield         | OpenFOAM: The Open Source CFD Toolbox           |
|  \\    /   O peration     | Version:  4.x                                   |
|   \\  /    A nd           | Web:      www.OpenFOAM.org                      |
|    \\/     M anipulation  |                                                 |
\*---------------------------------------------------------------------------*/
FoamFile
{
    version     2.0;
    format      ascii;
    class       volScalarField;
    location    "29";
    object      p;
}
// * * * * * * * * * * * * * * * * * * * * * * * * * * * * * * * * * * * * * //

dimensions      [1 -1 -2 0 0 0 0];

internalField   nonuniform List<scalar> 
132
(
5743.22
5727.1
5737.73
5706.69
5727.79
5690.02
5721.51
5671.81
5714.9
5743.31
5726.72
5736.57
5708.13
5728.53
5690.12
5721.69
5671.74
5714.93
5743.42
5726.67
5736.51
5708.67
5729.13
5690.36
5722.07
5672.06
5715.24
5743.44
5726.56
5736.55
3865.84
3849.15
3859.01
3830.47
3850.93
3812.44
3844.09
3794.16
3837.36
3866.1
3849.07
3859.08
3830.83
3851.42
3812.49
3844.33
3793.99
3837.45
3866.36
3849.12
3859.34
3831.12
3852
3812.71
3844.85
3794.1
3837.93
3866.39
3848.96
3859.37
3831.14
3852.07
1988.41
1971.24
1981.27
1953.17
1973.69
1934.88
1966.45
1916.39
1959.47
1988.85
1971.4
1981.72
1953.35
1974.19
1934.94
1966.85
1916.31
1959.64
1989.26
1971.61
1982.2
1953.66
1974.63
1935.18
1967.04
1916.69
1959.76
1989.49
1971.75
1982.44
1953.79
1974.85
1935.38
1967.13
110.841
93.6526
103.693
75.838
96.2908
57.6732
88.9348
39.4574
81.9911
111.415
93.9223
104.172
75.9715
96.651
57.8123
89.2675
39.3897
82.1813
111.831
94.2879
104.647
76.4842
97.1082
58.5216
89.5265
40.7022
82.2015
112.006
94.3902
104.786
76.5225
97.0758
58.675
89.3989
40.7439
82.209
)
;

boundaryField
{
    inlet
    {
        type            calculated;
        value           nonuniform List<scalar> 
16
(
5743.22
5743.31
5743.42
5743.44
3865.84
3866.1
3866.36
3866.39
1988.41
1988.85
1989.26
1989.49
110.841
111.415
111.831
112.006
)
;
    }
    outlet
    {
        type            calculated;
        value           nonuniform 0();
    }
    wall
    {
        type            calculated;
        value           nonuniform List<scalar> 
66
(
6682.18
6682.27
6682.38
6682.39
6666.06
6665.68
6665.63
6665.52
6676.69
6675.53
6675.47
6675.51
6645.65
6647.09
6647.62
6666.75
6667.49
6668.09
6628.98
6629.08
6629.31
6660.46
6660.64
6661.02
6610.76
6610.7
6611.01
6653.85
6653.88
6654.2
5743.22
3865.84
1988.41
110.841
5727.1
3849.15
1971.24
93.6526
5737.73
3859.01
1981.27
103.693
5706.69
3830.47
1953.17
75.838
5727.79
3850.93
1973.69
96.2908
5690.02
3812.44
1934.88
57.6732
5721.51
3844.09
1966.45
88.9348
5671.81
3794.16
1916.39
39.4574
5714.9
3837.36
1959.47
81.9911
)
;
    }
    procBoundary0to1
    {
        type            processor;
        value           nonuniform List<scalar> 
12
(
5653.39
5653.05
5653.33
3775.64
3775.27
3775.5
1897.85
1897.5
1898.55
21.164
21.0995
23.2169
)
;
    }
    procBoundary0to2
    {
        type            processor;
        value           nonuniform List<scalar> 
44
(
5708.76
5729.24
5690.38
5722.06
5671.76
5715.16
5743.37
5726.47
5708.76
5736.52
5708.76
5729.24
3812.6
3844.69
3793.74
3837.71
3866.3
3849.04
3859.37
3831.18
3812.6
3852.1
3812.6
3844.69
1916.91
1959.7
1989.19
1971.52
1982.14
1953.75
1974.66
1935.57
1916.91
1967.14
1916.91
1959.7
111.912
94.1699
104.617
76.2187
97.0414
58.1237
89.4982
39.9903
)
;
    }
    procBoundary0to4
    {
        type            processor;
        value           nonuniform List<scalar> 
36
(
-1766.79
-1784.15
-1773.96
-1801.99
-1781.44
-1820.17
-1788.86
-1838.63
-1796.06
-1766.13
-1783.85
-1773.34
-1801.77
-1780.96
-1820.11
-1788.5
-1838.53
-1795.78
-1765.62
-1783.53
-1772.97
-1801.44
-1780.71
-1819.65
-1788.35
-1837.86
-1795.87
-1765.5
-1783.26
-1772.76
-1801.08
-1780.48
-1819.12
-1788.25
-1837.19
-1795.82
)
;
    }
    procBoundary0to6
    {
        type            processor;
        value           uniform 82.1397;
    }
    procBoundary0to7
    {
        type            processor;
        value           uniform 23.3845;
    }
}


// ************************************************************************* //
