/*--------------------------------*- C++ -*----------------------------------*\
| =========                 |                                                 |
| \\      /  F ield         | OpenFOAM: The Open Source CFD Toolbox           |
|  \\    /   O peration     | Version:  4.x                                   |
|   \\  /    A nd           | Web:      www.OpenFOAM.org                      |
|    \\/     M anipulation  |                                                 |
\*---------------------------------------------------------------------------*/
FoamFile
{
    version     2.0;
    format      ascii;
    class       volScalarField;
    location    "29";
    object      SPartFluid;
}
// * * * * * * * * * * * * * * * * * * * * * * * * * * * * * * * * * * * * * //

dimensions      [1 -3 -1 0 0 0 0];

internalField   nonuniform List<scalar> 
132
(
5.50257e-65
4.41756e-65
3.10004e-65
2.86753e-65
3.79754e-65
4.03004e-65
4.72754e-65
3.48753e-65
1.70501e-65
4.88256e-65
4.72756e-65
4.57255e-65
5.11505e-65
3.17753e-65
5.81255e-65
4.41753e-65
4.96003e-65
3.95252e-65
2.71253e-65
5.34756e-65
4.72755e-65
4.72754e-65
4.26254e-65
4.34003e-65
3.25502e-65
4.49502e-65
6.89753e-65
2.86754e-65
4.41755e-65
3.25504e-65
4.18505e-65
6.66508e-65
8.06009e-65
7.05257e-65
6.82006e-65
7.13006e-65
5.73504e-65
6.43254e-65
6.20004e-65
5.42507e-65
7.98259e-65
6.27757e-65
7.20757e-65
7.28506e-65
7.13005e-65
7.05254e-65
7.75003e-65
6.97502e-65
5.89008e-65
8.13759e-65
6.82007e-65
6.27755e-65
7.36255e-65
5.89004e-65
8.29253e-65
6.04502e-65
4.96001e-65
8.0601e-65
6.12257e-65
6.12256e-65
4.72754e-65
8.99006e-65
5.96758e-65
6.82008e-65
7.28508e-65
6.74256e-65
6.58756e-65
5.19254e-65
7.05254e-65
6.89753e-65
4.72752e-65
6.43258e-65
7.05258e-65
6.43257e-65
5.96755e-65
7.36255e-65
5.73503e-65
7.36253e-65
8.83503e-65
8.29252e-65
7.6726e-65
6.27757e-65
6.58757e-65
8.21507e-65
7.82755e-65
7.36253e-65
7.44002e-65
6.2e-65
4.5725e-65
7.28509e-65
7.59509e-65
7.67257e-65
8.13757e-65
8.21505e-65
7.13003e-65
7.13001e-65
4.57256e-65
4.88256e-65
5.73506e-65
5.34755e-65
6.12255e-65
7.44005e-65
4.80503e-65
4.10752e-65
4.96002e-65
5.50257e-65
8.1376e-65
7.28508e-65
6.74256e-65
5.81254e-65
5.96753e-65
8.37003e-65
6.58752e-65
5.50251e-65
4.57256e-65
4.96005e-65
7.28507e-65
5.73505e-65
7.28505e-65
8.06003e-65
6.74252e-65
5.115e-65
8.06e-65
5.27007e-65
5.89007e-65
7.98258e-65
9.06757e-65
4.49503e-65
9.14504e-65
7.13001e-65
5.425e-65
2.325e-65
)
;

boundaryField
{
    inlet
    {
        type            calculated;
        value           uniform 0;
    }
    outlet
    {
        type            calculated;
        value           nonuniform 0();
    }
    wall
    {
        type            calculated;
        value           uniform 0;
    }
    procBoundary0to1
    {
        type            processor;
        value           nonuniform List<scalar> 
12
(
3.72003e-65
3.64252e-65
3.48751e-65
6.66503e-65
7.20752e-65
7.13e-65
7.05252e-65
5.58e-65
8.91249e-65
6.58752e-65
7.0525e-65
5.73499e-65
)
;
    }
    procBoundary0to2
    {
        type            processor;
        value           nonuniform List<scalar> 
44
(
6.51006e-65
4.88254e-65
2.55752e-65
4.88253e-65
3.02251e-65
4.10752e-65
5.73507e-65
6.51008e-65
6.51006e-65
5.11506e-65
6.51006e-65
4.88254e-65
8.44755e-65
9.76504e-65
5.73501e-65
9.22251e-65
5.42507e-65
6.82008e-65
7.67258e-65
7.82757e-65
8.44755e-65
6.97505e-65
8.44755e-65
9.76504e-65
7.595e-65
8.1375e-65
7.28509e-65
4.96006e-65
5.50256e-65
6.12255e-65
5.58004e-65
7.13004e-65
7.595e-65
8.37003e-65
7.595e-65
8.1375e-65
4.80506e-65
8.13759e-65
8.37008e-65
6.51006e-65
6.82005e-65
5.89003e-65
6.27752e-65
7.75001e-65
)
;
    }
    procBoundary0to4
    {
        type            processor;
        value           nonuniform List<scalar> 
36
(
5.19257e-65
7.36259e-65
7.51759e-65
5.58006e-65
5.96755e-65
5.65754e-65
7.59505e-65
6.74253e-65
8.91254e-65
7.7501e-65
6.35508e-65
7.36258e-65
8.60258e-65
8.21506e-65
7.51755e-65
6.35503e-65
5.42502e-65
9.06752e-65
6.97509e-65
8.7576e-65
6.66507e-65
8.44757e-65
6.66505e-65
5.96753e-65
6.12252e-65
9.68752e-65
5.65751e-65
4.34005e-65
5.73507e-65
7.59508e-65
5.19254e-65
7.36255e-65
6.35503e-65
9.22253e-65
5.96751e-65
5.9675e-65
)
;
    }
    procBoundary0to6
    {
        type            processor;
        value           uniform 6.74251e-65;
    }
    procBoundary0to7
    {
        type            processor;
        value           uniform 9.91999e-65;
    }
}


// ************************************************************************* //
