/*--------------------------------*- C++ -*----------------------------------*\
| =========                 |                                                 |
| \\      /  F ield         | OpenFOAM: The Open Source CFD Toolbox           |
|  \\    /   O peration     | Version:  4.x                                   |
|   \\  /    A nd           | Web:      www.OpenFOAM.org                      |
|    \\/     M anipulation  |                                                 |
\*---------------------------------------------------------------------------*/
FoamFile
{
    version     2.0;
    format      ascii;
    class       volVectorField;
    location    "45";
    object      impParticleForces;
}
// * * * * * * * * * * * * * * * * * * * * * * * * * * * * * * * * * * * * * //

dimensions      [1 1 -2 0 0 0 0];

internalField   nonuniform List<vector> 
114
(
(0.00242056 2.39807e-05 -1.28369e-05)
(0.00237843 1.76536e-05 -8.09978e-06)
(0.00237914 1.1987e-05 -3.02066e-06)
(0.0023235 4.53824e-06 1.63545e-08)
(0.00230122 -2.5463e-06 3.51106e-06)
(0.00221927 -1.16688e-05 1.78352e-06)
(0.00242314 2.33538e-05 -1.79609e-05)
(0.00243983 2.10339e-05 -1.28567e-05)
(0.00239903 1.58625e-05 -7.89781e-06)
(0.00241275 1.18377e-05 -2.13238e-06)
(0.00235587 4.7277e-06 -1.67234e-07)
(0.00233886 -8.30525e-07 3.60189e-06)
(0.00224743 -1.13052e-05 -1.28629e-06)
(0.00244692 1.8342e-05 -2.30336e-05)
(0.00240981 1.81337e-05 -1.78166e-05)
(0.00243442 1.64498e-05 -1.26883e-05)
(0.00239611 1.302e-05 -8.11909e-06)
(0.00239468 9.81466e-06 -3.17427e-06)
(0.00234554 5.66722e-06 -7.31183e-07)
(0.00231551 1.73936e-06 5.17812e-07)
(0.00224154 -4.14162e-06 -3.55564e-06)
(0.00238886 9.75198e-06 -2.03944e-05)
(0.00239534 1.38289e-05 -1.48901e-05)
(0.00238749 1.5018e-05 -9.62322e-06)
(0.00239497 1.40687e-05 -4.04977e-06)
(0.00236707 1.0943e-05 1.49815e-06)
(0.00238364 7.74985e-06 7.79165e-06)
(0.00232216 1.44454e-07 1.48826e-05)
(0.00230253 -5.74172e-06 2.03625e-05)
(0.00220961 -1.86356e-05 2.98009e-05)
(0.00241616 8.56075e-06 -2.07125e-05)
(0.00242744 1.22995e-05 -1.55903e-05)
(0.0024067 1.34445e-05 -1.05041e-05)
(0.00242762 1.31023e-05 -5.01172e-06)
(0.00238848 1.02632e-05 5.80893e-07)
(0.00240643 8.00951e-06 7.06989e-06)
(0.00233781 1.06839e-06 1.34313e-05)
(0.00233462 -3.71006e-06 2.12638e-05)
(0.00223942 -1.80542e-05 2.99105e-05)
(0.00239522 8.15327e-06 -2.1236e-05)
(0.00240421 1.06539e-05 -1.6655e-05)
(0.00238652 1.10908e-05 -1.18598e-05)
(0.00241342 1.04792e-05 -6.52152e-06)
(0.00237406 8.21592e-06 -1.217e-06)
(0.00238642 5.86437e-06 5.39395e-06)
(0.00232992 1.82686e-06 1.15255e-05)
(0.00231117 -1.83746e-06 1.93939e-05)
(0.00222935 -9.6679e-06 2.58767e-05)
(0.00238797 7.85711e-06 -2.23235e-05)
(0.00239737 8.76979e-06 -1.82272e-05)
(0.00238257 3.55395e-06 -1.44702e-05)
(0.00240314 6.45804e-06 -9.53085e-06)
(0.00237715 7.98918e-06 -4.94957e-06)
(0.00238957 7.78738e-06 6.90774e-07)
(0.00236935 6.09759e-06 6.81273e-06)
(0.00237328 3.24346e-06 1.37146e-05)
(0.00232817 -3.0158e-06 2.32176e-05)
(0.00232452 -9.90732e-06 3.17685e-05)
(0.00221451 -2.12969e-05 4.76945e-05)
(0.00240047 2.9306e-06 -1.44986e-05)
(0.0024394 5.31867e-06 -9.73197e-06)
(0.00239814 6.55781e-06 -5.48507e-06)
(0.00241775 6.62311e-06 -1.20482e-07)
(0.00239375 4.99941e-06 5.77294e-06)
(0.00240804 3.45921e-06 1.25655e-05)
(0.00236638 -2.48936e-06 2.19795e-05)
(0.00235014 -6.74649e-06 3.13577e-05)
(0.00223534 -2.02196e-05 4.82203e-05)
(0.00238418 3.45052e-06 -1.54164e-05)
(0.00240979 5.08482e-06 -1.15203e-05)
(0.00238975 5.37517e-06 -7.28309e-06)
(0.00240205 4.95704e-06 -2.39447e-06)
(0.00239023 3.24923e-06 3.45895e-06)
(0.00239703 1.45681e-06 1.0343e-05)
(0.00234781 -2.58861e-06 1.94416e-05)
(0.0023365 -7.15537e-06 3.23058e-05)
(0.00224566 -1.65692e-05 5.19405e-05)
(0.00237427 4.18999e-06 -1.68891e-05)
(0.00242074 4.68164e-06 -1.35604e-05)
(0.00238445 4.01268e-06 -9.76738e-06)
(0.00240436 3.02962e-06 -5.53457e-06)
(0.00233258 9.97239e-07 -1.10601e-05)
(0.00235498 3.16445e-06 -6.50833e-06)
(0.00233564 4.30658e-06 -1.96234e-06)
(0.00235743 4.13062e-06 3.40773e-06)
(0.00234383 2.45226e-06 9.99707e-06)
(0.00235749 -4.06457e-07 1.72526e-05)
(0.00232704 -7.24012e-06 3.00352e-05)
(0.00234375 -1.26033e-05 3.69897e-05)
(0.00221372 -2.64984e-05 5.87435e-05)
(0.00236765 1.93932e-07 -1.10735e-05)
(0.00239518 1.90752e-06 -6.77431e-06)
(0.00236362 2.66305e-06 -2.78598e-06)
(0.00238079 2.84033e-06 2.24113e-06)
(0.00236897 1.09484e-06 8.53515e-06)
(0.00237207 -5.60066e-07 1.52425e-05)
(0.00234095 -6.05752e-06 2.56273e-05)
(0.00234261 -9.13176e-06 3.41787e-05)
(0.00222662 -2.30496e-05 5.4772e-05)
(0.00235157 8.99464e-07 -1.22922e-05)
(0.00238085 1.80409e-06 -8.54568e-06)
(0.00236638 1.87033e-06 -4.74768e-06)
(0.00237637 1.37051e-06 -1.53055e-07)
(0.0023605 -4.94872e-07 6.03501e-06)
(0.00237482 -2.07738e-06 1.2395e-05)
(0.00232987 -5.89447e-06 2.25719e-05)
(0.0023202 -8.91133e-06 3.24278e-05)
(0.00222789 -1.87298e-05 5.60083e-05)
(0.00234605 1.96579e-06 -1.40895e-05)
(0.00237279 1.94849e-06 -1.11678e-05)
(0.00235716 1.03527e-06 -7.83702e-06)
(0.00237325 -2.51865e-07 -4.00271e-06)
(0.00235782 -2.66476e-06 1.64776e-06)
(0.00234776 -3.54829e-06 7.33821e-06)
)
;

boundaryField
{
    inlet
    {
        type            zeroGradient;
    }
    outlet
    {
        type            zeroGradient;
    }
    wall
    {
        type            zeroGradient;
    }
    procBoundary5to1
    {
        type            processor;
        value           nonuniform List<vector> 
32
(
(0.00248766 3.6423e-05 -2.24605e-05)
(0.00243748 2.52643e-05 -1.85547e-05)
(0.00244384 1.69781e-05 -1.62658e-05)
(0.00239809 8.89921e-06 -1.73425e-05)
(0.00237679 2.46157e-06 -1.3926e-05)
(0.00225762 -7.53595e-06 -2.39396e-05)
(0.00247028 3.69438e-05 -2.49368e-05)
(0.00250795 2.99425e-05 -2.05924e-05)
(0.00247057 2.13648e-05 -1.75409e-05)
(0.00247969 1.55336e-05 -1.40153e-05)
(0.00242263 7.54778e-06 -1.52719e-05)
(0.00240765 3.68119e-06 -1.47084e-05)
(0.00227686 -9.23038e-06 -2.7586e-05)
(0.00248822 2.76635e-05 -2.85905e-05)
(0.00245863 2.6578e-05 -2.35324e-05)
(0.00250226 2.28901e-05 -1.8954e-05)
(0.00245645 1.7257e-05 -1.55574e-05)
(0.00246945 1.31005e-05 -1.20448e-05)
(0.0024079 8.08966e-06 -1.30036e-05)
(0.00238893 5.66057e-06 -1.46346e-05)
(0.00227787 -3.29843e-06 -2.87982e-05)
(0.00239661 2.15005e-05 -2.85107e-05)
(0.00240449 2.80362e-05 -2.27732e-05)
(0.00240076 2.75274e-05 -1.8041e-05)
(0.00240076 2.75274e-05 -1.8041e-05)
(0.00240076 2.75274e-05 -1.8041e-05)
(0.00243041 1.79564e-05 -2.88688e-05)
(0.00246476 2.35553e-05 -2.36047e-05)
(0.00246476 2.35553e-05 -2.36047e-05)
(0.00246476 2.35553e-05 -2.36047e-05)
(0.00241339 1.46042e-05 -2.83496e-05)
(0.00241339 1.46042e-05 -2.83496e-05)
)
;
    }
    procBoundary5to4
    {
        type            processor;
        value           nonuniform List<vector> 
12
(
(0.00241647 3.68629e-06 -2.55475e-05)
(0.00244884 3.21128e-06 -2.5819e-05)
(0.00241584 4.67114e-06 -2.59085e-05)
(0.0024009 6.24315e-06 -2.65375e-05)
(0.00241768 -8.43578e-07 -1.82704e-05)
(0.002445 -1.0476e-06 -1.80891e-05)
(0.00241841 1.00678e-06 -1.87172e-05)
(0.00239759 3.28083e-06 -1.99796e-05)
(0.00238083 -2.53904e-06 -1.39443e-05)
(0.00239022 -2.49306e-06 -1.43258e-05)
(0.0023739 -7.50036e-07 -1.51448e-05)
(0.00236358 1.63822e-06 -1.66122e-05)
)
;
    }
    procBoundary5to7
    {
        type            processor;
        value           nonuniform List<vector> 
44
(
(0.00244287 1.41095e-05 -2.37408e-05)
(0.00240789 1.38863e-05 -1.89108e-05)
(0.00243126 1.2846e-05 -1.40732e-05)
(0.00241334 1.12664e-05 -9.38383e-06)
(0.0024246 1.06614e-05 -4.632e-06)
(0.00234676 9.46002e-06 -3.51942e-06)
(0.00231136 9.32404e-06 -2.61834e-06)
(0.00223846 1.08147e-05 -9.35924e-06)
(0.00241248 1.23608e-05 -2.87418e-05)
(0.00244287 1.41095e-05 -2.37408e-05)
(0.00237841 8.63613e-06 -1.38105e-05)
(0.00240352 7.72468e-06 -8.92832e-06)
(0.00237116 6.67296e-06 -4.08515e-06)
(0.00238028 5.73533e-06 1.90227e-06)
(0.00232674 5.02235e-06 6.65422e-06)
(0.00230774 5.81305e-06 1.34468e-05)
(0.00222355 3.84263e-06 1.77851e-05)
(0.00237905 7.95919e-06 -2.40261e-05)
(0.00237841 8.63613e-06 -1.38105e-05)
(0.00242136 7.52669e-06 -2.04235e-05)
(0.00237841 8.63613e-06 -1.38105e-05)
(0.00240352 7.72468e-06 -8.92832e-06)
(0.00235798 1.74922e-06 -3.43721e-07)
(0.00237165 4.22717e-07 5.73523e-06)
(0.00232958 -1.31372e-06 1.32675e-05)
(0.00231257 -2.21961e-06 2.17055e-05)
(0.00221768 -4.15635e-06 3.79981e-05)
(0.00238312 5.34481e-06 -1.8901e-05)
(0.00241283 4.64209e-06 -1.61782e-05)
(0.00237205 3.37856e-06 -1.3019e-05)
(0.00235798 1.74922e-06 -3.43721e-07)
(0.00238953 1.91328e-06 -9.3481e-06)
(0.00235798 1.74922e-06 -3.43721e-07)
(0.00237165 4.22717e-07 5.73523e-06)
(0.00230571 -6.16792e-06 1.59998e-05)
(0.0023033 -6.53272e-06 2.57816e-05)
(0.00220066 -1.14715e-05 4.11675e-05)
(0.00235478 3.62109e-06 -1.6212e-05)
(0.00237101 2.62033e-06 -1.40167e-05)
(0.00234822 1.09086e-06 -1.13187e-05)
(0.00237028 -6.5185e-07 -8.36963e-06)
(0.00233179 -2.23998e-06 -4.0155e-06)
(0.00230571 -6.16792e-06 1.59998e-05)
(0.00233163 -3.23838e-06 1.42288e-07)
)
;
    }
}


// ************************************************************************* //
