/*--------------------------------*- C++ -*----------------------------------*\
| =========                 |                                                 |
| \\      /  F ield         | OpenFOAM: The Open Source CFD Toolbox           |
|  \\    /   O peration     | Version:  4.x                                   |
|   \\  /    A nd           | Web:      www.OpenFOAM.org                      |
|    \\/     M anipulation  |                                                 |
\*---------------------------------------------------------------------------*/
FoamFile
{
    version     2.0;
    format      ascii;
    class       volScalarField;
    location    "45";
    object      Qsource;
}
// * * * * * * * * * * * * * * * * * * * * * * * * * * * * * * * * * * * * * //

dimensions      [1 -1 -3 0 0 0 0];

internalField   nonuniform List<scalar> 
114
(
8.6492e+09
7.37918e+09
7.72686e+09
5.71232e+09
8.40084e+09
5.90744e+09
7.2593e+09
7.04924e+09
5.89347e+09
8.26509e+09
8.50196e+09
1.01337e+10
6.54832e+09
9.95617e+09
6.14718e+09
8.71618e+09
5.8872e+09
5.32051e+09
7.4657e+09
6.2541e+09
6.6457e+09
7.10067e+09
6.59538e+09
8.00974e+09
7.30314e+09
6.98898e+09
9.32799e+09
7.59706e+09
7.82719e+09
5.27032e+09
8.10817e+09
8.23819e+09
9.22391e+09
8.99576e+09
8.82926e+09
1.01562e+10
5.39023e+09
1.06697e+10
6.35726e+09
8.5119e+09
5.51521e+09
7.28526e+09
9.12478e+09
6.20815e+09
8.45309e+09
7.34589e+09
8.15033e+09
4.52353e+09
1.02713e+10
5.06981e+09
7.67911e+09
1.04015e+10
7.74664e+09
9.4442e+09
7.95504e+09
8.91663e+09
6.99445e+09
9.62412e+09
5.37478e+09
6.19688e+09
1.09044e+10
7.01265e+09
9.1231e+09
8.31439e+09
9.19774e+09
1.07658e+10
8.72725e+09
4.79521e+09
7.41579e+09
7.78786e+09
7.82313e+09
7.39475e+09
1.13694e+10
9.2813e+09
9.07935e+09
1.10212e+10
8.29835e+09
5.30158e+09
1.17358e+10
9.54804e+09
9.9802e+09
3.71825e+09
8.80926e+09
5.79929e+09
9.76842e+09
7.33759e+09
8.10155e+09
8.39448e+09
1.06204e+10
6.113e+09
7.47655e+09
9.13506e+09
5.55425e+09
7.88626e+09
8.68924e+09
8.699e+09
5.92218e+09
1.01171e+10
5.67994e+09
6.53588e+09
8.20821e+09
9.17487e+09
8.77817e+09
6.72162e+09
1.04454e+10
7.47374e+09
9.33359e+09
6.89005e+09
7.62632e+09
7.35411e+09
7.7528e+09
7.63406e+09
1.08106e+10
9.48152e+09
)
;

boundaryField
{
    inlet
    {
        type            calculated;
        value           nonuniform 0();
    }
    outlet
    {
        type            calculated;
        value           uniform 0;
    }
    wall
    {
        type            calculated;
        value           uniform 0;
    }
    procBoundary5to1
    {
        type            processor;
        value           nonuniform List<scalar> 
32
(
1.05994e+10
6.56561e+09
1.06889e+10
8.02456e+09
8.50419e+09
3.57787e+09
6.50205e+09
8.11225e+09
8.19904e+09
9.09719e+09
7.64899e+09
9.46354e+09
3.71215e+09
7.88102e+09
5.49157e+09
1.11467e+10
8.87795e+09
1.07061e+10
7.49146e+09
9.68134e+09
3.37682e+09
6.86203e+09
6.37664e+09
7.89215e+09
7.89215e+09
7.89215e+09
7.8575e+09
1.21981e+10
1.21981e+10
1.21981e+10
5.89589e+09
5.89589e+09
)
;
    }
    procBoundary5to4
    {
        type            processor;
        value           nonuniform List<scalar> 
12
(
1.05218e+10
1.11087e+10
6.74025e+09
7.05831e+09
1.04319e+10
1.0503e+10
8.63658e+09
8.13738e+09
1.00667e+10
9.468e+09
7.90983e+09
7.94246e+09
)
;
    }
    procBoundary5to7
    {
        type            processor;
        value           nonuniform List<scalar> 
44
(
9.15786e+09
6.46218e+09
7.98311e+09
1.11093e+10
1.25423e+10
8.00365e+09
6.53206e+09
6.13462e+09
1.00775e+10
9.15786e+09
6.55062e+09
8.64478e+09
6.99814e+09
8.22051e+09
8.82936e+09
9.90284e+09
6.10423e+09
3.84962e+09
6.55062e+09
1.01027e+10
6.55062e+09
8.64478e+09
5.02273e+09
7.29377e+09
8.27253e+09
7.67859e+09
4.67094e+09
8.57323e+09
9.15888e+09
7.0905e+09
5.02273e+09
6.53515e+09
5.02273e+09
7.29377e+09
6.26376e+09
9.13478e+09
5.23553e+09
7.72069e+09
7.86658e+09
7.93729e+09
9.53189e+09
5.58455e+09
6.26376e+09
5.81806e+09
)
;
    }
}


// ************************************************************************* //
