/*--------------------------------*- C++ -*----------------------------------*\
| =========                 |                                                 |
| \\      /  F ield         | OpenFOAM: The Open Source CFD Toolbox           |
|  \\    /   O peration     | Version:  4.x                                   |
|   \\  /    A nd           | Web:      www.OpenFOAM.org                      |
|    \\/     M anipulation  |                                                 |
\*---------------------------------------------------------------------------*/
FoamFile
{
    version     2.0;
    format      ascii;
    class       volScalarField;
    location    "16";
    object      Deff;
}
// * * * * * * * * * * * * * * * * * * * * * * * * * * * * * * * * * * * * * //

dimensions      [0 2 -1 0 0 0 0];

internalField   nonuniform List<scalar> 
114
(
9.7978e-08
9.78799e-08
9.78767e-08
9.78358e-08
9.78199e-08
9.78288e-08
9.79823e-08
9.79899e-08
9.79248e-08
9.78425e-08
9.77439e-08
9.77275e-08
9.77957e-08
9.79053e-08
9.79503e-08
9.78412e-08
9.78492e-08
9.78429e-08
9.77322e-08
9.78013e-08
9.77317e-08
9.80519e-08
9.8077e-08
9.79138e-08
9.79095e-08
9.77984e-08
9.77432e-08
9.77288e-08
9.77881e-08
9.78194e-08
9.79465e-08
9.79063e-08
9.77888e-08
9.77778e-08
9.76715e-08
9.76406e-08
9.77051e-08
9.76216e-08
9.7723e-08
9.7859e-08
9.79415e-08
9.77818e-08
9.76974e-08
9.76795e-08
9.76301e-08
9.7596e-08
9.76157e-08
9.76978e-08
9.77572e-08
9.78702e-08
9.79931e-08
9.78746e-08
9.78867e-08
9.77866e-08
9.77347e-08
9.77146e-08
9.76901e-08
9.7701e-08
9.7774e-08
9.79629e-08
9.78189e-08
9.78478e-08
9.77415e-08
9.7639e-08
9.7616e-08
9.7553e-08
9.76468e-08
9.77488e-08
9.78803e-08
9.78254e-08
9.77259e-08
9.76827e-08
9.74941e-08
9.75391e-08
9.74988e-08
9.74973e-08
9.75495e-08
9.78843e-08
9.76708e-08
9.75876e-08
9.76037e-08
9.82372e-08
9.8007e-08
9.80549e-08
9.78436e-08
9.78163e-08
9.78496e-08
9.77492e-08
9.77648e-08
9.78163e-08
9.80023e-08
9.79341e-08
9.79854e-08
9.78376e-08
9.76858e-08
9.77019e-08
9.77702e-08
9.76967e-08
9.77659e-08
9.79285e-08
9.78489e-08
9.76907e-08
9.7686e-08
9.76222e-08
9.75469e-08
9.76301e-08
9.76258e-08
9.76536e-08
9.78577e-08
9.78251e-08
9.76714e-08
9.7679e-08
9.7498e-08
9.75709e-08
)
;

boundaryField
{
    inlet
    {
        type            calculated;
        value           nonuniform 0();
    }
    outlet
    {
        type            calculated;
        value           uniform 0;
    }
    wall
    {
        type            calculated;
        value           uniform 0;
    }
    procBoundary5to1
    {
        type            processor;
        value           uniform 0;
    }
    procBoundary5to4
    {
        type            processor;
        value           uniform 0;
    }
    procBoundary5to7
    {
        type            processor;
        value           uniform 0;
    }
}


// ************************************************************************* //
