/*--------------------------------*- C++ -*----------------------------------*\
| =========                 |                                                 |
| \\      /  F ield         | OpenFOAM: The Open Source CFD Toolbox           |
|  \\    /   O peration     | Version:  4.x                                   |
|   \\  /    A nd           | Web:      www.OpenFOAM.org                      |
|    \\/     M anipulation  |                                                 |
\*---------------------------------------------------------------------------*/
FoamFile
{
    version     2.0;
    format      ascii;
    class       volScalarField;
    location    "16";
    object      KslNext;
}
// * * * * * * * * * * * * * * * * * * * * * * * * * * * * * * * * * * * * * //

dimensions      [1 -3 -1 0 0 0 0];

internalField   nonuniform List<scalar> 
114
(
2882.5
7222.17
2571.75
7671.6
2025.98
5082.55
23820.2
3417.59
17285.8
3310.02
12160.8
3449.06
5131.96
3576.8
41905.8
3483.95
58237.9
3396.67
548047
3385.93
21611.4
7558.82
3217.89
8626.8
3173.73
10304.6
3184.76
14649.9
3605.17
34857.4
533591
3839.95
4.97042e+09
3899.8
314907
4062.16
9.72637e+09
4923.1
38240.9
4.01947e+08
3911.71
321843
3882.41
4.69594e+09
3902.97
8.79947e+09
3801.62
20694.2
3.83417e+08
4035.49
6640.85
3051.41
6641.38
2847.07
6568.85
2547.3
6119.98
2073.27
4121.55
25541.7
3603.37
25417.3
3478.33
18012.5
3374.64
11756.7
3387.35
4778.24
22090.6
3527.6
20930.3
3423.25
20940.8
3386.61
17593.3
3537.94
11749
30293.7
3905.8
76630.5
4022.81
5354.71
2868.48
5238.77
2682.43
5106.38
2319.44
4949.4
1679.44
3746.68
6337.08
3101.37
6057.3
2974.76
6012.49
2881.69
5714.72
2759.78
3376.6
7401.33
3180.01
7361.19
3077.5
7294.08
3011.47
7651.59
3002.73
9103.06
8926.7
3362.18
8006.49
3345.69
8025.92
3401.43
)
;

boundaryField
{
    inlet
    {
        type            zeroGradient;
    }
    outlet
    {
        type            zeroGradient;
    }
    wall
    {
        type            zeroGradient;
    }
    procBoundary5to1
    {
        type            processor;
        value           uniform 0;
    }
    procBoundary5to4
    {
        type            processor;
        value           uniform 0;
    }
    procBoundary5to7
    {
        type            processor;
        value           uniform 0;
    }
}


// ************************************************************************* //
