/*--------------------------------*- C++ -*----------------------------------*\
| =========                 |                                                 |
| \\      /  F ield         | OpenFOAM: The Open Source CFD Toolbox           |
|  \\    /   O peration     | Version:  4.x                                   |
|   \\  /    A nd           | Web:      www.OpenFOAM.org                      |
|    \\/     M anipulation  |                                                 |
\*---------------------------------------------------------------------------*/
FoamFile
{
    version     2.0;
    format      ascii;
    class       volScalarField;
    location    "16";
    object      SPartFluid;
}
// * * * * * * * * * * * * * * * * * * * * * * * * * * * * * * * * * * * * * //

dimensions      [1 -3 -1 0 0 0 0];

internalField   nonuniform List<scalar> 
114
(
6.81774e-65
8.05786e-65
6.35391e-65
6.74168e-65
7.59439e-65
8.4469e-65
6.8169e-65
5.65531e-65
5.81071e-65
6.6637e-65
8.2137e-65
8.52412e-65
7.90427e-65
8.44331e-65
6.04223e-65
7.51475e-65
5.73329e-65
4.57155e-65
7.28388e-65
5.42435e-65
8.67908e-65
6.35279e-65
4.80358e-65
6.97266e-65
5.42346e-65
6.43106e-65
6.81903e-65
7.12923e-65
5.65713e-65
5.96711e-65
7.04983e-65
6.81746e-65
8.52188e-65
7.12778e-65
8.36789e-65
8.13611e-65
5.26931e-65
8.60172e-65
6.89697e-65
8.21211e-65
4.57082e-65
7.28227e-65
7.59262e-65
6.19857e-65
7.05131e-65
7.12907e-65
6.89683e-65
5.57952e-65
9.99448e-65
4.33871e-65
6.66322e-65
8.21303e-65
6.74086e-65
7.36103e-65
6.97384e-65
6.89679e-65
6.66449e-65
7.28466e-65
6.5872e-65
5.42345e-65
8.36758e-65
6.04342e-65
7.12836e-65
7.12866e-65
7.0515e-65
9.14421e-65
6.43209e-65
5.50221e-65
6.89546e-65
6.35322e-65
6.89572e-65
6.0437e-65
1.00732e-64
7.36151e-65
8.2142e-65
8.91182e-65
8.67943e-65
4.80384e-65
9.37541e-65
8.98813e-65
7.98106e-65
2.63462e-65
6.89647e-65
4.57191e-65
7.12911e-65
6.04438e-65
4.95967e-65
6.9747e-65
6.27733e-65
6.04485e-65
6.3537e-65
6.58629e-65
4.33917e-65
5.65671e-65
7.43909e-65
6.5094e-65
4.57221e-65
7.05219e-65
6.04477e-65
6.12121e-65
6.43128e-65
8.52341e-65
6.97392e-65
5.88926e-65
8.05924e-65
6.5095e-65
6.74212e-65
6.81968e-65
7.3612e-65
5.65651e-65
7.12888e-65
5.57931e-65
9.68638e-65
7.74936e-65
)
;

boundaryField
{
    inlet
    {
        type            calculated;
        value           nonuniform 0();
    }
    outlet
    {
        type            calculated;
        value           uniform 0;
    }
    wall
    {
        type            calculated;
        value           uniform 0;
    }
    procBoundary5to1
    {
        type            processor;
        value           nonuniform List<scalar> 
32
(
7.97971e-65
5.73348e-65
8.44603e-65
7.05164e-65
5.73455e-65
4.18467e-65
5.65464e-65
6.12001e-65
6.97296e-65
6.97356e-65
6.58659e-65
7.20669e-65
4.41708e-65
6.35133e-65
5.11223e-65
9.06363e-65
8.28997e-65
8.75564e-65
6.81899e-65
7.904e-65
3.48714e-65
6.58442e-65
5.26789e-65
8.05672e-65
8.05672e-65
8.05672e-65
7.04886e-65
9.99258e-65
9.99258e-65
9.99258e-65
5.73203e-65
5.73203e-65
)
;
    }
    procBoundary5to4
    {
        type            processor;
        value           nonuniform List<scalar> 
12
(
8.90969e-65
9.06409e-65
5.65557e-65
5.96571e-65
8.21328e-65
8.1355e-65
6.81829e-65
6.81864e-65
7.20672e-65
7.59372e-65
6.27639e-65
6.35407e-65
)
;
    }
    procBoundary5to7
    {
        type            processor;
        value           nonuniform List<scalar> 
44
(
7.82439e-65
6.43013e-65
6.74042e-65
1.03048e-64
1.03831e-64
7.9814e-65
5.6569e-65
8.36922e-65
9.91603e-65
7.82439e-65
6.43062e-65
7.36054e-65
6.74099e-65
6.89636e-65
8.6014e-65
8.44671e-65
7.36194e-65
3.9517e-65
6.43062e-65
8.52315e-65
6.43062e-65
7.36054e-65
5.03664e-65
5.81178e-65
7.36182e-65
6.04454e-65
5.81212e-65
8.05875e-65
7.36128e-65
6.81899e-65
5.03664e-65
5.19186e-65
5.03664e-65
5.81178e-65
5.50213e-65
6.43216e-65
6.12221e-65
6.89665e-65
5.81185e-65
7.67163e-65
7.43935e-65
5.19216e-65
5.50213e-65
3.87479e-65
)
;
    }
}


// ************************************************************************* //
