/*--------------------------------*- C++ -*----------------------------------*\
| =========                 |                                                 |
| \\      /  F ield         | OpenFOAM: The Open Source CFD Toolbox           |
|  \\    /   O peration     | Version:  4.x                                   |
|   \\  /    A nd           | Web:      www.OpenFOAM.org                      |
|    \\/     M anipulation  |                                                 |
\*---------------------------------------------------------------------------*/
FoamFile
{
    version     2.0;
    format      ascii;
    class       volVectorField;
    location    "16";
    object      Us;
}
// * * * * * * * * * * * * * * * * * * * * * * * * * * * * * * * * * * * * * //

dimensions      [0 1 -1 0 0 0 0];

internalField   nonuniform List<vector> 
114
(
(-6.12027e-07 6.74009e-08 5.77261e-08)
(-6.53279e-07 3.75545e-08 8.70879e-08)
(-7.95077e-07 7.29655e-08 8.52388e-08)
(-3.87165e-07 5.68648e-08 -7.23417e-10)
(-2.85199e-07 6.67756e-08 -5.97091e-08)
(4.00065e-07 -3.16075e-06 1.09659e-08)
(-1.05563e-06 1.02357e-07 1.31669e-07)
(-9.82756e-07 1.2007e-07 7.2021e-08)
(-1.08075e-06 1.56101e-07 7.78966e-08)
(-1.04955e-06 1.22166e-07 6.63103e-08)
(-8.02317e-07 7.61492e-08 -1.7444e-08)
(-4.57143e-07 9.0845e-08 -1.19127e-07)
(2.39867e-07 -1.76138e-06 -3.26682e-08)
(-1.24423e-06 4.52282e-08 2.46987e-07)
(-1.22879e-06 1.03794e-07 1.96435e-07)
(-1.25278e-06 5.39589e-08 1.60527e-07)
(-1.29807e-06 1.12057e-07 1.30324e-07)
(-1.26556e-06 8.73983e-08 1.45057e-08)
(-9.62904e-07 6.20478e-08 -1.16041e-07)
(-5.4353e-07 8.84507e-08 -1.26336e-07)
(-1.90005e-07 3.24698e-07 -9.20507e-09)
(-4.94945e-07 9.97141e-09 1.2605e-07)
(-4.27698e-07 -5.48892e-08 9.18833e-08)
(-4.38129e-07 -3.26764e-09 8.83285e-08)
(-3.59246e-07 -4.03494e-09 4.24039e-08)
(-4.14803e-07 -1.63673e-08 -2.55393e-08)
(-4.29744e-07 2.68906e-08 6.83906e-09)
(-3.55874e-07 5.361e-08 -3.64567e-08)
(-2.09954e-07 4.81282e-08 -3.05726e-08)
(-1.29681e-07 8.14395e-08 1.84308e-08)
(-9.39647e-07 -6.44193e-08 1.75876e-07)
(-1.02829e-06 -2.76803e-07 2.05008e-07)
(-7.86687e-07 2.95787e-08 8.23333e-08)
(-7.41407e-07 -4.20518e-08 4.71863e-08)
(-8.19689e-07 -2.83918e-08 1.81724e-08)
(-8.96631e-07 4.77126e-08 -1.27653e-09)
(-7.41359e-07 1.01921e-07 -8.5672e-08)
(-4.17863e-07 1.44701e-07 -1.25002e-07)
(-1.96608e-07 7.65141e-08 -1.70519e-08)
(-9.81272e-07 -3.84331e-08 1.25811e-07)
(-1.03474e-06 2.97774e-08 2.13936e-07)
(-1.03128e-06 3.64486e-08 1.73533e-07)
(-1.09499e-06 -1.31183e-08 1.0822e-07)
(-1.08997e-06 1.36055e-08 6.97622e-08)
(-1.06353e-06 4.84719e-08 -2.88901e-08)
(-8.13338e-07 7.01506e-08 -1.06722e-07)
(-4.75697e-07 7.97691e-08 -1.02118e-07)
(-1.506e-07 6.97969e-08 -3.56584e-08)
(-1.0625e-06 -2.61741e-08 1.49086e-07)
(-1.14967e-06 7.25991e-08 2.02349e-07)
(-3.82934e-07 2.08955e-08 9.21659e-08)
(-3.44814e-07 -5.42317e-08 1.317e-08)
(-2.9374e-07 8.14036e-09 5.93228e-08)
(-2.9739e-07 -8.23827e-08 1.04322e-07)
(-3.71366e-07 -5.75479e-09 5.00801e-08)
(-4.07761e-07 2.60878e-08 2.75883e-08)
(-2.97395e-07 3.72152e-08 -5.28386e-08)
(-2.14562e-07 6.18773e-08 -6.11469e-08)
(-8.94822e-08 4.76769e-08 3.0246e-09)
(-5.50357e-07 9.79765e-08 1.72631e-07)
(-5.42275e-07 -4.87627e-08 8.87695e-08)
(-5.04391e-07 -6.2497e-08 4.79251e-08)
(-1.0397e-06 -2.58321e-07 1.23499e-09)
(-7.02576e-07 -1.64953e-08 7.38584e-08)
(-7.44754e-07 -6.59365e-08 -6.28646e-09)
(-5.26563e-07 8.43589e-08 -7.08912e-08)
(-3.75081e-07 9.28654e-08 -8.92016e-08)
(-1.40441e-07 3.54687e-08 -5.34079e-08)
(-8.59469e-07 -4.04657e-08 8.7934e-08)
(-8.48053e-07 -7.60879e-08 1.4381e-07)
(-7.46954e-07 -1.24966e-07 1.53674e-07)
(-8.60635e-07 -6.11625e-08 1.08221e-07)
(-8.84154e-07 -2.02739e-08 5.16838e-08)
(-8.84852e-07 9.91852e-09 -5.59789e-08)
(-6.35269e-07 8.33891e-09 -9.90454e-08)
(-3.48526e-07 3.34975e-08 -9.97078e-08)
(-1.9158e-07 2.82677e-08 -6.26866e-08)
(-8.26143e-07 -8.96139e-08 -6.02922e-08)
(-9.42191e-07 -2.18566e-08 8.93435e-08)
(-9.4856e-07 -2.22854e-08 1.19139e-07)
(-8.94248e-07 -4.44672e-08 9.73329e-08)
(-1.77073e-07 -4.29105e-08 5.27401e-08)
(-2.506e-07 -3.50307e-08 4.21342e-09)
(-1.66053e-07 2.52532e-08 1.73468e-08)
(-2.11487e-07 -3.30982e-08 5.84951e-08)
(-3.2117e-07 2.18015e-08 1.85547e-08)
(-3.5194e-07 -1.16178e-08 2.13297e-08)
(-2.1811e-07 3.86321e-08 -1.32123e-08)
(-1.27035e-07 5.48332e-08 -4.934e-08)
(-4.14154e-08 3.73985e-08 -3.18281e-08)
(-3.16529e-07 -1.80016e-08 7.65388e-08)
(-3.34932e-07 -6.62121e-08 -3.88912e-09)
(-5.60856e-06 1.6692e-06 1.4114e-06)
(-1.45173e-06 -4.02012e-07 6.76495e-08)
(1.71775e-06 2.47422e-06 1.09648e-07)
(-4.72794e-07 -5.51621e-09 -3.60574e-08)
(-4.94739e-07 1.28775e-08 -3.76326e-08)
(-1.88378e-07 4.65323e-08 -3.81543e-08)
(-8.0344e-08 2.54906e-08 -3.52636e-08)
(-3.24662e-07 -8.09773e-08 3.66029e-08)
(-3.7747e-07 -2.46574e-08 2.39436e-08)
(-1.53786e-07 -6.91236e-09 8.87648e-08)
(-6.30664e-07 1.79929e-08 3.7839e-08)
(2.10181e-07 7.68281e-07 2.97274e-08)
(-6.5509e-07 -2.60026e-08 -5.42538e-08)
(-4.52885e-07 -2.49897e-08 -7.58116e-08)
(-2.5496e-07 2.4956e-10 -4.83867e-08)
(-1.17168e-07 1.05782e-08 -4.92337e-08)
(-5.83328e-07 -1.55187e-07 2.42783e-08)
(-5.3496e-07 -1.06613e-07 3.12128e-08)
(-8.05317e-07 -1.5251e-06 6.63323e-08)
(-5.24862e-07 4.94914e-08 6.66867e-08)
(-6.19184e-07 -2.83052e-08 1.08328e-08)
(-6.14254e-07 -6.57255e-08 -1.1496e-07)
)
;

boundaryField
{
    inlet
    {
        type            zeroGradient;
    }
    outlet
    {
        type            zeroGradient;
    }
    wall
    {
        type            zeroGradient;
    }
    procBoundary5to1
    {
        type            processor;
        value           nonuniform List<vector> 
32
(
(-6.09181e-07 6.22154e-08 5.31735e-08)
(-7.39417e-07 9.56074e-08 1.21162e-07)
(-9.14935e-07 1.34225e-07 9.53959e-08)
(-5.2785e-07 6.96467e-08 1.24864e-08)
(-3.07012e-07 5.56577e-08 -7.57252e-08)
(-1.85608e-07 1.7357e-07 -6.24429e-08)
(-1.15797e-06 9.56365e-08 1.69145e-07)
(-1.11408e-06 1.09912e-07 1.1358e-07)
(-1.18481e-06 2.1842e-07 1.24607e-07)
(-1.46709e-06 3.66663e-08 2.22833e-07)
(-8.04549e-07 1.13358e-07 -2.09859e-08)
(-4.73902e-07 5.95946e-08 -1.18365e-07)
(-2.31037e-07 -7.32723e-08 -4.1744e-08)
(-1.47772e-06 1.03424e-07 2.92244e-07)
(-1.43177e-06 1.89494e-07 2.14805e-07)
(-1.42143e-06 1.06448e-07 1.8353e-07)
(-1.54383e-06 1.3562e-07 1.52025e-07)
(-1.48594e-06 1.05908e-07 5.95428e-08)
(-8.04312e-07 4.51508e-08 -9.86637e-08)
(-5.30208e-07 2.5539e-08 -1.24945e-07)
(-2.37983e-07 -2.21658e-08 -2.95494e-08)
(-5.90764e-07 -3.6167e-08 9.10293e-08)
(-4.84846e-07 -1.02849e-07 1.32684e-07)
(-4.75865e-07 -1.06028e-08 1.10484e-07)
(-4.75865e-07 -1.06028e-08 1.10484e-07)
(-4.75865e-07 -1.06028e-08 1.10484e-07)
(-1.0323e-06 1.31971e-08 1.84362e-07)
(-1.04488e-06 1.05389e-08 2.1168e-07)
(-1.04488e-06 1.05389e-08 2.1168e-07)
(-1.04488e-06 1.05389e-08 2.1168e-07)
(-1.15903e-06 2.06384e-08 1.85079e-07)
(-1.15903e-06 2.06384e-08 1.85079e-07)
)
;
    }
    procBoundary5to4
    {
        type            processor;
        value           nonuniform List<vector> 
12
(
(-1.27544e-06 5.98375e-07 5.15667e-07)
(-2.59839e-06 1.05374e-06 9.30213e-07)
(-9.17058e-07 -1.78668e-07 3.42207e-08)
(-9.63059e-07 -7.35526e-08 9.26174e-08)
(-2.73103e-07 -3.32648e-08 3.48807e-08)
(-5.22649e-07 -2.86553e-08 9.07328e-08)
(-7.54828e-07 -1.72496e-07 -7.88486e-09)
(-7.33551e-07 -7.59468e-08 -9.97083e-08)
(-1.51677e-07 -1.68718e-08 2.89062e-08)
(-3.2276e-07 -6.04515e-08 3.82291e-08)
(-3.93511e-07 -1.45331e-07 -1.08029e-08)
(-5.37913e-07 -8.66493e-08 -9.89372e-09)
)
;
    }
    procBoundary5to7
    {
        type            processor;
        value           nonuniform List<vector> 
44
(
(-1.32299e-06 9.63755e-08 2.29147e-07)
(-1.3568e-06 1.02999e-07 2.3582e-07)
(-1.4028e-06 5.05561e-08 1.97169e-07)
(-1.3986e-06 6.02547e-08 1.20848e-07)
(-1.50877e-06 8.81888e-08 6.86736e-08)
(-9.66458e-07 1.45841e-08 -6.25316e-08)
(-5.84682e-07 2.73338e-08 -8.45806e-08)
(-2.05234e-07 4.4736e-08 -9.3997e-08)
(-1.18328e-06 3.2411e-08 1.93264e-07)
(-1.32299e-06 9.63755e-08 2.29147e-07)
(-1.1955e-06 6.38523e-08 1.94089e-07)
(-9.15166e-07 2.02155e-07 1.97913e-07)
(-4.07701e-07 5.88569e-07 1.87312e-07)
(-1.24934e-06 -1.06053e-08 -4.26327e-08)
(-8.94406e-07 2.54869e-08 -8.42862e-08)
(-5.06351e-07 4.80192e-08 -9.11205e-08)
(-2.01242e-07 3.5039e-08 -6.9078e-08)
(-1.00737e-06 3.61007e-08 1.11965e-07)
(-1.1955e-06 6.38523e-08 1.94089e-07)
(-1.0845e-06 9.29696e-08 1.60561e-07)
(-1.1955e-06 6.38523e-08 1.94089e-07)
(-9.15166e-07 2.02155e-07 1.97913e-07)
(-5.92418e-07 2.72175e-07 6.16421e-08)
(-9.62548e-07 -1.03404e-08 -8.11667e-08)
(-6.62819e-07 6.9185e-09 -9.49379e-08)
(-4.35696e-07 5.35135e-09 -1.15367e-07)
(-1.61452e-07 9.71801e-09 -4.63971e-08)
(-8.1336e-07 -3.30065e-08 4.5852e-08)
(-9.53359e-07 4.75218e-08 1.66992e-07)
(-8.9884e-07 1.10967e-07 1.84309e-07)
(-5.92418e-07 2.72175e-07 6.16421e-08)
(-8.57062e-07 6.21213e-08 8.12123e-08)
(-5.92418e-07 2.72175e-07 6.16421e-08)
(-9.62548e-07 -1.03404e-08 -8.11667e-08)
(-5.29146e-07 -3.92456e-08 -1.54989e-07)
(-4.07594e-07 6.64153e-10 -8.80811e-08)
(-1.035e-07 1.4507e-08 -3.52861e-08)
(-4.85635e-07 -9.32323e-08 2.15772e-08)
(-5.68378e-07 -6.72993e-08 4.72404e-08)
(-5.3408e-07 -6.75307e-09 5.25378e-08)
(-5.04992e-07 2.67173e-10 2.73882e-08)
(-5.57867e-07 -5.12161e-08 2.24294e-08)
(-5.29146e-07 -3.92456e-08 -1.54989e-07)
(-7.90476e-07 -3.23555e-08 2.95503e-08)
)
;
    }
}


// ************************************************************************* //
