/*--------------------------------*- C++ -*----------------------------------*\
| =========                 |                                                 |
| \\      /  F ield         | OpenFOAM: The Open Source CFD Toolbox           |
|  \\    /   O peration     | Version:  4.x                                   |
|   \\  /    A nd           | Web:      www.OpenFOAM.org                      |
|    \\/     M anipulation  |                                                 |
\*---------------------------------------------------------------------------*/
FoamFile
{
    version     2.0;
    format      ascii;
    class       volScalarField;
    location    "1.5";
    object      Deff;
}
// * * * * * * * * * * * * * * * * * * * * * * * * * * * * * * * * * * * * * //

dimensions      [0 2 -1 0 0 0 0];

internalField   nonuniform List<scalar> 
87
(
9.81541e-08
9.8225e-08
9.81815e-08
9.83781e-08
9.83709e-08
9.8371e-08
9.83263e-08
9.8343e-08
9.835e-08
9.81575e-08
9.8027e-08
9.81028e-08
9.7962e-08
9.80073e-08
9.793e-08
9.85898e-08
9.84055e-08
9.83608e-08
9.81601e-08
9.80904e-08
9.806e-08
9.80213e-08
9.79825e-08
9.79818e-08
9.87751e-08
9.85401e-08
9.85202e-08
9.83526e-08
9.80832e-08
9.80397e-08
9.81487e-08
9.8134e-08
9.80959e-08
9.83799e-08
9.83116e-08
9.8217e-08
9.81008e-08
9.81014e-08
9.80397e-08
9.79503e-08
9.79812e-08
9.78943e-08
9.85963e-08
9.84141e-08
9.83105e-08
9.81649e-08
9.81327e-08
9.81205e-08
9.80157e-08
9.80506e-08
9.79312e-08
9.8757e-08
9.85343e-08
9.84474e-08
9.8219e-08
9.81208e-08
9.81277e-08
9.81378e-08
9.8153e-08
9.81253e-08
9.85944e-08
9.8483e-08
9.83195e-08
9.81356e-08
9.80575e-08
9.79993e-08
9.78922e-08
9.79217e-08
9.80788e-08
9.86621e-08
9.85476e-08
9.83537e-08
9.82405e-08
9.80504e-08
9.81076e-08
9.80706e-08
9.81444e-08
9.79724e-08
9.88354e-08
9.85972e-08
9.84416e-08
9.82875e-08
9.82315e-08
9.80733e-08
9.82419e-08
9.82548e-08
9.81305e-08
)
;

boundaryField
{
    inlet
    {
        type            calculated;
        value           uniform 0;
    }
    outlet
    {
        type            calculated;
        value           nonuniform 0();
    }
    wall
    {
        type            calculated;
        value           uniform 0;
    }
    procBoundary6to0
    {
        type            processor;
        value           uniform 0;
    }
    procBoundary6to2
    {
        type            processor;
        value           uniform 0;
    }
    procBoundary6to4
    {
        type            processor;
        value           uniform 0;
    }
    procBoundary6to7
    {
        type            processor;
        value           uniform 0;
    }
}


// ************************************************************************* //
