/*--------------------------------*- C++ -*----------------------------------*\
| =========                 |                                                 |
| \\      /  F ield         | OpenFOAM: The Open Source CFD Toolbox           |
|  \\    /   O peration     | Version:  4.x                                   |
|   \\  /    A nd           | Web:      www.OpenFOAM.org                      |
|    \\/     M anipulation  |                                                 |
\*---------------------------------------------------------------------------*/
FoamFile
{
    version     2.0;
    format      ascii;
    class       volScalarField;
    location    "1.5";
    object      p;
}
// * * * * * * * * * * * * * * * * * * * * * * * * * * * * * * * * * * * * * //

dimensions      [1 -1 -2 0 0 0 0];

internalField   nonuniform List<scalar> 
87
(
-1822.39
-2075.77
-2147.38
-2018.17
-2192.57
-2289.96
-3725.87
-3729.35
-3672.72
-3656.04
-3595.55
-3600.91
-3558.21
-3643.38
-3626.5
-3776.63
-3785.74
-3741.46
-3750.05
-3710.69
-3766.86
-3759.88
-3896.21
-3934.27
-3802.88
-3814.94
-3781.87
-3801.36
-3775.29
-3845.51
-3858.01
-4013.24
-4077.19
-5594.53
-5599.42
-5539.13
-5525.95
-5462.94
-5467.75
-5411.54
-5468.85
-5430.91
-5644.03
-5653.38
-5606.45
-5613.98
-5572.23
-5616.55
-5604.37
-5715.27
-5726.56
-5669.6
-5680.9
-5647.87
-5665
-5635.23
-5696.03
-5698.43
-5831.46
-5869.45
-7463.04
-7469.64
-7414.79
-7404.37
-7335.95
-7339.02
-7266.41
-7312.85
-7255.47
-7513.61
-7523.55
-7480.01
-7487.6
-7442.39
-7480.5
-7453.19
-7546.51
-7544.32
-7539.33
-7551.41
-7518.35
-7534.83
-7501.87
-7557
-7549.38
-7667.57
-7690.06
)
;

boundaryField
{
    inlet
    {
        type            calculated;
        value           nonuniform List<scalar> 9(-3725.87 -3776.63 -3802.88 -5594.53 -5644.03 -5669.6 -7463.04 -7513.61 -7539.33);
    }
    outlet
    {
        type            calculated;
        value           nonuniform 0();
    }
    wall
    {
        type            calculated;
        value           nonuniform List<scalar> 
57
(
-8401.87
-8452.44
-8478.17
-8408.37
-8462.28
-8490.14
-8353.46
-8418.7
-8457.03
-8343.03
-8426.27
-8473.5
-8274.61
-8381.06
-8440.53
-8277.7
-8419.19
-8495.67
-8205.13
-8391.91
-8488.05
-8251.63
-8485.22
-8606.24
-8194.37
-8482.98
-8628.76
-3802.88
-5669.6
-7539.33
-3814.94
-5680.9
-7551.41
-3781.87
-5647.87
-7518.35
-3801.36
-5665
-7534.83
-3775.29
-5635.23
-7501.87
-3845.51
-5696.03
-7557
-2018.17
-3858.01
-5698.43
-7549.38
-2192.57
-4013.24
-5831.46
-7667.58
-2289.96
-4077.19
-5869.45
-7690.06
)
;
    }
    procBoundary6to0
    {
        type            processor;
        value           uniform -1312.99;
    }
    procBoundary6to2
    {
        type            processor;
        value           nonuniform List<scalar> 
32
(
7.92368
-227.175
-327.476
-165.939
-357.593
-480.672
-1859.44
-1859.89
-1807.4
-1790.42
-1733.32
-1747.25
-1714.89
-1834.72
-1834.72
-1834.72
-1909.59
-1917.9
-1875.69
-1884.17
-1848.18
-1909.31
-1915.45
-1915.45
-1915.45
-1936.77
-1948.97
-1915.99
-1935.83
-1913.77
-1991.22
-1991.22
)
;
    }
    procBoundary6to4
    {
        type            processor;
        value           nonuniform List<scalar> 
27
(
-3661.29
-3663.64
-3589.62
-3552.57
-3446.66
-3395.76
-3285.88
-3267.78
-3151.41
-5533.7
-5546.61
-5451.24
-5427.39
-5321.05
-5273.67
-5155.08
-5127.15
-4994.95
-7401.62
-7407.59
-7334.6
-7305.94
-7199.35
-7152.42
-7021.89
-6991.91
-6846.7
)
;
    }
    procBoundary6to7
    {
        type            processor;
        value           nonuniform List<scalar> 
12
(
-2048.95
-2418.44
-2563.6
-3787.58
-4145.63
-4301.97
-5555.47
-5892.73
-6051.41
-7349.27
-7684.86
-7851.61
)
;
    }
}


// ************************************************************************* //
