/*--------------------------------*- C++ -*----------------------------------*\
| =========                 |                                                 |
| \\      /  F ield         | OpenFOAM: The Open Source CFD Toolbox           |
|  \\    /   O peration     | Version:  4.x                                   |
|   \\  /    A nd           | Web:      www.OpenFOAM.org                      |
|    \\/     M anipulation  |                                                 |
\*---------------------------------------------------------------------------*/
FoamFile
{
    version     2.0;
    format      ascii;
    class       volScalarField;
    location    "1.5";
    object      T;
}
// * * * * * * * * * * * * * * * * * * * * * * * * * * * * * * * * * * * * * //

dimensions      [0 0 0 1 0 0 0];

internalField   nonuniform List<scalar> 
87
(
299.999
299.996
299.999
299.995
299.996
299.998
299.995
299.99
299.987
299.986
299.988
299.989
299.992
299.995
299.998
299.995
299.992
299.989
299.988
299.989
299.991
299.993
299.994
299.997
299.997
299.993
299.992
299.991
299.991
299.992
299.994
299.995
299.997
299.995
299.991
299.988
299.987
299.988
299.99
299.992
299.994
299.996
299.996
299.992
299.989
299.989
299.989
299.991
299.993
299.993
299.996
299.997
299.993
299.992
299.991
299.992
299.993
299.994
299.995
299.996
299.996
299.992
299.99
299.99
299.99
299.991
299.993
299.994
299.995
299.996
299.993
299.991
299.991
299.991
299.992
299.993
299.994
299.995
299.998
299.994
299.993
299.992
299.994
299.994
299.995
299.996
299.996
)
;

boundaryField
{
    inlet
    {
        type            fixedValue;
        value           uniform 300;
    }
    outlet
    {
        type            zeroGradient;
    }
    wall
    {
        type            zeroGradient;
    }
    procBoundary6to0
    {
        type            processor;
        value           uniform 300.002;
    }
    procBoundary6to2
    {
        type            processor;
        value           nonuniform List<scalar> 
32
(
300.001
299.998
300
299.996
299.997
299.998
299.995
299.99
299.988
299.988
299.988
299.99
299.994
299.997
299.997
299.997
299.996
299.992
299.99
299.989
299.99
299.992
299.994
299.994
299.994
299.997
299.994
299.992
299.992
299.992
299.993
299.993
)
;
    }
    procBoundary6to4
    {
        type            processor;
        value           nonuniform List<scalar> 
27
(
299.995
299.991
299.987
299.986
299.987
299.989
299.993
299.996
299.999
299.995
299.991
299.988
299.987
299.988
299.99
299.992
299.995
299.998
299.996
299.992
299.99
299.989
299.99
299.991
299.994
299.996
299.997
)
;
    }
    procBoundary6to7
    {
        type            processor;
        value           nonuniform List<scalar> 
12
(
300.002
300
299.999
300.001
299.999
299.998
299.998
299.997
299.997
299.996
299.994
299.997
)
;
    }
}


// ************************************************************************* //
