/*--------------------------------*- C++ -*----------------------------------*\
| =========                 |                                                 |
| \\      /  F ield         | OpenFOAM: The Open Source CFD Toolbox           |
|  \\    /   O peration     | Version:  4.x                                   |
|   \\  /    A nd           | Web:      www.OpenFOAM.org                      |
|    \\/     M anipulation  |                                                 |
\*---------------------------------------------------------------------------*/
FoamFile
{
    version     2.0;
    format      ascii;
    class       volScalarField;
    location    "1.5";
    object      thCond;
}
// * * * * * * * * * * * * * * * * * * * * * * * * * * * * * * * * * * * * * //

dimensions      [1 1 -3 -1 0 0 0];

internalField   nonuniform List<scalar> 
87
(
190.534
190.672
190.588
190.969
190.955
190.955
190.869
190.901
190.915
190.541
190.288
190.435
190.162
190.249
190.099
191.38
191.022
190.936
190.546
190.411
190.352
190.277
190.201
190.2
191.74
191.284
191.245
190.92
190.397
190.312
190.524
190.495
190.421
190.973
190.84
190.657
190.431
190.432
190.312
190.139
190.199
190.03
191.393
191.039
190.838
190.555
190.493
190.469
190.266
190.333
190.102
191.705
191.272
191.104
190.66
190.47
190.483
190.503
190.532
190.479
191.389
191.173
190.856
190.498
190.347
190.234
190.026
190.083
190.388
191.521
191.298
190.922
190.702
190.333
190.444
190.372
190.516
190.182
191.857
191.395
191.092
190.793
190.685
190.378
190.705
190.73
190.489
)
;

boundaryField
{
    inlet
    {
        type            zeroGradient;
    }
    outlet
    {
        type            zeroGradient;
    }
    wall
    {
        type            zeroGradient;
    }
    procBoundary6to0
    {
        type            processor;
        value           uniform 190.854;
    }
    procBoundary6to2
    {
        type            processor;
        value           nonuniform List<scalar> 
32
(
191.041
191.017
190.899
191.198
191.444
191.265
191.613
191.193
190.934
190.869
190.795
190.682
190.555
190.534
190.534
190.534
191.611
191.329
191.057
190.919
190.795
190.732
190.523
190.523
190.523
191.914
191.53
191.342
191.089
191.048
190.904
190.904
)
;
    }
    procBoundary6to4
    {
        type            processor;
        value           nonuniform List<scalar> 
27
(
191.475
191.148
190.789
190.665
190.455
190.324
190.033
190.288
190.296
191.164
190.917
190.734
190.306
190.17
190.153
189.93
190.039
190.122
191.058
190.913
190.778
190.335
190.221
189.984
190.323
190.362
190.217
)
;
    }
    procBoundary6to7
    {
        type            processor;
        value           nonuniform List<scalar> 
12
(
190.23
190.581
190.8
190.248
190.299
190.474
189.956
190.106
190.418
190.102
190.216
190.325
)
;
    }
}


// ************************************************************************* //
