/*--------------------------------*- C++ -*----------------------------------*\
| =========                 |                                                 |
| \\      /  F ield         | OpenFOAM: The Open Source CFD Toolbox           |
|  \\    /   O peration     | Version:  4.x                                   |
|   \\  /    A nd           | Web:      www.OpenFOAM.org                      |
|    \\/     M anipulation  |                                                 |
\*---------------------------------------------------------------------------*/
FoamFile
{
    version     2.0;
    format      ascii;
    class       volScalarField;
    location    "52.5";
    object      pSmooth;
}
// * * * * * * * * * * * * * * * * * * * * * * * * * * * * * * * * * * * * * //

dimensions      [1 -1 -2 0 0 0 0];

internalField   nonuniform List<scalar> 
132
(
20.7799
74.8519
1.96733
68.3883
0.1
62.5213
0.1
57.6875
0.1
20.9983
74.9038
2.2271
68.1188
0.1
61.1362
0.1
54.6807
0.1
19.1689
74.7299
0.1
68.3783
0.1
63.057
0.1
60.2836
0.1
19.731
74.8051
0.175131
68.5319
0.1
63.1511
0.1
59.9155
0.1
3.59282
68.2872
0.1
62.4581
0.1
56.648
0.1
22.9938
75.0261
5.03653
68.5294
0.1
62.278
0.1
55.714
0.1
21.1394
74.9314
2.84205
68.3403
0.1
62.088
0.1
55.8728
0.1
21.2836
75.533
2.92545
68.9724
0.1
62.0756
0.1
55.568
0.1
0.1
61.9471
0.1
57.0792
0.1
21.4326
74.9211
2.94532
68.1254
0.1
61.0896
0.1
54.4553
0.1
20.6539
74.7756
1.41508
68.1467
0.1
62.4173
0.1
59.1187
0.1
20.8665
74.8588
1.9895
68.4001
0.1
62.605
0.1
58.722
0.1
0.1
58.8574
0.1
21.3847
75.0329
2.8258
68.4316
0.1
62.1881
0.1
56.4129
0.1
20.9179
74.917
2.21621
68.5125
0.1
62.7159
0.1
58.3706
0.1
21.2673
75.0328
2.68921
68.5841
0.1
62.3565
0.1
56.8427
0.1
)
;

boundaryField
{
    inlet
    {
        type            zeroGradient;
    }
    outlet
    {
        type            fixedValue;
        value           uniform 0;
    }
    wall
    {
        type            zeroGradient;
    }
    procBoundary7to0
    {
        type            processor;
        value           uniform 81.9972;
    }
    procBoundary7to1
    {
        type            processor;
        value           uniform 22.5744;
    }
    procBoundary7to3
    {
        type            processor;
        value           nonuniform List<scalar> 
36
(
19.2892
74.7773
0.1
68.3263
0.1
62.9921
0.1
58.8851
0.1
21.4446
74.9524
3.36265
68.7098
0.1
62.97
0.1
56.8221
0.1
19.9721
74.9469
0.824222
68.2897
0.1
62.3536
0.1
57.8392
0.1
20.1559
75.1284
1.23317
68.91
0.1
63.188
0.1
58.7682
0.1
)
;
    }
    procBoundary7to5
    {
        type            processor;
        value           nonuniform List<scalar> 
44
(
75.1329
5.00275
68.4365
0.1
61.6508
0.1
53.7199
0.1
21.5785
74.8053
2.90206
68.2732
0.1
62.1978
0.1
57.2355
0.1
21.5785
74.8053
74.8053
1.58267
68.043
0.1
61.2919
0.1
54.4285
0.1
20.6091
74.8895
1.58267
68.043
68.043
0.1
62.6649
0.1
58.5638
0.1
20.5062
74.8349
1.4043
68.4087
0.1
62.6649
62.6649
)
;
    }
    procBoundary7to6
    {
        type            processor;
        value           nonuniform List<scalar> 
12
(
82.1348
81.6046
81.6273
81.8831
82.0888
82.2333
82.2268
81.8423
81.7557
81.9262
81.7716
81.8119
)
;
    }
}


// ************************************************************************* //
