/*--------------------------------*- C++ -*----------------------------------*\
| =========                 |                                                 |
| \\      /  F ield         | OpenFOAM: The Open Source CFD Toolbox           |
|  \\    /   O peration     | Version:  4.x                                   |
|   \\  /    A nd           | Web:      www.OpenFOAM.org                      |
|    \\/     M anipulation  |                                                 |
\*---------------------------------------------------------------------------*/
FoamFile
{
    version     2.0;
    format      ascii;
    class       volVectorField;
    location    "52.5";
    object      UsNext;
}
// * * * * * * * * * * * * * * * * * * * * * * * * * * * * * * * * * * * * * //

dimensions      [0 1 -1 0 0 0 0];

internalField   nonuniform List<vector> 
132
(
(1.45078e-09 4.79025e-10 1.13244e-09)
(1.62409e-09 5.02325e-10 1.18869e-09)
(1.93454e-09 8.43976e-10 1.59088e-09)
(1.94678e-09 4.88571e-10 5.27764e-10)
(1.73155e-09 3.47684e-10 1.83761e-10)
(1.34894e-09 3.04775e-10 -4.29454e-10)
(8.31458e-10 3.19985e-10 -4.79818e-10)
(6.45616e-10 2.83733e-10 -5.15685e-10)
(3.09287e-10 6.67697e-11 1.14542e-11)
(1.39161e-09 1.16046e-10 3.60442e-10)
(1.66176e-09 2.70297e-10 4.76436e-10)
(1.78247e-09 3.6262e-10 4.51021e-10)
(1.92583e-09 4.44515e-10 2.21976e-10)
(1.56596e-09 2.64832e-10 6.0635e-11)
(1.25405e-09 2.78081e-10 -1.67361e-10)
(1.04666e-09 2.11041e-10 -2.3401e-10)
(6.43016e-10 2.55119e-10 -2.98286e-10)
(2.82332e-10 2.11633e-10 1.00901e-11)
(1.10604e-09 1.98322e-10 1.31332e-10)
(1.36098e-09 3.80337e-11 3.01767e-11)
(1.34999e-09 2.71931e-10 2.54588e-10)
(1.271e-09 3.63272e-10 1.50489e-10)
(1.13426e-09 2.21309e-10 2.35414e-11)
(8.48808e-10 1.77784e-10 3.14549e-11)
(6.05885e-10 1.8525e-10 -2.28108e-10)
(5.81411e-10 2.70224e-10 -6.51326e-10)
(1.991e-10 3.13233e-10 -2.54737e-10)
(5.90738e-10 -4.48151e-11 6.64397e-11)
(8.01204e-10 -7.27108e-11 7.07373e-11)
(6.98999e-10 1.62409e-10 1.07881e-10)
(6.72615e-10 1.94118e-10 1.21316e-10)
(5.86657e-10 1.28153e-10 1.16251e-10)
(4.22855e-10 9.94074e-11 1.40215e-10)
(2.78292e-10 7.20934e-11 -1.65943e-10)
(2.78489e-10 1.12484e-10 -6.66606e-10)
(1.31877e-10 1.09704e-10 -3.64049e-11)
(1.73949e-09 3.86174e-10 8.52294e-10)
(1.75167e-09 4.91323e-10 5.44797e-10)
(1.35846e-09 2.92878e-10 1.68606e-10)
(1.15203e-09 5.09914e-10 -4.96847e-11)
(6.84199e-10 5.49283e-10 -1.85117e-10)
(4.77667e-10 4.98405e-10 -2.1032e-10)
(2.382e-10 4.02949e-10 3.40826e-10)
(1.32135e-09 3.04525e-10 2.76802e-10)
(1.49065e-09 4.30081e-10 4.00016e-10)
(1.66447e-09 2.76433e-10 3.38543e-10)
(1.74397e-09 5.23322e-10 1.47247e-10)
(1.58363e-09 4.5455e-10 2.07667e-10)
(1.19865e-09 6.13361e-10 3.88205e-11)
(1.00112e-09 4.32676e-10 -4.24929e-11)
(7.69337e-10 3.40265e-10 1.0055e-10)
(-3.4919e-11 2.10476e-10 3.03643e-10)
(1.19365e-09 2.44473e-10 1.31113e-10)
(1.20287e-09 1.38543e-10 1.08012e-10)
(1.32584e-09 4.35066e-10 3.02004e-10)
(1.50399e-09 4.20934e-10 1.82261e-10)
(1.5651e-09 5.9827e-10 1.56558e-10)
(1.49968e-09 9.21791e-10 1.30688e-10)
(1.26477e-09 3.04294e-10 6.55678e-11)
(7.48104e-10 1.06663e-10 -1.19036e-10)
(3.10892e-10 1.22887e-10 2.31449e-10)
(5.18494e-10 -6.91039e-11 -2.70541e-13)
(6.56011e-10 -2.70132e-11 1.05909e-10)
(6.78159e-10 3.33407e-10 2.1107e-10)
(9.63678e-10 1.64173e-10 1.34851e-10)
(9.44962e-10 2.36438e-10 6.92137e-11)
(8.73918e-10 4.57369e-10 2.08289e-10)
(6.44376e-10 2.16317e-10 4.98122e-11)
(4.61291e-10 -3.30746e-11 -3.1687e-10)
(1.4454e-10 1.1874e-10 -1.79054e-11)
(1.0291e-09 4.26126e-10 1.53129e-10)
(7.08779e-10 5.11415e-10 4.04959e-11)
(3.2898e-10 5.45917e-10 1.59617e-11)
(2.36963e-10 6.06833e-10 2.60812e-10)
(1.71553e-10 5.08257e-10 5.18461e-10)
(1.16238e-09 3.58537e-10 2.22089e-10)
(1.35416e-09 5.32952e-10 1.64026e-10)
(1.28596e-09 3.81502e-10 1.19111e-10)
(1.13566e-09 5.27298e-10 2.71791e-11)
(1.04935e-09 5.18976e-10 8.48142e-11)
(8.35994e-10 6.71515e-10 -2.41563e-11)
(7.43469e-10 5.27105e-10 6.09036e-11)
(4.96972e-10 2.67645e-10 4.10128e-10)
(1.29602e-10 2.34311e-10 4.91484e-10)
(1.10643e-09 2.23215e-10 2.86062e-11)
(1.26982e-09 1.88151e-10 1.08656e-10)
(1.44847e-09 3.8538e-10 -1.05689e-11)
(1.43069e-09 5.64499e-10 4.54022e-11)
(1.44539e-09 5.66111e-10 1.95515e-10)
(1.61988e-09 6.90879e-10 1.10942e-11)
(1.40811e-09 3.76547e-10 9.76019e-11)
(1.33327e-09 -8.52624e-11 5.10725e-10)
(8.26937e-10 -2.54457e-13 7.6487e-11)
(6.40202e-10 -2.13815e-11 -6.21977e-11)
(6.85082e-10 4.96793e-11 1.79213e-11)
(8.60199e-10 7.30796e-11 1.04384e-11)
(1.21821e-09 1.75662e-10 9.53866e-11)
(1.11282e-09 2.2017e-10 1.232e-10)
(1.65629e-09 2.84945e-10 3.5288e-10)
(1.24759e-09 1.99313e-10 3.2476e-10)
(8.90878e-10 -1.72542e-11 5.11365e-10)
(6.94359e-10 2.01601e-10 1.56021e-10)
(2.92849e-10 4.03235e-10 1.21712e-10)
(3.36482e-10 5.61051e-10 2.97699e-10)
(-3.08711e-10 1.13341e-09 9.9581e-10)
(4.10579e-10 2.06368e-10 6.90095e-11)
(5.03049e-10 3.31583e-10 -3.50237e-11)
(5.59824e-10 2.21326e-10 -2.37214e-11)
(5.10702e-10 2.87595e-10 -1.08676e-13)
(3.71868e-10 3.65512e-10 8.55621e-11)
(2.65314e-10 4.31069e-10 -1.52767e-12)
(2.97051e-10 3.61556e-10 1.70972e-10)
(1.34451e-10 4.91686e-11 3.44985e-10)
(-3.95966e-10 -1.23519e-10 6.46934e-10)
(5.28445e-10 4.15192e-10 4.26902e-12)
(5.71698e-10 2.5433e-10 2.23115e-12)
(6.57666e-10 3.24168e-10 -9.48877e-11)
(7.21263e-10 3.29161e-10 4.23232e-12)
(7.48299e-10 3.61794e-10 8.59769e-11)
(6.02755e-10 3.09719e-10 -3.29551e-11)
(6.22788e-10 2.31306e-10 -5.95774e-11)
(9.9285e-10 2.45083e-10 3.53421e-10)
(7.06677e-10 2.0614e-10 -1.96406e-10)
(3.56765e-10 -1.90253e-11 -2.21714e-11)
(4.67368e-10 4.63733e-11 -2.24238e-11)
(5.55918e-10 7.02422e-11 -2.40022e-12)
(7.4234e-10 1.31471e-10 6.7978e-11)
(1.01104e-09 -6.28145e-09 4.2485e-11)
(7.92336e-10 2.17151e-10 1.99136e-10)
(1.08197e-09 1.33168e-10 8.79108e-11)
(1.78083e-09 5.04478e-10 6.03937e-10)
(-1.75283e-09 3.88517e-09 7.82142e-10)
)
;

boundaryField
{
    inlet
    {
        type            calculated;
        value           nonuniform 0();
    }
    outlet
    {
        type            calculated;
        value           nonuniform List<vector> 
16
(
(3.09287e-10 6.67697e-11 1.14542e-11)
(2.82332e-10 2.11633e-10 1.00901e-11)
(1.991e-10 3.13233e-10 -2.54737e-10)
(1.31877e-10 1.09704e-10 -3.64049e-11)
(2.382e-10 4.02949e-10 3.40826e-10)
(-3.4919e-11 2.10476e-10 3.03643e-10)
(3.10892e-10 1.22887e-10 2.31449e-10)
(1.4454e-10 1.1874e-10 -1.79054e-11)
(1.71553e-10 5.08257e-10 5.18461e-10)
(1.29602e-10 2.34311e-10 4.91484e-10)
(8.26937e-10 -2.54457e-13 7.6487e-11)
(6.94359e-10 2.01601e-10 1.56021e-10)
(-3.08711e-10 1.13341e-09 9.9581e-10)
(-3.95966e-10 -1.23519e-10 6.46934e-10)
(7.06677e-10 2.0614e-10 -1.96406e-10)
(-1.75283e-09 3.88517e-09 7.82142e-10)
)
;
    }
    wall
    {
        type            calculated;
        value           nonuniform List<vector> 
66
(
(4.10579e-10 2.06368e-10 6.90095e-11)
(5.28445e-10 4.15192e-10 4.26902e-12)
(3.56765e-10 -1.90253e-11 -2.21714e-11)
(5.03049e-10 3.31583e-10 -3.50237e-11)
(5.71698e-10 2.5433e-10 2.23115e-12)
(4.67368e-10 4.63733e-11 -2.24238e-11)
(5.59824e-10 2.21326e-10 -2.37214e-11)
(6.57666e-10 3.24168e-10 -9.48877e-11)
(5.55918e-10 7.02422e-11 -2.40022e-12)
(5.10702e-10 2.87595e-10 -1.08676e-13)
(7.21263e-10 3.29161e-10 4.23232e-12)
(7.4234e-10 1.31471e-10 6.7978e-11)
(3.71868e-10 3.65512e-10 8.55621e-11)
(7.48299e-10 3.61794e-10 8.59769e-11)
(1.01104e-09 -6.28145e-09 4.2485e-11)
(2.65314e-10 4.31069e-10 -1.52767e-12)
(6.02755e-10 3.09719e-10 -3.29551e-11)
(7.92336e-10 2.17151e-10 1.99136e-10)
(2.92849e-10 4.03235e-10 1.21712e-10)
(2.97051e-10 3.61556e-10 1.70972e-10)
(6.22788e-10 2.31306e-10 -5.95774e-11)
(1.08197e-09 1.33168e-10 8.79108e-11)
(3.36482e-10 5.61051e-10 2.97699e-10)
(1.34451e-10 4.91686e-11 3.44985e-10)
(9.9285e-10 2.45083e-10 3.53421e-10)
(1.78083e-09 5.04478e-10 6.03937e-10)
(-3.08711e-10 1.13341e-09 9.9581e-10)
(-3.95966e-10 -1.23519e-10 6.46934e-10)
(7.06677e-10 2.0614e-10 -1.96406e-10)
(-1.75283e-09 3.88517e-09 7.82142e-10)
(5.90738e-10 -4.48151e-11 6.64397e-11)
(5.18494e-10 -6.91039e-11 -2.70541e-13)
(6.40202e-10 -2.13815e-11 -6.21977e-11)
(3.56765e-10 -1.90253e-11 -2.21714e-11)
(8.01204e-10 -7.27108e-11 7.07373e-11)
(6.56011e-10 -2.70132e-11 1.05909e-10)
(6.85082e-10 4.96793e-11 1.79213e-11)
(4.67368e-10 4.63733e-11 -2.24238e-11)
(6.98999e-10 1.62409e-10 1.07881e-10)
(6.78159e-10 3.33407e-10 2.1107e-10)
(8.60199e-10 7.30796e-11 1.04384e-11)
(5.55918e-10 7.02422e-11 -2.40022e-12)
(6.72615e-10 1.94118e-10 1.21316e-10)
(9.63678e-10 1.64173e-10 1.34851e-10)
(1.21821e-09 1.75662e-10 9.53866e-11)
(7.4234e-10 1.31471e-10 6.7978e-11)
(5.86657e-10 1.28153e-10 1.16251e-10)
(9.44962e-10 2.36438e-10 6.92137e-11)
(1.11282e-09 2.2017e-10 1.232e-10)
(1.01104e-09 -6.28145e-09 4.2485e-11)
(4.22855e-10 9.94074e-11 1.40215e-10)
(8.73918e-10 4.57369e-10 2.08289e-10)
(1.65629e-09 2.84945e-10 3.5288e-10)
(7.92336e-10 2.17151e-10 1.99136e-10)
(2.78292e-10 7.20934e-11 -1.65943e-10)
(6.44376e-10 2.16317e-10 4.98122e-11)
(1.24759e-09 1.99313e-10 3.2476e-10)
(1.08197e-09 1.33168e-10 8.79108e-11)
(2.78489e-10 1.12484e-10 -6.66606e-10)
(4.61291e-10 -3.30746e-11 -3.1687e-10)
(8.90878e-10 -1.72542e-11 5.11365e-10)
(1.78083e-09 5.04478e-10 6.03937e-10)
(1.31877e-10 1.09704e-10 -3.64049e-11)
(1.4454e-10 1.1874e-10 -1.79054e-11)
(6.94359e-10 2.01601e-10 1.56021e-10)
(-1.75283e-09 3.88517e-09 7.82142e-10)
)
;
    }
    procBoundary7to0
    {
        type            processor;
        value           uniform (1.01894e-09 4.31904e-10 8.43749e-10);
    }
    procBoundary7to1
    {
        type            processor;
        value           uniform (4.93862e-10 6.97428e-10 1.75468e-09);
    }
    procBoundary7to3
    {
        type            processor;
        value           nonuniform List<vector> 
36
(
(1.50115e-09 -2.7643e-11 1.05452e-09)
(1.61996e-09 2.00825e-10 1.50967e-09)
(1.48541e-09 1.12826e-09 2.13696e-09)
(1.69912e-09 -2.33028e-10 7.61675e-10)
(1.61752e-09 -3.62368e-10 2.54856e-11)
(1.46764e-09 1.32259e-11 -6.49831e-10)
(1.21076e-09 -9.19414e-12 -8.09137e-10)
(8.35885e-10 7.83125e-11 -3.42796e-10)
(6.48681e-10 -4.16766e-11 -3.58619e-11)
(1.34607e-09 -2.07312e-10 4.68733e-10)
(1.56079e-09 -2.76787e-10 3.56647e-10)
(1.80069e-09 5.67659e-11 4.10088e-10)
(1.59775e-09 -6.39928e-11 5.19885e-11)
(1.47649e-09 -1.63111e-10 -2.06163e-10)
(1.27165e-09 -4.3575e-11 -4.08705e-10)
(8.99535e-10 -4.19507e-11 -5.32581e-10)
(5.15891e-10 7.81569e-11 -5.52597e-10)
(2.80108e-10 -1.96654e-11 -9.0917e-11)
(1.20176e-09 -2.21719e-10 1.7725e-10)
(1.25917e-09 -2.72017e-10 8.43533e-11)
(1.2789e-09 -1.09378e-11 9.11558e-11)
(1.15811e-09 -3.0775e-12 -3.96464e-11)
(1.04252e-09 -2.58079e-11 -6.89911e-11)
(6.93916e-10 1.27874e-11 -1.37845e-10)
(2.38093e-10 -9.70015e-11 -3.9975e-10)
(1.92499e-10 6.0882e-11 -1.31745e-09)
(7.27184e-11 -2.17308e-10 -1.34555e-09)
(7.13979e-10 -2.32516e-10 8.03705e-11)
(8.0786e-10 -1.8127e-10 2.89382e-11)
(7.50096e-10 -1.15138e-11 5.4901e-11)
(5.6583e-10 1.50513e-10 8.74115e-12)
(5.44716e-10 -2.32092e-12 -5.41716e-11)
(2.87344e-10 4.94758e-11 -4.75192e-11)
(-1.0731e-10 2.69018e-11 -2.87144e-10)
(-3.07113e-10 -1.26157e-10 -1.27812e-09)
(-1.79791e-10 -7.71411e-10 -2.49158e-09)
)
;
    }
    procBoundary7to5
    {
        type            processor;
        value           nonuniform List<vector> 
44
(
(1.44972e-09 7.32441e-10 2.70478e-09)
(2.04555e-09 1.05714e-09 2.49416e-09)
(2.26528e-09 6.06155e-10 1.35077e-09)
(1.71206e-09 3.07775e-10 5.14528e-10)
(1.31377e-09 1.99219e-10 -2.61924e-11)
(8.76785e-10 2.91013e-10 -3.33548e-10)
(6.17929e-10 1.80112e-10 -5.4969e-10)
(2.57741e-10 3.94e-11 -1.47091e-10)
(1.30266e-09 5.73202e-10 7.51647e-10)
(1.55336e-09 4.75987e-10 9.78028e-10)
(1.88739e-09 5.92483e-10 1.76811e-09)
(1.93707e-09 5.38524e-10 9.21857e-10)
(1.58812e-09 2.42036e-10 2.33359e-10)
(1.13023e-09 2.84688e-10 -1.22603e-11)
(8.40725e-10 3.79012e-10 -2.84477e-10)
(3.88413e-10 4.864e-10 -4.07588e-10)
(4.36836e-11 3.40146e-10 -1.47725e-10)
(1.30266e-09 5.73202e-10 7.51647e-10)
(1.55336e-09 4.75987e-10 9.78028e-10)
(1.55336e-09 4.75987e-10 9.78028e-10)
(1.47723e-09 3.80513e-10 3.63999e-10)
(1.20362e-09 3.84067e-10 2.19685e-10)
(1.183e-09 1.36884e-10 1.30787e-10)
(7.31202e-10 3.27555e-10 6.84597e-11)
(2.83775e-10 5.11121e-10 -2.24424e-10)
(-5.41441e-11 8.30888e-10 -3.1175e-10)
(-1.18493e-10 1.06213e-09 -3.75091e-10)
(1.36572e-09 5.09437e-10 2.46046e-10)
(1.39042e-09 4.99161e-10 3.92133e-10)
(1.47723e-09 3.80513e-10 3.63999e-10)
(1.20362e-09 3.84067e-10 2.19685e-10)
(1.20362e-09 3.84067e-10 2.19685e-10)
(6.08032e-10 2.89674e-10 3.72011e-11)
(3.94142e-10 3.23184e-10 1.01144e-10)
(1.93622e-10 4.24991e-10 -2.56741e-11)
(-1.14136e-10 7.86261e-10 -4.77083e-11)
(-1.21307e-10 1.48112e-09 -7.00589e-11)
(8.97347e-10 2.65928e-10 3.22062e-11)
(9.68704e-10 2.83664e-10 7.79738e-11)
(9.03205e-10 -2.61575e-10 2.90074e-11)
(7.34085e-10 9.10884e-11 8.18855e-11)
(6.08032e-10 2.89674e-10 3.72011e-11)
(3.94142e-10 3.23184e-10 1.01144e-10)
(3.94142e-10 3.23184e-10 1.01144e-10)
)
;
    }
    procBoundary7to6
    {
        type            processor;
        value           nonuniform List<vector> 
12
(
(1.20291e-09 3.85034e-10 2.81308e-10)
(1.00934e-09 6.00617e-11 9.43516e-11)
(3.02877e-10 -5.90729e-11 -1.47204e-13)
(1.25396e-09 3.72458e-10 2.1761e-10)
(9.83526e-10 8.49638e-11 1.37749e-10)
(3.06744e-10 -6.44075e-11 3.29665e-11)
(9.64389e-10 3.25018e-10 1.98776e-10)
(1.03095e-09 2.85488e-10 2.42485e-11)
(5.08291e-10 7.27868e-11 -9.27846e-11)
(4.04526e-10 1.71172e-10 3.11614e-11)
(5.31654e-10 4.33704e-10 -4.52506e-11)
(3.38386e-10 1.19592e-10 -1.04951e-10)
)
;
    }
}


// ************************************************************************* //
