/*--------------------------------*- C++ -*----------------------------------*\
| =========                 |                                                 |
| \\      /  F ield         | OpenFOAM: The Open Source CFD Toolbox           |
|  \\    /   O peration     | Version:  4.x                                   |
|   \\  /    A nd           | Web:      www.OpenFOAM.org                      |
|    \\/     M anipulation  |                                                 |
\*---------------------------------------------------------------------------*/
FoamFile
{
    version     2.0;
    format      ascii;
    class       volScalarField;
    location    "9";
    object      Cs;
}
// * * * * * * * * * * * * * * * * * * * * * * * * * * * * * * * * * * * * * //

dimensions      [1 -3 0 0 0 0 0];

internalField   nonuniform List<scalar> 
114
(
334.941
334.879
334.792
334.696
334.624
334.615
334.999
334.994
334.977
334.943
334.885
334.802
334.705
334.62
334.585
334.999
334.993
334.978
334.946
334.894
334.82
334.729
334.638
334.577
334.999
334.994
334.981
334.957
334.918
334.865
334.795
334.719
334.642
334.793
334.735
334.725
334.756
335
334.996
334.982
334.947
334.887
334.813
334.748
334.723
334.739
334.999
334.996
334.983
334.952
334.898
334.826
334.755
334.711
334.705
334.999
334.996
334.987
334.966
334.931
334.882
334.819
334.756
334.697
334.831
334.858
335
334.997
334.988
334.963
334.922
334.877
334.84
334.838
334.859
335
334.997
334.988
334.966
334.928
334.881
334.837
334.822
334.832
335
334.998
334.991
334.977
334.951
334.915
334.87
334.824
334.78
335
334.998
334.992
334.977
334.954
334.929
334.91
334.911
335
334.998
334.993
334.979
334.956
334.928
334.903
335
334.999
334.995
334.986
334.971
334.951
)
;

boundaryField
{
    inlet
    {
        type            calculated;
        value           uniform 335;
    }
    outlet
    {
        type            calculated;
        value           nonuniform 0();
    }
    wall
    {
        type            calculated;
        value           nonuniform List<scalar> 
66
(
334.999
334.999
334.999
334.994
334.993
334.994
334.977
334.978
334.981
334.941
334.943
334.946
334.957
334.879
334.885
334.894
334.918
334.792
334.802
334.82
334.865
334.696
334.705
334.729
334.795
334.624
334.62
334.638
334.719
334.615
334.585
334.577
334.642
334.999
334.999
335
335
334.994
334.996
334.998
334.999
334.981
334.987
334.991
334.995
334.957
334.966
334.977
334.986
334.918
334.931
334.951
334.971
334.865
334.882
334.915
334.951
334.795
334.819
334.87
334.719
334.756
334.824
334.642
334.697
334.78
)
;
    }
    procBoundary2to0
    {
        type            processor;
        value           nonuniform List<scalar> 
44
(
334.944
334.887
334.807
334.713
334.631
334.599
334.999
334.994
334.976
334.976
334.936
334.869
334.812
334.754
334.739
334.766
335
334.995
334.978
334.936
334.869
334.869
334.86
334.826
334.841
334.874
335
334.996
334.984
334.954
334.907
334.86
334.826
334.826
334.887
334.903
335
334.998
334.99
334.97
334.94
334.91
334.888
334.887
)
;
    }
    procBoundary2to3
    {
        type            processor;
        value           nonuniform List<scalar> 
12
(
334.679
334.618
334.572
334.581
334.831
334.803
334.754
334.655
334.907
334.907
334.881
334.749
)
;
    }
    procBoundary2to6
    {
        type            processor;
        value           nonuniform List<scalar> 
32
(
334.927
334.897
334.908
334.925
334.897
334.866
335
334.998
334.992
334.977
334.957
334.937
334.93
334.927
334.897
334.942
335
334.998
334.994
334.982
334.965
334.946
334.897
334.925
334.932
335
334.999
334.996
334.989
334.978
334.925
334.963
)
;
    }
}


// ************************************************************************* //
