/*--------------------------------*- C++ -*----------------------------------*\
| =========                 |                                                 |
| \\      /  F ield         | OpenFOAM: The Open Source CFD Toolbox           |
|  \\    /   O peration     | Version:  4.x                                   |
|   \\  /    A nd           | Web:      www.OpenFOAM.org                      |
|    \\/     M anipulation  |                                                 |
\*---------------------------------------------------------------------------*/
FoamFile
{
    version     2.0;
    format      ascii;
    class       volVectorField;
    location    "9";
    object      impParticleForces;
}
// * * * * * * * * * * * * * * * * * * * * * * * * * * * * * * * * * * * * * //

dimensions      [1 1 -2 0 0 0 0];

internalField   nonuniform List<vector> 
114
(
(0.0023685 -3.35996e-06 -8.52125e-05)
(0.00239743 -3.10963e-06 -6.45307e-05)
(0.00238674 -2.83187e-06 -4.01628e-05)
(0.00240397 -2.47808e-06 -1.78057e-05)
(0.00236528 -2.06367e-06 -4.03934e-06)
(0.00236133 -1.49426e-06 2.12737e-06)
(0.00227184 6.56724e-06 -0.000108321)
(0.00230371 7.5484e-06 -0.000107927)
(0.00234814 8.70437e-06 -0.000101145)
(0.00236978 9.21671e-06 -8.57698e-05)
(0.00240789 9.84321e-06 -6.58772e-05)
(0.00239317 9.42755e-06 -4.1186e-05)
(0.00241183 9.82583e-06 -1.8676e-05)
(0.00238284 9.53025e-06 -3.62079e-06)
(0.00236871 9.35753e-06 2.66286e-06)
(0.00224655 1.48472e-05 -0.000105633)
(0.0022837 1.61712e-05 -0.00010584)
(0.00232533 1.73418e-05 -9.94563e-05)
(0.00235473 1.78654e-05 -8.52642e-05)
(0.00239205 1.85113e-05 -6.65083e-05)
(0.00238648 1.80293e-05 -4.31783e-05)
(0.0023809 1.76773e-05 -2.08749e-05)
(0.00238689 1.80141e-05 -3.79912e-06)
(0.00238026 1.78288e-05 4.42379e-06)
(0.0022092 1.81558e-05 -0.000101928)
(0.002234 1.91871e-05 -0.000100808)
(0.00228759 2.07186e-05 -9.55834e-05)
(0.00230721 2.09081e-05 -8.18946e-05)
(0.00233837 2.1339e-05 -6.44365e-05)
(0.00234278 2.0923e-05 -4.31024e-05)
(0.00234192 2.07506e-05 -2.22841e-05)
(0.00235674 2.11985e-05 -5.5095e-06)
(0.00236637 2.15282e-05 4.31178e-06)
(0.0024419 -3.25045e-06 -3.92104e-05)
(0.00246492 -3.01233e-06 -1.52576e-05)
(0.00240756 -2.416e-06 -2.53695e-06)
(0.00242388 -1.93083e-06 3.8729e-06)
(0.00229485 7.24415e-06 -0.000108698)
(0.00234533 8.46772e-06 -0.000110307)
(0.00240829 9.95051e-06 -0.000105923)
(0.00241885 1.03284e-05 -8.82185e-05)
(0.00244913 1.07099e-05 -6.67833e-05)
(0.00242758 9.72667e-06 -4.04313e-05)
(0.00246006 9.79958e-06 -1.67501e-05)
(0.00241949 9.06904e-06 -2.45285e-06)
(0.00241472 8.74437e-06 3.68535e-06)
(0.00228001 1.63894e-05 -0.000107336)
(0.0023368 1.84502e-05 -0.000109784)
(0.0024065 2.06605e-05 -0.000106437)
(0.00241195 2.02683e-05 -8.88583e-05)
(0.00243522 2.03669e-05 -6.80377e-05)
(0.00242838 1.93562e-05 -4.3079e-05)
(0.00244535 1.91319e-05 -1.94973e-05)
(0.0024242 1.80307e-05 -2.82238e-06)
(0.00243712 1.78725e-05 6.70989e-06)
(0.00223207 1.95567e-05 -0.00010232)
(0.00227327 2.12222e-05 -0.000102869)
(0.00234475 2.36291e-05 -0.000100096)
(0.00234379 2.29172e-05 -8.38795e-05)
(0.00236524 2.28515e-05 -6.51754e-05)
(0.0023757 2.22386e-05 -4.33866e-05)
(0.00238821 2.19531e-05 -2.16118e-05)
(0.00238507 2.1209e-05 -4.61002e-06)
(0.00238733 2.04523e-05 5.29716e-06)
(0.00239243 -3.09528e-06 -4.23681e-06)
(0.0024058 -2.82368e-06 -3.30049e-07)
(0.00231301 8.03679e-06 -0.000102395)
(0.0023441 8.93951e-06 -0.00010181)
(0.00239513 1.01051e-05 -9.63149e-05)
(0.00239756 1.00188e-05 -7.95523e-05)
(0.00241551 9.7267e-06 -5.90693e-05)
(0.00240355 8.69711e-06 -3.61972e-05)
(0.00242938 8.22766e-06 -1.6017e-05)
(0.00240035 7.24721e-06 -4.34017e-06)
(0.00240851 6.66297e-06 1.21539e-07)
(0.00228373 1.71858e-05 -9.97562e-05)
(0.00232912 1.90521e-05 -0.000100811)
(0.00239725 2.14043e-05 -9.74788e-05)
(0.00240214 2.07652e-05 -8.1723e-05)
(0.0024157 2.00107e-05 -6.12161e-05)
(0.0023961 1.79808e-05 -3.83896e-05)
(0.00243136 1.76283e-05 -1.78054e-05)
(0.00241107 1.57047e-05 -4.08246e-06)
(0.00243996 1.48808e-05 3.97557e-06)
(0.00224411 2.07855e-05 -9.62404e-05)
(0.00228455 2.26697e-05 -9.67817e-05)
(0.00233858 2.45988e-05 -9.23893e-05)
(0.00234693 2.39616e-05 -7.85317e-05)
(0.0023464 2.25815e-05 -5.91691e-05)
(0.00236061 2.163e-05 -3.92866e-05)
(0.00239482 2.13581e-05 -1.98669e-05)
(0.00237546 1.90115e-05 -5.33419e-06)
(0.00240336 1.79244e-05 4.11929e-06)
(0.00231029 8.28952e-06 -8.83767e-05)
(0.00235751 9.40197e-06 -8.82767e-05)
(0.00240247 1.04179e-05 -8.26551e-05)
(0.00238267 9.51709e-06 -6.67862e-05)
(0.0023982 8.82531e-06 -4.93587e-05)
(0.00237691 7.50908e-06 -3.08277e-05)
(0.00239933 6.58195e-06 -1.51551e-05)
(0.00237454 5.33698e-06 -6.98552e-06)
(0.00228428 1.77603e-05 -8.6656e-05)
(0.00232928 1.96582e-05 -8.706e-05)
(0.00239048 2.17671e-05 -8.29089e-05)
(0.00237197 1.97489e-05 -6.79454e-05)
(0.00239906 1.91264e-05 -5.158e-05)
(0.00237558 1.65865e-05 -3.28623e-05)
(0.00240543 1.55007e-05 -1.68008e-05)
(0.00223332 2.10244e-05 -8.34036e-05)
(0.00227339 2.28611e-05 -8.35657e-05)
(0.00233264 2.49579e-05 -7.98441e-05)
(0.00233169 2.35906e-05 -6.71313e-05)
(0.0023549 2.28331e-05 -5.17398e-05)
(0.00234314 2.03509e-05 -3.41021e-05)
)
;

boundaryField
{
    inlet
    {
        type            zeroGradient;
    }
    outlet
    {
        type            zeroGradient;
    }
    wall
    {
        type            zeroGradient;
    }
    procBoundary2to0
    {
        type            processor;
        value           nonuniform List<vector> 
44
(
(0.00236111 -1.59276e-05 -8.43502e-05)
(0.00240595 -1.6042e-05 -6.49481e-05)
(0.00239556 -1.52474e-05 -4.08646e-05)
(0.00239668 -1.47998e-05 -1.86896e-05)
(0.0023774 -1.38772e-05 -3.05191e-06)
(0.00239936 -1.32398e-05 5.70737e-06)
(0.00226297 -4.80849e-06 -0.000108109)
(0.00228799 -4.56304e-06 -0.000106634)
(0.00232604 -4.04645e-06 -9.92438e-05)
(0.00232604 -4.04645e-06 -9.92438e-05)
(0.00240055 -3.75868e-06 -8.56259e-05)
(0.00245879 -3.12682e-06 -6.56367e-05)
(0.00243622 -1.61932e-05 -4.00198e-05)
(0.00245945 -1.59377e-05 -1.61413e-05)
(0.00241117 -1.43064e-05 -2.06857e-06)
(0.00241906 -1.31004e-05 5.27433e-06)
(0.00231544 -5.03762e-06 -0.000111434)
(0.00234256 -4.80892e-06 -0.000110273)
(0.002394 -4.50041e-06 -0.000104495)
(0.00240055 -3.75868e-06 -8.56259e-05)
(0.00245879 -3.12682e-06 -6.56367e-05)
(0.00245879 -3.12682e-06 -6.56367e-05)
(0.00241603 -3.46896e-06 -3.52893e-05)
(0.00243254 -3.35413e-06 -1.47047e-05)
(0.00239152 -1.35066e-05 -3.53795e-06)
(0.00240067 -1.2567e-05 1.65562e-06)
(0.00232314 -4.95536e-06 -0.000103549)
(0.00235726 -4.90794e-06 -0.000103329)
(0.00240997 -4.63006e-06 -9.72002e-05)
(0.00240571 -3.98609e-06 -7.89562e-05)
(0.00243578 -3.6374e-06 -5.81913e-05)
(0.00241603 -3.46896e-06 -3.52893e-05)
(0.00243254 -3.35413e-06 -1.47047e-05)
(0.00243254 -3.35413e-06 -1.47047e-05)
(0.00236368 -3.86197e-06 -6.23277e-06)
(0.00236927 -3.98723e-06 -4.60005e-06)
(0.00230406 -5.17013e-06 -8.78765e-05)
(0.00234747 -5.12937e-06 -8.75648e-05)
(0.00240621 -5.05872e-06 -8.20423e-05)
(0.00239672 -4.34725e-06 -6.63409e-05)
(0.0023978 -4.11484e-06 -4.7824e-05)
(0.00239176 -3.86878e-06 -2.94145e-05)
(0.00240667 -3.8302e-06 -1.36586e-05)
(0.00236368 -3.86197e-06 -6.23277e-06)
)
;
    }
    procBoundary2to3
    {
        type            processor;
        value           nonuniform List<vector> 
12
(
(0.00237408 -3.54965e-07 -1.05854e-06)
(0.00238403 1.00099e-05 3.78955e-07)
(0.00239847 1.86063e-05 4.66951e-06)
(0.00235658 2.09137e-05 4.702e-06)
(0.00241449 -1.30995e-06 -2.52457e-06)
(0.00242605 8.80674e-06 -3.20953e-07)
(0.00246702 1.83425e-05 6.94334e-06)
(0.002415 2.06079e-05 7.82459e-06)
(0.00241713 -2.57015e-06 -6.7063e-06)
(0.00242844 6.18697e-06 -4.92101e-06)
(0.00244289 1.31516e-05 8.58204e-07)
(0.00240683 1.60147e-05 3.36365e-06)
)
;
    }
    procBoundary2to6
    {
        type            processor;
        value           nonuniform List<vector> 
32
(
(0.00240116 4.42233e-06 -4.38046e-06)
(0.00238123 1.27929e-05 -6.95079e-06)
(0.00241704 1.11131e-05 -2.14193e-06)
(0.00235536 1.85735e-05 -1.84583e-05)
(0.00235317 1.59871e-05 -7.38639e-06)
(0.00237575 1.38058e-05 -1.66025e-06)
(0.0023268 8.81838e-06 -7.21155e-05)
(0.00235076 9.11787e-06 -6.98557e-05)
(0.00236937 9.4364e-06 -6.30227e-05)
(0.00236546 8.6111e-06 -5.12732e-05)
(0.00239145 7.99392e-06 -3.78601e-05)
(0.00235896 6.41726e-06 -2.39387e-05)
(0.00238461 5.34177e-06 -1.24485e-05)
(0.00240116 4.42233e-06 -4.38046e-06)
(0.00238123 1.27929e-05 -6.95079e-06)
(0.00235589 3.65932e-06 -7.40482e-06)
(0.00229283 1.86284e-05 -7.1057e-05)
(0.00232804 1.98843e-05 -6.97356e-05)
(0.00236131 2.06362e-05 -6.3895e-05)
(0.00236248 1.90965e-05 -5.29371e-05)
(0.00238549 1.80271e-05 -4.00213e-05)
(0.00236571 1.53785e-05 -2.61895e-05)
(0.00238123 1.27929e-05 -6.95079e-06)
(0.00235536 1.85735e-05 -1.84583e-05)
(0.00238749 1.35773e-05 -1.4186e-05)
(0.00223863 2.16106e-05 -6.93406e-05)
(0.00227169 2.30715e-05 -6.83896e-05)
(0.00229748 2.341e-05 -6.28618e-05)
(0.00230947 2.2354e-05 -5.3237e-05)
(0.00234792 2.18923e-05 -4.12396e-05)
(0.00235536 1.85735e-05 -1.84583e-05)
(0.00234719 1.95458e-05 -2.80994e-05)
)
;
    }
}


// ************************************************************************* //
