/*--------------------------------*- C++ -*----------------------------------*\
| =========                 |                                                 |
| \\      /  F ield         | OpenFOAM: The Open Source CFD Toolbox           |
|  \\    /   O peration     | Version:  4.x                                   |
|   \\  /    A nd           | Web:      www.OpenFOAM.org                      |
|    \\/     M anipulation  |                                                 |
\*---------------------------------------------------------------------------*/
FoamFile
{
    version     2.0;
    format      ascii;
    class       volScalarField;
    location    "9";
    object      p_rgh;
}
// * * * * * * * * * * * * * * * * * * * * * * * * * * * * * * * * * * * * * //

dimensions      [1 -1 -2 0 0 0 0];

internalField   nonuniform List<scalar> 
114
(
75.7569
93.9267
59.3174
89.1623
45.0208
83.833
111.461
94.832
102.83
76.3799
94.6461
59.9094
89.4009
45.1926
84.3571
110.339
93.9558
102.561
76.5003
94.8819
59.954
89.2399
45.1768
84.458
109.544
93.4133
101.968
76.2649
94.2537
59.3858
87.8411
43.7132
82.7632
59.4625
88.2215
42.9601
80.7589
112.352
95.2068
103.693
76.7957
95.3509
59.7966
88.4915
43.0264
81.1923
111.31
94.5105
103.434
76.7777
95.5704
59.8892
88.7501
43.4262
81.7861
110.341
93.8894
102.643
76.4406
94.6841
59.2471
87.5668
42.6995
81.3022
42.5264
79.8549
113.151
95.6975
104.659
77.5552
95.8052
59.8864
87.7521
42.3701
79.9971
112.319
95.2951
104.491
77.5337
96.0786
59.976
88.1498
42.5495
80.2599
111.338
94.5978
103.56
77.1257
95.2763
59.7132
87.386
42.3766
80.0896
113.373
95.9522
104.905
77.713
95.8233
59.5054
87.2458
41.5535
112.777
95.5835
104.768
77.7479
96.0903
59.6979
87.5507
111.795
94.9588
103.909
77.408
95.4089
59.5059
)
;

boundaryField
{
    inlet
    {
        type            fixedFluxPressure;
        gradient        nonuniform List<scalar> 
12
(
-1.19783
-1.38502
-1.48066
-0.390158
-0.434217
-0.470842
-0.114971
-0.125162
-0.13459
-1.93968e-05
-1.69709e-05
-1.5643e-05
)
;
        value           nonuniform List<scalar> 
12
(
111.444
110.32
109.523
112.346
111.304
110.334
113.15
112.317
111.336
113.373
112.777
111.795
)
;
    }
    outlet
    {
        type            fixedValue;
        value           nonuniform 0();
    }
    wall
    {
        type            fixedFluxPressure;
        gradient        nonuniform List<scalar> 
66
(
-3.12257e-05
-5.69772e-05
-5.35744e-05
-2.46549e-05
-8.38289e-05
-7.13419e-05
0.000105896
3.76705e-05
-1.6093e-05
0.000413399
0.000363509
0.000287513
5.81976e-05
0.000335084
0.000292696
0.000251988
9.73175e-05
0.000432731
0.000318597
0.000235711
6.82259e-05
9.3104e-05
3.95933e-05
6.15841e-05
8.41599e-05
-0.000435253
-0.000353327
-0.000229792
-7.95734e-05
-0.000434956
-0.000406737
-0.000299296
-0.000126842
-4.76131e-06
2.55876e-06
-3.04236e-06
-4.91862e-06
2.67193e-05
2.10632e-05
7.17082e-06
3.93656e-06
2.78748e-05
1.48527e-05
2.18727e-05
5.08362e-06
3.87298e-05
3.34497e-05
7.5994e-05
4.49987e-05
0.000136688
5.43672e-05
5.40158e-05
2.94545e-05
3.99203e-05
8.84286e-05
4.58026e-05
2.5333e-05
-4.49254e-06
-2.2455e-06
4.02804e-06
7.96602e-05
-5.83385e-05
-1.48936e-05
-3.26719e-05
-2.71766e-05
-1.91774e-05
)
;
        value           nonuniform List<scalar> 
66
(
111.461
110.339
109.544
94.832
93.9558
93.4133
102.83
102.561
101.968
75.7569
76.3799
76.5003
76.2649
93.9267
94.6461
94.8819
94.2537
59.3174
59.9094
59.954
59.3858
89.1623
89.4009
89.2399
87.8411
45.0208
45.1926
45.1768
43.7132
83.833
84.3571
84.458
82.7632
109.544
110.341
111.338
111.795
93.4133
93.8894
94.5978
94.9588
101.968
102.643
103.56
103.909
76.2649
76.4406
77.1257
77.408
94.2537
94.6841
95.2763
95.4089
59.3858
59.2471
59.7132
59.5059
87.8411
87.5668
87.386
43.7132
42.6995
42.3766
82.7632
81.3022
80.0896
)
;
    }
    procBoundary2to0
    {
        type            processor;
        value           nonuniform List<scalar> 
44
(
72.8794
91.1075
57.3124
87.8082
44.2956
83.9043
114.308
96.5425
103.057
103.057
76.5817
95.0989
57.8343
87.14
42.1064
80.5243
114.755
96.4722
104.158
76.5817
95.0989
95.0989
59.676
87.6639
41.7107
79.6076
114.937
96.9528
105.372
77.6419
95.8019
59.676
87.6639
87.6639
41.7596
79.3431
114.418
96.8565
105.535
77.9832
95.897
59.5921
87.164
41.7596
)
;
    }
    procBoundary2to3
    {
        type            processor;
        value           nonuniform List<scalar> 
12
(
27.1345
27.8855
28.7342
27.9648
24.4798
24.6582
25.3019
26.0003
25.0281
24.5643
24.5102
24.9946
)
;
    }
    procBoundary2to6
    {
        type            processor;
        value           nonuniform List<scalar> 
32
(
79.3284
41.6834
79.4416
87.0447
41.6901
79.1819
113.938
96.2015
105.612
78.5999
96.4682
60.3593
87.6175
79.3284
41.6834
42.7359
113.363
96.0513
105.416
78.5234
96.6615
60.4043
41.6834
87.0447
87.8794
112.41
95.4505
104.547
78.2037
96.0755
87.0447
60.2485
)
;
    }
}


// ************************************************************************* //
