/*--------------------------------*- C++ -*----------------------------------*\
| =========                 |                                                 |
| \\      /  F ield         | OpenFOAM: The Open Source CFD Toolbox           |
|  \\    /   O peration     | Version:  4.x                                   |
|   \\  /    A nd           | Web:      www.OpenFOAM.org                      |
|    \\/     M anipulation  |                                                 |
\*---------------------------------------------------------------------------*/
FoamFile
{
    version     2.0;
    format      ascii;
    class       volScalarField;
    location    "9";
    object      Qsource;
}
// * * * * * * * * * * * * * * * * * * * * * * * * * * * * * * * * * * * * * //

dimensions      [1 -1 -3 0 0 0 0];

internalField   nonuniform List<scalar> 
114
(
7.86327e+09
6.53735e+09
3.68019e+09
6.76785e+09
3.20494e+09
3.74642e+09
6.60459e+09
7.48248e+09
7.03594e+09
5.14699e+09
8.36629e+09
5.72937e+09
8.35235e+09
7.24199e+09
5.24241e+09
4.68617e+09
6.7525e+09
4.40407e+09
6.5484e+09
6.13444e+09
6.88279e+09
4.46865e+09
6.43319e+09
4.75462e+09
5.61075e+09
5.10693e+09
6.31891e+09
6.12019e+09
6.08358e+09
5.99271e+09
5.32501e+09
6.87498e+09
6.26859e+09
9.68599e+09
1.19678e+10
6.39543e+09
1.10975e+10
4.70433e+09
7.98255e+09
9.58639e+09
9.16279e+09
8.96366e+09
7.08845e+09
1.10646e+10
8.68033e+09
6.31731e+09
5.82681e+09
1.00691e+10
1.06416e+10
9.28578e+09
9.3435e+09
8.995e+09
9.1213e+09
8.43093e+09
8.04733e+09
5.85349e+09
5.92241e+09
9.20793e+09
6.64796e+09
8.50027e+09
7.27793e+09
7.68361e+09
7.84604e+09
5.79226e+09
7.88735e+09
9.07748e+09
6.811e+09
5.74315e+09
6.68078e+09
6.82942e+09
6.64338e+09
7.65424e+09
9.70783e+09
7.26816e+09
5.74552e+09
4.95281e+09
6.95624e+09
8.98105e+09
1.03934e+10
9.00625e+09
6.8943e+09
9.29579e+09
8.45058e+09
1.02398e+10
5.77193e+09
8.05523e+09
7.73012e+09
7.95928e+09
5.56525e+09
7.28565e+09
1.04095e+10
5.94905e+09
1.07145e+10
4.85583e+09
9.46611e+09
1.01778e+10
7.1409e+09
7.70368e+09
6.69867e+09
7.52171e+09
7.92158e+09
5.83394e+09
7.88511e+09
1.03895e+10
6.50552e+09
8.92245e+09
7.47089e+09
1.01341e+10
5.03019e+09
6.76273e+09
8.235e+09
7.69798e+09
7.46618e+09
6.96669e+09
)
;

boundaryField
{
    inlet
    {
        type            calculated;
        value           uniform 0;
    }
    outlet
    {
        type            calculated;
        value           nonuniform 0();
    }
    wall
    {
        type            calculated;
        value           uniform 0;
    }
    procBoundary2to0
    {
        type            processor;
        value           nonuniform List<scalar> 
44
(
5.83831e+09
6.56979e+09
5.64106e+09
4.91776e+09
5.18904e+09
9.44225e+09
2.94411e+09
5.05559e+09
4.41073e+09
4.41073e+09
5.29642e+09
1.13485e+10
7.6214e+09
1.03101e+10
6.80905e+09
6.17143e+09
7.9128e+09
7.06179e+09
7.72152e+09
5.29642e+09
1.13485e+10
1.13485e+10
7.85151e+09
8.55525e+09
6.3299e+09
5.33838e+09
6.84687e+09
8.63035e+09
9.40869e+09
8.61897e+09
9.91389e+09
7.85151e+09
8.55525e+09
8.55525e+09
5.71709e+09
2.65827e+09
4.79444e+09
6.72195e+09
9.54091e+09
1.03053e+10
5.34899e+09
9.90423e+09
8.50438e+09
5.71709e+09
)
;
    }
    procBoundary2to3
    {
        type            processor;
        value           nonuniform List<scalar> 
12
(
7.77936e+09
6.05558e+09
6.95861e+09
6.10569e+09
8.2226e+09
7.38287e+09
1.25365e+10
9.18485e+09
8.37211e+09
9.84842e+09
6.83973e+09
6.78414e+09
)
;
    }
    procBoundary2to6
    {
        type            processor;
        value           nonuniform List<scalar> 
32
(
8.15028e+09
6.62278e+09
8.866e+09
6.46049e+09
6.75605e+09
6.47693e+09
9.88536e+09
8.92513e+09
6.01509e+09
8.01134e+09
1.09559e+10
6.20265e+09
8.64822e+09
8.15028e+09
6.62278e+09
6.70499e+09
6.24849e+09
9.2011e+09
8.06308e+09
9.76258e+09
9.05908e+09
8.65569e+09
6.62278e+09
6.46049e+09
8.61537e+09
5.43092e+09
8.04675e+09
6.69703e+09
6.60729e+09
9.39671e+09
6.46049e+09
9.94659e+09
)
;
    }
}


// ************************************************************************* //
