/*--------------------------------*- C++ -*----------------------------------*\
| =========                 |                                                 |
| \\      /  F ield         | OpenFOAM: The Open Source CFD Toolbox           |
|  \\    /   O peration     | Version:  4.x                                   |
|   \\  /    A nd           | Web:      www.OpenFOAM.org                      |
|    \\/     M anipulation  |                                                 |
\*---------------------------------------------------------------------------*/
FoamFile
{
    version     2.0;
    format      ascii;
    class       volScalarField;
    location    "9";
    object      rho;
}
// * * * * * * * * * * * * * * * * * * * * * * * * * * * * * * * * * * * * * //

dimensions      [1 -3 0 0 0 0 0];

internalField   nonuniform List<scalar> 
114
(
6698.81
6697.58
6695.84
6693.93
6692.48
6692.29
6699.98
6699.87
6699.55
6698.87
6697.71
6696.04
6694.1
6692.39
6691.69
6699.98
6699.86
6699.55
6698.93
6697.88
6696.4
6694.57
6692.76
6691.53
6699.98
6699.87
6699.61
6699.13
6698.36
6697.29
6695.9
6694.37
6692.84
6695.86
6694.7
6694.5
6695.12
6699.99
6699.91
6699.63
6698.94
6697.74
6696.26
6694.96
6694.46
6694.78
6699.99
6699.91
6699.66
6699.03
6697.96
6696.53
6695.1
6694.23
6694.1
6699.99
6699.92
6699.73
6699.32
6698.62
6697.63
6696.39
6695.12
6693.95
6696.62
6697.17
6699.99
6699.94
6699.75
6699.26
6698.45
6697.55
6696.81
6696.76
6697.19
6699.99
6699.94
6699.77
6699.32
6698.56
6697.62
6696.74
6696.45
6696.65
6699.99
6699.95
6699.82
6699.53
6699.01
6698.31
6697.4
6696.48
6695.59
6700
6699.96
6699.84
6699.54
6699.08
6698.59
6698.2
6698.21
6700
6699.96
6699.85
6699.57
6699.11
6698.57
6698.06
6700
6699.97
6699.89
6699.72
6699.42
6699.02
)
;

boundaryField
{
    inlet
    {
        type            calculated;
        value           uniform 6700;
    }
    outlet
    {
        type            calculated;
        value           nonuniform 0();
    }
    wall
    {
        type            calculated;
        value           nonuniform List<scalar> 
66
(
6699.98
6699.98
6699.98
6699.87
6699.86
6699.87
6699.55
6699.55
6699.61
6698.81
6698.87
6698.93
6699.13
6697.58
6697.71
6697.88
6698.36
6695.84
6696.04
6696.4
6697.29
6693.93
6694.1
6694.57
6695.9
6692.48
6692.39
6692.76
6694.37
6692.29
6691.69
6691.53
6692.84
6699.98
6699.99
6699.99
6700
6699.87
6699.92
6699.95
6699.97
6699.61
6699.73
6699.82
6699.89
6699.13
6699.32
6699.53
6699.72
6698.36
6698.62
6699.01
6699.42
6697.29
6697.63
6698.31
6699.02
6695.9
6696.39
6697.4
6694.37
6695.12
6696.48
6692.84
6693.95
6695.59
)
;
    }
    procBoundary2to0
    {
        type            processor;
        value           nonuniform List<scalar> 
44
(
6698.88
6697.75
6696.14
6694.27
6692.62
6691.98
6699.98
6699.87
6699.53
6699.53
6698.73
6697.39
6696.24
6695.08
6694.78
6695.32
6699.99
6699.9
6699.56
6698.73
6697.39
6697.39
6697.2
6696.52
6696.83
6697.48
6699.99
6699.93
6699.69
6699.07
6698.13
6697.2
6696.52
6696.52
6697.74
6698.07
6700
6699.95
6699.79
6699.4
6698.8
6698.2
6697.75
6697.74
)
;
    }
    procBoundary2to3
    {
        type            processor;
        value           nonuniform List<scalar> 
12
(
6693.58
6692.36
6691.43
6691.63
6696.62
6696.07
6695.09
6693.11
6698.14
6698.14
6697.63
6694.98
)
;
    }
    procBoundary2to6
    {
        type            processor;
        value           nonuniform List<scalar> 
32
(
6698.54
6697.94
6698.16
6698.49
6697.93
6697.32
6700
6699.96
6699.84
6699.55
6699.13
6698.75
6698.6
6698.54
6697.94
6698.84
6700
6699.97
6699.87
6699.65
6699.29
6698.91
6697.94
6698.49
6698.65
6700
6699.98
6699.91
6699.78
6699.55
6698.49
6699.26
)
;
    }
}


// ************************************************************************* //
