/*--------------------------------*- C++ -*----------------------------------*\
| =========                 |                                                 |
| \\      /  F ield         | OpenFOAM: The Open Source CFD Toolbox           |
|  \\    /   O peration     | Version:  4.x                                   |
|   \\  /    A nd           | Web:      www.OpenFOAM.org                      |
|    \\/     M anipulation  |                                                 |
\*---------------------------------------------------------------------------*/
FoamFile
{
    version     2.0;
    format      ascii;
    class       volScalarField;
    location    "9";
    object      Sm;
}
// * * * * * * * * * * * * * * * * * * * * * * * * * * * * * * * * * * * * * //

dimensions      [1 -3 -1 0 0 0 0];

internalField   nonuniform List<scalar> 
114
(
6.5097e-65
4.88223e-65
2.55725e-65
4.88203e-65
2.24723e-65
2.63468e-65
5.73502e-65
6.50993e-65
5.11488e-65
3.79733e-65
6.19964e-65
4.41714e-65
6.19943e-65
6.12185e-65
3.95211e-65
4.03004e-65
5.65748e-65
2.78994e-65
5.26981e-65
3.87481e-65
5.19217e-65
2.78979e-65
4.64962e-65
3.09973e-65
4.41754e-65
4.26251e-65
3.87498e-65
4.57242e-65
3.33242e-65
3.79738e-65
2.71239e-65
4.49479e-65
3.09986e-65
8.44658e-65
9.76376e-65
5.73421e-65
9.37613e-65
5.425e-65
6.8199e-65
7.6722e-65
7.74954e-65
7.05194e-65
6.27685e-65
8.98896e-65
7.59399e-65
5.19185e-65
6.04503e-65
8.60241e-65
8.29229e-65
7.59464e-65
7.36203e-65
7.36194e-65
7.05185e-65
7.12928e-65
6.27683e-65
5.89004e-65
5.19248e-65
6.97488e-65
5.8123e-65
6.89719e-65
5.88966e-65
5.88962e-65
6.50951e-65
4.26219e-65
7.59374e-65
7.98118e-65
7.285e-65
4.95991e-65
5.50224e-65
6.12207e-65
5.57946e-65
7.12914e-65
8.36888e-65
6.58652e-65
4.88174e-65
5.34751e-65
6.04492e-65
7.12972e-65
9.06698e-65
7.28439e-65
6.43184e-65
7.51664e-65
7.43911e-65
8.36891e-65
5.34752e-65
7.51743e-65
6.04487e-65
6.97467e-65
4.64975e-65
6.50951e-65
8.29183e-65
4.95953e-65
8.91163e-65
4.80498e-65
8.1373e-65
8.36959e-65
6.50953e-65
6.43186e-65
6.2767e-65
6.27659e-65
7.74874e-65
6.89752e-65
6.89738e-65
8.3697e-65
5.81215e-65
7.20687e-65
6.89674e-65
8.36903e-65
5.27002e-65
6.50993e-65
6.27732e-65
7.12966e-65
5.50214e-65
6.35446e-65
)
;

boundaryField
{
    inlet
    {
        type            calculated;
        value           uniform 0;
    }
    outlet
    {
        type            calculated;
        value           nonuniform 0();
    }
    wall
    {
        type            calculated;
        value           uniform 0;
    }
    procBoundary2to0
    {
        type            processor;
        value           nonuniform List<scalar> 
44
(
4.72724e-65
4.26221e-65
4.33964e-65
3.25467e-65
4.18456e-65
7.20671e-65
2.86752e-65
4.41744e-65
3.25493e-65
3.25493e-65
4.57216e-65
9.14418e-65
6.58683e-65
8.29151e-65
6.04421e-65
4.95932e-65
8.05999e-65
6.12239e-65
6.12222e-65
4.57216e-65
9.14418e-65
9.14418e-65
7.1291e-65
7.12889e-65
6.19898e-65
4.57177e-65
7.28499e-65
7.5948e-65
7.67208e-65
7.98189e-65
8.36912e-65
7.1291e-65
7.12889e-65
7.12889e-65
5.42406e-65
2.32455e-65
5.26999e-65
5.88986e-65
7.8271e-65
9.22176e-65
4.41703e-65
9.22124e-65
7.12885e-65
5.42406e-65
)
;
    }
    procBoundary2to3
    {
        type            processor;
        value           nonuniform List<scalar> 
12
(
6.97408e-65
5.03692e-65
5.50201e-65
4.64976e-65
7.51636e-65
6.50909e-65
1.03839e-64
7.74934e-65
7.67117e-65
8.98855e-65
5.65678e-65
5.73442e-65
)
;
    }
    procBoundary2to6
    {
        type            processor;
        value           nonuniform List<scalar> 
32
(
6.74137e-65
6.04425e-65
7.12901e-65
5.11456e-65
5.81192e-65
4.9595e-65
1.0385e-64
7.59485e-65
4.95978e-65
7.43942e-65
9.37651e-65
6.12172e-65
7.36148e-65
6.74137e-65
6.04425e-65
6.50901e-65
5.81249e-65
7.90489e-65
6.43225e-65
8.52445e-65
7.36188e-65
7.82668e-65
6.04425e-65
5.11456e-65
7.05166e-65
4.96003e-65
7.20742e-65
5.42488e-65
6.1222e-65
7.59454e-65
5.11456e-65
8.75676e-65
)
;
    }
}


// ************************************************************************* //
