/*--------------------------------*- C++ -*----------------------------------*\
| =========                 |                                                 |
| \\      /  F ield         | OpenFOAM: The Open Source CFD Toolbox           |
|  \\    /   O peration     | Version:  4.x                                   |
|   \\  /    A nd           | Web:      www.OpenFOAM.org                      |
|    \\/     M anipulation  |                                                 |
\*---------------------------------------------------------------------------*/
FoamFile
{
    version     2.0;
    format      ascii;
    class       volVectorField;
    location    "53.5";
    object      DDtUrel;
}
// * * * * * * * * * * * * * * * * * * * * * * * * * * * * * * * * * * * * * //

dimensions      [0 1 -2 0 0 0 0];

internalField   nonuniform List<vector> 
114
(
(-0.000150323 -2.03362e-05 -3.25738e-06)
(-0.000286184 -5.01652e-05 -1.19042e-05)
(-0.000480017 -9.46713e-05 -3.8087e-05)
(-0.000848609 -0.000160563 -7.34344e-05)
(-0.00136 -0.000270654 -0.000143154)
(-0.00197035 -0.000376733 -0.000219004)
(-5.43898e-05 2.71195e-06 6.52705e-06)
(-0.000138667 -1.94897e-05 -7.59889e-06)
(-0.000265739 -4.1352e-05 -1.38913e-05)
(-0.000477451 -8.62936e-05 -5.2228e-05)
(-0.000828779 -0.000139897 -8.62139e-05)
(-0.00129251 -0.000282449 -0.000209007)
(-0.00190174 -0.000426631 -0.000314285)
(-1.67019e-05 2.12509e-06 5.02871e-06)
(-6.37469e-05 -6.03426e-06 7.49336e-07)
(-0.000140518 -1.71152e-05 -1.07971e-05)
(-0.00027031 -3.40823e-05 -2.332e-05)
(-0.000468054 -6.08672e-05 -6.03435e-05)
(-0.000801108 -0.000103157 -0.000108374)
(-0.00117893 -0.000178489 -0.000208024)
(-0.00169149 -0.000245356 -0.000292199)
(4.63675e-05 1.72339e-05 2.40985e-05)
(-1.71141e-06 8.98223e-06 2.34776e-05)
(-1.61108e-05 4.52721e-06 2.23109e-05)
(-0.000114966 -2.35782e-05 2.81522e-05)
(-0.000190394 -4.00041e-05 2.00021e-05)
(-0.000434455 -0.000107893 5.59893e-05)
(-0.000695441 -0.000163936 6.43939e-05)
(-0.00138132 -0.000362945 0.000229303)
(-0.0023411 -0.000515726 0.000383281)
(2.61412e-05 1.49844e-05 1.227e-05)
(-1.14569e-05 7.0071e-06 1.128e-05)
(-3.95781e-05 2.15728e-06 1.0152e-05)
(-0.00012426 -1.82388e-05 1.29067e-05)
(-0.000231068 -3.35538e-05 1.53997e-05)
(-0.000444278 -9.71876e-05 3.62064e-05)
(-0.000763391 -0.000151531 5.79583e-05)
(-0.0012712 -0.000377947 0.000188168)
(-0.00199193 -0.000538932 0.000292616)
(8.75804e-06 5.80416e-06 7.62734e-06)
(-1.93569e-05 1.70287e-07 5.81216e-06)
(-5.65026e-05 -5.92826e-06 6.99781e-06)
(-0.000132508 -1.78676e-05 6.91921e-06)
(-0.000243561 -3.31167e-05 9.73035e-06)
(-0.00044148 -6.91284e-05 2.07405e-05)
(-0.000754726 -0.000101911 3.01273e-05)
(-0.00115713 -0.000228821 0.000119512)
(-0.0017442 -0.000344557 0.000206995)
(4.68557e-06 -3.67835e-06 2.17577e-06)
(-2.54969e-05 -4.82618e-06 1.68327e-06)
(6.03662e-05 1.281e-05 1.2231e-05)
(2.57679e-05 7.89977e-06 1.69952e-05)
(1.87087e-05 4.61584e-07 2.08489e-05)
(-6.80425e-05 -2.05492e-05 3.85085e-05)
(-0.000137535 -4.43026e-05 5.11371e-05)
(-0.000387743 -0.000105084 0.000115455)
(-0.000680604 -0.000183763 0.000177533)
(-0.00149218 -0.000357691 0.000457509)
(-0.00251929 -0.000511339 0.000721872)
(4.56576e-05 9.57236e-06 6.16567e-06)
(1.03778e-05 1.84658e-06 1.0306e-05)
(-3.45943e-06 -4.89393e-07 1.06207e-05)
(-8.87875e-05 -2.06188e-05 2.63824e-05)
(-0.000171861 -3.21348e-05 3.66033e-05)
(-0.000406217 -9.26285e-05 9.39347e-05)
(-0.000709665 -0.000146551 0.000155228)
(-0.00139236 -0.000351739 0.000409674)
(-0.00228752 -0.0005228 0.000605252)
(2.29611e-05 1.6195e-06 -3.41196e-07)
(-7.51032e-06 -3.05628e-06 4.06179e-06)
(-4.0215e-05 -6.25543e-06 7.76456e-06)
(-0.000109938 -1.96738e-05 1.84578e-05)
(-0.000216603 -3.49014e-05 3.08569e-05)
(-0.00041408 -7.20296e-05 7.93231e-05)
(-0.000723023 -0.000120137 0.000141349)
(-0.00125402 -0.000248805 0.000386359)
(-0.00193974 -0.000348159 0.000555231)
(1.68519e-05 -4.44881e-06 -4.66728e-06)
(-2.06361e-05 -8.33888e-06 -1.26392e-06)
(-4.98878e-05 -1.23215e-05 1.12525e-06)
(-0.000125825 -1.78809e-05 1.18836e-05)
(0.00012062 8.60974e-06 1.01565e-05)
(8.6351e-05 3.51075e-06 1.92995e-05)
(0.000109246 -4.46199e-06 2.14443e-05)
(1.01698e-05 -3.10432e-05 5.82085e-05)
(1.90133e-05 -5.19626e-05 6.55818e-05)
(-0.00029251 -0.000132769 0.000178905)
(-0.000403507 -0.000203771 0.000234906)
(-0.00172424 -0.0005034 0.000710883)
(-0.00329644 -0.000767752 0.00119446)
(8.91758e-05 2.3777e-06 2.81321e-06)
(5.18542e-05 -4.86588e-06 9.51914e-06)
(6.26162e-05 -4.20953e-06 1.01822e-05)
(-3.47851e-05 -2.98822e-05 3.77311e-05)
(-6.94109e-05 -3.56512e-05 4.60265e-05)
(-0.000357214 -0.000106262 0.000132126)
(-0.000597251 -0.000144086 0.000193201)
(-0.0015722 -0.000393276 0.000517639)
(-0.00279871 -0.000654833 0.000843446)
(5.73525e-05 -5.5469e-06 -4.60688e-06)
(1.7471e-05 -1.00738e-05 5.00128e-06)
(1.33661e-05 -1.05609e-05 6.51976e-06)
(-7.23577e-05 -2.62792e-05 3.29174e-05)
(-0.000119176 -3.36029e-05 3.59348e-05)
(-0.000364563 -7.95281e-05 0.000118426)
(-0.000577536 -0.00011085 0.000160256)
(-0.00142115 -0.000267646 0.000482321)
(-0.00250864 -0.000424282 0.000766464)
(3.84917e-05 -1.12741e-05 -1.07084e-05)
(-8.52574e-06 -1.64995e-05 -5.2525e-06)
(-2.27542e-05 -1.83307e-05 -5.72385e-06)
(-0.000109458 -2.99241e-05 1.54012e-05)
(-0.00016511 -3.17032e-05 2.6174e-05)
(-0.000384046 -6.92492e-05 8.57988e-05)
)
;

boundaryField
{
    inlet
    {
        type            calculated;
        value           nonuniform 0();
    }
    outlet
    {
        type            calculated;
        value           nonuniform List<vector> 
12
(
(-0.00102045 -0.000138981 -0.000253341)
(-0.00233229 -0.000912645 -0.00133181)
(-0.00165248 -3.70062e-07 -0.000341216)
(-0.00710881 -0.00137887 0.00196703)
(-0.00338829 -0.0021192 0.0015167)
(-0.0028016 -0.00114346 0.00103288)
(-0.00472382 -0.000175499 0.00152537)
(-0.0048819 -0.00119326 0.00126273)
(-0.00225719 -0.000473892 0.00166872)
(-0.0122949 -0.00275561 0.00528379)
(-0.00770172 -0.00226688 0.00178954)
(-0.00760617 -0.0006135 0.00276032)
)
;
    }
    wall
    {
        type            calculated;
        value           nonuniform List<vector> 
66
(
(0.000554938 4.03482e-05 -1.65861e-05)
(0.000363003 2.41893e-05 -3.91965e-05)
(0.000246654 -1.23007e-05 -6.85066e-05)
(0.000267244 -1.57547e-05 -5.67273e-05)
(0.000192492 2.49546e-05 7.90204e-05)
(2.26803e-05 -6.08619e-05 1.06835e-05)
(-4.77473e-05 -4.10505e-05 5.17515e-05)
(-7.76958e-05 -6.69673e-05 -3.27862e-06)
(0.000924614 3.98602e-05 -5.43053e-05)
(0.000623585 8.97735e-05 -0.000101469)
(0.00040151 2.9855e-05 -5.15053e-05)
(0.000326207 -2.50831e-05 -0.000112868)
(3.76029e-05 -8.52063e-05 0.000276526)
(-9.61372e-05 -0.000130247 8.69738e-05)
(-8.51818e-05 -5.14372e-05 0.000191718)
(-0.000161533 -0.000132531 5.9796e-05)
(0.00180682 6.85866e-05 -0.000173634)
(0.00094664 0.000207132 -0.00020669)
(0.000811404 9.58093e-05 -0.000207248)
(0.000630806 3.8119e-05 -6.53856e-05)
(-0.000451742 -0.000330824 0.000701895)
(-0.000538503 -0.000254556 0.000229098)
(-0.000280796 -9.9128e-05 0.000427668)
(-0.000234478 -0.00037045 0.000241658)
(0.00495756 0.000292977 -0.000822288)
(0.00147403 0.000629358 -0.000571007)
(0.00203448 0.000298647 -0.000724969)
(-0.00208676 -0.00140076 0.00205445)
(-0.00130446 -0.000528278 0.000359918)
(-0.0010277 -0.000123099 0.00113826)
(-0.0122949 -0.00275561 0.00528379)
(-0.00770172 -0.00226688 0.00178954)
(-0.00760617 -0.0006135 0.00276032)
(0.00026375 4.11106e-05 0.000113834)
(6.7348e-05 4.13616e-05 -1.85839e-05)
(0.000554938 4.03482e-05 -1.65861e-05)
(-9.12166e-05 -1.9082e-05 0.000125305)
(-0.000117513 4.4709e-05 1.35836e-05)
(0.000192492 2.49546e-05 7.90204e-05)
(0.000405651 9.10548e-05 8.8799e-05)
(0.000174484 4.9812e-05 1.14926e-06)
(0.000924614 3.98602e-05 -5.43053e-05)
(-0.000254897 -2.01717e-05 3.17043e-05)
(-0.000197836 -9.72145e-05 0.000184646)
(-0.000156608 2.98898e-05 6.3429e-05)
(3.76029e-05 -8.52063e-05 0.000276526)
(-0.0007916 -0.000102915 4.43778e-05)
(0.000611475 0.00015126 -0.000106561)
(0.000235499 4.85415e-05 -2.09062e-05)
(0.00180682 6.85866e-05 -0.000173634)
(-5.91367e-05 -1.97451e-05 4.35763e-05)
(-0.000353165 -0.000228227 0.000311742)
(-0.000342468 8.12935e-06 0.000176476)
(-0.000451742 -0.000330824 0.000701895)
(-0.00101446 -0.000107732 -2.00612e-05)
(0.00131297 0.000311515 -0.000347324)
(0.000286988 1.10067e-05 -0.000289841)
(0.00495756 0.000292977 -0.000822288)
(-0.000402714 5.2229e-05 -5.10755e-05)
(-0.000557179 -0.000765334 0.000832449)
(-0.00072867 2.06983e-05 0.000577546)
(-0.00208676 -0.00140076 0.00205445)
(-0.00102045 -0.000138981 -0.000253341)
(-0.00710881 -0.00137887 0.00196703)
(-0.00472382 -0.000175499 0.00152537)
(-0.0122949 -0.00275561 0.00528379)
)
;
    }
    procBoundary5to1
    {
        type            processor;
        value           nonuniform List<vector> 
32
(
(-9.83026e-05 -1.62742e-05 -4.32981e-05)
(-0.000175817 -3.6555e-05 -4.16272e-05)
(-0.000481005 -9.15929e-05 -0.000135171)
(-0.000816127 -0.000148369 -0.000179441)
(-0.00161353 -0.000276172 -0.000473294)
(-0.00262383 -0.000377989 -0.000795034)
(1.70261e-05 5.43625e-06 -1.95829e-06)
(-9.86095e-05 -2.30533e-05 -3.65449e-05)
(-0.000188172 -2.99174e-05 -4.8285e-05)
(-0.000471224 -9.5316e-05 -0.000140687)
(-0.000797707 -0.000124628 -0.000207053)
(-0.00152849 -0.00033838 -0.000514981)
(-0.0024575 -0.000539349 -0.000817618)
(1.17311e-05 3.20746e-06 3.51233e-06)
(-2.64922e-05 -1.32266e-06 -6.36749e-06)
(-0.000119856 -1.8479e-05 -3.15168e-05)
(-0.000242457 -3.08286e-05 -5.74374e-05)
(-0.000476717 -7.14204e-05 -0.000145465)
(-0.000828581 -0.000102666 -0.000239619)
(-0.00135376 -0.000259258 -0.000520094)
(-0.00203564 -0.000368812 -0.000775267)
(2.62754e-05 2.75475e-05 1.90427e-05)
(-2.58937e-05 1.71518e-05 9.48518e-06)
(-7.57402e-05 7.59528e-06 6.80654e-06)
(-7.57402e-05 7.59528e-06 6.80654e-06)
(-7.57402e-05 7.59528e-06 6.80654e-06)
(2.84356e-05 1.95741e-05 1.49559e-05)
(-1.27278e-05 1.02813e-05 8.35863e-06)
(-1.27278e-05 1.02813e-05 8.35863e-06)
(-1.27278e-05 1.02813e-05 8.35863e-06)
(1.39273e-05 8.79159e-06 1.07736e-05)
(1.39273e-05 8.79159e-06 1.07736e-05)
)
;
    }
    procBoundary5to4
    {
        type            processor;
        value           nonuniform List<vector> 
12
(
(5.21602e-05 1.48084e-05 2.41982e-05)
(3.70037e-05 1.21117e-05 1.47127e-05)
(2.69983e-05 6.26409e-06 7.90478e-06)
(2.18336e-05 -1.81647e-06 4.96551e-06)
(6.29459e-05 1.17732e-05 1.34426e-05)
(4.90552e-05 6.05602e-06 8.37992e-06)
(3.49472e-05 5.14512e-07 2.53128e-06)
(2.64518e-05 -5.59635e-06 -1.70892e-06)
(0.000107508 5.82758e-06 1.42385e-05)
(8.35208e-05 -2.31996e-06 5.97152e-06)
(5.91332e-05 -7.81114e-06 2.44802e-07)
(4.38794e-05 -1.30002e-05 -5.54822e-06)
)
;
    }
    procBoundary5to7
    {
        type            processor;
        value           nonuniform List<vector> 
44
(
(-1.9917e-05 -2.29152e-06 2.32218e-06)
(-6.67386e-05 -5.79084e-06 -1.98166e-06)
(-0.000145512 -1.06943e-05 -1.32213e-05)
(-0.000273712 -1.28992e-05 -2.79085e-05)
(-0.000468522 -1.76531e-05 -7.10732e-05)
(-0.000798239 -2.92396e-05 -0.000121705)
(-0.00114789 -8.28643e-06 -0.000246924)
(-0.00163938 7.52437e-06 -0.000359476)
(1.62285e-05 1.55265e-06 8.94164e-06)
(-1.9917e-05 -2.29152e-06 2.32218e-06)
(-6.65301e-05 -7.93907e-06 3.78655e-06)
(-0.000139287 -1.16061e-05 4.88502e-08)
(-0.000255623 -1.47884e-05 -2.98321e-07)
(-0.000439638 -2.52414e-05 -2.04008e-06)
(-0.000746868 -3.03469e-05 4.02669e-06)
(-0.00110283 -7.02169e-05 4.82474e-05)
(-0.00162973 -0.000107656 9.51123e-05)
(7.95989e-06 -8.79896e-06 7.12489e-07)
(-6.65301e-05 -7.93907e-06 3.78655e-06)
(-2.66337e-05 -8.4175e-06 -2.16049e-06)
(-6.65301e-05 -7.93907e-06 3.78655e-06)
(-0.000139287 -1.16061e-05 4.88502e-08)
(-0.000221566 -2.41877e-05 2.15581e-05)
(-0.000412801 -4.14925e-05 6.1586e-05)
(-0.000708278 -6.39683e-05 0.000100339)
(-0.00117176 -0.000106517 0.000320588)
(-0.0018406 -0.000165404 0.000457391)
(5.86658e-06 -1.18349e-05 -7.30797e-06)
(-2.94901e-05 -1.25609e-05 -6.45419e-06)
(-6.62916e-05 -1.49723e-05 -4.63196e-06)
(-0.000221566 -2.41877e-05 2.15581e-05)
(-0.000137449 -1.27183e-05 -8.3125e-07)
(-0.000221566 -2.41877e-05 2.15581e-05)
(-0.000412801 -4.14925e-05 6.1586e-05)
(-0.000597953 -6.91246e-05 0.00013877)
(-0.00130743 -0.000208246 0.000368818)
(-0.00227359 -0.000373876 0.00055018)
(1.05396e-05 -1.48751e-05 -1.89059e-05)
(-3.45033e-05 -1.81422e-05 -1.37881e-05)
(-6.912e-05 -1.94567e-05 -1.26595e-05)
(-0.000145826 -2.25049e-05 -2.24425e-06)
(-0.000241327 -2.22211e-05 -1.07487e-06)
(-0.000597953 -6.91246e-05 0.00013877)
(-0.000428452 -2.82142e-05 3.33e-05)
)
;
    }
}


// ************************************************************************* //
