/*--------------------------------*- C++ -*----------------------------------*\
| =========                 |                                                 |
| \\      /  F ield         | OpenFOAM: The Open Source CFD Toolbox           |
|  \\    /   O peration     | Version:  4.x                                   |
|   \\  /    A nd           | Web:      www.OpenFOAM.org                      |
|    \\/     M anipulation  |                                                 |
\*---------------------------------------------------------------------------*/
FoamFile
{
    version     2.0;
    format      ascii;
    class       volScalarField;
    location    "53.5";
    object      p;
}
// * * * * * * * * * * * * * * * * * * * * * * * * * * * * * * * * * * * * * //

dimensions      [1 -1 -2 0 0 0 0];

internalField   nonuniform List<scalar> 
114
(
69.2744
-16.0467
62.559
-33.0094
55.8186
-46.7496
1.45409
68.5875
-16.9608
62.3602
-35.1777
56.4551
-50.938
75.143
5.0179
68.4686
-12.3322
61.6946
-29.2275
53.7195
-44.419
-1858.3
-1803
-1877.51
-1809.2
-1897.74
-1814.4
-1919.33
-1817.52
-1942.97
-1858.16
-1802.88
-1877.14
-1809.44
-1896.71
-1815.31
-1915.92
-1819.68
-1933.7
-1856.72
-1803.05
-1874.96
-1809.62
-1893.68
-1815.73
-1912.41
-1820.72
-1930.1
-1856.37
-1803.1
-3735.45
-3680.67
-3754.46
-3687.18
-3773.97
-3693.18
-3793.97
-3698.1
-3813.73
-3735.67
-3680.71
-3754.93
-3687.33
-3774.67
-3693.44
-3794.78
-3698.34
-3814.56
-3734.85
-3680.72
-3753.38
-3687.59
-3771.88
-3694.52
-3789.75
-3701.42
-3805.5
-3735.23
-3680.92
-3754.3
-3687.78
-5613.68
-5558.97
-5633.01
-5565.15
-5653.7
-5570.16
-5677.03
-5571.73
-5708.59
-5613.73
-5558.92
-5633.1
-5565.17
-5653.42
-5570.48
-5675.31
-5573.29
-5699.44
-5612.96
-5558.83
-5631.96
-5565.42
-5651.77
-5571.29
-5672.94
-5575.24
-5696.93
-5613.24
-5558.89
-5632.37
-5565.32
-5652.3
-5571.05
)
;

boundaryField
{
    inlet
    {
        type            calculated;
        value           nonuniform 0();
    }
    outlet
    {
        type            calculated;
        value           nonuniform List<scalar> 
12
(
0
0
0
-1877.91
-1877.91
-1877.91
-3755.83
-3755.83
-3755.83
-5633.74
-5633.74
-5633.74
)
;
    }
    wall
    {
        type            calculated;
        value           nonuniform List<scalar> 
66
(
-6552.63
-6552.69
-6551.92
-6552.2
-6497.92
-6497.88
-6497.78
-6497.85
-6571.96
-6572.06
-6570.92
-6571.33
-6504.11
-6504.13
-6504.37
-6504.28
-6592.66
-6592.38
-6590.73
-6591.25
-6509.11
-6509.44
-6510.25
-6510.01
-6615.99
-6614.27
-6611.89
-6510.69
-6512.24
-6514.2
-6647.05
-6637.92
-6635.18
-1858.3
-3735.45
-5613.68
-1803
-3680.67
-5558.97
-1877.51
-3754.46
-5633.01
69.2744
-1809.2
-3687.18
-5565.15
-16.0467
-1897.74
-3773.97
-5653.7
62.559
-1814.4
-3693.18
-5570.16
-33.0109
-1919.33
-3793.97
-5677.03
55.8186
-1817.52
-3698.1
-5571.73
-46.7496
-1942.97
-3813.73
-5708.59
)
;
    }
    procBoundary5to1
    {
        type            processor;
        value           nonuniform List<scalar> 
32
(
1946.94
1856.85
1942.26
1834.87
1939.94
1812.12
1876.82
1946.69
1856.22
1941.78
1834.63
1939.25
1812.21
1952.79
1879.32
1946.39
1860.21
1940.7
1841.31
1936
1823.73
20.5861
75.6448
2.1949
2.1949
2.1949
20.3482
75.2595
75.2595
75.2595
22.5963
22.5963
)
;
    }
    procBoundary5to4
    {
        type            processor;
        value           nonuniform List<scalar> 
12
(
-1796.32
-1796.04
-1796
-1796.07
-3673.89
-3673.81
-3673.59
-3673.87
-5552.33
-5552.16
-5551.98
-5552.06
)
;
    }
    procBoundary5to7
    {
        type            processor;
        value           nonuniform List<scalar> 
44
(
74.8657
1.9249
68.4064
-16.8683
62.5364
-35.6122
57.7295
-51.8607
20.7577
74.8657
-1874.38
-1809.63
-1892.61
-1815.46
-1910.58
-1821.21
-1927
-1854.87
-1874.38
-1802.87
-1874.38
-1809.63
-3773.64
-3693.86
-3792.86
-3698.66
-3810.78
-3734.36
-3680.89
-3752.86
-3773.64
-3687.67
-3773.64
-3693.86
-5673.37
-5574.8
-5696.76
-5612.31
-5558.67
-5630.86
-5565.28
-5649.63
-5673.37
-5571.52
)
;
    }
}


// ************************************************************************* //
