/*--------------------------------*- C++ -*----------------------------------*\
| =========                 |                                                 |
| \\      /  F ield         | OpenFOAM: The Open Source CFD Toolbox           |
|  \\    /   O peration     | Version:  4.x                                   |
|   \\  /    A nd           | Web:      www.OpenFOAM.org                      |
|    \\/     M anipulation  |                                                 |
\*---------------------------------------------------------------------------*/
FoamFile
{
    version     2.0;
    format      ascii;
    class       volVectorField;
    location    "5.5";
    object      DDtUrel;
}
// * * * * * * * * * * * * * * * * * * * * * * * * * * * * * * * * * * * * * //

dimensions      [0 1 -2 0 0 0 0];

internalField   nonuniform List<vector> 
87
(
(0.00152148 5.70102e-07 -3.21174e-06)
(0.00162721 -1.18428e-05 3.50555e-05)
(0.00167411 -7.66064e-06 7.70706e-06)
(0.00174307 -1.35578e-05 0.000138886)
(0.00187632 -2.96041e-05 8.01727e-05)
(0.00191389 -2.37719e-05 1.54312e-05)
(0.00204308 7.02859e-05 7.1438e-05)
(0.00144628 3.3856e-05 0.000127199)
(0.00122851 1.46174e-05 0.000137245)
(0.00118901 2.05117e-07 0.000132826)
(0.00124676 1.8862e-08 0.000104375)
(0.00133007 -9.66024e-07 6.88281e-05)
(0.00140912 -2.97233e-06 3.7442e-05)
(0.00146363 -9.02806e-06 -4.8378e-06)
(0.00149528 -1.07918e-05 -2.67673e-05)
(0.00210721 0.00013848 6.11991e-05)
(0.00151954 6.57899e-05 0.00012592)
(0.00129992 2.7384e-05 0.000145343)
(0.0012622 -3.02271e-06 0.000151389)
(0.00132667 -4.60413e-06 0.000126166)
(0.00141783 -1.27047e-05 9.33916e-05)
(0.00151972 -1.43831e-05 5.66195e-05)
(0.0015772 -1.87214e-05 7.0478e-06)
(0.00159767 -2.18277e-05 -1.65667e-05)
(0.00219843 0.000156782 5.14534e-05)
(0.00163078 9.11659e-05 0.000126186)
(0.00142095 4.32907e-05 0.000159355)
(0.00140177 1.0212e-05 0.000178633)
(0.00146322 -3.2634e-06 0.000163068)
(0.00158537 -2.6217e-05 0.00013845)
(0.0016894 -2.93152e-05 9.2415e-05)
(0.00178608 -3.73687e-05 4.14873e-05)
(0.00179622 -2.78898e-05 -4.94571e-06)
(0.00208581 5.68052e-05 0.000130974)
(0.00149265 2.75486e-05 0.000125217)
(0.00126168 1.18857e-05 0.000113194)
(0.00122648 -1.35822e-06 9.33836e-05)
(0.00128222 -5.18729e-06 7.06334e-05)
(0.00136949 -7.94979e-06 3.38895e-05)
(0.001442 -1.15876e-05 8.6142e-06)
(0.00148825 -1.46626e-05 -3.0618e-05)
(0.00147567 -2.09143e-05 -6.27099e-05)
(0.0021307 0.000116772 0.000110229)
(0.00154437 5.8355e-05 0.000120257)
(0.00131795 2.2586e-05 0.000115506)
(0.00128664 -1.63757e-06 0.000107252)
(0.00135288 -9.5027e-06 8.42956e-05)
(0.00144456 -2.39046e-05 4.61975e-05)
(0.0015413 -2.5244e-05 2.07071e-05)
(0.0015929 -3.27977e-05 -1.85754e-05)
(0.00157566 -3.315e-05 -5.04751e-05)
(0.00220168 0.000137246 8.62912e-05)
(0.00163404 8.06175e-05 0.00011342)
(0.00142039 3.46248e-05 0.000124845)
(0.00140269 6.92912e-06 0.00012672)
(0.00147495 -1.21716e-05 0.000108729)
(0.00159596 -3.76066e-05 8.29721e-05)
(0.0016951 -4.82648e-05 4.96768e-05)
(0.00179164 -5.96812e-05 4.14155e-06)
(0.00178139 -6.37567e-05 -4.18125e-05)
(0.00214874 5.05156e-05 0.000135428)
(0.00156731 2.20499e-05 0.000123409)
(0.00133848 8.77109e-06 0.000104624)
(0.0013113 -4.98919e-06 8.50252e-05)
(0.00135615 -1.42758e-05 5.35961e-05)
(0.0014398 -2.05046e-05 5.00926e-06)
(0.00147886 -2.36305e-05 -2.50808e-05)
(0.00150371 -3.58985e-05 -7.10715e-05)
(0.00146409 -3.83821e-05 -8.60017e-05)
(0.00217796 9.3673e-05 0.000120249)
(0.00160253 4.8734e-05 0.000116596)
(0.00137942 1.91967e-05 0.000103601)
(0.00136128 -1.61069e-06 9.25176e-05)
(0.00141867 -1.41809e-05 6.26549e-05)
(0.00151154 -1.89917e-05 1.90732e-05)
(0.00158028 -2.7793e-05 -1.59607e-05)
(0.00163569 -3.44845e-05 -6.5529e-05)
(0.00158695 -3.37897e-05 -9.83015e-05)
(0.00221093 0.000109006 9.56532e-05)
(0.00164461 6.39311e-05 0.000103629)
(0.00142901 2.73029e-05 0.000102515)
(0.00142436 2.843e-07 9.57292e-05)
(0.00149474 -2.21463e-05 6.98418e-05)
(0.00161758 -3.71728e-05 4.1268e-05)
(0.0017274 -5.10516e-05 5.10239e-06)
(0.0018405 -6.45607e-05 -4.78896e-05)
(0.00184113 -6.71497e-05 -8.76335e-05)
)
;

boundaryField
{
    inlet
    {
        type            calculated;
        value           nonuniform List<vector> 9((0.00365967 0.000269396 -0.000132712) (0.00379946 0.000579663 -0.000180784) (0.0042435 0.000457482 -0.000243683) (0.00384319 0.000172155 0.000363952) (0.00387756 0.000431285 0.000206798) (0.00423996 0.000410173 2.73847e-06) (0.00417462 0.000189298 0.000222547) (0.00417566 0.000253682 0.000191402) (0.00417611 0.000215504 2.29533e-05));
    }
    outlet
    {
        type            calculated;
        value           nonuniform 0();
    }
    wall
    {
        type            calculated;
        value           nonuniform List<vector> 
57
(
(0.00417462 0.000189298 0.000222547)
(0.00417566 0.000253682 0.000191402)
(0.00417611 0.000215504 2.29533e-05)
(0.000572767 -3.31201e-05 0.000127737)
(0.000618148 4.58393e-06 0.000153753)
(0.000670926 3.18875e-05 6.31393e-05)
(0.00079489 1.06075e-05 5.61757e-05)
(0.000878451 -1.22574e-05 6.0904e-05)
(0.000924201 -1.42217e-06 4.87485e-05)
(0.0011392 -4.55299e-05 3.6966e-05)
(0.00130551 -2.36222e-05 0.000120617)
(0.00144177 -2.91085e-05 7.24824e-05)
(0.00115218 -6.68855e-05 -1.82913e-05)
(0.00146492 -2.9139e-05 4.5594e-05)
(0.00162034 -0.000101183 -1.85766e-05)
(0.00133454 -8.08068e-05 -0.000257517)
(0.0016905 6.92923e-05 -0.000117259)
(0.0020519 -9.53902e-05 5.7495e-06)
(0.000995735 -8.75359e-06 -0.00014932)
(0.00160399 1.57489e-05 -0.000118129)
(0.00226704 -0.00013207 -1.18504e-05)
(0.0008871 -0.000113033 -0.000377848)
(0.00188276 3.25146e-05 -0.000301284)
(0.0029843 -0.000207248 -0.00019607)
(0.000549456 -7.8189e-05 -9.97766e-05)
(0.00135851 9.2932e-05 -0.000264207)
(0.00296435 -0.000204664 -0.000222238)
(0.0042435 0.000457482 -0.000243683)
(0.00423996 0.000410173 2.73847e-06)
(0.00417611 0.000215504 2.29533e-05)
(0.000699834 0.000112615 0.000218597)
(0.000740048 0.000133142 0.000133864)
(0.000670926 3.18875e-05 6.31393e-05)
(0.00105687 3.99424e-05 0.000193171)
(0.00107186 8.20549e-06 0.000146386)
(0.000924201 -1.42217e-06 4.87485e-05)
(0.00144102 -4.66812e-05 0.000325203)
(0.00140421 1.56065e-05 0.000185937)
(0.00144177 -2.91085e-05 7.24824e-05)
(0.00150427 1.25904e-05 0.000270339)
(0.00166652 3.47162e-06 0.000161025)
(0.00162034 -0.000101183 -1.85766e-05)
(0.00194914 -0.000149958 0.000315231)
(0.00209933 -0.000163507 0.000177807)
(0.0020519 -9.53902e-05 5.7495e-06)
(0.00239442 -7.06586e-07 0.000275696)
(0.00205215 -4.96359e-05 0.000205906)
(0.00209456 -0.000166264 0.000183736)
(0.00226704 -0.00013207 -1.18504e-05)
(0.00320096 -0.000186989 0.000226479)
(0.00241348 -0.000106751 0.000128779)
(0.00261485 -0.000219537 0.000119747)
(0.0029843 -0.000207248 -0.00019607)
(0.00308973 -6.81107e-05 -1.9333e-05)
(0.00221733 0.000154415 0.000105278)
(0.0022721 -0.000187291 7.08174e-06)
(0.00296435 -0.000204664 -0.000222238)
)
;
    }
    procBoundary6to0
    {
        type            processor;
        value           uniform (0.00147676 -4.22947e-06 -9.8343e-06);
    }
    procBoundary6to2
    {
        type            processor;
        value           nonuniform List<vector> 
32
(
(0.00159421 9.85244e-07 2.14945e-05)
(0.00166654 -5.79591e-06 6.60499e-05)
(0.00173628 3.0303e-06 3.54552e-05)
(0.00174274 2.6054e-06 0.0001794)
(0.00188561 -1.1455e-05 0.000122671)
(0.00194626 1.17972e-05 6.15961e-05)
(0.00205604 7.51764e-05 2.01318e-05)
(0.00147087 3.816e-05 0.000147224)
(0.00125086 1.89105e-05 0.000180363)
(0.00121371 2.12369e-06 0.000193257)
(0.00126142 2.38211e-06 0.000147701)
(0.00135158 -1.0399e-06 9.98336e-05)
(0.00142873 3.31908e-06 6.24369e-05)
(0.00149404 6.78543e-06 1.17742e-05)
(0.00149404 6.78543e-06 1.17742e-05)
(0.00149404 6.78543e-06 1.17742e-05)
(0.00212569 0.000142806 2.19273e-05)
(0.00154778 7.42114e-05 0.000148232)
(0.00133103 3.53215e-05 0.000191721)
(0.00129178 6.24581e-06 0.00021408)
(0.00135004 1.27651e-06 0.000177172)
(0.00144946 -9.51117e-06 0.000141289)
(0.0015482 -6.28013e-06 9.25667e-05)
(0.0015482 -6.28013e-06 9.25667e-05)
(0.0015482 -6.28013e-06 9.25667e-05)
(0.002219 0.000165828 2.38475e-05)
(0.00166456 0.000101414 0.000152868)
(0.00146027 5.33724e-05 0.000211068)
(0.00144286 2.48285e-05 0.000246525)
(0.00151094 1.17772e-05 0.000228339)
(0.00164365 -8.84468e-06 0.000203433)
(0.00164365 -8.84468e-06 0.000203433)
)
;
    }
    procBoundary6to4
    {
        type            processor;
        value           nonuniform List<vector> 
27
(
(0.002026 -1.63627e-05 8.11899e-05)
(0.0014267 -8.21782e-07 0.000135302)
(0.0012054 1.89359e-06 0.000140353)
(0.00116084 5.15553e-06 0.000131723)
(0.00122149 4.77297e-06 0.000102273)
(0.00129953 5.42557e-06 6.52113e-05)
(0.00138644 3.37943e-06 3.41852e-05)
(0.00143255 -3.88105e-06 -7.00255e-06)
(0.00145083 -1.58214e-05 -2.1823e-05)
(0.00207436 -1.73193e-05 0.000136449)
(0.00148016 -3.39518e-06 0.000137033)
(0.00125073 -9.77755e-07 0.000120462)
(0.00121719 1.60821e-06 0.000101128)
(0.00127742 -9.13564e-07 7.62262e-05)
(0.0013734 -1.11983e-06 3.98913e-05)
(0.001455 -4.7444e-06 9.62466e-06)
(0.00150513 -1.41073e-06 -3.17922e-05)
(0.00151341 -3.39658e-05 -5.13938e-05)
(0.00213612 -1.42289e-05 0.000138875)
(0.00155846 -8.28244e-06 0.000133553)
(0.00133885 -4.81611e-06 0.000112922)
(0.0013268 -3.30598e-06 9.66428e-05)
(0.00139325 -9.49751e-06 6.83326e-05)
(0.00152 -1.82501e-05 2.74643e-05)
(0.00158798 -2.67482e-05 -1.04856e-05)
(0.00165721 -4.38019e-05 -5.02984e-05)
(0.00165179 -6.01806e-05 -7.78208e-05)
)
;
    }
    procBoundary6to7
    {
        type            processor;
        value           nonuniform List<vector> 
12
(
(0.00150183 -1.05459e-05 -2.52742e-05)
(0.00165088 -2.37948e-05 -3.0441e-05)
(0.00189719 -4.88901e-05 -5.51374e-05)
(0.00139767 -2.41966e-05 -7.03434e-05)
(0.00152481 -4.46424e-05 -5.75438e-05)
(0.00176726 -5.0209e-05 -5.88981e-05)
(0.00137845 -5.31642e-06 -0.000124493)
(0.00149714 -3.95431e-05 -9.59832e-05)
(0.00174463 -8.93544e-05 -8.59057e-05)
(0.00140333 -2.84272e-05 -0.000115065)
(0.00149571 -3.67683e-05 -0.00014707)
(0.00179219 -6.18513e-05 -0.00011885)
)
;
    }
}


// ************************************************************************* //
