/*--------------------------------*- C++ -*----------------------------------*\
| =========                 |                                                 |
| \\      /  F ield         | OpenFOAM: The Open Source CFD Toolbox           |
|  \\    /   O peration     | Version:  4.x                                   |
|   \\  /    A nd           | Web:      www.OpenFOAM.org                      |
|    \\/     M anipulation  |                                                 |
\*---------------------------------------------------------------------------*/
FoamFile
{
    version     2.0;
    format      ascii;
    class       volScalarField;
    location    "5.5";
    object      QPartFluid;
}
// * * * * * * * * * * * * * * * * * * * * * * * * * * * * * * * * * * * * * //

dimensions      [1 -1 -3 0 0 0 0];

internalField   nonuniform List<scalar> 
87
(
8.21074e+09
6.73684e+09
8.98818e+09
5.75124e+09
6.50577e+09
5.77247e+09
9.85564e+09
8.85302e+09
5.98586e+09
7.89461e+09
1.09924e+10
6.28497e+09
8.72084e+09
6.74869e+09
1.00197e+10
6.2433e+09
9.15205e+09
8.04825e+09
9.72248e+09
9.09549e+09
8.73379e+09
8.71014e+09
9.51384e+09
9.44914e+09
4.63163e+09
7.63091e+09
5.90752e+09
6.25481e+09
8.67315e+09
9.79294e+09
7.33712e+09
6.88409e+09
9.04452e+09
7.55801e+09
8.93679e+09
9.75393e+09
8.13335e+09
6.70671e+09
7.88962e+09
7.90705e+09
6.28987e+09
9.57184e+09
5.33625e+09
8.78155e+09
8.72276e+09
8.19883e+09
7.83366e+09
6.40007e+09
9.92072e+09
6.46192e+09
9.88805e+09
4.77392e+09
6.68017e+09
6.1225e+09
7.86896e+09
8.16814e+09
6.31823e+09
7.5393e+09
6.80408e+09
7.03683e+09
4.60469e+09
5.42953e+09
7.1783e+09
7.08842e+09
7.16231e+09
6.6197e+09
1.03386e+10
8.85737e+09
4.51965e+09
5.16453e+09
5.81927e+09
7.53274e+09
6.18622e+09
9.58054e+09
6.18163e+09
7.80267e+09
6.33274e+09
8.51015e+09
4.19669e+09
6.11463e+09
6.66242e+09
6.29166e+09
5.17706e+09
8.4976e+09
5.57107e+09
5.68977e+09
7.24745e+09
)
;

boundaryField
{
    inlet
    {
        type            calculated;
        value           uniform 0;
    }
    outlet
    {
        type            calculated;
        value           nonuniform 0();
    }
    wall
    {
        type            calculated;
        value           uniform 0;
    }
    procBoundary6to0
    {
        type            processor;
        value           uniform 2.6764e+09;
    }
    procBoundary6to2
    {
        type            processor;
        value           nonuniform List<scalar> 
32
(
5.78363e+09
8.59968e+09
1.0388e+10
9.8014e+09
5.70689e+09
1.00502e+10
4.85173e+09
9.35935e+09
1.0117e+10
7.03392e+09
7.72282e+09
6.74084e+09
7.60995e+09
8.00509e+09
8.00509e+09
8.00509e+09
5.83304e+09
7.80833e+09
1.03783e+10
6.44651e+09
8.97492e+09
7.50368e+09
1.0347e+10
1.0347e+10
1.0347e+10
4.23005e+09
6.31894e+09
7.42743e+09
7.31392e+09
6.70862e+09
6.72125e+09
6.72125e+09
)
;
    }
    procBoundary6to4
    {
        type            processor;
        value           nonuniform List<scalar> 
27
(
3.42696e+09
6.66352e+09
9.2348e+09
5.6492e+09
8.72423e+09
6.39731e+09
1.13055e+10
6.15236e+09
7.00091e+09
6.16716e+09
8.54463e+09
7.48467e+09
9.72174e+09
1.09029e+10
7.37453e+09
1.18709e+10
8.68754e+09
8.14492e+09
7.41133e+09
7.04215e+09
6.65008e+09
8.29044e+09
8.60934e+09
9.86179e+09
5.07198e+09
5.46415e+09
7.24429e+09
)
;
    }
    procBoundary6to7
    {
        type            processor;
        value           nonuniform List<scalar> 
12
(
8.0509e+09
6.27404e+09
5.80479e+09
3.92882e+09
6.60156e+09
6.12472e+09
8.82747e+09
8.17579e+09
6.24969e+09
7.1618e+09
6.51124e+09
6.57509e+09
)
;
    }
}


// ************************************************************************* //
