/*--------------------------------*- C++ -*----------------------------------*\
| =========                 |                                                 |
| \\      /  F ield         | OpenFOAM: The Open Source CFD Toolbox           |
|  \\    /   O peration     | Version:  4.x                                   |
|   \\  /    A nd           | Web:      www.OpenFOAM.org                      |
|    \\/     M anipulation  |                                                 |
\*---------------------------------------------------------------------------*/
FoamFile
{
    version     2.0;
    format      ascii;
    class       volScalarField;
    location    "5.5";
    object      QWallFluidCoeff;
}
// * * * * * * * * * * * * * * * * * * * * * * * * * * * * * * * * * * * * * //

dimensions      [1 -1 -3 -1 0 0 0];

internalField   nonuniform List<scalar> 
87
(
0
0
0
-2.98198e+06
-2.1346e+06
-3.15603e+06
0
0
0
0
0
0
0
0
0
0
0
0
0
0
0
0
0
0
-2.68714e+06
-1.48562e+06
-2.71257e+06
-1.63381e+06
-2.74629e+06
-1.74178e+06
-2.83912e+06
-1.93798e+06
-2.96169e+06
0
0
0
0
0
0
0
0
0
0
0
0
0
0
0
0
0
0
-2.69221e+06
-1.5081e+06
-2.74503e+06
-1.68988e+06
-2.80452e+06
-1.90701e+06
-2.92173e+06
-2.07559e+06
-3.06192e+06
-2.6561e+06
-1.43744e+06
-2.66011e+06
-1.49295e+06
-2.68679e+06
-1.52929e+06
-2.70824e+06
-1.41685e+06
-2.70602e+06
-2.67196e+06
-1.47529e+06
-2.69649e+06
-1.60654e+06
-2.74636e+06
-1.78342e+06
-2.82705e+06
-1.84917e+06
-2.87109e+06
-5.37706e+06
-3.06962e+06
-5.48026e+06
-3.40965e+06
-5.64059e+06
-3.79132e+06
-5.88343e+06
-4.22245e+06
-6.14566e+06
)
;

boundaryField
{
    inlet
    {
        type            calculated;
        value           uniform 0;
    }
    outlet
    {
        type            calculated;
        value           nonuniform 0();
    }
    wall
    {
        type            calculated;
        value           uniform 0;
    }
    procBoundary6to0
    {
        type            processor;
        value           uniform 0;
    }
    procBoundary6to2
    {
        type            processor;
        value           uniform 0;
    }
    procBoundary6to4
    {
        type            processor;
        value           uniform 0;
    }
    procBoundary6to7
    {
        type            processor;
        value           uniform 0;
    }
}


// ************************************************************************* //
