/*--------------------------------*- C++ -*----------------------------------*\
| =========                 |                                                 |
| \\      /  F ield         | OpenFOAM: The Open Source CFD Toolbox           |
|  \\    /   O peration     | Version:  4.x                                   |
|   \\  /    A nd           | Web:      www.OpenFOAM.org                      |
|    \\/     M anipulation  |                                                 |
\*---------------------------------------------------------------------------*/
FoamFile
{
    version     2.0;
    format      ascii;
    class       volScalarField;
    location    "5.5";
    object      Sm;
}
// * * * * * * * * * * * * * * * * * * * * * * * * * * * * * * * * * * * * * //

dimensions      [1 -3 -1 0 0 0 0];

internalField   nonuniform List<scalar> 
87
(
6.7385e-65
6.04153e-65
7.12637e-65
5.11253e-65
5.80968e-65
4.9579e-65
1.03836e-64
7.59305e-65
4.95798e-65
7.43575e-65
9.37108e-65
6.11803e-65
7.35715e-65
6.50579e-65
8.52043e-65
5.81174e-65
7.9033e-65
6.43015e-65
8.52079e-65
7.3583e-65
7.82263e-65
7.04819e-65
8.59749e-65
7.5915e-65
4.95962e-65
7.20615e-65
5.42361e-65
6.12008e-65
7.59167e-65
8.75299e-65
6.35188e-65
6.81685e-65
7.5147e-65
7.98162e-65
7.67067e-65
7.90221e-65
7.28134e-65
5.42185e-65
7.04805e-65
6.27361e-65
5.88646e-65
7.90106e-65
5.65686e-65
7.28348e-65
6.81795e-65
7.20431e-65
5.96475e-65
5.57682e-65
7.74577e-65
5.73203e-65
7.74664e-65
5.19217e-65
6.74142e-65
5.57857e-65
7.59244e-65
7.28221e-65
5.96485e-65
6.50728e-65
6.11989e-65
5.65573e-65
4.72711e-65
5.26911e-65
5.96578e-65
6.89469e-65
6.50707e-65
6.42912e-65
8.67553e-65
8.75318e-65
3.79599e-65
6.04458e-65
5.50169e-65
6.81842e-65
5.65557e-65
8.59904e-65
5.65504e-65
6.89436e-65
5.65511e-65
7.82482e-65
4.41734e-65
6.27665e-65
6.12134e-65
6.43073e-65
4.95851e-65
8.21204e-65
4.80348e-65
5.11341e-65
6.0435e-65
)
;

boundaryField
{
    inlet
    {
        type            calculated;
        value           uniform 0;
    }
    outlet
    {
        type            calculated;
        value           nonuniform 0();
    }
    wall
    {
        type            calculated;
        value           uniform 0;
    }
    procBoundary6to0
    {
        type            processor;
        value           uniform 2.32354e-65;
    }
    procBoundary6to2
    {
        type            processor;
        value           nonuniform List<scalar> 
32
(
4.87971e-65
7.43568e-65
8.36568e-65
8.28855e-65
4.9575e-65
8.90823e-65
4.8043e-65
8.13511e-65
8.36629e-65
6.50633e-65
6.42814e-65
6.27281e-65
6.27286e-65
7.74482e-65
7.74482e-65
7.74482e-65
6.89683e-65
6.89586e-65
8.36705e-65
5.80967e-65
7.20317e-65
6.89297e-65
8.36475e-65
8.36475e-65
8.36475e-65
5.26957e-65
6.50881e-65
6.27563e-65
7.12717e-65
5.4999e-65
6.35169e-65
6.35169e-65
)
;
    }
    procBoundary6to4
    {
        type            processor;
        value           nonuniform List<scalar> 
27
(
4.33936e-65
5.73345e-65
7.59163e-65
5.1894e-65
7.35722e-65
6.04038e-65
9.52539e-65
5.96344e-65
5.964e-65
6.66424e-65
7.20578e-65
5.96499e-65
8.52072e-65
8.75204e-65
6.42829e-65
9.60354e-65
7.90019e-65
6.81657e-65
7.74937e-65
7.05125e-65
5.81086e-65
7.82401e-65
7.12641e-65
9.21739e-65
4.49263e-65
4.88016e-65
6.35229e-65
)
;
    }
    procBoundary6to7
    {
        type            processor;
        value           nonuniform List<scalar> 
12
(
7.66904e-65
5.50033e-65
5.11336e-65
3.95078e-65
5.81042e-65
5.57836e-65
8.05687e-65
7.05015e-65
5.34613e-65
6.89509e-65
5.96587e-65
6.27615e-65
)
;
    }
}


// ************************************************************************* //
