/*--------------------------------*- C++ -*----------------------------------*\
| =========                 |                                                 |
| \\      /  F ield         | OpenFOAM: The Open Source CFD Toolbox           |
|  \\    /   O peration     | Version:  4.x                                   |
|   \\  /    A nd           | Web:      www.OpenFOAM.org                      |
|    \\/     M anipulation  |                                                 |
\*---------------------------------------------------------------------------*/
FoamFile
{
    version     2.0;
    format      ascii;
    class       volScalarField;
    location    "7.5";
    object      Cs;
}
// * * * * * * * * * * * * * * * * * * * * * * * * * * * * * * * * * * * * * //

dimensions      [1 -3 0 0 0 0 0];

internalField   nonuniform List<scalar> 
87
(
334.952
334.9
334.931
334.889
334.862
334.838
334.999
334.995
334.984
334.961
334.937
334.924
334.93
334.957
334.996
334.999
334.996
334.987
334.969
334.947
334.93
334.926
334.941
334.97
334.999
334.997
334.99
334.979
334.961
334.942
334.921
334.904
334.889
335
334.996
334.988
334.971
334.951
334.935
334.933
334.948
334.972
335
334.997
334.989
334.975
334.956
334.94
334.935
334.947
334.974
335
334.997
334.992
334.982
334.968
334.953
334.939
334.927
334.917
334.999
334.997
334.99
334.979
334.963
334.946
334.932
334.921
334.915
335
334.997
334.991
334.981
334.966
334.951
334.937
334.927
334.92
335
334.997
334.992
334.982
334.968
334.954
334.939
334.927
334.918
)
;

boundaryField
{
    inlet
    {
        type            calculated;
        value           uniform 335;
    }
    outlet
    {
        type            calculated;
        value           nonuniform 0();
    }
    wall
    {
        type            calculated;
        value           nonuniform List<scalar> 
57
(
334.999
335
335
334.997
334.997
334.997
334.99
334.991
334.992
334.979
334.981
334.982
334.963
334.966
334.968
334.946
334.951
334.954
334.932
334.937
334.939
334.921
334.927
334.927
334.915
334.92
334.918
334.999
335
335
334.997
334.997
334.997
334.99
334.992
334.992
334.979
334.982
334.982
334.961
334.968
334.968
334.942
334.953
334.954
334.889
334.921
334.939
334.939
334.862
334.904
334.927
334.927
334.838
334.889
334.917
334.918
)
;
    }
    procBoundary6to0
    {
        type            processor;
        value           uniform 334.926;
    }
    procBoundary6to2
    {
        type            processor;
        value           nonuniform List<scalar> 
32
(
334.899
334.826
334.868
334.81
334.769
334.739
334.999
334.995
334.983
334.959
334.93
334.908
334.902
334.919
334.919
334.919
334.999
334.995
334.984
334.96
334.93
334.903
334.887
334.887
334.887
334.999
334.996
334.987
334.972
334.948
334.921
334.921
)
;
    }
    procBoundary6to4
    {
        type            processor;
        value           nonuniform List<scalar> 
27
(
334.999
334.996
334.984
334.961
334.934
334.917
334.916
334.937
334.973
335
334.997
334.988
334.972
334.951
334.934
334.926
334.934
334.958
335
334.997
334.99
334.978
334.962
334.946
334.932
334.923
334.919
)
;
    }
    procBoundary6to7
    {
        type            processor;
        value           nonuniform List<scalar> 
12
(
334.994
334.978
334.829
335.043
335.007
334.885
335.003
335.012
334.913
334.917
334.916
334.911
)
;
    }
}


// ************************************************************************* //
