/*--------------------------------*- C++ -*----------------------------------*\
| =========                 |                                                 |
| \\      /  F ield         | OpenFOAM: The Open Source CFD Toolbox           |
|  \\    /   O peration     | Version:  4.x                                   |
|   \\  /    A nd           | Web:      www.OpenFOAM.org                      |
|    \\/     M anipulation  |                                                 |
\*---------------------------------------------------------------------------*/
FoamFile
{
    version     2.0;
    format      ascii;
    class       volVectorField;
    location    "7.5";
    object      DDtUrel;
}
// * * * * * * * * * * * * * * * * * * * * * * * * * * * * * * * * * * * * * //

dimensions      [0 1 -2 0 0 0 0];

internalField   nonuniform List<vector> 
87
(
(0.000259439 -4.9924e-06 -4.25349e-05)
(0.000331144 -2.04621e-05 1.44198e-05)
(0.000316132 -1.92512e-05 -2.81102e-05)
(0.000426454 -2.19797e-05 0.000108175)
(0.000439591 -3.62568e-05 6.87887e-05)
(0.000414096 -3.62656e-05 7.43185e-07)
(0.0016445 5.59168e-05 -7.63329e-05)
(0.000963952 2.65271e-05 -1.76088e-06)
(0.000610957 9.21994e-06 3.95879e-05)
(0.000431868 -2.41754e-06 6.8693e-05)
(0.000346096 -3.97838e-06 6.27295e-05)
(0.000307015 -6.80436e-06 4.64722e-05)
(0.000283749 -8.58708e-06 1.76457e-05)
(0.000272136 -1.19712e-05 -2.0091e-05)
(0.000254988 -1.01065e-05 -4.46148e-05)
(0.00169336 0.000108466 -8.18952e-05)
(0.00101608 5.03463e-05 -6.90322e-06)
(0.000656618 1.87528e-05 3.87477e-05)
(0.000470728 -4.12894e-06 7.39491e-05)
(0.000383379 -7.41414e-06 7.40602e-05)
(0.000344041 -1.35343e-05 6.35579e-05)
(0.000328665 -1.72953e-05 3.4252e-05)
(0.000319356 -2.47105e-05 -4.2695e-06)
(0.000300684 -2.12172e-05 -3.36773e-05)
(0.00176633 0.0001262 -9.18925e-05)
(0.00109732 6.83812e-05 -1.36937e-05)
(0.000735386 2.81583e-05 3.7737e-05)
(0.000546767 2.62742e-06 8.19684e-05)
(0.00045293 -7.62106e-06 9.40209e-05)
(0.000421061 -2.08509e-05 9.53595e-05)
(0.000406357 -2.68131e-05 6.76119e-05)
(0.000411777 -3.77204e-05 3.66147e-05)
(0.000383617 -3.2512e-05 -1.1086e-05)
(0.00167618 5.02646e-05 5.15088e-06)
(0.000996243 2.22009e-05 1.98147e-05)
(0.000634379 7.45057e-06 3.52271e-05)
(0.000455416 -3.90585e-06 4.5455e-05)
(0.000365815 -6.9848e-06 4.09036e-05)
(0.000327342 -9.55587e-06 2.43498e-05)
(0.000303441 -1.21157e-05 1.71656e-06)
(0.000288014 -1.5185e-05 -3.43454e-05)
(0.000256583 -1.20469e-05 -5.49145e-05)
(0.00171825 9.87432e-05 -5.71095e-06)
(0.00104 4.54334e-05 1.51361e-05)
(0.000674989 1.5528e-05 3.32313e-05)
(0.000490628 -3.66081e-06 5.02711e-05)
(0.000400547 -9.85853e-06 4.76659e-05)
(0.000359921 -1.93432e-05 3.30969e-05)
(0.000342885 -2.16969e-05 1.16414e-05)
(0.000330215 -2.62262e-05 -2.14758e-05)
(0.000301542 -2.12198e-05 -4.53901e-05)
(0.00178025 0.000115581 -2.42307e-05)
(0.00111197 6.21901e-05 6.19422e-06)
(0.000746723 2.40759e-05 3.28667e-05)
(0.000559163 1.86173e-06 5.64451e-05)
(0.000467748 -1.05785e-05 6.0011e-05)
(0.000434004 -2.49216e-05 5.5728e-05)
(0.000416086 -3.20383e-05 3.55845e-05)
(0.00042077 -4.05671e-05 8.78101e-06)
(0.000395124 -3.56924e-05 -2.52602e-05)
(0.00172731 4.78239e-05 3.03499e-05)
(0.00104969 1.84663e-05 2.81682e-05)
(0.00068472 4.86256e-06 3.22896e-05)
(0.000503476 -6.92074e-06 3.75523e-05)
(0.000409203 -1.16709e-05 3.13405e-05)
(0.000369405 -1.71393e-05 1.16384e-05)
(0.000331271 -1.80946e-05 -9.33981e-06)
(0.000307268 -2.16813e-05 -4.12573e-05)
(0.000254721 -1.85832e-05 -6.17432e-05)
(0.00176222 8.49808e-05 2.11073e-05)
(0.00108793 4.01934e-05 2.41446e-05)
(0.000722534 1.34345e-05 3.01184e-05)
(0.000538444 -4.68643e-06 4.01133e-05)
(0.000445766 -1.28979e-05 3.53888e-05)
(0.000403151 -1.87402e-05 1.92819e-05)
(0.000373463 -2.54778e-05 -4.90538e-06)
(0.000355517 -2.74453e-05 -3.63088e-05)
(0.000308774 -1.99142e-05 -6.35682e-05)
(0.00179991 9.86002e-05 3.32617e-06)
(0.00113211 5.24712e-05 1.42154e-05)
(0.000764671 2.01359e-05 2.74089e-05)
(0.00058008 -2.24193e-06 3.94317e-05)
(0.000485373 -1.58937e-05 3.82579e-05)
(0.000447617 -2.5704e-05 3.14215e-05)
(0.000428806 -3.27063e-05 1.02189e-05)
(0.00043115 -3.90282e-05 -1.67124e-05)
(0.000407958 -3.1565e-05 -4.6749e-05)
)
;

boundaryField
{
    inlet
    {
        type            calculated;
        value           nonuniform List<vector> 9((0.00359816 0.000220048 -0.000326575) (0.00368425 0.000435515 -0.000318579) (0.00406328 0.000394358 -0.000376517) (0.00372619 0.000182966 0.000153276) (0.00379604 0.000380692 0.000101335) (0.00411772 0.000359611 -5.67792e-05) (0.00401561 0.000204848 0.000139202) (0.00407306 0.000259985 0.000119507) (0.00413997 0.000237781 -2.08187e-06));
    }
    outlet
    {
        type            calculated;
        value           nonuniform 0();
    }
    wall
    {
        type            calculated;
        value           nonuniform List<vector> 
57
(
(0.00401561 0.000204848 0.000139202)
(0.00407306 0.000259985 0.000119507)
(0.00413997 0.000237781 -2.08187e-06)
(0.000118161 -3.15156e-05 2.31319e-05)
(0.000216054 -5.33336e-06 6.02013e-05)
(0.00035643 1.56007e-05 8.69335e-07)
(0.000143494 -5.79605e-06 8.38871e-06)
(0.000268009 -1.52427e-05 9.13236e-06)
(0.000356244 -3.69411e-06 6.07233e-06)
(0.000248907 -5.54271e-05 1.92846e-05)
(0.000368453 -4.0618e-05 6.64381e-05)
(0.000480529 -3.56514e-05 2.79456e-05)
(0.000197069 -3.75094e-05 8.96363e-06)
(0.000412912 -2.45646e-05 3.80763e-05)
(0.000476364 -5.38591e-05 -1.28613e-06)
(0.000283248 -6.95459e-05 -8.8821e-05)
(0.000460871 2.3276e-06 -1.07926e-05)
(0.000564226 -5.85994e-05 4.06017e-05)
(8.07766e-05 -1.66202e-05 -4.5371e-05)
(0.000388953 -5.3105e-05 -6.50396e-05)
(0.000568783 -5.91323e-05 -2.55967e-06)
(0.000121208 -4.08812e-05 -0.000134832)
(0.000442801 -4.4184e-05 -0.000140155)
(0.000777746 -0.000114481 -2.47543e-05)
(-0.000179049 -4.43337e-06 -7.88494e-05)
(0.000180636 2.93444e-05 -0.000136728)
(0.000730237 -4.47002e-05 -5.99749e-05)
(0.00406328 0.000394358 -0.000376517)
(0.00411772 0.000359611 -5.67792e-05)
(0.00413997 0.000237781 -2.08187e-06)
(0.000226175 7.15353e-05 4.26078e-05)
(0.00033406 7.48041e-05 2.72451e-05)
(0.00035643 1.56007e-05 8.69335e-07)
(0.000298596 4.94147e-06 3.10689e-05)
(0.000370882 -1.70691e-06 4.34257e-05)
(0.000356244 -3.69411e-06 6.07233e-06)
(0.000350143 -5.03365e-05 0.000174981)
(0.000431686 -2.74502e-06 0.000113981)
(0.000480529 -3.56514e-05 2.79456e-05)
(0.000336321 -1.25809e-05 0.000152505)
(0.00047813 5.19861e-07 8.55826e-05)
(0.000476364 -5.38591e-05 -1.28613e-06)
(0.000473623 -7.67588e-05 0.000245538)
(0.00060785 -7.55889e-05 0.000129403)
(0.000564226 -5.85994e-05 4.06017e-05)
(0.000680188 -5.39178e-05 0.000244272)
(0.000487879 -3.89216e-05 0.000154047)
(0.000558032 -7.32285e-05 0.000110015)
(0.000568783 -5.91323e-05 -2.55967e-06)
(0.00102156 -0.000164327 0.00032154)
(0.000691098 -0.000125585 0.000202656)
(0.000792275 -0.000141359 0.000117611)
(0.000777746 -0.000114481 -2.47543e-05)
(0.000756177 -9.9159e-05 1.68289e-05)
(0.000449634 -1.51757e-05 5.21696e-05)
(0.000620416 -5.22029e-05 5.93156e-05)
(0.000730237 -4.47002e-05 -5.99749e-05)
)
;
    }
    procBoundary6to0
    {
        type            processor;
        value           uniform (0.000237462 -1.43357e-06 -4.5585e-05);
    }
    procBoundary6to2
    {
        type            processor;
        value           nonuniform List<vector> 
32
(
(0.000256568 -3.58639e-06 -3.8405e-05)
(0.000321767 -1.53246e-05 3.37771e-05)
(0.000307793 -1.42296e-05 -1.60981e-05)
(0.00041918 -8.88066e-06 0.000150287)
(0.00042673 -2.39665e-05 0.000103108)
(0.000398901 -2.5517e-05 2.75408e-05)
(0.00166013 5.65426e-05 -0.000154671)
(0.000986567 2.85839e-05 -1.94985e-05)
(0.000629059 1.21734e-05 5.27476e-05)
(0.000444909 4.07337e-08 0.000105431)
(0.000350585 -1.72205e-06 9.50668e-05)
(0.000312724 -5.92818e-06 7.42473e-05)
(0.000281995 -5.23758e-06 3.42673e-05)
(0.000277855 -4.57848e-06 -9.76862e-06)
(0.000277855 -4.57848e-06 -9.76862e-06)
(0.000277855 -4.57848e-06 -9.76862e-06)
(0.00171084 0.000107695 -0.000155717)
(0.00103999 5.43101e-05 -2.40926e-05)
(0.000678467 2.30216e-05 5.18563e-05)
(0.000489269 2.55948e-06 0.000110314)
(0.000394849 -2.9092e-06 0.000111038)
(0.000356662 -1.1492e-05 0.000103658)
(0.000331898 -1.38603e-05 6.10212e-05)
(0.000331898 -1.38603e-05 6.10212e-05)
(0.000331898 -1.38603e-05 6.10212e-05)
(0.00178312 0.000128145 -0.000159407)
(0.00112361 7.29658e-05 -3.04111e-05)
(0.000762163 3.36806e-05 5.12947e-05)
(0.000574501 1.12768e-05 0.000119118)
(0.000480272 -1.76992e-07 0.000140105)
(0.000449867 -1.3639e-05 0.000148396)
(0.000449867 -1.3639e-05 0.000148396)
)
;
    }
    procBoundary6to4
    {
        type            processor;
        value           nonuniform List<vector> 
27
(
(0.00163018 -1.41813e-05 -7.10367e-05)
(0.000947403 -2.39441e-06 3.49121e-06)
(0.000596883 -8.09683e-07 4.281e-05)
(0.000415974 1.87842e-06 7.02962e-05)
(0.000333727 9.26267e-07 6.25865e-05)
(0.00029093 4.71948e-07 4.32059e-05)
(0.000272693 -1.54263e-06 1.52021e-05)
(0.000255449 -4.63012e-06 -2.0263e-05)
(0.000240263 -7.40648e-06 -4.46083e-05)
(0.0016647 -1.50871e-05 8.37461e-06)
(0.000983566 -3.70022e-06 2.80703e-05)
(0.000625677 -2.14708e-06 3.95785e-05)
(0.000447523 -4.70394e-07 5.1294e-05)
(0.00036402 -2.11404e-06 4.53564e-05)
(0.000327161 -2.49389e-06 2.83606e-05)
(0.0003084 -5.90252e-06 2.5631e-06)
(0.000287753 -8.56245e-06 -3.28433e-05)
(0.000266848 -1.53315e-05 -5.18958e-05)
(0.00171331 -1.20051e-05 3.14617e-05)
(0.00103836 -7.33326e-06 3.54294e-05)
(0.000679718 -4.7379e-06 3.79817e-05)
(0.000507864 -3.76203e-06 4.50464e-05)
(0.000427735 -5.96339e-06 3.9121e-05)
(0.000404113 -1.08427e-05 2.52601e-05)
(0.000383878 -1.4448e-05 -1.5504e-06)
(0.000369251 -2.32896e-05 -3.4776e-05)
(0.000327211 -2.87955e-05 -5.48567e-05)
)
;
    }
    procBoundary6to7
    {
        type            processor;
        value           nonuniform List<vector> 
12
(
(0.000251716 -8.82593e-06 -7.97454e-05)
(0.000312688 -2.4495e-05 -7.7363e-05)
(0.000418865 -4.65432e-05 -5.91263e-05)
(0.000223583 -1.14696e-05 -8.19487e-05)
(0.000275445 -2.56087e-05 -7.07898e-05)
(0.000373811 -3.66902e-05 -5.47502e-05)
(0.000223611 -3.12601e-06 -9.13189e-05)
(0.000274133 -1.86184e-05 -8.05416e-05)
(0.000387269 -4.6292e-05 -5.93762e-05)
(0.000214865 -1.51951e-05 -8.80887e-05)
(0.000265744 -1.65576e-05 -0.000103091)
(0.000391072 -2.71063e-05 -7.70278e-05)
)
;
    }
}


// ************************************************************************* //
