/*--------------------------------*- C++ -*----------------------------------*\
| =========                 |                                                 |
| \\      /  F ield         | OpenFOAM: The Open Source CFD Toolbox           |
|  \\    /   O peration     | Version:  4.x                                   |
|   \\  /    A nd           | Web:      www.OpenFOAM.org                      |
|    \\/     M anipulation  |                                                 |
\*---------------------------------------------------------------------------*/
FoamFile
{
    version     2.0;
    format      ascii;
    class       volScalarField;
    location    "7.5";
    object      QPartFluidCoeff;
}
// * * * * * * * * * * * * * * * * * * * * * * * * * * * * * * * * * * * * * //

dimensions      [1 -1 -3 -1 0 0 0];

internalField   nonuniform List<scalar> 
87
(
-2.73241e+07
-2.22749e+07
-2.97689e+07
-1.88358e+07
-2.10987e+07
-1.88859e+07
-3.29212e+07
-2.96928e+07
-2.00058e+07
-2.66176e+07
-3.65128e+07
-2.07509e+07
-2.88946e+07
-2.25099e+07
-3.32532e+07
-2.08152e+07
-3.06324e+07
-2.68326e+07
-3.2477e+07
-3.01839e+07
-2.89171e+07
-2.87996e+07
-3.10529e+07
-3.12221e+07
-1.54159e+07
-2.53905e+07
-1.96313e+07
-2.05907e+07
-2.86801e+07
-3.19086e+07
-2.40127e+07
-2.22324e+07
-2.95066e+07
-2.5158e+07
-2.99007e+07
-3.24261e+07
-2.71617e+07
-2.22082e+07
-2.6291e+07
-2.61498e+07
-2.08362e+07
-3.17268e+07
-1.77639e+07
-2.93423e+07
-2.90025e+07
-2.74937e+07
-2.59189e+07
-2.1404e+07
-3.27947e+07
-2.1495e+07
-3.26818e+07
-1.58848e+07
-2.22803e+07
-2.03543e+07
-2.60427e+07
-2.70341e+07
-2.06607e+07
-2.4788e+07
-2.21651e+07
-2.30244e+07
-1.53202e+07
-1.80847e+07
-2.37833e+07
-2.33418e+07
-2.36213e+07
-2.17017e+07
-3.40367e+07
-2.92494e+07
-1.49641e+07
-1.72171e+07
-1.94274e+07
-2.50436e+07
-2.04652e+07
-3.17145e+07
-2.02733e+07
-2.57651e+07
-2.08015e+07
-2.81083e+07
-1.3994e+07
-2.04294e+07
-2.21909e+07
-2.08905e+07
-1.71735e+07
-2.79614e+07
-1.83743e+07
-1.84795e+07
-2.37825e+07
)
;

boundaryField
{
    inlet
    {
        type            calculated;
        value           uniform 0;
    }
    outlet
    {
        type            calculated;
        value           nonuniform 0();
    }
    wall
    {
        type            calculated;
        value           uniform 0;
    }
    procBoundary6to0
    {
        type            processor;
        value           uniform 202.728;
    }
    procBoundary6to2
    {
        type            processor;
        value           nonuniform List<scalar> 
32
(
437.803
646.493
782.275
728.587
418.77
752.276
366.759
713.5
766.939
537.123
581.524
507.731
571.337
605.1
605.1
605.1
440.775
594.505
783.945
489.681
673.834
565.303
770.994
770.994
770.994
319.184
477.684
560.143
547.373
502.101
493.853
493.853
)
;
    }
    procBoundary6to4
    {
        type            processor;
        value           nonuniform List<scalar> 
27
(
259.775
505.923
699.598
427.995
657.266
478.778
854.513
460.911
531.565
465.58
646.085
562.594
729.001
814.219
549.366
886.611
650.671
611.82
559.227
531.073
499.573
615.438
641.288
727.242
375.53
401.711
538.118
)
;
    }
    procBoundary6to7
    {
        type            processor;
        value           nonuniform List<scalar> 
12
(
610.946
470.699
430.349
298.631
492.158
454.056
661.831
617.99
457.892
550.392
487.545
483.543
)
;
    }
}


// ************************************************************************* //
