/*--------------------------------*- C++ -*----------------------------------*\
  =========                 |
  \\      /  F ield         | OpenFOAM: The Open Source CFD Toolbox
   \\    /   O peration     | Website:  https://openfoam.org
    \\  /    A nd           | Version:  4.x
     \\/     M anipulation  |
\*---------------------------------------------------------------------------*/
FoamFile
{
    version     2.0;
    format      ascii;
    class       Cloud<passiveParticle>;
    location    0;
    object      positions;
}
// * * * * * * * * * * * * * * * * * * * * * * * * * * * * * * * * * * * * * //

325
(
( 0.0388632 -0.081191 0.0295148 ) 1
( 0.0913 -0.0733745 0.0222729 ) 3
( 0.244183 -0.0297181 0.0296369 ) 26
( 0.104004 -0.0622825 0.0322518 ) 12
( 0.121193 -0.0409913 0.023965 ) 22
( 0.0693453 -0.0265571 0.0234735 ) 20
( 0.0144262 -0.0313875 0.0343352 ) 18
( 0.00979425 -0.0204778 0.0185731 ) 18
( 0.229594 -0.0151987 0.0287518 ) 26
( 0.0184305 -0.0623023 0.0160031 ) 9
( 0.241448 -0.00395023 0.0175762 ) 35
( 0.204781 -0.0421129 0.0147103 ) 25
( 0.179648 -0.0292541 0.0209957 ) 24
( 0.24716 -0.0513067 0.0183931 ) 17
( 0.238835 -0.0713643 0.0254725 ) 17
( 0.1264 -0.0523805 0.0392812 ) 13
( 0.117984 -0.0744613 0.0484065 ) 40
( 0.0664855 -0.0449683 0.0295674 ) 11
( 0.0817063 -0.0413915 0.0177737 ) 20
( 0.138682 -0.0076084 0.0336418 ) 31
( 0.122561 -0.0694282 0.0297633 ) 13
( 0.169667 -0.0152759 0.0307828 ) 24
( 0.210697 -0.00902737 0.0295896 ) 34
( 0.12397 -0.0216674 0.0208815 ) 22
( 0.0608537 -0.0900887 0.033181 ) 2
( 0.201919 -0.0203294 0.0159699 ) 25
( 0.0345671 -0.0221366 0.0162382 ) 19
( 0.231703 -0.0462035 0.0298261 ) 17
( 0.097621 -0.0114898 0.0331893 ) 30
( 0.197611 -0.0680064 0.0276108 ) 16
( 0.124013 -0.0284754 0.0393477 ) 22
( 0.077016 -0.00611081 0.0280785 ) 29
( 0.193302 -0.0835917 0.0164914 ) 6
( 0.0536367 -0.0307129 0.034774 ) 19
( 0.0763804 -0.0602101 0.0213589 ) 11
( 0.0506341 -0.0900311 0.0160975 ) 1
( 0.0599152 -0.0674064 0.0300244 ) 11
( 0.15322 -0.045283 0.028716 ) 14
( 0.136497 -0.0531371 0.022155 ) 13
( 0.180506 -0.0681186 0.0175427 ) 15
( 0.0315652 -0.0621061 0.0307013 ) 10
( 0.0484787 -0.0108693 0.0249325 ) 28
( 0.0293505 -0.0417901 0.0235009 ) 19
( 0.0874688 -0.0203791 0.0188345 ) 21
( 0.139444 -0.0768748 0.0224075 ) 5
( 0.1841 -0.0540091 0.030882 ) 15
( 0.140834 -0.0319211 0.0211245 ) 23
( 0.113483 -0.0820737 0.0173024 ) 4
( 0.157473 -0.0838256 0.0271223 ) 5
( 0.0886603 -0.043565 0.0384359 ) 12
( 0.0677996 -0.0791477 0.0163209 ) 2
( 0.106191 -0.0144836 0.0156073 ) 21
( 0.151108 -0.0227456 0.035531 ) 23
( 0.189247 -0.00722116 0.0361004 ) 33
( 0.211997 -0.0901746 0.0161878 ) 7
( 0.0962052 -0.054894 0.0156128 ) 12
( 0.135671 -0.00508074 0.0145081 ) 31
( 0.00980522 -0.0747256 0.028305 ) 0
( 0.184659 -0.0102517 0.0170813 ) 33
( 0.00973807 -0.0568919 0.0369873 ) 9
( 0.0815234 -0.0226474 0.0382771 ) 20
( 0.103529 -0.0901124 0.0325779 ) 3
( 0.0284117 -0.0174507 0.035374 ) 19
( 0.196384 -0.0317091 0.0311086 ) 25
( 0.0475536 -0.0370006 0.0172387 ) 19
( 0.216441 -0.077466 0.0307486 ) 7
( 0.216721 -0.0300736 0.0251337 ) 25
( 0.164419 -0.0590806 0.0369542 ) 14
( 0.225332 -0.0573846 0.0148358 ) 17
( 0.0840172 -0.0628232 0.0392914 ) 12
( 0.0477838 -0.0508638 0.0310853 ) 10
( 0.118784 -0.00366318 0.0265758 ) 31
( 0.175906 -0.0902573 0.0230214 ) 6
( 0.108645 -0.0442124 0.0386092 ) 12
( 0.0584094 -3.07906e-05 0.038302 ) 29
( 0.153792 -0.0121965 0.0193007 ) 32
( 0.24919 -0.0872254 0.0176418 ) 8
( 0.228154 0.00822359 0.0255723 ) 35
( 0.0659012 0.0126541 0.0236163 ) 29
( 0.188584 0.0101499 0.0261035 ) 33
( 0.0920777 0.00905585 0.0296265 ) 30
( 0.203688 0.00195286 0.0458828 ) 70
( 0.149336 0.00636257 0.0243452 ) 32
( 0.208503 0.0101815 0.027204 ) 34
( 0.170219 0.00453281 0.0314643 ) 33
( 0.0353639 0.00423966 0.040511 ) 28
( 0.211705 -0.0541115 0.0288452 ) 16
( 0.0194515 -0.0902648 0.0354854 ) 0
( 0.0992889 -0.0353875 0.0239067 ) 21
( 0.230477 -0.0903366 0.0232611 ) 8
( 0.0283364 -0.0901159 0.0153302 ) 1
( 0.0799484 -0.0877872 0.028935 ) 2
( 0.158513 -0.0655711 0.0194316 ) 14
( 0.00962072 -0.000940339 0.0157377 ) 27
( 0.00989394 -0.0452631 0.0212185 ) 9
( 0.115901 -0.0579662 0.0149057 ) 13
( 0.025799 -0.0467479 0.0422964 ) 9
( 0.0289025 -0.00369969 0.0213557 ) 28
( 0.221403 0.0103795 0.0440723 ) 70
( 0.131602 -0.0558865 0.0577721 ) 49
( 0.140663 -0.072935 0.0543235 ) 41
( 0.168674 -0.0901482 0.0422528 ) 6
( 0.154673 -0.00720997 0.054538 ) 68
( 0.0334952 -0.0272919 0.0518853 ) 55
( 0.127588 -0.0900648 0.0563038 ) 40
( 0.0426104 -0.0770007 0.0597565 ) 37
( 0.167406 -0.0420499 0.0591467 ) 60
( 0.125829 -0.00927247 0.0692581 ) 67
( 0.230496 -0.0235324 0.0596199 ) 62
( 0.0466467 -0.0574923 0.0615845 ) 46
( 0.115957 -0.0443909 0.0603523 ) 49
( 0.0858922 -0.0775462 0.0621506 ) 39
( 0.242385 -0.0904178 0.0561194 ) 44
( 0.210167 -0.0330933 0.0605718 ) 61
( 0.246208 -0.057103 0.0545001 ) 53
( 0.0741639 0.000130386 0.0626 ) 65
( 0.0648564 -0.0381074 0.0656021 ) 56
( 0.203207 -0.0901089 0.0601567 ) 43
( 0.00989996 -0.082861 0.071517 ) 72
( 0.168193 0.00995281 0.0581993 ) 69
( 0.0718598 -0.0639282 0.0604908 ) 47
( 0.186717 -0.0730219 0.0627619 ) 42
( 0.234061 -0.0727598 0.0540994 ) 44
( 0.148204 -0.0904963 0.0575282 ) 41
( 0.0900654 -0.0189177 0.0612342 ) 57
( 0.229302 -0.0473612 0.0515102 ) 53
( 0.209087 0.00972877 0.0654921 ) 70
( 0.175505 -0.00697393 0.0676829 ) 69
( 0.00968343 -0.010439 0.0627003 ) 63
( 0.0663342 -0.0174034 0.0680595 ) 56
( 0.0269812 -0.0605304 0.0716265 ) 81
( 0.19473 -0.0145112 0.0546927 ) 61
( 0.149507 -0.0370988 0.0663941 ) 59
( 0.0639207 -0.0902225 0.056583 ) 38
( 0.166202 -0.0655439 0.0621183 ) 50
( 0.188318 -0.0333973 0.0595246 ) 60
( 0.10486 -0.0726769 0.0653815 ) 39
( 0.22306 -0.0906539 0.0613565 ) 44
( 0.249316 -0.00230683 0.0533475 ) 71
( 0.115313 -0.0248162 0.0588286 ) 58
( 0.0308713 0.0096546 0.0591041 ) 64
( 0.190779 0.00376783 0.0612076 ) 69
( 0.088114 0.0129194 0.0685951 ) 66
( 0.0876894 -0.052953 0.0558355 ) 48
( 0.102104 -0.00187368 0.0563644 ) 66
( 0.118619 0.00781457 0.061265 ) 67
( 0.210831 -0.0567979 0.0506025 ) 52
( 0.0167715 -0.0267741 0.0716481 ) 90
( 0.0296106 -0.0852149 0.0724965 ) 73
( 0.0266654 -0.00868305 0.0529443 ) 63
( 0.107623 -0.0899815 0.0555062 ) 39
( 0.150947 -0.0560733 0.0552921 ) 50
( 0.204343 -0.0900427 0.0403185 ) 7
( 0.214787 -0.0757128 0.0525824 ) 43
( 0.14205 -0.0876304 0.0389941 ) 5
( 0.0629562 -0.0214249 0.0492907 ) 56
( 0.0754411 0.00950696 0.0403288 ) 29
( 0.00963134 -0.0454843 0.0630878 ) 45
( 0.0993817 -0.0310147 0.0492891 ) 57
( 0.182268 -0.0244185 0.0430007 ) 60
( 0.125225 -0.0733356 0.0668454 ) 40
( 0.0628429 -0.055387 0.0455677 ) 47
( 0.0466653 -0.0304819 0.0679896 ) 55
( 0.227513 -0.0893183 0.0425092 ) 8
( 0.0701584 -0.0756932 0.0447026 ) 38
( 0.193605 -0.0476092 0.0469787 ) 51
( 0.0179557 -0.0611901 0.0543744 ) 45
( 0.215667 -0.00751601 0.0593313 ) 70
( 0.158935 -0.0198106 0.0691538 ) 59
( 0.13443 -0.0120813 0.0520782 ) 67
( 0.210825 -0.0395052 0.0419193 ) 25
( 0.0853041 -0.00572351 0.0474093 ) 66
( 0.133563 -0.0315323 0.0562712 ) 58
( 0.105965 -0.0589468 0.0514785 ) 48
( 0.150864 -0.0736478 0.0714403 ) 77
( 0.0456258 -0.0902961 0.0457142 ) 37
( 0.228274 -0.0304631 0.0412759 ) 26
( 0.0826463 -0.0905448 0.0479232 ) 38
( 0.177562 -0.0901374 0.0599509 ) 42
( 0.226231 -0.062552 0.0393242 ) 17
( 0.143437 -0.0623524 0.0380162 ) 14
( 0.163946 -0.0244658 0.0505006 ) 59
( 0.13643 0.00753295 0.051194 ) 67
( 0.179669 -0.0613793 0.0487241 ) 51
( 0.0802894 -0.0345881 0.0539607 ) 56
( 0.0102537 0.00459235 0.0491807 ) 63
( 0.0556523 -0.00401935 0.057886 ) 65
( 0.181339 -0.0761452 0.0357525 ) 6
( 0.0460192 -0.0656438 0.0437995 ) 46
( 0.0443514 -0.0688356 0.0774247 ) 82
( 0.0219551 -0.0904698 0.0552338 ) 36
( 0.00982349 -0.0131046 0.0404222 ) 27
( 0.123378 -0.0900004 0.0327293 ) 4
( 0.231327 -0.00786591 0.0471841 ) 71
( 0.231052 -0.00852148 0.0723073 ) 107
( 0.114161 -0.011865 0.0440338 ) 67
( 0.116819 -0.0901246 0.0731202 ) 76
( 0.145105 -0.0048916 0.0715349 ) 104
( 0.211612 -0.0204761 0.0453921 ) 61
( 0.0289109 -0.0750283 0.0454683 ) 37
( 0.0455146 -0.01376 0.0441479 ) 64
( 0.106717 -0.0130469 0.0715677 ) 102
( 0.182815 0.0119095 0.0449358 ) 69
( 0.00983618 -0.0283567 0.0532229 ) 54
( 0.172292 -0.0412211 0.0401443 ) 24
( 0.246464 -0.0901544 0.0368423 ) 8
( 0.0615986 -0.0554822 0.0746593 ) 83
( 0.0804959 -0.0484149 0.0734358 ) 83
( 0.197066 -0.0705226 0.0466866 ) 52
( 0.226186 -0.0404525 0.0695219 ) 62
( 0.0490619 -0.0901811 0.0791241 ) 73
( 0.204158 -0.0738673 0.0716116 ) 79
( 0.173395 -0.00619154 0.0479896 ) 69
( 0.249631 -0.0737933 0.0659218 ) 44
( 0.0290999 -0.0438025 0.0614087 ) 46
( 0.247806 -0.0417563 0.0727439 ) 98
( 0.00944658 -0.0774396 0.0476094 ) 36
( 0.0401964 -0.0116502 0.0671596 ) 64
( 0.1818 -0.0238769 0.0757589 ) 96
( 0.0981532 -0.0349227 0.0700392 ) 57
( 0.0868481 -0.0665695 0.0783767 ) 84
( 0.11704 0.00817953 0.0420272 ) 31
( 0.156477 -0.0547968 0.0757574 ) 86
( 0.216867 -0.0590176 0.0692439 ) 52
( 0.0806645 -0.0278884 0.0761012 ) 92
( 0.236258 -0.0591731 0.0713674 ) 53
( 0.096795 -0.0766667 0.0455033 ) 39
( 0.149262 -0.0386271 0.0467703 ) 59
( 0.0504885 -0.0408474 0.0514944 ) 55
( 0.155839 0.0141389 0.0729811 ) 104
( 0.131621 -0.0428267 0.0723413 ) 94
( 0.0408969 0.00845046 0.0760524 ) 100
( 0.0925076 0.0137517 0.0493026 ) 66
( 0.141199 -0.0901468 0.0766793 ) 77
( 0.198234 -0.0534041 0.065639 ) 52
( 0.154657 0.00874278 0.0431016 ) 68
( 0.198468 -0.0347394 0.0762629 ) 97
( 0.0756806 -0.0901029 0.075111 ) 74
( 0.221809 -0.0803187 0.0776269 ) 79
( 0.193124 0.00251716 0.0814151 ) 105
( 0.120675 -0.0259536 0.0777998 ) 94
( 0.0146858 -0.0712104 0.0874156 ) 81
( 0.202244 -0.0128475 0.0729172 ) 106
( 0.174762 -0.0722202 0.0778426 ) 78
( 0.0234157 -0.00799598 0.0766363 ) 99
( 0.0663313 -0.0379704 0.0852782 ) 92
( 0.109669 -0.0723505 0.0843085 ) 75
( 0.18111 -0.0476301 0.073666 ) 87
( 0.0657106 -0.00218596 0.0805279 ) 101
( 0.194436 -0.0899164 0.0779885 ) 78
( 0.0402407 -0.0468812 0.0769126 ) 82
( 0.00979202 0.00610758 0.0806355 ) 99
( 0.0099168 -0.0523774 0.0831444 ) 81
( 0.163087 -0.00316806 0.0825337 ) 104
( 0.22455 0.00927772 0.0771451 ) 107
( 0.131059 0.00824169 0.0763026 ) 103
( 0.136758 -0.0612369 0.0774177 ) 85
( 0.142722 -0.0275453 0.0823673 ) 95
( 0.0613289 -0.0768913 0.0709291 ) 38
( 0.077534 0.0129484 0.0853014 ) 101
( 0.161699 -0.0902546 0.0716914 ) 77
( 0.247885 -0.0321721 0.0562259 ) 62
( 0.160045 -0.0681539 0.0902098 ) 86
( 0.0969657 -0.0902298 0.0722785 ) 75
( 0.245074 -0.0902287 0.0755987 ) 80
( 0.0580392 -0.0763716 0.0903053 ) 74
( 0.23133 -0.0176057 0.0901072 ) 98
( 0.106124 -0.030643 0.0902647 ) 93
( 0.0358435 -0.0808465 0.0905018 ) 73
( 0.0733101 -0.0557104 0.0904273 ) 83
( 0.242557 0.00725039 0.0698274 ) 71
( 0.228951 -0.0672261 0.090338 ) 89
( 0.0858028 -0.0403204 0.0904317 ) 93
( 0.0327308 -0.0246337 0.083044 ) 91
( 0.208691 -0.070344 0.0903575 ) 88
( 0.111853 0.00430884 0.0790222 ) 103
( 0.225351 -0.0481712 0.087501 ) 89
( 0.165399 -0.0363564 0.0777875 ) 95
( 0.126662 -0.09003 0.0902431 ) 76
( 0.0880766 -0.00569816 0.0753006 ) 102
( 0.111335 -0.0463711 0.0793668 ) 85
( 0.0268808 0.0100859 0.090102 ) 99
( 0.184955 -0.0368371 0.0903574 ) 96
( 0.12698 -0.00534218 0.0901531 ) 103
( 0.206101 -0.0516698 0.0840607 ) 88
( 0.0521004 -0.0174298 0.0818326 ) 91
( 0.126404 -0.03929 0.0906642 ) 94
( 0.0542047 0.010344 0.0904494 ) 100
( 0.00983863 -0.030608 0.0898273 ) 90
( 0.218759 -0.0233101 0.0757244 ) 97
( 0.210189 -0.0901413 0.0901898 ) 79
( 0.0315492 -0.0614124 0.0905266 ) 82
( 0.14631 -0.00986217 0.0904614 ) 104
( 0.188075 -0.0564848 0.090102 ) 87
( 0.146417 -0.0455172 0.0901528 ) 86
( 0.248466 -0.057319 0.0865589 ) 89
( 0.17601 -0.0904671 0.0850857 ) 78
( 0.180527 -0.0097708 0.0901451 ) 105
( 0.143804 0.0116294 0.0905137 ) 104
( 0.0506031 -0.0559812 0.0907249 ) 82
( 0.141708 -0.0755415 0.090225 ) 77
( 0.0945908 0.00428678 0.0906019 ) 102
( 0.0860664 -0.0824634 0.0901923 ) 75
( 0.122302 -0.0585958 0.0904324 ) 85
( 0.107871 -0.0107438 0.0906856 ) 102
( 0.247176 -0.0768524 0.0901303 ) 80
( 0.23255 -0.0900683 0.0906453 ) 80
( 0.0699321 -0.0189574 0.0902549 ) 92
( 0.169301 -0.0505357 0.0904888 ) 87
( 0.0256943 -0.0424542 0.0901316 ) 90
( 0.00982225 -0.0108277 0.0904401 ) 99
( 0.098089 -0.0558493 0.090366 ) 84
( 0.155676 -0.089779 0.0903394 ) 77
( 0.1045 -0.0901988 0.0904403 ) 75
( 0.0377911 -0.00686245 0.0903071 ) 100
( 0.216767 -0.00356718 0.0901456 ) 106
( 0.0898101 -0.0181972 0.0904755 ) 93
( 0.187873 -0.0761522 0.0909511 ) 78
( 0.212008 -0.0340415 0.0905471 ) 97
( 0.0476149 -0.035204 0.0905968 ) 91
( 0.00984665 -0.0901601 0.0900712 ) 72
( 0.242471 -0.0392215 0.090866 ) 98
( 0.241494 0.0125471 0.0902547 ) 107
( 0.197109 -0.0208622 0.0902879 ) 97
( 0.164622 -0.0214116 0.090382 ) 95
)
