/*--------------------------------*- C++ -*----------------------------------*\
  =========                 |
  \\      /  F ield         | OpenFOAM: The Open Source CFD Toolbox
   \\    /   O peration     | Website:  https://openfoam.org
    \\  /    A nd           | Version:  4.x
     \\/     M anipulation  |
\*---------------------------------------------------------------------------*/
FoamFile
{
    version     2.0;
    format      ascii;
    class       vectorField;
    location    0;
    object      v;
}
// * * * * * * * * * * * * * * * * * * * * * * * * * * * * * * * * * * * * * //

354
(
( 1.66009e-06 3.54871e-07 -6.59268e-07 )  
( 2.54084e-06 4.9285e-07 -1.0974e-06 )  
( 1.74469e-06 1.86601e-07 -3.69204e-07 )  
( 1.71648e-06 -8.8974e-08 -1.0964e-06 )  
( 1.11169e-06 5.06263e-07 -6.67922e-07 )  
( 3.63801e-06 4.10866e-07 -2.53079e-06 )  
( 1.82144e-06 -2.698e-07 -1.22084e-06 )  
( 1.31679e-06 5.93849e-07 -7.17214e-07 )  
( 1.93236e-06 3.63403e-07 -6.79433e-07 )  
( 5.01228e-07 1.53259e-07 -2.41909e-07 )  
( 9.19419e-07 -2.19634e-07 -7.93059e-07 )  
( 2.91719e-06 2.82656e-07 -1.90722e-06 )  
( 3.48403e-06 3.93314e-07 -2.09749e-06 )  
( 2.31509e-06 3.68843e-07 -1.11295e-06 )  
( 1.90039e-06 1.49292e-08 -1.08816e-06 )  
( 2.92549e-06 3.99715e-07 -2.29e-06 )  
( 4.13487e-06 4.95391e-07 -2.5831e-06 )  
( 2.65714e-06 4.99733e-07 -1.70574e-06 )  
( 3.38772e-06 -1.36624e-07 -1.78254e-06 )  
( 3.81981e-06 -2.96297e-08 -1.31971e-06 )  
( 1.36243e-06 1.62103e-07 -9.19704e-07 )  
( 2.43697e-06 5.60189e-07 -1.00891e-06 )  
( 2.94141e-06 6.48759e-07 -1.8486e-06 )  
( 3.27411e-06 1.47294e-07 -2.13847e-06 )  
( 2.39264e-06 4.64392e-07 -8.20208e-07 )  
( 1.88469e-06 3.9728e-07 -7.15529e-07 )  
( 2.49453e-06 5.80841e-08 -1.60338e-06 )  
( 1.0646e-06 2.07023e-07 -2.80828e-07 )  
( 1.09717e-06 2.47059e-07 -4.88484e-07 )  
( 1.90613e-06 2.0906e-07 -1.51493e-06 )  
( 2.84021e-06 3.95977e-07 -1.80464e-06 )  
( 2.60443e-06 -1.70664e-07 -1.42404e-06 )  
( 9.03073e-07 1.58461e-07 -3.86023e-07 )  
( 2.52906e-06 4.28303e-07 -1.68534e-06 )  
( 6.94027e-07 2.09111e-07 -3.20705e-07 )  
( 3.19213e-06 8.4223e-07 -2.03333e-06 )  
( 8.43891e-07 3.14625e-07 -3.18768e-07 )  
( 1.32394e-06 2.07395e-07 -6.31907e-07 )  
( 8.34785e-07 3.03222e-07 -3.97142e-07 )  
( 1.28221e-06 2.78397e-07 -6.32435e-07 )  
( 2.9858e-06 6.81653e-07 -1.5497e-06 )  
( 3.16797e-06 7.08643e-07 -1.77378e-06 )  
( 3.93356e-06 -4.92988e-07 -7.62818e-07 )  
( 3.83838e-06 6.21335e-07 -2.59658e-06 )  
( 9.94313e-07 2.76196e-08 -2.82074e-07 )  
( 1.2363e-06 1.94173e-07 -1.04355e-06 )  
( 1.09808e-06 3.22231e-07 -1.59439e-07 )  
( 2.88744e-06 4.01607e-07 -2.06829e-06 )  
( 1.45381e-06 -1.7396e-07 -6.30431e-07 )  
( 2.26423e-06 4.53573e-07 -1.52037e-06 )  
( 1.30567e-06 3.50861e-07 -5.81934e-07 )  
( 2.4826e-06 4.65061e-07 -1.65423e-06 )  
( 3.36498e-06 7.30122e-07 -2.02055e-06 )  
( 2.30474e-06 2.82945e-07 -1.1347e-06 )  
( 2.93127e-06 5.20008e-07 -1.77786e-06 )  
( 1.7195e-06 -3.48016e-08 -7.78858e-07 )  
( 3.44345e-06 9.13449e-07 -2.08163e-06 )  
( 1.42461e-06 3.78525e-07 -3.56116e-07 )  
( 2.05455e-06 3.55144e-07 -8.95628e-07 )  
( 1.08908e-06 2.84585e-07 -3.68426e-07 )  
( 1.38551e-06 6.37806e-07 -9.12499e-07 )  
( 1.14092e-06 2.11254e-07 -2.75757e-07 )  
( 1.42751e-06 1.60365e-07 -7.1205e-07 )  
( 2.07318e-06 3.91952e-09 -1.01586e-06 )  
( 4.28168e-07 3.10818e-08 -1.9393e-07 )  
( 2.31284e-06 -8.96342e-08 -1.18461e-06 )  
( 2.59259e-06 6.80234e-07 -1.72378e-06 )  
( 2.43807e-06 4.30121e-07 -1.36261e-06 )  
( 1.35825e-06 2.41904e-08 -1.06337e-06 )  
( 3.31408e-06 6.77207e-07 -2.15798e-06 )  
( 3.83303e-06 5.17209e-08 -2.55598e-06 )  
( 3.05563e-06 6.88612e-07 -2.06306e-06 )  
( 1.77054e-06 -1.20156e-07 -1.12377e-06 )  
( 1.03224e-06 3.79615e-07 -3.14247e-07 )  
( 1.43071e-06 3.25541e-07 -5.56663e-07 )  
( 5.65182e-07 3.49331e-08 -2.12748e-07 )  
( 2.41891e-06 3.13111e-07 -9.79542e-07 )  
( 3.62083e-06 8.41295e-07 -2.32052e-06 )  
( 3.46777e-06 7.42441e-07 -1.88769e-06 )  
( 5.42219e-07 2.23947e-07 -2.56416e-07 )  
( 1.31791e-06 3.3483e-07 -4.28834e-07 )  
( 1.96027e-06 -1.90314e-07 -5.76266e-07 )  
( 2.6776e-06 4.77973e-07 -1.03354e-06 )  
( 8.74335e-07 3.28316e-07 -1.95084e-07 )  
( 1.75442e-06 5.25559e-07 -5.74847e-07 )  
( 1.59932e-06 4.41911e-07 -5.72569e-07 )  
( 3.44181e-06 6.92218e-07 -2.4067e-06 )  
( 1.32944e-07 2.46425e-07 -1.892e-07 )  
( 3.06389e-07 1.69172e-07 -6.72101e-08 )  
( 2.54623e-06 4.12348e-07 -1.92499e-06 )  
( 2.63733e-06 2.66215e-07 -1.35153e-06 )  
( 1.04147e-06 -3.24058e-08 -7.31467e-07 )  
( 6.10347e-07 -9.34949e-08 -4.16948e-07 )  
( 2.23072e-06 4.21716e-07 -1.18461e-06 )  
( 1.84638e-06 2.55641e-07 -8.81469e-07 )  
( 3.67164e-07 1.52288e-07 -1.53398e-07 )  
( 2.64333e-06 4.83567e-07 -1.20443e-06 )  
( 1.50027e-06 -1.15096e-07 -1.04177e-06 )  
( 2.61323e-06 6.49009e-07 -1.69444e-06 )  
( 2.98609e-06 2.63237e-07 -1.73095e-06 )  
( 3.98653e-06 2.57975e-07 -2.29474e-06 )  
( 8.35405e-07 1.8571e-07 -6.11701e-07 )  
( 8.6692e-07 -1.51256e-07 -5.97773e-07 )  
( 3.74485e-07 9.39589e-08 -3.51075e-07 )  
( 4.46476e-07 2.4429e-07 -3.08341e-07 )  
( 2.58887e-06 5.21051e-07 -1.51576e-06 )  
( 2.19246e-06 3.28254e-07 -1.70176e-06 )  
( 2.1757e-06 2.48849e-07 -1.0779e-06 )  
( 1.13229e-06 8.94943e-08 -7.31952e-07 )  
( 1.25249e-06 2.72142e-07 -6.00589e-07 )  
( 1.40285e-06 1.13961e-06 -6.76774e-07 )  
( 3.02476e-06 6.96212e-07 -1.84282e-06 )  
( 2.34851e-06 1.02649e-06 -1.82669e-06 )  
( 2.07917e-06 4.4129e-07 -1.0047e-06 )  
( 2.30159e-06 -3.59084e-07 -1.25822e-06 )  
( 1.89098e-06 7.96231e-08 -9.32175e-07 )  
( 3.14552e-06 3.35786e-07 -2.34737e-06 )  
( 2.94095e-06 -2.21684e-07 -1.38725e-06 )  
( 2.89341e-06 6.5279e-07 -1.9161e-06 )  
( 4.53542e-07 1.4032e-07 -3.19945e-07 )  
( 8.05629e-07 -2.0009e-07 -4.75522e-07 )  
( 1.15525e-06 -1.98228e-07 -4.91224e-07 )  
( 2.926e-06 5.6034e-07 -2.12912e-06 )  
( 1.45148e-06 2.96793e-07 -2.58698e-07 )  
( 3.38314e-07 1.04963e-07 -2.29187e-07 )  
( 2.7438e-06 2.69867e-07 -1.94811e-06 )  
( 3.03863e-06 4.75467e-07 -1.8444e-06 )  
( 3.15913e-06 6.51865e-07 -1.82173e-06 )  
( 2.31325e-06 1.90102e-07 -1.10892e-06 )  
( 2.87368e-06 4.66989e-07 -2.09943e-06 )  
( 6.00645e-07 -8.18318e-08 -3.66295e-07 )  
( 2.36059e-06 2.48622e-07 -1.50152e-06 )  
( 6.33225e-07 2.90208e-07 -2.70333e-07 )  
( 7.264e-07 1.98767e-07 -2.32671e-07 )  
( 1.1135e-06 3.15075e-07 -1.6858e-07 )  
( 6.06154e-07 4.36523e-08 -2.61352e-07 )  
( 1.85835e-06 4.12755e-07 -7.98012e-07 )  
( 4.28539e-07 2.45188e-07 -2.45868e-07 )  
( 2.53172e-06 3.80043e-07 -1.28694e-06 )  
( 4.07471e-07 5.74413e-08 -2.30596e-07 )  
( 3.1414e-06 5.91475e-07 -1.9734e-06 )  
( 3.97846e-07 1.00571e-07 -3.73629e-08 )  
( 2.73731e-06 1.79465e-07 -1.5712e-06 )  
( 4.63186e-07 7.96365e-08 -1.50297e-07 )  
( 2.76437e-06 5.76888e-07 -1.37717e-06 )  
( 2.91427e-06 5.32083e-07 -1.32081e-06 )  
( 2.65313e-06 8.00227e-07 -1.487e-06 )  
( 1.646e-06 2.07469e-07 -1.40451e-06 )  
( 9.10258e-07 8.6097e-08 -4.49001e-07 )  
( 1.35184e-06 -4.26934e-08 -5.57688e-07 )  
( 1.79811e-06 4.88192e-07 -1.31261e-06 )  
( 2.33765e-06 2.60824e-07 -1.30038e-06 )  
( 6.23009e-07 3.65073e-08 -3.21489e-07 )  
( 2.5576e-06 4.79572e-07 -1.8214e-06 )  
( 2.78769e-06 8.73623e-07 -1.24426e-06 )  
( 2.84894e-06 5.59125e-07 -1.71094e-06 )  
( 2.0479e-06 2.54682e-07 -8.43842e-07 )  
( 9.12921e-07 1.44605e-07 -3.47419e-07 )  
( 2.79e-06 6.8993e-07 -2.08715e-06 )  
( 2.06688e-06 4.74777e-07 -1.17934e-06 )  
( 2.89733e-06 6.79069e-07 -1.63887e-06 )  
( 1.16214e-06 2.19119e-07 -5.67314e-07 )  
( 2.23146e-06 5.24134e-07 -1.42182e-06 )  
( 2.11412e-06 6.43913e-07 -1.52621e-06 )  
( 1.23569e-06 2.59762e-07 -7.00899e-07 )  
( 2.10765e-06 2.87476e-07 -9.25175e-07 )  
( 1.12939e-06 3.9765e-07 -1.14016e-06 )  
( 1.86903e-06 4.09717e-07 -1.58954e-06 )  
( 2.8924e-06 5.34731e-07 -1.66475e-06 )  
( 1.77568e-06 3.40378e-07 -1.31625e-06 )  
( 7.83406e-07 3.18768e-07 -6.83811e-07 )  
( 1.81732e-06 6.28124e-07 -1.41048e-06 )  
( 7.12585e-07 1.65546e-07 -6.68681e-07 )  
( 3.78113e-07 1.97169e-07 -3.36438e-07 )  
( 1.01145e-06 4.62283e-07 -8.46683e-07 )  
( 2.74745e-06 7.14312e-07 -1.94377e-06 )  
( 1.15741e-06 2.81805e-07 -5.39819e-07 )  
( 1.36952e-06 3.11527e-07 -1.02822e-06 )  
( 1.55354e-06 2.46128e-07 -7.97033e-07 )  
( 4.59333e-07 6.09449e-08 -4.72254e-07 )  
( 5.5904e-07 2.15494e-07 -2.18611e-07 )  
( 2.39869e-06 3.90615e-07 -1.65816e-06 )  
( 2.012e-06 3.27774e-07 -1.20813e-06 )  
( 2.40698e-06 6.68729e-07 -1.90469e-06 )  
( 1.89911e-06 5.74317e-07 -5.64345e-07 )  
( 2.23278e-06 5.1794e-07 -1.55293e-06 )  
( 1.70775e-06 9.6815e-08 -6.66701e-07 )  
( 7.75887e-07 2.33667e-07 -6.61403e-07 )  
( 2.50831e-06 6.0443e-07 -1.73871e-06 )  
( 4.41267e-07 2.68224e-07 -1.06802e-07 )  
( 2.2804e-06 6.33884e-07 -1.67714e-06 )  
( 3.03133e-07 -7.66931e-09 -1.51883e-07 )  
( 2.46514e-06 6.2903e-07 -1.70284e-06 )  
( 2.80654e-06 7.88908e-07 -1.54625e-06 )  
( 1.50197e-06 1.3335e-07 -1.0088e-06 )  
( 1.96934e-06 4.2663e-07 -1.15844e-06 )  
( 8.21069e-07 -6.51701e-08 -1.9847e-07 )  
( 1.55993e-06 7.97495e-07 -5.76907e-07 )  
( 1.18875e-06 1.75632e-07 -8.83374e-07 )  
( 7.42288e-07 3.88509e-07 -2.84281e-07 )  
( 2.06675e-06 3.80056e-07 -1.70432e-06 )  
( 2.48516e-07 1.74475e-07 -5.27125e-08 )  
( 1.94984e-07 1.81226e-07 -9.87659e-08 )  
( 1.54993e-06 2.64278e-07 -1.24252e-06 )  
( 2.42591e-06 6.40105e-07 -1.79698e-06 )  
( 1.94611e-06 1.68808e-07 -7.99993e-07 )  
( 2.97624e-06 6.64036e-07 -1.88373e-06 )  
( 1.54904e-07 1.71703e-07 -1.43647e-07 )  
( 2.7423e-06 8.59494e-07 -1.43306e-06 )  
( 7.94709e-07 -6.34636e-08 -4.57357e-07 )  
( 1.7965e-06 2.52255e-07 -1.0247e-06 )  
( 3.75568e-07 1.42205e-07 -2.76862e-07 )  
( 1.55133e-06 -1.64562e-07 -6.97238e-07 )  
( 7.82582e-07 2.5934e-07 -3.60476e-07 )  
( 5.86061e-07 6.24369e-08 -2.49049e-07 )  
( 1.87153e-06 1.25812e-07 -1.00162e-06 )  
( 2.00817e-06 2.17799e-07 -8.98726e-07 )  
( 2.42042e-06 4.53127e-07 -1.55736e-06 )  
( 2.33238e-06 5.10514e-07 -1.57973e-06 )  
( 1.87357e-06 -6.94406e-08 -1.31191e-06 )  
( 2.93813e-06 7.10476e-07 -1.62306e-06 )  
( 1.09195e-06 1.15617e-07 -5.13594e-07 )  
( 8.7336e-07 5.05464e-08 -7.5648e-07 )  
( 3.10248e-06 1.05152e-06 -2.17947e-06 )  
( 2.27467e-06 3.77242e-07 -1.19602e-06 )  
( 2.90299e-06 1.05395e-06 -2.10907e-06 )  
( 1.70179e-06 1.39429e-07 -5.50631e-07 )  
( 2.43298e-07 7.62087e-08 -1.16308e-07 )  
( 1.83618e-06 5.89471e-07 -1.0417e-06 )  
( 2.91715e-06 1.13483e-06 -2.10719e-06 )  
( 3.0276e-06 8.09911e-07 -2.11899e-06 )  
( 1.04115e-06 1.02062e-07 -1.1048e-07 )  
( 2.72051e-06 6.04586e-07 -1.88244e-06 )  
( 1.59632e-06 3.49538e-07 -6.14756e-07 )  
( 2.6558e-06 6.66463e-07 -1.77358e-06 )  
( 2.53384e-06 8.22118e-07 -1.92339e-06 )  
( 3.33127e-07 9.37027e-08 -1.38723e-07 )  
( 2.06906e-06 3.19428e-07 -9.4442e-07 )  
( 1.53371e-06 -1.29067e-07 -4.71515e-07 )  
( 2.26866e-06 6.74159e-07 -1.65428e-06 )  
( 1.84361e-06 2.86504e-07 -6.82213e-07 )  
( 1.84863e-06 4.37829e-07 -9.4174e-07 )  
( 2.81315e-06 5.18563e-07 -1.56861e-06 )  
( 2.47206e-06 6.76287e-07 -1.06485e-06 )  
( 2.69115e-06 6.34681e-07 -1.90561e-06 )  
( 2.03315e-06 6.17071e-07 -1.883e-06 )  
( 9.0652e-07 1.28212e-08 -4.26458e-07 )  
( 2.08753e-06 5.36059e-07 -1.35859e-06 )  
( 2.26272e-06 3.70574e-07 -8.41859e-07 )  
( 1.73467e-07 1.24635e-08 -4.23546e-08 )  
( 1.17469e-06 3.49391e-07 -4.77558e-07 )  
( 2.2181e-06 4.33277e-07 -1.09491e-06 )  
( 1.92125e-06 5.30654e-07 -6.7479e-07 )  
( 1.99431e-07 5.55405e-08 -1.17275e-07 )  
( 2.25103e-06 4.96213e-07 -1.35271e-06 )  
( 3.59879e-06 5.42497e-07 -2.12469e-06 )  
( 9.39157e-07 1.11956e-07 -6.86749e-07 )  
( 1.31551e-06 3.31075e-07 -2.3838e-07 )  
( 1.05283e-06 -8.49181e-09 -3.95206e-07 )  
( 5.82383e-07 2.28947e-07 -1.33537e-07 )  
( 1.69159e-06 5.33219e-07 -4.3904e-07 )  
( 2.51924e-06 4.49415e-07 -8.61126e-07 )  
( 2.73759e-06 2.75749e-07 -1.41794e-06 )  
( 1.02442e-06 1.27278e-07 -1.34306e-07 )  
( 1.18286e-06 1.63707e-07 -6.58555e-07 )  
( 2.76733e-06 -3.53295e-07 -1.26836e-06 )  
( 2.62284e-06 3.57289e-07 -1.40878e-06 )  
( 9.68669e-07 -4.22303e-08 -2.94885e-07 )  
( 2.49897e-06 4.99542e-07 -1.59822e-06 )  
( 2.99957e-06 8.77479e-07 -2.25374e-06 )  
( 3.06737e-06 7.76427e-08 -1.90256e-06 )  
( 2.25495e-06 6.90604e-07 -1.54566e-06 )  
( 2.06772e-06 4.5427e-07 -1.38506e-06 )  
( 3.23124e-06 7.06489e-07 -2.16359e-06 )  
( 2.50727e-06 6.49372e-07 -6.82205e-07 )  
( 6.29752e-07 1.5259e-07 -2.91481e-07 )  
( 1.81847e-06 3.21763e-09 -1.20436e-06 )  
( 2.79817e-06 6.75961e-07 -1.95523e-06 )  
( 2.22212e-06 1.98123e-07 -1.48333e-06 )  
( 2.20252e-06 4.85684e-07 -1.08384e-06 )  
( 3.2188e-07 1.31368e-07 -1.74275e-07 )  
( 2.2208e-06 4.00547e-07 -1.47871e-06 )  
( 2.72678e-06 5.76769e-07 -1.74195e-06 )  
( 2.76038e-06 5.3389e-07 -1.32573e-06 )  
( 2.5849e-06 6.19821e-07 -1.44306e-06 )  
( 2.9034e-06 6.5655e-07 -1.97725e-06 )  
( 2.20822e-06 5.53483e-07 -1.49159e-06 )  
( 2.61186e-07 2.79478e-07 -1.82338e-07 )  
( 1.60312e-06 3.73927e-08 -8.1478e-07 )  
( 8.95416e-07 1.68064e-07 -3.94307e-07 )  
( 2.84172e-06 6.74536e-07 -1.7696e-06 )  
( 3.13147e-06 7.36305e-07 -1.87974e-06 )  
( 3.09398e-07 1.66354e-07 -3.79205e-07 )  
( 2.00744e-06 4.60611e-07 -9.20205e-07 )  
( 2.48493e-06 5.42845e-07 -1.226e-06 )  
( 2.37393e-06 2.30531e-07 -1.38322e-06 )  
( 9.27235e-07 1.58522e-07 -3.79401e-07 )  
( 3.7105e-07 1.41999e-07 -1.73359e-07 )  
( 1.8751e-06 1.41539e-07 -1.28272e-06 )  
( 2.5707e-06 8.01285e-07 -1.87271e-06 )  
( 7.8753e-07 1.05875e-07 -2.29129e-07 )  
( 1.1095e-06 3.21248e-07 -4.61608e-07 )  
( 2.22326e-06 5.51219e-07 -1.39602e-06 )  
( 3.41645e-06 6.11081e-08 -2.29224e-06 )  
( 1.37692e-06 1.54664e-07 -5.27938e-07 )  
( 3.85906e-07 5.10424e-07 -1.82487e-07 )  
( 9.71244e-07 1.3494e-07 -4.2973e-07 )  
( 1.35322e-06 2.55469e-07 -5.42222e-07 )  
( 1.914e-06 3.27231e-07 -6.79614e-07 )  
( 3.57344e-07 7.12347e-08 -2.46627e-07 )  
( 7.80904e-07 1.1313e-07 -9.46782e-07 )  
( 3.10426e-06 -5.59066e-07 -1.09464e-06 )  
( 4.53073e-06 3.33586e-08 -1.97875e-06 )  
( 1.97298e-06 2.47582e-07 -1.02712e-06 )  
( 1.4434e-06 -5.55931e-07 -8.20584e-07 )  
( 5.45461e-07 2.91644e-07 -9.49694e-08 )  
( 1.96654e-06 1.57357e-07 -1.05669e-06 )  
( 2.38083e-06 5.18825e-07 -1.61492e-06 )  
( 4.13626e-06 2.73275e-07 -2.15762e-06 )  
( 3.17952e-06 2.81242e-07 -2.28905e-06 )  
( 9.96314e-07 -2.18199e-07 -7.30091e-07 )  
( 2.63485e-06 5.51482e-07 -1.6023e-06 )  
( 1.50775e-06 3.77646e-07 -5.15478e-07 )  
( 1.20518e-06 -2.16961e-07 -5.93551e-07 )  
( 1.57456e-06 3.11316e-07 -3.69054e-07 )  
( 1.72889e-06 -2.31415e-07 -9.51219e-07 )  
( 7.44183e-07 -4.64219e-08 -2.37449e-07 )  
( 1.56581e-06 2.67945e-07 -2.54687e-08 )  
( 8.38541e-07 -4.94096e-08 -1.79741e-07 )  
( 1.00566e-06 1.30237e-07 -1.20208e-06 )  
( 2.17283e-06 -6.94483e-07 -1.26881e-06 )  
( 5.0078e-06 3.83965e-07 -2.3996e-06 )  
( 3.67535e-06 4.6071e-07 -2.53725e-06 )  
( 1.60881e-06 4.63599e-08 -5.98955e-07 )  
( 6.19502e-07 5.57399e-07 -2.50558e-07 )  
( 1.65062e-06 1.81786e-07 -5.24929e-07 )  
( 1.11288e-06 3.35545e-07 -1.61537e-07 )  
( 1.72244e-06 3.37848e-07 -6.1817e-07 )  
( 3.49983e-06 -5.92499e-07 -1.77243e-06 )  
( 9.04393e-07 -8.67358e-07 -5.32191e-07 )  
( 3.05529e-06 3.95374e-07 -1.84144e-06 )  
( 5.09259e-06 -8.62964e-07 -1.36087e-06 )  
( 2.70958e-07 1.02887e-07 -7.97685e-08 )  
( 1.67298e-06 -3.79616e-07 -5.48079e-07 )  
( 5.55117e-06 -1.08132e-07 -1.68911e-06 )  
( 1.54352e-06 4.99773e-07 -6.89685e-07 )  
( 4.64358e-07 1.08214e-07 -3.05337e-07 )  
( 8.20733e-07 -1.23191e-07 -5.97338e-07 )  
( 1.55626e-06 5.46068e-08 -3.73833e-07 )  
( 2.54532e-07 1.00407e-07 -1.56976e-07 )  
( 5.28401e-06 2.7173e-07 -2.85881e-06 )  
( 9.72173e-07 6.42075e-07 -2.89294e-07 )  
( 2.66145e-07 4.08704e-07 -4.56199e-08 )  
( 1.98387e-06 2.86174e-07 -1.47798e-06 )  
)
