/*--------------------------------*- C++ -*----------------------------------*\
| =========                 |                                                 |
| \\      /  F ield         | OpenFOAM: The Open Source CFD Toolbox           |
|  \\    /   O peration     | Version:  4.x                                   |
|   \\  /    A nd           | Web:      www.OpenFOAM.org                      |
|    \\/     M anipulation  |                                                 |
\*---------------------------------------------------------------------------*/
FoamFile
{
    version     2.0;
    format      ascii;
    class       volScalarField;
    location    "32";
    object      Cs;
}
// * * * * * * * * * * * * * * * * * * * * * * * * * * * * * * * * * * * * * //

dimensions      [1 -3 0 0 0 0 0];

internalField   nonuniform List<scalar> 
108
(
334.999
334.999
334.998
334.996
334.995
334.994
334.992
334.992
335.153
335
334.999
334.999
334.998
334.998
334.998
334.996
334.995
335.626
334.999
334.999
334.998
334.997
334.996
334.994
334.992
334.989
335.592
335
335
334.999
334.999
334.999
334.998
334.997
334.996
342.009
334.999
334.997
334.994
334.99
334.982
334.976
334.965
334.964
334.774
334.999
334.998
334.997
334.995
334.99
334.986
334.976
334.973
334.804
334.999
334.999
334.998
334.997
334.994
334.992
334.984
334.982
334.74
335
335
334.999
334.999
334.999
334.998
334.997
334.996
334.556
334.996
334.99
334.979
334.968
334.955
334.946
334.933
334.934
334.851
334.999
334.997
334.993
334.987
334.978
334.968
334.954
334.949
334.811
334.999
334.998
334.995
334.991
334.983
334.976
334.965
334.963
334.84
335
335
334.999
334.999
334.998
334.997
334.993
334.992
334.697
)
;

boundaryField
{
    inlet
    {
        type            calculated;
        value           nonuniform 0();
    }
    outlet
    {
        type            calculated;
        value           uniform 335;
    }
    wall
    {
        type            calculated;
        value           nonuniform List<scalar> 
63
(
334.999
335
334.999
335
334.999
334.999
334.999
335
334.998
334.999
334.998
334.999
334.996
334.998
334.997
334.999
334.995
334.998
334.996
334.999
334.994
334.998
334.994
334.998
334.992
334.996
334.992
334.997
334.992
334.995
334.989
334.996
335.153
335.626
335.592
342.009
335
335
335
335
335
335
334.999
334.999
334.999
334.999
334.999
334.999
334.999
334.999
334.998
334.998
334.998
334.997
334.997
334.997
334.993
334.996
334.996
334.992
342.009
334.556
334.697
)
;
    }
    procBoundary3to1
    {
        type            processor;
        value           nonuniform List<scalar> 
27
(
335
334.999
334.999
334.999
334.998
334.997
334.994
334.993
334.975
334.998
334.997
334.994
334.989
334.982
334.976
334.963
334.965
334.862
334.996
334.991
334.984
334.976
334.967
334.96
334.95
334.947
334.846
)
;
    }
    procBoundary3to2
    {
        type            processor;
        value           nonuniform List<scalar> 
12
(
335
335
335
335
334.999
334.999
335
335
334.999
334.999
335
335
)
;
    }
    procBoundary3to7
    {
        type            processor;
        value           nonuniform List<scalar> 
36
(
334.998
334.996
334.992
334.986
334.979
334.967
334.958
334.946
334.91
334.999
334.997
334.995
334.991
334.986
334.978
334.97
334.96
334.889
334.999
334.999
334.997
334.996
334.993
334.989
334.982
334.976
334.821
335
335
334.999
334.999
334.999
334.998
334.996
334.994
334.788
)
;
    }
}


// ************************************************************************* //
