/*--------------------------------*- C++ -*----------------------------------*\
| =========                 |                                                 |
| \\      /  F ield         | OpenFOAM: The Open Source CFD Toolbox           |
|  \\    /   O peration     | Version:  4.x                                   |
|   \\  /    A nd           | Web:      www.OpenFOAM.org                      |
|    \\/     M anipulation  |                                                 |
\*---------------------------------------------------------------------------*/
FoamFile
{
    version     2.0;
    format      ascii;
    class       volVectorField;
    location    "32";
    object      ddtUrel;
}
// * * * * * * * * * * * * * * * * * * * * * * * * * * * * * * * * * * * * * //

dimensions      [0 1 -2 0 0 0 0];

internalField   nonuniform List<vector> 
108
(
(-3.19681e-08 -1.39281e-08 -8.34566e-09)
(-1.96592e-08 -5.84258e-09 -2.36861e-09)
(-1.47038e-08 -2.99628e-09 -1.14759e-09)
(-1.4014e-08 -1.70474e-09 -1.05199e-09)
(-1.06906e-08 4.90563e-10 -6.3982e-10)
(-1.00733e-08 1.0062e-09 -1.13874e-09)
(-1.72057e-08 1.03193e-09 -2.39596e-09)
(-2.94026e-08 4.39537e-10 -5.83552e-09)
(-7.71138e-08 -2.05395e-09 -1.61082e-08)
(-1.54985e-08 -8.3281e-09 -5.10785e-09)
(-1.15745e-08 -5.08535e-09 -2.166e-09)
(-9.36575e-09 -3.68839e-09 -1.44808e-09)
(-1.00235e-08 -2.10536e-09 -1.08473e-09)
(-9.17817e-09 3.62596e-10 -9.56692e-10)
(-1.09798e-08 1.32183e-09 -1.83949e-09)
(-1.9889e-08 1.27547e-09 -3.61544e-09)
(-3.61757e-08 1.3419e-09 -8.05821e-09)
(-9.26147e-08 6.58753e-09 -2.05643e-08)
(-5.94e-09 -4.58755e-09 -2.74901e-09)
(-5.99522e-09 -3.50605e-09 -1.85167e-09)
(-5.69021e-09 -2.90467e-09 -1.82783e-09)
(-6.68837e-09 -1.94873e-09 -1.51102e-09)
(-6.7094e-09 -3.08547e-10 -1.65995e-09)
(-9.38105e-09 5.64896e-10 -2.90425e-09)
(-1.55032e-08 -2.05808e-10 -4.6919e-09)
(-2.15735e-08 -1.63236e-09 -7.79317e-09)
(-3.16433e-08 -1.57134e-09 -1.33524e-08)
(-2.03809e-09 -2.7936e-09 -1.86707e-09)
(-2.56284e-09 -2.84816e-09 -1.75655e-09)
(-3.74014e-09 -2.28084e-09 -1.99675e-09)
(-3.93694e-09 -1.71653e-09 -1.86485e-09)
(-4.61135e-09 -8.9087e-10 -2.18017e-09)
(-7.28904e-09 -5.4995e-10 -2.98893e-09)
(-1.05977e-08 -2.15656e-09 -4.49002e-09)
(-1.22429e-08 -6.1678e-09 -7.75823e-09)
(-6.94661e-09 -1.95489e-08 -1.54667e-08)
(-1.50672e-08 -8.48745e-09 -3.82153e-09)
(-1.20601e-08 -4.62865e-09 -1.51863e-09)
(-9.15608e-09 -3.13942e-09 5.50653e-10)
(-9.32592e-09 -1.66107e-09 -5.95787e-10)
(-8.62265e-09 1.92038e-10 -1.35186e-09)
(-9.30193e-09 8.7435e-10 -1.03085e-09)
(-1.532e-08 1.19364e-09 -2.27074e-09)
(-2.379e-08 1.16835e-09 -4.45051e-09)
(-3.66493e-08 1.49135e-09 -8.72188e-09)
(-7.94586e-09 -6.14277e-09 -2.84966e-09)
(-7.14011e-09 -4.27861e-09 -2.03447e-09)
(-5.83595e-09 -3.17563e-09 -1.13134e-09)
(-6.37256e-09 -1.81263e-09 -6.1239e-10)
(-7.32772e-09 1.58894e-10 -9.69812e-10)
(-9.52235e-09 1.06217e-09 -1.64036e-09)
(-1.67334e-08 1.1183e-09 -2.70116e-09)
(-2.54183e-08 8.50428e-10 -5.36333e-09)
(-3.6574e-08 1.51798e-09 -8.55817e-09)
(-2.60627e-09 -3.81782e-09 -2.05841e-09)
(-2.8708e-09 -3.25372e-09 -1.68363e-09)
(-2.62887e-09 -2.50623e-09 -1.10116e-09)
(-3.6307e-09 -1.69527e-09 -1.13016e-09)
(-5.13464e-09 -3.48757e-10 -1.46096e-09)
(-8.07232e-09 4.04641e-10 -2.32561e-09)
(-1.44571e-08 2.48537e-11 -3.15525e-09)
(-1.97086e-08 -8.23409e-10 -5.48265e-09)
(-2.13404e-08 -1.40121e-09 -7.64705e-09)
(-4.34768e-10 -2.57694e-09 -1.76548e-09)
(-7.45937e-11 -2.62451e-09 -1.79494e-09)
(-8.07722e-10 -2.17592e-09 -1.51737e-09)
(-1.71242e-09 -1.50591e-09 -1.39001e-09)
(-3.82208e-09 -7.24135e-10 -1.49252e-09)
(-6.62284e-09 -3.63351e-10 -2.37014e-09)
(-1.06786e-08 -1.14428e-09 -3.19937e-09)
(-1.3709e-08 -2.73747e-09 -5.05049e-09)
(-1.2637e-08 -5.7279e-09 -6.84377e-09)
(-7.82054e-09 -5.491e-09 -1.96442e-09)
(-5.97521e-09 -3.16447e-09 -1.12782e-09)
(-4.91491e-09 -2.21658e-09 -4.56395e-10)
(-7.13232e-09 -1.14134e-09 -1.03169e-10)
(-5.4975e-09 -1.67028e-10 -4.16551e-10)
(-6.68279e-09 5.2831e-10 -1.01606e-09)
(-1.21327e-08 9.98295e-10 -1.66933e-09)
(-1.59027e-08 1.01832e-09 -2.67126e-09)
(-1.73808e-08 1.07509e-09 -3.32e-09)
(-3.69143e-09 -3.84329e-09 -1.84418e-09)
(-4.45233e-09 -3.36922e-09 -1.41166e-09)
(-3.17645e-09 -3.76781e-09 -7.58824e-10)
(-3.82576e-09 -1.4285e-09 -2.67499e-10)
(-5.39135e-09 2.50789e-10 -4.79136e-10)
(-6.42639e-09 3.84887e-10 -1.18244e-09)
(-1.22356e-08 1.33068e-09 -1.97831e-09)
(-1.68916e-08 7.73368e-10 -2.97204e-09)
(-1.80845e-08 6.71327e-10 -3.56855e-09)
(-5.78594e-10 -3.15442e-09 -1.34305e-09)
(-9.12221e-10 -2.47115e-09 -1.27761e-09)
(-1.21541e-09 -2.25331e-09 -9.06534e-10)
(-2.24911e-09 -1.16027e-09 -6.30575e-10)
(-3.85424e-09 -2.59232e-10 -7.92759e-10)
(-5.36885e-09 3.28399e-11 -1.50317e-09)
(-1.12457e-08 1.38035e-10 -2.18308e-09)
(-1.46842e-08 -1.61588e-10 -2.86423e-09)
(-1.38558e-08 -4.44104e-10 -3.20678e-09)
(9.95394e-10 -2.24748e-09 -1.43816e-09)
(1.50482e-09 -2.15367e-09 -1.47008e-09)
(8.78853e-10 -2.32405e-09 -1.27519e-09)
(-6.73226e-10 -1.42043e-09 -1.00101e-09)
(-2.38939e-09 -3.36074e-10 -1.00752e-09)
(-4.95204e-09 -3.20834e-10 -1.61216e-09)
(-8.95747e-09 -6.1491e-10 -2.11413e-09)
(-1.20355e-08 -8.26691e-10 -2.50743e-09)
(-1.09133e-08 -1.71437e-09 -2.73029e-09)
)
;

boundaryField
{
    inlet
    {
        type            calculated;
        value           nonuniform 0();
    }
    outlet
    {
        type            calculated;
        value           nonuniform List<vector> 
12
(
(7.42719e-08 -8.08606e-09 -4.59735e-09)
(1.00698e-07 1.82006e-08 1.21773e-09)
(1.44209e-08 2.98111e-08 -2.12652e-08)
(1.0347e-07 -1.59735e-07 -7.40869e-08)
(1.65373e-08 2.59109e-09 -7.75233e-10)
(1.93846e-09 -2.52038e-10 -1.98519e-10)
(2.34986e-09 9.09283e-11 -9.54155e-09)
(-8.89239e-10 8.76577e-10 4.4998e-09)
(3.37593e-09 2.86652e-10 -1.68761e-09)
(3.91782e-09 1.7909e-09 6.73209e-10)
(-6.27104e-10 -1.7569e-09 7.84413e-10)
(-1.33352e-09 -1.84375e-09 3.3426e-09)
)
;
    }
    wall
    {
        type            calculated;
        value           nonuniform List<vector> 
63
(
(-3.13677e-08 1.6835e-09 4.00906e-09)
(-2.40925e-09 1.76632e-09 -1.78368e-09)
(7.98961e-10 1.69373e-10 7.65084e-10)
(6.82623e-09 1.53084e-10 2.18724e-09)
(-2.2364e-08 3.42286e-09 4.32528e-09)
(-2.48031e-08 -2.73709e-09 1.43918e-09)
(-2.35125e-08 2.00197e-09 -6.09887e-10)
(-1.09449e-08 -2.89437e-09 -1.41666e-09)
(-1.97928e-08 -2.0638e-09 -5.86178e-09)
(-1.19136e-08 -9.46317e-09 5.1615e-10)
(-1.78151e-08 -6.28011e-09 -5.73865e-09)
(-3.10694e-08 -2.05401e-09 -2.95672e-09)
(-6.00461e-08 -8.22823e-09 9.65756e-10)
(-3.48557e-08 -6.12964e-09 3.40892e-11)
(-3.06254e-08 -5.89852e-09 -9.79186e-10)
(-1.16121e-08 -2.70259e-09 -2.61766e-09)
(-5.33306e-09 9.04749e-09 7.27035e-09)
(-5.07065e-09 8.76869e-09 3.10811e-09)
(-2.14458e-09 2.11153e-09 -9.7794e-11)
(-7.28442e-10 -2.42628e-09 -5.33174e-09)
(1.99023e-08 2.87976e-09 1.93514e-09)
(1.19521e-08 8.09599e-09 2.41916e-09)
(-1.09979e-09 8.78819e-09 -3.44424e-09)
(-5.5043e-09 2.19803e-09 -3.37408e-09)
(-7.10099e-10 2.37926e-10 3.6891e-09)
(-1.32376e-08 9.67213e-09 2.47298e-10)
(-1.14936e-08 3.32665e-09 -8.85374e-09)
(9.13648e-09 -2.73584e-09 -7.68062e-10)
(9.54597e-08 3.02862e-10 1.17426e-08)
(5.15585e-08 -4.29251e-10 1.05807e-08)
(5.32872e-08 -4.46706e-09 -2.70935e-09)
(5.14907e-09 -5.36976e-10 -2.95137e-10)
(-4.61384e-07 -6.62349e-08 -9.38344e-08)
(-6.53883e-07 1.02324e-07 -1.39763e-07)
(2.92064e-08 3.78969e-08 -1.59842e-08)
(1.1649e-07 -1.55252e-07 -8.7184e-08)
(1.04667e-09 1.78958e-11 2.59877e-09)
(5.3472e-09 -1.31937e-09 -9.41216e-10)
(1.06533e-08 9.1802e-10 -1.76769e-09)
(4.67648e-09 -2.44044e-09 -2.9252e-10)
(1.7262e-08 -3.30505e-09 -3.69884e-09)
(1.83506e-08 1.2816e-09 -1.99037e-09)
(-1.69394e-08 -1.76203e-09 -4.2438e-09)
(1.54151e-08 1.98638e-10 -3.24763e-10)
(1.58268e-08 -9.11373e-09 -3.3617e-09)
(1.06789e-09 -3.1367e-09 -2.31692e-09)
(9.4696e-09 -1.34408e-09 -2.16162e-09)
(-1.01953e-09 -3.01717e-09 -1.71482e-09)
(2.52802e-09 -2.28472e-09 -4.2666e-09)
(4.70679e-09 -2.24316e-10 7.81344e-10)
(3.44572e-10 5.83289e-09 -1.67909e-10)
(-1.32182e-09 1.46949e-09 -4.09238e-09)
(2.00185e-09 1.17837e-09 -3.32756e-09)
(-1.29584e-09 -6.80642e-10 -2.62635e-09)
(2.61066e-09 -2.53352e-09 -1.79868e-09)
(-1.06067e-08 -1.13919e-10 3.14225e-10)
(-1.06786e-08 -1.57183e-09 -1.58069e-09)
(8.34756e-10 -4.43481e-10 -7.98709e-10)
(-2.27221e-08 2.54185e-10 -4.46219e-09)
(-2.54557e-08 1.31914e-09 3.09172e-10)
(2.48212e-07 -1.23855e-07 -2.54517e-07)
(-3.44108e-09 1.14624e-09 3.88172e-09)
(-2.38098e-09 -2.61726e-09 4.80772e-09)
)
;
    }
    procBoundary3to1
    {
        type            processor;
        value           nonuniform List<vector> 
27
(
(-3.08166e-08 -9.26052e-09 -3.84483e-09)
(-3.16206e-08 -3.61703e-09 -4.85334e-10)
(-2.26203e-08 -1.1435e-09 1.60501e-10)
(-1.7223e-08 -3.44934e-10 -4.12862e-11)
(-1.23209e-08 6.26618e-12 -6.71633e-10)
(-9.13156e-09 3.73102e-10 -9.93789e-10)
(-1.11536e-08 8.89984e-10 -1.2089e-09)
(-1.3458e-08 1.00753e-09 -2.01639e-09)
(-2.16754e-08 -1.68648e-10 -5.03613e-09)
(-1.79668e-08 -6.78243e-09 -1.30354e-09)
(-1.89437e-08 -3.36502e-09 -8.6409e-10)
(-1.45257e-08 -1.96422e-09 -6.80274e-10)
(-1.22639e-08 -7.79606e-10 -4.92303e-10)
(-9.83343e-09 -3.6071e-11 -9.38226e-10)
(-8.35309e-09 6.24614e-10 -9.24654e-10)
(-1.18437e-08 1.12171e-09 -9.98923e-10)
(-1.55537e-08 1.21736e-09 -1.85e-09)
(-1.63695e-08 9.27195e-10 -2.96534e-09)
(-1.01557e-08 -4.71488e-09 -9.24535e-10)
(-1.10772e-08 -2.49673e-09 -4.21637e-10)
(-6.86456e-09 -7.09476e-10 -3.53179e-10)
(-6.51817e-09 -8.07024e-10 -2.51702e-10)
(-5.63313e-09 -9.51317e-10 -4.43265e-10)
(-5.76481e-09 3.62349e-10 -7.28332e-10)
(-9.67229e-09 7.72814e-10 -1.0856e-09)
(-1.244e-08 8.20035e-10 -1.41648e-09)
(-1.16456e-08 9.13248e-10 -1.29505e-09)
)
;
    }
    procBoundary3to2
    {
        type            processor;
        value           nonuniform List<vector> 
12
(
(-8.38072e-08 -4.00764e-08 -3.19157e-08)
(-2.52869e-08 -1.38053e-08 -1.08516e-08)
(-7.49344e-09 -5.83891e-09 -4.32148e-09)
(-2.10633e-09 -3.28139e-09 -2.32736e-09)
(-2.29324e-08 -1.33289e-08 -9.14084e-09)
(-1.07807e-08 -7.78587e-09 -5.12098e-09)
(-3.71266e-09 -4.29267e-09 -2.81655e-09)
(-9.45782e-10 -2.85784e-09 -1.97379e-09)
(-6.47414e-09 -5.96223e-09 -3.03866e-09)
(-3.345e-09 -4.33871e-09 -2.44743e-09)
(-3.02611e-10 -3.02179e-09 -1.64454e-09)
(8.02536e-10 -2.39887e-09 -1.36474e-09)
)
;
    }
    procBoundary3to7
    {
        type            processor;
        value           nonuniform List<vector> 
36
(
(-2.02825e-09 -3.19352e-09 -4.82646e-10)
(-3.08647e-09 -2.41291e-09 -3.30406e-11)
(-2.05262e-09 -1.90641e-09 -6.95022e-10)
(-2.29186e-09 -1.07126e-09 1.47172e-10)
(-3.26137e-09 -2.20351e-10 4.35603e-10)
(-5.17714e-09 3.20477e-10 -5.81908e-10)
(-9.27171e-09 9.41383e-10 -7.67346e-10)
(-1.1061e-08 9.44051e-10 -1.2135e-09)
(-1.06575e-08 1.01402e-09 -1.10082e-09)
(-5.82951e-10 -2.68342e-09 -1.01679e-09)
(-1.16757e-09 -2.15681e-09 -1.38806e-10)
(-9.44998e-10 -1.97268e-09 -1.93042e-11)
(-1.21511e-09 -1.2597e-09 -9.15202e-12)
(-3.13746e-09 -1.36227e-10 -1.67228e-10)
(-4.65421e-09 2.63629e-10 -6.77905e-10)
(-9.38676e-09 8.35975e-10 -1.10925e-09)
(-1.17758e-08 1.16213e-09 -1.4369e-09)
(-1.05442e-08 1.10365e-09 -1.25916e-09)
(1.10654e-09 -2.0461e-09 -7.44628e-10)
(4.96968e-10 -1.77305e-09 -5.72131e-10)
(2.51427e-10 -1.55192e-09 -4.97901e-10)
(-5.2918e-10 -1.16832e-09 -8.55273e-11)
(-2.6803e-09 -2.23273e-10 -1.86993e-10)
(-4.29284e-09 1.82749e-10 -8.51261e-10)
(-8.5466e-09 3.47425e-10 -1.4944e-09)
(-1.08379e-08 7.30266e-10 -1.25057e-09)
(-9.15096e-09 6.56508e-10 -9.2636e-10)
(1.42767e-09 -1.69301e-09 -1.05753e-09)
(1.59673e-09 -1.55631e-09 -9.71221e-10)
(1.1804e-09 -1.51521e-09 -6.57877e-10)
(4.38798e-11 -1.14613e-09 -3.86313e-10)
(-1.73317e-09 -2.45371e-10 -5.53823e-10)
(-3.86932e-09 1.27785e-10 -8.63743e-10)
(-7.62989e-09 3.09225e-10 -1.17127e-09)
(-9.61251e-09 4.12152e-10 -9.42011e-10)
(-8.64752e-09 3.66387e-10 -7.82237e-10)
)
;
    }
}


// ************************************************************************* //
