/*--------------------------------*- C++ -*----------------------------------*\
| =========                 |                                                 |
| \\      /  F ield         | OpenFOAM: The Open Source CFD Toolbox           |
|  \\    /   O peration     | Version:  4.x                                   |
|   \\  /    A nd           | Web:      www.OpenFOAM.org                      |
|    \\/     M anipulation  |                                                 |
\*---------------------------------------------------------------------------*/
FoamFile
{
    version     2.0;
    format      ascii;
    class       volVectorField;
    location    "32";
    object      DDtUrel;
}
// * * * * * * * * * * * * * * * * * * * * * * * * * * * * * * * * * * * * * //

dimensions      [0 1 -2 0 0 0 0];

internalField   nonuniform List<vector> 
108
(
(0.000149811 1.37236e-05 2.87843e-05)
(6.79276e-05 1.53635e-05 2.12886e-05)
(2.57213e-05 7.1939e-06 2.8557e-05)
(-0.000142526 -6.01171e-06 4.00944e-06)
(-0.000278518 -1.30469e-05 -3.84877e-06)
(-0.000628607 -2.92462e-05 -0.000112764)
(-0.00101194 -2.73645e-05 -0.000212262)
(-0.00178164 -6.7854e-05 -0.000503291)
(-0.00278109 -0.000106356 -0.00083788)
(0.000155329 4.0524e-06 3.2625e-05)
(7.32444e-05 1.15491e-05 2.53024e-05)
(3.3803e-05 1.4593e-05 3.15588e-05)
(-0.000127111 3.16906e-05 7.16168e-06)
(-0.000258948 4.47591e-05 -1.00451e-05)
(-0.000601909 8.40123e-05 -0.000125216)
(-0.00100418 0.000113356 -0.000259922)
(-0.00175843 0.000242402 -0.000579228)
(-0.00276002 0.000397317 -0.000895357)
(0.000202879 -9.17456e-06 3.35079e-05)
(0.000116742 -2.28445e-06 3.07289e-05)
(9.01709e-05 6.83768e-06 3.2322e-05)
(-7.1494e-05 4.98696e-05 1.04204e-05)
(-0.0001484 7.01944e-05 -1.99912e-05)
(-0.000520769 0.000164772 -0.0001582)
(-0.000827066 0.000210057 -0.000368693)
(-0.00192075 0.000543613 -0.000855746)
(-0.00326494 0.000830444 -0.00128128)
(0.000260353 -2.30435e-05 3.04207e-05)
(0.000163737 -1.77368e-05 2.67359e-05)
(0.000144717 -3.98303e-06 2.55116e-05)
(-1.93689e-05 4.26348e-05 -1.61015e-06)
(-5.34928e-05 7.84952e-05 -4.09567e-05)
(-0.000453318 0.000185013 -0.000198322)
(-0.000673951 0.000274295 -0.000511746)
(-0.00208596 0.000634367 -0.00140538)
(-0.00378474 0.000863361 -0.00196607)
(8.93605e-05 1.04228e-05 2.84334e-05)
(2.56894e-05 9.20746e-06 2.09167e-05)
(-2.22735e-05 4.28357e-06 2.47662e-05)
(-0.000146539 1.9061e-07 1.56811e-06)
(-0.000287034 -7.51482e-06 -1.3823e-05)
(-0.000562759 -7.19142e-06 -0.000103119)
(-0.000933806 -1.77037e-05 -0.000196603)
(-0.00154894 8.80138e-06 -0.000491013)
(-0.00231551 2.93981e-05 -0.00077412)
(0.000103368 3.0571e-06 2.81534e-05)
(3.86695e-05 6.34236e-06 1.98175e-05)
(-3.91556e-06 7.45605e-06 2.42924e-05)
(-0.00012747 2.13502e-05 -2.43033e-06)
(-0.000255056 3.24196e-05 -2.21263e-05)
(-0.000536186 7.40663e-05 -0.00012342)
(-0.000906642 0.000111327 -0.000249605)
(-0.00157402 0.000297838 -0.000560079)
(-0.00241386 0.000484152 -0.000883213)
(0.000139978 -1.09487e-05 2.76916e-05)
(7.22716e-05 -4.25462e-06 1.84161e-05)
(5.05883e-05 -6.9679e-07 2.36828e-05)
(-7.97894e-05 3.19634e-05 -9.90325e-06)
(-0.000149725 4.97544e-05 -3.01478e-05)
(-0.000468754 0.000143023 -0.000167552)
(-0.000757691 0.00020925 -0.000327218)
(-0.0017479 0.00060749 -0.000850477)
(-0.00291095 0.000901985 -0.00134614)
(0.00018812 -2.31183e-05 2.61974e-05)
(0.000109062 -1.81505e-05 1.34242e-05)
(9.87677e-05 -9.08597e-06 1.52561e-05)
(-3.98468e-05 2.89601e-05 -2.15227e-05)
(-6.25947e-05 5.92768e-05 -4.54635e-05)
(-0.000409615 0.000166241 -0.00019441)
(-0.000587224 0.000267105 -0.000425055)
(-0.00188282 0.000652905 -0.00121485)
(-0.00344484 0.000859426 -0.00182681)
(3.5625e-05 5.85885e-06 2.30579e-05)
(-4.7246e-06 4.68873e-06 1.62233e-05)
(-6.26527e-05 3.46491e-06 1.5164e-05)
(-0.00015488 2.9215e-07 -2.35249e-06)
(-0.000290876 -2.44039e-06 -1.89474e-05)
(-0.000510068 -3.2847e-06 -8.45769e-05)
(-0.000855491 -3.46494e-06 -0.000162526)
(-0.00129784 1.04082e-05 -0.000392133)
(-0.00189144 1.01926e-05 -0.000580641)
(4.86092e-05 -5.24755e-07 2.08203e-05)
(1.37996e-06 1.17378e-06 1.52022e-05)
(-4.74109e-05 6.67432e-06 1.4471e-05)
(-0.000140944 1.45586e-05 -6.87085e-06)
(-0.000261591 3.1154e-05 -2.46143e-05)
(-0.000493713 6.23017e-05 -0.000107244)
(-0.00082748 0.000101745 -0.000196629)
(-0.00135125 0.000261556 -0.0004442)
(-0.00205472 0.000404794 -0.000683961)
(7.80594e-05 -1.06302e-05 1.52568e-05)
(2.61861e-05 -5.79694e-06 8.8163e-06)
(-9.20481e-06 -2.2593e-06 6.40075e-06)
(-0.000108652 2.217e-05 -2.05905e-05)
(-0.000207802 4.46205e-05 -4.65805e-05)
(-0.000456348 0.000123412 -0.000150753)
(-0.000791661 0.000199539 -0.000267311)
(-0.00149514 0.00052487 -0.000604067)
(-0.00234624 0.000789916 -0.000954019)
(0.000118846 -1.86534e-05 9.75644e-06)
(5.55009e-05 -1.19682e-05 -3.0642e-06)
(4.22255e-05 -9.47245e-06 -3.10987e-06)
(-7.45168e-05 2.94056e-05 -4.07942e-05)
(-0.00011399 5.22865e-05 -6.03017e-05)
(-0.000402564 0.000152978 -0.000180319)
(-0.00060123 0.000232142 -0.000300713)
(-0.00166468 0.000598119 -0.00075318)
(-0.00295353 0.000881234 -0.00125362)
)
;

boundaryField
{
    inlet
    {
        type            calculated;
        value           nonuniform 0();
    }
    outlet
    {
        type            calculated;
        value           nonuniform List<vector> 
12
(
(-0.00646401 -0.000852088 -0.00139271)
(-0.00545376 0.000849144 -0.000950709)
(-0.00865891 0.0027665 -0.00154611)
(-0.0119223 0.00171829 -0.00630667)
(-0.00403542 0.000523689 -0.00159307)
(-0.00395266 0.00171029 -0.00142044)
(-0.00721145 0.00382817 -0.0042973)
(-0.0106033 0.00131943 -0.00660967)
(-0.00232485 -0.00013582 -0.00114964)
(-0.00372802 0.000790405 -0.00119201)
(-0.00311674 0.00300469 -0.00212292)
(-0.00927055 0.00325906 -0.00384524)
)
;
    }
    wall
    {
        type            calculated;
        value           nonuniform List<vector> 
63
(
(0.000524351 2.92852e-05 3.66017e-05)
(0.000419237 4.08472e-06 7.93822e-05)
(0.000621506 -2.57171e-05 7.94027e-05)
(0.000943431 -8.66667e-05 5.46625e-05)
(2.30508e-05 7.14065e-05 -2.05134e-05)
(-7.5657e-05 7.25863e-05 -6.19073e-06)
(4.93091e-05 1.50481e-06 8.30677e-05)
(0.000223753 -9.11438e-05 4.72816e-05)
(0.000494279 6.60661e-06 0.000156631)
(0.000395261 3.73782e-05 0.000159924)
(0.000655015 -7.04477e-05 0.000158115)
(0.000922722 -0.000127845 0.000119933)
(-0.000369629 -0.000111575 1.35475e-06)
(-0.00034335 0.000136337 1.29304e-05)
(-0.000310234 0.000256337 0.000146897)
(-0.000218259 9.73923e-05 6.19593e-05)
(0.000153676 -0.000107435 0.000401725)
(0.00013428 9.7076e-05 0.000355643)
(0.000860695 -5.50555e-05 0.000393985)
(0.00144978 -6.57686e-05 0.000290938)
(-0.00100671 -0.000290023 -7.59832e-05)
(-0.00077811 0.000246109 -4.6084e-06)
(-0.000852542 0.000576698 0.000126278)
(-0.00096094 0.00036051 0.000172621)
(-0.000476316 -7.04164e-05 0.000467845)
(-0.000680258 -6.81508e-05 0.000493828)
(0.00158594 -0.000621733 0.000505814)
(0.00338984 -0.000384698 0.000664476)
(-0.00146792 -0.000428926 0.000143237)
(-0.000953708 1.62897e-05 -3.38496e-05)
(-0.00162985 0.00114332 -0.00023497)
(-0.00228572 0.00128023 -0.00475154)
(-0.00646401 -0.000852088 -0.00139271)
(-0.00545376 0.000849144 -0.000950709)
(-0.00865891 0.0027665 -0.00154611)
(-0.0119223 0.00171829 -0.00630667)
(0.000943431 -8.66667e-05 5.46625e-05)
(0.00056719 -9.32168e-05 0.000107886)
(0.000390952 -5.43848e-05 2.11209e-05)
(0.000223753 -9.11438e-05 4.72816e-05)
(-4.69169e-06 -9.42031e-05 -3.95383e-05)
(-2.92581e-05 -2.5063e-06 -0.000102968)
(0.000922722 -0.000127845 0.000119933)
(0.000694739 -0.000142765 0.000139337)
(0.00055251 -0.000158308 6.69209e-05)
(-0.000218259 9.73923e-05 6.19593e-05)
(-0.000250177 1.85801e-06 -0.000100842)
(-0.000170845 0.000145434 -0.000230852)
(0.00144978 -6.57686e-05 0.000290938)
(0.0013853 -0.000196641 0.000344502)
(0.00109801 -0.00014834 0.000139117)
(-0.00096094 0.00036051 0.000172621)
(-0.000665354 0.000239552 -4.31091e-05)
(-0.000363957 0.000459846 -0.00042474)
(0.00338984 -0.000384698 0.000664476)
(0.00386363 -0.000394082 0.000971767)
(0.00317639 -0.00049281 0.000632255)
(-0.00228572 0.00128023 -0.00475154)
(-0.00147815 0.00159775 -0.00373742)
(-0.00146717 0.00173213 -0.000780276)
(-0.0119223 0.00171829 -0.00630667)
(-0.0106033 0.00131943 -0.00660967)
(-0.00927055 0.00325906 -0.00384524)
)
;
    }
    procBoundary3to1
    {
        type            processor;
        value           nonuniform List<vector> 
27
(
(0.000157296 2.53832e-05 2.7273e-05)
(7.74385e-05 1.74096e-05 1.56628e-05)
(4.61071e-05 8.2272e-06 2.11843e-05)
(-0.000113762 -2.19298e-05 -1.34918e-05)
(-0.000204157 -3.57872e-05 -1.30958e-05)
(-0.000562915 -9.84618e-05 -0.000131961)
(-0.000864065 -0.00011905 -0.000199609)
(-0.00189697 -0.000338932 -0.000604581)
(-0.00312328 -0.000542926 -0.00101692)
(9.13073e-05 1.76958e-05 3.00707e-05)
(3.29982e-05 1.1766e-05 1.96955e-05)
(-1.25263e-05 7.22611e-06 2.03852e-05)
(-0.00012889 -1.14549e-05 -2.25201e-06)
(-0.000265235 -2.58532e-05 -1.81649e-05)
(-0.000541995 -6.709e-05 -0.000106935)
(-0.00092024 -0.000108179 -0.000209289)
(-0.00162217 -0.000275545 -0.000543033)
(-0.00242479 -0.00041002 -0.000826617)
(4.33986e-05 1.46466e-05 2.24031e-05)
(-2.51217e-06 8.22044e-06 1.45383e-05)
(-4.86388e-05 3.25205e-06 1.29473e-05)
(-0.000146298 -1.27216e-05 -5.84718e-06)
(-0.000275201 -2.67463e-05 -1.71559e-05)
(-0.000505086 -6.79076e-05 -8.88635e-05)
(-0.000850234 -9.01849e-05 -0.000149975)
(-0.00135071 -0.000260284 -0.000372618)
(-0.00202559 -0.000389536 -0.000592139)
)
;
    }
    procBoundary3to2
    {
        type            processor;
        value           nonuniform List<vector> 
12
(
(0.000160541 8.6087e-06 3.2025e-05)
(0.000165271 8.14921e-07 3.25399e-05)
(0.000209914 -8.71326e-06 3.13786e-05)
(0.000268856 -2.17656e-05 2.77046e-05)
(0.000101564 7.85182e-06 2.67853e-05)
(0.000111423 -8.72746e-07 2.67241e-05)
(0.000143504 -1.12817e-05 2.58803e-05)
(0.000192899 -2.22639e-05 2.38743e-05)
(5.62692e-05 5.00883e-06 2.21448e-05)
(6.24579e-05 -2.62503e-06 2.05935e-05)
(8.61819e-05 -1.09968e-05 1.69935e-05)
(0.000121262 -1.81808e-05 1.07291e-05)
)
;
    }
    procBoundary3to7
    {
        type            processor;
        value           nonuniform List<vector> 
36
(
(1.21704e-05 4.65137e-06 1.38493e-05)
(-2.47994e-05 2.3058e-06 1.02157e-05)
(-7.18853e-05 2.19017e-06 1.07473e-05)
(-0.000153523 -1.63699e-06 1.16255e-06)
(-0.000276062 -5.41391e-06 -5.61736e-06)
(-0.000470198 -6.70709e-06 -4.37156e-05)
(-0.000783267 -1.39492e-05 -8.36585e-05)
(-0.00112812 1.81879e-05 -0.000192953)
(-0.00165633 4.38597e-05 -0.000286115)
(1.43975e-05 -3.51321e-06 9.6666e-06)
(-2.30287e-05 -1.98678e-06 6.11231e-06)
(-7.11588e-05 1.04576e-06 2.82438e-06)
(-0.000149887 1.069e-05 -1.02116e-05)
(-0.000267953 1.89853e-05 -2.12381e-05)
(-0.000462697 5.45692e-05 -7.39689e-05)
(-0.000772262 7.38153e-05 -0.00011586)
(-0.0011833 0.000236163 -0.000267475)
(-0.00176544 0.00036002 -0.000405873)
(4.16793e-05 -1.25631e-05 5.26661e-06)
(-7.46578e-06 -5.52925e-06 -2.55217e-06)
(-4.11732e-05 -5.7326e-06 -7.6958e-06)
(-0.000132042 1.50456e-05 -2.35562e-05)
(-0.00022535 2.23806e-05 -3.97816e-05)
(-0.000449405 8.23108e-05 -9.56433e-05)
(-0.000745079 0.000120948 -0.00014054)
(-0.00132481 0.000330507 -0.000322362)
(-0.00211509 0.000528799 -0.000520909)
(6.61227e-05 -1.81822e-05 -3.43198e-06)
(6.00256e-06 -1.04181e-05 -1.23622e-05)
(-2.00772e-05 -6.74816e-06 -1.40362e-05)
(-0.000125092 1.6254e-05 -3.73117e-05)
(-0.000203691 3.58881e-05 -4.75755e-05)
(-0.000449625 9.1843e-05 -0.000115672)
(-0.000743662 0.000162977 -0.000163272)
(-0.00144192 0.000333985 -0.000381086)
(-0.00237009 0.00051747 -0.000663127)
)
;
    }
}


// ************************************************************************* //
