/*--------------------------------*- C++ -*----------------------------------*\
| =========                 |                                                 |
| \\      /  F ield         | OpenFOAM: The Open Source CFD Toolbox           |
|  \\    /   O peration     | Version:  4.x                                   |
|   \\  /    A nd           | Web:      www.OpenFOAM.org                      |
|    \\/     M anipulation  |                                                 |
\*---------------------------------------------------------------------------*/
FoamFile
{
    version     2.0;
    format      ascii;
    class       volScalarField;
    location    "32";
    object      QPartFluidCoeff;
}
// * * * * * * * * * * * * * * * * * * * * * * * * * * * * * * * * * * * * * //

dimensions      [1 -1 -3 -1 0 0 0];

internalField   nonuniform List<scalar> 
108
(
-2.81997e+07
-1.28262e+07
-2.23042e+07
-1.07901e+07
-1.64212e+07
-1.2545e+07
-1.8217e+07
-1.70801e+07
-9.12835e+06
-2.09793e+07
-2.97675e+07
-1.67853e+07
-1.86725e+07
-2.06588e+07
-1.70465e+07
-2.02993e+07
-1.89078e+07
-1.23282e+07
-2.21165e+07
-2.26935e+07
-2.36227e+07
-1.65052e+07
-1.96883e+07
-1.79197e+07
-2.24814e+07
-2.34077e+07
-1.31053e+07
-1.44886e+07
-1.43722e+07
-1.56273e+07
-2.23064e+07
-1.84006e+07
-1.84564e+07
-1.20958e+07
-1.85951e+07
-1.51335e+07
-2.83971e+07
-2.67813e+07
-3.38962e+07
-3.51559e+07
-2.78155e+07
-2.61498e+07
-2.2292e+07
-2.76719e+07
-2.42178e+07
-2.58927e+07
-2.71106e+07
-2.79416e+07
-3.03338e+07
-2.5867e+07
-2.69348e+07
-3.19302e+07
-2.99009e+07
-1.91383e+07
-4.24742e+07
-3.31233e+07
-3.01229e+07
-3.80323e+07
-2.83052e+07
-3.39561e+07
-2.72409e+07
-3.28881e+07
-2.5725e+07
-2.81087e+07
-2.38906e+07
-2.4371e+07
-2.68259e+07
-3.06322e+07
-2.55587e+07
-2.43072e+07
-2.8975e+07
-1.84163e+07
-2.69953e+07
-3.6148e+07
-3.00238e+07
-3.39039e+07
-2.15456e+07
-2.5501e+07
-2.97287e+07
-2.77796e+07
-2.27781e+07
-3.22134e+07
-2.0773e+07
-2.72032e+07
-1.67898e+07
-1.46321e+07
-3.1839e+07
-2.5697e+07
-3.69397e+07
-1.7106e+07
-2.02032e+07
-3.45617e+07
-3.07105e+07
-2.43442e+07
-2.46692e+07
-3.33619e+07
-2.72124e+07
-3.12326e+07
-1.65088e+07
-2.94261e+07
-1.6406e+07
-1.95463e+07
-2.35614e+07
-2.17985e+07
-2.92423e+07
-2.19868e+07
-3.23949e+07
-2.59002e+07
)
;

boundaryField
{
    inlet
    {
        type            calculated;
        value           nonuniform 0();
    }
    outlet
    {
        type            calculated;
        value           uniform 0;
    }
    wall
    {
        type            calculated;
        value           uniform 0;
    }
    procBoundary3to1
    {
        type            processor;
        value           nonuniform List<scalar> 
27
(
298.882
537.8
471.832
676.461
474.179
437.494
425.634
467.479
315.539
602.268
644.012
544.001
516.325
434.117
697.157
699.788
984.456
326.431
706.973
593.292
411.824
837.889
665.301
801.936
562.126
731.208
254.944
)
;
    }
    procBoundary3to2
    {
        type            processor;
        value           nonuniform List<scalar> 
12
(
348.097
339.93
492.854
301.126
848.698
488.104
583.75
364.854
694.069
436.953
776.454
586.981
)
;
    }
    procBoundary3to7
    {
        type            processor;
        value           nonuniform List<scalar> 
36
(
751.524
683.309
481.765
598.232
834.999
943.694
605.465
501.394
487.251
567.116
857.605
558.531
613.741
635.964
525.652
601.081
587.444
526.4
393.762
708.562
516.365
673.639
620.182
789.932
648.055
690.3
519.252
532.531
567.429
674.509
450.975
595.793
604.385
606.569
528.881
271.348
)
;
    }
}


// ************************************************************************* //
