/*--------------------------------*- C++ -*----------------------------------*\
| =========                 |                                                 |
| \\      /  F ield         | OpenFOAM: The Open Source CFD Toolbox           |
|  \\    /   O peration     | Version:  4.x                                   |
|   \\  /    A nd           | Web:      www.OpenFOAM.org                      |
|    \\/     M anipulation  |                                                 |
\*---------------------------------------------------------------------------*/
FoamFile
{
    version     2.0;
    format      ascii;
    class       volScalarField;
    location    "30.5";
    object      p_rgh;
}
// * * * * * * * * * * * * * * * * * * * * * * * * * * * * * * * * * * * * * //

dimensions      [1 -1 -2 0 0 0 0];

internalField   nonuniform List<scalar> 
108
(
110.916
93.5398
103.756
75.6839
96.2962
57.4793
88.9028
38.9907
81.7367
111.56
93.8358
104.376
75.9061
96.7668
57.5489
89.2628
39.1025
82.0422
112.025
94.1498
104.748
76.2365
97.0377
58.0102
89.4413
39.7839
81.965
112.197
94.4269
104.969
76.6071
97.2946
58.5526
89.5374
40.4112
81.9308
110.979
93.6873
103.877
76.0114
96.4125
57.8393
89.0978
39.6452
81.8988
111.49
93.8918
104.267
76.1363
96.7531
57.9483
89.3491
39.591
82.0414
111.959
94.2989
104.729
76.4064
97.1174
58.1773
89.5456
39.9568
82.2126
112.214
94.294
104.886
76.5115
97.1559
58.1558
89.4675
39.6252
82.0527
110.704
93.4531
103.563
75.9803
96.227
57.8624
88.7839
39.4125
81.4848
111.184
93.6801
103.892
76.015
96.4461
57.8346
88.9483
39.4313
81.7074
111.607
93.9662
104.269
76.1794
96.7014
58.0521
89.168
39.767
81.9061
111.852
93.966
104.452
76.2665
96.7548
57.9027
89.0758
39.6197
81.8693
)
;

boundaryField
{
    inlet
    {
        type            fixedFluxPressure;
        gradient        nonuniform List<scalar> 
12
(
0.000408148
0.00039822
0.000396654
0.000391869
0.000720105
0.000695862
0.00068259
0.00066053
0.00104149
0.00100645
0.000981635
0.000947106
)
;
        value           nonuniform List<scalar> 
12
(
110.916
111.56
112.025
112.197
110.979
111.49
111.959
112.214
110.704
111.184
111.607
111.852
)
;
    }
    outlet
    {
        type            fixedValue;
        value           nonuniform 0();
    }
    wall
    {
        type            fixedFluxPressure;
        gradient        nonuniform List<scalar> 
63
(
2.1938e-06
4.4616e-06
1.62275e-06
1.34268e-06
2.17431e-06
2.64581e-06
3.90559e-06
5.09636e-06
1.45197e-06
1.49435e-06
1.36093e-06
3.51448e-06
2.33468e-06
3.22281e-06
3.25735e-06
5.5486e-06
1.33471e-06
1.70839e-06
2.52598e-06
3.93079e-06
2.65534e-06
3.18987e-06
6.14691e-06
1.01649e-05
2.26409e-06
2.03078e-06
5.34263e-06
3.96327e-06
3.51494e-06
5.46757e-06
6.43339e-06
6.85905e-06
2.83372e-06
4.68215e-06
3.90324e-06
5.49275e-06
5.31627e-07
4.80857e-07
-1.06886e-07
2.31289e-06
2.47928e-06
9.22543e-07
1.56902e-06
9.1641e-07
3.70041e-07
4.5965e-06
6.11994e-07
4.60691e-07
2.22881e-06
6.8564e-08
-1.12179e-07
2.19067e-06
1.87592e-06
6.73683e-07
2.63251e-06
6.62432e-07
5.54007e-08
1.39782e-06
2.74676e-06
2.65359e-07
-7.2626e-07
2.81875e-07
1.31682e-07
)
;
        value           nonuniform List<scalar> 
63
(
110.704
111.184
111.607
111.852
93.4531
93.6801
93.9662
93.966
103.563
103.892
104.269
104.452
75.9803
76.015
76.1794
76.2665
96.227
96.4461
96.7014
96.7548
57.8624
57.8346
58.0521
57.9027
88.7839
88.9483
89.168
89.0758
39.4125
39.4313
39.767
39.6197
81.4848
81.7074
81.9061
81.8693
110.916
110.979
110.704
93.5398
93.6873
93.4531
103.756
103.877
103.563
75.6839
76.0114
75.9803
96.2962
96.4125
96.227
57.4793
57.8393
57.8624
88.9028
89.0978
88.7839
38.9907
39.6452
39.4125
81.7367
81.8988
81.4848
)
;
    }
    procBoundary4to0
    {
        type            processor;
        value           nonuniform List<scalar> 
36
(
110.688
93.4712
103.584
75.6269
96.2146
57.4372
88.8827
39.2089
81.9667
111.253
93.7352
104.063
75.7572
96.5797
57.5729
89.2253
39.1436
82.1633
111.676
94.1069
104.571
76.263
97.0646
58.242
89.4585
40.3604
82.0361
111.855
94.2072
104.698
76.301
97.031
58.3953
89.3624
40.4101
82.0655
)
;
    }
    procBoundary4to5
    {
        type            processor;
        value           nonuniform List<scalar> 
12
(
20.0995
20.2874
21.5707
22.6706
21.005
20.8004
21.6723
21.3318
20.5712
20.6502
21.4063
21.2076
)
;
    }
    procBoundary4to6
    {
        type            processor;
        value           nonuniform List<scalar> 
27
(
112.283
94.0717
104.913
76.4583
97.2055
58.2838
89.4848
40.2396
81.9283
112.172
94.1554
104.79
76.3742
97.1937
58.3511
89.663
40.1504
82.3483
111.675
93.9621
104.398
76.2908
96.8515
58.2523
89.3728
39.9213
82.159
)
;
    }
}


// ************************************************************************* //
