/*--------------------------------*- C++ -*----------------------------------*\
| =========                 |                                                 |
| \\      /  F ield         | OpenFOAM: The Open Source CFD Toolbox           |
|  \\    /   O peration     | Version:  4.x                                   |
|   \\  /    A nd           | Web:      www.OpenFOAM.org                      |
|    \\/     M anipulation  |                                                 |
\*---------------------------------------------------------------------------*/
FoamFile
{
    version     2.0;
    format      ascii;
    class       volScalarField;
    location    "30.5";
    object      QPartFluid;
}
// * * * * * * * * * * * * * * * * * * * * * * * * * * * * * * * * * * * * * //

dimensions      [1 -1 -3 0 0 0 0];

internalField   nonuniform List<scalar> 
108
(
4.92302e+09
7.10924e+09
8.4221e+09
5.97609e+09
7.15021e+09
5.98184e+09
8.93065e+09
6.85957e+09
9.63317e+09
7.01778e+09
7.29308e+09
9.38422e+09
1.00287e+10
1.01114e+10
8.56283e+09
8.12649e+09
5.72017e+09
1.11124e+10
6.68746e+09
1.02766e+10
8.31321e+09
9.35319e+09
8.11393e+09
6.28758e+09
7.29307e+09
1.02894e+10
6.73447e+09
3.45731e+09
6.73089e+09
9.39177e+09
5.70886e+09
8.78637e+09
6.68277e+09
1.09898e+10
5.99839e+09
7.03686e+09
5.05924e+09
5.49352e+09
8.04912e+09
8.33841e+09
8.52245e+09
5.47676e+09
5.57635e+09
7.56003e+09
9.57835e+09
6.24186e+09
7.60533e+09
7.54973e+09
7.59435e+09
7.7332e+09
6.81593e+09
8.49396e+09
9.26779e+09
1.04837e+10
4.19058e+09
7.33014e+09
1.00164e+10
8.29504e+09
9.6609e+09
8.25896e+09
8.16826e+09
7.19419e+09
8.61066e+09
6.20162e+09
8.58213e+09
7.53498e+09
9.64098e+09
1.05078e+10
7.59925e+09
1.1815e+10
8.45068e+09
8.10838e+09
4.55016e+09
6.30281e+09
4.44268e+09
6.05323e+09
6.34407e+09
8.00783e+09
8.00915e+09
6.50798e+09
8.18752e+09
4.87354e+09
9.01115e+09
7.12191e+09
5.84572e+09
7.46339e+09
7.70637e+09
7.37428e+09
6.21798e+09
8.56743e+09
5.2302e+09
7.46153e+09
8.45264e+09
7.1594e+09
6.70028e+09
6.91474e+09
7.34497e+09
7.87252e+09
7.02087e+09
7.24938e+09
7.00953e+09
6.69235e+09
7.95801e+09
8.42011e+09
9.49423e+09
4.95353e+09
5.13944e+09
7.04625e+09
)
;

boundaryField
{
    inlet
    {
        type            calculated;
        value           uniform 0;
    }
    outlet
    {
        type            calculated;
        value           nonuniform 0();
    }
    wall
    {
        type            calculated;
        value           uniform 0;
    }
    procBoundary4to0
    {
        type            processor;
        value           nonuniform List<scalar> 
36
(
4.34848e+09
4.99712e+09
6.76535e+09
5.19841e+09
7.08561e+09
7.80162e+09
5.91149e+09
4.36124e+09
6.05878e+09
5.13247e+09
9.60666e+09
9.09385e+09
8.09636e+09
7.20682e+09
6.68868e+09
1.04483e+10
7.2837e+09
6.94052e+09
5.18147e+09
5.60252e+09
9.03404e+09
6.14281e+09
8.67842e+09
8.47622e+09
8.20184e+09
4.92431e+09
9.31247e+09
4.82123e+09
6.71995e+09
9.79462e+09
1.01802e+10
5.46183e+09
9.71111e+09
8.45103e+09
5.43831e+09
2.58418e+09
)
;
    }
    procBoundary4to5
    {
        type            processor;
        value           nonuniform List<scalar> 
12
(
6.63092e+09
8.09961e+09
8.5058e+09
1.02529e+10
7.29862e+09
6.20436e+09
7.46901e+09
5.27655e+09
2.48164e+09
6.94921e+09
6.0104e+09
7.10885e+09
)
;
    }
    procBoundary4to6
    {
        type            processor;
        value           nonuniform List<scalar> 
27
(
9.95671e+09
8.96698e+09
6.09922e+09
8.06306e+09
1.11037e+10
6.18949e+09
8.73509e+09
6.66945e+09
9.97371e+09
7.34542e+09
9.01186e+09
9.6595e+09
8.65586e+09
6.67075e+09
7.91189e+09
7.9276e+09
6.11669e+09
9.54101e+09
4.90983e+09
5.40881e+09
7.4253e+09
7.01562e+09
7.15845e+09
6.47984e+09
1.02649e+10
8.63102e+09
4.51107e+09
)
;
    }
}


// ************************************************************************* //
