/*--------------------------------*- C++ -*----------------------------------*\
| =========                 |                                                 |
| \\      /  F ield         | OpenFOAM: The Open Source CFD Toolbox           |
|  \\    /   O peration     | Version:  4.x                                   |
|   \\  /    A nd           | Web:      www.OpenFOAM.org                      |
|    \\/     M anipulation  |                                                 |
\*---------------------------------------------------------------------------*/
FoamFile
{
    version     2.0;
    format      ascii;
    class       volVectorField;
    location    "30.5";
    object      U;
}
// * * * * * * * * * * * * * * * * * * * * * * * * * * * * * * * * * * * * * //

dimensions      [0 1 -1 0 0 0 0];

internalField   nonuniform List<vector> 
108
(
(0.0298703 -0.00098738 -0.000632218)
(0.0128878 -0.000478316 -0.000417258)
(0.0308772 -0.00108657 -0.000672043)
(0.0138014 -0.000451648 -0.000479879)
(0.0315097 -0.000847287 -0.000418211)
(0.0143569 -0.00027344 -0.000387321)
(0.0321784 -0.000609495 -0.000394616)
(0.014456 -0.000247647 -0.000432551)
(0.0330552 -0.000523864 -6.31465e-05)
(0.0296788 -0.00158737 -0.000523035)
(0.0104976 -0.000723185 -0.000275621)
(0.0293378 -0.00164757 -0.000482894)
(0.00817745 -0.000522885 -0.000271057)
(0.029117 -0.0012004 -0.000305407)
(0.00633097 -0.000346497 -0.000171778)
(0.029122 -0.000850326 -0.000194863)
(0.00459107 -0.000316456 -0.00014994)
(0.029517 -0.000423741 0.000138198)
(0.0296684 -0.000935691 -0.000536924)
(0.00946491 -0.000533372 -0.000255084)
(0.0286622 -0.00101367 -0.00039005)
(0.00600829 -0.000384881 -9.9549e-05)
(0.0282047 -0.000827781 -9.15614e-05)
(0.00344825 -0.000288615 1.99143e-05)
(0.0280901 -0.000445576 -6.15191e-05)
(0.0012077 -0.000124889 3.7468e-05)
(0.0282454 9.81674e-05 -0.000142936)
(0.0296144 -0.000408245 -0.000610944)
(0.00951354 -3.86149e-05 -0.000193397)
(0.028399 -0.000249986 -0.000407749)
(0.00590572 -0.000114005 -0.000130997)
(0.0276535 -0.000244619 -0.000246135)
(0.00283106 -6.29714e-05 4.09834e-05)
(0.0272816 -6.85696e-05 -0.000139507)
(0.000559658 -1.95831e-05 3.31804e-05)
(0.0270681 4.84717e-05 0.000105287)
(0.0297652 -0.000792559 0.000219571)
(0.0131324 -0.000366777 8.37483e-05)
(0.0309081 -0.00073125 0.000290211)
(0.0141556 -0.000294184 -0.000166724)
(0.0316241 -0.000615255 7.06825e-05)
(0.0148393 -0.000259169 -0.000274031)
(0.0321899 -0.000474963 9.74736e-05)
(0.0149735 -8.62947e-05 -0.000310553)
(0.0328473 -0.000262615 0.000175684)
(0.029681 -0.00139413 0.000451346)
(0.011675 -0.000748279 0.000175219)
(0.0298865 -0.00147059 0.000710733)
(0.0108459 -0.000546066 6.09541e-05)
(0.0299664 -0.00116384 0.000498692)
(0.00982496 -0.000404893 -7.5418e-05)
(0.0300032 -0.000755378 0.000449456)
(0.0084166 -0.000275777 -0.000104434)
(0.0303224 -0.000547822 0.000421056)
(0.0296018 -0.00104018 0.00053023)
(0.0105242 -0.00047598 0.00019926)
(0.0290956 -0.00103688 0.000718205)
(0.00802658 -0.000338846 0.000126117)
(0.0286831 -0.000677086 0.000541855)
(0.00594193 -0.000146932 4.31804e-05)
(0.0285523 -0.000219628 0.000437765)
(0.00430736 -2.35036e-05 3.99528e-05)
(0.0286539 -4.97635e-05 0.000115693)
(0.0296081 -0.000328513 0.000429082)
(0.0100756 2.15911e-05 0.000352825)
(0.0288089 -9.49564e-05 0.000807226)
(0.00708039 2.37177e-06 0.000251182)
(0.0285133 -0.00010433 0.000821)
(0.00464709 -6.06447e-05 0.000273991)
(0.0285504 -0.000179172 0.000744133)
(0.00295226 -4.72676e-05 0.000207447)
(0.0287195 -0.000234225 0.000195625)
(0.0299437 -0.000746514 0.000383701)
(0.0144492 -0.000405608 0.000286194)
(0.0319272 -0.000673169 0.000536538)
(0.0171749 -0.000251517 0.000189618)
(0.0334764 -0.000432772 0.000321849)
(0.0187703 -0.000124823 8.62405e-05)
(0.0345422 -0.000291566 0.000441729)
(0.0198339 -0.000121067 0.000370304)
(0.035819 -0.000338583 0.000648076)
(0.0299129 -0.00129835 0.000430473)
(0.0132974 -0.00073369 0.000258898)
(0.0309508 -0.00129606 0.000606133)
(0.0146928 -0.000515041 0.000256949)
(0.0320009 -0.000868997 0.000519033)
(0.0157223 -0.00040604 0.00024468)
(0.0328466 -0.000690582 0.000641695)
(0.0163406 -0.000505682 0.000325357)
(0.0338738 -0.000755029 0.000568615)
(0.0297044 -0.000957645 0.000487361)
(0.0124648 -0.000444246 0.000349349)
(0.0302941 -0.00096292 0.00074087)
(0.0127552 -0.000412134 0.000333373)
(0.0307837 -0.000597499 0.000679872)
(0.0130866 -0.000188734 0.000253312)
(0.0313911 -0.000257058 0.000603499)
(0.0133736 -0.000200258 0.000289987)
(0.031967 -0.000301074 0.000516755)
(0.0296391 -0.000117463 0.000502718)
(0.0121854 -3.178e-05 0.000345269)
(0.0300049 -0.00020152 0.00071425)
(0.0120922 -0.000125055 0.000323432)
(0.0306618 -0.000252222 0.000664879)
(0.0124214 -0.000195277 0.00032736)
(0.0312642 -0.000352293 0.000668959)
(0.0129856 -0.000189734 0.000160946)
(0.0320292 -0.000416938 0.000326475)
)
;

boundaryField
{
    inlet
    {
        type            fixedValue;
        value           uniform (0.01 0 0);
    }
    outlet
    {
        type            zeroGradient;
    }
    wall
    {
        type            fixedValue;
        value           uniform (0 0 0);
    }
    procBoundary4to0
    {
        type            processor;
        value           nonuniform List<vector> 
36
(
(0.0297446 -0.000900756 -0.00131008)
(0.0127474 -0.000441538 -0.000868613)
(0.0308958 -0.000891379 -0.00139582)
(0.0139602 -0.000336585 -0.000865245)
(0.0316887 -0.000649558 -0.00112404)
(0.0145954 -0.000272597 -0.00083716)
(0.0321937 -0.000580102 -0.000930729)
(0.0147267 -9.77466e-05 -0.000902583)
(0.0325967 -0.000315113 -0.000719288)
(0.029645 -0.00148191 -0.00149097)
(0.0105923 -0.000746829 -0.000811941)
(0.0295583 -0.00166028 -0.0015248)
(0.00909524 -0.000633682 -0.000640681)
(0.0293308 -0.00135366 -0.00103426)
(0.00766731 -0.000571381 -0.000482844)
(0.0292783 -0.000973884 -0.000731343)
(0.0058841 -0.000563828 -0.000455393)
(0.0291231 -0.000360325 -0.00068119)
(0.0293934 -0.00094811 -0.00149772)
(0.00957593 -0.000498567 -0.000783383)
(0.0285925 -0.0010805 -0.00131646)
(0.00610876 -0.00033554 -0.000459247)
(0.0277464 -0.00068335 -0.000800156)
(0.00294177 -0.000197977 -0.00025672)
(0.0270579 -0.000217076 -0.000652145)
(0.000702964 -7.0229e-05 -8.42361e-05)
(0.0265668 4.05689e-05 -0.000243994)
(0.0294419 -0.000230745 -0.00133165)
(0.00940217 -3.58081e-06 -0.000789499)
(0.0284481 1.71452e-05 -0.00124436)
(0.00567933 0.000103855 -0.000509202)
(0.0276268 0.000188336 -0.000890561)
(0.00298198 9.70038e-05 -0.000336644)
(0.0273677 0.000110469 -0.000700856)
(0.00123652 6.59935e-05 -0.00017766)
(0.0270314 1.99192e-05 -0.00034462)
)
;
    }
    procBoundary4to5
    {
        type            processor;
        value           nonuniform List<vector> 
12
(
(0.0139977 -0.000292638 -2.77954e-05)
(0.00238182 -0.000276457 2.35411e-05)
(5.16492e-09 -5.59153e-10 3.52497e-09)
(4.20767e-09 -3.41001e-10 4.26729e-09)
(0.0145273 5.01661e-05 -0.000427917)
(0.00722311 -0.000422465 -0.000129549)
(0.00281186 -0.000115871 4.28366e-05)
(0.00205473 -5.84915e-05 0.000235849)
(0.0208877 -0.000138588 0.000506159)
(0.0167131 -0.000890608 0.000273388)
(0.0131056 -0.000480132 0.000323091)
(0.0128393 -0.000466571 0.000179693)
)
;
    }
    procBoundary4to6
    {
        type            processor;
        value           nonuniform List<vector> 
27
(
(0.0294557 0.000466096 -0.000623204)
(0.00887361 0.000313937 -0.000213706)
(0.0280852 0.000546725 -0.000498703)
(0.0048519 0.000195684 -0.00016893)
(0.0276382 0.000332809 -0.000373529)
(0.00180735 0.000105909 -7.3135e-05)
(0.0273075 1.26143e-05 -0.000331206)
(5.46316e-09 -3.86162e-10 1.08482e-09)
(0.0271189 -0.00027062 -0.000354388)
(0.0294927 0.000753532 0.000802065)
(0.0100963 0.000339701 0.00020063)
(0.0288038 0.000853245 0.000766866)
(0.00734447 0.000261335 0.000173422)
(0.028423 0.000602278 0.000564125)
(0.00489643 9.03067e-05 5.69585e-05)
(0.0281897 0.000269956 0.000213524)
(0.00252283 3.48277e-06 7.01975e-05)
(0.0280669 8.08628e-05 -0.000276413)
(0.0297699 0.000767636 0.000703014)
(0.0127128 0.000300734 0.000303095)
(0.030259 0.000641673 0.0006375)
(0.0127492 0.000233611 0.000201978)
(0.0306416 0.000343567 0.000526468)
(0.0124245 6.37903e-05 0.000185681)
(0.0307813 -1.72919e-05 0.000452427)
(0.011498 -5.59969e-05 0.000251635)
(0.0306953 -8.1815e-05 0.000372459)
)
;
    }
}


// ************************************************************************* //
