/*--------------------------------*- C++ -*----------------------------------*\
| =========                 |                                                 |
| \\      /  F ield         | OpenFOAM: The Open Source CFD Toolbox           |
|  \\    /   O peration     | Version:  4.x                                   |
|   \\  /    A nd           | Web:      www.OpenFOAM.org                      |
|    \\/     M anipulation  |                                                 |
\*---------------------------------------------------------------------------*/
FoamFile
{
    version     2.0;
    format      ascii;
    class       volScalarField;
    location    "29";
    object      QPartFluid;
}
// * * * * * * * * * * * * * * * * * * * * * * * * * * * * * * * * * * * * * //

dimensions      [1 -1 -3 0 0 0 0];

internalField   nonuniform List<scalar> 
114
(
8.00648e+09
7.5804e+09
7.27896e+09
6.06422e+09
8.23667e+09
6.15978e+09
7.37975e+09
7.09271e+09
5.98923e+09
8.37624e+09
8.53469e+09
1.03058e+10
6.47164e+09
9.9116e+09
6.11529e+09
8.71838e+09
5.87256e+09
5.3435e+09
7.54035e+09
6.32904e+09
6.91833e+09
6.61926e+09
5.68386e+09
7.52812e+09
6.36074e+09
6.61331e+09
8.36987e+09
7.32829e+09
6.88762e+09
5.01095e+09
8.10397e+09
8.25224e+09
9.22457e+09
9.00342e+09
8.91548e+09
1.02308e+10
5.54466e+09
1.08155e+10
6.52334e+09
8.52098e+09
5.50982e+09
7.31452e+09
9.14481e+09
6.27497e+09
8.49229e+09
7.44913e+09
8.18406e+09
4.54916e+09
1.02696e+10
5.05909e+09
7.31615e+09
9.56861e+09
7.44931e+09
8.61507e+09
7.71145e+09
8.12015e+09
6.8969e+09
8.8499e+09
5.08438e+09
6.20823e+09
1.09015e+10
7.05517e+09
9.14068e+09
8.41213e+09
9.29879e+09
1.10014e+10
8.93596e+09
4.81232e+09
7.51484e+09
7.78458e+09
7.85769e+09
7.38968e+09
1.14536e+10
9.30898e+09
9.24489e+09
1.1092e+10
8.30701e+09
5.2682e+09
1.16739e+10
9.47281e+09
9.90745e+09
2.48054e+09
6.85277e+09
4.50039e+09
7.69105e+09
6.0106e+09
5.78121e+09
7.02315e+09
7.73636e+09
4.58389e+09
6.94734e+09
8.19324e+09
5.0025e+09
6.90339e+09
8.14151e+09
7.64945e+09
5.43007e+09
8.92803e+09
5.15449e+09
6.01004e+09
7.26626e+09
8.62629e+09
7.80151e+09
6.11922e+09
9.37875e+09
6.91597e+09
8.08876e+09
6.22703e+09
7.08021e+09
6.42329e+09
7.16573e+09
6.64016e+09
1.0104e+10
8.39085e+09
)
;

boundaryField
{
    inlet
    {
        type            calculated;
        value           nonuniform 0();
    }
    outlet
    {
        type            calculated;
        value           uniform 0;
    }
    wall
    {
        type            calculated;
        value           uniform 0;
    }
    procBoundary5to1
    {
        type            processor;
        value           nonuniform List<scalar> 
32
(
9.55143e+09
6.05985e+09
9.62779e+09
7.49811e+09
7.36961e+09
3.1914e+09
6.35851e+09
8.01793e+09
8.07232e+09
9.02095e+09
7.5871e+09
9.38882e+09
3.62541e+09
7.7807e+09
5.36785e+09
1.09823e+10
8.66249e+09
1.05197e+10
7.38233e+09
9.63781e+09
3.37519e+09
6.57943e+09
5.60495e+09
7.87628e+09
7.87628e+09
7.87628e+09
7.94141e+09
1.22354e+10
1.22354e+10
1.22354e+10
5.83193e+09
5.83193e+09
)
;
    }
    procBoundary5to4
    {
        type            processor;
        value           nonuniform List<scalar> 
12
(
9.62563e+09
1.11149e+10
6.74061e+09
7.05076e+09
9.58482e+09
1.04893e+10
8.62051e+09
8.11093e+09
8.18701e+09
8.5697e+09
7.02354e+09
7.04049e+09
)
;
    }
    procBoundary5to7
    {
        type            processor;
        value           nonuniform List<scalar> 
44
(
9.06164e+09
6.38771e+09
7.92005e+09
1.10382e+10
1.25298e+10
8.02569e+09
6.69346e+09
6.55232e+09
1.00222e+10
9.06164e+09
6.5408e+09
8.63328e+09
7.00381e+09
8.20655e+09
8.85058e+09
9.95095e+09
6.20802e+09
3.85015e+09
6.5408e+09
1.01149e+10
6.5408e+09
8.63328e+09
4.97709e+09
7.22242e+09
8.15154e+09
7.57822e+09
4.52731e+09
8.54026e+09
9.13526e+09
7.02782e+09
4.97709e+09
6.47754e+09
4.97709e+09
7.22242e+09
5.68602e+09
7.91793e+09
4.73512e+09
7.18039e+09
6.92721e+09
7.30962e+09
8.50287e+09
4.86111e+09
5.68602e+09
4.78043e+09
)
;
    }
}


// ************************************************************************* //
