/*--------------------------------*- C++ -*----------------------------------*\
| =========                 |                                                 |
| \\      /  F ield         | OpenFOAM: The Open Source CFD Toolbox           |
|  \\    /   O peration     | Version:  4.x                                   |
|   \\  /    A nd           | Web:      www.OpenFOAM.org                      |
|    \\/     M anipulation  |                                                 |
\*---------------------------------------------------------------------------*/
FoamFile
{
    version     2.0;
    format      ascii;
    class       volScalarField;
    location    "29";
    object      QWallFluid;
}
// * * * * * * * * * * * * * * * * * * * * * * * * * * * * * * * * * * * * * //

dimensions      [1 -1 -3 0 0 0 0];

internalField   nonuniform List<scalar> 
114
(
8.45234e+08
2.98677e+08
7.85466e+08
1.86488e+08
6.62358e+08
2.33034e+08
0
0
0
0
0
0
0
0
0
0
0
0
0
0
0
4.26215e+08
8.80061e+08
4.05298e+08
9.0338e+08
3.73545e+08
9.41172e+08
3.39906e+08
1.04044e+09
4.08275e+08
0
0
0
0
0
0
0
0
0
0
0
0
0
0
0
0
0
0
0
0
4.56957e+08
8.72325e+08
4.45869e+08
8.90246e+08
4.25549e+08
9.08728e+08
3.66577e+08
9.21315e+08
2.11662e+08
0
0
0
0
0
0
0
0
0
0
0
0
0
0
0
0
0
0
0
0
0
0
1.20868e+09
1.91137e+09
1.2369e+09
1.99591e+09
1.218e+09
2.14669e+09
1.10718e+09
2.46184e+09
7.14701e+08
4.98594e+08
9.00623e+08
4.99264e+08
9.31044e+08
4.76489e+08
9.70376e+08
4.12221e+08
1.02895e+09
2.50928e+08
4.09788e+08
8.50069e+08
3.86843e+08
8.66439e+08
3.67811e+08
9.02237e+08
3.49399e+08
1.00542e+09
3.08705e+08
3.91637e+08
8.505e+08
3.61762e+08
8.63366e+08
3.24439e+08
8.90893e+08
)
;

boundaryField
{
    inlet
    {
        type            calculated;
        value           nonuniform 0();
    }
    outlet
    {
        type            calculated;
        value           uniform 0;
    }
    wall
    {
        type            calculated;
        value           uniform 0;
    }
    procBoundary5to1
    {
        type            processor;
        value           nonuniform List<scalar> 
32
(
9.31682e+08
4.0704e+08
9.52003e+08
3.42552e+08
9.88877e+08
2.98424e+08
0
0
0
0
0
0
0
0
0
0
0
0
0
0
0
4.5048e+08
8.72318e+08
3.95389e+08
3.95389e+08
3.95389e+08
0
0
0
0
0
0
)
;
    }
    procBoundary5to4
    {
        type            processor;
        value           nonuniform List<scalar> 
12
(
8.60624e+08
0
0
0
8.60335e+08
0
0
0
1.84331e+09
8.7848e+08
8.40035e+08
8.39302e+08
)
;
    }
    procBoundary5to7
    {
        type            processor;
        value           nonuniform List<scalar> 
44
(
0
0
0
0
0
0
0
0
0
0
0
0
0
0
0
0
0
0
0
0
0
0
0
0
0
0
0
0
0
0
0
0
0
0
3.18157e+08
9.68798e+08
3.25491e+08
3.34092e+08
8.11254e+08
2.70336e+08
7.94971e+08
1.89615e+08
3.18157e+08
7.69157e+08
)
;
    }
}


// ************************************************************************* //
