/*--------------------------------*- C++ -*----------------------------------*\
| =========                 |                                                 |
| \\      /  F ield         | OpenFOAM: The Open Source CFD Toolbox           |
|  \\    /   O peration     | Version:  4.x                                   |
|   \\  /    A nd           | Web:      www.OpenFOAM.org                      |
|    \\/     M anipulation  |                                                 |
\*---------------------------------------------------------------------------*/
FoamFile
{
    version     2.0;
    format      ascii;
    class       volVectorField;
    location    "55";
    object      DDtUrel;
}
// * * * * * * * * * * * * * * * * * * * * * * * * * * * * * * * * * * * * * //

dimensions      [0 1 -2 0 0 0 0];

internalField   nonuniform List<vector> 
114
(
(-0.000161861 -1.57189e-05 -3.98252e-06)
(-0.000294739 -4.60358e-05 -9.83484e-06)
(-0.000487055 -8.98798e-05 -3.34774e-05)
(-0.000852294 -0.000157447 -6.63492e-05)
(-0.00136119 -0.000267537 -0.00013252)
(-0.00197144 -0.000372607 -0.000205844)
(-6.61349e-05 5.87586e-06 1.69074e-06)
(-0.000148784 -1.51396e-05 -9.30822e-06)
(-0.000272518 -3.71091e-05 -1.3075e-05)
(-0.000482527 -8.32319e-05 -4.80669e-05)
(-0.000830958 -0.000138874 -7.90033e-05)
(-0.00129275 -0.000280686 -0.000197865)
(-0.00190111 -0.000424092 -0.000302101)
(-2.68373e-05 2.8308e-06 -3.41054e-06)
(-7.37883e-05 -4.03201e-06 -5.20405e-06)
(-0.000149163 -1.3984e-05 -1.30105e-05)
(-0.000276977 -3.14059e-05 -2.36782e-05)
(-0.000473467 -5.94764e-05 -5.84178e-05)
(-0.000803318 -0.000103449 -0.000102259)
(-0.00118057 -0.000178448 -0.000199391)
(-0.00169332 -0.000244713 -0.000284922)
(3.94294e-05 1.75889e-05 1.68025e-05)
(-1.06929e-05 1.04103e-05 1.82203e-05)
(-2.54193e-05 7.46038e-06 1.78038e-05)
(-0.000123305 -2.02446e-05 2.58156e-05)
(-0.000195525 -3.75477e-05 1.93395e-05)
(-0.000438449 -0.000105449 5.88282e-05)
(-0.000697506 -0.000162523 7.0411e-05)
(-0.00138302 -0.000360903 0.000236758)
(-0.00234326 -0.000511712 0.000391703)
(1.99963e-05 1.50496e-05 4.52444e-06)
(-1.9876e-05 7.87777e-06 5.4317e-06)
(-4.80499e-05 4.59565e-06 4.9935e-06)
(-0.000132285 -1.53409e-05 1.02145e-05)
(-0.000236277 -3.13456e-05 1.46611e-05)
(-0.000448269 -9.55506e-05 3.88287e-05)
(-0.000765356 -0.000150773 6.3345e-05)
(-0.00127239 -0.000377943 0.000195833)
(-0.00199288 -0.000539553 0.000301224)
(2.74337e-06 5.65746e-06 5.84781e-08)
(-2.77644e-05 6.04574e-07 -8.52542e-07)
(-6.45756e-05 -4.22645e-06 1.69247e-06)
(-0.000140345 -1.55926e-05 3.72876e-06)
(-0.000250369 -3.1099e-05 7.89622e-06)
(-0.00044668 -6.79596e-05 2.20678e-05)
(-0.000758623 -0.000102161 3.52973e-05)
(-0.00115906 -0.000228584 0.000123552)
(-0.00174336 -0.000344544 0.00020905)
(1.01096e-08 -4.28111e-06 -4.63659e-06)
(-3.16951e-05 -4.71736e-06 -4.53624e-06)
(5.54688e-05 1.33542e-05 6.72712e-06)
(1.95643e-05 9.2444e-06 1.23508e-05)
(1.2086e-05 2.53448e-06 1.65773e-05)
(-7.49952e-05 -1.81376e-05 3.55154e-05)
(-0.000142227 -4.25132e-05 5.00822e-05)
(-0.000391727 -0.000103316 0.000116712)
(-0.000682108 -0.000182078 0.000181135)
(-0.00149323 -0.000354778 0.000462591)
(-0.00252252 -0.000505498 0.000726406)
(4.1138e-05 9.53686e-06 5.13963e-07)
(4.35526e-06 2.82931e-06 5.35876e-06)
(-9.8492e-06 2.42801e-06 5.77429e-06)
(-9.58514e-05 -1.83682e-05 2.32103e-05)
(-0.000176625 -3.10048e-05 3.55212e-05)
(-0.000410316 -9.14012e-05 9.5217e-05)
(-0.000711051 -0.00014543 0.000158319)
(-0.00139384 -0.000351218 0.000413135)
(-0.00229098 -0.000522438 0.000608165)
(1.83385e-05 1.48726e-06 -5.89163e-06)
(-1.35029e-05 -2.29349e-06 -9.6424e-07)
(-4.64563e-05 -4.63382e-06 2.82547e-06)
(-0.000117543 -1.81319e-05 1.54307e-05)
(-0.000222117 -3.39211e-05 2.98626e-05)
(-0.000419449 -7.11314e-05 7.95845e-05)
(-0.000727134 -0.000119239 0.000143638)
(-0.0012555 -0.000247778 0.000385773)
(-0.00193969 -0.000347041 0.000551859)
(1.34128e-05 -5.35e-06 -9.61992e-06)
(-2.53065e-05 -8.22892e-06 -6.00898e-06)
(-5.47943e-05 -1.11818e-05 -3.23576e-06)
(-0.000131521 -1.69102e-05 9.53102e-06)
(0.000116278 9.36116e-06 5.65347e-06)
(8.06177e-05 4.8533e-06 1.50972e-05)
(0.000102634 -2.62365e-06 1.73139e-05)
(2.82288e-06 -2.88994e-05 5.51491e-05)
(1.26826e-05 -5.0341e-05 6.43316e-05)
(-0.00029809 -0.000130846 0.000179062)
(-0.000409233 -0.000201792 0.000237531)
(-0.00172379 -0.000497789 0.000713157)
(-0.00329203 -0.000757256 0.00119402)
(8.53624e-05 2.8104e-06 -1.51085e-06)
(4.64052e-05 -4.10775e-06 5.30292e-06)
(5.60437e-05 -2.15506e-06 5.90716e-06)
(-4.21218e-05 -2.82643e-05 3.47303e-05)
(-7.5126e-05 -3.44719e-05 4.49342e-05)
(-0.000362286 -0.000104816 0.000132476)
(-0.000600598 -0.000142381 0.000195076)
(-0.00157253 -0.000390849 0.000517827)
(-0.00279788 -0.000651799 0.000841264)
(5.34431e-05 -5.32556e-06 -8.03346e-06)
(1.22662e-05 -9.35968e-06 1.14266e-06)
(7.46781e-06 -9.16749e-06 1.14912e-06)
(-7.97394e-05 -2.48793e-05 2.97985e-05)
(-0.00012493 -3.27285e-05 3.54878e-05)
(-0.000369719 -7.84006e-05 0.000118197)
(-0.000583072 -0.000109852 0.000161649)
(-0.00142074 -0.000265818 0.000478765)
(-0.00250308 -0.000421514 0.000759048)
(3.58501e-05 -1.17103e-05 -1.38292e-05)
(-1.25725e-05 -1.62722e-05 -8.77957e-06)
(-2.72748e-05 -1.748e-05 -9.62718e-06)
(-0.000115234 -2.92079e-05 1.30943e-05)
(-0.000169307 -3.12139e-05 2.5981e-05)
(-0.000388372 -6.8741e-05 8.64484e-05)
)
;

boundaryField
{
    inlet
    {
        type            calculated;
        value           nonuniform 0();
    }
    outlet
    {
        type            calculated;
        value           nonuniform List<vector> 
12
(
(-0.00104557 -0.000129926 -0.00022649)
(-0.0023179 -0.00090373 -0.00129353)
(-0.00166862 6.73206e-06 -0.000333953)
(-0.00711626 -0.00136111 0.001975)
(-0.00338721 -0.00215137 0.00155513)
(-0.00276659 -0.00114801 0.0010086)
(-0.0047603 -0.000152219 0.00153612)
(-0.00492365 -0.00121744 0.00127585)
(-0.00225387 -0.000470347 0.00162515)
(-0.0122431 -0.00269196 0.00526473)
(-0.0077095 -0.00227548 0.00177446)
(-0.0075361 -0.000590831 0.00269894)
)
;
    }
    wall
    {
        type            calculated;
        value           nonuniform List<vector> 
66
(
(0.000549429 4.14265e-05 -1.8242e-05)
(0.000362543 2.44264e-05 -4.16343e-05)
(0.000238846 -1.17476e-05 -6.16029e-05)
(0.000270412 -1.78751e-05 -5.74691e-05)
(0.000185514 2.79086e-05 7.65093e-05)
(1.69371e-05 -6.53524e-05 7.86873e-06)
(-5.50858e-05 -4.00054e-05 5.4492e-05)
(-8.21649e-05 -6.847e-05 -5.48957e-06)
(0.000917131 3.9918e-05 -6.06231e-05)
(0.000613251 9.6435e-05 -0.000105573)
(0.000396394 3.1842e-05 -7.84104e-05)
(0.000329307 -2.4051e-05 -0.000115215)
(2.34595e-05 -8.04712e-05 0.000270123)
(-0.000111995 -0.000131664 8.37083e-05)
(-0.000106742 -4.71877e-05 0.000183691)
(-0.000172067 -0.000135449 5.90047e-05)
(0.00179439 6.81625e-05 -0.000174322)
(0.00094289 0.000206104 -0.000207289)
(0.000803726 9.45266e-05 -0.000197183)
(0.000639343 3.65366e-05 -6.23985e-05)
(-0.000460837 -0.000325752 0.000694535)
(-0.000548148 -0.000252348 0.000227735)
(-0.000285067 -9.53358e-05 0.000416303)
(-0.000243617 -0.000376976 0.000244551)
(0.00491113 0.000285648 -0.000811697)
(0.0014748 0.00063321 -0.000563445)
(0.00198841 0.000293902 -0.000706555)
(-0.00207156 -0.00138145 0.00206229)
(-0.00129976 -0.000527174 0.000357316)
(-0.00101177 -0.000117036 0.00110204)
(-0.0122431 -0.00269196 0.00526473)
(-0.0077095 -0.00227548 0.00177446)
(-0.0075361 -0.000590831 0.00269894)
(0.000257946 3.95468e-05 0.00010418)
(6.22102e-05 4.1157e-05 -2.44361e-05)
(0.000549429 4.14265e-05 -1.8242e-05)
(-0.000102287 -1.91017e-05 0.000125597)
(-0.000119694 4.70713e-05 1.12462e-05)
(0.000185514 2.79086e-05 7.65093e-05)
(0.000392962 9.76933e-05 7.72044e-05)
(0.000175746 4.88493e-05 -4.86802e-06)
(0.000917131 3.9918e-05 -6.06231e-05)
(-0.000274122 -8.98265e-06 3.42324e-05)
(-0.000209439 -9.09877e-05 0.000181811)
(-0.000166389 3.329e-05 5.73944e-05)
(2.34595e-05 -8.04712e-05 0.000270123)
(-0.000804093 -0.000102259 4.86727e-05)
(0.000621794 0.00014773 -0.00012069)
(0.000242031 4.70065e-05 -2.36119e-05)
(0.00179439 6.81625e-05 -0.000174322)
(-8.96402e-05 1.08064e-05 5.09445e-05)
(-0.000350632 -0.000225765 0.000315218)
(-0.000346786 9.17315e-06 0.000175768)
(-0.000460837 -0.000325752 0.000694535)
(-0.00102155 -9.71509e-05 -1.5727e-05)
(0.00131811 0.000304642 -0.000329437)
(0.000306054 9.73869e-06 -0.000286647)
(0.00491113 0.000285648 -0.000811697)
(-0.000407418 5.831e-05 -3.68423e-05)
(-0.000561394 -0.000768232 0.000837215)
(-0.000722893 1.86646e-05 0.000595268)
(-0.00207156 -0.00138145 0.00206229)
(-0.00104557 -0.000129926 -0.00022649)
(-0.00711626 -0.00136111 0.001975)
(-0.0047603 -0.000152219 0.00153612)
(-0.0122431 -0.00269196 0.00526473)
)
;
    }
    procBoundary5to1
    {
        type            processor;
        value           nonuniform List<vector> 
32
(
(-0.000112788 -1.1069e-05 -4.2289e-05)
(-0.000186664 -3.21822e-05 -3.74668e-05)
(-0.000487523 -8.8024e-05 -0.000128841)
(-0.000820911 -0.000146083 -0.000171841)
(-0.00161204 -0.000272253 -0.000460109)
(-0.00261757 -0.000372683 -0.000777906)
(2.2271e-06 8.77872e-06 -6.19121e-06)
(-0.000110517 -1.87442e-05 -3.71101e-05)
(-0.000196643 -2.60581e-05 -4.58919e-05)
(-0.000476477 -9.29325e-05 -0.000134734)
(-0.000800167 -0.0001239 -0.000199123)
(-0.00152788 -0.000335471 -0.000503972)
(-0.00245447 -0.000534899 -0.000805232)
(-3.44242e-07 4.14173e-06 -6.67601e-06)
(-3.76161e-05 1.67693e-07 -1.21552e-05)
(-0.000129285 -1.59865e-05 -3.31665e-05)
(-0.000249819 -2.84295e-05 -5.54196e-05)
(-0.000481234 -7.11116e-05 -0.000140882)
(-0.000829929 -0.000103697 -0.000233772)
(-0.00135474 -0.00025931 -0.000511417)
(-0.0020364 -0.000367583 -0.000766058)
(1.49261e-05 2.84496e-05 9.30439e-06)
(-3.98254e-05 1.95337e-05 3.82014e-06)
(-8.94269e-05 1.10487e-05 3.14367e-06)
(-8.94269e-05 1.10487e-05 3.14367e-06)
(-8.94269e-05 1.10487e-05 3.14367e-06)
(1.87686e-05 1.96268e-05 4.37033e-06)
(-2.5141e-05 1.16046e-05 1.49498e-06)
(-2.5141e-05 1.16046e-05 1.49498e-06)
(-2.5141e-05 1.16046e-05 1.49498e-06)
(5.77018e-06 8.25363e-06 2.02715e-07)
(5.77018e-06 8.25363e-06 2.02715e-07)
)
;
    }
    procBoundary5to4
    {
        type            processor;
        value           nonuniform List<vector> 
12
(
(4.87268e-05 1.51224e-05 1.69434e-05)
(3.35924e-05 1.21076e-05 7.37412e-06)
(2.32292e-05 5.95853e-06 9.97174e-07)
(1.91352e-05 -2.27182e-06 -1.15189e-06)
(6.03192e-05 1.22234e-05 8.14671e-06)
(4.65935e-05 6.07604e-06 2.9049e-06)
(3.24449e-05 2.86612e-07 -2.53008e-06)
(2.47005e-05 -6.18503e-06 -6.12667e-06)
(0.000105262 6.41573e-06 9.91067e-06)
(8.15735e-05 -2.19072e-06 1.74777e-06)
(5.69568e-05 -7.7683e-06 -3.41719e-06)
(4.27673e-05 -1.35537e-05 -8.87168e-06)
)
;
    }
    procBoundary5to7
    {
        type            processor;
        value           nonuniform List<vector> 
44
(
(-2.62308e-05 -2.02123e-06 -5.9844e-06)
(-7.39236e-05 -3.69052e-06 -7.39228e-06)
(-0.000152293 -8.86357e-06 -1.51634e-05)
(-0.000279269 -1.20947e-05 -2.79878e-05)
(-0.000472945 -1.72628e-05 -6.93453e-05)
(-0.000801472 -2.93033e-05 -0.000117948)
(-0.00115077 -1.03347e-05 -0.000241518)
(-0.00164287 4.52818e-06 -0.000354481)
(1.12905e-05 8.37993e-07 3.31408e-07)
(-2.62308e-05 -2.02123e-06 -5.9844e-06)
(-7.32798e-05 -6.60944e-06 -9.04233e-07)
(-0.000146099 -1.04291e-05 -2.6169e-06)
(-0.000261637 -1.35751e-05 -1.4784e-06)
(-0.000445024 -2.46879e-05 -9.73527e-07)
(-0.000750741 -3.06178e-05 6.96939e-06)
(-0.00110583 -7.02913e-05 5.10064e-05)
(-0.00163208 -0.000108016 9.72221e-05)
(4.52303e-06 -9.59006e-06 -4.86591e-06)
(-7.32798e-05 -6.60944e-06 -9.04233e-07)
(-3.10138e-05 -8.70681e-06 -7.05329e-06)
(-7.32798e-05 -6.60944e-06 -9.04233e-07)
(-0.000146099 -1.04291e-05 -2.6169e-06)
(-0.00022603 -2.39951e-05 2.08325e-05)
(-0.000417239 -4.0591e-05 6.27624e-05)
(-0.000711202 -6.24322e-05 0.000102688)
(-0.00117378 -0.000105245 0.000321138)
(-0.00184251 -0.000164767 0.000455994)
(3.40856e-06 -1.25013e-05 -1.14967e-05)
(-3.30819e-05 -1.27017e-05 -1.04089e-05)
(-6.9946e-05 -1.48974e-05 -8.22895e-06)
(-0.00022603 -2.39951e-05 2.08325e-05)
(-0.000142641 -1.22652e-05 -2.60284e-06)
(-0.00022603 -2.39951e-05 2.08325e-05)
(-0.000417239 -4.0591e-05 6.27624e-05)
(-0.000600384 -6.76717e-05 0.000140166)
(-0.00130835 -0.000207815 0.000367986)
(-0.00227329 -0.000375225 0.000546322)
(7.95165e-06 -1.53479e-05 -2.10471e-05)
(-3.78481e-05 -1.80139e-05 -1.68562e-05)
(-7.3571e-05 -1.90232e-05 -1.71859e-05)
(-0.00015156 -2.1618e-05 -4.57377e-06)
(-0.000246615 -2.12044e-05 4.2804e-08)
(-0.000600384 -6.76717e-05 0.000140166)
(-0.000432322 -2.65526e-05 3.39379e-05)
)
;
    }
}


// ************************************************************************* //
