/*--------------------------------*- C++ -*----------------------------------*\
| =========                 |                                                 |
| \\      /  F ield         | OpenFOAM: The Open Source CFD Toolbox           |
|  \\    /   O peration     | Version:  4.x                                   |
|   \\  /    A nd           | Web:      www.OpenFOAM.org                      |
|    \\/     M anipulation  |                                                 |
\*---------------------------------------------------------------------------*/
FoamFile
{
    version     2.0;
    format      ascii;
    class       volScalarField;
    location    "55";
    object      KslPrev;
}
// * * * * * * * * * * * * * * * * * * * * * * * * * * * * * * * * * * * * * //

dimensions      [1 -3 -1 0 0 0 0];

internalField   nonuniform List<scalar> 
114
(
3633.67
37815.2
4129.35
1e+10
5583.85
52223.5
215471
3710.28
141136
3776.36
58437.9
4140.95
12280.5
4178.29
8.53953e+09
4230.98
9.85317e+09
4325.86
122887
4754.75
14369.9
7156.95
3081.73
7365.59
2946.47
7970.8
2772.28
9180.72
2434.95
7977.52
29010.2
3553.68
57037.6
3488.67
67393.3
3435.72
24677.7
3472.23
6478.59
479301
3757.64
1.24078e+06
3683.18
135497
3579.52
34565.9
3663.3
13174.1
2.85295e+09
3840.14
7666.27
3215.84
8076.56
3120.16
8749.99
3017.45
10906.4
2899.27
14137.6
14820
3476.66
17593.2
3342.86
21389.3
3213.54
21495.6
3007.06
10590.6
94510.1
3703.77
2.89635e+08
3744.18
3.51513e+06
3870.46
49473.1
4159.89
7939.03
50464.5
3600.08
77650
3491.22
4835.94
2741.62
4610.37
2549.97
4564.79
2278.66
4848.01
1818
5402.67
6071.68
2981.5
5953.71
2798.9
6109.53
2588.14
7052.92
2319.53
9707.27
7267.64
3147.71
7423.84
3008.43
7559.77
2792.79
7832.8
2360.08
8192.27
7211.84
3103.95
7440.46
2984.34
7969.83
2775.56
)
;

boundaryField
{
    inlet
    {
        type            zeroGradient;
    }
    outlet
    {
        type            zeroGradient;
    }
    wall
    {
        type            zeroGradient;
    }
    procBoundary5to1
    {
        type            processor;
        value           uniform 0;
    }
    procBoundary5to4
    {
        type            processor;
        value           uniform 0;
    }
    procBoundary5to7
    {
        type            processor;
        value           uniform 0;
    }
}


// ************************************************************************* //
