/*--------------------------------*- C++ -*----------------------------------*\
| =========                 |                                                 |
| \\      /  F ield         | OpenFOAM: The Open Source CFD Toolbox           |
|  \\    /   O peration     | Version:  4.x                                   |
|   \\  /    A nd           | Web:      www.OpenFOAM.org                      |
|    \\/     M anipulation  |                                                 |
\*---------------------------------------------------------------------------*/
FoamFile
{
    version     2.0;
    format      ascii;
    class       volScalarField;
    location    "55";
    object      magGField;
}
// * * * * * * * * * * * * * * * * * * * * * * * * * * * * * * * * * * * * * //

dimensions      [1 -2 -1 0 0 0 0];

internalField   nonuniform List<scalar> 
114
(
90.5444
8.50531
77.9276
1.3849e-05
55.585
5.73451
1.52877
89.4771
2.30567
86.288
5.41501
75.8068
24.66
79.2682
0.000355235
77.6585
0.000261737
74.7859
2.56255
65.6752
20.9491
45.5523
106.254
43.9253
110.164
40.0148
115.525
33.9664
127.428
37.3844
11.3004
92.4979
5.67819
93.6396
4.74195
93.5581
12.7028
89.7247
46.3902
0.673935
86.8171
0.257527
87.7433
2.34384
88.9431
8.97167
84.0886
22.663
0.000354214
84.4078
42.2927
101.038
39.8422
103.111
36.3654
105.534
28.6073
107.551
21.0903
22.0046
94.5632
18.4098
97.1207
14.9446
99.9496
14.6297
104.442
28.3624
3.41009
87.7086
0.000974403
85.8324
0.0891723
82.1633
6.2782
74.2854
37.5261
6.36531
89.8788
4.08546
91.7525
66.5425
117.018
69.2271
124.856
69.2541
139.798
64.484
173.275
55.2259
53.0963
108.988
54.0433
114.831
51.9007
122.79
44.6382
135.214
30.8209
43.8682
102.098
42.6487
105.677
41.6212
112.815
39.6426
130.916
36.2626
43.9444
103.096
42.3585
106.392
39.1644
112.42
)
;

boundaryField
{
    inlet
    {
        type            calculated;
        value           nonuniform 0();
    }
    outlet
    {
        type            calculated;
        value           nonuniform List<scalar> 
12
(
12.5826
54.2141
46.2292
82.0809
102.423
50.1115
46.4297
62.529
83.7019
121.364
67.9133
80.4469
)
;
    }
    wall
    {
        type            calculated;
        value           uniform 0;
    }
    procBoundary5to1
    {
        type            processor;
        value           nonuniform List<scalar> 
32
(
116.08
45.0216
120.572
36.8467
125.876
33.6335
28.2453
107.764
27.7361
113.264
29.4309
121.57
40.5461
90.8612
4.77942
91.2405
6.10734
90.9983
15.0079
87.4337
39.0493
37.3203
98.0286
25.2229
25.2229
25.2229
6.0023
89.5267
89.5267
89.5267
0.000427586
0.000427586
)
;
    }
    procBoundary5to4
    {
        type            processor;
        value           nonuniform List<scalar> 
12
(
102.566
91.5201
86.7281
84.8215
99.9017
93.0071
87.8122
88.6037
111.152
104.896
99.6353
100.335
)
;
    }
    procBoundary5to7
    {
        type            processor;
        value           nonuniform List<scalar> 
44
(
88.5865
4.83792
88.2818
1.77347
86.0178
1.3148
75.5607
12.5332
6.53003
88.5865
0.000289111
83.7694
0.00022758
82.0146
0.00010758
73.4204
17.3717
0.000329067
0.000289111
81.0861
0.000289111
83.7694
7.15831
93.1096
14.3453
88.7678
44.0521
2.20537
86.0378
0.0175381
7.15831
85.6628
7.15831
93.1096
37.3473
127.274
37.2154
35.4044
96.0386
31.1043
94.7962
25.5447
37.3473
92.9302
)
;
    }
}


// ************************************************************************* //
