/*--------------------------------*- C++ -*----------------------------------*\
  =========                 |
  \\      /  F ield         | OpenFOAM: The Open Source CFD Toolbox
   \\    /   O peration     | Website:  https://openfoam.org
    \\  /    A nd           | Version:  4.x
     \\/     M anipulation  |
\*---------------------------------------------------------------------------*/
FoamFile
{
    version     2.0;
    format      ascii;
    class       vectorField;
    location    0;
    object      v;
}
// * * * * * * * * * * * * * * * * * * * * * * * * * * * * * * * * * * * * * //

407
(
( 7.07137e-09 9.9361e-09 -2.58055e-08 )  
( 2.41663e-08 6.05932e-09 -1.91702e-08 )  
( 2.31119e-08 5.26408e-09 -5.31099e-09 )  
( 2.84204e-08 2.48003e-09 -1.29838e-08 )  
( 2.85994e-08 -3.94243e-09 -7.45689e-09 )  
( 2.16222e-08 2.31552e-09 -2.46441e-08 )  
( 2.71485e-08 4.96749e-09 -1.77311e-08 )  
( 3.38153e-08 7.61487e-09 -1.94602e-08 )  
( 7.13385e-09 -3.41742e-09 -1.35321e-08 )  
( 2.97041e-08 4.99512e-09 -1.41155e-08 )  
( 1.85767e-08 -2.66782e-09 -1.48891e-08 )  
( 2.52851e-08 3.86759e-09 -1.20281e-08 )  
( 2.41127e-08 -9.01337e-10 -1.69884e-08 )  
( 2.89685e-08 -2.60507e-09 -1.98411e-08 )  
( 2.49503e-08 1.49434e-09 -1.53795e-08 )  
( 3.36321e-08 1.01161e-08 -2.01436e-08 )  
( 2.32514e-09 7.83788e-10 -1.06408e-08 )  
( 2.24194e-08 -7.10682e-10 -2.06839e-08 )  
( -1.79353e-09 -4.75188e-09 -9.06099e-09 )  
( 3.02336e-08 7.10273e-09 -1.86162e-08 )  
( -4.17453e-09 -4.75944e-09 -9.51169e-09 )  
( 5.2546e-08 4.57888e-09 -1.74654e-08 )  
( 2.13396e-08 4.62063e-09 -9.95028e-09 )  
( 3.23049e-08 1.02539e-08 -2.00309e-08 )  
( 2.19543e-08 2.41417e-09 -1.16573e-08 )  
( 8.21276e-09 2.37582e-09 -9.754e-09 )  
( 4.3556e-08 1.26843e-09 -1.64613e-08 )  
( 3.23723e-08 -3.2433e-09 -2.08884e-08 )  
( 3.55804e-08 9.09166e-10 -3.60287e-09 )  
( -1.91488e-09 1.16492e-09 -7.3434e-09 )  
( 3.18605e-08 -6.25853e-09 -1.95078e-08 )  
( 1.16023e-08 9.91304e-09 -1.69131e-08 )  
( 2.30109e-08 -1.80359e-09 -8.77815e-09 )  
( 3.73796e-08 -1.74369e-09 -1.85822e-08 )  
( 3.46935e-08 -1.67621e-09 -1.83713e-08 )  
( 4.79601e-08 6.47186e-09 -1.65156e-08 )  
( 2.97519e-08 2.74113e-10 -2.15728e-08 )  
( 2.70713e-08 -1.89104e-09 -1.44276e-08 )  
( 3.21985e-08 2.73362e-10 -2.64237e-08 )  
( 3.63695e-08 4.0626e-09 -1.4744e-08 )  
( 1.63343e-08 -1.83765e-09 -7.38339e-09 )  
( 2.58665e-08 3.37753e-10 -1.11264e-08 )  
( 4.4043e-09 -4.83217e-09 -7.41181e-09 )  
( 3.63388e-08 7.93479e-10 -1.81383e-08 )  
( 3.16916e-08 4.69864e-09 -1.71745e-08 )  
( 2.9099e-08 -1.45204e-09 -1.0423e-08 )  
( 3.23702e-08 -3.98093e-09 -1.92526e-08 )  
( 4.30336e-08 -1.4333e-09 -2.35624e-08 )  
( 3.31442e-08 1.67871e-09 -2.10486e-08 )  
( 3.34977e-08 -3.66943e-09 -2.8531e-09 )  
( 1.62695e-08 4.24747e-09 -1.08732e-08 )  
( 3.95787e-08 4.86306e-09 -2.26051e-08 )  
( 2.75344e-08 -4.78168e-09 -1.28661e-08 )  
( 3.33326e-08 -2.73847e-09 -1.2799e-08 )  
( 3.36741e-08 1.27365e-09 -1.30129e-08 )  
( 1.74707e-08 3.63918e-09 -5.58663e-09 )  
( 3.81597e-08 -1.11926e-09 -2.50687e-08 )  
( 3.629e-08 1.17402e-10 -1.49541e-08 )  
( 3.69982e-08 4.50945e-10 -2.18005e-08 )  
( 3.54547e-08 1.57194e-09 -1.72331e-08 )  
( 4.97641e-08 4.31801e-09 4.18852e-09 )  
( 2.97866e-08 -4.57732e-10 -1.97434e-08 )  
( 3.35188e-08 3.7899e-10 -1.51444e-08 )  
( 3.46154e-08 -4.40083e-09 -1.96685e-08 )  
( 9.27731e-10 -1.27591e-09 -1.39424e-08 )  
( 2.66816e-08 1.46025e-09 -1.6802e-08 )  
( 2.7601e-08 -5.72353e-09 -1.48618e-08 )  
( 5.92746e-10 -9.30942e-10 -3.55208e-09 )  
( 1.35378e-09 1.81106e-09 -2.05043e-09 )  
( 2.48817e-08 4.9391e-10 -1.99197e-08 )  
( 3.13573e-08 -2.34513e-10 -2.57995e-08 )  
( 1.69502e-08 1.06372e-09 -1.06079e-08 )  
( 2.50734e-08 4.73066e-09 -1.02873e-08 )  
( 1.04153e-08 -3.10507e-09 -7.39294e-09 )  
( 1.42832e-08 -1.00993e-08 -2.852e-08 )  
( 4.46782e-08 2.72923e-09 -1.49604e-08 )  
( 3.15087e-08 -2.44975e-09 -1.95113e-08 )  
( 5.33884e-08 2.46028e-09 -1.59923e-08 )  
( 9.17294e-09 2.307e-09 -8.08353e-09 )  
( 3.41268e-08 -6.57733e-10 -1.29071e-08 )  
( 3.67949e-08 -2.00064e-09 -1.33497e-08 )  
( 2.42486e-08 2.26613e-09 -8.52696e-09 )  
( -3.65123e-09 -4.54079e-09 -9.14975e-09 )  
( 3.52129e-08 -3.22979e-09 -9.36138e-09 )  
( 1.77102e-08 4.90098e-09 -2.43722e-08 )  
( 1.71594e-08 -3.29764e-09 -5.38644e-09 )  
( 1.83325e-08 -1.54602e-09 -5.98354e-09 )  
( 2.74694e-08 -6.0622e-10 -1.77809e-08 )  
( 2.96505e-08 -3.9373e-09 -1.87415e-08 )  
( 1.55846e-08 -3.74475e-09 -1.01788e-08 )  
( 1.21525e-08 -2.19059e-09 -1.36921e-08 )  
( 6.81549e-10 -4.89104e-09 -1.42449e-08 )  
( 3.07514e-08 -2.8467e-09 -1.58631e-08 )  
( 3.74697e-08 1.07139e-08 -2.55666e-08 )  
( 3.66909e-08 1.20957e-09 -1.55669e-08 )  
( 1.75473e-08 -2.18447e-09 -7.1207e-09 )  
( 3.25546e-08 -4.11248e-09 -1.66169e-08 )  
( 4.7346e-08 -1.27196e-09 -2.1617e-08 )  
( 1.81359e-08 -7.21923e-10 -7.34712e-09 )  
( 2.26375e-08 -5.86115e-10 -9.96973e-09 )  
( 2.1401e-08 -3.88301e-09 -2.85977e-08 )  
( -3.55346e-09 2.20677e-09 -9.36876e-09 )  
( 1.90115e-08 -8.00904e-10 -9.67522e-09 )  
( 2.32685e-08 -2.66314e-09 -8.94157e-09 )  
( -1.40487e-09 1.18812e-09 -4.56608e-09 )  
( 3.99657e-08 1.79422e-09 -1.6799e-08 )  
( 8.5092e-09 -2.09167e-09 -9.42234e-09 )  
( 2.99979e-08 -1.54529e-09 -1.39557e-08 )  
( 5.18103e-09 -3.62962e-09 -2.32318e-08 )  
( 4.29646e-08 3.98843e-09 -1.69497e-08 )  
( 2.78935e-08 -1.46998e-09 -2.10464e-08 )  
( 3.15664e-08 6.67089e-09 -1.15173e-08 )  
( 2.30074e-08 -8.59764e-10 -1.92153e-08 )  
( 2.38567e-08 1.08714e-09 -1.89597e-08 )  
( 2.5187e-08 -6.96745e-10 -8.3248e-09 )  
( 3.45615e-08 -1.53187e-09 -1.59361e-08 )  
( 3.53746e-08 1.28467e-09 -1.17016e-08 )  
( 1.97254e-09 2.18392e-09 -1.56829e-08 )  
( 3.42523e-08 -3.10582e-10 -1.59662e-08 )  
( 4.11913e-08 -3.62689e-09 -1.50784e-08 )  
( 4.15511e-08 7.07135e-09 -2.62705e-08 )  
( 2.78609e-08 5.58836e-09 -1.63672e-08 )  
( 3.32068e-08 1.74617e-09 -2.42333e-08 )  
( 2.88285e-08 -2.84725e-09 -4.00746e-09 )  
( 2.69564e-08 -1.33829e-09 -1.3117e-08 )  
( 9.24986e-09 3.04832e-09 -4.88516e-09 )  
( 3.49812e-08 -3.66523e-09 -2.04936e-08 )  
( 1.16648e-08 -1.54216e-08 -2.95451e-08 )  
( 2.45735e-08 -7.98045e-10 -1.70713e-08 )  
( 2.35255e-08 3.9857e-10 -1.61554e-08 )  
( 2.20112e-08 -4.08681e-09 -1.20634e-08 )  
( 1.51842e-08 -7.00989e-10 -4.73622e-09 )  
( 2.26959e-08 7.56876e-09 -2.14811e-08 )  
( 1.6924e-08 -5.09679e-09 -9.89803e-09 )  
( -2.28801e-09 -9.18736e-09 -1.16247e-08 )  
( 1.93078e-08 -1.55043e-10 -5.29763e-09 )  
( -2.1268e-08 -4.0942e-09 -8.99867e-09 )  
( 3.2408e-08 -1.53568e-09 -1.02478e-08 )  
( 3.70678e-08 4.07591e-09 -1.34672e-08 )  
( 3.38214e-08 -1.29547e-09 -5.12181e-09 )  
( 3.39982e-08 -1.09966e-09 -1.9153e-08 )  
( 2.80934e-08 1.98952e-09 -1.3728e-08 )  
( 3.56355e-08 9.02983e-10 -1.08124e-08 )  
( 3.44959e-08 -4.27359e-09 -1.90843e-08 )  
( 9.42944e-09 1.6764e-09 -5.66215e-09 )  
( 7.49178e-09 1.99397e-09 -7.99389e-09 )  
( 1.56407e-08 -2.32531e-09 -1.17454e-08 )  
( 2.54156e-08 6.54289e-09 -2.71796e-08 )  
( 1.47714e-08 3.24438e-09 -1.17048e-08 )  
( 2.53035e-08 -8.18295e-10 -2.24758e-08 )  
( -9.05837e-10 -2.67795e-09 -8.33489e-09 )  
( 2.02709e-08 7.29054e-10 -1.49146e-08 )  
( 2.03308e-08 -6.65681e-10 -9.29601e-09 )  
( 3.42377e-08 -1.35087e-10 -1.7478e-08 )  
( 2.87002e-08 6.15877e-09 -9.28816e-09 )  
( 2.0088e-08 -4.45258e-09 -1.44907e-09 )  
( 2.36502e-08 -5.80707e-10 -1.01473e-08 )  
( 3.04748e-08 6.5405e-09 -2.39771e-08 )  
( -9.71422e-10 -4.54606e-09 -1.18195e-08 )  
( 1.1652e-08 -1.06151e-09 -5.85186e-09 )  
( 3.41986e-08 -1.28225e-09 -1.01555e-08 )  
( 9.79838e-11 -7.12918e-10 -3.85672e-09 )  
( 1.8377e-08 8.79165e-09 -3.26174e-08 )  
( 8.68534e-09 8.41386e-09 -3.00835e-08 )  
( 3.87257e-08 -7.42657e-09 -1.46772e-08 )  
( 3.53043e-08 8.46751e-09 -1.6828e-08 )  
( 4.73687e-08 7.52992e-09 -2.11934e-08 )  
( 2.0306e-08 -1.64773e-09 -8.28285e-09 )  
( 7.32617e-09 5.03656e-09 -5.27204e-09 )  
( 2.84478e-08 3.87624e-10 -2.11471e-08 )  
( 2.65896e-10 -1.01022e-09 -6.32639e-09 )  
( 2.54141e-08 3.06884e-09 -1.8325e-08 )  
( 8.0307e-09 -4.29457e-09 -1.0357e-08 )  
( 2.9051e-08 -1.70581e-09 -1.69207e-08 )  
( 8.14789e-09 4.49155e-09 -1.07995e-08 )  
( 3.49158e-08 -3.99318e-09 -2.18265e-08 )  
( 2.9937e-08 9.22507e-09 -8.1279e-09 )  
( 2.29277e-08 4.66799e-09 -1.05336e-08 )  
( 8.55664e-09 1.84752e-09 5.39025e-09 )  
( 3.1547e-08 -5.83772e-09 -1.84971e-08 )  
( 2.9903e-08 -1.62174e-09 -3.10483e-09 )  
( 2.02851e-08 -8.6332e-10 -6.71612e-09 )  
( 1.24829e-08 -5.07928e-09 -5.73812e-09 )  
( 2.47875e-10 -1.75459e-09 -1.89752e-09 )  
( 1.14671e-08 3.27006e-09 -3.61169e-09 )  
( 4.91002e-09 -3.10315e-09 -4.56661e-09 )  
( 2.28124e-08 -2.02082e-09 -7.12783e-09 )  
( 3.27591e-08 -5.43219e-10 -1.58452e-08 )  
( 1.58161e-08 6.49487e-09 -1.99267e-09 )  
( 5.11118e-09 -3.16416e-09 -8.98257e-10 )  
( 2.98689e-08 2.61752e-09 -1.3007e-08 )  
( 2.21786e-08 2.36661e-09 -1.61734e-09 )  
( -8.43688e-09 -3.01271e-09 -3.38264e-10 )  
( 1.8551e-08 3.62113e-09 -1.25104e-09 )  
( 1.55981e-08 -4.33486e-09 -4.34708e-09 )  
( 2.69827e-08 6.03559e-10 -6.54827e-09 )  
( 1.61677e-08 -3.98807e-09 -7.35191e-09 )  
( 1.74497e-10 -5.4055e-09 -6.19479e-09 )  
( 2.67875e-08 -5.93523e-09 -3.47325e-09 )  
( -2.11705e-08 -9.8304e-09 -1.24799e-08 )  
( 2.4182e-08 5.36187e-09 -1.14154e-08 )  
( 2.71849e-08 3.29234e-09 -1.02747e-08 )  
( 1.7549e-08 -1.92099e-09 -6.20894e-09 )  
( 2.71943e-08 -3.96958e-09 -1.59629e-08 )  
( -3.50636e-09 -1.87942e-09 -2.3472e-09 )  
( 1.8433e-08 6.49073e-09 -4.13859e-10 )  
( -6.64263e-10 -3.87021e-09 -5.67986e-09 )  
( 2.23679e-08 7.36263e-10 -4.67321e-09 )  
( 3.51411e-08 -3.93971e-09 -1.13573e-08 )  
( 1.76979e-08 -3.66118e-09 -3.89715e-09 )  
( 1.63348e-08 -7.15946e-10 -5.88039e-09 )  
( 2.43061e-08 2.17633e-09 -1.11356e-09 )  
( 1.76958e-08 1.21413e-09 -6.88986e-09 )  
( 3.25454e-08 -1.75603e-09 -2.18601e-08 )  
( 3.436e-08 2.10986e-09 -1.17195e-08 )  
( 3.03432e-08 4.68381e-11 -1.22769e-08 )  
( -1.91776e-09 -4.68872e-09 -8.84228e-09 )  
( 2.01332e-08 -6.26734e-09 -7.74788e-09 )  
( 1.02231e-08 -2.74387e-11 2.07972e-09 )  
( -8.95433e-09 7.08193e-10 -7.28909e-10 )  
( 1.31844e-08 -1.12333e-09 -1.35124e-09 )  
( 2.86912e-08 -1.82039e-09 -1.82222e-08 )  
( 1.67064e-08 -3.59419e-09 -8.96017e-09 )  
( 3.09546e-09 3.17577e-09 4.30286e-09 )  
( 1.64402e-08 -2.0588e-09 -7.44051e-09 )  
( 1.84554e-09 -2.6165e-09 -6.10139e-09 )  
( 8.90767e-09 9.20131e-09 -1.49374e-08 )  
( -1.21159e-10 -5.79906e-09 -8.4035e-09 )  
( 6.51083e-09 -5.38903e-09 -4.0709e-09 )  
( 2.79997e-08 1.74654e-09 -6.17418e-09 )  
( -7.28693e-12 -6.29627e-10 -4.74348e-09 )  
( 9.76008e-09 -3.66407e-09 -7.11022e-09 )  
( 2.52601e-08 -5.35345e-09 -2.87862e-09 )  
( 4.35588e-11 -1.89591e-09 -5.51729e-09 )  
( 2.70783e-08 2.22247e-10 -1.62208e-08 )  
( 2.31435e-08 -1.2592e-09 -6.98888e-09 )  
( 2.64272e-08 8.4561e-09 -1.01452e-08 )  
( 2.42563e-08 1.71876e-09 -1.37641e-08 )  
( 1.10162e-08 -3.22862e-09 -7.24154e-10 )  
( 1.24932e-08 -2.63012e-09 -7.23445e-09 )  
( 2.95066e-08 -5.68089e-09 -1.25863e-08 )  
( 1.76257e-08 -8.7788e-10 -3.32301e-09 )  
( 4.20356e-08 -1.00052e-08 -9.3803e-09 )  
( 1.89914e-08 -2.18912e-09 -8.30606e-09 )  
( 2.79247e-08 1.23322e-08 -1.67842e-08 )  
( 3.00386e-08 3.36192e-09 -6.75449e-09 )  
( 1.08423e-08 -2.59902e-09 -5.00518e-09 )  
( 3.03857e-09 3.51983e-10 2.63695e-09 )  
( 3.77825e-09 -3.34419e-10 1.4064e-09 )  
( 1.07494e-08 -2.54108e-09 -9.82522e-10 )  
( 2.0793e-08 2.47058e-10 -2.604e-09 )  
( 1.04915e-08 -5.59365e-09 -6.135e-09 )  
( 2.57809e-08 1.45539e-09 -5.40693e-09 )  
( 2.42827e-08 5.37876e-09 -1.09238e-08 )  
( 1.60517e-08 -4.38748e-09 -6.41116e-09 )  
( -1.15822e-09 -2.54264e-09 -1.19733e-09 )  
( 1.46918e-08 2.26615e-09 -6.16725e-09 )  
( 1.58442e-08 -3.26774e-11 -5.07989e-09 )  
( -4.58045e-09 -6.67873e-09 -4.67625e-09 )  
( 2.46418e-08 -1.08796e-09 -1.04117e-08 )  
( 2.47455e-08 9.33542e-11 -1.54173e-08 )  
( 3.19835e-08 -6.55044e-09 -2.19258e-08 )  
( 2.78603e-08 -6.66254e-10 -8.58441e-09 )  
( 1.23109e-08 -2.84423e-09 -3.01976e-09 )  
( 1.45278e-08 -2.64604e-09 -4.48991e-09 )  
( -3.08348e-10 -1.92747e-09 -4.72057e-09 )  
( 2.34136e-08 -5.14034e-09 -1.15815e-08 )  
( 9.35324e-10 -2.87785e-09 -5.83667e-09 )  
( 3.59312e-08 3.2544e-10 -1.23413e-08 )  
( 1.61766e-08 7.64443e-10 -8.88359e-09 )  
( 3.27343e-08 1.64978e-09 -8.26207e-09 )  
( 2.42631e-09 -7.98268e-10 -4.09671e-09 )  
( 1.77564e-08 -2.02183e-09 -7.72982e-09 )  
( 1.80862e-08 4.42727e-09 -8.1144e-09 )  
( 2.79128e-08 1.53422e-09 -1.72147e-08 )  
( 3.59736e-08 -7.97677e-10 -1.21614e-08 )  
( -1.8661e-08 -1.15815e-09 -1.41548e-08 )  
( 8.96138e-09 -3.5869e-09 -2.09546e-09 )  
( 6.42534e-09 -3.97871e-10 -3.74374e-10 )  
( 1.86959e-08 -2.79775e-09 -1.0111e-08 )  
( 2.66457e-09 2.60997e-09 -2.02488e-10 )  
( 1.59871e-08 -1.82859e-09 -4.19699e-09 )  
( 1.83619e-08 -9.16736e-11 -5.92265e-09 )  
( 1.86409e-08 -2.39201e-09 -1.06087e-08 )  
( 2.96139e-08 -4.78815e-09 -6.9895e-09 )  
( 8.36412e-09 -2.00339e-09 -6.54558e-09 )  
( 8.99474e-09 -2.83609e-09 -2.71602e-09 )  
( 2.34863e-08 3.77306e-09 -3.1273e-09 )  
( 3.70589e-08 2.26917e-09 -8.57754e-09 )  
( 3.12857e-08 -7.17696e-09 -2.35409e-08 )  
( 4.68545e-09 -1.56761e-09 -1.10442e-08 )  
( 3.49504e-08 2.28991e-09 -9.67524e-09 )  
( -7.05787e-09 -1.98428e-09 -2.21607e-09 )  
( 5.38324e-09 -1.84006e-09 7.12817e-10 )  
( 2.64481e-08 2.83231e-09 -3.47159e-09 )  
( 8.55021e-09 -5.75849e-09 -1.45434e-08 )  
( -4.64438e-09 -2.86704e-09 -3.3752e-09 )  
( 1.82669e-08 -1.87555e-09 -9.59891e-09 )  
( 3.47253e-08 -3.62194e-09 -1.48363e-08 )  
( 1.03401e-09 -1.06128e-09 -5.21001e-09 )  
( -1.13493e-08 -2.61231e-09 -3.24123e-09 )  
( 1.50757e-08 -3.62714e-09 -4.87818e-09 )  
( 3.43308e-08 -7.32863e-09 -1.76687e-08 )  
( 2.25525e-08 1.41784e-09 4.01096e-09 )  
( 1.85335e-08 1.49364e-09 -2.09501e-09 )  
( 3.0239e-08 -7.53521e-10 -1.37724e-08 )  
( 7.39582e-10 -2.32418e-10 -6.97916e-09 )  
( 2.15629e-08 1.386e-09 -6.95528e-09 )  
( 8.50537e-09 4.50669e-10 -1.81401e-09 )  
( 2.25799e-08 1.72599e-09 -4.35044e-09 )  
( 2.46219e-08 4.04211e-11 -1.10496e-08 )  
( 2.49313e-08 1.51364e-08 -6.15038e-09 )  
( 2.06699e-10 8.47633e-10 -7.83155e-09 )  
( 3.39359e-09 -1.77854e-09 -6.48373e-09 )  
( 2.87201e-08 -1.97355e-09 -1.78478e-08 )  
( 3.0248e-08 -2.25584e-09 -1.23728e-08 )  
( 1.24354e-08 -2.41139e-09 -9.22149e-10 )  
( 1.03903e-08 -4.98877e-09 6.807e-09 )  
( 1.29248e-08 -5.388e-09 -4.49856e-09 )  
( 2.98895e-08 -5.94226e-11 -1.66937e-08 )  
( 9.06452e-09 2.18737e-09 4.35079e-10 )  
( 5.81303e-09 -2.35622e-09 -2.12143e-09 )  
( -1.3587e-09 -3.04688e-09 -4.74244e-09 )  
( 2.77492e-08 2.49563e-09 -1.53202e-08 )  
( 3.00057e-08 7.57018e-09 -6.92745e-09 )  
( 1.84388e-08 -5.87318e-09 -7.08652e-09 )  
( 2.81335e-08 1.23003e-08 -1.37359e-08 )  
( 4.04124e-10 -7.13881e-12 2.72468e-11 )  
( 2.05331e-08 8.8178e-10 6.93073e-11 )  
( 2.33971e-08 6.53748e-09 -3.61902e-09 )  
( 1.86682e-08 1.01521e-08 -6.02144e-09 )  
( 2.00047e-08 3.34091e-09 -4.30093e-09 )  
( 1.94341e-08 2.27495e-09 -2.7765e-09 )  
( -5.45119e-10 1.61385e-09 1.01428e-09 )  
( 4.39838e-09 -3.69332e-09 -7.38755e-10 )  
( 6.5248e-09 3.72127e-10 -2.35448e-09 )  
( 2.39554e-08 -2.0593e-09 -2.92925e-09 )  
( 1.975e-08 -1.04983e-09 4.32478e-10 )  
( 8.69783e-09 6.51098e-11 2.49027e-10 )  
( 1.13696e-08 -1.79317e-09 -4.95471e-09 )  
( 1.08248e-08 -7.56238e-09 -3.85634e-09 )  
( -7.56059e-09 -4.85336e-09 -3.83588e-09 )  
( -3.15906e-09 -1.60793e-09 1.53883e-10 )  
( -3.67033e-09 -3.81562e-09 -3.06817e-09 )  
( 1.40569e-08 4.93784e-10 -3.01421e-09 )  
( 1.30966e-08 -1.1534e-09 -4.03594e-09 )  
( 1.44699e-08 8.25307e-09 -3.78291e-09 )  
( 1.79732e-08 -1.06707e-09 -3.82297e-09 )  
( 1.39256e-08 -9.6007e-10 -1.57495e-09 )  
( 8.32782e-10 1.20772e-09 3.98208e-09 )  
( 2.07618e-09 -2.26398e-10 -3.95417e-09 )  
( 2.88377e-08 6.92223e-09 -7.01959e-09 )  
( 1.64603e-08 -3.3861e-09 3.29986e-09 )  
( 2.69506e-08 5.92548e-09 -9.70355e-09 )  
( 1.70528e-08 1.20325e-09 -3.15747e-09 )  
( 2.30611e-08 8.33812e-09 -7.13098e-09 )  
( 6.74146e-09 -9.90972e-10 -3.40968e-09 )  
( 1.7134e-08 1.78146e-09 -3.60802e-09 )  
( -3.45353e-09 -4.74633e-10 -1.58026e-09 )  
( -5.65985e-09 6.31926e-09 -6.19594e-10 )  
( 4.28983e-09 -2.10022e-09 -2.92335e-09 )  
( 1.87879e-08 -2.12639e-09 1.00962e-08 )  
( 3.57532e-09 -1.64199e-09 -1.44563e-09 )  
( 1.3474e-08 -1.8785e-09 -3.89659e-09 )  
( 2.20368e-08 1.15836e-09 -1.16858e-09 )  
( 7.39906e-09 5.64943e-09 2.93254e-09 )  
( -2.45859e-09 -3.0254e-10 -4.86786e-09 )  
( 1.11086e-08 -4.37876e-09 -3.29464e-10 )  
( 1.26237e-08 -2.88914e-09 -4.01165e-09 )  
( 2.53762e-08 1.04824e-08 7.40744e-10 )  
( 1.10587e-09 2.58645e-09 -2.63318e-09 )  
( 6.45664e-09 -1.22359e-09 -2.06194e-09 )  
( 3.46973e-10 -3.56252e-09 -3.82951e-09 )  
( 6.1914e-09 -3.78933e-09 -1.45952e-09 )  
( 1.73879e-08 -4.41628e-09 -5.92062e-09 )  
( 8.45865e-09 4.63352e-09 -4.39484e-09 )  
( 1.96088e-08 1.63848e-09 -2.19193e-09 )  
( 3.32333e-09 1.74449e-09 2.88491e-09 )  
( 1.18242e-08 1.98716e-09 -2.55136e-09 )  
( 1.08298e-08 -1.85972e-09 -3.28134e-09 )  
( 9.85659e-09 8.24242e-09 -7.18462e-10 )  
( 6.89232e-09 -2.01909e-09 -1.30698e-09 )  
( 1.72519e-08 1.60645e-09 -1.9031e-09 )  
( 1.17372e-08 7.41484e-09 -1.92257e-09 )  
( 6.3266e-10 -1.93378e-09 1.28184e-09 )  
( -1.97001e-10 -5.03898e-10 -2.44366e-09 )  
( 1.3482e-08 2.25831e-09 -3.23365e-09 )  
( 1.49466e-08 2.17866e-09 1.70652e-09 )  
( 1.50826e-08 4.61637e-09 -5.04471e-09 )  
( -1.44473e-09 -2.05299e-09 5.38825e-10 )  
( -2.1691e-08 3.65374e-08 1.7812e-08 )  
( 8.25312e-09 -1.99545e-11 -9.28447e-10 )  
( 8.17869e-09 -1.25994e-09 -1.82008e-09 )  
( 1.47893e-08 -1.98398e-09 1.11321e-09 )  
( 1.6803e-08 4.16503e-09 -2.80635e-09 )  
( -3.52674e-09 8.87916e-09 7.28399e-10 )  
( 4.2766e-09 -2.17027e-09 -8.91849e-11 )  
( 1.17011e-08 5.83633e-09 1.21593e-10 )  
( -3.41852e-10 1.70803e-09 -2.87326e-09 )  
( 1.10751e-08 -1.10347e-09 -5.93728e-10 )  
( 7.84893e-09 -2.77695e-07 -5.90933e-11 )  
( 1.4938e-08 -9.31675e-10 -1.59847e-10 )  
( -2.42838e-09 2.9386e-10 -1.24194e-09 )  
( 1.05737e-08 -2.35526e-09 8.44475e-10 )  
( 1.39295e-08 2.55169e-09 -2.60504e-09 )  
( 1.27111e-08 1.50899e-11 -2.79991e-09 )  
( 9.73151e-10 -1.36962e-09 1.40452e-09 )  
)
