/*--------------------------------*- C++ -*----------------------------------*\
| =========                 |                                                 |
| \\      /  F ield         | OpenFOAM: The Open Source CFD Toolbox           |
|  \\    /   O peration     | Version:  4.x                                   |
|   \\  /    A nd           | Web:      www.OpenFOAM.org                      |
|    \\/     M anipulation  |                                                 |
\*---------------------------------------------------------------------------*/
FoamFile
{
    version     2.0;
    format      ascii;
    class       volScalarField;
    location    "32.5";
    object      QPartFluid;
}
// * * * * * * * * * * * * * * * * * * * * * * * * * * * * * * * * * * * * * //

dimensions      [1 -1 -3 0 0 0 0];

internalField   nonuniform List<scalar> 
132
(
5.18456e+09
4.25769e+09
3.70071e+09
2.96585e+09
4.32203e+09
4.49014e+09
5.88425e+09
3.94193e+09
2.02085e+09
4.65066e+09
5.10347e+09
5.52898e+09
5.60111e+09
3.84743e+09
6.72837e+09
5.32688e+09
5.80521e+09
5.25828e+09
3.11732e+09
5.87768e+09
5.75168e+09
5.07372e+09
5.57649e+09
4.9058e+09
3.99416e+09
5.19443e+09
8.53785e+09
2.9797e+09
4.533e+09
3.50904e+09
4.2675e+09
6.97697e+09
8.63903e+09
7.5808e+09
7.74973e+09
7.60545e+09
7.1301e+09
6.78371e+09
7.26824e+09
4.98264e+09
9.46329e+09
8.02113e+09
8.51737e+09
9.61839e+09
8.63738e+09
9.21584e+09
9.25108e+09
8.99944e+09
5.30102e+09
9.4591e+09
8.4123e+09
7.53897e+09
9.07896e+09
6.78595e+09
1.05398e+10
6.94243e+09
6.36266e+09
7.96617e+09
7.03814e+09
7.79794e+09
5.50978e+09
1.13252e+10
5.58676e+09
6.96752e+09
8.13889e+09
6.96328e+09
7.49054e+09
5.66923e+09
8.05429e+09
7.05247e+09
5.41093e+09
6.24914e+09
8.2806e+09
7.99103e+09
6.91331e+09
9.27903e+09
6.71537e+09
9.43922e+09
1.01295e+10
1.01324e+10
6.7079e+09
7.19774e+09
8.08587e+09
9.27118e+09
9.82283e+09
8.00953e+09
9.19345e+09
6.34572e+09
5.37074e+09
6.9062e+09
8.64372e+09
9.55396e+09
8.90731e+09
9.926e+09
7.95343e+09
8.69035e+09
4.35221e+09
4.99219e+09
6.76902e+09
5.19293e+09
7.08904e+09
7.79205e+09
5.91232e+09
4.35307e+09
6.05666e+09
5.13531e+09
9.60255e+09
9.0964e+09
8.09585e+09
7.20868e+09
6.67416e+09
1.04492e+10
7.25938e+09
6.93945e+09
5.18444e+09
5.59348e+09
9.03752e+09
6.12378e+09
8.67962e+09
8.43181e+09
8.20699e+09
4.8987e+09
9.32171e+09
4.82237e+09
6.71275e+09
9.79148e+09
1.01583e+10
5.45603e+09
9.65963e+09
8.44172e+09
5.3899e+09
2.58418e+09
)
;

boundaryField
{
    inlet
    {
        type            calculated;
        value           uniform 0;
    }
    outlet
    {
        type            calculated;
        value           nonuniform 0();
    }
    wall
    {
        type            calculated;
        value           uniform 0;
    }
    procBoundary0to1
    {
        type            processor;
        value           nonuniform List<scalar> 
12
(
4.30672e+09
4.54668e+09
3.95292e+09
7.43522e+09
9.05649e+09
7.96752e+09
7.09737e+09
6.43919e+09
9.37225e+09
6.52992e+09
7.898e+09
5.85059e+09
)
;
    }
    procBoundary0to2
    {
        type            processor;
        value           nonuniform List<scalar> 
44
(
7.1358e+09
5.59259e+09
3.05963e+09
5.97531e+09
3.64161e+09
4.60415e+09
5.81568e+09
6.93516e+09
7.1358e+09
6.13696e+09
7.1358e+09
5.59259e+09
9.84651e+09
1.22785e+10
6.60389e+09
1.12275e+10
4.73225e+09
7.94586e+09
9.60385e+09
9.20811e+09
9.84651e+09
8.91204e+09
9.84651e+09
1.22785e+10
7.85026e+09
9.18616e+09
6.86343e+09
5.74935e+09
6.75796e+09
6.90378e+09
6.78772e+09
7.79063e+09
7.85026e+09
9.86978e+09
7.85026e+09
9.18616e+09
4.89692e+09
9.48674e+09
1.02998e+10
7.17356e+09
8.23752e+09
6.28268e+09
7.57285e+09
7.55832e+09
)
;
    }
    procBoundary0to4
    {
        type            processor;
        value           nonuniform List<scalar> 
36
(
4.92532e+09
7.10676e+09
8.4268e+09
5.97679e+09
7.15714e+09
5.98635e+09
8.94317e+09
6.86851e+09
9.6478e+09
7.01917e+09
7.29253e+09
9.38921e+09
1.00333e+10
1.01174e+10
8.57517e+09
8.13886e+09
5.73963e+09
1.11189e+10
6.68919e+09
1.02738e+10
8.31543e+09
9.34707e+09
8.11496e+09
6.28593e+09
7.29542e+09
1.02784e+10
6.73899e+09
3.4567e+09
6.727e+09
9.38967e+09
5.69639e+09
8.77639e+09
6.64972e+09
1.09857e+10
5.97528e+09
7.04321e+09
)
;
    }
    procBoundary0to6
    {
        type            processor;
        value           uniform 8.07188e+09;
    }
    procBoundary0to7
    {
        type            processor;
        value           uniform 9.94716e+09;
    }
}


// ************************************************************************* //
