/*--------------------------------*- C++ -*----------------------------------*\
| =========                 |                                                 |
| \\      /  F ield         | OpenFOAM: The Open Source CFD Toolbox           |
|  \\    /   O peration     | Version:  4.x                                   |
|   \\  /    A nd           | Web:      www.OpenFOAM.org                      |
|    \\/     M anipulation  |                                                 |
\*---------------------------------------------------------------------------*/
FoamFile
{
    version     2.0;
    format      ascii;
    class       volVectorField;
    location    "15.5";
    object      GField;
}
// * * * * * * * * * * * * * * * * * * * * * * * * * * * * * * * * * * * * * //

dimensions      [1 -2 -1 0 0 0 0];

internalField   nonuniform List<vector> 
114
(
(52.2212 2.91468 -2.63777)
(115.833 -4.47704 -0.958393)
(64.0634 7.72267 -4.751)
(108.584 -7.581 -4.22499)
(76.1546 1.02259 -2.48676)
(118.247 -1.72612 -2.89216)
(98.1086 -1.52389 -3.15797)
(44.4062 -1.72368 -1.63663)
(107.712 -2.41397 -2.56301)
(50.1212 0.454382 -3.25093)
(113.163 -12.1357 0.817429)
(74.292 20.4808 -7.30833)
(105.646 -6.37559 -3.44593)
(75.8594 3.62164 -2.73185)
(115.394 -1.54114 -2.68197)
(99.0387 0.717254 -2.9318)
(42.814 0.130886 -0.719728)
(108.214 0.126875 -1.3976)
(41.8518 0.751156 -0.128071)
(120.638 -0.0281381 3.30914)
(98.4214 7.85762 -19.7979)
(95.8227 -1.28377 -2.72754)
(85.2097 1.61535 -5.03464)
(114.653 0.105146 -2.55858)
(100.568 1.19586 -1.83593)
(46.597 1.2147 -0.683717)
(113.033 2.19334 -0.773958)
(46.7637 2.76527 -1.20756)
(115.068 9.16264 2.54747)
(82.2916 -9.86584 -9.66866)
(109.091 0.97743 -1.27953)
(93.3192 -2.467 -3.60784)
(126.23 0.634803 -2.69543)
(40.4391 3.7419 -8.03626)
(90.7374 -4.91857 -9.45594)
(33.1635 -0.192292 -4.28657)
(89.7095 -1.10994 -0.756042)
(95.5389 0.0102503 -7.31604)
(40.3115 -0.327487 -3.80198)
(97.5595 0.00238183 -7.40258)
(38.6961 2.06694 -6.73562)
(96.5954 -5.82185 -0.907134)
(45.3637 9.29602 -11.5567)
(89.8295 -3.77866 -2.84944)
(36.7899 1.25755 -3.80651)
(93.3792 -0.9466 -2.34794)
(96.7196 2.0073 -5.81521)
(39.6706 1.03207 -2.43607)
(100.298 1.62122 -4.6553)
(38.1601 1.8334 -4.35814)
(106.584 -0.501091 7.19082)
(57.0343 4.2571 -24.4436)
(86.91 0.482399 -1.00593)
(45.5722 1.0488 -7.31863)
(92.7159 1.48575 -3.54413)
(97.5799 2.23637 -4.59544)
(45.0591 1.32419 -2.27541)
(104.781 2.73631 -4.51894)
(48.482 1.26436 -5.93061)
(107.362 4.49219 1.19674)
(65.8735 -3.18588 -16.8673)
(101.968 1.97213 -1.74531)
(69.2437 -0.309535 -7.61576)
(111.278 2.06682 -4.69036)
(-1.84707 -1.74738 1.57725)
(79.6533 -4.58384 2.00864)
(93.6608 1.78296 -7.03567)
(37.6671 1.06124 -4.44396)
(91.7074 1.69723 -7.4525)
(32.6817 0.877788 -4.93931)
(90.3 -2.12314 -0.897281)
(34.5804 4.44658 -5.30271)
(85.0702 1.92177 2.28965)
(27.0642 1.40112 -0.579846)
(84.0673 -3.19679 2.8582)
(94.7791 3.48529 -6.25701)
(38.5555 1.95564 -4.01192)
(93.1239 3.03429 -6.45408)
(33.822 1.97592 -5.80959)
(96.1671 0.76368 2.56337)
(37.0811 2.37783 -12.0741)
(81.8763 0.929735 2.92246)
(27.752 0.784354 -2.73789)
(82.4507 1.96885 2.36436)
(96.3545 2.48389 -5.63281)
(42.9947 1.82376 -3.93261)
(98.5321 2.67657 -7.23618)
(44.4795 2.13732 -6.72822)
(102.649 3.2196 -1.62519)
(52.9056 -0.690918 -10.3821)
(94.6074 3.20268 1.9646)
(51.9998 0.916867 -3.54308)
(97.442 3.8636 0.284898)
(92.3691 1.5025 -7.52876)
(36.1361 1.21493 -4.74274)
(89.7333 1.65225 -7.812)
(33.246 0.847817 -4.8714)
(90.6611 -1.21852 -6.49358)
(32.3936 2.27995 -5.0499)
(87.4359 -0.157971 2.71887)
(25.5835 1.46742 -1.26927)
(92.8096 3.49876 -6.22085)
(37.3383 1.92274 -4.1982)
(90.6116 2.05295 -6.28913)
(34.9119 1.03171 -4.07568)
(91.6677 -0.688336 0.0485296)
(34.8629 0.58655 -7.12701)
(86.2545 1.99194 2.32592)
(95.0194 2.91776 -6.30773)
(42.39 1.81043 -5.05124)
(96.5656 2.30894 -7.71666)
(43.7798 1.64922 -6.1034)
(99.7721 1.13587 -3.95766)
(44.5409 0.634816 -6.94923)
)
;

boundaryField
{
    inlet
    {
        type            calculated;
        value           uniform (67 0 0);
    }
    outlet
    {
        type            calculated;
        value           nonuniform 0();
    }
    wall
    {
        type            calculated;
        value           uniform (0 0 0);
    }
    procBoundary2to0
    {
        type            processor;
        value           nonuniform List<vector> 
44
(
(51.847 0.0196854 -2.3624)
(112.992 -6.68826 -0.597171)
(55.9597 3.69251 -2.49317)
(111.958 -4.61128 -5.72214)
(71.9809 0.181503 -1.67728)
(117.383 -3.5986 -3.75134)
(100.02 -1.78579 -4.57378)
(46.6696 -0.832295 -2.3259)
(106.808 -0.0349328 -4.06483)
(106.808 -0.0349328 -4.06483)
(38.9052 2.07264 -5.5694)
(96.1434 -2.81279 -3.6381)
(37.1216 1.65656 -5.3073)
(93.9952 -6.21895 -10.8966)
(28.7258 -0.724883 -3.69627)
(92.6534 -5.72196 -1.12602)
(94.9594 -0.665947 -9.00624)
(39.4845 -0.0358476 -5.32121)
(96.4118 0.867341 -9.08488)
(38.9052 2.07264 -5.5694)
(96.1434 -2.81279 -3.6381)
(96.1434 -2.81279 -3.6381)
(21.6403 1.73821 -4.00414)
(81.947 0.890024 0.265134)
(-1.91646 -1.50548 0.734418)
(82.4791 -3.35451 1.93325)
(92.5061 0.0223154 -7.61222)
(34.8221 0.662529 -5.28173)
(89.5845 1.01091 -8.07221)
(28.5422 1.06508 -4.31047)
(87.0218 -1.15245 -1.67824)
(21.6403 1.73821 -4.00414)
(81.947 0.890024 0.265134)
(81.947 0.890024 0.265134)
(22.3636 0.750368 -1.78295)
(86.5858 -0.234727 -2.75527)
(92.7371 -0.57948 -6.10287)
(35.4478 0.242815 -4.45823)
(88.9096 0.57816 -6.39441)
(30.5815 0.709406 -3.85134)
(87.8488 -1.19858 -1.13391)
(27.4945 1.44729 -3.76602)
(84.9945 -1.51142 3.78978)
(22.3636 0.750368 -1.78295)
)
;
    }
    procBoundary2to3
    {
        type            processor;
        value           nonuniform List<vector> 
12
(
(77.8694 1.08874 -0.0504384)
(74.2561 1.06532 0.67441)
(80.6115 1.09629 -0.644279)
(92.7373 0.140438 -1.06436)
(23.9457 0.59798 -1.72374)
(27.3532 0.658584 -2.0686)
(35.3737 0.778395 -3.06421)
(68.4304 1.40142 -5.61973)
(-0.534222 -0.927327 0.830676)
(14.1941 0.50353 0.0930279)
(15.3223 0.859563 -0.539428)
(52.4655 2.11889 -2.58773)
)
;
    }
    procBoundary2to6
    {
        type            processor;
        value           nonuniform List<vector> 
32
(
(87.9819 1.5145 4.94855)
(27.7957 0.388725 -2.38965)
(87.425 2.33557 2.8705)
(96.0871 3.44468 0.88795)
(46.6974 1.61269 -3.65799)
(99.4591 3.37365 1.1762)
(89.5407 1.54648 -4.313)
(30.9064 1.23236 -2.55103)
(84.2686 1.74244 -5.40203)
(19.9293 0.730575 -2.35019)
(79.8519 -0.756092 -0.925009)
(-1.65652 0.237268 -0.352051)
(74.6701 0.817666 1.89888)
(87.9819 1.5145 4.94855)
(27.7957 0.388725 -2.38965)
(-2.13612 -0.278161 0.879881)
(92.0615 4.80192 -3.85644)
(35.2981 2.13613 -2.71353)
(89.1338 3.64027 -5.08875)
(30.4923 1.70019 -2.5936)
(87.8966 4.23637 -0.578879)
(29.8975 1.51829 -3.93147)
(27.7957 0.388725 -2.38965)
(96.0871 3.44468 0.88795)
(83.4433 0.724148 1.27073)
(94.7468 2.54067 -4.14111)
(40.7189 1.40551 -3.26137)
(94.6341 1.63916 -5.39154)
(38.5505 0.872725 -3.7711)
(93.9254 -0.132335 -2.74268)
(96.0871 3.44468 0.88795)
(36.0203 0.283434 -4.49451)
)
;
    }
}


// ************************************************************************* //
