/*--------------------------------*- C++ -*----------------------------------*\
  =========                 |
  \\      /  F ield         | OpenFOAM: The Open Source CFD Toolbox
   \\    /   O peration     | Website:  https://openfoam.org
    \\  /    A nd           | Version:  4.x
     \\/     M anipulation  |
\*---------------------------------------------------------------------------*/
FoamFile
{
    version     2.0;
    format      ascii;
    class       vectorField;
    location    0;
    object      v;
}
// * * * * * * * * * * * * * * * * * * * * * * * * * * * * * * * * * * * * * //

313
(
( 4.60923e-09 -3.12479e-09 3.35605e-09 )  
( 3.37592e-09 -6.54895e-10 3.12848e-09 )  
( 3.78171e-09 -3.03032e-09 4.2918e-09 )  
( 3.70194e-09 -1.86794e-10 3.42045e-09 )  
( 5.19151e-09 -4.81954e-09 4.83662e-09 )  
( 5.23101e-09 -1.41487e-09 3.54208e-09 )  
( 3.25036e-09 -1.39897e-09 2.34268e-09 )  
( 5.20458e-09 -1.72777e-09 3.60972e-09 )  
( 3.60111e-09 -8.72937e-10 3.35408e-09 )  
( 3.31814e-09 -1.43655e-09 1.93886e-09 )  
( 3.68739e-09 7.42039e-10 4.4813e-09 )  
( 3.20947e-09 -7.34787e-10 1.54687e-09 )  
( 8.71008e-10 -1.5261e-10 6.38825e-10 )  
( 1.76717e-09 -2.0394e-09 1.50877e-09 )  
( 3.34999e-09 -2.47864e-09 2.47797e-09 )  
( 1.44647e-09 -5.39076e-10 7.53503e-10 )  
( 2.1283e-10 -8.00225e-11 1.86721e-10 )  
( 1.69768e-09 -1.46846e-09 1.17873e-09 )  
( 3.65852e-09 -1.79848e-09 1.96849e-09 )  
( 8.61521e-10 -1.4058e-10 7.46365e-10 )  
( 1.22608e-09 5.65693e-11 6.05792e-10 )  
( 5.76748e-10 7.83646e-11 8.51694e-11 )  
( 2.60274e-09 -1.69073e-09 1.72074e-09 )  
( 1.70418e-09 -4.1795e-10 -2.74716e-10 )  
( 3.91911e-10 1.02126e-10 8.78685e-12 )  
( 1.83982e-10 -1.45911e-10 5.13369e-11 )  
( 2.54417e-10 -2.19949e-10 -9.24766e-11 )  
( 1.16256e-09 -1.02612e-10 2.64231e-10 )  
( 1.28956e-09 -6.5242e-10 1.12139e-10 )  
( 1.7746e-09 -9.37002e-10 3.53726e-10 )  
( 1.69156e-09 -1.36118e-09 1.02264e-09 )  
( 1.11084e-09 3.55872e-11 4.16061e-10 )  
( 5.77259e-09 -4.72117e-10 2.9642e-09 )  
( 5.52911e-10 1.1796e-10 1.08138e-09 )  
( 7.35779e-10 -6.42817e-11 1.00463e-09 )  
( 2.28396e-09 -2.99808e-09 2.21804e-09 )  
( 2.13714e-09 -1.51313e-09 5.17214e-10 )  
( 6.71406e-10 -1.12955e-09 5.54717e-10 )  
( 7.80896e-10 -1.61352e-09 4.76687e-10 )  
( 1.28295e-09 -9.98888e-10 4.54085e-10 )  
( 1.20393e-09 -1.81389e-10 5.26741e-10 )  
( 1.34329e-09 -7.1351e-10 1.92769e-10 )  
( 1.49658e-09 -2.34973e-10 -1.27236e-10 )  
( 1.02487e-09 -6.68399e-10 4.93525e-10 )  
( 1.41712e-09 -1.19076e-09 9.85802e-10 )  
( 1.90238e-09 -1.20916e-09 3.30893e-10 )  
( 2.41471e-10 -1.66995e-10 -6.37163e-11 )  
( 1.88963e-09 -1.9332e-09 1.42783e-09 )  
( 1.19035e-09 -1.08176e-09 5.19654e-10 )  
( 2.17704e-10 -3.85441e-10 2.53508e-10 )  
( 2.49968e-09 -2.53344e-09 1.39525e-09 )  
( 2.01975e-09 -8.84606e-10 1.23721e-09 )  
( 1.14043e-09 -2.9586e-10 -3.24076e-10 )  
( 7.35425e-10 3.58353e-11 5.44888e-10 )  
( -5.98727e-11 -6.2911e-10 2.49784e-10 )  
( 1.88652e-09 -1.13293e-09 1.56526e-09 )  
( 2.38963e-09 -2.581e-09 1.07615e-09 )  
( 2.63998e-09 -7.57002e-10 1.63999e-09 )  
( 2.32485e-09 -2.76646e-09 1.26601e-09 )  
( 4.059e-10 -4.97627e-12 5.1728e-10 )  
( 1.75636e-09 -5.81791e-10 9.37867e-10 )  
( 1.41273e-09 -7.55828e-10 1.02627e-09 )  
( 1.84375e-09 -1.3052e-09 6.01955e-10 )  
( 1.07566e-09 -2.94372e-10 5.8882e-10 )  
( 3.00271e-10 -7.82183e-11 1.77371e-10 )  
( 1.73821e-09 -5.22121e-10 5.04184e-10 )  
( 6.78776e-10 -1.00832e-10 -1.61145e-10 )  
( 1.34259e-09 -3.55631e-10 1.007e-09 )  
( 1.42581e-09 -1.6252e-09 9.38142e-10 )  
( 1.48171e-09 -1.81631e-09 1.09823e-09 )  
( 3.22554e-09 -9.84603e-10 1.83777e-09 )  
( 1.24137e-09 -1.93843e-09 1.81862e-09 )  
( 3.68475e-09 -3.43424e-09 3.28302e-09 )  
( 7.22519e-10 -9.5911e-11 6.52512e-10 )  
( 1.15857e-09 -1.95864e-10 2.15211e-10 )  
( 1.23906e-09 -4.00523e-10 5.64312e-10 )  
( 6.70886e-10 -6.55241e-11 8.82412e-10 )  
( 2.13823e-09 -1.67091e-09 8.42838e-10 )  
( 1.22118e-09 -1.4981e-09 8.56633e-10 )  
( 4.18722e-10 -5.38462e-11 2.06089e-10 )  
( 1.43552e-09 -9.95946e-10 1.80865e-11 )  
( 5.37655e-10 1.07754e-10 5.53994e-10 )  
( -5.57204e-12 -5.4263e-10 -5.93555e-11 )  
( 1.5107e-09 -1.08072e-09 5.80775e-10 )  
( 1.86932e-10 -8.11287e-11 -1.03051e-10 )  
( 3.19044e-09 -8.75769e-10 1.71876e-09 )  
( 9.80042e-10 3.26527e-10 4.78652e-10 )  
( 9.39669e-10 -8.65682e-10 1.12456e-09 )  
( 1.78021e-10 -2.08632e-10 3.81632e-12 )  
( 3.54842e-10 6.49884e-11 -9.45362e-11 )  
( 7.03552e-10 -1.49098e-09 1.27009e-09 )  
( 8.21241e-10 -2.70258e-10 -4.62646e-13 )  
( 5.88251e-10 -4.23431e-10 -1.44937e-10 )  
( 5.27983e-10 2.33026e-10 7.52821e-11 )  
( 1.48618e-09 -1.00263e-09 1.25298e-09 )  
( 4.58169e-09 -9.50944e-10 2.49111e-09 )  
( 2.57659e-09 -2.62406e-09 6.616e-10 )  
( 1.31314e-10 1.76203e-10 2.5028e-10 )  
( 1.31545e-09 -2.08866e-09 1.77529e-09 )  
( 7.32706e-10 -1.35455e-10 2.56942e-10 )  
( 1.27638e-09 -1.09275e-09 2.511e-10 )  
( 4.63021e-10 -4.9332e-10 3.27994e-10 )  
( 2.21043e-09 -3.86175e-09 2.76488e-09 )  
( 4.23019e-09 -3.29232e-09 3.28257e-09 )  
( 1.39955e-09 -1.85113e-09 1.27286e-09 )  
( 2.45509e-09 -1.80948e-09 8.82803e-10 )  
( 8.98602e-10 -1.80978e-11 2.49721e-10 )  
( 5.35801e-09 -2.05506e-09 3.3423e-09 )  
( 1.5607e-09 -1.39455e-09 7.1085e-10 )  
( 1.43438e-09 -4.08386e-10 6.50329e-10 )  
( 1.09283e-09 -5.91956e-10 2.97048e-10 )  
( 1.49813e-09 -1.59238e-09 1.0805e-09 )  
( 2.33905e-09 -1.31923e-09 9.29947e-10 )  
( 8.15787e-10 -3.83412e-10 1.56822e-10 )  
( 6.85001e-10 -5.66127e-10 7.07843e-10 )  
( 2.44179e-09 -1.14245e-09 1.51667e-09 )  
( 9.38788e-10 -6.57335e-10 -7.05673e-11 )  
( 2.92499e-09 -1.75199e-09 2.85055e-09 )  
( 1.28085e-09 -6.14691e-10 -4.98503e-12 )  
( 1.15002e-09 -1.88566e-10 7.4928e-10 )  
( 1.71453e-10 -3.04444e-10 5.37305e-10 )  
( 1.14032e-09 -2.2335e-10 9.36197e-10 )  
( 3.9705e-10 9.24217e-12 1.17902e-10 )  
( 4.24116e-09 -4.14848e-09 2.93993e-09 )  
( 1.19756e-09 -1.06413e-09 -5.43151e-10 )  
( 6.27058e-10 -5.01434e-11 1.55967e-10 )  
( 1.44369e-09 -9.08997e-10 1.42293e-10 )  
( 1.26297e-09 -1.59088e-09 7.3968e-10 )  
( 2.77622e-10 1.18578e-10 -8.31551e-11 )  
( 3.11372e-10 -6.78642e-10 5.19479e-10 )  
( 1.6991e-09 -2.14024e-09 1.50182e-09 )  
( 4.64053e-10 -2.74724e-10 -8.42029e-12 )  
( 3.08302e-09 -2.27248e-09 2.18239e-09 )  
( 1.29594e-09 -3.80753e-09 9.48891e-10 )  
( 1.04257e-09 -2.9049e-10 -4.41205e-10 )  
( 1.95224e-10 -3.47489e-10 2.70378e-10 )  
( 6.33492e-10 1.5676e-11 -3.76243e-11 )  
( 2.63974e-09 -2.26848e-09 1.81769e-09 )  
( 3.99667e-11 -1.63787e-10 1.57294e-10 )  
( 9.765e-10 -7.31783e-10 6.1947e-10 )  
( 2.39709e-10 -3.37992e-10 1.71354e-10 )  
( 2.85526e-10 -8.11931e-11 7.90246e-11 )  
( 7.56747e-10 -1.22411e-09 9.32004e-10 )  
( 1.31678e-09 -1.22493e-09 7.47727e-10 )  
( 6.396e-10 -1.08142e-10 2.67652e-11 )  
( 3.12389e-09 -1.80247e-09 2.09256e-09 )  
( 6.49716e-10 -4.02108e-10 2.34077e-10 )  
( 1.89023e-09 -1.94686e-09 2.03196e-09 )  
( 6.64669e-10 -4.50616e-10 2.65996e-10 )  
( 9.82834e-10 -4.18753e-10 4.04162e-10 )  
( 1.58057e-09 -2.98847e-10 3.71194e-10 )  
( 1.52979e-09 6.31035e-11 5.41971e-10 )  
( 1.23737e-09 -5.74921e-10 4.78978e-10 )  
( 5.47795e-09 -1.69507e-11 9.30986e-10 )  
( 2.64794e-09 2.38559e-10 1.15572e-09 )  
( 4.4767e-10 -2.12148e-10 2.33009e-10 )  
( 1.5854e-09 -2.56724e-10 6.7184e-10 )  
( 3.3893e-09 -6.91089e-10 1.50742e-09 )  
( 3.30143e-09 -4.58065e-10 1.27105e-09 )  
( 1.42022e-09 -3.06314e-10 5.10613e-10 )  
( 2.13436e-09 -4.6967e-10 5.22921e-10 )  
( 2.98036e-09 -5.79857e-10 3.15164e-10 )  
( 1.37229e-10 -1.98243e-10 -1.94343e-11 )  
( 2.78838e-09 -4.28364e-10 1.5275e-09 )  
( 1.64093e-10 2.16393e-10 -1.40116e-10 )  
( 6.8767e-11 4.95978e-11 6.72628e-11 )  
( 1.60276e-10 -2.88427e-10 -8.24898e-11 )  
( 1.61975e-09 -5.9483e-10 3.82331e-10 )  
( 2.32091e-09 -7.87947e-10 1.00815e-09 )  
( 5.92369e-11 -2.50295e-10 -7.68144e-11 )  
( 2.9946e-10 1.1507e-11 7.86972e-11 )  
( 2.68632e-10 -2.0085e-10 -4.15238e-12 )  
( 2.83114e-09 -6.19145e-10 7.61531e-10 )  
( 5.50417e-10 -1.81314e-10 1.20791e-10 )  
( 4.05442e-09 -1.08661e-09 1.67096e-09 )  
( 2.04916e-09 -9.29948e-10 1.06935e-09 )  
( 7.13014e-10 -1.69567e-10 -1.26174e-11 )  
( -5.72802e-12 2.62125e-10 -4.06022e-11 )  
( 1.26357e-09 -3.53741e-10 4.33197e-10 )  
( 2.29856e-09 -8.30013e-10 9.33623e-10 )  
( 9.65778e-10 -4.33012e-10 1.39897e-10 )  
( 4.28993e-09 -3.0033e-10 6.69341e-10 )  
( 5.37424e-10 -3.15333e-10 6.931e-11 )  
( 2.35022e-09 -4.1324e-10 6.57247e-10 )  
( 1.43374e-09 -1.40426e-10 3.82349e-10 )  
( 1.90996e-10 -5.58902e-11 2.05527e-10 )  
( 1.88859e-10 -2.55657e-10 3.44427e-13 )  
( 1.18894e-09 -5.80855e-10 4.35008e-10 )  
( 8.447e-10 -6.51117e-10 1.93886e-10 )  
( 8.9776e-10 -3.40291e-10 2.45393e-10 )  
( 1.10212e-09 -2.87813e-10 7.98605e-10 )  
( 4.59753e-10 -3.75807e-10 2.25822e-10 )  
( 5.64137e-10 -1.14755e-10 7.37839e-11 )  
( 3.32975e-09 -6.30303e-10 6.45632e-10 )  
( 4.8053e-09 -8.02222e-10 8.20888e-10 )  
( 1.83804e-09 -2.12472e-10 6.40714e-10 )  
( 1.75161e-09 -4.85642e-10 5.05241e-10 )  
( 7.40325e-10 -2.85741e-10 -1.90581e-11 )  
( 1.47482e-10 -4.02535e-10 1.31436e-10 )  
( 3.06768e-10 -1.87767e-11 1.89927e-10 )  
( 4.23482e-09 -5.68452e-10 1.49336e-09 )  
( 8.73801e-10 -1.77748e-10 1.77303e-10 )  
( 2.72619e-09 -8.38794e-10 1.81629e-09 )  
( 1.98733e-09 -5.27496e-10 1.20498e-09 )  
( 1.69359e-09 -5.22617e-10 6.64583e-10 )  
( 1.41894e-09 -3.00816e-10 3.88988e-10 )  
( 4.9565e-09 9.36402e-11 1.36056e-09 )  
( 6.115e-10 -1.28338e-10 6.01406e-11 )  
( 2.01812e-09 -4.78156e-10 2.62415e-10 )  
( 1.54011e-10 5.92716e-11 -5.88888e-11 )  
( 1.19504e-09 -2.6474e-10 4.86763e-10 )  
( 7.5877e-11 -2.0978e-11 5.39032e-11 )  
( 1.43854e-09 -1.66726e-09 1.76921e-09 )  
( 1.26694e-09 -5.74738e-10 6.24909e-10 )  
( 1.40898e-09 -3.16184e-10 5.54466e-11 )  
( 2.44521e-10 1.53348e-10 1.05973e-10 )  
( 3.7845e-11 -8.99007e-11 8.1591e-11 )  
( 1.94857e-09 -1.85978e-10 3.76561e-10 )  
( 1.89462e-09 -3.40708e-09 2.34238e-09 )  
( 2.1519e-10 -1.56813e-10 -1.11297e-10 )  
( 2.68988e-09 -1.01864e-09 2.18749e-09 )  
( 1.58127e-10 7.62913e-11 9.2628e-12 )  
( 1.79336e-09 -1.30948e-09 8.20328e-10 )  
( 1.17616e-09 -3.1856e-10 5.9162e-10 )  
( 4.36753e-09 -2.5291e-09 3.17151e-09 )  
( 5.916e-09 -1.96454e-10 2.675e-09 )  
( 3.24148e-09 -1.27903e-09 1.23056e-09 )  
( 5.42487e-10 -2.8532e-10 -3.67678e-10 )  
( 2.39975e-09 -2.62927e-09 2.63605e-09 )  
( 7.92247e-10 -1.35378e-11 6.43479e-10 )  
( 3.12185e-09 -3.78129e-10 1.60133e-09 )  
( 4.87887e-10 -4.07188e-10 -2.01021e-12 )  
( 2.31696e-09 -8.36195e-10 1.37987e-09 )  
( 6.00139e-09 -1.3973e-09 3.09232e-09 )  
( -4.22145e-10 -1.15828e-10 7.35113e-11 )  
( 7.85998e-10 -1.99659e-10 5.63656e-10 )  
( 1.976e-09 -3.7143e-10 4.33901e-10 )  
( 1.08525e-09 -6.02701e-10 2.89108e-10 )  
( 2.5039e-09 -2.3421e-10 1.20141e-09 )  
( 2.12057e-09 -1.26878e-09 1.31353e-09 )  
( 1.52208e-09 -6.45814e-10 1.74126e-10 )  
( 3.55186e-10 -2.18775e-10 5.59204e-10 )  
( 2.16723e-10 -1.81856e-10 1.40189e-10 )  
( 4.09148e-09 -2.29593e-10 1.71249e-09 )  
( 2.17082e-09 -2.85014e-10 6.37199e-10 )  
( 1.84007e-09 -1.15606e-09 1.10027e-09 )  
( 9.8862e-10 1.56669e-10 1.02091e-09 )  
( 6.94591e-10 7.59361e-11 2.82585e-10 )  
( 2.40124e-09 -7.27189e-10 1.87904e-09 )  
( 1.77886e-09 -6.56623e-10 1.24711e-09 )  
( 8.55583e-10 -4.43521e-10 6.46404e-10 )  
( 6.41534e-10 -4.3838e-10 4.14669e-10 )  
( 1.96469e-10 -1.81734e-10 5.60974e-11 )  
( 3.94337e-11 4.789e-11 -4.63978e-11 )  
( 7.84061e-10 -2.37186e-10 3.19165e-10 )  
( 2.27485e-09 -1.64152e-09 1.09359e-09 )  
( 8.0465e-10 8.6776e-11 4.3207e-10 )  
( 3.03371e-09 -2.55316e-09 1.49561e-09 )  
( 2.34175e-09 -1.50342e-09 1.65811e-09 )  
( 3.65774e-09 -1.32798e-09 1.95936e-09 )  
( 1.23778e-09 1.07591e-12 4.86859e-10 )  
( 1.70954e-09 -1.27716e-09 8.31485e-10 )  
( 1.579e-09 1.42789e-10 7.46405e-10 )  
( 1.29674e-09 -2.15185e-10 7.33939e-10 )  
( 2.24816e-09 -1.34745e-09 6.33644e-10 )  
( 2.73048e-09 -3.09808e-09 2.24132e-09 )  
( 5.56407e-10 -2.04202e-10 1.03243e-10 )  
( 1.96042e-09 -2.03619e-09 8.27837e-10 )  
( 1.30508e-09 -2.86249e-10 5.37504e-10 )  
( 7.42917e-10 -7.22939e-11 1.70587e-10 )  
( 3.28639e-09 -2.2e-09 1.25922e-09 )  
( 8.62345e-10 1.42731e-10 2.49969e-10 )  
( 1.34892e-10 -3.28989e-10 1.29876e-10 )  
( 1.81537e-09 -3.37663e-10 9.68275e-10 )  
( 6.65063e-10 -2.38761e-10 1.43728e-09 )  
( 1.86442e-09 -1.31947e-09 8.16869e-10 )  
( 2.95046e-09 -8.01114e-10 1.4558e-09 )  
( 2.38616e-09 -1.79316e-09 5.58279e-10 )  
( 3.92347e-09 -2.21111e-09 2.77432e-09 )  
( 4.16109e-11 -2.16204e-10 2.11685e-10 )  
( 5.24425e-09 -5.76554e-09 3.30098e-09 )  
( 1.75998e-09 -7.32378e-11 9.06787e-10 )  
( 2.30464e-09 -5.69287e-09 1.68805e-09 )  
( 7.22441e-10 2.57129e-10 3.31801e-10 )  
( 3.13914e-09 -4.09827e-09 1.71826e-09 )  
( 1.3012e-09 -2.86506e-10 2.68135e-10 )  
( 2.00544e-09 -1.88873e-09 -6.45085e-11 )  
( 1.59606e-09 -6.0429e-10 9.55942e-10 )  
( 1.58119e-09 -3.54512e-10 4.36468e-10 )  
( 2.15029e-09 6.55945e-11 1.09802e-09 )  
( 4.82127e-10 4.66203e-11 3.02239e-10 )  
( 2.09947e-09 -1.23477e-09 1.1113e-09 )  
( 1.70007e-09 -4.3945e-10 1.03804e-09 )  
( 5.84535e-12 -3.78212e-09 1.60822e-09 )  
( 2.87084e-09 -2.36091e-10 1.02913e-09 )  
( 1.14091e-09 -5.54193e-10 -3.63959e-10 )  
( 6.3314e-10 -2.55358e-10 9.93139e-10 )  
( 3.0638e-09 -3.82338e-09 2.79433e-09 )  
( 4.28654e-09 -4.60891e-09 1.79704e-09 )  
( -9.94812e-10 -1.55731e-10 6.59179e-10 )  
( 3.57078e-10 -7.13882e-11 1.36457e-10 )  
( 1.42706e-08 -5.17234e-09 -7.81015e-10 )  
( 8.32776e-10 -1.79919e-10 6.44513e-10 )  
( 2.52356e-09 -6.76382e-09 2.79918e-09 )  
( -7.29405e-10 -3.71755e-10 2.14985e-10 )  
( 1.46643e-09 -3.46056e-10 7.25462e-10 )  
( 1.77989e-09 -4.42971e-10 8.91589e-10 )  
( 2.19199e-09 -1.50307e-09 5.92112e-10 )  
( 2.75573e-09 -2.7683e-10 9.47151e-10 )  
( 4.20565e-09 -3.42174e-09 2.23481e-09 )  
( 1.39433e-09 1.0733e-10 9.88828e-10 )  
( 3.19496e-09 -1.20924e-09 1.90581e-09 )  
( 6.34594e-09 -4.61267e-09 4.15486e-09 )  
)
