/*--------------------------------*- C++ -*----------------------------------*\
| =========                 |                                                 |
| \\      /  F ield         | OpenFOAM: The Open Source CFD Toolbox           |
|  \\    /   O peration     | Version:  4.x                                   |
|   \\  /    A nd           | Web:      www.OpenFOAM.org                      |
|    \\/     M anipulation  |                                                 |
\*---------------------------------------------------------------------------*/
FoamFile
{
    version     2.0;
    format      ascii;
    class       volScalarField;
    location    "58";
    object      p;
}
// * * * * * * * * * * * * * * * * * * * * * * * * * * * * * * * * * * * * * //

dimensions      [1 -1 -2 0 0 0 0];

internalField   nonuniform List<scalar> 
132
(
20.6243
74.8498
1.79328
68.4209
-17.0086
62.6069
-35.731
57.8666
-52.0318
20.941
74.883
2.17766
68.1256
-16.1462
61.1521
-33.8514
54.6791
-49.2994
19.0755
74.7232
-0.659716
68.4268
-21.0109
63.1453
-42.6359
60.4342
-65.1884
19.6498
74.7994
0.102138
68.5707
-20.0294
63.2136
-41.3404
59.986
-63.7735
-1874.54
-1809.64
-1892.76
-1815.43
-1910.7
-1821.1
-1927.1
-1854.9
-1802.87
-1872.8
-1809.34
-1890.79
-1815.66
-1908.97
-1822.36
-1926.6
-1856.88
-1802.99
-1875.17
-1809.55
-1892.96
-1815.84
-1910.31
-1821.95
-1924.49
-1856.72
-1802.34
-1875.08
-1808.92
-1893.21
-1815.85
-1910.28
-1822.34
-1924.68
-3773.86
-3693.79
-3793.1
-3698.49
-3811.08
-3734.41
-3680.93
-3752.86
-3687.65
-3771.06
-3694.72
-3789.08
-3701.47
-3804.93
-3735.28
-3681.08
-3754.54
-3687.64
-3774.76
-3693.36
-3797.3
-3696.49
-3822.21
-3735.02
-3680.98
-3753.89
-3687.4
-3773.49
-3693.18
-3794.6
-3696.98
-3818.87
-5673.57
-5574.64
-5697.09
-5612.34
-5558.65
-5630.81
-5565.22
-5649.43
-5571.48
-5667.37
-5577.6
-5684.42
-5612.91
-5558.83
-5631.61
-5565.18
-5650.85
-5570.78
-5670.11
-5575.03
-5691.4
-5612.53
-5558.69
-5631.09
-5565.11
-5649.81
-5571.26
-5668.28
-5576.8
-5685.83
)
;

boundaryField
{
    inlet
    {
        type            calculated;
        value           nonuniform 0();
    }
    outlet
    {
        type            calculated;
        value           nonuniform List<scalar> 
16
(
0
0
0
0
-1877.91
-1877.91
-1877.91
-1877.91
-3755.83
-3755.83
-3755.83
-3755.83
-5633.74
-5633.74
-5633.74
-5633.74
)
;
    }
    wall
    {
        type            calculated;
        value           nonuniform List<scalar> 
66
(
-6551.3
-6551.87
-6551.48
-6497.61
-6497.79
-6497.65
-6569.77
-6570.57
-6570.05
-6504.18
-6504.14
-6504.07
-6588.39
-6589.8
-6588.77
-6510.43
-6509.73
-6510.22
-6612.53
-6606.33
-6609.06
-6607.24
-6513.6
-6516.55
-6513.98
-6515.75
-6635.59
-6623.09
-6629.07
-6624.51
19.6498
-1856.72
-3735.02
-5612.53
74.7994
-1802.34
-3680.98
-5558.69
0.102138
-1875.08
-3753.89
-5631.09
68.5707
-1808.92
-3687.4
-5565.11
-20.0294
-1893.22
-3773.49
-5649.81
63.2136
-1815.85
-3693.18
-5571.26
-41.3404
-1910.29
-3794.6
-5668.28
59.986
-1822.34
-3696.98
-5576.8
-63.7735
-1924.68
-3818.87
-5685.83
)
;
    }
    procBoundary7to0
    {
        type            processor;
        value           uniform 81.9328;
    }
    procBoundary7to1
    {
        type            processor;
        value           uniform 22.4882;
    }
    procBoundary7to3
    {
        type            processor;
        value           nonuniform List<scalar> 
36
(
1897.1
1952.66
1877.71
1946.22
1858.08
1940.96
1839.08
1936.91
1821.95
1899.32
1952.88
1881.25
1946.63
1863.46
1940.92
1845.89
1934.71
1829.81
1897.81
1952.84
1878.69
1946.25
1859.55
1940.35
1840.14
1935.83
1822.83
1898
1953.06
1879.1
1946.87
1859.59
1941.16
1839.05
1936.67
1816.64
)
;
    }
    procBoundary7to5
    {
        type            processor;
        value           nonuniform List<scalar> 
44
(
75.066
4.95145
68.4183
-12.4261
61.6284
-29.2608
53.6631
-44.4621
-1856.54
-1803.15
-1875.05
-1809.62
-1893.69
-1815.75
-1912.36
-1820.8
-1929.92
-1856.54
-1803.15
-1803.15
-3754.47
-3687.77
-3771.82
-3694.48
-3789.64
-3701.45
-3805.28
-3735.4
-3680.97
-3754.47
-3687.77
-3687.77
-5652.45
-5570.98
-5672.68
-5575.36
-5696.33
-5613.39
-5558.94
-5632.51
-5565.32
-5652.45
-5570.98
-5570.98
)
;
    }
    procBoundary7to6
    {
        type            processor;
        value           nonuniform List<scalar> 
12
(
82.0762
81.548
81.5809
-1796.06
-1795.86
-1795.67
-3673.63
-3674.04
-3674.1
-5551.79
-5552
-5551.93
)
;
    }
}


// ************************************************************************* //
