/*--------------------------------*- C++ -*----------------------------------*\
| =========                 |                                                 |
| \\      /  F ield         | OpenFOAM: The Open Source CFD Toolbox           |
|  \\    /   O peration     | Version:  4.x                                   |
|   \\  /    A nd           | Web:      www.OpenFOAM.org                      |
|    \\/     M anipulation  |                                                 |
\*---------------------------------------------------------------------------*/
FoamFile
{
    version     2.0;
    format      ascii;
    class       volVectorField;
    location    "58";
    object      UsNext;
}
// * * * * * * * * * * * * * * * * * * * * * * * * * * * * * * * * * * * * * //

dimensions      [0 1 -1 0 0 0 0];

internalField   nonuniform List<vector> 
132
(
(6.20503e-10 -2.22151e-10 4.39689e-10)
(4.88468e-10 -2.28209e-10 7.66691e-10)
(-8.02012e-10 -5.6372e-10 1.58119e-09)
(-2.04332e-09 -6.60332e-10 8.00229e-10)
(-1.70477e-09 -2.21549e-10 6.38828e-10)
(-9.18772e-10 9.65174e-11 3.84886e-10)
(-7.16777e-10 4.51298e-11 6.70244e-11)
(-3.17856e-10 1.68161e-10 8.55334e-12)
(1.46759e-10 1.1506e-10 1.41717e-10)
(5.4837e-10 -1.1469e-10 1.91792e-10)
(1.03196e-09 -6.81269e-11 6.29016e-10)
(-7.12226e-10 -6.53488e-10 1.29215e-10)
(-2.02197e-09 -2.71216e-10 8.06239e-10)
(-1.28421e-09 -2.06482e-10 5.77907e-10)
(-9.66407e-10 -1.37169e-10 4.18145e-10)
(-5.7342e-10 -7.11256e-11 2.73075e-10)
(-3.30847e-10 8.05298e-12 2.80456e-10)
(8.36109e-12 1.36813e-10 1.62222e-10)
(6.56072e-10 -4.26548e-12 3.19959e-10)
(5.47138e-10 3.06722e-10 7.47132e-10)
(-6.60872e-10 3.14421e-10 8.36615e-10)
(-1.45685e-09 3.42583e-10 8.45039e-10)
(-1.36681e-09 -1.30179e-10 5.2791e-10)
(-9.95681e-10 -1.68997e-10 3.1983e-10)
(-7.88269e-10 -7.21141e-11 7.81528e-11)
(-3.47905e-10 -4.80621e-11 -1.65232e-11)
(8.52341e-10 4.86865e-10 -3.31861e-11)
(7.87856e-10 1.04629e-10 1.16988e-10)
(1.29663e-09 2.60725e-10 2.854e-10)
(-2.97672e-10 1.11307e-09 3.85715e-10)
(-1.66288e-09 9.87324e-10 4.65299e-10)
(-1.52179e-09 -6.67632e-11 3.90513e-10)
(-8.85902e-10 -5.75943e-11 1.81942e-10)
(-5.12487e-10 -1.42025e-10 -1.01576e-11)
(-1.98322e-10 -4.1342e-11 -1.97909e-10)
(5.55606e-10 2.1341e-10 -2.81996e-11)
(-5.58096e-10 -1.19526e-09 1.64452e-09)
(-1.94224e-09 -6.59367e-10 8.20962e-10)
(-1.57837e-09 -2.09331e-10 3.17141e-10)
(-1.06103e-09 -5.93511e-12 2.15168e-10)
(-6.797e-10 2.48484e-10 1.53135e-10)
(-2.25409e-10 3.43593e-10 1.63871e-10)
(2.00152e-10 4.2206e-10 6.15637e-10)
(4.60768e-10 -3.37425e-10 1.40747e-10)
(4.96678e-10 -5.38667e-10 5.92051e-10)
(-4.93138e-10 -2.42159e-10 7.83575e-10)
(-1.47341e-09 1.74763e-10 3.08955e-10)
(-1.14483e-09 -4.22017e-11 3.01308e-10)
(-5.52997e-10 1.26764e-11 3.67086e-10)
(-2.57324e-10 1.75661e-10 2.26505e-10)
(-1.07888e-10 1.0184e-10 4.51247e-10)
(-1.23141e-10 1.0888e-10 3.7173e-10)
(8.36504e-10 -1.68013e-10 7.55591e-11)
(1.09493e-09 -2.15225e-10 3.52096e-10)
(-2.65834e-10 4.10979e-10 8.56472e-10)
(-1.5695e-09 5.32471e-10 5.32169e-10)
(-9.47573e-10 6.67869e-11 2.70362e-10)
(-3.47733e-10 -2.36277e-11 2.18541e-10)
(-2.11295e-10 1.59266e-11 2.32214e-10)
(-9.83684e-11 -7.37065e-11 1.53418e-10)
(1.87031e-09 7.58492e-10 2.10424e-10)
(1.44332e-09 -2.0482e-11 -1.43021e-10)
(1.79554e-09 1.77975e-10 -4.51813e-11)
(1.83171e-10 5.96026e-10 -1.89975e-10)
(-1.73567e-09 5.87773e-10 5.31888e-10)
(-8.31886e-10 -4.49727e-11 1.97909e-10)
(-3.72679e-10 -3.64585e-11 9.32743e-11)
(-8.75065e-11 -3.47943e-11 1.8803e-10)
(-8.99895e-11 -1.1145e-10 -1.07627e-11)
(7.40565e-10 2.75447e-10 -1.51357e-11)
(-1.69645e-09 -2.20206e-10 7.40404e-11)
(-1.29699e-09 3.02555e-11 3.77014e-11)
(-7.88405e-10 3.24018e-10 1.55349e-10)
(-3.70917e-10 4.23208e-10 4.07463e-10)
(3.50267e-11 4.30014e-10 7.80036e-10)
(6.24198e-10 -1.81078e-10 1.09875e-10)
(4.2535e-10 -4.0906e-10 6.36495e-10)
(-6.39044e-10 1.15405e-11 1.39109e-09)
(-1.50062e-09 2.5853e-10 1.81409e-10)
(-1.37083e-09 -4.81231e-11 5.78315e-11)
(-9.43458e-10 1.35169e-11 8.51902e-11)
(-4.43759e-10 3.11162e-10 2.01374e-10)
(-2.14966e-10 2.14514e-10 4.69191e-10)
(-6.78941e-12 2.91177e-11 5.17235e-10)
(1.20076e-09 6.92586e-11 -1.81515e-10)
(2.05971e-09 -2.38331e-10 6.37529e-10)
(1.12736e-10 3.35167e-10 9.99118e-10)
(-1.14105e-09 4.40856e-10 3.83936e-10)
(-7.15819e-10 1.22403e-10 1.14775e-10)
(-1.11601e-10 3.43746e-11 -1.24397e-10)
(2.03962e-10 1.04891e-10 -1.52625e-11)
(5.02325e-10 -6.16018e-11 1.94395e-10)
(4.95786e-10 -1.77566e-10 4.7522e-11)
(1.17349e-09 -2.13385e-10 -3.10092e-10)
(1.45696e-09 1.73663e-10 4.63719e-11)
(-1.56914e-10 2.03065e-10 3.10577e-10)
(-1.31583e-09 2.03106e-10 3.25044e-10)
(-4.74169e-10 2.41786e-11 1.01475e-10)
(4.28549e-10 -1.43239e-11 1.37865e-10)
(5.68935e-10 -1.40416e-10 1.79684e-10)
(4.46115e-10 -2.73496e-11 1.04765e-10)
(3.54014e-10 8.47229e-11 7.07039e-11)
(-5.62398e-10 1.31598e-10 -1.22327e-11)
(-1.6666e-10 3.04767e-10 3.80054e-10)
(-5.32932e-10 4.53312e-10 1.29801e-09)
(2.05367e-10 5.04246e-11 1.30783e-11)
(3.57052e-10 2.39194e-12 3.18596e-10)
(-4.44028e-10 -4.36442e-10 5.95675e-10)
(-1.43698e-09 -7.45419e-11 1.36144e-10)
(-1.38587e-09 -1.84516e-10 8.80238e-11)
(-1.42398e-09 -2.76104e-10 1.1346e-11)
(-6.29033e-10 8.49027e-11 2.00936e-11)
(-7.30311e-11 -2.73875e-10 3.08642e-10)
(-3.33775e-10 -5.01161e-10 7.24291e-10)
(8.26587e-10 3.81552e-10 -1.58618e-10)
(9.95701e-10 1.09456e-10 1.30631e-10)
(3.95959e-11 -7.26986e-11 3.60505e-10)
(-9.11862e-10 1.55361e-10 2.48706e-10)
(-8.26384e-10 1.40096e-11 5.4254e-11)
(-5.61251e-10 -1.27285e-10 -1.17251e-10)
(-1.20777e-10 -1.23654e-10 -3.07035e-10)
(8.70711e-10 -2.47046e-10 -6.7553e-11)
(7.61709e-10 -6.95663e-11 -1.8182e-10)
(5.00903e-10 -1.51404e-10 -1.40588e-10)
(9.8319e-10 6.43282e-11 6.41716e-11)
(1.1667e-10 6.19652e-11 2.26577e-10)
(-8.35775e-10 1.38399e-10 1.25344e-10)
(-3.20734e-10 -8.03895e-09 2.06426e-11)
(-2.09784e-11 2.21259e-11 -1.51651e-11)
(3.57084e-10 -1.04581e-11 2.43902e-11)
(1.43091e-09 1.77385e-10 -1.23269e-11)
(-9.93053e-10 2.96303e-09 6.90329e-10)
)
;

boundaryField
{
    inlet
    {
        type            calculated;
        value           nonuniform 0();
    }
    outlet
    {
        type            calculated;
        value           nonuniform List<vector> 
16
(
(1.46759e-10 1.1506e-10 1.41717e-10)
(8.36109e-12 1.36813e-10 1.62222e-10)
(8.52341e-10 4.86865e-10 -3.31861e-11)
(5.55606e-10 2.1341e-10 -2.81996e-11)
(2.00152e-10 4.2206e-10 6.15637e-10)
(-1.23141e-10 1.0888e-10 3.7173e-10)
(1.87031e-09 7.58492e-10 2.10424e-10)
(7.40565e-10 2.75447e-10 -1.51357e-11)
(3.50267e-11 4.30014e-10 7.80036e-10)
(-6.78941e-12 2.91177e-11 5.17235e-10)
(4.95786e-10 -1.77566e-10 4.7522e-11)
(3.54014e-10 8.47229e-11 7.07039e-11)
(-5.32932e-10 4.53312e-10 1.29801e-09)
(-3.33775e-10 -5.01161e-10 7.24291e-10)
(7.61709e-10 -6.95663e-11 -1.8182e-10)
(-9.93053e-10 2.96303e-09 6.90329e-10)
)
;
    }
    wall
    {
        type            calculated;
        value           nonuniform List<vector> 
66
(
(2.05367e-10 5.04246e-11 1.30783e-11)
(8.26587e-10 3.81552e-10 -1.58618e-10)
(5.00903e-10 -1.51404e-10 -1.40588e-10)
(3.57052e-10 2.39194e-12 3.18596e-10)
(9.95701e-10 1.09456e-10 1.30631e-10)
(9.8319e-10 6.43282e-11 6.41716e-11)
(-4.44028e-10 -4.36442e-10 5.95675e-10)
(3.95959e-11 -7.26986e-11 3.60505e-10)
(1.1667e-10 6.19652e-11 2.26577e-10)
(-1.43698e-09 -7.45419e-11 1.36144e-10)
(-9.11862e-10 1.55361e-10 2.48706e-10)
(-8.35775e-10 1.38399e-10 1.25344e-10)
(-1.38587e-09 -1.84516e-10 8.80238e-11)
(-8.26384e-10 1.40096e-11 5.4254e-11)
(-3.20734e-10 -8.03895e-09 2.06426e-11)
(-1.42398e-09 -2.76104e-10 1.1346e-11)
(-5.61251e-10 -1.27285e-10 -1.17251e-10)
(-2.09784e-11 2.21259e-11 -1.51651e-11)
(-5.62398e-10 1.31598e-10 -1.22327e-11)
(-6.29033e-10 8.49027e-11 2.00936e-11)
(-1.20777e-10 -1.23654e-10 -3.07035e-10)
(3.57084e-10 -1.04581e-11 2.43902e-11)
(-1.6666e-10 3.04767e-10 3.80054e-10)
(-7.30311e-11 -2.73875e-10 3.08642e-10)
(8.70711e-10 -2.47046e-10 -6.7553e-11)
(1.43091e-09 1.77385e-10 -1.23269e-11)
(-5.32932e-10 4.53312e-10 1.29801e-09)
(-3.33775e-10 -5.01161e-10 7.24291e-10)
(7.61709e-10 -6.95663e-11 -1.8182e-10)
(-9.93053e-10 2.96303e-09 6.90329e-10)
(7.87856e-10 1.04629e-10 1.16988e-10)
(1.44332e-09 -2.0482e-11 -1.43021e-10)
(1.17349e-09 -2.13385e-10 -3.10092e-10)
(5.00903e-10 -1.51404e-10 -1.40588e-10)
(1.29663e-09 2.60725e-10 2.854e-10)
(1.79554e-09 1.77975e-10 -4.51813e-11)
(1.45696e-09 1.73663e-10 4.63719e-11)
(9.8319e-10 6.43282e-11 6.41716e-11)
(-2.97672e-10 1.11307e-09 3.85715e-10)
(1.83171e-10 5.96026e-10 -1.89975e-10)
(-1.56914e-10 2.03065e-10 3.10577e-10)
(1.1667e-10 6.19652e-11 2.26577e-10)
(-1.66288e-09 9.87324e-10 4.65299e-10)
(-1.73567e-09 5.87773e-10 5.31888e-10)
(-1.31583e-09 2.03106e-10 3.25044e-10)
(-8.35775e-10 1.38399e-10 1.25344e-10)
(-1.52179e-09 -6.67632e-11 3.90513e-10)
(-8.31886e-10 -4.49727e-11 1.97909e-10)
(-4.74169e-10 2.41786e-11 1.01475e-10)
(-3.20734e-10 -8.03895e-09 2.06426e-11)
(-8.85902e-10 -5.75943e-11 1.81942e-10)
(-3.72679e-10 -3.64585e-11 9.32743e-11)
(4.28549e-10 -1.43239e-11 1.37865e-10)
(-2.09784e-11 2.21259e-11 -1.51651e-11)
(-5.12487e-10 -1.42025e-10 -1.01576e-11)
(-8.75065e-11 -3.47943e-11 1.8803e-10)
(5.68935e-10 -1.40416e-10 1.79684e-10)
(3.57084e-10 -1.04581e-11 2.43902e-11)
(-1.98322e-10 -4.1342e-11 -1.97909e-10)
(-8.99895e-11 -1.1145e-10 -1.07627e-11)
(4.46115e-10 -2.73496e-11 1.04765e-10)
(1.43091e-09 1.77385e-10 -1.23269e-11)
(5.55606e-10 2.1341e-10 -2.81996e-11)
(7.40565e-10 2.75447e-10 -1.51357e-11)
(3.54014e-10 8.47229e-11 7.07039e-11)
(-9.93053e-10 2.96303e-09 6.90329e-10)
)
;
    }
    procBoundary7to0
    {
        type            processor;
        value           uniform (4.44862e-10 -3.73708e-10 5.10153e-11);
    }
    procBoundary7to1
    {
        type            processor;
        value           uniform (7.0087e-10 -3.67899e-10 5.10298e-10);
    }
    procBoundary7to3
    {
        type            processor;
        value           nonuniform List<vector> 
36
(
(3.8304e-10 -4.87865e-10 5.46926e-10)
(-1.75854e-10 -7.80339e-10 1.2247e-09)
(-1.10748e-09 -1.27197e-09 2.05076e-09)
(-1.82134e-09 -9.72625e-10 1.05797e-09)
(-1.98761e-09 -4.96243e-10 7.11238e-10)
(-1.45637e-09 -3.46498e-10 2.71345e-10)
(-9.1638e-10 -2.93887e-10 7.45997e-12)
(-1.07934e-10 -1.31998e-10 7.66029e-12)
(2.46693e-10 -1.09942e-10 2.38714e-10)
(3.62571e-10 -4.38777e-10 2.85803e-10)
(4.51102e-10 -3.27074e-11 7.3548e-10)
(-4.62222e-10 8.8717e-10 3.48795e-10)
(-2.29258e-09 -6.04976e-10 1.68952e-09)
(-1.99661e-09 -4.12583e-10 8.99694e-10)
(-1.67801e-09 -3.70895e-10 4.05535e-10)
(-9.5912e-10 -1.44302e-10 1.55835e-10)
(-3.49238e-10 -8.2319e-11 3.77586e-10)
(8.0823e-11 -1.39668e-10 2.83276e-10)
(5.96205e-10 -2.13609e-10 2.64629e-10)
(5.32879e-10 2.09313e-12 7.5894e-10)
(-1.24445e-09 4.62607e-10 1.84379e-09)
(-2.66635e-09 -4.72838e-10 1.58791e-09)
(-2.24932e-09 -4.80735e-10 6.42322e-10)
(-1.64418e-09 -3.27585e-10 3.65586e-10)
(-1.45402e-09 -2.16133e-10 1.32137e-10)
(-2.92712e-10 7.03306e-11 -1.54854e-10)
(8.71862e-11 -1.48272e-10 -4.80552e-10)
(5.33858e-10 -1.82849e-10 8.41168e-11)
(5.37457e-10 3.86813e-11 8.15066e-10)
(-1.09309e-09 1.51157e-10 2.14932e-09)
(-1.79097e-09 3.26808e-10 7.89542e-10)
(-1.84614e-09 -1.97178e-10 4.3329e-10)
(-1.03543e-09 -1.71497e-10 1.82526e-10)
(-7.31414e-10 -5.28233e-11 -9.94227e-11)
(-2.89105e-10 -1.38048e-10 -4.13768e-10)
(2.61024e-11 -3.76981e-10 -1.17266e-09)
)
;
    }
    procBoundary7to5
    {
        type            processor;
        value           nonuniform List<vector> 
44
(
(3.00106e-10 -3.81139e-10 9.90706e-10)
(-6.24181e-10 -8.45794e-10 1.874e-09)
(-1.61644e-09 -6.15282e-10 1.05801e-09)
(-1.46724e-09 -1.90426e-10 4.69513e-10)
(-1.09788e-09 -3.71669e-11 1.00777e-10)
(-6.97299e-10 1.1235e-10 -5.00888e-11)
(-2.59216e-10 2.68082e-10 -1.39688e-10)
(3.57718e-11 2.60473e-10 1.10995e-10)
(7.20521e-10 -3.62333e-10 4.18461e-10)
(6.42349e-10 -8.33738e-10 1.10812e-09)
(2.06274e-11 -1.23858e-09 2.00805e-09)
(-1.42968e-09 -9.07075e-10 1.14159e-09)
(-1.2957e-09 -2.95521e-10 3.85137e-10)
(-1.04444e-09 -2.08909e-11 6.00521e-11)
(-6.436e-10 2.61432e-10 1.52104e-11)
(-3.26049e-10 4.72773e-10 4.39155e-11)
(-5.42213e-11 4.26544e-10 2.50786e-10)
(7.20521e-10 -3.62333e-10 4.18461e-10)
(6.42349e-10 -8.33738e-10 1.10812e-09)
(6.42349e-10 -8.33738e-10 1.10812e-09)
(-2.60238e-10 -1.2281e-09 1.80727e-09)
(-2.26311e-09 -6.22877e-10 4.64989e-10)
(-1.38565e-09 -4.90085e-10 2.01292e-10)
(-1.15832e-09 2.80681e-11 5.22965e-11)
(-8.14458e-10 2.94052e-10 -6.11668e-11)
(-5.11934e-10 7.21247e-10 5.59693e-11)
(-2.52526e-10 1.00583e-09 2.73203e-10)
(1.00928e-09 -2.69789e-10 6.62745e-11)
(1.33779e-09 -7.48393e-10 8.09126e-10)
(-2.60238e-10 -1.2281e-09 1.80727e-09)
(-2.26311e-09 -6.22877e-10 4.64989e-10)
(-2.26311e-09 -6.22877e-10 4.64989e-10)
(-1.54646e-09 -2.47731e-10 -4.33552e-12)
(-8.32683e-10 -3.6518e-11 -6.55613e-11)
(-5.5557e-10 1.98104e-10 -1.22152e-11)
(-3.84468e-10 6.01003e-10 1.75801e-10)
(-3.22444e-10 1.24999e-09 4.01373e-10)
(5.04656e-10 -1.96805e-10 -5.78852e-12)
(1.42928e-09 -3.45847e-10 4.8439e-10)
(-6.18908e-12 -2.1571e-09 9.81535e-10)
(-1.50618e-09 -5.53345e-10 5.80717e-10)
(-1.54646e-09 -2.47731e-10 -4.33552e-12)
(-8.32683e-10 -3.6518e-11 -6.55613e-11)
(-8.32683e-10 -3.6518e-11 -6.55613e-11)
)
;
    }
    procBoundary7to6
    {
        type            processor;
        value           nonuniform List<vector> 
12
(
(4.45333e-10 -2.10202e-10 -6.9134e-11)
(4.14859e-10 -1.18279e-10 -6.51852e-11)
(2.09475e-10 -6.21499e-11 -1.17018e-10)
(3.74177e-10 -1.54767e-10 2.49975e-11)
(4.8141e-10 -1.13563e-10 -5.38701e-11)
(5.81291e-10 -1.0469e-10 -5.93847e-11)
(2.75518e-10 -6.54112e-11 1.89465e-11)
(5.07265e-10 5.00677e-11 -9.77618e-11)
(2.38773e-10 -6.21397e-11 -1.67217e-10)
(-1.02497e-10 -1.12573e-10 -1.01064e-10)
(2.15972e-10 2.42678e-10 -1.01122e-10)
(2.99156e-10 2.97533e-11 -1.64555e-10)
)
;
    }
}


// ************************************************************************* //
