/*--------------------------------*- C++ -*----------------------------------*\
  =========                 |
  \\      /  F ield         | OpenFOAM: The Open Source CFD Toolbox
   \\    /   O peration     | Website:  https://openfoam.org
    \\  /    A nd           | Version:  4.x
     \\/     M anipulation  |
\*---------------------------------------------------------------------------*/
FoamFile
{
    version     2.0;
    format      ascii;
    class       vectorField;
    location    0;
    object      v;
}
// * * * * * * * * * * * * * * * * * * * * * * * * * * * * * * * * * * * * * //

303
(
( -7.75411e-09 6.18463e-10 7.65509e-12 )  
( -1.87752e-08 -3.49471e-09 9.04112e-09 )  
( -1.60508e-08 -5.5864e-09 7.88976e-09 )  
( -1.41881e-08 -4.47905e-09 5.79782e-09 )  
( -1.9949e-08 -5.2072e-09 7.83016e-09 )  
( -2.45376e-08 -7.44285e-09 1.03651e-08 )  
( -6.15469e-09 -1.53459e-10 3.8218e-10 )  
( -2.40005e-08 -1.78931e-09 1.07253e-08 )  
( -1.29481e-08 -5.76673e-09 3.63542e-09 )  
( -1.02e-08 -6.20816e-09 -1.22369e-08 )  
( 1.25244e-09 -1.94524e-08 -2.54256e-08 )  
( 5.20232e-09 9.10089e-09 -3.47908e-08 )  
( -3.42209e-08 -8.81117e-09 1.70557e-08 )  
( -6.86674e-09 -6.35191e-09 -1.66424e-08 )  
( -3.70194e-09 1.50143e-08 -1.06519e-07 )  
( -2.23124e-08 -4.41494e-09 -6.77366e-09 )  
( 2.44514e-07 1.24552e-07 -9.27698e-08 )  
( -3.63301e-08 -3.30066e-09 8.82353e-09 )  
( -2.04773e-08 -1.13362e-09 8.22093e-09 )  
( -8.94937e-09 5.68294e-09 -5.26941e-08 )  
( -2.37114e-08 -1.38562e-09 1.40248e-08 )  
( -3.37425e-08 -3.66154e-09 1.90669e-09 )  
( -2.96232e-08 -5.25335e-09 1.61412e-08 )  
( -1.52324e-08 -2.94198e-09 1.30056e-09 )  
( -2.65629e-08 -6.83812e-09 2.04416e-08 )  
( -1.55398e-08 3.27321e-09 1.43879e-08 )  
( -4.77167e-09 -9.2582e-09 -6.49318e-08 )  
( 3.07247e-08 4.96122e-08 -5.83336e-08 )  
( -1.95747e-08 3.82383e-09 1.44231e-08 )  
( -1.1936e-08 -7.17096e-09 -1.93421e-08 )  
( 3.90695e-08 3.38077e-08 -7.40959e-08 )  
( -9.16313e-09 6.9619e-10 8.37024e-09 )  
( -7.60961e-09 1.93784e-10 -1.94482e-08 )  
( -1.54975e-08 -1.72881e-09 -8.44856e-09 )  
( -2.04025e-08 1.29903e-10 1.12332e-08 )  
( -1.71231e-08 3.36326e-10 8.81861e-09 )  
( -2.60598e-08 -1.63667e-09 1.1684e-08 )  
( -1.79831e-11 3.19775e-09 -4.46738e-08 )  
( -2.15548e-08 -1.79352e-09 1.04126e-08 )  
( -2.40942e-08 -4.97373e-10 1.43366e-08 )  
( 1.40966e-07 4.43223e-08 -1.01444e-07 )  
( -1.96649e-08 -2.77211e-09 -1.18103e-09 )  
( 6.8517e-09 -9.07661e-09 -1.38644e-07 )  
( -3.24723e-08 -2.5691e-09 1.36659e-08 )  
( -2.96522e-08 -4.76914e-10 1.55276e-08 )  
( -2.52329e-08 -5.15208e-09 -1.15729e-08 )  
( 1.37178e-09 1.09602e-08 -3.5168e-08 )  
( 9.70776e-09 4.85148e-09 -2.55392e-08 )  
( 2.88565e-08 7.31571e-09 -2.73995e-08 )  
( -3.1442e-08 -3.34393e-10 1.06816e-08 )  
( -2.08798e-08 -1.93447e-09 1.55283e-08 )  
( -2.02045e-08 1.18929e-09 1.09226e-08 )  
( -1.54652e-08 -2.14447e-09 -1.88382e-09 )  
( -2.44699e-08 -4.92751e-10 6.21495e-09 )  
( -1.05935e-08 -3.63957e-09 5.19329e-09 )  
( -1.32457e-08 -1.73641e-09 3.29098e-09 )  
( 1.92967e-09 -1.27234e-08 -1.94746e-08 )  
( -7.28497e-09 -6.17384e-10 1.91062e-09 )  
( -1.83993e-08 2.00873e-10 -2.1325e-08 )  
( -1.68277e-08 -2.61214e-09 7.33812e-09 )  
( -6.55797e-09 -2.13024e-11 -4.74811e-09 )  
( 8.07103e-09 6.60516e-09 -1.70481e-08 )  
( 8.43169e-09 3.57229e-09 -2.60725e-08 )  
( -1.03909e-05 3.85157e-09 -4.29665e-07 )  
( -1.95838e-08 -2.19996e-09 1.31216e-08 )  
( -1.10546e-08 -5.91788e-10 -8.19866e-09 )  
( -2.22417e-08 -8.05612e-10 8.49244e-09 )  
( -1.58242e-08 -1.02598e-08 1.69453e-09 )  
( -2.40665e-08 -2.85398e-10 -1.58849e-08 )  
( -2.54578e-08 3.89278e-09 1.51853e-08 )  
( -3.38014e-08 -6.65006e-10 1.39942e-08 )  
( 1.53569e-08 -1.88798e-08 -9.09635e-08 )  
( -2.12299e-08 -2.80573e-09 1.14865e-08 )  
( -8.06522e-09 -2.10869e-09 -1.85685e-08 )  
( -9.38752e-09 -1.37719e-08 -8.1016e-08 )  
( 9.86333e-09 1.89553e-08 -1.41971e-08 )  
( -1.27021e-08 -2.22169e-10 -4.15725e-10 )  
( -2.81914e-08 6.9949e-10 1.68327e-08 )  
( 1.22823e-08 -4.43383e-08 -1.90851e-07 )  
( -3.88745e-08 -3.21332e-09 -1.98948e-09 )  
( -2.02117e-08 -1.29881e-09 3.57024e-09 )  
( -2.9333e-08 -3.84175e-09 1.48161e-08 )  
( -1.38885e-08 8.06213e-11 -1.74142e-08 )  
( 1.27261e-08 -3.06907e-08 -1.01726e-07 )  
( -8.84954e-09 -1.41304e-08 -8.73479e-08 )  
( -1.97425e-08 -7.36594e-09 -3.47e-08 )  
( -1.15057e-08 -1.44379e-09 4.40834e-09 )  
( 4.68564e-09 4.69233e-09 -2.80406e-08 )  
( -3.29005e-08 -1.7952e-09 -1.09114e-07 )  
( 4.68744e-09 1.29203e-08 -5.05374e-08 )  
( -2.38489e-08 -8.76366e-10 1.23694e-08 )  
( -2.42071e-08 -1.83545e-09 -4.61372e-09 )  
( 8.70618e-09 -7.33833e-09 -5.582e-08 )  
( -4.48877e-09 -1.2479e-09 -5.83554e-09 )  
( -2.49359e-08 -4.79522e-10 5.63039e-09 )  
( -1.3908e-08 9.15282e-10 9.90341e-09 )  
( -4.19076e-09 5.56538e-10 -1.92296e-08 )  
( -1.11709e-08 -4.52849e-09 -2.72749e-10 )  
( -1.15246e-08 1.18666e-10 -1.03622e-08 )  
( -3.96995e-08 -6.84838e-10 8.90905e-09 )  
( -1.99137e-08 6.75505e-11 6.48655e-09 )  
( -1.72423e-08 -2.94663e-09 6.51002e-09 )  
( -3.18847e-07 1.07923e-07 -3.96613e-07 )  
( -2.76089e-08 5.85116e-09 3.40544e-09 )  
( -5.53019e-08 -2.63769e-08 -8.1125e-08 )  
( -1.49274e-08 2.22649e-09 -2.12618e-08 )  
( -1.95508e-08 -5.37002e-09 6.19309e-09 )  
( 6.33294e-09 7.25489e-09 -2.18643e-08 )  
( -7.02926e-09 1.05455e-06 -6.40987e-08 )  
( -2.66131e-08 -1.582e-09 1.49412e-08 )  
( -3.30212e-08 -3.63394e-09 1.28504e-08 )  
( -3.38101e-08 -1.37823e-09 1.72729e-08 )  
( -1.72524e-08 -5.64252e-10 4.67226e-09 )  
( 2.18721e-08 -6.69827e-08 -7.43134e-08 )  
( 1.94828e-09 -4.85182e-10 -1.78469e-08 )  
( -2.37441e-08 -1.10392e-09 1.16217e-08 )  
( 1.23919e-08 3.94135e-09 -4.37305e-08 )  
( -1.46509e-08 -1.29357e-09 -7.72154e-09 )  
( 1.27118e-08 3.68557e-08 -9.63612e-08 )  
( 1.2059e-07 1.65542e-07 -9.87729e-08 )  
( -2.16014e-08 6.71328e-10 1.40158e-08 )  
( -1.86641e-08 -1.25036e-09 1.11291e-08 )  
( -2.6611e-08 -3.44979e-09 1.70959e-09 )  
( -2.97504e-09 -4.43588e-09 -5.39599e-08 )  
( -1.69932e-08 -2.71341e-09 1.30189e-08 )  
( -1.36691e-08 -2.77723e-10 5.03555e-10 )  
( 2.10242e-09 -2.62792e-09 -9.21899e-09 )  
( -1.20656e-08 2.25112e-10 -3.07303e-08 )  
( -3.98289e-09 -1.29448e-08 -5.22838e-08 )  
( -9.79071e-09 1.83579e-10 -1.01824e-08 )  
( 9.31946e-09 -1.07144e-08 -1.20426e-07 )  
( -1.47359e-08 3.2736e-09 -1.34058e-08 )  
( 2.01478e-09 -4.44568e-09 -8.2785e-09 )  
( -1.46869e-08 4.22216e-10 2.70561e-09 )  
( -9.28009e-10 -6.45399e-11 -5.2864e-09 )  
( -2.41117e-08 -4.73398e-10 1.57973e-08 )  
( -9.87334e-08 -7.18967e-08 -3.1831e-08 )  
( -9.45659e-10 -5.81977e-09 -7.50324e-09 )  
( -2.30456e-08 -8.93755e-10 3.96035e-09 )  
( -9.65263e-09 -1.1976e-09 4.02093e-09 )  
( 2.70107e-08 -1.80279e-08 -1.33943e-07 )  
( -6.05204e-09 -1.95524e-10 -3.52853e-08 )  
( -2.80163e-08 -5.8508e-10 9.22873e-09 )  
( -8.87855e-09 -8.72219e-10 1.07663e-09 )  
( -1.01521e-08 -1.46907e-08 -6.68095e-08 )  
( 2.076e-08 1.328e-08 -1.78942e-08 )  
( 6.35409e-09 -1.66775e-09 -2.20248e-08 )  
( -1.38285e-08 1.18508e-09 1.0639e-08 )  
( 3.64684e-10 7.04578e-10 -5.52486e-09 )  
( -6.69742e-09 -1.07033e-09 1.30403e-09 )  
( -2.25415e-08 2.63864e-09 1.41052e-08 )  
( -8.33029e-09 6.43958e-10 3.06331e-09 )  
( -2.68523e-08 5.30924e-10 1.28078e-08 )  
( -2.75486e-08 -1.25621e-09 1.17111e-08 )  
( -1.64653e-08 -2.30939e-09 5.16158e-09 )  
( -1.84461e-08 -3.63777e-09 -1.99563e-08 )  
( -5.35765e-09 -1.32795e-09 -3.26278e-09 )  
( -1.2309e-08 -4.22147e-09 -2.94614e-08 )  
( -2.19523e-09 2.03211e-09 -5.31649e-08 )  
( -1.40586e-08 5.99221e-10 9.7435e-09 )  
( -8.36067e-09 -1.64646e-09 -7.35862e-09 )  
( -1.52592e-10 6.43861e-09 -2.96512e-08 )  
( -2.62676e-08 4.78847e-09 -1.02477e-08 )  
( -2.93885e-08 -1.88915e-09 1.39566e-08 )  
( -4.58464e-09 -5.65201e-09 -2.94858e-08 )  
( 6.01528e-09 -7.65299e-09 -1.86897e-08 )  
( -2.19872e-08 -5.37746e-09 9.61297e-09 )  
( -1.85236e-08 2.34243e-09 7.71616e-09 )  
( -2.60387e-09 -6.34061e-09 -1.15842e-08 )  
( -1.47214e-08 -1.42044e-09 1.04855e-08 )  
( -4.9035e-09 7.14059e-09 -4.8197e-08 )  
( 5.13431e-09 -1.00687e-08 -6.45997e-08 )  
( -2.49526e-08 -3.67763e-09 1.17362e-08 )  
( 1.13984e-08 -2.68353e-08 -3.15844e-08 )  
( -6.10266e-09 1.49449e-11 2.7739e-09 )  
( -1.13398e-08 -2.88978e-11 6.44656e-09 )  
( -1.27763e-09 -1.02338e-09 -4.03708e-09 )  
( 5.09625e-09 -2.0166e-08 -5.55532e-08 )  
( -2.20895e-08 1.04904e-09 -3.47618e-09 )  
( 2.97923e-08 3.73412e-08 -7.87912e-08 )  
( -3.85974e-07 1.77257e-07 -2.59981e-07 )  
( -9.03765e-09 -2.6141e-09 2.54257e-09 )  
( -3.97544e-09 -7.09221e-10 -2.78011e-09 )  
( -1.61212e-08 -1.91644e-08 -9.93545e-08 )  
( 2.31738e-08 5.17843e-09 -2.17225e-09 )  
( -1.2022e-08 -5.43968e-10 -3.2785e-09 )  
( -1.04367e-08 2.79141e-10 3.02923e-09 )  
( 1.82958e-08 -1.51931e-09 -3.89719e-09 )  
( -2.00543e-08 1.08631e-09 1.1586e-08 )  
( -1.92645e-08 7.00553e-10 1.18178e-08 )  
( 2.18231e-09 -1.64299e-08 -4.88869e-08 )  
( -3.51487e-08 -3.10725e-09 1.26026e-08 )  
( 3.92487e-09 -1.41812e-10 -1.27282e-08 )  
( -4.28187e-09 -5.46236e-10 -7.40789e-09 )  
( 5.05192e-10 -2.91844e-09 -7.17342e-09 )  
( -1.71476e-08 -4.11269e-10 1.0839e-08 )  
( 3.52329e-09 1.77657e-09 -1.04672e-08 )  
( -6.75149e-09 3.31211e-09 -7.64368e-09 )  
( -8.41352e-09 2.59878e-08 -5.82848e-08 )  
( -1.21538e-08 -4.01808e-09 6.72159e-09 )  
( -6.81012e-09 -1.83323e-09 1.14253e-09 )  
( -2.09224e-09 3.62765e-09 -1.23696e-08 )  
( -1.02225e-08 -1.29485e-09 -2.70904e-08 )  
( -9.75633e-09 1.84507e-10 -3.58399e-08 )  
( -8.251e-09 -4.18839e-09 -5.81271e-11 )  
( -6.1785e-09 -9.47148e-10 -5.49728e-09 )  
( -1.28841e-10 6.85144e-09 -2.11748e-08 )  
( -2.90375e-09 9.90531e-09 -2.19856e-08 )  
( -2.37257e-09 -1.83661e-09 -2.21513e-09 )  
( -1.20218e-09 5.19906e-09 -9.61588e-09 )  
( -7.78958e-09 1.58495e-09 -3.092e-08 )  
( 5.01581e-09 -5.59565e-09 -2.20262e-08 )  
( -2.05668e-10 2.67137e-09 -2.96185e-08 )  
( -1.8538e-08 2.53267e-09 1.17385e-08 )  
( -5.93978e-09 6.48976e-10 -1.94462e-08 )  
( -5.82437e-09 1.96798e-09 1.50582e-09 )  
( -1.6852e-08 4.60804e-10 5.06299e-09 )  
( 7.38774e-09 1.42531e-09 -1.4338e-08 )  
( -8.92661e-09 -7.30317e-09 3.09375e-09 )  
( -1.76536e-08 1.00795e-10 9.93464e-09 )  
( -4.77784e-09 -1.91731e-10 -2.33424e-09 )  
( -4.31592e-09 -8.08185e-09 -9.00908e-09 )  
( 2.83266e-09 -2.97503e-09 -4.40007e-09 )  
( -1.96252e-08 -4.16869e-09 9.69065e-09 )  
( -2.2642e-08 -6.13842e-09 1.55862e-08 )  
( -6.47626e-09 1.13656e-08 -8.43595e-08 )  
( -1.6242e-08 4.71619e-09 9.27115e-09 )  
( -2.95208e-08 -6.63219e-10 3.82243e-09 )  
( -9.94965e-10 -1.58824e-09 -5.69471e-09 )  
( -2.30814e-08 1.6854e-09 1.13483e-08 )  
( -1.84819e-06 2.86298e-08 -1.6517e-07 )  
( -1.16677e-08 -2.50143e-09 -1.66286e-08 )  
( -3.24642e-08 -3.27695e-09 1.64141e-08 )  
( -1.3066e-08 3.04112e-10 7.41631e-09 )  
( 4.95144e-10 -1.05819e-10 -6.08308e-09 )  
( -7.66269e-09 -4.0469e-09 -2.34629e-08 )  
( -1.31515e-08 5.42753e-10 4.98898e-09 )  
( -1.87846e-08 -5.71209e-09 -2.15462e-08 )  
( 4.98487e-09 -2.43155e-08 -3.37166e-08 )  
( -1.61506e-08 -1.66982e-09 1.04839e-08 )  
( -1.15391e-09 -2.49152e-10 -3.80865e-08 )  
( -1.76092e-08 -3.61104e-10 1.48023e-08 )  
( -1.2744e-08 3.01734e-09 -8.84402e-09 )  
( -2.2715e-08 -1.73751e-09 8.97921e-09 )  
( -2.13724e-08 -7.05e-09 1.28943e-08 )  
( -1.82574e-08 -5.5899e-09 6.99551e-09 )  
( 1.29874e-08 -5.90213e-09 -1.50311e-08 )  
( -3.79032e-08 -7.04937e-09 -1.2437e-08 )  
( -2.61686e-08 -1.28619e-09 1.42206e-08 )  
( -9.72637e-09 -5.60841e-10 -1.25567e-08 )  
( -2.06964e-08 -3.87989e-09 1.01098e-08 )  
( -2.5623e-08 3.7301e-10 1.77682e-08 )  
( -1.70416e-08 -3.42284e-10 7.50568e-09 )  
( -1.50197e-08 5.16354e-09 1.30312e-08 )  
( -3.93528e-09 3.00545e-09 -1.68326e-08 )  
( -1.32294e-08 -2.17394e-09 2.21696e-09 )  
( -9.79848e-10 3.64738e-09 -1.29886e-08 )  
( -1.74829e-08 8.63907e-10 1.14674e-08 )  
( -1.1467e-08 1.53119e-10 4.20166e-09 )  
( -9.16446e-09 -1.12121e-09 -6.23374e-10 )  
( -1.38898e-08 5.26295e-10 -1.94765e-09 )  
( -4.24823e-09 -1.81934e-09 -4.33553e-08 )  
( -1.29378e-08 1.58556e-09 6.16952e-09 )  
( -8.09378e-09 -3.40546e-09 -4.3789e-08 )  
( -1.55268e-08 -4.57444e-09 8.29707e-09 )  
( -9.08398e-09 -3.14968e-09 -1.88276e-08 )  
( -1.28495e-08 -1.00093e-09 5.23804e-09 )  
( 2.86483e-09 5.20303e-09 -2.43743e-08 )  
( -1.45047e-08 2.82013e-09 1.22048e-08 )  
( 1.27241e-09 -4.98537e-10 -1.03305e-08 )  
( -1.72687e-08 1.44639e-09 1.20714e-08 )  
( -1.26113e-09 -5.80614e-10 -3.78163e-08 )  
( -4.36994e-09 -2.52296e-10 -7.94167e-09 )  
( 2.97706e-09 8.01746e-09 -3.75271e-08 )  
( -2.53994e-08 -3.83615e-09 6.06432e-09 )  
( -2.71684e-08 -9.93403e-09 2.02585e-08 )  
( 3.67898e-08 4.47798e-08 -8.90252e-08 )  
( -3.54046e-08 -1.90436e-09 -6.1213e-09 )  
( -3.28004e-08 1.14788e-09 -4.44e-09 )  
( -3.36175e-08 -1.35095e-10 1.16597e-08 )  
( -3.34445e-08 1.69456e-09 1.04248e-08 )  
( 1.46822e-07 5.44168e-09 -8.15948e-08 )  
( -1.84152e-08 -1.03146e-08 5.95169e-09 )  
( -3.33087e-08 -2.25697e-09 1.65813e-08 )  
( -6.79654e-08 5.19565e-08 1.74223e-08 )  
( -2.51079e-08 -6.07906e-09 1.2747e-08 )  
( -2.31591e-08 -2.31879e-09 2.74968e-09 )  
( -1.93284e-08 2.95352e-10 9.80659e-09 )  
( -3.21413e-08 -5.17607e-10 1.48294e-08 )  
( -2.8619e-08 -2.38923e-09 1.25908e-08 )  
( -1.99804e-08 -4.10925e-09 6.62762e-09 )  
( -1.11719e-08 -1.6481e-09 1.62178e-09 )  
( -7.50004e-09 3.00984e-09 -7.22718e-09 )  
( -6.56133e-09 -1.48089e-09 2.28212e-09 )  
( -2.88711e-08 2.99261e-09 -2.72868e-08 )  
( -4.1428e-08 -5.30344e-09 1.52037e-08 )  
( -1.31696e-08 3.06433e-09 -4.94905e-08 )  
( -2.68267e-08 -4.99931e-08 1.29684e-08 )  
( -3.92532e-08 1.48759e-09 1.67393e-08 )  
( -3.74963e-08 2.92629e-10 1.46964e-08 )  
( -2.15144e-08 4.81799e-08 3.72522e-09 )  
( -2.84143e-08 -1.25778e-08 1.63701e-08 )  
( -2.99842e-08 -4.12066e-09 1.36581e-08 )  
)
