/*--------------------------------*- C++ -*----------------------------------*\
| =========                 |                                                 |
| \\      /  F ield         | OpenFOAM: The Open Source CFD Toolbox           |
|  \\    /   O peration     | Version:  4.x                                   |
|   \\  /    A nd           | Web:      www.OpenFOAM.org                      |
|    \\/     M anipulation  |                                                 |
\*---------------------------------------------------------------------------*/
FoamFile
{
    version     2.0;
    format      ascii;
    class       volScalarField;
    location    "4.5";
    object      nu;
}
// * * * * * * * * * * * * * * * * * * * * * * * * * * * * * * * * * * * * * //

dimensions      [0 2 -1 0 0 0 0];

internalField   nonuniform List<scalar> 
114
(
1.00017e-06
1.00003e-06
9.99932e-07
9.99796e-07
9.99756e-07
9.93003e-07
9.99471e-07
9.99401e-07
9.99337e-07
9.99344e-07
9.99401e-07
9.99457e-07
9.99411e-07
9.99547e-07
9.99414e-07
9.99332e-07
9.99306e-07
9.99366e-07
9.99496e-07
9.99606e-07
9.99851e-07
1.00019e-06
1.00018e-06
1.00009e-06
1.00001e-06
9.99937e-07
9.99919e-07
9.99849e-07
9.99803e-07
9.99412e-07
9.99575e-07
9.99467e-07
9.99415e-07
9.99438e-07
9.99453e-07
9.99535e-07
9.99568e-07
9.99632e-07
9.99813e-07
9.99703e-07
9.99572e-07
9.99454e-07
9.99383e-07
9.99376e-07
9.99534e-07
9.99687e-07
9.9985e-07
9.99996e-07
9.99778e-07
9.99654e-07
1.00021e-06
1.0002e-06
1.00018e-06
1.00013e-06
1.00008e-06
1.00003e-06
9.99952e-07
9.9992e-07
9.98986e-07
9.9971e-07
9.99632e-07
9.99602e-07
9.99705e-07
9.9969e-07
9.99744e-07
9.99648e-07
9.99685e-07
9.99641e-07
9.99765e-07
9.9972e-07
9.99603e-07
9.99535e-07
9.99453e-07
9.99449e-07
9.99481e-07
9.99564e-07
9.99766e-07
9.99843e-07
9.99746e-07
9.99609e-07
9.99499e-07
1.00027e-06
1.00026e-06
1.00024e-06
1.00021e-06
1.00019e-06
1.00017e-06
1.00012e-06
1.0001e-06
9.94212e-07
1.00018e-06
1.00016e-06
1.00013e-06
1.00009e-06
1.00005e-06
1.00001e-06
9.99933e-07
9.99901e-07
9.99364e-07
1.00021e-06
1.00018e-06
1.00013e-06
1.00008e-06
1.00001e-06
9.99951e-07
9.99883e-07
9.99845e-07
9.99068e-07
1.0002e-06
1.00016e-06
1.00009e-06
1.00005e-06
9.99973e-07
9.99901e-07
)
;

boundaryField
{
    inlet
    {
        type            calculated;
        value           nonuniform 0();
    }
    outlet
    {
        type            calculated;
        value           uniform 1e-06;
    }
    wall
    {
        type            calculated;
        value           nonuniform List<scalar> 
66
(
1.00027e-06
1.00018e-06
1.00021e-06
1.0002e-06
1.00026e-06
1.00016e-06
1.00018e-06
1.00016e-06
1.00024e-06
1.00013e-06
1.00013e-06
1.00009e-06
1.00021e-06
1.00009e-06
1.00008e-06
1.00005e-06
1.00019e-06
1.00005e-06
1.00001e-06
9.99973e-07
1.00017e-06
1.00001e-06
9.99951e-07
9.99901e-07
1.00012e-06
9.99933e-07
9.99883e-07
1.0001e-06
9.99901e-07
9.99845e-07
9.94212e-07
9.99364e-07
9.99068e-07
1.00019e-06
1.00021e-06
1.00027e-06
1.00018e-06
1.0002e-06
1.00026e-06
1.00009e-06
1.00018e-06
1.00024e-06
1.00017e-06
1.00001e-06
1.00013e-06
1.00021e-06
1.00003e-06
9.99937e-07
1.00008e-06
1.00019e-06
9.99932e-07
9.99919e-07
1.00003e-06
1.00017e-06
9.99796e-07
9.99849e-07
9.99952e-07
1.00012e-06
9.99756e-07
9.99803e-07
9.9992e-07
1.0001e-06
9.93003e-07
9.99412e-07
9.98986e-07
9.94212e-07
)
;
    }
    procBoundary5to1
    {
        type            processor;
        value           nonuniform List<scalar> 
32
(
1.00015e-06
9.99965e-07
9.99852e-07
9.99761e-07
9.9974e-07
9.88075e-07
9.994e-07
9.99313e-07
9.99258e-07
9.99285e-07
9.99344e-07
9.99426e-07
9.98417e-07
9.99473e-07
9.99326e-07
9.99281e-07
9.993e-07
9.99359e-07
9.99426e-07
9.995e-07
9.99152e-07
1.00045e-06
1.00038e-06
1.00028e-06
1.00028e-06
1.00028e-06
9.9974e-07
9.99609e-07
9.99609e-07
9.99609e-07
9.99689e-07
9.99689e-07
)
;
    }
    procBoundary5to4
    {
        type            processor;
        value           nonuniform List<scalar> 
12
(
1.00028e-06
9.9977e-07
9.99849e-07
9.99887e-07
1.00023e-06
9.99872e-07
9.99881e-07
9.99947e-07
1.00028e-06
1.00018e-06
1.00023e-06
1.00024e-06
)
;
    }
    procBoundary5to7
    {
        type            processor;
        value           nonuniform List<scalar> 
44
(
9.99751e-07
9.99654e-07
9.99539e-07
9.99446e-07
9.99502e-07
9.99788e-07
9.99906e-07
9.99993e-07
9.99865e-07
9.99751e-07
9.99531e-07
9.99389e-07
9.99554e-07
9.9994e-07
9.99979e-07
9.9998e-07
1e-06
9.99649e-07
9.99531e-07
9.99593e-07
9.99531e-07
9.99389e-07
9.99423e-07
9.9947e-07
9.99562e-07
9.99717e-07
9.99987e-07
9.99803e-07
9.99754e-07
9.99622e-07
9.99423e-07
9.99527e-07
9.99423e-07
9.9947e-07
9.99822e-07
9.99804e-07
9.95958e-07
1.00017e-06
1.00003e-06
9.99873e-07
9.99831e-07
9.99809e-07
9.99822e-07
9.99756e-07
)
;
    }
}


// ************************************************************************* //
