/*--------------------------------*- C++ -*----------------------------------*\
| =========                 |                                                 |
| \\      /  F ield         | OpenFOAM: The Open Source CFD Toolbox           |
|  \\    /   O peration     | Version:  4.x                                   |
|   \\  /    A nd           | Web:      www.OpenFOAM.org                      |
|    \\/     M anipulation  |                                                 |
\*---------------------------------------------------------------------------*/
FoamFile
{
    version     2.0;
    format      ascii;
    class       volScalarField;
    location    "4.5";
    object      particleRelTemp;
}
// * * * * * * * * * * * * * * * * * * * * * * * * * * * * * * * * * * * * * //

dimensions      [0 0 0 0 0 0 0];

internalField   nonuniform List<scalar> 
114
(
-6.88388e-07
-4.08993e-07
-8.19904e-08
4.26182e-07
8.92843e-07
1.24272e-06
-7.43914e-07
-6.13169e-07
-2.78227e-07
2.42323e-07
8.11314e-07
1.48659e-06
1.94228e-06
-6.28198e-07
-7.06263e-07
-4.90949e-07
-1.58817e-07
4.37057e-07
1.21309e-06
1.94302e-06
2.42052e-06
-5.76731e-07
-7.05181e-07
-7.5774e-07
-7.07542e-07
-4.67535e-07
-1.71182e-07
2.4648e-07
6.51729e-07
9.81629e-07
-4.67996e-07
-6.48936e-07
-7.12017e-07
-5.86917e-07
-3.10699e-07
1.65799e-07
5.94518e-07
1.18628e-06
1.5478e-06
-3.77452e-07
-6.55662e-07
-6.82734e-07
-4.9429e-07
-9.07119e-08
4.17226e-07
1.11718e-06
1.78772e-06
2.08074e-06
-3.34075e-07
-6.47819e-07
-5.97111e-07
-7.31149e-07
-7.61054e-07
-7.05e-07
-5.28989e-07
-3.62455e-07
-1.03105e-08
2.9124e-07
6.70116e-07
-5.5019e-07
-6.79574e-07
-7.22871e-07
-6.2237e-07
-3.88283e-07
-1.86502e-08
3.1649e-07
6.42828e-07
1.0915e-06
-4.24835e-07
-6.09033e-07
-6.72544e-07
-5.63595e-07
-2.36534e-07
2.21492e-07
7.43699e-07
1.26274e-06
1.57885e-06
-4.15968e-07
-5.97156e-07
-6.45593e-07
-5.41386e-07
-7.1233e-07
-7.58029e-07
-8.02349e-07
-7.4587e-07
-6.04591e-07
-4.62767e-07
-2.12468e-07
-3.58214e-09
2.72417e-07
-6.00936e-07
-7.06342e-07
-7.66225e-07
-6.77148e-07
-4.95042e-07
-2.33394e-07
1.12523e-07
3.93197e-07
6.94885e-07
-4.64561e-07
-6.50514e-07
-6.92146e-07
-5.90683e-07
-3.42688e-07
7.00587e-08
4.2864e-07
8.32118e-07
1.10764e-06
-4.39299e-07
-6.12491e-07
-6.65318e-07
-5.60379e-07
-2.91411e-07
1.82368e-07
)
;

boundaryField
{
    inlet
    {
        type            calculated;
        value           nonuniform 0();
    }
    outlet
    {
        type            calculated;
        value           nonuniform List<scalar> 
12
(
1.24272e-06
1.94228e-06
2.42052e-06
9.81629e-07
1.5478e-06
2.08074e-06
6.70116e-07
1.0915e-06
1.57885e-06
2.72417e-07
6.94885e-07
1.10764e-06
)
;
    }
    wall
    {
        type            calculated;
        value           nonuniform List<scalar> 
66
(
-7.1233e-07
-6.00936e-07
-4.64561e-07
-4.39299e-07
-7.58029e-07
-7.06342e-07
-6.50514e-07
-6.12491e-07
-8.02349e-07
-7.66225e-07
-6.92146e-07
-6.65318e-07
-7.4587e-07
-6.77148e-07
-5.90683e-07
-5.60379e-07
-6.04591e-07
-4.95042e-07
-3.42688e-07
-2.91411e-07
-4.62767e-07
-2.33394e-07
7.00587e-08
1.82368e-07
-2.12468e-07
1.12523e-07
4.2864e-07
-3.58214e-09
3.93197e-07
8.32118e-07
2.72417e-07
6.94885e-07
1.10764e-06
-5.76731e-07
-5.97111e-07
-7.1233e-07
-7.05181e-07
-7.31149e-07
-7.58029e-07
-7.5774e-07
-7.61054e-07
-8.02349e-07
-6.88388e-07
-7.07542e-07
-7.05e-07
-7.4587e-07
-4.08993e-07
-4.67535e-07
-5.28989e-07
-6.04591e-07
-8.19904e-08
-1.71182e-07
-3.62455e-07
-4.62767e-07
4.26182e-07
2.4648e-07
-1.03105e-08
-2.12468e-07
8.92843e-07
6.51729e-07
2.9124e-07
-3.58214e-09
1.24272e-06
9.81629e-07
6.70116e-07
2.72417e-07
)
;
    }
    procBoundary5to1
    {
        type            processor;
        value           nonuniform List<scalar> 
32
(
-7.04079e-07
-4.11756e-07
1.08106e-07
5.80542e-07
1.11075e-06
1.62099e-06
-8.17971e-07
-6.55489e-07
-2.39709e-07
3.01145e-07
1.11781e-06
1.77895e-06
2.24214e-06
-7.67398e-07
-7.88908e-07
-6.06403e-07
-1.52745e-07
5.65738e-07
1.47531e-06
2.05447e-06
2.61953e-06
-5.66876e-07
-7.48353e-07
-7.88883e-07
-7.88883e-07
-7.88883e-07
-5.06687e-07
-7.15681e-07
-7.15681e-07
-7.15681e-07
-3.24944e-07
-3.24944e-07
)
;
    }
    procBoundary5to4
    {
        type            processor;
        value           nonuniform List<scalar> 
12
(
-4.01286e-07
-1.88871e-07
-7.38346e-08
1.32413e-10
-4.337e-07
-2.97857e-07
-1.81643e-07
-1.42014e-07
-5.34998e-07
-3.7164e-07
-2.97411e-07
-1.76157e-07
)
;
    }
    procBoundary5to7
    {
        type            processor;
        value           nonuniform List<scalar> 
44
(
-6.35727e-07
-6.9512e-07
-4.94896e-07
-3.64436e-08
7.21522e-07
1.52786e-06
2.20216e-06
2.57141e-06
-3.62237e-07
-6.35727e-07
-6.59286e-07
-4.82629e-07
-7.48922e-08
5.82823e-07
1.3289e-06
2.00134e-06
2.25794e-06
-4.42122e-07
-6.59286e-07
-5.92804e-07
-6.59286e-07
-4.82629e-07
-1.88613e-07
2.63795e-07
9.63821e-07
1.42056e-06
1.95959e-06
-4.16954e-07
-6.1065e-07
-6.58722e-07
-1.88613e-07
-5.1658e-07
-1.88613e-07
2.63795e-07
6.35086e-07
1.09056e-06
1.36472e-06
-4.05891e-07
-6.2019e-07
-6.63808e-07
-5.55702e-07
-2.8712e-07
6.35086e-07
9.61682e-08
)
;
    }
}


// ************************************************************************* //
