/*--------------------------------*- C++ -*----------------------------------*\
| =========                 |                                                 |
| \\      /  F ield         | OpenFOAM: The Open Source CFD Toolbox           |
|  \\    /   O peration     | Version:  4.x                                   |
|   \\  /    A nd           | Web:      www.OpenFOAM.org                      |
|    \\/     M anipulation  |                                                 |
\*---------------------------------------------------------------------------*/
FoamFile
{
    version     2.0;
    format      ascii;
    class       volScalarField;
    location    "4.5";
    object      QWallFluidCoeff;
}
// * * * * * * * * * * * * * * * * * * * * * * * * * * * * * * * * * * * * * //

dimensions      [1 -1 -3 -1 0 0 0];

internalField   nonuniform List<scalar> 
114
(
-3.81024e+06
-2.16264e+06
-3.99281e+06
-1.86421e+06
-4.79216e+06
-3.44623e+06
0
0
0
0
0
0
0
0
0
0
0
0
0
0
0
-1.94185e+06
-3.39566e+06
-1.82478e+06
-3.46068e+06
-1.71753e+06
-3.68562e+06
-1.56029e+06
-3.5191e+06
-1.99565e+06
0
0
0
0
0
0
0
0
0
0
0
0
0
0
0
0
0
0
0
0
-2.37525e+06
-3.65409e+06
-2.5989e+06
-3.92193e+06
-2.34721e+06
-4.04008e+06
-1.99857e+06
-4.54578e+06
-2.58374e+06
0
0
0
0
0
0
0
0
0
0
0
0
0
0
0
0
0
0
0
0
0
0
-5.09144e+06
-7.51511e+06
-5.53271e+06
-8.11362e+06
-5.65223e+06
-8.9731e+06
-5.4174e+06
-1.10206e+07
-5.97078e+06
-2.08034e+06
-3.35013e+06
-2.10273e+06
-3.55931e+06
-1.77223e+06
-3.31287e+06
-1.26464e+06
-3.22473e+06
-3.08837e+06
-2.26381e+06
-3.46902e+06
-2.13031e+06
-3.42715e+06
-1.63233e+06
-3.28384e+06
-1.17614e+06
-3.0823e+06
-1.16413e+06
-2.03902e+06
-3.21092e+06
-1.73486e+06
-3.17907e+06
-1.32962e+06
-3.15282e+06
)
;

boundaryField
{
    inlet
    {
        type            calculated;
        value           nonuniform 0();
    }
    outlet
    {
        type            calculated;
        value           uniform 0;
    }
    wall
    {
        type            calculated;
        value           uniform 0;
    }
    procBoundary5to1
    {
        type            processor;
        value           uniform 0;
    }
    procBoundary5to4
    {
        type            processor;
        value           uniform 0;
    }
    procBoundary5to7
    {
        type            processor;
        value           uniform 0;
    }
}


// ************************************************************************* //
