/*--------------------------------*- C++ -*----------------------------------*\
| =========                 |                                                 |
| \\      /  F ield         | OpenFOAM: The Open Source CFD Toolbox           |
|  \\    /   O peration     | Version:  4.x                                   |
|   \\  /    A nd           | Web:      www.OpenFOAM.org                      |
|    \\/     M anipulation  |                                                 |
\*---------------------------------------------------------------------------*/
FoamFile
{
    version     2.0;
    format      ascii;
    class       volVectorField;
    location    "4.5";
    object      UsNext;
}
// * * * * * * * * * * * * * * * * * * * * * * * * * * * * * * * * * * * * * //

dimensions      [0 1 -1 0 0 0 0];

internalField   nonuniform List<vector> 
114
(
(-5.3101e-07 1.24105e-07 2.34793e-07)
(-3.74818e-07 9.80909e-08 1.71873e-07)
(-3.29119e-07 1.46477e-07 2.58525e-07)
(-1.33185e-07 1.85561e-08 1.37635e-07)
(-1.09808e-07 4.16674e-08 2.97058e-08)
(-2.42218e-06 2.5023e-07 5.97228e-08)
(-5.08206e-07 2.21159e-07 4.94571e-07)
(-4.35361e-07 1.53917e-07 4.99343e-07)
(-2.12452e-07 2.11683e-07 4.13892e-07)
(-1.96969e-08 2.30587e-07 4.12345e-07)
(6.79883e-08 9.11702e-08 4.52398e-07)
(3.73809e-10 8.29748e-08 2.8233e-08)
(-9.13203e-08 1.85747e-07 -8.1682e-08)
(-3.60505e-07 4.29159e-07 2.889e-07)
(-4.35265e-07 2.48712e-07 5.65615e-07)
(-2.74772e-07 9.23722e-08 7.58735e-07)
(-1.22065e-07 2.39102e-07 6.56477e-07)
(1.26089e-07 3.88194e-07 5.28313e-07)
(3.36896e-07 2.71032e-07 3.57993e-07)
(2.82764e-07 1.86354e-07 1.21151e-07)
(1.41423e-07 3.8629e-07 7.87942e-08)
(-2.58693e-07 5.01356e-08 7.21075e-08)
(-3.61727e-07 2.43455e-08 1.21505e-07)
(-3.85727e-07 1.02733e-07 1.71335e-07)
(-2.78879e-07 6.71692e-08 1.25452e-07)
(-1.9414e-07 1.33607e-07 4.85272e-08)
(-6.2175e-08 5.03155e-08 1.53467e-07)
(-6.0792e-08 5.1744e-08 9.95514e-08)
(-6.89903e-08 5.33041e-08 3.44063e-08)
(-7.50279e-08 1.07061e-07 1.48309e-08)
(-4.77432e-07 6.02767e-08 2.38376e-08)
(-1.05206e-06 -6.63106e-07 2.25011e-07)
(-3.57689e-07 1.816e-07 3.06181e-07)
(-2.29987e-07 2.7682e-07 2.59913e-07)
(-1.6305e-08 2.43792e-07 2.52622e-07)
(1.10911e-07 2.16382e-07 2.18867e-07)
(8.25978e-08 2.08049e-07 2.2612e-07)
(6.20325e-08 1.68944e-07 3.54192e-08)
(1.05378e-08 1.45939e-07 1.12125e-08)
(-3.73221e-07 4.89605e-07 -2.18594e-07)
(-3.43587e-07 2.55591e-07 2.89333e-07)
(-3.18624e-07 2.33065e-07 4.0172e-07)
(-1.17913e-07 3.6328e-07 4.46696e-07)
(1.53738e-07 3.57695e-07 4.22467e-07)
(3.50311e-07 3.02197e-07 3.22046e-07)
(5.1252e-07 3.13357e-07 2.26618e-07)
(4.66726e-07 2.58799e-07 6.27302e-08)
(1.28966e-07 1.14932e-07 3.31515e-08)
(-5.67049e-07 4.12269e-07 -2.865e-08)
(-5.52372e-07 3.33868e-07 2.86075e-07)
(-3.0414e-07 8.56703e-08 3.43575e-08)
(-3.18055e-07 -6.02762e-09 3.87708e-08)
(-3.16974e-07 3.65287e-08 5.72184e-08)
(-5.77196e-07 -2.58216e-07 4.56984e-07)
(-2.9154e-07 9.35221e-08 3.77026e-08)
(-1.64326e-07 6.85224e-08 8.96524e-08)
(-9.50334e-08 5.07229e-08 4.66651e-08)
(-9.31714e-08 1.54901e-08 2.2164e-08)
(-1.02635e-07 9.04248e-08 1.23333e-08)
(-2.41329e-07 3.55107e-07 -8.8001e-08)
(-2.88766e-07 6.59312e-08 6.17652e-08)
(-2.31969e-07 6.57675e-08 1.82173e-07)
(-1.15636e-06 -2.21502e-07 1.50499e-07)
(-6.58279e-08 2.3596e-07 5.29078e-08)
(1.33966e-08 1.88635e-07 1.93646e-07)
(-7.10124e-09 1.13956e-07 8.67875e-08)
(-3.91837e-08 9.73741e-08 1.81931e-08)
(-6.37625e-08 1.12152e-07 -1.52845e-08)
(-8.11637e-07 4.08331e-07 -2.03316e-07)
(-6.82849e-07 2.60789e-07 1.43484e-07)
(-3.42072e-07 1.65226e-07 2.86481e-07)
(-1.50738e-07 2.06675e-07 3.02299e-07)
(2.70779e-07 2.59106e-07 1.63243e-07)
(3.31946e-07 1.91064e-07 2.05295e-07)
(3.7067e-07 2.23639e-07 1.3595e-07)
(2.17096e-07 1.72694e-07 5.11968e-08)
(1.03955e-07 1.10047e-07 3.68825e-08)
(-1.25912e-06 4.07879e-07 -1.07781e-07)
(-9.01323e-07 3.90541e-07 -9.34685e-09)
(-6.49053e-07 2.42043e-07 1.32389e-07)
(-4.08214e-08 8.84951e-08 3.25063e-07)
(-3.2388e-07 7.74158e-08 1.88776e-08)
(-3.98811e-07 3.92041e-08 7.15385e-09)
(-5.62958e-07 -8.95198e-08 -8.96725e-09)
(-6.15236e-07 -1.81465e-07 2.65606e-07)
(-3.68137e-07 5.69194e-08 -8.91754e-09)
(-1.0357e-07 6.84921e-08 8.54775e-07)
(-8.35204e-08 2.46081e-08 1.87721e-08)
(-8.83268e-08 -3.78415e-10 1.23865e-08)
(-7.35789e-08 1.31533e-08 1.51926e-08)
(-2.88265e-07 2.86841e-07 -7.82867e-08)
(-3.14431e-07 1.44637e-07 -6.74316e-09)
(-3.60947e-06 9.77066e-07 9.25458e-07)
(-2.81111e-06 -7.89485e-07 8.67353e-08)
(-1.03341e-06 -5.61683e-07 3.21908e-08)
(-8.77818e-08 1.04474e-07 1.2509e-06)
(-3.64355e-08 1.00949e-07 5.25502e-08)
(-4.47533e-08 1.73506e-08 1.04379e-08)
(-6.7515e-08 1.75178e-08 -5.81925e-09)
(-7.14067e-07 1.71885e-07 -1.06835e-07)
(-5.29625e-07 3.0512e-07 -5.56116e-08)
(-7.35838e-07 3.41899e-07 6.38797e-08)
(-7.88825e-07 -8.40854e-08 1.09485e-07)
(-2.42175e-07 -1.73074e-07 5.52985e-08)
(2.03247e-07 1.53028e-07 1.11466e-07)
(1.46845e-07 1.1711e-07 5.31895e-08)
(8.51074e-08 5.77294e-08 2.53333e-08)
(1.25476e-08 1.06835e-08 6.8344e-09)
(-9.40364e-07 1.44868e-07 6.34299e-08)
(-5.85517e-07 1.6129e-07 1.16151e-08)
(-6.2393e-07 1.40873e-07 3.52057e-08)
(-1.00108e-07 1.17846e-07 8.36479e-08)
(1.83316e-07 3.97559e-08 1.3598e-07)
(2.9658e-07 1.11586e-07 1.63716e-07)
)
;

boundaryField
{
    inlet
    {
        type            calculated;
        value           nonuniform 0();
    }
    outlet
    {
        type            calculated;
        value           nonuniform List<vector> 
12
(
(-2.42218e-06 2.5023e-07 5.97228e-08)
(-9.13203e-08 1.85747e-07 -8.1682e-08)
(1.41423e-07 3.8629e-07 7.87942e-08)
(-7.50279e-08 1.07061e-07 1.48309e-08)
(1.05378e-08 1.45939e-07 1.12125e-08)
(1.28966e-07 1.14932e-07 3.31515e-08)
(-1.02635e-07 9.04248e-08 1.23333e-08)
(-6.37625e-08 1.12152e-07 -1.52845e-08)
(1.03955e-07 1.10047e-07 3.68825e-08)
(-7.35789e-08 1.31533e-08 1.51926e-08)
(-6.7515e-08 1.75178e-08 -5.81925e-09)
(1.25476e-08 1.06835e-08 6.8344e-09)
)
;
    }
    wall
    {
        type            calculated;
        value           nonuniform List<vector> 
66
(
(-3.2388e-07 7.74158e-08 1.88776e-08)
(-2.88265e-07 2.86841e-07 -7.82867e-08)
(-7.14067e-07 1.71885e-07 -1.06835e-07)
(-9.40364e-07 1.44868e-07 6.34299e-08)
(-3.98811e-07 3.92041e-08 7.15385e-09)
(-3.14431e-07 1.44637e-07 -6.74316e-09)
(-5.29625e-07 3.0512e-07 -5.56116e-08)
(-5.85517e-07 1.6129e-07 1.16151e-08)
(-5.62958e-07 -8.95198e-08 -8.96725e-09)
(-3.60947e-06 9.77066e-07 9.25458e-07)
(-7.35838e-07 3.41899e-07 6.38797e-08)
(-6.2393e-07 1.40873e-07 3.52057e-08)
(-6.15236e-07 -1.81465e-07 2.65606e-07)
(-2.81111e-06 -7.89485e-07 8.67353e-08)
(-7.88825e-07 -8.40854e-08 1.09485e-07)
(-1.00108e-07 1.17846e-07 8.36479e-08)
(-3.68137e-07 5.69194e-08 -8.91754e-09)
(-1.03341e-06 -5.61683e-07 3.21908e-08)
(-2.42175e-07 -1.73074e-07 5.52985e-08)
(1.83316e-07 3.97559e-08 1.3598e-07)
(-1.0357e-07 6.84921e-08 8.54775e-07)
(-8.77818e-08 1.04474e-07 1.2509e-06)
(2.03247e-07 1.53028e-07 1.11466e-07)
(2.9658e-07 1.11586e-07 1.63716e-07)
(-8.35204e-08 2.46081e-08 1.87721e-08)
(-3.64355e-08 1.00949e-07 5.25502e-08)
(1.46845e-07 1.1711e-07 5.31895e-08)
(-8.83268e-08 -3.78415e-10 1.23865e-08)
(-4.47533e-08 1.73506e-08 1.04379e-08)
(8.51074e-08 5.77294e-08 2.53333e-08)
(-7.35789e-08 1.31533e-08 1.51926e-08)
(-6.7515e-08 1.75178e-08 -5.81925e-09)
(1.25476e-08 1.06835e-08 6.8344e-09)
(-2.58693e-07 5.01356e-08 7.21075e-08)
(-3.0414e-07 8.56703e-08 3.43575e-08)
(-3.2388e-07 7.74158e-08 1.88776e-08)
(-3.61727e-07 2.43455e-08 1.21505e-07)
(-3.18055e-07 -6.02762e-09 3.87708e-08)
(-3.98811e-07 3.92041e-08 7.15385e-09)
(-3.85727e-07 1.02733e-07 1.71335e-07)
(-3.16974e-07 3.65287e-08 5.72184e-08)
(-5.62958e-07 -8.95198e-08 -8.96725e-09)
(-5.3101e-07 1.24105e-07 2.34793e-07)
(-2.78879e-07 6.71692e-08 1.25452e-07)
(-5.77196e-07 -2.58216e-07 4.56984e-07)
(-6.15236e-07 -1.81465e-07 2.65606e-07)
(-3.74818e-07 9.80909e-08 1.71873e-07)
(-1.9414e-07 1.33607e-07 4.85272e-08)
(-2.9154e-07 9.35221e-08 3.77026e-08)
(-3.68137e-07 5.69194e-08 -8.91754e-09)
(-3.29119e-07 1.46477e-07 2.58525e-07)
(-6.2175e-08 5.03155e-08 1.53467e-07)
(-1.64326e-07 6.85224e-08 8.96524e-08)
(-1.0357e-07 6.84921e-08 8.54775e-07)
(-1.33185e-07 1.85561e-08 1.37635e-07)
(-6.0792e-08 5.1744e-08 9.95514e-08)
(-9.50334e-08 5.07229e-08 4.66651e-08)
(-8.35204e-08 2.46081e-08 1.87721e-08)
(-1.09808e-07 4.16674e-08 2.97058e-08)
(-6.89903e-08 5.33041e-08 3.44063e-08)
(-9.31714e-08 1.54901e-08 2.2164e-08)
(-8.83268e-08 -3.78415e-10 1.23865e-08)
(-2.42218e-06 2.5023e-07 5.97228e-08)
(-7.50279e-08 1.07061e-07 1.48309e-08)
(-1.02635e-07 9.04248e-08 1.23333e-08)
(-7.35789e-08 1.31533e-08 1.51926e-08)
)
;
    }
    procBoundary5to1
    {
        type            processor;
        value           nonuniform List<vector> 
32
(
(-9.09724e-07 3.07291e-07 2.91183e-07)
(-7.59225e-07 2.76198e-07 3.79782e-07)
(-5.01724e-07 1.37721e-07 3.32651e-07)
(-4.15214e-07 2.8647e-08 2.04043e-07)
(-3.31508e-07 8.40846e-08 1.67862e-08)
(-2.39151e-07 2.16191e-07 -1.03452e-07)
(-7.03308e-07 2.9099e-07 7.09085e-07)
(-8.14717e-07 7.74045e-08 5.35766e-07)
(-6.06669e-07 2.66687e-07 6.58536e-07)
(-6.55503e-07 -1.79327e-07 9.33145e-07)
(-5.09827e-07 4.58235e-10 4.88632e-07)
(-4.93189e-07 5.2222e-08 8.02843e-08)
(-2.47832e-07 4.26536e-08 -1.53274e-07)
(-2.53081e-07 2.98895e-07 5.77754e-07)
(-4.17304e-07 2.63996e-07 8.28207e-07)
(-5.74686e-07 7.90063e-08 9.3046e-07)
(-5.7053e-07 9.10592e-08 9.37357e-07)
(-3.59161e-07 1.98933e-07 8.07621e-07)
(-3.11857e-07 3.07896e-08 5.76941e-07)
(-1.25725e-07 1.26818e-07 2.13476e-07)
(-1.90514e-07 -5.66277e-08 4.47356e-08)
(-1.32834e-07 3.01015e-08 1.30854e-07)
(-5.37694e-07 -2.49856e-08 1.31231e-07)
(-4.7598e-07 1.33077e-07 3.1678e-07)
(-4.7598e-07 1.33077e-07 3.1678e-07)
(-4.7598e-07 1.33077e-07 3.1678e-07)
(-1.52829e-07 1.95683e-07 1.33532e-07)
(-5.35941e-07 3.33086e-07 4.49842e-07)
(-5.35941e-07 3.33086e-07 4.49842e-07)
(-5.35941e-07 3.33086e-07 4.49842e-07)
(1.12174e-07 5.766e-07 -2.73185e-07)
(1.12174e-07 5.766e-07 -2.73185e-07)
)
;
    }
    procBoundary5to4
    {
        type            processor;
        value           nonuniform List<vector> 
12
(
(-3.12351e-07 2.58207e-07 1.21273e-07)
(-2.11444e-07 6.3958e-07 1.16821e-08)
(-1.8749e-07 3.66325e-07 -2.82943e-07)
(-4.25303e-07 5.17817e-07 -2.84051e-07)
(-1.7561e-08 1.06609e-07 -2.90091e-08)
(6.3176e-08 3.79443e-07 -1.70117e-07)
(-3.31477e-07 4.58094e-07 -2.69669e-07)
(-1.2131e-06 5.81388e-07 -1.59127e-07)
(-8.97042e-08 7.68981e-08 -2.84749e-09)
(-7.52319e-08 2.53985e-07 -1.32535e-07)
(-4.98376e-07 3.32094e-07 -1.08677e-07)
(-1.07204e-06 4.28226e-07 -1.20907e-07)
)
;
    }
    procBoundary5to7
    {
        type            processor;
        value           nonuniform List<vector> 
44
(
(-3.36502e-07 4.87549e-07 3.69195e-07)
(-3.92284e-07 2.81195e-07 6.24321e-07)
(-3.4166e-07 6.56419e-08 7.86246e-07)
(-3.27738e-08 1.97261e-07 8.31229e-07)
(5.60398e-07 4.17046e-07 8.7323e-07)
(6.05148e-07 2.51497e-07 4.34268e-07)
(6.78856e-07 1.92718e-07 9.5646e-08)
(1.93536e-07 2.61533e-08 7.47365e-08)
(-1.82535e-07 6.34413e-07 -6.58131e-08)
(-3.36502e-07 4.87549e-07 3.69195e-07)
(-3.88344e-07 2.05166e-07 3.1463e-07)
(-2.72209e-07 2.87719e-08 4.31666e-07)
(1.78721e-07 -2.34991e-08 3.18956e-07)
(6.44871e-07 2.75326e-07 5.15072e-07)
(8.42724e-07 2.96913e-07 2.74067e-07)
(8.89133e-07 2.51879e-07 1.14004e-07)
(6.86591e-07 1.76149e-07 2.49419e-07)
(-5.49187e-07 3.31212e-07 1.45182e-07)
(-3.88344e-07 2.05166e-07 3.1463e-07)
(-5.58771e-07 3.88311e-07 2.16963e-07)
(-3.88344e-07 2.05166e-07 3.1463e-07)
(-2.72209e-07 2.87719e-08 4.31666e-07)
(2.04268e-07 -4.2416e-08 1.50378e-07)
(5.38711e-07 1.85942e-07 2.85089e-07)
(5.57298e-07 2.03132e-07 1.77097e-07)
(4.91944e-07 1.77061e-07 1.05144e-07)
(2.31503e-07 1.01473e-07 6.48024e-08)
(-8.6014e-07 3.18437e-07 7.38785e-08)
(-7.88685e-07 3.01877e-07 2.2288e-07)
(-7.03927e-07 3.73885e-07 4.64943e-07)
(2.04268e-07 -4.2416e-08 1.50378e-07)
(-6.52414e-08 5.34344e-08 3.00247e-07)
(2.04268e-07 -4.2416e-08 1.50378e-07)
(5.38711e-07 1.85942e-07 2.85089e-07)
(3.21267e-07 1.5305e-07 1.06779e-07)
(3.40788e-07 2.22691e-08 9.17064e-08)
(3.99522e-08 -2.40479e-08 -1.40499e-09)
(-9.0453e-07 2.13634e-07 5.68094e-08)
(-8.52207e-07 1.02091e-07 -4.54079e-10)
(-5.59071e-07 6.71221e-08 2.29515e-08)
(-7.5922e-08 -2.30712e-08 2.48646e-08)
(1.20147e-07 1.15822e-07 5.7363e-08)
(3.21267e-07 1.5305e-07 1.06779e-07)
(3.07432e-07 1.15347e-07 1.22369e-07)
)
;
    }
}


// ************************************************************************* //
