/*--------------------------------*- C++ -*----------------------------------*\
| =========                 |                                                 |
| \\      /  F ield         | OpenFOAM: The Open Source CFD Toolbox           |
|  \\    /   O peration     | Version:  4.x                                   |
|   \\  /    A nd           | Web:      www.OpenFOAM.org                      |
|    \\/     M anipulation  |                                                 |
\*---------------------------------------------------------------------------*/
FoamFile
{
    version     2.0;
    format      ascii;
    class       volScalarField;
    location    "1";
    object      Deff;
}
// * * * * * * * * * * * * * * * * * * * * * * * * * * * * * * * * * * * * * //

dimensions      [0 2 -1 0 0 0 0];

internalField   nonuniform List<scalar> 
132
(
9.79351e-08
9.78855e-08
9.79243e-08
9.7799e-08
9.76092e-08
9.75753e-08
9.76121e-08
9.77306e-08
9.76356e-08
9.80171e-08
9.7854e-08
9.78866e-08
9.78372e-08
9.77067e-08
9.77407e-08
9.7661e-08
9.76967e-08
9.76455e-08
9.81941e-08
9.79912e-08
9.79726e-08
9.79032e-08
9.77803e-08
9.76861e-08
9.76668e-08
9.77018e-08
9.76791e-08
9.83083e-08
9.80843e-08
9.79468e-08
9.8013e-08
9.78666e-08
9.7805e-08
9.77254e-08
9.78298e-08
9.79605e-08
9.78e-08
9.76753e-08
9.7644e-08
9.75839e-08
9.74958e-08
9.752e-08
9.75854e-08
9.80185e-08
9.77762e-08
9.77332e-08
9.76932e-08
9.75815e-08
9.7609e-08
9.75859e-08
9.75469e-08
9.76321e-08
9.80408e-08
9.78094e-08
9.77976e-08
9.77988e-08
9.76435e-08
9.75494e-08
9.74915e-08
9.75824e-08
9.75939e-08
9.81319e-08
9.78838e-08
9.78748e-08
9.78079e-08
9.77235e-08
9.77181e-08
9.7647e-08
9.76499e-08
9.78293e-08
9.76418e-08
9.7616e-08
9.75431e-08
9.75883e-08
9.76432e-08
9.78618e-08
9.77739e-08
9.77065e-08
9.77353e-08
9.75677e-08
9.76104e-08
9.75491e-08
9.75e-08
9.75741e-08
9.79241e-08
9.78225e-08
9.77452e-08
9.77262e-08
9.76019e-08
9.76058e-08
9.75379e-08
9.7583e-08
9.75929e-08
9.80896e-08
9.79202e-08
9.78166e-08
9.77808e-08
9.77576e-08
9.77546e-08
9.76217e-08
9.7683e-08
9.77983e-08
9.76644e-08
9.76578e-08
9.77041e-08
9.79214e-08
9.78759e-08
9.77123e-08
9.76904e-08
9.77242e-08
9.7792e-08
9.76427e-08
9.76435e-08
9.77328e-08
9.79046e-08
9.7893e-08
9.78381e-08
9.77872e-08
9.77094e-08
9.77148e-08
9.76299e-08
9.76752e-08
9.77015e-08
9.80056e-08
9.78854e-08
9.79099e-08
9.78634e-08
9.77734e-08
9.77455e-08
9.77049e-08
9.77769e-08
9.79659e-08
)
;

boundaryField
{
    inlet
    {
        type            calculated;
        value           nonuniform 0();
    }
    outlet
    {
        type            calculated;
        value           uniform 0;
    }
    wall
    {
        type            calculated;
        value           uniform 0;
    }
    procBoundary7to0
    {
        type            processor;
        value           uniform 0;
    }
    procBoundary7to1
    {
        type            processor;
        value           uniform 0;
    }
    procBoundary7to3
    {
        type            processor;
        value           uniform 0;
    }
    procBoundary7to5
    {
        type            processor;
        value           uniform 0;
    }
    procBoundary7to6
    {
        type            processor;
        value           uniform 0;
    }
}


// ************************************************************************* //
