/*--------------------------------*- C++ -*----------------------------------*\
| =========                 |                                                 |
| \\      /  F ield         | OpenFOAM: The Open Source CFD Toolbox           |
|  \\    /   O peration     | Version:  4.x                                   |
|   \\  /    A nd           | Web:      www.OpenFOAM.org                      |
|    \\/     M anipulation  |                                                 |
\*---------------------------------------------------------------------------*/
FoamFile
{
    version     2.0;
    format      ascii;
    class       volScalarField;
    location    "1";
    object      nu;
}
// * * * * * * * * * * * * * * * * * * * * * * * * * * * * * * * * * * * * * //

dimensions      [0 2 -1 0 0 0 0];

internalField   nonuniform List<scalar> 
132
(
9.99672e-07
9.99656e-07
9.99515e-07
9.99414e-07
9.99231e-07
9.99217e-07
9.99371e-07
9.99617e-07
9.97279e-07
9.99689e-07
9.99551e-07
9.99377e-07
9.99198e-07
9.99167e-07
9.99297e-07
9.99516e-07
9.99624e-07
9.9966e-07
9.99708e-07
9.99551e-07
9.99352e-07
9.99229e-07
9.99263e-07
9.99298e-07
9.99384e-07
9.99575e-07
9.99598e-07
1.00006e-06
9.99984e-07
9.99914e-07
9.99839e-07
9.998e-07
9.99782e-07
9.99758e-07
9.99745e-07
9.94306e-07
9.99351e-07
9.99266e-07
9.99314e-07
9.99473e-07
9.99658e-07
9.99842e-07
1.00004e-06
9.99519e-07
9.99356e-07
9.99257e-07
9.99306e-07
9.99449e-07
9.99594e-07
9.99719e-07
9.99825e-07
9.99979e-07
9.99685e-07
9.99517e-07
9.99346e-07
9.99302e-07
9.99373e-07
9.99463e-07
9.99553e-07
9.99647e-07
9.99873e-07
9.99994e-07
9.99948e-07
9.999e-07
9.99852e-07
9.99843e-07
9.9983e-07
9.99783e-07
9.99704e-07
9.99466e-07
9.99362e-07
9.99455e-07
9.99603e-07
9.99769e-07
1.00001e-06
9.99608e-07
9.99427e-07
9.99339e-07
9.99352e-07
9.99437e-07
9.99511e-07
9.99681e-07
9.99836e-07
1.00003e-06
9.9971e-07
9.99648e-07
9.99645e-07
9.99556e-07
9.99569e-07
9.99543e-07
9.99591e-07
9.99693e-07
9.99955e-07
1.00004e-06
1.00001e-06
9.99975e-07
9.99939e-07
9.99901e-07
9.99841e-07
9.99724e-07
9.99638e-07
9.99957e-07
9.99799e-07
9.99797e-07
9.97988e-07
9.99998e-07
9.99918e-07
9.99861e-07
9.99825e-07
9.99751e-07
9.99585e-07
9.99429e-07
9.99533e-07
9.99592e-07
1.00006e-06
1.00003e-06
9.99992e-07
9.9994e-07
9.99866e-07
9.99744e-07
9.99619e-07
9.99608e-07
9.99648e-07
1.00017e-06
1.00014e-06
1.00012e-06
1.00009e-06
1.00006e-06
1.00002e-06
9.99981e-07
9.99937e-07
9.9817e-07
)
;

boundaryField
{
    inlet
    {
        type            calculated;
        value           nonuniform 0();
    }
    outlet
    {
        type            calculated;
        value           uniform 1e-06;
    }
    wall
    {
        type            calculated;
        value           nonuniform List<scalar> 
66
(
9.99998e-07
1.00006e-06
1.00017e-06
9.99918e-07
1.00003e-06
1.00014e-06
9.99861e-07
9.99992e-07
1.00012e-06
9.99825e-07
9.9994e-07
1.00009e-06
9.99751e-07
9.99866e-07
1.00006e-06
9.99585e-07
9.99744e-07
1.00002e-06
9.99799e-07
9.99429e-07
9.99619e-07
9.99981e-07
9.99797e-07
9.99533e-07
9.99608e-07
9.99937e-07
9.97988e-07
9.99592e-07
9.99648e-07
9.9817e-07
1.00006e-06
9.99994e-07
1.00004e-06
1.00017e-06
9.99984e-07
9.99948e-07
1.00001e-06
1.00014e-06
9.99914e-07
9.999e-07
9.99975e-07
1.00012e-06
9.99839e-07
9.99852e-07
9.99939e-07
1.00009e-06
9.998e-07
9.99843e-07
9.99901e-07
1.00006e-06
9.99782e-07
9.9983e-07
9.99841e-07
1.00002e-06
9.99758e-07
9.99783e-07
9.99724e-07
9.99981e-07
9.99745e-07
9.99704e-07
9.99638e-07
9.99937e-07
9.94306e-07
9.99466e-07
9.99957e-07
9.9817e-07
)
;
    }
    procBoundary7to0
    {
        type            processor;
        value           uniform 9.99688e-07;
    }
    procBoundary7to1
    {
        type            processor;
        value           uniform 9.99428e-07;
    }
    procBoundary7to3
    {
        type            processor;
        value           nonuniform List<scalar> 
36
(
9.99738e-07
9.99544e-07
9.99253e-07
9.99122e-07
9.99091e-07
9.99172e-07
9.99321e-07
9.99465e-07
9.98102e-07
9.9957e-07
9.99391e-07
9.99237e-07
9.99112e-07
9.99058e-07
9.99145e-07
9.99342e-07
9.99436e-07
9.98899e-07
9.99631e-07
9.99419e-07
9.99289e-07
9.99202e-07
9.99134e-07
9.99187e-07
9.99325e-07
9.99454e-07
9.99176e-07
1.00013e-06
1.00001e-06
9.99924e-07
9.99844e-07
9.99775e-07
9.99711e-07
9.99596e-07
9.99517e-07
9.98671e-07
)
;
    }
    procBoundary7to5
    {
        type            processor;
        value           nonuniform List<scalar> 
44
(
9.99293e-07
9.9921e-07
9.99235e-07
9.99342e-07
9.99499e-07
9.99627e-07
9.99693e-07
9.99787e-07
9.99655e-07
9.99523e-07
9.9926e-07
9.99277e-07
9.99362e-07
9.99496e-07
9.99643e-07
9.99736e-07
9.99958e-07
9.99655e-07
9.99523e-07
9.99523e-07
9.99412e-07
9.99335e-07
9.99384e-07
9.99458e-07
9.99584e-07
9.99684e-07
9.99842e-07
9.99738e-07
9.99537e-07
9.99412e-07
9.99335e-07
9.99335e-07
9.99856e-07
9.99833e-07
9.99787e-07
9.99705e-07
9.99406e-07
1.00005e-06
9.99984e-07
9.99935e-07
9.99891e-07
9.99856e-07
9.99833e-07
9.99833e-07
)
;
    }
    procBoundary7to6
    {
        type            processor;
        value           nonuniform List<scalar> 
12
(
9.99755e-07
9.99704e-07
1.00014e-06
9.9965e-07
9.99775e-07
1.00008e-06
9.99696e-07
9.99661e-07
1.0001e-06
1.00007e-06
1.0001e-06
1.00021e-06
)
;
    }
}


// ************************************************************************* //
