/*--------------------------------*- C++ -*----------------------------------*\
| =========                 |                                                 |
| \\      /  F ield         | OpenFOAM: The Open Source CFD Toolbox           |
|  \\    /   O peration     | Version:  4.x                                   |
|   \\  /    A nd           | Web:      www.OpenFOAM.org                      |
|    \\/     M anipulation  |                                                 |
\*---------------------------------------------------------------------------*/
FoamFile
{
    version     2.0;
    format      ascii;
    class       volScalarField;
    location    "1";
    object      partTemp;
}
// * * * * * * * * * * * * * * * * * * * * * * * * * * * * * * * * * * * * * //

dimensions      [0 0 0 1 0 0 0];

internalField   nonuniform List<scalar> 
132
(
300.01
300.014
300.016
300.013
300.004
299.989
299.971
299.954
299.942
300.007
300.013
300.015
300.014
300.006
299.996
299.98
299.961
299.948
300.003
300.009
300.011
300.011
300.007
299.999
299.988
299.975
299.962
300.003
300.005
300.007
300.007
300.006
300.002
299.995
299.985
299.978
300.012
300.01
300.004
299.992
299.976
299.958
299.945
300.005
300.008
300.011
300.01
300.005
299.994
299.979
299.963
299.951
300.002
300.005
300.007
300.008
300.005
299.998
299.988
299.973
299.965
300
300.003
300.005
300.005
300.004
300.001
299.996
299.986
299.981
300.004
299.996
299.983
299.973
299.954
300.001
300.005
300.007
300.006
300.003
299.995
299.983
299.972
299.961
300
300.002
300.004
300.005
300.003
299.998
299.99
299.981
299.971
299.999
300.001
300.002
300.003
300.002
300
299.996
299.989
299.983
299.99
299.98
299.972
299.999
300.002
300.004
300.004
300.002
299.997
299.992
299.982
299.975
299.998
300
300.002
300.003
300.002
299.999
299.994
299.987
299.981
299.999
300
300.001
300.002
300.001
300
299.997
299.993
299.989
)
;

boundaryField
{
    inlet
    {
        type            zeroGradient;
    }
    outlet
    {
        type            zeroGradient;
    }
    wall
    {
        type            zeroGradient;
    }
    procBoundary7to0
    {
        type            processor;
        value           uniform 300.006;
    }
    procBoundary7to1
    {
        type            processor;
        value           uniform 300.009;
    }
    procBoundary7to3
    {
        type            processor;
        value           nonuniform List<scalar> 
36
(
300.012
300.016
300.016
300.012
300.001
299.99
299.974
299.955
299.948
300.01
300.015
300.015
300.012
300.006
299.992
299.976
299.961
299.952
300.007
300.009
300.012
300.012
300.006
299.996
299.986
299.972
299.963
300.004
300.004
300.007
300.007
300.006
300.001
299.993
299.984
299.976
)
;
    }
    procBoundary7to5
    {
        type            processor;
        value           nonuniform List<scalar> 
44
(
300.013
300.014
300.011
300.005
299.994
299.978
299.961
299.944
300.006
300.01
300.011
300.009
300.003
299.994
299.98
299.962
299.949
300.006
300.01
300.01
300.007
300.007
300.003
299.996
299.987
299.973
299.961
300.001
300.005
300.007
300.007
300.007
300.003
299.997
299.992
299.983
299.976
299.999
300.002
300.004
300.004
300.003
299.997
299.997
)
;
    }
    procBoundary7to6
    {
        type            processor;
        value           nonuniform List<scalar> 
12
(
300.002
300.001
300
300
299.997
299.998
299.998
299.997
299.997
299.996
299.997
299.997
)
;
    }
}


// ************************************************************************* //
