/*--------------------------------*- C++ -*----------------------------------*\
| =========                 |                                                 |
| \\      /  F ield         | OpenFOAM: The Open Source CFD Toolbox           |
|  \\    /   O peration     | Version:  4.x                                   |
|   \\  /    A nd           | Web:      www.OpenFOAM.org                      |
|    \\/     M anipulation  |                                                 |
\*---------------------------------------------------------------------------*/
FoamFile
{
    version     2.0;
    format      ascii;
    class       surfaceScalarField;
    location    "1";
    object      phi;
}
// * * * * * * * * * * * * * * * * * * * * * * * * * * * * * * * * * * * * * //

dimensions      [0 3 -1 0 0 0 0];

internalField   nonuniform List<scalar> 
308
(
7.32469e-06
4.12726e-07
7.29808e-06
1.39548e-06
7.18806e-06
9.1118e-07
5.71201e-07
5.40466e-06
1.86731e-07
-1.369e-06
-3.29948e-07
1.87885e-06
5.32078e-07
-3.07315e-06
3.91438e-07
-1.46748e-06
-7.74055e-06
5.09381e-07
2.58964e-06
-1.50144e-06
-3.23318e-07
-8.38499e-06
-3.68479e-06
-6.12472e-07
3.69146e-06
8.64103e-07
5.24543e-07
2.34755e-06
2.83291e-06
-1.16681e-07
1.69281e-06
1.72752e-06
6.71035e-07
-2.56659e-06
2.96636e-06
-3.01655e-07
-4.76631e-06
3.36986e-06
-1.40741e-06
-6.50801e-06
1.48106e-06
-1.98706e-06
-6.66541e-06
1.68232e-06
-4.3997e-06
-1.04899e-07
-9.67006e-06
-3.84697e-06
1.94609e-05
-2.69952e-06
4.55509e-06
2.44524e-06
7.46845e-08
4.09785e-06
3.93723e-06
7.32528e-07
4.0911e-06
2.91714e-06
2.00756e-07
3.21208e-06
4.18686e-06
-1.00967e-06
3.9894e-06
2.74135e-06
-3.87685e-07
5.7755e-06
1.52156e-06
-4.97559e-06
1.01626e-05
1.57114e-06
-3.87265e-06
1.04436e-05
-1.01247e-05
-8.12707e-06
3.33912e-05
1.71097e-06
2.89252e-05
7.15732e-06
3.24046e-05
7.36066e-06
3.60031e-05
7.34095e-06
4.08493e-05
6.26248e-06
4.62219e-05
4.53095e-06
5.09088e-05
2.22499e-06
6.10841e-05
-3.11733e-06
5.07129e-05
-2.69091e-06
-1.79396e-05
-8.8966e-07
1.46315e-06
-5.85731e-06
1.94776e-06
-8.93985e-06
5.51689e-07
7.32788e-07
-1.0044e-05
-1.62756e-07
-1.77215e-07
-7.92323e-06
-2.52775e-06
4.77364e-06
-6.65127e-07
-1.29774e-07
-1.04856e-05
-2.31333e-06
1.833e-05
3.3277e-07
1.25798e-06
1.49154e-06
-2.73262e-06
2.60639e-06
8.94563e-07
-4.93421e-06
2.33372e-06
1.786e-06
-7.63967e-06
3.58334e-06
5.87171e-07
-9.63758e-06
1.6169e-06
-6.23036e-07
-1.01609e-05
-2.47521e-07
-1.50139e-06
-1.10173e-05
-4.10837e-06
-2.0645e-06
-6.3259e-06
-6.75653e-06
-2.00171e-06
1.92219e-06
-7.45278e-07
3.76417e-06
1.72236e-06
-1.55939e-07
3.01971e-06
3.44401e-06
3.49428e-07
2.79304e-06
2.4927e-06
2.21363e-08
3.19763e-06
3.33576e-06
-1.36752e-06
3.67812e-06
1.03903e-06
-4.51873e-07
3.97255e-06
-7.97266e-07
-4.85055e-06
3.00212e-06
-3.47576e-06
-3.64317e-06
3.46703e-06
-9.09851e-06
-6.34435e-06
5.65205e-06
6.77388e-06
2.89675e-05
5.9796e-06
3.29409e-05
6.52028e-06
3.67974e-05
5.71588e-06
4.1627e-05
4.55695e-06
4.46293e-05
2.39898e-06
4.5172e-05
7.50368e-07
4.14217e-05
-2.95368e-06
3.19146e-05
-2.37987e-06
-9.82375e-06
-2.6439e-06
-2.44367e-06
-2.56756e-06
-6.37327e-07
5.23127e-06
-7.13863e-06
4.65133e-06
9.27906e-06
6.13794e-07
-8.14393e-06
8.33631e-07
3.21768e-05
8.56271e-07
2.83618e-07
1.88637e-06
-8.27125e-07
5.48604e-07
2.02367e-06
-1.28518e-06
1.88249e-07
1.77033e-06
-2.17276e-06
5.69733e-07
8.76302e-07
-3.27499e-06
-1.34259e-06
-7.49018e-07
-3.77823e-06
-1.38827e-06
-3.55446e-07
-5.79725e-06
-7.55287e-06
2.75792e-07
-1.15554e-06
-4.80481e-06
-1.30732e-06
2.92088e-06
5.44644e-06
2.3142e-06
2.65701e-07
5.17969e-07
2.19504e-06
6.19382e-07
1.97107e-07
3.22366e-06
-1.57705e-07
-8.453e-07
3.45234e-06
3.70878e-07
-1.55822e-06
4.93311e-06
-1.48374e-06
-1.92776e-06
5.69021e-06
-3.56946e-06
-3.54077e-06
8.76975e-07
-6.31242e-06
-1.68201e-07
5.27242e-07
-7.25169e-06
-3.63461e-06
5.83956e-06
9.96498e-06
3.03285e-05
3.46169e-06
3.36149e-05
3.64004e-06
3.59035e-05
3.0747e-06
3.79675e-05
2.69605e-06
3.65175e-05
2.22461e-06
3.12382e-05
2.34263e-06
1.89319e-05
2.93919e-06
6.90458e-06
2.30617e-06
1.04732e-05
5.63747e-05
-1.56926e-06
4.658e-05
3.13264e-06
-1.71635e-05
1.83153e-05
1.48501e-06
1.72807e-05
2.17941e-06
1.62034e-05
1.398e-06
1.34369e-05
1.14572e-06
1.01609e-05
-1.5521e-08
8.21165e-06
-1.75127e-07
8.02144e-06
-1.19171e-06
1.02129e-05
-4.44702e-07
-1.4015e-05
2.40472e-05
5.26906e-07
2.50435e-05
1.22107e-06
2.44567e-05
9.85012e-07
2.22516e-05
1.65266e-06
1.93013e-05
8.8453e-07
1.49421e-05
5.37288e-07
1.43877e-05
-8.97794e-07
1.46805e-05
-4.45496e-06
2.70083e-06
3.89482e-05
4.36407e-05
4.75385e-05
5.17412e-05
5.47236e-05
5.74941e-05
5.94404e-05
5.72061e-05
)
;

boundaryField
{
    inlet
    {
        type            calculated;
        value           nonuniform 0();
    }
    outlet
    {
        type            calculated;
        value           nonuniform List<scalar> 
16
(
6.02336e-06
-1.81051e-05
-3.41101e-06
0.000117871
-1.56446e-05
-1.25989e-05
-5.41402e-06
2.93603e-05
-6.62022e-06
-9.51165e-06
-5.66388e-06
-7.63679e-06
0.000110176
1.24369e-05
7.85136e-06
7.03006e-05
)
;
    }
    wall
    {
        type            calculated;
        value           nonuniform List<scalar> 
66
(
0
0
0
0
0
0
0
0
0
0
0
0
0
0
0
0
0
0
0
0
0
0
0
0
0
0
0
0
0
0
0
0
0
-3.9443e-31
0
0
0
0
0
0
0
0
5.04871e-29
0
0
0
0
0
-2.52435e-29
0
0
0
0
0
0
0
0
0
-6.31089e-30
0
0
0
0
0
0
0
)
;
    }
    procBoundary7to0
    {
        type            processor;
        value           uniform -5.73258e-06;
    }
    procBoundary7to1
    {
        type            processor;
        value           uniform -2.8024e-07;
    }
    procBoundary7to3
    {
        type            processor;
        value           nonuniform List<scalar> 
36
(
-2.16778e-06
-2.82498e-06
-3.04264e-06
1.00578e-06
3.45579e-08
3.07368e-06
5.75739e-07
9.48855e-06
-4.22786e-06
-1.19901e-06
-3.43566e-07
-1.12316e-06
1.55409e-06
1.93789e-06
2.49822e-06
3.26928e-06
6.53357e-06
-2.53785e-06
-1.90691e-06
-1.82177e-06
-1.72213e-06
4.10234e-07
4.23478e-08
2.99746e-06
-5.24801e-07
8.19653e-06
-1.88316e-06
-7.74807e-06
-7.37513e-06
-8.38558e-06
-7.19614e-06
-7.36809e-06
-5.54709e-06
-5.61207e-06
2.83012e-06
-1.59267e-05
)
;
    }
    procBoundary7to5
    {
        type            processor;
        value           nonuniform List<scalar> 
44
(
-2.39854e-07
1.43528e-06
1.76742e-06
3.13303e-06
6.18092e-07
8.85485e-07
-7.11265e-06
9.12442e-07
1.40436e-07
1.41825e-06
1.13956e-06
1.62273e-06
2.19767e-06
-1.36124e-07
-1.87308e-06
-5.1123e-06
-1.72801e-06
-1.08718e-06
-2.1519e-06
-7.99626e-07
8.28504e-07
-1.28467e-07
1.10026e-06
-8.49999e-07
-6.25646e-07
-7.08026e-06
1.14736e-06
-3.22512e-07
-1.70932e-07
1.19462e-07
3.07759e-06
-1.1761e-07
1.52696e-06
1.13282e-06
-3.02721e-06
-1.55459e-06
-1.43231e-05
1.58388e-07
7.37428e-07
1.31008e-06
2.36861e-06
2.42792e-06
-4.72099e-05
1.66832e-06
)
;
    }
    procBoundary7to6
    {
        type            processor;
        value           nonuniform List<scalar> 
12
(
-3.90588e-06
-4.85895e-06
-2.64691e-05
-1.73115e-06
-4.31427e-06
-2.64063e-05
-1.37999e-06
-3.16652e-06
-2.77547e-05
-1.81987e-05
-2.27156e-05
-3.51134e-05
)
;
    }
}


// ************************************************************************* //
