/*--------------------------------*- C++ -*----------------------------------*\
| =========                 |                                                 |
| \\      /  F ield         | OpenFOAM: The Open Source CFD Toolbox           |
|  \\    /   O peration     | Version:  4.x                                   |
|   \\  /    A nd           | Web:      www.OpenFOAM.org                      |
|    \\/     M anipulation  |                                                 |
\*---------------------------------------------------------------------------*/
FoamFile
{
    version     2.0;
    format      ascii;
    class       volScalarField;
    location    "1";
    object      pSmooth;
}
// * * * * * * * * * * * * * * * * * * * * * * * * * * * * * * * * * * * * * //

dimensions      [1 -1 -2 0 0 0 0];

internalField   nonuniform List<scalar> 
132
(
802.664
782.688
513.866
533.621
231.63
307.635
0.1
133.068
0.1
811.652
796.055
525.19
548.551
244.332
327.006
4.3918
151.143
0.1
798.678
770.618
503.41
519.254
223.944
303.894
0.190953
137.49
0.1
803.237
770.843
513.981
537.007
242.573
328.889
6.5954
190.027
0.1
511.78
535.04
231.733
314.613
0.1
145.462
0.1
813.048
795.824
527.885
552.731
242.797
320.016
6.46406
148.929
0.1
791.335
766.123
499.69
521.909
218.703
302.13
0.800012
150.541
0.1
797.851
769.543
512.798
529.79
239.544
326.069
24.6205
181.732
0.1
222.529
306.394
0.1
126.183
0.1
799.274
780.305
516.877
534.587
225.223
323.717
0.1
146.093
0.1
781.251
746.798
489.736
529.597
224.837
315.9
1.21408
145.399
0.1
791.492
757.638
513.658
541.068
248.77
337.867
20.979
166.52
0.1
0.1
193.249
0.1
801.594
771.331
507.655
538.042
242.465
335.091
0.647569
158.177
0.1
785.328
759.622
510.747
531.838
231.172
320.912
0.13229
174.266
0.1
800.958
765.128
510.309
528.642
239.377
319.186
13.9508
209.2
0.1
)
;

boundaryField
{
    inlet
    {
        type            zeroGradient;
    }
    outlet
    {
        type            fixedValue;
        value           uniform 0;
    }
    wall
    {
        type            zeroGradient;
    }
    procBoundary7to0
    {
        type            processor;
        value           uniform 1029.53;
    }
    procBoundary7to1
    {
        type            processor;
        value           uniform 821.354;
    }
    procBoundary7to3
    {
        type            processor;
        value           nonuniform List<scalar> 
36
(
817.656
797.211
523.162
536.832
234.672
304.871
5.19985
132.111
0.1
832.034
811.054
537.257
555.606
242.018
322.453
7.79863
153.547
0.1
822.563
787.176
514.629
527.412
222.42
305.24
4.958
135.123
0.1
827.021
784.756
529.989
538.172
240.22
326.819
13.9276
164.949
0.1
)
;
    }
    procBoundary7to5
    {
        type            processor;
        value           nonuniform List<scalar> 
44
(
798.386
524.125
548.311
233.954
318.134
0.1
150.767
0.1
799.678
779.575
536.604
553.946
238.778
320.354
0.1
148.723
0.1
799.678
779.575
779.575
493.299
530.165
220.518
314.467
0.1
154.546
0.1
788.61
757.755
493.299
530.165
530.165
232.148
328.995
3.63148
184.502
0.1
776.552
752.698
510.685
532.8
232.148
328.995
328.995
)
;
    }
    procBoundary7to6
    {
        type            processor;
        value           nonuniform List<scalar> 
12
(
1035.91
1031.49
1021.79
1042.96
1027.82
1030.91
1030.25
1008.65
1009.62
1033.53
1010.64
1023.16
)
;
    }
}


// ************************************************************************* //
