/*--------------------------------*- C++ -*----------------------------------*\
| =========                 |                                                 |
| \\      /  F ield         | OpenFOAM: The Open Source CFD Toolbox           |
|  \\    /   O peration     | Version:  4.x                                   |
|   \\  /    A nd           | Web:      www.OpenFOAM.org                      |
|    \\/     M anipulation  |                                                 |
\*---------------------------------------------------------------------------*/
FoamFile
{
    version     2.0;
    format      ascii;
    class       volScalarField;
    location    "1";
    object      QPartFluidCoeff;
}
// * * * * * * * * * * * * * * * * * * * * * * * * * * * * * * * * * * * * * //

dimensions      [1 -1 -3 -1 0 0 0];

internalField   nonuniform List<scalar> 
132
(
-2.75979e+07
-2.80001e+07
-1.71067e+07
-2.18425e+07
-4.0298e+07
-3.78684e+07
-3.70001e+07
-2.34209e+07
-2.07099e+07
-2.13918e+07
-3.0063e+07
-1.9098e+07
-2.05366e+07
-3.21653e+07
-1.71961e+07
-3.28327e+07
-2.34183e+07
-2.22318e+07
-2.19766e+07
-3.25151e+07
-2.55096e+07
-3.35819e+07
-2.85438e+07
-4.26433e+07
-3.69398e+07
-3.90965e+07
-4.19813e+07
-2.43067e+07
-3.64052e+07
-4.63605e+07
-2.98806e+07
-4.59204e+07
-4.45747e+07
-5.11741e+07
-4.52317e+07
-2.40061e+07
-1.74645e+07
-2.29629e+07
-2.56715e+07
-2.71113e+07
-3.81649e+07
-3.19725e+07
-1.91254e+07
-1.1142e+07
-2.2899e+07
-2.4017e+07
-2.2044e+07
-2.95928e+07
-2.35521e+07
-2.77427e+07
-2.81566e+07
-1.61356e+07
-2.14977e+07
-3.64464e+07
-3.06505e+07
-2.41065e+07
-3.29423e+07
-4.1107e+07
-4.31356e+07
-3.32166e+07
-2.57184e+07
-2.80846e+07
-4.40886e+07
-3.81509e+07
-4.29464e+07
-4.82314e+07
-3.90171e+07
-4.46953e+07
-4.88402e+07
-2.91551e+07
-1.72917e+07
-2.14865e+07
-2.92413e+07
-3.15836e+07
-2.55131e+07
-2.78237e+07
-2.26291e+07
-2.30941e+07
-1.7319e+07
-2.74049e+07
-2.43392e+07
-2.92462e+07
-3.19693e+07
-2.40326e+07
-3.15085e+07
-3.39108e+07
-3.38088e+07
-3.41174e+07
-4.03072e+07
-3.73614e+07
-3.85246e+07
-3.12303e+07
-2.72887e+07
-2.95228e+07
-3.53482e+07
-3.87857e+07
-4.2593e+07
-3.83124e+07
-3.80059e+07
-4.50304e+07
-3.26512e+07
-2.53567e+07
-3.7707e+07
-4.61345e+07
-3.03389e+07
-3.02338e+07
-2.8732e+07
-3.05166e+07
-3.50376e+07
-1.91386e+07
-1.79563e+07
-2.40291e+07
-3.1371e+07
-2.52045e+07
-3.64796e+07
-2.98075e+07
-2.88157e+07
-3.52417e+07
-3.36165e+07
-2.999e+07
-2.96501e+07
-3.30361e+07
-2.7565e+07
-3.47069e+07
-4.05017e+07
-3.34507e+07
-4.11592e+07
-4.77185e+07
-3.94609e+07
-4.08573e+07
-4.17039e+07
-2.70583e+07
)
;

boundaryField
{
    inlet
    {
        type            calculated;
        value           nonuniform 0();
    }
    outlet
    {
        type            calculated;
        value           uniform 0;
    }
    wall
    {
        type            calculated;
        value           uniform 0;
    }
    procBoundary7to0
    {
        type            processor;
        value           uniform 165.593;
    }
    procBoundary7to1
    {
        type            processor;
        value           uniform 394.762;
    }
    procBoundary7to3
    {
        type            processor;
        value           nonuniform List<scalar> 
36
(
578.373
758.656
755.943
896.96
752.862
612.774
1098.85
690.819
579.427
675.151
406.104
631.507
393.657
516.414
725.181
815.282
801.643
359.445
496.688
851.136
788.468
550.127
575.672
786.801
662.695
752.523
513.747
792.897
577.233
624.224
759.083
777.526
949.931
752.681
919.383
959.587
)
;
    }
    procBoundary7to5
    {
        type            processor;
        value           nonuniform List<scalar> 
44
(
592.547
503.55
609.044
551.449
401.487
711.76
449.532
564.225
614.131
278.529
583.779
578.778
560.979
509.173
688.809
583.903
335.658
614.131
278.529
278.529
751.886
652.829
924.378
755.612
811.972
914.654
782.143
306.953
802.543
751.886
652.829
652.829
1284.83
998.2
813.208
849.042
815.329
739.168
646.092
797.075
790.811
1284.83
998.2
998.2
)
;
    }
    procBoundary7to6
    {
        type            processor;
        value           nonuniform List<scalar> 
12
(
478.266
678.172
557.509
556.297
705.057
867.27
670.672
776.646
701.627
413.319
707.108
733.056
)
;
    }
}


// ************************************************************************* //
