/*--------------------------------*- C++ -*----------------------------------*\
| =========                 |                                                 |
| \\      /  F ield         | OpenFOAM: The Open Source CFD Toolbox           |
|  \\    /   O peration     | Version:  4.x                                   |
|   \\  /    A nd           | Web:      www.OpenFOAM.org                      |
|    \\/     M anipulation  |                                                 |
\*---------------------------------------------------------------------------*/
FoamFile
{
    version     2.0;
    format      ascii;
    class       volScalarField;
    location    "1";
    object      QWallFluid;
}
// * * * * * * * * * * * * * * * * * * * * * * * * * * * * * * * * * * * * * //

dimensions      [1 -1 -3 0 0 0 0];

internalField   nonuniform List<scalar> 
132
(
0
0
0
0
0
0
0
0
0
0
0
0
0
0
0
0
0
0
0
0
0
0
0
0
0
0
0
1.50582e+09
1.9587e+09
1.84056e+09
2.30848e+09
2.23124e+09
2.77659e+09
2.57216e+09
3.64876e+09
2.06259e+09
0
0
0
0
0
0
0
0
0
0
0
0
0
0
0
0
0
0
0
0
0
0
0
0
0
1.49792e+09
1.93182e+09
1.86453e+09
2.29877e+09
2.24886e+09
2.57832e+09
2.29574e+09
2.35626e+09
2.15915e+09
0
0
0
0
0
0
0
0
0
0
0
0
0
0
0
0
0
0
0
0
0
0
0
1.51313e+09
1.96429e+09
1.82642e+09
2.20392e+09
1.99586e+09
2.13394e+09
1.52352e+09
1.11794e+09
9.64488e+08
2.39854e+09
3.40217e+09
1.92133e+09
8.57076e+08
1.38822e+09
7.40615e+08
1.33621e+09
4.11128e+08
1.05439e+09
2.03531e+08
1.12988e+09
1.93548e+09
1.17498e+09
1.65973e+09
1.28908e+09
1.65928e+09
1.06076e+09
1.42339e+09
4.98509e+08
1.45763e+09
7.59641e+08
3.79361e+09
4.63874e+09
4.64446e+09
5.39957e+09
5.34712e+09
5.98983e+09
5.77452e+09
6.41471e+09
5.38563e+09
)
;

boundaryField
{
    inlet
    {
        type            calculated;
        value           nonuniform 0();
    }
    outlet
    {
        type            calculated;
        value           uniform 0;
    }
    wall
    {
        type            calculated;
        value           uniform 0;
    }
    procBoundary7to0
    {
        type            processor;
        value           uniform 0;
    }
    procBoundary7to1
    {
        type            processor;
        value           uniform 0;
    }
    procBoundary7to3
    {
        type            processor;
        value           nonuniform List<scalar> 
36
(
0
0
0
0
0
0
0
0
0
0
0
0
0
0
0
0
0
0
0
0
0
0
0
0
0
0
0
1.33156e+09
1.82214e+09
1.69067e+09
2.17493e+09
1.98431e+09
2.40601e+09
1.9143e+09
2.46722e+09
2.31871e+09
)
;
    }
    procBoundary7to5
    {
        type            processor;
        value           nonuniform List<scalar> 
44
(
0
0
0
0
0
0
0
0
0
0
0
0
0
0
0
0
0
0
0
0
0
0
0
0
0
0
0
0
0
0
0
0
2.02533e+09
2.6028e+09
1.82606e+09
2.0398e+09
2.01317e+09
1.38527e+09
1.83301e+09
1.64471e+09
2.14767e+09
2.02533e+09
2.6028e+09
2.6028e+09
)
;
    }
    procBoundary7to6
    {
        type            processor;
        value           nonuniform List<scalar> 
12
(
0
0
1.63397e+09
0
0
1.61587e+09
0
0
1.66983e+09
1.32356e+09
1.47121e+09
3.85268e+09
)
;
    }
}


// ************************************************************************* //
