/*--------------------------------*- C++ -*----------------------------------*\
| =========                 |                                                 |
| \\      /  F ield         | OpenFOAM: The Open Source CFD Toolbox           |
|  \\    /   O peration     | Version:  4.x                                   |
|   \\  /    A nd           | Web:      www.OpenFOAM.org                      |
|    \\/     M anipulation  |                                                 |
\*---------------------------------------------------------------------------*/
FoamFile
{
    version     2.0;
    format      ascii;
    class       volScalarField;
    location    "1";
    object      rho;
}
// * * * * * * * * * * * * * * * * * * * * * * * * * * * * * * * * * * * * * //

dimensions      [1 -3 0 0 0 0 0];

internalField   nonuniform List<scalar> 
132
(
6702.2
6702.31
6703.25
6703.93
6705.16
6705.25
6704.21
6702.57
6718.28
6702.08
6703.01
6704.18
6705.37
6705.58
6704.71
6703.24
6702.52
6702.28
6701.96
6703.01
6704.34
6705.17
6704.94
6704.71
6704.13
6702.85
6702.69
6699.59
6700.11
6700.58
6701.08
6701.34
6701.46
6701.62
6701.71
6738.37
6704.35
6704.92
6704.6
6703.53
6702.29
6701.06
6699.75
6703.22
6704.31
6704.98
6704.65
6703.69
6702.72
6701.88
6701.17
6700.14
6702.11
6703.24
6704.38
6704.68
6704.21
6703.6
6703
6702.37
6700.85
6700.04
6700.35
6700.67
6700.99
6701.05
6701.14
6701.45
6701.98
6703.58
6704.28
6703.65
6702.66
6701.55
6699.93
6702.63
6703.84
6704.43
6704.35
6703.78
6703.28
6702.14
6701.1
6699.79
6701.94
6702.36
6702.38
6702.98
6702.89
6703.06
6702.74
6702.06
6700.3
6699.74
6699.96
6700.17
6700.41
6700.66
6701.07
6701.85
6702.43
6700.29
6701.35
6701.36
6713.51
6700.02
6700.55
6700.93
6701.17
6701.67
6702.78
6703.83
6703.13
6702.74
6699.63
6699.83
6700.05
6700.4
6700.9
6701.71
6702.55
6702.63
6702.36
6698.84
6699.03
6699.2
6699.41
6699.62
6699.85
6700.12
6700.42
6712.28
)
;

boundaryField
{
    inlet
    {
        type            calculated;
        value           nonuniform 0();
    }
    outlet
    {
        type            calculated;
        value           uniform 6700;
    }
    wall
    {
        type            calculated;
        value           nonuniform List<scalar> 
66
(
6700.02
6699.63
6698.84
6700.55
6699.83
6699.03
6700.93
6700.05
6699.2
6701.17
6700.4
6699.41
6701.67
6700.9
6699.62
6702.78
6701.71
6699.85
6701.35
6703.83
6702.55
6700.12
6701.36
6703.13
6702.63
6700.42
6713.51
6702.74
6702.36
6712.28
6699.59
6700.04
6699.74
6698.84
6700.11
6700.35
6699.96
6699.03
6700.58
6700.67
6700.17
6699.2
6701.08
6700.99
6700.41
6699.41
6701.34
6701.05
6700.66
6699.62
6701.46
6701.14
6701.07
6699.85
6701.62
6701.45
6701.85
6700.12
6701.71
6701.98
6702.43
6700.42
6738.37
6703.58
6700.29
6712.28
)
;
    }
    procBoundary7to0
    {
        type            processor;
        value           uniform 6702.09;
    }
    procBoundary7to1
    {
        type            processor;
        value           uniform 6703.83;
    }
    procBoundary7to3
    {
        type            processor;
        value           nonuniform List<scalar> 
36
(
6701.76
6703.06
6705.01
6705.89
6706.09
6705.55
6704.55
6703.59
6712.74
6702.88
6704.08
6705.11
6705.95
6706.32
6705.73
6704.41
6703.78
6707.38
6702.47
6703.89
6704.77
6705.35
6705.81
6705.45
6704.52
6703.66
6705.53
6699.12
6699.92
6700.51
6701.04
6701.51
6701.93
6702.71
6703.24
6708.91
)
;
    }
    procBoundary7to5
    {
        type            processor;
        value           nonuniform List<scalar> 
44
(
6704.74
6705.3
6705.13
6704.41
6703.36
6702.5
6702.06
6701.43
6702.31
6703.19
6704.96
6704.85
6704.28
6703.38
6702.4
6701.77
6700.28
6702.31
6703.19
6703.19
6703.94
6704.46
6704.13
6703.63
6702.79
6702.12
6701.06
6701.76
6703.1
6703.94
6704.46
6704.46
6700.97
6701.12
6701.43
6701.97
6703.98
6699.7
6700.11
6700.44
6700.73
6700.97
6701.12
6701.12
)
;
    }
    procBoundary7to6
    {
        type            processor;
        value           nonuniform List<scalar> 
12
(
6701.64
6701.99
6699.09
6702.35
6701.51
6699.48
6702.04
6702.27
6699.34
6699.52
6699.33
6698.62
)
;
    }
}


// ************************************************************************* //
