/*--------------------------------*- C++ -*----------------------------------*\
| =========                 |                                                 |
| \\      /  F ield         | OpenFOAM: The Open Source CFD Toolbox           |
|  \\    /   O peration     | Version:  4.x                                   |
|   \\  /    A nd           | Web:      www.OpenFOAM.org                      |
|    \\/     M anipulation  |                                                 |
\*---------------------------------------------------------------------------*/
FoamFile
{
    version     2.0;
    format      ascii;
    class       volScalarField;
    location    "1";
    object      Sm;
}
// * * * * * * * * * * * * * * * * * * * * * * * * * * * * * * * * * * * * * //

dimensions      [1 -3 -1 0 0 0 0];

internalField   nonuniform List<scalar> 
132
(
9.68158e-65
8.2202e-65
6.1921e-65
7.11963e-65
1.0581e-64
1.02496e-64
7.99621e-65
5.49592e-65
7.99022e-65
7.64284e-65
9.31482e-65
7.1291e-65
7.35985e-65
8.48756e-65
5.64398e-65
7.4245e-65
6.2076e-65
7.79758e-65
5.52293e-65
7.33353e-65
6.01113e-65
7.42074e-65
7.56199e-65
8.14479e-65
7.47492e-65
7.11259e-65
8.39085e-65
5.12806e-65
7.2346e-65
8.87995e-65
5.60953e-65
7.31708e-65
6.67949e-65
8.04729e-65
5.86047e-65
4.29869e-65
6.25765e-65
7.65042e-65
6.37316e-65
6.94041e-65
8.47249e-65
8.22541e-65
7.17472e-65
3.96701e-65
8.50449e-65
7.73591e-65
7.49153e-65
8.2374e-65
6.64479e-65
5.96693e-65
7.49291e-65
5.62484e-65
5.81966e-65
8.48311e-65
7.2469e-65
5.76789e-65
7.3906e-65
8.52183e-65
9.16179e-65
6.88118e-65
7.87442e-65
5.58442e-65
8.23505e-65
6.14359e-65
7.23427e-65
7.38602e-65
6.20884e-65
6.5766e-65
7.93183e-65
5.29566e-65
5.05341e-65
5.79416e-65
7.28116e-65
5.94062e-65
5.62945e-65
7.98752e-65
7.15818e-65
7.00774e-65
5.06169e-65
8.70412e-65
6.959e-65
7.13058e-65
8.53035e-65
7.38815e-65
7.0538e-65
7.14147e-65
7.61721e-65
6.9991e-65
8.31458e-65
7.20305e-65
7.71721e-65
6.89119e-65
7.68243e-65
5.2698e-65
6.20711e-65
7.22128e-65
6.9131e-65
6.0577e-65
5.34951e-65
7.57992e-65
6.70669e-65
6.05705e-65
5.47451e-65
6.37041e-65
6.02558e-65
6.89532e-65
5.81984e-65
7.69263e-65
7.46224e-65
5.20308e-65
3.79539e-65
6.93681e-65
6.59266e-65
5.34695e-65
7.74643e-65
6.04824e-65
6.05287e-65
6.212e-65
6.90954e-65
6.27631e-65
7.1859e-65
6.47005e-65
7.20801e-65
6.7401e-65
7.36539e-65
5.66235e-65
5.81978e-65
6.59549e-65
6.51252e-65
6.50308e-65
6.33938e-65
4.09106e-65
)
;

boundaryField
{
    inlet
    {
        type            calculated;
        value           nonuniform 0();
    }
    outlet
    {
        type            calculated;
        value           uniform 0;
    }
    wall
    {
        type            calculated;
        value           uniform 0;
    }
    procBoundary7to0
    {
        type            processor;
        value           uniform 2.33787e-65;
    }
    procBoundary7to1
    {
        type            processor;
        value           uniform 5.76821e-65;
    }
    procBoundary7to3
    {
        type            processor;
        value           nonuniform List<scalar> 
36
(
7.76392e-65
9.10278e-65
8.38796e-65
9.14113e-65
6.13408e-65
5.78052e-65
8.84772e-65
6.62894e-65
7.50377e-65
9.0828e-65
5.18023e-65
7.68588e-65
4.4612e-65
4.74992e-65
7.56731e-65
7.19141e-65
8.6304e-65
5.93587e-65
4.99401e-65
8.36605e-65
8.29818e-65
5.71349e-65
6.93796e-65
7.97943e-65
6.62449e-65
7.15892e-65
5.37897e-65
8.01784e-65
4.59725e-65
5.45689e-65
5.9223e-65
5.83834e-65
7.22322e-65
6.03458e-65
7.92861e-65
8.34233e-65
)
;
    }
    procBoundary7to5
    {
        type            processor;
        value           nonuniform List<scalar> 
44
(
8.59675e-65
6.09825e-65
7.49152e-65
5.52181e-65
4.86262e-65
6.87847e-65
5.59847e-65
8.37175e-65
1.00249e-64
4.45183e-65
7.33736e-65
7.64164e-65
6.21283e-65
7.02077e-65
7.0419e-65
6.74308e-65
5.4073e-65
1.00249e-64
4.45183e-65
4.45183e-65
9.10749e-65
8.0204e-65
1.01739e-64
7.35087e-65
8.15205e-65
8.53855e-65
8.30668e-65
3.56836e-65
9.331e-65
9.10749e-65
8.0204e-65
8.0204e-65
9.86239e-65
8.0576e-65
6.4885e-65
6.68373e-65
6.73287e-65
7.20629e-65
5.51013e-65
6.99176e-65
5.82694e-65
9.86239e-65
8.0576e-65
8.0576e-65
)
;
    }
    procBoundary7to6
    {
        type            processor;
        value           nonuniform List<scalar> 
12
(
6.76321e-65
7.21938e-65
5.04326e-65
8.52685e-65
7.57734e-65
7.51174e-65
8.0494e-65
8.20309e-65
5.65189e-65
3.79145e-65
6.578e-65
5.5764e-65
)
;
    }
}


// ************************************************************************* //
