/*--------------------------------*- C++ -*----------------------------------*\
| =========                 |                                                 |
| \\      /  F ield         | OpenFOAM: The Open Source CFD Toolbox           |
|  \\    /   O peration     | Version:  4.x                                   |
|   \\  /    A nd           | Web:      www.OpenFOAM.org                      |
|    \\/     M anipulation  |                                                 |
\*---------------------------------------------------------------------------*/
FoamFile
{
    version     2.0;
    format      ascii;
    class       volScalarField;
    location    "1";
    object      thCond;
}
// * * * * * * * * * * * * * * * * * * * * * * * * * * * * * * * * * * * * * //

dimensions      [1 1 -3 -1 0 0 0];

internalField   nonuniform List<scalar> 
132
(
190.109
190.013
190.088
189.845
189.477
189.411
189.482
189.712
189.528
190.269
189.952
190.015
189.919
189.666
189.732
189.577
189.647
189.547
190.612
190.218
190.182
190.047
189.809
189.626
189.588
189.656
189.612
190.834
190.399
190.132
190.26
189.976
189.857
189.702
189.905
190.159
189.847
189.605
189.544
189.428
189.256
189.304
189.43
190.271
189.801
189.717
189.64
189.423
189.476
189.431
189.356
189.521
190.315
189.865
189.842
189.845
189.543
189.361
189.248
189.425
189.447
190.491
190.01
189.992
189.862
189.698
189.688
189.55
189.556
189.904
189.54
189.49
189.348
189.436
189.543
189.967
189.796
189.666
189.722
189.396
189.479
189.36
189.265
189.409
190.088
189.891
189.741
189.704
189.462
189.47
189.338
189.426
189.445
190.409
190.08
189.879
189.81
189.765
189.759
189.501
189.62
189.844
189.584
189.571
189.661
190.083
189.994
189.677
189.634
189.7
189.832
189.542
189.543
189.717
190.05
190.028
189.921
189.822
189.671
189.682
189.517
189.605
189.656
190.246
190.013
190.06
189.97
189.795
189.741
189.662
189.802
190.169
)
;

boundaryField
{
    inlet
    {
        type            zeroGradient;
    }
    outlet
    {
        type            zeroGradient;
    }
    wall
    {
        type            zeroGradient;
    }
    procBoundary7to0
    {
        type            processor;
        value           uniform 190.893;
    }
    procBoundary7to1
    {
        type            processor;
        value           uniform 190.451;
    }
    procBoundary7to3
    {
        type            processor;
        value           nonuniform List<scalar> 
36
(
190.619
190.428
190.349
190.202
190.294
190.196
189.909
190.049
190.055
190.629
190.682
190.465
190.641
190.513
190.158
189.989
189.892
190.103
190.966
190.653
190.547
190.666
190.429
190.132
190.127
190.042
190.201
191.016
191.133
190.941
190.82
190.587
190.32
190.285
190.085
190.108
)
;
    }
    procBoundary7to5
    {
        type            processor;
        value           nonuniform List<scalar> 
44
(
190.164
190.245
190.003
189.991
189.921
189.726
189.807
189.679
189.9
190.089
189.885
189.699
189.636
189.521
189.448
189.473
189.624
189.9
190.089
190.089
189.493
189.501
189.255
189.344
189.263
189.267
189.358
190.211
189.71
189.493
189.501
189.501
189.239
189.37
189.514
189.501
189.55
190.079
190.005
189.665
189.628
189.239
189.37
189.37
)
;
    }
    procBoundary7to6
    {
        type            processor;
        value           nonuniform List<scalar> 
12
(
190.567
190.613
190.98
190.13
190.229
190.451
190.06
190.143
190.523
190.443
190.365
190.599
)
;
    }
}


// ************************************************************************* //
