/*--------------------------------*- C++ -*----------------------------------*\
| =========                 |                                                 |
| \\      /  F ield         | OpenFOAM: The Open Source CFD Toolbox           |
|  \\    /   O peration     | Version:  4.x                                   |
|   \\  /    A nd           | Web:      www.OpenFOAM.org                      |
|    \\/     M anipulation  |                                                 |
\*---------------------------------------------------------------------------*/
FoamFile
{
    version     2.0;
    format      ascii;
    class       volScalarField;
    location    "5";
    object      Deff;
}
// * * * * * * * * * * * * * * * * * * * * * * * * * * * * * * * * * * * * * //

dimensions      [0 2 -1 0 0 0 0];

internalField   nonuniform List<scalar> 
132
(
9.98432e-08
9.97614e-08
9.97007e-08
9.96443e-08
9.95339e-08
9.94286e-08
9.93861e-08
9.94979e-08
9.96059e-08
9.9707e-08
9.95953e-08
9.95228e-08
9.94389e-08
9.94517e-08
9.9288e-08
9.93287e-08
9.93257e-08
9.93346e-08
9.97384e-08
9.94932e-08
9.94296e-08
9.93403e-08
9.93176e-08
9.92863e-08
9.93e-08
9.92652e-08
9.9088e-08
9.96382e-08
9.94738e-08
9.94357e-08
9.95154e-08
9.92469e-08
9.90624e-08
9.90304e-08
9.89829e-08
9.89329e-08
9.89416e-08
9.89584e-08
9.89972e-08
9.93391e-08
9.91008e-08
9.90558e-08
9.89594e-08
9.88894e-08
9.8843e-08
9.88312e-08
9.87966e-08
9.88397e-08
9.92095e-08
9.90155e-08
9.89789e-08
9.89118e-08
9.8805e-08
9.87547e-08
9.86742e-08
9.87901e-08
9.87832e-08
9.90552e-08
9.90353e-08
9.89672e-08
9.88998e-08
9.86402e-08
9.91275e-08
9.89343e-08
9.87753e-08
9.87322e-08
9.8688e-08
9.87042e-08
9.86067e-08
9.86107e-08
9.86916e-08
9.89846e-08
9.88258e-08
9.87319e-08
9.86892e-08
9.85713e-08
9.85852e-08
9.84678e-08
9.84207e-08
9.8517e-08
9.88405e-08
9.87822e-08
9.86522e-08
9.84975e-08
9.8417e-08
9.83951e-08
9.83676e-08
9.84541e-08
9.84887e-08
9.87737e-08
9.86945e-08
9.85627e-08
9.84375e-08
9.83435e-08
9.8315e-08
9.82884e-08
9.9024e-08
9.8845e-08
9.86672e-08
9.86089e-08
9.85116e-08
9.84114e-08
9.84829e-08
9.85142e-08
9.84224e-08
9.88535e-08
9.86217e-08
9.85022e-08
9.84472e-08
9.84143e-08
9.83682e-08
9.82458e-08
9.83039e-08
9.82906e-08
9.88245e-08
9.86605e-08
9.8427e-08
9.83541e-08
9.82564e-08
9.81781e-08
9.81814e-08
9.82689e-08
9.81627e-08
9.87413e-08
9.85706e-08
9.83252e-08
9.81929e-08
9.82794e-08
9.80711e-08
9.8107e-08
9.82353e-08
9.82938e-08
)
;

boundaryField
{
    inlet
    {
        type            calculated;
        value           uniform 0;
    }
    outlet
    {
        type            calculated;
        value           nonuniform 0();
    }
    wall
    {
        type            calculated;
        value           uniform 0;
    }
    procBoundary0to1
    {
        type            processor;
        value           uniform 0;
    }
    procBoundary0to2
    {
        type            processor;
        value           uniform 0;
    }
    procBoundary0to4
    {
        type            processor;
        value           uniform 0;
    }
    procBoundary0to6
    {
        type            processor;
        value           uniform 0;
    }
    procBoundary0to7
    {
        type            processor;
        value           uniform 0;
    }
}


// ************************************************************************* //
