/*--------------------------------*- C++ -*----------------------------------*\
| =========                 |                                                 |
| \\      /  F ield         | OpenFOAM: The Open Source CFD Toolbox           |
|  \\    /   O peration     | Version:  4.x                                   |
|   \\  /    A nd           | Web:      www.OpenFOAM.org                      |
|    \\/     M anipulation  |                                                 |
\*---------------------------------------------------------------------------*/
FoamFile
{
    version     2.0;
    format      ascii;
    class       volScalarField;
    location    "5";
    object      p_rgh;
}
// * * * * * * * * * * * * * * * * * * * * * * * * * * * * * * * * * * * * * //

dimensions      [1 -1 -2 0 0 0 0];

internalField   nonuniform List<scalar> 
132
(
116.061
146.751
182.507
189.419
200.673
156.77
176.013
118.142
177.089
148.472
148.001
186.124
183.96
210.513
177.147
212.101
180.113
251.355
160.57
165.971
191.442
184.679
221.861
204.086
260.244
253.185
337.979
173.619
169.862
195.331
141.355
146.804
178.311
172.819
195.111
158.083
186.516
142.794
216.81
155.797
152.656
182.449
174.738
205.503
177.481
222.693
211.206
292.975
166.26
161.42
188.056
180.368
218.348
204.849
268.872
279.384
393.181
174.623
167.199
192.993
185.378
227.461
155.384
148.865
174.438
164.602
190.535
158.068
189.807
159.073
239.227
160.99
153.208
179.144
170.821
201.873
179.611
229.729
221.056
298.458
167.12
158.921
184.744
177.162
215.331
201.537
267.943
286.286
406.174
172.585
163.886
188.741
181.38
222.942
220.826
299.175
156.706
145.991
166.723
154.645
180.179
150.935
188.9
160.592
236.326
160.051
148.991
171.238
160.495
189.318
167.646
218.14
205.428
267.072
163.666
153.546
176.632
167.421
203.465
188.824
255.937
262.733
336.285
167.195
157.464
181.391
171.953
212.393
207.517
278.652
297.323
390.126
)
;

boundaryField
{
    inlet
    {
        type            fixedFluxPressure;
        gradient        nonuniform List<scalar> 
16
(
-31.4242
-27.2966
-26.7925
-25.3075
-10.3376
-9.6347
-9.41886
-9.26054
-2.94882
-2.93694
-2.81191
-2.78831
0.00063665
0.00262001
0.000787842
0.00115705
)
;
        value           nonuniform List<scalar> 
16
(
115.625
148.093
160.198
173.268
141.211
155.663
166.13
174.494
155.343
160.949
167.081
172.546
156.706
160.051
163.666
167.195
)
;
    }
    outlet
    {
        type            fixedValue;
        value           nonuniform 0();
    }
    wall
    {
        type            fixedFluxPressure;
        gradient        nonuniform List<scalar> 
66
(
-0.000801641
-0.000653656
0.000156446
0.00189988
0.000695102
0.00498406
0.00443714
0.00562993
0.00141542
0.00277993
0.00269031
0.00355555
0.00170445
0.00296633
0.00582678
-0.00047364
0.0020792
0.00444859
0.00628261
0.0143513
0.0321915
0.00807456
-0.000945042
0.00512267
0.0118366
0.021511
0.0983979
0.00310527
0.011956
0.0180547
0.000494605
-2.97685e-07
-0.000964804
-0.00185203
-0.0014785
-0.0058968
-0.00287859
-0.00488099
-0.000920448
-0.0038096
-0.00564866
-0.00368273
-0.00115053
-0.00211708
-0.00429532
-0.000934145
-0.00259672
0.000106772
-0.000617515
-0.000362857
-0.00151142
-0.00379105
-0.00334751
-0.00804855
-0.00458498
-7.16904e-05
-0.00926035
-0.0114192
-7.54016e-05
-0.0107208
-0.0238531
-0.010398
0.00204694
-0.0258855
-0.0147217
-0.0128001
)
;
        value           nonuniform List<scalar> 
66
(
116.061
148.472
160.57
173.62
146.751
148.001
165.972
169.862
182.507
186.124
191.442
195.331
189.419
183.96
184.68
200.673
210.513
221.861
156.77
177.147
204.087
176.013
212.101
260.244
118.143
180.113
253.187
177.089
251.356
337.979
116.061
141.355
155.384
156.706
146.751
146.804
148.865
145.991
182.507
178.311
174.438
166.723
189.419
172.819
164.602
154.645
200.673
195.111
190.535
180.179
156.77
158.083
158.068
150.935
176.013
186.516
189.807
188.899
118.142
142.794
159.073
160.592
177.089
216.81
239.227
236.326
)
;
    }
    procBoundary0to1
    {
        type            processor;
        value           nonuniform List<scalar> 
12
(
213.744
300.905
397.684
247.398
317.713
435.523
253.989
321.852
472.035
227.155
278.205
333.921
)
;
    }
    procBoundary0to2
    {
        type            processor;
        value           nonuniform List<scalar> 
44
(
188.087
228.824
218.454
283.841
284.588
381.449
179.21
171.56
188.087
195.208
188.087
228.824
220.786
294.702
323.955
470.566
178.488
169.928
193.305
184.692
220.786
225.927
220.786
294.702
341.017
500.591
175.189
166.024
189.531
181.069
222.762
219.204
341.017
293.477
341.017
500.591
170.014
159.94
183.013
173.342
212.73
203.054
277.304
287.066
)
;
    }
    procBoundary0to4
    {
        type            processor;
        value           nonuniform List<scalar> 
36
(
155.366
141.885
155.263
144.714
170.463
136.457
176.898
154.376
208.927
158.076
144.823
159.632
150.31
180.779
142.144
184.684
177.759
212.244
159.762
147.382
165.137
150.978
185.914
163.417
206.091
207.469
257.839
161.65
149.732
170.856
162.367
196.288
184.551
234.127
237.113
284.353
)
;
    }
    procBoundary0to6
    {
        type            processor;
        value           uniform 376.158;
    }
    procBoundary0to7
    {
        type            processor;
        value           uniform 429.494;
    }
}


// ************************************************************************* //
