/*--------------------------------*- C++ -*----------------------------------*\
| =========                 |                                                 |
| \\      /  F ield         | OpenFOAM: The Open Source CFD Toolbox           |
|  \\    /   O peration     | Version:  4.x                                   |
|   \\  /    A nd           | Web:      www.OpenFOAM.org                      |
|    \\/     M anipulation  |                                                 |
\*---------------------------------------------------------------------------*/
FoamFile
{
    version     2.0;
    format      ascii;
    class       surfaceScalarField;
    location    "5";
    object      phi;
}
// * * * * * * * * * * * * * * * * * * * * * * * * * * * * * * * * * * * * * //

dimensions      [0 3 -1 0 0 0 0];

internalField   nonuniform List<scalar> 
308
(
1.00065e-05
-5.34337e-07
-1.30891e-06
1.1074e-05
-3.07366e-07
-7.60149e-07
1.25593e-05
-7.24344e-07
-7.60911e-07
1.31488e-05
-4.50421e-07
-1.39134e-07
1.34768e-05
-8.81125e-07
5.53114e-07
1.33895e-05
-6.04925e-07
6.92278e-07
1.30377e-05
-9.97632e-07
1.34942e-06
1.27722e-05
-6.56623e-07
9.22133e-07
-8.62639e-07
1.41056e-06
9.6133e-06
-5.66191e-07
-1.41818e-06
1.0388e-05
-3.75931e-07
-7.06098e-07
1.12738e-05
-7.93933e-07
-8.16242e-07
1.14703e-05
-5.01022e-07
-1.45858e-07
1.09812e-05
-7.96981e-07
4.04916e-07
1.05531e-05
-4.5314e-07
2.76296e-07
9.35918e-06
-6.02188e-07
7.98492e-07
8.9105e-06
-3.25611e-07
1.17669e-07
-4.28839e-07
1.73859e-07
9.41727e-06
-3.75817e-07
-1.44438e-06
9.83515e-06
-1.94115e-07
-5.99694e-07
1.00205e-05
-3.89763e-07
-5.89497e-07
9.79663e-06
-1.22875e-08
8.65671e-06
6.26495e-07
8.21712e-06
1.53454e-07
7.17619e-06
5.21032e-07
6.95483e-06
-3.43101e-08
-2.30069e-07
9.11163e-06
-1.43095e-06
9.4009e-06
-5.85248e-07
-4.86413e-07
8.89634e-06
-6.15507e-07
-1.42648e-06
9.1839e-06
-2.68958e-07
-7.78751e-07
9.92029e-06
-7.58185e-07
-7.39116e-07
1.02597e-05
-3.13731e-07
-1.64782e-07
1.08608e-05
-7.26369e-07
6.78328e-07
1.1153e-05
-3.23511e-07
7.23578e-07
1.14126e-05
-5.82671e-07
1.67257e-06
1.15193e-05
-2.53335e-07
1.06876e-06
-2.78706e-07
1.84771e-06
8.32026e-06
-6.73787e-07
-1.5169e-06
8.26595e-06
-2.63822e-07
-6.56923e-07
8.08787e-06
-7.04845e-07
-6.91503e-07
7.96741e-06
-2.34651e-07
-1.04474e-07
7.53561e-06
-4.66774e-07
5.7712e-07
7.51145e-06
-1.67944e-07
1.44893e-07
7.0394e-06
-1.33857e-07
8.2172e-07
7.03842e-06
-1.39392e-07
4.7066e-09
1.35664e-08
6.95897e-08
7.92115e-06
-3.74912e-07
-1.50114e-06
7.75052e-06
-1.48069e-07
-5.44814e-07
7.32708e-06
-3.41172e-07
-5.2973e-07
7.21108e-06
-1.12261e-07
-1.86833e-08
6.93763e-06
-1.5929e-07
5.92466e-07
6.9062e-06
8.88836e-08
6.747e-06
4.97866e-07
6.69962e-06
-5.49409e-08
-2.82934e-07
7.60658e-06
-1.41297e-06
7.33666e-06
-5.25492e-07
6.6556e-06
-3.47988e-07
6.4576e-06
-1.62077e-08
7.14837e-07
8.39651e-06
-6.18651e-07
-1.04107e-06
8.4708e-06
-2.62558e-07
-5.90486e-07
8.97731e-06
-7.35977e-07
-5.09642e-07
9.2248e-06
-2.57403e-07
-1.54874e-07
9.96796e-06
-6.30723e-07
5.65889e-07
1.03751e-05
-2.14963e-07
5.31389e-07
1.0923e-05
-2.89884e-07
1.41458e-06
1.12554e-05
-1.51967e-07
8.88289e-07
-1.39595e-08
1.68724e-06
7.76887e-06
-6.13476e-07
-1.12767e-06
7.57088e-06
-2.34421e-07
-4.87079e-07
7.21908e-06
-6.12755e-07
-4.62918e-07
7.11712e-06
-1.56223e-07
-1.03696e-07
6.86542e-06
-3.83727e-07
5.81827e-07
6.84723e-06
-7.89636e-08
2.70751e-08
6.76544e-06
-6.22902e-08
6.75921e-07
6.83756e-06
-1.2487e-07
-9.451e-08
1.3977e-07
1.26592e-07
7.37767e-06
-2.7476e-07
-1.05426e-06
7.09809e-06
-1.11749e-07
-3.87908e-07
6.45965e-06
-2.14655e-07
-2.89395e-07
6.36959e-06
-7.16909e-08
-1.31539e-08
6.12552e-06
-8.05425e-08
5.33348e-07
6.15273e-06
-5.04564e-08
3.31664e-08
6.41377e-06
-5.47459e-08
2.29286e-07
6.38063e-06
-6.03266e-08
-1.86576e-07
7.23709e-06
-9.69736e-07
6.88815e-06
-3.77042e-07
6.35449e-06
-2.06845e-07
6.21966e-06
-1.44796e-08
6.15592e-06
6.15253e-07
6.07554e-06
2.0661e-08
5.17848e-07
8.49057e-06
-6.47509e-07
8.62903e-06
-2.92712e-07
9.23508e-06
-7.54743e-07
9.49266e-06
-2.5996e-07
1.02269e-05
-5.94618e-07
1.06629e-05
-2.30771e-07
1.14134e-05
-3.4395e-07
1.18899e-05
-1.68256e-07
-8.96778e-08
7.77144e-06
-6.26414e-07
7.58701e-06
-2.60715e-07
7.3114e-06
-6.4919e-07
7.21279e-06
-1.73878e-07
7.075e-06
-3.66545e-07
6.99555e-06
-1.1149e-07
6.83093e-06
-5.37953e-08
6.76676e-06
-1.06586e-07
1.61769e-07
7.48929e-06
-3.56989e-07
7.22037e-06
-1.37964e-07
6.66865e-06
-2.99434e-07
6.55045e-06
-7.73328e-08
6.30696e-06
-8.62484e-08
6.23523e-06
-4.79023e-08
6.17618e-06
5.87954e-08
6.10848e-06
-6.43579e-08
1.90721e-07
7.36251e-06
7.01188e-06
6.43036e-06
6.2982e-06
6.30918e-06
6.20867e-06
6.34745e-06
6.1682e-06
)
;

boundaryField
{
    inlet
    {
        type            calculated;
        value           nonuniform List<scalar> 
16
(
-8.16327e-06
-8.16327e-06
-8.16327e-06
-8.16327e-06
-8.16327e-06
-8.16327e-06
-8.16327e-06
-8.16327e-06
-8.16327e-06
-8.16327e-06
-8.16327e-06
-8.16327e-06
-8.16327e-06
-8.16327e-06
-8.16327e-06
-8.16327e-06
)
;
    }
    outlet
    {
        type            calculated;
        value           nonuniform 0();
    }
    wall
    {
        type            calculated;
        value           nonuniform List<scalar> 
66
(
0
0
0
0
0
0
0
0
0
0
0
0
0
0
0
0
-1.26218e-29
0
0
0
0
0
0
0
0
0
0
0
0
0
3.15544e-30
0
0
0
0
0
0
0
0
0
0
0
0
0
0
0
0
0
0
0
0
0
0
2.52435e-29
0
0
0
0
0
0
0
0
0
0
0
0
)
;
    }
    procBoundary0to1
    {
        type            processor;
        value           nonuniform List<scalar> 
12
(
1.22243e-05
8.30284e-06
6.74579e-06
1.13608e-05
6.85042e-06
6.55522e-06
1.14299e-05
6.62683e-06
6.25216e-06
1.23906e-05
6.46704e-06
6.06405e-06
)
;
    }
    procBoundary0to2
    {
        type            processor;
        value           nonuniform List<scalar> 
44
(
-2.64887e-07
-2.83549e-07
-1.67012e-07
-8.22927e-08
-6.99382e-08
1.02742e-08
1.06771e-07
1.01865e-07
9.20643e-06
2.91122e-07
2.12671e-08
-6.0916e-07
-7.19468e-08
4.85066e-08
-7.13768e-08
2.10829e-07
1.63796e-07
6.20945e-08
2.01462e-07
8.06722e-08
6.07557e-06
1.1707e-07
-2.54208e-08
-4.93713e-07
-8.63449e-08
1.71883e-07
2.0818e-07
8.87425e-08
1.77865e-07
6.14078e-08
8.27822e-08
3.46891e-08
6.07019e-06
-7.35398e-08
1.01627e-07
-2.35211e-07
6.00983e-08
4.98961e-08
9.20342e-08
3.89718e-08
1.47296e-08
4.13627e-08
-8.74689e-09
6.16979e-08
)
;
    }
    procBoundary0to4
    {
        type            processor;
        value           nonuniform List<scalar> 
36
(
-7.20872e-07
-4.36234e-07
-3.60946e-07
-1.52498e-07
4.26311e-07
3.26141e-07
1.008e-06
5.80056e-07
1.27618e-06
-7.56938e-07
-3.34652e-07
-2.92857e-07
-9.1172e-08
4.91542e-07
-1.27535e-08
5.50387e-07
-9.20088e-08
1.74864e-07
-6.49707e-07
-2.41737e-07
-8.74388e-08
8.50659e-09
4.96541e-07
4.13022e-08
1.75751e-07
-3.4858e-08
-1.71096e-07
-5.86071e-07
-2.14268e-07
-1.6794e-08
1.37883e-09
5.0329e-07
3.19098e-08
4.46609e-07
-4.8437e-08
2.47256e-07
)
;
    }
    procBoundary0to6
    {
        type            processor;
        value           uniform 1.2449e-07;
    }
    procBoundary0to7
    {
        type            processor;
        value           uniform 6.22239e-06;
    }
}


// ************************************************************************* //
