/*--------------------------------*- C++ -*----------------------------------*\
| =========                 |                                                 |
| \\      /  F ield         | OpenFOAM: The Open Source CFD Toolbox           |
|  \\    /   O peration     | Version:  4.x                                   |
|   \\  /    A nd           | Web:      www.OpenFOAM.org                      |
|    \\/     M anipulation  |                                                 |
\*---------------------------------------------------------------------------*/
FoamFile
{
    version     2.0;
    format      ascii;
    class       volScalarField;
    location    "5";
    object      Sm;
}
// * * * * * * * * * * * * * * * * * * * * * * * * * * * * * * * * * * * * * //

dimensions      [1 -3 -1 0 0 0 0];

internalField   nonuniform List<scalar> 
132
(
4.02958e-65
3.64131e-65
3.09838e-65
2.86582e-65
3.79585e-65
4.02816e-65
4.88087e-65
3.48646e-65
1.70445e-65
4.88182e-65
4.64841e-65
4.64778e-65
5.11195e-65
3.17541e-65
5.80891e-65
4.26036e-65
4.64786e-65
4.26103e-65
2.71205e-65
5.34568e-65
4.72534e-65
4.72443e-65
4.25955e-65
4.33677e-65
3.25293e-65
4.18274e-65
7.20487e-65
2.86727e-65
4.41623e-65
3.25387e-65
4.18457e-65
6.66288e-65
8.05628e-65
7.04825e-65
6.81596e-65
7.12593e-65
6.27448e-65
6.42978e-65
6.19818e-65
5.42419e-65
7.97983e-65
6.27422e-65
7.20246e-65
7.27961e-65
7.1248e-65
6.50575e-65
7.74574e-65
6.73983e-65
5.88927e-65
8.13464e-65
6.81601e-65
6.27272e-65
6.65943e-65
6.58199e-65
8.28645e-65
6.04113e-65
4.95789e-65
8.05886e-65
6.12055e-65
6.11892e-65
4.56877e-65
9.13726e-65
5.96679e-65
6.81823e-65
7.28169e-65
6.8157e-65
6.58335e-65
5.18915e-65
7.04841e-65
6.89417e-65
4.7258e-65
6.43158e-65
7.05035e-65
6.7388e-65
5.57583e-65
7.3566e-65
5.73021e-65
7.35686e-65
8.82954e-65
6.27449e-65
7.67135e-65
6.27534e-65
6.58351e-65
8.20826e-65
7.82037e-65
7.35549e-65
7.43339e-65
6.1955e-65
4.57002e-65
7.2839e-65
7.59193e-65
7.66752e-65
7.97599e-65
8.36219e-65
7.12301e-65
7.12348e-65
4.57221e-65
4.88106e-65
5.73266e-65
5.34428e-65
6.11852e-65
7.74479e-65
4.80206e-65
4.10538e-65
4.95797e-65
5.50182e-65
8.13495e-65
7.28127e-65
6.73773e-65
5.80762e-65
5.65256e-65
8.36346e-65
6.58308e-65
5.34464e-65
4.57167e-65
4.95784e-65
7.28065e-65
5.73015e-65
7.27815e-65
7.74245e-65
7.04585e-65
5.11086e-65
8.21011e-65
5.26923e-65
5.88777e-65
7.82265e-65
9.21486e-65
4.41322e-65
9.21319e-65
7.12325e-65
5.42015e-65
2.3234e-65
)
;

boundaryField
{
    inlet
    {
        type            calculated;
        value           uniform 0;
    }
    outlet
    {
        type            calculated;
        value           nonuniform 0();
    }
    wall
    {
        type            calculated;
        value           uniform 0;
    }
    procBoundary0to1
    {
        type            processor;
        value           nonuniform List<scalar> 
12
(
3.71932e-65
3.64193e-65
3.48699e-65
6.43118e-65
7.51585e-65
8.13553e-65
7.05084e-65
7.6701e-65
7.90223e-65
6.58569e-65
7.05018e-65
5.73251e-65
)
;
    }
    procBoundary0to2
    {
        type            processor;
        value           nonuniform List<scalar> 
44
(
6.50618e-65
4.87943e-65
2.55544e-65
4.87925e-65
2.24609e-65
2.63382e-65
5.73444e-65
6.50837e-65
6.50618e-65
5.11311e-65
6.50618e-65
4.87943e-65
8.44024e-65
9.75711e-65
5.73143e-65
9.37266e-65
5.42432e-65
6.81808e-65
7.66864e-65
7.74489e-65
8.44024e-65
6.73731e-65
8.44024e-65
9.75711e-65
7.58932e-65
7.9778e-65
7.284e-65
4.95843e-65
5.49928e-65
5.73074e-65
5.88489e-65
7.1235e-65
7.58932e-65
8.3629e-65
7.58932e-65
7.9778e-65
4.80417e-65
8.13438e-65
8.36503e-65
6.58246e-65
6.42663e-65
6.27143e-65
6.2718e-65
7.74414e-65
)
;
    }
    procBoundary0to4
    {
        type            processor;
        value           nonuniform List<scalar> 
36
(
5.19198e-65
7.3608e-65
7.51469e-65
5.5771e-65
5.96377e-65
5.65386e-65
7.59048e-65
6.73898e-65
8.90926e-65
7.74897e-65
6.35317e-65
7.28119e-65
8.51934e-65
8.20844e-65
7.51136e-65
6.35013e-65
5.42132e-65
9.06284e-65
6.97386e-65
8.75449e-65
6.42883e-65
8.51858e-65
6.96866e-65
5.96188e-65
6.11708e-65
9.68005e-65
5.65409e-65
4.33924e-65
5.73296e-65
7.59042e-65
5.18829e-65
7.35551e-65
6.03902e-65
9.52378e-65
5.96275e-65
5.96362e-65
)
;
    }
    procBoundary0to6
    {
        type            processor;
        value           uniform 6.73827e-65;
    }
    procBoundary0to7
    {
        type            processor;
        value           uniform 9.91592e-65;
    }
}


// ************************************************************************* //
