/*--------------------------------*- C++ -*----------------------------------*\
| =========                 |                                                 |
| \\      /  F ield         | OpenFOAM: The Open Source CFD Toolbox           |
|  \\    /   O peration     | Version:  4.x                                   |
|   \\  /    A nd           | Web:      www.OpenFOAM.org                      |
|    \\/     M anipulation  |                                                 |
\*---------------------------------------------------------------------------*/
FoamFile
{
    version     2.0;
    format      ascii;
    class       volScalarField;
    location    "10.5";
    object      Cs;
}
// * * * * * * * * * * * * * * * * * * * * * * * * * * * * * * * * * * * * * //

dimensions      [1 -3 0 0 0 0 0];

internalField   nonuniform List<scalar> 
108
(
334.654
334.698
334.794
334.905
335.006
335.083
335.138
335.167
336.863
334.63
334.644
334.714
334.815
334.924
335.017
335.092
335.143
338.135
334.635
334.611
334.644
334.725
334.835
334.946
335.044
335.129
335.651
334.715
334.653
334.608
334.591
334.607
334.648
334.724
334.781
347.714
334.774
334.838
334.92
335.002
335.073
335.132
335.172
335.198
335.335
334.755
334.805
334.885
334.966
335.042
335.107
335.158
335.19
335.386
334.723
334.757
334.834
334.922
335.015
335.084
335.141
335.143
335.818
334.732
334.688
334.658
334.645
334.663
334.689
334.763
334.808
335.837
334.874
334.92
334.971
335.024
335.073
335.118
335.15
335.173
335.201
334.872
334.914
334.968
335.021
335.071
335.116
335.15
335.172
335.271
334.847
334.888
334.953
335.008
335.063
335.086
335.125
335.116
335.556
334.794
334.758
334.736
334.722
334.734
334.752
334.804
334.838
335.562
)
;

boundaryField
{
    inlet
    {
        type            calculated;
        value           nonuniform 0();
    }
    outlet
    {
        type            calculated;
        value           uniform 335;
    }
    wall
    {
        type            calculated;
        value           nonuniform List<scalar> 
63
(
334.654
334.63
334.635
334.715
334.698
334.644
334.611
334.653
334.794
334.714
334.644
334.608
334.905
334.815
334.725
334.591
335.006
334.924
334.835
334.607
335.083
335.017
334.946
334.648
335.138
335.092
335.044
334.724
335.167
335.143
335.129
334.781
336.863
338.135
335.651
347.714
334.715
334.732
334.794
334.653
334.688
334.758
334.608
334.658
334.736
334.591
334.645
334.722
334.607
334.663
334.734
334.648
334.689
334.752
334.724
334.763
334.804
334.781
334.808
334.838
347.714
335.837
335.562
)
;
    }
    procBoundary3to1
    {
        type            processor;
        value           nonuniform List<scalar> 
27
(
334.645
334.67
334.764
334.888
335.007
335.1
335.151
335.174
335.311
334.786
334.851
334.944
335.033
335.109
335.167
335.202
335.21
335.242
334.893
334.95
335.018
335.082
335.138
335.177
335.201
335.201
335.26
)
;
    }
    procBoundary3to2
    {
        type            processor;
        value           nonuniform List<scalar> 
12
(
334.674
334.673
334.699
334.781
334.737
334.735
334.725
334.785
334.838
334.843
334.825
334.835
)
;
    }
    procBoundary3to7
    {
        type            processor;
        value           nonuniform List<scalar> 
36
(
334.912
334.944
334.983
335.027
335.07
335.106
335.12
335.116
335.095
334.935
334.966
335.003
335.042
335.079
335.111
335.134
335.147
335.206
334.918
334.947
334.987
335.02
335.063
335.08
335.114
335.106
335.205
334.874
334.844
334.827
334.812
334.821
334.828
334.878
334.894
335.282
)
;
    }
}


// ************************************************************************* //
