/*--------------------------------*- C++ -*----------------------------------*\
| =========                 |                                                 |
| \\      /  F ield         | OpenFOAM: The Open Source CFD Toolbox           |
|  \\    /   O peration     | Version:  4.x                                   |
|   \\  /    A nd           | Web:      www.OpenFOAM.org                      |
|    \\/     M anipulation  |                                                 |
\*---------------------------------------------------------------------------*/
FoamFile
{
    version     2.0;
    format      ascii;
    class       volVectorField;
    location    "10.5";
    object      DDtUrel;
}
// * * * * * * * * * * * * * * * * * * * * * * * * * * * * * * * * * * * * * //

dimensions      [0 1 -2 0 0 0 0];

internalField   nonuniform List<vector> 
108
(
(-0.000114676 -8.59843e-07 -1.56098e-05)
(-0.000108976 -2.49652e-06 -7.18267e-05)
(-7.60224e-05 -9.3578e-06 -0.000134397)
(-0.000102326 -1.60484e-05 -0.000189339)
(-0.000117556 -3.0719e-05 -0.000284218)
(-0.000276449 -2.43652e-05 -0.000439978)
(-0.000431986 -4.64924e-05 -0.000670737)
(-0.00109429 6.05073e-05 -0.00113844)
(-0.00204478 0.000124264 -0.00139662)
(-0.000102756 -1.5363e-06 1.13422e-06)
(-0.000112619 -6.31762e-07 -6.34103e-05)
(-8.09944e-05 -5.99174e-06 -0.000131799)
(-0.00011307 5.30728e-06 -0.000192836)
(-0.000128926 1.13495e-05 -0.000301474)
(-0.000300437 4.29732e-05 -0.000474424)
(-0.000490436 9.1313e-05 -0.000768761)
(-0.0011498 0.000146635 -0.00130236)
(-0.00214699 0.000128268 -0.00155818)
(-8.503e-05 1.61867e-05 5.2461e-05)
(-0.000127777 6.47293e-06 -2.18476e-05)
(-0.000115508 5.81586e-06 -0.00010176)
(-0.000154928 3.11681e-05 -0.000174287)
(-0.000201219 5.89705e-05 -0.000302364)
(-0.000378803 0.000137424 -0.000507646)
(-0.000701217 0.000247286 -0.000898981)
(-0.00126102 0.000482187 -0.00148446)
(-0.00205619 0.000689282 -0.00190634)
(-1.37652e-05 2.97158e-05 0.000130965)
(-0.000122922 1.75536e-05 5.1653e-05)
(-0.000134987 1.24606e-05 -4.56805e-05)
(-0.000211426 4.97552e-05 -0.000145237)
(-0.000217262 8.58535e-05 -0.000317069)
(-0.000420288 0.000216251 -0.00055968)
(-0.000679791 0.000359623 -0.00117428)
(-0.00141042 0.000790252 -0.00234365)
(-0.00240717 0.00112895 -0.00288899)
(-1.88435e-05 -3.08138e-06 -2.44709e-05)
(-4.54904e-05 -4.54183e-06 -7.40576e-05)
(-4.74591e-05 -8.71081e-06 -0.000131481)
(-9.79607e-05 -1.38043e-05 -0.000187408)
(-0.000170172 -2.24001e-05 -0.00027115)
(-0.000326528 -2.7248e-05 -0.000416286)
(-0.000595529 -3.95562e-05 -0.000629088)
(-0.00103484 1.53315e-05 -0.00107163)
(-0.00166802 5.59788e-05 -0.00137623)
(-4.66648e-06 -4.16761e-06 -1.02473e-05)
(-3.89149e-05 -1.79265e-06 -6.66315e-05)
(-3.53276e-05 -4.00778e-06 -0.000129983)
(-9.06026e-05 1.26178e-05 -0.000192168)
(-0.000145129 2.76316e-05 -0.000289831)
(-0.000318707 8.03584e-05 -0.000456997)
(-0.000584226 0.000143852 -0.000725224)
(-0.00113174 0.000372363 -0.00125329)
(-0.00195539 0.000484127 -0.00151233)
(2.32001e-05 -1.2233e-06 3.65111e-05)
(-2.50142e-05 -3.90991e-06 -2.95413e-05)
(-1.64842e-05 -3.30195e-06 -0.000103125)
(-8.15489e-05 2.73428e-05 -0.000182035)
(-0.000109669 5.99199e-05 -0.000303118)
(-0.00031836 0.000167246 -0.000506126)
(-0.000549569 0.00029181 -0.000872387)
(-0.00133381 0.000752139 -0.00147094)
(-0.00236843 0.00107531 -0.00189203)
(8.7139e-05 -1.4558e-06 0.000124232)
(2.06929e-07 -9.04801e-06 3.77758e-05)
(1.0103e-05 -1.43316e-05 -4.8585e-05)
(-9.28242e-05 2.64477e-05 -0.000169399)
(-5.8697e-05 6.2759e-05 -0.000329224)
(-0.000313259 0.000217513 -0.000582523)
(-0.000383486 0.000369585 -0.0011489)
(-0.00154702 0.000957035 -0.00233527)
(-0.00301376 0.00140051 -0.00313412)
(1.95089e-05 -3.53599e-06 -2.68721e-05)
(-1.3263e-05 -6.09264e-06 -6.53586e-05)
(-3.63905e-05 -1.13524e-05 -0.000117114)
(-9.79992e-05 -1.76064e-05 -0.000166562)
(-0.000192378 -2.89563e-05 -0.000241671)
(-0.00035065 -3.84216e-05 -0.000363825)
(-0.000634869 -5.53525e-05 -0.000542389)
(-0.000999866 -3.47179e-05 -0.000837878)
(-0.00150101 -1.09564e-05 -0.00110715)
(4.12077e-05 -7.91013e-06 -1.90341e-05)
(2.95896e-06 -4.60696e-06 -6.22937e-05)
(-1.13156e-05 -4.14334e-06 -0.00011866)
(-7.78871e-05 1.19621e-05 -0.000177481)
(-0.00014752 2.97254e-05 -0.000267448)
(-0.000326008 9.1128e-05 -0.00041766)
(-0.000588586 0.000164985 -0.000647654)
(-0.00111158 0.000439835 -0.00103012)
(-0.00182634 0.000671692 -0.00134318)
(8.10759e-05 -1.29318e-05 1.48552e-05)
(3.92851e-05 -1.15948e-05 -3.76006e-05)
(3.79727e-05 -9.48178e-06 -0.000104141)
(-4.06488e-05 2.57138e-05 -0.000185558)
(-6.51469e-05 6.16674e-05 -0.000295351)
(-0.000282782 0.000186285 -0.000498293)
(-0.00047123 0.000323684 -0.000797678)
(-0.00133882 0.000848096 -0.00137852)
(-0.00243313 0.00117952 -0.00169916)
(0.000150297 -2.22556e-05 8.79929e-05)
(9.27311e-05 -2.6864e-05 1.63395e-05)
(0.000100635 -3.0266e-05 -5.81778e-05)
(-9.50802e-06 1.78792e-05 -0.000184924)
(1.03778e-05 6.18483e-05 -0.000327115)
(-0.000260722 0.000221322 -0.000579605)
(-0.000329386 0.000393092 -0.00099254)
(-0.00159607 0.000955172 -0.00180172)
(-0.00318168 0.00133616 -0.00232971)
)
;

boundaryField
{
    inlet
    {
        type            calculated;
        value           nonuniform 0();
    }
    outlet
    {
        type            calculated;
        value           nonuniform List<vector> 
12
(
(-0.00694123 0.00226875 -0.00240305)
(-0.00655503 -0.00272672 -0.00195592)
(-0.00232319 0.000549264 -0.00137335)
(-0.0048538 0.00274102 -0.00691535)
(-0.00244889 0.00135206 -0.00321219)
(-0.00404807 0.000861942 -0.00198435)
(-0.00576735 0.00380025 -0.00116291)
(-0.0110839 0.00486189 -0.0127387)
(-0.0020236 0.000759911 -0.00139995)
(-0.00350626 0.00244985 -0.00188335)
(-0.00685672 0.00319281 -0.00120464)
(-0.0116414 0.00211129 -0.00379733)
)
;
    }
    wall
    {
        type            calculated;
        value           nonuniform List<vector> 
63
(
(-0.000382082 3.61003e-05 -0.000182336)
(-0.000366397 -7.55411e-05 -0.000108503)
(-0.000525229 8.30748e-05 2.56137e-05)
(3.08143e-05 0.000166134 0.000467409)
(-0.000328599 4.44346e-05 -0.000128338)
(-0.000437302 7.26645e-06 -0.000142649)
(-0.00068207 -3.10759e-06 -7.79628e-05)
(-0.000799566 0.000110141 0.000377588)
(0.000132974 1.47432e-05 -0.000213774)
(7.60171e-05 -9.18136e-05 -0.000245244)
(-0.000297256 -3.46276e-05 -0.000201379)
(-0.000430411 -2.2351e-05 0.000142133)
(-2.32068e-05 3.99127e-05 -0.000100926)
(-0.000139226 -1.38245e-05 -0.000108182)
(-0.000312845 5.73106e-05 -2.87818e-06)
(-0.000976438 0.000181996 0.000251756)
(0.000773345 -8.40053e-05 -0.000100988)
(0.000611252 -0.000138424 -0.00017883)
(-0.000228229 -4.45596e-05 -7.86514e-06)
(-0.00011303 -6.66126e-05 -9.55742e-05)
(0.000159171 0.000256456 -0.000264461)
(-1.76663e-05 -0.000208559 -0.000137952)
(-0.00020831 -7.71592e-06 0.000148072)
(-0.000692152 0.000411484 0.000556244)
(0.00253924 -0.000288797 0.00016504)
(0.00178431 -0.000148106 -2.82234e-05)
(-0.00110701 -0.000160668 9.34305e-05)
(5.12549e-06 -0.000257815 -0.000298068)
(-0.000236023 0.0012843 -0.00207001)
(6.03647e-05 -0.00106977 -0.00229702)
(-0.000158509 -0.000169819 1.7806e-05)
(-0.000589281 0.00152101 -0.00702276)
(-0.00694123 0.00226875 -0.00240305)
(-0.00655503 -0.00272672 -0.00195592)
(-0.00232319 0.000549264 -0.00137335)
(-0.0048538 0.00274102 -0.00691535)
(3.08143e-05 0.000166134 0.000467409)
(0.000614478 -5.46718e-05 0.000605545)
(0.000718253 -0.000107372 0.000430338)
(-0.000799566 0.000110141 0.000377588)
(-0.000142607 -5.89098e-05 0.000266699)
(0.000263039 -0.000138508 0.000220778)
(-0.000430411 -2.2351e-05 0.000142133)
(0.000624074 -0.000230437 0.000250431)
(0.000878151 -0.000336652 0.000275918)
(-0.000976438 0.000181996 0.000251756)
(-0.000462951 -6.92912e-06 -3.0562e-05)
(-0.000133282 -7.44346e-05 -0.000145152)
(-0.00011303 -6.66126e-05 -9.55742e-05)
(0.00130683 -0.00038063 -0.000149791)
(0.00134628 -0.00036051 -0.000134802)
(-0.000692152 0.000411484 0.000556244)
(-0.00072698 0.000371996 0.000119161)
(-0.000639219 0.000168493 -0.000350203)
(5.12549e-06 -0.000257815 -0.000298068)
(0.00440716 -0.000844233 -0.000387704)
(0.00420396 -0.00070702 -0.000302615)
(-0.000589281 0.00152101 -0.00702276)
(-0.00148591 0.00256787 -0.00784643)
(-0.00154852 0.00146543 -0.00283989)
(-0.0048538 0.00274102 -0.00691535)
(-0.0110839 0.00486189 -0.0127387)
(-0.0116414 0.00211129 -0.00379733)
)
;
    }
    procBoundary3to1
    {
        type            processor;
        value           nonuniform List<vector> 
27
(
(-0.000122225 -6.28736e-06 8.21527e-06)
(-0.000125894 -1.20704e-05 -5.28225e-05)
(-0.000105079 -2.13748e-05 -0.000122093)
(-0.000133332 -4.94691e-05 -0.000174382)
(-0.000192331 -8.59233e-05 -0.000275535)
(-0.000348074 -0.000150407 -0.00040747)
(-0.000644847 -0.000248681 -0.000636925)
(-0.00107411 -0.000334309 -0.000958911)
(-0.00172617 -0.000444151 -0.00119989)
(-1.73392e-05 -3.86208e-06 -6.47851e-06)
(-4.87085e-05 -1.0581e-05 -5.75802e-05)
(-5.627e-05 -2.00839e-05 -0.000120133)
(-0.000110871 -5.08143e-05 -0.000170766)
(-0.000198345 -9.25551e-05 -0.000257541)
(-0.000356895 -0.000168714 -0.000384219)
(-0.000662262 -0.000288524 -0.00060206)
(-0.00104995 -0.00049196 -0.000930042)
(-0.00158609 -0.00075408 -0.00121109)
(2.8515e-05 -1.74306e-06 -1.39577e-05)
(-6.65542e-06 -9.78814e-06 -5.07252e-05)
(-3.27696e-05 -2.09604e-05 -0.000104771)
(-9.47405e-05 -5.30247e-05 -0.000152379)
(-0.000194778 -0.000101903 -0.000230789)
(-0.000356153 -0.000189561 -0.00035228)
(-0.000643514 -0.000326978 -0.000537453)
(-0.0010294 -0.000587225 -0.000804966)
(-0.00151626 -0.00090504 -0.00103223)
)
;
    }
    procBoundary3to2
    {
        type            processor;
        value           nonuniform List<vector> 
12
(
(-0.000132579 -2.83793e-06 6.21305e-05)
(-0.000109655 5.53568e-06 7.76046e-05)
(-5.92549e-05 2.57227e-05 0.000124432)
(5.37933e-05 4.20842e-05 0.000186978)
(-2.67664e-05 -2.99926e-06 4.18714e-05)
(-1.30014e-05 -5.51575e-07 5.61941e-05)
(2.60938e-05 6.13519e-06 9.94943e-05)
(0.000107406 1.26012e-05 0.000172911)
(2.40794e-05 -2.6485e-06 2.34254e-05)
(3.91901e-05 -2.82269e-06 3.30825e-05)
(7.66911e-05 -5.66558e-06 6.55555e-05)
(0.000141708 -9.01312e-06 0.000126019)
)
;
    }
    procBoundary3to7
    {
        type            processor;
        value           nonuniform List<vector> 
36
(
(3.17983e-05 -6.06216e-06 -3.45191e-05)
(-1.71541e-06 -8.32772e-06 -6.8464e-05)
(-4.95432e-05 -1.40212e-05 -0.000110564)
(-0.000109431 -2.20871e-05 -0.000150212)
(-0.000232674 -3.38906e-05 -0.000209173)
(-0.000373273 -5.2689e-05 -0.000305289)
(-0.000666938 -7.68866e-05 -0.000436787)
(-0.000956654 -9.22105e-05 -0.000661354)
(-0.00135283 -9.2826e-05 -0.000866297)
(5.75213e-05 -9.75289e-06 -2.89656e-05)
(1.75027e-05 -4.96344e-06 -6.65767e-05)
(-1.05839e-05 -2.82021e-06 -0.000113192)
(-8.15545e-05 1.63657e-05 -0.000166759)
(-0.000172882 3.39556e-05 -0.000238933)
(-0.000344763 9.86727e-05 -0.000376205)
(-0.000628391 0.000165846 -0.000543114)
(-0.00104731 0.000407781 -0.000879004)
(-0.00162362 0.000698821 -0.00120885)
(9.94832e-05 -1.97941e-05 -6.56888e-06)
(5.71433e-05 -1.28545e-05 -5.25024e-05)
(4.41936e-05 -6.73056e-06 -0.000109454)
(-3.84152e-05 3.27242e-05 -0.000185009)
(-9.72661e-05 7.12352e-05 -0.000272824)
(-0.000310986 0.000210499 -0.000469978)
(-0.000569678 0.000357078 -0.000692707)
(-0.00127338 0.000874874 -0.00125446)
(-0.00206852 0.00132809 -0.00173242)
(0.00016708 -3.35464e-05 4.8539e-05)
(0.000113843 -2.46146e-05 -1.49712e-05)
(0.000124833 -2.15092e-05 -7.56288e-05)
(7.99143e-06 3.58041e-05 -0.000196398)
(2.68081e-05 7.67158e-05 -0.000302752)
(-0.000276925 0.000264464 -0.000563427)
(-0.000345947 0.000432279 -0.00083709)
(-0.00158062 0.00108518 -0.00164961)
(-0.00301328 0.00157812 -0.00223518)
)
;
    }
}


// ************************************************************************* //
