/*--------------------------------*- C++ -*----------------------------------*\
| =========                 |                                                 |
| \\      /  F ield         | OpenFOAM: The Open Source CFD Toolbox           |
|  \\    /   O peration     | Version:  4.x                                   |
|   \\  /    A nd           | Web:      www.OpenFOAM.org                      |
|    \\/     M anipulation  |                                                 |
\*---------------------------------------------------------------------------*/
FoamFile
{
    version     2.0;
    format      ascii;
    class       volScalarField;
    location    "10.5";
    object      magGField;
}
// * * * * * * * * * * * * * * * * * * * * * * * * * * * * * * * * * * * * * //

dimensions      [1 -2 -1 0 0 0 0];

internalField   nonuniform List<scalar> 
108
(
45.9194
103.443
31.5958
103.828
30.1223
112.329
36.8509
135.587
56.3462
52.9301
106.76
36.7707
106.172
29.7779
111.751
30.5999
127.709
55.2382
70.7373
115.33
50.816
107.358
33.3381
98.2241
18.7597
75.5631
13.6925
107.938
145.157
99.5006
139.605
83.7418
134.388
69.2145
125.646
100.238
19.0717
93.2844
20.8532
95.5084
24.0718
96.4632
27.2199
92.3272
59.4844
20.8585
96.204
19.7807
99.428
20.4028
102.583
23.0072
103.438
68.3021
24.4462
97.3548
20.9435
101.534
19.2979
108.294
21.3031
119.19
50.3409
73.0518
123.49
75.3453
131.067
70.8977
143.294
61.2383
177.515
95.8554
4.67718
83.9742
6.69815
86.0465
9.72293
86.0201
11.7439
79.1853
20.0291
10.6824
88.3244
11.8692
91.3675
12.8918
93.8387
15.565
96.4179
35.0133
10.6201
88.7046
12.3319
94.3912
17.2825
104.396
24.967
127.396
61.5967
55.8576
109.545
62.3432
118.995
63.2633
131.306
54.9385
163.326
40.3786
)
;

boundaryField
{
    inlet
    {
        type            calculated;
        value           nonuniform 0();
    }
    outlet
    {
        type            calculated;
        value           nonuniform List<scalar> 
12
(
117.051
114.774
28.5309
201.199
127.797
146.421
107.67
203.593
43.6799
76.2215
133.549
87.853
)
;
    }
    wall
    {
        type            calculated;
        value           uniform 0;
    }
    procBoundary3to1
    {
        type            processor;
        value           nonuniform List<scalar> 
27
(
48.0231
104.299
24.6479
99.2619
11.5432
97.1145
10.4436
85.0764
26.7782
18.9436
95.8795
16.8769
96.9553
13.3169
94.1222
3.20721
80.715
0.000154025
3.26607
85.0997
1.02906
84.8575
4.5142e-05
81.3256
3.8726e-05
72.1795
3.74844
)
;
    }
    procBoundary3to2
    {
        type            processor;
        value           nonuniform List<scalar> 
12
(
110.041
113.289
123.257
144.263
89.4382
92.2663
94.1375
116.395
82.1266
85.5047
85.5247
101.372
)
;
    }
    procBoundary3to7
    {
        type            processor;
        value           nonuniform List<scalar> 
36
(
16.1435
84.761
16.6289
82.2715
13.7999
74.6047
11.2121
57.2196
17.2822
16.2627
89.4282
18.194
92.227
20.5597
93.4228
26.4925
88.7551
40.5964
18.8129
90.6725
21.8648
95.3442
26.4709
99.0378
35.6565
98.8258
83.8192
56.3153
109.123
60.2146
119.967
62.2645
136.172
57.9869
170.594
84.6654
)
;
    }
}


// ************************************************************************* //
