/*--------------------------------*- C++ -*----------------------------------*\
| =========                 |                                                 |
| \\      /  F ield         | OpenFOAM: The Open Source CFD Toolbox           |
|  \\    /   O peration     | Version:  4.x                                   |
|   \\  /    A nd           | Web:      www.OpenFOAM.org                      |
|    \\/     M anipulation  |                                                 |
\*---------------------------------------------------------------------------*/
FoamFile
{
    version     2.0;
    format      ascii;
    class       volScalarField;
    location    "10.5";
    object      QPartFluid;
}
// * * * * * * * * * * * * * * * * * * * * * * * * * * * * * * * * * * * * * //

dimensions      [1 -1 -3 0 0 0 0];

internalField   nonuniform List<scalar> 
108
(
7.82701e+09
3.60514e+09
6.0492e+09
3.01011e+09
4.33017e+09
3.58358e+09
5.1882e+09
4.46482e+09
3.83655e+09
5.87278e+09
9.09066e+09
4.67928e+09
5.27809e+09
5.61701e+09
4.86883e+09
5.86697e+09
5.47773e+09
4.43384e+09
6.58101e+09
6.31691e+09
6.6843e+09
4.66448e+09
5.74768e+09
4.90705e+09
5.85572e+09
6.10389e+09
3.40274e+09
4.45271e+09
3.93951e+09
4.99601e+09
6.5149e+09
4.64865e+09
5.50697e+09
3.39174e+09
4.82631e+09
5.07139e+09
8.27663e+09
7.84392e+09
9.89635e+09
1.0287e+10
8.44084e+09
7.73124e+09
6.83693e+09
8.1766e+09
8.21817e+09
7.41116e+09
8.14051e+09
8.2508e+09
8.89152e+09
7.64967e+09
8.0988e+09
9.76589e+09
9.20313e+09
6.6951e+09
1.26251e+10
9.81192e+09
8.86797e+09
1.11289e+10
8.31222e+09
9.67577e+09
8.23458e+09
9.64211e+09
7.75701e+09
8.51137e+09
7.19539e+09
7.1081e+09
8.05933e+09
9.35723e+09
7.58157e+09
7.56058e+09
8.63783e+09
5.9907e+09
8.23089e+09
1.07562e+10
9.42244e+09
1.03156e+10
6.70531e+09
7.82879e+09
9.25062e+09
8.0201e+09
7.0302e+09
9.67743e+09
6.29186e+09
8.49903e+09
5.17413e+09
4.77791e+09
9.83681e+09
8.20819e+09
1.14547e+10
5.69226e+09
6.75347e+09
1.05398e+10
9.52711e+09
7.4485e+09
7.84053e+09
1.04494e+10
8.58708e+09
1.007e+10
5.40205e+09
6.09796e+09
4.73661e+09
6.04994e+09
7.24647e+09
6.87107e+09
9.01648e+09
6.97356e+09
1.02269e+10
8.30901e+09
)
;

boundaryField
{
    inlet
    {
        type            calculated;
        value           nonuniform 0();
    }
    outlet
    {
        type            calculated;
        value           uniform 0;
    }
    wall
    {
        type            calculated;
        value           uniform 0;
    }
    procBoundary3to1
    {
        type            processor;
        value           nonuniform List<scalar> 
27
(
3.75548e+09
6.59874e+09
5.32952e+09
8.52245e+09
5.46573e+09
5.15698e+09
4.61419e+09
5.21963e+09
3.69349e+09
8.96737e+09
8.28672e+09
6.95202e+09
6.58013e+09
5.65363e+09
8.82627e+09
8.65536e+09
1.23421e+10
3.72446e+09
8.116e+09
7.76219e+09
5.40841e+09
1.10612e+10
8.75461e+09
1.05149e+10
7.20145e+09
9.2423e+09
2.97667e+09
)
;
    }
    procBoundary3to2
    {
        type            processor;
        value           nonuniform List<scalar> 
12
(
2.93179e+09
4.41672e+09
3.83949e+09
4.03549e+09
1.11376e+10
6.34348e+09
8.06452e+09
4.79777e+09
8.96637e+09
5.69109e+09
1.01384e+10
9.74456e+09
)
;
    }
    procBoundary3to7
    {
        type            processor;
        value           nonuniform List<scalar> 
36
(
1.04857e+10
9.26641e+09
6.76348e+09
8.0187e+09
1.13325e+10
1.23315e+10
8.17836e+09
6.25571e+09
6.16163e+09
7.93112e+09
1.16418e+10
7.85788e+09
8.2439e+09
9.15904e+09
7.25186e+09
8.25847e+09
8.03126e+09
7.12e+09
6.12098e+09
9.33638e+09
7.17771e+09
9.15337e+09
8.69902e+09
1.08397e+10
9.27658e+09
9.47893e+09
8.22432e+09
5.52459e+09
8.15448e+09
9.38641e+09
6.18298e+09
8.35593e+09
8.66455e+09
8.78419e+09
7.90127e+09
4.37285e+09
)
;
    }
}


// ************************************************************************* //
