/*--------------------------------*- C++ -*----------------------------------*\
| =========                 |                                                 |
| \\      /  F ield         | OpenFOAM: The Open Source CFD Toolbox           |
|  \\    /   O peration     | Version:  4.x                                   |
|   \\  /    A nd           | Web:      www.OpenFOAM.org                      |
|    \\/     M anipulation  |                                                 |
\*---------------------------------------------------------------------------*/
FoamFile
{
    version     2.0;
    format      ascii;
    class       volVectorField;
    location    "10.5";
    object      Urel;
}
// * * * * * * * * * * * * * * * * * * * * * * * * * * * * * * * * * * * * * //

dimensions      [0 1 -1 0 0 0 0];

internalField   nonuniform List<vector> 
108
(
(-0.0209357 -1.03449e-06 -0.000627924)
(-0.0220692 -3.98513e-05 -0.000533412)
(-0.0201693 -3.54146e-05 -0.000241549)
(-0.021694 -5.6615e-05 7.32312e-05)
(-0.0198669 -4.68474e-05 0.000444927)
(-0.0215945 -3.12723e-05 0.0009093)
(-0.0196577 -0.000119275 0.00149976)
(-0.0212609 -7.25788e-05 0.0022339)
(-0.0181843 -0.000677543 0.00370245)
(-0.0216208 -0.000298884 -0.000685154)
(-0.0226995 -0.00030547 -0.000623386)
(-0.0208626 -0.000306522 -0.000345173)
(-0.0223056 -0.0002856 -4.61777e-05)
(-0.0204757 -0.000333535 0.00033066)
(-0.0221359 -0.000309799 0.000820694)
(-0.0200947 -0.000439854 0.00145061)
(-0.0216479 -0.000519343 0.00241611)
(-0.0185016 -0.000714984 0.00406064)
(-0.0232233 -0.000572884 -0.000833732)
(-0.0241465 -0.000624532 -0.000864213)
(-0.0224181 -0.000590372 -0.000670676)
(-0.0235821 -0.000635581 -0.000432739)
(-0.0217013 -0.000686122 -9.86756e-05)
(-0.0229896 -0.000769969 0.00037292)
(-0.020726 -0.0010079 0.00100504)
(-0.0215878 -0.00120076 0.00219469)
(-0.0185745 -0.00191251 0.00351861)
(-0.0253974 -0.000730774 -0.00099175)
(-0.0261806 -0.000784749 -0.00115874)
(-0.0248198 -0.000791754 -0.00110393)
(-0.025647 -0.000829993 -0.000967087)
(-0.0239735 -0.000964163 -0.000657136)
(-0.024968 -0.00106782 -0.000162577)
(-0.0227819 -0.00155767 0.000566905)
(-0.0235955 -0.00183659 0.00244788)
(-0.0201459 -0.00332317 0.00581249)
(-0.019703 1.31599e-05 -0.000485588)
(-0.0212269 -4.99203e-06 -0.000396521)
(-0.0194584 -9.79165e-06 -8.28781e-05)
(-0.0210886 -2.58434e-05 0.000209948)
(-0.019279 -3.61525e-05 0.000610648)
(-0.0208258 -5.48648e-05 0.000995867)
(-0.0187962 -0.000112618 0.0015948)
(-0.0199106 -0.000138443 0.00218529)
(-0.0173641 -0.000565871 0.00382077)
(-0.0202025 -0.000210622 -0.000552249)
(-0.0217448 -0.000199153 -0.000498182)
(-0.0199803 -0.0002215 -0.000192551)
(-0.0216588 -0.000195711 8.6103e-05)
(-0.0198082 -0.000300822 0.000496053)
(-0.0215144 -0.000313437 0.000917395)
(-0.0194153 -0.00060673 0.00158217)
(-0.0207943 -0.000724019 0.00241263)
(-0.0180232 -0.00178862 0.00428457)
(-0.0214566 -0.000426727 -0.000725098)
(-0.0229536 -0.000443537 -0.000776732)
(-0.0212667 -0.000413203 -0.000536854)
(-0.0229081 -0.000419601 -0.000334671)
(-0.0210468 -0.000515438 6.89618e-05)
(-0.0228072 -0.00058146 0.00048207)
(-0.0205795 -0.00101223 0.00118828)
(-0.0221218 -0.00123708 0.00225221)
(-0.018657 -0.0030785 0.00379584)
(-0.0237083 -0.000585205 -0.000970861)
(-0.0249176 -0.000587924 -0.00119349)
(-0.0237368 -0.000561055 -0.00107567)
(-0.0249989 -0.000544118 -0.00101471)
(-0.0234866 -0.00067076 -0.000556695)
(-0.0249541 -0.000726175 -0.00016082)
(-0.0227987 -0.0013111 0.000765987)
(-0.0244769 -0.00161565 0.0023425)
(-0.0199521 -0.0036244 0.0057258)
(-0.0184951 1.53486e-05 -0.000350622)
(-0.0202376 1.96579e-06 -0.000245398)
(-0.0184794 1.32382e-06 4.75667e-07)
(-0.0202239 -5.54237e-06 0.0002959)
(-0.0183622 -9.91068e-06 0.000602166)
(-0.019917 -9.09697e-06 0.000969956)
(-0.0177823 -5.05381e-05 0.00140984)
(-0.0188063 -4.54954e-05 0.00189265)
(-0.0163461 -0.000328961 0.0027898)
(-0.0189972 -0.000160615 -0.000405382)
(-0.0207484 -0.000133819 -0.000325165)
(-0.0190662 -0.000157816 -8.06827e-05)
(-0.0208524 -0.000132805 0.000200833)
(-0.0190577 -0.000239322 0.000542839)
(-0.0207869 -0.000264698 0.000956987)
(-0.0187007 -0.00060028 0.00152562)
(-0.020046 -0.00073636 0.00225693)
(-0.0172735 -0.00196726 0.00340696)
(-0.0200635 -0.000303691 -0.000563694)
(-0.0218297 -0.000286321 -0.000583721)
(-0.0202797 -0.000253076 -0.000369849)
(-0.0221303 -0.000229075 -0.000154229)
(-0.0204645 -0.000347595 0.000238966)
(-0.0223585 -0.000397027 0.000651115)
(-0.0203222 -0.000927991 0.0014206)
(-0.0220307 -0.00121015 0.00233073)
(-0.0184765 -0.00330405 0.00414011)
(-0.022192 -0.000417501 -0.000834742)
(-0.0236489 -0.000374398 -0.00103914)
(-0.0226726 -0.000316236 -0.000926098)
(-0.0241592 -0.000253374 -0.00087598)
(-0.0228911 -0.00037773 -0.00040405)
(-0.0244977 -0.000415541 -2.57934e-05)
(-0.0225492 -0.001018 0.000964136)
(-0.0243357 -0.00138441 0.00213901)
(-0.0197523 -0.0032979 0.00453907)
)
;

boundaryField
{
    inlet
    {
        type            calculated;
        value           nonuniform 0();
    }
    outlet
    {
        type            calculated;
        value           nonuniform List<vector> 
12
(
(-0.0108502 -0.00736702 0.0107875)
(-0.0105255 0.0054894 0.0114607)
(-0.00397152 4.61724e-06 -0.00172537)
(-0.0143783 -0.0115374 0.0240091)
(-0.00889777 -0.00442378 0.0154049)
(-0.00994524 -0.00777298 0.0166414)
(-0.00621049 -0.0142024 0.00118376)
(-0.00926283 -0.0137262 0.0259606)
(-0.00359617 -0.00231015 0.00390299)
(-0.00694218 -0.0079441 0.00472753)
(-0.0076776 -0.0146222 0.0115058)
(-0.00911932 -0.00747233 0.00898015)
)
;
    }
    wall
    {
        type            calculated;
        value           nonuniform List<vector> 
63
(
(-3.52522e-08 -3.02816e-07 5.11317e-07)
(-5.38384e-08 -5.45834e-10 3.88027e-07)
(-4.99064e-08 -8.51595e-08 3.71629e-07)
(-7.03394e-09 -1.47458e-08 4.0021e-07)
(-1.77428e-07 -2.8097e-08 3.99596e-07)
(-1.17649e-07 -4.78312e-08 3.91718e-07)
(-5.29406e-08 -3.61984e-08 3.92119e-07)
(4.12045e-08 -3.4003e-08 4.52891e-07)
(-7.05361e-08 -1.03114e-07 4.16071e-07)
(-1.65037e-07 -1.2258e-07 3.49021e-07)
(-1.33111e-07 -2.00739e-07 6.41297e-07)
(3.95853e-08 -2.07441e-07 3.8335e-07)
(-1.27733e-07 -2.03849e-08 2.76497e-07)
(-1.21866e-07 -4.5975e-09 2.90574e-07)
(1.98309e-08 -1.58226e-08 4.13655e-07)
(9.00707e-08 5.61982e-08 4.15461e-07)
(-1.46847e-07 2.24375e-08 1.79255e-07)
(-1.10864e-07 8.35253e-09 2.74944e-07)
(-1.02961e-07 2.12714e-08 2.24176e-07)
(-6.85579e-08 6.2115e-08 2.96965e-07)
(-7.5172e-08 3.04151e-08 2.39499e-07)
(-1.35866e-07 -1.67709e-08 1.55569e-07)
(-7.1792e-08 -7.55288e-08 1.9894e-07)
(-3.21568e-08 1.01438e-08 2.90266e-07)
(-8.73991e-08 -2.51248e-08 2.53883e-07)
(-7.24513e-08 -7.51407e-09 2.95144e-07)
(2.46418e-08 3.46336e-08 2.29996e-07)
(2.74288e-08 1.48416e-07 1.70196e-07)
(-4.41987e-07 -1.45679e-07 2.95538e-07)
(-4.56777e-08 -9.94937e-08 3.93537e-07)
(2.83754e-07 -4.49525e-08 3.05339e-07)
(2.13125e-08 4.03463e-08 1.09045e-07)
(1.55922e-06 -3.43792e-08 3.1008e-07)
(2.86279e-06 1.96289e-07 4.77716e-07)
(8.68294e-08 -2.90043e-07 2.71e-07)
(-6.46676e-09 -8.58484e-06 5.24016e-07)
(-7.03394e-09 -1.47458e-08 4.0021e-07)
(-1.40473e-08 -3.78828e-08 3.01761e-07)
(-2.92477e-08 6.64727e-09 2.76765e-07)
(4.12045e-08 -3.4003e-08 4.52891e-07)
(-4.12038e-08 -5.95081e-09 3.51195e-07)
(-5.8147e-08 -3.8149e-08 2.58161e-07)
(3.95853e-08 -2.07441e-07 3.8335e-07)
(-1.26558e-08 -6.9926e-09 3.05495e-07)
(-2.3092e-08 -4.35026e-08 2.79452e-07)
(9.00707e-08 5.61982e-08 4.15461e-07)
(-3.71887e-08 1.04302e-09 3.0854e-07)
(-3.26105e-08 -2.40026e-08 2.53239e-07)
(-6.85579e-08 6.2115e-08 2.96965e-07)
(-4.44149e-08 -1.47534e-08 2.11645e-07)
(-7.26696e-08 -5.82172e-08 1.7959e-07)
(-3.21568e-08 1.01438e-08 2.90266e-07)
(-7.00852e-08 -2.47122e-08 2.25202e-07)
(-7.44476e-08 -8.96429e-09 1.62091e-07)
(2.74288e-08 1.48416e-07 1.70196e-07)
(-6.30012e-08 -1.61227e-08 1.65988e-07)
(-2.8885e-08 5.61007e-10 1.48994e-07)
(2.13125e-08 4.03463e-08 1.09045e-07)
(-8.4633e-08 3.36704e-08 1.19374e-07)
(1.35777e-08 -4.4911e-09 1.2057e-07)
(-6.46676e-09 -8.58484e-06 5.24016e-07)
(-9.43792e-09 -1.9327e-08 3.08406e-07)
(1.53378e-08 3.48081e-08 1.84683e-07)
)
;
    }
    procBoundary3to1
    {
        type            processor;
        value           nonuniform List<vector> 
27
(
(-0.0214771 0.000379055 -0.000695173)
(-0.0225172 0.000373477 -0.000649756)
(-0.0204917 0.000351155 -0.000375591)
(-0.0219323 0.000356182 -7.5196e-05)
(-0.0198308 0.000405082 0.000263755)
(-0.0214276 0.000473986 0.000754209)
(-0.0191864 0.000629425 0.00116116)
(-0.0203001 0.000825986 0.00188913)
(-0.0178174 0.00079307 0.00246517)
(-0.0201239 0.000283744 -0.000555638)
(-0.0216393 0.000269168 -0.000499485)
(-0.0197784 0.00026695 -0.000216169)
(-0.021399 0.000256874 6.93409e-05)
(-0.0193918 0.000344161 0.000403531)
(-0.0209325 0.000410306 0.00079444)
(-0.0185788 0.000639619 0.00118423)
(-0.0196656 0.000847994 0.00178597)
(-0.0169747 0.00133948 0.00245415)
(-0.0188653 0.000212667 -0.000425252)
(-0.0206115 0.000187388 -0.000337442)
(-0.018784 0.000195287 -0.000142748)
(-0.0205686 0.000177763 0.000145408)
(-0.0185721 0.00028122 0.00037488)
(-0.0201989 0.000368185 0.000762246)
(-0.0179492 0.000639859 0.00110702)
(-0.0190438 0.000898967 0.00166931)
(-0.0165046 0.00160324 0.00219487)
)
;
    }
    procBoundary3to2
    {
        type            processor;
        value           nonuniform List<vector> 
12
(
(-0.0227878 -1.05451e-05 -0.000678564)
(-0.0233315 -0.000309619 -0.000683864)
(-0.0246844 -0.000569301 -0.000715328)
(-0.026392 -0.00069152 -0.000733954)
(-0.0214271 1.01659e-05 -0.000595692)
(-0.0218643 -0.00021288 -0.000617533)
(-0.022966 -0.000456511 -0.00068339)
(-0.0246603 -0.000599225 -0.0007387)
(-0.0201998 1.51642e-05 -0.000449656)
(-0.0206109 -0.000167469 -0.000478949)
(-0.0215465 -0.000356186 -0.000568863)
(-0.0230954 -0.00047359 -0.000665622)
)
;
    }
    procBoundary3to7
    {
        type            processor;
        value           nonuniform List<vector> 
36
(
(-0.0180746 3.24177e-05 -0.000222662)
(-0.019759 2.9396e-05 -0.000110943)
(-0.0181158 2.98108e-05 0.000143626)
(-0.0196928 3.18937e-05 0.000393955)
(-0.0178915 3.28838e-05 0.000677991)
(-0.0191938 2.67417e-05 0.000951597)
(-0.0171303 3.0739e-05 0.00130412)
(-0.0178259 3.78913e-05 0.00154278)
(-0.0158043 -3.87922e-05 0.00232117)
(-0.0184379 -0.000114812 -0.000243485)
(-0.0202181 -8.65293e-05 -0.00014578)
(-0.0186043 -0.000111973 9.68798e-05)
(-0.0203436 -9.4436e-05 0.000347597)
(-0.0185991 -0.000220589 0.000685797)
(-0.0201662 -0.000254113 0.00100665)
(-0.0181412 -0.000626052 0.00159073)
(-0.0191469 -0.000694334 0.00196683)
(-0.0166861 -0.00179772 0.00319911)
(-0.0194586 -0.000196665 -0.000362675)
(-0.0212436 -0.000152909 -0.000335076)
(-0.0198017 -0.000134718 -0.000116419)
(-0.0215998 -0.000104077 0.000104585)
(-0.0200137 -0.000251599 0.000491476)
(-0.021711 -0.000306715 0.000836245)
(-0.0197716 -0.000928539 0.00166558)
(-0.0209454 -0.00119151 0.00222058)
(-0.0179862 -0.00339324 0.0043286)
(-0.0214248 -0.000267469 -0.000575655)
(-0.0229529 -0.000194766 -0.000722595)
(-0.0220051 -0.00015901 -0.000565448)
(-0.0235785 -8.84193e-05 -0.00051091)
(-0.0223488 -0.000262539 -1.39861e-05)
(-0.0240067 -0.000285282 0.000275443)
(-0.0220553 -0.00102531 0.00138272)
(-0.0237621 -0.00134228 0.00210089)
(-0.0194544 -0.00362655 0.00484113)
)
;
    }
}


// ************************************************************************* //
