/*--------------------------------*- C++ -*----------------------------------*\
| =========                 |                                                 |
| \\      /  F ield         | OpenFOAM: The Open Source CFD Toolbox           |
|  \\    /   O peration     | Version:  4.x                                   |
|   \\  /    A nd           | Web:      www.OpenFOAM.org                      |
|    \\/     M anipulation  |                                                 |
\*---------------------------------------------------------------------------*/
FoamFile
{
    version     2.0;
    format      ascii;
    class       volScalarField;
    location    "34";
    object      SPartFluid;
}
// * * * * * * * * * * * * * * * * * * * * * * * * * * * * * * * * * * * * * //

dimensions      [1 -3 -1 0 0 0 0];

internalField   nonuniform List<scalar> 
132
(
9.92012e-65
7.82759e-65
6.43257e-65
6.74258e-65
1.03076e-64
1.03851e-64
7.98259e-65
5.65756e-65
8.37009e-65
7.67259e-65
9.45511e-65
7.28508e-65
6.89758e-65
8.29259e-65
5.65756e-65
7.51758e-65
6.35507e-65
8.06009e-65
4.80506e-65
7.44009e-65
6.12257e-65
7.13008e-65
7.44009e-65
8.06009e-65
7.51759e-65
7.20758e-65
8.6026e-65
6.51008e-65
6.58758e-65
8.6801e-65
5.50257e-65
7.28509e-65
6.74258e-65
7.90509e-65
5.89007e-65
4.34005e-65
6.43257e-65
7.36258e-65
6.74258e-65
6.89758e-65
8.60259e-65
8.44759e-65
7.36258e-65
3.95255e-65
8.5251e-65
7.44009e-65
7.51759e-65
8.13759e-65
7.05258e-65
5.73506e-65
7.67258e-65
5.73506e-65
5.50257e-65
8.2151e-65
6.97508e-65
6.04507e-65
7.36259e-65
8.6026e-65
8.9126e-65
7.05258e-65
7.98259e-65
6.74258e-65
7.9051e-65
5.96757e-65
7.20759e-65
7.36259e-65
6.20007e-65
6.58758e-65
7.98259e-65
5.34756e-65
5.03756e-65
5.81257e-65
7.36258e-65
6.04507e-65
5.81256e-65
8.0601e-65
7.36259e-65
6.82008e-65
5.19256e-65
8.5251e-65
7.05258e-65
7.13008e-65
8.7576e-65
7.51758e-65
7.05259e-65
7.36259e-65
7.51759e-65
6.97508e-65
7.98259e-65
7.59509e-65
7.67259e-65
7.05258e-65
7.75009e-65
5.58007e-65
6.35508e-65
7.05259e-65
6.89758e-65
6.12257e-65
5.27006e-65
7.59509e-65
7.05259e-65
5.81257e-65
5.50256e-65
6.43257e-65
6.12257e-65
6.89758e-65
5.81257e-65
7.67259e-65
7.44009e-65
5.19256e-65
3.87505e-65
6.89758e-65
6.66508e-65
5.42506e-65
5.96757e-65
6.04508e-65
6.04507e-65
6.20008e-65
6.89758e-65
6.35508e-65
7.20759e-65
6.43258e-65
7.28509e-65
6.04508e-65
7.44009e-65
5.65757e-65
5.81257e-65
6.58758e-65
6.51008e-65
6.51008e-65
6.35508e-65
4.10755e-65
)
;

boundaryField
{
    inlet
    {
        type            calculated;
        value           nonuniform 0();
    }
    outlet
    {
        type            calculated;
        value           uniform 0;
    }
    wall
    {
        type            calculated;
        value           uniform 0;
    }
    procBoundary7to0
    {
        type            processor;
        value           uniform 2.32503e-65;
    }
    procBoundary7to1
    {
        type            processor;
        value           uniform 5.73507e-65;
    }
    procBoundary7to3
    {
        type            processor;
        value           nonuniform List<scalar> 
36
(
7.67259e-65
9.06761e-65
8.7576e-65
8.5251e-65
6.12257e-65
6.27757e-65
8.5251e-65
7.13008e-65
7.44008e-65
9.06761e-65
5.03756e-65
7.75009e-65
4.34005e-65
4.65005e-65
7.90509e-65
7.28508e-65
8.8351e-65
6.12257e-65
5.11506e-65
8.1376e-65
8.2151e-65
5.81257e-65
6.82008e-65
7.98259e-65
6.66508e-65
7.20758e-65
5.42506e-65
8.52511e-65
4.03005e-65
5.42507e-65
6.12257e-65
5.58007e-65
7.13009e-65
6.20007e-65
7.90509e-65
8.5251e-65
)
;
    }
    procBoundary7to5
    {
        type            processor;
        value           nonuniform List<scalar> 
44
(
8.4476e-65
6.04507e-65
7.51759e-65
5.73506e-65
4.57255e-65
7.28508e-65
5.42506e-65
8.68009e-65
9.99762e-65
4.34005e-65
7.28508e-65
7.59509e-65
6.20007e-65
7.05258e-65
7.13008e-65
6.89758e-65
5.58006e-65
9.99762e-65
4.34005e-65
4.34005e-65
8.99011e-65
7.98259e-65
1.00751e-64
7.36258e-65
8.21509e-65
8.9126e-65
8.6801e-65
4.80506e-65
9.37761e-65
8.99011e-65
7.98259e-65
7.98259e-65
9.68761e-65
7.75009e-65
6.51008e-65
6.74258e-65
6.82008e-65
7.36259e-65
5.65757e-65
7.13009e-65
5.58007e-65
9.68761e-65
7.75009e-65
7.75009e-65
)
;
    }
    procBoundary7to6
    {
        type            processor;
        value           nonuniform List<scalar> 
12
(
6.74258e-65
7.13009e-65
4.96006e-65
8.5251e-65
7.59509e-65
7.51759e-65
7.9051e-65
7.7501e-65
5.65757e-65
3.79755e-65
7.8276e-65
6.04508e-65
)
;
    }
}


// ************************************************************************* //
