/*--------------------------------*- C++ -*----------------------------------*\
| =========                 |                                                 |
| \\      /  F ield         | OpenFOAM: The Open Source CFD Toolbox           |
|  \\    /   O peration     | Version:  4.x                                   |
|   \\  /    A nd           | Web:      www.OpenFOAM.org                      |
|    \\/     M anipulation  |                                                 |
\*---------------------------------------------------------------------------*/
FoamFile
{
    version     2.0;
    format      ascii;
    class       volVectorField;
    location    "34";
    object      UsPrev;
}
// * * * * * * * * * * * * * * * * * * * * * * * * * * * * * * * * * * * * * //

dimensions      [0 1 -1 0 0 0 0];

internalField   nonuniform List<vector> 
132
(
(-4.93533e-09 -2.73006e-09 6.88942e-09)
(-6.48195e-09 -2.58088e-09 8.06305e-09)
(-6.48389e-09 -1.98882e-09 7.7117e-09)
(-7.17999e-09 -1.96268e-09 3.1182e-09)
(-5.31356e-09 -2.418e-10 -3.23668e-10)
(-3.79273e-09 1.32347e-09 -4.84271e-09)
(-3.93227e-09 1.37635e-09 -8.6137e-09)
(-2.84391e-09 1.69017e-09 -9.96402e-09)
(-2.31999e-09 5.89491e-10 -7.66113e-09)
(-7.03725e-09 -3.05281e-09 6.28035e-09)
(-7.77662e-09 -2.70689e-09 7.45477e-09)
(-8.01236e-09 -3.72883e-09 6.80443e-09)
(-8.56718e-09 -3.00845e-09 4.50301e-09)
(-5.46816e-09 -5.80714e-10 -4.55537e-10)
(-4.06653e-09 4.22457e-10 -4.05788e-09)
(-2.41316e-09 1.75704e-09 -8.0771e-09)
(-2.62871e-09 2.17488e-09 -1.3635e-08)
(-2.42675e-09 5.20736e-10 -1.0723e-08)
(-6.26284e-09 -3.97784e-09 3.04234e-09)
(-7.69103e-09 -2.3454e-09 5.74516e-09)
(-8.17983e-09 -2.76463e-09 5.68488e-09)
(-8.12777e-09 -2.75173e-09 3.45298e-09)
(-6.28361e-09 -9.6399e-10 3.25877e-11)
(-4.2947e-09 -3.59364e-10 -3.5826e-09)
(-3.03257e-09 9.97511e-10 -6.51062e-09)
(-1.17189e-09 1.31351e-09 -8.82434e-09)
(5.34317e-09 2.35241e-09 -6.75389e-09)
(-5.53887e-09 -2.72315e-09 1.07145e-09)
(-5.45919e-09 -1.08862e-09 1.45723e-09)
(-5.42029e-09 -2.05057e-09 3.06904e-09)
(-6.18199e-09 -1.71582e-09 1.8139e-09)
(-5.22369e-09 -1.07609e-09 4.68022e-10)
(-3.2774e-09 -7.37269e-10 -1.21619e-09)
(-1.89898e-09 -5.15283e-10 -3.39039e-09)
(-3.97668e-11 7.22481e-10 -3.22994e-09)
(3.30867e-09 9.60847e-10 -1.71215e-09)
(-4.8463e-09 -3.68237e-09 4.57539e-09)
(-4.70105e-09 -2.13879e-09 2.45172e-09)
(-2.43863e-09 -1.63716e-10 -1.77707e-10)
(-2.0398e-09 7.11092e-10 -3.20872e-09)
(-1.9613e-09 8.99598e-10 -5.24078e-09)
(-1.01919e-09 1.94262e-09 -7.44577e-09)
(1.37387e-10 7.36601e-10 -5.61042e-09)
(-5.62016e-09 -2.95471e-09 4.52034e-09)
(-5.25395e-09 -2.72612e-09 5.18305e-09)
(-5.57544e-09 -3.91772e-09 4.72894e-09)
(-5.75912e-09 -2.76044e-09 2.37441e-09)
(-4.64028e-09 -6.75577e-10 -9.64925e-10)
(-2.91802e-09 -8.83068e-11 -3.36525e-09)
(-2.46468e-09 5.16361e-10 -5.28924e-09)
(-1.58966e-09 2.10726e-09 -8.03989e-09)
(2.18993e-10 1.31689e-09 -4.50887e-09)
(-6.52326e-09 -2.87144e-09 3.00728e-09)
(-6.65209e-09 -1.57907e-09 3.799e-09)
(-7.29765e-09 -3.2513e-09 2.47743e-09)
(-7.13561e-09 -2.16257e-09 1.94431e-09)
(-7.01077e-09 -1.49915e-09 -2.64796e-10)
(-5.39585e-09 -1.91196e-09 -3.35582e-09)
(-3.66539e-09 -2.90209e-10 -4.74237e-09)
(-1.79692e-09 1.18723e-09 -4.68735e-09)
(1.28346e-08 6.58692e-09 -2.8072e-09)
(-5.33605e-09 -1.61685e-09 1.26237e-09)
(-6.42659e-09 -1.57578e-09 9.00597e-10)
(-7.53895e-09 -2.34571e-09 1.50782e-09)
(-7.55544e-09 -5.68455e-10 1.24135e-09)
(-6.01621e-09 -9.01823e-10 3.21239e-10)
(-5.30787e-09 -1.54316e-09 -2.12156e-09)
(-3.72096e-09 -1.4098e-09 -2.71915e-09)
(-1.86098e-09 3.4521e-10 -1.97762e-09)
(4.76372e-09 2.13575e-09 -1.02025e-09)
(-7.98666e-10 -9.93983e-10 5.20452e-11)
(4.76027e-10 3.07809e-11 -1.27867e-09)
(5.69816e-10 2.86125e-10 -3.39122e-09)
(6.14075e-10 3.32222e-10 -4.49927e-09)
(4.70904e-10 1.70247e-10 -2.55073e-09)
(-2.99767e-09 -2.6344e-09 2.89339e-09)
(-4.07757e-09 -2.50745e-09 4.22831e-09)
(-4.32828e-09 -2.01988e-09 4.49348e-09)
(-2.95881e-09 -2.46804e-09 1.98048e-09)
(-1.93787e-09 -1.36549e-09 -3.33155e-10)
(-5.34645e-10 -4.54306e-10 -1.87348e-09)
(-1.81878e-10 9.36985e-11 -3.8073e-09)
(1.1307e-10 1.02696e-09 -5.09023e-09)
(3.52212e-10 5.15471e-10 -3.06033e-09)
(-5.47673e-09 -2.58537e-09 2.29574e-09)
(-5.24536e-09 -2.36389e-09 1.63243e-09)
(-6.12222e-09 -2.81511e-09 3.09197e-09)
(-6.49485e-09 -2.13197e-09 9.02384e-10)
(-5.24883e-09 -1.76233e-09 -4.76357e-10)
(-4.614e-09 -1.38048e-09 -2.22303e-09)
(-4.58715e-09 -9.93268e-10 -2.5461e-09)
(-2.28817e-09 9.01902e-10 -2.25716e-09)
(-6.4271e-10 6.88817e-10 -2.10002e-09)
(-3.92972e-09 -8.17817e-10 1.54089e-09)
(-4.96038e-09 -1.22803e-09 8.94155e-10)
(-6.64121e-09 -9.4752e-10 1.19003e-09)
(-7.51523e-09 -6.80686e-10 7.71468e-10)
(-5.1533e-09 -7.85931e-10 -2.16248e-10)
(-5.71853e-09 -1.0238e-09 -2.32996e-09)
(-5.5208e-09 -1.07337e-09 -2.0512e-09)
(-2.18299e-09 -3.07659e-11 -1.21575e-09)
(-1.11603e-09 1.75359e-10 -8.13375e-10)
(1.61018e-09 8.60989e-10 -1.77987e-09)
(1.83494e-09 -5.80435e-10 -2.98334e-09)
(2.09821e-09 -3.24686e-10 -1.03808e-09)
(-2.00346e-10 -2.13687e-09 1.5588e-09)
(-6.13286e-10 -2.50601e-09 2.24001e-09)
(-7.96618e-10 -1.7894e-09 1.83351e-09)
(-5.88527e-10 -1.27446e-09 7.91182e-10)
(1.99409e-10 -8.96929e-10 -3.07858e-10)
(1.32972e-09 -3.21083e-10 -9.94576e-10)
(1.32645e-09 -1.35363e-10 -1.00001e-09)
(3.49522e-09 8.68316e-10 -2.35708e-09)
(1.7811e-09 1.29644e-09 -1.94554e-09)
(-2.31226e-09 -3.17857e-09 8.61176e-10)
(-2.26177e-09 -2.53243e-09 5.01781e-10)
(-2.95476e-09 -2.57904e-09 1.13859e-09)
(-2.95853e-09 -1.43506e-09 3.87747e-10)
(-2.75205e-09 -1.07558e-09 -3.63388e-10)
(-1.62496e-09 -7.97283e-10 -7.5396e-10)
(-1.31776e-09 -6.43596e-10 -5.3098e-10)
(-3.174e-10 1.16282e-09 -1.23111e-09)
(3.06528e-10 2.68489e-09 -6.74285e-10)
(-1.64219e-09 -7.41634e-10 5.0137e-10)
(-2.35263e-09 -1.19318e-09 4.16588e-10)
(-3.39992e-09 -7.77345e-10 2.2199e-10)
(-3.95289e-09 -3.46579e-10 1.26472e-10)
(-4.52235e-09 -6.70827e-09 -1.80243e-10)
(-2.85552e-09 -5.18228e-10 -1.06814e-09)
(-2.83713e-09 -4.87423e-10 -3.93278e-10)
(-1.76053e-09 -1.83174e-10 -7.43324e-10)
(-7.25584e-10 3.68078e-09 3.582e-10)
)
;

boundaryField
{
    inlet
    {
        type            calculated;
        value           nonuniform 0();
    }
    outlet
    {
        type            calculated;
        value           uniform (0 0 0);
    }
    wall
    {
        type            calculated;
        value           uniform (0 0 0);
    }
    procBoundary7to0
    {
        type            processor;
        value           uniform (0 0 0);
    }
    procBoundary7to1
    {
        type            processor;
        value           uniform (0 0 0);
    }
    procBoundary7to3
    {
        type            processor;
        value           uniform (0 0 0);
    }
    procBoundary7to5
    {
        type            processor;
        value           uniform (0 0 0);
    }
    procBoundary7to6
    {
        type            processor;
        value           uniform (0 0 0);
    }
}


// ************************************************************************* //
