/*--------------------------------*- C++ -*----------------------------------*\
| =========                 |                                                 |
| \\      /  F ield         | OpenFOAM: The Open Source CFD Toolbox           |
|  \\    /   O peration     | Version:  4.x                                   |
|   \\  /    A nd           | Web:      www.OpenFOAM.org                      |
|    \\/     M anipulation  |                                                 |
\*---------------------------------------------------------------------------*/
FoamFile
{
    version     2.0;
    format      ascii;
    class       volVectorField;
    location    "3.5";
    object      U;
}
// * * * * * * * * * * * * * * * * * * * * * * * * * * * * * * * * * * * * * //

dimensions      [0 1 -1 0 0 0 0];

internalField   nonuniform List<vector> 
108
(
(0.0304048 -0.0017631 -0.00096167)
(0.0134299 -0.00108915 -0.000444688)
(0.0319828 -0.00243268 0.00036926)
(0.0172785 -0.00173119 0.000604211)
(0.0340994 -0.00223012 0.00209487)
(0.0208999 -0.00228519 0.00171297)
(0.0366688 -0.00152792 0.00294186)
(0.02307 -0.00324071 0.00194109)
(0.0393072 -0.00162198 0.00341631)
(0.0299558 -0.00253033 -0.000879225)
(0.00818753 -0.000911159 -0.000255278)
(0.0284637 -0.00253377 0.000431078)
(0.00391056 -0.000325136 9.23432e-05)
(0.0265195 -0.000995088 0.00122388)
(0.00126058 -9.27556e-06 8.94502e-06)
(0.0238612 -0.000130895 0.000612323)
(0.000573419 1.60055e-05 -4.76122e-05)
(0.0203231 2.35265e-05 -0.000618771)
(0.0295392 -0.000921739 -0.000296237)
(0.00744569 -0.000423936 -3.69707e-06)
(0.0280756 -0.000679735 0.00112358)
(0.00280063 -0.000170475 0.00013866)
(0.0276346 -0.000290116 0.000838255)
(0.000998437 -8.85342e-05 -2.74222e-05)
(0.0277581 -0.000490353 0.000126157)
(-0.000130515 -3.3784e-05 -2.81109e-05)
(0.0281266 -0.000866622 -0.000479779)
(0.0299238 -0.000527255 -0.000154365)
(0.00790859 -0.000125957 0.000213585)
(0.0284279 -0.000117385 0.00143012)
(0.0044448 -0.000126393 0.000365652)
(0.0273695 0.000119743 0.00118772)
(0.00246887 -1.25961e-05 0.000153797)
(0.0263795 0.000285625 0.000315632)
(0.000631494 1.73764e-05 -3.06357e-05)
(0.0250374 -0.000558627 -0.000694602)
(0.0306917 -0.00165221 7.87869e-05)
(0.0134293 -0.000899918 0.000229808)
(0.0326291 -0.00230071 0.00107427)
(0.0175668 -0.00110776 0.000966241)
(0.0351514 -0.00227481 0.0019564)
(0.022305 -0.00112275 0.00219329)
(0.0383237 -0.00150585 0.00301815)
(0.0260094 -0.000543678 0.00340441)
(0.0417369 -0.000717715 0.00392717)
(0.0308419 -0.00188824 0.000852547)
(0.0088399 -0.000723239 0.000549274)
(0.0304682 -0.00212152 0.00230817)
(0.00573212 -0.000320145 0.000788557)
(0.0296374 -0.00169186 0.00210499)
(0.00299855 -7.05903e-05 0.000511646)
(0.0286685 -0.000560157 0.000705061)
(0.00114533 -8.58613e-06 0.00021561)
(0.0291757 0.000465998 -0.000332091)
(0.030341 -0.000997128 0.00137894)
(0.00943263 -0.000469132 0.000792756)
(0.030128 -0.000735114 0.00271103)
(0.00685046 -0.000374089 0.00096326)
(0.0296101 -0.000701263 0.00200779)
(0.0032179 -0.00019528 0.00034739)
(0.0290638 -0.000738043 0.00075808)
(0.000755873 -8.03416e-05 2.78674e-05)
(0.0295675 -0.000438098 0.000207165)
(0.0305599 -0.000555842 0.000940233)
(0.00929237 -6.78316e-05 0.00081834)
(0.0300265 -0.000317405 0.00249411)
(0.00749512 -2.05868e-05 0.00127777)
(0.0295162 0.00012659 0.00248354)
(0.00471066 3.90037e-05 0.00116704)
(0.0282102 0.000143095 0.00152656)
(0.00099553 2.90235e-05 0.000307616)
(0.0266075 0.000596702 0.000428539)
(0.0305557 -0.000931942 2.22659e-05)
(0.0133756 -0.000491984 9.83455e-07)
(0.0323751 -0.00102439 0.00061038)
(0.0171139 -0.000310146 6.2256e-05)
(0.0347082 -0.000902851 0.000830329)
(0.0212707 -0.000138205 8.57435e-05)
(0.0377848 -0.000606842 0.00107692)
(0.0258601 -5.73982e-05 0.000352607)
(0.0422481 -0.000464885 0.00122884)
(0.0307309 -0.00127808 0.00072198)
(0.0127076 -0.000591398 0.000378475)
(0.0321225 -0.0011489 0.00190156)
(0.0162632 -0.000237483 0.000794999)
(0.034372 -0.000641359 0.00209323)
(0.0196706 1.1028e-05 0.000687796)
(0.036295 -0.000347437 0.0012897)
(0.0207345 9.53663e-06 -0.000146239)
(0.0375427 -0.000267595 -3.28253e-05)
(0.0303745 -0.00083151 0.00067001)
(0.0127586 -0.000364876 0.000459683)
(0.0319216 -0.000654401 0.0018716)
(0.0164156 -0.000413516 0.000965079)
(0.0343165 -0.000312746 0.00239177)
(0.0204246 -0.00024004 0.000950165)
(0.0368896 -0.000110639 0.00146584)
(0.0230397 -0.000452708 5.00787e-05)
(0.0392925 -0.000419507 -0.000255236)
(0.0303641 -0.000216093 0.000864443)
(0.0124003 -9.82985e-05 0.000598118)
(0.031544 -0.00039603 0.00203755)
(0.0157726 -0.000315187 0.00115191)
(0.0340736 -0.000597415 0.00272537)
(0.020255 -0.000721536 0.0017327)
(0.0368085 -0.00118737 0.00256801)
(0.0237046 -0.00172987 0.0016039)
(0.0387332 -0.00200112 0.00111066)
)
;

boundaryField
{
    inlet
    {
        type            fixedValue;
        value           uniform (0.01 0 0);
    }
    outlet
    {
        type            zeroGradient;
    }
    wall
    {
        type            fixedValue;
        value           uniform (0 0 0);
    }
    procBoundary4to0
    {
        type            processor;
        value           nonuniform List<vector> 
36
(
(0.0306911 -0.00173885 -0.00190271)
(0.0130616 -0.00096566 -0.000962052)
(0.0328146 -0.00236126 0.000164954)
(0.0179438 -0.00123969 0.000653558)
(0.0359261 -0.00239806 0.00267588)
(0.0229366 -0.00143916 0.00184837)
(0.0392486 -0.00192869 0.00376749)
(0.0264856 -0.00118908 0.00180208)
(0.0422951 -0.000834407 0.00387033)
(0.0306923 -0.00255118 -0.00220388)
(0.00896333 -0.00105898 -0.00089537)
(0.030649 -0.00278904 -0.000190012)
(0.00758634 -0.000709238 -0.000176587)
(0.0306065 -0.00157335 0.001656)
(0.0058382 -0.000217064 -0.000361018)
(0.0303468 -0.000542433 0.00145652)
(0.00413354 4.52803e-05 -0.000881528)
(0.0297105 0.000511171 -3.50504e-07)
(0.0299083 -0.00169663 -0.0018468)
(0.00745398 -0.000798645 -0.000553635)
(0.0291693 -0.00152756 0.000511235)
(0.00402691 -0.000409783 0.00012435)
(0.0290931 -0.000489843 0.00156537)
(0.00241711 -0.000225448 2.53332e-05)
(0.0293542 -0.000201889 0.000327868)
(0.00125679 -0.000166609 -0.000137685)
(0.0297227 -7.45753e-05 -0.00121073)
(0.0299736 -0.00049546 -0.00159884)
(0.00709639 -0.000132546 -0.000557425)
(0.0289299 -0.000192871 0.000501043)
(0.00374912 1.91809e-06 -2.33606e-05)
(0.0289156 6.26965e-05 0.00128835)
(0.00328133 7.22251e-05 -0.000186635)
(0.0295049 -4.30236e-05 0.000729217)
(0.00352209 0.000111557 -0.000478031)
(0.0293703 -0.000187168 -0.000177275)
)
;
    }
    procBoundary4to5
    {
        type            processor;
        value           nonuniform List<vector> 
12
(
(0.0242058 -0.00533437 0.00231297)
(-0.000246315 -4.89004e-05 -1.9276e-05)
(-0.00153644 -0.000390992 0.000318024)
(-0.00165135 0.000335533 -0.000292476)
(0.0278001 -0.000328237 0.00422772)
(-0.000200398 -2.93516e-05 9.46391e-05)
(-0.000168999 -0.000117215 7.64448e-05)
(-0.00166005 -8.51254e-05 0.000502554)
(0.0305586 -0.000303516 0.000336766)
(0.0197714 -0.00032558 -0.00131702)
(0.0240914 -0.00175263 -0.0012538)
(0.0246806 -0.00458953 0.000745397)
)
;
    }
    procBoundary4to6
    {
        type            processor;
        value           nonuniform List<vector> 
27
(
(0.02878 0.000887244 -0.000378631)
(0.0064728 0.000481442 4.53223e-05)
(0.0262792 0.000769415 0.000826337)
(0.00140853 0.000182852 2.35234e-05)
(0.0254325 0.000297838 0.000792838)
(0.00067161 0.000164635 -5.15894e-05)
(0.0252713 0.000206972 0.000212109)
(0.00188148 0.00072817 -0.000263663)
(0.0255453 0.000454161 -0.000414255)
(0.0300852 0.000590921 0.00163547)
(0.00868689 0.000246331 0.000788901)
(0.0294628 0.000406363 0.00236894)
(0.00523699 0.000183306 0.000771368)
(0.0290949 0.000285162 0.00122477)
(0.00294287 0.000142218 0.00022904)
(0.0296815 0.000392105 -0.000594687)
(0.00254326 0.000203183 -9.25163e-05)
(0.0315148 -1.10931e-06 -0.000787238)
(0.030436 0.000697027 0.00102012)
(0.0128835 0.000257449 0.000476367)
(0.0317219 0.000426773 0.00179955)
(0.015386 0.000216408 0.000678863)
(0.0331422 0.000124484 0.001605)
(0.0162765 8.26553e-05 -3.09024e-05)
(0.0327557 -0.000246085 -6.3502e-05)
(0.0128623 3.978e-05 -0.00151022)
(0.0286527 -0.000251124 -0.00293079)
)
;
    }
}


// ************************************************************************* //
