/*--------------------------------*- C++ -*----------------------------------*\
  =========                 |
  \\      /  F ield         | OpenFOAM: The Open Source CFD Toolbox
   \\    /   O peration     | Website:  https://openfoam.org
    \\  /    A nd           | Version:  4.x
     \\/     M anipulation  |
\*---------------------------------------------------------------------------*/
FoamFile
{
    version     2.0;
    format      ascii;
    class       vectorField;
    location    0;
    object      v;
}
// * * * * * * * * * * * * * * * * * * * * * * * * * * * * * * * * * * * * * //

303
(
( -1.24407e-07 1.00387e-08 -4.30596e-08 )  
( -3.26123e-07 -2.85559e-10 -7.15599e-08 )  
( -3.26833e-07 6.02907e-09 -7.20421e-08 )  
( -2.50172e-07 -4.29863e-08 -6.36832e-08 )  
( -2.78512e-07 -1.49266e-08 -5.60607e-08 )  
( -3.61053e-07 2.33546e-08 -8.24723e-08 )  
( -1.39584e-07 1.96489e-09 -5.90079e-08 )  
( -3.41163e-07 1.08276e-08 -7.12375e-08 )  
( -3.10213e-07 3.84966e-08 -4.8028e-08 )  
( -3.05135e-07 -1.84166e-08 4.28126e-08 )  
( -8.88343e-08 -2.77524e-08 2.45205e-07 )  
( -4.2379e-08 1.83656e-08 1.35911e-08 )  
( -4.21005e-07 4.61e-08 -3.8075e-09 )  
( -1.51203e-07 -2.1091e-08 1.92877e-07 )  
( -3.19967e-08 8.60085e-09 -8.30119e-08 )  
( -3.71692e-07 2.8249e-08 5.83601e-08 )  
( 5.29881e-07 1.0185e-07 2.89876e-09 )  
( -4.52401e-07 3.20871e-08 2.58106e-08 )  
( -4.42073e-07 3.2213e-08 2.14736e-08 )  
( -1.14142e-07 1.01596e-08 7.34649e-08 )  
( -4.29259e-07 4.44467e-08 3.67442e-09 )  
( -4.55845e-07 -2.36766e-08 8.36354e-08 )  
( -4.12042e-07 5.13591e-08 -1.68559e-08 )  
( -4.08269e-07 3.16072e-08 1.52931e-08 )  
( -3.77728e-07 4.28096e-08 -5.82095e-08 )  
( -3.78933e-07 4.64654e-08 -2.30518e-08 )  
( -6.16793e-08 -3.04982e-08 7.61852e-08 )  
( -2.41538e-08 -5.56101e-09 -5.50677e-08 )  
( -4.08278e-07 4.73355e-08 -2.42312e-08 )  
( -2.13613e-07 -2.75817e-08 1.05836e-07 )  
( -8.49426e-09 -2.53341e-08 -2.34795e-08 )  
( -3.65685e-07 4.29518e-08 -3.32441e-08 )  
( -5.30608e-08 1.68387e-08 9.87517e-09 )  
( -2.2961e-07 -5.94738e-08 9.21589e-08 )  
( -2.89064e-07 5.29094e-08 -8.59616e-09 )  
( -3.33445e-07 1.54871e-08 1.17424e-08 )  
( -4.14704e-07 3.78556e-08 -2.91544e-09 )  
( -1.25527e-07 -3.17898e-08 4.2211e-08 )  
( -3.03846e-07 6.72562e-09 -3.40058e-08 )  
( -3.64891e-07 2.85053e-08 1.03856e-08 )  
( 6.54179e-07 1.65405e-07 -1.59216e-08 )  
( -3.10006e-07 -5.77131e-08 7.28453e-08 )  
( -4.06218e-08 3.97229e-10 -9.18924e-08 )  
( -3.73949e-07 3.433e-08 -8.8621e-09 )  
( -3.94744e-07 4.46235e-08 -3.94793e-08 )  
( -3.08451e-07 -2.64739e-08 1.29264e-07 )  
( -3.36489e-08 6.20365e-08 -7.58679e-08 )  
( -1.07791e-08 -2.02648e-08 3.96772e-08 )  
( 1.08965e-08 -2.27465e-08 5.15142e-08 )  
( -4.09658e-07 2.21469e-08 4.34341e-08 )  
( -4.16063e-07 3.63097e-08 -3.2345e-08 )  
( -3.11916e-07 3.46899e-08 -2.24494e-08 )  
( -2.91481e-07 -5.27836e-08 6.80505e-09 )  
( -3.77763e-07 2.779e-10 3.60341e-08 )  
( -2.09299e-07 1.06027e-08 -1.23018e-08 )  
( -2.35945e-07 -2.40431e-08 5.59883e-09 )  
( -3.49566e-09 -4.63308e-08 -6.39244e-09 )  
( -1.62438e-07 8.46008e-09 -4.10518e-08 )  
( -1.50652e-07 -4.96183e-08 8.92765e-08 )  
( -2.78473e-07 6.48614e-09 -6.17748e-10 )  
( -1.30626e-07 -1.98371e-08 -1.1476e-08 )  
( 7.05063e-08 6.33975e-08 -1.00907e-07 )  
( -1.37941e-08 1.51974e-08 -6.69187e-08 )  
( -1.39533e-07 -3.41728e-08 -1.85831e-07 )  
( -3.57854e-07 3.71278e-08 -4.58848e-08 )  
( -9.59873e-08 -5.07628e-08 -3.98931e-09 )  
( -3.8314e-07 3.0922e-08 -1.99127e-08 )  
( -3.62213e-07 -4.79148e-08 1.87331e-08 )  
( -1.88359e-07 -3.54148e-08 1.22968e-07 )  
( -3.86662e-07 2.88192e-08 -3.55448e-08 )  
( -3.90601e-07 4.21659e-08 -5.23837e-08 )  
( -9.89406e-09 -4.06376e-08 1.13521e-07 )  
( -3.12555e-07 -2.84233e-09 -5.61353e-08 )  
( -1.49304e-07 -7.1174e-08 4.52749e-08 )  
( -1.10172e-07 -3.63729e-08 2.8062e-08 )  
( 9.50065e-08 8.16644e-09 3.48568e-08 )  
( -3.17344e-07 -5.36864e-09 3.33323e-08 )  
( -4.00577e-07 3.0625e-08 -2.85278e-08 )  
( -1.08056e-07 5.4116e-09 -3.66727e-08 )  
( -3.25275e-07 -1.15286e-08 1.1661e-07 )  
( -2.59176e-07 2.42022e-08 -3.57527e-08 )  
( -3.80899e-07 3.50768e-08 -5.73264e-08 )  
( -1.31654e-07 -4.16801e-08 9.13569e-08 )  
( -3.12515e-08 -2.6817e-08 2.01606e-08 )  
( 5.19386e-09 -9.94135e-08 1.22383e-07 )  
( -4.00366e-08 -5.11436e-08 1.58193e-07 )  
( -2.29577e-07 -1.12405e-08 5.26071e-09 )  
( -1.33829e-07 -3.57905e-08 6.38276e-08 )  
( 1.1587e-08 -3.47309e-08 2.52928e-08 )  
( -1.95833e-08 8.18384e-08 -1.96856e-07 )  
( -4.09279e-07 3.62215e-08 1.47453e-08 )  
( -2.26147e-07 -5.33344e-08 1.01903e-07 )  
( -8.62748e-08 -1.3277e-08 2.67892e-08 )  
( -5.55191e-08 -3.4434e-08 -2.67161e-08 )  
( -2.30296e-07 -1.5801e-08 9.44634e-08 )  
( -2.83946e-07 3.98472e-09 -1.32078e-08 )  
( -7.14831e-10 -6.55729e-08 9.24469e-08 )  
( -1.68045e-07 -1.68435e-07 -7.18565e-08 )  
( -2.35605e-07 -3.30848e-08 9.63299e-08 )  
( -3.92921e-07 2.74209e-08 5.10057e-08 )  
( -3.95043e-07 2.09362e-08 5.43154e-08 )  
( -2.59426e-07 -2.66992e-08 -3.94147e-08 )  
( -6.21429e-08 4.75109e-10 -1.54758e-07 )  
( -4.0059e-07 5.17964e-08 1.54153e-07 )  
( 8.23656e-08 -2.81753e-08 1.42302e-07 )  
( -2.9557e-08 -8.31514e-08 1.71524e-07 )  
( -2.41531e-07 -1.03778e-08 -2.0741e-08 )  
( -9.20493e-08 -2.77453e-08 3.54386e-08 )  
( -8.56815e-08 1.57307e-05 -6.09716e-07 )  
( -3.21506e-07 4.05392e-08 -3.66492e-08 )  
( -4.18991e-07 5.20668e-08 -8.94714e-09 )  
( -3.92081e-07 3.68788e-08 -3.61915e-08 )  
( -4.07885e-07 1.84192e-08 4.87429e-08 )  
( -3.48714e-08 2.74237e-07 -3.57211e-08 )  
( -1.01986e-07 -4.03977e-08 9.42065e-09 )  
( -3.07175e-07 6.51586e-08 1.0819e-10 )  
( 2.52145e-08 -3.67012e-09 -1.97066e-08 )  
( -2.77463e-07 -2.0413e-08 6.85277e-08 )  
( -5.63469e-08 2.82991e-08 2.12061e-08 )  
( 2.45206e-07 4.82736e-08 7.32605e-08 )  
( -3.70524e-07 4.19998e-08 -3.51269e-08 )  
( -3.33567e-07 1.52662e-08 -5.15517e-08 )  
( -3.52471e-07 -3.46533e-08 9.15283e-08 )  
( -1.03033e-07 -1.39638e-08 3.2376e-08 )  
( -3.71322e-07 4.612e-08 -2.24106e-08 )  
( -2.03379e-07 -1.92981e-08 1.3132e-08 )  
( 4.12084e-08 5.52054e-09 -2.95703e-08 )  
( -1.63938e-07 -3.2951e-08 1.01793e-07 )  
( -5.61192e-08 -7.24084e-08 -2.74301e-07 )  
( -1.48279e-07 -3.00448e-08 2.51791e-08 )  
( -5.58519e-08 9.63932e-08 -1.04011e-08 )  
( -3.66169e-10 -6.52181e-08 7.20866e-08 )  
( -1.4414e-07 -3.57937e-08 -9.45644e-09 )  
( -1.35192e-07 -1.16526e-08 3.47508e-08 )  
( 1.82531e-08 -3.80093e-08 -1.15284e-08 )  
( -3.75727e-07 4.61064e-08 -5.20074e-08 )  
( -3.88137e-07 -3.01424e-07 1.02732e-07 )  
( -1.04634e-10 -1.1415e-08 -7.83968e-09 )  
( -4.34446e-07 1.00843e-08 6.17294e-08 )  
( -1.55801e-07 -2.63675e-09 -1.85173e-09 )  
( -4.91663e-08 3.34268e-09 -5.28091e-08 )  
( -1.52982e-07 -1.8872e-08 6.31569e-08 )  
( -4.09006e-07 2.82973e-08 3.2857e-08 )  
( -2.15293e-07 -4.64057e-08 -9.9437e-10 )  
( -4.63444e-08 -1.2424e-08 -2.68034e-08 )  
( 1.73159e-07 6.85278e-08 -9.23867e-08 )  
( -1.49167e-07 -4.33257e-08 4.70722e-08 )  
( -3.10746e-07 5.0552e-08 -2.41718e-08 )  
( -6.40589e-08 5.83485e-10 8.24534e-09 )  
( -1.23828e-07 -2.91599e-08 -2.81207e-09 )  
( -3.96257e-07 4.56553e-08 -2.6714e-08 )  
( -1.57511e-07 -2.96827e-10 -3.8751e-08 )  
( -3.61932e-07 3.96949e-08 -3.93058e-08 )  
( -3.82611e-07 -8.56938e-10 2.09707e-08 )  
( -2.74068e-07 -2.11649e-08 9.26106e-09 )  
( -2.50203e-07 -4.99201e-10 1.20395e-07 )  
( -9.07387e-08 -3.7088e-08 -4.47677e-08 )  
( -1.29249e-07 -6.63699e-08 1.11005e-07 )  
( -7.669e-08 -2.50769e-08 4.94823e-08 )  
( -2.94976e-07 3.97716e-08 -1.71216e-08 )  
( -2.38537e-07 -4.18104e-08 -2.73901e-09 )  
( -5.11165e-09 5.74357e-08 -2.13554e-07 )  
( -9.62854e-08 -3.55173e-08 9.88163e-08 )  
( -4.00918e-07 4.97431e-08 -2.60079e-08 )  
( -3.07276e-08 -4.18793e-09 -1.24569e-08 )  
( -7.46827e-09 -2.15614e-08 -1.47212e-07 )  
( -2.92532e-07 -7.9824e-09 -4.55343e-08 )  
( -2.52111e-07 4.46417e-08 -2.73538e-08 )  
( 4.09517e-08 -3.13536e-08 -5.95919e-08 )  
( -3.31939e-07 2.98067e-08 -1.28743e-08 )  
( -4.23929e-08 3.92315e-08 -1.88069e-08 )  
( -6.03954e-08 -6.52858e-10 -3.15019e-08 )  
( -3.32717e-07 9.27653e-09 -6.36512e-08 )  
( -6.51848e-08 -1.32331e-07 7.86992e-08 )  
( -1.73191e-07 3.23226e-09 3.3199e-09 )  
( -1.48187e-07 2.86735e-08 -1.85667e-09 )  
( -6.8047e-08 -5.61075e-09 -2.31141e-08 )  
( -2.57899e-08 -1.97108e-08 -2.49855e-08 )  
( -1.91171e-07 -2.605e-08 7.75163e-08 )  
( 4.77735e-08 -5.92155e-08 1.16619e-07 )  
( -1.22488e-07 -6.11362e-08 -5.36217e-08 )  
( -1.22709e-07 -8.88588e-09 -2.24073e-08 )  
( -1.48211e-07 -3.54262e-08 -2.63945e-08 )  
( 7.13646e-08 -6.65944e-08 -3.42304e-08 )  
( 1.54906e-07 -3.39512e-08 1.83713e-10 )  
( -2.96278e-07 1.33202e-08 3.10175e-08 )  
( -1.93177e-07 1.12839e-08 1.7875e-08 )  
( 1.22012e-07 -1.25155e-08 -6.85752e-09 )  
( -3.17068e-07 4.58981e-08 -1.88527e-08 )  
( -3.27546e-07 3.6006e-08 -2.93451e-08 )  
( -3.48839e-08 -7.34994e-08 7.54757e-08 )  
( -3.955e-07 4.6811e-08 -1.98681e-08 )  
( -6.38873e-08 7.97379e-09 -2.782e-08 )  
( -2.00246e-07 -3.44092e-08 -1.20645e-08 )  
( -1.59397e-07 6.26968e-09 1.03631e-08 )  
( -3.60727e-07 3.82973e-08 -1.81188e-08 )  
( -9.29279e-08 -2.5884e-08 -4.46059e-10 )  
( -2.84092e-07 -5.33688e-10 4.1209e-08 )  
( -5.89838e-08 7.61129e-08 -4.68481e-08 )  
( -3.06613e-07 8.71242e-09 -2.16985e-08 )  
( -2.20787e-07 -6.57936e-08 3.61664e-09 )  
( -2.07884e-07 -5.60602e-08 5.18179e-08 )  
( -1.19599e-07 4.37255e-09 2.93011e-08 )  
( -9.11917e-08 3.30058e-09 2.2455e-08 )  
( -2.20229e-07 -2.48224e-08 -2.01614e-08 )  
( -2.38872e-07 -3.12029e-08 4.26727e-09 )  
( -1.25979e-07 -1.70052e-08 4.19001e-08 )  
( -1.60892e-07 -4.16057e-08 3.78451e-08 )  
( -1.94665e-07 -1.56406e-08 5.19917e-09 )  
( -1.90039e-07 -5.48712e-08 2.62887e-08 )  
( -8.50449e-08 -1.80823e-09 1.88578e-08 )  
( -7.46358e-09 -3.75733e-08 -1.15353e-07 )  
( -1.46582e-07 -2.7519e-09 3.77957e-08 )  
( -3.72785e-07 4.12764e-08 -2.16261e-08 )  
( -1.54535e-07 -2.07617e-08 6.82781e-08 )  
( -1.40757e-07 6.68184e-08 -3.67257e-08 )  
( -4.0604e-07 4.13395e-08 2.14847e-09 )  
( -1.62966e-07 6.37088e-09 4.99233e-09 )  
( -2.3693e-07 -1.90854e-08 -1.34523e-08 )  
( -3.30008e-07 4.23782e-08 -4.36685e-08 )  
( -1.98616e-07 -3.58362e-08 -8.12346e-09 )  
( -3.41491e-08 -2.30196e-08 -5.0637e-08 )  
( -1.32037e-08 -4.20614e-08 -3.88905e-08 )  
( -3.23097e-07 7.46155e-10 -7.24467e-08 )  
( -3.56753e-07 3.64884e-08 -6.05229e-08 )  
( -2.27908e-08 -1.55341e-08 1.32033e-08 )  
( -4.0769e-07 5.23321e-08 -7.58048e-09 )  
( -2.93961e-07 -9.22856e-09 9.84342e-08 )  
( -6.56075e-09 -4.19788e-08 3.01718e-09 )  
( -4.14841e-07 4.91462e-08 -9.1589e-09 )  
( -1.18141e-07 1.32823e-08 -1.44269e-07 )  
( -1.9431e-07 1.93661e-09 1.35595e-07 )  
( -3.8542e-07 1.92854e-08 -5.33303e-08 )  
( -2.93749e-07 5.26199e-08 -2.06206e-08 )  
( -7.72131e-08 -1.39949e-08 7.96967e-09 )  
( -6.99552e-08 1.33038e-08 1.48434e-08 )  
( -2.70602e-07 1.83862e-09 -5.37715e-08 )  
( -2.62699e-07 -1.0698e-08 9.86451e-08 )  
( -4.97069e-08 -1.40023e-07 1.42026e-07 )  
( -3.59253e-07 3.96369e-08 -3.91714e-08 )  
( -1.13662e-07 -1.03469e-08 6.01952e-08 )  
( -3.63528e-07 3.92308e-08 -4.65965e-08 )  
( -4.16637e-07 -1.8816e-08 -1.71251e-08 )  
( -4.48573e-07 3.71233e-08 3.83682e-08 )  
( -3.51612e-07 2.68115e-08 -7.78461e-08 )  
( -3.41351e-07 1.41197e-08 -1.50381e-08 )  
( -3.23193e-09 -1.44559e-09 -1.61797e-08 )  
( -3.52033e-07 -6.53194e-09 1.21996e-07 )  
( -3.37999e-07 4.54801e-08 -3.1773e-08 )  
( -1.92616e-07 -4.33858e-08 7.46775e-08 )  
( -3.15018e-07 -1.00755e-08 -6.99554e-08 )  
( -3.93808e-07 4.02411e-08 -4.09189e-08 )  
( -3.62709e-07 -6.9266e-09 4.92191e-08 )  
( -3.97184e-07 5.65748e-08 -1.96421e-08 )  
( -1.83846e-07 -3.62509e-08 5.95937e-08 )  
( -4.0239e-07 7.4002e-09 2.20266e-08 )  
( -2.67746e-08 1.84845e-08 -8.43474e-11 )  
( -3.5457e-07 3.75411e-08 -2.78352e-08 )  
( -2.59431e-07 3.93712e-08 -2.44482e-08 )  
( -2.90322e-07 -2.09632e-08 1.20722e-09 )  
( -3.86145e-07 3.72118e-08 2.73714e-08 )  
( -1.2009e-07 -1.55985e-08 4.27359e-08 )  
( -1.979e-07 7.29076e-08 -3.07551e-08 )  
( -7.92688e-08 -1.10466e-09 -1.22913e-09 )  
( -3.36561e-07 2.71767e-08 -5.45689e-08 )  
( -1.27792e-07 -1.05565e-08 5.91799e-08 )  
( -3.26553e-07 -1.13949e-08 4.63708e-08 )  
( -6.161e-08 9.0978e-09 -3.13145e-08 )  
( -3.83392e-07 4.74763e-08 -2.54167e-08 )  
( -1.42365e-07 -1.12812e-08 2.30153e-08 )  
( -3.74695e-07 4.51756e-08 -2.1772e-08 )  
( -6.03092e-08 -8.86823e-09 2.43931e-08 )  
( -2.15651e-07 -6.48461e-08 2.57309e-08 )  
( -1.33096e-07 -9.15902e-09 3.49793e-08 )  
( -4.75498e-07 3.61609e-08 3.46049e-08 )  
( -3.824e-07 3.64947e-08 -4.56091e-08 )  
( -5.28888e-08 -1.38598e-08 -3.7869e-08 )  
( -2.08553e-07 -5.37041e-08 1.24529e-07 )  
( -1.97992e-07 -5.1579e-08 1.01144e-07 )  
( -2.90944e-07 6.10492e-08 -2.01509e-08 )  
( -3.96151e-07 -3.02438e-08 6.34959e-08 )  
( 2.40174e-07 5.68661e-08 1.14048e-07 )  
( -2.29974e-07 -2.33569e-08 -3.39787e-08 )  
( -3.8499e-07 1.29976e-08 -4.61514e-08 )  
( -4.46408e-07 1.94539e-07 6.39889e-09 )  
( -3.15383e-07 1.39896e-08 -4.31754e-08 )  
( -2.17166e-07 -4.29618e-08 2.76341e-08 )  
( -2.20892e-07 5.83176e-08 7.30368e-09 )  
( -3.72586e-07 8.00001e-08 -3.57901e-08 )  
( -3.6487e-07 1.83494e-08 -7.72492e-08 )  
( -3.82483e-07 -2.54814e-08 2.06981e-08 )  
( -3.19295e-07 -2.42949e-08 1.91211e-09 )  
( 1.64648e-08 -8.67641e-08 8.93412e-09 )  
( -1.04659e-07 1.43898e-08 -6.94719e-09 )  
( -3.56864e-08 -7.64063e-08 1.46128e-07 )  
( -3.8484e-07 4.60838e-08 -1.94533e-08 )  
( 1.10584e-09 -1.06604e-07 1.20056e-07 )  
( -2.80958e-07 -5.9473e-09 -5.12975e-08 )  
( -4.04225e-07 5.94622e-08 -4.18041e-08 )  
( -3.93631e-07 8.96357e-09 -3.80849e-08 )  
( -2.05513e-07 -9.97707e-09 2.07874e-08 )  
( -3.42347e-07 5.65384e-08 -6.62793e-08 )  
( -3.48424e-07 5.06713e-08 7.69333e-09 )  
)
