/*--------------------------------*- C++ -*----------------------------------*\
| =========                 |                                                 |
| \\      /  F ield         | OpenFOAM: The Open Source CFD Toolbox           |
|  \\    /   O peration     | Version:  4.x                                   |
|   \\  /    A nd           | Web:      www.OpenFOAM.org                      |
|    \\/     M anipulation  |                                                 |
\*---------------------------------------------------------------------------*/
FoamFile
{
    version     2.0;
    format      ascii;
    class       volVectorField;
    location    "23";
    object      impParticleForces;
}
// * * * * * * * * * * * * * * * * * * * * * * * * * * * * * * * * * * * * * //

dimensions      [1 1 -2 0 0 0 0];

internalField   nonuniform List<vector> 
108
(
(0.00228014 -2.81063e-05 -6.15678e-05)
(0.00230897 -2.89085e-05 -6.18285e-05)
(0.00236502 -2.96101e-05 -6.12908e-05)
(0.00237358 -2.73609e-05 -5.85544e-05)
(0.00240253 -2.51444e-05 -5.51458e-05)
(0.00238503 -2.1218e-05 -5.01977e-05)
(0.00240986 -1.83627e-05 -4.47804e-05)
(0.00237742 -1.42094e-05 -3.76511e-05)
(0.00239176 -1.13524e-05 -2.99702e-05)
(0.00232854 -2.63874e-05 -6.26404e-05)
(0.0023653 -2.75709e-05 -6.29193e-05)
(0.00242624 -2.86507e-05 -6.24708e-05)
(0.00242973 -2.61334e-05 -5.96512e-05)
(0.00244587 -2.3591e-05 -5.57141e-05)
(0.00241839 -1.9487e-05 -5.03247e-05)
(0.00243227 -1.6597e-05 -4.46721e-05)
(0.00239223 -1.25629e-05 -3.73151e-05)
(0.00242107 -1.02106e-05 -2.98324e-05)
(0.00234995 -1.86513e-05 -6.32131e-05)
(0.00239856 -1.99051e-05 -6.39045e-05)
(0.00244121 -2.00488e-05 -6.26314e-05)
(0.00243403 -1.79176e-05 -5.93898e-05)
(0.00244431 -1.59207e-05 -5.49788e-05)
(0.00240936 -1.26755e-05 -4.93591e-05)
(0.0024186 -1.02395e-05 -4.34443e-05)
(0.00238816 -7.55629e-06 -3.64381e-05)
(0.00238479 -5.09062e-06 -2.84986e-05)
(0.00233841 -6.25439e-06 -6.28677e-05)
(0.00239069 -6.60473e-06 -6.32489e-05)
(0.00244104 -6.14872e-06 -6.23551e-05)
(0.00242208 -5.25167e-06 -5.8882e-05)
(0.00244148 -4.37496e-06 -5.48518e-05)
(0.00240858 -2.8514e-06 -4.93933e-05)
(0.00242638 -1.43312e-06 -4.36277e-05)
(0.00236594 1.51085e-07 -3.64188e-05)
(0.00236739 1.77861e-06 -2.9054e-05)
(0.00226535 -2.78489e-05 -5.03102e-05)
(0.00229188 -2.84819e-05 -4.9893e-05)
(0.00234255 -2.88183e-05 -4.85655e-05)
(0.00236221 -2.71123e-05 -4.68118e-05)
(0.00239364 -2.52315e-05 -4.37843e-05)
(0.00236373 -2.14599e-05 -4.00356e-05)
(0.00238218 -1.90986e-05 -3.49126e-05)
(0.00237314 -1.65699e-05 -2.93569e-05)
(0.00239063 -1.50938e-05 -2.2526e-05)
(0.00231487 -2.63072e-05 -5.00605e-05)
(0.00234426 -2.7018e-05 -4.96211e-05)
(0.0023944 -2.74207e-05 -4.79589e-05)
(0.00239636 -2.50689e-05 -4.64129e-05)
(0.00242019 -2.30095e-05 -4.30755e-05)
(0.00239339 -1.93909e-05 -3.93849e-05)
(0.00241072 -1.71717e-05 -3.42851e-05)
(0.00239305 -1.46893e-05 -2.87054e-05)
(0.00241223 -1.34775e-05 -2.19586e-05)
(0.00232241 -1.81637e-05 -5.00335e-05)
(0.0023669 -1.92502e-05 -4.93837e-05)
(0.00242524 -1.99463e-05 -4.71872e-05)
(0.00241406 -1.77289e-05 -4.54185e-05)
(0.0024357 -1.61598e-05 -4.1948e-05)
(0.00240127 -1.32763e-05 -3.82704e-05)
(0.00240441 -1.12555e-05 -3.33351e-05)
(0.00237093 -9.22837e-06 -2.81178e-05)
(0.00238238 -8.21457e-06 -2.1704e-05)
(0.00233833 -6.42666e-06 -4.9881e-05)
(0.00237861 -6.53579e-06 -4.91539e-05)
(0.00241658 -6.26167e-06 -4.73223e-05)
(0.00241576 -5.38629e-06 -4.51423e-05)
(0.00243637 -4.79048e-06 -4.15923e-05)
(0.00239964 -3.57099e-06 -3.80812e-05)
(0.00241357 -2.6039e-06 -3.30395e-05)
(0.00235762 -1.53222e-06 -2.8484e-05)
(0.00235702 -7.83569e-07 -2.27582e-05)
(0.00224371 -2.69533e-05 -4.45757e-05)
(0.00225794 -2.71262e-05 -4.39101e-05)
(0.00228486 -2.66299e-05 -4.26843e-05)
(0.00230419 -2.49533e-05 -4.1113e-05)
(0.00234481 -2.34167e-05 -3.84207e-05)
(0.00234388 -2.08348e-05 -3.49746e-05)
(0.0023623 -1.87987e-05 -3.0379e-05)
(0.00234341 -1.68144e-05 -2.53393e-05)
(0.00235025 -1.58068e-05 -1.95267e-05)
(0.00227752 -2.48247e-05 -4.40943e-05)
(0.00230824 -2.56042e-05 -4.31171e-05)
(0.00234578 -2.55063e-05 -4.15131e-05)
(0.00234255 -2.30626e-05 -4.01303e-05)
(0.00237525 -2.14138e-05 -3.72689e-05)
(0.00236404 -1.86832e-05 -3.39784e-05)
(0.00236929 -1.66127e-05 -2.95274e-05)
(0.00235064 -1.48145e-05 -2.47619e-05)
(0.00235694 -1.40785e-05 -1.91227e-05)
(0.00229708 -1.74655e-05 -4.37176e-05)
(0.00232225 -1.79461e-05 -4.26768e-05)
(0.00236672 -1.82572e-05 -4.07609e-05)
(0.00235981 -1.6363e-05 -3.9205e-05)
(0.00238524 -1.50807e-05 -3.62682e-05)
(0.0023642 -1.2815e-05 -3.31205e-05)
(0.00236437 -1.11849e-05 -2.89666e-05)
(0.00234186 -9.91881e-06 -2.45174e-05)
(0.00233661 -9.20989e-06 -1.92741e-05)
(0.0023165 -6.34757e-06 -4.32508e-05)
(0.00232695 -6.14921e-06 -4.24601e-05)
(0.0023675 -6.10649e-06 -4.0591e-05)
(0.00237004 -5.59795e-06 -3.87462e-05)
(0.00239361 -4.946e-06 -3.57323e-05)
(0.00236751 -3.92558e-06 -3.27684e-05)
(0.00235006 -3.00493e-06 -2.90559e-05)
(0.00232192 -2.3537e-06 -2.49843e-05)
(0.00232099 -1.94999e-06 -2.01443e-05)
)
;

boundaryField
{
    inlet
    {
        type            zeroGradient;
    }
    outlet
    {
        type            zeroGradient;
    }
    wall
    {
        type            zeroGradient;
    }
    procBoundary4to0
    {
        type            processor;
        value           nonuniform List<vector> 
36
(
(0.00228429 -2.74637e-05 -7.43477e-05)
(0.00231655 -2.83506e-05 -7.52027e-05)
(0.00237256 -2.88616e-05 -7.52325e-05)
(0.00237255 -2.61716e-05 -7.10222e-05)
(0.00240827 -2.39038e-05 -6.71693e-05)
(0.00240853 -2.00599e-05 -6.14735e-05)
(0.00242349 -1.6091e-05 -5.50079e-05)
(0.00239129 -1.05371e-05 -4.67468e-05)
(0.0024055 -5.62122e-06 -3.83909e-05)
(0.00232835 -2.56117e-05 -7.66004e-05)
(0.00238179 -2.74286e-05 -7.85093e-05)
(0.0024318 -2.78401e-05 -7.81124e-05)
(0.00243264 -2.51091e-05 -7.38007e-05)
(0.00244871 -2.23557e-05 -6.88421e-05)
(0.00243519 -1.82825e-05 -6.22327e-05)
(0.00246636 -1.52024e-05 -5.61859e-05)
(0.00241996 -9.88701e-06 -4.72764e-05)
(0.0024304 -5.61334e-06 -3.85044e-05)
(0.00234855 -1.8082e-05 -7.76888e-05)
(0.00238572 -1.87648e-05 -7.87836e-05)
(0.00244889 -1.93562e-05 -7.90467e-05)
(0.00243679 -1.69821e-05 -7.40439e-05)
(0.00245984 -1.5184e-05 -6.91842e-05)
(0.00244018 -1.191e-05 -6.21035e-05)
(0.00245093 -8.99034e-06 -5.50488e-05)
(0.00239547 -5.06123e-06 -4.57591e-05)
(0.00240737 -2.06026e-06 -3.68928e-05)
(0.00234746 -6.21505e-06 -7.76179e-05)
(0.00239449 -6.13876e-06 -7.93391e-05)
(0.00245828 -5.81037e-06 -7.965e-05)
(0.00245111 -4.53121e-06 -7.50012e-05)
(0.00244989 -3.38345e-06 -6.90476e-05)
(0.00243825 -1.87022e-06 -6.23307e-05)
(0.00244281 -1.65969e-07 -5.50692e-05)
(0.00238519 1.88396e-06 -4.57153e-05)
(0.00237415 4.03447e-06 -3.6655e-05)
)
;
    }
    procBoundary4to5
    {
        type            processor;
        value           nonuniform List<vector> 
12
(
(0.00236607 -8.33696e-06 -2.1717e-05)
(0.00238837 -7.29562e-06 -2.12787e-05)
(0.00236172 -3.03991e-06 -2.05537e-05)
(0.00235063 2.9693e-06 -2.15432e-05)
(0.00235845 -1.35561e-05 -1.60864e-05)
(0.00236934 -1.18356e-05 -1.57171e-05)
(0.00234822 -7.16616e-06 -1.57365e-05)
(0.00233059 -2.02249e-07 -1.70944e-05)
(0.00230433 -1.47982e-05 -1.38683e-05)
(0.00233449 -1.37693e-05 -1.36196e-05)
(0.00231205 -9.00231e-06 -1.41095e-05)
(0.00229934 -1.82013e-06 -1.52375e-05)
)
;
    }
    procBoundary4to6
    {
        type            processor;
        value           nonuniform List<vector> 
27
(
(0.00237308 6.97201e-06 -6.34785e-05)
(0.00240035 7.36612e-06 -6.33699e-05)
(0.00242251 7.97513e-06 -6.20337e-05)
(0.00241976 7.77206e-06 -5.90154e-05)
(0.00244284 8.02462e-06 -5.5577e-05)
(0.00240202 7.56798e-06 -4.98267e-05)
(0.00241564 7.95154e-06 -4.44266e-05)
(0.00237006 7.99749e-06 -3.76947e-05)
(0.00238393 8.66698e-06 -3.09307e-05)
(0.00234705 6.62196e-06 -4.95271e-05)
(0.00237814 7.3454e-06 -4.90248e-05)
(0.00241499 7.95271e-06 -4.72939e-05)
(0.00240189 7.44793e-06 -4.55126e-05)
(0.00240995 7.30553e-06 -4.24436e-05)
(0.0023909 6.94152e-06 -3.88921e-05)
(0.00240459 7.22939e-06 -3.42013e-05)
(0.002354 6.84411e-06 -2.98668e-05)
(0.00236974 7.2456e-06 -2.46597e-05)
(0.00230266 5.80544e-06 -4.3249e-05)
(0.00231608 6.11833e-06 -4.26518e-05)
(0.00236354 6.72797e-06 -4.08953e-05)
(0.00235478 6.24895e-06 -3.93881e-05)
(0.00236671 6.12317e-06 -3.67657e-05)
(0.00235437 5.92135e-06 -3.38109e-05)
(0.00237676 6.081e-06 -2.98653e-05)
(0.00233155 5.82911e-06 -2.62039e-05)
(0.00232576 6.02445e-06 -2.19058e-05)
)
;
    }
}


// ************************************************************************* //
