/*--------------------------------*- C++ -*----------------------------------*\
| =========                 |                                                 |
| \\      /  F ield         | OpenFOAM: The Open Source CFD Toolbox           |
|  \\    /   O peration     | Version:  4.x                                   |
|   \\  /    A nd           | Web:      www.OpenFOAM.org                      |
|    \\/     M anipulation  |                                                 |
\*---------------------------------------------------------------------------*/
FoamFile
{
    version     2.0;
    format      ascii;
    class       volScalarField;
    location    "23";
    object      KslPrev;
}
// * * * * * * * * * * * * * * * * * * * * * * * * * * * * * * * * * * * * * //

dimensions      [1 -3 -1 0 0 0 0];

internalField   nonuniform List<scalar> 
108
(
3460.69
7493
3480.73
7310.95
3479.89
7171.97
3439.98
7201.92
3359.39
3559.18
9272.29
3777.96
12306.9
3874.55
16245.6
3893.08
23599.8
3880.68
3595.65
10151.8
3888.73
15266.3
3987.23
24189.9
4003.91
58367.9
3992.8
3580.56
10082.4
3910.93
15408.2
4024.02
28109.5
4060.15
85918.8
4001.14
3450.85
7205.33
3422.28
6843.1
3400.6
6451.24
3301.25
6273.44
3210.88
3534.95
8327.54
3645.27
9313.81
3698.4
10547
3709.59
12714.7
3705.28
3560.05
9020.75
3780.42
11461.1
3849.82
14284.4
3803.98
17038.8
3717.42
3588.02
9663.01
3844.97
13899.4
3967.6
21863.7
3983.48
40819.2
3922.15
3394.64
6558.79
3234.59
5691.47
3162.26
5315.34
3086.38
5027
2958.65
3449.28
7256.81
3437.61
6740.12
3374.03
6391.17
3289.97
6122.77
3190.54
3505.48
7681.1
3537.56
7603.61
3504.66
7393.18
3404.48
7101.55
3303.87
3546.83
8003.96
3603.83
8459.04
3600.35
8522.47
3509.4
8220.4
3437.74
)
;

boundaryField
{
    inlet
    {
        type            zeroGradient;
    }
    outlet
    {
        type            zeroGradient;
    }
    wall
    {
        type            zeroGradient;
    }
    procBoundary4to0
    {
        type            processor;
        value           uniform 0;
    }
    procBoundary4to5
    {
        type            processor;
        value           uniform 0;
    }
    procBoundary4to6
    {
        type            processor;
        value           uniform 0;
    }
}


// ************************************************************************* //
