/*--------------------------------*- C++ -*----------------------------------*\
| =========                 |                                                 |
| \\      /  F ield         | OpenFOAM: The Open Source CFD Toolbox           |
|  \\    /   O peration     | Version:  4.x                                   |
|   \\  /    A nd           | Web:      www.OpenFOAM.org                      |
|    \\/     M anipulation  |                                                 |
\*---------------------------------------------------------------------------*/
FoamFile
{
    version     2.0;
    format      ascii;
    class       volScalarField;
    location    "45";
    object      QPartFluidCoeff;
}
// * * * * * * * * * * * * * * * * * * * * * * * * * * * * * * * * * * * * * //

dimensions      [1 -1 -3 -1 0 0 0];

internalField   nonuniform List<scalar> 
108
(
-1.64142e+07
-2.3696e+07
-2.8088e+07
-1.99339e+07
-2.38583e+07
-1.99767e+07
-2.98119e+07
-2.29121e+07
-3.21661e+07
-2.33934e+07
-2.43267e+07
-3.12968e+07
-3.34763e+07
-3.37245e+07
-2.86484e+07
-2.71453e+07
-1.92575e+07
-3.70291e+07
-2.22937e+07
-3.42635e+07
-2.77222e+07
-3.1242e+07
-2.70845e+07
-2.10341e+07
-2.43622e+07
-3.43312e+07
-2.24675e+07
-1.15256e+07
-2.24375e+07
-3.13202e+07
-1.90103e+07
-2.93241e+07
-2.22082e+07
-3.67311e+07
-1.99399e+07
-2.35277e+07
-1.68787e+07
-1.82962e+07
-2.68472e+07
-2.7777e+07
-2.84201e+07
-1.82001e+07
-1.85882e+07
-2.50997e+07
-3.19295e+07
-2.0823e+07
-2.53358e+07
-2.51866e+07
-2.53137e+07
-2.5807e+07
-2.271e+07
-2.83569e+07
-3.08982e+07
-3.501e+07
-1.39856e+07
-2.4414e+07
-3.34334e+07
-2.763e+07
-3.22659e+07
-2.75116e+07
-2.72842e+07
-2.38458e+07
-2.87886e+07
-2.06821e+07
-2.86128e+07
-2.51427e+07
-3.21612e+07
-3.50702e+07
-2.53601e+07
-3.94477e+07
-2.82441e+07
-2.71246e+07
-1.51754e+07
-2.10004e+07
-1.48161e+07
-2.01796e+07
-2.11686e+07
-2.67105e+07
-2.67363e+07
-2.17218e+07
-2.73604e+07
-1.62513e+07
-3.0032e+07
-2.37578e+07
-1.94903e+07
-2.49038e+07
-2.57059e+07
-2.46152e+07
-2.0753e+07
-2.86093e+07
-1.74453e+07
-2.48742e+07
-2.82118e+07
-2.39057e+07
-2.23808e+07
-2.31022e+07
-2.45791e+07
-2.647e+07
-2.35155e+07
-2.41768e+07
-2.33722e+07
-2.23347e+07
-2.65861e+07
-2.8135e+07
-3.17863e+07
-1.657e+07
-1.72576e+07
-2.36358e+07
)
;

boundaryField
{
    inlet
    {
        type            calculated;
        value           uniform 0;
    }
    outlet
    {
        type            calculated;
        value           nonuniform 0();
    }
    wall
    {
        type            calculated;
        value           uniform 0;
    }
    procBoundary4to0
    {
        type            processor;
        value           nonuniform List<scalar> 
36
(
329.14
377.009
511.669
391.942
535.526
587.464
446.161
327.274
456.485
388.286
725.307
687.345
611.304
544.285
501.07
788.495
543.092
523.793
392.187
422.103
684.175
461.397
657.204
635.053
622.893
373.63
705.426
364.922
508.666
743.016
772.479
416.376
740.665
646.795
418.327
197.818
)
;
    }
    procBoundary4to5
    {
        type            processor;
        value           nonuniform List<scalar> 
12
(
502.46
612.862
643.379
776.367
548.32
468.396
560.528
400.724
188.177
526.649
460.338
543.98
)
;
    }
    procBoundary4to6
    {
        type            processor;
        value           nonuniform List<scalar> 
27
(
752.308
676.842
459.896
604.303
836.668
460.311
657.796
503.777
752.9
555.541
680.457
730.148
652.888
504.286
596.592
599.779
462.192
723.502
371.341
409.003
562.078
531.804
542.423
493.157
779.623
660.276
343.706
)
;
    }
}


// ************************************************************************* //
