/*--------------------------------*- C++ -*----------------------------------*\
| =========                 |                                                 |
| \\      /  F ield         | OpenFOAM: The Open Source CFD Toolbox           |
|  \\    /   O peration     | Version:  4.x                                   |
|   \\  /    A nd           | Web:      www.OpenFOAM.org                      |
|    \\/     M anipulation  |                                                 |
\*---------------------------------------------------------------------------*/
FoamFile
{
    version     2.0;
    format      ascii;
    class       volScalarField;
    location    "3";
    object      Deff;
}
// * * * * * * * * * * * * * * * * * * * * * * * * * * * * * * * * * * * * * //

dimensions      [0 2 -1 0 0 0 0];

internalField   nonuniform List<scalar> 
132
(
9.78866e-08
9.78612e-08
9.78892e-08
9.78029e-08
9.76079e-08
9.75743e-08
9.76327e-08
9.77476e-08
9.76494e-08
9.79746e-08
9.78081e-08
9.78519e-08
9.78498e-08
9.77076e-08
9.774e-08
9.76747e-08
9.77134e-08
9.76627e-08
9.81589e-08
9.79479e-08
9.79371e-08
9.78997e-08
9.77818e-08
9.76888e-08
9.76767e-08
9.77181e-08
9.76976e-08
9.82783e-08
9.80515e-08
9.79244e-08
9.79969e-08
9.78666e-08
9.78082e-08
9.7732e-08
9.78443e-08
9.79779e-08
9.77763e-08
9.76815e-08
9.76481e-08
9.75888e-08
9.7511e-08
9.75354e-08
9.76038e-08
9.79925e-08
9.77515e-08
9.77252e-08
9.76936e-08
9.75818e-08
9.75988e-08
9.76133e-08
9.75649e-08
9.76496e-08
9.80198e-08
9.77849e-08
9.77948e-08
9.77959e-08
9.76428e-08
9.75492e-08
9.75058e-08
9.7598e-08
9.7612e-08
9.81107e-08
9.78593e-08
9.78704e-08
9.77985e-08
9.77211e-08
9.77208e-08
9.76559e-08
9.76619e-08
9.78493e-08
9.76511e-08
9.76268e-08
9.75566e-08
9.76006e-08
9.76564e-08
9.78447e-08
9.775e-08
9.77045e-08
9.77298e-08
9.75758e-08
9.76115e-08
9.7569e-08
9.75164e-08
9.75905e-08
9.79248e-08
9.7807e-08
9.77449e-08
9.77241e-08
9.76004e-08
9.75948e-08
9.7564e-08
9.75996e-08
9.76134e-08
9.80822e-08
9.79168e-08
9.78151e-08
9.77775e-08
9.77532e-08
9.77585e-08
9.76315e-08
9.76848e-08
9.78329e-08
9.76808e-08
9.76715e-08
9.77176e-08
9.79225e-08
9.78698e-08
9.77073e-08
9.76908e-08
9.77321e-08
9.77988e-08
9.7661e-08
9.766e-08
9.77489e-08
9.79836e-08
9.79078e-08
9.78409e-08
9.77877e-08
9.77105e-08
9.7714e-08
9.76442e-08
9.76946e-08
9.77205e-08
9.8038e-08
9.78971e-08
9.79133e-08
9.78636e-08
9.77735e-08
9.77487e-08
9.77147e-08
9.77899e-08
9.79877e-08
)
;

boundaryField
{
    inlet
    {
        type            calculated;
        value           nonuniform 0();
    }
    outlet
    {
        type            calculated;
        value           uniform 0;
    }
    wall
    {
        type            calculated;
        value           uniform 0;
    }
    procBoundary7to0
    {
        type            processor;
        value           uniform 0;
    }
    procBoundary7to1
    {
        type            processor;
        value           uniform 0;
    }
    procBoundary7to3
    {
        type            processor;
        value           uniform 0;
    }
    procBoundary7to5
    {
        type            processor;
        value           uniform 0;
    }
    procBoundary7to6
    {
        type            processor;
        value           uniform 0;
    }
}


// ************************************************************************* //
