/*--------------------------------*- C++ -*----------------------------------*\
| =========                 |                                                 |
| \\      /  F ield         | OpenFOAM: The Open Source CFD Toolbox           |
|  \\    /   O peration     | Version:  4.x                                   |
|   \\  /    A nd           | Web:      www.OpenFOAM.org                      |
|    \\/     M anipulation  |                                                 |
\*---------------------------------------------------------------------------*/
FoamFile
{
    version     2.0;
    format      ascii;
    class       volScalarField;
    location    "3";
    object      Sm;
}
// * * * * * * * * * * * * * * * * * * * * * * * * * * * * * * * * * * * * * //

dimensions      [1 -3 -1 0 0 0 0];

internalField   nonuniform List<scalar> 
132
(
9.92339e-65
7.83412e-65
6.43843e-65
6.74527e-65
1.05319e-64
1.04328e-64
7.94287e-65
5.62037e-65
8.3077e-65
7.6751e-65
9.46275e-65
7.29138e-65
6.74596e-65
8.44208e-65
5.64546e-65
7.48891e-65
6.31946e-65
8.00544e-65
5.50343e-65
7.36697e-65
6.20385e-65
7.13271e-65
7.43805e-65
8.1263e-65
7.49671e-65
7.17737e-65
8.55566e-65
5.11529e-65
7.28728e-65
8.76167e-65
5.58189e-65
7.20776e-65
6.65951e-65
8.04503e-65
5.87546e-65
4.3271e-65
6.43728e-65
7.36414e-65
6.34955e-65
6.95629e-65
8.5625e-65
8.39682e-65
7.31517e-65
3.95353e-65
8.45185e-65
7.52275e-65
7.44196e-65
8.20899e-65
7.03825e-65
5.63431e-65
7.6313e-65
5.77691e-65
5.81251e-65
8.52804e-65
6.97856e-65
5.73668e-65
7.35984e-65
8.51345e-65
9.19769e-65
6.9484e-65
8.02032e-65
5.57934e-65
8.37178e-65
5.96964e-65
7.2868e-65
7.36209e-65
6.19562e-65
6.57717e-65
7.96306e-65
5.33208e-65
5.03463e-65
5.80157e-65
7.33662e-65
6.0166e-65
5.77801e-65
8.05805e-65
7.36483e-65
6.82281e-65
5.19315e-65
8.5213e-65
7.0409e-65
7.10639e-65
8.64356e-65
7.55407e-65
7.05097e-65
7.36335e-65
7.51963e-65
6.97592e-65
8.29046e-65
7.58621e-65
7.34746e-65
6.95364e-65
7.79687e-65
5.34627e-65
6.12292e-65
7.20891e-65
6.89836e-65
6.12214e-65
5.2669e-65
7.58525e-65
7.04081e-65
5.79774e-65
5.48889e-65
6.41191e-65
6.0992e-65
6.89499e-65
5.81323e-65
7.67418e-65
7.44059e-65
5.19045e-65
3.87051e-65
6.88195e-65
6.64475e-65
5.40381e-65
5.96579e-65
6.04494e-65
6.04581e-65
6.2007e-65
6.89615e-65
6.34966e-65
7.19525e-65
6.41966e-65
7.26533e-65
6.27585e-65
7.36226e-65
5.65794e-65
5.813e-65
6.58725e-65
6.5074e-65
6.50379e-65
6.34783e-65
4.10264e-65
)
;

boundaryField
{
    inlet
    {
        type            calculated;
        value           nonuniform 0();
    }
    outlet
    {
        type            calculated;
        value           uniform 0;
    }
    wall
    {
        type            calculated;
        value           uniform 0;
    }
    procBoundary7to0
    {
        type            processor;
        value           uniform 2.32451e-65;
    }
    procBoundary7to1
    {
        type            processor;
        value           uniform 5.7371e-65;
    }
    procBoundary7to3
    {
        type            processor;
        value           nonuniform List<scalar> 
36
(
7.67709e-65
9.00042e-65
8.30132e-65
9.07122e-65
6.11575e-65
6.1819e-65
8.56207e-65
6.77252e-65
7.6901e-65
8.99388e-65
5.12055e-65
7.60282e-65
4.49714e-65
4.64633e-65
7.88621e-65
7.25565e-65
8.78309e-65
6.07941e-65
5.11669e-65
8.84068e-65
8.22156e-65
5.81543e-65
6.81615e-65
7.96852e-65
6.6459e-65
7.17256e-65
5.39598e-65
7.82838e-65
4.03184e-65
5.42796e-65
6.12437e-65
5.57897e-65
7.12351e-65
6.18743e-65
7.88278e-65
8.49269e-65
)
;
    }
    procBoundary7to5
    {
        type            processor;
        value           nonuniform List<scalar> 
44
(
8.45466e-65
6.05043e-65
7.44189e-65
5.80898e-65
4.56315e-65
6.94694e-65
5.70213e-65
8.61871e-65
9.99753e-65
4.42055e-65
7.29023e-65
7.59729e-65
6.19605e-65
7.03789e-65
7.10343e-65
6.86145e-65
5.54694e-65
9.99753e-65
4.42055e-65
4.42055e-65
8.99334e-65
7.9842e-65
1.01481e-64
7.35225e-65
8.19249e-65
8.8763e-65
8.63654e-65
3.56465e-65
9.37987e-65
8.99334e-65
7.9842e-65
7.9842e-65
9.68426e-65
7.74086e-65
6.49818e-65
6.724e-65
6.79709e-65
7.20515e-65
5.50301e-65
7.28674e-65
5.65782e-65
9.68426e-65
7.74086e-65
7.74086e-65
)
;
    }
    procBoundary7to6
    {
        type            processor;
        value           nonuniform List<scalar> 
12
(
6.73875e-65
7.12674e-65
4.95793e-65
8.51963e-65
7.58998e-65
7.51323e-65
7.89814e-65
7.74399e-65
5.65411e-65
3.79403e-65
7.82177e-65
6.04184e-65
)
;
    }
}


// ************************************************************************* //
