/*--------------------------------*- C++ -*----------------------------------*\
| =========                 |                                                 |
| \\      /  F ield         | OpenFOAM: The Open Source CFD Toolbox           |
|  \\    /   O peration     | Version:  4.x                                   |
|   \\  /    A nd           | Web:      www.OpenFOAM.org                      |
|    \\/     M anipulation  |                                                 |
\*---------------------------------------------------------------------------*/
FoamFile
{
    version     2.0;
    format      ascii;
    class       volScalarField;
    location    "3";
    object      thCond;
}
// * * * * * * * * * * * * * * * * * * * * * * * * * * * * * * * * * * * * * //

dimensions      [1 1 -3 -1 0 0 0];

internalField   nonuniform List<scalar> 
132
(
190.015
189.966
190.02
189.853
189.474
189.409
189.522
189.745
189.555
190.186
189.863
189.948
189.944
189.668
189.731
189.604
189.679
189.581
190.544
190.134
190.113
190.041
189.812
189.631
189.608
189.688
189.648
190.776
190.335
190.088
190.229
189.976
189.863
189.715
189.933
190.192
189.801
189.617
189.552
189.437
189.286
189.333
189.466
190.221
189.753
189.702
189.64
189.423
189.456
189.485
189.391
189.555
190.274
189.818
189.837
189.839
189.542
189.36
189.276
189.455
189.482
190.45
189.962
189.984
189.844
189.694
189.693
189.567
189.579
189.943
189.558
189.511
189.375
189.46
189.568
189.934
189.75
189.662
189.711
189.412
189.481
189.399
189.297
189.44
190.089
189.861
189.74
189.7
189.46
189.449
189.389
189.458
189.485
190.395
190.074
189.876
189.803
189.756
189.767
189.52
189.623
189.911
189.616
189.598
189.687
190.085
189.982
189.667
189.635
189.715
189.845
189.577
189.575
189.748
190.204
190.056
189.926
189.823
189.673
189.68
189.545
189.642
189.693
190.309
190.036
190.067
189.97
189.796
189.748
189.681
189.827
190.211
)
;

boundaryField
{
    inlet
    {
        type            zeroGradient;
    }
    outlet
    {
        type            zeroGradient;
    }
    wall
    {
        type            zeroGradient;
    }
    procBoundary7to0
    {
        type            processor;
        value           uniform 190.82;
    }
    procBoundary7to1
    {
        type            processor;
        value           uniform 190.387;
    }
    procBoundary7to3
    {
        type            processor;
        value           nonuniform List<scalar> 
36
(
190.515
190.342
190.279
190.157
190.283
190.175
189.962
190.088
190.095
190.532
190.581
190.383
190.591
190.499
190.136
190.008
189.929
190.146
190.862
190.513
190.448
190.588
190.409
190.137
190.141
190.089
190.253
190.946
191.079
190.85
190.728
190.576
190.327
190.28
190.128
190.142
)
;
    }
    procBoundary7to5
    {
        type            processor;
        value           nonuniform List<scalar> 
44
(
190.113
190.201
189.978
189.97
189.959
189.757
189.838
189.712
189.846
190.042
189.852
189.688
189.646
189.541
189.472
189.497
189.654
189.846
190.042
190.042
189.476
189.502
189.274
189.361
189.279
189.271
189.369
190.173
189.667
189.476
189.502
189.502
189.285
189.423
189.533
189.522
189.573
190.053
189.97
189.625
189.635
189.285
189.423
189.423
)
;
    }
    procBoundary7to6
    {
        type            processor;
        value           nonuniform List<scalar> 
12
(
190.501
190.564
190.93
190.08
190.186
190.405
190.027
190.119
190.47
190.378
190.187
190.472
)
;
    }
}


// ************************************************************************* //
