/*--------------------------------*- C++ -*----------------------------------*\
| =========                 |                                                 |
| \\      /  F ield         | OpenFOAM: The Open Source CFD Toolbox           |
|  \\    /   O peration     | Version:  4.x                                   |
|   \\  /    A nd           | Web:      www.OpenFOAM.org                      |
|    \\/     M anipulation  |                                                 |
\*---------------------------------------------------------------------------*/
FoamFile
{
    version     2.0;
    format      ascii;
    class       volScalarField;
    location    "34.5";
    object      magGField;
}
// * * * * * * * * * * * * * * * * * * * * * * * * * * * * * * * * * * * * * //

dimensions      [1 -2 -1 0 0 0 0];

internalField   nonuniform List<scalar> 
114
(
54.7654
111.392
62.9263
116.266
67.7911
120.744
99.1829
42.1688
103.837
50.3032
107.543
55.5713
110.91
58.3529
114.275
100.118
44.506
106.188
55.5159
111.836
63.1265
116.491
67.906
120.788
100.346
49.1355
109.495
64.4437
119.032
77.0767
127.748
86.2449
134.154
26.4027
95.3949
21.8607
96.9516
97.6501
34.557
96.8123
30.2156
95.5631
25.336
94.8842
20.1699
96.1822
98.1194
36.6705
98.269
35.4616
98.6643
33.8119
99.4415
30.7098
101.025
98.5928
43.8295
103.19
51.6308
107.913
57.9483
112.266
62.0194
116.37
6.4583
89.2362
95.7674
32.6082
93.4692
24.7497
91.706
17.5652
90.7509
10.8304
91.0006
96.736
33.7208
94.6207
27.1657
93.0261
20.9867
92.1919
13.6607
92.3352
97.4139
40.6269
99.6016
44.6604
102.348
48.2664
103.792
49.7376
106.48
94.817
29.3786
90.4759
19.5025
88.1764
12.0212
86.7175
5.99268
94.9655
33.3512
92.6484
27.682
91.5411
23.1312
91.4046
96.5077
40.8188
98.2183
43.7292
100.045
46.1524
)
;

boundaryField
{
    inlet
    {
        type            calculated;
        value           uniform 67;
    }
    outlet
    {
        type            calculated;
        value           nonuniform 0();
    }
    wall
    {
        type            calculated;
        value           uniform 0;
    }
    procBoundary2to0
    {
        type            processor;
        value           nonuniform List<scalar> 
44
(
54.7777
111.682
62.3632
116.416
66.9361
118.612
101.09
44.6149
106.731
106.731
31.9367
95.9895
27.1414
95.8383
20.6601
96.2229
97.219
34.8727
97.4801
31.9367
95.9895
95.9895
10.8055
89.4064
11.3673
92.3848
95.3504
29.5207
92.2705
18.8876
89.998
10.8055
89.4064
89.4064
0.0112881
84.0936
94.8417
28.7296
89.3748
15.1045
86.4828
5.21155
84.9305
0.0112881
)
;
    }
    procBoundary2to3
    {
        type            processor;
        value           nonuniform List<scalar> 
12
(
69.3569
59.2412
70.5474
92.2279
17.1478
16.3743
26.9034
63.864
2.64117
4.13359
7.10735
49.7956
)
;
    }
    procBoundary2to6
    {
        type            processor;
        value           nonuniform List<scalar> 
32
(
85.5537
19.868
92.4135
102.093
47.9637
104.084
92.2672
27.2853
87.928
14.0696
84.8351
4.4167
83.6857
85.5537
19.868
2.68031e-05
94.4638
30.9034
91.2213
21.9095
88.8409
13.9862
19.868
102.093
87.5356
96.2741
40.1271
97.0351
41.671
96.861
102.093
40.8075
)
;
    }
}


// ************************************************************************* //
