/*--------------------------------*- C++ -*----------------------------------*\
| =========                 |                                                 |
| \\      /  F ield         | OpenFOAM: The Open Source CFD Toolbox           |
|  \\    /   O peration     | Version:  4.x                                   |
|   \\  /    A nd           | Web:      www.OpenFOAM.org                      |
|    \\/     M anipulation  |                                                 |
\*---------------------------------------------------------------------------*/
FoamFile
{
    version     2.0;
    format      ascii;
    class       volScalarField;
    location    "45";
    object      QPartFluidCoeff;
}
// * * * * * * * * * * * * * * * * * * * * * * * * * * * * * * * * * * * * * //

dimensions      [1 -1 -3 -1 0 0 0];

internalField   nonuniform List<scalar> 
87
(
-2.70428e+07
-2.26788e+07
-2.9897e+07
-1.90083e+07
-2.07757e+07
-1.8752e+07
-3.31768e+07
-2.98488e+07
-2.02814e+07
-2.66498e+07
-3.68971e+07
-2.02997e+07
-2.90088e+07
-2.22166e+07
-3.32029e+07
-2.10108e+07
-3.07254e+07
-2.72594e+07
-3.40659e+07
-2.95123e+07
-2.91217e+07
-2.91733e+07
-3.07255e+07
-3.12953e+07
-1.55956e+07
-2.52808e+07
-1.987e+07
-2.04871e+07
-2.90243e+07
-3.15569e+07
-2.44961e+07
-2.10399e+07
-2.9198e+07
-2.44993e+07
-3.00081e+07
-3.21995e+07
-2.87924e+07
-2.2239e+07
-2.63097e+07
-2.64502e+07
-2.03827e+07
-3.19064e+07
-1.79132e+07
-2.95756e+07
-2.94865e+07
-2.67855e+07
-2.64898e+07
-2.18616e+07
-3.34064e+07
-2.19588e+07
-3.32704e+07
-1.60352e+07
-2.22637e+07
-2.06002e+07
-2.61442e+07
-2.73935e+07
-2.06008e+07
-2.54343e+07
-2.14651e+07
-2.29266e+07
-1.63762e+07
-1.8037e+07
-2.47876e+07
-2.34526e+07
-2.39209e+07
-2.17482e+07
-3.43814e+07
-2.91182e+07
-1.51574e+07
-1.73271e+07
-1.94425e+07
-2.54285e+07
-2.06255e+07
-3.22484e+07
-2.23908e+07
-2.40345e+07
-2.03429e+07
-2.82778e+07
-1.41593e+07
-2.04538e+07
-2.25523e+07
-2.11228e+07
-1.74742e+07
-2.82927e+07
-1.87129e+07
-1.88159e+07
-2.3966e+07
)
;

boundaryField
{
    inlet
    {
        type            calculated;
        value           uniform 0;
    }
    outlet
    {
        type            calculated;
        value           nonuniform 0();
    }
    wall
    {
        type            calculated;
        value           uniform 0;
    }
    procBoundary6to0
    {
        type            processor;
        value           uniform 197.818;
    }
    procBoundary6to2
    {
        type            processor;
        value           nonuniform List<scalar> 
32
(
433.725
641.173
773.556
732.982
404.275
585.048
370.286
716.934
778.657
540.926
622.954
474.321
573.606
566.441
566.441
566.441
443.862
598
795.825
500.17
689.766
583.01
779.732
779.732
779.732
321.937
476.503
567.936
548.153
510.625
491.369
491.369
)
;
    }
    procBoundary6to4
    {
        type            processor;
        value           nonuniform List<scalar> 
27
(
261.351
508.786
710.209
431.072
664.947
503.588
832.905
452.151
533.508
468.981
648.817
570.13
729.279
795.243
575.059
894.506
640.455
615.07
548.227
529.982
506.455
602.86
637.982
720.777
375.737
391.329
535.96
)
;
    }
    procBoundary6to7
    {
        type            processor;
        value           nonuniform List<scalar> 
12
(
565.094
402.701
535.189
290.976
454.325
504.213
648.014
619.044
456.237
554.566
479.293
460.517
)
;
    }
}


// ************************************************************************* //
