/*--------------------------------*- C++ -*----------------------------------*\
| =========                 |                                                 |
| \\      /  F ield         | OpenFOAM: The Open Source CFD Toolbox           |
|  \\    /   O peration     | Version:  4.x                                   |
|   \\  /    A nd           | Web:      www.OpenFOAM.org                      |
|    \\/     M anipulation  |                                                 |
\*---------------------------------------------------------------------------*/
FoamFile
{
    version     2.0;
    format      ascii;
    class       volVectorField;
    location    "45";
    object      Us;
}
// * * * * * * * * * * * * * * * * * * * * * * * * * * * * * * * * * * * * * //

dimensions      [0 1 -1 0 0 0 0];

internalField   nonuniform List<vector> 
87
(
(2.77643e-09 -6.66155e-11 2.59268e-10)
(1.78107e-09 -1.41033e-10 4.02066e-10)
(2.2773e-09 -5.81571e-10 1.51678e-10)
(2.92652e-10 -1.21357e-10 1.39098e-10)
(7.32877e-10 -1.34838e-10 2.76402e-10)
(6.44417e-10 -2.87092e-10 8.42334e-11)
(1.29444e-10 -9.49447e-11 1.11627e-10)
(2.89817e-10 -2.28652e-10 2.18181e-10)
(3.99232e-10 -2.74879e-10 2.20964e-10)
(6.34574e-10 -2.08172e-10 2.9923e-10)
(1.14936e-09 -2.57104e-10 4.57175e-10)
(1.53644e-09 -1.65768e-10 1.70305e-10)
(1.77581e-09 -1.28815e-10 2.49485e-10)
(2.19994e-09 -2.66398e-10 2.19569e-10)
(2.85479e-09 -2.40202e-10 2.5776e-10)
(4.88929e-11 -1.02527e-11 -2.80661e-11)
(8.92134e-11 -1.08294e-10 1.56798e-10)
(1.94741e-10 -1.42958e-10 1.35965e-10)
(3.27964e-10 -1.86696e-10 2.14022e-10)
(4.62991e-10 -3.58793e-10 2.70882e-10)
(7.38453e-10 -2.87278e-10 2.28591e-10)
(1.24723e-09 -4.09652e-10 1.81761e-10)
(1.65367e-09 -2.12017e-10 4.09837e-10)
(2.10949e-09 -6.55928e-10 6.8257e-11)
(1.40176e-11 -2.88992e-11 5.16882e-11)
(1.58684e-10 -3.84828e-11 1.0254e-10)
(2.02253e-11 -9.25443e-11 3.33198e-11)
(9.51156e-11 -1.46626e-10 8.95641e-11)
(9.70691e-11 -1.54014e-10 8.72968e-11)
(2.34966e-10 -2.24774e-10 1.04229e-10)
(1.97477e-10 -2.57412e-10 2.83457e-11)
(-1.45518e-10 -4.25069e-10 -2.20749e-10)
(1.23646e-10 -6.00791e-10 -5.44899e-11)
(3.9828e-11 -6.8052e-11 6.68002e-11)
(2.79906e-10 -1.72934e-10 1.52004e-10)
(4.02202e-10 -2.14317e-10 9.39477e-11)
(4.99711e-10 -2.02791e-10 1.48663e-10)
(7.07298e-10 -1.93478e-10 1.80386e-10)
(1.23637e-09 -3.20339e-10 1.77775e-10)
(1.53107e-09 -1.34003e-10 2.33229e-10)
(1.94172e-09 -2.37094e-10 1.99168e-10)
(2.27772e-09 -1.55868e-10 2.22125e-10)
(4.48822e-11 -6.34289e-11 -9.39248e-12)
(2.03727e-10 -1.34419e-10 1.12149e-10)
(2.59834e-10 -1.94654e-10 2.05451e-10)
(3.61109e-10 -1.80894e-10 1.85296e-10)
(4.61467e-10 -2.01113e-10 1.81892e-10)
(8.02073e-10 -3.1325e-10 8.09203e-11)
(1.05817e-09 -2.31134e-10 2.19168e-10)
(1.76158e-09 -6.63224e-10 3.71294e-10)
(2.25051e-09 -1.88046e-10 -1.55966e-10)
(-1.13309e-10 -1.43164e-11 1.16895e-10)
(3.22438e-10 9.45885e-11 1.78798e-10)
(1.30424e-10 -2.69065e-10 3.68978e-10)
(1.36285e-10 -6.83787e-11 9.96326e-11)
(1.2887e-10 -1.29284e-10 1.07097e-10)
(1.95918e-10 -1.78072e-10 5.05656e-11)
(2.99937e-10 -2.13148e-10 9.5553e-11)
(4.2418e-10 -2.36893e-10 2.71111e-10)
(6.83636e-10 -1.03022e-10 -1.96967e-10)
(6.46201e-11 -5.6577e-11 1.75514e-11)
(1.14611e-10 -1.02713e-10 3.63724e-11)
(2.50927e-10 -1.0741e-10 6.01974e-12)
(3.64916e-10 -1.12694e-10 1.35111e-11)
(5.17041e-10 -1.58731e-10 -1.4916e-11)
(7.59168e-10 -2.32963e-10 7.4962e-12)
(1.05814e-09 -1.06478e-10 7.37605e-11)
(1.31394e-09 -1.18447e-10 4.07129e-11)
(1.53516e-09 -1.5738e-11 1.93802e-10)
(-7.17272e-11 -1.04765e-10 -2.28624e-11)
(1.13392e-10 -6.40945e-11 2.14489e-11)
(8.10195e-11 -1.0007e-10 2.71234e-11)
(2.52418e-10 -1.03247e-10 2.0096e-11)
(3.74187e-10 -1.49539e-10 -1.44667e-11)
(5.02482e-10 -2.10213e-10 -1.57895e-11)
(6.70846e-10 -2.33365e-10 1.44469e-10)
(1.61139e-09 -6.55004e-10 -5.2651e-11)
(1.28672e-09 2.42655e-10 -2.23109e-10)
(-5.25205e-10 -1.6995e-10 -2.16606e-11)
(8.36141e-12 -3.77364e-11 1.51171e-11)
(6.22265e-11 -1.47692e-10 1.42274e-10)
(6.79007e-11 -5.90945e-11 -3.12347e-11)
(8.45138e-11 -6.0382e-11 1.28224e-11)
(1.90503e-10 -1.17328e-10 -1.16757e-11)
(2.06652e-10 -1.1529e-10 7.11272e-12)
(2.00023e-10 -1.06532e-10 1.39292e-10)
(5.80065e-10 3.19043e-11 -2.88146e-10)
)
;

boundaryField
{
    inlet
    {
        type            zeroGradient;
    }
    outlet
    {
        type            zeroGradient;
    }
    wall
    {
        type            zeroGradient;
    }
    procBoundary6to0
    {
        type            processor;
        value           uniform (2.92976e-09 -2.51508e-10 1.06399e-09);
    }
    procBoundary6to2
    {
        type            processor;
        value           nonuniform List<vector> 
32
(
(1.92431e-09 -7.39665e-10 4.31884e-10)
(9.65529e-10 -4.36389e-10 5.77061e-10)
(1.53448e-09 -8.49067e-10 1.74291e-10)
(2.98136e-10 -2.93148e-10 2.14559e-10)
(4.55594e-10 -4.29051e-10 2.90297e-10)
(8.3976e-10 -4.33826e-10 1.94586e-10)
(9.2554e-11 -2.42337e-11 1.26986e-10)
(3.15285e-10 -1.81989e-10 2.90378e-10)
(4.56642e-10 -3.07757e-10 4.3676e-10)
(5.83864e-10 -2.60333e-10 4.47797e-10)
(8.01405e-10 -2.11525e-10 5.97073e-10)
(1.35293e-09 -2.12968e-10 3.82719e-10)
(1.65748e-09 -1.585e-10 5.44965e-10)
(2.4925e-09 -1.90582e-10 4.44381e-10)
(2.4925e-09 -1.90582e-10 4.44381e-10)
(2.4925e-09 -1.90582e-10 4.44381e-10)
(1.84668e-11 1.79867e-11 5.07922e-11)
(2.48613e-10 -1.51814e-10 2.79341e-10)
(2.15302e-10 -1.39908e-10 3.45933e-10)
(3.80494e-10 -1.70856e-10 3.65405e-10)
(4.72381e-10 -3.20132e-10 4.02184e-10)
(7.6952e-10 -2.08195e-10 3.66829e-10)
(9.52254e-10 -2.92947e-10 4.84226e-10)
(9.52254e-10 -2.92947e-10 4.84226e-10)
(9.52254e-10 -2.92947e-10 4.84226e-10)
(7.14626e-12 -8.48917e-11 6.64353e-11)
(5.17251e-11 -7.76568e-11 1.37612e-10)
(1.30593e-11 -9.96671e-11 2.23332e-10)
(6.4348e-11 -1.57489e-10 1.57616e-10)
(2.5421e-10 -2.11884e-10 2.0808e-10)
(3.01138e-10 -1.77365e-10 1.47396e-10)
(3.01138e-10 -1.77365e-10 1.47396e-10)
)
;
    }
    procBoundary6to4
    {
        type            processor;
        value           nonuniform List<vector> 
27
(
(1.10712e-10 1.3425e-11 1.246e-10)
(3.73789e-10 -8.22413e-11 1.55476e-10)
(6.73738e-10 -1.70697e-10 5.98759e-11)
(9.85796e-10 -1.30123e-10 8.35329e-11)
(1.49235e-09 1.49814e-11 3.15173e-10)
(2.02417e-09 8.60648e-11 4.69275e-10)
(2.32174e-09 1.27159e-10 4.25425e-10)
(2.7817e-09 6.23764e-11 2.78369e-10)
(3.14494e-09 -3.65259e-11 4.71985e-10)
(6.60692e-11 -1.18856e-11 5.25342e-11)
(2.32491e-10 -7.46937e-11 6.38516e-11)
(4.62012e-10 -1.1339e-10 3.35532e-11)
(5.93378e-10 -1.32565e-10 7.82316e-11)
(8.51811e-10 -1.24535e-10 1.11579e-10)
(1.43533e-09 -3.12869e-13 1.6215e-10)
(1.69215e-09 2.30868e-10 2.13959e-10)
(1.97943e-09 1.51377e-11 2.88063e-10)
(2.28688e-09 -1.92339e-10 6.1199e-10)
(5.5365e-11 -4.32774e-11 -1.35067e-11)
(1.33465e-10 -5.96026e-11 -2.22241e-11)
(2.94168e-10 1.35932e-11 7.16003e-12)
(3.26731e-10 -7.18048e-11 4.44073e-11)
(4.86348e-10 -1.52211e-10 -1.45899e-11)
(6.30699e-10 -1.5838e-10 -3.35612e-11)
(7.14004e-10 2.11077e-11 3.07802e-11)
(3.57636e-09 -1.41954e-09 6.87873e-11)
(1.49568e-09 -7.64333e-11 1.88599e-10)
)
;
    }
    procBoundary6to7
    {
        type            processor;
        value           nonuniform List<vector> 
12
(
(3.40963e-09 -7.69938e-10 4.26388e-10)
(2.71734e-09 -5.25015e-10 1.54541e-11)
(9.9476e-10 -4.96836e-10 9.01319e-12)
(3.1914e-09 -5.37353e-10 2.10798e-10)
(2.52416e-09 -5.53951e-10 5.88035e-11)
(3.93812e-10 -6.67734e-10 6.21578e-11)
(2.74997e-09 -1.40488e-10 3.4428e-10)
(2.08706e-09 -3.72504e-10 1.71334e-10)
(9.40866e-10 -3.76899e-10 8.46129e-11)
(1.49979e-09 2.25692e-11 1.23592e-10)
(9.44651e-10 2.8059e-11 3.24053e-11)
(5.81342e-10 -3.8363e-10 -3.13033e-11)
)
;
    }
}


// ************************************************************************* //
