/*--------------------------------*- C++ -*----------------------------------*\
| =========                 |                                                 |
| \\      /  F ield         | OpenFOAM: The Open Source CFD Toolbox           |
|  \\    /   O peration     | Version:  4.x                                   |
|   \\  /    A nd           | Web:      www.OpenFOAM.org                      |
|    \\/     M anipulation  |                                                 |
\*---------------------------------------------------------------------------*/
FoamFile
{
    version     2.0;
    format      ascii;
    class       volScalarField;
    location    "30";
    object      QPartFluidCoeff;
}
// * * * * * * * * * * * * * * * * * * * * * * * * * * * * * * * * * * * * * //

dimensions      [1 -1 -3 -1 0 0 0];

internalField   nonuniform List<scalar> 
87
(
-2.69322e+07
-2.23359e+07
-2.9697e+07
-1.89526e+07
-2.06896e+07
-1.86851e+07
-3.31894e+07
-2.98942e+07
-2.03332e+07
-2.68922e+07
-3.70295e+07
-2.06587e+07
-2.91317e+07
-2.22397e+07
-3.32562e+07
-2.10141e+07
-3.0754e+07
-2.72867e+07
-3.41553e+07
-2.95595e+07
-2.92389e+07
-2.92489e+07
-3.08753e+07
-3.14055e+07
-1.55921e+07
-2.53032e+07
-1.98762e+07
-2.0513e+07
-2.90623e+07
-3.16435e+07
-2.45684e+07
-2.12119e+07
-2.94001e+07
-2.44833e+07
-3.00441e+07
-3.21997e+07
-2.88663e+07
-2.22385e+07
-2.63912e+07
-2.64313e+07
-2.04175e+07
-3.1806e+07
-1.79088e+07
-2.95885e+07
-2.94863e+07
-2.68294e+07
-2.64869e+07
-2.19128e+07
-3.34654e+07
-2.20423e+07
-3.32906e+07
-1.60266e+07
-2.22783e+07
-2.05958e+07
-2.61609e+07
-2.74071e+07
-2.06195e+07
-2.54645e+07
-2.1549e+07
-2.30029e+07
-1.63652e+07
-1.80311e+07
-2.47498e+07
-2.33861e+07
-2.386e+07
-2.15986e+07
-3.42125e+07
-2.87718e+07
-1.50352e+07
-1.73231e+07
-1.94487e+07
-2.54188e+07
-2.06236e+07
-3.22309e+07
-2.23765e+07
-2.4016e+07
-2.03083e+07
-2.824e+07
-1.41518e+07
-2.04644e+07
-2.25448e+07
-2.11278e+07
-1.74727e+07
-2.83044e+07
-1.87187e+07
-1.88483e+07
-2.39952e+07
)
;

boundaryField
{
    inlet
    {
        type            calculated;
        value           uniform 0;
    }
    outlet
    {
        type            calculated;
        value           nonuniform 0();
    }
    wall
    {
        type            calculated;
        value           uniform 0;
    }
    procBoundary6to0
    {
        type            processor;
        value           uniform 195.387;
    }
    procBoundary6to2
    {
        type            processor;
        value           nonuniform List<scalar> 
32
(
436.826
643.838
776.129
734.415
407.486
586.521
369.897
717.625
778.511
543.279
622.736
476.037
572.649
575.113
575.113
575.113
443.669
597.662
794.862
498.827
688.199
578.29
778.287
778.287
778.287
321.683
476.649
567.266
547.627
509.499
489.904
489.904
)
;
    }
    procBoundary6to4
    {
        type            processor;
        value           nonuniform List<scalar> 
27
(
261.343
508.833
710.022
431.78
664.506
505.977
831.08
454.198
531.919
468.742
648.701
569.527
728.704
794.252
574.36
893.066
638.438
612.842
547.938
529.795
505.809
601.347
636.32
717.31
374.293
388.118
532.4
)
;
    }
    procBoundary6to7
    {
        type            processor;
        value           nonuniform List<scalar> 
12
(
570.178
394.764
533.116
290.743
455.075
513.36
644.63
622.416
458.873
542.699
478.172
461.824
)
;
    }
}


// ************************************************************************* //
