/*--------------------------------*- C++ -*----------------------------------*\
| =========                 |                                                 |
| \\      /  F ield         | OpenFOAM: The Open Source CFD Toolbox           |
|  \\    /   O peration     | Version:  4.x                                   |
|   \\  /    A nd           | Web:      www.OpenFOAM.org                      |
|    \\/     M anipulation  |                                                 |
\*---------------------------------------------------------------------------*/
FoamFile
{
    version     2.0;
    format      ascii;
    class       volScalarField;
    location    "30";
    object      QWallFluidCoeff;
}
// * * * * * * * * * * * * * * * * * * * * * * * * * * * * * * * * * * * * * //

dimensions      [1 -1 -3 -1 0 0 0];

internalField   nonuniform List<scalar> 
87
(
0
0
0
-2.88902e+06
-1.59522e+06
-2.93704e+06
0
0
0
0
0
0
0
0
0
0
0
0
0
0
0
0
0
0
-2.75389e+06
-1.37334e+06
-2.77149e+06
-1.4112e+06
-2.7674e+06
-1.38166e+06
-2.78067e+06
-1.36412e+06
-2.79294e+06
0
0
0
0
0
0
0
0
0
0
0
0
0
0
0
0
0
0
-2.74324e+06
-1.44307e+06
-2.79875e+06
-1.54495e+06
-2.82737e+06
-1.60426e+06
-2.86833e+06
-1.64085e+06
-2.91015e+06
-2.71385e+06
-1.36896e+06
-2.71696e+06
-1.35081e+06
-2.71334e+06
-1.31445e+06
-2.7049e+06
-1.23335e+06
-2.72291e+06
-2.73187e+06
-1.44118e+06
-2.77504e+06
-1.52668e+06
-2.80486e+06
-1.57256e+06
-2.84e+06
-1.57999e+06
-2.8667e+06
-5.51197e+06
-3.04555e+06
-5.69539e+06
-3.43261e+06
-5.88772e+06
-3.70734e+06
-6.03163e+06
-3.88714e+06
-6.1061e+06
)
;

boundaryField
{
    inlet
    {
        type            calculated;
        value           uniform 0;
    }
    outlet
    {
        type            calculated;
        value           nonuniform 0();
    }
    wall
    {
        type            calculated;
        value           uniform 0;
    }
    procBoundary6to0
    {
        type            processor;
        value           uniform 0;
    }
    procBoundary6to2
    {
        type            processor;
        value           uniform 0;
    }
    procBoundary6to4
    {
        type            processor;
        value           uniform 0;
    }
    procBoundary6to7
    {
        type            processor;
        value           uniform 0;
    }
}


// ************************************************************************* //
