/*--------------------------------*- C++ -*----------------------------------*\
| =========                 |                                                 |
| \\      /  F ield         | OpenFOAM: The Open Source CFD Toolbox           |
|  \\    /   O peration     | Version:  4.x                                   |
|   \\  /    A nd           | Web:      www.OpenFOAM.org                      |
|    \\/     M anipulation  |                                                 |
\*---------------------------------------------------------------------------*/
FoamFile
{
    version     2.0;
    format      ascii;
    class       volScalarField;
    location    "6.5";
    object      Deff;
}
// * * * * * * * * * * * * * * * * * * * * * * * * * * * * * * * * * * * * * //

dimensions      [0 2 -1 0 0 0 0];

internalField   nonuniform List<scalar> 
132
(
9.78684e-08
9.78382e-08
9.7865e-08
9.7791e-08
9.76059e-08
9.75714e-08
9.76267e-08
9.77435e-08
9.7645e-08
9.79556e-08
9.77889e-08
9.78314e-08
9.78342e-08
9.76983e-08
9.77339e-08
9.76701e-08
9.77096e-08
9.76607e-08
9.81428e-08
9.79381e-08
9.79232e-08
9.7886e-08
9.777e-08
9.76842e-08
9.76739e-08
9.77154e-08
9.76956e-08
9.82748e-08
9.80447e-08
9.79143e-08
9.79866e-08
9.78535e-08
9.77943e-08
9.77337e-08
9.7842e-08
9.79751e-08
9.77615e-08
9.7666e-08
9.76229e-08
9.75822e-08
9.75055e-08
9.75308e-08
9.76009e-08
9.79783e-08
9.77346e-08
9.77142e-08
9.76781e-08
9.7573e-08
9.7592e-08
9.76095e-08
9.75578e-08
9.76523e-08
9.80043e-08
9.77713e-08
9.77839e-08
9.77846e-08
9.76334e-08
9.75409e-08
9.75112e-08
9.75924e-08
9.76144e-08
9.80914e-08
9.78423e-08
9.78645e-08
9.77903e-08
9.77115e-08
9.77124e-08
9.76532e-08
9.76581e-08
9.7847e-08
9.76383e-08
9.76188e-08
9.75495e-08
9.75963e-08
9.76552e-08
9.78336e-08
9.77392e-08
9.76956e-08
9.77183e-08
9.75664e-08
9.7603e-08
9.75599e-08
9.75078e-08
9.7593e-08
9.79114e-08
9.7794e-08
9.7736e-08
9.77158e-08
9.75916e-08
9.75843e-08
9.7544e-08
9.7589e-08
9.76148e-08
9.80646e-08
9.78969e-08
9.78134e-08
9.77715e-08
9.77452e-08
9.77496e-08
9.76222e-08
9.7678e-08
9.78296e-08
9.76743e-08
9.76673e-08
9.77153e-08
9.79089e-08
9.78575e-08
9.7699e-08
9.76815e-08
9.77236e-08
9.77905e-08
9.76527e-08
9.76541e-08
9.77463e-08
9.79703e-08
9.78958e-08
9.78327e-08
9.778e-08
9.77022e-08
9.7705e-08
9.76341e-08
9.76872e-08
9.77172e-08
9.80229e-08
9.78841e-08
9.79063e-08
9.78564e-08
9.77656e-08
9.77404e-08
9.7706e-08
9.77829e-08
9.79839e-08
)
;

boundaryField
{
    inlet
    {
        type            calculated;
        value           nonuniform 0();
    }
    outlet
    {
        type            calculated;
        value           uniform 0;
    }
    wall
    {
        type            calculated;
        value           uniform 0;
    }
    procBoundary7to0
    {
        type            processor;
        value           uniform 0;
    }
    procBoundary7to1
    {
        type            processor;
        value           uniform 0;
    }
    procBoundary7to3
    {
        type            processor;
        value           uniform 0;
    }
    procBoundary7to5
    {
        type            processor;
        value           uniform 0;
    }
    procBoundary7to6
    {
        type            processor;
        value           uniform 0;
    }
}


// ************************************************************************* //
