/*--------------------------------*- C++ -*----------------------------------*\
| =========                 |                                                 |
| \\      /  F ield         | OpenFOAM: The Open Source CFD Toolbox           |
|  \\    /   O peration     | Version:  4.x                                   |
|   \\  /    A nd           | Web:      www.OpenFOAM.org                      |
|    \\/     M anipulation  |                                                 |
\*---------------------------------------------------------------------------*/
FoamFile
{
    version     2.0;
    format      ascii;
    class       volScalarField;
    location    "6.5";
    object      QWallFluid;
}
// * * * * * * * * * * * * * * * * * * * * * * * * * * * * * * * * * * * * * //

dimensions      [1 -1 -3 0 0 0 0];

internalField   nonuniform List<scalar> 
132
(
0
0
0
0
0
0
0
0
0
0
0
0
0
0
0
0
0
0
0
0
0
0
0
0
0
0
0
6.53617e+08
9.78047e+08
6.66289e+08
1.03355e+09
6.61169e+08
1.12408e+09
6.16419e+08
1.35266e+09
8.95594e+08
0
0
0
0
0
0
0
0
0
0
0
0
0
0
0
0
0
0
0
0
0
0
0
0
0
5.73048e+08
8.94781e+08
5.63491e+08
9.11544e+08
5.23333e+08
9.06607e+08
4.68461e+08
8.66425e+08
4.83786e+08
0
0
0
0
0
0
0
0
0
0
0
0
0
0
0
0
0
0
0
0
0
0
0
6.33428e+08
9.41863e+08
6.54605e+08
9.83333e+08
6.37465e+08
1.0565e+09
5.78589e+08
1.2369e+09
5.39739e+08
3.8053e+08
7.21523e+08
3.90578e+08
3.55518e+08
7.80159e+08
2.32425e+08
7.49362e+08
6.62581e+07
7.11552e+08
6.16172e+07
6.32965e+08
2.35966e+08
5.38259e+08
8.51108e+08
4.68797e+08
8.20091e+08
3.71593e+08
7.69463e+08
2.69854e+08
6.69201e+08
3.03158e+08
1.30439e+09
1.88476e+09
1.38686e+09
1.96962e+09
1.43231e+09
2.04854e+09
1.42128e+09
2.10144e+09
1.48018e+09
)
;

boundaryField
{
    inlet
    {
        type            calculated;
        value           nonuniform 0();
    }
    outlet
    {
        type            calculated;
        value           uniform 0;
    }
    wall
    {
        type            calculated;
        value           uniform 0;
    }
    procBoundary7to0
    {
        type            processor;
        value           uniform 0;
    }
    procBoundary7to1
    {
        type            processor;
        value           uniform 0;
    }
    procBoundary7to3
    {
        type            processor;
        value           nonuniform List<scalar> 
36
(
0
0
0
0
0
0
0
0
0
0
0
0
0
0
0
0
0
0
0
0
0
0
0
0
0
0
0
6.53533e+08
9.8742e+08
6.78731e+08
1.03064e+09
6.391e+08
1.09245e+09
5.4903e+08
1.28341e+09
6.19355e+08
)
;
    }
    procBoundary7to5
    {
        type            processor;
        value           nonuniform List<scalar> 
44
(
0
0
0
0
0
0
0
0
0
0
0
0
0
0
0
0
0
0
0
0
0
0
0
0
0
0
0
0
0
0
0
0
4.58796e+08
7.78426e+08
3.93621e+08
8.19219e+08
2.966e+08
5.77661e+08
8.66977e+08
5.69022e+08
8.40826e+08
4.58796e+08
7.78426e+08
7.78426e+08
)
;
    }
    procBoundary7to6
    {
        type            processor;
        value           nonuniform List<scalar> 
12
(
0
0
9.25966e+08
0
0
8.66123e+08
0
0
8.97333e+08
8.02568e+08
8.48119e+08
1.80413e+09
)
;
    }
}


// ************************************************************************* //
