/*--------------------------------*- C++ -*----------------------------------*\
| =========                 |                                                 |
| \\      /  F ield         | OpenFOAM: The Open Source CFD Toolbox           |
|  \\    /   O peration     | Version:  4.x                                   |
|   \\  /    A nd           | Web:      www.OpenFOAM.org                      |
|    \\/     M anipulation  |                                                 |
\*---------------------------------------------------------------------------*/
FoamFile
{
    version     2.0;
    format      ascii;
    class       volScalarField;
    location    "6.5";
    object      QWallFluidCoeff;
}
// * * * * * * * * * * * * * * * * * * * * * * * * * * * * * * * * * * * * * //

dimensions      [1 -1 -3 -1 0 0 0];

internalField   nonuniform List<scalar> 
132
(
0
0
0
0
0
0
0
0
0
0
0
0
0
0
0
0
0
0
0
0
0
0
0
0
0
0
0
-2.17872e+06
-3.26016e+06
-2.22096e+06
-3.44516e+06
-2.2039e+06
-3.74692e+06
-2.05473e+06
-4.50888e+06
-2.98531e+06
0
0
0
0
0
0
0
0
0
0
0
0
0
0
0
0
0
0
0
0
0
0
0
0
0
-1.91016e+06
-2.9826e+06
-1.8783e+06
-3.03848e+06
-1.74444e+06
-3.02202e+06
-1.56154e+06
-2.88808e+06
-1.61262e+06
0
0
0
0
0
0
0
0
0
0
0
0
0
0
0
0
0
0
0
0
0
0
0
-2.11143e+06
-3.13954e+06
-2.18202e+06
-3.27778e+06
-2.12488e+06
-3.52166e+06
-1.92863e+06
-4.12302e+06
-1.79913e+06
-1.26843e+06
-2.40508e+06
-1.30193e+06
-1.18506e+06
-2.60053e+06
-774750
-2.49787e+06
-220860
-2.37184e+06
-205391
-2.10988e+06
-786553
-1.7942e+06
-2.83703e+06
-1.56266e+06
-2.73364e+06
-1.23864e+06
-2.56488e+06
-899515
-2.23067e+06
-1.01053e+06
-4.34797e+06
-6.28252e+06
-4.62286e+06
-6.56541e+06
-4.77438e+06
-6.82847e+06
-4.73761e+06
-7.0048e+06
-4.93395e+06
)
;

boundaryField
{
    inlet
    {
        type            calculated;
        value           nonuniform 0();
    }
    outlet
    {
        type            calculated;
        value           uniform 0;
    }
    wall
    {
        type            calculated;
        value           uniform 0;
    }
    procBoundary7to0
    {
        type            processor;
        value           uniform 0;
    }
    procBoundary7to1
    {
        type            processor;
        value           uniform 0;
    }
    procBoundary7to3
    {
        type            processor;
        value           uniform 0;
    }
    procBoundary7to5
    {
        type            processor;
        value           uniform 0;
    }
    procBoundary7to6
    {
        type            processor;
        value           uniform 0;
    }
}


// ************************************************************************* //
