/*--------------------------------*- C++ -*----------------------------------*\
| =========                 |                                                 |
| \\      /  F ield         | OpenFOAM: The Open Source CFD Toolbox           |
|  \\    /   O peration     | Version:  4.x                                   |
|   \\  /    A nd           | Web:      www.OpenFOAM.org                      |
|    \\/     M anipulation  |                                                 |
\*---------------------------------------------------------------------------*/
FoamFile
{
    version     2.0;
    format      ascii;
    class       volScalarField;
    location    "6.5";
    object      Sm;
}
// * * * * * * * * * * * * * * * * * * * * * * * * * * * * * * * * * * * * * //

dimensions      [1 -3 -1 0 0 0 0];

internalField   nonuniform List<scalar> 
132
(
9.91587e-65
7.82455e-65
6.43022e-65
6.73999e-65
1.03031e-64
1.03792e-64
7.97681e-65
5.65256e-65
8.36182e-65
7.6695e-65
9.45161e-65
7.28248e-65
6.74006e-65
8.44397e-65
5.65464e-65
7.51284e-65
6.35017e-65
8.05296e-65
5.50067e-65
7.36029e-65
6.19822e-65
7.12779e-65
7.43741e-65
8.05669e-65
7.51368e-65
7.20301e-65
8.59628e-65
5.11364e-65
7.28332e-65
8.75545e-65
5.50116e-65
7.20562e-65
6.81785e-65
7.90187e-65
5.88751e-65
4.33796e-65
6.43033e-65
7.35986e-65
6.73965e-65
6.89382e-65
8.59673e-65
8.44056e-65
7.35573e-65
3.95104e-65
8.52217e-65
7.4376e-65
7.51492e-65
8.13424e-65
7.0491e-65
5.65388e-65
7.74421e-65
5.73008e-65
5.81078e-65
8.52262e-65
6.9731e-65
5.73333e-65
7.36e-65
8.59906e-65
8.90797e-65
7.04833e-65
7.97699e-65
5.65612e-65
8.44568e-65
5.88872e-65
7.28339e-65
7.3606e-65
6.19818e-65
6.585e-65
7.97902e-65
5.34488e-65
5.03548e-65
5.80968e-65
7.35805e-65
6.04069e-65
5.8075e-65
8.05748e-65
7.36035e-65
6.81809e-65
5.19089e-65
8.52199e-65
7.04936e-65
7.12585e-65
8.75173e-65
7.51161e-65
7.05065e-65
7.36075e-65
7.5157e-65
6.9732e-65
8.29004e-65
7.59231e-65
7.66915e-65
7.0488e-65
7.74531e-65
5.34647e-65
6.27633e-65
7.0512e-65
6.89617e-65
6.12118e-65
5.26872e-65
7.59253e-65
7.05013e-65
5.81e-65
5.49964e-65
6.42873e-65
6.1185e-65
6.89559e-65
5.81117e-65
7.67065e-65
7.43815e-65
5.19085e-65
3.87361e-65
6.89412e-65
6.66128e-65
5.42148e-65
5.96624e-65
6.04389e-65
6.04388e-65
6.19882e-65
6.8958e-65
6.35316e-65
7.20467e-65
6.42991e-65
7.28146e-65
6.2765e-65
7.36149e-65
5.65672e-65
5.81172e-65
6.58642e-65
6.50874e-65
6.50824e-65
6.35329e-65
4.10642e-65
)
;

boundaryField
{
    inlet
    {
        type            calculated;
        value           nonuniform 0();
    }
    outlet
    {
        type            calculated;
        value           uniform 0;
    }
    wall
    {
        type            calculated;
        value           uniform 0;
    }
    procBoundary7to0
    {
        type            processor;
        value           uniform 2.32384e-65;
    }
    procBoundary7to1
    {
        type            processor;
        value           uniform 5.7327e-65;
    }
    procBoundary7to3
    {
        type            processor;
        value           nonuniform List<scalar> 
36
(
7.66939e-65
8.98668e-65
8.83189e-65
8.52191e-65
6.11986e-65
6.19672e-65
8.59683e-65
6.81418e-65
7.74276e-65
8.98647e-65
5.11318e-65
7.74735e-65
4.33845e-65
4.64805e-65
7.90112e-65
7.28063e-65
8.82845e-65
6.11736e-65
5.65574e-65
8.29003e-65
8.21255e-65
5.81066e-65
6.8175e-65
7.97916e-65
6.6618e-65
7.20295e-65
5.42142e-65
5.73355e-65
3.87414e-65
5.42383e-65
6.12112e-65
5.57851e-65
7.1279e-65
6.1977e-65
7.90168e-65
8.52059e-65
)
;
    }
    procBoundary7to5
    {
        type            processor;
        value           nonuniform List<scalar> 
44
(
8.44448e-65
6.04305e-65
7.43735e-65
5.81016e-65
4.57023e-65
6.9705e-65
5.73045e-65
8.67183e-65
9.99363e-65
4.416e-65
7.28278e-65
7.59251e-65
6.19758e-65
7.04908e-65
7.12562e-65
6.89232e-65
5.57538e-65
9.99363e-65
4.416e-65
4.416e-65
8.9875e-65
7.98013e-65
1.0149e-64
7.35945e-65
8.21059e-65
8.90668e-65
8.67358e-65
3.56379e-65
9.37476e-65
8.9875e-65
7.98013e-65
7.98013e-65
9.68447e-65
7.74704e-65
6.50719e-65
6.73903e-65
6.81593e-65
7.20558e-65
5.50121e-65
7.28331e-65
5.6561e-65
9.68447e-65
7.74704e-65
7.74704e-65
)
;
    }
    procBoundary7to6
    {
        type            processor;
        value           nonuniform List<scalar> 
12
(
6.73951e-65
7.12737e-65
4.95862e-65
8.52156e-65
7.59242e-65
7.51548e-65
7.90212e-65
7.74754e-65
5.65624e-65
3.79646e-65
7.82559e-65
6.04395e-65
)
;
    }
}


// ************************************************************************* //
