/*--------------------------------*- C++ -*----------------------------------*\
  =========                 |
  \\      /  F ield         | OpenFOAM: The Open Source CFD Toolbox
   \\    /   O peration     | Website:  https://openfoam.org
    \\  /    A nd           | Version:  4.x
     \\/     M anipulation  |
\*---------------------------------------------------------------------------*/
FoamFile
{
    version     2.0;
    format      ascii;
    class       Cloud<passiveParticle>;
    location    0;
    object      positions;
}
// * * * * * * * * * * * * * * * * * * * * * * * * * * * * * * * * * * * * * //

325
(
( 0.0388642 -0.0811821 0.0295069 ) 1
( 0.0913066 -0.073359 0.0223465 ) 3
( 0.244273 -0.0297113 0.0296468 ) 26
( 0.104054 -0.0622522 0.0322824 ) 12
( 0.12127 -0.0409379 0.0239768 ) 22
( 0.0693526 -0.0265404 0.0234485 ) 20
( 0.0144375 -0.0313833 0.0342943 ) 18
( 0.009789 -0.0204791 0.0185376 ) 18
( 0.229638 -0.01518 0.0288042 ) 26
( 0.0184075 -0.0624107 0.0159928 ) 9
( 0.241521 -0.00397464 0.017647 ) 35
( 0.204857 -0.042146 0.0146964 ) 25
( 0.179724 -0.0292837 0.0209641 ) 24
( 0.247273 -0.0512884 0.0183796 ) 17
( 0.238977 -0.0713485 0.0254789 ) 17
( 0.12646 -0.0523453 0.0392984 ) 13
( 0.11801 -0.074431 0.0484108 ) 40
( 0.0664866 -0.0449494 0.0295886 ) 11
( 0.0817337 -0.041411 0.0178228 ) 20
( 0.138693 -0.00767302 0.0335511 ) 31
( 0.122609 -0.0693912 0.029767 ) 13
( 0.169712 -0.0153846 0.0308715 ) 24
( 0.210708 -0.00892273 0.0297722 ) 34
( 0.124058 -0.0216168 0.0208629 ) 22
( 0.060855 -0.0900887 0.0331753 ) 2
( 0.202081 -0.0201956 0.0159784 ) 25
( 0.0345578 -0.0220894 0.0162382 ) 19
( 0.231811 -0.0461825 0.0298173 ) 17
( 0.0976399 -0.01154 0.0332088 ) 30
( 0.197738 -0.0680325 0.0276029 ) 16
( 0.124107 -0.0284551 0.0393294 ) 22
( 0.0770847 -0.00603393 0.0280498 ) 29
( 0.193396 -0.0835754 0.0163939 ) 6
( 0.0536596 -0.0306961 0.034777 ) 19
( 0.0763946 -0.0602111 0.0214436 ) 11
( 0.0506438 -0.090027 0.0160893 ) 1
( 0.0599183 -0.0673921 0.0300387 ) 11
( 0.153253 -0.0453036 0.0287515 ) 14
( 0.136554 -0.0531317 0.0221863 ) 13
( 0.180706 -0.0681612 0.0174766 ) 15
( 0.0315775 -0.0621525 0.0306698 ) 10
( 0.0484956 -0.0108269 0.0249386 ) 28
( 0.0293304 -0.0417768 0.0234997 ) 19
( 0.0874916 -0.0203857 0.0188338 ) 21
( 0.139485 -0.0768765 0.0224025 ) 5
( 0.184196 -0.0540452 0.0308595 ) 15
( 0.14091 -0.0319105 0.0211061 ) 23
( 0.113518 -0.0820358 0.0173025 ) 4
( 0.157534 -0.0838266 0.0270993 ) 5
( 0.0887054 -0.0435222 0.0384709 ) 12
( 0.0678365 -0.0791276 0.0163415 ) 2
( 0.106233 -0.0144828 0.0156257 ) 21
( 0.151115 -0.0227807 0.0355385 ) 23
( 0.189403 -0.00732063 0.0363674 ) 33
( 0.212083 -0.0901736 0.0161801 ) 7
( 0.0962764 -0.0548554 0.0156362 ) 12
( 0.135787 -0.00516712 0.0144168 ) 31
( 0.00979323 -0.0747449 0.0283309 ) 0
( 0.184898 -0.0101211 0.0172402 ) 33
( 0.00973807 -0.0568984 0.036995 ) 9
( 0.0815057 -0.0225735 0.0382681 ) 20
( 0.103559 -0.0901042 0.0325712 ) 3
( 0.0284138 -0.0173952 0.0353789 ) 19
( 0.196493 -0.0316671 0.0310767 ) 25
( 0.0475253 -0.0369733 0.0172583 ) 19
( 0.216567 -0.0774624 0.030738 ) 7
( 0.216799 -0.0301044 0.0251262 ) 25
( 0.164458 -0.0591074 0.0369862 ) 14
( 0.225491 -0.0573511 0.0148188 ) 17
( 0.0840402 -0.0627825 0.0393421 ) 12
( 0.047774 -0.0508657 0.031078 ) 10
( 0.118789 -0.00367564 0.0266911 ) 31
( 0.175998 -0.0902568 0.0229703 ) 6
( 0.108706 -0.0441674 0.0386487 ) 12
( 0.0584683 -1.31613e-06 0.0382961 ) 29
( 0.153919 -0.0122329 0.0193586 ) 32
( 0.24926 -0.0872343 0.0176665 ) 8
( 0.228225 0.00821482 0.025628 ) 35
( 0.0659408 0.0126446 0.0236115 ) 29
( 0.188667 0.0101696 0.0260754 ) 33
( 0.0921094 0.00913908 0.0296115 ) 30
( 0.203807 0.00192655 0.046132 ) 70
( 0.149406 0.00634311 0.0242957 ) 32
( 0.208582 0.010293 0.0273584 ) 34
( 0.170283 0.0044678 0.0314495 ) 33
( 0.0353119 0.00430991 0.040495 ) 28
( 0.211833 -0.0541212 0.0288409 ) 16
( 0.0194384 -0.0902702 0.0354995 ) 0
( 0.0993239 -0.0353888 0.0239361 ) 21
( 0.230535 -0.0903339 0.0233081 ) 8
( 0.0283223 -0.0901059 0.0153129 ) 1
( 0.0799575 -0.0877581 0.0289783 ) 2
( 0.158576 -0.0655647 0.019469 ) 14
( 0.00959822 -0.000938955 0.0156821 ) 27
( 0.00991026 -0.0453013 0.0211998 ) 9
( 0.115964 -0.0579077 0.0149146 ) 13
( 0.0257859 -0.0467266 0.0422952 ) 9
( 0.0289021 -0.00366887 0.0213359 ) 28
( 0.221464 0.0104177 0.0440954 ) 70
( 0.131659 -0.0558608 0.0577889 ) 49
( 0.140702 -0.0729251 0.0543265 ) 41
( 0.16872 -0.090148 0.0422349 ) 6
( 0.154742 -0.00709469 0.0546042 ) 68
( 0.0334874 -0.0272343 0.0518906 ) 55
( 0.127602 -0.0900617 0.056289 ) 40
( 0.0426108 -0.0769885 0.0597577 ) 37
( 0.1675 -0.0420948 0.0591632 ) 60
( 0.12585 -0.00919493 0.0692121 ) 67
( 0.230583 -0.023496 0.0596126 ) 62
( 0.0466406 -0.0574609 0.0615788 ) 46
( 0.11603 -0.0443539 0.0603922 ) 49
( 0.0859145 -0.0775287 0.0621556 ) 39
( 0.242438 -0.0904381 0.0561135 ) 44
( 0.210212 -0.0331407 0.0605856 ) 61
( 0.246295 -0.0571056 0.0544594 ) 53
( 0.0741962 0.000230781 0.0625814 ) 65
( 0.0648575 -0.038067 0.0655939 ) 56
( 0.203255 -0.0901129 0.0601553 ) 43
( 0.00989599 -0.0828583 0.0715179 ) 72
( 0.168243 0.0100075 0.0581482 ) 69
( 0.0718734 -0.0639085 0.0605037 ) 47
( 0.186772 -0.0730459 0.0627519 ) 42
( 0.234148 -0.0727693 0.054063 ) 44
( 0.148223 -0.0904968 0.0575233 ) 41
( 0.0900626 -0.0188627 0.0612361 ) 57
( 0.229387 -0.0473619 0.0515334 ) 53
( 0.209081 0.009759 0.0654775 ) 70
( 0.175508 -0.00697439 0.0677175 ) 69
( 0.00967681 -0.0104052 0.0627318 ) 63
( 0.0663442 -0.0173371 0.0680589 ) 56
( 0.0269922 -0.0604953 0.0716198 ) 81
( 0.194746 -0.0145107 0.0547644 ) 61
( 0.149575 -0.0370888 0.0663924 ) 59
( 0.0639182 -0.0902107 0.0565853 ) 38
( 0.166256 -0.0655525 0.0621051 ) 50
( 0.188386 -0.0334759 0.0595456 ) 60
( 0.104885 -0.0726528 0.0653857 ) 39
( 0.223101 -0.0906664 0.0613688 ) 44
( 0.24932 -0.00224156 0.0534578 ) 71
( 0.115348 -0.0247628 0.058925 ) 58
( 0.0308581 0.00970558 0.0591164 ) 64
( 0.190748 0.0037952 0.061214 ) 69
( 0.0881425 0.013017 0.0685872 ) 66
( 0.0877204 -0.0529096 0.0558643 ) 48
( 0.102144 -0.00180816 0.0563463 ) 66
( 0.118643 0.00796582 0.0612775 ) 67
( 0.210899 -0.0568308 0.050583 ) 52
( 0.0168539 -0.0267499 0.0715617 ) 90
( 0.029604 -0.0851893 0.0724967 ) 73
( 0.0266297 -0.00861844 0.0529441 ) 63
( 0.107639 -0.0899699 0.0555033 ) 39
( 0.150998 -0.0560701 0.0553034 ) 50
( 0.204499 -0.0900413 0.0403309 ) 7
( 0.214868 -0.0757323 0.0525767 ) 43
( 0.142097 -0.0876331 0.0389766 ) 5
( 0.0629726 -0.0213873 0.0492875 ) 56
( 0.075496 0.00958239 0.0403268 ) 29
( 0.00963137 -0.0454722 0.0630856 ) 45
( 0.0994275 -0.0309737 0.0493467 ) 57
( 0.182351 -0.0245147 0.0430357 ) 60
( 0.125263 -0.0733403 0.0668477 ) 40
( 0.0628332 -0.0553652 0.0455861 ) 47
( 0.0466802 -0.0304126 0.0679603 ) 55
( 0.227602 -0.0893467 0.0425466 ) 8
( 0.0701749 -0.0756664 0.044727 ) 38
( 0.193679 -0.047658 0.0469649 ) 51
( 0.0179596 -0.0611831 0.0543728 ) 45
( 0.215621 -0.00747276 0.0592536 ) 70
( 0.15907 -0.0198297 0.069086 ) 59
( 0.134324 -0.0120389 0.0519687 ) 67
( 0.210897 -0.0395397 0.0419219 ) 25
( 0.085359 -0.00566079 0.0474115 ) 66
( 0.133611 -0.0314883 0.056299 ) 58
( 0.106012 -0.058899 0.0515098 ) 48
( 0.150899 -0.0736389 0.0714395 ) 77
( 0.0456268 -0.0902921 0.0457088 ) 37
( 0.228335 -0.030464 0.0412877 ) 26
( 0.0826469 -0.0905418 0.0479409 ) 38
( 0.177588 -0.0901452 0.0599505 ) 42
( 0.226354 -0.0625319 0.0393126 ) 17
( 0.143481 -0.0623329 0.0380377 ) 14
( 0.164007 -0.024562 0.0504378 ) 59
( 0.136357 0.0076066 0.0511315 ) 67
( 0.179739 -0.0614243 0.0487013 ) 51
( 0.0802996 -0.0345371 0.0539684 ) 56
( 0.0102566 0.00459607 0.0491909 ) 63
( 0.0556919 -0.00394934 0.0578481 ) 65
( 0.181441 -0.0761647 0.0356995 ) 6
( 0.0460165 -0.065643 0.0438017 ) 46
( 0.0443511 -0.0688001 0.0774206 ) 82
( 0.0219524 -0.0904721 0.0552405 ) 36
( 0.00982747 -0.0130996 0.0404111 ) 27
( 0.123412 -0.0899817 0.0327255 ) 4
( 0.231356 -0.00782362 0.0472108 ) 71
( 0.23107 -0.00848922 0.0722976 ) 107
( 0.114167 -0.011937 0.0440672 ) 67
( 0.116842 -0.090124 0.0731135 ) 76
( 0.145192 -0.00477789 0.071584 ) 104
( 0.211641 -0.0205399 0.0454089 ) 61
( 0.0289072 -0.0750312 0.0454707 ) 37
( 0.0455344 -0.013722 0.0441532 ) 64
( 0.106725 -0.0129075 0.071602 ) 102
( 0.182873 0.0119485 0.0448981 ) 69
( 0.00984231 -0.0283623 0.05318 ) 54
( 0.172377 -0.0412923 0.0401544 ) 24
( 0.246543 -0.0901671 0.0368618 ) 8
( 0.0616049 -0.0554411 0.0746576 ) 83
( 0.0805057 -0.0483712 0.0734421 ) 83
( 0.197141 -0.070566 0.0466798 ) 52
( 0.226238 -0.0404627 0.0695379 ) 62
( 0.0490593 -0.0901679 0.0791191 ) 73
( 0.204207 -0.0738794 0.0716135 ) 79
( 0.173439 -0.00619441 0.0480248 ) 69
( 0.249693 -0.0737715 0.0658897 ) 44
( 0.0290931 -0.0437578 0.0614041 ) 46
( 0.247849 -0.0416752 0.0727563 ) 98
( 0.00944096 -0.0774416 0.0476204 ) 36
( 0.0401983 -0.0115388 0.0671253 ) 64
( 0.181869 -0.0238871 0.0757279 ) 96
( 0.098175 -0.0348579 0.0700672 ) 57
( 0.086876 -0.0665386 0.0783752 ) 84
( 0.117026 0.00827512 0.0420533 ) 31
( 0.156549 -0.0548022 0.0757353 ) 86
( 0.216934 -0.0590382 0.069227 ) 52
( 0.0806795 -0.0278209 0.0760973 ) 92
( 0.236331 -0.0591512 0.0713357 ) 53
( 0.0968167 -0.0766567 0.0454964 ) 39
( 0.149285 -0.0386289 0.0467852 ) 59
( 0.0505143 -0.0408196 0.0514982 ) 55
( 0.155914 0.0141622 0.0729657 ) 104
( 0.131709 -0.0428103 0.0723603 ) 94
( 0.0408997 0.00853782 0.0760578 ) 100
( 0.0925165 0.0138277 0.0493052 ) 66
( 0.141216 -0.0901379 0.0766785 ) 77
( 0.198302 -0.0534229 0.0656176 ) 52
( 0.154693 0.00876368 0.0430472 ) 68
( 0.198523 -0.0347494 0.0762842 ) 97
( 0.0756872 -0.0900932 0.0751042 ) 74
( 0.221846 -0.0803376 0.0776312 ) 79
( 0.193171 0.00257194 0.0814085 ) 105
( 0.12081 -0.0259002 0.0778366 ) 94
( 0.014686 -0.0711936 0.0874254 ) 81
( 0.202343 -0.0128057 0.07295 ) 106
( 0.174813 -0.0722206 0.0778321 ) 78
( 0.023448 -0.00782754 0.0766423 ) 99
( 0.0663375 -0.0379213 0.0852779 ) 92
( 0.109693 -0.0723602 0.0843088 ) 75
( 0.18118 -0.0476437 0.0736497 ) 87
( 0.0657116 -0.00208348 0.0804986 ) 101
( 0.194459 -0.089919 0.0779762 ) 79
( 0.040239 -0.046821 0.0769061 ) 82
( 0.00977624 0.00628695 0.0807324 ) 99
( 0.00990977 -0.052355 0.0831451 ) 81
( 0.16313 -0.00315792 0.0825708 ) 104
( 0.224544 0.00930577 0.0771499 ) 107
( 0.131103 0.00828163 0.0762911 ) 103
( 0.136782 -0.0612334 0.0774212 ) 85
( 0.142925 -0.027497 0.0823694 ) 95
( 0.061334 -0.0768726 0.0709362 ) 38
( 0.077565 0.0130206 0.0852926 ) 101
( 0.161719 -0.0902541 0.071692 ) 77
( 0.248002 -0.0321188 0.056231 ) 62
( 0.160085 -0.0681514 0.0901995 ) 86
( 0.0969891 -0.0902213 0.0722798 ) 75
( 0.245111 -0.0902179 0.0755977 ) 80
( 0.0580377 -0.0763638 0.0903076 ) 74
( 0.231451 -0.0176764 0.0901206 ) 98
( 0.106214 -0.0305976 0.0902688 ) 93
( 0.0358426 -0.0808212 0.0905004 ) 73
( 0.073311 -0.0556735 0.0904252 ) 83
( 0.242548 0.0072789 0.0698234 ) 71
( 0.228973 -0.0672418 0.0903408 ) 89
( 0.0858083 -0.040287 0.0904387 ) 93
( 0.032779 -0.0245625 0.0829868 ) 91
( 0.208715 -0.0703457 0.0903588 ) 88
( 0.111884 0.00443676 0.0790202 ) 103
( 0.225388 -0.0481958 0.0875024 ) 89
( 0.165475 -0.036363 0.0777841 ) 95
( 0.126675 -0.0900272 0.0902424 ) 76
( 0.0881086 -0.00556859 0.0752615 ) 102
( 0.111341 -0.0463451 0.0793691 ) 85
( 0.0269084 0.0101797 0.0901038 ) 99
( 0.184995 -0.036826 0.0903606 ) 96
( 0.12696 -0.00530719 0.0901387 ) 103
( 0.20615 -0.051674 0.0840418 ) 88
( 0.0521049 -0.017346 0.0818043 ) 91
( 0.126475 -0.0392819 0.0906755 ) 94
( 0.0542078 0.0104363 0.0904378 ) 100
( 0.00984408 -0.0304824 0.0897086 ) 90
( 0.218843 -0.0233162 0.0757486 ) 97
( 0.210206 -0.0901437 0.0901879 ) 79
( 0.0315444 -0.061387 0.0905228 ) 82
( 0.14632 -0.00981236 0.0904779 ) 104
( 0.188125 -0.0564824 0.0901022 ) 87
( 0.146583 -0.0454818 0.0901536 ) 86
( 0.24856 -0.057285 0.0865054 ) 89
( 0.176033 -0.090465 0.0850792 ) 78
( 0.180572 -0.00973968 0.0901322 ) 105
( 0.143811 0.011646 0.0905228 ) 104
( 0.0506016 -0.0559476 0.0907213 ) 82
( 0.141745 -0.0755255 0.0902297 ) 77
( 0.0946235 0.00435737 0.0905905 ) 102
( 0.0860899 -0.0824521 0.0901855 ) 75
( 0.122311 -0.0585913 0.0904254 ) 85
( 0.107824 -0.0106148 0.0907075 ) 102
( 0.24722 -0.0768459 0.0901323 ) 80
( 0.232587 -0.0900651 0.0906493 ) 80
( 0.0699257 -0.0189003 0.0902458 ) 92
( 0.169348 -0.0505379 0.090491 ) 87
( 0.0256745 -0.0424098 0.0901431 ) 90
( 0.00986939 -0.0106591 0.0904693 ) 99
( 0.0981036 -0.0558174 0.0903701 ) 84
( 0.155692 -0.0897807 0.090339 ) 77
( 0.104513 -0.0902019 0.0904421 ) 75
( 0.0378218 -0.00679261 0.0903066 ) 100
( 0.216738 -0.00347327 0.0901622 ) 106
( 0.0898046 -0.0181308 0.0904705 ) 93
( 0.187905 -0.0761564 0.0909542 ) 78
( 0.212044 -0.0340408 0.0905508 ) 97
( 0.0476182 -0.0351605 0.0905995 ) 91
( 0.00984543 -0.0901544 0.0900716 ) 72
( 0.242485 -0.0392107 0.0908713 ) 98
( 0.241527 0.0125737 0.0902523 ) 107
( 0.197171 -0.0208311 0.090296 ) 97
( 0.164678 -0.0214138 0.0903793 ) 95
)
