/*--------------------------------*- C++ -*----------------------------------*\
| =========                 |                                                 |
| \\      /  F ield         | OpenFOAM: The Open Source CFD Toolbox           |
|  \\    /   O peration     | Version:  4.x                                   |
|   \\  /    A nd           | Web:      www.OpenFOAM.org                      |
|    \\/     M anipulation  |                                                 |
\*---------------------------------------------------------------------------*/
FoamFile
{
    version     2.0;
    format      ascii;
    class       volScalarField;
    location    "47.5";
    object      magGField;
}
// * * * * * * * * * * * * * * * * * * * * * * * * * * * * * * * * * * * * * //

dimensions      [1 -2 -1 0 0 0 0];

internalField   nonuniform List<scalar> 
87
(
93.2083
141.522
95.1462
150.268
93.8744
166.457
84.4538
205.304
56.696
80.5017
134.559
81.7926
142.368
79.1069
155.281
68.7976
181.457
56.1916
66.1602
121.287
64.5829
125.161
61.1987
134.216
56.4939
157.295
51.8282
57.9595
116.135
57.5331
119.144
53.6235
122.879
43.4372
127.65
27.6276
30.8337
104.883
27.2971
108.845
22.403
115.149
20.6483
122.618
32.299
8.01166
94.9694
0.978458
94.5767
4.12448e-05
90.2136
6.69149
82.1621
44.2912
53.4362
113.469
51.0624
116.968
46.0653
122.136
38.5639
128.512
35.3941
28.1027
103.002
28.1959
108.052
28.048
113.422
30.0389
121.715
41.3649
7.47037
91.4462
5.7609
91.9491
7.14269
91.7733
15.3094
87.6012
39.1175
37.5074
98.4957
25.5962
5.56472
89.5102
3.39616e-05
)
;

boundaryField
{
    inlet
    {
        type            calculated;
        value           nonuniform 0();
    }
    outlet
    {
        type            calculated;
        value           nonuniform List<scalar> 9(117.948 116.289 107.633 58.2914 68.091 93.7581 75.4228 88.3997 83.9066);
    }
    wall
    {
        type            calculated;
        value           uniform 0;
    }
    procBoundary1to0
    {
        type            processor;
        value           nonuniform List<scalar> 
12
(
136.088
127.732
117.612
112.891
101.97
94.8929
109.979
99.0701
91.0136
101.192
90.3647
81.2677
)
;
    }
    procBoundary1to3
    {
        type            processor;
        value           nonuniform List<scalar> 
27
(
72.5999
129.08
74.7199
137.42
72.6295
147.319
61.2535
161.05
50.1086
21.3629
102.099
18.0401
106.159
15.6862
111.97
15.9281
119.242
36.9455
11.8691
93.3454
9.72517
94.3431
10.9449
93.4578
15.3456
86.1621
38.1104
)
;
    }
    procBoundary1to5
    {
        type            processor;
        value           nonuniform List<scalar> 
32
(
91.0317
8.94537
78.0113
2.92004e-05
54.8887
4.66061
0.625664
89.207
1.29548
85.9644
5.587
75.7717
25.6542
79.4682
3.88741e-05
78.0028
3.72303e-05
75.1557
3.59417e-05
64.505
19.79
45.4499
106.533
91.0317
0.625664
43.8658
10.1303
0.625664
79.4682
92.4554
79.4682
7.43186e-05
)
;
    }
    procBoundary1to7
    {
        type            processor;
        value           uniform 3.83616;
    }
}


// ************************************************************************* //
