/*--------------------------------*- C++ -*----------------------------------*\
| =========                 |                                                 |
| \\      /  F ield         | OpenFOAM: The Open Source CFD Toolbox           |
|  \\    /   O peration     | Version:  4.x                                   |
|   \\  /    A nd           | Web:      www.OpenFOAM.org                      |
|    \\/     M anipulation  |                                                 |
\*---------------------------------------------------------------------------*/
FoamFile
{
    version     2.0;
    format      ascii;
    class       volScalarField;
    location    "47.5";
    object      QPartFluid;
}
// * * * * * * * * * * * * * * * * * * * * * * * * * * * * * * * * * * * * * //

dimensions      [1 -1 -3 0 0 0 0];

internalField   nonuniform List<scalar> 
87
(
4.29726e+09
7.05867e+09
4.19776e+09
6.5573e+09
4.37143e+09
4.88281e+09
5.24542e+09
6.59026e+09
3.98984e+09
4.53319e+09
4.43202e+09
5.84407e+09
5.7499e+09
4.39926e+09
6.67316e+09
7.65352e+09
6.73988e+09
4.02062e+09
3.94738e+09
7.09653e+09
6.22621e+09
8.96107e+09
6.29887e+09
5.82533e+09
5.76983e+09
6.30721e+09
4.30184e+09
7.42728e+09
6.59311e+09
6.14065e+09
7.58229e+09
6.36313e+09
7.84331e+09
9.06063e+09
8.94998e+09
5.35403e+09
9.01881e+09
6.72175e+09
7.56722e+09
9.42909e+09
9.20701e+09
7.72918e+09
9.41836e+09
1.05767e+10
4.72342e+09
7.91359e+09
8.4851e+09
7.18576e+09
6.80842e+09
5.79925e+09
9.31737e+09
9.45618e+09
1.31938e+10
4.46607e+09
7.12177e+09
7.01065e+09
8.22913e+09
9.62562e+09
6.09934e+09
9.67842e+09
7.60528e+09
7.44159e+09
3.19728e+09
6.48335e+09
8.86325e+09
6.50232e+09
8.11117e+09
8.19907e+09
9.0976e+09
7.64934e+09
9.46741e+09
3.71423e+09
9.46446e+09
7.87502e+09
5.47952e+09
1.11426e+10
8.87323e+09
1.07117e+10
7.50015e+09
9.69341e+09
3.38261e+09
6.46944e+09
5.53292e+09
7.59715e+09
7.85764e+09
1.21987e+10
5.89894e+09
)
;

boundaryField
{
    inlet
    {
        type            calculated;
        value           nonuniform 0();
    }
    outlet
    {
        type            calculated;
        value           uniform 0;
    }
    wall
    {
        type            calculated;
        value           uniform 0;
    }
    procBoundary1to0
    {
        type            processor;
        value           nonuniform List<scalar> 
12
(
2.01749e+09
5.24293e+09
8.50506e+09
7.25946e+09
8.96936e+09
6.34518e+09
5.41777e+09
1.01436e+10
5.39439e+09
6.03862e+09
6.92871e+09
9.33351e+09
)
;
    }
    procBoundary1to3
    {
        type            processor;
        value           nonuniform List<scalar> 
27
(
8.4923e+09
3.8568e+09
6.73677e+09
3.23759e+09
5.02117e+09
3.80264e+09
5.64548e+09
5.30772e+09
2.92156e+09
8.56167e+09
8.09808e+09
1.02868e+10
1.06708e+10
8.5462e+09
8.01601e+09
6.8838e+09
8.63767e+09
7.71273e+09
8.2626e+09
1.10372e+10
9.28882e+09
1.03941e+10
6.64324e+09
7.87249e+09
9.19943e+09
8.48104e+09
7.01123e+09
)
;
    }
    procBoundary1to5
    {
        type            processor;
        value           nonuniform List<scalar> 
32
(
7.85741e+09
7.24771e+09
7.03006e+09
5.71649e+09
7.88588e+09
5.8537e+09
7.26552e+09
7.0534e+09
5.90684e+09
8.27419e+09
8.52035e+09
1.01455e+10
6.56e+09
9.95771e+09
6.14922e+09
8.71783e+09
5.88977e+09
5.32113e+09
7.46895e+09
6.25875e+09
6.64563e+09
6.64966e+09
5.69976e+09
7.85741e+09
7.26552e+09
7.57457e+09
8.10921e+09
7.26552e+09
9.95771e+09
8.23888e+09
9.95771e+09
8.51228e+09
)
;
    }
    procBoundary1to7
    {
        type            processor;
        value           uniform 1.0121e+10;
    }
}


// ************************************************************************* //
