/*--------------------------------*- C++ -*----------------------------------*\
| =========                 |                                                 |
| \\      /  F ield         | OpenFOAM: The Open Source CFD Toolbox           |
|  \\    /   O peration     | Version:  4.x                                   |
|   \\  /    A nd           | Web:      www.OpenFOAM.org                      |
|    \\/     M anipulation  |                                                 |
\*---------------------------------------------------------------------------*/
FoamFile
{
    version     2.0;
    format      ascii;
    class       volScalarField;
    location    "47.5";
    object      QWallFluid;
}
// * * * * * * * * * * * * * * * * * * * * * * * * * * * * * * * * * * * * * //

dimensions      [1 -1 -3 0 0 0 0];

internalField   nonuniform List<scalar> 
87
(
1.61218e+09
2.25168e+09
1.63893e+09
2.36234e+09
1.62139e+09
2.56383e+09
1.48985e+09
3.03226e+09
1.08315e+09
7.16907e+08
1.0813e+09
7.26089e+08
1.13122e+09
7.06952e+08
1.21259e+09
6.32233e+08
1.37353e+09
5.37719e+08
6.12768e+08
9.95107e+08
6.01053e+08
1.02045e+09
5.75721e+08
1.0791e+09
5.40032e+08
1.22515e+09
5.04048e+08
5.51212e+08
9.61145e+08
5.47965e+08
9.81019e+08
5.17968e+08
1.00555e+09
4.37631e+08
1.03666e+09
3.04714e+08
0
0
0
0
0
0
0
0
0
0
0
0
0
0
0
0
0
0
5.1652e+08
9.43454e+08
4.9808e+08
9.66654e+08
4.58689e+08
1.00068e+09
3.9789e+08
1.04226e+09
3.71504e+08
0
0
0
0
0
0
0
0
0
0
0
0
0
0
0
0
0
0
3.89146e+08
8.42466e+08
2.86655e+08
0
0
0
)
;

boundaryField
{
    inlet
    {
        type            calculated;
        value           nonuniform 0();
    }
    outlet
    {
        type            calculated;
        value           uniform 0;
    }
    wall
    {
        type            calculated;
        value           uniform 0;
    }
    procBoundary1to0
    {
        type            processor;
        value           nonuniform List<scalar> 
12
(
2.18225e+09
1.03719e+09
9.70912e+08
9.39605e+08
0
0
9.2017e+08
0
0
8.60867e+08
0
0
)
;
    }
    procBoundary1to3
    {
        type            processor;
        value           nonuniform List<scalar> 
27
(
6.60036e+08
1.04594e+09
6.7541e+08
1.09966e+09
6.60251e+08
1.16259e+09
5.76134e+08
1.2485e+09
4.90623e+08
0
0
0
0
0
0
0
0
0
0
0
0
0
0
0
0
0
0
)
;
    }
    procBoundary1to5
    {
        type            processor;
        value           nonuniform List<scalar> 
32
(
7.90993e+08
1.23622e+08
6.99109e+08
5048.12
5.27722e+08
7.33792e+07
0
0
0
0
0
0
0
0
0
0
0
0
0
0
0
4.5378e+08
8.97031e+08
7.90993e+08
0
4.41082e+08
0
0
0
0
0
0
)
;
    }
    procBoundary1to7
    {
        type            processor;
        value           uniform 0;
    }
}


// ************************************************************************* //
