/*--------------------------------*- C++ -*----------------------------------*\
| =========                 |                                                 |
| \\      /  F ield         | OpenFOAM: The Open Source CFD Toolbox           |
|  \\    /   O peration     | Version:  4.x                                   |
|   \\  /    A nd           | Web:      www.OpenFOAM.org                      |
|    \\/     M anipulation  |                                                 |
\*---------------------------------------------------------------------------*/
FoamFile
{
    version     2.0;
    format      ascii;
    class       volVectorField;
    location    "47.5";
    object      Us;
}
// * * * * * * * * * * * * * * * * * * * * * * * * * * * * * * * * * * * * * //

dimensions      [0 1 -1 0 0 0 0];

internalField   nonuniform List<vector> 
87
(
(9.7163e-09 7.18514e-09 2.56649e-08)
(-4.13293e-08 1.05246e-06 1.02116e-07)
(-1.17219e-08 1.14718e-09 1.66047e-08)
(-6.38458e-09 -6.49272e-10 1.67902e-09)
(-2.4923e-09 1.64426e-10 5.16925e-11)
(-7.04886e-11 -1.08373e-09 -9.63149e-10)
(3.25805e-09 -1.8688e-09 -2.20128e-09)
(2.28669e-07 3.23058e-09 -1.49775e-08)
(1.17921e-07 -8.22539e-09 -2.33442e-08)
(3.42949e-09 -5.10512e-09 1.1462e-08)
(1.97937e-09 -8.67791e-09 2.18802e-08)
(-1.23156e-08 -7.18437e-09 7.80133e-09)
(-2.34405e-09 -2.2608e-09 8.24039e-10)
(7.01648e-10 -3.59452e-09 1.05684e-10)
(1.1085e-09 -4.81152e-10 -1.60184e-09)
(1.576e-09 -1.87424e-09 -3.70959e-09)
(3.60631e-10 -5.63251e-09 -5.38711e-09)
(-3.54297e-09 -1.46975e-08 -1.17846e-08)
(4.09081e-09 -6.49543e-09 4.6369e-09)
(2.22853e-09 -9.76643e-09 7.5337e-09)
(2.50382e-09 -5.88608e-09 4.15242e-09)
(7.99243e-10 -1.77559e-09 1.17335e-09)
(1.18913e-09 -1.51087e-09 -8.95405e-11)
(1.79878e-09 -7.56552e-10 -7.69571e-10)
(2.55585e-09 -8.44782e-10 -2.00002e-09)
(1.68221e-09 -3.6732e-09 -5.37064e-09)
(3.19281e-09 -8.49263e-10 -3.22155e-09)
(-5.74061e-09 4.80905e-09 1.74314e-08)
(6.19712e-10 3.08226e-09 4.03009e-08)
(2.75611e-09 1.69246e-09 1.48688e-08)
(2.16323e-09 -1.21906e-09 9.86482e-10)
(5.77757e-10 9.91002e-11 5.10497e-10)
(5.31079e-10 -1.34898e-10 -6.16637e-10)
(1.45681e-09 -5.67986e-10 -1.62019e-09)
(1.00976e-09 -1.69374e-09 -3.64386e-09)
(-1.40919e-10 -3.14521e-09 -7.51443e-09)
(-3.18134e-09 7.54051e-10 1.21743e-08)
(-1.18767e-09 -3.10891e-09 1.99828e-08)
(3.40412e-09 1.38418e-09 1.01955e-08)
(7.41677e-10 -1.95229e-09 1.48845e-09)
(8.21669e-10 -1.19725e-09 -7.95414e-11)
(1.11037e-09 -6.66914e-10 -1.2768e-09)
(1.69499e-09 -1.16638e-09 -2.82073e-09)
(1.58334e-09 -1.90813e-09 -3.83941e-09)
(4.65351e-09 -3.89868e-09 -7.98916e-09)
(1.65349e-09 -1.40713e-09 3.87111e-09)
(2.45219e-09 -1.77148e-09 6.7673e-09)
(2.71719e-09 -1.40481e-09 3.47923e-09)
(1.30693e-09 -1.917e-09 1.55692e-09)
(1.80525e-09 -1.6628e-09 -3.29616e-10)
(2.13613e-09 -1.06924e-09 -1.08349e-09)
(2.94408e-09 -6.09321e-10 -2.63888e-09)
(3.33932e-09 -1.01528e-09 -2.41419e-09)
(1.18964e-09 -2.26898e-09 -4.33313e-09)
(-1.08794e-09 1.94075e-10 3.44543e-09)
(2.00695e-10 1.66326e-09 5.03925e-09)
(3.84634e-10 1.47357e-09 6.77004e-09)
(1.88224e-09 -3.48719e-10 1.19991e-09)
(1.33587e-09 -1.57071e-10 3.37011e-10)
(9.27606e-10 -2.21792e-10 -5.85459e-10)
(8.84913e-10 -6.49082e-11 -7.38058e-10)
(-4.46606e-10 -5.90065e-10 -3.16136e-10)
(-1.31287e-10 -5.18429e-10 -2.77329e-09)
(-9.98791e-10 9.39087e-10 4.9934e-09)
(1.91244e-09 5.03866e-10 6.52763e-09)
(2.6669e-09 4.57643e-10 7.70328e-09)
(1.64046e-09 -7.08447e-10 2.15131e-09)
(1.75198e-09 -4.60128e-10 1.45556e-10)
(1.40594e-09 5.49043e-11 -9.33324e-10)
(1.43941e-09 -2.1506e-10 -1.73586e-09)
(7.75813e-10 -1.14762e-09 -2.21706e-09)
(-8.2734e-11 -1.01845e-09 -1.56409e-09)
(1.35669e-09 5.67594e-10 3.30247e-09)
(2.44763e-09 1.1438e-09 4.36791e-09)
(3.09811e-09 1.23867e-09 4.99864e-09)
(2.84193e-09 2.42085e-11 1.73719e-09)
(2.52601e-09 -3.94582e-10 -4.63e-11)
(2.42215e-09 -3.28458e-10 -9.95995e-10)
(2.26043e-09 -2.07902e-10 -1.93579e-09)
(1.73943e-09 -3.25726e-10 -1.97592e-09)
(1.1027e-09 -1.17694e-09 -1.30227e-09)
(-1.6132e-11 2.50732e-10 2.17684e-09)
(8.55985e-10 9.53037e-10 7.00824e-10)
(1.04286e-09 6.07676e-10 1.68664e-09)
(7.15101e-11 6.30983e-10 2.37527e-09)
(1.66101e-09 1.02359e-09 3.76208e-09)
(1.25631e-09 4.56531e-10 2.02869e-09)
)
;

boundaryField
{
    inlet
    {
        type            zeroGradient;
    }
    outlet
    {
        type            zeroGradient;
    }
    wall
    {
        type            zeroGradient;
    }
    procBoundary1to0
    {
        type            processor;
        value           nonuniform List<vector> 
12
(
(-3.10198e-10 9.44592e-11 4.4244e-10)
(2.78734e-09 -2.26145e-09 3.86736e-09)
(1.99765e-09 -1.93512e-09 2.30008e-09)
(-1.74972e-09 -1.28656e-09 3.17867e-09)
(-7.66054e-10 4.26527e-10 4.65847e-09)
(1.01869e-09 -3.0376e-10 2.88026e-09)
(-1.68612e-09 -6.37266e-10 4.13711e-09)
(-2.2107e-09 1.85411e-09 4.68509e-09)
(-5.42011e-10 1.93183e-09 3.1643e-09)
(-3.1016e-10 -2.33151e-10 2.86917e-09)
(-5.59251e-10 5.42008e-10 1.94924e-09)
(2.46891e-10 9.78174e-10 2.13317e-09)
)
;
    }
    procBoundary1to3
    {
        type            processor;
        value           nonuniform List<vector> 
27
(
(2.59954e-09 -3.54889e-09 1.48165e-09)
(3.4303e-09 -5.44627e-09 1.88866e-09)
(4.52074e-09 -8.06314e-09 3.61241e-10)
(2.67366e-09 -2.73978e-09 1.95215e-10)
(1.78402e-09 -1.44562e-09 -4.31361e-10)
(2.03908e-09 -6.78426e-10 -8.00805e-10)
(1.42116e-09 -7.48044e-10 -1.05769e-09)
(-2.28151e-09 6.15353e-10 -1.26797e-09)
(-1.89445e-08 -8.81922e-10 -4.85644e-10)
(2.71086e-09 -2.3349e-09 1.22545e-09)
(2.90813e-09 -1.45437e-09 1.27131e-09)
(2.74223e-09 -1.75697e-09 9.08743e-10)
(2.78022e-09 -1.30268e-09 2.62157e-10)
(2.7885e-09 -1.13938e-09 -4.87054e-10)
(2.37208e-09 -8.15556e-10 -1.09844e-09)
(2.17517e-09 -3.12318e-10 -2.10857e-09)
(1.5751e-09 3.09224e-10 -1.28215e-09)
(-2.33708e-09 -8.8002e-10 -6.63709e-10)
(2.65128e-09 -5.31358e-10 1.21958e-09)
(2.8571e-09 -3.91235e-10 1.54389e-09)
(2.96159e-09 6.06855e-10 2.08546e-09)
(3.22653e-09 -6.92731e-10 5.50974e-10)
(3.18505e-09 -8.61155e-10 -2.87371e-10)
(2.90662e-09 -3.36007e-10 -1.26413e-09)
(2.4704e-09 -2.71185e-10 -1.98368e-09)
(1.986e-09 -2.07562e-10 -1.75107e-09)
(1.32277e-09 -2.77694e-10 -1.03314e-09)
)
;
    }
    procBoundary1to5
    {
        type            processor;
        value           nonuniform List<vector> 
32
(
(1.66806e-09 -2.12966e-10 1.19638e-09)
(1.34264e-09 -1.87179e-10 1.34838e-10)
(1.34701e-09 -1.14391e-10 -4.56039e-10)
(1.06714e-09 -3.55844e-11 -6.44768e-10)
(9.71926e-10 -7.62981e-10 -7.67781e-10)
(-3.40998e-09 -4.00233e-10 -6.53161e-10)
(3.25243e-09 8.91847e-10 4.67957e-09)
(2.85843e-09 -6.89876e-11 1.83372e-09)
(2.42008e-09 -3.2894e-10 1.46547e-10)
(1.83461e-09 -5.50788e-11 -6.52739e-10)
(1.39086e-09 1.46615e-10 -1.37474e-09)
(5.93676e-10 -8.84457e-10 -1.48961e-09)
(-1.11033e-10 -4.90727e-10 -1.13753e-09)
(2.47901e-09 4.44032e-10 2.83793e-09)
(3.23373e-09 9.17387e-10 2.53141e-09)
(3.37176e-09 4.51648e-10 1.11092e-09)
(2.7884e-09 1.18549e-10 1.18062e-10)
(2.18363e-09 2.69369e-11 -5.88473e-10)
(1.53728e-09 1.93216e-10 -1.15373e-09)
(1.11889e-09 -2.47879e-10 -1.67576e-09)
(3.73706e-10 -1.49701e-10 -8.09143e-10)
(1.75792e-10 3.00208e-10 4.81556e-10)
(9.3118e-10 3.76851e-10 6.78226e-10)
(1.66806e-09 -2.12966e-10 1.19638e-09)
(3.25243e-09 8.91847e-10 4.67957e-09)
(1.21761e-09 5.31073e-11 9.67857e-10)
(1.28772e-09 4.82856e-10 9.54245e-10)
(3.25243e-09 8.91847e-10 4.67957e-09)
(2.47901e-09 4.44032e-10 2.83793e-09)
(2.57597e-09 6.85514e-10 9.09107e-10)
(2.47901e-09 4.44032e-10 2.83793e-09)
(1.57633e-09 4.86936e-10 1.46155e-09)
)
;
    }
    procBoundary1to7
    {
        type            processor;
        value           uniform (2.60133e-09 1.20303e-10 1.38881e-09);
    }
}


// ************************************************************************* //
