/*--------------------------------*- C++ -*----------------------------------*\
  =========                 |
  \\      /  F ield         | OpenFOAM: The Open Source CFD Toolbox
   \\    /   O peration     | Website:  https://openfoam.org
    \\  /    A nd           | Version:  4.x
     \\/     M anipulation  |
\*---------------------------------------------------------------------------*/
FoamFile
{
    version     2.0;
    format      ascii;
    class       vectorField;
    location    0;
    object      v;
}
// * * * * * * * * * * * * * * * * * * * * * * * * * * * * * * * * * * * * * //

407
(
( -1.40568e-08 -1.32417e-09 1.14037e-08 )  
( -1.73013e-08 -2.96158e-09 6.7491e-09 )  
( -9.57749e-09 -4.96877e-09 6.37448e-10 )  
( -1.62757e-08 -3.91156e-09 5.52736e-09 )  
( -9.23725e-09 -5.94943e-10 1.51099e-09 )  
( -1.7601e-08 -4.58342e-09 1.07128e-08 )  
( -1.63132e-08 -1.2748e-10 1.19359e-08 )  
( -1.88054e-08 -4.02109e-10 8.43481e-09 )  
( -1.4088e-08 3.92782e-10 -1.91274e-08 )  
( -1.64315e-08 1.96152e-09 -2.44688e-09 )  
( -1.4655e-08 -4.239e-10 -1.62221e-08 )  
( -1.26641e-08 1.81551e-09 -5.17999e-09 )  
( -1.6116e-08 -3.62338e-10 -1.32676e-08 )  
( -1.6894e-08 1.16378e-09 -9.3627e-09 )  
( -1.42943e-08 1.23667e-09 -8.57217e-09 )  
( -1.871e-08 1.65643e-09 1.22039e-08 )  
( -1.079e-08 1.62717e-09 -1.40954e-08 )  
( -1.69265e-08 -6.77794e-10 1.21639e-08 )  
( -7.9489e-09 -1.82011e-09 -1.22946e-08 )  
( -1.70204e-08 2.87878e-09 3.81653e-10 )  
( -7.9482e-09 1.00372e-09 -1.36071e-08 )  
( -1.82263e-08 5.94603e-10 2.14483e-09 )  
( -1.1501e-08 1.21653e-09 -6.86134e-09 )  
( -1.89671e-08 1.55524e-09 1.61524e-08 )  
( -1.23528e-08 7.64919e-10 -1.01735e-08 )  
( -1.35526e-08 1.70118e-09 -1.32899e-08 )  
( -1.78162e-08 6.96128e-10 -2.79509e-09 )  
( -1.47148e-08 -3.54841e-09 4.62703e-09 )  
( -1.15947e-08 -3.82616e-09 3.5361e-10 )  
( -3.54024e-11 2.87766e-09 -9.16877e-09 )  
( -1.68576e-08 -3.03933e-09 5.03276e-09 )  
( -1.74102e-09 2.9096e-09 -1.81397e-08 )  
( -6.94782e-09 -1.43741e-09 -8.32741e-09 )  
( -1.24754e-08 -3.49001e-10 -3.98322e-09 )  
( -2.01716e-08 -2.52581e-10 1.51782e-08 )  
( -1.79752e-08 2.8591e-10 4.0714e-09 )  
( -1.91231e-08 -7.57591e-10 1.26859e-08 )  
( -9.29221e-09 -9.0454e-10 -7.28425e-09 )  
( -2.26854e-08 -3.10634e-10 1.58786e-08 )  
( -1.58045e-08 1.27653e-09 -2.50301e-09 )  
( -9.11202e-09 -2.03693e-09 -4.26971e-09 )  
( -7.12602e-09 2.94572e-09 -1.55181e-08 )  
( -7.53591e-09 4.18999e-09 -1.61668e-08 )  
( -6.0406e-09 5.04611e-10 -1.59864e-08 )  
( -1.41624e-08 1.65225e-09 -7.50378e-10 )  
( -7.07878e-09 -1.19186e-09 -8.59249e-09 )  
( -1.681e-08 -1.09654e-09 8.85575e-09 )  
( -2.25234e-08 -3.27806e-09 8.98227e-09 )  
( -1.64113e-08 -3.56116e-09 8.03199e-09 )  
( -1.09334e-08 -3.75381e-10 7.56071e-10 )  
( -5.42143e-10 2.66447e-09 -1.19643e-08 )  
( -2.05886e-08 -1.68848e-09 1.09899e-08 )  
( -1.42732e-08 -1.42664e-09 1.86177e-09 )  
( -1.73542e-08 -2.51494e-09 -1.45906e-10 )  
( -4.52558e-09 2.49322e-09 -1.58734e-08 )  
( -7.77567e-09 -2.36052e-09 2.18173e-09 )  
( -2.2174e-08 -4.60047e-09 9.40974e-09 )  
( -9.85806e-09 -5.28368e-10 -6.2341e-09 )  
( -1.93263e-08 -1.45513e-09 1.30305e-08 )  
( -1.68648e-08 -2.14779e-09 4.13195e-09 )  
( -5.98997e-09 1.34595e-09 -9.87519e-09 )  
( -1.91124e-08 -1.67137e-09 1.22433e-08 )  
( -1.05725e-08 8.24406e-10 -3.68308e-09 )  
( -1.67677e-08 -3.03306e-09 3.50604e-09 )  
( -3.11793e-09 -2.7142e-09 -1.36852e-08 )  
( -2.27051e-09 2.44303e-09 -2.02804e-08 )  
( -1.83504e-08 4.77271e-10 1.57411e-09 )  
( -3.69898e-09 -6.84658e-10 -3.35031e-09 )  
( -1.66709e-10 -1.51624e-09 -3.35965e-09 )  
( -1.72726e-08 -3.12987e-09 8.91748e-09 )  
( -2.01538e-08 1.9925e-10 1.31765e-08 )  
( -3.72004e-09 2.84887e-10 -1.21862e-08 )  
( -1.13362e-08 -5.40036e-09 1.71938e-09 )  
( -4.24398e-09 -1.81442e-09 -2.77132e-09 )  
( -2.92394e-09 -5.42093e-09 -2.89915e-08 )  
( -1.25161e-08 4.14117e-10 -4.65701e-09 )  
( -1.45779e-08 -4.96355e-09 3.78746e-09 )  
( -1.74569e-08 1.02752e-09 -1.16367e-09 )  
( -6.96851e-09 2.42813e-09 -1.27181e-08 )  
( -1.64498e-08 -1.29798e-09 9.24733e-09 )  
( -1.78076e-08 -5.84437e-10 6.85434e-09 )  
( -1.005e-08 5.78971e-10 -5.03235e-09 )  
( -3.47051e-09 1.88369e-09 -1.38463e-08 )  
( -1.42103e-08 -1.10047e-09 2.66564e-09 )  
( -1.66214e-08 -8.19333e-10 1.23219e-08 )  
( -1.02992e-08 -3.20111e-10 -2.89522e-10 )  
( -9.72105e-09 5.39196e-11 -9.72123e-09 )  
( -9.43338e-09 8.14346e-10 -1.02705e-08 )  
( -1.64921e-08 -2.42414e-09 3.41369e-09 )  
( -6.40596e-09 -1.69396e-10 3.03269e-09 )  
( -3.70816e-09 -1.91015e-09 -1.66975e-08 )  
( -9.13529e-09 4.38629e-09 -2.4486e-08 )  
( -1.58609e-08 -6.26963e-10 8.8699e-09 )  
( -2.22495e-08 -4.03822e-10 1.20752e-08 )  
( -7.33539e-09 9.50648e-10 -9.13878e-09 )  
( -1.07364e-08 4.56149e-10 1.03838e-09 )  
( -5.83203e-09 -2.66372e-09 -8.50703e-09 )  
( -1.81098e-08 -6.5672e-10 3.47648e-09 )  
( -1.334e-08 -3.56963e-09 -1.8496e-09 )  
( -8.66385e-09 -2.09502e-09 -7.54206e-09 )  
( -3.64808e-09 1.78805e-09 -3.15303e-08 )  
( -4.03935e-10 -1.03704e-09 -7.4782e-09 )  
( -9.10736e-09 -1.67849e-09 -8.54501e-09 )  
( -4.35828e-09 4.4028e-10 -1.15516e-08 )  
( -1.9517e-09 1.81099e-09 -1.03682e-08 )  
( -8.59797e-09 1.04302e-09 -2.88812e-09 )  
( -5.38932e-09 6.67798e-10 -6.94508e-09 )  
( -1.28878e-08 -4.97886e-09 1.81152e-09 )  
( -5.38911e-09 1.75491e-10 -2.68668e-08 )  
( -1.18031e-08 -1.03187e-10 -2.66951e-09 )  
( -1.41497e-08 9.48885e-10 -4.5155e-09 )  
( -1.22806e-08 -7.0092e-09 3.11516e-09 )  
( -1.57377e-08 -1.38457e-09 1.12484e-08 )  
( -1.73623e-08 -3.44904e-09 8.27831e-09 )  
( -1.15391e-08 -1.45285e-09 -3.48197e-10 )  
( -1.38933e-08 -1.51119e-09 -2.34612e-09 )  
( -1.37126e-08 -1.33928e-10 -2.62522e-09 )  
( -4.8997e-09 -1.58201e-09 -1.57927e-08 )  
( -1.56477e-08 -2.0412e-09 5.00887e-09 )  
( -1.50918e-08 -6.87574e-10 5.87053e-09 )  
( -1.71037e-08 5.26305e-10 6.0347e-09 )  
( -1.74612e-08 -4.71145e-09 6.79025e-09 )  
( -1.88271e-08 -1.84077e-09 9.76054e-09 )  
( -1.1689e-08 6.73811e-11 2.39538e-09 )  
( -7.53251e-09 -1.94175e-09 -7.45631e-09 )  
( -2.02254e-09 -1.5556e-09 -6.02256e-09 )  
( -2.12491e-08 -3.52766e-09 6.49132e-09 )  
( -2.58879e-09 -6.2086e-09 -3.02005e-08 )  
( -1.73994e-08 1.29929e-09 -8.99602e-09 )  
( -1.03738e-08 4.35607e-09 -2.01917e-08 )  
( -1.03146e-08 -4.88301e-09 -8.44803e-09 )  
( -3.05262e-09 -1.77909e-09 -4.98073e-09 )  
( -1.77543e-08 -2.98084e-09 9.50765e-09 )  
( -6.96434e-09 -1.17467e-09 -5.95324e-10 )  
( -4.03738e-09 -2.14459e-09 -1.56037e-08 )  
( -6.40447e-09 -6.08526e-10 2.64685e-10 )  
( 2.155e-07 9.68503e-08 -6.79392e-09 )  
( -5.19295e-09 -1.98086e-09 -9.46204e-09 )  
( -1.26949e-08 -1.16363e-09 3.29715e-09 )  
( -1.30141e-08 -6.85307e-10 1.24638e-09 )  
( -2.06001e-08 -5.0442e-10 1.3716e-08 )  
( -9.24666e-09 2.02936e-10 -5.13694e-09 )  
( -1.16524e-08 -3.6946e-09 3.02853e-09 )  
( -1.71496e-08 -4.62755e-09 1.254e-09 )  
( 3.42089e-09 2.25218e-10 -5.48201e-09 )  
( -1.79079e-09 -2.13849e-09 -8.90208e-09 )  
( -8.60655e-09 9.23777e-10 -1.88881e-08 )  
( -1.9617e-08 -6.38505e-10 1.58634e-08 )  
( -8.75513e-09 4.37851e-09 -1.29916e-08 )  
( -1.72893e-08 -1.96324e-09 1.2466e-08 )  
( -9.1358e-09 -5.35828e-09 -5.87739e-09 )  
( -5.97541e-09 2.54984e-09 -2.74519e-08 )  
( -2.99216e-09 -1.28645e-09 -7.50886e-09 )  
( -1.35642e-08 -3.82824e-09 4.22599e-09 )  
( -1.4751e-08 -4.38676e-09 3.40667e-09 )  
( -7.851e-09 7.90664e-10 9.61242e-10 )  
( -1.23351e-08 -1.82593e-09 2.20317e-09 )  
( -2.1302e-08 -2.07112e-10 1.58794e-08 )  
( -3.03834e-09 -3.95107e-09 -1.18498e-08 )  
( -7.95043e-09 -2.5483e-09 -2.6887e-09 )  
( -1.16154e-08 -2.73674e-09 1.58009e-09 )  
( 1.02221e-09 -2.08804e-09 -3.7721e-09 )  
( -1.71812e-08 -3.49696e-09 1.43798e-08 )  
( -1.53597e-08 5.15048e-10 1.30228e-08 )  
( -1.55487e-08 -2.65127e-09 6.19338e-10 )  
( -1.93456e-08 2.12841e-10 3.29399e-09 )  
( -1.96926e-08 7.42664e-10 7.20979e-09 )  
( -1.47173e-08 -2.71345e-10 1.20539e-09 )  
( 8.79947e-10 8.20071e-10 -6.62624e-09 )  
( -1.47787e-08 -3.90024e-09 6.69009e-09 )  
( -1.83426e-09 -1.47085e-09 -6.90737e-09 )  
( -1.68694e-08 -2.0867e-09 7.68945e-09 )  
( -6.60392e-09 -3.49544e-10 -9.27807e-09 )  
( -1.4302e-08 -2.58833e-09 7.41763e-09 )  
( -1.48243e-08 -1.11346e-09 -8.09644e-09 )  
( -1.76072e-08 -2.63149e-09 6.16754e-09 )  
( -1.21642e-08 1.68245e-09 5.08568e-09 )  
( -1.21946e-08 -2.11863e-09 4.48554e-09 )  
( 1.41483e-09 -2.04951e-10 -3.1917e-09 )  
( -1.375e-08 -4.92336e-09 2.93215e-09 )  
( -1.00901e-08 -7.47248e-10 5.07704e-10 )  
( -1.39309e-08 -5.11261e-09 -3.4877e-09 )  
( -1.25874e-08 7.34626e-10 1.00841e-10 )  
( -1.82915e-09 -2.41047e-09 -2.15867e-09 )  
( -4.2839e-09 -7.35706e-10 -2.87398e-09 )  
( -1.10731e-08 -2.78406e-09 -3.27453e-09 )  
( -1.35669e-08 -3.87488e-09 -9.08378e-10 )  
( -1.71673e-08 -2.79829e-09 2.35467e-09 )  
( -6.23933e-09 -3.57663e-09 9.23956e-10 )  
( -2.18846e-10 -3.10516e-09 -5.54525e-09 )  
( -1.39669e-08 -3.82944e-09 4.73335e-09 )  
( -1.23256e-09 -2.23064e-09 -7.74854e-10 )  
( -7.31414e-09 -3.58082e-09 -2.09443e-09 )  
( 7.83615e-10 -6.78829e-10 -9.87606e-10 )  
( -3.95437e-09 -1.83409e-09 -6.33026e-09 )  
( -9.89859e-09 -4.09622e-09 -2.81704e-10 )  
( -1.16462e-08 -3.6965e-09 -4.95622e-09 )  
( -1.2234e-08 -8.8387e-10 -5.73441e-09 )  
( -1.1856e-08 -3.66825e-09 -1.20219e-10 )  
( -1.93223e-08 -2.39144e-09 -6.23791e-09 )  
( -1.22257e-08 -1.87221e-09 6.14895e-09 )  
( -1.25591e-08 -2.71557e-09 3.0506e-09 )  
( -6.3133e-09 -3.86559e-09 -2.78916e-09 )  
( -1.07869e-08 -6.20801e-09 4.58733e-09 )  
( -2.3727e-09 -1.06598e-09 -1.96586e-09 )  
( -6.88647e-10 -6.07542e-10 1.49941e-09 )  
( -1.4237e-08 -7.83403e-12 5.12531e-10 )  
( -7.80199e-09 -3.67192e-09 -1.13946e-09 )  
( -1.08565e-08 -1.5216e-09 3.97552e-09 )  
( -6.99953e-09 -3.64246e-09 -4.79948e-09 )  
( -1.4106e-08 -2.05087e-09 -1.34537e-09 )  
( -1.69469e-09 -3.90157e-09 7.70435e-10 )  
( -1.17825e-08 -1.37081e-09 -2.36528e-11 )  
( -1.07714e-08 -2.91168e-09 6.33925e-09 )  
( -1.73557e-08 -4.38382e-09 2.14088e-09 )  
( -1.02134e-08 -2.00146e-09 3.34785e-09 )  
( -7.2271e-09 -2.93726e-09 -9.78372e-09 )  
( -1.35596e-08 -3.87045e-09 1.12067e-09 )  
( 1.03633e-09 -2.69904e-09 -3.69955e-09 )  
( -7.16337e-09 4.96206e-10 -1.37253e-09 )  
( -9.66856e-10 -1.98053e-09 -3.662e-09 )  
( -1.18189e-08 -4.36205e-09 3.97805e-09 )  
( -1.78524e-08 -1.09178e-08 -5.14691e-09 )  
( 7.57534e-10 2.97694e-10 1.62943e-09 )  
( -1.52586e-08 -5.53262e-09 -5.5826e-09 )  
( -4.45994e-09 -1.19443e-09 -8.36143e-09 )  
( -1.86906e-08 -3.46054e-09 -1.26559e-08 )  
( -9.18238e-09 -1.74786e-09 -7.30094e-09 )  
( -1.24171e-08 -4.92959e-09 -3.68976e-09 )  
( -7.59997e-09 -1.76129e-09 -1.68708e-09 )  
( -1.64833e-09 -1.68142e-10 -5.91282e-09 )  
( -6.36455e-09 4.88614e-10 -1.04531e-08 )  
( -9.82859e-09 -6.3463e-10 4.75633e-10 )  
( -1.66194e-08 -2.36855e-09 -6.09411e-09 )  
( -1.2771e-08 -1.58957e-09 7.70946e-09 )  
( -6.9598e-09 -9.80576e-10 1.76471e-09 )  
( -5.69186e-09 -1.42888e-09 5.92346e-09 )  
( -1.41396e-08 -3.47216e-09 6.59413e-09 )  
( -1.16039e-09 -1.46413e-10 -6.34069e-09 )  
( -9.88186e-09 1.96789e-10 -1.15103e-08 )  
( -1.53605e-08 -4.74098e-09 2.41345e-09 )  
( -3.50965e-09 -2.38596e-09 -2.56125e-09 )  
( -1.38231e-08 9.98403e-10 2.95886e-09 )  
( -1.17597e-08 -5.26485e-09 -4.05316e-09 )  
( -1.69941e-08 -3.26301e-10 5.70564e-09 )  
( -5.69903e-09 -2.89793e-09 1.44395e-09 )  
( -7.91154e-09 -5.68519e-10 7.86918e-10 )  
( 7.79427e-10 -1.39821e-09 4.22793e-10 )  
( 6.76796e-10 -7.11299e-10 -2.55324e-09 )  
( -2.76944e-09 -5.65827e-10 -7.03282e-09 )  
( -4.16656e-09 -2.6837e-09 -2.08395e-09 )  
( -8.52377e-09 -6.06057e-09 -1.57251e-09 )  
( -5.44255e-09 -7.24433e-10 -1.86588e-09 )  
( -1.10591e-08 2.46665e-09 -1.49548e-09 )  
( -1.04308e-08 -3.00345e-09 -5.94243e-09 )  
( -4.4311e-09 -4.50183e-09 -2.98718e-09 )  
( -9.16629e-09 -6.56435e-12 -5.65236e-09 )  
( -9.72941e-09 -3.77429e-09 -1.50801e-09 )  
( -1.05139e-08 -5.22938e-09 -3.91234e-09 )  
( -1.59734e-08 -9.93828e-10 -1.59654e-09 )  
( -1.33769e-08 -1.62752e-09 1.02031e-08 )  
( -1.37397e-08 -2.12427e-09 7.36523e-09 )  
( -1.27831e-08 -3.4057e-09 -2.06184e-09 )  
( -8.66916e-09 4.2968e-10 4.4028e-10 )  
( -1.24218e-08 -2.88326e-09 -1.54367e-09 )  
( -3.63018e-11 -2.4635e-09 -3.6515e-09 )  
( -1.61577e-08 -1.3732e-09 1.15532e-09 )  
( -1.55616e-09 -3.29179e-09 -5.30032e-09 )  
( -1.19388e-08 -3.43807e-09 3.5056e-09 )  
( -6.73985e-09 -8.69754e-11 -9.25206e-09 )  
( -1.26684e-08 -1.19308e-09 4.59905e-10 )  
( 9.02185e-10 -2.05517e-09 -5.06066e-09 )  
( -5.98287e-09 -6.52642e-11 2.08177e-09 )  
( -8.04947e-09 -5.59311e-09 3.27656e-09 )  
( -1.21377e-08 -5.63554e-09 3.1261e-09 )  
( -2.13729e-08 -2.56572e-09 7.26517e-10 )  
( -1.77235e-08 -1.47884e-09 -8.77156e-09 )  
( -5.53928e-09 3.75693e-10 -7.4901e-09 )  
( -4.43569e-09 -2.14617e-09 -5.08883e-09 )  
( -1.28153e-08 -5.75004e-09 -7.56417e-09 )  
( 2.44086e-09 1.55741e-09 -4.91142e-09 )  
( -6.12831e-09 -1.59102e-09 -6.13151e-09 )  
( -8.28068e-09 -4.03355e-09 -5.90651e-11 )  
( -1.49711e-08 -6.74082e-09 -6.91669e-09 )  
( -9.95518e-09 -2.15788e-09 1.81007e-09 )  
( -1.17374e-08 -2.23438e-09 -4.83902e-09 )  
( -1.11313e-09 -5.40591e-10 -9.77909e-09 )  
( -6.13451e-09 -1.92448e-10 -2.69438e-09 )  
( -1.21047e-08 -4.85675e-09 -7.94152e-10 )  
( -1.29367e-08 -4.63055e-09 6.14808e-09 )  
( -2.06873e-09 -2.88972e-09 -1.08656e-08 )  
( -1.3204e-08 -1.27776e-09 -1.41339e-10 )  
( -5.79847e-09 -1.62806e-09 -2.53126e-09 )  
( 2.79487e-10 -1.15002e-09 -2.7778e-09 )  
( -8.13083e-09 -3.36157e-09 7.5658e-10 )  
( -1.37399e-08 -5.60177e-09 -1.35495e-08 )  
( -6.40197e-09 -1.03415e-09 -2.99432e-09 )  
( -9.86154e-09 -3.35325e-09 -6.00961e-09 )  
( -1.59297e-08 -7.09798e-09 2.29411e-12 )  
( -7.37182e-09 -1.25077e-09 -2.32424e-09 )  
( -1.09531e-08 -2.05977e-09 -2.89217e-09 )  
( -9.77228e-09 -2.59386e-09 -6.02829e-09 )  
( -1.17016e-08 -1.42428e-11 7.3639e-09 )  
( 5.8667e-09 -2.31451e-09 1.04247e-09 )  
( -6.59091e-09 -3.30572e-09 7.08561e-10 )  
( -1.18072e-08 -7.05277e-09 2.812e-09 )  
( -6.74547e-09 -2.04813e-09 -3.80545e-09 )  
( -4.69444e-09 -4.35274e-09 1.73786e-09 )  
( -6.99118e-09 -1.52661e-09 -7.92004e-10 )  
( -3.40567e-09 -3.18261e-09 -4.63015e-10 )  
( -9.80981e-09 -1.32709e-09 -4.88802e-09 )  
( -6.3733e-09 -2.347e-09 3.13844e-09 )  
( 1.18157e-09 3.39897e-09 -7.05278e-09 )  
( -3.08499e-09 -1.25099e-09 -8.21142e-09 )  
( -1.42019e-08 -2.5808e-09 7.60791e-09 )  
( -1.55216e-08 -3.86138e-09 2.38976e-09 )  
( -4.70251e-09 -2.08059e-09 1.06378e-09 )  
( -4.28511e-09 -2.04992e-09 -6.02806e-10 )  
( -6.74886e-09 -4.89733e-09 -3.59216e-09 )  
( -9.9197e-09 -5.02675e-09 4.06943e-09 )  
( 3.32837e-09 -2.32222e-09 -1.50805e-09 )  
( -6.77211e-09 -2.81724e-09 -4.65721e-10 )  
( -8.42725e-09 -1.42943e-09 -3.34574e-09 )  
( -1.19539e-08 -1.99677e-09 7.47723e-09 )  
( -8.53021e-09 2.0079e-09 3.85679e-10 )  
( -1.06231e-08 -1.17517e-09 9.28241e-10 )  
( -1.36156e-08 -1.69724e-09 8.22345e-09 )  
( 6.40258e-10 -2.19336e-10 -9.70884e-10 )  
( -7.42367e-09 -3.21731e-09 -9.04018e-11 )  
( -4.36753e-09 -4.37539e-09 5.09699e-09 )  
( -5.64759e-09 -3.07135e-09 4.19619e-09 )  
( -6.85329e-09 -4.72434e-09 7.27823e-10 )  
( -2.79854e-09 -3.00822e-09 -9.27633e-10 )  
( 1.31642e-09 -1.41306e-09 1.52687e-09 )  
( -7.12605e-09 -4.76474e-09 -2.90362e-09 )  
( -7.55122e-09 -1.20391e-09 -1.56783e-09 )  
( -9.48278e-09 -4.80537e-10 6.21905e-10 )  
( 6.80193e-09 -2.76372e-09 -1.92308e-09 )  
( 6.22785e-09 -3.70057e-09 -3.29627e-09 )  
( -1.10753e-08 -2.36464e-09 -1.58562e-09 )  
( -9.41197e-09 -2.12479e-09 -5.46607e-09 )  
( -1.3969e-08 -3.02572e-09 -5.08049e-09 )  
( -8.95675e-09 -2.71484e-09 -2.85139e-09 )  
( -4.4613e-09 -2.83506e-09 -3.21961e-09 )  
( -5.74333e-09 -3.18732e-09 -1.82417e-10 )  
( -4.23074e-09 -8.97733e-10 1.39589e-09 )  
( -2.14875e-09 -4.92007e-09 1.89685e-09 )  
( -7.41719e-09 -4.53972e-09 1.46878e-09 )  
( -1.02806e-08 -2.59606e-09 -2.24607e-09 )  
( 4.66793e-09 -5.0972e-10 4.13967e-09 )  
( 4.33485e-10 2.17946e-09 -3.98215e-09 )  
( -7.46044e-09 -6.73761e-09 2.83269e-09 )  
( 6.9095e-09 -4.94078e-09 -2.3005e-09 )  
( -5.75985e-09 -2.51212e-09 4.86825e-09 )  
( -4.00476e-09 -3.82956e-09 -8.93168e-10 )  
( -7.869e-09 -4.88607e-09 2.12792e-09 )  
( -8.10088e-09 -1.77709e-09 -5.54341e-09 )  
( -5.85618e-09 -3.95562e-09 1.13552e-09 )  
( -4.63662e-09 -1.25021e-09 -1.49178e-09 )  
( -3.53907e-09 7.33351e-09 -5.60566e-10 )  
( -8.00708e-09 -8.12386e-10 7.98257e-10 )  
( -1.88978e-11 -2.61038e-09 7.35915e-10 )  
( -4.62429e-09 -1.35917e-10 -1.21111e-09 )  
( -8.70633e-09 -2.9406e-09 -5.77679e-10 )  
( -4.10167e-09 -4.17929e-09 2.4372e-09 )  
( 2.47258e-09 -3.38275e-10 4.97693e-10 )  
( -1.62939e-09 4.41832e-10 -3.72856e-09 )  
( -2.91676e-09 -5.72847e-10 -8.34534e-11 )  
( 1.0795e-08 -1.78911e-09 -3.74565e-09 )  
( -5.87158e-09 -1.02615e-08 1.99568e-09 )  
( 1.52707e-09 4.20049e-09 -3.32485e-09 )  
( -4.22358e-09 -2.53865e-09 3.23167e-10 )  
( -6.1288e-09 -1.19751e-09 -3.19556e-09 )  
( -1.7974e-09 3.71298e-10 7.94164e-10 )  
( -1.34845e-09 -4.79539e-09 -2.14368e-09 )  
( -2.57198e-09 -4.24076e-09 1.33908e-09 )  
( -7.9368e-09 -2.90493e-09 9.35769e-10 )  
( 6.07738e-09 -8.06518e-10 1.82097e-09 )  
( -8.92294e-10 -1.81438e-09 -3.71577e-10 )  
( -4.42752e-09 -2.38955e-09 1.69752e-09 )  
( -2.84108e-09 -5.27471e-09 9.83602e-10 )  
( -5.24139e-09 1.22375e-10 2.5165e-10 )  
( -3.43445e-09 -2.74298e-09 2.45382e-09 )  
( -2.47427e-09 -2.23838e-09 1.57787e-09 )  
( -8.05178e-09 -1.68712e-09 1.73413e-10 )  
( 7.27347e-10 -5.88163e-10 -1.4068e-09 )  
( -2.05247e-09 -1.66192e-09 7.44906e-10 )  
( 4.56052e-09 1.33841e-09 -1.2188e-09 )  
( -2.28106e-09 -1.7306e-09 3.14086e-09 )  
( 3.93535e-09 2.44349e-10 -6.4192e-10 )  
( -5.80652e-09 3.75597e-08 9.65597e-09 )  
( -2.2223e-09 -1.33146e-09 5.5467e-10 )  
( -6.36896e-09 -2.15403e-09 -1.50168e-09 )  
( 7.50364e-09 -3.08423e-09 -1.11835e-09 )  
( -4.82241e-09 -3.62351e-09 8.08802e-10 )  
( -3.01798e-09 1.02969e-08 1.01622e-09 )  
( -4.10086e-09 -3.19335e-09 -1.54134e-09 )  
( -2.9526e-09 -3.08204e-09 -4.04575e-11 )  
( -2.10155e-09 5.30369e-09 -3.41956e-09 )  
( -6.08334e-09 -2.02303e-09 -1.00271e-09 )  
( -1.01196e-08 9.69894e-09 1.44355e-09 )  
( -5.05727e-09 -4.81789e-10 2.08578e-10 )  
( -1.79596e-09 -3.43997e-10 -7.52677e-10 )  
( 5.50932e-10 -1.76301e-09 -2.06541e-10 )  
( -2.65703e-09 -2.13294e-09 2.29822e-09 )  
( -3.43236e-09 -2.1583e-09 1.64273e-10 )  
( -5.27013e-09 -1.50755e-09 2.18742e-10 )  
)
