/*--------------------------------*- C++ -*----------------------------------*\
| =========                 |                                                 |
| \\      /  F ield         | OpenFOAM: The Open Source CFD Toolbox           |
|  \\    /   O peration     | Version:  4.x                                   |
|   \\  /    A nd           | Web:      www.OpenFOAM.org                      |
|    \\/     M anipulation  |                                                 |
\*---------------------------------------------------------------------------*/
FoamFile
{
    version     2.0;
    format      ascii;
    class       volVectorField;
    location    "38";
    object      GField;
}
// * * * * * * * * * * * * * * * * * * * * * * * * * * * * * * * * * * * * * //

dimensions      [1 -2 -1 0 0 0 0];

internalField   nonuniform List<vector> 
132
(
(100.246 -1.46178 -4.41553)
(48.8897 -0.936025 -3.11729)
(110.559 -1.76842 -5.23328)
(65.3099 -0.633491 -3.07668)
(119.953 -1.19861 -4.56935)
(77.4198 -0.186348 -2.73993)
(127.656 -0.722006 -4.08765)
(86.5645 0.168291 -3.10625)
(136.057 -0.0930503 -3.92487)
(100.638 -3.09584 -5.02638)
(46.1419 -2.2385 -3.00418)
(107.915 -3.86603 -5.50244)
(58.553 -2.04761 -3.1708)
(115.418 -3.19776 -5.1312)
(68.138 -1.59167 -2.77891)
(121.514 -2.9044 -4.54571)
(75.3227 -2.45537 -2.74917)
(127.269 -2.90617 -3.94045)
(101.231 -2.06906 -5.59914)
(44.4736 -1.23928 -2.94095)
(106.225 -2.39961 -5.87085)
(54.4628 -1.31673 -3.11136)
(111.277 -1.65403 -5.50338)
(61.8519 -0.523407 -2.95846)
(115.874 -1.2123 -4.88773)
(66.199 -0.159925 -2.18915)
(117.923 -0.807931 -3.80369)
(100.925 -1.53211 -5.66469)
(44.6746 -0.510291 -2.79855)
(106.716 -1.07898 -5.71815)
(99.0626 -2.01506 -6.78808)
(42.0913 -0.851649 -3.83093)
(102.645 -2.0447 -6.61705)
(48.5967 -0.802839 -3.10474)
(106.431 -1.78348 -4.55659)
(53.6142 -0.355215 -2.11561)
(109.944 -1.27832 -3.18877)
(56.8178 0.237521 -1.523)
(113.046 -0.432511 -1.71423)
(98.6714 -4.02689 -7.70627)
(37.2517 -1.87093 -3.67875)
(99.6916 -4.34671 -7.31786)
(38.1455 -1.72899 -2.96609)
(100.126 -3.87175 -5.34866)
(36.9664 -1.29617 -1.85656)
(100.919 -3.38337 -3.84381)
(34.5346 -0.993549 -1.1106)
(102.09 -2.68025 -1.89213)
(97.7933 -2.53493 -8.20262)
(33.961 -0.842937 -3.42951)
(97.4079 -2.44376 -7.87472)
(31.0776 -0.699583 -2.65392)
(96.1028 -1.82899 -5.45114)
(25.9213 -0.147403 -1.37902)
(95.035 -0.707969 -2.98903)
(18.7731 0.38323 -0.397349)
(95.2278 -0.0221814 -1.12349)
(96.8455 -0.693886 -8.87825)
(34.5924 -0.332624 -4.06424)
(97.147 -0.689831 -8.76116)
(31.8261 -0.0937 -2.9775)
(95.9498 -0.113214 -6.39388)
(97.2376 -2.42259 -5.93776)
(40.8472 -1.09406 -3.60078)
(99.7321 -2.56023 -6.22303)
(45.5103 -1.03612 -3.56848)
(102.98 -2.30813 -5.1523)
(49.724 -0.645812 -3.43654)
(106.327 -1.7829 -4.2093)
(52.384 -0.182972 -3.86844)
(110.14 -0.726582 -4.04889)
(96.5757 -4.46692 -6.69295)
(35.2955 -2.04187 -3.57206)
(96.336 -5.04319 -6.71809)
(33.295 -1.86009 -2.84242)
(96.0786 -4.09976 -4.9561)
(30.3905 -1.13075 -2.52556)
(96.6312 -2.76964 -4.10038)
(26.9209 -0.910946 -2.41216)
(98.4504 -1.94215 -3.36417)
(95.4479 -3.28117 -6.83753)
(31.6831 -1.47756 -3.59713)
(93.4036 -3.65671 -7.26626)
(23.629 -0.932321 -2.53332)
(91.496 -2.51571 -5.05325)
(16.9724 -0.421129 -1.87439)
(91.334 -1.32291 -2.4298)
(13.3676 -0.335816 -1.93022)
(92.2665 -1.07791 -0.22539)
(95.0656 -0.837496 -7.01732)
(29.8341 -0.416849 -3.73124)
(92.2914 -0.937796 -7.37338)
(20.2838 -0.437785 -2.14929)
(90.6304 -1.07621 -4.60155)
(13.2629 -0.644042 -1.54671)
(90.6628 -1.51028 -2.77233)
(97.077 -2.85519 -4.29306)
(40.3386 -1.33082 -2.76176)
(98.8304 -2.81441 -4.47236)
(43.5081 -0.987864 -2.68135)
(100.325 -2.08692 -3.52479)
(44.6853 -0.793532 -2.5204)
(101.404 -1.89935 -2.8071)
(44.1915 -0.247686 -2.67872)
(101.6 -0.835514 -2.00011)
(95.9708 -4.97153 -4.85583)
(32.7677 -2.41633 -2.54401)
(93.7485 -5.59093 -4.83891)
(26.9838 -1.94235 -1.92626)
(92.2608 -4.42844 -3.20449)
(21.1058 -1.55051 -1.38037)
(90.8532 -2.46053 -2.17363)
(13.5104 -1.21907 -1.15421)
(90.2218 -0.0256893 -2.00221)
(95.1749 -2.9422 -4.96589)
(29.1361 -1.39587 -2.44385)
(90.4201 -3.27773 -4.3743)
(16.3807 -0.699761 -1.24149)
(86.8231 -1.75451 -2.6699)
(5.3024 -0.193576 -0.444124)
(84.328 0.252187 -1.96917)
(3.80172e-05 -7.8045e-07 3.98165e-06)
(81.76 1.67336 -0.523704)
(95.0617 -0.615685 -4.59477)
(28.6839 0.0228959 -2.56957)
(89.9907 0.318057 -4.49065)
(15.4314 0.274543 -1.49075)
(87.7075 0.749245 -3.34221)
(6.08435 0.173212 -0.735169)
(86.6601 -0.0980708 -2.11274)
(1.16775 0.0547787 -0.182609)
(86.4506 -0.431258 -0.200984)
)
;

boundaryField
{
    inlet
    {
        type            calculated;
        value           uniform (67 0 0);
    }
    outlet
    {
        type            calculated;
        value           nonuniform 0();
    }
    wall
    {
        type            calculated;
        value           uniform (0 0 0);
    }
    procBoundary0to1
    {
        type            processor;
        value           nonuniform List<vector> 
12
(
(93.0729 1.74403 -2.99837)
(79.8116 -1.90676 -2.90145)
(66.8511 0.466261 -2.70267)
(58.1059 1.19948 -0.412833)
(31.7219 -1.05495 -0.367894)
(10.2561 0.482474 -0.36821)
(53.4591 0.949133 -4.5541)
(25.5792 -1.39009 -3.00718)
(10.4857 -0.575908 -2.13375)
(38.9144 0.0544128 -1.65376)
(5.03836 -0.724745 -0.49988)
(3.2953e-05 2.43352e-07 6.89279e-06)
)
;
    }
    procBoundary0to2
    {
        type            processor;
        value           nonuniform List<vector> 
44
(
(55.0022 -0.598141 -2.89551)
(111.598 -0.928955 -5.43977)
(63.4298 -0.697474 -2.61374)
(116.853 -0.994039 -4.07125)
(68.7602 -0.291214 -1.56733)
(121.901 -0.561047 -2.665)
(99.0429 0.348966 -4.58002)
(41.9466 0.172914 -2.66213)
(55.0022 -0.598141 -2.89551)
(103.522 0.771894 -5.38975)
(55.0022 -0.598141 -2.89551)
(111.598 -0.928955 -5.43977)
(26.5343 -0.0279765 -1.81485)
(95.7478 0.0147639 -3.94466)
(22.4059 0.201734 -1.26131)
(97.8253 0.594616 -2.06948)
(97.3506 1.24653 -7.56422)
(34.1547 0.285891 -3.54286)
(96.3291 1.36129 -7.7765)
(29.4614 0.67179 -2.79607)
(26.5343 -0.0279765 -1.81485)
(94.9776 1.69809 -5.76766)
(26.5343 -0.0279765 -1.81485)
(95.7478 0.0147639 -3.94466)
(9.55714 -0.620782 -1.45734)
(91.1753 -1.40641 -1.12294)
(95.3526 1.59353 -6.76976)
(32.1794 0.386595 -3.32256)
(92.7709 1.21343 -6.30903)
(23.7282 0.168715 -2.09106)
(90.6853 0.607252 -4.24838)
(15.4962 -0.270369 -1.29631)
(9.55714 -0.620782 -1.45734)
(89.1307 -0.77108 -2.40902)
(9.55714 -0.620782 -1.45734)
(91.1753 -1.40641 -1.12294)
(94.7009 2.06881 -5.72175)
(29.073 1.13465 -2.34197)
(90.3495 2.94517 -4.77177)
(18.9921 0.84316 -1.62687)
(88.1831 2.36317 -2.94594)
(11.136 0.6156 -0.861613)
(86.9702 1.39228 -0.722557)
(4.32736 0.320772 -0.47775)
)
;
    }
    procBoundary0to4
    {
        type            processor;
        value           nonuniform List<vector> 
36
(
(96.1757 -3.08104 -1.82634)
(40.9362 -1.45435 -1.17314)
(97.5423 -3.27181 -1.76057)
(43.6717 -1.36447 -1.32439)
(99.4054 -2.48748 -0.909743)
(45.5692 -0.827858 -0.976173)
(101.05 -1.77329 -0.787456)
(46.0642 -0.814017 -0.998012)
(102.894 -1.6511 0.397519)
(94.4426 -5.1233 -1.4007)
(33.3748 -2.36996 -0.731439)
(92.2598 -5.22805 -0.990653)
(26.3192 -1.75026 -0.735343)
(90.9963 -3.82328 -0.303309)
(21.5321 -1.23979 -0.443393)
(91.2542 -2.85395 0.115448)
(16.97 -1.20763 -0.393146)
(91.6493 -1.67085 1.00745)
(94.2159 -3.04059 -1.43761)
(29.9398 -1.70475 -0.662997)
(89.8388 -3.41025 -0.750191)
(19.4917 -1.23411 -0.208452)
(87.9566 -2.92423 0.105957)
(12.1323 -0.952034 0.151063)
(87.6311 -1.65111 -0.350358)
(4.92979 -0.445856 0.204323)
(87.8084 0.387165 -0.701229)
(94.347 -1.68119 -1.68261)
(29.5534 -0.363109 -0.550251)
(88.8556 -1.40116 -0.645365)
(17.3097 -0.570899 -0.481187)
(85.9285 -1.26729 -0.139292)
(6.91967 -0.307443 -0.06465)
(84.5232 -0.0188222 -0.233849)
(0.108164 -0.00748077 0.000440415)
(84.5883 -0.040018 -0.293187)
)
;
    }
    procBoundary0to6
    {
        type            processor;
        value           uniform (86.2991 0.767862 0.508921);
    }
    procBoundary0to7
    {
        type            processor;
        value           uniform (3.66252e-05 2.88242e-06 2.62089e-06);
    }
}


// ************************************************************************* //
