/*--------------------------------*- C++ -*----------------------------------*\
| =========                 |                                                 |
| \\      /  F ield         | OpenFOAM: The Open Source CFD Toolbox           |
|  \\    /   O peration     | Version:  4.x                                   |
|   \\  /    A nd           | Web:      www.OpenFOAM.org                      |
|    \\/     M anipulation  |                                                 |
\*---------------------------------------------------------------------------*/
FoamFile
{
    version     2.0;
    format      ascii;
    class       volScalarField;
    location    "38";
    object      QPartFluidCoeff;
}
// * * * * * * * * * * * * * * * * * * * * * * * * * * * * * * * * * * * * * //

dimensions      [1 -1 -3 -1 0 0 0];

internalField   nonuniform List<scalar> 
132
(
-1.72808e+07
-1.41902e+07
-1.23339e+07
-9.88091e+06
-1.43995e+07
-1.49574e+07
-1.96016e+07
-1.31277e+07
-6.72595e+06
-1.55008e+07
-1.70055e+07
-1.84211e+07
-1.86542e+07
-1.28072e+07
-2.23919e+07
-1.7722e+07
-1.93078e+07
-1.74872e+07
-1.03883e+07
-1.95822e+07
-1.91586e+07
-1.68906e+07
-1.85591e+07
-1.63154e+07
-1.32805e+07
-1.72621e+07
-2.83797e+07
-9.93362e+06
-1.51069e+07
-1.16966e+07
-1.42259e+07
-2.3248e+07
-2.87913e+07
-2.52396e+07
-2.58216e+07
-2.53316e+07
-2.3739e+07
-2.25739e+07
-2.42013e+07
-1.66105e+07
-3.1531e+07
-2.67318e+07
-2.83478e+07
-3.20316e+07
-2.8738e+07
-3.06949e+07
-3.07046e+07
-2.99471e+07
-1.76706e+07
-3.15113e+07
-2.80378e+07
-2.51251e+07
-3.02662e+07
-2.25416e+07
-3.50845e+07
-2.30691e+07
-2.11717e+07
-2.6556e+07
-2.34494e+07
-2.59982e+07
-1.8366e+07
-3.77477e+07
-1.86205e+07
-2.32348e+07
-2.71318e+07
-2.32307e+07
-2.49767e+07
-1.89125e+07
-2.68667e+07
-2.35561e+07
-1.8058e+07
-2.08296e+07
-2.76054e+07
-2.66426e+07
-2.30689e+07
-3.09503e+07
-2.24152e+07
-3.15143e+07
-3.39011e+07
-3.38326e+07
-2.23618e+07
-2.40284e+07
-2.69823e+07
-3.10282e+07
-3.28085e+07
-2.69306e+07
-3.07355e+07
-2.15243e+07
-1.7982e+07
-2.3025e+07
-2.88688e+07
-3.19031e+07
-2.98835e+07
-3.31939e+07
-2.66621e+07
-2.91487e+07
-1.45141e+07
-1.66286e+07
-2.25655e+07
-1.72903e+07
-2.36224e+07
-2.5925e+07
-1.96859e+07
-1.44564e+07
-2.01494e+07
-1.71241e+07
-3.19934e+07
-3.03219e+07
-2.6977e+07
-2.40208e+07
-2.21536e+07
-3.48005e+07
-2.4014e+07
-2.31056e+07
-1.72912e+07
-1.86245e+07
-3.01501e+07
-2.03754e+07
-2.89628e+07
-2.80249e+07
-2.74188e+07
-1.6417e+07
-3.11012e+07
-1.60853e+07
-2.23778e+07
-3.26845e+07
-3.38728e+07
-1.82506e+07
-3.22279e+07
-2.8304e+07
-1.80301e+07
-8.64756e+06
)
;

boundaryField
{
    inlet
    {
        type            calculated;
        value           uniform 0;
    }
    outlet
    {
        type            calculated;
        value           nonuniform 0();
    }
    wall
    {
        type            calculated;
        value           uniform 0;
    }
    procBoundary0to1
    {
        type            processor;
        value           nonuniform List<scalar> 
12
(
324.86
342.675
298.376
561.437
682.487
600.998
538.383
489.328
719.601
490.352
593.709
444.589
)
;
    }
    procBoundary0to2
    {
        type            processor;
        value           nonuniform List<scalar> 
44
(
539.133
422.719
230.807
451.322
274.901
347.719
439.504
523.936
539.133
463.513
539.133
422.719
744.021
929.726
498.964
848.493
357.647
600.163
725.355
694.568
744.021
672.214
744.021
929.726
602.069
698.749
518.649
434.298
510.489
520.826
512.129
585.584
602.069
743.831
602.069
698.749
370.224
716.735
778.294
541.103
622.345
473.643
572.149
565.041
)
;
    }
    procBoundary0to4
    {
        type            processor;
        value           nonuniform List<scalar> 
36
(
372.245
537.305
637.024
452.07
541.175
453.134
676.351
519.869
729.751
530.528
551.572
709.848
759.248
765.105
649.804
615.819
436.802
840.371
505.561
776.826
628.711
707.599
613.911
476.663
552.276
778.523
509.79
261.267
508.501
709.74
430.366
663.586
501.91
831.392
451.663
532.942
)
;
    }
    procBoundary0to6
    {
        type            processor;
        value           uniform 610.476;
    }
    procBoundary0to7
    {
        type            processor;
        value           uniform 754.07;
    }
}


// ************************************************************************* //
