/*--------------------------------*- C++ -*----------------------------------*\
| =========                 |                                                 |
| \\      /  F ield         | OpenFOAM: The Open Source CFD Toolbox           |
|  \\    /   O peration     | Version:  4.x                                   |
|   \\  /    A nd           | Web:      www.OpenFOAM.org                      |
|    \\/     M anipulation  |                                                 |
\*---------------------------------------------------------------------------*/
FoamFile
{
    version     2.0;
    format      ascii;
    class       volScalarField;
    location    "9";
    object      nu;
}
// * * * * * * * * * * * * * * * * * * * * * * * * * * * * * * * * * * * * * //

dimensions      [0 2 -1 0 0 0 0];

internalField   nonuniform List<scalar> 
108
(
1.00096e-06
1.00063e-06
1.00025e-06
9.99927e-07
9.99686e-07
9.99531e-07
9.99447e-07
9.99419e-07
9.96071e-07
1.00114e-06
1.00088e-06
1.00052e-06
1.00018e-06
9.99889e-07
9.99667e-07
9.99506e-07
9.9941e-07
9.92852e-07
1.00128e-06
1.00111e-06
1.00079e-06
1.00044e-06
1.0001e-06
9.99825e-07
9.99606e-07
9.99448e-07
9.97234e-07
1.00125e-06
1.00135e-06
1.00134e-06
1.00124e-06
1.00104e-06
1.00083e-06
1.00056e-06
1.00038e-06
9.67049e-07
1.0005e-06
1.00024e-06
9.99989e-07
9.99757e-07
9.99577e-07
9.99446e-07
9.9938e-07
9.99359e-07
9.9899e-07
1.00059e-06
1.00035e-06
1.00009e-06
9.99861e-07
9.99657e-07
9.99494e-07
9.99386e-07
9.99334e-07
9.98754e-07
1.00073e-06
1.0005e-06
1.00021e-06
9.99928e-07
9.99681e-07
9.99527e-07
9.99409e-07
9.99439e-07
9.97707e-07
1.00103e-06
1.0011e-06
1.00108e-06
1.00102e-06
1.00085e-06
1.00068e-06
1.00042e-06
1.00027e-06
9.96399e-07
1.00028e-06
1.00012e-06
9.99962e-07
9.99803e-07
9.99661e-07
9.99539e-07
9.99474e-07
9.9945e-07
9.99466e-07
1.00028e-06
1.00012e-06
9.99952e-07
9.99794e-07
9.99651e-07
9.99531e-07
9.99451e-07
9.99407e-07
9.99168e-07
1.00035e-06
1.00017e-06
9.9996e-07
9.99803e-07
9.99653e-07
9.99599e-07
9.99506e-07
9.99533e-07
9.98362e-07
1.00075e-06
1.00081e-06
1.00081e-06
1.00077e-06
1.00066e-06
1.00056e-06
1.00038e-06
1.00027e-06
9.97492e-07
)
;

boundaryField
{
    inlet
    {
        type            calculated;
        value           nonuniform 0();
    }
    outlet
    {
        type            calculated;
        value           uniform 1e-06;
    }
    wall
    {
        type            calculated;
        value           nonuniform List<scalar> 
63
(
1.00096e-06
1.00114e-06
1.00128e-06
1.00125e-06
1.00063e-06
1.00088e-06
1.00111e-06
1.00135e-06
1.00025e-06
1.00052e-06
1.00079e-06
1.00134e-06
9.99927e-07
1.00018e-06
1.00044e-06
1.00124e-06
9.99686e-07
9.99889e-07
1.0001e-06
1.00104e-06
9.99531e-07
9.99667e-07
9.99825e-07
1.00083e-06
9.99447e-07
9.99506e-07
9.99606e-07
1.00056e-06
9.99419e-07
9.9941e-07
9.99448e-07
1.00038e-06
9.96071e-07
9.92852e-07
9.97234e-07
9.67049e-07
1.00125e-06
1.00103e-06
1.00075e-06
1.00135e-06
1.0011e-06
1.00081e-06
1.00134e-06
1.00108e-06
1.00081e-06
1.00124e-06
1.00102e-06
1.00077e-06
1.00104e-06
1.00085e-06
1.00066e-06
1.00083e-06
1.00068e-06
1.00056e-06
1.00056e-06
1.00042e-06
1.00038e-06
1.00038e-06
1.00027e-06
1.00027e-06
9.67049e-07
9.96399e-07
9.97492e-07
)
;
    }
    procBoundary3to1
    {
        type            processor;
        value           nonuniform List<scalar> 
27
(
1.00107e-06
1.00075e-06
1.00034e-06
9.99971e-07
9.99691e-07
9.99513e-07
9.99456e-07
9.99476e-07
9.99201e-07
1.00046e-06
1.00017e-06
9.99899e-07
9.99662e-07
9.99486e-07
9.99376e-07
9.99334e-07
9.99366e-07
9.99181e-07
1.0002e-06
9.99996e-07
9.99789e-07
9.99609e-07
9.99466e-07
9.99388e-07
9.99362e-07
9.99392e-07
9.99139e-07
)
;
    }
    procBoundary3to2
    {
        type            processor;
        value           nonuniform List<scalar> 
12
(
1.00115e-06
1.00124e-06
1.00127e-06
1.00107e-06
1.00073e-06
1.00078e-06
1.00088e-06
1.0009e-06
1.00042e-06
1.00042e-06
1.0005e-06
1.00066e-06
)
;
    }
    procBoundary3to7
    {
        type            processor;
        value           nonuniform List<scalar> 
36
(
1.00019e-06
1.00007e-06
9.99944e-07
9.99811e-07
9.99694e-07
9.99613e-07
9.9962e-07
9.99697e-07
9.99824e-07
1.00012e-06
1e-06
9.99885e-07
9.99768e-07
9.99664e-07
9.99576e-07
9.9954e-07
9.99521e-07
9.99464e-07
1.00017e-06
1.00005e-06
9.99914e-07
9.99808e-07
9.9968e-07
9.99638e-07
9.99566e-07
9.99597e-07
9.99403e-07
1.00047e-06
1.00053e-06
1.00053e-06
1.00053e-06
1.00045e-06
1.00039e-06
1.00024e-06
1.00018e-06
9.9886e-07
)
;
    }
}


// ************************************************************************* //
