/*--------------------------------*- C++ -*----------------------------------*\
| =========                 |                                                 |
| \\      /  F ield         | OpenFOAM: The Open Source CFD Toolbox           |
|  \\    /   O peration     | Version:  4.x                                   |
|   \\  /    A nd           | Web:      www.OpenFOAM.org                      |
|    \\/     M anipulation  |                                                 |
\*---------------------------------------------------------------------------*/
FoamFile
{
    version     2.0;
    format      ascii;
    class       volScalarField;
    location    "9";
    object      Qsource;
}
// * * * * * * * * * * * * * * * * * * * * * * * * * * * * * * * * * * * * * //

dimensions      [1 -1 -3 0 0 0 0];

internalField   nonuniform List<scalar> 
108
(
7.77936e+09
4.38522e+09
6.16767e+09
3.8574e+09
4.5783e+09
4.5207e+09
5.56994e+09
5.5623e+09
4.34138e+09
6.05558e+09
9.82338e+09
4.92504e+09
6.14648e+09
5.94306e+09
5.83877e+09
6.25821e+09
6.57444e+09
4.9102e+09
6.95861e+09
7.12672e+09
6.93092e+09
5.51041e+09
6.05577e+09
5.82173e+09
6.22772e+09
6.95477e+09
3.65125e+09
6.10569e+09
6.11127e+09
6.38428e+09
8.56253e+09
5.90287e+09
7.60579e+09
4.54734e+09
7.00002e+09
6.84654e+09
8.2226e+09
7.83507e+09
9.87886e+09
1.02695e+10
8.44882e+09
7.72593e+09
6.83685e+09
8.13464e+09
8.14588e+09
7.38287e+09
8.10061e+09
8.24852e+09
8.8736e+09
7.65962e+09
8.08149e+09
9.7747e+09
9.17098e+09
6.62342e+09
1.25365e+10
9.7898e+09
8.80843e+09
1.10752e+10
8.25894e+09
9.62669e+09
8.16104e+09
9.61675e+09
7.73933e+09
9.18485e+09
8.19905e+09
7.73994e+09
9.05407e+09
9.87441e+09
8.64178e+09
8.01267e+09
9.88054e+09
6.86348e+09
8.37211e+09
1.08465e+10
9.52571e+09
1.03486e+10
6.72876e+09
7.81712e+09
9.21668e+09
7.95326e+09
6.95993e+09
9.84842e+09
6.34737e+09
8.59835e+09
5.19742e+09
4.83037e+09
9.84376e+09
8.20556e+09
1.14185e+10
5.65816e+09
6.83973e+09
1.06286e+10
9.6114e+09
7.48193e+09
7.85074e+09
1.04551e+10
8.55994e+09
1.00526e+10
5.41835e+09
6.78414e+09
5.74207e+09
6.74927e+09
8.321e+09
7.52333e+09
1.01068e+10
7.52377e+09
1.14912e+10
8.94003e+09
)
;

boundaryField
{
    inlet
    {
        type            calculated;
        value           nonuniform 0();
    }
    outlet
    {
        type            calculated;
        value           uniform 0;
    }
    wall
    {
        type            calculated;
        value           uniform 0;
    }
    procBoundary3to1
    {
        type            processor;
        value           nonuniform List<scalar> 
27
(
4.00958e+09
7.32232e+09
5.4072e+09
9.30438e+09
5.58815e+09
6.01095e+09
4.85317e+09
6.03741e+09
4.07743e+09
8.94127e+09
8.22279e+09
6.9046e+09
6.54864e+09
5.65308e+09
8.81097e+09
8.67453e+09
1.23236e+10
3.7782e+09
8.28881e+09
7.81298e+09
5.46851e+09
1.11002e+10
8.75858e+09
1.05228e+10
7.19089e+09
9.28152e+09
3.01215e+09
)
;
    }
    procBoundary3to2
    {
        type            processor;
        value           nonuniform List<scalar> 
12
(
3.74642e+09
5.24241e+09
4.75462e+09
6.26859e+09
1.10975e+10
6.31731e+09
8.04733e+09
5.79226e+09
9.07748e+09
5.74552e+09
1.02398e+10
1.07145e+10
)
;
    }
    procBoundary3to7
    {
        type            processor;
        value           nonuniform List<scalar> 
36
(
1.05877e+10
9.32131e+09
6.81623e+09
8.03382e+09
1.13668e+10
1.22896e+10
8.14294e+09
6.19146e+09
6.04133e+09
8.01956e+09
1.17106e+10
7.91413e+09
8.27441e+09
9.20009e+09
7.25865e+09
8.26332e+09
8.0105e+09
7.06854e+09
6.17391e+09
9.40377e+09
7.23045e+09
9.20012e+09
8.71866e+09
1.08597e+10
9.29277e+09
9.47773e+09
8.27477e+09
6.17398e+09
9.18624e+09
1.01432e+10
7.2501e+09
9.07713e+09
9.81956e+09
9.43208e+09
9.26211e+09
5.2395e+09
)
;
    }
}


// ************************************************************************* //
