/*--------------------------------*- C++ -*----------------------------------*\
| =========                 |                                                 |
| \\      /  F ield         | OpenFOAM: The Open Source CFD Toolbox           |
|  \\    /   O peration     | Version:  4.x                                   |
|   \\  /    A nd           | Web:      www.OpenFOAM.org                      |
|    \\/     M anipulation  |                                                 |
\*---------------------------------------------------------------------------*/
FoamFile
{
    version     2.0;
    format      ascii;
    class       volVectorField;
    location    "6.5";
    object      impParticleForces;
}
// * * * * * * * * * * * * * * * * * * * * * * * * * * * * * * * * * * * * * //

dimensions      [1 1 -2 0 0 0 0];

internalField   nonuniform List<vector> 
87
(
(0.00243015 8.15944e-06 -1.41191e-05)
(0.00241746 1.63176e-05 2.32195e-06)
(0.0024528 1.42285e-05 -8.14687e-06)
(0.00239093 2.29469e-05 5.44622e-06)
(0.00239383 1.97845e-05 4.5819e-06)
(0.00241709 1.70219e-05 -3.63026e-06)
(0.0023325 1.07426e-05 -4.79993e-05)
(0.00235736 1.10619e-05 -4.35743e-05)
(0.00237926 1.14828e-05 -3.37116e-05)
(0.00238104 1.07223e-05 -2.00695e-05)
(0.0024152 1.0233e-05 -6.8567e-06)
(0.0023909 8.95728e-06 1.02309e-06)
(0.0024232 8.1438e-06 3.9399e-06)
(0.00239827 6.53676e-06 -2.86471e-06)
(0.00243137 5.31967e-06 -1.58536e-05)
(0.00229972 2.15277e-05 -4.75318e-05)
(0.00233617 2.29761e-05 -4.42812e-05)
(0.00237242 2.39002e-05 -3.53399e-05)
(0.00237962 2.22767e-05 -2.2158e-05)
(0.00241082 2.11521e-05 -8.97818e-06)
(0.00240044 1.85418e-05 1.43247e-07)
(0.00242937 1.66957e-05 4.37645e-06)
(0.00241571 1.34838e-05 -7.60858e-07)
(0.00245154 1.09647e-05 -1.19959e-05)
(0.00224623 2.49718e-05 -4.62087e-05)
(0.00228141 2.67237e-05 -4.36253e-05)
(0.00231043 2.72645e-05 -3.53939e-05)
(0.00232921 2.62473e-05 -2.36011e-05)
(0.00237595 2.5814e-05 -1.08547e-05)
(0.00238636 2.33479e-05 -9.11715e-07)
(0.00239836 2.03845e-05 3.97149e-06)
(0.0023878 1.65353e-05 6.49599e-07)
(0.00243164 1.37961e-05 -7.46691e-06)
(0.00230936 9.51515e-06 -3.19721e-05)
(0.00233866 1.01182e-05 -2.80175e-05)
(0.00237773 1.03011e-05 -1.95686e-05)
(0.00237002 9.32873e-06 -1.00423e-05)
(0.00239285 8.41498e-06 -4.92841e-07)
(0.00239096 7.23625e-06 4.55743e-06)
(0.00242464 6.21121e-06 5.406e-06)
(0.00239584 4.38744e-06 -2.56143e-06)
(0.00243008 2.78459e-06 -1.56948e-05)
(0.00227312 1.9542e-05 -3.29328e-05)
(0.00231585 2.10308e-05 -2.93381e-05)
(0.00235584 2.17136e-05 -2.14308e-05)
(0.00235497 1.97841e-05 -1.23543e-05)
(0.00238925 1.86217e-05 -2.33233e-06)
(0.00238054 1.58343e-05 2.61048e-06)
(0.0024263 1.40628e-05 4.65002e-06)
(0.00240356 1.07764e-05 -2.31066e-06)
(0.0024468 8.47118e-06 -1.41633e-05)
(0.0022319 2.35159e-05 -3.3475e-05)
(0.00225408 2.43254e-05 -3.03457e-05)
(0.00228951 2.48142e-05 -2.33616e-05)
(0.00231042 2.379e-05 -1.45181e-05)
(0.00234671 2.26835e-05 -5.21637e-06)
(0.00235155 1.98517e-05 7.45878e-07)
(0.00238565 1.75071e-05 3.1309e-06)
(0.00238481 1.39531e-05 -1.65666e-06)
(0.00241903 1.11617e-05 -1.11424e-05)
(0.00226367 8.25317e-06 -2.4474e-05)
(0.00227959 8.44971e-06 -2.08973e-05)
(0.0023293 8.5979e-06 -1.36099e-05)
(0.00233147 7.7264e-06 -6.01359e-06)
(0.00235726 6.77466e-06 1.5583e-06)
(0.00236354 5.6299e-06 5.10491e-06)
(0.00240696 4.2843e-06 4.85234e-06)
(0.00238276 2.66591e-06 -2.8973e-06)
(0.00239263 9.82046e-07 -1.56708e-05)
(0.00223365 1.74055e-05 -2.56802e-05)
(0.00225794 1.80085e-05 -2.22857e-05)
(0.00230047 1.8368e-05 -1.56173e-05)
(0.00231248 1.71415e-05 -8.26554e-06)
(0.00234921 1.59458e-05 -4.40516e-07)
(0.00235147 1.36162e-05 3.05973e-06)
(0.00238732 1.16646e-05 3.16206e-06)
(0.0023798 8.76812e-06 -3.77736e-06)
(0.00240594 6.73768e-06 -1.54137e-05)
(0.00220303 2.13758e-05 -2.66985e-05)
(0.00222225 2.19288e-05 -2.36522e-05)
(0.00226253 2.23216e-05 -1.76781e-05)
(0.00227383 2.10372e-05 -1.04667e-05)
(0.00230096 1.94846e-05 -3.33848e-06)
(0.00232941 1.74462e-05 1.14784e-06)
(0.00235495 1.4834e-05 1.32123e-06)
(0.0023608 1.17143e-05 -4.18969e-06)
(0.00239587 9.17983e-06 -1.42312e-05)
)
;

boundaryField
{
    inlet
    {
        type            zeroGradient;
    }
    outlet
    {
        type            zeroGradient;
    }
    wall
    {
        type            zeroGradient;
    }
    procBoundary6to0
    {
        type            processor;
        value           uniform (0.00239416 2.08987e-07 -1.40869e-05);
    }
    procBoundary6to2
    {
        type            processor;
        value           nonuniform List<vector> 
32
(
(0.00241781 1.07405e-05 -1.12638e-05)
(0.00242868 1.98371e-05 6.37765e-06)
(0.00245698 1.83666e-05 -3.18609e-06)
(0.00241594 2.69913e-05 8.90744e-06)
(0.00239848 2.36613e-05 8.5431e-06)
(0.00242615 2.16568e-05 1.73406e-06)
(0.002314 1.04608e-05 -6.395e-05)
(0.00236034 1.17224e-05 -6.08936e-05)
(0.00240652 1.29361e-05 -5.07089e-05)
(0.00239073 1.21285e-05 -3.18856e-05)
(0.00241284 1.1589e-05 -1.37756e-05)
(0.00239886 1.05443e-05 -1.55457e-06)
(0.002427 9.82279e-06 4.18599e-06)
(0.00240466 8.755e-06 -1.68451e-06)
(0.00240466 8.755e-06 -1.68451e-06)
(0.00240466 8.755e-06 -1.68451e-06)
(0.00228906 2.10517e-05 -6.26497e-05)
(0.00233412 2.32561e-05 -6.05028e-05)
(0.00239689 2.5803e-05 -5.18607e-05)
(0.00238253 2.3686e-05 -3.36217e-05)
(0.00241606 2.31214e-05 -1.55503e-05)
(0.00240095 2.05819e-05 -1.93206e-06)
(0.00243866 1.94159e-05 6.27942e-06)
(0.00243866 1.94159e-05 6.27942e-06)
(0.00243866 1.94159e-05 6.27942e-06)
(0.00223902 2.48303e-05 -5.96371e-05)
(0.00228023 2.70439e-05 -5.76538e-05)
(0.00234141 2.96832e-05 -4.99729e-05)
(0.00234571 2.83442e-05 -3.40119e-05)
(0.00237519 2.7701e-05 -1.70572e-05)
(0.00237242 2.50602e-05 -2.96259e-06)
(0.00237242 2.50602e-05 -2.96259e-06)
)
;
    }
    procBoundary6to4
    {
        type            processor;
        value           nonuniform List<vector> 
27
(
(0.00229806 -4.48196e-06 -4.61091e-05)
(0.00234739 -4.75539e-06 -4.23394e-05)
(0.00239641 -4.2661e-06 -3.26168e-05)
(0.00238402 -3.65995e-06 -1.88012e-05)
(0.00241451 -3.08567e-06 -4.91445e-06)
(0.00239607 -2.3955e-06 2.84126e-06)
(0.00243475 -1.91563e-06 5.99256e-06)
(0.00239309 -1.8232e-06 -1.34553e-06)
(0.00241102 -1.8944e-06 -1.41512e-05)
(0.00229966 -4.75299e-06 -3.14175e-05)
(0.00233949 -4.80671e-06 -2.71697e-05)
(0.00237997 -4.65298e-06 -1.82502e-05)
(0.00238881 -4.07295e-06 -7.96874e-06)
(0.00242391 -3.89997e-06 2.95649e-06)
(0.00240307 -3.34187e-06 7.44847e-06)
(0.00243867 -3.23655e-06 9.12972e-06)
(0.00240529 -3.55221e-06 5.32267e-07)
(0.00241939 -4.30984e-06 -1.2411e-05)
(0.00227872 -4.72092e-06 -2.3895e-05)
(0.00229136 -4.55838e-06 -1.99947e-05)
(0.00233554 -4.6678e-06 -1.23845e-05)
(0.00235049 -4.4435e-06 -3.91435e-06)
(0.00238855 -4.40321e-06 4.70778e-06)
(0.00238306 -4.04813e-06 8.40761e-06)
(0.00238455 -4.08613e-06 7.42546e-06)
(0.00237995 -4.70332e-06 3.11087e-07)
(0.00239581 -5.8536e-06 -1.17961e-05)
)
;
    }
    procBoundary6to7
    {
        type            processor;
        value           nonuniform List<vector> 
12
(
(0.00243031 7.68753e-06 -3.41094e-05)
(0.0024438 1.20687e-05 -2.71004e-05)
(0.00242716 1.45464e-05 -2.05187e-05)
(0.00240892 4.26353e-06 -3.43181e-05)
(0.00243485 8.71904e-06 -2.99014e-05)
(0.00242279 1.11095e-05 -2.43513e-05)
(0.00241798 1.85437e-06 -3.3887e-05)
(0.00243286 6.58521e-06 -3.12795e-05)
(0.00241443 8.77168e-06 -2.72408e-05)
(0.00239062 -2.03479e-07 -3.27185e-05)
(0.00239468 5.01053e-06 -3.20741e-05)
(0.00238413 7.26486e-06 -2.99666e-05)
)
;
    }
}


// ************************************************************************* //
