/*--------------------------------*- C++ -*----------------------------------*\
| =========                 |                                                 |
| \\      /  F ield         | OpenFOAM: The Open Source CFD Toolbox           |
|  \\    /   O peration     | Version:  4.x                                   |
|   \\  /    A nd           | Web:      www.OpenFOAM.org                      |
|    \\/     M anipulation  |                                                 |
\*---------------------------------------------------------------------------*/
FoamFile
{
    version     2.0;
    format      ascii;
    class       volScalarField;
    location    "6.5";
    object      Ksl;
}
// * * * * * * * * * * * * * * * * * * * * * * * * * * * * * * * * * * * * * //

dimensions      [1 -3 -1 0 0 0 0];

internalField   nonuniform List<scalar> 
87
(
3795.88
19301.5
3916.23
3218.15
5148.94
3016.29
3637.26
11080.6
3960.16
20700.3
4084.96
30566.1
4086.43
52505.6
4089.11
3554.69
9879.04
3833.03
15014.3
4018.26
22588.7
4113.38
26434.6
4169.86
3444.89
7157.07
3455.83
6691.15
3461.85
6432.32
3386.31
5784.06
3253.74
3594.85
9554
3825.78
13142.3
3894.93
17060.3
3958.14
19125
3922.53
3483.74
8969.54
3697.08
11611.8
3815.43
15456
3961.81
19739.3
4005.21
3423.59
6844.5
3369.55
6207.23
3320.05
5633.95
3230.99
5175.65
3103.7
3499.49
7360.95
3558.53
7366.99
3525.74
7262.91
3531.7
7642.04
3521.76
3437.43
7032.82
3448.3
6599.38
3401.06
6021.12
3345.34
5705.03
3286.39
3388.24
6597.01
3318.32
5969.2
3222.46
5447.42
3161.03
4971.43
3054.57
)
;

boundaryField
{
    inlet
    {
        type            zeroGradient;
    }
    outlet
    {
        type            zeroGradient;
    }
    wall
    {
        type            zeroGradient;
    }
    procBoundary6to0
    {
        type            processor;
        value           uniform 3914.29;
    }
    procBoundary6to2
    {
        type            processor;
        value           nonuniform List<scalar> 
32
(
3742
20208.5
3870.6
3250.71
5207.79
3012.1
3571.11
10338.9
3879.4
15302.9
3949.48
17475.8
3881.84
17402.4
17402.4
17402.4
3512.12
9559.64
3799.95
13260.9
3924.85
17143.7
3939.59
3939.59
3939.59
3430.33
7156.74
3466.48
6628.33
3396.87
5895.54
5895.54
)
;
    }
    procBoundary6to4
    {
        type            processor;
        value           nonuniform List<scalar> 
27
(
3580.57
10459.2
3987.64
17744.4
4152.71
27468.2
4270.68
44214.3
4321.37
3569.77
9283.26
3828.55
11999.2
3956.37
14385.6
4065.45
19596.5
4230.32
3548.42
7649.24
3612.71
7548.8
3570.8
6646.05
3387.19
5634.09
3236.87
)
;
    }
    procBoundary6to7
    {
        type            processor;
        value           nonuniform List<scalar> 
12
(
17018.9
17955.6
4670.77
65197.3
28767.2
5440.92
23016.7
27347.9
4777.26
9651.65
5777
4537.7
)
;
    }
}


// ************************************************************************* //
