/*--------------------------------*- C++ -*----------------------------------*\
| =========                 |                                                 |
| \\      /  F ield         | OpenFOAM: The Open Source CFD Toolbox           |
|  \\    /   O peration     | Version:  4.x                                   |
|   \\  /    A nd           | Web:      www.OpenFOAM.org                      |
|    \\/     M anipulation  |                                                 |
\*---------------------------------------------------------------------------*/
FoamFile
{
    version     2.0;
    format      ascii;
    class       volScalarField;
    location    "43";
    object      alpha.iron;
}
// * * * * * * * * * * * * * * * * * * * * * * * * * * * * * * * * * * * * * //

dimensions      [0 0 0 0 0 0 0];

internalField   nonuniform List<scalar> 
114
(
1
1
1
0.999999
0.999998
0.999987
1
0.999999
0.999999
0.999997
0.999995
0.999991
0.999934
1
0.999999
0.999998
0.999995
0.99999
0.999982
0.99997
0.999791
1
1
1
1
1
1
0.999999
0.999999
0.999783
1
1
1
0.999999
0.999998
0.999997
0.999994
0.999993
0.999934
1
1
0.999999
0.999998
0.999996
0.999994
0.999989
0.999985
0.999919
1
0.999999
1
1
1
1
1
1
1
1
0.999736
1
1
1
1
1
0.999999
0.999998
0.999998
0.999858
1
1
1
0.999999
0.999998
0.999997
0.999995
0.999993
0.999928
1
1
1
0.999999
1
1
1
1
1
1
1
1
1.0012
1
1
1
1
1
1
1
1
0.999551
1
1
1
1
1
1
0.999999
0.999999
0.999377
1
1
1
1
1
1
)
;

boundaryField
{
    inlet
    {
        type            fixedValue;
        value           nonuniform 0();
    }
    outlet
    {
        type            fixedValue;
        value           uniform 1;
    }
    wall
    {
        type            zeroGradient;
    }
    procBoundary5to1
    {
        type            processor;
        value           nonuniform List<scalar> 
32
(
1
1
1
0.999999
0.999999
0.999729
1
0.999999
0.999999
0.999998
0.999995
0.999994
0.999758
1
0.999999
0.999997
0.999994
0.99999
0.999982
0.999978
0.999847
1
1
1
1
1
1
1
1
1
1
1
)
;
    }
    procBoundary5to4
    {
        type            processor;
        value           nonuniform List<scalar> 
12
(
1
1
1
1
1
1
1
1
1
1
1
1
)
;
    }
    procBoundary5to7
    {
        type            processor;
        value           nonuniform List<scalar> 
44
(
0.999999
0.999999
0.999997
0.999995
0.999989
0.99998
0.999967
0.999897
1
0.999999
0.999999
0.999997
0.999995
0.99999
0.999984
0.999974
0.999897
1
0.999999
0.999999
0.999999
0.999997
0.999998
0.999996
0.999993
0.99999
0.999921
1
1
0.999999
0.999998
0.999999
0.999998
0.999996
0.999999
0.999998
0.999343
1
1
1
1
1
0.999999
1
)
;
    }
}


// ************************************************************************* //
