/*--------------------------------*- C++ -*----------------------------------*\
| =========                 |                                                 |
| \\      /  F ield         | OpenFOAM: The Open Source CFD Toolbox           |
|  \\    /   O peration     | Version:  4.x                                   |
|   \\  /    A nd           | Web:      www.OpenFOAM.org                      |
|    \\/     M anipulation  |                                                 |
\*---------------------------------------------------------------------------*/
FoamFile
{
    version     2.0;
    format      ascii;
    class       volVectorField;
    location    "43";
    object      ddtUrel;
}
// * * * * * * * * * * * * * * * * * * * * * * * * * * * * * * * * * * * * * //

dimensions      [0 1 -2 0 0 0 0];

internalField   nonuniform List<vector> 
114
(
(-4.31947e-09 -1.46986e-10 1.15827e-10)
(-2.36632e-09 -1.35122e-10 1.22817e-10)
(-8.2316e-10 -1.04997e-10 2.03603e-10)
(3.6652e-10 -5.08956e-11 3.52027e-10)
(1.28184e-09 1.19646e-11 4.94358e-10)
(1.85525e-09 4.24168e-11 5.90561e-10)
(-5.16106e-09 -1.74969e-10 1.11187e-10)
(-3.5758e-09 -1.97029e-10 7.41444e-11)
(-2.04121e-09 -1.96367e-10 6.39587e-11)
(-7.56862e-10 -1.63716e-10 1.30689e-10)
(2.65305e-10 -1.22706e-10 2.46234e-10)
(1.00888e-09 -6.92909e-11 3.61268e-10)
(1.49217e-09 -3.54213e-11 4.84595e-10)
(-4.07682e-09 -1.57248e-10 9.34385e-11)
(-3.58411e-09 -1.80878e-10 5.70473e-11)
(-2.63062e-09 -2.408e-10 6.74019e-12)
(-1.58104e-09 -2.48569e-10 -2.37932e-11)
(-6.26748e-10 -2.33956e-10 -9.16733e-13)
(1.78028e-10 -2.00576e-10 6.43645e-11)
(7.50763e-10 -1.45916e-10 1.2791e-10)
(1.09894e-09 -8.11493e-11 2.09409e-10)
(-3.32218e-09 -7.80882e-11 8.24984e-11)
(-3.69697e-09 -1.09277e-10 8.67692e-11)
(-3.20686e-09 -1.35321e-10 6.91434e-11)
(-2.29163e-09 -1.56385e-10 4.20771e-11)
(-1.38082e-09 -1.70618e-10 5.28913e-11)
(-5.62822e-10 -1.57136e-10 9.61142e-11)
(6.96038e-11 -1.35166e-10 1.66848e-10)
(5.17704e-10 -1.02092e-10 2.25127e-10)
(7.7479e-10 -7.8113e-11 2.96281e-10)
(-2.78969e-09 -8.81105e-11 6.73045e-11)
(-3.04095e-09 -1.2601e-10 6.49297e-11)
(-2.71228e-09 -1.60739e-10 5.09614e-11)
(-2.00641e-09 -2.05985e-10 1.32417e-11)
(-1.2386e-09 -2.27854e-10 1.34136e-11)
(-5.26451e-10 -2.19442e-10 4.91398e-11)
(6.68847e-11 -2.08792e-10 1.14861e-10)
(4.9609e-10 -1.72402e-10 1.64193e-10)
(6.94628e-10 -1.54281e-10 2.70008e-10)
(-2.09041e-09 -8.67747e-11 4.12697e-11)
(-2.26152e-09 -1.39259e-10 3.59857e-11)
(-2.06927e-09 -1.73821e-10 1.06061e-11)
(-1.61752e-09 -2.3825e-10 -2.76869e-11)
(-1.05006e-09 -2.76146e-10 -4.63109e-11)
(-4.80559e-10 -2.88581e-10 -3.42346e-11)
(2.89657e-11 -2.97288e-10 1.63984e-11)
(3.88981e-10 -2.59356e-10 4.9803e-11)
(5.55233e-10 -2.22393e-10 1.36586e-10)
(-1.46748e-09 -6.83481e-11 2.42565e-11)
(-1.58907e-09 -1.20587e-10 6.52336e-12)
(-1.76128e-09 -6.99194e-11 4.3759e-11)
(-1.89576e-09 -9.75412e-11 4.01512e-11)
(-1.73623e-09 -1.24383e-10 2.80309e-11)
(-1.364e-09 -1.55461e-10 5.94514e-12)
(-8.90977e-10 -1.79218e-10 1.42668e-11)
(-4.46065e-10 -1.75215e-10 3.8681e-11)
(-1.31537e-10 -1.62376e-10 7.24588e-11)
(9.90595e-12 -1.35642e-10 9.9861e-11)
(2.6644e-10 -7.01002e-11 9.04306e-11)
(-1.56048e-09 -7.51705e-11 3.17442e-11)
(-1.6681e-09 -1.1139e-10 2.67448e-11)
(-1.57958e-09 -1.47324e-10 1.75963e-11)
(-1.2862e-09 -2.11407e-10 -1.0256e-11)
(-8.45369e-10 -2.34161e-10 -9.30984e-12)
(-4.22553e-10 -2.365e-10 1.19044e-11)
(-7.37185e-11 -2.28388e-10 5.14826e-11)
(1.52141e-10 -2.0178e-10 8.11697e-11)
(2.20838e-10 -1.42383e-10 9.18534e-11)
(-1.27251e-09 -6.81586e-11 1.07707e-11)
(-1.35904e-09 -1.16901e-10 4.51392e-12)
(-1.30763e-09 -1.56276e-10 -1.14049e-11)
(-1.08613e-09 -2.23306e-10 -3.62173e-11)
(-7.64228e-10 -2.73878e-10 -4.87292e-11)
(-4.12378e-10 -3.00102e-10 -4.33416e-11)
(-7.96568e-11 -3.18436e-10 -3.05656e-12)
(1.54086e-10 -2.86434e-10 2.79505e-11)
(2.13612e-10 -2.38578e-10 6.71528e-11)
(-9.7385e-10 -5.35262e-11 -8.00271e-12)
(-1.04964e-09 -1.00478e-10 -1.89259e-11)
(-1.04377e-09 -1.52242e-10 -3.86755e-11)
(-9.12229e-10 -2.16393e-10 -7.6762e-11)
(-1.15439e-09 -6.14755e-11 2.68433e-11)
(-1.21751e-09 -8.60168e-11 2.32968e-11)
(-1.1962e-09 -1.05927e-10 1.55228e-11)
(-1.0145e-09 -1.4904e-10 -2.71975e-12)
(-7.18219e-10 -1.74518e-10 1.95813e-12)
(-4.74082e-10 -1.74697e-10 1.25928e-11)
(-3.69181e-10 -1.58966e-10 1.71931e-11)
(-7.19994e-10 -1.23588e-10 1.7453e-12)
(-3.33741e-10 9.16859e-11 -3.20858e-10)
(-1.04595e-09 -6.45982e-11 1.85898e-11)
(-1.10723e-09 -9.80533e-11 1.42159e-11)
(-1.13513e-09 -1.38364e-10 1.54455e-11)
(-1.04408e-09 -2.1422e-10 -9.73563e-12)
(-7.24541e-10 -2.3922e-10 -1.23033e-11)
(-4.41446e-10 -2.28665e-10 -3.11926e-12)
(-2.5089e-10 -2.21857e-10 1.73221e-11)
(-2.4041e-10 -2.02633e-10 3.18646e-11)
(-3.35086e-11 -1.23899e-10 -5.59398e-11)
(-8.94399e-10 -5.74733e-11 4.79239e-12)
(-9.61643e-10 -9.91467e-11 -4.4968e-12)
(-9.72692e-10 -1.4289e-10 -1.51273e-11)
(-8.66753e-10 -2.07022e-10 -3.69853e-11)
(-6.58769e-10 -2.61252e-10 -4.32213e-11)
(-4.19293e-10 -2.84351e-10 -4.259e-11)
(-2.15089e-10 -2.93841e-10 -1.65046e-11)
(-1.45543e-10 -2.68286e-10 1.06899e-11)
(-2.0861e-11 -1.98951e-10 -2.76461e-11)
(-7.27114e-10 -4.31773e-11 -7.24537e-12)
(-7.87573e-10 -8.48418e-11 -2.14375e-11)
(-8.19997e-10 -1.38117e-10 -3.81554e-11)
(-7.43777e-10 -1.90368e-10 -6.65262e-11)
(-6.0834e-10 -2.55809e-10 -8.7093e-11)
(-3.90141e-10 -3.15155e-10 -1.02101e-10)
)
;

boundaryField
{
    inlet
    {
        type            calculated;
        value           nonuniform 0();
    }
    outlet
    {
        type            calculated;
        value           nonuniform List<vector> 
12
(
(3.22216e-09 -3.39976e-10 1.3315e-10)
(5.92589e-10 -4.68566e-10 7.61464e-10)
(2.79572e-10 -2.71358e-10 4.33762e-10)
(3.76725e-10 -9.15503e-11 2.67194e-10)
(5.99378e-10 -4.70005e-10 8.02268e-10)
(4.26202e-10 -5.41843e-10 4.628e-10)
(7.75359e-10 -1.2086e-10 8.44604e-10)
(1.0898e-10 2.32178e-10 -3.52974e-11)
(1.7423e-10 -2.93249e-10 2.76223e-10)
(-2.99021e-09 1.73724e-09 -3.05652e-09)
(1.25194e-10 -3.91694e-10 6.04469e-11)
(-2.84293e-10 9.71577e-11 -4.0319e-10)
)
;
    }
    wall
    {
        type            calculated;
        value           nonuniform List<vector> 
66
(
(-2.10232e-11 -2.16573e-11 1.59275e-11)
(9.45317e-11 -5.10905e-11 4.76922e-13)
(-8.16278e-11 -2.48639e-11 -1.19711e-11)
(-1.71446e-10 -1.26902e-10 -1.67532e-11)
(5.73299e-10 -3.1345e-11 2.33261e-11)
(8.50858e-10 -7.74854e-11 -4.243e-12)
(1.48618e-10 -8.80018e-11 -2.9159e-11)
(7.1499e-11 -1.13558e-10 -2.33505e-11)
(-3.52577e-10 1.26603e-10 4.06878e-12)
(-3.58447e-10 -8.6969e-11 1.9039e-10)
(-1.90247e-10 -6.84899e-11 -7.79541e-12)
(-4.34265e-10 -2.84544e-10 5.8106e-12)
(-4.93868e-10 1.58536e-11 -8.82723e-11)
(-2.05002e-09 -6.05623e-10 -2.11248e-11)
(-3.16636e-10 -2.18916e-10 -8.00702e-11)
(-3.24165e-10 -2.39482e-10 -4.19211e-11)
(4.78369e-11 -4.68475e-11 -4.94495e-12)
(-5.3657e-10 -4.96856e-10 -1.12242e-11)
(-4.32429e-10 -4.02241e-10 -1.2359e-11)
(-4.89985e-10 -3.79659e-10 -5.19881e-11)
(-6.11149e-10 -6.08917e-11 -4.61504e-13)
(-4.79853e-10 -1.87295e-10 -5.44468e-12)
(-6.0153e-10 -3.54614e-10 -5.39465e-11)
(-5.99432e-11 -3.81103e-10 -1.69232e-10)
(-2.36647e-10 5.71438e-12 -1.54326e-10)
(-5.89187e-10 -1.09222e-10 -4.37656e-11)
(-5.51636e-10 -3.07175e-10 -1.14555e-10)
(-1.20545e-08 -5.26663e-10 7.97646e-10)
(-3.18436e-09 -5.59166e-10 5.25851e-10)
(-3.02886e-09 -4.04865e-10 4.27528e-10)
(-4.77854e-09 4.27102e-09 -6.96301e-09)
(2.32921e-10 2.43488e-10 -3.30347e-10)
(-7.86091e-10 1.9038e-10 -8.58455e-10)
(-3.6671e-10 1.96104e-11 1.03122e-10)
(-1.17814e-10 -4.56398e-11 5.30413e-11)
(-8.49128e-11 -2.16315e-11 1.32641e-11)
(-9.36025e-10 -5.59713e-11 3.63996e-11)
(-2.26619e-10 -5.89744e-11 1.77298e-11)
(2.26428e-10 -2.88565e-11 1.15463e-11)
(-1.86382e-10 -7.52082e-11 1.1612e-11)
(-2.19679e-11 -6.3019e-11 1.79344e-12)
(-3.39202e-10 1.24322e-10 5.669e-12)
(1.09489e-09 -8.59314e-11 -1.23954e-10)
(3.56195e-10 -5.73162e-11 -1.02021e-10)
(-4.79276e-10 -2.7774e-11 -1.29222e-10)
(-2.63045e-10 1.44193e-11 -8.27784e-11)
(4.06469e-10 -5.47917e-11 -1.26025e-10)
(-2.92546e-12 -1.67696e-10 -2.7345e-11)
(1.08809e-11 -1.41524e-10 -4.35024e-11)
(7.02894e-11 -4.54533e-11 -2.47168e-12)
(3.03693e-10 -1.68442e-10 -7.39133e-11)
(4.26944e-10 -9.83857e-11 1.80332e-12)
(4.57902e-10 -7.39265e-11 -3.63123e-12)
(-2.10291e-10 -6.11055e-11 8.60649e-13)
(3.99619e-10 -1.41274e-10 1.90558e-10)
(2.94971e-10 -1.06092e-10 6.3302e-11)
(3.01525e-10 -1.06344e-10 3.36992e-11)
(-2.29812e-10 -7.1139e-12 -1.55535e-10)
(2.58157e-10 -1.66563e-10 -3.41346e-11)
(2.73547e-11 -1.20679e-10 -6.05538e-11)
(-9.39037e-10 -1.74771e-10 2.30077e-10)
(-1.10644e-08 -4.3548e-10 7.32158e-10)
(6.27709e-10 -2.28786e-10 -2.22052e-10)
(4.20762e-11 -1.1044e-10 2.52065e-10)
(1.53943e-09 -9.87066e-11 7.02585e-10)
(-4.08604e-09 3.34416e-09 -6.32998e-09)
)
;
    }
    procBoundary5to1
    {
        type            processor;
        value           nonuniform List<vector> 
32
(
(-8.39539e-09 -1.16865e-10 2.58696e-10)
(-4.13431e-09 -8.16522e-11 2.50873e-10)
(-1.15883e-09 9.30001e-14 4.03221e-10)
(1.04798e-09 1.25949e-10 7.0218e-10)
(3.00975e-09 2.97591e-10 1.11871e-09)
(4.30742e-09 3.6096e-10 1.35986e-09)
(-1.02309e-08 -1.61806e-10 2.43588e-10)
(-6.49962e-09 -1.59539e-10 1.84436e-10)
(-3.41338e-09 -1.37378e-10 1.6594e-10)
(-1.05888e-09 -6.16332e-11 2.70798e-10)
(7.1904e-10 1.57305e-11 4.81029e-10)
(2.13041e-09 1.48699e-10 7.54258e-10)
(3.10847e-09 2.29142e-10 9.05556e-10)
(-7.47483e-09 -1.55363e-10 1.85509e-10)
(-6.31898e-09 -1.74829e-10 1.40937e-10)
(-4.32769e-09 -2.00699e-10 7.03451e-11)
(-2.42752e-09 -1.88265e-10 2.7182e-11)
(-8.29967e-10 -1.29673e-10 6.82305e-11)
(4.72685e-10 -6.70103e-11 1.64008e-10)
(1.42722e-09 5.01335e-11 2.83786e-10)
(2.03908e-09 1.2977e-10 3.66676e-10)
(-6.86552e-09 -9.52876e-11 1.52673e-10)
(-8.12042e-09 -1.24491e-10 1.90042e-10)
(-6.60988e-09 -1.44291e-10 1.55044e-10)
(-6.60988e-09 -1.44291e-10 1.55044e-10)
(-6.60988e-09 -1.44291e-10 1.55044e-10)
(-5.37723e-09 -1.04618e-10 1.28249e-10)
(-6.1167e-09 -1.50702e-10 1.43547e-10)
(-6.1167e-09 -1.50702e-10 1.43547e-10)
(-6.1167e-09 -1.50702e-10 1.43547e-10)
(-3.69157e-09 -9.76549e-11 9.89506e-11)
(-3.69157e-09 -9.76549e-11 9.89506e-11)
)
;
    }
    procBoundary5to4
    {
        type            processor;
        value           nonuniform List<vector> 
12
(
(-2.56329e-09 -5.59887e-11 5.81886e-11)
(-2.20051e-09 -6.14573e-11 5.28333e-11)
(-1.68598e-09 -5.08279e-11 4.17835e-11)
(-1.19598e-09 -3.11928e-11 3.77461e-11)
(-1.43811e-09 -4.5831e-11 3.58395e-11)
(-1.28109e-09 -4.53117e-11 3.22934e-11)
(-1.04019e-09 -3.07739e-11 1.8259e-11)
(-7.87349e-10 -8.42542e-12 3.95973e-12)
(-9.6301e-10 -3.92025e-11 2.57293e-11)
(-8.68127e-10 -3.73462e-11 2.20717e-11)
(-7.27716e-10 -2.36557e-11 1.23058e-11)
(-5.82301e-10 3.03194e-12 3.48358e-12)
)
;
    }
    procBoundary5to7
    {
        type            processor;
        value           nonuniform List<vector> 
44
(
(-2.58006e-09 -1.30458e-10 4.91227e-11)
(-2.3541e-09 -1.76408e-10 6.29601e-13)
(-1.82313e-09 -2.40101e-10 -7.0538e-11)
(-1.13686e-09 -2.73079e-10 -1.35735e-10)
(-4.48823e-10 -2.68e-10 -1.67448e-10)
(1.84802e-10 -2.3633e-10 -1.67059e-10)
(6.43528e-10 -1.54663e-10 -1.71136e-10)
(9.27714e-10 -5.56506e-11 -1.41139e-10)
(-2.3771e-09 -8.70852e-11 7.75498e-11)
(-2.58006e-09 -1.30458e-10 4.91227e-11)
(-1.50678e-09 -1.72857e-10 -2.98071e-11)
(-1.23981e-09 -2.45716e-10 -7.61356e-11)
(-8.44554e-10 -3.02807e-10 -1.21184e-10)
(-3.96336e-10 -3.4437e-10 -1.37757e-10)
(3.51204e-11 -3.65183e-10 -1.16407e-10)
(3.4116e-10 -3.24109e-10 -1.06585e-10)
(4.97456e-10 -2.57345e-10 -2.67487e-11)
(-1.00174e-09 -3.41374e-11 1.3568e-11)
(-1.50678e-09 -1.72857e-10 -2.98071e-11)
(-1.09124e-09 -7.74282e-11 -1.56059e-11)
(-1.50678e-09 -1.72857e-10 -2.98071e-11)
(-1.23981e-09 -2.45716e-10 -7.61356e-11)
(-6.846e-10 -2.89644e-10 -1.05324e-10)
(-3.8237e-10 -3.44444e-10 -1.20111e-10)
(-6.99468e-11 -3.8875e-10 -8.27368e-11)
(1.39882e-10 -3.64256e-10 -5.33303e-11)
(2.21943e-10 -3.08815e-10 3.18223e-12)
(-7.09485e-10 -1.26474e-11 -9.70443e-12)
(-7.86473e-10 -5.6201e-11 -3.48564e-11)
(-8.16342e-10 -1.04187e-10 -7.24506e-11)
(-6.846e-10 -2.89644e-10 -1.05324e-10)
(-7.48582e-10 -1.68433e-10 -1.18574e-10)
(-6.846e-10 -2.89644e-10 -1.05324e-10)
(-3.8237e-10 -3.44444e-10 -1.20111e-10)
(-1.93986e-10 -3.55302e-10 -7.35656e-11)
(-9.76156e-11 -3.42574e-10 -3.36309e-11)
(1.99638e-11 -2.50015e-10 -2.82097e-11)
(-5.59477e-10 1.43444e-12 -1.20343e-11)
(-6.18675e-10 -3.26402e-11 -3.7437e-11)
(-6.80803e-10 -7.22004e-11 -6.24891e-11)
(-6.49449e-10 -1.19659e-10 -1.01772e-10)
(-5.9862e-10 -1.85708e-10 -1.2725e-10)
(-1.93986e-10 -3.55302e-10 -7.35656e-11)
(-4.19784e-10 -3.10297e-10 -1.66233e-10)
)
;
    }
}


// ************************************************************************* //
