/*--------------------------------*- C++ -*----------------------------------*\
| =========                 |                                                 |
| \\      /  F ield         | OpenFOAM: The Open Source CFD Toolbox           |
|  \\    /   O peration     | Version:  4.x                                   |
|   \\  /    A nd           | Web:      www.OpenFOAM.org                      |
|    \\/     M anipulation  |                                                 |
\*---------------------------------------------------------------------------*/
FoamFile
{
    version     2.0;
    format      ascii;
    class       volScalarField;
    location    "43";
    object      KslPrev;
}
// * * * * * * * * * * * * * * * * * * * * * * * * * * * * * * * * * * * * * //

dimensions      [1 -3 -1 0 0 0 0];

internalField   nonuniform List<scalar> 
114
(
3599.72
33125.8
4114.78
1e+10
5706.13
84277.8
2.71659e+07
3745.64
3.49841e+06
3834.73
74267.7
4209.29
12640.9
4154.9
1e+10
4192.5
1e+10
4280.56
1e+10
4801.95
14835.4
7186.19
3068.59
7398.72
2932.43
8020.01
2761.96
9329.49
2433.65
7956.85
32293.7
3552
76201.2
3495.28
124520
3445.97
29154.9
3481.68
6680.19
852769
3697.86
1e+10
3644.81
125962
3511.8
31018
3567.96
12268.7
1e+10
3844.53
7750.19
3209.98
8244.22
3126.3
9004.66
3054.18
11513.5
3012.2
15526.5
15181.5
3474.52
18215.8
3352
22279.2
3245.07
22918.2
3062.24
11182.5
79663.8
3651.77
1e+10
3687.7
1e+10
3843.04
35384.4
4095.07
7082.66
49641.7
3624.4
78584.4
3527.68
4844.91
2730.71
4607.19
2535.87
4539.18
2258.48
4765.6
1787.5
5209.61
6136.03
2982.41
6012.03
2800.38
6141.75
2587.02
7065.78
2312.81
9833.38
7191.82
3107.77
7266.88
2953.5
7269.74
2726.75
7484.03
2286.03
7341.09
7464
3124.24
7760.6
3016.56
8376.16
2822.74
)
;

boundaryField
{
    inlet
    {
        type            zeroGradient;
    }
    outlet
    {
        type            zeroGradient;
    }
    wall
    {
        type            zeroGradient;
    }
    procBoundary5to1
    {
        type            processor;
        value           uniform 0;
    }
    procBoundary5to4
    {
        type            processor;
        value           uniform 0;
    }
    procBoundary5to7
    {
        type            processor;
        value           uniform 0;
    }
}


// ************************************************************************* //
