/*--------------------------------*- C++ -*----------------------------------*\
| =========                 |                                                 |
| \\      /  F ield         | OpenFOAM: The Open Source CFD Toolbox           |
|  \\    /   O peration     | Version:  4.x                                   |
|   \\  /    A nd           | Web:      www.OpenFOAM.org                      |
|    \\/     M anipulation  |                                                 |
\*---------------------------------------------------------------------------*/
FoamFile
{
    version     2.0;
    format      ascii;
    class       surfaceScalarField;
    location    "53.5";
    object      phi;
}
// * * * * * * * * * * * * * * * * * * * * * * * * * * * * * * * * * * * * * //

dimensions      [0 3 -1 0 0 0 0];

internalField   nonuniform List<scalar> 
192
(
2.86864e-07
-6.4003e-08
7.48029e-06
8.4666e-08
-1.24556e-07
1.54398e-07
-1.30942e-07
9.39954e-06
-2.68245e-07
9.47693e-06
-3.07456e-07
-2.58214e-07
7.21561e-06
3.64787e-07
7.5837e-08
6.87377e-06
1.46307e-07
2.66178e-08
6.01408e-06
3.42934e-07
1.18505e-07
5.73416e-06
9.26094e-08
3.70809e-08
5.18933e-06
1.77176e-07
1.03872e-07
5.02004e-06
5.2191e-08
3.69469e-08
4.98753e-06
-2.1993e-08
6.75574e-09
4.89169e-06
2.28134e-08
3.73631e-08
-1.62792e-07
-2.73664e-08
7.61475e-06
4.83336e-07
4.44737e-08
7.37302e-06
1.90746e-07
1.49818e-09
6.81923e-06
4.67718e-07
7.80614e-08
6.61017e-06
1.35726e-07
-1.73132e-08
6.13972e-06
2.8485e-07
7.65061e-08
5.98125e-06
8.05453e-08
-1.00111e-08
5.59249e-06
1.05539e-07
5.52746e-08
5.46443e-06
2.5446e-08
8.75238e-10
-1.27132e-07
2.13019e-08
8.28951e-06
-9.63897e-09
8.2841e-06
-3.53531e-08
8.37237e-06
3.18465e-09
8.27781e-06
-6.51859e-08
8.19648e-06
9.6595e-09
8.09985e-06
-8.30099e-08
7.93253e-06
4.61514e-09
7.75298e-06
-1.02456e-07
3.56714e-08
7.56344e-06
4.36114e-07
3.15337e-07
7.34557e-06
1.87572e-07
1.15428e-07
6.83361e-06
4.49796e-07
3.21081e-07
6.67658e-06
1.32433e-07
9.57596e-08
6.26883e-06
3.47869e-07
2.61972e-07
6.12736e-06
9.42863e-08
7.42276e-08
5.79188e-06
2.46798e-07
1.3582e-07
5.66397e-06
6.34922e-08
8.22487e-08
1.68999e-07
9.16209e-08
7.96179e-06
4.49055e-07
2.33012e-07
7.84767e-06
2.06177e-07
9.70056e-08
7.68926e-06
4.35169e-07
2.51105e-07
7.59619e-06
1.4751e-07
6.06755e-08
7.4667e-06
3.37721e-07
2.16149e-07
7.35602e-06
1.34913e-07
6.00335e-08
7.18983e-06
2.71347e-07
1.96919e-07
7.13701e-06
9.24155e-08
2.47715e-08
1.77212e-07
1.0675e-07
8.44959e-06
1.53094e-07
8.57045e-06
4.99609e-08
8.85158e-06
1.57226e-07
8.88051e-06
5.33887e-08
9.08321e-06
1.44682e-07
9.12087e-06
1.42492e-08
9.27984e-06
1.1699e-07
9.29386e-06
-2.4059e-08
7.93701e-08
8.21724e-06
3.55327e-07
8.20622e-06
1.51598e-07
8.25098e-06
3.1848e-07
8.21054e-06
1.22217e-07
8.25483e-06
1.94971e-07
8.19206e-06
6.60778e-08
8.13926e-06
8.4871e-08
8.13116e-06
-1.9682e-08
-7.11072e-09
8.40767e-06
3.43936e-07
8.49415e-06
1.62122e-07
8.73422e-06
3.29512e-07
8.7684e-06
1.4872e-07
8.94672e-06
2.32792e-07
8.97625e-06
9.65856e-08
9.0986e-06
1.59435e-07
9.09241e-06
1.12864e-08
2.35472e-08
8.66029e-06
8.87238e-06
9.35912e-06
9.56122e-06
9.9387e-06
1.00495e-05
1.0326e-05
1.03132e-05
)
;

boundaryField
{
    inlet
    {
        type            calculated;
        value           uniform -8.16327e-06;
    }
    outlet
    {
        type            calculated;
        value           nonuniform 0();
    }
    wall
    {
        type            calculated;
        value           nonuniform List<scalar> 
57
(
0
-3.85186e-34
0
0
0
0
0
0
0
0
0
0
0
0
0
0
0
0
0
7.70372e-34
0
0
0
0
0
0
0
0
0
0
0
0
0
0
0
0
0
0
0
0
0
0
0
0
0
0
0
0
0
0
0
0
0
0
0
0
0
)
;
    }
    procBoundary6to0
    {
        type            processor;
        value           uniform -1.03255e-07;
    }
    procBoundary6to2
    {
        type            processor;
        value           nonuniform List<scalar> 
32
(
2.76541e-08
1.28306e-07
8.29228e-08
3.10802e-07
3.14726e-07
2.63327e-07
4.39683e-07
1.68537e-07
3.37793e-07
1.14476e-07
1.81485e-07
5.14201e-08
2.29966e-08
-5.54005e-06
-1.35947e-07
2.60212e-08
3.85491e-07
1.95793e-07
3.5095e-07
1.83249e-07
2.86277e-07
1.40124e-07
-7.43276e-06
-2.91415e-07
2.0595e-07
3.66728e-07
2.31513e-07
3.76263e-07
2.95471e-07
3.56522e-07
-9.15068e-06
2.60179e-07
)
;
    }
    procBoundary6to4
    {
        type            processor;
        value           nonuniform List<scalar> 
27
(
6.73465e-08
3.81274e-10
6.04558e-08
3.57558e-08
8.22921e-08
2.87324e-08
2.47497e-08
9.64876e-09
7.60304e-08
-7.57917e-08
-5.8507e-08
-1.40418e-07
-3.40759e-08
-9.82173e-08
9.89778e-09
-4.03751e-08
1.95304e-08
-1.27131e-08
-9.39598e-08
-2.51579e-08
-4.21533e-08
1.39773e-08
2.27096e-08
7.09289e-08
1.03742e-07
1.10033e-07
1.32036e-07
)
;
    }
    procBoundary6to7
    {
        type            processor;
        value           nonuniform List<scalar> 
12
(
5.39279e-06
7.66077e-06
9.62622e-06
4.94181e-06
5.27652e-06
7.33196e-06
5.38869e-06
7.04335e-06
9.42737e-06
8.09786e-06
9.1685e-06
1.04161e-05
)
;
    }
}


// ************************************************************************* //
