/*--------------------------------*- C++ -*----------------------------------*\
| =========                 |                                                 |
| \\      /  F ield         | OpenFOAM: The Open Source CFD Toolbox           |
|  \\    /   O peration     | Version:  4.x                                   |
|   \\  /    A nd           | Web:      www.OpenFOAM.org                      |
|    \\/     M anipulation  |                                                 |
\*---------------------------------------------------------------------------*/
FoamFile
{
    version     2.0;
    format      ascii;
    class       volScalarField;
    location    "53.5";
    object      pSmooth;
}
// * * * * * * * * * * * * * * * * * * * * * * * * * * * * * * * * * * * * * //

dimensions      [1 -1 -2 0 0 0 0];

internalField   nonuniform List<scalar> 
87
(
82.1451
38.1188
81.6132
88.6536
38.4285
81.6372
112.121
93.9124
104.833
76.3924
97.1223
58.405
89.2119
40.6457
81.8982
111.49
93.6501
104.372
75.8718
96.9401
57.6515
89.4828
39.3913
82.1031
110.904
93.39
103.84
75.7846
96.5673
57.6155
89.1926
39.4971
82.2554
111.88
93.837
104.574
76.0237
97.0477
57.963
89.5428
39.6931
82.2394
111.22
93.5332
103.962
75.7761
96.4875
57.6456
89.0838
39.277
81.8474
110.72
93.2967
103.586
75.6831
96.2165
57.5276
88.8802
39.2732
81.7656
111.401
93.6685
104.158
75.9736
96.6372
57.9114
89.1563
39.5321
81.9459
110.931
93.4281
103.757
75.7877
96.3341
57.5795
88.9378
39.3618
81.7822
110.546
93.3071
103.459
75.7036
96.1544
57.656
88.8166
39.5527
81.827
)
;

boundaryField
{
    inlet
    {
        type            zeroGradient;
    }
    outlet
    {
        type            fixedValue;
        value           nonuniform 0();
    }
    wall
    {
        type            zeroGradient;
    }
    procBoundary6to0
    {
        type            processor;
        value           uniform 82.0076;
    }
    procBoundary6to2
    {
        type            processor;
        value           nonuniform List<scalar> 
32
(
81.7876
38.5927
82.0179
88.8094
38.6764
81.8973
111.455
93.6574
104.336
75.6491
96.918
57.4884
89.4715
39.2282
39.2282
39.2282
110.825
93.183
103.647
75.1745
96.2049
56.8402
88.7788
88.7788
88.7788
110.321
92.9649
103.265
75.0974
95.9394
56.8701
56.8701
)
;
    }
    procBoundary6to4
    {
        type            processor;
        value           nonuniform List<scalar> 
27
(
111.689
93.8931
104.522
76.0124
96.9634
57.8211
89.321
39.4708
81.8195
111.742
93.7969
104.474
75.987
96.8437
57.5988
89.264
39.0043
81.9411
111.408
93.5017
104.049
75.7801
96.4207
57.3818
88.8131
39.0318
81.6628
)
;
    }
    procBoundary6to7
    {
        type            processor;
        value           nonuniform List<scalar> 
12
(
21.0096
19.1721
19.7362
23.0218
21.1436
21.2926
21.4492
20.6552
20.876
21.4073
20.9217
21.2778
)
;
    }
}


// ************************************************************************* //
