/*--------------------------------*- C++ -*----------------------------------*\
| =========                 |                                                 |
| \\      /  F ield         | OpenFOAM: The Open Source CFD Toolbox           |
|  \\    /   O peration     | Version:  4.x                                   |
|   \\  /    A nd           | Web:      www.OpenFOAM.org                      |
|    \\/     M anipulation  |                                                 |
\*---------------------------------------------------------------------------*/
FoamFile
{
    version     2.0;
    format      ascii;
    class       volScalarField;
    location    "53.5";
    object      QWallFluidCoeff;
}
// * * * * * * * * * * * * * * * * * * * * * * * * * * * * * * * * * * * * * //

dimensions      [1 -1 -3 -1 0 0 0];

internalField   nonuniform List<scalar> 
87
(
0
0
0
-2.91874e+06
-1.64113e+06
-2.98279e+06
0
0
0
0
0
0
0
0
0
0
0
0
0
0
0
0
0
0
-2.75745e+06
-1.35755e+06
-2.76639e+06
-1.37974e+06
-2.74904e+06
-1.31594e+06
-2.73917e+06
-1.20217e+06
-2.70637e+06
0
0
0
0
0
0
0
0
0
0
0
0
0
0
0
0
0
0
-2.74916e+06
-1.43792e+06
-2.8053e+06
-1.54387e+06
-2.83433e+06
-1.60549e+06
-2.87456e+06
-1.6384e+06
-2.91437e+06
-2.72016e+06
-1.3686e+06
-2.72666e+06
-1.37074e+06
-2.72973e+06
-1.36378e+06
-2.73248e+06
-1.30382e+06
-2.76407e+06
-2.73558e+06
-1.43715e+06
-2.77876e+06
-1.52508e+06
-2.80915e+06
-1.57629e+06
-2.84621e+06
-1.59328e+06
-2.87802e+06
-5.52096e+06
-3.0328e+06
-5.70084e+06
-3.41795e+06
-5.88719e+06
-3.68445e+06
-6.02083e+06
-3.84578e+06
-6.07993e+06
)
;

boundaryField
{
    inlet
    {
        type            calculated;
        value           uniform 0;
    }
    outlet
    {
        type            calculated;
        value           nonuniform 0();
    }
    wall
    {
        type            calculated;
        value           uniform 0;
    }
    procBoundary6to0
    {
        type            processor;
        value           uniform 0;
    }
    procBoundary6to2
    {
        type            processor;
        value           uniform 0;
    }
    procBoundary6to4
    {
        type            processor;
        value           uniform 0;
    }
    procBoundary6to7
    {
        type            processor;
        value           uniform 0;
    }
}


// ************************************************************************* //
