/*--------------------------------*- C++ -*----------------------------------*\
| =========                 |                                                 |
| \\      /  F ield         | OpenFOAM: The Open Source CFD Toolbox           |
|  \\    /   O peration     | Version:  4.x                                   |
|   \\  /    A nd           | Web:      www.OpenFOAM.org                      |
|    \\/     M anipulation  |                                                 |
\*---------------------------------------------------------------------------*/
FoamFile
{
    version     2.0;
    format      ascii;
    class       volVectorField;
    location    "47";
    object      impParticleForces;
}
// * * * * * * * * * * * * * * * * * * * * * * * * * * * * * * * * * * * * * //

dimensions      [1 1 -2 0 0 0 0];

internalField   nonuniform List<vector> 
108
(
(0.00229595 -2.56238e-05 -5.42069e-05)
(0.00232286 -2.60933e-05 -5.40893e-05)
(0.00238147 -2.62245e-05 -5.30643e-05)
(0.00238973 -2.30138e-05 -5.00142e-05)
(0.00242225 -1.93886e-05 -4.63079e-05)
(0.00240479 -1.37333e-05 -4.166e-05)
(0.0024342 -8.5191e-06 -3.67402e-05)
(0.00240032 -1.69038e-06 -3.12475e-05)
(0.00241736 4.40705e-06 -2.55774e-05)
(0.00234433 -2.44105e-05 -5.50499e-05)
(0.00237922 -2.53109e-05 -5.48727e-05)
(0.00244316 -2.60441e-05 -5.37468e-05)
(0.0024458 -2.25092e-05 -5.0642e-05)
(0.00246529 -1.87556e-05 -4.64748e-05)
(0.00243892 -1.29976e-05 -4.15443e-05)
(0.002458 -8.08342e-06 -3.65121e-05)
(0.00241708 -1.55122e-06 -3.11822e-05)
(0.00244979 3.83105e-06 -2.58915e-05)
(0.00236583 -1.68852e-05 -5.54e-05)
(0.00241222 -1.79285e-05 -5.55686e-05)
(0.00245743 -1.78006e-05 -5.36424e-05)
(0.00244893 -1.48768e-05 -5.02229e-05)
(0.00246342 -1.2026e-05 -4.5729e-05)
(0.00242877 -7.48979e-06 -4.08272e-05)
(0.00244355 -3.49973e-06 -3.60211e-05)
(0.00241383 9.29965e-07 -3.09751e-05)
(0.002417 5.19263e-06 -2.60287e-05)
(0.00235335 -4.77262e-06 -5.5181e-05)
(0.00240423 -5.10134e-06 -5.50392e-05)
(0.00245692 -4.62966e-06 -5.35294e-05)
(0.00243677 -3.25985e-06 -4.98726e-05)
(0.00246057 -1.92132e-06 -4.57099e-05)
(0.00242838 2.74755e-07 -4.09257e-05)
(0.0024531 2.44123e-06 -3.62018e-05)
(0.00239399 4.59724e-06 -3.12273e-05)
(0.00240232 6.66884e-06 -2.66941e-05)
(0.00228252 -2.52629e-05 -4.29479e-05)
(0.00230725 -2.55328e-05 -4.22853e-05)
(0.00236065 -2.51967e-05 -4.06935e-05)
(0.00238023 -2.25531e-05 -3.86226e-05)
(0.00241557 -1.91855e-05 -3.56146e-05)
(0.00238546 -1.39968e-05 -3.20545e-05)
(0.0024079 -9.48305e-06 -2.76927e-05)
(0.0023981 -4.58487e-06 -2.33676e-05)
(0.0024187 -2.92239e-07 -1.83638e-05)
(0.00233277 -2.42848e-05 -4.25407e-05)
(0.00235988 -2.4611e-05 -4.17668e-05)
(0.00241343 -2.46097e-05 -3.97405e-05)
(0.00241523 -2.13009e-05 -3.79267e-05)
(0.00244352 -1.81162e-05 -3.45972e-05)
(0.0024173 -1.30025e-05 -3.12498e-05)
(0.00243969 -8.97418e-06 -2.697e-05)
(0.0024225 -4.33606e-06 -2.28665e-05)
(0.00244605 -5.68541e-07 -1.81963e-05)
(0.00234001 -1.62691e-05 -4.2293e-05)
(0.00238242 -1.71058e-05 -4.12566e-05)
(0.00244469 -1.73717e-05 -3.86456e-05)
(0.00243286 -1.45406e-05 -3.66544e-05)
(0.00246004 -1.21319e-05 -3.32045e-05)
(0.00242579 -8.18572e-06 -3.01418e-05)
(0.0024347 -4.83722e-06 -2.62674e-05)
(0.00240142 -1.3733e-06 -2.28041e-05)
(0.0024195 1.42755e-06 -1.88472e-05)
(0.00235565 -4.92633e-06 -4.19948e-05)
(0.0023945 -4.98175e-06 -4.08445e-05)
(0.00243585 -4.5412e-06 -3.85416e-05)
(0.00243509 -3.40915e-06 -3.61542e-05)
(0.00246182 -2.37737e-06 -3.26021e-05)
(0.00242659 -7.05684e-07 -2.98732e-05)
(0.00244772 8.63134e-07 -2.60104e-05)
(0.00239265 2.37731e-06 -2.33427e-05)
(0.00239885 3.61649e-06 -2.01321e-05)
(0.00226145 -2.43235e-05 -3.68384e-05)
(0.0022736 -2.41661e-05 -3.60217e-05)
(0.00230279 -2.31549e-05 -3.45651e-05)
(0.00232305 -2.05407e-05 -3.27343e-05)
(0.0023678 -1.76333e-05 -2.96501e-05)
(0.00236732 -1.35564e-05 -2.64935e-05)
(0.00239034 -9.60124e-06 -2.22152e-05)
(0.00237134 -5.53379e-06 -1.85428e-05)
(0.00238187 -2.05864e-06 -1.40957e-05)
(0.00229558 -2.26752e-05 -3.62692e-05)
(0.00232452 -2.31259e-05 -3.50485e-05)
(0.00236543 -2.26506e-05 -3.30191e-05)
(0.00236237 -1.93275e-05 -3.15608e-05)
(0.00239978 -1.65997e-05 -2.84779e-05)
(0.00238947 -1.24649e-05 -2.56362e-05)
(0.00239905 -8.77583e-06 -2.17791e-05)
(0.00238107 -5.0791e-06 -1.84208e-05)
(0.00239128 -2.08029e-06 -1.44782e-05)
(0.00231546 -1.552e-05 -3.56682e-05)
(0.00233881 -1.57337e-05 -3.43953e-05)
(0.00238694 -1.56732e-05 -3.198e-05)
(0.00238075 -1.32206e-05 -3.04116e-05)
(0.00241114 -1.11369e-05 -2.73002e-05)
(0.00239131 -7.92568e-06 -2.48489e-05)
(0.00239643 -5.08788e-06 -2.13847e-05)
(0.00237531 -2.49384e-06 -1.85291e-05)
(0.00237497 -3.8307e-07 -1.53144e-05)
(0.00233522 -4.85569e-06 -3.52026e-05)
(0.00234404 -4.58392e-06 -3.41639e-05)
(0.00238856 -4.37986e-06 -3.18059e-05)
(0.00239217 -3.57663e-06 -2.98742e-05)
(0.00242193 -2.61757e-06 -2.67976e-05)
(0.00239782 -1.23387e-06 -2.45698e-05)
(0.00238484 1.30287e-07 -2.19407e-05)
(0.0023597 1.18874e-06 -1.95592e-05)
(0.00236477 1.92112e-06 -1.67928e-05)
)
;

boundaryField
{
    inlet
    {
        type            zeroGradient;
    }
    outlet
    {
        type            zeroGradient;
    }
    wall
    {
        type            zeroGradient;
    }
    procBoundary4to0
    {
        type            processor;
        value           nonuniform List<vector> 
36
(
(0.00229863 -2.4984e-05 -6.74161e-05)
(0.00232857 -2.55608e-05 -6.78387e-05)
(0.00238663 -2.54573e-05 -6.7506e-05)
(0.00238535 -2.18032e-05 -6.28483e-05)
(0.00242277 -1.80022e-05 -5.88081e-05)
(0.00242163 -1.20797e-05 -5.31994e-05)
(0.00243929 -5.32404e-06 -4.74193e-05)
(0.00240545 3.65191e-06 -4.07168e-05)
(0.00242144 1.29983e-05 -3.46473e-05)
(0.00234256 -2.36426e-05 -6.95312e-05)
(0.00239344 -2.51548e-05 -7.08948e-05)
(0.00244527 -2.51517e-05 -7.00229e-05)
(0.00244481 -2.13468e-05 -6.53104e-05)
(0.00246263 -1.72661e-05 -6.0156e-05)
(0.00244705 -1.11665e-05 -5.36411e-05)
(0.00248261 -5.41613e-06 -4.82614e-05)
(0.0024344 2.84027e-06 -4.11332e-05)
(0.00244925 1.11304e-05 -3.5133e-05)
(0.00236281 -1.61487e-05 -7.05476e-05)
(0.00239706 -1.65626e-05 -7.11582e-05)
(0.00246225 -1.66662e-05 -7.10055e-05)
(0.00244744 -1.36522e-05 -6.5492e-05)
(0.0024737 -1.07515e-05 -6.05176e-05)
(0.00245165 -5.98719e-06 -5.35107e-05)
(0.00246862 -9.98318e-07 -4.74868e-05)
(0.00241434 4.57187e-06 -4.02389e-05)
(0.00243138 1.02281e-05 -3.42452e-05)
(0.00236132 -4.58955e-06 -7.04904e-05)
(0.00240612 -4.41893e-06 -7.17491e-05)
(0.00247238 -3.79833e-06 -7.16683e-05)
(0.00246225 -2.28439e-06 -6.64021e-05)
(0.00246507 -5.05416e-07 -6.04586e-05)
(0.0024526 1.61234e-06 -5.38128e-05)
(0.00246369 4.11962e-06 -4.75479e-05)
(0.00240691 7.19269e-06 -4.02733e-05)
(0.00240148 1.0274e-05 -3.41365e-05)
)
;
    }
    procBoundary4to5
    {
        type            processor;
        value           nonuniform List<vector> 
12
(
(0.0023899 1.06019e-05 -2.05113e-05)
(0.00241725 9.3003e-06 -2.08555e-05)
(0.00239643 8.76743e-06 -2.14327e-05)
(0.0023895 8.35456e-06 -2.2546e-05)
(0.00238377 4.18345e-06 -1.46543e-05)
(0.00240165 3.48027e-06 -1.47044e-05)
(0.00238538 3.93078e-06 -1.56517e-05)
(0.00237566 4.58303e-06 -1.71292e-05)
(0.00233378 1.52385e-06 -1.12994e-05)
(0.00236887 6.51283e-07 -1.13259e-05)
(0.0023528 1.32053e-06 -1.25692e-05)
(0.00234745 2.30006e-06 -1.4375e-05)
)
;
    }
    procBoundary4to6
    {
        type            processor;
        value           nonuniform List<vector> 
27
(
(0.00238848 8.2135e-06 -5.57144e-05)
(0.00241327 8.54485e-06 -5.51778e-05)
(0.00243699 9.17896e-06 -5.3365e-05)
(0.00243292 8.95095e-06 -5.00391e-05)
(0.00246005 9.14727e-06 -4.64091e-05)
(0.00241997 8.6105e-06 -4.13877e-05)
(0.00243929 8.58925e-06 -3.68875e-05)
(0.00239594 8.48885e-06 -3.22645e-05)
(0.00241725 8.33149e-06 -2.81161e-05)
(0.0023643 7.74115e-06 -4.16159e-05)
(0.00239302 8.38892e-06 -4.07325e-05)
(0.00243288 8.97203e-06 -3.84965e-05)
(0.00241896 8.38019e-06 -3.66424e-05)
(0.00243265 8.1949e-06 -3.36754e-05)
(0.00241508 7.55035e-06 -3.07836e-05)
(0.00243573 7.3786e-06 -2.74004e-05)
(0.00238583 6.66726e-06 -2.46634e-05)
(0.00240998 6.22921e-06 -2.1679e-05)
(0.0023208 6.82721e-06 -3.52827e-05)
(0.00233249 7.08662e-06 -3.44362e-05)
(0.00238348 7.5853e-06 -3.20877e-05)
(0.00237533 7.08428e-06 -3.06527e-05)
(0.00239252 6.82909e-06 -2.80556e-05)
(0.00238292 6.33638e-06 -2.57437e-05)
(0.0024121 5.87778e-06 -2.25277e-05)
(0.00236826 5.23161e-06 -2.06981e-05)
(0.00236885 4.66894e-06 -1.83913e-05)
)
;
    }
}


// ************************************************************************* //
