/*--------------------------------*- C++ -*----------------------------------*\
| =========                 |                                                 |
| \\      /  F ield         | OpenFOAM: The Open Source CFD Toolbox           |
|  \\    /   O peration     | Version:  4.x                                   |
|   \\  /    A nd           | Web:      www.OpenFOAM.org                      |
|    \\/     M anipulation  |                                                 |
\*---------------------------------------------------------------------------*/
FoamFile
{
    version     2.0;
    format      ascii;
    class       volScalarField;
    location    "47";
    object      magGField;
}
// * * * * * * * * * * * * * * * * * * * * * * * * * * * * * * * * * * * * * //

dimensions      [1 -2 -1 0 0 0 0];

internalField   nonuniform List<scalar> 
108
(
96.212
41.0011
97.583
43.7311
99.4045
45.5821
101.016
46.0569
102.853
94.551
33.5745
92.4046
26.5382
91.082
21.7421
91.311
17.1261
91.7007
94.2339
29.958
89.8344
19.5254
87.9651
12.1435
87.654
4.45557
87.7492
94.4773
29.8584
89.2235
17.996
86.4286
7.67775
84.818
0.515559
84.4408
96.0877
41.2895
97.6899
43.4154
98.806
45.0772
100.257
44.1724
100.081
95.2249
36.5316
94.3776
33.3493
93.6297
29.9474
93.1573
25.2829
93.0663
94.8865
32.3822
91.102
23.7644
88.9035
16.6128
88.3966
10.0274
88.6027
93.6575
31.3905
90.1586
21.8905
87.8404
14.4738
87.3542
9.0494
88.3347
96.4798
45.7601
101.673
53.8628
105.004
58.2558
107.411
61.8522
111.363
95.7399
41.7117
97.741
46.0285
100.071
48.7577
102.113
50.8577
104.838
94.6048
39.0843
94.8521
40.0205
96.1465
41.5329
98.0179
43.3948
100.306
93.4249
38.146
93.9349
37.7055
94.7428
39.0811
97.288
42.2646
99.9769
)
;

boundaryField
{
    inlet
    {
        type            calculated;
        value           uniform 67;
    }
    outlet
    {
        type            calculated;
        value           nonuniform 0();
    }
    wall
    {
        type            calculated;
        value           uniform 0;
    }
    procBoundary4to0
    {
        type            processor;
        value           nonuniform List<scalar> 
36
(
97.2415
40.3989
98.9699
43.5213
100.361
44.5579
101.302
43.5703
101.207
96.2202
32.8879
94.0002
26.6779
92.3063
20.2637
90.8154
12.6562
90.3627
95.4025
28.8124
90.4482
15.5103
86.6315
4.32718
83.9956
3.44325e-05
81.282
95.1876
30.2078
90.9805
19.3626
89.4676
12.418
88.8114
8.20546
88.5014
)
;
    }
    procBoundary4to5
    {
        type            processor;
        value           nonuniform List<scalar> 
12
(
45.431
10.0923
0.000748222
3.81117e-05
41.9314
21.4619
3.97957
5.94345
66.4033
52.5208
44.4156
42.6146
)
;
    }
    procBoundary4to6
    {
        type            processor;
        value           nonuniform List<scalar> 
27
(
92.0926
26.4231
87.1039
11.9358
83.4402
2.03407
81.9149
3.59816e-05
81.212
93.0541
31.0469
90.0014
22.0201
88.2315
14.3299
87.0518
7.49321
86.486
94.6548
40.158
94.9899
40.3018
95.199
40.1939
95.4477
38.4021
97.0846
)
;
    }
}


// ************************************************************************* //
