/*--------------------------------*- C++ -*----------------------------------*\
| =========                 |                                                 |
| \\      /  F ield         | OpenFOAM: The Open Source CFD Toolbox           |
|  \\    /   O peration     | Version:  4.x                                   |
|   \\  /    A nd           | Web:      www.OpenFOAM.org                      |
|    \\/     M anipulation  |                                                 |
\*---------------------------------------------------------------------------*/
FoamFile
{
    version     2.0;
    format      ascii;
    class       volScalarField;
    location    "47";
    object      QPartFluid;
}
// * * * * * * * * * * * * * * * * * * * * * * * * * * * * * * * * * * * * * //

dimensions      [1 -1 -3 0 0 0 0];

internalField   nonuniform List<scalar> 
108
(
4.92445e+09
7.10865e+09
8.42674e+09
5.98019e+09
7.15788e+09
5.99311e+09
8.94407e+09
6.87394e+09
9.65069e+09
7.01809e+09
7.29808e+09
9.38935e+09
1.00429e+10
1.01173e+10
8.59453e+09
8.14428e+09
5.77688e+09
1.11098e+10
6.68854e+09
1.02793e+10
8.31734e+09
9.37457e+09
8.1278e+09
6.31097e+09
7.31195e+09
1.02996e+10
6.74416e+09
3.458e+09
6.7325e+09
9.39861e+09
5.70724e+09
8.80351e+09
6.67328e+09
1.10293e+10
5.99153e+09
7.0668e+09
5.06366e+09
5.48888e+09
8.05436e+09
8.33329e+09
8.5264e+09
5.46025e+09
5.57686e+09
7.53088e+09
9.58018e+09
6.24696e+09
7.6007e+09
7.55616e+09
7.59414e+09
7.74247e+09
6.81306e+09
8.50757e+09
9.26989e+09
1.05041e+10
4.19569e+09
7.32435e+09
1.00303e+10
8.28949e+09
9.68045e+09
8.2539e+09
8.18563e+09
7.15301e+09
8.63644e+09
6.20479e+09
8.58427e+09
7.54349e+09
9.64802e+09
1.05227e+10
7.6076e+09
1.18373e+10
8.47103e+09
8.13938e+09
4.55276e+09
6.29998e+09
4.44495e+09
6.05396e+09
6.3509e+09
8.01353e+09
8.02142e+09
6.51717e+09
8.20879e+09
4.87551e+09
9.00955e+09
7.1277e+09
5.84724e+09
7.47168e+09
7.7122e+09
7.38524e+09
6.22656e+09
8.58378e+09
5.23373e+09
7.46225e+09
8.46382e+09
7.17197e+09
6.71449e+09
6.93092e+09
7.37374e+09
7.94095e+09
7.05414e+09
7.25334e+09
7.01177e+09
6.70095e+09
7.97646e+09
8.44172e+09
9.53697e+09
4.97179e+09
5.17832e+09
7.09187e+09
)
;

boundaryField
{
    inlet
    {
        type            calculated;
        value           uniform 0;
    }
    outlet
    {
        type            calculated;
        value           nonuniform 0();
    }
    wall
    {
        type            calculated;
        value           uniform 0;
    }
    procBoundary4to0
    {
        type            processor;
        value           nonuniform List<scalar> 
36
(
4.35451e+09
4.98776e+09
6.76932e+09
5.18524e+09
7.08482e+09
7.77152e+09
5.90239e+09
4.32896e+09
6.03876e+09
5.13688e+09
9.59552e+09
9.093e+09
8.08648e+09
7.19985e+09
6.62652e+09
1.04302e+10
7.18231e+09
6.92894e+09
5.18869e+09
5.58416e+09
9.05233e+09
6.10281e+09
8.69507e+09
8.40137e+09
8.24262e+09
4.94434e+09
9.33357e+09
4.8281e+09
6.73258e+09
9.8338e+09
1.02303e+10
5.51369e+09
9.8231e+09
8.56681e+09
5.55966e+09
2.62007e+09
)
;
    }
    procBoundary4to5
    {
        type            processor;
        value           nonuniform List<scalar> 
12
(
6.6491e+09
8.10865e+09
8.51178e+09
1.02766e+10
7.25687e+09
6.19741e+09
7.41398e+09
5.30031e+09
2.48993e+09
6.96882e+09
6.09013e+09
7.20051e+09
)
;
    }
    procBoundary4to6
    {
        type            processor;
        value           nonuniform List<scalar> 
27
(
9.95338e+09
8.95442e+09
6.08394e+09
7.99029e+09
1.1071e+10
6.08359e+09
8.7045e+09
6.66809e+09
9.96385e+09
7.34962e+09
9.00267e+09
9.65972e+09
8.63839e+09
6.6717e+09
7.89428e+09
7.93543e+09
6.11841e+09
9.5738e+09
4.91291e+09
5.41109e+09
7.43652e+09
7.03633e+09
7.17661e+09
6.52532e+09
1.03149e+10
8.73535e+09
4.54685e+09
)
;
    }
}


// ************************************************************************* //
