/*--------------------------------*- C++ -*----------------------------------*\
| =========                 |                                                 |
| \\      /  F ield         | OpenFOAM: The Open Source CFD Toolbox           |
|  \\    /   O peration     | Version:  4.x                                   |
|   \\  /    A nd           | Web:      www.OpenFOAM.org                      |
|    \\/     M anipulation  |                                                 |
\*---------------------------------------------------------------------------*/
FoamFile
{
    version     2.0;
    format      ascii;
    class       volScalarField;
    location    "47";
    object      Qsource;
}
// * * * * * * * * * * * * * * * * * * * * * * * * * * * * * * * * * * * * * //

dimensions      [1 -1 -3 0 0 0 0];

internalField   nonuniform List<scalar> 
108
(
5.75126e+09
7.52653e+09
9.26296e+09
6.42019e+09
8.00656e+09
6.44794e+09
9.80374e+09
7.33257e+09
1.05228e+10
7.01809e+09
7.29808e+09
9.38935e+09
1.00429e+10
1.01173e+10
8.59453e+09
8.14428e+09
5.77688e+09
1.11098e+10
6.68854e+09
1.02793e+10
8.31734e+09
9.37457e+09
8.1278e+09
6.31097e+09
7.31195e+09
1.02996e+10
6.74416e+09
3.458e+09
6.7325e+09
9.39861e+09
5.70724e+09
8.80351e+09
6.67328e+09
1.10293e+10
5.99153e+09
7.0668e+09
5.88961e+09
5.90912e+09
8.8913e+09
8.77075e+09
9.37099e+09
5.91105e+09
6.43136e+09
7.97443e+09
1.04335e+10
6.24696e+09
7.6007e+09
7.55616e+09
7.59414e+09
7.74247e+09
6.81306e+09
8.50757e+09
9.26989e+09
1.05041e+10
4.19569e+09
7.32435e+09
1.00303e+10
8.28949e+09
9.68045e+09
8.2539e+09
8.18563e+09
7.15301e+09
8.63644e+09
6.20479e+09
8.58427e+09
7.54349e+09
9.64802e+09
1.05227e+10
7.6076e+09
1.18373e+10
8.47103e+09
8.13938e+09
6.21005e+09
7.21249e+09
6.17323e+09
7.09359e+09
8.12432e+09
9.12046e+09
9.82729e+09
7.67844e+09
1.00676e+10
5.69907e+09
9.43322e+09
7.965e+09
6.30563e+09
8.32491e+09
8.19222e+09
8.25237e+09
6.72304e+09
9.46937e+09
6.04947e+09
7.86443e+09
9.28126e+09
7.58184e+09
7.54084e+09
7.35314e+09
8.21294e+09
8.37824e+09
7.90897e+09
8.06093e+09
7.40621e+09
7.51206e+09
8.36725e+09
9.25841e+09
9.93912e+09
5.80599e+09
5.60648e+09
7.94446e+09
)
;

boundaryField
{
    inlet
    {
        type            calculated;
        value           uniform 0;
    }
    outlet
    {
        type            calculated;
        value           nonuniform 0();
    }
    wall
    {
        type            calculated;
        value           uniform 0;
    }
    procBoundary4to0
    {
        type            processor;
        value           nonuniform List<scalar> 
36
(
5.18839e+09
5.40072e+09
7.61503e+09
5.62355e+09
7.94003e+09
8.21816e+09
6.76401e+09
4.76766e+09
6.89972e+09
5.13688e+09
9.59552e+09
9.093e+09
8.08648e+09
7.19985e+09
6.62652e+09
1.04302e+10
7.18231e+09
6.92894e+09
5.18869e+09
5.58416e+09
9.05233e+09
6.10281e+09
8.69507e+09
8.40137e+09
8.24262e+09
4.94434e+09
9.33357e+09
4.8281e+09
6.73258e+09
9.8338e+09
1.02303e+10
5.51369e+09
9.8231e+09
8.56681e+09
5.55966e+09
2.62007e+09
)
;
    }
    procBoundary4to5
    {
        type            processor;
        value           nonuniform List<scalar> 
12
(
7.10273e+09
8.10865e+09
8.51178e+09
1.02766e+10
7.68233e+09
6.19741e+09
7.41398e+09
5.30031e+09
3.71907e+09
7.47825e+09
6.53562e+09
7.6315e+09
)
;
    }
    procBoundary4to6
    {
        type            processor;
        value           nonuniform List<scalar> 
27
(
9.95338e+09
8.95442e+09
6.08394e+09
7.99029e+09
1.1071e+10
6.08359e+09
8.7045e+09
6.66809e+09
9.96385e+09
7.34962e+09
9.00267e+09
9.65972e+09
8.63839e+09
6.6717e+09
7.89428e+09
7.93543e+09
6.11841e+09
9.5738e+09
5.72899e+09
5.82209e+09
8.25491e+09
7.4485e+09
7.99644e+09
6.93661e+09
1.11364e+10
9.13191e+09
5.37964e+09
)
;
    }
}


// ************************************************************************* //
