/*--------------------------------*- C++ -*----------------------------------*\
| =========                 |                                                 |
| \\      /  F ield         | OpenFOAM: The Open Source CFD Toolbox           |
|  \\    /   O peration     | Version:  4.x                                   |
|   \\  /    A nd           | Web:      www.OpenFOAM.org                      |
|    \\/     M anipulation  |                                                 |
\*---------------------------------------------------------------------------*/
FoamFile
{
    version     2.0;
    format      ascii;
    class       volVectorField;
    location    "53.5";
    object      Urel;
}
// * * * * * * * * * * * * * * * * * * * * * * * * * * * * * * * * * * * * * //

dimensions      [0 1 -1 0 0 0 0];

internalField   nonuniform List<vector> 
108
(
(-0.0230366 7.76104e-05 0.000421599)
(-0.0244965 7.1779e-05 0.000356619)
(-0.0232332 8.67335e-05 0.000283387)
(-0.0247082 0.000129383 0.00018972)
(-0.0230481 0.000226365 0.000218417)
(-0.0244744 0.000280195 0.000116616)
(-0.0220146 0.000511613 0.000524419)
(-0.0232664 0.000437755 0.00055296)
(-0.0190241 0.00124949 0.00188258)
(-0.0227549 4.72596e-05 0.000372032)
(-0.024221 4.87213e-05 0.000282782)
(-0.022767 7.06142e-05 0.000197482)
(-0.0241916 6.75223e-05 5.29506e-05)
(-0.0222835 6.25317e-05 6.22279e-05)
(-0.0234975 2.0967e-05 -8.08051e-05)
(-0.020818 -5.09536e-05 0.000250685)
(-0.0214989 -0.000122671 0.00036197)
(-0.0180562 -0.000392268 0.00119628)
(-0.0238995 -4.38385e-05 0.000357167)
(-0.0253559 -2.37391e-05 0.000268837)
(-0.0241788 3.29914e-06 0.000156057)
(-0.0256305 -5.87819e-06 4.60019e-05)
(-0.0240515 -0.000128759 -1.44149e-05)
(-0.0254915 -0.000169793 -7.41239e-05)
(-0.0230716 -0.000593101 0.000184889)
(-0.0243971 -0.000545945 0.000498664)
(-0.0198696 -0.00206826 0.00154861)
(-0.0251726 8.32833e-05 0.000375118)
(-0.0265224 0.000143495 0.000291161)
(-0.0255659 0.000242291 0.000187666)
(-0.0268765 0.000248235 9.76452e-05)
(-0.0255437 0.000246386 4.54922e-05)
(-0.0268469 0.000118841 2.18083e-05)
(-0.0246953 -5.47764e-05 0.000265622)
(-0.0258604 -0.000414936 0.00079649)
(-0.0211328 -0.00103385 0.0025667)
(-0.0205411 4.04279e-05 0.000395977)
(-0.022362 2.49715e-05 0.00031377)
(-0.0205393 3.74881e-05 0.000267492)
(-0.0224537 5.17589e-05 0.000143715)
(-0.0203742 9.05843e-05 0.00020705)
(-0.0222182 0.000136374 4.10154e-05)
(-0.0197132 0.000190824 0.000462817)
(-0.0211784 0.0002708 0.000373345)
(-0.0178625 0.000400456 0.00206361)
(-0.0204175 1.01489e-05 0.000368351)
(-0.0222913 5.92437e-06 0.000265983)
(-0.0203666 3.00825e-05 0.000215544)
(-0.0222861 3.14741e-05 8.59211e-05)
(-0.0201595 1.91074e-05 0.000121177)
(-0.0218732 1.08338e-05 -7.91972e-06)
(-0.0193968 -0.000114583 0.00033074)
(-0.0204409 -9.95644e-05 0.00039116)
(-0.0175329 -0.00076939 0.00143055)
(-0.0217511 -4.17823e-05 0.000445749)
(-0.0235008 -1.91707e-05 0.000363394)
(-0.021922 9.06732e-06 0.000328033)
(-0.0237591 4.40833e-05 0.000192114)
(-0.0219396 -8.97871e-05 0.000295763)
(-0.0238028 -5.55339e-05 0.000107572)
(-0.0214289 -0.000565674 0.00064838)
(-0.0230353 -0.000492767 0.00060257)
(-0.0189531 -0.00235443 0.00250449)
(-0.0233358 6.66313e-05 0.000513903)
(-0.0247961 0.00012844 0.000439033)
(-0.0235573 0.000223793 0.000420252)
(-0.0250545 0.000246429 0.00031607)
(-0.023488 0.000240877 0.000410625)
(-0.0250836 0.000136753 0.000277661)
(-0.0228234 -0.000100212 0.000746025)
(-0.0244541 -0.000486819 0.000926798)
(-0.0199129 -0.00133194 0.00325381)
(-0.0187977 5.96532e-05 0.000339633)
(-0.0206845 4.76957e-05 0.00025245)
(-0.0187326 6.17333e-05 0.000239506)
(-0.0206671 6.92673e-05 0.000139288)
(-0.0185912 0.000106542 0.000200629)
(-0.0203646 0.00010147 5.49491e-05)
(-0.0180606 0.000170954 0.000372638)
(-0.0192799 7.89393e-05 0.000261753)
(-0.0168487 0.000391066 0.00152875)
(-0.0187191 1.8601e-05 0.000294671)
(-0.0206429 3.88389e-05 0.000213057)
(-0.018678 4.01268e-05 0.000190023)
(-0.0205882 4.06282e-05 0.000100748)
(-0.0185366 1.70224e-05 0.000123384)
(-0.0202719 -5.30719e-05 5.21191e-06)
(-0.0179784 -0.000141235 0.000255513)
(-0.0190938 -0.000286855 0.000267418)
(-0.0167012 -0.000656286 0.00103113)
(-0.0197597 -1.13474e-05 0.000355749)
(-0.0216739 4.07772e-05 0.000300611)
(-0.0197446 5.39863e-05 0.00027106)
(-0.0217236 8.03699e-05 0.000201991)
(-0.0197162 -9.94973e-06 0.000251307)
(-0.0216094 -4.8656e-05 0.000169888)
(-0.019376 -0.000407343 0.000517242)
(-0.0206763 -0.000465846 0.000511436)
(-0.0177982 -0.00180833 0.00176378)
(-0.0214559 3.92252e-05 0.000450087)
(-0.0229475 0.000111148 0.000388896)
(-0.0214308 0.000168214 0.000384855)
(-0.0229758 0.000218479 0.000306266)
(-0.0212106 0.000147701 0.000396387)
(-0.0228122 0.000102784 0.000305271)
(-0.0205648 -0.000194697 0.000675099)
(-0.022058 -0.000436468 0.000724933)
(-0.0182818 -0.00124555 0.00205556)
)
;

boundaryField
{
    inlet
    {
        type            calculated;
        value           nonuniform 0();
    }
    outlet
    {
        type            calculated;
        value           nonuniform List<vector> 
12
(
(-0.00902803 0.0116038 0.00534737)
(-9.8401e-09 -1.27673e-09 5.77255e-10)
(-0.00969962 -0.0144252 -1.86175e-05)
(-0.0134154 0.00103876 0.0093183)
(-0.00565796 0.000856843 0.0107721)
(-0.0037014 -0.00317123 0.00150875)
(-0.00786202 -0.0189199 0.0148569)
(-0.00938927 -0.00211461 0.0188618)
(-0.00785784 0.00420225 0.00911662)
(-0.0037791 0.000154525 0.000519598)
(-0.00999517 -0.0111853 0.00705084)
(-0.00604551 -0.00360089 0.00522289)
)
;
    }
    wall
    {
        type            calculated;
        value           nonuniform List<vector> 
63
(
(1.89047e-09 -3.09028e-09 1.38815e-09)
(1.32707e-09 -1.26932e-09 6.25443e-10)
(1.16702e-09 -1.84153e-10 2.44622e-10)
(5.80918e-10 -2.06487e-10 6.08559e-11)
(2.3488e-09 -4.92634e-09 1.96598e-09)
(1.19113e-09 -1.35302e-09 5.0622e-10)
(1.38008e-09 -8.30585e-10 2.38988e-10)
(9.09301e-10 -5.79623e-10 -8.35497e-11)
(2.12691e-09 -4.82146e-09 8.35416e-10)
(1.20623e-09 -1.29181e-09 2.83151e-10)
(8.63821e-10 -3.89706e-10 3.86024e-11)
(7.81959e-10 -1.05862e-09 -3.05954e-11)
(1.26256e-09 -1.7771e-09 3.70929e-10)
(1.10283e-09 -7.86245e-10 -3.77212e-11)
(9.04938e-10 -3.14796e-10 -1.49031e-10)
(5.61824e-10 -9.89755e-11 -2.97758e-11)
(6.56551e-10 -9.86884e-10 -1.93363e-10)
(7.48827e-10 -5.25154e-10 -2.44743e-10)
(6.88886e-10 -3.18091e-10 -1.93247e-10)
(7.00979e-10 -4.01993e-11 -4.14551e-11)
(1.14257e-09 -6.43475e-10 -4.40549e-10)
(3.3075e-10 -3.53463e-10 -4.71649e-10)
(-7.89423e-11 -8.56937e-11 -4.3145e-10)
(3.33465e-10 1.41234e-10 -4.51249e-10)
(1.36398e-09 -5.54956e-10 2.48476e-11)
(-1.01319e-10 -3.17364e-10 -2.49382e-10)
(-6.22902e-10 1.56565e-10 -2.40917e-10)
(3.00125e-09 1.00481e-09 -3.59808e-10)
(-3.52596e-09 -9.08228e-10 6.2913e-10)
(-1.86123e-09 -6.27384e-10 -3.03418e-10)
(-3.06899e-09 -6.62756e-10 -1.282e-09)
(2.88515e-09 1.11186e-09 -1.76134e-09)
(-2.03319e-09 -4.91881e-10 9.7598e-10)
(-3.98182e-09 -1.55786e-11 1.73892e-10)
(-1.90326e-09 7.28319e-09 -2.70481e-09)
(-1.72793e-09 3.07923e-07 -1.23812e-08)
(5.80918e-10 -2.06487e-10 6.08559e-11)
(6.89984e-10 -1.36244e-10 1.5292e-10)
(6.72869e-10 -1.96451e-10 1.3878e-10)
(9.09301e-10 -5.79623e-10 -8.35497e-11)
(9.64208e-10 -3.18404e-10 6.91798e-12)
(7.33046e-10 -1.69392e-10 5.7751e-11)
(7.81959e-10 -1.05862e-09 -3.05954e-11)
(5.95374e-10 -1.97526e-10 -4.53847e-11)
(7.088e-10 -2.02079e-11 5.06639e-11)
(5.61824e-10 -9.89755e-11 -2.97758e-11)
(6.04836e-10 -1.68803e-10 -3.46521e-11)
(5.50882e-10 1.45057e-10 3.79544e-11)
(7.00979e-10 -4.01993e-11 -4.14551e-11)
(6.27564e-10 -4.53219e-11 -7.36678e-11)
(4.88712e-10 -5.56063e-12 -2.74398e-11)
(3.33465e-10 1.41234e-10 -4.51249e-10)
(8.07578e-10 -1.28905e-10 -1.09868e-10)
(2.67541e-10 6.30144e-11 2.03693e-11)
(3.00125e-09 1.00481e-09 -3.59808e-10)
(7.094e-10 2.54871e-10 -4.98799e-10)
(-7.41927e-11 4.27294e-11 -2.59299e-10)
(2.88515e-09 1.11186e-09 -1.76134e-09)
(2.52549e-10 2.91275e-10 -1.91507e-09)
(-2.32167e-10 -1.05532e-10 -1.21522e-09)
(-1.72793e-09 3.07923e-07 -1.23812e-08)
(-2.89366e-10 9.45641e-11 -7.33269e-09)
(-1.11851e-10 -7.73513e-10 -2.49711e-09)
)
;
    }
    procBoundary3to1
    {
        type            processor;
        value           nonuniform List<vector> 
27
(
(-0.0232844 6.53485e-05 0.000502045)
(-0.024732 2.80431e-05 0.000444115)
(-0.0234876 7.67442e-06 0.000408722)
(-0.0249812 1.17781e-05 0.000328405)
(-0.0234184 8.9062e-05 0.000445984)
(-0.0249378 0.000134831 0.000334497)
(-0.0227414 0.000386466 0.000884422)
(-0.0241428 0.000441115 0.000815471)
(-0.019924 0.00121596 0.00266305)
(-0.0207065 5.62689e-05 0.000407199)
(-0.0225563 1.78261e-05 0.000323164)
(-0.0206629 1.54455e-05 0.000289137)
(-0.0226121 -5.36712e-06 0.000199084)
(-0.0205401 5.71767e-05 0.000256823)
(-0.0223546 8.20242e-05 0.000165901)
(-0.0200586 0.00022537 0.000556947)
(-0.0213002 0.000327595 0.000606462)
(-0.0185198 0.000719058 0.0023572)
(-0.0190823 7.41734e-05 0.000343256)
(-0.0209697 3.33172e-05 0.00025807)
(-0.01902 3.02821e-05 0.00024968)
(-0.0209644 -7.26259e-06 0.000173922)
(-0.018901 6.52798e-05 0.0002286)
(-0.0207003 3.81489e-05 0.000135796)
(-0.0184611 0.000248965 0.000441901)
(-0.0196997 0.000181098 0.000373069)
(-0.0172854 0.00096409 0.00149571)
)
;
    }
    procBoundary3to2
    {
        type            processor;
        value           nonuniform List<vector> 
12
(
(-0.0241087 7.93986e-05 0.000536653)
(-0.0239461 1.91033e-05 0.000498327)
(-0.0248603 -9.48971e-05 0.000477392)
(-0.0259009 -1.47909e-05 0.00048413)
(-0.0221869 4.72831e-05 0.000486321)
(-0.0221636 -1.36979e-05 0.00045552)
(-0.0231747 -0.000111024 0.000538946)
(-0.0243755 -3.39624e-05 0.000587671)
(-0.0206624 5.78521e-05 0.000399715)
(-0.0206456 1.86445e-05 0.000357105)
(-0.021578 -5.25358e-05 0.000412899)
(-0.0228011 -4.68076e-05 0.000489531)
)
;
    }
    procBoundary3to7
    {
        type            processor;
        value           nonuniform List<vector> 
36
(
(-0.0177685 2.26193e-05 0.000225721)
(-0.0196782 4.6236e-06 0.000174491)
(-0.0176681 1.25549e-05 0.000150336)
(-0.0195791 6.87824e-06 8.14533e-05)
(-0.0174502 3.37043e-05 5.96417e-05)
(-0.019236 1.70964e-05 -4.75309e-05)
(-0.0169027 5.47825e-05 2.58175e-05)
(-0.0181391 0.000105893 -0.000109104)
(-0.0159046 -5.82116e-05 0.000388252)
(-0.0179421 2.16416e-07 0.000231257)
(-0.019886 1.44744e-05 0.000194344)
(-0.0178675 2.81248e-05 0.00016644)
(-0.0197751 3.64036e-05 0.000110453)
(-0.0177225 7.03272e-06 0.000110554)
(-0.0194584 1.13673e-05 1.92036e-05)
(-0.0173438 -0.000200015 0.000137132)
(-0.0184498 -0.000127922 6.15435e-05)
(-0.0163104 -0.0010917 0.00037653)
(-0.0193105 -4.84002e-05 0.000330285)
(-0.0210296 1.07182e-05 0.000287826)
(-0.0192556 1.87747e-06 0.000312012)
(-0.0210186 6.5035e-05 0.000261977)
(-0.0190886 -5.54782e-05 0.000334991)
(-0.0208211 5.14336e-05 0.000250142)
(-0.0185252 -0.000329873 0.000487682)
(-0.0199142 -0.000143898 0.00034249)
(-0.0167577 -0.00133489 0.00106363)
(-0.0207225 5.82385e-05 0.000435448)
(-0.0221535 0.000117356 0.000408483)
(-0.0206053 0.000165017 0.000432752)
(-0.0220731 0.000190733 0.000374132)
(-0.020265 0.000156106 0.000473423)
(-0.0217467 0.000100021 0.000338553)
(-0.0194248 -7.15621e-05 0.000684668)
(-0.0206989 -0.000275862 0.000497246)
(-0.0171401 -0.000684001 0.00152348)
)
;
    }
}


// ************************************************************************* //
