/*--------------------------------*- C++ -*----------------------------------*\
| =========                 |                                                 |
| \\      /  F ield         | OpenFOAM: The Open Source CFD Toolbox           |
|  \\    /   O peration     | Version:  4.x                                   |
|   \\  /    A nd           | Web:      www.OpenFOAM.org                      |
|    \\/     M anipulation  |                                                 |
\*---------------------------------------------------------------------------*/
FoamFile
{
    version     2.0;
    format      ascii;
    class       volScalarField;
    location    "9";
    object      Cs;
}
// * * * * * * * * * * * * * * * * * * * * * * * * * * * * * * * * * * * * * //

dimensions      [1 -3 0 0 0 0 0];

internalField   nonuniform List<scalar> 
108
(
335
334.999
334.996
334.989
334.977
334.962
334.943
334.924
334.903
335
334.998
334.993
334.981
334.962
334.941
334.929
334.934
334.958
335
334.998
334.993
334.979
334.958
334.937
334.926
334.933
334.957
335
334.998
334.992
334.978
334.956
334.933
334.92
334.927
334.95
335
334.999
334.996
334.991
334.982
334.971
334.957
334.943
334.931
335
334.999
334.995
334.987
334.973
334.957
334.944
334.944
334.957
335
334.999
334.995
334.985
334.97
334.953
334.94
334.939
334.952
335
334.999
334.994
334.985
334.968
334.95
334.935
334.932
334.944
335
334.999
334.996
334.99
334.981
334.969
334.955
334.942
334.93
335
334.999
334.996
334.989
334.979
334.966
334.952
334.94
334.932
335
334.999
334.996
334.989
334.978
334.965
334.95
334.938
334.93
335
334.999
334.995
334.988
334.977
334.963
334.948
334.936
334.928
)
;

boundaryField
{
    inlet
    {
        type            calculated;
        value           uniform 335;
    }
    outlet
    {
        type            calculated;
        value           nonuniform 0();
    }
    wall
    {
        type            calculated;
        value           nonuniform List<scalar> 
63
(
335
335
335
335
334.999
334.999
334.999
334.999
334.996
334.996
334.996
334.995
334.99
334.989
334.989
334.988
334.981
334.979
334.978
334.977
334.969
334.966
334.965
334.963
334.955
334.952
334.95
334.948
334.942
334.94
334.938
334.936
334.93
334.932
334.93
334.928
335
335
335
334.999
334.999
334.999
334.996
334.996
334.996
334.989
334.991
334.99
334.977
334.982
334.981
334.962
334.971
334.969
334.943
334.957
334.955
334.924
334.943
334.942
334.903
334.931
334.93
)
;
    }
    procBoundary4to0
    {
        type            processor;
        value           nonuniform List<scalar> 
36
(
335
334.999
334.994
334.986
334.97
334.948
334.918
334.886
334.849
335
334.998
334.992
334.979
334.956
334.93
334.905
334.898
334.907
335
334.998
334.991
334.973
334.947
334.92
334.901
334.905
334.927
335
334.998
334.99
334.97
334.94
334.91
334.888
334.887
334.903
)
;
    }
    procBoundary4to5
    {
        type            processor;
        value           nonuniform List<scalar> 
12
(
334.889
335.005
334.995
334.987
334.923
334.987
334.977
334.97
334.921
334.927
334.924
334.924
)
;
    }
    procBoundary4to6
    {
        type            processor;
        value           nonuniform List<scalar> 
27
(
335
334.998
334.992
334.977
334.957
334.937
334.93
334.942
334.97
335
334.999
334.994
334.984
334.968
334.95
334.939
334.941
334.955
335
334.999
334.996
334.989
334.978
334.964
334.949
334.936
334.925
)
;
    }
}


// ************************************************************************* //
