/*--------------------------------*- C++ -*----------------------------------*\
| =========                 |                                                 |
| \\      /  F ield         | OpenFOAM: The Open Source CFD Toolbox           |
|  \\    /   O peration     | Version:  4.x                                   |
|   \\  /    A nd           | Web:      www.OpenFOAM.org                      |
|    \\/     M anipulation  |                                                 |
\*---------------------------------------------------------------------------*/
FoamFile
{
    version     2.0;
    format      ascii;
    class       volVectorField;
    location    "9";
    object      GField;
}
// * * * * * * * * * * * * * * * * * * * * * * * * * * * * * * * * * * * * * //

dimensions      [1 -2 -1 0 0 0 0];

internalField   nonuniform List<vector> 
108
(
(92.8543 -3.93636 -3.95514)
(43.1172 -2.23768 -2.96123)
(93.2725 -4.88678 -4.35204)
(44.8234 -2.30136 -2.98595)
(93.9882 -4.21506 -2.40546)
(46.1838 -1.66104 -1.63088)
(94.763 -2.94205 -0.0102586)
(47.4919 -1.362 0.00930092)
(96.8711 -1.86415 4.21523)
(91.3421 -4.60278 -3.67931)
(33.547 -2.11296 -2.26887)
(86.8814 -4.5949 -3.68687)
(21.4883 -1.29194 -1.46394)
(83.3277 -3.0281 -1.29307)
(12.4033 -0.556447 -0.338584)
(82.1372 -2.08864 0.782522)
(6.9244 -0.345552 -0.142738)
(81.988 -0.828365 0.938476)
(90.7371 -2.72529 -3.52257)
(32.1194 -1.66528 -2.12133)
(84.9641 -2.59189 -2.97472)
(19.8276 -1.11286 -1.02821)
(81.982 -1.77441 -0.0793176)
(12.0065 -0.806507 -0.107102)
(81.047 -1.08238 1.7295)
(5.98312 -0.446189 -0.038277)
(80.4624 -0.412785 0.964887)
(90.9361 -1.10531 -3.74328)
(31.5836 0.0142805 -1.93291)
(83.9147 -0.481463 -2.87227)
(18.3138 -0.164371 -1.15918)
(80.0323 -0.291121 -0.442141)
(9.1462 -0.0420404 -0.137398)
(77.8053 0.210544 1.15911)
(3.1613 -0.00839889 -0.049234)
(77.0494 0.0812984 0.941003)
(92.4214 -3.36159 -0.0435861)
(44.5073 -1.97513 -0.299041)
(93.9598 -3.85242 0.167323)
(47.0535 -2.005 -0.800573)
(95.5223 -3.84188 0.53326)
(50.5781 -2.10672 0.0235621)
(98.3988 -3.56968 2.5245)
(53.6497 -1.6886 1.8336)
(101.238 -2.38582 5.1083)
(91.6347 -3.95751 0.997199)
(37.7816 -2.14253 0.262758)
(89.2198 -3.91865 2.34681)
(31.3315 -1.34272 0.341121)
(87.3709 -2.81518 3.17033)
(25.3025 -0.745526 0.734482)
(85.9984 -1.59284 4.31052)
(18.9179 -0.23031 0.90311)
(84.8994 -1.13463 3.62686)
(90.9617 -3.19203 1.1515)
(36.1788 -1.59927 0.331503)
(86.899 -2.83188 2.06443)
(28.2764 -1.21938 0.639354)
(85.0024 -1.64109 3.08089)
(23.5824 -0.76593 1.16187)
(84.9641 -0.679549 4.53769)
(20.7534 -0.701808 1.64118)
(85.4177 -0.744288 3.37423)
(89.9584 -1.27075 0.792889)
(34.1427 -0.064491 0.802123)
(85.2859 -0.59007 2.38586)
(24.4575 -0.105086 0.835198)
(82.1106 -0.498601 3.83914)
(18.1691 -0.279935 1.52101)
(80.4263 -0.397281 5.24084)
(13.0561 -0.22469 1.37132)
(78.7417 -0.425572 3.79921)
(92.9965 -2.86936 0.174684)
(47.146 -1.79247 0.0321612)
(96.8614 -2.88664 0.197505)
(52.7518 -1.368 -0.482309)
(98.7633 -2.11467 -0.288119)
(55.7217 -0.958036 -0.651741)
(100.624 -1.42022 0.753101)
(59.918 -0.784515 0.40565)
(105.174 -0.817286 2.18328)
(92.3061 -3.49855 0.672519)
(43.1901 -1.99487 0.296357)
(92.9451 -3.11968 1.30266)
(45.9876 -1.11579 0.41245)
(94.4143 -1.61021 1.76716)
(49.3164 -0.525853 0.806144)
(96.7076 -0.846812 3.1989)
(54.632 -0.278284 1.40224)
(100.509 -0.642997 3.26254)
(91.0723 -2.93158 0.670093)
(41.5257 -1.44071 0.440371)
(90.4423 -2.73179 1.22461)
(41.8643 -1.36962 0.453552)
(91.623 -1.5281 1.52435)
(44.8974 -0.7146 0.551319)
(94.534 -0.611771 2.22178)
(50.9791 -1.01166 0.911128)
(98.9872 -1.17485 2.43152)
(89.8272 -0.414119 0.899876)
(40.3338 -0.117723 0.638759)
(89.1786 -0.778848 1.53112)
(38.8794 -0.477405 0.740177)
(89.2277 -1.03483 2.17662)
(41.2994 -0.745412 1.39431)
(92.0533 -1.56806 3.71156)
(48.2816 -0.923143 1.92304)
(95.4728 -2.26359 3.51364)
)
;

boundaryField
{
    inlet
    {
        type            calculated;
        value           uniform (67 0 0);
    }
    outlet
    {
        type            calculated;
        value           nonuniform 0();
    }
    wall
    {
        type            calculated;
        value           uniform (0 0 0);
    }
    procBoundary4to0
    {
        type            processor;
        value           nonuniform List<vector> 
36
(
(93.3993 -3.58771 -6.37142)
(43.9643 -2.05441 -4.67538)
(95.4457 -4.09762 -6.93885)
(47.665 -1.8751 -4.42036)
(97.4331 -3.53683 -4.36873)
(50.6543 -1.78839 -2.4696)
(100.362 -3.4164 0.0980655)
(55.7666 -1.32365 0.907064)
(105.623 -2.35109 6.56544)
(92.4802 -4.28948 -6.95577)
(35.8093 -2.13749 -4.20635)
(89.7553 -4.62487 -7.10799)
(29.6664 -1.52589 -2.88555)
(87.9316 -3.40718 -2.76956)
(25.2328 -0.885419 -0.715343)
(87.5883 -2.33582 1.80144)
(22.585 -0.380555 0.263938)
(89.3628 -1.40201 2.71088)
(91.5615 -3.12146 -6.61721)
(34.2003 -1.73352 -3.94479)
(87.4616 -3.43513 -5.84297)
(24.2915 -1.10045 -2.06036)
(85.3668 -1.93569 -1.30204)
(18.2367 -0.626862 -0.352357)
(85.6595 -0.5093 1.87619)
(16.6026 -0.504615 -0.00320154)
(87.4519 -0.220239 2.46555)
(91.581 -0.992114 -6.27043)
(32.6595 -0.210496 -3.92681)
(86.2889 -0.35244 -5.74782)
(21.4334 0.0952565 -2.03064)
(84.4919 0.131528 -1.35172)
(17.1131 0.0285851 -0.527662)
(84.5506 -0.0261787 2.29837)
(17.8007 -0.0529117 -0.0302044)
(85.6323 0.162432 2.56169)
)
;
    }
    procBoundary4to5
    {
        type            processor;
        value           nonuniform List<vector> 
12
(
(49.9934 -1.07823 3.29792)
(3.1009 -0.252304 -0.165214)
(2.7265 -0.396403 -0.169255)
(-0.000465481 -4.38783e-05 7.20656e-05)
(57.5272 -1.77055 3.99249)
(13.5339 -0.466759 0.264576)
(17.1286 -1.72689 1.24023)
(7.62495 -0.245325 0.812331)
(66.9078 -0.826263 0.620667)
(60.1713 -1.04218 0.648298)
(56.6933 -2.90002 0.360072)
(53.1326 -2.26111 2.37623)
)
;
    }
    procBoundary4to6
    {
        type            processor;
        value           nonuniform List<vector> 
27
(
(88.7443 1.81599 -3.67887)
(30.3939 1.26878 -1.84946)
(83.6278 2.2829 -3.16044)
(16.979 0.755265 -1.03725)
(80.3577 1.52072 -0.69567)
(8.53022 0.465847 -0.246799)
(79.7112 0.902411 1.12975)
(4.49301 0.270717 -0.126467)
(79.7163 0.495395 0.0337906)
(89.0744 2.14907 1.77023)
(34.1721 1.09065 0.194522)
(85.4156 2.10251 1.79678)
(25.0366 0.894602 0.489662)
(83.7784 1.28625 2.49359)
(19.2063 0.489108 0.688319)
(83.1455 0.793263 2.79571)
(15.7136 0.439533 0.940563)
(83.2705 0.723023 0.915364)
(91.1705 2.51228 1.54444)
(42.298 1.12197 0.427108)
(90.5468 2.06192 1.06703)
(40.694 0.901414 0.137253)
(90.0412 1.08618 1.0056)
(39.9696 0.345209 0.322016)
(90.2275 -0.0610561 1.09496)
(39.1114 0.130793 0.496993)
(91.8848 -0.381359 0.644751)
)
;
    }
}


// ************************************************************************* //
