/*--------------------------------*- C++ -*----------------------------------*\
| =========                 |                                                 |
| \\      /  F ield         | OpenFOAM: The Open Source CFD Toolbox           |
|  \\    /   O peration     | Version:  4.x                                   |
|   \\  /    A nd           | Web:      www.OpenFOAM.org                      |
|    \\/     M anipulation  |                                                 |
\*---------------------------------------------------------------------------*/
FoamFile
{
    version     2.0;
    format      ascii;
    class       volScalarField;
    location    "9";
    object      QWallFluidCoeff;
}
// * * * * * * * * * * * * * * * * * * * * * * * * * * * * * * * * * * * * * //

dimensions      [1 -1 -3 -1 0 0 0];

internalField   nonuniform List<scalar> 
108
(
-2.68266e+06
-1.45445e+06
-2.69372e+06
-1.50012e+06
-2.70781e+06
-1.53366e+06
-2.7238e+06
-1.56724e+06
-2.77361e+06
0
0
0
0
0
0
0
0
0
0
0
0
0
0
0
0
0
0
0
0
0
0
0
0
0
0
0
-2.67021e+06
-1.48865e+06
-2.7061e+06
-1.55646e+06
-2.742e+06
-1.6488e+06
-2.80822e+06
-1.72872e+06
-2.87416e+06
0
0
0
0
0
0
0
0
0
0
0
0
0
0
0
0
0
0
0
0
0
0
0
0
0
0
0
-5.3662e+06
-3.11698e+06
-5.54374e+06
-3.40917e+06
-5.6297e+06
-3.56141e+06
-5.7139e+06
-3.77408e+06
-5.92025e+06
-2.66772e+06
-1.45339e+06
-2.68231e+06
-1.52731e+06
-2.71543e+06
-1.61494e+06
-2.76866e+06
-1.75297e+06
-2.85529e+06
-2.63874e+06
-1.40793e+06
-2.62413e+06
-1.41703e+06
-2.65093e+06
-1.49811e+06
-2.71813e+06
-1.65857e+06
-2.82027e+06
-2.60882e+06
-1.37492e+06
-2.594e+06
-1.33525e+06
-2.59552e+06
-1.40187e+06
-2.66233e+06
-1.58877e+06
-2.74116e+06
)
;

boundaryField
{
    inlet
    {
        type            calculated;
        value           uniform 0;
    }
    outlet
    {
        type            calculated;
        value           nonuniform 0();
    }
    wall
    {
        type            calculated;
        value           uniform 0;
    }
    procBoundary4to0
    {
        type            processor;
        value           uniform 0;
    }
    procBoundary4to5
    {
        type            processor;
        value           uniform 0;
    }
    procBoundary4to6
    {
        type            processor;
        value           uniform 0;
    }
}


// ************************************************************************* //
