/*--------------------------------*- C++ -*----------------------------------*\
| =========                 |                                                 |
| \\      /  F ield         | OpenFOAM: The Open Source CFD Toolbox           |
|  \\    /   O peration     | Version:  4.x                                   |
|   \\  /    A nd           | Web:      www.OpenFOAM.org                      |
|    \\/     M anipulation  |                                                 |
\*---------------------------------------------------------------------------*/
FoamFile
{
    version     2.0;
    format      ascii;
    class       volScalarField;
    location    "5";
    object      Deff;
}
// * * * * * * * * * * * * * * * * * * * * * * * * * * * * * * * * * * * * * //

dimensions      [0 2 -1 0 0 0 0];

internalField   nonuniform List<scalar> 
114
(
9.79878e-08
9.78864e-08
9.78814e-08
9.78393e-08
9.78214e-08
9.78279e-08
9.79956e-08
9.80008e-08
9.79322e-08
9.78483e-08
9.77489e-08
9.77263e-08
9.7793e-08
9.7926e-08
9.79703e-08
9.78566e-08
9.78543e-08
9.78502e-08
9.77479e-08
9.77901e-08
9.77262e-08
9.80699e-08
9.8084e-08
9.7922e-08
9.79175e-08
9.78049e-08
9.77481e-08
9.77324e-08
9.77899e-08
9.782e-08
9.79576e-08
9.7916e-08
9.77977e-08
9.77869e-08
9.76789e-08
9.76462e-08
9.77092e-08
9.76227e-08
9.77229e-08
9.78725e-08
9.79561e-08
9.7795e-08
9.77104e-08
9.76901e-08
9.76369e-08
9.76019e-08
9.76156e-08
9.7697e-08
9.77935e-08
9.78939e-08
9.80057e-08
9.78822e-08
9.78931e-08
9.77935e-08
9.77408e-08
9.77195e-08
9.76938e-08
9.77033e-08
9.77756e-08
9.79739e-08
9.78247e-08
9.7849e-08
9.7749e-08
9.76454e-08
9.76212e-08
9.75569e-08
9.76491e-08
9.77503e-08
9.78542e-08
9.78332e-08
9.773e-08
9.76953e-08
9.74999e-08
9.75449e-08
9.75034e-08
9.74998e-08
9.7551e-08
9.79633e-08
9.77023e-08
9.76041e-08
9.76173e-08
9.825e-08
9.80138e-08
9.80633e-08
9.78513e-08
9.78227e-08
9.78547e-08
9.7753e-08
9.77674e-08
9.78184e-08
9.8027e-08
9.79327e-08
9.7999e-08
9.78474e-08
9.76929e-08
9.77073e-08
9.77742e-08
9.76996e-08
9.77681e-08
9.79371e-08
9.78686e-08
9.77027e-08
9.76996e-08
9.76304e-08
9.7553e-08
9.76345e-08
9.76289e-08
9.7656e-08
9.79023e-08
9.78592e-08
9.76813e-08
9.76867e-08
9.75065e-08
9.75777e-08
)
;

boundaryField
{
    inlet
    {
        type            calculated;
        value           nonuniform 0();
    }
    outlet
    {
        type            calculated;
        value           uniform 0;
    }
    wall
    {
        type            calculated;
        value           uniform 0;
    }
    procBoundary5to1
    {
        type            processor;
        value           uniform 0;
    }
    procBoundary5to4
    {
        type            processor;
        value           uniform 0;
    }
    procBoundary5to7
    {
        type            processor;
        value           uniform 0;
    }
}


// ************************************************************************* //
