/*--------------------------------*- C++ -*----------------------------------*\
| =========                 |                                                 |
| \\      /  F ield         | OpenFOAM: The Open Source CFD Toolbox           |
|  \\    /   O peration     | Version:  4.x                                   |
|   \\  /    A nd           | Web:      www.OpenFOAM.org                      |
|    \\/     M anipulation  |                                                 |
\*---------------------------------------------------------------------------*/
FoamFile
{
    version     2.0;
    format      ascii;
    class       volScalarField;
    location    "5";
    object      magGField;
}
// * * * * * * * * * * * * * * * * * * * * * * * * * * * * * * * * * * * * * //

dimensions      [1 -2 -1 0 0 0 0];

internalField   nonuniform List<scalar> 
114
(
136.198
67.5792
147.642
53.6851
179.189
111.729
5.16052
95.1522
2.30303
106.366
19.5164
121.531
97.231
93.7931
5.72233
92.6291
13.4723
99.9198
35.7271
92.6935
86.3336
56.281
117.192
52.4325
119.892
42.1663
126.05
41.9705
119.257
48.5896
13.2182
61.7767
12.7404
57.4606
12.9891
78.9751
7.18963
77.8796
37.737
1.02648
88.7265
10.0293
87.2323
30.9437
77.8605
18.2993
49.729
33.5807
14.506
71.4934
73.0486
128.857
77.4633
136.996
73.3869
147.145
59.8825
166.018
66.8357
6.84495
78.5539
2.62954
94.9614
5.53966
109.224
11.5708
116.572
70.1387
6.7259
94.43
11.2011
98.102
5.8488
100.019
9.65098
97.6522
43.3916
10.8007
86.3203
3.1068
82.0382
80.7073
132.788
87.5612
144.712
90.1921
165.333
86.6527
212.295
91.4321
60.453
118.971
58.6111
121.189
49.7435
119.296
39.3418
112.948
101.046
71.1404
119.858
64.1379
118.101
43.9867
112.412
26.2525
101.12
22.1834
59.429
112.647
45.2253
108.492
27.1199
108.441
)
;

boundaryField
{
    inlet
    {
        type            calculated;
        value           nonuniform 0();
    }
    outlet
    {
        type            calculated;
        value           nonuniform List<scalar> 
12
(
243.962
213.662
190.529
106.614
83.292
74.2452
146.944
154.53
96.7349
199.493
222.345
49.1198
)
;
    }
    wall
    {
        type            calculated;
        value           uniform 0;
    }
    procBoundary5to1
    {
        type            processor;
        value           nonuniform List<scalar> 
32
(
123.599
50.6669
136.78
45.2543
157.804
94.9776
2.65829
100.595
8.51458
104.022
3.56674
112.119
36.7383
97.8692
11.5452
95.4258
14.5837
104.594
14.5814
125.428
44.9407
79.2504
133.033
76.5849
76.5849
76.5849
11.5821
94.7574
94.7574
94.7574
7.45919
7.45919
)
;
    }
    procBoundary5to4
    {
        type            processor;
        value           nonuniform List<scalar> 
12
(
110.566
70.558
88.7009
75.6324
117.835
84.5472
93.3099
87.3241
120.142
111.062
114.78
110.714
)
;
    }
    procBoundary5to7
    {
        type            processor;
        value           nonuniform List<scalar> 
44
(
86.9179
12.1156
74.0142
12.1001
73.2935
21.1476
27.5988
66.9352
15.4098
86.9179
11.5314
59.7149
11.6315
12.7268
73.0774
52.8744
107.115
1.1701
11.5314
87.295
11.5314
59.7149
5.30248
85.1346
20.6248
65.7299
46.4409
14.9795
94.7408
1.98346
5.30248
95.5458
5.30248
85.1346
31.1464
121.844
23.6273
22.6977
93.971
4.94098
92.0409
1.67133
31.1464
95.2217
)
;
    }
}


// ************************************************************************* //
