/*--------------------------------*- C++ -*----------------------------------*\
| =========                 |                                                 |
| \\      /  F ield         | OpenFOAM: The Open Source CFD Toolbox           |
|  \\    /   O peration     | Version:  4.x                                   |
|   \\  /    A nd           | Web:      www.OpenFOAM.org                      |
|    \\/     M anipulation  |                                                 |
\*---------------------------------------------------------------------------*/
FoamFile
{
    version     2.0;
    format      ascii;
    class       volScalarField;
    location    "5";
    object      pSmooth;
}
// * * * * * * * * * * * * * * * * * * * * * * * * * * * * * * * * * * * * * //

dimensions      [1 -1 -2 0 0 0 0];

internalField   nonuniform List<scalar> 
114
(
79.7007
4.66556
74.1295
1.40182
74.71
0.1172
9.79099
78.6215
4.3833
70.7989
1.26211
68.2648
0.108002
88.4221
10.1566
78.8626
3.82624
72.7006
1.06061
71.2551
0.1
30.4269
87.6549
9.55337
79.7364
4.84426
73.2682
1.57327
71.2393
0.136495
34.1879
87.4686
9.60607
81.5333
4.68493
71.1338
1.47634
66.6709
0.131132
32.3191
87.7256
9.72972
78.6997
4.42388
74.4812
1.33929
71.0082
0.128885
36.3792
88.1332
27.2925
86.9305
9.46473
78.517
5.00062
73.8018
1.72956
74.5105
0.165291
29.1591
89.2551
9.48879
77.3393
4.92521
72.2266
1.66887
67.7374
0.15662
28.9404
86.7465
9.5218
79.9334
4.80874
74.2542
1.58544
71.6092
0.137841
31.0664
88.1868
9.52181
78.8537
27.8418
86.4743
9.41837
78.2806
5.08861
73.3294
1.8221
76.287
0.188341
27.5629
87.1049
9.43046
78.6219
5.046
72.3234
1.77943
67.5095
0.149206
28.0964
86.388
9.44253
78.2016
4.98564
73.5641
1.72151
71.7288
0.147388
28.9241
86.7394
9.44514
78.5862
4.94519
72.917
)
;

boundaryField
{
    inlet
    {
        type            zeroGradient;
    }
    outlet
    {
        type            fixedValue;
        value           uniform 0;
    }
    wall
    {
        type            zeroGradient;
    }
    procBoundary5to1
    {
        type            processor;
        value           nonuniform List<scalar> 
32
(
80.0692
4.56315
73.2439
1.28357
71.0941
0.1
9.8454
78.5582
4.20884
69.9956
1.1179
65.1861
0.1
87.711
10.4154
77.8261
3.40678
72.307
0.883954
69.4917
0.1
28.8588
88.3903
9.65035
9.65035
9.65035
28.9519
88.084
88.084
88.084
30.3291
30.3291
)
;
    }
    procBoundary5to4
    {
        type            processor;
        value           nonuniform List<scalar> 
12
(
98.8408
100.555
99.3968
99.2705
98.0018
100.601
100.174
98.9947
97.014
97.5213
97.2935
97.3629
)
;
    }
    procBoundary5to7
    {
        type            processor;
        value           nonuniform List<scalar> 
44
(
87.9228
10.3648
78.599
3.4735
72.1153
0.93945
69.7965
0.105583
32.4156
87.9228
14.2652
80.742
4.27473
77.4806
1.25095
68.1919
0.126652
31.4093
14.2652
87.932
14.2652
80.742
4.74673
72.3952
1.52926
65.47
0.122647
29.6939
88.5571
9.52742
4.74673
79.2432
4.74673
72.3952
1.68185
68.4863
0.176508
29.9732
88.8892
9.44584
77.7396
4.93244
1.68185
73.0861
)
;
    }
}


// ************************************************************************* //
