/*--------------------------------*- C++ -*----------------------------------*\
| =========                 |                                                 |
| \\      /  F ield         | OpenFOAM: The Open Source CFD Toolbox           |
|  \\    /   O peration     | Version:  4.x                                   |
|   \\  /    A nd           | Web:      www.OpenFOAM.org                      |
|    \\/     M anipulation  |                                                 |
\*---------------------------------------------------------------------------*/
FoamFile
{
    version     2.0;
    format      ascii;
    class       volScalarField;
    location    "5";
    object      SPartFluid;
}
// * * * * * * * * * * * * * * * * * * * * * * * * * * * * * * * * * * * * * //

dimensions      [1 -3 -1 0 0 0 0];

internalField   nonuniform List<scalar> 
114
(
6.81874e-65
8.05727e-65
6.35159e-65
6.73687e-65
7.58719e-65
8.43684e-65
6.81868e-65
5.65596e-65
5.80993e-65
6.65964e-65
8.2057e-65
8.51228e-65
7.89114e-65
8.4454e-65
6.04362e-65
7.43683e-65
5.80908e-65
4.56838e-65
6.96551e-65
5.72473e-65
8.66158e-65
6.27579e-65
4.88169e-65
6.97382e-65
5.42398e-65
6.43038e-65
6.81667e-65
7.12486e-65
5.65235e-65
5.96043e-65
7.12762e-65
6.81842e-65
8.52322e-65
7.12794e-65
8.36619e-65
8.13141e-65
5.26507e-65
8.59073e-65
6.88658e-65
8.21161e-65
4.57133e-65
7.28329e-65
7.59235e-65
6.19639e-65
7.04612e-65
7.12086e-65
6.88595e-65
5.56968e-65
9.99314e-65
4.41631e-65
6.66342e-65
8.21373e-65
6.74152e-65
7.36125e-65
6.97316e-65
6.89499e-65
6.6612e-65
7.28007e-65
6.58119e-65
5.34598e-65
8.36825e-65
6.19877e-65
7.12832e-65
7.12746e-65
7.04835e-65
9.13773e-65
6.42599e-65
5.49573e-65
8.05692e-65
6.3533e-65
7.05085e-65
5.96572e-65
1.01475e-64
7.35715e-65
8.20626e-65
8.90009e-65
8.66594e-65
3.56359e-65
9.37496e-65
8.98775e-65
7.97997e-65
2.63468e-65
6.89677e-65
4.57211e-65
7.12919e-65
6.04387e-65
4.95854e-65
6.97207e-65
6.27437e-65
6.0411e-65
6.04356e-65
6.8964e-65
4.18443e-65
5.65648e-65
7.43787e-65
6.50713e-65
4.56955e-65
7.04676e-65
6.03902e-65
6.27546e-65
6.27619e-65
8.52334e-65
6.89594e-65
5.88771e-65
8.05509e-65
6.50461e-65
6.73534e-65
6.81131e-65
7.20502e-65
5.50121e-65
7.2834e-65
5.65592e-65
9.68319e-65
7.74492e-65
)
;

boundaryField
{
    inlet
    {
        type            calculated;
        value           nonuniform 0();
    }
    outlet
    {
        type            calculated;
        value           uniform 0;
    }
    wall
    {
        type            calculated;
        value           uniform 0;
    }
    procBoundary5to1
    {
        type            processor;
        value           nonuniform List<scalar> 
32
(
7.90348e-65
5.81038e-65
8.44198e-65
7.04616e-65
5.72848e-65
4.1789e-65
5.6567e-65
6.12088e-65
6.97134e-65
6.96945e-65
6.57896e-65
7.19583e-65
4.40839e-65
6.35389e-65
5.11391e-65
9.06258e-65
8.28777e-65
8.74864e-65
6.80965e-65
7.89041e-65
3.47962e-65
6.58569e-65
5.2692e-65
8.0589e-65
8.0589e-65
8.0589e-65
7.05018e-65
9.99545e-65
9.99545e-65
9.99545e-65
5.73251e-65
5.73251e-65
)
;
    }
    procBoundary5to4
    {
        type            processor;
        value           nonuniform List<scalar> 
12
(
8.90926e-65
9.06284e-65
5.65409e-65
5.96362e-65
8.21243e-65
8.134e-65
6.81638e-65
6.81619e-65
7.20577e-65
7.59221e-65
6.27488e-65
6.35198e-65
)
;
    }
    procBoundary5to7
    {
        type            processor;
        value           nonuniform List<scalar> 
44
(
7.8256e-65
6.43099e-65
6.73889e-65
1.05325e-64
1.04508e-64
7.96989e-65
5.64603e-65
8.35137e-65
9.91592e-65
7.8256e-65
6.43069e-65
7.3596e-65
6.35095e-65
6.96786e-65
8.5896e-65
8.4314e-65
7.34727e-65
3.95098e-65
6.43069e-65
8.52276e-65
6.43069e-65
7.3596e-65
5.03466e-65
5.8075e-65
7.35348e-65
6.03576e-65
5.80125e-65
8.05696e-65
7.36059e-65
6.81834e-65
5.03466e-65
5.19073e-65
5.03466e-65
5.8075e-65
5.49687e-65
6.42488e-65
6.11364e-65
6.89497e-65
5.81118e-65
7.67078e-65
7.43798e-65
5.19023e-65
5.49687e-65
3.87267e-65
)
;
    }
}


// ************************************************************************* //
