/*--------------------------------*- C++ -*----------------------------------*\
| =========                 |                                                 |
| \\      /  F ield         | OpenFOAM: The Open Source CFD Toolbox           |
|  \\    /   O peration     | Version:  4.x                                   |
|   \\  /    A nd           | Web:      www.OpenFOAM.org                      |
|    \\/     M anipulation  |                                                 |
\*---------------------------------------------------------------------------*/
FoamFile
{
    version     2.0;
    format      ascii;
    class       volScalarField;
    location    "17";
    object      p;
}
// * * * * * * * * * * * * * * * * * * * * * * * * * * * * * * * * * * * * * //

dimensions      [1 -1 -2 0 0 0 0];

internalField   nonuniform List<scalar> 
87
(
80.1027
40.3792
80.0723
87.21
40.1355
79.7093
-1766.04
-1784.03
-1773.78
-1801.14
-1781.68
-1818.8
-1789.71
-1836.36
-1797.6
-1766.49
-1784.02
-1774.11
-1801.23
-1781.91
-1818.82
-1789.6
-1836.39
-1797.36
-1767.11
-1784.32
-1774.58
-1801.4
-1782.26
-1819.04
-1790.14
-1836.66
-1797.7
-3644.22
-3661.92
-3652
-3679.18
-3659.93
-3696.65
-3667.71
-3714.31
-3675.45
-3644.51
-3661.89
-3652.13
-3679.12
-3660.01
-3696.67
-3667.76
-3714.36
-3675.35
-3645.12
-3662.23
-3652.6
-3679.31
-3660.35
-3696.91
-3668.23
-3714.68
-3675.86
-5522.43
-5539.84
-5529.96
-5556.99
-5537.86
-5574.5
-5545.76
-5592.26
-5553.45
-5522.7
-5539.88
-5530.19
-5556.97
-5537.95
-5574.53
-5545.87
-5592.1
-5553.52
-5523.19
-5540.11
-5530.64
-5557.21
-5538.35
-5574.69
-5546.11
-5592.17
-5553.54
)
;

boundaryField
{
    inlet
    {
        type            calculated;
        value           nonuniform List<scalar> 9(-1766.04 -1766.49 -1767.11 -3644.22 -3644.51 -3645.12 -5522.43 -5522.7 -5523.19);
    }
    outlet
    {
        type            calculated;
        value           nonuniform 0();
    }
    wall
    {
        type            calculated;
        value           nonuniform List<scalar> 
57
(
-6461.39
-6461.66
-6462.15
-6478.8
-6478.84
-6479.07
-6468.91
-6469.15
-6469.6
-6495.94
-6495.92
-6496.16
-6476.81
-6476.91
-6477.3
-6513.45
-6513.48
-6513.64
-6484.71
-6484.81
-6485.06
-6531.2
-6531.04
-6531.11
-6492.37
-6492.45
-6492.48
-1767.11
-3645.12
-5523.19
-1784.32
-3662.23
-5540.11
-1774.58
-3652.6
-5530.64
-1801.4
-3679.31
-5557.21
-1782.26
-3660.35
-5538.35
-1819.04
-3696.91
-5574.69
87.21
-1790.14
-3668.23
-5546.11
40.1355
-1836.66
-3714.68
-5592.17
79.7093
-1797.7
-3675.86
-5553.54
)
;
    }
    procBoundary6to0
    {
        type            processor;
        value           uniform 80.3422;
    }
    procBoundary6to2
    {
        type            processor;
        value           nonuniform List<scalar> 
32
(
1958.09
1918.28
1958.04
1965.14
1918.11
1957.7
110.866
93.3644
103.182
75.8367
95.4119
58.0807
87.7607
40.1088
40.1088
40.1088
110.771
93.4098
103.162
75.9903
95.3872
58.3289
87.6495
87.6495
87.6495
110.145
93.0782
102.668
75.7469
94.9469
58.0689
58.0689
)
;
    }
    procBoundary6to4
    {
        type            processor;
        value           nonuniform List<scalar> 
27
(
-1766.32
-1783.75
-1773.83
-1801.02
-1781.67
-1818.57
-1789.54
-1836.32
-1797.07
-3644.08
-3661.67
-3651.72
-3678.85
-3659.7
-3696.47
-3667.62
-3714.14
-3675.38
-5522.17
-5539.74
-5529.77
-5556.85
-5537.77
-5574.56
-5545.81
-5592.08
-5553.52
)
;
    }
    procBoundary6to7
    {
        type            processor;
        value           nonuniform List<scalar> 
12
(
22.0852
22.3581
22.0116
-1853.61
-1853.93
-1854.32
-3732.02
-3732.14
-3732.54
-5609.7
-5609.68
-5609.77
)
;
    }
}


// ************************************************************************* //
