/*--------------------------------*- C++ -*----------------------------------*\
| =========                 |                                                 |
| \\      /  F ield         | OpenFOAM: The Open Source CFD Toolbox           |
|  \\    /   O peration     | Version:  4.x                                   |
|   \\  /    A nd           | Web:      www.OpenFOAM.org                      |
|    \\/     M anipulation  |                                                 |
\*---------------------------------------------------------------------------*/
FoamFile
{
    version     2.0;
    format      ascii;
    class       volScalarField;
    location    "32";
    object      Ksl;
}
// * * * * * * * * * * * * * * * * * * * * * * * * * * * * * * * * * * * * * //

dimensions      [1 -3 -1 0 0 0 0];

internalField   nonuniform List<scalar> 
87
(
3870.19
16963.1
3630.25
3258.84
6873.19
3184.43
3568.69
12078.4
3820.39
22708.5
3918.04
64946.6
3930.95
1e+10
3913.18
3483.66
10666
3673.82
15080.8
3760.3
23370.8
3782.34
48527.8
3770.67
3369.73
8075.91
3382.23
7826.82
3401.06
7998.16
3368.37
8038.57
3329.12
3522.89
10552.9
3712.56
14880.8
3761.87
23093.9
3794.36
48736.3
3760.11
3441.29
9095.65
3565.08
10026.8
3591.22
11045.5
3610.21
12708.6
3562.45
3362.16
7528.04
3303.27
6937.14
3268.73
6640.74
3225.55
6473.9
3161.1
3427.99
8111.81
3462.59
8225.32
3428.36
8443.08
3432.36
9056.96
3370.25
3368.72
7539.35
3339.76
7019.33
3283.58
6725.67
3247.83
6658.02
3170.66
3316.54
6955.26
3196.43
5998.42
3061.44
5456.75
3004.96
5188.24
2945.54
)
;

boundaryField
{
    inlet
    {
        type            zeroGradient;
    }
    outlet
    {
        type            zeroGradient;
    }
    wall
    {
        type            zeroGradient;
    }
    procBoundary6to0
    {
        type            processor;
        value           uniform 3913.47;
    }
    procBoundary6to2
    {
        type            processor;
        value           nonuniform List<scalar> 
32
(
3708.03
25350.2
3698.65
3271.26
6764.31
3170.65
3516.91
11314.2
3764.64
16939.1
3840.27
26633.8
3861.53
48607.6
48607.6
48607.6
3469.71
9925.84
3666.45
12111.2
3712.99
14505.9
3689.38
3689.38
3689.38
3363.73
7968.23
3398.81
7550.83
3350.01
7153.71
7153.71
)
;
    }
    procBoundary6to4
    {
        type            processor;
        value           nonuniform List<scalar> 
27
(
3497.39
11226.7
3805.62
18732.7
3905.07
42452.7
3929.55
438580
3862.07
3499.81
10494.2
3714.5
15063.5
3786.14
22324
3753.63
33291.4
3655.62
3466.99
8479.44
3497.75
8668.25
3463.33
8381.8
3334.91
7812.8
3215.46
)
;
    }
    procBoundary6to7
    {
        type            processor;
        value           nonuniform List<scalar> 
12
(
133073
18672.4
6884.74
1e+10
324135
8663.11
1.56804e+08
14637.9
6328.55
10232.1
6694.5
5076.17
)
;
    }
}


// ************************************************************************* //
