/*--------------------------------*- C++ -*----------------------------------*\
| =========                 |                                                 |
| \\      /  F ield         | OpenFOAM: The Open Source CFD Toolbox           |
|  \\    /   O peration     | Version:  4.x                                   |
|   \\  /    A nd           | Web:      www.OpenFOAM.org                      |
|    \\/     M anipulation  |                                                 |
\*---------------------------------------------------------------------------*/
FoamFile
{
    version     2.0;
    format      ascii;
    class       volScalarField;
    location    "32";
    object      QWallFluid;
}
// * * * * * * * * * * * * * * * * * * * * * * * * * * * * * * * * * * * * * //

dimensions      [1 -1 -3 0 0 0 0];

internalField   nonuniform List<scalar> 
87
(
0
0
0
8.66606e+08
4.74623e+08
8.80183e+08
0
0
0
0
0
0
0
0
0
0
0
0
0
0
0
0
0
0
8.269e+08
4.11349e+08
8.32329e+08
4.23805e+08
8.31384e+08
4.16644e+08
8.35693e+08
4.12097e+08
8.39342e+08
0
0
0
0
0
0
0
0
0
0
0
0
0
0
0
0
0
0
8.24224e+08
4.31324e+08
8.40623e+08
4.61934e+08
8.48825e+08
4.79563e+08
8.60508e+08
4.89732e+08
8.71969e+08
8.15454e+08
4.09214e+08
8.16436e+08
4.04171e+08
8.15603e+08
3.94016e+08
8.13759e+08
3.69177e+08
8.20073e+08
8.20406e+08
4.31888e+08
8.33639e+08
4.58487e+08
8.42875e+08
4.73331e+08
8.53657e+08
4.76589e+08
8.61738e+08
1.65551e+09
9.11512e+08
1.71045e+09
1.02807e+09
1.76805e+09
1.11059e+09
1.81085e+09
1.16387e+09
1.83234e+09
)
;

boundaryField
{
    inlet
    {
        type            calculated;
        value           uniform 0;
    }
    outlet
    {
        type            calculated;
        value           nonuniform 0();
    }
    wall
    {
        type            calculated;
        value           uniform 0;
    }
    procBoundary6to0
    {
        type            processor;
        value           uniform 0;
    }
    procBoundary6to2
    {
        type            processor;
        value           nonuniform List<scalar> 
32
(
0
0
0
8.79324e+08
4.89499e+08
8.98327e+08
0
0
0
0
0
0
0
0
0
0
0
0
0
0
0
0
0
0
0
8.27829e+08
4.17509e+08
8.39729e+08
4.40923e+08
8.52452e+08
4.60209e+08
4.60209e+08
)
;
    }
    procBoundary6to4
    {
        type            processor;
        value           nonuniform List<scalar> 
27
(
0
0
0
0
0
0
0
0
0
0
0
0
0
0
0
0
0
0
8.0698e+08
3.94209e+08
8.09842e+08
3.88376e+08
8.14553e+08
3.96094e+08
8.3064e+08
4.16793e+08
8.4684e+08
)
;
    }
    procBoundary6to7
    {
        type            processor;
        value           nonuniform List<scalar> 
12
(
0
0
4.71576e+08
0
0
3.86158e+08
0
0
4.944e+08
3.33032e+08
4.69262e+08
1.16775e+09
)
;
    }
}


// ************************************************************************* //
