/*--------------------------------*- C++ -*----------------------------------*\
| =========                 |                                                 |
| \\      /  F ield         | OpenFOAM: The Open Source CFD Toolbox           |
|  \\    /   O peration     | Version:  4.x                                   |
|   \\  /    A nd           | Web:      www.OpenFOAM.org                      |
|    \\/     M anipulation  |                                                 |
\*---------------------------------------------------------------------------*/
FoamFile
{
    version     2.0;
    format      ascii;
    class       volScalarField;
    location    "47";
    object      KslNext;
}
// * * * * * * * * * * * * * * * * * * * * * * * * * * * * * * * * * * * * * //

dimensions      [1 -3 -1 0 0 0 0];

internalField   nonuniform List<scalar> 
87
(
3789.99
12630.8
3490.79
3223.31
6620.07
3131.19
3574.59
12595.3
3858.57
27810.8
3993.1
161787
4032.88
1e+10
4017.27
3484.61
10772.8
3683.87
15717.6
3786.59
26323.5
3825.14
69017.3
3822
3370.26
8149.76
3393.81
7993.94
3430.11
8382.26
3427.61
9039.53
3446.92
3515.67
10616.7
3703.07
14941.3
3752.71
22841.2
3785.29
43135.1
3756.18
3439.85
9107.17
3562.9
10067.2
3591.9
11200.7
3614.52
13131.7
3565.44
3359.17
7535.09
3298.8
6926.95
3263.41
6626.64
3221.2
6481.02
3159.13
3427.16
8074.29
3455.96
8038.76
3413.31
8024.9
3404.17
8320.17
3323.99
3369.06
7561.58
3342.46
7049.81
3289.77
6756.77
3257.06
6672.87
3179.44
3315.64
6967.39
3197.41
6011.3
3065.98
5479.11
3015.43
5232.87
2964.61
)
;

boundaryField
{
    inlet
    {
        type            zeroGradient;
    }
    outlet
    {
        type            zeroGradient;
    }
    wall
    {
        type            zeroGradient;
    }
    procBoundary6to0
    {
        type            processor;
        value           uniform 0;
    }
    procBoundary6to2
    {
        type            processor;
        value           uniform 0;
    }
    procBoundary6to4
    {
        type            processor;
        value           uniform 0;
    }
    procBoundary6to7
    {
        type            processor;
        value           uniform 0;
    }
}


// ************************************************************************* //
