/*--------------------------------*- C++ -*----------------------------------*\
| =========                 |                                                 |
| \\      /  F ield         | OpenFOAM: The Open Source CFD Toolbox           |
|  \\    /   O peration     | Version:  4.x                                   |
|   \\  /    A nd           | Web:      www.OpenFOAM.org                      |
|    \\/     M anipulation  |                                                 |
\*---------------------------------------------------------------------------*/
FoamFile
{
    version     2.0;
    format      ascii;
    class       volScalarField;
    location    "47";
    object      KslPrev;
}
// * * * * * * * * * * * * * * * * * * * * * * * * * * * * * * * * * * * * * //

dimensions      [1 -3 -1 0 0 0 0];

internalField   nonuniform List<scalar> 
87
(
3789.98
12630.9
3490.79
3223.31
6620.08
3131.18
3574.6
12595.3
3858.58
27810.4
3993.1
161779
4032.88
1e+10
4017.27
3484.62
10772.8
3683.88
15717.5
3786.6
26323.4
3825.14
69016.9
3822
3370.27
8149.77
3393.81
7993.94
3430.11
8382.25
3427.61
9039.48
3446.92
3515.68
10616.8
3703.08
14941.3
3752.71
22841.2
3785.29
43135.4
3756.18
3439.86
9107.18
3562.91
10067.2
3591.9
11200.7
3614.52
13131.7
3565.45
3359.17
7535.11
3298.8
6926.96
3263.42
6626.64
3221.2
6481.03
3159.13
3427.17
8074.31
3455.97
8038.77
3413.32
8024.9
3404.17
8320.16
3323.99
3369.07
7561.59
3342.47
7049.82
3289.77
6756.78
3257.06
6672.87
3179.43
3315.65
6967.41
3197.41
6011.3
3065.99
5479.12
3015.43
5232.86
2964.61
)
;

boundaryField
{
    inlet
    {
        type            zeroGradient;
    }
    outlet
    {
        type            zeroGradient;
    }
    wall
    {
        type            zeroGradient;
    }
    procBoundary6to0
    {
        type            processor;
        value           uniform 0;
    }
    procBoundary6to2
    {
        type            processor;
        value           uniform 0;
    }
    procBoundary6to4
    {
        type            processor;
        value           uniform 0;
    }
    procBoundary6to7
    {
        type            processor;
        value           uniform 0;
    }
}


// ************************************************************************* //
