/*--------------------------------*- C++ -*----------------------------------*\
| =========                 |                                                 |
| \\      /  F ield         | OpenFOAM: The Open Source CFD Toolbox           |
|  \\    /   O peration     | Version:  4.x                                   |
|   \\  /    A nd           | Web:      www.OpenFOAM.org                      |
|    \\/     M anipulation  |                                                 |
\*---------------------------------------------------------------------------*/
FoamFile
{
    version     2.0;
    format      ascii;
    class       volVectorField;
    location    "5.5";
    object      DDtUrel;
}
// * * * * * * * * * * * * * * * * * * * * * * * * * * * * * * * * * * * * * //

dimensions      [0 1 -2 0 0 0 0];

internalField   nonuniform List<vector> 
108
(
(0.0017881 5.31503e-06 5.18748e-05)
(0.00171529 -6.73556e-06 1.56609e-05)
(0.00159046 -1.1371e-05 -1.04386e-05)
(0.00139121 -1.22429e-05 -0.000101374)
(0.000757134 -2.40602e-05 -0.00021053)
(-0.000100254 6.24554e-05 -0.000286498)
(-0.000857298 0.000145804 -0.000406614)
(-0.00221829 0.000350494 -0.000696994)
(-0.00333956 0.000531043 -0.000823266)
(0.00183032 -1.46423e-06 2.63635e-05)
(0.00181387 3.45723e-06 -4.21174e-06)
(0.00175334 7.67193e-06 -4.26095e-05)
(0.0014338 1.97555e-05 -0.000118004)
(0.000862212 1.18164e-05 -0.000215986)
(3.90647e-05 0.000159099 -0.000405291)
(-0.000745186 0.000330968 -0.000623229)
(-0.00237757 0.000694222 -0.00104324)
(-0.00380464 0.00100702 -0.0013425)
(0.00193664 4.91933e-06 2.8931e-06)
(0.00196654 3.9312e-06 -2.29658e-05)
(0.00197107 -7.24983e-06 -7.58194e-05)
(0.00171398 7.63759e-06 -3.94543e-05)
(0.00109461 2.75166e-05 -9.09236e-05)
(1.10944e-05 0.000197163 -0.000508665)
(-0.000840639 0.000424031 -0.000904542)
(-0.0026556 0.00102423 -0.00154215)
(-0.00415787 0.00147667 -0.00204602)
(0.00206383 -5.943e-06 1.87142e-05)
(0.0020344 1.35781e-06 -1.74198e-05)
(0.00205427 -1.99626e-07 -9.04926e-05)
(0.00176179 -4.6444e-05 -0.000123536)
(0.00121988 -0.000134043 -0.000264971)
(0.000118783 0.000121096 -0.000642571)
(-0.000690031 0.000426474 -0.00111147)
(-0.0030403 0.00125995 -0.00222609)
(-0.00498152 0.0018805 -0.00286113)
(0.00165988 1.80104e-06 2.39045e-05)
(0.00158253 -2.56376e-06 -8.72901e-07)
(0.00149095 -1.88058e-05 -9.69543e-06)
(0.00114966 1.63658e-05 -0.000150554)
(0.000562725 1.98017e-05 -0.000298659)
(-3.29241e-06 4.2416e-05 -0.000309816)
(-0.000728873 7.28185e-05 -0.000411874)
(-0.00188524 0.000172062 -0.000688457)
(-0.00275825 0.000282791 -0.000725252)
(0.00171423 -1.78878e-05 1.33063e-05)
(0.00169545 -1.29182e-05 -8.02214e-06)
(0.00158042 -3.03863e-05 -3.27249e-05)
(0.00128552 5.76339e-05 -0.000123734)
(0.000676386 0.00013752 -0.000264946)
(-3.53022e-05 0.000167268 -0.000384749)
(-0.000792934 0.000283984 -0.000583454)
(-0.00211673 0.00059131 -0.000903619)
(-0.00321603 0.000792974 -0.00104629)
(0.00181035 -2.79861e-06 -8.24538e-06)
(0.00186035 -2.14978e-06 -1.16722e-06)
(0.0017487 -6.38668e-06 -3.56021e-05)
(0.00172845 1.10575e-05 -7.40871e-05)
(0.000732454 2.03698e-05 -0.000223608)
(-0.000401594 0.000203503 -0.000493807)
(-0.00096122 0.00048807 -0.000812221)
(-0.00249323 0.00101094 -0.00132067)
(-0.00365373 0.00137364 -0.00168323)
(0.00195314 1.50488e-05 1.97263e-05)
(0.00190578 1.99294e-05 -8.542e-06)
(0.00186339 -9.56852e-07 -8.05484e-05)
(0.00153541 -0.000142911 -0.000192039)
(0.00083458 -0.000240756 -0.000357209)
(-0.000162988 0.000179664 -0.000623827)
(-0.00097946 0.000592618 -0.00107723)
(-0.00282007 0.0013169 -0.00198703)
(-0.00439206 0.00183931 -0.00250367)
(0.00149387 -1.07842e-05 -2.55696e-05)
(0.00146588 7.38509e-06 -3.16651e-05)
(0.00133955 1.66551e-05 -7.12489e-05)
(0.000923041 1.70189e-05 -0.000174975)
(0.000522562 -4.23688e-06 -0.00027734)
(0.000191653 1.00984e-05 -0.00031121)
(-0.000343175 1.96807e-05 -0.000384806)
(-0.00119881 7.05039e-05 -0.000559384)
(-0.00164967 0.000174077 -0.000489941)
(0.00159616 -2.93409e-05 -8.93138e-06)
(0.00157644 7.99712e-06 -3.62421e-05)
(0.00141112 4.80796e-05 -9.08755e-05)
(0.000996253 5.76261e-05 -0.000172351)
(0.000577535 7.65297e-05 -0.000286629)
(0.00010394 0.000197354 -0.000393599)
(-0.000453129 0.000330332 -0.00055052)
(-0.0016462 0.000755226 -0.000828102)
(-0.00261276 0.0010678 -0.000778973)
(0.00175436 -5.87874e-06 -1.09095e-05)
(0.00189757 -1.99635e-05 -3.6341e-05)
(0.00152725 -6.19155e-05 -0.000114668)
(0.000981405 -1.89765e-05 -0.000187227)
(0.000519022 6.60646e-05 -0.00035171)
(-0.000104435 0.000271227 -0.000503775)
(-0.000657299 0.000552402 -0.000780914)
(-0.00227194 0.00131274 -0.00123355)
(-0.00354469 0.00169804 -0.00132654)
(0.0019636 2.12834e-05 -6.64563e-06)
(0.00189637 -9.59723e-05 -5.18453e-05)
(0.00164403 -0.000231567 -0.000143361)
(0.0011479 -0.000157259 -0.000280251)
(0.000707538 -4.37946e-05 -0.000442416)
(-8.51916e-05 0.000324264 -0.000639776)
(-0.000614187 0.00068661 -0.00111256)
(-0.00281461 0.00163602 -0.00187912)
(-0.00484646 0.00217365 -0.00209548)
)
;

boundaryField
{
    inlet
    {
        type            calculated;
        value           nonuniform 0();
    }
    outlet
    {
        type            calculated;
        value           nonuniform List<vector> 
12
(
(-0.00771666 0.00302056 -0.000699444)
(-0.0105713 0.00269526 -0.00265482)
(-0.00913017 0.00346008 -0.00444823)
(-0.0155981 0.00525344 -0.00850898)
(-0.00501028 0.0010394 -0.000861474)
(-0.00688762 -0.000267781 -0.000453813)
(-0.00528163 0.0015907 -0.00227642)
(-0.00855096 0.00380876 -0.00684592)
(0.000696084 0.00112531 0.00107988)
(-0.0076827 0.00306339 0.00176413)
(-0.008339 0.00306258 0.00217325)
(-0.0169809 0.00481185 -0.000706713)
)
;
    }
    wall
    {
        type            calculated;
        value           nonuniform List<vector> 
63
(
(0.00249538 7.88934e-05 0.000350603)
(0.00227737 -6.51046e-05 9.68957e-05)
(0.00241335 6.20069e-05 -0.000161529)
(0.00320059 -0.000125592 2.8909e-05)
(0.00200975 -3.59976e-05 6.87037e-05)
(0.00215288 8.55196e-05 2.88018e-05)
(0.00263248 6.47914e-05 -7.55845e-05)
(0.00247697 -3.47038e-05 9.03066e-05)
(0.00176127 7.88717e-05 0.000252241)
(0.00295494 0.000202411 5.14513e-05)
(0.00391416 -0.000161024 -0.000545427)
(0.00390509 0.000167942 -0.000294381)
(0.00374104 -8.47588e-05 0.000112863)
(0.00197576 0.000103744 -0.000321173)
(0.0035581 0.000109722 0.00084979)
(0.00340957 0.000218151 0.000179985)
(0.00212331 -0.000685116 -0.000155232)
(0.00185973 -0.000813477 -0.000169229)
(0.00403709 0.000106855 0.00241734)
(0.00458769 -0.00141277 0.000248545)
(-0.000939269 0.000248778 0.000139636)
(0.00065497 0.000234099 -0.000422299)
(0.000113086 0.000341578 -0.000530865)
(0.00036478 -0.000454048 -0.000813355)
(0.000694148 0.000354299 0.000585351)
(0.00278277 0.000136855 0.000108067)
(0.00190331 -0.000703989 -0.000632685)
(0.00565249 -0.0017872 0.000243116)
(-0.00350016 0.00167585 -0.000813132)
(-0.00347401 0.00121468 -0.00139397)
(-0.00383544 0.00183196 -0.00208669)
(-0.00621847 0.00249665 -0.00660685)
(-0.00771666 0.00302056 -0.000699444)
(-0.0105713 0.00269526 -0.00265482)
(-0.00913017 0.00346008 -0.00444823)
(-0.0155981 0.00525344 -0.00850898)
(0.00320059 -0.000125592 2.8909e-05)
(0.00232797 0.000130821 9.79838e-05)
(0.00311752 0.000751328 2.31502e-06)
(0.00247697 -3.47038e-05 9.03066e-05)
(0.00166797 0.000583257 0.000270236)
(0.00302543 -0.000579265 0.000247088)
(0.00390509 0.000167942 -0.000294381)
(0.00322668 0.00111149 0.000131804)
(0.00255126 -0.00239573 5.99456e-05)
(0.00340957 0.000218151 0.000179985)
(0.00265014 -0.00100829 -0.000318743)
(0.000628976 -0.000983563 -0.000603434)
(0.00458769 -0.00141277 0.000248545)
(0.00132122 -0.00364921 -0.000458009)
(0.0020625 -0.000603127 -0.000884945)
(0.00036478 -0.000454048 -0.000813355)
(-0.00111625 -0.000131631 -0.000310803)
(-0.000680846 0.000894009 0.000135169)
(0.00565249 -0.0017872 0.000243116)
(0.000272762 0.000125727 -0.000197225)
(0.0053649 -0.000655941 -0.00107613)
(-0.00621847 0.00249665 -0.00660685)
(-0.00403128 0.00210302 -0.00489924)
(-0.00514808 0.004092 -0.00381772)
(-0.0155981 0.00525344 -0.00850898)
(-0.00855096 0.00380876 -0.00684592)
(-0.0169809 0.00481185 -0.000706713)
)
;
    }
    procBoundary3to1
    {
        type            processor;
        value           nonuniform List<vector> 
27
(
(0.00178145 -2.03867e-06 4.47699e-05)
(0.00170779 -1.98168e-05 2.37899e-05)
(0.00154992 -5.61623e-05 3.33199e-06)
(0.00128267 -3.76653e-05 -8.71928e-05)
(0.000636433 8.30217e-06 -0.000170655)
(-0.00016986 -7.17814e-05 -0.000237474)
(-0.000968152 -0.000162699 -0.000328416)
(-0.00222585 -0.000222065 -0.000495535)
(-0.00321485 -0.000318798 -0.000575859)
(0.00169702 1.7183e-06 3.8098e-05)
(0.00160994 -3.4534e-06 9.3186e-06)
(0.00143628 -1.97977e-05 -2.13508e-05)
(0.00106239 -3.97631e-05 -0.000130817)
(0.000536075 -6.01807e-05 -0.000243661)
(-7.06379e-05 -0.000127581 -0.000282619)
(-0.00083474 -0.000229755 -0.000362774)
(-0.00206469 -0.00038173 -0.000512147)
(-0.00301432 -0.000496453 -0.000535365)
(0.00157551 -2.18991e-05 3.4022e-06)
(0.00148349 8.54087e-06 -2.38081e-05)
(0.00129364 2.25324e-05 -7.34373e-05)
(0.000930435 -4.56854e-05 -0.000142752)
(0.000526298 -0.000124959 -0.000218612)
(5.70139e-05 -0.000216985 -0.000292215)
(-0.000514759 -0.000347017 -0.000408115)
(-0.00165449 -0.000660015 -0.00057348)
(-0.00248933 -0.000854025 -0.000486758)
)
;
    }
    procBoundary3to2
    {
        type            processor;
        value           nonuniform List<vector> 
12
(
(0.0017315 1.15022e-05 5.50081e-05)
(0.00175739 1.61685e-05 4.56953e-05)
(0.00185856 1.15442e-05 5.28233e-05)
(0.00196766 -6.51901e-06 6.55957e-05)
(0.00168613 5.71856e-06 4.94526e-05)
(0.00168697 5.25796e-06 4.10636e-05)
(0.00178732 6.29018e-06 4.81329e-05)
(0.0019058 4.93419e-06 7.59665e-05)
(0.0015484 -1.01959e-06 1.59706e-05)
(0.00159421 9.85244e-07 2.14945e-05)
(0.00173628 3.0303e-06 3.54552e-05)
(0.00194626 1.17972e-05 6.15961e-05)
)
;
    }
    procBoundary3to7
    {
        type            processor;
        value           nonuniform List<vector> 
36
(
(0.00142409 -1.17447e-05 -3.66591e-05)
(0.0013362 5.03067e-06 -6.4217e-05)
(0.00110557 9.33311e-07 -0.000137208)
(0.000827339 -1.39455e-06 -0.000172249)
(0.000524288 -1.7665e-05 -0.000245435)
(0.000542213 -2.9477e-05 -0.000289553)
(0.00027292 -3.8725e-05 -0.000291823)
(-0.000151125 -3.60888e-05 -0.000355211)
(2.22861e-05 -1.45867e-06 -0.000407371)
(0.00150183 -1.05459e-05 -2.52742e-05)
(0.00140797 3.90852e-07 -8.25064e-05)
(0.0011699 -1.23439e-05 -0.000154199)
(0.000875779 5.24116e-05 -0.000188189)
(0.000531411 0.000121679 -0.000270677)
(0.000234114 0.000206746 -0.000399042)
(-0.000243444 0.000338344 -0.000498591)
(-0.00105197 0.000735472 -0.000801188)
(-0.00140683 0.00128499 -0.00103182)
(0.00165088 -2.37948e-05 -3.0441e-05)
(0.00163496 -3.97732e-05 -0.000130371)
(0.00125857 -5.93785e-05 -0.000246924)
(0.000924924 -9.77043e-06 -0.000200879)
(0.000580354 6.88138e-05 -0.000255354)
(-3.10775e-05 0.000288304 -0.000541519)
(-0.000518825 0.000571171 -0.00081921)
(-0.00197823 0.00148446 -0.00148024)
(-0.00284596 0.0021387 -0.00199034)
(0.00189719 -4.88901e-05 -5.51374e-05)
(0.00171298 -0.000110313 -0.000159505)
(0.00150212 -0.000147189 -0.00025364)
(0.0010386 -8.15198e-05 -0.000328958)
(0.000701532 -4.32708e-05 -0.000436872)
(-7.2813e-05 0.000341397 -0.000754132)
(-0.000389529 0.000731501 -0.00118052)
(-0.0027663 0.00191209 -0.00236552)
(-0.00478881 0.00269103 -0.00313838)
)
;
    }
}


// ************************************************************************* //
