/*--------------------------------*- C++ -*----------------------------------*\
| =========                 |                                                 |
| \\      /  F ield         | OpenFOAM: The Open Source CFD Toolbox           |
|  \\    /   O peration     | Version:  4.x                                   |
|   \\  /    A nd           | Web:      www.OpenFOAM.org                      |
|    \\/     M anipulation  |                                                 |
\*---------------------------------------------------------------------------*/
FoamFile
{
    version     2.0;
    format      ascii;
    class       volScalarField;
    location    "5.5";
    object      Deff;
}
// * * * * * * * * * * * * * * * * * * * * * * * * * * * * * * * * * * * * * //

dimensions      [0 2 -1 0 0 0 0];

internalField   nonuniform List<scalar> 
108
(
9.88695e-08
9.8912e-08
9.87747e-08
9.8895e-08
9.88619e-08
9.88969e-08
9.87524e-08
9.87568e-08
9.87211e-08
9.88914e-08
9.86973e-08
9.87815e-08
9.88142e-08
9.87799e-08
9.88293e-08
9.86708e-08
9.8663e-08
9.86459e-08
9.89322e-08
9.88325e-08
9.87567e-08
9.88329e-08
9.87877e-08
9.88228e-08
9.8691e-08
9.86661e-08
9.87323e-08
9.90954e-08
9.90565e-08
9.89327e-08
9.87931e-08
9.88244e-08
9.8823e-08
9.88503e-08
9.8716e-08
9.87719e-08
9.84586e-08
9.84497e-08
9.82787e-08
9.82915e-08
9.83402e-08
9.83646e-08
9.82896e-08
9.82549e-08
9.81824e-08
9.84959e-08
9.84321e-08
9.83208e-08
9.83445e-08
9.83627e-08
9.83398e-08
9.81868e-08
9.82077e-08
9.82196e-08
9.84067e-08
9.84236e-08
9.83666e-08
9.83326e-08
9.83549e-08
9.83243e-08
9.82774e-08
9.82374e-08
9.82381e-08
9.86234e-08
9.86537e-08
9.8544e-08
9.84614e-08
9.83509e-08
9.84149e-08
9.83483e-08
9.83032e-08
9.83641e-08
9.81172e-08
9.80181e-08
9.79663e-08
9.79552e-08
9.80115e-08
9.79586e-08
9.78509e-08
9.79173e-08
9.79234e-08
9.81256e-08
9.81499e-08
9.80377e-08
9.81667e-08
9.81202e-08
9.79385e-08
9.78754e-08
9.78367e-08
9.79515e-08
9.82916e-08
9.81451e-08
9.80829e-08
9.81567e-08
9.80707e-08
9.79404e-08
9.7947e-08
9.79218e-08
9.80082e-08
9.84375e-08
9.84468e-08
9.82986e-08
9.82304e-08
9.81556e-08
9.80354e-08
9.8018e-08
9.79389e-08
9.79459e-08
)
;

boundaryField
{
    inlet
    {
        type            calculated;
        value           nonuniform 0();
    }
    outlet
    {
        type            calculated;
        value           uniform 0;
    }
    wall
    {
        type            calculated;
        value           uniform 0;
    }
    procBoundary3to1
    {
        type            processor;
        value           uniform 0;
    }
    procBoundary3to2
    {
        type            processor;
        value           uniform 0;
    }
    procBoundary3to7
    {
        type            processor;
        value           uniform 0;
    }
}


// ************************************************************************* //
