/*--------------------------------*- C++ -*----------------------------------*\
| =========                 |                                                 |
| \\      /  F ield         | OpenFOAM: The Open Source CFD Toolbox           |
|  \\    /   O peration     | Version:  4.x                                   |
|   \\  /    A nd           | Web:      www.OpenFOAM.org                      |
|    \\/     M anipulation  |                                                 |
\*---------------------------------------------------------------------------*/
FoamFile
{
    version     2.0;
    format      ascii;
    class       volScalarField;
    location    "5.5";
    object      thCond;
}
// * * * * * * * * * * * * * * * * * * * * * * * * * * * * * * * * * * * * * //

dimensions      [1 1 -3 -1 0 0 0];

internalField   nonuniform List<scalar> 
108
(
191.923
192.006
191.739
191.973
191.908
191.976
191.696
191.704
191.635
191.966
191.589
191.752
191.816
191.749
191.845
191.537
191.522
191.489
192.045
191.851
191.704
191.852
191.764
191.832
191.577
191.528
191.657
192.362
192.286
192.046
191.775
191.836
191.833
191.886
191.625
191.734
191.125
191.108
190.776
190.801
190.896
190.943
190.797
190.73
190.589
191.198
191.074
190.858
190.904
190.939
190.895
190.598
190.638
190.662
191.025
191.058
190.947
190.881
190.924
190.865
190.774
190.696
190.697
191.445
191.504
191.291
191.131
190.916
191.041
190.911
190.824
190.942
190.463
190.27
190.17
190.148
190.258
190.155
189.946
190.075
190.087
190.479
190.526
190.309
190.559
190.469
190.116
189.993
189.918
190.141
190.801
190.517
190.396
190.539
190.373
190.12
190.132
190.083
190.251
191.085
191.103
190.815
190.683
190.537
190.304
190.27
190.117
190.13
)
;

boundaryField
{
    inlet
    {
        type            zeroGradient;
    }
    outlet
    {
        type            zeroGradient;
    }
    wall
    {
        type            zeroGradient;
    }
    procBoundary3to1
    {
        type            processor;
        value           nonuniform List<scalar> 
27
(
192.366
192.122
191.905
191.692
191.817
191.825
191.623
191.676
191.844
191.335
191.349
191.248
191.169
191.122
190.875
190.66
190.558
191.137
190.698
190.661
190.668
190.258
190.214
190.094
190.125
190.16
190.672
)
;
    }
    procBoundary3to2
    {
        type            processor;
        value           nonuniform List<scalar> 
12
(
192.499
192.419
192.615
192.837
191.291
191.573
191.593
191.948
190.794
190.957
190.796
190.945
)
;
    }
    procBoundary3to7
    {
        type            processor;
        value           nonuniform List<scalar> 
36
(
189.98
189.921
189.973
189.83
189.47
189.403
189.51
189.737
189.545
190.149
189.826
189.908
189.913
189.65
189.719
189.594
189.671
189.576
190.513
190.115
190.086
190.014
189.789
189.623
189.601
189.681
189.643
190.77
190.321
190.068
190.21
189.953
189.843
189.711
189.926
190.185
)
;
    }
}


// ************************************************************************* //
