/*--------------------------------*- C++ -*----------------------------------*\
| =========                 |                                                 |
| \\      /  F ield         | OpenFOAM: The Open Source CFD Toolbox           |
|  \\    /   O peration     | Version:  4.x                                   |
|   \\  /    A nd           | Web:      www.OpenFOAM.org                      |
|    \\/     M anipulation  |                                                 |
\*---------------------------------------------------------------------------*/
FoamFile
{
    version     2.0;
    format      ascii;
    class       volVectorField;
    location    "5.5";
    object      Us;
}
// * * * * * * * * * * * * * * * * * * * * * * * * * * * * * * * * * * * * * //

dimensions      [0 1 -1 0 0 0 0];

internalField   nonuniform List<vector> 
108
(
(-5.06758e-06 1.76805e-07 -8.82193e-07)
(-5.15682e-06 2.18855e-07 -6.2701e-07)
(-5.20197e-06 7.11146e-07 -5.40292e-07)
(-4.79137e-06 9.60073e-08 -3.46411e-07)
(-4.33256e-06 2.25666e-08 9.93482e-08)
(-4.0309e-06 2.02347e-07 1.37896e-08)
(-3.98257e-06 4.85859e-08 6.40654e-07)
(-6.81653e-06 -8.28059e-07 7.53334e-07)
(-7.24083e-06 1.02397e-07 4.65124e-07)
(-4.6306e-06 9.9592e-08 -8.18537e-07)
(-4.75681e-06 1.53344e-07 -6.3876e-07)
(-4.56087e-06 6.80776e-08 -5.40854e-07)
(-4.25768e-06 -1.07261e-07 -1.54673e-07)
(-4.13095e-06 -1.08362e-08 5.84092e-08)
(-4.19966e-06 2.24892e-07 -4.87391e-08)
(-4.53635e-06 -1.26165e-07 7.69692e-07)
(-5.94954e-06 -5.20901e-07 6.3531e-07)
(-1.16594e-05 -2.96878e-07 5.20486e-07)
(-4.01744e-06 -1.59021e-06 -3.03004e-07)
(-4.79803e-06 4.27834e-07 -1.76079e-07)
(-3.77524e-06 1.34434e-07 -1.78308e-07)
(-3.32382e-06 -2.36815e-07 -7.22881e-08)
(-4.36823e-06 1.88426e-07 5.00209e-07)
(-3.70212e-06 1.27347e-07 -4.5398e-07)
(-3.97718e-06 -1.36583e-07 2.57226e-07)
(-3.78162e-06 -9.80591e-07 3.81575e-07)
(-1.2337e-06 -1.08361e-06 -6.26098e-08)
(-2.05498e-06 -1.03876e-07 1.44617e-07)
(-2.6893e-06 2.53526e-09 1.69132e-07)
(-2.15337e-06 -2.21832e-07 1.88272e-07)
(-1.76795e-06 -1.76624e-07 -1.05996e-07)
(-3.79014e-06 4.89908e-08 5.60012e-07)
(-2.76291e-06 3.14794e-08 -1.12731e-07)
(-1.95791e-06 -1.02486e-06 -5.93304e-07)
(-1.63126e-06 -4.39964e-07 1.28386e-07)
(-9.90442e-07 -1.52757e-05 3.44982e-07)
(-5.01065e-06 1.45147e-07 -7.07415e-07)
(-4.91481e-06 1.68915e-07 -5.95951e-07)
(-4.8234e-06 9.06195e-08 -5.51683e-07)
(-4.5869e-06 1.65473e-08 -2.77097e-07)
(-4.12638e-06 2.35544e-08 -1.76286e-08)
(-3.7572e-06 1.27143e-07 1.00994e-08)
(-3.22e-06 2.23076e-08 2.49142e-07)
(-2.94087e-06 1.63459e-08 4.78281e-07)
(-2.55418e-06 -5.4745e-08 4.31851e-07)
(-4.57268e-06 -1.48275e-09 -6.62734e-07)
(-4.69799e-06 1.8628e-08 -6.23712e-07)
(-4.54716e-06 -3.31059e-08 -5.04252e-07)
(-4.30274e-06 -3.45773e-08 -1.25351e-07)
(-3.88532e-06 -2.2145e-07 8.42853e-08)
(-3.62028e-06 7.03745e-08 7.27177e-08)
(-3.02772e-06 2.18447e-07 3.55384e-07)
(-2.83562e-06 -1.2185e-07 3.52185e-07)
(-1.00566e-06 -2.85847e-07 2.18907e-07)
(-3.86737e-06 -2.28016e-07 -5.43227e-07)
(-3.80588e-06 -1.33285e-07 -2.32656e-07)
(-3.72726e-06 -7.80183e-08 -2.98855e-07)
(-3.27659e-06 -2.70027e-07 -9.61565e-08)
(-3.01123e-06 -8.22292e-08 -1.26723e-08)
(-2.8187e-06 4.56618e-08 2.86249e-08)
(-3.00167e-06 -1.25493e-07 3.38388e-07)
(-2.57651e-06 -2.40488e-07 1.92826e-07)
(-1.15685e-06 -4.99613e-07 -8.31303e-08)
(-2.51496e-06 -1.74529e-07 -3.29789e-07)
(-2.49107e-06 2.06654e-08 -3.13541e-08)
(-1.96346e-06 -1.43324e-07 -9.13529e-08)
(-1.91205e-06 -1.92027e-07 -9.63431e-08)
(-1.59323e-06 -1.70037e-07 -7.70384e-08)
(-1.55281e-06 -4.53024e-08 -1.57313e-07)
(-1.36767e-06 -8.48352e-08 5.44095e-08)
(-1.70805e-06 -1.99062e-07 6.87481e-08)
(-6.3542e-07 -2.39372e-07 2.96709e-07)
(-4.59484e-06 1.13257e-07 -5.4301e-07)
(-4.63874e-06 1.67904e-07 -4.91879e-07)
(-4.59108e-06 2.6995e-07 -4.60941e-07)
(-4.1681e-06 4.20109e-08 -3.51418e-07)
(-3.65762e-06 9.73002e-08 -2.39453e-07)
(-2.89405e-06 9.00815e-08 3.13204e-08)
(-2.55629e-06 9.9379e-08 7.10757e-08)
(-2.06164e-06 1.64173e-07 2.70485e-07)
(-1.13841e-06 3.39537e-08 1.45872e-07)
(-4.43585e-06 4.88493e-08 -4.9141e-07)
(-4.4759e-06 -1.15295e-08 -4.23711e-07)
(-4.35662e-06 8.0597e-09 -3.65273e-07)
(-3.76805e-06 8.73655e-08 -5.80416e-08)
(-3.25705e-06 3.20123e-08 -7.78789e-09)
(-2.91934e-06 -1.68963e-07 8.09854e-09)
(-2.43208e-06 -1.35112e-08 -2.82223e-08)
(-2.02062e-06 -1.04057e-08 9.42916e-10)
(-1.14797e-06 -8.94637e-08 5.50414e-09)
(-3.80286e-06 6.11547e-08 -2.12689e-07)
(-3.79572e-06 -6.07384e-08 -1.89564e-07)
(-3.8417e-06 -1.75047e-07 -3.30637e-07)
(-3.10543e-06 1.11658e-07 -4.48938e-08)
(-2.67976e-06 2.73195e-08 -6.54088e-08)
(-2.42947e-06 -2.34665e-07 -5.9016e-08)
(-2.3363e-06 -8.47845e-08 3.98657e-08)
(-1.83651e-06 -2.55049e-08 6.81263e-08)
(-8.32455e-07 -1.57632e-07 8.52389e-08)
(-2.51365e-06 2.63783e-07 -1.79685e-07)
(-2.17797e-06 -3.15807e-08 -1.96518e-07)
(-2.27112e-06 -1.90045e-07 -1.58426e-07)
(-1.8031e-06 -2.50734e-07 -9.64772e-08)
(-1.76421e-06 -9.76409e-09 -7.05895e-08)
(-1.29269e-06 -1.43107e-07 -1.58188e-07)
(-1.05316e-06 1.95382e-08 -8.4662e-09)
(-1.29492e-06 -2.25606e-07 2.10629e-07)
(-6.66316e-07 -1.24548e-07 1.26559e-07)
)
;

boundaryField
{
    inlet
    {
        type            zeroGradient;
    }
    outlet
    {
        type            zeroGradient;
    }
    wall
    {
        type            zeroGradient;
    }
    procBoundary3to1
    {
        type            processor;
        value           nonuniform List<vector> 
27
(
(-5.21706e-06 2.98628e-07 -4.96085e-07)
(-5.26694e-06 4.71274e-07 -6.08345e-07)
(-5.79873e-06 8.40731e-07 -6.65493e-07)
(-4.50625e-06 1.99771e-07 -5.2709e-07)
(-3.86514e-06 -9.0385e-08 -7.41672e-08)
(-3.53664e-06 -1.0542e-07 1.96494e-07)
(-3.23093e-06 9.04997e-08 6.07824e-07)
(-2.41898e-06 7.29472e-07 5.17288e-07)
(-1.46472e-06 4.82701e-07 2.71971e-07)
(-4.69732e-06 3.58895e-07 -5.036e-07)
(-4.77185e-06 3.89951e-07 -5.25905e-07)
(-4.7085e-06 1.40975e-07 -5.89744e-07)
(-4.1416e-06 2.37563e-07 -5.53115e-07)
(-3.76332e-06 7.80237e-08 -1.35179e-07)
(-3.32535e-06 1.55339e-07 1.17888e-07)
(-2.87451e-06 -2.19431e-08 4.42616e-07)
(-2.64089e-06 2.38213e-07 1.83022e-07)
(-1.14873e-06 1.8582e-07 3.58854e-07)
(-4.4042e-06 2.67342e-07 -5.63358e-07)
(-4.36726e-06 1.32673e-07 -5.07607e-07)
(-4.08812e-06 3.12255e-07 -5.00369e-07)
(-3.80366e-06 1.55855e-07 -4.21553e-07)
(-3.41671e-06 1.25242e-07 -2.24645e-07)
(-2.8662e-06 2.86826e-07 5.87047e-08)
(-2.29642e-06 6.85886e-08 2.40557e-07)
(-2.00536e-06 2.01398e-07 1.62344e-07)
(-1.27317e-06 7.48505e-08 1.1193e-07)
)
;
    }
    procBoundary3to2
    {
        type            processor;
        value           nonuniform List<vector> 
12
(
(-4.72396e-06 5.26697e-07 -1.06034e-06)
(-4.3954e-06 3.43819e-07 -8.66379e-07)
(-3.94841e-06 1.97175e-07 -7.92817e-07)
(-2.40854e-06 7.29695e-07 -5.16669e-07)
(-4.45235e-06 3.50618e-07 -8.89839e-07)
(-4.38393e-06 1.78951e-07 -7.07489e-07)
(-3.63311e-06 6.55095e-08 -5.64132e-07)
(-1.76096e-06 -1.29797e-08 -2.71008e-07)
(-4.27902e-06 1.06893e-07 -6.46737e-07)
(-4.03093e-06 -1.63789e-08 -4.98904e-07)
(-3.43745e-06 -2.13516e-07 -3.42824e-07)
(-2.08939e-06 -4.60968e-08 -4.17475e-07)
)
;
    }
    procBoundary3to7
    {
        type            processor;
        value           nonuniform List<vector> 
36
(
(-4.1686e-06 -7.97203e-08 -4.51878e-07)
(-4.21759e-06 -7.78775e-08 -3.72578e-07)
(-4.03422e-06 -3.89711e-08 -4.32046e-07)
(-3.72141e-06 -1.51636e-07 -3.51992e-07)
(-3.17706e-06 7.36339e-08 -2.20062e-07)
(-2.4822e-06 1.94125e-07 1.67597e-07)
(-2.10528e-06 6.88565e-08 -1.99012e-08)
(-1.68542e-06 7.32201e-08 8.64184e-08)
(-7.03567e-07 1.01091e-07 -4.61048e-08)
(-4.00288e-06 -1.56599e-09 -2.7976e-07)
(-4.1271e-06 -1.4555e-07 -3.0838e-07)
(-3.85838e-06 -7.40544e-08 -3.12119e-07)
(-3.62867e-06 -1.0898e-07 -2.42641e-07)
(-2.90396e-06 3.04312e-08 -1.57467e-07)
(-2.48524e-06 -5.76444e-08 -8.5643e-08)
(-2.14719e-06 -7.17129e-08 -1.28568e-07)
(-1.91998e-06 -7.55877e-08 -3.87361e-08)
(-1.05811e-06 -2.14264e-08 -6.90789e-08)
(-3.52778e-06 -2.47191e-07 -1.38599e-07)
(-3.59939e-06 -1.2078e-07 -1.5786e-07)
(-3.35726e-06 -7.18024e-08 -2.07584e-07)
(-2.90747e-06 -7.5684e-08 -1.12389e-07)
(-2.50369e-06 4.92084e-08 -8.03191e-08)
(-2.04748e-06 -1.59188e-07 -1.49909e-07)
(-1.87075e-06 -1.04762e-07 -1.7401e-07)
(-1.66961e-06 -3.05105e-07 1.68152e-08)
(-3.26212e-06 -1.34561e-06 -2.58878e-08)
(-2.92502e-06 1.42018e-07 -1.47175e-07)
(-2.56917e-06 -3.02953e-08 -2.62806e-07)
(-2.11056e-06 -2.26531e-07 -1.59199e-07)
(-1.84838e-06 -6.82677e-08 -6.07758e-08)
(-1.54348e-06 -9.31859e-10 -1.0588e-07)
(-1.31734e-06 3.9713e-08 -1.8135e-07)
(-1.20571e-06 -6.97949e-08 -6.9405e-08)
(-1.05211e-06 -1.54522e-07 5.00265e-08)
(-1.72599e-06 -6.69721e-07 -4.82073e-08)
)
;
    }
}


// ************************************************************************* //
