/*--------------------------------*- C++ -*----------------------------------*\
| =========                 |                                                 |
| \\      /  F ield         | OpenFOAM: The Open Source CFD Toolbox           |
|  \\    /   O peration     | Version:  4.x                                   |
|   \\  /    A nd           | Web:      www.OpenFOAM.org                      |
|    \\/     M anipulation  |                                                 |
\*---------------------------------------------------------------------------*/
FoamFile
{
    version     2.0;
    format      ascii;
    class       volVectorField;
    location    "5.5";
    object      UsPrev;
}
// * * * * * * * * * * * * * * * * * * * * * * * * * * * * * * * * * * * * * //

dimensions      [0 1 -1 0 0 0 0];

internalField   nonuniform List<vector> 
108
(
(-5.18778e-06 1.73124e-07 -1.01448e-06)
(-5.25094e-06 2.04341e-07 -7.81903e-07)
(-5.25092e-06 7.03202e-07 -7.0569e-07)
(-4.82327e-06 8.64056e-08 -4.84792e-07)
(-4.34689e-06 1.53005e-08 -1.28137e-09)
(-4.03849e-06 2.11086e-07 -7.23803e-08)
(-3.98095e-06 5.00395e-08 6.0116e-07)
(-6.82381e-06 -8.2934e-07 7.45234e-07)
(-7.23177e-06 1.0115e-07 4.60254e-07)
(-4.73107e-06 1.12873e-07 -9.46298e-07)
(-4.84276e-06 1.7988e-07 -7.84258e-07)
(-4.62303e-06 8.51748e-08 -6.87645e-07)
(-4.27522e-06 -8.94265e-08 -2.80255e-07)
(-4.14375e-06 -1.27851e-09 -3.17275e-08)
(-4.20604e-06 2.4081e-07 -1.20526e-07)
(-4.5374e-06 -1.15391e-07 7.34131e-07)
(-5.9482e-06 -5.17305e-07 6.26136e-07)
(-1.1643e-05 -2.96211e-07 5.18652e-07)
(-4.10058e-06 -1.58813e-06 -3.88338e-07)
(-4.83951e-06 4.65069e-07 -2.72397e-07)
(-3.81752e-06 1.81756e-07 -2.77788e-07)
(-3.34013e-06 -2.05609e-07 -1.60158e-07)
(-4.35826e-06 2.00213e-07 4.32759e-07)
(-3.71428e-06 1.4129e-07 -5.00113e-07)
(-3.98321e-06 -1.1801e-07 2.28732e-07)
(-3.78715e-06 -9.77477e-07 3.73632e-07)
(-1.23302e-06 -1.08065e-06 -6.71132e-08)
(-2.09165e-06 -8.34852e-08 1.21499e-07)
(-2.72267e-06 3.72373e-08 1.26348e-07)
(-2.1734e-06 -1.98929e-07 1.52128e-07)
(-1.77742e-06 -1.57984e-07 -1.37147e-07)
(-3.75483e-06 5.04209e-08 5.15555e-07)
(-2.7635e-06 3.54687e-08 -1.38518e-07)
(-1.96395e-06 -1.01743e-06 -6.06339e-07)
(-1.63095e-06 -4.35263e-07 1.27491e-07)
(-9.90535e-07 -1.52782e-05 3.44457e-07)
(-5.09929e-06 1.44099e-07 -8.40266e-07)
(-4.9839e-06 1.70271e-07 -7.44658e-07)
(-4.87736e-06 8.23129e-08 -7.0778e-07)
(-4.62341e-06 7.04053e-09 -4.00759e-07)
(-4.15258e-06 1.64847e-08 -1.1539e-07)
(-3.77011e-06 1.28002e-07 -7.099e-08)
(-3.22776e-06 2.33589e-08 2.10312e-07)
(-2.94522e-06 1.63622e-08 4.6578e-07)
(-2.55283e-06 -5.62008e-08 4.27696e-07)
(-4.65494e-06 4.12134e-10 -7.79446e-07)
(-4.76836e-06 1.95793e-08 -7.6403e-07)
(-4.60298e-06 -3.76514e-08 -6.50011e-07)
(-4.34202e-06 -3.97115e-08 -2.51383e-07)
(-3.90863e-06 -2.27253e-07 -4.58485e-09)
(-3.63867e-06 7.28082e-08 9.57835e-09)
(-3.0363e-06 2.21972e-07 3.20781e-07)
(-2.83914e-06 -1.20875e-07 3.40549e-07)
(-1.00564e-06 -2.86818e-07 2.1434e-07)
(-3.93956e-06 -2.28738e-07 -6.3237e-07)
(-3.86148e-06 -1.34e-07 -3.25041e-07)
(-3.77693e-06 -7.9227e-08 -3.98474e-07)
(-3.31122e-06 -2.74704e-07 -1.78837e-07)
(-3.03394e-06 -8.30179e-08 -6.74745e-08)
(-2.83355e-06 5.2113e-08 -9.97043e-09)
(-3.01311e-06 -1.20043e-07 3.14944e-07)
(-2.58109e-06 -2.3631e-07 1.84848e-07)
(-1.15812e-06 -4.99145e-07 -8.67998e-08)
(-2.54886e-06 -1.7386e-07 -3.65894e-07)
(-2.52385e-06 2.65725e-08 -7.33507e-08)
(-1.98711e-06 -1.43768e-07 -1.28846e-07)
(-1.93422e-06 -1.90589e-07 -1.28449e-07)
(-1.60835e-06 -1.71756e-07 -1.00862e-07)
(-1.56129e-06 -4.41369e-08 -1.7776e-07)
(-1.37343e-06 -8.40504e-08 4.58882e-08)
(-1.70999e-06 -1.97729e-07 6.7034e-08)
(-6.35779e-07 -2.39446e-07 2.95906e-07)
(-4.64989e-06 1.15346e-07 -6.51691e-07)
(-4.69103e-06 1.69182e-07 -6.18121e-07)
(-4.64088e-06 2.75636e-07 -5.87032e-07)
(-4.20549e-06 3.82082e-08 -4.62995e-07)
(-3.68564e-06 9.61279e-08 -3.30456e-07)
(-2.91076e-06 8.88151e-08 -2.63586e-08)
(-2.5682e-06 9.91336e-08 3.43203e-08)
(-2.06807e-06 1.63461e-07 2.57312e-07)
(-1.14108e-06 3.2598e-08 1.39926e-07)
(-4.49232e-06 4.71596e-08 -5.87886e-07)
(-4.52475e-06 -1.59817e-08 -5.42103e-07)
(-4.38828e-06 1.49742e-08 -4.73779e-07)
(-3.8022e-06 8.55357e-08 -1.55762e-07)
(-3.28498e-06 2.5455e-08 -7.9627e-08)
(-2.94042e-06 -1.70835e-07 -4.31201e-08)
(-2.44607e-06 -1.38339e-08 -5.86106e-08)
(-2.0295e-06 -1.14022e-08 -1.24069e-08)
(-1.15296e-06 -9.03041e-08 4.92746e-10)
(-3.84759e-06 5.67476e-08 -2.84517e-07)
(-3.8399e-06 -6.75236e-08 -2.71829e-07)
(-3.87712e-06 -1.8044e-07 -4.18017e-07)
(-3.12749e-06 1.2451e-07 -1.16271e-07)
(-2.70461e-06 2.81202e-08 -1.18333e-07)
(-2.45042e-06 -2.38456e-07 -9.59185e-08)
(-2.34936e-06 -8.57091e-08 1.36887e-08)
(-1.84259e-06 -2.48257e-08 5.81357e-08)
(-8.3492e-07 -1.58043e-07 8.30469e-08)
(-2.54125e-06 2.61598e-07 -2.1347e-07)
(-2.20293e-06 -3.38291e-08 -2.29918e-07)
(-2.29832e-06 -1.87102e-07 -1.97103e-07)
(-1.82231e-06 -2.49713e-07 -1.22722e-07)
(-1.78186e-06 -1.3342e-08 -1.01286e-07)
(-1.30392e-06 -1.46148e-07 -1.78364e-07)
(-1.05947e-06 2.00701e-08 -1.85759e-08)
(-1.29818e-06 -2.26435e-07 2.08272e-07)
(-6.66855e-07 -1.25074e-07 1.25597e-07)
)
;

boundaryField
{
    inlet
    {
        type            calculated;
        value           nonuniform 0();
    }
    outlet
    {
        type            calculated;
        value           uniform (0 0 0);
    }
    wall
    {
        type            calculated;
        value           uniform (0 0 0);
    }
    procBoundary3to1
    {
        type            processor;
        value           uniform (0 0 0);
    }
    procBoundary3to2
    {
        type            processor;
        value           uniform (0 0 0);
    }
    procBoundary3to7
    {
        type            processor;
        value           uniform (0 0 0);
    }
}


// ************************************************************************* //
