/*--------------------------------*- C++ -*----------------------------------*\
  =========                 |
  \\      /  F ield         | OpenFOAM: The Open Source CFD Toolbox
   \\    /   O peration     | Website:  https://openfoam.org
    \\  /    A nd           | Version:  4.x
     \\/     M anipulation  |
\*---------------------------------------------------------------------------*/
FoamFile
{
    version     2.0;
    format      ascii;
    class       Cloud<passiveParticle>;
    location    0;
    object      positions;
}
// * * * * * * * * * * * * * * * * * * * * * * * * * * * * * * * * * * * * * //

303
(
( 0.252961 0.0900485 -0.055805 ) 63
( 0.250443 0.0316245 -0.0549342 ) 45
( 0.250267 0.0300146 -0.0351503 ) 81
( 0.25404 0.0693105 -0.0504232 ) 54
( 0.250999 0.0682511 -0.0699613 ) 54
( 0.250535 0.0107809 -0.0752706 ) 0
( 0.25004 0.0882436 -0.0216935 ) 99
( 0.250081 0.0359565 -0.0743502 ) 9
( 0.255984 0.031291 -0.0150639 ) 81
( 0.381173 -0.0139627 -0.0338149 ) 76
( 0.421053 -0.011133 -0.0808094 ) 6
( 0.473704 -0.0061817 -0.0415275 ) 80
( 0.324522 -0.0104755 -0.0763999 ) 2
( 0.403992 -0.00384245 -0.0735527 ) 5
( 0.490068 -0.0109807 -0.0578443 ) 44
( 0.371713 -0.0059106 -0.0492874 ) 40
( 0.468609 -0.00182024 -0.0854542 ) 7
( 0.342623 -0.00281653 -0.0730977 ) 3
( 0.33468 -0.0140194 -0.0328634 ) 75
( 0.439292 -0.00180441 -0.0578272 ) 42
( 0.321635 -0.0117828 -0.0474273 ) 38
( 0.360804 -0.000890595 -0.0651449 ) 39
( 0.310634 -0.00594433 -0.0628125 ) 38
( 0.35424 -0.0122622 -0.0387088 ) 75
( 0.272134 -0.00316039 -0.0685193 ) 36
( 0.283838 -0.0122163 -0.0389822 ) 73
( 0.436692 0.000607984 -0.0773505 ) 6
( 0.490039 -0.0122098 -0.0777209 ) 8
( 0.302408 -0.00847294 -0.0445015 ) 37
( 0.394153 -0.00440757 -0.0448504 ) 41
( 0.472398 -0.0116094 -0.0684669 ) 44
( 0.275369 -0.0100672 -0.0201184 ) 72
( 0.47307 -0.0126255 -0.0212215 ) 80
( 0.387641 0.0265092 -0.0548109 ) 49
( 0.303823 0.0719246 -0.064757 ) 64
( 0.336982 0.0639505 -0.0467564 ) 57
( 0.325517 0.0165137 -0.0484599 ) 47
( 0.443406 0.037629 -0.0466841 ) 51
( 0.286599 0.0647073 -0.058255 ) 55
( 0.331197 0.0508638 -0.0605253 ) 56
( 0.455283 0.0130429 -0.0859001 ) 7
( 0.369661 0.0348415 -0.0532768 ) 49
( 0.49005 0.0227641 -0.0532073 ) 53
( 0.324477 0.0376841 -0.0746518 ) 11
( 0.293246 0.0258989 -0.0575164 ) 46
( 0.379206 0.00960396 -0.064272 ) 40
( 0.470473 0.0687673 -0.0577926 ) 61
( 0.43137 0.0711146 -0.0625276 ) 60
( 0.456052 0.071042 -0.0785079 ) 25
( 0.342717 0.0322689 -0.0689292 ) 48
( 0.3201 0.0460943 -0.044674 ) 56
( 0.300952 0.061408 -0.0451272 ) 55
( 0.36874 0.0542609 -0.0494214 ) 58
( 0.353718 0.0455376 -0.059191 ) 57
( 0.324339 0.0854187 -0.0374921 ) 101
( 0.353035 0.0836151 -0.0694602 ) 66
( 0.452508 0.077223 -0.0555909 ) 70
( 0.286345 0.0901514 -0.0309876 ) 100
( 0.417165 0.0203238 -0.0480538 ) 51
( 0.334331 0.0725998 -0.0645034 ) 66
( 0.388196 0.0701276 -0.0536244 ) 58
( 0.471217 0.090126 -0.0645136 ) 70
( 0.47398 0.0680922 -0.0382051 ) 98
( 0.489923 0.0146459 -0.0838792 ) 17
( 0.265348 0.0160767 -0.0366172 ) 81
( 0.399857 0.0666633 -0.069405 ) 59
( 0.327072 0.0285552 -0.0321223 ) 83
( 0.349201 0.064048 -0.0204727 ) 93
( 0.395506 0.0136882 -0.0780009 ) 5
( 0.306283 0.0318131 -0.0402779 ) 83
( 0.302929 0.0349689 -0.0723496 ) 10
( 0.458126 0.0434132 -0.0605836 ) 61
( 0.272494 0.051358 -0.0543027 ) 54
( 0.410949 0.0510394 -0.0599484 ) 59
( 0.457313 0.0242586 -0.0515046 ) 52
( 0.430471 0.0826265 -0.0787154 ) 33
( 0.365704 0.0410988 -0.034853 ) 85
( 0.315991 0.0314857 -0.0576529 ) 47
( 0.473511 0.0304714 -0.0613001 ) 53
( 0.366627 0.0114747 -0.0796594 ) 4
( 0.290646 0.0899561 -0.0503423 ) 64
( 0.269123 0.0164853 -0.0710613 ) 45
( 0.405306 0.0262721 -0.0640912 ) 50
( 0.474267 0.0473977 -0.0500796 ) 62
( 0.441137 0.0386864 -0.0695273 ) 51
( 0.419568 0.0138261 -0.070385 ) 42
( 0.346425 0.0806698 -0.0509006 ) 66
( 0.438794 0.0558571 -0.0404747 ) 96
( 0.437432 0.0204281 -0.0763409 ) 15
( 0.478468 0.0748779 -0.0750676 ) 35
( 0.334552 0.0339131 -0.0507872 ) 48
( 0.380769 0.0380696 -0.069436 ) 49
( 0.460877 0.0406558 -0.0375667 ) 88
( 0.401406 0.0836706 -0.0593745 ) 68
( 0.363213 0.0534083 -0.0747312 ) 22
( 0.280311 0.0682376 -0.0394719 ) 91
( 0.422364 0.062888 -0.0782018 ) 24
( 0.37137 0.0898858 -0.0742343 ) 31
( 0.396956 0.021122 -0.038202 ) 86
( 0.347137 0.0156708 -0.0789866 ) 12
( 0.352695 0.0296693 -0.0442878 ) 48
( 0.273332 0.0789094 -0.0546293 ) 63
( 0.490003 0.0338742 -0.0785423 ) 17
( 0.383656 0.0741923 -0.0839165 ) 31
( 0.458124 0.0291023 -0.0743612 ) 16
( 0.4242 0.0430605 -0.0791787 ) 24
( 0.287264 0.0825083 -0.0684497 ) 64
( 0.430874 0.0736571 -0.0429385 ) 69
( 0.490014 0.0899335 -0.0823023 ) 35
( 0.293504 0.0527134 -0.0725224 ) 19
( 0.326525 0.00587535 -0.065175 ) 38
( 0.293729 0.011091 -0.0708808 ) 37
( 0.351013 0.0159536 -0.0300718 ) 84
( 0.490039 0.0536568 -0.0821012 ) 26
( 0.41299 0.0679792 -0.0496025 ) 59
( 0.319248 0.0691539 -0.0770278 ) 20
( 0.457896 0.058302 -0.0463291 ) 61
( 0.38086 0.00957959 -0.0399726 ) 76
( 0.473272 0.0107264 -0.0537082 ) 44
( 0.472191 0.013566 -0.073329 ) 7
( 0.283948 0.0211249 -0.0407434 ) 82
( 0.269251 0.0318699 -0.0484779 ) 45
( 0.361773 0.0187397 -0.0617538 ) 49
( 0.472147 0.0230622 -0.0383431 ) 88
( 0.30814 0.0495788 -0.029288 ) 92
( 0.370974 0.0729387 -0.0630192 ) 67
( 0.43769 0.0900984 -0.0616591 ) 69
( 0.428929 0.00664777 -0.0395667 ) 78
( 0.48867 0.0765048 -0.0485599 ) 71
( 0.391248 0.0508005 -0.0566633 ) 59
( 0.474847 0.0497551 -0.0697766 ) 62
( 0.406152 0.0514574 -0.0805367 ) 23
( 0.398362 0.0717537 -0.0366186 ) 104
( 0.392161 0.0901554 -0.0757337 ) 32
( 0.412459 0.0900721 -0.074641 ) 32
( 0.273965 0.00936661 -0.0531765 ) 36
( 0.436497 0.0198679 -0.0539943 ) 51
( 0.444039 0.0900553 -0.0430264 ) 69
( 0.356162 0.00636998 -0.0471969 ) 39
( 0.329698 0.0900758 -0.0559892 ) 65
( 0.49019 0.0413548 -0.0601318 ) 53
( 0.43302 0.0252984 -0.0351566 ) 87
( 0.342562 0.0155201 -0.0583245 ) 48
( 0.363761 0.0727282 -0.0445144 ) 67
( 0.490253 0.0379941 -0.040578 ) 89
( 0.469727 0.0900459 -0.0845721 ) 34
( 0.419423 0.0507398 -0.041895 ) 96
( 0.283461 0.0519962 -0.021921 ) 91
( 0.425746 0.0902819 -0.0339606 ) 105
( 0.363513 0.0902213 -0.0539316 ) 67
( 0.300539 0.0106267 -0.0394385 ) 73
( 0.265796 0.0902362 -0.040251 ) 99
( 0.300723 0.0441081 -0.0547979 ) 55
( 0.342809 0.055488 -0.0759624 ) 21
( 0.352688 0.065248 -0.0617423 ) 57
( 0.398304 0.00856368 -0.0590162 ) 41
( 0.38281 0.0900329 -0.0579668 ) 67
( 0.417386 0.00156988 -0.0549051 ) 42
( 0.448717 0.00807065 -0.0435242 ) 43
( 0.295511 0.0668989 -0.0270167 ) 91
( 0.385369 0.0566737 -0.0386904 ) 94
( 0.490524 0.0901609 -0.0624082 ) 71
( 0.398999 0.0329338 -0.0817727 ) 14
( 0.308296 0.0129949 -0.0574157 ) 38
( 0.490128 0.0523852 -0.026393 ) 98
( 0.490048 0.0903458 -0.0346562 ) 107
( 0.27071 0.0663366 -0.0698976 ) 54
( 0.307621 0.0800948 -0.0469894 ) 65
( 0.464289 0.0900756 -0.045955 ) 70
( 0.321927 0.0658488 -0.0339645 ) 92
( 0.490099 0.00455876 -0.0449891 ) 44
( 0.490013 0.0627409 -0.0643546 ) 62
( 0.26633 0.0471775 -0.0727454 ) 18
( 0.430954 0.0512731 -0.0580708 ) 60
( 0.34719 0.090436 -0.033903 ) 102
( 0.311493 0.0901797 -0.0638047 ) 65
( 0.40545 0.0902602 -0.0410602 ) 104
( 0.490358 0.0572977 -0.0452936 ) 62
( 0.382587 0.057517 -0.0732116 ) 22
( 0.455418 0.0494873 -0.0793203 ) 25
( 0.473202 0.0277225 -0.0873419 ) 17
( 0.267233 0.0901273 -0.0697391 ) 63
( 0.381344 0.0824856 -0.0396517 ) 103
( 0.452329 0.0118913 -0.0662495 ) 43
( 0.44519 0.0893992 -0.0903629 ) 34
( 0.375132 0.0248606 -0.0286439 ) 85
( 0.335073 0.0900473 -0.0750893 ) 30
( 0.453632 0.0899749 -0.072777 ) 34
( 0.318538 0.0647259 -0.0535732 ) 56
( 0.286845 0.0480262 -0.0410541 ) 91
( 0.447778 0.0599669 -0.0641757 ) 61
( 0.315725 0.0198022 -0.0745439 ) 11
( 0.474013 0.0715907 -0.0149021 ) 107
( 0.393377 0.0606382 -0.0209734 ) 95
( 0.410574 0.0815487 -0.024297 ) 104
( 0.317396 0.0370091 -0.0168729 ) 83
( 0.455525 0.0776416 -0.0162681 ) 106
( 0.390578 0.0155909 -0.0202742 ) 86
( 0.49 0.01852 -0.0308302 ) 89
( 0.323601 0.060711 -0.0149327 ) 92
( 0.363237 0.0817603 -0.0269932 ) 103
( 0.407666 0.0246402 -0.0171459 ) 86
( 0.440569 0.0038294 -0.0235072 ) 78
( 0.466771 0.02297 -0.0192461 ) 88
( 0.348596 0.0851099 -0.0143848 ) 102
( 0.380587 0.0455467 -0.0230133 ) 94
( 0.44774 0.0607652 -0.0235465 ) 97
( 0.431059 0.0440271 -0.0265352 ) 96
( 0.392909 0.090232 -0.0254482 ) 104
( 0.41472 0.0430211 -0.0155152 ) 95
( 0.458236 0.0059695 -0.0147223 ) 79
( 0.490066 0.0721694 -0.0271449 ) 107
( 0.439535 0.0251594 -0.016471 ) 87
( 0.305667 0.022171 -0.0230433 ) 83
( 0.423826 0.0142636 -0.0212756 ) 78
( 0.269725 0.0900196 -0.0201486 ) 99
( 0.333211 0.0124412 -0.0221084 ) 74
( 0.414918 0.0620514 -0.0262578 ) 95
( 0.330872 0.0783033 -0.0202587 ) 101
( 0.270468 0.0348526 -0.0288576 ) 81
( 0.380606 0.0750726 -0.0213199 ) 103
( 0.471453 0.089542 -0.0275724 ) 106
( 0.490086 0.0899639 -0.0146742 ) 107
( 0.259473 0.0469113 -0.0399936 ) 90
( 0.255894 -0.000332131 -0.0572081 ) 36
( 0.459498 -0.00336475 -0.0558326 ) 43
( 0.321342 -0.00174344 -0.0156964 ) 74
( 0.362214 0.0334791 -0.0751087 ) 13
( 0.419397 0.0900479 -0.0548844 ) 69
( 0.318642 0.00540915 -0.0337532 ) 74
( 0.489738 0.00724628 -0.0653999 ) 44
( 0.409309 0.00579621 -0.0368224 ) 77
( 0.28016 0.0330859 -0.0705655 ) 46
( 0.265683 0.0564735 -0.0144927 ) 90
( 0.442725 0.0903511 -0.023468 ) 105
( 0.474687 0.00637689 -0.0261863 ) 80
( 0.262233 0.0723637 -0.0326199 ) 99
( 0.387648 -0.00840182 -0.0631149 ) 40
( 0.423683 0.033192 -0.0619223 ) 51
( 0.268922 0.0104238 -0.0179807 ) 72
( 0.427988 -0.0128028 -0.0421286 ) 78
( 0.266068 -0.00363512 -0.0404234 ) 72
( 0.396458 -0.00297744 -0.0244337 ) 77
( 0.337219 0.000522054 -0.0461665 ) 39
( 0.254323 -0.00877164 -0.0752239 ) 0
( 0.331116 0.0476759 -0.0280559 ) 92
( 0.455425 0.0751312 -0.0359565 ) 106
( 0.376857 -0.00564261 -0.0795806 ) 4
( 0.312869 0.0524487 -0.0681114 ) 56
( 0.402827 0.0373984 -0.04787 ) 50
( 0.253064 0.05105 -0.058346 ) 54
( 0.288807 -0.00306814 -0.0577781 ) 37
( 0.34886 0.0496221 -0.0404482 ) 93
( 0.313746 -0.0138226 -0.0291743 ) 74
( 0.415393 0.033368 -0.0331327 ) 86
( 0.347277 -0.00226607 -0.0230004 ) 75
( 0.490138 -0.00980756 -0.0310234 ) 80
( 0.290331 0.0341057 -0.0274074 ) 82
( 0.277414 0.071588 -0.0197776 ) 99
( 0.367908 0.0606253 -0.0266073 ) 94
( 0.365255 0.00207016 -0.0302487 ) 76
( 0.452209 0.0238665 -0.0322066 ) 88
( 0.30556 0.0854562 -0.0279769 ) 101
( 0.476991 0.0378459 -0.0261753 ) 89
( 0.250334 0.0141026 -0.0235007 ) 72
( 0.420165 -0.00486087 -0.0242434 ) 78
( 0.350116 0.0418291 -0.0224051 ) 84
( 0.468194 0.0552817 -0.0242827 ) 97
( 0.295122 -0.0110026 -0.0230111 ) 73
( 0.431844 0.0737087 -0.022991 ) 105
( 0.28657 0.00673634 -0.0261712 ) 73
( 0.456887 -0.00495523 -0.0310962 ) 79
( 0.399515 0.0436505 -0.0284256 ) 95
( 0.449879 0.0412099 -0.0212563 ) 88
( 0.346248 -0.0137401 -0.056873 ) 39
( 0.281658 -0.011955 -0.0836137 ) 1
( 0.470896 0.0601986 -0.0862665 ) 25
( 0.380429 0.0250192 -0.0844832 ) 13
( 0.38389 0.0443462 -0.0881059 ) 22
( 0.300213 0.0677002 -0.0838829 ) 19
( 0.347293 0.0394636 -0.0869284 ) 12
( 0.445084 0.0342656 -0.0885497 ) 16
( 0.275554 0.07927 -0.0842493 ) 27
( 0.282869 0.0197407 -0.0851479 ) 10
( 0.329342 0.00860807 -0.0846935 ) 2
( 0.278691 0.0564964 -0.0852896 ) 19
( 0.363904 0.072137 -0.0816138 ) 31
( 0.301912 0.0874135 -0.0810418 ) 28
( 0.310999 0.0459834 -0.0868653 ) 20
( 0.26628 0.0307936 -0.0846876 ) 9
( 0.342991 0.0738655 -0.0836452 ) 30
( 0.356869 0.0900352 -0.0879207 ) 30
( 0.407934 0.0742728 -0.0859519 ) 32
( 0.253297 0.0900608 -0.0839328 ) 27
( 0.417121 0.0257637 -0.0861312 ) 15
( 0.308594 0.00225165 -0.0808433 ) 2
( 0.438038 0.0548112 -0.0875007 ) 24
( 0.260745 0.0655703 -0.0871476 ) 18
( 0.289884 0.0392829 -0.0868235 ) 10
( 0.302146 0.0234953 -0.0886558 ) 10
( 0.320408 0.088242 -0.0884569 ) 29
( 0.265765 0.00375991 -0.0860847 ) 0
( 0.328024 0.0561015 -0.0893076 ) 20
)
