/*--------------------------------*- C++ -*----------------------------------*\
| =========                 |                                                 |
| \\      /  F ield         | OpenFOAM: The Open Source CFD Toolbox           |
|  \\    /   O peration     | Version:  4.x                                   |
|   \\  /    A nd           | Web:      www.OpenFOAM.org                      |
|    \\/     M anipulation  |                                                 |
\*---------------------------------------------------------------------------*/
FoamFile
{
    version     2.0;
    format      ascii;
    class       volVectorField;
    location    "15";
    object      ddtUrel;
}
// * * * * * * * * * * * * * * * * * * * * * * * * * * * * * * * * * * * * * //

dimensions      [0 1 -2 0 0 0 0];

internalField   nonuniform List<vector> 
132
(
(3.33835e-05 3.04793e-06 -7.01947e-06)
(2.626e-05 2.84673e-06 -6.2866e-06)
(1.95831e-05 2.40233e-06 -5.6127e-06)
(1.26158e-05 1.94932e-06 -4.50517e-06)
(7.78453e-06 1.22737e-06 -2.83416e-06)
(4.59034e-06 8.69169e-07 -2.12114e-06)
(-9.95127e-07 5.79485e-07 -1.57779e-06)
(-4.40983e-06 1.80794e-07 -1.03527e-06)
(-3.46244e-06 -4.17242e-08 -7.5979e-07)
(3.27005e-05 3.82781e-06 -8.21091e-06)
(2.53635e-05 3.15423e-06 -7.00008e-06)
(1.88856e-05 2.39988e-06 -5.93186e-06)
(1.24315e-05 1.91393e-06 -4.6773e-06)
(7.76385e-06 1.46417e-06 -3.34673e-06)
(4.30227e-06 8.898e-07 -2.36361e-06)
(-1.3227e-06 5.37713e-07 -1.67141e-06)
(-4.52959e-06 2.28622e-07 -1.24331e-06)
(-3.84545e-06 1.0286e-07 -8.48891e-07)
(3.24181e-05 3.86551e-06 -9.01231e-06)
(2.46799e-05 2.88518e-06 -7.61545e-06)
(1.84301e-05 2.09058e-06 -6.04041e-06)
(1.28171e-05 1.61633e-06 -4.83774e-06)
(8.30424e-06 1.4351e-06 -3.69187e-06)
(4.5457e-06 9.3877e-07 -2.66371e-06)
(-9.29397e-07 4.44445e-07 -1.82891e-06)
(-3.77847e-06 2.70533e-07 -1.27269e-06)
(-3.26544e-06 2.08095e-07 -9.28527e-07)
(3.1777e-05 3.47728e-06 -9.50306e-06)
(2.36804e-05 2.53117e-06 -7.59286e-06)
(1.72933e-05 1.88111e-06 -6.08501e-06)
(1.22899e-05 1.51125e-06 -4.84788e-06)
(8.51409e-06 1.22558e-06 -3.79687e-06)
(4.67158e-06 8.44593e-07 -2.70432e-06)
(-3.33763e-07 3.89415e-07 -1.82741e-06)
(-2.95845e-06 3.35178e-07 -1.20312e-06)
(-2.7303e-06 4.03425e-07 -9.04368e-07)
(1.97781e-05 2.0263e-06 -4.67385e-06)
(1.3472e-05 1.76061e-06 -3.66361e-06)
(8.66198e-06 1.09528e-06 -2.44268e-06)
(5.05016e-06 9.11059e-07 -1.93233e-06)
(-4.25451e-07 5.66736e-07 -1.32069e-06)
(-3.64479e-06 1.79901e-07 -7.8649e-07)
(-2.92275e-06 3.64715e-08 -4.97793e-07)
(3.23758e-05 2.76059e-06 -6.51089e-06)
(2.55772e-05 2.56541e-06 -5.82647e-06)
(1.91546e-05 2.17437e-06 -5.06636e-06)
(1.31603e-05 1.74282e-06 -3.9216e-06)
(8.67338e-06 1.27137e-06 -2.73491e-06)
(5.01019e-06 8.65046e-07 -2.06293e-06)
(-7.03362e-07 5.63207e-07 -1.44195e-06)
(-3.59271e-06 3.17408e-07 -8.71039e-07)
(-2.91871e-06 2.32245e-07 -5.84415e-07)
(3.19458e-05 3.01948e-06 -7.23296e-06)
(2.49485e-05 2.4913e-06 -6.38619e-06)
(1.85819e-05 1.99233e-06 -5.29714e-06)
(1.29652e-05 1.53125e-06 -4.1733e-06)
(8.49347e-06 1.22363e-06 -2.9796e-06)
(4.76218e-06 8.00912e-07 -2.21032e-06)
(-3.93677e-07 5.09156e-07 -1.53297e-06)
(-3.07787e-06 4.03994e-07 -9.53648e-07)
(-2.59869e-06 3.64675e-07 -6.63392e-07)
(3.08085e-05 2.57273e-06 -7.69436e-06)
(2.38619e-05 2.15812e-06 -6.50352e-06)
(1.7267e-05 1.67563e-06 -5.28888e-06)
(1.24773e-05 1.33823e-06 -4.1727e-06)
(8.15593e-06 9.29051e-07 -2.98495e-06)
(4.37132e-06 7.5756e-07 -2.13784e-06)
(-3.50609e-08 5.19996e-07 -1.45023e-06)
(-2.4901e-06 4.84731e-07 -8.8887e-07)
(-2.31733e-06 4.81323e-07 -6.84966e-07)
(9.0802e-06 1.16651e-06 -2.12325e-06)
(5.33023e-06 8.50019e-07 -1.5777e-06)
(1.53151e-07 5.07395e-07 -9.99439e-07)
(-2.63036e-06 2.66335e-07 -5.38907e-07)
(-2.26737e-06 9.53722e-08 -3.33925e-07)
(3.1307e-05 2.43476e-06 -4.81758e-06)
(2.51111e-05 2.25927e-06 -4.75667e-06)
(1.90123e-05 1.93016e-06 -4.00007e-06)
(1.31912e-05 1.60024e-06 -3.05523e-06)
(8.68308e-06 1.2324e-06 -2.17535e-06)
(4.88623e-06 9.05142e-07 -1.68284e-06)
(-3.3998e-07 5.61711e-07 -1.15877e-06)
(-2.82677e-06 4.04005e-07 -6.27057e-07)
(-2.20722e-06 3.01658e-07 -3.99949e-07)
(3.08599e-05 2.40094e-06 -5.49391e-06)
(2.44657e-05 2.17821e-06 -5.06447e-06)
(1.85241e-05 1.79815e-06 -4.27285e-06)
(1.31877e-05 1.38699e-06 -3.37998e-06)
(8.46786e-06 1.11388e-06 -2.39054e-06)
(4.82622e-06 8.60293e-07 -1.7609e-06)
(5.66563e-08 5.87589e-07 -1.23169e-06)
(-2.28455e-06 4.92517e-07 -7.15462e-07)
(-2.02582e-06 4.65482e-07 -5.03577e-07)
(2.89907e-05 2.05349e-06 -5.6526e-06)
(2.30196e-05 1.73996e-06 -5.21815e-06)
(1.73285e-05 1.51348e-06 -4.25414e-06)
(1.25109e-05 1.21838e-06 -3.39047e-06)
(8.3173e-06 1.01208e-06 -2.3733e-06)
(4.71174e-06 7.5766e-07 -1.65652e-06)
(3.25132e-07 6.06405e-07 -1.1629e-06)
(-1.74576e-06 5.87776e-07 -7.22284e-07)
(-1.9506e-06 7.426e-07 -4.91149e-07)
(8.44339e-08 4.96124e-07 -7.60496e-07)
(-2.20716e-06 2.8477e-07 -3.98967e-07)
(-1.57941e-06 1.8989e-07 -2.64994e-07)
(2.95994e-05 2.17904e-06 -3.79155e-06)
(2.39413e-05 2.08433e-06 -3.7375e-06)
(1.84333e-05 1.86865e-06 -3.13134e-06)
(1.28644e-05 1.46054e-06 -2.47626e-06)
(8.6063e-06 1.11775e-06 -1.8223e-06)
(4.99543e-06 8.5907e-07 -1.35813e-06)
(2.65442e-08 5.40637e-07 -8.80719e-07)
(-2.21175e-06 3.86493e-07 -5.02279e-07)
(-2.01797e-06 3.30944e-07 -3.43281e-07)
(2.87316e-05 2.18221e-06 -4.24286e-06)
(2.31342e-05 1.91041e-06 -4.03137e-06)
(1.78661e-05 1.6898e-06 -3.45348e-06)
(1.25851e-05 1.33069e-06 -2.74815e-06)
(8.06184e-06 1.05006e-06 -1.99247e-06)
(4.53375e-06 7.82117e-07 -1.37445e-06)
(2.87585e-07 5.91332e-07 -9.48531e-07)
(-1.89101e-06 5.47337e-07 -5.91183e-07)
(-1.91133e-06 6.75449e-07 -3.84298e-07)
(2.69362e-05 1.91121e-06 -4.39399e-06)
(2.18587e-05 1.67703e-06 -4.13705e-06)
(1.67352e-05 1.42725e-06 -3.38814e-06)
(1.21166e-05 1.17174e-06 -2.74234e-06)
(7.81574e-06 9.60083e-07 -2.01828e-06)
(4.17954e-06 6.85799e-07 -1.40109e-06)
(3.70814e-07 6.24578e-07 -9.64517e-07)
(-1.59087e-06 7.97299e-07 -6.32908e-07)
(-1.85671e-06 1.70055e-06 -2.90054e-07)
)
;

boundaryField
{
    inlet
    {
        type            calculated;
        value           nonuniform 0();
    }
    outlet
    {
        type            calculated;
        value           nonuniform List<vector> 
16
(
(1.56013e-06 7.6501e-07 6.35425e-07)
(2.12948e-06 8.10446e-07 8.47141e-07)
(1.05257e-06 4.34934e-07 2.84365e-07)
(5.39263e-07 3.16371e-08 5.23363e-07)
(1.48713e-06 -1.71234e-08 1.02573e-06)
(1.35178e-06 9.60956e-08 6.48186e-07)
(1.11634e-06 8.19753e-08 2.55385e-07)
(1.13754e-06 2.76262e-07 2.449e-07)
(1.73266e-06 -1.73378e-07 2.11741e-07)
(1.73003e-06 1.03909e-07 1.71986e-07)
(1.8039e-06 1.93593e-07 6.58776e-08)
(1.77226e-06 6.82522e-08 1.75022e-07)
(1.77327e-06 1.37462e-07 2.53452e-08)
(1.24801e-06 1.8063e-08 9.22794e-08)
(1.60447e-06 -1.25851e-07 1.66646e-07)
(-1.94832e-06 1.06884e-05 1.62592e-06)
)
;
    }
    wall
    {
        type            calculated;
        value           nonuniform List<vector> 
66
(
(2.63881e-05 1.17212e-06 -1.81547e-06)
(2.68084e-05 2.44908e-06 -2.84589e-06)
(1.50872e-05 1.67616e-06 -1.04226e-06)
(2.19396e-05 2.63518e-06 -2.39665e-06)
(2.10312e-05 9.56775e-07 -2.64165e-06)
(1.49907e-05 1.21085e-06 -2.83395e-06)
(1.53868e-05 2.46893e-06 -9.9993e-07)
(2.23986e-05 2.32313e-06 -2.3642e-06)
(1.08199e-05 1.12174e-06 -7.75058e-07)
(5.77122e-06 1.62011e-06 -9.17778e-07)
(1.10195e-05 1.27773e-06 -1.61141e-06)
(9.02866e-06 2.31534e-09 -1.33885e-06)
(3.60774e-06 8.70357e-07 -3.71211e-07)
(4.75933e-06 5.68687e-07 -9.23148e-07)
(3.21436e-06 4.89699e-07 -3.87351e-07)
(9.3721e-06 6.00032e-07 -7.00835e-07)
(6.16685e-06 -1.68727e-07 -2.91566e-07)
(-1.17739e-06 -3.19736e-08 2.2421e-07)
(-1.08999e-05 1.90113e-07 -3.20048e-07)
(-1.14706e-05 2.56095e-07 -4.44776e-09)
(-8.08925e-06 1.07858e-07 -1.66543e-07)
(-2.57107e-06 -1.18663e-08 -3.8707e-07)
(-1.33317e-05 -6.69119e-08 9.61875e-07)
(-9.12771e-06 8.59166e-08 -5.90392e-08)
(-8.30451e-06 2.12822e-07 5.54602e-08)
(-5.73784e-06 1.32657e-07 -2.57746e-07)
(3.03187e-07 9.12647e-08 1.3803e-07)
(-1.61858e-07 -2.2208e-08 7.82624e-08)
(3.52095e-07 -9.23705e-08 1.84989e-07)
(-2.78606e-06 1.07108e-05 1.75253e-06)
(3.88325e-05 4.71515e-06 -2.38254e-05)
(2.78294e-05 1.09832e-07 -1.39093e-05)
(2.13636e-05 -2.90438e-07 -4.15263e-06)
(1.23388e-05 1.66261e-06 -9.97262e-07)
(1.87639e-05 1.37253e-06 -8.15272e-06)
(2.31232e-05 1.30587e-06 -7.99046e-06)
(1.40386e-05 5.51167e-07 -6.2434e-06)
(1.19591e-05 1.21035e-06 -2.79461e-06)
(7.22899e-06 -3.06165e-07 -5.51812e-06)
(1.0317e-06 5.74803e-07 -5.46187e-06)
(1.09831e-05 -1.58321e-07 -3.19652e-06)
(9.95019e-06 1.09999e-06 -7.13841e-07)
(4.96067e-06 8.97396e-07 -4.94884e-06)
(7.16403e-06 3.58333e-07 -4.85202e-06)
(8.58426e-06 7.05981e-07 -2.92709e-06)
(9.78119e-06 6.54764e-08 -1.33485e-06)
(5.36422e-06 1.20016e-06 -4.75951e-06)
(5.37314e-06 -1.16466e-06 -1.87682e-06)
(5.4715e-06 6.73511e-07 -1.09631e-06)
(4.17556e-06 5.50406e-07 -4.56453e-07)
(8.57629e-06 1.40096e-06 -1.89145e-06)
(4.98153e-07 8.82705e-07 -1.59e-06)
(1.06765e-05 7.28266e-07 -2.78966e-07)
(1.02205e-06 1.42094e-08 2.46772e-07)
(-8.45904e-06 1.59724e-07 -9.02065e-07)
(-4.8386e-06 -1.13973e-07 -3.46444e-07)
(-5.82668e-06 3.24455e-07 -3.02878e-07)
(-3.14592e-06 -9.62105e-09 -3.55541e-07)
(-1.24978e-05 2.71251e-07 4.62532e-07)
(-8.87092e-06 2.27838e-07 3.09916e-07)
(-5.56936e-06 2.15542e-07 2.94546e-08)
(-5.81354e-06 1.24187e-07 -2.43977e-07)
(-9.1142e-07 1.32314e-08 5.0761e-07)
(1.66583e-07 3.32393e-07 2.26834e-07)
(1.13023e-06 6.5056e-08 2.39452e-07)
(-6.5737e-06 9.87601e-06 5.26634e-06)
)
;
    }
    procBoundary7to0
    {
        type            processor;
        value           uniform (4.08928e-05 3.2681e-06 -7.28726e-06);
    }
    procBoundary7to1
    {
        type            processor;
        value           uniform (3.39963e-05 2.32669e-06 -6.14627e-06);
    }
    procBoundary7to3
    {
        type            processor;
        value           nonuniform List<vector> 
36
(
(3.30852e-05 4.54168e-06 -7.46577e-06)
(2.5842e-05 3.95933e-06 -6.87476e-06)
(1.91977e-05 2.9265e-06 -5.87529e-06)
(1.17155e-05 2.27718e-06 -4.89098e-06)
(6.62969e-06 1.52441e-06 -3.57095e-06)
(3.62412e-06 1.0798e-06 -2.52216e-06)
(-2.22848e-06 6.9387e-07 -2.02482e-06)
(-5.02731e-06 2.62253e-07 -1.75189e-06)
(-3.98924e-06 2.21617e-07 -1.45689e-06)
(3.2819e-05 5.20941e-06 -8.74622e-06)
(2.45348e-05 3.93956e-06 -7.7595e-06)
(1.7918e-05 2.31355e-06 -6.26822e-06)
(1.13576e-05 1.77014e-06 -4.94299e-06)
(6.68199e-06 1.81217e-06 -3.93976e-06)
(3.30954e-06 1.15403e-06 -2.91785e-06)
(-2.45862e-06 6.56359e-07 -2.18592e-06)
(-5.30622e-06 2.21446e-07 -1.78045e-06)
(-4.29371e-06 1.00011e-07 -1.45794e-06)
(3.17512e-05 5.00105e-06 -9.57928e-06)
(2.33808e-05 3.20935e-06 -8.34271e-06)
(1.74906e-05 2.02365e-06 -6.59673e-06)
(1.23777e-05 1.71056e-06 -5.25568e-06)
(7.85368e-06 1.59468e-06 -4.32346e-06)
(4.09267e-06 1.02877e-06 -3.22255e-06)
(-1.49163e-06 4.97253e-07 -2.30048e-06)
(-4.31352e-06 1.52278e-07 -1.74114e-06)
(-3.74627e-06 1.80603e-07 -1.45911e-06)
(3.0988e-05 4.32391e-06 -9.98633e-06)
(2.25067e-05 2.82217e-06 -8.40955e-06)
(1.69943e-05 2.02151e-06 -6.86773e-06)
(1.19919e-05 1.6381e-06 -5.51993e-06)
(8.37128e-06 1.36283e-06 -4.52848e-06)
(4.36918e-06 6.84748e-07 -3.32992e-06)
(-5.30872e-07 2.97845e-07 -2.31302e-06)
(-3.12203e-06 3.12942e-07 -1.76912e-06)
(-3.00368e-06 2.81602e-07 -1.47501e-06)
)
;
    }
    procBoundary7to5
    {
        type            processor;
        value           nonuniform List<vector> 
44
(
(2.66744e-05 2.56078e-06 -5.6201e-06)
(2.04436e-05 2.50885e-06 -5.22391e-06)
(1.40168e-05 2.09521e-06 -4.31404e-06)
(8.72668e-06 1.20753e-06 -2.93005e-06)
(5.0808e-06 7.88826e-07 -2.02667e-06)
(-5.17688e-07 4.58859e-07 -1.42308e-06)
(-3.57373e-06 1.49303e-08 -1.08634e-06)
(-2.94751e-06 -9.89774e-09 -8.29555e-07)
(3.28198e-05 2.49919e-06 -5.72628e-06)
(2.61626e-05 2.52413e-06 -5.28177e-06)
(2.04737e-05 2.05306e-06 -4.23218e-06)
(1.45471e-05 1.84275e-06 -3.47091e-06)
(9.33051e-06 1.19187e-06 -2.50219e-06)
(5.46982e-06 8.29712e-07 -1.73371e-06)
(-9.70645e-08 3.83354e-07 -1.20293e-06)
(-2.93918e-06 1.09085e-07 -7.38647e-07)
(-2.47946e-06 5.88225e-08 -5.67188e-07)
(3.28198e-05 2.49919e-06 -5.72628e-06)
(2.61626e-05 2.52413e-06 -5.28177e-06)
(2.61626e-05 2.52413e-06 -5.28177e-06)
(1.9958e-05 2.05937e-06 -3.62292e-06)
(1.38438e-05 1.73305e-06 -2.83144e-06)
(9.73691e-06 1.15265e-06 -2.13903e-06)
(5.7941e-06 7.71425e-07 -1.49581e-06)
(6.34815e-07 4.01651e-07 -9.41847e-07)
(-2.03697e-06 7.34899e-08 -4.91873e-07)
(-1.81293e-06 1.92228e-08 -4.00003e-07)
(3.20637e-05 2.19332e-06 -4.23568e-06)
(2.58509e-05 2.21861e-06 -4.23636e-06)
(1.9958e-05 2.05937e-06 -3.62292e-06)
(1.38438e-05 1.73305e-06 -2.83144e-06)
(1.38438e-05 1.73305e-06 -2.83144e-06)
(8.61093e-06 1.23806e-06 -1.72596e-06)
(4.34051e-06 6.89773e-07 -1.18614e-06)
(7.44134e-07 2.77778e-07 -7.3052e-07)
(-1.61679e-06 7.72612e-08 -3.88898e-07)
(-1.51463e-06 2.82437e-08 -3.24657e-07)
(2.97498e-05 1.86489e-06 -3.20906e-06)
(2.41979e-05 2.07575e-06 -3.39931e-06)
(1.89829e-05 2.29009e-06 -2.85699e-06)
(1.35564e-05 1.74276e-06 -2.29422e-06)
(8.61093e-06 1.23806e-06 -1.72596e-06)
(4.34051e-06 6.89773e-07 -1.18614e-06)
(4.34051e-06 6.89773e-07 -1.18614e-06)
)
;
    }
    procBoundary7to6
    {
        type            processor;
        value           nonuniform List<vector> 
12
(
(4.16754e-05 3.58791e-06 -8.47724e-06)
(4.1112e-05 3.97372e-06 -9.48184e-06)
(3.90073e-05 3.69955e-06 -9.53153e-06)
(3.92777e-05 3.02414e-06 -6.50745e-06)
(3.92786e-05 3.0266e-06 -7.41166e-06)
(3.7292e-05 2.74415e-06 -7.70861e-06)
(3.71757e-05 2.78041e-06 -4.67061e-06)
(3.70868e-05 2.61159e-06 -5.43374e-06)
(3.47184e-05 2.17094e-06 -5.80427e-06)
(3.43247e-05 2.26608e-06 -3.48917e-06)
(3.43206e-05 2.14158e-06 -4.12972e-06)
(3.23084e-05 1.75887e-06 -4.44132e-06)
)
;
    }
}


// ************************************************************************* //
