/*--------------------------------*- C++ -*----------------------------------*\
| =========                 |                                                 |
| \\      /  F ield         | OpenFOAM: The Open Source CFD Toolbox           |
|  \\    /   O peration     | Version:  4.x                                   |
|   \\  /    A nd           | Web:      www.OpenFOAM.org                      |
|    \\/     M anipulation  |                                                 |
\*---------------------------------------------------------------------------*/
FoamFile
{
    version     2.0;
    format      ascii;
    class       volVectorField;
    location    "15";
    object      GField;
}
// * * * * * * * * * * * * * * * * * * * * * * * * * * * * * * * * * * * * * //

dimensions      [1 -2 -1 0 0 0 0];

internalField   nonuniform List<vector> 
132
(
(15.6674 0.432433 -1.80326)
(85.4602 -0.529992 2.85161)
(10.1802 0.0743992 -1.68132)
(83.8416 -1.29694 2.46124)
(7.80426 -0.156516 -2.37702)
(80.4836 0.595892 1.2168)
(7.69754 0.0629042 -3.76113)
(77.593 1.24419 5.40365)
(11.1791 0.554287 -8.61907)
(22.4223 1.98202 -0.221551)
(89.5915 1.03844 4.74914)
(20.2921 2.14892 -1.46606)
(92.5465 0.547931 1.58359)
(17.7402 3.01023 -3.49343)
(93.4931 -0.0995105 0.930397)
(16.2966 4.50797 -6.88753)
(87.9131 -2.66683 2.63462)
(18.2877 5.98897 -18.2982)
(24.6503 0.199841 -1.40289)
(89.9354 1.13363 1.81592)
(24.2739 0.354609 -2.20485)
(93.2629 0.994423 2.07398)
(25.5313 2.0615 -4.1696)
(95.55 -0.587868 1.34938)
(28.5682 8.92797 -9.38355)
(91.8949 -6.84507 6.77511)
(32.634 40.6448 -34.4711)
(50.6288 1.74945 -4.07578)
(104.071 0.691087 0.387533)
(49.987 2.07233 -2.67193)
(111.734 -0.688945 3.76906)
(49.2058 4.07485 -1.68724)
(124.942 -4.1826 9.92622)
(44.2337 10.9424 -3.72753)
(152.082 -11.7123 17.9731)
(27.7104 37.6323 -16.8125)
(-0.975002 -0.417994 0.518874)
(72.934 -0.444558 1.14618)
(3.27108 -0.0545609 -0.748785)
(70.2093 3.40655 -0.304956)
(9.3542 -0.147174 -3.45475)
(65.7796 2.89062 2.1341)
(30.2197 0.119342 -19.3901)
(-1.18643 -0.308519 0.730974)
(72.8823 -2.05461 1.48786)
(4.19823 0.605694 -0.853824)
(72.4165 -2.48248 0.687096)
(3.41021 0.470287 -0.922864)
(70.3032 -1.71773 1.14595)
(12.2312 1.70796 -4.62903)
(65.2785 -2.39713 3.51093)
(27.5487 0.773225 -16.1224)
(14.8003 0.339089 -1.07644)
(78.1743 -2.69661 2.57932)
(7.18585 0.272734 -0.809433)
(76.0265 -0.135962 2.39991)
(3.16854 0.378061 -0.573328)
(70.7785 -2.28532 2.58817)
(1.44175 0.234663 -0.371364)
(59.8485 -4.10708 5.21798)
(11.8 1.2105 -4.07709)
(42.6687 1.65646 -3.03436)
(91.5812 1.52459 1.43184)
(37.2862 1.57362 -2.7194)
(90.5191 -0.481057 3.69751)
(34.0313 2.37051 -2.43759)
(89.0999 -1.3005 7.89064)
(32.4975 3.31268 -3.06481)
(82.4101 -4.91595 12.833)
(34.6698 3.93852 -2.14596)
(4.35818 -0.46735 0.772648)
(71.7179 0.977868 -2.40702)
(1.96401 -0.349027 0.365511)
(59.6676 4.63779 -7.49492)
(11.6879 -2.4359 -0.102498)
(14.166 0.98082 0.284457)
(85.7811 1.17261 -1.36591)
(8.2335 0.839995 0.349054)
(86.3794 0.749661 -0.179628)
(4.334 0.809519 0.508398)
(86.6513 -0.29112 -4.91018)
(4.10579 1.45469 0.439033)
(78.2533 -4.16426 -8.82916)
(11.7765 7.021 -0.645629)
(18.6908 1.14254 0.689891)
(86.1089 2.22381 3.84286)
(19.696 1.32688 1.02294)
(87.7605 1.3092 1.88663)
(22.7967 2.99072 1.64736)
(90.5898 -0.869599 0.259794)
(28.5045 10.1105 2.69664)
(90.8288 -7.63684 -4.05657)
(36.6212 50.9646 5.10075)
(49.3245 2.08556 0.206494)
(101.353 0.53678 2.61212)
(51.9229 2.5765 2.30169)
(108.06 -1.07841 4.25481)
(53.6997 4.38893 4.87357)
(121.775 -4.18241 5.37541)
(51.9032 11.5993 9.23223)
(157.799 -10.1192 3.90677)
(36.8867 42.2181 11.6919)
(39.1903 -8.8593 1.65294)
(80.6233 6.06466 0.333306)
(36.1492 -15.2196 1.22739)
(38.0241 0.69324 0.0492811)
(92.3989 -0.0700204 1.50415)
(33.2606 0.609612 -1.21161)
(89.6976 -0.690879 0.243753)
(27.732 0.587316 -2.07934)
(84.4212 -1.47775 0.474225)
(19.561 0.605563 -3.35266)
(69.717 -2.21014 4.67271)
(20.3526 1.62708 -6.68054)
(47.9912 0.992951 -0.404331)
(96.5352 1.28252 0.219115)
(49.9045 1.46769 -2.14787)
(96.5589 1.6956 -1.18346)
(48.0265 2.09981 -4.61774)
(93.8134 1.39273 -2.03033)
(43.3332 6.17266 -7.83559)
(85.2185 -1.83914 -0.209917)
(36.9344 15.1118 -10.9383)
(53.7833 0.787298 -2.17664)
(100.336 0.147942 -0.53321)
(55.3052 1.55625 -3.52353)
(104.135 -0.36046 -0.302404)
(58.1783 2.80162 -6.48416)
(109.711 -1.00345 1.79035)
(62.9123 7.01733 -14.9734)
(119.732 -2.79681 6.71841)
(65.6386 17.7886 -50.026)
)
;

boundaryField
{
    inlet
    {
        type            calculated;
        value           nonuniform 0();
    }
    outlet
    {
        type            calculated;
        value           nonuniform List<vector> 
16
(
(24.7645 1.22788 -19.0933)
(40.4869 13.2589 -40.51)
(72.1109 89.8122 -76.1703)
(60.3145 81.9106 -36.5942)
(67.1415 0.265152 -43.0805)
(61.0151 1.71255 -35.7081)
(26.2032 2.68804 -9.0536)
(76.012 8.63503 -4.70491)
(25.8926 -5.39632 -0.227066)
(26.1879 15.6128 -1.43571)
(81.3305 113.185 11.3281)
(80.8619 92.5493 25.6306)
(79.8081 -33.6009 2.70976)
(44.8619 3.58646 -14.7255)
(81.5813 33.3792 -24.1606)
(142.868 38.7184 -108.886)
)
;
    }
    wall
    {
        type            calculated;
        value           uniform (0 0 0);
    }
    procBoundary7to0
    {
        type            processor;
        value           uniform (86.7178 0.488986 -2.88125);
    }
    procBoundary7to1
    {
        type            processor;
        value           uniform (15.8235 -1.39078 -1.26202);
    }
    procBoundary7to3
    {
        type            processor;
        value           nonuniform List<vector> 
36
(
(-0.640469 -0.883403 0.819866)
(80.5117 -1.32318 2.66632)
(-0.549529 -0.606852 0.575504)
(82.3181 -1.0371 2.35541)
(3.09392 0.0593661 -0.477719)
(83.6094 2.5494 0.614162)
(5.25167 0.485044 -1.48735)
(78.4431 2.5533 -0.347094)
(10.0875 3.45049 -6.38017)
(10.1131 0.440788 0.179769)
(82.7451 -0.584899 3.32248)
(6.50034 0.367695 0.127413)
(84.6653 -1.30769 2.68094)
(6.02919 0.249974 -0.637602)
(87.1976 -0.322617 1.41095)
(13.2595 1.39462 -4.92856)
(90.0073 -2.52421 1.07933)
(26.6816 9.40038 -37.1692)
(11.0476 0.709287 -0.375954)
(81.1996 -0.450051 4.12345)
(7.59567 0.270313 0.27701)
(84.8107 1.14449 4.78645)
(8.29058 0.782569 0.122398)
(89.7314 -0.888728 4.37034)
(15.423 2.16235 -0.809339)
(100.728 -6.24618 3.61581)
(17.8029 5.88827 -10.0452)
(53.5325 2.36273 -2.41711)
(101.092 1.56079 0.903292)
(49.6217 1.0143 0.305129)
(103.487 0.369173 5.09748)
(47.2816 2.19637 2.13624)
(108.696 -1.02912 10.5726)
(43.7548 3.61516 1.32678)
(122.059 -4.42094 18.4655)
(34.0818 6.19894 -20.0462)
)
;
    }
    procBoundary7to5
    {
        type            processor;
        value           nonuniform List<vector> 
44
(
(90.2192 -2.46356 3.71328)
(12.5816 -1.8291 -0.995703)
(92.7503 -0.79874 0.00918034)
(13.9027 -3.18999 -2.89391)
(93.9429 1.44658 -1.66312)
(9.03164 -3.32857 -3.43761)
(87.431 6.42321 1.93448)
(8.46984 -4.0818 -5.85756)
(-1.1274 -0.45583 0.698506)
(75.8562 -1.54791 2.67886)
(5.50871 -1.31321 -0.576684)
(77.879 0.700969 0.082998)
(4.34799 -1.35016 -0.839806)
(72.5218 3.32807 0.573388)
(3.6038 -1.21312 -0.785839)
(63.7413 8.79565 0.851562)
(25.167 -4.70163 -9.40856)
(-1.1274 -0.45583 0.698506)
(75.8562 -1.54791 2.67886)
(75.8562 -1.54791 2.67886)
(8.70129 -0.56119 1.33082)
(76.5583 -0.726483 -0.583953)
(17.8357 -4.7571 3.74241)
(91.7859 0.739603 -1.95584)
(17.3772 -8.43727 6.46015)
(85.5364 6.74772 -12.108)
(19.654 -15.4162 10.1011)
(13.8188 -0.668423 1.88127)
(79.0336 -1.87508 2.43166)
(8.70129 -0.56119 1.33082)
(76.5583 -0.726483 -0.583953)
(76.5583 -0.726483 -0.583953)
(42.1173 -4.19271 0.989854)
(88.9948 0.0868443 0.676538)
(41.9971 -12.7105 -1.83547)
(100.622 4.57913 1.11634)
(29.5979 -18.2599 -0.824722)
(43.3348 -1.61377 1.51864)
(93.3513 -1.93602 2.21435)
(44.178 -2.55853 0.952077)
(92.5967 -1.71041 1.12939)
(42.1173 -4.19271 0.989854)
(88.9948 0.0868443 0.676538)
(88.9948 0.0868443 0.676538)
)
;
    }
    procBoundary7to6
    {
        type            processor;
        value           nonuniform List<vector> 
12
(
(88.0062 1.72537 4.63272)
(87.1963 2.13633 2.78153)
(99.4605 2.99401 0.369395)
(72.4667 2.67119 2.02786)
(80.36 1.47297 1.70109)
(92.1292 4.08629 0.520525)
(85.1753 0.718527 3.42527)
(86.0395 3.36178 4.89179)
(97.2386 3.60346 1.46535)
(92.7713 -0.167331 3.0544)
(94.581 0.699215 2.05308)
(98.7336 1.31447 -0.730809)
)
;
    }
}


// ************************************************************************* //
