/*--------------------------------*- C++ -*----------------------------------*\
| =========                 |                                                 |
| \\      /  F ield         | OpenFOAM: The Open Source CFD Toolbox           |
|  \\    /   O peration     | Version:  4.x                                   |
|   \\  /    A nd           | Web:      www.OpenFOAM.org                      |
|    \\/     M anipulation  |                                                 |
\*---------------------------------------------------------------------------*/
FoamFile
{
    version     2.0;
    format      ascii;
    class       volScalarField;
    location    "15";
    object      QPartFluidCoeff;
}
// * * * * * * * * * * * * * * * * * * * * * * * * * * * * * * * * * * * * * //

dimensions      [1 -1 -3 -1 0 0 0];

internalField   nonuniform List<scalar> 
132
(
-3.48141e+07
-3.06578e+07
-2.20582e+07
-2.65672e+07
-3.75934e+07
-4.16219e+07
-2.75329e+07
-2.20244e+07
-2.05388e+07
-2.69508e+07
-3.86545e+07
-2.60607e+07
-2.77244e+07
-2.93739e+07
-2.39048e+07
-2.79518e+07
-2.65085e+07
-2.29562e+07
-2.06572e+07
-3.08242e+07
-2.36319e+07
-2.98831e+07
-2.82271e+07
-3.49936e+07
-2.8488e+07
-3.04929e+07
-2.53528e+07
-1.87812e+07
-2.62262e+07
-3.02254e+07
-1.99959e+07
-2.68471e+07
-2.74745e+07
-2.77836e+07
-2.51772e+07
-1.32645e+07
-2.17877e+07
-2.8312e+07
-2.32298e+07
-2.66619e+07
-2.96523e+07
-3.24005e+07
-2.09619e+07
-1.28347e+07
-3.31591e+07
-2.48498e+07
-2.90561e+07
-2.88099e+07
-2.71931e+07
-1.91874e+07
-2.98041e+07
-1.61468e+07
-2.16265e+07
-3.49165e+07
-2.55522e+07
-2.42707e+07
-2.65309e+07
-3.51216e+07
-3.23087e+07
-2.81099e+07
-2.17515e+07
-1.96757e+07
-3.046e+07
-2.11787e+07
-2.68971e+07
-2.51067e+07
-2.27501e+07
-2.25225e+07
-2.98016e+07
-1.55839e+07
-1.62348e+07
-2.29942e+07
-2.57911e+07
-2.33118e+07
-1.37261e+07
-2.92859e+07
-3.0322e+07
-2.39327e+07
-2.15899e+07
-3.01261e+07
-2.89971e+07
-2.4986e+07
-3.47673e+07
-2.12959e+07
-2.70261e+07
-3.11671e+07
-2.86304e+07
-2.95785e+07
-3.2268e+07
-3.26135e+07
-3.01122e+07
-3.04587e+07
-2.45957e+07
-1.91106e+07
-2.39308e+07
-2.41138e+07
-2.71754e+07
-2.22363e+07
-2.34223e+07
-2.87417e+07
-2.96167e+07
-1.97431e+07
-1.9312e+07
-2.41577e+07
-1.6105e+07
-2.44552e+07
-2.31057e+07
-2.50838e+07
-2.82797e+07
-1.70913e+07
-1.58056e+07
-2.22267e+07
-2.37806e+07
-1.44299e+07
-2.09041e+07
-2.22834e+07
-2.12288e+07
-2.55008e+07
-2.49375e+07
-2.3661e+07
-2.55933e+07
-2.47707e+07
-2.1496e+07
-2.03348e+07
-2.63819e+07
-1.92541e+07
-2.35534e+07
-2.46384e+07
-2.35617e+07
-2.26305e+07
-2.4749e+07
-1.41464e+07
)
;

boundaryField
{
    inlet
    {
        type            calculated;
        value           nonuniform 0();
    }
    outlet
    {
        type            calculated;
        value           uniform 0;
    }
    wall
    {
        type            calculated;
        value           uniform 0;
    }
    procBoundary7to0
    {
        type            processor;
        value           uniform 199.343;
    }
    procBoundary7to1
    {
        type            processor;
        value           uniform 458.914;
    }
    procBoundary7to3
    {
        type            processor;
        value           nonuniform List<scalar> 
36
(
613.436
797.624
688.184
763.475
495.089
585.386
692.353
635.727
509.296
737.167
461.715
626.99
382.458
344.579
728.551
610.531
850.446
430.129
507.185
779.887
699.211
544.392
565.623
757.804
623.249
718.896
360.314
456.444
348.079
438.87
523.884
491.786
645.672
499.376
729.988
598.764
)
;
    }
    procBoundary7to5
    {
        type            processor;
        value           nonuniform List<scalar> 
44
(
767.623
482.215
681.267
470.011
415.613
584.216
478.724
490.527
769.765
384.961
564.833
685.263
476.657
623.1
548.834
594.382
336.649
769.765
384.961
384.961
728.048
730.494
882.083
704.938
685.528
814.047
596.439
405.78
870.116
728.048
730.494
730.494
785.365
618.866
527.863
586.771
488.563
545.546
482.528
558.141
497.669
785.365
618.866
618.866
)
;
    }
    procBoundary7to6
    {
        type            processor;
        value           nonuniform List<scalar> 
12
(
620.437
670.184
417.707
748.485
703.375
654.744
719.811
742.06
509.649
338.599
628.725
525.844
)
;
    }
}


// ************************************************************************* //
