/*--------------------------------*- C++ -*----------------------------------*\
| =========                 |                                                 |
| \\      /  F ield         | OpenFOAM: The Open Source CFD Toolbox           |
|  \\    /   O peration     | Version:  4.x                                   |
|   \\  /    A nd           | Web:      www.OpenFOAM.org                      |
|    \\/     M anipulation  |                                                 |
\*---------------------------------------------------------------------------*/
FoamFile
{
    version     2.0;
    format      ascii;
    class       volScalarField;
    location    "15";
    object      Qsource;
}
// * * * * * * * * * * * * * * * * * * * * * * * * * * * * * * * * * * * * * //

dimensions      [1 -1 -3 0 0 0 0];

internalField   nonuniform List<scalar> 
132
(
1.04442e+10
9.1973e+09
6.61744e+09
7.97014e+09
1.1278e+10
1.24866e+10
8.25988e+09
6.60732e+09
6.16165e+09
8.08523e+09
1.15963e+10
7.81818e+09
8.31731e+09
8.81215e+09
7.17142e+09
8.38552e+09
7.95254e+09
6.88685e+09
6.19715e+09
9.24724e+09
7.08957e+09
8.96491e+09
8.46811e+09
1.04981e+10
8.54639e+09
9.14785e+09
7.60584e+09
6.13056e+09
8.74828e+09
9.55819e+09
6.93109e+09
8.5392e+09
9.26439e+09
8.79101e+09
8.75515e+09
4.4665e+09
6.53628e+09
8.49358e+09
6.96893e+09
7.99857e+09
8.8957e+09
9.72015e+09
6.28856e+09
3.8504e+09
9.94772e+09
7.45492e+09
8.71682e+09
8.64295e+09
8.15793e+09
5.75623e+09
8.94123e+09
4.84404e+09
6.48795e+09
1.04749e+10
7.66566e+09
7.2812e+09
7.95925e+09
1.05365e+10
9.69261e+09
8.43297e+09
6.52544e+09
6.33526e+09
9.93298e+09
6.74201e+09
8.8571e+09
7.89345e+09
7.60506e+09
7.10639e+09
9.67899e+09
5.04301e+09
4.87044e+09
6.89826e+09
7.73732e+09
6.99354e+09
4.11783e+09
8.78575e+09
9.09659e+09
7.1798e+09
6.47696e+09
9.03782e+09
8.69911e+09
7.49579e+09
1.04302e+10
6.38876e+09
8.10782e+09
9.35013e+09
8.58913e+09
8.87356e+09
9.68039e+09
9.78405e+09
9.03364e+09
9.13762e+09
7.37871e+09
6.21801e+09
8.04144e+09
7.73981e+09
9.06053e+09
7.19251e+09
8.02624e+09
9.14322e+09
1.01156e+10
6.46886e+09
6.20504e+09
7.96672e+09
5.23498e+09
7.73004e+09
7.73227e+09
7.87883e+09
9.26562e+09
5.43378e+09
5.48648e+09
6.90196e+09
7.77456e+09
4.57813e+09
6.74527e+09
7.51411e+09
6.85818e+09
8.47957e+09
7.95761e+09
7.90879e+09
8.12391e+09
8.18167e+09
6.86975e+09
7.13963e+09
9.62466e+09
6.84013e+09
8.8277e+09
8.50375e+09
8.90549e+09
7.99818e+09
9.39738e+09
5.73337e+09
)
;

boundaryField
{
    inlet
    {
        type            calculated;
        value           nonuniform 0();
    }
    outlet
    {
        type            calculated;
        value           uniform 0;
    }
    wall
    {
        type            calculated;
        value           uniform 0;
    }
    procBoundary7to0
    {
        type            processor;
        value           uniform 2.6373e+09;
    }
    procBoundary7to1
    {
        type            processor;
        value           uniform 6.0714e+09;
    }
    procBoundary7to3
    {
        type            processor;
        value           nonuniform List<scalar> 
36
(
8.11573e+09
1.05525e+10
9.10463e+09
1.01007e+10
6.55001e+09
7.74465e+09
9.15983e+09
8.41066e+09
6.73799e+09
9.75269e+09
6.10847e+09
8.29506e+09
5.05991e+09
4.55878e+09
9.63872e+09
8.07733e+09
1.12514e+10
5.69061e+09
6.71004e+09
1.03179e+10
9.25054e+09
7.20229e+09
7.48319e+09
1.00257e+10
8.24558e+09
9.51099e+09
4.76695e+09
6.55683e+09
5.46537e+09
6.29314e+09
7.80829e+09
6.97547e+09
9.45727e+09
7.0483e+09
1.06675e+10
8.33154e+09
)
;
    }
    procBoundary7to5
    {
        type            processor;
        value           nonuniform List<scalar> 
44
(
1.01556e+10
6.37968e+09
9.01313e+09
6.21823e+09
5.49855e+09
7.72918e+09
6.33352e+09
6.48967e+09
1.0184e+10
5.09302e+09
7.47271e+09
9.06601e+09
6.30617e+09
8.2436e+09
7.26106e+09
7.86367e+09
4.45387e+09
1.0184e+10
5.09302e+09
5.09302e+09
9.63207e+09
9.66442e+09
1.16699e+10
9.32633e+09
9.06952e+09
1.07698e+10
7.89089e+09
5.36846e+09
1.15116e+10
9.63207e+09
9.66442e+09
9.66442e+09
1.08191e+10
8.96441e+09
7.42512e+09
8.62072e+09
6.83008e+09
7.65483e+09
7.19123e+09
7.82847e+09
7.38616e+09
1.08191e+10
8.96441e+09
8.96441e+09
)
;
    }
    procBoundary7to6
    {
        type            processor;
        value           nonuniform List<scalar> 
12
(
8.20836e+09
8.86652e+09
6.37563e+09
9.90244e+09
9.30565e+09
9.46151e+09
9.52309e+09
9.81744e+09
7.57704e+09
5.28307e+09
9.13377e+09
8.64526e+09
)
;
    }
}


// ************************************************************************* //
