
//   DEMrun   //

/home/ht45454/CFDEM/CFDEMcoupling-24.01-4.x/tutorials/cfdemSolverMultiphaseScalar/test_case/DEM

LIGGGHTS (Version LIGGGHTS-PFM 24.01, compiled 2025-01-17-18:01:04 by ht45454, git commit d075b97762ce4302707903718dda170920e630bd, based on LAMMPS 23 Nov 2013)
log             ../log/log.liggghts

atom_style      granular
atom_modify     map array
boundary        f f f
newton          off

communicate     single vel yes

units           si
processors      2 2 2

region          reg block 0.0 0.5 -0.1 0.1 -0.1 0.1 units box
create_box      1 reg
Created orthogonal box = (0 -0.1 -0.1) to (0.5 0.1 0.1)
  2 by 2 by 2 MPI processor grid

neighbor        0.002 bin
neigh_modify    delay 0


# Material properties required for granular pair styles

include      in.contact_settings
# Material properties required for granular pair styles
fix             m1 all property/global youngsModulus	                peratomtype       5.e6
fix             m2 all property/global poissonsRatio 	                peratomtype	  0.3
fix             m3 all property/global coefficientRestitution           peratomtypepair 1 0.3
fix             m4 all property/global coefficientFriction 	        peratomtypepair 1 0.5
fix             m5 all property/global coefficientRollingFriction       peratomtypepair 1 0.2
fix             m6 all property/global coefficientRollingViscousDamping peratomtypepair 1 0.3

# pair style
pair_style	gran model hertz tangential history rolling_friction epsd
SURFACE/DEFAULT loaded
HERTZ loaded
TANGENTIAL/HISTORY loaded
EPSD loaded
pair_coeff  	* *

timestep    0.00001

# walls
fix     xwalls1 all wall/gran model hertz tangential history primitive type 1 xplane 0.0
SURFACE/DEFAULT loaded
HERTZ loaded
TANGENTIAL/HISTORY loaded
fix     xwalls2 all wall/gran model hertz tangential history primitive type 1 xplane 0.5
SURFACE/DEFAULT loaded
HERTZ loaded
TANGENTIAL/HISTORY loaded
fix     ywalls1 all wall/gran model hertz tangential history primitive type 1 yplane -0.1
SURFACE/DEFAULT loaded
HERTZ loaded
TANGENTIAL/HISTORY loaded
fix     ywalls2 all wall/gran model hertz tangential history primitive type 1 yplane 0.1
SURFACE/DEFAULT loaded
HERTZ loaded
TANGENTIAL/HISTORY loaded
fix     zwalls1 all wall/gran model hertz tangential history primitive type 1 zplane -0.1
SURFACE/DEFAULT loaded
HERTZ loaded
TANGENTIAL/HISTORY loaded
fix     zwalls2 all wall/gran model hertz tangential history primitive type 1 zplane 0.1
SURFACE/DEFAULT loaded
HERTZ loaded
TANGENTIAL/HISTORY loaded

fix         gravi all gravity 9.81 vector 0.0 0.0 -1.0

# heat transfer
fix          m7 all property/global thermalConductivity peratomtype 5000  # lambda in [W/(K*m)]
fix             m8 all property/global thermalCapacity     peratomtype 870  # cp in [J/(kg*K)]

fix             heattransfer all heat/gran/conduction initial_temperature 300



# particle distribution
include         in.particleSizeDistribution1
# Particle size distribution for LIGGGHTS

# mean radius = 0.0100000 m
# standard deviation = 0.00000 m
# density = 900 kg/m3

fix	pts1 all particletemplate/sphere 10007 atom_type 1 density constant 900 radius constant 0.01

fix	pdd1 all particledistribution/discrete 10009 1 pts1 1.000000
Fix particledistribution/discrete (id pdd1): distribution based on mass%:
    pts1: d=2.000000e-02 (max. bounding sphere) mass%=100.000000%
Fix particledistribution/discrete (id pdd1): distribution based on number%:
    pts1: d=2.000000e-02 (max. bounding sphere) number%=100.000000%

# insert in bed volume
region      bc block 0.0 0.5 -0.1 0.1 -0.1 0.1 units box
fix             ins1 all insert/pack seed 32452843 distributiontemplate pdd1 all_in yes insert_every 100 overlapcheck yes region bc volumefraction_region 0.8

#insert the first particles
run             1
Setting up run ...
INFO: Resetting random generator for region bc
INFO: Particle insertion ins1: inserting every 100 steps
Memory usage per processor = 6.5567 Mbytes
Step Temp E_pair E_mol TotEng Press 
       0            0            0            0            0            0 
insertion: proc 2 at 0 %
insertion: proc 2 at 10 %
insertion: proc 2 at 20 %
insertion: proc 3 at 0 %
insertion: proc 3 at 10 %
insertion: proc 3 at 20 %
insertion: proc 4 at 0 %
insertion: proc 4 at 10 %
insertion: proc 4 at 20 %
insertion: proc 5 at 0 %
insertion: proc 5 at 10 %
insertion: proc 5 at 20 %
insertion: proc 6 at 0 %
insertion: proc 6 at 10 %
insertion: proc 6 at 20 %
insertion: proc 7 at 0 %
insertion: proc 7 at 10 %
insertion: proc 7 at 20 %
insertion: proc 0 at 0 %
insertion: proc 0 at 10 %
insertion: proc 0 at 20 %
insertion: proc 1 at 0 %
insertion: proc 1 at 10 %
insertion: proc 1 at 20 %
insertion: proc 4 at 30 %
insertion: proc 5 at 30 %
insertion: proc 1 at 30 %
insertion: proc 0 at 30 %
insertion: proc 3 at 30 %
insertion: proc 6 at 30 %
insertion: proc 2 at 30 %
insertion: proc 7 at 30 %
INFO: Particle insertion ins1: inserted 1264 particle templates (mass 4.765168) at step 1
 - a total of 1264 particle templates (mass 4.765168) inserted so far.
WARNING: Particle insertion: Less insertions than requested (/home/ht45454/CFDEM/LIGGGHTS/src/fix_insert.cpp:814)
       1            0            0            0            0            0 
Loop time of 0.00704422 on 8 procs for 1 steps with 1264 atoms
Max time of 0.00704484 on 8 procs for 1 steps with 1264 atoms

Pair  time (%) = 4.12962e-06 (0.0586243)
Max Pair time (ib) = 5.027e-06 (21.7302)
Neigh time (%) = 0.000186855 (2.6526)
Max Neigh time (ib) = 0.000298247 (59.6145)
Comm  time (%) = 0.000314612 (4.46625)
Max Comm time (ib) = 0.000369962 (17.593)
Outpt time (%) = 2.3801e-05 (0.33788)
Max Outpt time (ib) = 4.0901e-05 (71.8457)
Other time (%) = 0.00651482 (92.4847)
Max Other time (ib) = 0.00652477 (0.15266)

Nlocal:    158 ave 165 max 151 min
Histogram: 1 0 1 0 0 5 0 0 0 1
Nghost:    85.375 ave 92 max 81 min
Histogram: 2 0 2 1 1 0 0 0 1 1
Neighs:    127.625 ave 143 max 116 min
Histogram: 2 0 2 1 0 0 1 0 1 1

Total # of neighbors = 1021
Ave neighs/atom = 0.807753
Neighbor list builds = 1
Dangerous builds = 0


# apply nve integration to all particles that are inserted as single particles
fix         integr all nve/sphere

# output settings, include total thermal energy
thermo_style    custom step time atoms ke # v_nForceReg v_totalForce v_avForcePerPart
thermo          100


dump            dmp all custom 1000 post/dump*.liggghts_init id type x y z ix iy iz vx vy vz fx fy fz omegax omegay omegaz radius density f_Temp[0]


# run for some steps
label           run1
run		100000 post no
Setting up run ...
Memory usage per processor = 11.3725 Mbytes
Step Time Atoms KinEng 
       1        1e-05     1264            0 
insertion: proc 6 at 0 %
insertion: proc 7 at 0 %
insertion: proc 5 at 0 %
insertion: proc 4 at 0 %
insertion: proc 3 at 0 %
     100        0.001     1264 0.0002247277 
insertion: proc 0 at 0 %
insertion: proc 1 at 0 %
insertion: proc 2 at 0 %
INFO: Particle insertion ins1: inserted 46 particle templates (mass 0.173416) at step 101
 - a total of 1310 particle templates (mass 4.938584) inserted so far.
WARNING: Particle insertion: Less insertions than requested (/home/ht45454/CFDEM/LIGGGHTS/src/fix_insert.cpp:814)
insertion: proc 2 at 0 %
insertion: proc 1 at 0 %
insertion: proc 3 at 0 %
insertion: proc 6 at 0 %
insertion: proc 7 at 0 %
insertion: proc 5 at 0 %
insertion: proc 4 at 0 %
     200        0.002     1310 0.00091623862 
insertion: proc 0 at 0 %
INFO: Particle insertion ins1: inserted 23 particle templates (mass 0.086708) at step 201
 - a total of 1333 particle templates (mass 5.025292) inserted so far.
WARNING: Particle insertion: Less insertions than requested (/home/ht45454/CFDEM/LIGGGHTS/src/fix_insert.cpp:814)
insertion: proc 4 at 0 %
insertion: proc 2 at 0 %
insertion: proc 1 at 0 %
insertion: proc 3 at 0 %
insertion: proc 6 at 0 %
insertion: proc 7 at 0 %
insertion: proc 5 at 0 %
     300        0.003     1333 0.0020871506 
insertion: proc 0 at 0 %
INFO: Particle insertion ins1: inserted 16 particle templates (mass 0.060319) at step 301
 - a total of 1349 particle templates (mass 5.085610) inserted so far.
WARNING: Particle insertion: Less insertions than requested (/home/ht45454/CFDEM/LIGGGHTS/src/fix_insert.cpp:814)
insertion: proc 4 at 0 %
insertion: proc 2 at 0 %
insertion: proc 1 at 0 %
insertion: proc 3 at 0 %
insertion: proc 6 at 0 %
insertion: proc 7 at 0 %
     400        0.004     1349 0.0037445321 
insertion: proc 0 at 0 %
insertion: proc 5 at 0 %
INFO: Particle insertion ins1: inserted 10 particle templates (mass 0.037699) at step 401
 - a total of 1359 particle templates (mass 5.123309) inserted so far.
WARNING: Particle insertion: Less insertions than requested (/home/ht45454/CFDEM/LIGGGHTS/src/fix_insert.cpp:814)
insertion: proc 1 at 0 %
insertion: proc 3 at 0 %
insertion: proc 6 at 0 %
     500        0.005     1359 0.0058922238 
insertion: proc 0 at 0 %
insertion: proc 5 at 0 %
insertion: proc 7 at 0 %
insertion: proc 4 at 0 %
insertion: proc 2 at 0 %
INFO: Particle insertion ins1: inserted 7 particle templates (mass 0.026389) at step 501
 - a total of 1366 particle templates (mass 5.149699) inserted so far.
WARNING: Particle insertion: Less insertions than requested (/home/ht45454/CFDEM/LIGGGHTS/src/fix_insert.cpp:814)
     600        0.006     1366 0.0085197032 
insertion: proc 6 at 0 %
insertion: proc 1 at 0 %
insertion: proc 3 at 0 %
insertion: proc 0 at 0 %
insertion: proc 2 at 0 %
insertion: proc 5 at 0 %
insertion: proc 7 at 0 %
insertion: proc 4 at 0 %
INFO: Particle insertion ins1: inserted 5 particle templates (mass 0.018850) at step 601
 - a total of 1371 particle templates (mass 5.168548) inserted so far.
WARNING: Particle insertion: Less insertions than requested (/home/ht45454/CFDEM/LIGGGHTS/src/fix_insert.cpp:814)
insertion: proc 4 at 0 %
insertion: proc 2 at 0 %
insertion: proc 5 at 0 %
insertion: proc 7 at 0 %
insertion: proc 3 at 0 %
insertion: proc 6 at 0 %
insertion: proc 1 at 0 %
     700        0.007     1371  0.011638874 
insertion: proc 0 at 0 %
INFO: Particle insertion ins1: inserted 2 particle templates (mass 0.007540) at step 701
 - a total of 1373 particle templates (mass 5.176088) inserted so far.
WARNING: Particle insertion: Less insertions than requested (/home/ht45454/CFDEM/LIGGGHTS/src/fix_insert.cpp:814)
insertion: proc 1 at 0 %
insertion: proc 4 at 0 %
insertion: proc 2 at 0 %
insertion: proc 5 at 0 %
insertion: proc 7 at 0 %
insertion: proc 3 at 0 %
insertion: proc 6 at 0 %
     800        0.008     1373  0.015252411 
insertion: proc 0 at 0 %
INFO: Particle insertion ins1: inserted 5 particle templates (mass 0.018850) at step 801
 - a total of 1378 particle templates (mass 5.194938) inserted so far.
WARNING: Particle insertion: Less insertions than requested (/home/ht45454/CFDEM/LIGGGHTS/src/fix_insert.cpp:814)
insertion: proc 3 at 0 %
     900        0.009     1378  0.019344888 
insertion: proc 0 at 0 %
insertion: proc 6 at 0 %
insertion: proc 1 at 0 %
insertion: proc 4 at 0 %
insertion: proc 2 at 0 %
insertion: proc 5 at 0 %
insertion: proc 7 at 0 %
INFO: Particle insertion ins1: inserted 8 particle templates (mass 0.030159) at step 901
 - a total of 1386 particle templates (mass 5.225097) inserted so far.
WARNING: Particle insertion: Less insertions than requested (/home/ht45454/CFDEM/LIGGGHTS/src/fix_insert.cpp:814)
insertion: proc 5 at 0 %
insertion: proc 3 at 0 %
    1000         0.01     1386  0.023918335 
insertion: proc 0 at 0 %
insertion: proc 6 at 0 %
insertion: proc 1 at 0 %
insertion: proc 4 at 0 %
insertion: proc 2 at 0 %
insertion: proc 7 at 0 %
INFO: Particle insertion ins1: inserted 4 particle templates (mass 0.015080) at step 1001
 - a total of 1390 particle templates (mass 5.240177) inserted so far.
WARNING: Particle insertion: Less insertions than requested (/home/ht45454/CFDEM/LIGGGHTS/src/fix_insert.cpp:814)
insertion: proc 4 at 0 %
insertion: proc 3 at 0 %
insertion: proc 5 at 0 %
    1100        0.011     1390  0.028936628 
insertion: proc 0 at 0 %
insertion: proc 2 at 0 %
insertion: proc 7 at 0 %
insertion: proc 6 at 0 %
insertion: proc 1 at 0 %
INFO: Particle insertion ins1: inserted 4 particle templates (mass 0.015080) at step 1101
 - a total of 1394 particle templates (mass 5.255256) inserted so far.
WARNING: Particle insertion: Less insertions than requested (/home/ht45454/CFDEM/LIGGGHTS/src/fix_insert.cpp:814)
insertion: proc 4 at 0 %
insertion: proc 3 at 0 %
    1200        0.012     1394  0.034438646 
insertion: proc 0 at 0 %
insertion: proc 1 at 0 %
insertion: proc 2 at 0 %
insertion: proc 7 at 0 %
insertion: proc 6 at 0 %
insertion: proc 5 at 0 %
INFO: Particle insertion ins1: inserted 5 particle templates (mass 0.018850) at step 1201
 - a total of 1399 particle templates (mass 5.274106) inserted so far.
WARNING: Particle insertion: Less insertions than requested (/home/ht45454/CFDEM/LIGGGHTS/src/fix_insert.cpp:814)
insertion: proc 7 at 0 %
insertion: proc 6 at 0 %
insertion: proc 3 at 0 %
insertion: proc 4 at 0 %
    1300        0.013     1399  0.040361032 
insertion: proc 0 at 0 %
insertion: proc 5 at 0 %
insertion: proc 1 at 0 %
insertion: proc 2 at 0 %
INFO: Particle insertion ins1: inserted 3 particle templates (mass 0.011310) at step 1301
 - a total of 1402 particle templates (mass 5.285415) inserted so far.
WARNING: Particle insertion: Less insertions than requested (/home/ht45454/CFDEM/LIGGGHTS/src/fix_insert.cpp:814)
insertion: proc 6 at 0 %
insertion: proc 3 at 0 %
    1400        0.014     1402  0.046810183 
insertion: proc 0 at 0 %
insertion: proc 5 at 0 %
insertion: proc 1 at 0 %
insertion: proc 4 at 0 %
insertion: proc 7 at 0 %
insertion: proc 2 at 0 %
INFO: Particle insertion ins1: inserted 6 particle templates (mass 0.022619) at step 1401
 - a total of 1408 particle templates (mass 5.308035) inserted so far.
WARNING: Particle insertion: Less insertions than requested (/home/ht45454/CFDEM/LIGGGHTS/src/fix_insert.cpp:814)
    1500        0.015     1408  0.053634035 
insertion: proc 6 at 0 %
insertion: proc 0 at 0 %
insertion: proc 7 at 0 %
insertion: proc 2 at 0 %
insertion: proc 5 at 0 %
insertion: proc 1 at 0 %
insertion: proc 4 at 0 %
insertion: proc 3 at 0 %
INFO: Particle insertion ins1: inserted 5 particle templates (mass 0.018850) at step 1501
 - a total of 1413 particle templates (mass 5.326885) inserted so far.
WARNING: Particle insertion: Less insertions than requested (/home/ht45454/CFDEM/LIGGGHTS/src/fix_insert.cpp:814)
insertion: proc 3 at 0 %
insertion: proc 7 at 0 %
insertion: proc 2 at 0 %
insertion: proc 5 at 0 %
insertion: proc 1 at 0 %
insertion: proc 4 at 0 %
insertion: proc 6 at 0 %
    1600        0.016     1413  0.060887798 
insertion: proc 0 at 0 %
INFO: Particle insertion ins1: inserted 5 particle templates (mass 0.018850) at step 1601
 - a total of 1418 particle templates (mass 5.345734) inserted so far.
WARNING: Particle insertion: Less insertions than requested (/home/ht45454/CFDEM/LIGGGHTS/src/fix_insert.cpp:814)
    1700        0.017     1418  0.068591797 
insertion: proc 6 at 0 %
insertion: proc 3 at 0 %
insertion: proc 7 at 0 %
insertion: proc 2 at 0 %
insertion: proc 5 at 0 %
insertion: proc 1 at 0 %
insertion: proc 4 at 0 %
insertion: proc 0 at 0 %
INFO: Particle insertion ins1: inserted 2 particle templates (mass 0.007540) at step 1701
 - a total of 1420 particle templates (mass 5.353274) inserted so far.
WARNING: Particle insertion: Less insertions than requested (/home/ht45454/CFDEM/LIGGGHTS/src/fix_insert.cpp:814)
    1800        0.018     1420  0.076695186 
insertion: proc 7 at 0 %
insertion: proc 2 at 0 %
insertion: proc 5 at 0 %
insertion: proc 1 at 0 %
insertion: proc 0 at 0 %
insertion: proc 4 at 0 %
insertion: proc 6 at 0 %
insertion: proc 3 at 0 %
INFO: Particle insertion ins1: inserted 1 particle templates (mass 0.003770) at step 1801
 - a total of 1421 particle templates (mass 5.357044) inserted so far.
WARNING: Particle insertion: Less insertions than requested (/home/ht45454/CFDEM/LIGGGHTS/src/fix_insert.cpp:814)
insertion: proc 3 at 0 %
insertion: proc 4 at 0 %
insertion: proc 6 at 0 %
insertion: proc 1 at 0 %
insertion: proc 7 at 0 %
insertion: proc 2 at 0 %
insertion: proc 5 at 0 %
    1900        0.019     1421  0.085352732 
insertion: proc 0 at 0 %
INFO: Particle insertion ins1: inserted 0 particle templates (mass 0.000000) at step 1901
 - a total of 1421 particle templates (mass 5.357044) inserted so far.
WARNING: Particle insertion: Less insertions than requested (/home/ht45454/CFDEM/LIGGGHTS/src/fix_insert.cpp:814)
    2000         0.02     1421  0.094224704 
insertion: proc 7 at 0 %
insertion: proc 2 at 0 %
insertion: proc 0 at 0 %
insertion: proc 5 at 0 %
insertion: proc 3 at 0 %
insertion: proc 4 at 0 %
insertion: proc 6 at 0 %
insertion: proc 1 at 0 %
INFO: Particle insertion ins1: inserted 5 particle templates (mass 0.018850) at step 2001
 - a total of 1426 particle templates (mass 5.375893) inserted so far.
WARNING: Particle insertion: Less insertions than requested (/home/ht45454/CFDEM/LIGGGHTS/src/fix_insert.cpp:814)
insertion: proc 3 at 0 %
insertion: proc 4 at 0 %
insertion: proc 6 at 0 %
insertion: proc 2 at 0 %
insertion: proc 7 at 0 %
    2100        0.021     1426   0.10370374 
insertion: proc 0 at 0 %
insertion: proc 1 at 0 %
insertion: proc 5 at 0 %
INFO: Particle insertion ins1: inserted 4 particle templates (mass 0.015080) at step 2101
 - a total of 1430 particle templates (mass 5.390973) inserted so far.
WARNING: Particle insertion: Less insertions than requested (/home/ht45454/CFDEM/LIGGGHTS/src/fix_insert.cpp:814)
insertion: proc 5 at 0 %
insertion: proc 1 at 0 %
insertion: proc 7 at 0 %
insertion: proc 3 at 0 %
insertion: proc 4 at 0 %
insertion: proc 6 at 0 %
insertion: proc 2 at 0 %
    2200        0.022     1430   0.11358838 
insertion: proc 0 at 0 %
INFO: Particle insertion ins1: inserted 5 particle templates (mass 0.018850) at step 2201
 - a total of 1435 particle templates (mass 5.409823) inserted so far.
WARNING: Particle insertion: Less insertions than requested (/home/ht45454/CFDEM/LIGGGHTS/src/fix_insert.cpp:814)
    2300        0.023     1435   0.12350646 
insertion: proc 0 at 0 %
insertion: proc 2 at 0 %
insertion: proc 5 at 0 %
insertion: proc 1 at 0 %
insertion: proc 7 at 0 %
insertion: proc 3 at 0 %
insertion: proc 4 at 0 %
insertion: proc 6 at 0 %
INFO: Particle insertion ins1: inserted 5 particle templates (mass 0.018850) at step 2301
 - a total of 1440 particle templates (mass 5.428672) inserted so far.
WARNING: Particle insertion: Less insertions than requested (/home/ht45454/CFDEM/LIGGGHTS/src/fix_insert.cpp:814)
insertion: proc 6 at 0 %
insertion: proc 2 at 0 %
insertion: proc 5 at 0 %
insertion: proc 1 at 0 %
insertion: proc 7 at 0 %
insertion: proc 3 at 0 %
insertion: proc 4 at 0 %
    2400        0.024     1440   0.13399686 
insertion: proc 0 at 0 %
INFO: Particle insertion ins1: inserted 4 particle templates (mass 0.015080) at step 2401
 - a total of 1444 particle templates (mass 5.443752) inserted so far.
WARNING: Particle insertion: Less insertions than requested (/home/ht45454/CFDEM/LIGGGHTS/src/fix_insert.cpp:814)
    2500        0.025     1444   0.14472005 
insertion: proc 0 at 0 %
insertion: proc 4 at 0 %
insertion: proc 6 at 0 %
insertion: proc 2 at 0 %
insertion: proc 5 at 0 %
insertion: proc 1 at 0 %
insertion: proc 7 at 0 %
insertion: proc 3 at 0 %
INFO: Particle insertion ins1: inserted 3 particle templates (mass 0.011310) at step 2501
 - a total of 1447 particle templates (mass 5.455061) inserted so far.
WARNING: Particle insertion: Less insertions than requested (/home/ht45454/CFDEM/LIGGGHTS/src/fix_insert.cpp:814)
insertion: proc 3 at 0 %
insertion: proc 4 at 0 %
insertion: proc 6 at 0 %
insertion: proc 2 at 0 %
insertion: proc 5 at 0 %
insertion: proc 1 at 0 %
insertion: proc 7 at 0 %
    2600        0.026     1447   0.15603895 
insertion: proc 0 at 0 %
INFO: Particle insertion ins1: inserted 3 particle templates (mass 0.011310) at step 2601
 - a total of 1450 particle templates (mass 5.466371) inserted so far.
WARNING: Particle insertion: Less insertions than requested (/home/ht45454/CFDEM/LIGGGHTS/src/fix_insert.cpp:814)
insertion: proc 7 at 0 %
insertion: proc 3 at 0 %
insertion: proc 4 at 0 %
insertion: proc 6 at 0 %
insertion: proc 2 at 0 %
insertion: proc 5 at 0 %
insertion: proc 1 at 0 %
    2700        0.027     1450   0.16787571 
insertion: proc 0 at 0 %
INFO: Particle insertion ins1: inserted 5 particle templates (mass 0.018850) at step 2701
 - a total of 1455 particle templates (mass 5.485221) inserted so far.
WARNING: Particle insertion: Less insertions than requested (/home/ht45454/CFDEM/LIGGGHTS/src/fix_insert.cpp:814)
insertion: proc 4 at 0 %
insertion: proc 6 at 0 %
insertion: proc 2 at 0 %
insertion: proc 5 at 0 %
    2800        0.028     1455   0.17964785 
insertion: proc 0 at 0 %
insertion: proc 1 at 0 %
insertion: proc 7 at 0 %
insertion: proc 3 at 0 %
INFO: Particle insertion ins1: inserted 4 particle templates (mass 0.015080) at step 2801
 - a total of 1459 particle templates (mass 5.500300) inserted so far.
WARNING: Particle insertion: Less insertions than requested (/home/ht45454/CFDEM/LIGGGHTS/src/fix_insert.cpp:814)
insertion: proc 3 at 0 %
insertion: proc 1 at 0 %
insertion: proc 7 at 0 %
insertion: proc 5 at 0 %
insertion: proc 4 at 0 %
insertion: proc 6 at 0 %
insertion: proc 2 at 0 %
    2900        0.029     1459   0.19172636 
insertion: proc 0 at 0 %
INFO: Particle insertion ins1: inserted 3 particle templates (mass 0.011310) at step 2901
 - a total of 1462 particle templates (mass 5.511610) inserted so far.
WARNING: Particle insertion: Less insertions than requested (/home/ht45454/CFDEM/LIGGGHTS/src/fix_insert.cpp:814)
    3000         0.03     1462   0.20382391 
insertion: proc 4 at 0 %
insertion: proc 6 at 0 %
insertion: proc 0 at 0 %
insertion: proc 3 at 0 %
insertion: proc 5 at 0 %
insertion: proc 2 at 0 %
insertion: proc 1 at 0 %
insertion: proc 7 at 0 %
INFO: Particle insertion ins1: inserted 1 particle templates (mass 0.003770) at step 3001
 - a total of 1463 particle templates (mass 5.515380) inserted so far.
WARNING: Particle insertion: Less insertions than requested (/home/ht45454/CFDEM/LIGGGHTS/src/fix_insert.cpp:814)
    3100        0.031     1463   0.21652043 
insertion: proc 5 at 0 %
insertion: proc 7 at 0 %
insertion: proc 2 at 0 %
insertion: proc 1 at 0 %
insertion: proc 3 at 0 %
insertion: proc 6 at 0 %
insertion: proc 4 at 0 %
insertion: proc 0 at 0 %
INFO: Particle insertion ins1: inserted 6 particle templates (mass 0.022619) at step 3101
 - a total of 1469 particle templates (mass 5.538000) inserted so far.
WARNING: Particle insertion: Less insertions than requested (/home/ht45454/CFDEM/LIGGGHTS/src/fix_insert.cpp:814)
    3200        0.032     1469    0.2300524 
insertion: proc 1 at 0 %
insertion: proc 3 at 0 %
insertion: proc 6 at 0 %
insertion: proc 0 at 0 %
insertion: proc 4 at 0 %
insertion: proc 5 at 0 %
insertion: proc 7 at 0 %
insertion: proc 2 at 0 %
INFO: Particle insertion ins1: inserted 3 particle templates (mass 0.011310) at step 3201
 - a total of 1472 particle templates (mass 5.549309) inserted so far.
WARNING: Particle insertion: Less insertions than requested (/home/ht45454/CFDEM/LIGGGHTS/src/fix_insert.cpp:814)
insertion: proc 6 at 0 %
insertion: proc 3 at 0 %
    3300        0.033     1472   0.24339993 
insertion: proc 0 at 0 %
insertion: proc 2 at 0 %
insertion: proc 4 at 0 %
insertion: proc 5 at 0 %
insertion: proc 7 at 0 %
insertion: proc 1 at 0 %
INFO: Particle insertion ins1: inserted 3 particle templates (mass 0.011310) at step 3301
 - a total of 1475 particle templates (mass 5.560619) inserted so far.
WARNING: Particle insertion: Less insertions than requested (/home/ht45454/CFDEM/LIGGGHTS/src/fix_insert.cpp:814)
insertion: proc 5 at 0 %
insertion: proc 3 at 0 %
insertion: proc 7 at 0 %
insertion: proc 6 at 0 %
    3400        0.034     1475   0.25765533 
insertion: proc 0 at 0 %
insertion: proc 1 at 0 %
insertion: proc 2 at 0 %
insertion: proc 4 at 0 %
INFO: Particle insertion ins1: inserted 5 particle templates (mass 0.018850) at step 3401
 - a total of 1480 particle templates (mass 5.579469) inserted so far.
WARNING: Particle insertion: Less insertions than requested (/home/ht45454/CFDEM/LIGGGHTS/src/fix_insert.cpp:814)
insertion: proc 4 at 0 %
insertion: proc 1 at 0 %
insertion: proc 2 at 0 %
insertion: proc 6 at 0 %
insertion: proc 5 at 0 %
insertion: proc 3 at 0 %
insertion: proc 7 at 0 %
    3500        0.035     1480    0.2720239 
insertion: proc 0 at 0 %
INFO: Particle insertion ins1: inserted 6 particle templates (mass 0.022619) at step 3501
 - a total of 1486 particle templates (mass 5.602088) inserted so far.
WARNING: Particle insertion: Less insertions than requested (/home/ht45454/CFDEM/LIGGGHTS/src/fix_insert.cpp:814)
    3600        0.036     1486   0.28637397 
insertion: proc 4 at 0 %
insertion: proc 1 at 0 %
insertion: proc 2 at 0 %
insertion: proc 6 at 0 %
insertion: proc 5 at 0 %
insertion: proc 3 at 0 %
insertion: proc 0 at 0 %
insertion: proc 7 at 0 %
INFO: Particle insertion ins1: inserted 7 particle templates (mass 0.026389) at step 3601
 - a total of 1493 particle templates (mass 5.628477) inserted so far.
WARNING: Particle insertion: Less insertions than requested (/home/ht45454/CFDEM/LIGGGHTS/src/fix_insert.cpp:814)
    3700        0.037     1493   0.30039414 
insertion: proc 1 at 0 %
insertion: proc 6 at 0 %
insertion: proc 5 at 0 %
insertion: proc 0 at 0 %
insertion: proc 7 at 0 %
insertion: proc 3 at 0 %
insertion: proc 4 at 0 %
insertion: proc 2 at 0 %
INFO: Particle insertion ins1: inserted 5 particle templates (mass 0.018850) at step 3701
 - a total of 1498 particle templates (mass 5.647327) inserted so far.
WARNING: Particle insertion: Less insertions than requested (/home/ht45454/CFDEM/LIGGGHTS/src/fix_insert.cpp:814)
insertion: proc 2 at 0 %
insertion: proc 7 at 0 %
insertion: proc 3 at 0 %
insertion: proc 5 at 0 %
insertion: proc 4 at 0 %
insertion: proc 1 at 0 %
insertion: proc 6 at 0 %
    3800        0.038     1498    0.3153496 
insertion: proc 0 at 0 %
INFO: Particle insertion ins1: inserted 7 particle templates (mass 0.026389) at step 3801
 - a total of 1505 particle templates (mass 5.673716) inserted so far.
WARNING: Particle insertion: Less insertions than requested (/home/ht45454/CFDEM/LIGGGHTS/src/fix_insert.cpp:814)
insertion: proc 4 at 0 %
insertion: proc 1 at 0 %
    3900        0.039     1505   0.33011592 
insertion: proc 0 at 0 %
insertion: proc 6 at 0 %
insertion: proc 2 at 0 %
insertion: proc 7 at 0 %
insertion: proc 3 at 0 %
insertion: proc 5 at 0 %
INFO: Particle insertion ins1: inserted 7 particle templates (mass 0.026389) at step 3901
 - a total of 1512 particle templates (mass 5.700106) inserted so far.
WARNING: Particle insertion: Less insertions than requested (/home/ht45454/CFDEM/LIGGGHTS/src/fix_insert.cpp:814)
    4000         0.04     1512   0.34499297 
insertion: proc 0 at 0 %
insertion: proc 5 at 0 %
insertion: proc 6 at 0 %
insertion: proc 2 at 0 %
insertion: proc 7 at 0 %
insertion: proc 3 at 0 %
insertion: proc 1 at 0 %
insertion: proc 4 at 0 %
INFO: Particle insertion ins1: inserted 5 particle templates (mass 0.018850) at step 4001
 - a total of 1517 particle templates (mass 5.718955) inserted so far.
WARNING: Particle insertion: Less insertions than requested (/home/ht45454/CFDEM/LIGGGHTS/src/fix_insert.cpp:814)
insertion: proc 3 at 0 %
insertion: proc 1 at 0 %
    4100        0.041     1517   0.36002634 
insertion: proc 0 at 0 %
insertion: proc 4 at 0 %
insertion: proc 5 at 0 %
insertion: proc 6 at 0 %
insertion: proc 2 at 0 %
insertion: proc 7 at 0 %
INFO: Particle insertion ins1: inserted 4 particle templates (mass 0.015080) at step 4101
 - a total of 1521 particle templates (mass 5.734035) inserted so far.
WARNING: Particle insertion: Less insertions than requested (/home/ht45454/CFDEM/LIGGGHTS/src/fix_insert.cpp:814)
insertion: proc 5 at 0 %
insertion: proc 6 at 0 %
insertion: proc 2 at 0 %
insertion: proc 1 at 0 %
insertion: proc 3 at 0 %
    4200        0.042     1521   0.37454279 
insertion: proc 0 at 0 %
insertion: proc 7 at 0 %
insertion: proc 4 at 0 %
INFO: Particle insertion ins1: inserted 5 particle templates (mass 0.018850) at step 4201
 - a total of 1526 particle templates (mass 5.752884) inserted so far.
WARNING: Particle insertion: Less insertions than requested (/home/ht45454/CFDEM/LIGGGHTS/src/fix_insert.cpp:814)
    4300        0.043     1526   0.38978925 
insertion: proc 5 at 0 %
insertion: proc 6 at 0 %
insertion: proc 2 at 0 %
insertion: proc 1 at 0 %
insertion: proc 0 at 0 %
insertion: proc 4 at 0 %
insertion: proc 7 at 0 %
insertion: proc 3 at 0 %
INFO: Particle insertion ins1: inserted 5 particle templates (mass 0.018850) at step 4301
 - a total of 1531 particle templates (mass 5.771734) inserted so far.
WARNING: Particle insertion: Less insertions than requested (/home/ht45454/CFDEM/LIGGGHTS/src/fix_insert.cpp:814)
insertion: proc 3 at 0 %
insertion: proc 4 at 0 %
insertion: proc 7 at 0 %
insertion: proc 1 at 0 %
insertion: proc 5 at 0 %
insertion: proc 6 at 0 %
insertion: proc 2 at 0 %
    4400        0.044     1531   0.40480989 
insertion: proc 0 at 0 %
INFO: Particle insertion ins1: inserted 11 particle templates (mass 0.041469) at step 4401
 - a total of 1542 particle templates (mass 5.813203) inserted so far.
WARNING: Particle insertion: Less insertions than requested (/home/ht45454/CFDEM/LIGGGHTS/src/fix_insert.cpp:814)
    4500        0.045     1542   0.41930875 
insertion: proc 0 at 0 %
insertion: proc 2 at 0 %
insertion: proc 3 at 0 %
insertion: proc 4 at 0 %
insertion: proc 7 at 0 %
insertion: proc 1 at 0 %
insertion: proc 5 at 0 %
insertion: proc 6 at 0 %
INFO: Particle insertion ins1: inserted 4 particle templates (mass 0.015080) at step 4501
 - a total of 1546 particle templates (mass 5.828283) inserted so far.
WARNING: Particle insertion: Less insertions than requested (/home/ht45454/CFDEM/LIGGGHTS/src/fix_insert.cpp:814)
insertion: proc 6 at 0 %
insertion: proc 2 at 0 %
insertion: proc 3 at 0 %
insertion: proc 4 at 0 %
insertion: proc 7 at 0 %
insertion: proc 1 at 0 %
insertion: proc 5 at 0 %
    4600        0.046     1546   0.43314251 
insertion: proc 0 at 0 %
INFO: Particle insertion ins1: inserted 6 particle templates (mass 0.022619) at step 4601
 - a total of 1552 particle templates (mass 5.850902) inserted so far.
WARNING: Particle insertion: Less insertions than requested (/home/ht45454/CFDEM/LIGGGHTS/src/fix_insert.cpp:814)
insertion: proc 5 at 0 %
insertion: proc 6 at 0 %
insertion: proc 2 at 0 %
insertion: proc 3 at 0 %
insertion: proc 4 at 0 %
insertion: proc 7 at 0 %
insertion: proc 1 at 0 %
    4700        0.047     1552   0.44814594 
insertion: proc 0 at 0 %
INFO: Particle insertion ins1: inserted 11 particle templates (mass 0.041469) at step 4701
 - a total of 1563 particle templates (mass 5.892371) inserted so far.
WARNING: Particle insertion: Less insertions than requested (/home/ht45454/CFDEM/LIGGGHTS/src/fix_insert.cpp:814)
    4800        0.048     1563   0.46122308 
insertion: proc 5 at 0 %
insertion: proc 6 at 0 %
insertion: proc 2 at 0 %
insertion: proc 3 at 0 %
insertion: proc 4 at 0 %
insertion: proc 7 at 0 %
insertion: proc 0 at 0 %
insertion: proc 1 at 0 %
INFO: Particle insertion ins1: inserted 7 particle templates (mass 0.026389) at step 4801
 - a total of 1570 particle templates (mass 5.918761) inserted so far.
WARNING: Particle insertion: Less insertions than requested (/home/ht45454/CFDEM/LIGGGHTS/src/fix_insert.cpp:814)
insertion: proc 5 at 0 %
insertion: proc 6 at 0 %
insertion: proc 2 at 0 %
insertion: proc 3 at 0 %
insertion: proc 4 at 0 %
    4900        0.049     1570   0.47644125 
insertion: proc 0 at 0 %
insertion: proc 1 at 0 %
insertion: proc 7 at 0 %
INFO: Particle insertion ins1: inserted 8 particle templates (mass 0.030159) at step 4901
 - a total of 1578 particle templates (mass 5.948920) inserted so far.
WARNING: Particle insertion: Less insertions than requested (/home/ht45454/CFDEM/LIGGGHTS/src/fix_insert.cpp:814)
insertion: proc 7 at 0 %
insertion: proc 1 at 0 %
insertion: proc 4 at 0 %
insertion: proc 5 at 0 %
insertion: proc 6 at 0 %
insertion: proc 2 at 0 %
insertion: proc 3 at 0 %
    5000         0.05     1578   0.48955022 
insertion: proc 0 at 0 %
INFO: Particle insertion ins1: inserted 5 particle templates (mass 0.018850) at step 5001
 - a total of 1583 particle templates (mass 5.967769) inserted so far.
WARNING: Particle insertion: Less insertions than requested (/home/ht45454/CFDEM/LIGGGHTS/src/fix_insert.cpp:814)
insertion: proc 2 at 0 %
    5100        0.051     1583   0.50317109 
insertion: proc 0 at 0 %
insertion: proc 3 at 0 %
insertion: proc 7 at 0 %
insertion: proc 1 at 0 %
insertion: proc 4 at 0 %
insertion: proc 5 at 0 %
insertion: proc 6 at 0 %
INFO: Particle insertion ins1: inserted 6 particle templates (mass 0.022619) at step 5101
 - a total of 1589 particle templates (mass 5.990389) inserted so far.
WARNING: Particle insertion: Less insertions than requested (/home/ht45454/CFDEM/LIGGGHTS/src/fix_insert.cpp:814)
insertion: proc 6 at 0 %
insertion: proc 3 at 0 %
insertion: proc 7 at 0 %
insertion: proc 1 at 0 %
insertion: proc 4 at 0 %
insertion: proc 5 at 0 %
insertion: proc 2 at 0 %
    5200        0.052     1589    0.5186254 
insertion: proc 0 at 0 %
INFO: Particle insertion ins1: inserted 4 particle templates (mass 0.015080) at step 5201
 - a total of 1593 particle templates (mass 6.005469) inserted so far.
WARNING: Particle insertion: Less insertions than requested (/home/ht45454/CFDEM/LIGGGHTS/src/fix_insert.cpp:814)
    5300        0.053     1593   0.53229773 
insertion: proc 3 at 0 %
insertion: proc 7 at 0 %
insertion: proc 1 at 0 %
insertion: proc 4 at 0 %
insertion: proc 5 at 0 %
insertion: proc 0 at 0 %
insertion: proc 2 at 0 %
insertion: proc 6 at 0 %
INFO: Particle insertion ins1: inserted 9 particle templates (mass 0.033929) at step 5301
 - a total of 1602 particle templates (mass 6.039398) inserted so far.
WARNING: Particle insertion: Less insertions than requested (/home/ht45454/CFDEM/LIGGGHTS/src/fix_insert.cpp:814)
    5400        0.054     1602   0.54636272 
insertion: proc 3 at 0 %
insertion: proc 7 at 0 %
insertion: proc 1 at 0 %
insertion: proc 4 at 0 %
insertion: proc 0 at 0 %
insertion: proc 6 at 0 %
insertion: proc 2 at 0 %
insertion: proc 5 at 0 %
INFO: Particle insertion ins1: inserted 4 particle templates (mass 0.015080) at step 5401
 - a total of 1606 particle templates (mass 6.054477) inserted so far.
WARNING: Particle insertion: Less insertions than requested (/home/ht45454/CFDEM/LIGGGHTS/src/fix_insert.cpp:814)
insertion: proc 2 at 0 %
insertion: proc 4 at 0 %
insertion: proc 3 at 0 %
insertion: proc 7 at 0 %
insertion: proc 1 at 0 %
    5500        0.055     1606   0.56218949 
insertion: proc 0 at 0 %
insertion: proc 5 at 0 %
insertion: proc 6 at 0 %
INFO: Particle insertion ins1: inserted 4 particle templates (mass 0.015080) at step 5501
 - a total of 1610 particle templates (mass 6.069557) inserted so far.
WARNING: Particle insertion: Less insertions than requested (/home/ht45454/CFDEM/LIGGGHTS/src/fix_insert.cpp:814)
insertion: proc 7 at 0 %
    5600        0.056     1610   0.57704398 
insertion: proc 0 at 0 %
insertion: proc 6 at 0 %
insertion: proc 5 at 0 %
insertion: proc 1 at 0 %
insertion: proc 2 at 0 %
insertion: proc 4 at 0 %
insertion: proc 3 at 0 %
INFO: Particle insertion ins1: inserted 7 particle templates (mass 0.026389) at step 5601
 - a total of 1617 particle templates (mass 6.095946) inserted so far.
WARNING: Particle insertion: Less insertions than requested (/home/ht45454/CFDEM/LIGGGHTS/src/fix_insert.cpp:814)
insertion: proc 3 at 0 %
insertion: proc 6 at 0 %
insertion: proc 5 at 0 %
insertion: proc 1 at 0 %
insertion: proc 2 at 0 %
insertion: proc 4 at 0 %
insertion: proc 7 at 0 %
    5700        0.057     1617   0.59092681 
insertion: proc 0 at 0 %
INFO: Particle insertion ins1: inserted 5 particle templates (mass 0.018850) at step 5701
 - a total of 1622 particle templates (mass 6.114796) inserted so far.
WARNING: Particle insertion: Less insertions than requested (/home/ht45454/CFDEM/LIGGGHTS/src/fix_insert.cpp:814)
insertion: proc 7 at 0 %
insertion: proc 3 at 0 %
insertion: proc 6 at 0 %
insertion: proc 5 at 0 %
insertion: proc 1 at 0 %
insertion: proc 2 at 0 %
insertion: proc 4 at 0 %
    5800        0.058     1622   0.60551656 
insertion: proc 0 at 0 %
INFO: Particle insertion ins1: inserted 2 particle templates (mass 0.007540) at step 5801
 - a total of 1624 particle templates (mass 6.122336) inserted so far.
WARNING: Particle insertion: Less insertions than requested (/home/ht45454/CFDEM/LIGGGHTS/src/fix_insert.cpp:814)
insertion: proc 4 at 0 %
insertion: proc 7 at 0 %
insertion: proc 3 at 0 %
insertion: proc 6 at 0 %
insertion: proc 5 at 0 %
insertion: proc 1 at 0 %
insertion: proc 2 at 0 %
    5900        0.059     1624   0.61975306 
insertion: proc 0 at 0 %
INFO: Particle insertion ins1: inserted 5 particle templates (mass 0.018850) at step 5901
 - a total of 1629 particle templates (mass 6.141185) inserted so far.
WARNING: Particle insertion: Less insertions than requested (/home/ht45454/CFDEM/LIGGGHTS/src/fix_insert.cpp:814)
insertion: proc 5 at 0 %
insertion: proc 1 at 0 %
    6000         0.06     1629   0.63420253 
insertion: proc 0 at 0 %
insertion: proc 2 at 0 %
insertion: proc 4 at 0 %
insertion: proc 7 at 0 %
insertion: proc 3 at 0 %
insertion: proc 6 at 0 %
INFO: Particle insertion ins1: inserted 4 particle templates (mass 0.015080) at step 6001
 - a total of 1633 particle templates (mass 6.156265) inserted so far.
WARNING: Particle insertion: Less insertions than requested (/home/ht45454/CFDEM/LIGGGHTS/src/fix_insert.cpp:814)
insertion: proc 7 at 0 %
insertion: proc 3 at 0 %
insertion: proc 1 at 0 %
insertion: proc 5 at 0 %
    6100        0.061     1633   0.64920338 
insertion: proc 0 at 0 %
insertion: proc 6 at 0 %
insertion: proc 2 at 0 %
insertion: proc 4 at 0 %
INFO: Particle insertion ins1: inserted 2 particle templates (mass 0.007540) at step 6101
 - a total of 1635 particle templates (mass 6.163805) inserted so far.
WARNING: Particle insertion: Less insertions than requested (/home/ht45454/CFDEM/LIGGGHTS/src/fix_insert.cpp:814)
insertion: proc 7 at 0 %
insertion: proc 3 at 0 %
insertion: proc 1 at 0 %
    6200        0.062     1635   0.66499076 
insertion: proc 0 at 0 %
insertion: proc 4 at 0 %
insertion: proc 6 at 0 %
insertion: proc 2 at 0 %
insertion: proc 5 at 0 %
INFO: Particle insertion ins1: inserted 7 particle templates (mass 0.026389) at step 6201
 - a total of 1642 particle templates (mass 6.190194) inserted so far.
WARNING: Particle insertion: Less insertions than requested (/home/ht45454/CFDEM/LIGGGHTS/src/fix_insert.cpp:814)
insertion: proc 1 at 0 %
insertion: proc 7 at 0 %
insertion: proc 3 at 0 %
    6300        0.063     1642   0.68092853 
insertion: proc 0 at 0 %
insertion: proc 5 at 0 %
insertion: proc 4 at 0 %
insertion: proc 6 at 0 %
insertion: proc 2 at 0 %
INFO: Particle insertion ins1: inserted 4 particle templates (mass 0.015080) at step 6301
 - a total of 1646 particle templates (mass 6.205274) inserted so far.
WARNING: Particle insertion: Less insertions than requested (/home/ht45454/CFDEM/LIGGGHTS/src/fix_insert.cpp:814)
insertion: proc 4 at 0 %
insertion: proc 6 at 0 %
insertion: proc 3 at 0 %
insertion: proc 1 at 0 %
insertion: proc 7 at 0 %
    6400        0.064     1646   0.69499532 
insertion: proc 0 at 0 %
insertion: proc 2 at 0 %
insertion: proc 5 at 0 %
INFO: Particle insertion ins1: inserted 4 particle templates (mass 0.015080) at step 6401
 - a total of 1650 particle templates (mass 6.220353) inserted so far.
WARNING: Particle insertion: Less insertions than requested (/home/ht45454/CFDEM/LIGGGHTS/src/fix_insert.cpp:814)
insertion: proc 6 at 0 %
insertion: proc 3 at 0 %
insertion: proc 1 at 0 %
    6500        0.065     1650   0.70924871 
insertion: proc 0 at 0 %
insertion: proc 5 at 0 %
insertion: proc 2 at 0 %
insertion: proc 7 at 0 %
insertion: proc 4 at 0 %
INFO: Particle insertion ins1: inserted 3 particle templates (mass 0.011310) at step 6501
 - a total of 1653 particle templates (mass 6.231663) inserted so far.
WARNING: Particle insertion: Less insertions than requested (/home/ht45454/CFDEM/LIGGGHTS/src/fix_insert.cpp:814)
insertion: proc 1 at 0 %
insertion: proc 6 at 0 %
insertion: proc 3 at 0 %
    6600        0.066     1653   0.72344046 
insertion: proc 0 at 0 %
insertion: proc 4 at 0 %
insertion: proc 5 at 0 %
insertion: proc 2 at 0 %
insertion: proc 7 at 0 %
INFO: Particle insertion ins1: inserted 4 particle templates (mass 0.015080) at step 6601
 - a total of 1657 particle templates (mass 6.246743) inserted so far.
WARNING: Particle insertion: Less insertions than requested (/home/ht45454/CFDEM/LIGGGHTS/src/fix_insert.cpp:814)
insertion: proc 3 at 0 %
insertion: proc 1 at 0 %
insertion: proc 6 at 0 %
    6700        0.067     1657    0.7382535 
insertion: proc 7 at 0 %
insertion: proc 5 at 0 %
insertion: proc 2 at 0 %
insertion: proc 0 at 0 %
insertion: proc 4 at 0 %
INFO: Particle insertion ins1: inserted 3 particle templates (mass 0.011310) at step 6701
 - a total of 1660 particle templates (mass 6.258053) inserted so far.
WARNING: Particle insertion: Less insertions than requested (/home/ht45454/CFDEM/LIGGGHTS/src/fix_insert.cpp:814)
insertion: proc 4 at 0 %
insertion: proc 7 at 0 %
insertion: proc 5 at 0 %
insertion: proc 6 at 0 %
insertion: proc 3 at 0 %
insertion: proc 1 at 0 %
    6800        0.068     1660   0.75327383 
insertion: proc 0 at 0 %
insertion: proc 2 at 0 %
INFO: Particle insertion ins1: inserted 2 particle templates (mass 0.007540) at step 6801
 - a total of 1662 particle templates (mass 6.265592) inserted so far.
WARNING: Particle insertion: Less insertions than requested (/home/ht45454/CFDEM/LIGGGHTS/src/fix_insert.cpp:814)
insertion: proc 5 at 0 %
insertion: proc 6 at 0 %
insertion: proc 3 at 0 %
    6900        0.069     1662   0.76920942 
insertion: proc 0 at 0 %
insertion: proc 2 at 0 %
insertion: proc 1 at 0 %
insertion: proc 4 at 0 %
insertion: proc 7 at 0 %
INFO: Particle insertion ins1: inserted 4 particle templates (mass 0.015080) at step 6901
 - a total of 1666 particle templates (mass 6.280672) inserted so far.
WARNING: Particle insertion: Less insertions than requested (/home/ht45454/CFDEM/LIGGGHTS/src/fix_insert.cpp:814)
insertion: proc 7 at 0 %
insertion: proc 2 at 0 %
insertion: proc 1 at 0 %
insertion: proc 4 at 0 %
insertion: proc 3 at 0 %
insertion: proc 5 at 0 %
insertion: proc 6 at 0 %
    7000         0.07     1666   0.78417543 
insertion: proc 0 at 0 %
INFO: Particle insertion ins1: inserted 1 particle templates (mass 0.003770) at step 7001
 - a total of 1667 particle templates (mass 6.284442) inserted so far.
WARNING: Particle insertion: Less insertions than requested (/home/ht45454/CFDEM/LIGGGHTS/src/fix_insert.cpp:814)
insertion: proc 3 at 0 %
insertion: proc 5 at 0 %
    7100        0.071     1667   0.79775827 
insertion: proc 0 at 0 %
insertion: proc 6 at 0 %
insertion: proc 7 at 0 %
insertion: proc 2 at 0 %
insertion: proc 1 at 0 %
insertion: proc 4 at 0 %
INFO: Particle insertion ins1: inserted 3 particle templates (mass 0.011310) at step 7101
 - a total of 1670 particle templates (mass 6.295752) inserted so far.
WARNING: Particle insertion: Less insertions than requested (/home/ht45454/CFDEM/LIGGGHTS/src/fix_insert.cpp:814)
insertion: proc 5 at 0 %
insertion: proc 3 at 0 %
    7200        0.072     1670   0.81206451 
insertion: proc 0 at 0 %
insertion: proc 4 at 0 %
insertion: proc 6 at 0 %
insertion: proc 7 at 0 %
insertion: proc 2 at 0 %
insertion: proc 1 at 0 %
INFO: Particle insertion ins1: inserted 5 particle templates (mass 0.018850) at step 7201
 - a total of 1675 particle templates (mass 6.314601) inserted so far.
WARNING: Particle insertion: Less insertions than requested (/home/ht45454/CFDEM/LIGGGHTS/src/fix_insert.cpp:814)
    7300        0.073     1675   0.82410553 
insertion: proc 0 at 0 %
insertion: proc 1 at 0 %
insertion: proc 4 at 0 %
insertion: proc 6 at 0 %
insertion: proc 7 at 0 %
insertion: proc 2 at 0 %
insertion: proc 3 at 0 %
insertion: proc 5 at 0 %
INFO: Particle insertion ins1: inserted 0 particle templates (mass 0.000000) at step 7301
 - a total of 1675 particle templates (mass 6.314601) inserted so far.
WARNING: Particle insertion: Less insertions than requested (/home/ht45454/CFDEM/LIGGGHTS/src/fix_insert.cpp:814)
insertion: proc 5 at 0 %
insertion: proc 1 at 0 %
insertion: proc 4 at 0 %
insertion: proc 6 at 0 %
insertion: proc 7 at 0 %
insertion: proc 2 at 0 %
insertion: proc 3 at 0 %
    7400        0.074     1675   0.83367206 
insertion: proc 0 at 0 %
INFO: Particle insertion ins1: inserted 1 particle templates (mass 0.003770) at step 7401
 - a total of 1676 particle templates (mass 6.318371) inserted so far.
WARNING: Particle insertion: Less insertions than requested (/home/ht45454/CFDEM/LIGGGHTS/src/fix_insert.cpp:814)
insertion: proc 6 at 0 %
insertion: proc 7 at 0 %
insertion: proc 2 at 0 %
    7500        0.075     1676   0.84437976 
insertion: proc 0 at 0 %
insertion: proc 3 at 0 %
insertion: proc 5 at 0 %
insertion: proc 1 at 0 %
insertion: proc 4 at 0 %
INFO: Particle insertion ins1: inserted 6 particle templates (mass 0.022619) at step 7501
 - a total of 1682 particle templates (mass 6.340991) inserted so far.
WARNING: Particle insertion: Less insertions than requested (/home/ht45454/CFDEM/LIGGGHTS/src/fix_insert.cpp:814)
    7600        0.076     1682   0.85724431 
insertion: proc 1 at 0 %
insertion: proc 2 at 0 %
insertion: proc 6 at 0 %
insertion: proc 7 at 0 %
insertion: proc 0 at 0 %
insertion: proc 4 at 0 %
insertion: proc 3 at 0 %
insertion: proc 5 at 0 %
INFO: Particle insertion ins1: inserted 0 particle templates (mass 0.000000) at step 7601
 - a total of 1682 particle templates (mass 6.340991) inserted so far.
WARNING: Particle insertion: Less insertions than requested (/home/ht45454/CFDEM/LIGGGHTS/src/fix_insert.cpp:814)
insertion: proc 4 at 0 %
insertion: proc 3 at 0 %
insertion: proc 7 at 0 %
insertion: proc 1 at 0 %
insertion: proc 2 at 0 %
insertion: proc 6 at 0 %
    7700        0.077     1682   0.86903567 
insertion: proc 0 at 0 %
insertion: proc 5 at 0 %
INFO: Particle insertion ins1: inserted 6 particle templates (mass 0.022619) at step 7701
 - a total of 1688 particle templates (mass 6.363610) inserted so far.
WARNING: Particle insertion: Less insertions than requested (/home/ht45454/CFDEM/LIGGGHTS/src/fix_insert.cpp:814)
insertion: proc 5 at 0 %
insertion: proc 6 at 0 %
insertion: proc 4 at 0 %
insertion: proc 3 at 0 %
insertion: proc 7 at 0 %
insertion: proc 1 at 0 %
insertion: proc 2 at 0 %
    7800        0.078     1688   0.88276165 
insertion: proc 0 at 0 %
INFO: Particle insertion ins1: inserted 5 particle templates (mass 0.018850) at step 7801
 - a total of 1693 particle templates (mass 6.382460) inserted so far.
WARNING: Particle insertion: Less insertions than requested (/home/ht45454/CFDEM/LIGGGHTS/src/fix_insert.cpp:814)
insertion: proc 2 at 0 %
insertion: proc 5 at 0 %
insertion: proc 6 at 0 %
insertion: proc 4 at 0 %
insertion: proc 3 at 0 %
insertion: proc 7 at 0 %
insertion: proc 1 at 0 %
    7900        0.079     1693   0.89385691 
insertion: proc 0 at 0 %
INFO: Particle insertion ins1: inserted 2 particle templates (mass 0.007540) at step 7901
 - a total of 1695 particle templates (mass 6.389999) inserted so far.
WARNING: Particle insertion: Less insertions than requested (/home/ht45454/CFDEM/LIGGGHTS/src/fix_insert.cpp:814)
    8000         0.08     1695   0.90449508 
insertion: proc 0 at 0 %
insertion: proc 6 at 0 %
insertion: proc 4 at 0 %
insertion: proc 3 at 0 %
insertion: proc 7 at 0 %
insertion: proc 1 at 0 %
insertion: proc 2 at 0 %
insertion: proc 5 at 0 %
INFO: Particle insertion ins1: inserted 2 particle templates (mass 0.007540) at step 8001
 - a total of 1697 particle templates (mass 6.397539) inserted so far.
WARNING: Particle insertion: Less insertions than requested (/home/ht45454/CFDEM/LIGGGHTS/src/fix_insert.cpp:814)
insertion: proc 5 at 0 %
insertion: proc 6 at 0 %
insertion: proc 4 at 0 %
insertion: proc 3 at 0 %
    8100        0.081     1697   0.91231878 
insertion: proc 0 at 0 %
insertion: proc 7 at 0 %
insertion: proc 1 at 0 %
insertion: proc 2 at 0 %
INFO: Particle insertion ins1: inserted 4 particle templates (mass 0.015080) at step 8101
 - a total of 1701 particle templates (mass 6.412619) inserted so far.
WARNING: Particle insertion: Less insertions than requested (/home/ht45454/CFDEM/LIGGGHTS/src/fix_insert.cpp:814)
insertion: proc 5 at 0 %
insertion: proc 6 at 0 %
insertion: proc 4 at 0 %
    8200        0.082     1701   0.92249308 
insertion: proc 0 at 0 %
insertion: proc 2 at 0 %
insertion: proc 7 at 0 %
insertion: proc 1 at 0 %
insertion: proc 3 at 0 %
INFO: Particle insertion ins1: inserted 8 particle templates (mass 0.030159) at step 8201
 - a total of 1709 particle templates (mass 6.442778) inserted so far.
WARNING: Particle insertion: Less insertions than requested (/home/ht45454/CFDEM/LIGGGHTS/src/fix_insert.cpp:814)
    8300        0.083     1709   0.93183992 
insertion: proc 0 at 0 %
insertion: proc 3 at 0 %
insertion: proc 2 at 0 %
insertion: proc 7 at 0 %
insertion: proc 1 at 0 %
insertion: proc 4 at 0 %
insertion: proc 5 at 0 %
insertion: proc 6 at 0 %
INFO: Particle insertion ins1: inserted 6 particle templates (mass 0.022619) at step 8301
 - a total of 1715 particle templates (mass 6.465398) inserted so far.
WARNING: Particle insertion: Less insertions than requested (/home/ht45454/CFDEM/LIGGGHTS/src/fix_insert.cpp:814)
insertion: proc 6 at 0 %
insertion: proc 3 at 0 %
insertion: proc 2 at 0 %
insertion: proc 7 at 0 %
insertion: proc 1 at 0 %
insertion: proc 4 at 0 %
insertion: proc 5 at 0 %
    8400        0.084     1715   0.93834555 
insertion: proc 0 at 0 %
INFO: Particle insertion ins1: inserted 9 particle templates (mass 0.033929) at step 8401
 - a total of 1724 particle templates (mass 6.499327) inserted so far.
WARNING: Particle insertion: Less insertions than requested (/home/ht45454/CFDEM/LIGGGHTS/src/fix_insert.cpp:814)
insertion: proc 5 at 0 %
insertion: proc 6 at 0 %
insertion: proc 3 at 0 %
insertion: proc 2 at 0 %
insertion: proc 7 at 0 %
insertion: proc 1 at 0 %
insertion: proc 4 at 0 %
    8500        0.085     1724   0.94308124 
insertion: proc 0 at 0 %
INFO: Particle insertion ins1: inserted 12 particle templates (mass 0.045239) at step 8501
 - a total of 1736 particle templates (mass 6.544566) inserted so far.
WARNING: Particle insertion: Less insertions than requested (/home/ht45454/CFDEM/LIGGGHTS/src/fix_insert.cpp:814)
insertion: proc 4 at 0 %
insertion: proc 5 at 0 %
insertion: proc 6 at 0 %
insertion: proc 3 at 0 %
insertion: proc 2 at 0 %
insertion: proc 7 at 0 %
insertion: proc 1 at 0 %
    8600        0.086     1736   0.94580149 
insertion: proc 0 at 0 %
INFO: Particle insertion ins1: inserted 10 particle templates (mass 0.037699) at step 8601
 - a total of 1746 particle templates (mass 6.582265) inserted so far.
WARNING: Particle insertion: Less insertions than requested (/home/ht45454/CFDEM/LIGGGHTS/src/fix_insert.cpp:814)
insertion: proc 4 at 0 %
insertion: proc 5 at 0 %
insertion: proc 6 at 0 %
insertion: proc 3 at 0 %
insertion: proc 2 at 0 %
insertion: proc 7 at 0 %
    8700        0.087     1746   0.94739746 
insertion: proc 0 at 0 %
insertion: proc 1 at 0 %
INFO: Particle insertion ins1: inserted 13 particle templates (mass 0.049009) at step 8701
 - a total of 1759 particle templates (mass 6.631274) inserted so far.
WARNING: Particle insertion: Less insertions than requested (/home/ht45454/CFDEM/LIGGGHTS/src/fix_insert.cpp:814)
insertion: proc 6 at 0 %
insertion: proc 3 at 0 %
insertion: proc 2 at 0 %
    8800        0.088     1759   0.94441841 
insertion: proc 0 at 0 %
insertion: proc 1 at 0 %
insertion: proc 7 at 0 %
insertion: proc 4 at 0 %
insertion: proc 5 at 0 %
INFO: Particle insertion ins1: inserted 9 particle templates (mass 0.033929) at step 8801
 - a total of 1768 particle templates (mass 6.665203) inserted so far.
WARNING: Particle insertion: Less insertions than requested (/home/ht45454/CFDEM/LIGGGHTS/src/fix_insert.cpp:814)
    8900        0.089     1768   0.94086183 
insertion: proc 5 at 0 %
insertion: proc 1 at 0 %
insertion: proc 7 at 0 %
insertion: proc 4 at 0 %
insertion: proc 2 at 0 %
insertion: proc 6 at 0 %
insertion: proc 3 at 0 %
insertion: proc 0 at 0 %
INFO: Particle insertion ins1: inserted 13 particle templates (mass 0.049009) at step 8901
 - a total of 1781 particle templates (mass 6.714212) inserted so far.
WARNING: Particle insertion: Less insertions than requested (/home/ht45454/CFDEM/LIGGGHTS/src/fix_insert.cpp:814)
    9000         0.09     1781   0.93460381 
insertion: proc 0 at 0 %
insertion: proc 3 at 0 %
insertion: proc 5 at 0 %
insertion: proc 1 at 0 %
insertion: proc 7 at 0 %
insertion: proc 2 at 0 %
insertion: proc 6 at 0 %
insertion: proc 4 at 0 %
INFO: Particle insertion ins1: inserted 13 particle templates (mass 0.049009) at step 9001
 - a total of 1794 particle templates (mass 6.763221) inserted so far.
WARNING: Particle insertion: Less insertions than requested (/home/ht45454/CFDEM/LIGGGHTS/src/fix_insert.cpp:814)
    9100        0.091     1794   0.92959346 
insertion: proc 0 at 0 %
insertion: proc 4 at 0 %
insertion: proc 3 at 0 %
insertion: proc 5 at 0 %
insertion: proc 1 at 0 %
insertion: proc 6 at 0 %
insertion: proc 7 at 0 %
insertion: proc 2 at 0 %
INFO: Particle insertion ins1: inserted 9 particle templates (mass 0.033929) at step 9101
 - a total of 1803 particle templates (mass 6.797150) inserted so far.
WARNING: Particle insertion: Less insertions than requested (/home/ht45454/CFDEM/LIGGGHTS/src/fix_insert.cpp:814)
insertion: proc 2 at 0 %
insertion: proc 4 at 0 %
insertion: proc 3 at 0 %
insertion: proc 5 at 0 %
insertion: proc 1 at 0 %
insertion: proc 6 at 0 %
insertion: proc 7 at 0 %
    9200        0.092     1803   0.92328591 
insertion: proc 0 at 0 %
INFO: Particle insertion ins1: inserted 12 particle templates (mass 0.045239) at step 9201
 - a total of 1815 particle templates (mass 6.842389) inserted so far.
WARNING: Particle insertion: Less insertions than requested (/home/ht45454/CFDEM/LIGGGHTS/src/fix_insert.cpp:814)
insertion: proc 5 at 0 %
insertion: proc 1 at 0 %
insertion: proc 6 at 0 %
    9300        0.093     1815   0.91466475 
insertion: proc 0 at 0 %
insertion: proc 7 at 0 %
insertion: proc 2 at 0 %
insertion: proc 4 at 0 %
insertion: proc 3 at 0 %
INFO: Particle insertion ins1: inserted 8 particle templates (mass 0.030159) at step 9301
 - a total of 1823 particle templates (mass 6.872548) inserted so far.
WARNING: Particle insertion: Less insertions than requested (/home/ht45454/CFDEM/LIGGGHTS/src/fix_insert.cpp:814)
insertion: proc 3 at 0 %
insertion: proc 7 at 0 %
insertion: proc 2 at 0 %
insertion: proc 4 at 0 %
insertion: proc 6 at 0 %
insertion: proc 5 at 0 %
insertion: proc 1 at 0 %
    9400        0.094     1823    0.9049663 
insertion: proc 0 at 0 %
INFO: Particle insertion ins1: inserted 8 particle templates (mass 0.030159) at step 9401
 - a total of 1831 particle templates (mass 6.902707) inserted so far.
WARNING: Particle insertion: Less insertions than requested (/home/ht45454/CFDEM/LIGGGHTS/src/fix_insert.cpp:814)
    9500        0.095     1831    0.8930507 
insertion: proc 4 at 0 %
insertion: proc 6 at 0 %
insertion: proc 5 at 0 %
insertion: proc 0 at 0 %
insertion: proc 1 at 0 %
insertion: proc 3 at 0 %
insertion: proc 7 at 0 %
insertion: proc 2 at 0 %
INFO: Particle insertion ins1: inserted 11 particle templates (mass 0.041469) at step 9501
 - a total of 1842 particle templates (mass 6.944176) inserted so far.
WARNING: Particle insertion: Less insertions than requested (/home/ht45454/CFDEM/LIGGGHTS/src/fix_insert.cpp:814)
insertion: proc 3 at 0 %
insertion: proc 7 at 0 %
insertion: proc 5 at 0 %
insertion: proc 4 at 0 %
insertion: proc 6 at 0 %
    9600        0.096     1842   0.88078434 
insertion: proc 0 at 0 %
insertion: proc 2 at 0 %
insertion: proc 1 at 0 %
INFO: Particle insertion ins1: inserted 11 particle templates (mass 0.041469) at step 9601
 - a total of 1853 particle templates (mass 6.985645) inserted so far.
WARNING: Particle insertion: Less insertions than requested (/home/ht45454/CFDEM/LIGGGHTS/src/fix_insert.cpp:814)
insertion: proc 6 at 0 %
insertion: proc 3 at 0 %
insertion: proc 7 at 0 %
insertion: proc 5 at 0 %
insertion: proc 4 at 0 %
    9700        0.097     1853   0.86632214 
insertion: proc 0 at 0 %
insertion: proc 1 at 0 %
insertion: proc 2 at 0 %
INFO: Particle insertion ins1: inserted 8 particle templates (mass 0.030159) at step 9701
 - a total of 1861 particle templates (mass 7.015805) inserted so far.
WARNING: Particle insertion: Less insertions than requested (/home/ht45454/CFDEM/LIGGGHTS/src/fix_insert.cpp:814)
    9800        0.098     1861   0.84989677 
insertion: proc 2 at 0 %
insertion: proc 1 at 0 %
insertion: proc 4 at 0 %
insertion: proc 6 at 0 %
insertion: proc 3 at 0 %
insertion: proc 7 at 0 %
insertion: proc 5 at 0 %
insertion: proc 0 at 0 %
INFO: Particle insertion ins1: inserted 5 particle templates (mass 0.018850) at step 9801
 - a total of 1866 particle templates (mass 7.034654) inserted so far.
WARNING: Particle insertion: Less insertions than requested (/home/ht45454/CFDEM/LIGGGHTS/src/fix_insert.cpp:814)
insertion: proc 5 at 0 %
insertion: proc 2 at 0 %
insertion: proc 1 at 0 %
insertion: proc 4 at 0 %
insertion: proc 6 at 0 %
insertion: proc 3 at 0 %
insertion: proc 7 at 0 %
    9900        0.099     1866   0.82866448 
insertion: proc 0 at 0 %
INFO: Particle insertion ins1: inserted 5 particle templates (mass 0.018850) at step 9901
 - a total of 1871 particle templates (mass 7.053504) inserted so far.
WARNING: Particle insertion: Less insertions than requested (/home/ht45454/CFDEM/LIGGGHTS/src/fix_insert.cpp:814)
insertion: proc 5 at 0 %
insertion: proc 2 at 0 %
insertion: proc 1 at 0 %
insertion: proc 4 at 0 %
insertion: proc 6 at 0 %
insertion: proc 3 at 0 %
   10000          0.1     1871   0.80595085 
insertion: proc 7 at 0 %
insertion: proc 0 at 0 %
INFO: Particle insertion ins1: inserted 8 particle templates (mass 0.030159) at step 10001
 - a total of 1879 particle templates (mass 7.083663) inserted so far.
WARNING: Particle insertion: Less insertions than requested (/home/ht45454/CFDEM/LIGGGHTS/src/fix_insert.cpp:814)
insertion: proc 6 at 0 %
   10100        0.101     1879   0.78726973 
insertion: proc 0 at 0 %
insertion: proc 7 at 0 %
insertion: proc 3 at 0 %
insertion: proc 5 at 0 %
insertion: proc 2 at 0 %
insertion: proc 1 at 0 %
insertion: proc 4 at 0 %
INFO: Particle insertion ins1: inserted 10 particle templates (mass 0.037699) at step 10101
 - a total of 1889 particle templates (mass 7.121362) inserted so far.
WARNING: Particle insertion: Less insertions than requested (/home/ht45454/CFDEM/LIGGGHTS/src/fix_insert.cpp:814)
insertion: proc 5 at 0 %
insertion: proc 2 at 0 %
insertion: proc 1 at 0 %
insertion: proc 6 at 0 %
   10200        0.102     1889   0.76380898 
insertion: proc 0 at 0 %
insertion: proc 3 at 0 %
insertion: proc 4 at 0 %
insertion: proc 7 at 0 %
INFO: Particle insertion ins1: inserted 4 particle templates (mass 0.015080) at step 10201
 - a total of 1893 particle templates (mass 7.136442) inserted so far.
WARNING: Particle insertion: Less insertions than requested (/home/ht45454/CFDEM/LIGGGHTS/src/fix_insert.cpp:814)
insertion: proc 1 at 0 %
   10300        0.103     1893   0.73975318 
insertion: proc 3 at 0 %
insertion: proc 4 at 0 %
insertion: proc 7 at 0 %
insertion: proc 6 at 0 %
insertion: proc 5 at 0 %
insertion: proc 2 at 0 %
insertion: proc 0 at 0 %
INFO: Particle insertion ins1: inserted 6 particle templates (mass 0.022619) at step 10301
 - a total of 1899 particle templates (mass 7.159061) inserted so far.
WARNING: Particle insertion: Less insertions than requested (/home/ht45454/CFDEM/LIGGGHTS/src/fix_insert.cpp:814)
   10400        0.104     1899   0.71702271 
insertion: proc 4 at 0 %
insertion: proc 7 at 0 %
insertion: proc 6 at 0 %
insertion: proc 5 at 0 %
insertion: proc 1 at 0 %
insertion: proc 0 at 0 %
insertion: proc 2 at 0 %
insertion: proc 3 at 0 %
INFO: Particle insertion ins1: inserted 6 particle templates (mass 0.022619) at step 10401
 - a total of 1905 particle templates (mass 7.181681) inserted so far.
WARNING: Particle insertion: Less insertions than requested (/home/ht45454/CFDEM/LIGGGHTS/src/fix_insert.cpp:814)
insertion: proc 5 at 0 %
   10500        0.105     1905    0.6953748 
insertion: proc 0 at 0 %
insertion: proc 3 at 0 %
insertion: proc 2 at 0 %
insertion: proc 1 at 0 %
insertion: proc 4 at 0 %
insertion: proc 7 at 0 %
insertion: proc 6 at 0 %
INFO: Particle insertion ins1: inserted 10 particle templates (mass 0.037699) at step 10501
 - a total of 1915 particle templates (mass 7.219380) inserted so far.
WARNING: Particle insertion: Less insertions than requested (/home/ht45454/CFDEM/LIGGGHTS/src/fix_insert.cpp:814)
insertion: proc 3 at 0 %
insertion: proc 2 at 0 %
insertion: proc 1 at 0 %
insertion: proc 4 at 0 %
insertion: proc 7 at 0 %
insertion: proc 5 at 0 %
   10600        0.106     1915   0.67129633 
insertion: proc 0 at 0 %
insertion: proc 6 at 0 %
INFO: Particle insertion ins1: inserted 11 particle templates (mass 0.041469) at step 10601
 - a total of 1926 particle templates (mass 7.260849) inserted so far.
WARNING: Particle insertion: Less insertions than requested (/home/ht45454/CFDEM/LIGGGHTS/src/fix_insert.cpp:814)
insertion: proc 5 at 0 %
insertion: proc 3 at 0 %
insertion: proc 2 at 0 %
insertion: proc 1 at 0 %
insertion: proc 4 at 0 %
insertion: proc 7 at 0 %
   10700        0.107     1926   0.64573943 
insertion: proc 0 at 0 %
insertion: proc 6 at 0 %
INFO: Particle insertion ins1: inserted 6 particle templates (mass 0.022619) at step 10701
 - a total of 1932 particle templates (mass 7.283468) inserted so far.
WARNING: Particle insertion: Less insertions than requested (/home/ht45454/CFDEM/LIGGGHTS/src/fix_insert.cpp:814)
insertion: proc 7 at 0 %
insertion: proc 5 at 0 %
insertion: proc 3 at 0 %
insertion: proc 2 at 0 %
insertion: proc 1 at 0 %
insertion: proc 4 at 0 %
   10800        0.108     1932   0.61887669 
insertion: proc 0 at 0 %
insertion: proc 6 at 0 %
INFO: Particle insertion ins1: inserted 9 particle templates (mass 0.033929) at step 10801
 - a total of 1941 particle templates (mass 7.317398) inserted so far.
WARNING: Particle insertion: Less insertions than requested (/home/ht45454/CFDEM/LIGGGHTS/src/fix_insert.cpp:814)
   10900        0.109     1941   0.59158911 
insertion: proc 6 at 0 %
insertion: proc 4 at 0 %
insertion: proc 7 at 0 %
insertion: proc 5 at 0 %
insertion: proc 3 at 0 %
insertion: proc 2 at 0 %
insertion: proc 1 at 0 %
insertion: proc 0 at 0 %
INFO: Particle insertion ins1: inserted 4 particle templates (mass 0.015080) at step 10901
 - a total of 1945 particle templates (mass 7.332477) inserted so far.
WARNING: Particle insertion: Less insertions than requested (/home/ht45454/CFDEM/LIGGGHTS/src/fix_insert.cpp:814)
insertion: proc 7 at 0 %
insertion: proc 5 at 0 %
insertion: proc 3 at 0 %
insertion: proc 2 at 0 %
   11000         0.11     1945   0.56051152 
insertion: proc 0 at 0 %
insertion: proc 1 at 0 %
insertion: proc 6 at 0 %
insertion: proc 4 at 0 %
INFO: Particle insertion ins1: inserted 6 particle templates (mass 0.022619) at step 11001
 - a total of 1951 particle templates (mass 7.355097) inserted so far.
WARNING: Particle insertion: Less insertions than requested (/home/ht45454/CFDEM/LIGGGHTS/src/fix_insert.cpp:814)
insertion: proc 4 at 0 %
insertion: proc 1 at 0 %
insertion: proc 6 at 0 %
insertion: proc 2 at 0 %
insertion: proc 7 at 0 %
insertion: proc 5 at 0 %
insertion: proc 3 at 0 %
   11100        0.111     1951   0.53594825 
insertion: proc 0 at 0 %
INFO: Particle insertion ins1: inserted 8 particle templates (mass 0.030159) at step 11101
 - a total of 1959 particle templates (mass 7.385256) inserted so far.
WARNING: Particle insertion: Less insertions than requested (/home/ht45454/CFDEM/LIGGGHTS/src/fix_insert.cpp:814)
   11200        0.112     1959   0.50447032 
insertion: proc 3 at 0 %
insertion: proc 4 at 0 %
insertion: proc 1 at 0 %
insertion: proc 6 at 0 %
insertion: proc 2 at 0 %
insertion: proc 7 at 0 %
insertion: proc 5 at 0 %
insertion: proc 0 at 0 %
INFO: Particle insertion ins1: inserted 12 particle templates (mass 0.045239) at step 11201
 - a total of 1971 particle templates (mass 7.430495) inserted so far.
WARNING: Particle insertion: Less insertions than requested (/home/ht45454/CFDEM/LIGGGHTS/src/fix_insert.cpp:814)
insertion: proc 5 at 0 %
insertion: proc 3 at 0 %
insertion: proc 4 at 0 %
insertion: proc 1 at 0 %
insertion: proc 6 at 0 %
insertion: proc 2 at 0 %
insertion: proc 7 at 0 %
   11300        0.113     1971   0.47591818 
insertion: proc 0 at 0 %
INFO: Particle insertion ins1: inserted 10 particle templates (mass 0.037699) at step 11301
 - a total of 1981 particle templates (mass 7.468194) inserted so far.
WARNING: Particle insertion: Less insertions than requested (/home/ht45454/CFDEM/LIGGGHTS/src/fix_insert.cpp:814)
insertion: proc 6 at 0 %
insertion: proc 2 at 0 %
   11400        0.114     1981    0.4504037 
insertion: proc 0 at 0 %
insertion: proc 7 at 0 %
insertion: proc 5 at 0 %
insertion: proc 3 at 0 %
insertion: proc 4 at 0 %
insertion: proc 1 at 0 %
INFO: Particle insertion ins1: inserted 5 particle templates (mass 0.018850) at step 11401
 - a total of 1986 particle templates (mass 7.487044) inserted so far.
WARNING: Particle insertion: Less insertions than requested (/home/ht45454/CFDEM/LIGGGHTS/src/fix_insert.cpp:814)
insertion: proc 2 at 0 %
insertion: proc 6 at 0 %
   11500        0.115     1986   0.43295891 
insertion: proc 0 at 0 %
insertion: proc 1 at 0 %
insertion: proc 7 at 0 %
insertion: proc 5 at 0 %
insertion: proc 3 at 0 %
insertion: proc 4 at 0 %
INFO: Particle insertion ins1: inserted 7 particle templates (mass 0.026389) at step 11501
 - a total of 1993 particle templates (mass 7.513433) inserted so far.
WARNING: Particle insertion: Less insertions than requested (/home/ht45454/CFDEM/LIGGGHTS/src/fix_insert.cpp:814)
insertion: proc 6 at 0 %
insertion: proc 2 at 0 %
   11600        0.116     1993   0.41529842 
insertion: proc 0 at 0 %
insertion: proc 4 at 0 %
insertion: proc 1 at 0 %
insertion: proc 7 at 0 %
insertion: proc 5 at 0 %
insertion: proc 3 at 0 %
INFO: Particle insertion ins1: inserted 5 particle templates (mass 0.018850) at step 11601
 - a total of 1998 particle templates (mass 7.532283) inserted so far.
WARNING: Particle insertion: Less insertions than requested (/home/ht45454/CFDEM/LIGGGHTS/src/fix_insert.cpp:814)
insertion: proc 2 at 0 %
insertion: proc 6 at 0 %
   11700        0.117     1998    0.4012013 
insertion: proc 0 at 0 %
insertion: proc 1 at 0 %
insertion: proc 7 at 0 %
insertion: proc 5 at 0 %
insertion: proc 3 at 0 %
insertion: proc 4 at 0 %
INFO: Particle insertion ins1: inserted 12 particle templates (mass 0.045239) at step 11701
 - a total of 2010 particle templates (mass 7.577521) inserted so far.
WARNING: Particle insertion: Less insertions than requested (/home/ht45454/CFDEM/LIGGGHTS/src/fix_insert.cpp:814)
   11800        0.118     2010   0.38106581 
insertion: proc 0 at 0 %
insertion: proc 5 at 0 %
insertion: proc 3 at 0 %
insertion: proc 4 at 0 %
insertion: proc 1 at 0 %
insertion: proc 7 at 0 %
insertion: proc 6 at 0 %
insertion: proc 2 at 0 %
INFO: Particle insertion ins1: inserted 7 particle templates (mass 0.026389) at step 11801
 - a total of 2017 particle templates (mass 7.603911) inserted so far.
WARNING: Particle insertion: Less insertions than requested (/home/ht45454/CFDEM/LIGGGHTS/src/fix_insert.cpp:814)
insertion: proc 2 at 0 %
insertion: proc 5 at 0 %
insertion: proc 3 at 0 %
insertion: proc 4 at 0 %
insertion: proc 1 at 0 %
insertion: proc 7 at 0 %
insertion: proc 6 at 0 %
   11900        0.119     2017   0.36158711 
insertion: proc 0 at 0 %
INFO: Particle insertion ins1: inserted 6 particle templates (mass 0.022619) at step 11901
 - a total of 2023 particle templates (mass 7.626530) inserted so far.
WARNING: Particle insertion: Less insertions than requested (/home/ht45454/CFDEM/LIGGGHTS/src/fix_insert.cpp:814)
   12000         0.12     2023   0.34473461 
insertion: proc 5 at 0 %
insertion: proc 3 at 0 %
insertion: proc 4 at 0 %
insertion: proc 1 at 0 %
insertion: proc 7 at 0 %
insertion: proc 0 at 0 %
insertion: proc 6 at 0 %
insertion: proc 2 at 0 %
INFO: Particle insertion ins1: inserted 6 particle templates (mass 0.022619) at step 12001
 - a total of 2029 particle templates (mass 7.649150) inserted so far.
WARNING: Particle insertion: Less insertions than requested (/home/ht45454/CFDEM/LIGGGHTS/src/fix_insert.cpp:814)
insertion: proc 7 at 0 %
insertion: proc 5 at 0 %
insertion: proc 3 at 0 %
insertion: proc 4 at 0 %
insertion: proc 1 at 0 %
   12100        0.121     2029    0.3259055 
insertion: proc 0 at 0 %
insertion: proc 2 at 0 %
insertion: proc 6 at 0 %
INFO: Particle insertion ins1: inserted 3 particle templates (mass 0.011310) at step 12101
 - a total of 2032 particle templates (mass 7.660460) inserted so far.
WARNING: Particle insertion: Less insertions than requested (/home/ht45454/CFDEM/LIGGGHTS/src/fix_insert.cpp:814)
   12200        0.122     2032   0.31449321 
insertion: proc 3 at 0 %
insertion: proc 4 at 0 %
insertion: proc 0 at 0 %
insertion: proc 6 at 0 %
insertion: proc 2 at 0 %
insertion: proc 1 at 0 %
insertion: proc 7 at 0 %
insertion: proc 5 at 0 %
INFO: Particle insertion ins1: inserted 3 particle templates (mass 0.011310) at step 12201
 - a total of 2035 particle templates (mass 7.671769) inserted so far.
WARNING: Particle insertion: Less insertions than requested (/home/ht45454/CFDEM/LIGGGHTS/src/fix_insert.cpp:814)
   12300        0.123     2035   0.30650468 
insertion: proc 6 at 0 %
insertion: proc 2 at 0 %
insertion: proc 1 at 0 %
insertion: proc 7 at 0 %
insertion: proc 4 at 0 %
insertion: proc 3 at 0 %
insertion: proc 0 at 0 %
insertion: proc 5 at 0 %
INFO: Particle insertion ins1: inserted 7 particle templates (mass 0.026389) at step 12301
 - a total of 2042 particle templates (mass 7.698159) inserted so far.
WARNING: Particle insertion: Less insertions than requested (/home/ht45454/CFDEM/LIGGGHTS/src/fix_insert.cpp:814)
   12400        0.124     2042   0.30167734 
insertion: proc 2 at 0 %
insertion: proc 1 at 0 %
insertion: proc 7 at 0 %
insertion: proc 4 at 0 %
insertion: proc 0 at 0 %
insertion: proc 5 at 0 %
insertion: proc 3 at 0 %
insertion: proc 6 at 0 %
INFO: Particle insertion ins1: inserted 6 particle templates (mass 0.022619) at step 12401
 - a total of 2048 particle templates (mass 7.720778) inserted so far.
WARNING: Particle insertion: Less insertions than requested (/home/ht45454/CFDEM/LIGGGHTS/src/fix_insert.cpp:814)
   12500        0.125     2048   0.29799015 
insertion: proc 6 at 0 %
insertion: proc 5 at 0 %
insertion: proc 3 at 0 %
insertion: proc 4 at 0 %
insertion: proc 2 at 0 %
insertion: proc 1 at 0 %
insertion: proc 7 at 0 %
insertion: proc 0 at 0 %
INFO: Particle insertion ins1: inserted 2 particle templates (mass 0.007540) at step 12501
 - a total of 2050 particle templates (mass 7.728318) inserted so far.
WARNING: Particle insertion: Less insertions than requested (/home/ht45454/CFDEM/LIGGGHTS/src/fix_insert.cpp:814)
insertion: proc 4 at 0 %
insertion: proc 2 at 0 %
insertion: proc 1 at 0 %
   12600        0.126     2050   0.29628303 
insertion: proc 7 at 0 %
insertion: proc 6 at 0 %
insertion: proc 5 at 0 %
insertion: proc 3 at 0 %
insertion: proc 0 at 0 %
INFO: Particle insertion ins1: inserted 7 particle templates (mass 0.026389) at step 12601
 - a total of 2057 particle templates (mass 7.754707) inserted so far.
WARNING: Particle insertion: Less insertions than requested (/home/ht45454/CFDEM/LIGGGHTS/src/fix_insert.cpp:814)
insertion: proc 3 at 0 %
insertion: proc 7 at 0 %
insertion: proc 6 at 0 %
insertion: proc 5 at 0 %
insertion: proc 1 at 0 %
insertion: proc 4 at 0 %
insertion: proc 2 at 0 %
   12700        0.127     2057   0.29506797 
insertion: proc 0 at 0 %
INFO: Particle insertion ins1: inserted 2 particle templates (mass 0.007540) at step 12701
 - a total of 2059 particle templates (mass 7.762247) inserted so far.
WARNING: Particle insertion: Less insertions than requested (/home/ht45454/CFDEM/LIGGGHTS/src/fix_insert.cpp:814)
   12800        0.128     2059   0.28966635 
insertion: proc 0 at 0 %
insertion: proc 2 at 0 %
insertion: proc 3 at 0 %
insertion: proc 7 at 0 %
insertion: proc 6 at 0 %
insertion: proc 5 at 0 %
insertion: proc 1 at 0 %
insertion: proc 4 at 0 %
INFO: Particle insertion ins1: inserted 1 particle templates (mass 0.003770) at step 12801
 - a total of 2060 particle templates (mass 7.766017) inserted so far.
WARNING: Particle insertion: Less insertions than requested (/home/ht45454/CFDEM/LIGGGHTS/src/fix_insert.cpp:814)
   12900        0.129     2060   0.28600513 
insertion: proc 7 at 0 %
insertion: proc 5 at 0 %
insertion: proc 0 at 0 %
insertion: proc 3 at 0 %
insertion: proc 6 at 0 %
insertion: proc 1 at 0 %
insertion: proc 4 at 0 %
insertion: proc 2 at 0 %
INFO: Particle insertion ins1: inserted 4 particle templates (mass 0.015080) at step 12901
 - a total of 2064 particle templates (mass 7.781097) inserted so far.
WARNING: Particle insertion: Less insertions than requested (/home/ht45454/CFDEM/LIGGGHTS/src/fix_insert.cpp:814)
   13000         0.13     2064   0.28341928 
insertion: proc 1 at 0 %
insertion: proc 4 at 0 %
insertion: proc 2 at 0 %
insertion: proc 5 at 0 %
insertion: proc 3 at 0 %
insertion: proc 7 at 0 %
insertion: proc 6 at 0 %
insertion: proc 0 at 0 %
INFO: Particle insertion ins1: inserted 2 particle templates (mass 0.007540) at step 13001
 - a total of 2066 particle templates (mass 7.788637) inserted so far.
WARNING: Particle insertion: Less insertions than requested (/home/ht45454/CFDEM/LIGGGHTS/src/fix_insert.cpp:814)
insertion: proc 1 at 0 %
insertion: proc 4 at 0 %
insertion: proc 2 at 0 %
insertion: proc 5 at 0 %
insertion: proc 3 at 0 %
insertion: proc 7 at 0 %
   13100        0.131     2066   0.28143279 
insertion: proc 0 at 0 %
insertion: proc 6 at 0 %
INFO: Particle insertion ins1: inserted 3 particle templates (mass 0.011310) at step 13101
 - a total of 2069 particle templates (mass 7.799946) inserted so far.
WARNING: Particle insertion: Less insertions than requested (/home/ht45454/CFDEM/LIGGGHTS/src/fix_insert.cpp:814)
   13200        0.132     2069    0.2785931 
insertion: proc 5 at 0 %
insertion: proc 3 at 0 %
insertion: proc 0 at 0 %
insertion: proc 7 at 0 %
insertion: proc 1 at 0 %
insertion: proc 2 at 0 %
insertion: proc 6 at 0 %
insertion: proc 4 at 0 %
INFO: Particle insertion ins1: inserted 7 particle templates (mass 0.026389) at step 13201
 - a total of 2076 particle templates (mass 7.826336) inserted so far.
WARNING: Particle insertion: Less insertions than requested (/home/ht45454/CFDEM/LIGGGHTS/src/fix_insert.cpp:814)
insertion: proc 5 at 0 %
   13300        0.133     2076   0.27630384 
insertion: proc 0 at 0 %
insertion: proc 2 at 0 %
insertion: proc 4 at 0 %
insertion: proc 7 at 0 %
insertion: proc 6 at 0 %
insertion: proc 1 at 0 %
insertion: proc 3 at 0 %
INFO: Particle insertion ins1: inserted 2 particle templates (mass 0.007540) at step 13301
 - a total of 2078 particle templates (mass 7.833875) inserted so far.
WARNING: Particle insertion: Less insertions than requested (/home/ht45454/CFDEM/LIGGGHTS/src/fix_insert.cpp:814)
insertion: proc 7 at 0 %
insertion: proc 6 at 0 %
insertion: proc 1 at 0 %
insertion: proc 5 at 0 %
   13400        0.134     2078   0.27477954 
insertion: proc 0 at 0 %
insertion: proc 3 at 0 %
insertion: proc 2 at 0 %
insertion: proc 4 at 0 %
INFO: Particle insertion ins1: inserted 1 particle templates (mass 0.003770) at step 13401
 - a total of 2079 particle templates (mass 7.837645) inserted so far.
WARNING: Particle insertion: Less insertions than requested (/home/ht45454/CFDEM/LIGGGHTS/src/fix_insert.cpp:814)
insertion: proc 7 at 0 %
insertion: proc 6 at 0 %
insertion: proc 1 at 0 %
   13500        0.135     2079   0.27304347 
insertion: proc 0 at 0 %
insertion: proc 4 at 0 %
insertion: proc 3 at 0 %
insertion: proc 2 at 0 %
insertion: proc 5 at 0 %
INFO: Particle insertion ins1: inserted 4 particle templates (mass 0.015080) at step 13501
 - a total of 2083 particle templates (mass 7.852725) inserted so far.
WARNING: Particle insertion: Less insertions than requested (/home/ht45454/CFDEM/LIGGGHTS/src/fix_insert.cpp:814)
insertion: proc 2 at 0 %
insertion: proc 1 at 0 %
insertion: proc 7 at 0 %
insertion: proc 6 at 0 %
   13600        0.136     2083   0.27237366 
insertion: proc 0 at 0 %
insertion: proc 5 at 0 %
insertion: proc 4 at 0 %
insertion: proc 3 at 0 %
INFO: Particle insertion ins1: inserted 4 particle templates (mass 0.015080) at step 13601
 - a total of 2087 particle templates (mass 7.867805) inserted so far.
WARNING: Particle insertion: Less insertions than requested (/home/ht45454/CFDEM/LIGGGHTS/src/fix_insert.cpp:814)
insertion: proc 3 at 0 %
insertion: proc 5 at 0 %
insertion: proc 4 at 0 %
insertion: proc 6 at 0 %
insertion: proc 2 at 0 %
insertion: proc 1 at 0 %
insertion: proc 7 at 0 %
   13700        0.137     2087   0.26971449 
insertion: proc 0 at 0 %
INFO: Particle insertion ins1: inserted 2 particle templates (mass 0.007540) at step 13701
 - a total of 2089 particle templates (mass 7.875344) inserted so far.
WARNING: Particle insertion: Less insertions than requested (/home/ht45454/CFDEM/LIGGGHTS/src/fix_insert.cpp:814)
insertion: proc 7 at 0 %
insertion: proc 3 at 0 %
insertion: proc 5 at 0 %
insertion: proc 4 at 0 %
insertion: proc 6 at 0 %
insertion: proc 2 at 0 %
insertion: proc 1 at 0 %
   13800        0.138     2089   0.26760923 
insertion: proc 0 at 0 %
INFO: Particle insertion ins1: inserted 2 particle templates (mass 0.007540) at step 13801
 - a total of 2091 particle templates (mass 7.882884) inserted so far.
WARNING: Particle insertion: Less insertions than requested (/home/ht45454/CFDEM/LIGGGHTS/src/fix_insert.cpp:814)
insertion: proc 7 at 0 %
insertion: proc 3 at 0 %
insertion: proc 5 at 0 %
insertion: proc 4 at 0 %
insertion: proc 6 at 0 %
insertion: proc 2 at 0 %
   13900        0.139     2091   0.26625834 
insertion: proc 0 at 0 %
insertion: proc 1 at 0 %
INFO: Particle insertion ins1: inserted 1 particle templates (mass 0.003770) at step 13901
 - a total of 2092 particle templates (mass 7.886654) inserted so far.
WARNING: Particle insertion: Less insertions than requested (/home/ht45454/CFDEM/LIGGGHTS/src/fix_insert.cpp:814)
   14000         0.14     2092    0.2629921 
insertion: proc 1 at 0 %
insertion: proc 2 at 0 %
insertion: proc 7 at 0 %
insertion: proc 3 at 0 %
insertion: proc 5 at 0 %
insertion: proc 4 at 0 %
insertion: proc 6 at 0 %
insertion: proc 0 at 0 %
INFO: Particle insertion ins1: inserted 3 particle templates (mass 0.011310) at step 14001
 - a total of 2095 particle templates (mass 7.897964) inserted so far.
WARNING: Particle insertion: Less insertions than requested (/home/ht45454/CFDEM/LIGGGHTS/src/fix_insert.cpp:814)
insertion: proc 1 at 0 %
insertion: proc 2 at 0 %
insertion: proc 7 at 0 %
insertion: proc 3 at 0 %
insertion: proc 5 at 0 %
insertion: proc 4 at 0 %
   14100        0.141     2095    0.2603825 
insertion: proc 0 at 0 %
insertion: proc 6 at 0 %
INFO: Particle insertion ins1: inserted 1 particle templates (mass 0.003770) at step 14101
 - a total of 2096 particle templates (mass 7.901734) inserted so far.
[...]
   96300        0.963     2382 2.2336261e-07 
insertion: proc 0 at 0 %
insertion: proc 7 at 0 %
insertion: proc 3 at 0 %
INFO: Particle insertion ins1: inserted 0 particle templates (mass 0.000000) at step 96301
 - a total of 2382 particle templates (mass 8.979928) inserted so far.
WARNING: Particle insertion: Less insertions than requested (/home/ht45454/CFDEM/LIGGGHTS/src/fix_insert.cpp:814)
   96400        0.964     2382 2.2437966e-07 
insertion: proc 3 at 0 %
insertion: proc 7 at 0 %
insertion: proc 1 at 0 %
insertion: proc 5 at 0 %
insertion: proc 6 at 0 %
insertion: proc 4 at 0 %
insertion: proc 2 at 0 %
insertion: proc 0 at 0 %
INFO: Particle insertion ins1: inserted 0 particle templates (mass 0.000000) at step 96401
 - a total of 2382 particle templates (mass 8.979928) inserted so far.
WARNING: Particle insertion: Less insertions than requested (/home/ht45454/CFDEM/LIGGGHTS/src/fix_insert.cpp:814)
insertion: proc 5 at 0 %
insertion: proc 6 at 0 %
insertion: proc 4 at 0 %
   96500        0.965     2382 2.2531221e-07 
insertion: proc 0 at 0 %
insertion: proc 2 at 0 %
insertion: proc 3 at 0 %
insertion: proc 7 at 0 %
insertion: proc 1 at 0 %
INFO: Particle insertion ins1: inserted 0 particle templates (mass 0.000000) at step 96501
 - a total of 2382 particle templates (mass 8.979928) inserted so far.
WARNING: Particle insertion: Less insertions than requested (/home/ht45454/CFDEM/LIGGGHTS/src/fix_insert.cpp:814)
insertion: proc 1 at 0 %
insertion: proc 2 at 0 %
insertion: proc 3 at 0 %
insertion: proc 7 at 0 %
insertion: proc 4 at 0 %
insertion: proc 5 at 0 %
insertion: proc 6 at 0 %
   96600        0.966     2382 2.2618146e-07 
insertion: proc 0 at 0 %
INFO: Particle insertion ins1: inserted 0 particle templates (mass 0.000000) at step 96601
 - a total of 2382 particle templates (mass 8.979928) inserted so far.
WARNING: Particle insertion: Less insertions than requested (/home/ht45454/CFDEM/LIGGGHTS/src/fix_insert.cpp:814)
   96700        0.967     2382 2.270119e-07 
insertion: proc 0 at 0 %
insertion: proc 6 at 0 %
insertion: proc 1 at 0 %
insertion: proc 2 at 0 %
insertion: proc 3 at 0 %
insertion: proc 7 at 0 %
insertion: proc 4 at 0 %
insertion: proc 5 at 0 %
INFO: Particle insertion ins1: inserted 0 particle templates (mass 0.000000) at step 96701
 - a total of 2382 particle templates (mass 8.979928) inserted so far.
WARNING: Particle insertion: Less insertions than requested (/home/ht45454/CFDEM/LIGGGHTS/src/fix_insert.cpp:814)
   96800        0.968     2382 2.2782886e-07 
insertion: proc 0 at 0 %
insertion: proc 7 at 0 %
insertion: proc 4 at 0 %
insertion: proc 5 at 0 %
insertion: proc 6 at 0 %
insertion: proc 1 at 0 %
insertion: proc 2 at 0 %
insertion: proc 3 at 0 %
INFO: Particle insertion ins1: inserted 0 particle templates (mass 0.000000) at step 96801
 - a total of 2382 particle templates (mass 8.979928) inserted so far.
WARNING: Particle insertion: Less insertions than requested (/home/ht45454/CFDEM/LIGGGHTS/src/fix_insert.cpp:814)
   96900        0.969     2382 2.2865605e-07 
insertion: proc 4 at 0 %
insertion: proc 5 at 0 %
insertion: proc 1 at 0 %
insertion: proc 2 at 0 %
insertion: proc 3 at 0 %
insertion: proc 7 at 0 %
insertion: proc 0 at 0 %
insertion: proc 6 at 0 %
INFO: Particle insertion ins1: inserted 0 particle templates (mass 0.000000) at step 96901
 - a total of 2382 particle templates (mass 8.979928) inserted so far.
WARNING: Particle insertion: Less insertions than requested (/home/ht45454/CFDEM/LIGGGHTS/src/fix_insert.cpp:814)
   97000         0.97     2382 2.295133e-07 
insertion: proc 0 at 0 %
insertion: proc 7 at 0 %
insertion: proc 4 at 0 %
insertion: proc 6 at 0 %
insertion: proc 5 at 0 %
insertion: proc 1 at 0 %
insertion: proc 2 at 0 %
insertion: proc 3 at 0 %
INFO: Particle insertion ins1: inserted 0 particle templates (mass 0.000000) at step 97001
 - a total of 2382 particle templates (mass 8.979928) inserted so far.
WARNING: Particle insertion: Less insertions than requested (/home/ht45454/CFDEM/LIGGGHTS/src/fix_insert.cpp:814)
insertion: proc 3 at 0 %
insertion: proc 7 at 0 %
insertion: proc 4 at 0 %
insertion: proc 6 at 0 %
insertion: proc 5 at 0 %
insertion: proc 1 at 0 %
insertion: proc 2 at 0 %
   97100        0.971     2382 2.3041491e-07 
insertion: proc 0 at 0 %
INFO: Particle insertion ins1: inserted 0 particle templates (mass 0.000000) at step 97101
 - a total of 2382 particle templates (mass 8.979928) inserted so far.
WARNING: Particle insertion: Less insertions than requested (/home/ht45454/CFDEM/LIGGGHTS/src/fix_insert.cpp:814)
insertion: proc 2 at 0 %
insertion: proc 3 at 0 %
insertion: proc 7 at 0 %
insertion: proc 4 at 0 %
insertion: proc 6 at 0 %
insertion: proc 5 at 0 %
insertion: proc 1 at 0 %
   97200        0.972     2382 2.3136855e-07 
insertion: proc 0 at 0 %
INFO: Particle insertion ins1: inserted 0 particle templates (mass 0.000000) at step 97201
 - a total of 2382 particle templates (mass 8.979928) inserted so far.
WARNING: Particle insertion: Less insertions than requested (/home/ht45454/CFDEM/LIGGGHTS/src/fix_insert.cpp:814)
insertion: proc 3 at 0 %
insertion: proc 7 at 0 %
insertion: proc 4 at 0 %
insertion: proc 6 at 0 %
insertion: proc 5 at 0 %
   97300        0.973     2382 2.3237483e-07 
insertion: proc 0 at 0 %
insertion: proc 1 at 0 %
insertion: proc 2 at 0 %
INFO: Particle insertion ins1: inserted 0 particle templates (mass 0.000000) at step 97301
 - a total of 2382 particle templates (mass 8.979928) inserted so far.
WARNING: Particle insertion: Less insertions than requested (/home/ht45454/CFDEM/LIGGGHTS/src/fix_insert.cpp:814)
   97400        0.974     2382 2.3342746e-07 
insertion: proc 5 at 0 %
insertion: proc 3 at 0 %
insertion: proc 7 at 0 %
insertion: proc 4 at 0 %
insertion: proc 6 at 0 %
insertion: proc 0 at 0 %
insertion: proc 2 at 0 %
insertion: proc 1 at 0 %
INFO: Particle insertion ins1: inserted 0 particle templates (mass 0.000000) at step 97401
 - a total of 2382 particle templates (mass 8.979928) inserted so far.
WARNING: Particle insertion: Less insertions than requested (/home/ht45454/CFDEM/LIGGGHTS/src/fix_insert.cpp:814)
insertion: proc 1 at 0 %
insertion: proc 2 at 0 %
insertion: proc 6 at 0 %
insertion: proc 5 at 0 %
insertion: proc 3 at 0 %
insertion: proc 7 at 0 %
insertion: proc 4 at 0 %
   97500        0.975     2382 2.3451395e-07 
insertion: proc 0 at 0 %
INFO: Particle insertion ins1: inserted 0 particle templates (mass 0.000000) at step 97501
 - a total of 2382 particle templates (mass 8.979928) inserted so far.
WARNING: Particle insertion: Less insertions than requested (/home/ht45454/CFDEM/LIGGGHTS/src/fix_insert.cpp:814)
insertion: proc 5 at 0 %
insertion: proc 3 at 0 %
insertion: proc 7 at 0 %
   97600        0.976     2382 2.3561668e-07 
insertion: proc 0 at 0 %
insertion: proc 4 at 0 %
insertion: proc 1 at 0 %
insertion: proc 2 at 0 %
insertion: proc 6 at 0 %
INFO: Particle insertion ins1: inserted 0 particle templates (mass 0.000000) at step 97601
 - a total of 2382 particle templates (mass 8.979928) inserted so far.
WARNING: Particle insertion: Less insertions than requested (/home/ht45454/CFDEM/LIGGGHTS/src/fix_insert.cpp:814)
insertion: proc 4 at 0 %
insertion: proc 1 at 0 %
insertion: proc 2 at 0 %
insertion: proc 7 at 0 %
insertion: proc 5 at 0 %
insertion: proc 3 at 0 %
   97700        0.977     2382 2.3671429e-07 
insertion: proc 0 at 0 %
insertion: proc 6 at 0 %
INFO: Particle insertion ins1: inserted 0 particle templates (mass 0.000000) at step 97701
 - a total of 2382 particle templates (mass 8.979928) inserted so far.
WARNING: Particle insertion: Less insertions than requested (/home/ht45454/CFDEM/LIGGGHTS/src/fix_insert.cpp:814)
insertion: proc 4 at 0 %
insertion: proc 1 at 0 %
insertion: proc 2 at 0 %
insertion: proc 7 at 0 %
insertion: proc 5 at 0 %
   97800        0.978     2382 2.3778325e-07 
insertion: proc 0 at 0 %
insertion: proc 6 at 0 %
insertion: proc 3 at 0 %
INFO: Particle insertion ins1: inserted 0 particle templates (mass 0.000000) at step 97801
 - a total of 2382 particle templates (mass 8.979928) inserted so far.
WARNING: Particle insertion: Less insertions than requested (/home/ht45454/CFDEM/LIGGGHTS/src/fix_insert.cpp:814)
insertion: proc 3 at 0 %
insertion: proc 6 at 0 %
insertion: proc 5 at 0 %
insertion: proc 4 at 0 %
insertion: proc 1 at 0 %
insertion: proc 2 at 0 %
insertion: proc 7 at 0 %
   97900        0.979     2382 2.3879951e-07 
insertion: proc 0 at 0 %
INFO: Particle insertion ins1: inserted 0 particle templates (mass 0.000000) at step 97901
 - a total of 2382 particle templates (mass 8.979928) inserted so far.
WARNING: Particle insertion: Less insertions than requested (/home/ht45454/CFDEM/LIGGGHTS/src/fix_insert.cpp:814)
insertion: proc 1 at 0 %
insertion: proc 2 at 0 %
   98000         0.98     2382 2.3974008e-07 
insertion: proc 0 at 0 %
insertion: proc 3 at 0 %
insertion: proc 6 at 0 %
insertion: proc 5 at 0 %
insertion: proc 4 at 0 %
insertion: proc 7 at 0 %
INFO: Particle insertion ins1: inserted 0 particle templates (mass 0.000000) at step 98001
 - a total of 2382 particle templates (mass 8.979928) inserted so far.
WARNING: Particle insertion: Less insertions than requested (/home/ht45454/CFDEM/LIGGGHTS/src/fix_insert.cpp:814)
   98100        0.981     2382 2.4058446e-07 
insertion: proc 1 at 0 %
insertion: proc 0 at 0 %
insertion: proc 4 at 0 %
insertion: proc 7 at 0 %
insertion: proc 3 at 0 %
insertion: proc 6 at 0 %
insertion: proc 5 at 0 %
insertion: proc 2 at 0 %
INFO: Particle insertion ins1: inserted 0 particle templates (mass 0.000000) at step 98101
 - a total of 2382 particle templates (mass 8.979928) inserted so far.
WARNING: Particle insertion: Less insertions than requested (/home/ht45454/CFDEM/LIGGGHTS/src/fix_insert.cpp:814)
insertion: proc 5 at 0 %
insertion: proc 1 at 0 %
   98200        0.982     2382 2.4131591e-07 
insertion: proc 0 at 0 %
insertion: proc 2 at 0 %
insertion: proc 4 at 0 %
insertion: proc 7 at 0 %
insertion: proc 3 at 0 %
insertion: proc 6 at 0 %
INFO: Particle insertion ins1: inserted 0 particle templates (mass 0.000000) at step 98201
 - a total of 2382 particle templates (mass 8.979928) inserted so far.
WARNING: Particle insertion: Less insertions than requested (/home/ht45454/CFDEM/LIGGGHTS/src/fix_insert.cpp:814)
insertion: proc 6 at 0 %
insertion: proc 2 at 0 %
insertion: proc 4 at 0 %
insertion: proc 7 at 0 %
insertion: proc 3 at 0 %
insertion: proc 1 at 0 %
insertion: proc 5 at 0 %
   98300        0.983     2382 2.4192224e-07 
insertion: proc 0 at 0 %
INFO: Particle insertion ins1: inserted 0 particle templates (mass 0.000000) at step 98301
 - a total of 2382 particle templates (mass 8.979928) inserted so far.
WARNING: Particle insertion: Less insertions than requested (/home/ht45454/CFDEM/LIGGGHTS/src/fix_insert.cpp:814)
   98400        0.984     2382 2.4239635e-07 
insertion: proc 0 at 0 %
insertion: proc 5 at 0 %
insertion: proc 6 at 0 %
insertion: proc 2 at 0 %
insertion: proc 4 at 0 %
insertion: proc 7 at 0 %
insertion: proc 3 at 0 %
insertion: proc 1 at 0 %
INFO: Particle insertion ins1: inserted 0 particle templates (mass 0.000000) at step 98401
 - a total of 2382 particle templates (mass 8.979928) inserted so far.
WARNING: Particle insertion: Less insertions than requested (/home/ht45454/CFDEM/LIGGGHTS/src/fix_insert.cpp:814)
   98500        0.985     2382 2.4273631e-07 
insertion: proc 1 at 0 %
insertion: proc 5 at 0 %
insertion: proc 6 at 0 %
insertion: proc 2 at 0 %
insertion: proc 4 at 0 %
insertion: proc 7 at 0 %
insertion: proc 3 at 0 %
insertion: proc 0 at 0 %
INFO: Particle insertion ins1: inserted 0 particle templates (mass 0.000000) at step 98501
 - a total of 2382 particle templates (mass 8.979928) inserted so far.
WARNING: Particle insertion: Less insertions than requested (/home/ht45454/CFDEM/LIGGGHTS/src/fix_insert.cpp:814)
   98600        0.986     2382 2.4294506e-07 
insertion: proc 1 at 0 %
insertion: proc 5 at 0 %
insertion: proc 6 at 0 %
insertion: proc 2 at 0 %
insertion: proc 4 at 0 %
insertion: proc 7 at 0 %
insertion: proc 0 at 0 %
insertion: proc 3 at 0 %
INFO: Particle insertion ins1: inserted 0 particle templates (mass 0.000000) at step 98601
 - a total of 2382 particle templates (mass 8.979928) inserted so far.
WARNING: Particle insertion: Less insertions than requested (/home/ht45454/CFDEM/LIGGGHTS/src/fix_insert.cpp:814)
insertion: proc 2 at 0 %
insertion: proc 4 at 0 %
   98700        0.987     2382 2.430299e-07 
insertion: proc 0 at 0 %
insertion: proc 3 at 0 %
insertion: proc 7 at 0 %
insertion: proc 1 at 0 %
insertion: proc 5 at 0 %
insertion: proc 6 at 0 %
INFO: Particle insertion ins1: inserted 0 particle templates (mass 0.000000) at step 98701
 - a total of 2382 particle templates (mass 8.979928) inserted so far.
WARNING: Particle insertion: Less insertions than requested (/home/ht45454/CFDEM/LIGGGHTS/src/fix_insert.cpp:814)
insertion: proc 7 at 0 %
insertion: proc 1 at 0 %
insertion: proc 5 at 0 %
insertion: proc 4 at 0 %
insertion: proc 2 at 0 %
   98800        0.988     2382 2.4300165e-07 
insertion: proc 0 at 0 %
insertion: proc 6 at 0 %
insertion: proc 3 at 0 %
INFO: Particle insertion ins1: inserted 0 particle templates (mass 0.000000) at step 98801
 - a total of 2382 particle templates (mass 8.979928) inserted so far.
WARNING: Particle insertion: Less insertions than requested (/home/ht45454/CFDEM/LIGGGHTS/src/fix_insert.cpp:814)
insertion: proc 3 at 0 %
insertion: proc 6 at 0 %
insertion: proc 2 at 0 %
insertion: proc 7 at 0 %
insertion: proc 1 at 0 %
insertion: proc 5 at 0 %
insertion: proc 4 at 0 %
   98900        0.989     2382 2.4287365e-07 
insertion: proc 0 at 0 %
INFO: Particle insertion ins1: inserted 0 particle templates (mass 0.000000) at step 98901
 - a total of 2382 particle templates (mass 8.979928) inserted so far.
WARNING: Particle insertion: Less insertions than requested (/home/ht45454/CFDEM/LIGGGHTS/src/fix_insert.cpp:814)
insertion: proc 3 at 0 %
insertion: proc 6 at 0 %
insertion: proc 2 at 0 %
insertion: proc 7 at 0 %
insertion: proc 1 at 0 %
insertion: proc 5 at 0 %
   99000         0.99     2382 2.4266058e-07 
insertion: proc 0 at 0 %
insertion: proc 4 at 0 %
INFO: Particle insertion ins1: inserted 0 particle templates (mass 0.000000) at step 99001
 - a total of 2382 particle templates (mass 8.979928) inserted so far.
WARNING: Particle insertion: Less insertions than requested (/home/ht45454/CFDEM/LIGGGHTS/src/fix_insert.cpp:814)
   99100        0.991     2382 2.4237738e-07 
insertion: proc 0 at 0 %
insertion: proc 4 at 0 %
insertion: proc 5 at 0 %
insertion: proc 3 at 0 %
insertion: proc 6 at 0 %
insertion: proc 2 at 0 %
insertion: proc 7 at 0 %
insertion: proc 1 at 0 %
INFO: Particle insertion ins1: inserted 0 particle templates (mass 0.000000) at step 99101
 - a total of 2382 particle templates (mass 8.979928) inserted so far.
WARNING: Particle insertion: Less insertions than requested (/home/ht45454/CFDEM/LIGGGHTS/src/fix_insert.cpp:814)
insertion: proc 1 at 0 %
insertion: proc 4 at 0 %
insertion: proc 5 at 0 %
insertion: proc 3 at 0 %
insertion: proc 6 at 0 %
insertion: proc 2 at 0 %
insertion: proc 7 at 0 %
   99200        0.992     2382 2.4203819e-07 
insertion: proc 0 at 0 %
INFO: Particle insertion ins1: inserted 0 particle templates (mass 0.000000) at step 99201
 - a total of 2382 particle templates (mass 8.979928) inserted so far.
WARNING: Particle insertion: Less insertions than requested (/home/ht45454/CFDEM/LIGGGHTS/src/fix_insert.cpp:814)
insertion: proc 7 at 0 %
insertion: proc 1 at 0 %
insertion: proc 4 at 0 %
insertion: proc 5 at 0 %
insertion: proc 3 at 0 %
insertion: proc 6 at 0 %
insertion: proc 2 at 0 %
   99300        0.993     2382 2.4165548e-07 
insertion: proc 0 at 0 %
INFO: Particle insertion ins1: inserted 0 particle templates (mass 0.000000) at step 99301
 - a total of 2382 particle templates (mass 8.979928) inserted so far.
WARNING: Particle insertion: Less insertions than requested (/home/ht45454/CFDEM/LIGGGHTS/src/fix_insert.cpp:814)
insertion: proc 7 at 0 %
insertion: proc 1 at 0 %
insertion: proc 4 at 0 %
insertion: proc 5 at 0 %
insertion: proc 3 at 0 %
insertion: proc 6 at 0 %
   99400        0.994     2382 2.4123932e-07 
insertion: proc 0 at 0 %
insertion: proc 2 at 0 %
INFO: Particle insertion ins1: inserted 0 particle templates (mass 0.000000) at step 99401
 - a total of 2382 particle templates (mass 8.979928) inserted so far.
WARNING: Particle insertion: Less insertions than requested (/home/ht45454/CFDEM/LIGGGHTS/src/fix_insert.cpp:814)
   99500        0.995     2382 2.407968e-07 
insertion: proc 1 at 0 %
insertion: proc 4 at 0 %
insertion: proc 5 at 0 %
insertion: proc 3 at 0 %
insertion: proc 0 at 0 %
insertion: proc 2 at 0 %
insertion: proc 6 at 0 %
insertion: proc 7 at 0 %
INFO: Particle insertion ins1: inserted 0 particle templates (mass 0.000000) at step 99501
 - a total of 2382 particle templates (mass 8.979928) inserted so far.
WARNING: Particle insertion: Less insertions than requested (/home/ht45454/CFDEM/LIGGGHTS/src/fix_insert.cpp:814)
insertion: proc 3 at 0 %
insertion: proc 1 at 0 %
insertion: proc 4 at 0 %
insertion: proc 5 at 0 %
   99600        0.996     2382 2.4033178e-07 
insertion: proc 0 at 0 %
insertion: proc 7 at 0 %
insertion: proc 2 at 0 %
insertion: proc 6 at 0 %
INFO: Particle insertion ins1: inserted 0 particle templates (mass 0.000000) at step 99601
 - a total of 2382 particle templates (mass 8.979928) inserted so far.
WARNING: Particle insertion: Less insertions than requested (/home/ht45454/CFDEM/LIGGGHTS/src/fix_insert.cpp:814)
   99700        0.997     2382 2.3984475e-07 
insertion: proc 1 at 0 %
insertion: proc 4 at 0 %
insertion: proc 0 at 0 %
insertion: proc 6 at 0 %
insertion: proc 7 at 0 %
insertion: proc 2 at 0 %
insertion: proc 5 at 0 %
insertion: proc 3 at 0 %
INFO: Particle insertion ins1: inserted 0 particle templates (mass 0.000000) at step 99701
 - a total of 2382 particle templates (mass 8.979928) inserted so far.
WARNING: Particle insertion: Less insertions than requested (/home/ht45454/CFDEM/LIGGGHTS/src/fix_insert.cpp:814)
insertion: proc 3 at 0 %
insertion: proc 6 at 0 %
insertion: proc 7 at 0 %
insertion: proc 2 at 0 %
insertion: proc 5 at 0 %
insertion: proc 4 at 0 %
insertion: proc 1 at 0 %
   99800        0.998     2382 2.3933303e-07 
insertion: proc 0 at 0 %
INFO: Particle insertion ins1: inserted 0 particle templates (mass 0.000000) at step 99801
 - a total of 2382 particle templates (mass 8.979928) inserted so far.
WARNING: Particle insertion: Less insertions than requested (/home/ht45454/CFDEM/LIGGGHTS/src/fix_insert.cpp:814)
insertion: proc 7 at 0 %
insertion: proc 2 at 0 %
insertion: proc 5 at 0 %
insertion: proc 4 at 0 %
   99900        0.999     2382 2.3879116e-07 
insertion: proc 0 at 0 %
insertion: proc 1 at 0 %
insertion: proc 3 at 0 %
insertion: proc 6 at 0 %
INFO: Particle insertion ins1: inserted 0 particle templates (mass 0.000000) at step 99901
 - a total of 2382 particle templates (mass 8.979928) inserted so far.
WARNING: Particle insertion: Less insertions than requested (/home/ht45454/CFDEM/LIGGGHTS/src/fix_insert.cpp:814)
insertion: proc 6 at 0 %
insertion: proc 1 at 0 %
insertion: proc 3 at 0 %
insertion: proc 4 at 0 %
insertion: proc 7 at 0 %
insertion: proc 2 at 0 %
insertion: proc 5 at 0 %
  100000            1     2382 2.3821145e-07 
insertion: proc 0 at 0 %
INFO: Particle insertion ins1: inserted 0 particle templates (mass 0.000000) at step 100001
 - a total of 2382 particle templates (mass 8.979928) inserted so far.
WARNING: Particle insertion: Less insertions than requested (/home/ht45454/CFDEM/LIGGGHTS/src/fix_insert.cpp:814)
  100001      1.00001     2382 2.3820543e-07 
Loop time of 25.0878 on 8 procs for 100000 steps with 2382 atoms
Max time of 25.0878 on 8 procs for 100000 steps with 2382 atoms

# stop insertion
unfix		ins1


write_restart   post/restart/liggghts.restart
System init for write_restart ...

