/*--------------------------------*- C++ -*----------------------------------*\
| =========                 |                                                 |
| \\      /  F ield         | OpenFOAM: The Open Source CFD Toolbox           |
|  \\    /   O peration     | Version:  4.x                                   |
|   \\  /    A nd           | Web:      www.OpenFOAM.org                      |
|    \\/     M anipulation  |                                                 |
\*---------------------------------------------------------------------------*/
FoamFile
{
    version     2.0;
    format      ascii;
    class       volVectorField;
    location    "1.5";
    object      ddtUrel;
}
// * * * * * * * * * * * * * * * * * * * * * * * * * * * * * * * * * * * * * //

dimensions      [0 1 -2 0 0 0 0];

internalField   nonuniform List<vector> 
114
(
(-0.00339542 -0.000164146 -0.00109343)
(-0.00705227 -0.000112434 -0.00108717)
(-0.013011 -3.20532e-05 -0.00117729)
(-0.0221134 0.000214489 -0.00128557)
(-0.0268825 0.000424299 -0.00121164)
(-0.0231346 0.000360472 -0.001033)
(-0.00118478 -0.000148609 -0.00119005)
(-0.00379587 -0.000128795 -0.00118646)
(-0.00760808 -8.30407e-05 -0.00119124)
(-0.0135571 -6.06524e-05 -0.00125341)
(-0.0245463 0.000250804 -0.0013617)
(-0.0293881 0.000476952 -0.00119483)
(-0.0241275 0.000332395 -0.00101892)
(0.000166232 -4.51003e-05 -0.00127763)
(-0.00140507 -4.34647e-05 -0.00119653)
(-0.00393471 -6.18854e-05 -0.00123689)
(-0.00774594 -6.18467e-05 -0.00125166)
(-0.0137653 -3.58635e-05 -0.00126294)
(-0.0252811 0.000116494 -0.00132909)
(-0.0302209 0.000266025 -0.00114188)
(-0.024303 0.000194001 -0.000973793)
(0.000907385 -0.00010896 -0.0014741)
(0.000614563 -0.000179394 -0.00147733)
(-0.000870534 -0.000163891 -0.00141703)
(-0.00320501 -0.000130342 -0.00139096)
(-0.00687609 -0.000129459 -0.00133033)
(-0.01248 -1.86124e-05 -0.00135733)
(-0.0217751 0.000210362 -0.00135492)
(-0.0256859 0.00031037 -0.00123738)
(-0.0219058 0.00025867 -0.00098298)
(0.00114939 -6.07704e-05 -0.00152177)
(0.000400045 -0.000146503 -0.0014829)
(-0.0012041 -0.000150243 -0.00140677)
(-0.00370658 -0.000114112 -0.0014091)
(-0.00740425 -0.000113557 -0.00139658)
(-0.013215 -5.97043e-05 -0.00141578)
(-0.0238078 0.000247848 -0.00142514)
(-0.0282154 0.000441232 -0.00135145)
(-0.0228743 0.000249833 -0.00106224)
(0.00111324 -5.10349e-05 -0.00155119)
(0.000258444 -6.10408e-05 -0.0014805)
(-0.00132628 -5.55019e-05 -0.00141024)
(-0.00377659 -4.564e-05 -0.00143667)
(-0.0075344 -4.07111e-05 -0.00146288)
(-0.0135027 -2.46608e-05 -0.00145052)
(-0.0245805 0.000112102 -0.00144655)
(-0.0292156 0.000269552 -0.00137108)
(-0.0233616 0.000171822 -0.00108302)
(0.0010661 -1.27983e-06 -0.00156794)
(0.000171753 9.6809e-07 -0.00150215)
(0.00107893 -0.000123819 -0.00155942)
(0.000859956 -0.000166245 -0.00149827)
(-0.000607079 -0.000153489 -0.0014771)
(-0.00283484 -0.000107338 -0.00159584)
(-0.00639981 -9.21321e-05 -0.00154306)
(-0.0117743 -2.34192e-05 -0.0014117)
(-0.0204509 0.000131672 -0.00128627)
(-0.0237499 0.000165781 -0.00116878)
(-0.0201411 0.000134132 -0.000976558)
(0.0012758 -8.7836e-05 -0.00164853)
(0.00053823 -0.000142671 -0.00159317)
(-0.000939522 -0.000139609 -0.00153873)
(-0.00326388 -0.000101377 -0.00154972)
(-0.00686969 -0.000108687 -0.00152473)
(-0.0123647 -4.92003e-05 -0.00143975)
(-0.0222476 0.00018042 -0.00142287)
(-0.0255107 0.000247301 -0.00139699)
(-0.0207136 9.98326e-05 -0.00105425)
(0.00111793 -7.21866e-05 -0.00170734)
(0.000305756 -8.77112e-05 -0.00162038)
(-0.00115273 -8.15724e-05 -0.00152769)
(-0.00342842 -4.53081e-05 -0.00155741)
(-0.00699114 -2.75479e-05 -0.0015599)
(-0.0126413 -9.55824e-06 -0.00149982)
(-0.0229379 0.000104216 -0.00156946)
(-0.0264713 0.000164231 -0.00155269)
(-0.0216356 8.2433e-05 -0.00113919)
(0.00101651 -2.27503e-05 -0.00169965)
(0.00029718 -4.2596e-05 -0.0016144)
(-0.00109168 -1.34906e-06 -0.00156148)
(-0.00335806 1.74565e-05 -0.00158485)
(0.00133576 -0.000162895 -0.0015894)
(0.00109084 -0.000224514 -0.0015443)
(0.000548927 -0.000267104 -0.00154587)
(-0.00130136 -0.000114211 -0.00170002)
(-0.00573941 -4.5919e-05 -0.00159947)
(-0.0103295 -2.56273e-05 -0.00150202)
(-0.0184535 5.39228e-05 -0.00131944)
(-0.0216104 1.81048e-05 -0.0011406)
(-0.0185348 2.00334e-05 -0.00096574)
(0.00166716 -0.000118285 -0.00168153)
(0.000838571 -0.000191474 -0.00160027)
(-0.000495047 -0.000227703 -0.00161631)
(-0.00252613 -9.39117e-05 -0.00168377)
(-0.00599317 -5.92541e-05 -0.0016151)
(-0.0112074 -2.02186e-05 -0.00152967)
(-0.0201622 6.69206e-05 -0.0014322)
(-0.0228047 2.97604e-05 -0.00130236)
(-0.0191897 2.6229e-05 -0.00103901)
(0.0014116 -2.40154e-05 -0.00180577)
(0.000685007 -4.43375e-05 -0.00168984)
(-0.000952843 -6.24643e-05 -0.0015842)
(-0.00308935 -5.58032e-05 -0.00162354)
(-0.00633677 -3.89278e-05 -0.00158896)
(-0.0117734 -3.01237e-05 -0.00150197)
(-0.0209598 3.94001e-05 -0.00153572)
(-0.0238627 0.000106027 -0.00146734)
(-0.0199219 6.70478e-05 -0.00112904)
(0.00128994 -8.28851e-05 -0.00176918)
(0.0011207 -7.08691e-05 -0.00165351)
(-0.000482896 1.39211e-05 -0.00163371)
(-0.00272717 4.49747e-05 -0.00168297)
(-0.00619233 5.30337e-05 -0.00167468)
(-0.0123725 3.23387e-06 -0.00160784)
)
;

boundaryField
{
    inlet
    {
        type            calculated;
        value           nonuniform 0();
    }
    outlet
    {
        type            calculated;
        value           nonuniform List<vector> 
12
(
(-0.00342596 -1.9196e-05 -0.000293739)
(-0.00202823 0.000539394 -0.00105861)
(-0.00131477 -0.000296842 -0.000803424)
(-0.00165335 -0.000268202 7.88201e-06)
(-0.00194971 2.96524e-05 -0.000822017)
(-0.00180392 -4.49272e-05 -0.000764136)
(-0.00104011 0.000207062 -0.000433295)
(-0.00190559 -0.000369962 -0.000408094)
(-0.00150509 -6.76419e-05 -0.000736239)
(-2.59602e-05 1.75433e-05 -0.00040677)
(0.0018786 -0.000121592 5.79884e-05)
(0.00183124 -8.74362e-05 0.000238732)
)
;
    }
    wall
    {
        type            calculated;
        value           nonuniform List<vector> 
66
(
(-0.00343634 -0.000548338 -0.00083917)
(0.00960669 -0.000575436 -0.00158638)
(0.00957206 0.00119852 -0.00316608)
(0.000622946 -0.00112944 -0.00164719)
(0.00390895 -0.00071181 -0.00126078)
(0.0032684 -0.000713574 -0.00120755)
(0.00545491 0.000723845 -0.00233102)
(0.01466 -0.000765014 -0.00118134)
(0.022203 -0.0010249 -0.00128188)
(0.00485341 -0.00133293 -0.00201562)
(-0.00431851 0.000295373 -0.00110507)
(0.00821019 0.000390153 -0.00210132)
(0.020406 0.000143981 -0.00280045)
(0.0106583 0.00158852 -0.00281598)
(-0.00159465 -0.000296378 -0.00158493)
(0.0080072 0.00120038 -0.00308213)
(-0.00173936 0.000220185 -0.00173275)
(0.0107421 4.75821e-05 -0.00221249)
(0.00441517 -0.000203855 -0.0015126)
(0.00968508 0.000787214 -0.00289594)
(0.018901 -2.16091e-05 -0.00241307)
(0.00843095 4.12661e-05 -0.00237298)
(0.00488192 -0.00051454 -0.000696881)
(-0.0103651 0.000228831 -0.00208722)
(-0.022483 -2.13234e-05 -0.00108616)
(-0.0274645 0.000268163 -0.00126042)
(-0.033365 -1.27519e-05 -0.00195284)
(-0.0312115 -0.000878684 -0.000330105)
(-0.034741 -0.00105947 -0.00160965)
(-0.035915 0.000861683 -0.00198633)
(-0.00143627 -0.000315197 -0.000398803)
(0.000434928 -0.000194555 -6.82819e-05)
(-0.00154816 0.000417451 0.000575091)
(-0.00381116 -0.000209927 -0.00151268)
(-0.00356467 -0.000414331 -0.000833024)
(0.00186104 -0.000743826 -0.000740847)
(0.00699753 -0.000560734 -0.00220776)
(0.0096556 -0.00017283 -0.000829932)
(0.0061455 -0.000591417 -0.00136085)
(0.00263767 -0.000179654 -0.00197757)
(0.0025705 9.61913e-05 -0.000642927)
(0.0137858 -0.00128489 -0.00114947)
(-0.00316332 -0.000725775 -0.000547661)
(0.00627173 3.83805e-05 -0.00168315)
(0.00249899 0.000168546 -0.00297601)
(0.0234508 0.00037467 -0.00318108)
(0.00589068 -0.000448513 -0.000272828)
(0.00302978 -0.000550727 -0.000820872)
(0.00450785 -0.000133907 -0.00236652)
(-0.00598071 0.000283128 -0.00186366)
(-0.00950879 -0.00122606 -0.00101775)
(-0.000120702 -0.000153014 -0.00165558)
(-0.00393597 -0.000300126 -0.00120367)
(0.00424576 -0.000412801 -0.00198524)
(-0.0239153 0.000170169 -0.0019982)
(-0.0370136 0.000776285 -0.00175263)
(-0.0355254 0.000486501 -0.000267876)
(-0.02405 0.000264354 -0.00117928)
(-0.0509159 0.00169015 -0.00186321)
(-0.0454496 0.000429131 -0.00156552)
(-0.0431234 7.11237e-05 -0.0003683)
(-0.0339542 -0.000853064 -0.000301992)
(-0.0129575 0.000543185 -1.74771e-05)
(-0.0118044 0.000648158 0.000289889)
(-0.00630129 0.000179604 -0.000129999)
(-0.00183035 -0.000310051 -5.80629e-05)
)
;
    }
    procBoundary5to1
    {
        type            processor;
        value           nonuniform List<vector> 
32
(
(-0.00291751 -6.46122e-05 -0.000803994)
(-0.00742008 -4.23187e-05 -0.000860062)
(-0.0126477 0.000105565 -0.000941058)
(-0.0229927 0.000235997 -0.00106909)
(-0.0278049 0.000334795 -0.00109664)
(-0.023479 0.000306006 -0.00116639)
(-0.00123416 -0.00017268 -0.000912252)
(-0.00361101 -9.85459e-05 -0.000862025)
(-0.00755736 -1.1532e-05 -0.000888006)
(-0.0134147 1.40356e-05 -0.000976484)
(-0.0245476 0.000291458 -0.00107599)
(-0.0296096 0.000535688 -0.00100048)
(-0.0244765 0.00039049 -0.00104843)
(0.000310171 -4.74418e-05 -0.00100557)
(-0.00128262 -5.59708e-05 -0.00097856)
(-0.00396885 -6.64594e-05 -0.000959669)
(-0.00767006 -2.8919e-05 -0.000967882)
(-0.0136144 -1.30001e-05 -0.00101645)
(-0.02522 0.000137651 -0.00105456)
(-0.0302771 0.000326863 -0.000905099)
(-0.0248346 0.000295252 -0.000959757)
(0.000709258 -7.63346e-05 -0.00124008)
(0.000639584 -0.000169702 -0.00123382)
(-0.000610729 -0.000171901 -0.00115609)
(-0.000610729 -0.000171901 -0.00115609)
(-0.000610729 -0.000171901 -0.00115609)
(0.00108615 -5.30405e-05 -0.00129558)
(0.000282808 -0.000121816 -0.00126885)
(0.000282808 -0.000121816 -0.00126885)
(0.000282808 -0.000121816 -0.00126885)
(0.00100683 -4.98208e-05 -0.00135857)
(0.00100683 -4.98208e-05 -0.00135857)
)
;
    }
    procBoundary5to4
    {
        type            processor;
        value           nonuniform List<vector> 
12
(
(0.00154738 -5.88803e-05 -0.00160543)
(0.00183736 -2.05451e-05 -0.00159408)
(0.0017979 -1.47236e-05 -0.00161911)
(0.00175987 3.31766e-05 -0.00164728)
(0.00167519 -7.08154e-06 -0.00182111)
(0.00179585 2.89167e-05 -0.00175051)
(0.00157972 2.6774e-05 -0.00174374)
(0.00153583 5.2192e-05 -0.0018147)
(0.00165857 -1.9314e-05 -0.0018359)
(0.00198118 2.90663e-05 -0.0018134)
(0.00156774 2.40927e-05 -0.00176105)
(0.00141848 -1.05329e-05 -0.0018646)
)
;
    }
    procBoundary5to7
    {
        type            processor;
        value           nonuniform List<vector> 
44
(
(5.87793e-06 7.80217e-06 -0.0013152)
(-0.00150165 2.83783e-05 -0.00126387)
(-0.00401288 -3.97888e-06 -0.00128073)
(-0.00777221 -1.44832e-05 -0.00129126)
(-0.0138895 -1.38817e-05 -0.00130716)
(-0.0256197 -1.8636e-05 -0.00137538)
(-0.0306886 6.3688e-05 -0.00115485)
(-0.0248516 6.01441e-05 -0.000997441)
(0.000900918 8.29504e-06 -0.00136683)
(5.87793e-06 7.80217e-06 -0.0013152)
(-0.00140012 5.50224e-06 -0.0014655)
(-0.00389447 9.38343e-06 -0.00147545)
(-0.00759526 2.72505e-05 -0.0014737)
(-0.013578 1.09051e-05 -0.00147828)
(-0.0247473 -5.18706e-06 -0.0014509)
(-0.0293143 5.04758e-05 -0.00132369)
(-0.0237303 3.94442e-05 -0.00107972)
(0.00111535 8.81416e-05 -0.00161555)
(-0.00140012 5.50224e-06 -0.0014655)
(0.000232856 9.07895e-05 -0.00150956)
(-0.00140012 5.50224e-06 -0.0014655)
(-0.00389447 9.38343e-06 -0.00147545)
(-0.00700659 3.9998e-05 -0.00160462)
(-0.0127965 -2.86221e-06 -0.0015538)
(-0.0234157 -1.90543e-05 -0.00158518)
(-0.0271901 1.58235e-05 -0.00157353)
(-0.0216607 7.58696e-06 -0.00113997)
(0.00128649 4.97455e-05 -0.00180779)
(0.000456597 9.77919e-05 -0.00162968)
(-0.000931532 9.79712e-05 -0.00151803)
(-0.00700659 3.9998e-05 -0.00160462)
(-0.00318438 3.79743e-05 -0.00150342)
(-0.00700659 3.9998e-05 -0.00160462)
(-0.0127965 -2.86221e-06 -0.0015538)
(-0.0221437 -3.14968e-05 -0.00161444)
(-0.0251691 2.74306e-05 -0.00164896)
(-0.0199151 1.13529e-05 -0.00121247)
(0.00187501 -2.29877e-05 -0.00189188)
(0.000955046 6.99817e-05 -0.00168788)
(-0.000389485 0.00010689 -0.00152219)
(-0.00241593 7.64758e-05 -0.00150465)
(-0.00573814 6.97481e-05 -0.0015272)
(-0.0221437 -3.14968e-05 -0.00161444)
(-0.0111195 3.22526e-06 -0.00146588)
)
;
    }
}


// ************************************************************************* //
