/*--------------------------------*- C++ -*----------------------------------*\
| =========                 |                                                 |
| \\      /  F ield         | OpenFOAM: The Open Source CFD Toolbox           |
|  \\    /   O peration     | Version:  4.x                                   |
|   \\  /    A nd           | Web:      www.OpenFOAM.org                      |
|    \\/     M anipulation  |                                                 |
\*---------------------------------------------------------------------------*/
FoamFile
{
    version     2.0;
    format      ascii;
    class       volScalarField;
    location    "1.5";
    object      Deff;
}
// * * * * * * * * * * * * * * * * * * * * * * * * * * * * * * * * * * * * * //

dimensions      [0 2 -1 0 0 0 0];

internalField   nonuniform List<scalar> 
114
(
9.80009e-08
9.78934e-08
9.78822e-08
9.78352e-08
9.78137e-08
9.7819e-08
9.80256e-08
9.80099e-08
9.79382e-08
9.78475e-08
9.77453e-08
9.77201e-08
9.77852e-08
9.79558e-08
9.79971e-08
9.78714e-08
9.78625e-08
9.78523e-08
9.77429e-08
9.77833e-08
9.77182e-08
9.80931e-08
9.81116e-08
9.79345e-08
9.79252e-08
9.78054e-08
9.77458e-08
9.7726e-08
9.77834e-08
9.78133e-08
9.79797e-08
9.79411e-08
9.78223e-08
9.7801e-08
9.76695e-08
9.76441e-08
9.77075e-08
9.76182e-08
9.77169e-08
9.78943e-08
9.79829e-08
9.78151e-08
9.77188e-08
9.76914e-08
9.76371e-08
9.75988e-08
9.76102e-08
9.76902e-08
9.78142e-08
9.79184e-08
9.80272e-08
9.79154e-08
9.7894e-08
9.77928e-08
9.77401e-08
9.77153e-08
9.76758e-08
9.76958e-08
9.77697e-08
9.7993e-08
9.78484e-08
9.78584e-08
9.77543e-08
9.76455e-08
9.76227e-08
9.75665e-08
9.76471e-08
9.77456e-08
9.78717e-08
9.78553e-08
9.77405e-08
9.77004e-08
9.7501e-08
9.75469e-08
9.75036e-08
9.74963e-08
9.75455e-08
9.79786e-08
9.77223e-08
9.76183e-08
9.76192e-08
9.82684e-08
9.80324e-08
9.80716e-08
9.78546e-08
9.78235e-08
9.78532e-08
9.77473e-08
9.77624e-08
9.78135e-08
9.80437e-08
9.79495e-08
9.80094e-08
9.78523e-08
9.76951e-08
9.77105e-08
9.77754e-08
9.7697e-08
9.7764e-08
9.79518e-08
9.7885e-08
9.77155e-08
9.77031e-08
9.76324e-08
9.75663e-08
9.76356e-08
9.76259e-08
9.76512e-08
9.79137e-08
9.78766e-08
9.77056e-08
9.76794e-08
9.74963e-08
9.75597e-08
)
;

boundaryField
{
    inlet
    {
        type            calculated;
        value           nonuniform 0();
    }
    outlet
    {
        type            calculated;
        value           uniform 0;
    }
    wall
    {
        type            calculated;
        value           uniform 0;
    }
    procBoundary5to1
    {
        type            processor;
        value           uniform 0;
    }
    procBoundary5to4
    {
        type            processor;
        value           uniform 0;
    }
    procBoundary5to7
    {
        type            processor;
        value           uniform 0;
    }
}


// ************************************************************************* //
