/*--------------------------------*- C++ -*----------------------------------*\
| =========                 |                                                 |
| \\      /  F ield         | OpenFOAM: The Open Source CFD Toolbox           |
|  \\    /   O peration     | Version:  4.x                                   |
|   \\  /    A nd           | Web:      www.OpenFOAM.org                      |
|    \\/     M anipulation  |                                                 |
\*---------------------------------------------------------------------------*/
FoamFile
{
    version     2.0;
    format      ascii;
    class       volScalarField;
    location    "1.5";
    object      Ksl;
}
// * * * * * * * * * * * * * * * * * * * * * * * * * * * * * * * * * * * * * //

dimensions      [1 -3 -1 0 0 0 0];

internalField   nonuniform List<scalar> 
114
(
2631.99
3036.67
1869.81
2153.6
1095.7
1680.26
214726
6276.26
22967.6
4525.82
23541.5
2330.43
1373.9
9593.91
37889.5
9209.33
8028.31
12068.1
4508.49
3782.08
3942.91
5271.31
3310.25
4069.8
2663.2
2918.5
2032.65
2129.35
1479.05
1742.72
515322
9485.97
330917
7823.23
159322
5724.37
424346
4034.72
4235.78
589438
10961.4
24438.3
10138.5
10791
9836.07
7493.44
5447.56
24294.8
675577
7994.57
5228.53
3364.1
4377.32
2826.01
3641.85
2335.74
3428.61
1816.67
2622.02
516400
14322.7
165172
9696.45
208001
5810.89
138643
4439.51
2607.98
842388
12169.1
119649
9886.34
33349.8
6389
26367.7
3367.41
4133.72
2.35721e+06
13619.8
127764
18485.4
3920.55
2825.12
3134.87
2306.11
2604.39
1884.4
2398.43
1379.91
2352.53
7386.89
3928.26
6775.52
3486.73
7935.25
3513.34
35929.4
3761.23
1979.97
7456.06
3913.18
5992.75
3104.96
3956.49
2311.81
2967.87
1856.43
2151.57
5589.34
3409.18
4728.29
2765.66
3427.49
2015.92
)
;

boundaryField
{
    inlet
    {
        type            zeroGradient;
    }
    outlet
    {
        type            zeroGradient;
    }
    wall
    {
        type            zeroGradient;
    }
    procBoundary5to1
    {
        type            processor;
        value           nonuniform List<scalar> 
32
(
2831.6
3403.28
2022.22
2090.65
1373.16
1314.74
14281
6843.99
7241.76
6558.1
5093.49
2459
2104.13
13976.5
9014.87
29120.7
4488.83
29400.9
2830.75
6486.31
1898.24
5291.97
3228.04
4134.96
4134.96
4134.96
638237
7831.03
7831.03
7831.03
424945
424945
)
;
    }
    procBoundary5to4
    {
        type            processor;
        value           nonuniform List<scalar> 
12
(
3886.9
9441.31
12031.8
8553.26
3860.43
14179.2
11622.4
11071.3
3486.31
4347.88
4259.05
3843.26
)
;
    }
    procBoundary5to7
    {
        type            processor;
        value           nonuniform List<scalar> 
44
(
5844.76
212885
4448.45
126856
6632.52
11314.1
5836.64
7965.05
105242
5844.76
279012
10918.9
13966.6
19595.3
6297.21
6960.99
38014.5
264626
279012
12484.6
279012
10918.9
28205
12886.2
9514.03
3056.25
1804.13
658896
15858.1
245215
28205
13794.4
28205
12886.2
2315.59
1256.62
2249.95
13437.1
4608.1
28602.8
4551.45
455937
2315.59
4406.59
)
;
    }
}


// ************************************************************************* //
