/*--------------------------------*- C++ -*----------------------------------*\
| =========                 |                                                 |
| \\      /  F ield         | OpenFOAM: The Open Source CFD Toolbox           |
|  \\    /   O peration     | Version:  4.x                                   |
|   \\  /    A nd           | Web:      www.OpenFOAM.org                      |
|    \\/     M anipulation  |                                                 |
\*---------------------------------------------------------------------------*/
FoamFile
{
    version     2.0;
    format      ascii;
    class       volScalarField;
    location    "1.5";
    object      nu;
}
// * * * * * * * * * * * * * * * * * * * * * * * * * * * * * * * * * * * * * //

dimensions      [0 2 -1 0 0 0 0];

internalField   nonuniform List<scalar> 
114
(
9.99669e-07
9.9967e-07
9.99699e-07
9.99696e-07
9.99695e-07
9.88782e-07
9.99245e-07
9.99087e-07
9.99204e-07
9.99327e-07
9.99392e-07
9.99565e-07
9.99637e-07
9.99303e-07
9.99262e-07
9.99368e-07
9.99397e-07
9.99528e-07
9.99618e-07
9.99658e-07
9.99808e-07
1.00004e-06
9.99936e-07
9.99859e-07
9.99784e-07
9.99779e-07
9.99793e-07
9.99801e-07
9.99792e-07
9.9896e-07
9.995e-07
9.99359e-07
9.99291e-07
9.99273e-07
9.99344e-07
9.99456e-07
9.99543e-07
9.99656e-07
9.99713e-07
9.99459e-07
9.99329e-07
9.99269e-07
9.993e-07
9.9938e-07
9.99511e-07
9.99641e-07
9.997e-07
9.99929e-07
9.99658e-07
9.99547e-07
1.00008e-06
1.00002e-06
9.99974e-07
9.99933e-07
9.99903e-07
9.99869e-07
9.99809e-07
9.99738e-07
9.99374e-07
9.99537e-07
9.99464e-07
9.99469e-07
9.99505e-07
9.9953e-07
9.99576e-07
9.99572e-07
9.99634e-07
9.99816e-07
9.99567e-07
9.99453e-07
9.99377e-07
9.99357e-07
9.99373e-07
9.99455e-07
9.99574e-07
9.99668e-07
9.99861e-07
9.99725e-07
9.99548e-07
9.99419e-07
9.99344e-07
1.00018e-06
1.00015e-06
1.00013e-06
1.00011e-06
1.00009e-06
1.00006e-06
9.99996e-07
9.99939e-07
9.97106e-07
1.00006e-06
1.00003e-06
1e-06
9.99962e-07
9.99879e-07
9.99779e-07
9.99624e-07
9.99661e-07
9.99772e-07
1.00002e-06
9.99947e-07
9.99895e-07
9.99889e-07
9.99835e-07
9.99855e-07
9.99823e-07
9.99771e-07
9.99402e-07
1.00006e-06
1e-06
9.99951e-07
9.99906e-07
9.99855e-07
9.9984e-07
)
;

boundaryField
{
    inlet
    {
        type            calculated;
        value           nonuniform 0();
    }
    outlet
    {
        type            calculated;
        value           uniform 1e-06;
    }
    wall
    {
        type            calculated;
        value           nonuniform List<scalar> 
66
(
1.00018e-06
1.00006e-06
1.00002e-06
1.00006e-06
1.00015e-06
1.00003e-06
9.99947e-07
1e-06
1.00013e-06
1e-06
9.99895e-07
9.99951e-07
1.00011e-06
9.99962e-07
9.99889e-07
9.99906e-07
1.00009e-06
9.99879e-07
9.99835e-07
9.99855e-07
1.00006e-06
9.99779e-07
9.99855e-07
9.9984e-07
9.99996e-07
9.99624e-07
9.99823e-07
9.99939e-07
9.99661e-07
9.99771e-07
9.97106e-07
9.99772e-07
9.99402e-07
1.00004e-06
1.00008e-06
1.00018e-06
9.99936e-07
1.00002e-06
1.00015e-06
9.99859e-07
9.99974e-07
1.00013e-06
9.99669e-07
9.99784e-07
9.99933e-07
1.00011e-06
9.9967e-07
9.99779e-07
9.99903e-07
1.00009e-06
9.99699e-07
9.99793e-07
9.99869e-07
1.00006e-06
9.99696e-07
9.99801e-07
9.99809e-07
9.99996e-07
9.99695e-07
9.99792e-07
9.99738e-07
9.99939e-07
9.88782e-07
9.9896e-07
9.99374e-07
9.97106e-07
)
;
    }
    procBoundary5to1
    {
        type            processor;
        value           nonuniform List<scalar> 
32
(
9.99485e-07
9.99606e-07
9.99702e-07
9.99689e-07
9.9962e-07
9.96847e-07
9.99013e-07
9.98432e-07
9.99072e-07
9.99243e-07
9.99356e-07
9.99493e-07
9.99551e-07
9.99221e-07
9.9935e-07
1.00003e-06
9.9952e-07
9.99503e-07
9.99536e-07
9.99595e-07
9.99871e-07
1.00006e-06
9.99917e-07
9.99795e-07
9.99795e-07
9.99795e-07
9.99481e-07
9.99349e-07
9.99349e-07
9.99349e-07
9.99426e-07
9.99426e-07
)
;
    }
    procBoundary5to4
    {
        type            processor;
        value           nonuniform List<scalar> 
12
(
1.00013e-06
9.99692e-07
9.99634e-07
9.99725e-07
1.00016e-06
9.99709e-07
9.99696e-07
9.99761e-07
1.00022e-06
1.00012e-06
1.0001e-06
1.00012e-06
)
;
    }
    procBoundary5to7
    {
        type            processor;
        value           nonuniform List<scalar> 
44
(
9.99641e-07
9.99551e-07
9.99494e-07
9.99312e-07
9.99251e-07
9.99414e-07
9.99626e-07
9.97285e-07
9.99669e-07
9.99641e-07
9.99388e-07
9.99298e-07
9.9935e-07
9.99516e-07
9.99654e-07
9.99796e-07
9.99848e-07
9.9952e-07
9.99388e-07
9.99373e-07
9.99388e-07
9.99298e-07
9.99371e-07
9.99464e-07
9.99626e-07
9.9973e-07
9.99917e-07
9.99587e-07
9.99441e-07
9.99349e-07
9.99371e-07
9.99361e-07
9.99371e-07
9.99464e-07
9.99805e-07
9.99798e-07
9.96977e-07
9.99938e-07
9.99932e-07
9.99879e-07
9.99833e-07
9.99777e-07
9.99805e-07
9.99643e-07
)
;
    }
}


// ************************************************************************* //
