/*--------------------------------*- C++ -*----------------------------------*\
| =========                 |                                                 |
| \\      /  F ield         | OpenFOAM: The Open Source CFD Toolbox           |
|  \\    /   O peration     | Version:  4.x                                   |
|   \\  /    A nd           | Web:      www.OpenFOAM.org                      |
|    \\/     M anipulation  |                                                 |
\*---------------------------------------------------------------------------*/
FoamFile
{
    version     2.0;
    format      ascii;
    class       volScalarField;
    location    "1.5";
    object      partTemp;
}
// * * * * * * * * * * * * * * * * * * * * * * * * * * * * * * * * * * * * * //

dimensions      [0 0 0 1 0 0 0];

internalField   nonuniform List<scalar> 
114
(
300.003
300.001
299.998
299.994
299.988
299.984
300.006
300.004
300.001
299.995
299.989
299.98
299.973
300.008
300.008
300.005
300
299.993
299.983
299.973
299.965
300.001
300.002
300.003
300.003
300.001
299.999
299.995
299.991
299.987
300.002
300.004
300.005
300.003
300.001
299.996
299.992
299.984
299.978
300.003
300.006
300.006
300.004
300
299.994
299.985
299.975
299.969
300.003
300.006
300.001
300.002
300.002
300.002
300.001
299.999
299.997
299.993
299.988
300.001
300.002
300.003
300.002
300.001
299.997
299.994
299.989
299.983
300.001
300.003
300.004
300.003
300
299.996
299.99
299.982
299.977
300.001
300.003
300.004
300.004
300
300.001
300.001
300.001
300
299.999
299.997
299.995
299.991
300
300.001
300.002
300.002
300
299.998
299.995
299.992
299.988
300
300.002
300.003
300.002
300
299.997
299.993
299.989
299.985
300
300.001
300.003
300.002
300.001
299.996
)
;

boundaryField
{
    inlet
    {
        type            zeroGradient;
    }
    outlet
    {
        type            zeroGradient;
    }
    wall
    {
        type            zeroGradient;
    }
    procBoundary5to1
    {
        type            processor;
        value           nonuniform List<scalar> 
32
(
300.003
300
299.996
299.992
299.986
299.98
300.006
300.003
299.999
299.993
299.985
299.977
299.972
300.009
300.008
300.006
299.999
299.989
299.978
299.971
299.966
300.003
300.004
300.004
300.004
300.004
300.004
300.006
300.006
300.006
300.006
300.006
)
;
    }
    procBoundary5to4
    {
        type            processor;
        value           nonuniform List<scalar> 
12
(
300
300
300
300.001
299.999
299.999
299.999
299.999
299.999
299.999
299.998
299.997
)
;
    }
    procBoundary5to7
    {
        type            processor;
        value           nonuniform List<scalar> 
44
(
300.008
300.009
300.006
300
299.99
299.978
299.969
299.962
300.007
300.008
300.007
300.005
300
299.992
299.982
299.972
299.966
300.003
300.007
300.005
300.007
300.005
300.001
299.996
299.987
299.981
299.971
300
300.003
300.004
300.001
300.003
300.001
299.996
299.992
299.986
299.982
299.998
300.001
300.003
300.002
300
299.992
299.997
)
;
    }
}


// ************************************************************************* //
