/*--------------------------------*- C++ -*----------------------------------*\
| =========                 |                                                 |
| \\      /  F ield         | OpenFOAM: The Open Source CFD Toolbox           |
|  \\    /   O peration     | Version:  4.x                                   |
|   \\  /    A nd           | Web:      www.OpenFOAM.org                      |
|    \\/     M anipulation  |                                                 |
\*---------------------------------------------------------------------------*/
FoamFile
{
    version     2.0;
    format      ascii;
    class       volScalarField;
    location    "1.5";
    object      particleRelTemp;
}
// * * * * * * * * * * * * * * * * * * * * * * * * * * * * * * * * * * * * * //

dimensions      [0 0 0 0 0 0 0];

internalField   nonuniform List<scalar> 
114
(
-5.74467e-06
-4.06948e-06
-1.9758e-06
1.18709e-06
5.19532e-06
8.71707e-06
-7.85406e-06
-6.31322e-06
-4.07719e-06
2.4474e-08
4.82415e-06
1.11131e-05
1.63867e-05
-9.06576e-06
-9.27687e-06
-7.07831e-06
-3.7924e-06
1.73893e-06
9.1097e-06
1.62941e-05
2.25986e-05
-4.53857e-06
-5.12498e-06
-5.96147e-06
-5.50918e-06
-4.36485e-06
-2.59542e-06
1.80287e-08
3.53112e-06
6.37914e-06
-4.86183e-06
-6.20734e-06
-6.90251e-06
-5.97682e-06
-4.39677e-06
-7.21141e-07
2.61958e-06
8.50502e-06
1.30187e-05
-5.86765e-06
-8.08027e-06
-8.25086e-06
-6.76036e-06
-3.30841e-06
1.141e-06
7.64519e-06
1.48785e-05
1.94284e-05
-5.8985e-06
-8.22471e-06
-3.95943e-06
-4.6542e-06
-5.07684e-06
-4.79967e-06
-4.11667e-06
-2.96127e-06
-1.02341e-06
1.89207e-06
5.28877e-06
-4.40358e-06
-5.22568e-06
-5.63361e-06
-5.30507e-06
-3.97372e-06
-1.58371e-06
1.30061e-06
4.43052e-06
9.29423e-06
-4.41945e-06
-5.90625e-06
-6.63596e-06
-5.9282e-06
-3.76906e-06
-3.31251e-07
4.10373e-06
9.55536e-06
1.36078e-05
-4.26235e-06
-5.84317e-06
-6.77263e-06
-6.41602e-06
-3.79813e-06
-4.17615e-06
-4.31286e-06
-4.29812e-06
-3.80429e-06
-2.94591e-06
-1.5746e-06
3.60571e-07
2.86246e-06
-3.70064e-06
-4.35168e-06
-4.92937e-06
-4.67148e-06
-3.77278e-06
-2.27396e-06
1.39598e-08
2.6854e-06
5.56143e-06
-3.38649e-06
-4.63696e-06
-5.51491e-06
-5.05793e-06
-3.82233e-06
-1.19994e-06
1.46517e-06
5.02827e-06
7.64968e-06
-3.12042e-06
-4.53375e-06
-5.57394e-06
-5.33095e-06
-3.93393e-06
-7.37399e-07
)
;

boundaryField
{
    inlet
    {
        type            calculated;
        value           nonuniform 0();
    }
    outlet
    {
        type            calculated;
        value           nonuniform List<scalar> 
12
(
8.71707e-06
1.63867e-05
2.25986e-05
6.37914e-06
1.30187e-05
1.94284e-05
5.28877e-06
9.29423e-06
1.36078e-05
2.86246e-06
5.56143e-06
7.64968e-06
)
;
    }
    wall
    {
        type            calculated;
        value           nonuniform List<scalar> 
66
(
-3.79813e-06
-3.70064e-06
-3.38649e-06
-3.12042e-06
-4.17615e-06
-4.35168e-06
-4.63696e-06
-4.53375e-06
-4.31286e-06
-4.92937e-06
-5.51491e-06
-5.57394e-06
-4.29812e-06
-4.67148e-06
-5.05793e-06
-5.33095e-06
-3.80429e-06
-3.77278e-06
-3.82233e-06
-3.93393e-06
-2.94591e-06
-2.27396e-06
-1.19994e-06
-7.37399e-07
-1.5746e-06
1.39598e-08
1.46517e-06
3.60571e-07
2.6854e-06
5.02827e-06
2.86246e-06
5.56143e-06
7.64968e-06
-4.53857e-06
-3.95943e-06
-3.79813e-06
-5.12498e-06
-4.6542e-06
-4.17615e-06
-5.96147e-06
-5.07684e-06
-4.31286e-06
-5.74467e-06
-5.50918e-06
-4.79967e-06
-4.29812e-06
-4.06948e-06
-4.36485e-06
-4.11667e-06
-3.80429e-06
-1.9758e-06
-2.59542e-06
-2.96127e-06
-2.94591e-06
1.18709e-06
1.80287e-08
-1.02341e-06
-1.5746e-06
5.19532e-06
3.53112e-06
1.89207e-06
3.60571e-07
8.71707e-06
6.37914e-06
5.28877e-06
2.86246e-06
)
;
    }
    procBoundary5to1
    {
        type            processor;
        value           nonuniform List<scalar> 
32
(
-5.39498e-06
-3.56672e-06
-2.38608e-07
2.76671e-06
7.0897e-06
1.09721e-05
-8.06945e-06
-5.40793e-06
-2.68441e-06
1.60113e-06
7.97704e-06
1.31804e-05
1.74555e-05
-1.00193e-05
-9.32446e-06
-7.67855e-06
-2.42356e-06
4.8596e-06
1.28248e-05
1.77204e-05
2.13812e-05
-5.45681e-06
-6.09852e-06
-6.4936e-06
-6.4936e-06
-6.4936e-06
-6.28009e-06
-7.77371e-06
-7.77371e-06
-7.77371e-06
-7.58596e-06
-7.58596e-06
)
;
    }
    procBoundary5to4
    {
        type            processor;
        value           nonuniform List<scalar> 
12
(
-3.49285e-06
-3.6474e-06
-3.63296e-06
-3.95909e-06
-2.89006e-06
-2.79476e-06
-2.71394e-06
-2.55408e-06
-2.76768e-06
-2.38477e-06
-2.34078e-06
-1.5428e-06
)
;
    }
    procBoundary5to7
    {
        type            processor;
        value           nonuniform List<scalar> 
44
(
-9.08808e-06
-9.83499e-06
-7.9414e-06
-3.12533e-06
4.2811e-06
1.24674e-05
1.97668e-05
2.48721e-05
-8.36955e-06
-9.08808e-06
-8.85188e-06
-7.38572e-06
-3.64731e-06
2.21083e-06
9.47499e-06
1.73029e-05
2.20148e-05
-5.76166e-06
-8.85188e-06
-7.2409e-06
-8.85188e-06
-7.38572e-06
-4.19479e-06
-2.2348e-07
5.94537e-06
1.02686e-05
1.76473e-05
-3.42491e-06
-5.95549e-06
-6.54156e-06
-4.19479e-06
-5.89521e-06
-4.19479e-06
-2.2348e-07
2.5181e-06
6.99261e-06
9.52898e-06
-2.21892e-06
-4.08605e-06
-5.39818e-06
-5.15193e-06
-3.74693e-06
2.5181e-06
-9.6857e-07
)
;
    }
}


// ************************************************************************* //
