/*--------------------------------*- C++ -*----------------------------------*\
| =========                 |                                                 |
| \\      /  F ield         | OpenFOAM: The Open Source CFD Toolbox           |
|  \\    /   O peration     | Version:  4.x                                   |
|   \\  /    A nd           | Web:      www.OpenFOAM.org                      |
|    \\/     M anipulation  |                                                 |
\*---------------------------------------------------------------------------*/
FoamFile
{
    version     2.0;
    format      ascii;
    class       volScalarField;
    location    "1.5";
    object      SPartFluid;
}
// * * * * * * * * * * * * * * * * * * * * * * * * * * * * * * * * * * * * * //

dimensions      [1 -3 -1 0 0 0 0];

internalField   nonuniform List<scalar> 
114
(
6.83658e-65
8.07057e-65
6.35084e-65
6.72301e-65
7.55355e-65
8.37263e-65
6.69329e-65
5.83113e-65
5.82164e-65
6.64714e-65
8.16263e-65
8.43129e-65
7.77671e-65
8.57102e-65
6.07773e-65
7.4647e-65
5.81514e-65
4.55275e-65
6.90142e-65
5.64408e-65
8.48542e-65
6.28416e-65
4.81124e-65
7.06859e-65
5.43575e-65
6.43973e-65
6.81844e-65
7.11637e-65
5.63193e-65
5.92713e-65
7.14152e-65
6.83677e-65
8.39716e-65
6.99298e-65
8.69037e-65
8.12216e-65
5.24839e-65
8.51947e-65
6.80295e-65
8.23047e-65
4.51236e-65
7.31779e-65
7.61963e-65
6.20254e-65
7.02507e-65
7.06466e-65
6.7993e-65
5.4783e-65
1.00154e-64
4.4378e-65
6.66834e-65
7.91281e-65
6.98468e-65
7.44984e-65
6.9811e-65
6.89753e-65
6.96506e-65
7.26179e-65
6.54736e-65
5.35189e-65
8.30639e-65
6.29045e-65
7.14205e-65
7.13639e-65
7.04597e-65
8.80455e-65
6.39263e-65
5.44737e-65
8.06732e-65
6.2902e-65
7.14869e-65
5.97862e-65
1.01583e-64
7.34912e-65
8.16831e-65
8.82004e-65
8.55259e-65
3.56797e-65
9.39633e-65
9.01405e-65
8.00173e-65
2.63535e-65
6.90058e-65
4.5748e-65
7.13473e-65
6.04824e-65
4.95969e-65
6.96819e-65
6.26373e-65
6.02073e-65
6.04567e-65
6.90181e-65
4.19e-65
5.66244e-65
7.44389e-65
6.50747e-65
4.56191e-65
7.02012e-65
6.0048e-65
6.27701e-65
6.28156e-65
8.53498e-65
6.90701e-65
5.89213e-65
7.74529e-65
6.49204e-65
6.70304e-65
6.76666e-65
7.20438e-65
5.5073e-65
6.98591e-65
5.89787e-65
9.77194e-65
8.05224e-65
)
;

boundaryField
{
    inlet
    {
        type            calculated;
        value           nonuniform 0();
    }
    outlet
    {
        type            calculated;
        value           uniform 0;
    }
    wall
    {
        type            calculated;
        value           uniform 0;
    }
    procBoundary5to1
    {
        type            processor;
        value           nonuniform List<scalar> 
32
(
7.92453e-65
5.81709e-65
8.4317e-65
7.0242e-65
5.69422e-65
4.13981e-65
5.68212e-65
6.37364e-65
6.74085e-65
7.25844e-65
6.52631e-65
7.11587e-65
4.33545e-65
6.00508e-65
5.4541e-65
8.78323e-65
8.20625e-65
8.77009e-65
6.72351e-65
7.76419e-65
3.41501e-65
6.60082e-65
5.28268e-65
8.08267e-65
8.08267e-65
8.08267e-65
7.07435e-65
1.00379e-64
1.00379e-64
1.00379e-64
5.75659e-65
5.75659e-65
)
;
    }
    procBoundary5to4
    {
        type            processor;
        value           nonuniform List<scalar> 
12
(
8.91359e-65
9.07157e-65
5.65844e-65
5.9671e-65
8.28881e-65
8.21067e-65
6.81535e-65
6.81212e-65
7.20257e-65
7.58809e-65
6.27072e-65
6.65499e-65
)
;
    }
    procBoundary5to7
    {
        type            processor;
        value           nonuniform List<scalar> 
44
(
7.87334e-65
6.15992e-65
7.08407e-65
1.05469e-64
1.0246e-64
8.02838e-65
5.54578e-65
8.16543e-65
9.95082e-65
7.87334e-65
6.23268e-65
7.62314e-65
6.35818e-65
6.94101e-65
8.50616e-65
8.30036e-65
7.19706e-65
3.96047e-65
6.23268e-65
8.55471e-65
6.23268e-65
7.62314e-65
5.04148e-65
5.79381e-65
7.30505e-65
5.97497e-65
5.7017e-65
8.05803e-65
7.06728e-65
6.99328e-65
5.04148e-65
5.04919e-65
5.04148e-65
5.79381e-65
5.47893e-65
6.38788e-65
6.06318e-65
6.88955e-65
5.81499e-65
7.685e-65
7.45142e-65
5.19618e-65
5.47893e-65
3.86975e-65
)
;
    }
}


// ************************************************************************* //
