/*--------------------------------*- C++ -*----------------------------------*\
| =========                 |                                                 |
| \\      /  F ield         | OpenFOAM: The Open Source CFD Toolbox           |
|  \\    /   O peration     | Version:  4.x                                   |
|   \\  /    A nd           | Web:      www.OpenFOAM.org                      |
|    \\/     M anipulation  |                                                 |
\*---------------------------------------------------------------------------*/
FoamFile
{
    version     2.0;
    format      ascii;
    class       volVectorField;
    location    "1.5";
    object      UsNext;
}
// * * * * * * * * * * * * * * * * * * * * * * * * * * * * * * * * * * * * * //

dimensions      [0 1 -1 0 0 0 0];

internalField   nonuniform List<vector> 
114
(
(-0.000106143 -4.52622e-06 2.4596e-06)
(-9.39506e-05 -6.85563e-06 3.25165e-06)
(-9.26255e-05 3.325e-06 7.66864e-06)
(-5.09645e-05 -6.31139e-07 -1.97068e-06)
(-3.36839e-05 -2.89027e-06 -5.26362e-06)
(-1.72871e-05 6.38725e-06 -4.58489e-06)
(-0.000109925 -7.64778e-06 1.48967e-05)
(-0.000104114 -1.12619e-05 1.43743e-05)
(-9.3715e-05 -1.43792e-05 9.17722e-06)
(-7.47771e-05 -6.1421e-06 4.71834e-06)
(-5.41374e-05 -1.25274e-05 2.62154e-06)
(-3.6289e-05 -9.16424e-06 -6.29254e-06)
(-2.11692e-05 1.60394e-06 -8.10132e-06)
(-0.000130427 -1.72284e-06 2.10498e-05)
(-0.000111046 -8.31721e-06 2.02316e-05)
(-9.6309e-05 -1.94854e-05 2.13743e-05)
(-8.73897e-05 -1.31787e-05 1.70991e-05)
(-7.06172e-05 -4.19806e-06 9.86166e-06)
(-4.7618e-05 -7.01952e-06 8.38479e-07)
(-3.39111e-05 -4.05552e-06 -2.48913e-06)
(-1.50783e-05 -6.34622e-06 -3.08158e-06)
(-8.55777e-05 6.24966e-06 7.4709e-06)
(-7.72442e-05 -1.38954e-06 9.41293e-06)
(-8.0333e-05 -2.51828e-08 4.4415e-06)
(-7.24728e-05 -1.8982e-06 1.39955e-06)
(-6.19248e-05 -8.75214e-06 -1.49577e-05)
(-4.21076e-05 -1.56194e-06 -6.92436e-07)
(-3.07017e-05 -8.35358e-07 -2.49312e-06)
(-2.01037e-05 1.41076e-06 -4.84109e-06)
(-1.28651e-05 1.47748e-06 -2.1766e-06)
(-0.000123713 -7.8518e-06 7.05542e-06)
(-0.000106971 -1.05225e-05 1.21906e-05)
(-9.6215e-05 -1.00294e-05 1.06487e-05)
(-8.82017e-05 -1.28931e-05 3.01504e-06)
(-7.40633e-05 -1.8426e-05 -1.09271e-06)
(-5.76047e-05 -1.08335e-05 -3.0162e-06)
(-4.54641e-05 -4.89533e-06 -4.63422e-06)
(-2.571e-05 -1.39697e-06 -6.64304e-06)
(-8.69544e-06 -9.73152e-07 -3.74753e-06)
(-0.00013107 -4.99353e-06 8.0458e-06)
(-0.000111906 -9.65119e-06 1.93784e-05)
(-9.9694e-05 -9.90567e-06 2.04227e-05)
(-8.68571e-05 -1.06145e-05 1.79462e-05)
(-7.00521e-05 -1.03837e-05 1.18392e-05)
(-5.36014e-05 -8.67119e-06 4.17479e-06)
(-3.69788e-05 -3.24422e-06 -1.49019e-06)
(-1.97893e-05 -1.61397e-06 -6.35462e-06)
(-5.86121e-06 -1.33393e-06 -4.60584e-06)
(-0.000126235 3.68251e-06 1.23657e-05)
(-0.000119267 -2.25019e-06 1.84701e-05)
(-7.75415e-05 -1.7524e-06 6.54811e-06)
(-7.23126e-05 -5.08964e-06 5.85594e-06)
(-6.49823e-05 -5.2377e-06 1.07802e-05)
(-6.14723e-05 -1.12789e-05 8.16057e-06)
(-5.4873e-05 -4.29935e-06 -5.65173e-06)
(-3.33684e-05 2.22806e-06 3.36801e-06)
(-2.59519e-05 2.52046e-07 -3.00129e-06)
(-1.55888e-05 -2.42984e-07 -3.60944e-06)
(-5.12192e-06 1.07226e-06 -3.98449e-07)
(-0.000108552 -9.78366e-07 8.50566e-07)
(-9.63859e-05 -9.58275e-06 5.1001e-06)
(-7.73656e-05 -2.06786e-05 1.15881e-05)
(-7.10886e-05 -2.0442e-05 1.73854e-06)
(-6.02524e-05 -1.17672e-05 -2.7571e-06)
(-4.57418e-05 -9.53849e-06 2.69572e-07)
(-3.15837e-05 -3.15365e-06 -2.90939e-06)
(-2.10861e-05 -4.36359e-07 -4.46944e-06)
(-7.00921e-06 3.32587e-07 -2.63802e-06)
(-0.000125991 8.47981e-07 4.86738e-06)
(-0.000115403 -1.4385e-05 6.75719e-06)
(-8.45742e-05 -2.44461e-05 1.70761e-05)
(-7.45566e-05 -1.34368e-05 7.97295e-06)
(-5.47958e-05 -1.25586e-05 9.31032e-06)
(-4.09322e-05 -1.00799e-05 9.08991e-07)
(-2.65556e-05 -3.51203e-06 -1.02034e-06)
(-1.36469e-05 2.76137e-07 -4.94813e-06)
(-7.57553e-06 -3.32261e-07 -3.75744e-06)
(-0.000118381 3.24162e-07 -2.52102e-06)
(-0.000114606 -4.83432e-06 3.19666e-06)
(-0.000102882 -1.01253e-05 1.84043e-06)
(-6.84883e-05 -5.59397e-06 7.32353e-06)
(-4.2155e-05 4.38339e-06 3.87785e-06)
(-5.64115e-05 -1.4335e-06 1.35406e-06)
(-3.37582e-05 8.04125e-06 -4.65203e-06)
(-3.73346e-05 -1.48234e-05 3.47207e-06)
(-3.59792e-05 1.18089e-06 -2.60179e-06)
(-2.17649e-05 -4.39727e-07 7.75047e-06)
(-1.69929e-05 -5.06976e-07 -1.80037e-06)
(-1.31027e-05 2.92573e-07 -3.29247e-06)
(-4.19516e-06 -3.89154e-08 -2.12983e-06)
(-7.86567e-05 4.79049e-06 2.76878e-06)
(-8.16389e-05 -3.04282e-06 -1.94333e-06)
(-9.67408e-05 6.31095e-06 2.1586e-05)
(-4.84817e-05 -9.24572e-06 -3.46119e-06)
(-4.6705e-05 -1.72008e-05 -1.44871e-06)
(-2.43829e-05 -3.26004e-06 6.97115e-06)
(-2.36405e-05 -2.45365e-06 -2.38442e-06)
(-1.14362e-05 -1.82093e-06 -2.1045e-06)
(-5.11e-06 -2.58972e-07 -1.76254e-06)
(-8.66573e-05 7.87807e-06 4.20135e-06)
(-7.63732e-05 -5.86605e-06 -6.27331e-06)
(-3.63795e-05 9.32926e-06 5.82964e-06)
(-4.9617e-05 -8.72325e-06 -7.37778e-07)
(-3.67132e-05 -1.50681e-05 3.77891e-06)
(-2.53042e-05 -7.01387e-06 -1.65436e-06)
(-1.76212e-05 -3.5201e-06 -3.54187e-06)
(-1.09837e-05 -1.40534e-06 -2.92937e-06)
(-5.36838e-06 -8.9301e-07 -1.43962e-06)
(-7.55897e-05 -2.78641e-06 1.15499e-05)
(-6.99793e-05 -1.2852e-05 -3.62357e-06)
(-5.78029e-05 -3.44289e-07 -3.35553e-06)
(-5.25264e-05 -7.16851e-06 -5.05002e-06)
(-3.73508e-05 -9.41446e-06 3.57145e-06)
(-2.6454e-05 -5.20599e-06 -9.01348e-07)
)
;

boundaryField
{
    inlet
    {
        type            calculated;
        value           nonuniform 0();
    }
    outlet
    {
        type            calculated;
        value           nonuniform List<vector> 
12
(
(-1.72871e-05 6.38725e-06 -4.58489e-06)
(-2.11692e-05 1.60394e-06 -8.10132e-06)
(-1.50783e-05 -6.34622e-06 -3.08158e-06)
(-1.28651e-05 1.47748e-06 -2.1766e-06)
(-8.69544e-06 -9.73152e-07 -3.74753e-06)
(-5.86121e-06 -1.33393e-06 -4.60584e-06)
(-5.12192e-06 1.07226e-06 -3.98449e-07)
(-7.00921e-06 3.32587e-07 -2.63802e-06)
(-7.57553e-06 -3.32261e-07 -3.75744e-06)
(-4.19516e-06 -3.89154e-08 -2.12983e-06)
(-5.11e-06 -2.58972e-07 -1.76254e-06)
(-5.36838e-06 -8.9301e-07 -1.43962e-06)
)
;
    }
    wall
    {
        type            calculated;
        value           nonuniform List<vector> 
66
(
(-4.2155e-05 4.38339e-06 3.87785e-06)
(-7.86567e-05 4.79049e-06 2.76878e-06)
(-8.66573e-05 7.87807e-06 4.20135e-06)
(-7.55897e-05 -2.78641e-06 1.15499e-05)
(-5.64115e-05 -1.4335e-06 1.35406e-06)
(-8.16389e-05 -3.04282e-06 -1.94333e-06)
(-7.63732e-05 -5.86605e-06 -6.27331e-06)
(-6.99793e-05 -1.2852e-05 -3.62357e-06)
(-3.37582e-05 8.04125e-06 -4.65203e-06)
(-9.67408e-05 6.31095e-06 2.1586e-05)
(-3.63795e-05 9.32926e-06 5.82964e-06)
(-5.78029e-05 -3.44289e-07 -3.35553e-06)
(-3.73346e-05 -1.48234e-05 3.47207e-06)
(-4.84817e-05 -9.24572e-06 -3.46119e-06)
(-4.9617e-05 -8.72325e-06 -7.37778e-07)
(-5.25264e-05 -7.16851e-06 -5.05002e-06)
(-3.59792e-05 1.18089e-06 -2.60179e-06)
(-4.6705e-05 -1.72008e-05 -1.44871e-06)
(-3.67132e-05 -1.50681e-05 3.77891e-06)
(-3.73508e-05 -9.41446e-06 3.57145e-06)
(-2.17649e-05 -4.39727e-07 7.75047e-06)
(-2.43829e-05 -3.26004e-06 6.97115e-06)
(-2.53042e-05 -7.01387e-06 -1.65436e-06)
(-2.6454e-05 -5.20599e-06 -9.01348e-07)
(-1.69929e-05 -5.06976e-07 -1.80037e-06)
(-2.36405e-05 -2.45365e-06 -2.38442e-06)
(-1.76212e-05 -3.5201e-06 -3.54187e-06)
(-1.31027e-05 2.92573e-07 -3.29247e-06)
(-1.14362e-05 -1.82093e-06 -2.1045e-06)
(-1.09837e-05 -1.40534e-06 -2.92937e-06)
(-4.19516e-06 -3.89154e-08 -2.12983e-06)
(-5.11e-06 -2.58972e-07 -1.76254e-06)
(-5.36838e-06 -8.9301e-07 -1.43962e-06)
(-8.55777e-05 6.24966e-06 7.4709e-06)
(-7.75415e-05 -1.7524e-06 6.54811e-06)
(-4.2155e-05 4.38339e-06 3.87785e-06)
(-7.72442e-05 -1.38954e-06 9.41293e-06)
(-7.23126e-05 -5.08964e-06 5.85594e-06)
(-5.64115e-05 -1.4335e-06 1.35406e-06)
(-8.0333e-05 -2.51828e-08 4.4415e-06)
(-6.49823e-05 -5.2377e-06 1.07802e-05)
(-3.37582e-05 8.04125e-06 -4.65203e-06)
(-0.000106143 -4.52622e-06 2.4596e-06)
(-7.24728e-05 -1.8982e-06 1.39955e-06)
(-6.14723e-05 -1.12789e-05 8.16057e-06)
(-3.73346e-05 -1.48234e-05 3.47207e-06)
(-9.39506e-05 -6.85563e-06 3.25165e-06)
(-6.19248e-05 -8.75214e-06 -1.49577e-05)
(-5.4873e-05 -4.29935e-06 -5.65173e-06)
(-3.59792e-05 1.18089e-06 -2.60179e-06)
(-9.26255e-05 3.325e-06 7.66864e-06)
(-4.21076e-05 -1.56194e-06 -6.92436e-07)
(-3.33684e-05 2.22806e-06 3.36801e-06)
(-2.17649e-05 -4.39727e-07 7.75047e-06)
(-5.09645e-05 -6.31139e-07 -1.97068e-06)
(-3.07017e-05 -8.35358e-07 -2.49312e-06)
(-2.59519e-05 2.52046e-07 -3.00129e-06)
(-1.69929e-05 -5.06976e-07 -1.80037e-06)
(-3.36839e-05 -2.89027e-06 -5.26362e-06)
(-2.01037e-05 1.41076e-06 -4.84109e-06)
(-1.55888e-05 -2.42984e-07 -3.60944e-06)
(-1.31027e-05 2.92573e-07 -3.29247e-06)
(-1.72871e-05 6.38725e-06 -4.58489e-06)
(-1.28651e-05 1.47748e-06 -2.1766e-06)
(-5.12192e-06 1.07226e-06 -3.98449e-07)
(-4.19516e-06 -3.89154e-08 -2.12983e-06)
)
;
    }
    procBoundary5to1
    {
        type            processor;
        value           nonuniform List<vector> 
32
(
(-0.000129518 6.15996e-07 1.06034e-05)
(-0.000128126 -2.938e-07 2.06462e-05)
(-0.000105041 -6.01813e-06 5.45115e-06)
(-6.5108e-05 -8.58868e-06 3.16701e-06)
(-4.30502e-05 1.69154e-06 -2.05385e-06)
(-2.08536e-05 -2.39052e-06 5.6723e-07)
(-0.000119836 -1.08035e-05 1.93752e-05)
(-0.000128821 -2.40113e-05 1.68528e-05)
(-0.000123325 -7.20013e-06 2.147e-05)
(-0.000109805 -2.09177e-05 2.49594e-05)
(-7.53351e-05 -1.90792e-05 1.49674e-05)
(-6.27494e-05 -5.31917e-06 3.83078e-06)
(-3.08379e-05 -1.0821e-05 2.72413e-06)
(-0.000141542 -3.00194e-06 2.20058e-05)
(-0.000131242 -1.30957e-05 2.42981e-05)
(-0.000115304 -2.73046e-05 2.01226e-05)
(-9.99725e-05 -1.93669e-05 1.99359e-05)
(-8.34767e-05 -1.25505e-05 1.71853e-05)
(-6.94992e-05 -1.91348e-05 9.04763e-06)
(-4.19155e-05 -2.17437e-07 -2.43691e-07)
(-2.9224e-05 -1.01822e-05 1.74425e-05)
(-9.26452e-05 1.30972e-06 2.03913e-06)
(-9.19034e-05 8.0109e-06 2.37893e-05)
(-9.04508e-05 -3.7309e-06 1.08583e-05)
(-9.04508e-05 -3.7309e-06 1.08583e-05)
(-9.04508e-05 -3.7309e-06 1.08583e-05)
(-0.000136892 3.5166e-06 1.1672e-05)
(-0.00012184 -7.05316e-07 1.69948e-05)
(-0.00012184 -7.05316e-07 1.69948e-05)
(-0.00012184 -7.05316e-07 1.69948e-05)
(-0.000136752 2.01438e-06 1.32624e-05)
(-0.000136752 2.01438e-06 1.32624e-05)
)
;
    }
    procBoundary5to4
    {
        type            processor;
        value           nonuniform List<vector> 
12
(
(-8.69679e-05 1.99391e-06 -8.17788e-06)
(-0.000138538 -1.86776e-05 1.11716e-05)
(-0.000122318 -1.72557e-05 -1.82778e-06)
(-0.000120295 -9.37679e-07 7.739e-06)
(-7.85291e-05 -1.152e-06 1.08299e-06)
(-0.000105709 -1.56009e-05 1.32196e-05)
(-0.000118071 -7.55421e-06 -1.05178e-05)
(-9.89992e-05 -5.19382e-06 -7.60819e-06)
(-5.14097e-05 -5.30939e-06 2.19402e-06)
(-6.29649e-05 -8.6663e-06 9.35742e-06)
(-7.80143e-05 -4.24193e-06 -7.87054e-06)
(-9.4384e-05 -3.39559e-06 7.60766e-07)
)
;
    }
    procBoundary5to7
    {
        type            processor;
        value           nonuniform List<vector> 
44
(
(-0.000126827 9.29499e-07 2.10512e-05)
(-0.000117733 -2.88747e-06 2.36347e-05)
(-0.000102348 -6.98503e-06 2.33816e-05)
(-8.46364e-05 -7.06695e-06 2.14419e-05)
(-5.69758e-05 -5.32046e-07 2.06696e-05)
(-4.43456e-05 -5.4268e-06 5.86673e-06)
(-2.22599e-05 -4.45954e-06 -7.68617e-06)
(-8.86275e-06 -7.25447e-06 -9.84462e-06)
(-0.000128317 1.32281e-06 1.77572e-05)
(-0.000126827 9.29499e-07 2.10512e-05)
(-0.000107238 -4.58617e-06 1.45785e-05)
(-9.05922e-05 -7.68453e-06 1.78012e-05)
(-6.05088e-05 -2.49639e-06 1.3934e-05)
(-4.90861e-05 -2.8601e-06 1.14308e-05)
(-3.13149e-05 -2.17145e-06 1.53282e-06)
(-1.66542e-05 -6.46395e-07 -7.0816e-06)
(-4.08655e-06 2.92334e-06 -1.04861e-05)
(-0.000129603 6.27522e-06 1.90476e-05)
(-0.000107238 -4.58617e-06 1.45785e-05)
(-0.000121658 5.04679e-06 1.89478e-05)
(-0.000107238 -4.58617e-06 1.45785e-05)
(-9.05922e-05 -7.68453e-06 1.78012e-05)
(-5.17613e-05 -4.7866e-06 5.41395e-06)
(-3.84569e-05 -6.18559e-06 6.14898e-06)
(-2.54298e-05 -2.23765e-07 -5.43708e-07)
(-1.45032e-05 -2.66952e-06 -7.79761e-06)
(-6.16707e-06 4.35692e-07 -4.14903e-06)
(-0.000115301 3.32859e-06 1.29907e-05)
(-0.0001149 2.42569e-06 1.27202e-05)
(-9.77765e-05 -6.04117e-07 1.47748e-05)
(-5.17613e-05 -4.7866e-06 5.41395e-06)
(-7.00163e-05 -3.69696e-06 1.1959e-05)
(-5.17613e-05 -4.7866e-06 5.41395e-06)
(-3.84569e-05 -6.18559e-06 6.14898e-06)
(-2.03045e-05 -3.15385e-06 -6.11427e-06)
(-1.40305e-05 -2.66064e-06 -5.26169e-06)
(-6.77474e-06 -2.6445e-06 -2.41799e-06)
(-7.71235e-05 -5.97991e-06 5.98358e-06)
(-7.98957e-05 -7.53413e-06 3.4727e-07)
(-7.33796e-05 -1.37571e-05 -3.31394e-06)
(-4.42904e-05 -8.06822e-06 -2.61014e-06)
(-3.49879e-05 -5.85466e-06 -6.06867e-07)
(-2.03045e-05 -3.15385e-06 -6.11427e-06)
(-3.94292e-05 -2.72932e-06 3.20116e-06)
)
;
    }
}


// ************************************************************************* //
