/*--------------------------------*- C++ -*----------------------------------*\
| =========                 |                                                 |
| \\      /  F ield         | OpenFOAM: The Open Source CFD Toolbox           |
|  \\    /   O peration     | Version:  4.x                                   |
|   \\  /    A nd           | Web:      www.OpenFOAM.org                      |
|    \\/     M anipulation  |                                                 |
\*---------------------------------------------------------------------------*/
FoamFile
{
    version     2.0;
    format      ascii;
    class       volVectorField;
    location    "1.5";
    object      UsPrev;
}
// * * * * * * * * * * * * * * * * * * * * * * * * * * * * * * * * * * * * * //

dimensions      [0 1 -1 0 0 0 0];

internalField   nonuniform List<vector> 
114
(
(-0.000107292 -5.45554e-06 -4.20223e-06)
(-9.86479e-05 -7.87101e-06 -4.51151e-07)
(-9.58365e-05 3.13462e-06 6.43157e-06)
(-5.31579e-05 -2.64314e-06 -2.32725e-06)
(-3.66043e-05 -2.82228e-06 -4.55421e-06)
(-1.8439e-05 6.30258e-06 -3.34985e-06)
(-0.000106576 -9.70789e-06 1.1265e-05)
(-0.000106275 -1.79014e-05 7.72034e-06)
(-9.96284e-05 -1.74105e-05 8.37807e-06)
(-7.76391e-05 -9.46871e-06 5.41435e-06)
(-5.46607e-05 -1.28465e-05 3.01043e-06)
(-3.9133e-05 -8.22257e-06 -6.57977e-06)
(-2.20545e-05 3.70422e-06 -8.00689e-06)
(-0.000130663 -2.19584e-06 2.15797e-05)
(-0.000113601 -9.33455e-06 2.30564e-05)
(-9.71459e-05 -2.50768e-05 2.57998e-05)
(-8.83697e-05 -1.80537e-05 2.0807e-05)
(-7.00022e-05 -6.96751e-06 1.05481e-05)
(-4.73552e-05 -6.60902e-06 1.45181e-08)
(-3.60261e-05 -3.68586e-06 -2.15021e-06)
(-1.57844e-05 -5.36602e-06 -2.50967e-06)
(-8.09099e-05 4.35146e-06 7.85758e-06)
(-7.35572e-05 -2.39539e-06 1.20297e-05)
(-7.96319e-05 -1.77041e-06 2.1089e-06)
(-7.16939e-05 -4.4677e-06 -2.47368e-06)
(-6.46372e-05 -9.82575e-06 -1.6185e-05)
(-4.56711e-05 -2.77182e-06 -2.38275e-06)
(-3.24538e-05 -1.9826e-06 -2.93839e-06)
(-2.16303e-05 3.92715e-07 -4.28647e-06)
(-1.31346e-05 1.38472e-06 -1.4699e-06)
(-0.000117921 -8.26936e-06 6.88492e-06)
(-0.000101687 -1.17602e-05 1.39954e-05)
(-9.39442e-05 -1.12596e-05 1.02139e-05)
(-8.75318e-05 -1.64621e-05 3.81635e-06)
(-7.49049e-05 -2.14261e-05 -1.85307e-07)
(-5.82366e-05 -1.19154e-05 -3.28618e-06)
(-4.5319e-05 -5.06965e-06 -5.21581e-06)
(-2.67803e-05 -1.335e-06 -6.53058e-06)
(-8.72741e-06 4.98416e-08 -3.5466e-06)
(-0.000126041 -4.21046e-06 8.84643e-06)
(-0.000108548 -1.01625e-05 1.99914e-05)
(-9.85432e-05 -1.0204e-05 2.15876e-05)
(-8.56917e-05 -1.27783e-05 2.10349e-05)
(-7.04742e-05 -1.19179e-05 1.41566e-05)
(-5.32731e-05 -7.42384e-06 5.08197e-06)
(-3.61966e-05 -2.53393e-06 -8.03046e-07)
(-2.04181e-05 -1.63751e-06 -7.00281e-06)
(-5.56942e-06 -1.19013e-06 -4.48911e-06)
(-0.000122929 2.93472e-06 1.39343e-05)
(-0.000117072 -3.07031e-06 1.94791e-05)
(-7.50593e-05 -2.87642e-06 7.38356e-06)
(-6.84168e-05 -6.52193e-06 7.56005e-06)
(-6.28775e-05 -7.29702e-06 1.13647e-05)
(-6.10468e-05 -1.24904e-05 8.81907e-06)
(-5.57207e-05 -6.34097e-06 -6.78184e-06)
(-3.37432e-05 3.09254e-07 9.28176e-07)
(-2.6981e-05 -3.88097e-07 -3.69156e-06)
(-1.65922e-05 -6.36378e-07 -3.5923e-06)
(-5.26146e-06 1.37218e-06 -5.69001e-07)
(-0.000104875 -1.91795e-06 2.03583e-06)
(-9.28711e-05 -1.15931e-05 7.45832e-06)
(-7.42367e-05 -2.33118e-05 1.09335e-05)
(-7.00031e-05 -2.24558e-05 3.0816e-06)
(-6.02795e-05 -1.2914e-05 -2.53662e-06)
(-4.68057e-05 -9.66547e-06 4.78849e-07)
(-3.1611e-05 -3.3239e-06 -1.93844e-06)
(-2.20353e-05 -5.85463e-07 -4.26217e-06)
(-7.24026e-06 1.14385e-06 -1.98695e-06)
(-0.000120727 -1.11593e-06 5.57277e-06)
(-0.000111276 -1.45383e-05 8.40273e-06)
(-8.21752e-05 -2.54208e-05 1.6923e-05)
(-7.38259e-05 -1.39617e-05 8.72241e-06)
(-5.60267e-05 -1.24921e-05 9.77402e-06)
(-4.26609e-05 -9.60013e-06 9.64341e-07)
(-2.76388e-05 -3.8066e-06 -5.36477e-07)
(-1.39105e-05 4.34761e-07 -5.12499e-06)
(-7.65098e-06 1.34232e-07 -3.79039e-06)
(-0.000115076 3.30875e-07 -3.63285e-07)
(-0.000111766 -5.74116e-06 4.1517e-06)
(-0.000101166 -1.12056e-05 3.58531e-06)
(-6.9415e-05 -6.83852e-06 7.38543e-06)
(-4.19455e-05 3.99254e-06 4.50751e-06)
(-5.49308e-05 -1.5764e-06 2.30665e-06)
(-3.06974e-05 8.44237e-06 -4.75672e-06)
(-3.63227e-05 -1.5861e-05 3.85562e-06)
(-3.45433e-05 -7.2825e-08 -3.46317e-06)
(-2.19885e-05 -3.44562e-07 8.11103e-06)
(-1.77352e-05 -1.33904e-06 -2.14611e-06)
(-1.44467e-05 -4.75886e-08 -3.21406e-06)
(-5.66742e-06 -3.54587e-08 -1.91452e-06)
(-7.6456e-05 4.14393e-06 4.54878e-06)
(-7.83129e-05 -4.78061e-06 -3.13109e-07)
(-9.24993e-05 4.98742e-06 2.18637e-05)
(-4.79938e-05 -1.1448e-05 -2.97075e-06)
(-4.64097e-05 -1.65716e-05 -1.54029e-06)
(-2.50737e-05 -3.41089e-06 8.71498e-06)
(-2.34147e-05 -2.47517e-06 -1.15944e-06)
(-1.20626e-05 -1.73299e-06 -1.79883e-06)
(-5.44034e-06 1.95794e-07 -1.87569e-06)
(-8.34318e-05 5.25977e-06 5.14935e-06)
(-7.45681e-05 -7.14808e-06 -5.33081e-06)
(-3.67249e-05 7.64036e-06 7.10761e-06)
(-4.97967e-05 -9.67952e-06 6.61902e-07)
(-3.72957e-05 -1.56613e-05 4.22175e-06)
(-2.72613e-05 -8.00366e-06 -1.67844e-06)
(-1.88603e-05 -4.11905e-06 -3.1572e-06)
(-1.11231e-05 -1.58892e-06 -2.43228e-06)
(-5.45077e-06 -8.00244e-08 -1.2704e-06)
(-7.42347e-05 -4.59217e-06 1.1867e-05)
(-6.95532e-05 -1.41448e-05 -2.24617e-06)
(-5.91644e-05 -3.90283e-06 -2.52225e-06)
(-5.3039e-05 -6.6509e-06 -4.16399e-06)
(-3.86899e-05 -1.13825e-05 4.03103e-06)
(-2.78621e-05 -7.35414e-06 -7.21009e-07)
)
;

boundaryField
{
    inlet
    {
        type            calculated;
        value           nonuniform 0();
    }
    outlet
    {
        type            calculated;
        value           uniform (0 0 0);
    }
    wall
    {
        type            calculated;
        value           uniform (0 0 0);
    }
    procBoundary5to1
    {
        type            processor;
        value           uniform (0 0 0);
    }
    procBoundary5to4
    {
        type            processor;
        value           uniform (0 0 0);
    }
    procBoundary5to7
    {
        type            processor;
        value           uniform (0 0 0);
    }
}


// ************************************************************************* //
