/*--------------------------------*- C++ -*----------------------------------*\
  =========                 |
  \\      /  F ield         | OpenFOAM: The Open Source CFD Toolbox
   \\    /   O peration     | Website:  https://openfoam.org
    \\  /    A nd           | Version:  4.x
     \\/     M anipulation  |
\*---------------------------------------------------------------------------*/
FoamFile
{
    version     2.0;
    format      ascii;
    class       Cloud<passiveParticle>;
    location    0;
    object      positions;
}
// * * * * * * * * * * * * * * * * * * * * * * * * * * * * * * * * * * * * * //

407
(
( 0.258298 -0.00231339 0.00716817 ) 0
( 0.254503 0.0363088 0.00410094 ) 9
( 0.260156 0.0751945 -0.0115025 ) 27
( 0.259473 0.0469556 0.0238825 ) 52
( 0.262474 0.0894548 0.0153665 ) 61
( 0.250888 0.0131592 -0.00388043 ) 0
( 0.309393 -0.00715374 0.0175582 ) 36
( 0.335633 -0.00728238 0.0174669 ) 37
( 0.467314 -0.00658848 -0.00274847 ) 7
( 0.386431 -0.0140847 0.0128324 ) 4
( 0.439622 -0.00882308 -0.00444246 ) 6
( 0.398351 -0.00655405 0.0265442 ) 39
( 0.420248 -0.0111167 -0.00556048 ) 6
( 0.400578 -0.011938 -0.00720806 ) 5
( 0.409195 -0.00887483 0.0103856 ) 5
( 0.32241 -0.00644374 0.00307959 ) 2
( 0.471695 -0.0120886 0.0157479 ) 41
( 0.294201 0.00297099 0.0100762 ) 1
( 0.490172 -0.0125366 -0.0113101 ) 8
( 0.366756 -0.0128553 0.0135265 ) 4
( 0.485933 -0.000561623 0.00401758 ) 8
( 0.35915 -0.00344144 -0.00707616 ) 3
( 0.419389 -0.0111035 0.0273444 ) 40
( 0.307106 -0.0127518 -0.00741854 ) 2
( 0.429141 -0.00398861 0.0116604 ) 6
( 0.452861 -0.0100014 0.0102272 ) 7
( 0.379912 -0.0126035 -0.00566833 ) 4
( 0.311987 0.0461146 0.0294571 ) 54
( 0.281577 0.0837327 0.0156441 ) 62
( 0.486898 0.0276304 0.0214436 ) 51
( 0.344148 0.0700555 -0.00231011 ) 21
( 0.459051 0.0599188 -0.00737323 ) 25
( 0.420852 0.0522423 0.0211625 ) 58
( 0.380371 0.0560167 -0.00642986 ) 22
( 0.300505 0.0547211 -0.0119738 ) 19
( 0.352596 0.0132275 0.00117161 ) 3
( 0.301721 0.0187127 0.000349467 ) 10
( 0.392928 0.0669998 0.00378646 ) 23
( 0.284689 0.02169 -0.0129128 ) 10
( 0.368353 0.0207368 0.0159913 ) 47
( 0.39859 0.0834964 0.0130699 ) 32
( 0.437425 0.0260664 0.00858605 ) 15
( 0.468773 0.0167011 0.0149794 ) 50
( 0.421777 0.0219801 -0.00307027 ) 15
( 0.376694 0.00383035 0.0107587 ) 4
( 0.415314 0.0573224 0.00318138 ) 23
( 0.29681 0.0519015 0.0181836 ) 53
( 0.345471 0.0251139 -0.0133043 ) 12
( 0.330241 0.027839 0.0186726 ) 45
( 0.29947 0.088687 0.0229931 ) 62
( 0.442392 0.0693966 -0.00407836 ) 24
( 0.326665 0.0329232 0.000269666 ) 11
( 0.36019 0.0718388 0.00929371 ) 30
( 0.364782 0.054934 0.0291886 ) 56
( 0.431354 0.0392532 -0.00526219 ) 15
( 0.313981 0.0906444 -0.0108263 ) 29
( 0.336906 0.0470868 -0.00897877 ) 21
( 0.399328 0.0500027 -0.00560056 ) 23
( 0.315885 0.0491357 -0.00120992 ) 20
( 0.348973 0.0222193 0.0184716 ) 46
( 0.428178 0.0576446 -0.0119663 ) 24
( 0.287957 0.0477364 0.00124873 ) 19
( 0.387734 0.0447413 0.00944541 ) 22
( 0.314395 0.0599373 0.0155804 ) 54
( 0.490846 0.0630054 -0.00976166 ) 26
( 0.449236 0.0447088 0.000727871 ) 25
( 0.349151 0.0726549 0.0253455 ) 64
( 0.447691 0.0904987 0.0181608 ) 68
( 0.471562 0.0906167 0.0117107 ) 34
( 0.312798 0.018312 0.0164487 ) 45
( 0.274447 0.0389897 -0.0100439 ) 9
( 0.452652 0.0597717 0.0131176 ) 25
( 0.332501 0.0899651 -0.0044738 ) 29
( 0.411725 0.0902195 8.83006e-05 ) 32
( 0.484002 0.0451244 -0.00915287 ) 26
( 0.390478 0.0332803 -0.0112239 ) 14
( 0.330005 0.0421278 0.0360763 ) 45
( 0.375811 0.00468183 -0.0138191 ) 4
( 0.460384 0.00112526 0.0246409 ) 41
( 0.308237 0.0724496 -0.013141 ) 29
( 0.287393 0.0670638 -0.00315618 ) 19
( 0.399104 0.0128924 0.0254505 ) 39
( 0.49046 0.0184128 0.00465152 ) 17
( 0.299433 0.0723319 0.0116525 ) 28
( 0.275048 0.00812842 0.00954768 ) 0
( 0.358884 0.0901375 0.00174282 ) 30
( 0.438467 0.0414723 0.0207932 ) 49
( 0.412185 0.0105757 0.0100192 ) 5
( 0.339169 0.0556879 0.0252505 ) 55
( 0.319161 0.0903862 0.0102172 ) 29
( 0.468055 0.0470831 0.0145266 ) 59
( 0.47331 0.0128467 -0.00369847 ) 8
( 0.278841 0.0476716 0.0243381 ) 53
( 0.31902 0.0171222 -0.00914123 ) 11
( 0.402828 0.0256786 0.0019449 ) 14
( 0.357872 0.0901834 0.0215183 ) 64
( 0.406966 0.069241 -0.00968252 ) 23
( 0.364799 0.0211653 -0.0121913 ) 13
( 0.380868 0.077595 0.0369227 ) 65
( 0.413041 0.0263896 0.0234707 ) 48
( 0.465213 0.0398256 -0.00895619 ) 16
( 0.485404 0.0783232 0.000799552 ) 35
( 0.426657 0.0122821 0.0228838 ) 40
( 0.434348 0.0554035 0.00726557 ) 24
( 0.490019 0.00824749 0.0214666 ) 42
( 0.369807 0.0349452 0.00213145 ) 13
( 0.433936 0.0765302 0.0152262 ) 67
( 0.326144 0.0749681 0.02021 ) 63
( 0.477242 0.0325882 0.00450201 ) 17
( 0.381133 0.0189899 -0.00139003 ) 13
( 0.394988 0.00324035 0.00419246 ) 5
( 0.269917 0.0713562 0.00538091 ) 18
( 0.287223 0.0174259 0.0216721 ) 44
( 0.269376 0.0317187 0.0163294 ) 43
( 0.377493 0.07896 0.00341376 ) 31
( 0.370093 0.0531538 0.0100334 ) 22
( 0.374378 0.0383912 0.0227571 ) 47
( 0.475929 0.0602685 0.00232657 ) 26
( 0.32196 0.0732753 0.000849788 ) 29
( 0.361362 0.052188 -0.00995439 ) 22
( 0.333211 0.0146694 0.00441481 ) 11
( 0.269228 0.0493442 0.00668582 ) 18
( 0.306736 0.0363419 0.0108679 ) 11
( 0.292003 0.0835742 -0.0133919 ) 28
( 0.403311 0.0435194 0.0214951 ) 57
( 0.43813 0.0894435 0.000734539 ) 33
( 0.346326 0.0351375 0.00378806 ) 12
( 0.486115 0.0261505 -0.0129569 ) 17
( 0.409909 0.00561984 -0.00912946 ) 5
( 0.440323 0.0105802 -0.00326963 ) 6
( 0.405279 0.0641289 0.0186017 ) 57
( 0.425343 0.0902839 -0.0141986 ) 33
( 0.26782 0.0226724 -0.0013634 ) 9
( 0.393946 0.0842024 -0.00649893 ) 32
( 0.490179 0.00703582 -0.0137079 ) 8
( 0.373371 0.0904885 -0.0118638 ) 31
( 0.489944 0.0679278 0.0172498 ) 60
( 0.41679 0.0381656 0.00796526 ) 15
( 0.35319 0.0106149 0.0336596 ) 37
( 0.277046 0.0902792 -0.00234977 ) 27
( 0.298832 0.0352971 -0.00969846 ) 10
( 0.388308 0.025905 0.0155051 ) 47
( 0.267474 0.073682 0.0265884 ) 61
( 0.350908 0.0540592 0.0074629 ) 21
( 0.471383 0.090111 -0.00788633 ) 34
( 0.467695 0.0719898 0.0153228 ) 68
( 0.455866 0.0318023 0.0143325 ) 50
( 0.283618 0.00262715 -0.00712914 ) 1
( 0.444559 0.00860818 0.0160402 ) 41
( 0.285576 0.0286781 0.00567232 ) 10
( 0.418798 0.0892121 0.0187434 ) 67
( 0.454778 0.0238918 -0.0036394 ) 16
( 0.423888 0.074847 -0.00178286 ) 33
( 0.343178 0.0274033 0.0368628 ) 46
( 0.254209 0.0609937 0.0116382 ) 18
( 0.300355 0.0902779 0.0033705 ) 28
( 0.340788 0.0859631 0.0128975 ) 30
( 0.302126 0.00509852 -0.0137782 ) 1
( 0.490473 0.0493362 0.00908214 ) 26
( 0.394221 0.090853 0.0306108 ) 66
( 0.364694 0.0717527 -0.0100077 ) 31
( 0.490583 0.0902317 0.0151661 ) 69
( 0.257735 -0.00484176 -0.0122744 ) 0
( 0.275547 -0.0115592 0.0105403 ) 0
( 0.307899 0.0725344 0.0310792 ) 63
( 0.353407 0.00102941 0.0166634 ) 37
( 0.33971 -0.00142956 -0.00480697 ) 3
( 0.338344 0.0902345 0.0319919 ) 64
( 0.456099 0.0816286 0.00298663 ) 34
( 0.317551 0.0273494 0.0333038 ) 45
( 0.490202 0.048296 0.0288122 ) 60
( 0.328208 0.00925977 0.024661 ) 36
( 0.458534 0.0477099 0.0321691 ) 59
( 0.283474 0.0385212 0.0410485 ) 44
( 0.436618 0.0666672 0.044439 ) 90
( 0.331834 0.0575772 0.007039 ) 20
( 0.363264 -0.00489841 0.0411179 ) 38
( 0.254355 0.0363363 0.0525333 ) 75
( 0.472463 -0.00322659 0.0458069 ) 74
( 0.318264 0.0509964 0.0496085 ) 86
( 0.301985 0.0904667 0.0424083 ) 62
( 0.382525 0.0618891 0.0479572 ) 88
( 0.354985 0.0843399 0.0536576 ) 96
( 0.490345 0.0327036 0.0595701 ) 83
( 0.433892 -0.00719771 0.048335 ) 72
( 0.430173 0.0896893 0.051676 ) 99
( 0.364304 0.0559846 0.0525512 ) 88
( 0.352277 0.0411466 0.0223006 ) 46
( 0.284955 0.0898906 0.0541268 ) 94
( 0.475758 0.0231564 0.0497892 ) 83
( 0.267767 0.0494574 0.0459938 ) 84
( 0.393132 0.0140197 0.0624752 ) 71
( 0.468601 0.090169 0.0487733 ) 100
( 0.417436 -0.000692669 0.0572465 ) 72
( 0.443327 0.0273844 0.0509644 ) 81
( 0.364081 0.0342567 0.0540278 ) 79
( 0.414012 0.0522899 0.0544521 ) 89
( 0.455162 0.0609609 0.0467744 ) 91
( 0.285817 0.0516361 0.0564485 ) 85
( 0.405769 0.0864674 0.0555768 ) 98
( 0.270296 0.0250156 0.0533098 ) 75
( 0.254994 0.0604245 0.0563116 ) 84
( 0.405265 0.0356559 0.0601788 ) 80
( 0.344452 0.0332113 0.0557807 ) 78
( 0.490527 0.0903306 0.0544484 ) 101
( 0.398046 -0.00472466 0.05863 ) 71
( 0.419936 0.0707328 0.0690398 ) 90
( 0.382072 0.0400907 0.0598807 ) 79
( 0.286379 0.0676599 0.0258752 ) 53
( 0.426497 0.0361942 0.0558112 ) 81
( 0.375938 0.080811 0.0556507 ) 97
( 0.376831 0.0034508 0.0596479 ) 70
( 0.377375 0.0886878 0.0208313 ) 65
( 0.31268 0.0302047 0.0604481 ) 77
( 0.333993 0.0765149 0.0610046 ) 96
( 0.268838 0.0728786 0.0633793 ) 93
( 0.474111 0.0646295 0.0479901 ) 92
( 0.345595 0.0613011 0.0650829 ) 87
( 0.461353 0.00239474 0.060656 ) 73
( 0.450239 0.0905236 0.0563324 ) 100
( 0.443377 0.00830384 0.0552463 ) 72
( 0.311636 0.0697249 0.0522212 ) 86
( 0.389781 0.0556756 0.030454 ) 57
( 0.490258 -0.00518928 0.0539721 ) 74
( 0.400841 0.066496 0.0532681 ) 89
( 0.474619 0.0441762 0.0619903 ) 92
( 0.418739 0.0730042 0.0490269 ) 99
( 0.455083 0.0717519 0.0304468 ) 68
( 0.436554 0.0549277 0.0609278 ) 90
( 0.379414 0.0252441 0.0464838 ) 79
( 0.490406 0.0663124 0.0370807 ) 60
( 0.469202 0.0309933 0.0300708 ) 50
( 0.308708 0.0875626 0.0605817 ) 95
( 0.438133 0.074625 0.062116 ) 99
( 0.303305 0.0200586 0.0441179 ) 76
( 0.260199 0.0901145 0.0351181 ) 61
( 0.291769 0.0216712 0.0738465 ) 106
( 0.265481 0.0324808 0.0357374 ) 43
( 0.457886 0.0230838 0.0627188 ) 82
( 0.449459 0.0301337 0.0326484 ) 50
( 0.337558 0.054844 0.0487333 ) 87
( 0.4269 0.0169752 0.0494571 ) 81
( 0.292662 0.0733973 0.0438678 ) 94
( 0.395505 0.0473291 0.0476426 ) 89
( 0.341929 -0.0103196 0.0356679 ) 37
( 0.363557 0.0141767 0.049796 ) 70
( 0.366922 0.0906239 0.0391 ) 65
( 0.490507 0.0131837 0.0623189 ) 74
( 0.490591 0.0108852 0.0426462 ) 42
( 0.458416 0.0153288 0.0447791 ) 82
( 0.407771 0.0188132 0.050276 ) 80
( 0.40114 0.0536756 0.0716586 ) 119
( 0.391662 0.0106213 0.0433558 ) 71
( 0.383137 -0.00621345 0.038966 ) 38
( 0.425294 0.0469906 0.0393327 ) 58
( 0.470661 0.0844505 0.0302586 ) 68
( 0.438437 -0.00526765 0.0292737 ) 40
( 0.379422 0.0582678 0.0668664 ) 88
( 0.433596 0.0893775 0.0321247 ) 67
( 0.376569 0.0684997 0.0202441 ) 56
( 0.284605 0.0155 0.0410197 ) 44
( 0.301855 0.0401218 0.0479762 ) 76
( 0.376204 0.0443429 0.0415345 ) 56
( 0.345974 0.0901385 0.070352 ) 96
( 0.362474 0.0706167 0.0658365 ) 88
( 0.490105 0.0898691 0.0348373 ) 69
( 0.362261 0.0712947 0.0401717 ) 56
( 0.490566 0.051366 0.0527063 ) 92
( 0.273561 0.0684183 0.0447473 ) 84
( 0.43801 0.0604559 0.0261003 ) 58
( 0.326746 0.0900919 0.0484909 ) 95
( 0.490279 0.0320026 0.039994 ) 51
( 0.265015 0.0901381 0.0543785 ) 93
( 0.270204 0.042176 0.0643309 ) 75
( 0.323034 0.0610605 0.0660625 ) 86
( 0.341177 0.0741967 0.043107 ) 96
( 0.414608 0.0900338 0.0381803 ) 66
( 0.459985 0.0378682 0.0501879 ) 82
( 0.452919 -0.00396445 0.0427927 ) 41
( 0.408889 0.0565703 0.0362264 ) 57
( 0.484189 -0.00780547 0.0308902 ) 42
( 0.440983 0.0128277 0.0362333 ) 40
( 0.36007 0.045942 0.0689224 ) 87
( 0.39978 0.0733056 0.0351478 ) 66
( 0.288376 0.0703187 0.0628404 ) 85
( 0.395935 0.0729335 0.0707165 ) 98
( 0.47378 0.0121474 0.0333008 ) 42
( 0.41537 0.00498981 0.0382516 ) 39
( 0.318007 0.0899567 0.0305885 ) 63
( 0.327981 0.0248808 0.0495964 ) 77
( 0.473924 0.0595477 0.0287855 ) 60
( 0.363014 0.0278705 0.0352587 ) 47
( 0.476444 0.0809427 0.0637555 ) 101
( 0.475744 0.0235317 0.0693757 ) 83
( 0.282869 0.0900771 0.0344072 ) 62
( 0.421439 0.0708718 0.0295713 ) 58
( 0.452959 0.0901986 0.0369338 ) 68
( 0.409447 0.0357746 0.0403203 ) 48
( 0.32514 0.0642653 0.0366781 ) 54
( 0.424231 0.0900721 0.0705656 ) 99
( 0.458498 0.0735552 0.061433 ) 100
( 0.429796 0.028851 0.0336557 ) 49
( 0.296157 0.05525 0.037449 ) 53
( 0.425391 0.0121455 0.0702144 ) 72
( 0.292073 0.0893046 0.0725886 ) 124
( 0.304352 0.0546684 0.0630712 ) 85
( 0.404975 0.0901727 0.0749116 ) 128
( 0.355853 0.0267488 0.0703136 ) 78
( 0.365915 0.0901181 0.0710354 ) 97
( 0.37554 0.022494 0.065716 ) 79
( 0.390998 0.033854 0.0333466 ) 48
( 0.268388 0.0169294 0.0712225 ) 75
( 0.489909 0.0541998 0.0722429 ) 122
( 0.475826 0.0451705 0.041981 ) 60
( 0.29799 0.0322494 0.029185 ) 44
( 0.352687 0.0444813 0.0416199 ) 55
( 0.252393 0.0887487 0.0726098 ) 123
( 0.446376 0.0385793 0.0673565 ) 82
( 0.419004 0.04502 0.0716226 ) 120
( 0.327283 0.0417165 0.0666004 ) 77
( 0.445415 -0.00452597 0.0699556 ) 73
( 0.416971 0.0605261 0.0857621 ) 120
( 0.458099 0.0542976 0.0650798 ) 91
( 0.289437 0.0272103 0.055876 ) 76
( 0.374354 0.010815 0.0334118 ) 38
( 0.339706 0.0737703 0.0797332 ) 126
( 0.317689 0.0053806 0.0407882 ) 36
( 0.490736 0.0297912 0.0793287 ) 113
( 0.305225 0.0725823 0.0729666 ) 124
( 0.306905 0.0318716 0.0821376 ) 107
( 0.2509 0.0264953 0.0720105 ) 105
( 0.278051 0.0575535 0.0742387 ) 115
( 0.3919 0.030122 0.0735621 ) 110
( 0.490568 -0.0142536 0.0714886 ) 104
( 0.434651 0.0529507 0.0804163 ) 120
( 0.385828 0.0907782 0.0695695 ) 97
( 0.325137 0.0904164 0.0711038 ) 95
( 0.444545 0.0147188 0.0737134 ) 112
( 0.463316 -0.00902761 0.0768447 ) 103
( 0.377635 0.0751921 0.0768038 ) 127
( 0.443388 0.0458896 0.0447454 ) 90
( 0.44939 0.0699773 0.078258 ) 121
( 0.443504 0.0884933 0.0746268 ) 129
( 0.490725 0.0705848 0.0561048 ) 92
( 0.385455 0.0468298 0.0817271 ) 118
( 0.272283 0.0900828 0.0727809 ) 123
( 0.272883 0.0332727 0.0818145 ) 105
( 0.342584 0.0468743 0.0777818 ) 117
( 0.358851 0.0768924 0.0842108 ) 126
( 0.490087 0.0104928 0.0896828 ) 104
( 0.467367 0.038156 0.0792009 ) 112
( 0.314217 0.050108 0.0798134 ) 116
( 0.465273 0.0102394 0.0781302 ) 103
( 0.318532 0.0181141 0.074242 ) 107
( 0.370604 0.0340435 0.08087 ) 109
( 0.258526 0.0618363 0.0757585 ) 114
( 0.400015 0.0716206 0.089836 ) 128
( 0.287987 0.0725831 0.0826025 ) 124
( 0.462502 0.0905189 0.0720042 ) 130
( 0.49076 0.0754966 0.0751275 ) 131
( 0.417183 0.0803292 0.0873907 ) 129
( 0.431117 0.030118 0.0766634 ) 111
( 0.39292 0.0900813 0.0903652 ) 128
( 0.366479 0.0590905 0.0814396 ) 118
( 0.338944 0.0277081 0.0801948 ) 108
( 0.429833 -0.010852 0.0796565 ) 102
( 0.472933 0.0642313 0.0738456 ) 122
( 0.305356 0.0900627 0.0871864 ) 124
( 0.450944 0.0329254 0.0900737 ) 112
( 0.292655 0.0425097 0.0732179 ) 106
( 0.490287 0.0461808 0.0902454 ) 122
( 0.403244 0.0470047 0.0903107 ) 119
( 0.453643 0.0517127 0.0842611 ) 121
( 0.263119 0.0899065 0.090255 ) 123
( 0.410761 0.0281673 0.0774852 ) 110
( 0.264616 0.0498476 0.0902457 ) 114
( 0.320753 0.0715907 0.0849221 ) 125
( 0.477709 -0.0050894 0.0901009 ) 104
( 0.384647 0.024277 0.0905903 ) 109
( 0.330637 0.0555878 0.0905523 ) 116
( 0.269751 0.0707787 0.0901043 ) 114
( 0.346075 0.090309 0.0902443 ) 126
( 0.32445 0.0367987 0.0901971 ) 107
( 0.256339 0.0270871 0.0905706 ) 105
( 0.434037 0.0702291 0.090359 ) 120
( 0.465547 0.0725297 0.0901932 ) 130
( 0.356481 0.0173328 0.0901489 ) 108
( 0.434597 0.00548401 0.0884807 ) 102
( 0.289761 0.028623 0.0910892 ) 106
( 0.475187 0.0236857 0.090214 ) 113
( 0.49001 0.0900027 0.0900761 ) 131
( 0.283004 0.0900806 0.0902299 ) 124
( 0.382389 0.0637782 0.0911625 ) 118
( 0.451886 0.0131273 0.0912619 ) 103
( 0.303619 0.0629781 0.0902758 ) 115
( 0.486339 0.0658874 0.0906881 ) 122
( 0.422269 0.0419683 0.0905909 ) 111
( 0.284175 0.0474685 0.0902459 ) 115
( 0.471861 0.0531014 0.0907689 ) 121
( 0.349597 0.0604896 0.0905046 ) 117
( 0.372931 0.0900025 0.0900757 ) 127
( 0.324795 0.0901529 0.090545 ) 125
( 0.456481 0.090264 0.0904703 ) 130
( 0.421917 0.0197842 0.0906934 ) 111
( 0.326699 0.0172192 0.0911881 ) 107
( 0.353986 0.0370788 0.0905031 ) 108
( 0.433363 0.0905407 0.0906386 ) 129
)
