/*--------------------------------*- C++ -*----------------------------------*\
| =========                 |                                                 |
| \\      /  F ield         | OpenFOAM: The Open Source CFD Toolbox           |
|  \\    /   O peration     | Version:  4.x                                   |
|   \\  /    A nd           | Web:      www.OpenFOAM.org                      |
|    \\/     M anipulation  |                                                 |
\*---------------------------------------------------------------------------*/
FoamFile
{
    version     2.0;
    format      ascii;
    class       volScalarField;
    location    "49.5";
    object      KslPrev;
}
// * * * * * * * * * * * * * * * * * * * * * * * * * * * * * * * * * * * * * //

dimensions      [1 -3 -1 0 0 0 0];

internalField   nonuniform List<scalar> 
114
(
3616.91
36976.7
4121.97
1e+10
5630.07
60075.5
369937
3713.5
201913
3778.76
55768.3
4128.37
11779.1
4168.31
1e+10
4211.49
1e+10
4299.83
1e+10
4828.73
15151.8
7168.26
3072.78
7365.37
2937.78
7946.39
2768.41
9203.71
2440.23
8001.78
31738.5
3549.8
72230.2
3491.08
108369
3445.16
28482.1
3485
6714.02
1e+10
3737.18
1e+10
3687.46
146804
3559.65
32122.1
3608.7
12594.9
1e+10
3840.52
7715.57
3209.98
8152.59
3118.29
8807.51
3026.59
11013.8
2934.31
14583.1
15142.3
3474.51
18148.7
3348.36
22368.6
3235.09
23019.1
3052.21
11013.3
84465.3
3670.52
1e+10
3709.25
1e+10
3865.42
42199
4124.91
7504.25
53809.6
3607.41
89684.4
3504.51
4844.1
2735.34
4608.91
2542.53
4546.6
2268.29
4801.16
1802.79
5308.65
6123.9
2982.54
6000.32
2801.02
6132.68
2589.85
7065.71
2321.26
9769.48
7203.63
3124.49
7308.2
2978.67
7351.65
2758.83
7611.33
2319.55
7729.21
7374.99
3113.65
7620.2
3000.43
8167.63
2797.62
)
;

boundaryField
{
    inlet
    {
        type            zeroGradient;
    }
    outlet
    {
        type            zeroGradient;
    }
    wall
    {
        type            zeroGradient;
    }
    procBoundary5to1
    {
        type            processor;
        value           uniform 0;
    }
    procBoundary5to4
    {
        type            processor;
        value           uniform 0;
    }
    procBoundary5to7
    {
        type            processor;
        value           uniform 0;
    }
}


// ************************************************************************* //
