/*--------------------------------*- C++ -*----------------------------------*\
| =========                 |                                                 |
| \\      /  F ield         | OpenFOAM: The Open Source CFD Toolbox           |
|  \\    /   O peration     | Version:  4.x                                   |
|   \\  /    A nd           | Web:      www.OpenFOAM.org                      |
|    \\/     M anipulation  |                                                 |
\*---------------------------------------------------------------------------*/
FoamFile
{
    version     2.0;
    format      ascii;
    class       volScalarField;
    location    "34";
    object      Ksl;
}
// * * * * * * * * * * * * * * * * * * * * * * * * * * * * * * * * * * * * * //

dimensions      [1 -3 -1 0 0 0 0];

internalField   nonuniform List<scalar> 
87
(
3864.3
16879.8
3613.44
3254.13
6900.22
3179.35
3564.01
12210.3
3817.03
23544.7
3916.48
73558.3
3931.08
1e+10
3908.37
3479.93
10715.2
3669.54
15172.2
3756.96
23624.5
3782.37
50551.3
3774.17
3366.17
8104.04
3379.01
7848.31
3398.13
8015.21
3366.21
8075.39
3329.69
3513.83
10676.3
3703.08
15253.4
3752.03
24330.7
3784.01
54171.8
3750.35
3435.84
9133.09
3558.9
10057.5
3586.2
11094.5
3608.59
12859.4
3565.79
3356.52
7561.73
3298.51
6964.51
3265.14
6668.45
3223.82
6513.09
3162.05
3422.06
8145.61
3455.5
8239.15
3419.12
8422.48
3419.16
8996.38
3350.64
3364.85
7561.54
3335.9
7032.53
3279.97
6732.64
3244.81
6658.92
3168
3312.3
6978.44
3192.85
6014.24
3058.6
5469.82
3002.88
5203.29
2944.09
)
;

boundaryField
{
    inlet
    {
        type            zeroGradient;
    }
    outlet
    {
        type            zeroGradient;
    }
    wall
    {
        type            zeroGradient;
    }
    procBoundary6to0
    {
        type            processor;
        value           uniform 3916.39;
    }
    procBoundary6to2
    {
        type            processor;
        value           nonuniform List<scalar> 
32
(
3704.57
25094.2
3690.47
3268.75
6794.07
3169.46
3508.07
11433.5
3755.06
17275
3832.55
27697.8
3857.03
53894.9
53894.9
53894.9
3462.01
9989.41
3657.24
12182.4
3702.05
14533.1
3675.63
3675.63
3675.63
3357.24
8006.32
3392.89
7581.84
3344.87
7180.39
7180.39
)
;
    }
    procBoundary6to4
    {
        type            processor;
        value           nonuniform List<scalar> 
27
(
3491.91
11336.2
3797.9
19333.8
3891.13
47318.6
3904.42
2.12474e+06
3832.96
3494.1
10534.1
3705.78
14978.3
3775.13
21645.9
3744.21
31190.9
3651.25
3462.89
8497.09
3491.56
8643.42
3455.06
8302.36
3323.98
7684.87
3201.66
)
;
    }
    procBoundary6to7
    {
        type            processor;
        value           nonuniform List<scalar> 
12
(
191377
18617.2
6912.46
1e+10
519277
8712.42
1e+10
15058.1
6404.18
10033.8
6688.93
5097.46
)
;
    }
}


// ************************************************************************* //
