/*--------------------------------*- C++ -*----------------------------------*\
| =========                 |                                                 |
| \\      /  F ield         | OpenFOAM: The Open Source CFD Toolbox           |
|  \\    /   O peration     | Version:  4.x                                   |
|   \\  /    A nd           | Web:      www.OpenFOAM.org                      |
|    \\/     M anipulation  |                                                 |
\*---------------------------------------------------------------------------*/
FoamFile
{
    version     2.0;
    format      ascii;
    class       surfaceScalarField;
    location    "34";
    object      phi;
}
// * * * * * * * * * * * * * * * * * * * * * * * * * * * * * * * * * * * * * //

dimensions      [0 3 -1 0 0 0 0];

internalField   nonuniform List<scalar> 
192
(
1.44103e-07
-4.88305e-08
6.76757e-06
1.07879e-07
-1.12305e-07
1.5887e-07
-9.93645e-08
9.17438e-06
-2.50482e-07
9.20113e-06
-2.98815e-07
-2.15852e-07
7.29377e-06
3.79328e-07
3.3458e-08
7.00193e-06
1.56261e-07
-9.34622e-10
6.2409e-06
3.75294e-07
4.84048e-08
6.00611e-06
1.03864e-07
5.74095e-09
5.4806e-06
2.39193e-07
3.2424e-08
5.34388e-06
6.04308e-08
5.16498e-09
5.13035e-06
9.63315e-08
-3.40091e-08
5.04203e-06
2.79452e-08
1.49103e-08
-6.89263e-08
-9.52923e-08
7.63795e-06
4.87993e-07
5.5365e-08
7.41283e-06
1.96807e-07
5.88832e-09
6.90577e-06
4.79793e-07
9.48583e-08
6.71568e-06
1.4813e-07
-1.72352e-08
6.29566e-06
3.30206e-07
9.34495e-08
6.14784e-06
1.04973e-07
-1.96111e-08
5.77354e-06
2.41753e-07
6.8791e-08
5.64005e-06
7.38788e-08
-2.4741e-08
6.32704e-08
1.89447e-08
8.3148e-06
-2.48659e-08
8.33241e-06
-4.83701e-08
8.46595e-06
-2.31105e-08
8.408e-06
-8.39257e-08
8.41674e-06
-2.65915e-08
8.38158e-06
-1.12761e-07
8.42342e-06
-5.05718e-08
8.35659e-06
-1.58105e-07
-6.29849e-08
7.55678e-06
4.30321e-07
2.8823e-07
7.33706e-06
1.84602e-07
9.801e-08
6.80985e-06
4.40454e-07
2.7445e-07
6.65077e-06
1.31015e-07
7.54555e-08
6.2178e-06
3.36573e-07
2.17632e-07
6.07203e-06
9.35928e-08
5.39492e-08
5.69812e-06
2.32562e-07
1.25262e-07
5.56831e-06
6.30364e-08
6.61725e-08
1.42298e-07
3.6474e-08
7.95897e-06
4.52423e-07
2.37561e-07
7.84078e-06
2.08796e-07
9.98872e-08
7.6823e-06
4.39818e-07
2.53971e-07
7.58399e-06
1.51027e-07
6.10569e-08
7.4554e-06
3.45125e-07
2.13496e-07
7.33279e-06
1.40704e-07
5.58792e-08
7.15703e-06
2.85844e-07
1.9127e-07
7.07247e-06
1.04949e-07
1.79139e-08
1.94748e-07
1.01907e-07
8.44435e-06
1.46473e-07
8.55976e-06
4.50116e-08
8.83251e-06
1.43964e-07
8.85449e-06
4.51144e-08
9.04903e-06
1.24e-07
9.07852e-06
-1.54474e-09
9.23303e-06
8.07598e-08
9.23529e-06
-5.54181e-08
1.01244e-08
8.20344e-06
3.64267e-07
8.18577e-06
1.59125e-07
8.19478e-06
3.37993e-07
8.14307e-06
1.36544e-07
8.13854e-06
2.27345e-07
8.05994e-06
9.13081e-08
7.96855e-06
1.33113e-07
7.94429e-06
1.79372e-08
5.23e-08
8.41214e-06
3.52952e-07
8.50085e-06
1.70303e-07
8.74512e-06
3.47695e-07
8.77951e-06
1.63205e-07
8.95611e-06
2.6425e-07
8.98093e-06
1.22362e-07
9.09192e-06
2.13398e-07
9.0713e-06
5.64631e-08
1.03979e-07
8.66269e-06
8.878e-06
9.36966e-06
9.57798e-06
9.96623e-06
1.0087e-05
1.03812e-05
1.03823e-05
)
;

boundaryField
{
    inlet
    {
        type            calculated;
        value           uniform -8.16327e-06;
    }
    outlet
    {
        type            calculated;
        value           nonuniform 0();
    }
    wall
    {
        type            calculated;
        value           nonuniform List<scalar> 
57
(
0
0
0
0
0
0
0
0
0
0
0
0
1.2326e-32
0
0
0
0
0
0
0
0
0
0
0
0
0
0
0
0
0
0
0
0
0
0
0
0
0
-7.70372e-34
0
0
0
0
0
0
0
0
0
0
0
0
0
0
0
0
0
0
)
;
    }
    procBoundary6to0
    {
        type            processor;
        value           uniform -8.33813e-09;
    }
    procBoundary6to2
    {
        type            processor;
        value           nonuniform List<scalar> 
32
(
7.57259e-08
1.56608e-07
1.01785e-07
3.57676e-07
3.7995e-07
2.95568e-07
4.53693e-07
1.77901e-07
3.76926e-07
1.2899e-07
2.57827e-07
6.9669e-08
1.42878e-07
-5.53031e-06
-1.19958e-07
4.50279e-08
3.61284e-07
1.78691e-07
3.077e-07
1.63053e-07
2.35561e-07
1.22894e-07
-6.79979e-06
-2.99262e-07
1.6008e-07
3.61323e-07
2.27572e-07
3.69356e-07
2.90012e-07
3.48052e-07
-8.98231e-06
2.529e-07
)
;
    }
    procBoundary6to4
    {
        type            processor;
        value           nonuniform List<scalar> 
27
(
3.01423e-09
-4.13838e-08
-3.96008e-08
-3.80423e-09
-3.93358e-09
1.46317e-09
8.32828e-09
4.35105e-10
6.43033e-08
-7.86061e-08
-6.38242e-08
-1.39294e-07
-4.16528e-08
-8.8809e-08
3.39438e-09
-1.79259e-08
1.55189e-08
1.29369e-08
-1.16207e-07
-4.34454e-08
-7.25536e-08
-9.37778e-09
-5.18597e-09
4.12415e-08
8.35312e-08
7.25034e-08
1.14977e-07
)
;
    }
    procBoundary6to7
    {
        type            processor;
        value           nonuniform List<scalar> 
12
(
5.36765e-06
6.75038e-06
9.28028e-06
5.09311e-06
5.38954e-06
8.26699e-06
5.2813e-06
6.93705e-06
9.35693e-06
7.81348e-06
9.12153e-06
1.04964e-05
)
;
    }
}


// ************************************************************************* //
