/*--------------------------------*- C++ -*----------------------------------*\
| =========                 |                                                 |
| \\      /  F ield         | OpenFOAM: The Open Source CFD Toolbox           |
|  \\    /   O peration     | Version:  4.x                                   |
|   \\  /    A nd           | Web:      www.OpenFOAM.org                      |
|    \\/     M anipulation  |                                                 |
\*---------------------------------------------------------------------------*/
FoamFile
{
    version     2.0;
    format      ascii;
    class       volVectorField;
    location    "34";
    object      U;
}
// * * * * * * * * * * * * * * * * * * * * * * * * * * * * * * * * * * * * * //

dimensions      [0 1 -1 0 0 0 0];

internalField   nonuniform List<vector> 
87
(
(0.0276471 0.000147954 2.76276e-05)
(0.00629385 0.000437876 -0.000481817)
(0.0297972 0.000636474 -0.000312528)
(0.0326045 0.00059393 -0.000871423)
(0.0152508 0.000148283 -0.000993774)
(0.0332925 0.000226902 -0.000775816)
(0.0295423 0.000458838 -0.000606445)
(0.00870871 0.000296443 -0.000196844)
(0.0281456 0.000554646 -0.000475797)
(0.00455042 0.000166209 -0.000147092)
(0.0276713 0.00034116 -0.00035581)
(0.00144671 6.97478e-05 -5.09785e-05)
(0.0273175 -3.00327e-05 -0.000303962)
(5.92815e-09 -2.63925e-09 3.15016e-09)
(0.027182 -0.000386861 -0.000298493)
(0.0297893 0.00156836 -0.000415054)
(0.009818 0.000546349 -0.000229252)
(0.0291615 0.00147208 -0.000328864)
(0.00705323 0.000400365 -0.000250001)
(0.0287901 0.000969243 -0.000244683)
(0.00451993 0.000260787 -0.000196021)
(0.0284797 0.000559598 -0.00026252)
(0.00208915 0.000152815 -0.000129016)
(0.0283437 7.19959e-06 -0.000230043)
(0.0300916 0.00102082 -0.000520562)
(0.0126712 0.000508835 -0.000350376)
(0.0308015 0.00110911 -0.000540639)
(0.0133214 0.000404773 -0.000543355)
(0.0313158 0.000833516 -0.000546995)
(0.0132243 0.000315158 -0.000552211)
(0.0314989 0.000760946 -0.000484331)
(0.0129347 0.00025219 -0.00062394)
(0.0317583 0.000338502 -0.000394476)
(0.0296476 0.000754301 0.000783947)
(0.00987524 0.000328987 0.000192426)
(0.0289392 0.000846297 0.000742097)
(0.00698167 0.000237451 0.000178192)
(0.028547 0.000573756 0.00053201)
(0.00436886 6.11622e-05 7.89669e-05)
(0.0283217 0.00022021 0.000118484)
(0.00193449 -1.4172e-05 8.185e-05)
(0.0282241 1.47187e-05 -0.000225992)
(0.0298242 0.00154401 0.000708924)
(0.0114208 0.000665481 0.00026054)
(0.0298312 0.00153949 0.000841595)
(0.0105237 0.000477478 0.000155189)
(0.0298502 0.00126381 0.00075345)
(0.00954954 0.000449989 8.82291e-05)
(0.0297517 0.00105625 0.000639669)
(0.00819143 0.000357811 -7.42543e-06)
(0.0298996 0.000768314 0.000334295)
(0.0300083 0.000856478 0.000389227)
(0.0134333 0.000453869 9.1654e-05)
(0.031277 0.000832758 0.000417303)
(0.0149017 0.000344474 8.92336e-05)
(0.0321748 0.000619806 0.000401575)
(0.0156761 0.000318423 -6.60686e-05)
(0.032688 0.000509691 0.000208419)
(0.0160114 0.000215551 -0.000238285)
(0.0332024 0.000301645 4.90957e-05)
(0.0298818 0.000752271 0.000758259)
(0.0126157 0.000281175 0.000333715)
(0.0303851 0.000613627 0.000744656)
(0.0126958 0.000201015 0.000234183)
(0.0308024 0.000296416 0.000658857)
(0.0124466 7.88325e-06 0.000217517)
(0.0310134 -9.35092e-05 0.000572082)
(0.0115598 -0.000145355 0.000282823)
(0.0310302 -0.000189554 0.000421895)
(0.0299533 0.00118314 0.000553038)
(0.0134556 0.000568964 0.000274098)
(0.0310726 0.00121057 0.000530148)
(0.0147626 0.00054105 0.000176619)
(0.0320479 0.000949967 0.000413667)
(0.0155168 0.000491075 0.000217044)
(0.032461 0.000819737 0.000408593)
(0.0156239 0.000241175 0.000105033)
(0.0330027 0.000477087 0.000226334)
(0.0300325 0.000682345 0.000381768)
(0.014358 0.000338871 0.00014808)
(0.0319453 0.000661323 0.000355208)
(0.0169822 0.000343533 0.000155133)
(0.0336623 0.000494186 0.000273544)
(0.0189319 0.000179348 5.77217e-05)
(0.0346343 0.000344257 0.000230367)
(0.0198451 6.68278e-05 -6.28965e-05)
(0.0353221 9.37027e-05 6.17039e-06)
)
;

boundaryField
{
    inlet
    {
        type            fixedValue;
        value           uniform (0.01 0 0);
    }
    outlet
    {
        type            zeroGradient;
    }
    wall
    {
        type            fixedValue;
        value           uniform (0 0 0);
    }
    procBoundary6to0
    {
        type            processor;
        value           uniform (0.026926 -0.000100617 -4.48273e-05);
    }
    procBoundary6to2
    {
        type            processor;
        value           nonuniform List<vector> 
32
(
(0.0291565 -0.000283574 -0.00043454)
(0.00430714 0.000100968 -0.000366918)
(0.0296013 0.000434877 -0.000241031)
(0.0330049 0.000824321 -0.00105213)
(0.0156599 0.000246356 -0.00104306)
(0.0338624 0.000525942 -0.000814641)
(0.0297038 0.00065949 -0.00180878)
(0.00927818 0.00038774 -0.000759177)
(0.0289104 0.000931866 -0.00156018)
(0.00621061 0.000329181 -0.000551281)
(0.0283184 0.000752568 -0.00104782)
(0.00384876 0.000290425 -0.000327277)
(0.0280046 0.000444042 -0.000478518)
(0.00194416 0.000213409 -0.00024622)
(0.00194416 0.000213409 -0.00024622)
(0.00194416 0.000213409 -0.00024622)
(0.0297445 0.00143321 -0.00150125)
(0.0104891 0.000670215 -0.000727134)
(0.0295271 0.0015161 -0.00132982)
(0.00878036 0.000496462 -0.000632155)
(0.029327 0.00128895 -0.00103264)
(0.00736539 0.000427929 -0.000472844)
(0.0295022 0.00103106 -0.000610902)
(0.0295022 0.00103106 -0.000610902)
(0.0295022 0.00103106 -0.000610902)
(0.0300129 0.000957937 -0.00138039)
(0.0127892 0.000495647 -0.000860977)
(0.0310579 0.000996525 -0.00143447)
(0.0138666 0.000426644 -0.00101929)
(0.0318275 0.000826273 -0.0013312)
(0.0147075 0.000353976 -0.000821338)
(0.0147075 0.000353976 -0.000821338)
)
;
    }
    procBoundary6to4
    {
        type            processor;
        value           nonuniform List<vector> 
27
(
(0.0297081 -0.000462561 -0.000515145)
(0.00934849 -7.3512e-05 -0.000143599)
(0.028507 -0.000342032 -0.000216123)
(0.00554909 -0.000145219 -9.42984e-05)
(0.0278329 -0.000318704 -3.16989e-05)
(0.00225612 -7.83058e-05 4.03007e-05)
(0.0276192 -1.63725e-05 -3.0761e-05)
(4.93525e-05 -2.86152e-06 2.68777e-06)
(0.0275246 3.19575e-05 -0.000125932)
(0.0297166 -0.000329298 0.000422338)
(0.0100135 1.59808e-05 0.000344447)
(0.0289545 -8.84749e-05 0.000819526)
(0.00715696 -9.75038e-06 0.000246428)
(0.0286989 -8.75923e-05 0.000857074)
(0.00492494 -7.93863e-05 0.000273927)
(0.0287396 -0.000121081 0.000771069)
(0.00336456 -6.96124e-05 0.000204472)
(0.0288511 -8.4528e-05 0.000178399)
(0.0297246 -0.000134418 0.000551034)
(0.0121529 -4.85382e-05 0.000376711)
(0.0301325 -0.000221564 0.000792141)
(0.0121832 -0.000150339 0.000357419)
(0.0308492 -0.000268137 0.000751501)
(0.0126988 -0.000234961 0.000365968)
(0.0315346 -0.000363767 0.000765058)
(0.0134848 -0.000252043 0.000209046)
(0.0324109 -0.000439686 0.000422521)
)
;
    }
    procBoundary6to7
    {
        type            processor;
        value           nonuniform List<vector> 
12
(
(0.000535431 0.000109461 -8.78649e-05)
(0.0056471 0.000592767 -0.000584343)
(0.0152417 -4.03933e-05 -0.00125794)
(4.19912e-09 -2.15256e-09 4.44794e-09)
(0.000200765 2.22616e-05 -1.52439e-05)
(0.0119652 0.000224924 -0.000700773)
(7.46194e-09 -2.6136e-09 3.51605e-09)
(0.00696875 0.000341817 -8.15585e-06)
(0.0161925 2.88321e-05 -0.000394532)
(0.0102883 -0.000194071 0.000181151)
(0.0154309 0.000298747 -3.97935e-05)
(0.0201007 -0.000105098 -0.000190407)
)
;
    }
}


// ************************************************************************* //
