/*--------------------------------*- C++ -*----------------------------------*\
| =========                 |                                                 |
| \\      /  F ield         | OpenFOAM: The Open Source CFD Toolbox           |
|  \\    /   O peration     | Version:  4.x                                   |
|   \\  /    A nd           | Web:      www.OpenFOAM.org                      |
|    \\/     M anipulation  |                                                 |
\*---------------------------------------------------------------------------*/
FoamFile
{
    version     2.0;
    format      ascii;
    class       volScalarField;
    location    "40.5";
    object      Cs;
}
// * * * * * * * * * * * * * * * * * * * * * * * * * * * * * * * * * * * * * //

dimensions      [1 -3 0 0 0 0 0];

internalField   nonuniform List<scalar> 
114
(
335
335
335
335
334.999
334.992
335
335
334.999
334.998
334.997
334.994
334.968
335
334.999
334.998
334.997
334.994
334.99
334.985
334.908
335
335
335
335
335
335
334.999
334.999
334.905
335
335
335
334.999
334.999
334.998
334.997
334.996
334.971
335
335
334.999
334.999
334.998
334.996
334.994
334.992
334.966
335
335
335
335
335
335
335
335
335
335
334.886
335
335
335
335
335
334.999
334.999
334.999
334.945
335
335
335
334.999
334.999
334.998
334.997
334.996
334.972
335
335
335
334.999
335
335
335
335
335
335
335
335
335.564
335
335
335
335
335
335
335
335
334.863
335
335
335
335
335
335
334.999
334.999
334.816
335
335
335
335
335
335
)
;

boundaryField
{
    inlet
    {
        type            calculated;
        value           nonuniform 0();
    }
    outlet
    {
        type            calculated;
        value           uniform 335;
    }
    wall
    {
        type            calculated;
        value           nonuniform List<scalar> 
66
(
335
335
335
335
335
335
335
335
335
335
335
335
335
335
335
335
335
335
335
335
335
335
335
335
335
335
334.999
335
335
334.999
335.564
334.863
334.816
335
335
335
335
335
335
335
335
335
335
335
335
335
335
335
335
335
335
335
335
335
335
334.999
335
335
334.999
334.999
335
335
334.992
334.905
334.886
335.564
)
;
    }
    procBoundary5to1
    {
        type            processor;
        value           nonuniform List<scalar> 
32
(
335
335
335
334.999
334.999
334.877
335
335
334.999
334.998
334.996
334.996
334.883
335
334.999
334.998
334.996
334.993
334.989
334.987
334.927
335
335
335
335
335
335
335
335
335
335
335
)
;
    }
    procBoundary5to4
    {
        type            processor;
        value           nonuniform List<scalar> 
12
(
335
335
335
335
335
335
335
335
335
335
335
335
)
;
    }
    procBoundary5to7
    {
        type            processor;
        value           nonuniform List<scalar> 
44
(
335
334.999
334.998
334.997
334.993
334.989
334.982
334.949
335
335
334.999
334.998
334.997
334.994
334.991
334.987
334.959
335
334.999
334.999
334.999
334.998
334.999
334.998
334.996
334.994
334.968
335
335
335
334.999
334.999
334.999
334.998
334.999
334.999
334.798
335
335
335
335
335
334.999
335
)
;
    }
}


// ************************************************************************* //
