/*--------------------------------*- C++ -*----------------------------------*\
| =========                 |                                                 |
| \\      /  F ield         | OpenFOAM: The Open Source CFD Toolbox           |
|  \\    /   O peration     | Version:  4.x                                   |
|   \\  /    A nd           | Web:      www.OpenFOAM.org                      |
|    \\/     M anipulation  |                                                 |
\*---------------------------------------------------------------------------*/
FoamFile
{
    version     2.0;
    format      ascii;
    class       volScalarField;
    location    "40.5";
    object      magGField;
}
// * * * * * * * * * * * * * * * * * * * * * * * * * * * * * * * * * * * * * //

dimensions      [1 -2 -1 0 0 0 0];

internalField   nonuniform List<scalar> 
114
(
91.5
10.2117
78.109
3.28559e-05
53.7487
3.01875
4.31174e-05
88.2672
4.12258e-05
83.7611
3.15104
72.9777
21.7806
79.6753
3.92518e-05
78.2474
3.93279e-05
75.2774
3.98608e-05
65.0693
20.9754
45.1805
106.618
43.409
110.445
39.3619
115.584
32.9181
127.232
37.6276
10.194
92.5591
4.55188
93.428
3.18781
93.0734
11.4812
89.2732
46.1635
0.465467
88.3611
4.12516e-05
88.7042
1.71486
90.5095
8.72423
85.9014
23.8066
3.64853e-05
84.4124
41.6259
101.013
38.6317
102.437
34.8456
103.341
26.7079
101.722
18.5141
21.4216
94.5264
17.6894
96.6676
14.3651
98.82
14.1939
102.99
27.2831
3.87453
88.8392
3.76848e-05
86.9824
3.74738e-05
82.3724
9.06362
74.8199
42.1571
6.81401
89.1243
4.74417
90.5251
66.0538
117.212
68.8053
125.127
69.1594
140.526
65.2846
175.778
56.9658
52.3521
108.814
53.2793
114.57
51.3958
122.696
44.4637
135.885
30.5208
43.6618
103.13
42.686
107.269
42.5106
115.149
41.0323
134.724
40.4802
42.2916
102.248
40.3738
105.055
37.0271
110.512
)
;

boundaryField
{
    inlet
    {
        type            calculated;
        value           nonuniform 0();
    }
    outlet
    {
        type            calculated;
        value           nonuniform List<scalar> 
12
(
6.62451
47.891
46.299
82.6379
101.932
52.6437
40.7697
60.157
94.0366
124.885
67.2454
89.7861
)
;
    }
    wall
    {
        type            calculated;
        value           uniform 0;
    }
    procBoundary5to1
    {
        type            processor;
        value           nonuniform List<scalar> 
32
(
117.88
47.0754
123.746
40.568
131.52
37.7484
26.4699
107.691
26.4756
112.823
29.5044
120.335
41.1016
92.7217
8.46012
93.2066
9.35342
92.6028
16.4851
87.8024
38.893
38.0806
98.9481
26.5953
26.5953
26.5953
5.00369
89.5867
89.5867
89.5867
3.49274e-05
3.49274e-05
)
;
    }
    procBoundary5to4
    {
        type            processor;
        value           nonuniform List<scalar> 
12
(
102.969
91.7697
87.8879
84.1719
100.138
93.1698
88.7801
88.2535
111.37
104.88
100.346
99.8949
)
;
    }
    procBoundary5to7
    {
        type            processor;
        value           nonuniform List<scalar> 
44
(
86.9985
7.80538e-05
86.4871
4.02564e-05
84.3002
3.94743e-05
73.1257
11.9868
4.13781e-05
86.9985
3.90934e-05
84.747
3.69549e-05
83.5066
3.35042e-05
74.9246
20.209
3.77634e-05
3.90934e-05
83.2398
3.90934e-05
84.747
7.6863
91.4114
15.554
86.7198
43.6504
0.310722
86.5109
3.73307e-05
7.6863
85.757
7.6863
91.4114
35.1734
125.055
32.0931
35.7113
97.8916
32.0065
98.7474
29.7437
35.1734
101.683
)
;
    }
}


// ************************************************************************* //
