/*--------------------------------*- C++ -*----------------------------------*\
| =========                 |                                                 |
| \\      /  F ield         | OpenFOAM: The Open Source CFD Toolbox           |
|  \\    /   O peration     | Version:  4.x                                   |
|   \\  /    A nd           | Web:      www.OpenFOAM.org                      |
|    \\/     M anipulation  |                                                 |
\*---------------------------------------------------------------------------*/
FoamFile
{
    version     2.0;
    format      ascii;
    class       volScalarField;
    location    "17";
    object      Cs;
}
// * * * * * * * * * * * * * * * * * * * * * * * * * * * * * * * * * * * * * //

dimensions      [1 -3 0 0 0 0 0];

internalField   nonuniform List<scalar> 
108
(
335
335
335
335
334.999
334.998
334.995
334.992
334.986
335
335
335
334.999
334.998
334.995
334.989
334.979
334.971
335
335
334.999
334.999
334.998
334.994
334.987
334.977
334.967
335
335
334.999
334.999
334.997
334.994
334.986
334.975
334.963
335
335
335
334.999
334.999
334.999
334.997
334.995
334.992
335
335
335
334.999
334.999
334.997
334.994
334.988
334.981
335
335
335
334.999
334.998
334.996
334.992
334.986
334.978
335
335
334.999
334.999
334.998
334.996
334.991
334.983
334.972
335
335
334.999
334.999
334.999
334.998
334.996
334.995
334.993
335
335
335
334.999
334.999
334.998
334.997
334.995
334.991
335
335
334.999
334.999
334.999
334.998
334.996
334.993
334.989
335
335
335
334.999
334.999
334.998
334.995
334.992
334.985
)
;

boundaryField
{
    inlet
    {
        type            calculated;
        value           uniform 335;
    }
    outlet
    {
        type            calculated;
        value           nonuniform 0();
    }
    wall
    {
        type            calculated;
        value           nonuniform List<scalar> 
63
(
335
335
335
335
335
335
335
335
334.999
335
334.999
335
334.999
334.999
334.999
334.999
334.999
334.999
334.999
334.999
334.998
334.998
334.998
334.998
334.996
334.997
334.996
334.995
334.995
334.995
334.993
334.992
334.993
334.991
334.989
334.985
335
335
335
335
335
335
335
335
334.999
335
334.999
334.999
334.999
334.999
334.999
334.998
334.999
334.998
334.995
334.997
334.996
334.992
334.995
334.995
334.986
334.992
334.993
)
;
    }
    procBoundary4to0
    {
        type            processor;
        value           nonuniform List<scalar> 
36
(
335
335
335
335
334.999
334.998
334.994
334.989
334.984
335
335
335
334.999
334.998
334.995
334.988
334.975
334.97
335
335
334.999
334.999
334.998
334.994
334.985
334.973
334.96
335
335
334.999
334.999
334.998
334.993
334.984
334.971
334.955
)
;
    }
    procBoundary4to5
    {
        type            processor;
        value           nonuniform List<scalar> 
12
(
334.982
334.967
334.96
334.953
334.988
334.974
334.97
334.963
334.99
334.986
334.983
334.979
)
;
    }
    procBoundary4to6
    {
        type            processor;
        value           nonuniform List<scalar> 
27
(
335
335
334.999
334.999
334.997
334.991
334.979
334.965
334.954
335
335
334.999
334.999
334.998
334.996
334.991
334.984
334.975
335
335
334.999
334.999
334.999
334.998
334.996
334.992
334.987
)
;
    }
}


// ************************************************************************* //
