/*--------------------------------*- C++ -*----------------------------------*\
| =========                 |                                                 |
| \\      /  F ield         | OpenFOAM: The Open Source CFD Toolbox           |
|  \\    /   O peration     | Version:  4.x                                   |
|   \\  /    A nd           | Web:      www.OpenFOAM.org                      |
|    \\/     M anipulation  |                                                 |
\*---------------------------------------------------------------------------*/
FoamFile
{
    version     2.0;
    format      ascii;
    class       volVectorField;
    location    "17";
    object      GField;
}
// * * * * * * * * * * * * * * * * * * * * * * * * * * * * * * * * * * * * * //

dimensions      [1 -2 -1 0 0 0 0];

internalField   nonuniform List<vector> 
108
(
(94.5226 -3.36 -2.57152)
(42.0542 -1.72423 -1.82828)
(95.426 -3.61859 -3.01161)
(43.7419 -1.6725 -2.13987)
(96.6049 -2.45644 -2.36298)
(43.8318 -0.954503 -2.06891)
(97.1675 -1.99541 -2.68855)
(42.7489 -1.27868 -2.59599)
(97.7 -2.77371 -1.40744)
(92.5908 -4.5321 -2.55137)
(34.2183 -2.01687 -1.51962)
(89.6165 -4.18039 -3.31584)
(25.2059 -1.28497 -1.49835)
(87.4251 -2.56033 -2.43216)
(19.5684 -0.737171 -1.07672)
(87.1098 -2.49409 -1.90475)
(14.0137 -0.785708 -0.904165)
(86.5384 -3.04438 0.817971)
(92.2664 -2.43873 -2.80981)
(32.5274 -1.45839 -1.67304)
(87.8367 -2.1805 -3.28638)
(23.1551 -1.04471 -1.32715)
(85.7314 -2.21878 -2.07517)
(18.0665 -1.03256 -0.959809)
(85.007 -1.66301 -1.334)
(11.471 -0.617947 -0.637254)
(84.3849 -1.32702 1.52617)
(92.1915 -1.62776 -3.1826)
(33.2839 -0.304445 -1.64002)
(87.1236 -1.34293 -3.3405)
(24.2185 -0.561939 -1.65453)
(84.3267 -1.79009 -2.44341)
(15.8892 -0.402599 -0.894623)
(82.3052 -0.273193 -1.07159)
(9.68568 -0.209544 -0.454152)
(81.8878 1.97708 1.61585)
(94.3802 -3.39267 0.816482)
(43.7325 -1.85341 0.357934)
(96.5683 -4.05398 0.970406)
(47.5983 -2.00906 -0.375311)
(98.6898 -3.26672 0.314995)
(50.355 -1.67216 -0.589775)
(100.865 -3.03605 0.610199)
(51.3871 -1.61384 -0.399369)
(102.015 -1.61885 1.0352)
(93.758 -4.25866 1.31778)
(36.1793 -2.16475 0.466345)
(91.8326 -4.40571 1.88644)
(28.6608 -1.33762 0.134124)
(89.611 -2.84044 0.827984)
(22.6121 -0.701121 -0.243177)
(88.8767 -2.24335 1.4418)
(15.4634 -0.42757 0.000221872)
(88.2935 -1.01986 3.35184)
(92.9092 -3.16901 1.45003)
(34.3577 -1.54408 0.5105)
(89.1632 -2.43078 1.45347)
(25.2341 -1.09666 0.274156)
(87.1177 -1.69938 0.725283)
(19.5569 -0.860764 0.0768026)
(87.3255 -0.690283 2.19437)
(14.49 -0.686483 0.435438)
(88.0285 -1.0938 4.10942)
(91.7236 -1.27752 0.258497)
(33.1267 -0.152835 0.419357)
(87.6794 -0.370701 0.0866208)
(24.3812 -0.218541 0.000669331)
(84.8359 -0.616608 0.968047)
(17.4077 -0.520705 0.314367)
(83.4214 -1.06268 2.27495)
(12.0869 -0.505697 0.235313)
(82.9702 -0.504862 4.95069)
(94.8664 -2.84615 0.663955)
(47.0399 -1.70152 0.408441)
(99.8668 -2.81373 0.848267)
(54.8003 -1.34851 -0.178279)
(102.885 -2.10414 -0.0428655)
(58.7718 -1.13555 -0.792925)
(104.783 -1.6679 0.233828)
(61.5421 -1.45131 -0.265175)
(107.93 -1.39749 0.161268)
(94.1436 -3.99245 1.20161)
(42.7477 -2.20801 0.621823)
(95.7377 -3.97355 2.14478)
(47.3118 -1.52081 0.671029)
(97.9055 -2.65767 1.2449)
(48.7528 -1.08587 -0.00502916)
(98.7146 -1.61977 1.79212)
(50.1114 -0.991579 0.224773)
(100.261 -1.17933 0.844126)
(93.0325 -3.49673 0.949724)
(40.1833 -1.78873 0.640861)
(92.9796 -4.1088 1.43703)
(40.281 -1.98266 0.46012)
(93.8128 -2.47114 0.592653)
(39.1936 -1.10112 -0.217722)
(94.4297 -1.1186 1.41669)
(41.2055 -1.36989 0.191145)
(96.3314 -0.513854 0.662348)
(92.0498 -0.971953 0.83106)
(36.9835 -0.530539 0.531932)
(90.7647 -1.80476 0.522168)
(30.6178 -0.846737 0.211982)
(89.0995 -1.16953 0.695055)
(28.3275 -0.743008 0.401058)
(89.823 -1.35898 1.78264)
(29.5511 -0.86424 0.498904)
(90.4997 -0.468219 2.15316)
)
;

boundaryField
{
    inlet
    {
        type            calculated;
        value           uniform (67 0 0);
    }
    outlet
    {
        type            calculated;
        value           nonuniform 0();
    }
    wall
    {
        type            calculated;
        value           uniform (0 0 0);
    }
    procBoundary4to0
    {
        type            processor;
        value           nonuniform List<vector> 
36
(
(95.1213 -3.3443 -4.22988)
(42.5994 -1.77331 -2.92106)
(97.3931 -3.46233 -4.45519)
(45.8734 -1.48687 -2.92082)
(99.5474 -2.52819 -3.63421)
(46.9265 -1.21071 -2.83514)
(101.534 -2.87984 -3.67642)
(49.7626 -1.32068 -3.38726)
(104.818 -2.38749 -3.22218)
(93.9667 -3.91963 -4.95012)
(34.9674 -1.79945 -2.79706)
(91.9442 -3.72633 -5.29146)
(29.7342 -1.14855 -2.28826)
(90.9447 -2.55692 -3.75418)
(25.3362 -0.641803 -1.77744)
(90.5731 -2.63766 -2.62183)
(20.0211 -0.556517 -1.39079)
(91.2853 -2.22513 -1.30986)
(92.9442 -2.5041 -4.91078)
(34.587 -1.37214 -2.81065)
(90.1518 -2.29562 -4.70587)
(27.3281 -0.956305 -1.96525)
(88.7927 -1.6482 -2.77313)
(21.8171 -0.909394 -1.4555)
(88.9997 -1.28376 -1.06392)
(18.2937 -1.13378 -1.06787)
(90.3687 -1.35214 -0.649826)
(92.5506 -0.859627 -4.59183)
(34.086 -0.148937 -2.95289)
(88.6706 -0.0435748 -4.83233)
(25.7606 0.186078 -2.21596)
(87.1645 -0.0690641 -3.46748)
(19.8025 0.0787596 -1.71054)
(86.1153 -1.06275 -1.46914)
(15.0061 -0.0692652 -1.01812)
(85.7533 0.334231 -0.684891)
)
;
    }
    procBoundary4to5
    {
        type            processor;
        value           nonuniform List<vector> 
12
(
(42.6514 -2.1851 -1.8387)
(6.45792 -0.718605 -0.261955)
(0.418776 -0.042043 -0.0142921)
(-0.00150155 -8.78765e-05 -0.00027171)
(50.8354 -1.94192 -0.284922)
(13.3411 -0.69554 0.289222)
(13.2561 -1.48899 0.951131)
(9.65899 -0.563595 0.613294)
(63.6134 -1.71314 -0.980497)
(51.7439 -1.82869 -0.0822844)
(43.5706 -2.47987 -0.0863685)
(34.692 -1.57388 1.563)
)
;
    }
    procBoundary4to6
    {
        type            processor;
        value           nonuniform List<vector> 
27
(
(90.1529 1.27759 -3.11282)
(29.8124 0.844771 -1.52678)
(85.6926 1.58186 -3.55181)
(17.2732 0.401528 -1.28719)
(82.212 0.944718 -2.41249)
(5.93614 0.125558 -0.522493)
(80.4254 -0.322525 -0.707753)
(-0.00107161 -0.00025272 -0.000192602)
(79.1794 1.80267 1.33237)
(90.8837 2.02615 2.04777)
(33.5954 0.912267 0.318737)
(87.9965 2.06108 1.08774)
(26.2066 0.740919 0.165401)
(86.829 1.3837 1.50472)
(20.7224 0.395447 0.0673444)
(86.4122 0.654873 1.37658)
(13.4821 0.247418 0.332962)
(86.0114 -0.736353 2.04784)
(93.2722 2.50071 1.27058)
(39.3943 0.955587 0.263002)
(92.2387 2.40787 0.0289704)
(34.3845 0.725421 -0.261122)
(90.6052 0.599111 -0.0103935)
(31.2891 -0.0247632 -0.133279)
(89.9601 0.406373 1.31008)
(29.5747 0.100232 0.435476)
(91.1722 -0.30423 1.04794)
)
;
    }
}


// ************************************************************************* //
