/*--------------------------------*- C++ -*----------------------------------*\
| =========                 |                                                 |
| \\      /  F ield         | OpenFOAM: The Open Source CFD Toolbox           |
|  \\    /   O peration     | Version:  4.x                                   |
|   \\  /    A nd           | Web:      www.OpenFOAM.org                      |
|    \\/     M anipulation  |                                                 |
\*---------------------------------------------------------------------------*/
FoamFile
{
    version     2.0;
    format      ascii;
    class       volScalarField;
    location    "17";
    object      magGField;
}
// * * * * * * * * * * * * * * * * * * * * * * * * * * * * * * * * * * * * * //

dimensions      [1 -2 -1 0 0 0 0];

internalField   nonuniform List<scalar> 
108
(
94.6172
42.1292
95.5421
43.8262
96.665
43.891
97.2251
42.8467
97.7495
92.7367
34.3113
89.7752
25.2831
87.4964
19.6119
87.1663
14.0648
86.5958
92.3413
32.603
87.9252
23.2166
85.7852
18.1215
85.0338
11.5053
84.4091
92.2608
33.3256
87.1979
24.2815
84.3811
15.9194
82.3126
9.69858
81.9276
94.4447
43.7732
96.6582
47.6422
98.7443
50.3862
100.913
51.414
102.033
93.8639
36.247
91.9576
28.6923
89.6598
22.6243
88.9167
15.4693
88.3629
92.9745
34.3962
89.2082
25.2594
87.1373
19.576
87.3558
14.5128
88.1311
91.7329
33.1297
87.6802
24.3822
84.8437
17.4183
83.4592
12.0997
83.1193
94.9114
47.0725
99.91
54.8172
102.907
58.7881
104.796
61.5598
107.939
94.2359
42.8092
95.8441
47.341
97.9494
48.7649
98.7441
50.1217
100.271
93.103
40.2282
93.0814
40.3324
93.8472
39.2096
94.447
41.2287
96.335
92.0587
36.9911
90.7841
30.6303
89.1099
28.3401
89.851
29.5679
90.5265
)
;

boundaryField
{
    inlet
    {
        type            calculated;
        value           uniform 67;
    }
    outlet
    {
        type            calculated;
        value           nonuniform 0();
    }
    wall
    {
        type            calculated;
        value           uniform 0;
    }
    procBoundary4to0
    {
        type            processor;
        value           nonuniform List<scalar> 
36
(
95.274
42.7363
97.5564
45.9903
99.6458
47.0277
101.641
49.8952
104.895
94.1786
35.1252
92.1716
29.8443
91.0581
25.4066
90.6495
20.0771
91.3218
93.1076
34.7281
90.3037
27.4154
88.8513
21.8845
89.0154
18.3599
90.3811
92.6684
34.214
88.8022
25.8564
87.2335
19.8764
86.1344
15.0408
85.7566
)
;
    }
    procBoundary4to5
    {
        type            processor;
        value           nonuniform List<scalar> 
12
(
42.7469
6.50305
0.421124
0.00152846
50.8733
13.3623
13.3733
9.69484
63.644
51.7763
43.6412
34.7629
)
;
    }
    procBoundary4to6
    {
        type            processor;
        value           nonuniform List<scalar> 
27
(
90.2156
29.8634
85.7808
17.3257
82.2528
5.96041
80.4291
0.00111773
79.2112
90.9293
33.6093
88.0274
26.2176
86.8531
20.7263
86.4256
13.4885
86.0389
93.3144
39.4067
92.2701
34.3931
90.6072
31.2893
89.9706
29.578
91.1787
)
;
    }
}


// ************************************************************************* //
