/*--------------------------------*- C++ -*----------------------------------*\
| =========                 |                                                 |
| \\      /  F ield         | OpenFOAM: The Open Source CFD Toolbox           |
|  \\    /   O peration     | Version:  4.x                                   |
|   \\  /    A nd           | Web:      www.OpenFOAM.org                      |
|    \\/     M anipulation  |                                                 |
\*---------------------------------------------------------------------------*/
FoamFile
{
    version     2.0;
    format      ascii;
    class       volScalarField;
    location    "17";
    object      QWallFluidCoeff;
}
// * * * * * * * * * * * * * * * * * * * * * * * * * * * * * * * * * * * * * //

dimensions      [1 -1 -3 -1 0 0 0];

internalField   nonuniform List<scalar> 
108
(
-2.7194e+06
-1.42352e+06
-2.74065e+06
-1.46921e+06
-2.76639e+06
-1.47095e+06
-2.7792e+06
-1.44288e+06
-2.79119e+06
0
0
0
0
0
0
0
0
0
0
0
0
0
0
0
0
0
0
0
0
0
0
0
0
0
0
0
-2.71544e+06
-1.46779e+06
-2.76623e+06
-1.57069e+06
-2.81389e+06
-1.64266e+06
-2.86322e+06
-1.66941e+06
-2.88861e+06
0
0
0
0
0
0
0
0
0
0
0
0
0
0
0
0
0
0
0
0
0
0
0
0
0
0
0
-5.45233e+06
-3.11129e+06
-5.68087e+06
-3.51448e+06
-5.81677e+06
-3.71671e+06
-5.90206e+06
-3.85625e+06
-6.04324e+06
-2.71063e+06
-1.44187e+06
-2.74758e+06
-1.56274e+06
-2.79575e+06
-1.60023e+06
-2.81389e+06
-1.63576e+06
-2.84864e+06
-2.68453e+06
-1.3719e+06
-2.68403e+06
-1.37474e+06
-2.70168e+06
-1.34404e+06
-2.71549e+06
-1.39913e+06
-2.75883e+06
-2.66041e+06
-1.28285e+06
-2.63091e+06
-1.10311e+06
-2.59202e+06
-1.03662e+06
-2.60925e+06
-1.07239e+06
-2.62493e+06
)
;

boundaryField
{
    inlet
    {
        type            calculated;
        value           uniform 0;
    }
    outlet
    {
        type            calculated;
        value           nonuniform 0();
    }
    wall
    {
        type            calculated;
        value           uniform 0;
    }
    procBoundary4to0
    {
        type            processor;
        value           uniform 0;
    }
    procBoundary4to5
    {
        type            processor;
        value           uniform 0;
    }
    procBoundary4to6
    {
        type            processor;
        value           uniform 0;
    }
}


// ************************************************************************* //
