/*--------------------------------*- C++ -*----------------------------------*\
| =========                 |                                                 |
| \\      /  F ield         | OpenFOAM: The Open Source CFD Toolbox           |
|  \\    /   O peration     | Version:  4.x                                   |
|   \\  /    A nd           | Web:      www.OpenFOAM.org                      |
|    \\/     M anipulation  |                                                 |
\*---------------------------------------------------------------------------*/
FoamFile
{
    version     2.0;
    format      ascii;
    class       volVectorField;
    location    "17";
    object      Urel;
}
// * * * * * * * * * * * * * * * * * * * * * * * * * * * * * * * * * * * * * //

dimensions      [0 1 -1 0 0 0 0];

internalField   nonuniform List<vector> 
108
(
(-0.0231709 0.000622793 0.000705024)
(-0.0213278 0.000561956 0.00067147)
(-0.0222013 0.000576673 0.000673671)
(-0.0207847 0.000487421 0.000607851)
(-0.0219157 0.000452723 0.00054762)
(-0.0205971 0.000413732 0.000474743)
(-0.0218712 0.000454155 0.000400669)
(-0.0205884 0.000437132 0.000289844)
(-0.0219872 0.000498452 0.00014098)
(-0.0229856 0.000582773 0.000712315)
(-0.0209521 0.000508728 0.000670802)
(-0.0217312 0.000519251 0.00067946)
(-0.0199839 0.000425316 0.000585031)
(-0.0211736 0.000411927 0.000519626)
(-0.0195473 0.000365531 0.000417636)
(-0.0209297 0.000405533 0.000317336)
(-0.0192567 0.000366245 0.00019142)
(-0.0208016 0.000415118 2.41008e-05)
(-0.0228177 0.000387394 0.000730532)
(-0.0206962 0.000341616 0.000683698)
(-0.0213865 0.000336013 0.000687889)
(-0.0195218 0.000296092 0.000578063)
(-0.0206558 0.00030896 0.000495302)
(-0.0189278 0.000274855 0.000377047)
(-0.0202547 0.000290926 0.000242463)
(-0.0184707 0.000250202 0.000122727)
(-0.0199341 0.000245963 -5.63144e-05)
(-0.0227358 0.000138961 0.000754724)
(-0.0205986 0.000108935 0.000701036)
(-0.0212371 0.000117107 0.000711598)
(-0.0193527 0.000119397 0.00059881)
(-0.0203955 0.00016474 0.000506671)
(-0.0185767 0.000127485 0.000371262)
(-0.0198565 0.000115789 0.000221005)
(-0.0180132 7.73173e-05 0.000100477)
(-0.0194583 2.03453e-05 -8.2301e-05)
(-0.0232304 0.000640274 0.000365084)
(-0.0214486 0.000583219 0.000362099)
(-0.0223552 0.000607032 0.000342125)
(-0.0210436 0.000510046 0.000347385)
(-0.0221709 0.000475601 0.000303533)
(-0.020955 0.00042499 0.000263294)
(-0.0221823 0.00044316 0.000162167)
(-0.0210053 0.000415457 8.80169e-05)
(-0.0223556 0.00043544 -4.0429e-05)
(-0.0230615 0.000599804 0.00035467)
(-0.021083 0.000532673 0.000353795)
(-0.0218981 0.000549249 0.000319969)
(-0.0202201 0.00044346 0.000319949)
(-0.0214166 0.000418675 0.000276114)
(-0.0198544 0.000360552 0.000217621)
(-0.0212341 0.000374587 8.80934e-05)
(-0.0196544 0.000338257 1.23552e-05)
(-0.0212234 0.000361695 -0.000170974)
(-0.022879 0.000420038 0.000363551)
(-0.0208034 0.000367004 0.000363404)
(-0.0215189 0.000366913 0.000339186)
(-0.0196926 0.000314857 0.000316443)
(-0.020845 0.000307635 0.000258444)
(-0.0191646 0.000268613 0.000179317)
(-0.0205347 0.000265091 2.31583e-05)
(-0.0188533 0.000244556 -4.92676e-05)
(-0.0204083 0.00025113 -0.000239766)
(-0.022784 0.000142061 0.000396947)
(-0.0206603 0.000115876 0.000387755)
(-0.0213199 0.000119396 0.00039019)
(-0.0194502 0.000121428 0.000336878)
(-0.0205338 0.000142098 0.000253368)
(-0.0187839 0.000129858 0.00016355)
(-0.0201033 0.000126891 2.02541e-06)
(-0.0183666 0.0001094 -6.52492e-05)
(-0.0198724 0.000105282 -0.000275391)
(-0.0233287 0.000631231 0.000223923)
(-0.0216497 0.000579411 0.000224969)
(-0.0226054 0.000581032 0.000208207)
(-0.0214567 0.000494561 0.000232115)
(-0.0225728 0.000461322 0.000218002)
(-0.0215137 0.000407767 0.000186034)
(-0.0226811 0.000410396 8.71088e-05)
(-0.0216865 0.000396593 2.24861e-05)
(-0.0229612 0.000398841 -6.30778e-05)
(-0.0231737 0.000602385 0.000207949)
(-0.0213496 0.000541485 0.000210768)
(-0.0222143 0.00055434 0.000169592)
(-0.0208625 0.000454591 0.000196145)
(-0.0219596 0.000429521 0.000180567)
(-0.020696 0.000361472 0.000138151)
(-0.0219194 0.000352487 2.17563e-05)
(-0.0207397 0.000333064 -3.54287e-05)
(-0.0220947 0.000341884 -0.000145664)
(-0.0229868 0.000437952 0.000219545)
(-0.0210498 0.000390077 0.00022102)
(-0.0218151 0.000423414 0.00019588)
(-0.0202426 0.000349579 0.000201902)
(-0.0213186 0.000326942 0.000182841)
(-0.0198584 0.000274897 0.000116293)
(-0.0211461 0.000263271 -1.84404e-05)
(-0.0198291 0.000254306 -7.77846e-05)
(-0.02124 0.000245206 -0.000196688)
(-0.0228854 0.000142975 0.000235672)
(-0.0208576 0.000134069 0.000244191)
(-0.0215552 0.000164146 0.000246275)
(-0.0197775 0.000147944 0.000225669)
(-0.0208914 0.000157771 0.00017918)
(-0.0192744 0.000142117 9.77466e-05)
(-0.0206125 0.000143712 -3.89038e-05)
(-0.0191286 0.000128425 -0.000101632)
(-0.0206192 0.000124588 -0.000247841)
)
;

boundaryField
{
    inlet
    {
        type            calculated;
        value           nonuniform List<vector> 
12
(
(-0.00999994 6.75817e-08 -8.74196e-08)
(-0.01 3.23077e-07 6.96151e-08)
(-0.0100001 -6.14821e-08 2.69633e-07)
(-0.00999998 -6.69694e-08 3.65155e-07)
(-0.01 -3.40636e-08 -2.3763e-08)
(-0.0100001 -1.71691e-07 4.48725e-08)
(-0.0100002 -1.10857e-07 3.42818e-07)
(-0.00999995 -3.1908e-07 -1.13475e-07)
(-0.00999999 -9.89691e-08 -1.07653e-08)
(-0.01 -2.5414e-07 -1.08081e-08)
(-0.0100002 -7.82208e-07 6.55394e-07)
(-0.0100002 -1.45448e-06 -3.31766e-07)
)
;
    }
    outlet
    {
        type            calculated;
        value           nonuniform 0();
    }
    wall
    {
        type            calculated;
        value           nonuniform List<vector> 
63
(
(1.07335e-08 -9.89691e-08 -1.07653e-08)
(9.18866e-10 -2.5414e-07 -1.08081e-08)
(-2.39057e-07 -7.82208e-07 6.55394e-07)
(-2.27734e-07 -1.45448e-06 -3.31766e-07)
(-1.83043e-08 -2.22042e-07 5.20943e-08)
(-6.97772e-08 -4.01031e-07 8.12026e-08)
(-2.44676e-07 -6.34494e-07 2.74276e-07)
(-2.29472e-07 -8.54796e-07 7.45006e-08)
(-1.33727e-07 -1.28406e-07 5.398e-08)
(-2.45323e-07 -3.97541e-07 4.17914e-08)
(-1.90843e-07 -6.0471e-07 6.56402e-08)
(-3.74009e-07 -9.48304e-07 2.52512e-07)
(-4.65258e-07 -1.67631e-08 7.91801e-08)
(-4.80161e-07 -3.2245e-07 1.64063e-08)
(-5.86247e-07 -6.49172e-07 -1.37318e-08)
(-4.54081e-07 -1.04682e-06 1.10556e-07)
(-5.64561e-07 -6.4046e-08 9.68589e-08)
(-6.42969e-07 -1.12221e-07 4.96434e-08)
(-1.69857e-06 -3.83953e-07 -1.39284e-07)
(-6.35359e-07 -6.86576e-07 2.47759e-07)
(-6.10623e-07 -1.34633e-07 4.16455e-08)
(-1.49623e-06 -2.25836e-07 1.58934e-07)
(-2.20872e-06 -4.09191e-07 2.55276e-07)
(-1.16801e-06 -6.58268e-07 2.39729e-08)
(-7.37879e-07 -5.22051e-08 1.52975e-07)
(-1.16617e-06 -1.1962e-07 9.89527e-08)
(-1.46635e-06 -4.44313e-07 2.11765e-07)
(-1.58562e-06 -1.26383e-06 -4.07622e-08)
(-6.75204e-07 4.09366e-09 8.80973e-08)
(-1.09057e-06 2.16402e-08 1.83368e-07)
(-1.45747e-06 -4.0874e-07 -1.55367e-07)
(-1.98356e-06 -8.53569e-07 -2.07037e-07)
(-7.95391e-07 -1.00327e-07 1.00837e-08)
(-1.24139e-06 -1.61096e-07 2.63767e-07)
(-1.72948e-06 -9.6743e-08 -1.3068e-07)
(-2.06853e-06 -9.69652e-07 -2.0222e-08)
(6.06823e-08 6.75817e-08 -8.74196e-08)
(-3.23848e-09 -3.40636e-08 -2.3763e-08)
(1.07335e-08 -9.89691e-08 -1.07653e-08)
(-8.72606e-08 -8.72931e-08 1.82922e-07)
(-7.0112e-08 -1.23173e-07 5.82927e-08)
(-1.83043e-08 -2.22042e-07 5.20943e-08)
(-3.02174e-07 -2.35626e-07 -7.61759e-08)
(-2.26863e-07 -1.77423e-07 -4.67914e-08)
(-1.33727e-07 -1.28406e-07 5.398e-08)
(-7.69012e-07 -1.74837e-07 -1.56977e-07)
(-5.57528e-07 -1.5309e-07 1.48559e-07)
(-4.65258e-07 -1.67631e-08 7.91801e-08)
(-1.09973e-06 -4.19879e-07 -4.13485e-08)
(-8.09353e-07 -1.11307e-07 2.76667e-07)
(-5.64561e-07 -6.4046e-08 9.68589e-08)
(-1.24989e-06 -1.93748e-07 2.83925e-07)
(-8.84597e-07 -1.32344e-07 1.80708e-07)
(-6.10623e-07 -1.34633e-07 4.16455e-08)
(-1.87073e-06 -1.12885e-07 6.32138e-07)
(-9.51896e-07 6.92073e-08 1.88452e-07)
(-7.37879e-07 -5.22051e-08 1.52975e-07)
(-2.48559e-06 -9.7844e-08 2.15522e-07)
(-1.65506e-06 -4.12708e-08 3.54974e-08)
(-6.75204e-07 4.09366e-09 8.80973e-08)
(-1.6234e-06 9.27212e-08 -2.44622e-07)
(-1.36831e-06 -3.64381e-08 1.24702e-07)
(-7.95391e-07 -1.00327e-07 1.00837e-08)
)
;
    }
    procBoundary4to0
    {
        type            processor;
        value           nonuniform List<vector> 
36
(
(-0.0232104 0.000585398 0.00102214)
(-0.0213809 0.000526414 0.000961931)
(-0.0223034 0.000536247 0.00096258)
(-0.0209283 0.000455252 0.000856423)
(-0.0221055 0.000436245 0.000786397)
(-0.0208133 0.000410271 0.000678368)
(-0.0221543 0.000465908 0.000603535)
(-0.0209564 0.000432132 0.000462417)
(-0.0223808 0.000465113 0.000317142)
(-0.0230434 0.000537828 0.00104805)
(-0.0210396 0.00047071 0.000970266)
(-0.0218814 0.000477511 0.000978404)
(-0.0202234 0.000397518 0.000833953)
(-0.0214256 0.000393521 0.000758121)
(-0.0198643 0.000361847 0.000618866)
(-0.021254 0.000425218 0.000515841)
(-0.0196493 0.000372834 0.000357421)
(-0.0211923 0.000409714 0.000224755)
(-0.0228781 0.000358231 0.00106208)
(-0.0208199 0.00031355 0.000979248)
(-0.0215677 0.000306487 0.00097608)
(-0.0197997 0.000268489 0.000820562)
(-0.0209409 0.000279816 0.000723478)
(-0.0192514 0.000261519 0.000571356)
(-0.0205867 0.000298451 0.00040501)
(-0.0188197 0.000263531 0.000281114)
(-0.0203307 0.000266501 0.000140473)
(-0.0228137 0.00010935 0.0010735)
(-0.0207405 8.61271e-05 0.000994223)
(-0.0214494 7.459e-05 0.000994559)
(-0.0196584 7.63233e-05 0.00084128)
(-0.0207443 9.64226e-05 0.000743661)
(-0.0190062 9.27029e-05 0.00058165)
(-0.0202802 0.000116075 0.000392626)
(-0.0184608 8.82298e-05 0.000262222)
(-0.01991 6.97527e-05 0.000108445)
)
;
    }
    procBoundary4to5
    {
        type            processor;
        value           nonuniform List<vector> 
12
(
(-0.020718 0.000430016 4.06178e-05)
(-0.0189443 0.000323095 -5.29302e-05)
(-0.0179415 0.000214149 -0.000109902)
(-0.0174959 7.06875e-05 -0.000119325)
(-0.0211878 0.000416312 -7.85839e-05)
(-0.0196312 0.0003395 -0.00014899)
(-0.0187321 0.000267158 -0.000202229)
(-0.018171 0.000123551 -0.000215481)
(-0.0219918 0.000403272 -7.61555e-05)
(-0.0210056 0.000368781 -0.000143667)
(-0.0200481 0.000308272 -0.0001849)
(-0.019364 0.000170745 -0.000232753)
)
;
    }
    procBoundary4to6
    {
        type            processor;
        value           nonuniform List<vector> 
27
(
(-0.0227518 -0.000170726 0.000758576)
(-0.020608 -0.000148528 0.000708977)
(-0.0212619 -0.000149653 0.000728895)
(-0.0193525 -9.79664e-05 0.000615319)
(-0.0204131 -7.33926e-05 0.000532049)
(-0.0184525 -5.52805e-05 0.000386135)
(-0.0198159 -6.13491e-05 0.000235869)
(-0.0178773 -6.59774e-05 0.000122514)
(-0.0195227 -0.000105633 -4.36595e-05)
(-0.0228157 -0.000185888 0.000370758)
(-0.020726 -0.000151737 0.000392888)
(-0.0214046 -0.000153914 0.000391159)
(-0.0195788 -9.64748e-05 0.000344697)
(-0.0206553 -6.42569e-05 0.00024525)
(-0.01893 -4.80551e-05 0.000177885)
(-0.020229 -5.94377e-05 3.5652e-05)
(-0.0184878 -4.6809e-05 -1.58342e-05)
(-0.020014 -4.2002e-05 -0.000157107)
(-0.0229401 -0.000196137 0.000231057)
(-0.020953 -0.000152759 0.00026106)
(-0.021662 -0.000160317 0.000275107)
(-0.0199323 -9.27976e-05 0.000254957)
(-0.0210182 -4.79849e-05 0.000212338)
(-0.0194154 -3.19849e-05 0.000127449)
(-0.0207192 -4.44624e-05 -6.47753e-06)
(-0.0192208 -2.07285e-05 -6.40468e-05)
(-0.0206734 -4.05444e-07 -0.00018254)
)
;
    }
}


// ************************************************************************* //
