/*--------------------------------*- C++ -*----------------------------------*\
| =========                 |                                                 |
| \\      /  F ield         | OpenFOAM: The Open Source CFD Toolbox           |
|  \\    /   O peration     | Version:  4.x                                   |
|   \\  /    A nd           | Web:      www.OpenFOAM.org                      |
|    \\/     M anipulation  |                                                 |
\*---------------------------------------------------------------------------*/
FoamFile
{
    version     2.0;
    format      ascii;
    class       volScalarField;
    location    "3.5";
    object      p;
}
// * * * * * * * * * * * * * * * * * * * * * * * * * * * * * * * * * * * * * //

dimensions      [1 -1 -2 0 0 0 0];

internalField   nonuniform List<scalar> 
114
(
72.2403
-29.7744
69.7736
-55.6355
72.2658
-96.7074
-6.4711
74.3021
-25.6517
68.1101
-46.451
66.9707
-72.5275
75.4039
-4.56332
71.0529
-25.4771
68.0469
-45.8525
69.002
-62.511
-1862.09
-1801.85
-1881.89
-1804.88
-1904.08
-1806.75
-1926.31
-1808.18
-1950.46
-1858.5
-1802.4
-1878.04
-1801.94
-1897.53
-1805.85
-1918.24
-1812.58
-1938.14
-1859.44
-1798.97
-1879.02
-1805.09
-1896.06
-1806.13
-1916.61
-1807.88
-1935.8
-1853.52
-1803.3
-3742.64
-3680.67
-3763.17
-3683.4
-3785.53
-3686.26
-3813.17
-3682.92
-3852.31
-3742.9
-3680.95
-3762.05
-3679.67
-3781.8
-3688.73
-3803.36
-3691.8
-3821.76
-3742.39
-3677.76
-3760.94
-3684.85
-3782.52
-3688.14
-3804.69
-3684.98
-3825.77
-3736.88
-3677.73
-3755.93
-3683.75
-5619.18
-5558.89
-5639.44
-5561.45
-5662.2
-5563.14
-5690.82
-5559.49
-5742.28
-5619.01
-5558.83
-5638.59
-5560.15
-5658.81
-5565.28
-5681.75
-5569.57
-5701.56
-5619.55
-5558.62
-5639.46
-5561.82
-5660.33
-5564.31
-5682.12
-5564.12
-5702.03
-5616.15
-5557.99
-5635.98
-5560.56
-5653.37
-5563.77
)
;

boundaryField
{
    inlet
    {
        type            calculated;
        value           nonuniform 0();
    }
    outlet
    {
        type            calculated;
        value           nonuniform List<scalar> 
12
(
0
0
0
-1877.91
-1877.91
-1877.91
-3755.83
-3755.83
-3755.83
-5633.74
-5633.74
-5633.74
)
;
    }
    wall
    {
        type            calculated;
        value           nonuniform List<scalar> 
66
(
-6557.9
-6557.81
-6558.33
-6554.94
-6497.63
-6497.68
-6497.46
-6496.85
-6578.21
-6577.48
-6578.36
-6574.9
-6500.23
-6499.06
-6500.77
-6499.51
-6601.01
-6597.76
-6599.35
-6592.39
-6501.97
-6504.27
-6503.37
-6502.85
-6629.71
-6620.84
-6621.23
-6498.38
-6508.68
-6503.24
-6685.73
-6640.99
-6641.69
-1862.09
-3742.64
-5619.18
-1801.85
-3680.67
-5558.89
-1881.89
-3763.17
-5639.44
72.2403
-1804.88
-3683.4
-5561.45
-29.7744
-1904.08
-3785.53
-5662.2
69.7736
-1806.75
-3686.26
-5563.14
-55.6355
-1926.31
-3813.17
-5690.82
72.2658
-1808.18
-3682.92
-5559.49
-96.7075
-1950.46
-3852.31
-5742.28
)
;
    }
    procBoundary5to1
    {
        type            processor;
        value           nonuniform List<scalar> 
32
(
1950.45
1849.14
1948.06
1826.52
1947.88
1796.96
1871.06
1950.83
1851.52
1948.55
1830.18
1944.53
1802.69
1956.69
1873.89
1950.57
1855.84
1947.19
1835.78
1944.78
1815.24
13.8412
75.2815
-8.07934
-8.07934
-8.07934
15.0914
72.7822
72.7822
72.7822
15.4688
15.4688
)
;
    }
    procBoundary5to4
    {
        type            processor;
        value           nonuniform List<scalar> 
12
(
-1799.56
-1805.03
-1800.23
-1805.92
-3677.64
-3682.24
-3679.83
-3682.53
-5555.33
-5556.57
-5555.38
-5556.7
)
;
    }
    procBoundary5to7
    {
        type            processor;
        value           nonuniform List<scalar> 
44
(
74.8931
2.10471
71.9273
-14.2015
72.3787
-29.8138
69.2715
-49.8862
20.0469
74.8931
-1867.26
-1799.97
-1880.99
-1794.29
-1908.26
-1812.53
-1931.31
-1860.86
-1867.26
-1801.25
-1867.26
-1799.97
-3773.58
-3688.61
-3794.84
-3695.22
-3805.79
-3741.04
-3680.76
-3762.1
-3773.58
-3685.56
-3773.58
-3688.61
-5675.01
-5570.72
-5700.63
-5617.48
-5560.88
-5641.88
-5561.09
-5661.62
-5675.01
-5565.33
)
;
    }
}


// ************************************************************************* //
