/*--------------------------------*- C++ -*----------------------------------*\
| =========                 |                                                 |
| \\      /  F ield         | OpenFOAM: The Open Source CFD Toolbox           |
|  \\    /   O peration     | Version:  4.x                                   |
|   \\  /    A nd           | Web:      www.OpenFOAM.org                      |
|    \\/     M anipulation  |                                                 |
\*---------------------------------------------------------------------------*/
FoamFile
{
    version     2.0;
    format      ascii;
    class       volVectorField;
    location    "36.5";
    object      GField;
}
// * * * * * * * * * * * * * * * * * * * * * * * * * * * * * * * * * * * * * //

dimensions      [1 -2 -1 0 0 0 0];

internalField   nonuniform List<vector> 
87
(
(93.1633 1.55501 -2.94156)
(141.517 0.810111 -3.03957)
(95.1192 1.75909 -4.70713)
(150.228 1.22608 -2.58647)
(93.5243 1.49605 -8.15775)
(166.113 1.68042 0.151016)
(82.6364 -1.10609 -15.9458)
(203.435 3.65873 9.3361)
(44.0443 -15.2306 -39.2475)
(79.7352 -1.7464 -2.77543)
(133.449 -1.58837 -2.81962)
(80.6168 -2.60849 -3.82231)
(140.455 -0.493868 -1.74872)
(77.0353 -4.82137 -6.04329)
(151.669 2.1516 2.43425)
(63.9171 -10.7358 -11.7358)
(173.616 10.3552 12.0582)
(31.3613 -27.8275 -24.7015)
(67.4055 0.321624 -2.67426)
(122.088 0.59195 -3.03109)
(66.0585 1.26818 -3.72233)
(126.614 1.6894 -1.11172)
(62.4952 0.247891 -7.11905)
(135.982 2.33161 3.16199)
(55.2009 -3.95826 -14.8898)
(157.082 5.18913 15.1982)
(32.8251 -14.8095 -36.8876)
(58.4001 1.13412 -0.44247)
(116.51 0.517736 -0.572612)
(58.1097 1.7012 -0.768441)
(120.146 1.14804 0.587755)
(54.7792 2.19208 -1.62351)
(125.917 2.25938 3.62434)
(45.7014 1.13977 -6.52018)
(137.112 2.80671 11.6308)
(22.4969 -3.88382 -22.9119)
(32.3441 -1.02518 -0.432707)
(104.915 -1.44597 -0.256757)
(29.3685 -1.21479 -0.222607)
(108.516 1.04148 2.05924)
(24.508 -2.56983 -0.978158)
(113.781 5.36132 6.83337)
(21.7827 -6.38808 -3.93972)
(118.958 16.0297 15.283)
(17.9077 -21.5157 -14.0369)
(11.3835 0.497366 -0.357515)
(95.4754 0.615467 0.763467)
(3.19606 0.273039 -0.174778)
(95.3949 1.4657 2.36651)
(3.69279e-05 -6.44803e-06 -1.91119e-05)
(91.5298 1.67342 5.72032)
(4.28443 0.0849548 -1.44625)
(82.5842 2.35336 13.3366)
(25.9922 -4.52515 -28.388)
(53.3845 0.765757 -4.5296)
(113.57 0.4798 -4.146)
(50.9348 1.37355 -6.42548)
(117.503 1.80948 -4.13679)
(45.6991 0.612023 -10.7617)
(123.862 3.39285 -1.40296)
(36.5962 -1.35746 -18.7796)
(131.999 5.3697 10.4999)
(20.4808 -5.87651 -32.6227)
(24.896 -1.21142 -2.98506)
(101.532 -0.0159937 -2.19131)
(23.8058 -1.87751 -3.54535)
(106.104 1.3418 0.138614)
(22.7464 -4.0766 -6.25072)
(111.019 4.11477 2.52707)
(23.2254 -9.74374 -12.4452)
(117.16 11.8912 12.5994)
(19.1357 -25.9788 -23.46)
(10.1266 -0.642605 -2.03995)
(93.1122 -0.0673316 0.393843)
(9.19911 -0.974098 -2.80973)
(93.7213 1.14345 0.565138)
(10.3422 -2.32426 -4.55282)
(93.0016 1.95332 2.49032)
(15.3973 -7.522 -9.10031)
(87.0667 8.69045 9.62896)
(27.6843 -25.7378 -14.5033)
(39.645 -0.082773 -1.63912)
(99.5434 0.863157 -0.785226)
(29.2197 0.867533 -1.75868)
(5.4537 -0.772969 -0.511265)
(88.7498 1.67547 -0.863223)
(3.44202e-05 -2.53854e-06 7.95125e-06)
)
;

boundaryField
{
    inlet
    {
        type            calculated;
        value           nonuniform 0();
    }
    outlet
    {
        type            calculated;
        value           nonuniform List<vector> 9((91.2014 -31.5376 -81.2689) (64.9202 -57.605 -51.1338) (68.1585 -30.7506 -76.5939) (47.5035 -8.20092 -48.3798) (37.7729 -45.3832 -29.6081) (55.0342 -9.58126 -60.1069) (43.6615 -12.5277 -69.546) (40.914 -55.5452 -50.1597) (59.3986 -55.2223 -31.1178));
    }
    wall
    {
        type            calculated;
        value           uniform (0 0 0);
    }
    procBoundary1to0
    {
        type            processor;
        value           nonuniform List<vector> 
12
(
(135.948 -0.261969 -3.84964)
(127.008 -2.70016 -3.81426)
(118.012 -0.942844 -3.75115)
(113.039 -0.518006 -1.805)
(102.046 -2.55428 -1.99808)
(95.3592 -0.180229 -1.19979)
(109.941 -0.880728 -4.02274)
(98.0295 -1.79746 -3.36169)
(92.2898 -1.08937 -0.280167)
(101.68 -0.957016 -2.01208)
(90.0453 -0.0711738 -1.95514)
(81.8777 1.83454 -0.61538)
)
;
    }
    procBoundary1to3
    {
        type            processor;
        value           nonuniform List<vector> 
27
(
(70.3897 -0.811432 -0.812774)
(126.817 -0.275855 -1.73188)
(71.4906 -0.824932 -0.843963)
(133.663 -0.903784 0.220138)
(68.0611 -4.28429 -1.44571)
(140.777 -2.63578 4.8476)
(54.2199 -12.3914 -5.50608)
(149.389 0.629945 11.731)
(25.7808 -33.7422 -17.1756)
(17.9516 0.243574 -1.48212)
(100.575 1.25914 -0.911703)
(13.6758 0.350525 -1.78714)
(103.081 0.689116 2.10117)
(10.144 0.224466 -2.51331)
(105.157 -0.689119 7.6133)
(9.25095 0.0693704 -5.10079)
(104.43 -3.98689 20.0111)
(13.4595 -1.00456 -25.1012)
(4.38932 -0.395616 -1.17406)
(90.1403 -0.44418 0.0489154)
(1.89725 -0.248755 -0.710925)
(89.7992 -0.576635 1.84108)
(1.87046 -0.47468 -1.047)
(87.8667 -1.08922 4.64805)
(3.8968 -1.46959 -2.89797)
(78.8013 2.98628 13.9154)
(19.2189 -8.06544 -16.8375)
)
;
    }
    procBoundary1to5
    {
        type            processor;
        value           nonuniform List<vector> 
32
(
(92.6337 3.01063 0.0733336)
(13.002 0.60125 -1.58002)
(79.664 1.81801 2.1258)
(2.98202e-05 3.46858e-06 -1.25477e-05)
(54.2619 -0.609716 6.70487)
(2.62757 0.608564 -0.213258)
(3.72885e-05 -3.43621e-06 1.3571e-05)
(87.0144 3.69394 1.06858)
(3.31419e-05 -1.09437e-05 -9.40163e-06)
(82.1699 5.12135 4.4873)
(0.741347 -0.225715 -0.307719)
(68.7162 9.20499 12.0948)
(14.4802 -1.83878 -9.37804)
(79.9885 1.7029 -0.0585767)
(3.54568e-05 -1.18577e-06 8.57098e-06)
(78.3371 1.30077 0.470621)
(3.442e-05 -6.40217e-06 -9.44551e-06)
(75.0905 0.331965 2.60193)
(0.958556 -0.0541787 -0.188371)
(66.4118 -2.2174 5.89224)
(22.9073 0.216472 -1.62368)
(45.4586 -1.02766 0.488704)
(106.472 -0.943988 1.81674)
(92.6337 3.01063 0.0733336)
(3.72885e-05 -3.43621e-06 1.3571e-05)
(43.6067 -1.32024 2.14192)
(10.0597 -1.18529 0.232347)
(3.72885e-05 -3.43621e-06 1.3571e-05)
(79.9885 1.7029 -0.0585767)
(92.4131 -0.00461058 0.986012)
(79.9885 1.7029 -0.0585767)
(0.535849 -0.0895687 0.060654)
)
;
    }
    procBoundary1to7
    {
        type            processor;
        value           uniform (3.7051e-05 -6.85772e-07 2.22033e-06);
    }
}


// ************************************************************************* //
