/*--------------------------------*- C++ -*----------------------------------*\
| =========                 |                                                 |
| \\      /  F ield         | OpenFOAM: The Open Source CFD Toolbox           |
|  \\    /   O peration     | Version:  4.x                                   |
|   \\  /    A nd           | Web:      www.OpenFOAM.org                      |
|    \\/     M anipulation  |                                                 |
\*---------------------------------------------------------------------------*/
FoamFile
{
    version     2.0;
    format      ascii;
    class       volScalarField;
    location    "36.5";
    object      p_rgh;
}
// * * * * * * * * * * * * * * * * * * * * * * * * * * * * * * * * * * * * * //

dimensions      [1 -1 -2 0 0 0 0];

internalField   nonuniform List<scalar> 
87
(
18.6787
74.3375
-1.07316
68.7294
-22.438
64.9027
-47.0238
65.5039
-84.6479
18.2402
74.3849
-1.45721
68.6796
-22.7735
64.6494
-46.5359
64.3386
-69.4979
18.9135
74.5371
-0.397287
68.4879
-21.0474
63.471
-42.9169
61.3645
-67.5961
18.8909
74.6338
-0.160676
68.6332
-20.3595
63.4894
-41.6725
60.1261
-60.2174
18.6271
74.6889
-0.679251
68.5737
-21.0494
63.236
-41.952
59.7214
-59.9087
19.3248
74.9198
0.405133
68.3124
-18.6175
62.1124
-36.7251
56.0384
-51.1198
18.6235
74.4083
-0.899098
68.5027
-21.8382
63.8733
-44.125
62.0711
-66.355
18.2768
74.3933
-1.37854
68.2404
-21.8972
63.1894
-43.1951
60.7832
-63.6102
19.2835
74.3586
0.359748
68.1039
-18.9102
62.7488
-37.8031
58.7596
-54.5535
20.1862
75.1317
1.82748
20.1207
74.9054
22.0943
)
;

boundaryField
{
    inlet
    {
        type            fixedFluxPressure;
        gradient        nonuniform 0();
        value           nonuniform 0();
    }
    outlet
    {
        type            fixedValue;
        value           uniform 0;
    }
    wall
    {
        type            fixedFluxPressure;
        gradient        nonuniform List<scalar> 
57
(
-0.000228537
-0.000121212
-8.82973e-05
-0.000573643
-0.000136858
-7.01837e-05
-0.000131017
-7.41235e-05
-7.60388e-05
-1.79676e-06
4.77903e-06
-6.9131e-06
3.19966e-06
3.89545e-05
5.29014e-05
1.24268e-05
3.00725e-05
3.10254e-05
6.33147e-05
0.000159758
0.000158075
0.000137913
8.42158e-05
0.000109485
0.000647165
0.000518398
0.000283978
-6.76796e-05
-7.02705e-05
-2.66262e-06
-7.98606e-07
-0.00597373
-2.27294e-05
-1.24747e-05
-8.42541e-06
-6.68349e-06
-2.08089e-05
-2.22022e-05
-1.98247e-05
3.17954e-06
7.6618e-06
7.74647e-07
-3.95853e-06
-1.46355e-06
4.81839e-06
2.72893e-05
1.69674e-06
2.94644e-06
5.10604e-05
1.28723e-05
-1.71503e-05
-2.43205e-05
1.39676e-05
-2.60437e-06
0.000196162
0.000140823
1.1415e-05
)
;
        value           nonuniform List<scalar> 
57
(
18.6787
18.2402
18.9135
74.3375
74.3849
74.5371
-1.07317
-1.45722
-0.397288
68.7294
68.6796
68.4879
-22.438
-22.7735
-21.0474
64.9027
64.6494
63.471
-47.0238
-46.5359
-42.9169
65.5039
64.3386
61.3645
-84.6479
-69.4979
-67.5961
18.6787
18.8909
18.6235
20.1862
74.3375
74.6338
74.4083
75.1317
-1.07316
-0.160676
-0.899098
1.82748
68.7294
68.6332
68.5027
-22.438
-20.3595
-21.8382
64.9027
63.4894
63.8733
-47.0238
-41.6725
-44.125
65.5039
60.1261
62.0711
-84.6479
-60.2174
-66.355
)
;
    }
    procBoundary1to0
    {
        type            processor;
        value           nonuniform List<scalar> 
12
(
80.6248
80.7015
81.0176
81.0875
81.2638
81.6509
80.869
81.0469
81.2597
81.6502
81.8367
81.5894
)
;
    }
    procBoundary1to3
    {
        type            processor;
        value           nonuniform List<scalar> 
27
(
18.0126
74.2284
-1.95886
68.3672
-22.7414
63.9905
-44.9543
62.7413
-70.2634
17.9491
74.5601
-1.81069
68.2781
-22.0929
62.9781
-42.0492
59.6335
-59.7393
19.078
74.3726
0.0381111
67.9535
-18.8541
62.7238
-37.0851
58.4376
-52.9462
)
;
    }
    procBoundary1to5
    {
        type            processor;
        value           nonuniform List<scalar> 
32
(
68.8854
-16.4232
62.49
-33.4264
55.6509
-46.4761
1.42085
68.2598
-16.833
62.1322
-34.6253
55.9033
-49.2737
74.6998
4.5313
68.0903
-12.7786
61.5178
-29.1543
53.5339
-44.4477
19.1841
74.4641
68.8854
1.42085
0.0124245
19.4109
1.42085
74.6998
74.5737
74.6998
20.7129
)
;
    }
    procBoundary1to7
    {
        type            processor;
        value           uniform 21.4627;
    }
}


// ************************************************************************* //
