/*--------------------------------*- C++ -*----------------------------------*\
  =========                 |
  \\      /  F ield         | OpenFOAM: The Open Source CFD Toolbox
   \\    /   O peration     | Website:  https://openfoam.org
    \\  /    A nd           | Version:  4.x
     \\/     M anipulation  |
\*---------------------------------------------------------------------------*/
FoamFile
{
    version     2.0;
    format      ascii;
    class       Cloud<passiveParticle>;
    location    0;
    object      positions;
}
// * * * * * * * * * * * * * * * * * * * * * * * * * * * * * * * * * * * * * //

303
(
( 0.252962 0.0900486 -0.0558049 ) 63
( 0.250443 0.0316249 -0.0549342 ) 45
( 0.250266 0.0300151 -0.0351503 ) 81
( 0.254041 0.0693108 -0.0504231 ) 54
( 0.250999 0.0682514 -0.0699612 ) 54
( 0.250535 0.0107814 -0.0752708 ) 0
( 0.25004 0.0882437 -0.0216934 ) 99
( 0.250081 0.0359568 -0.0743503 ) 9
( 0.255984 0.0312915 -0.0150638 ) 81
( 0.381173 -0.0139625 -0.0338144 ) 76
( 0.421053 -0.0111327 -0.0808089 ) 6
( 0.473704 -0.00618165 -0.0415267 ) 80
( 0.324523 -0.0104749 -0.0763999 ) 2
( 0.403993 -0.00384232 -0.0735518 ) 5
( 0.490068 -0.0109806 -0.0578433 ) 44
( 0.371714 -0.00591045 -0.049287 ) 40
( 0.468606 -0.0018217 -0.0854528 ) 7
( 0.342624 -0.00281625 -0.0730977 ) 3
( 0.33468 -0.0140192 -0.0328634 ) 75
( 0.439292 -0.00180451 -0.0578263 ) 42
( 0.321635 -0.0117826 -0.0474273 ) 38
( 0.360805 -0.000890513 -0.0651447 ) 39
( 0.310635 -0.00594395 -0.0628126 ) 38
( 0.354241 -0.0122621 -0.0387087 ) 75
( 0.272134 -0.00315991 -0.0685199 ) 36
( 0.283837 -0.0122163 -0.0389826 ) 73
( 0.436692 0.000608166 -0.0773495 ) 6
( 0.490039 -0.0122104 -0.0777202 ) 8
( 0.302407 -0.00847291 -0.044502 ) 37
( 0.394153 -0.0044074 -0.0448498 ) 41
( 0.472398 -0.0116098 -0.0684657 ) 44
( 0.275368 -0.0100669 -0.0201184 ) 72
( 0.47307 -0.0126254 -0.0212209 ) 80
( 0.387641 0.0265093 -0.0548105 ) 49
( 0.303824 0.0719246 -0.0647572 ) 64
( 0.336983 0.0639506 -0.0467565 ) 57
( 0.325518 0.016514 -0.0484598 ) 47
( 0.443406 0.0376289 -0.0466833 ) 51
( 0.286599 0.0647075 -0.0582552 ) 55
( 0.331198 0.050864 -0.0605254 ) 56
( 0.455281 0.0130421 -0.0858985 ) 7
( 0.369662 0.0348415 -0.0532766 ) 49
( 0.490049 0.0227643 -0.0532056 ) 53
( 0.324478 0.0376843 -0.0746519 ) 11
( 0.293246 0.0258992 -0.0575168 ) 46
( 0.379207 0.00960403 -0.0642716 ) 40
( 0.470473 0.068767 -0.0577918 ) 61
( 0.431371 0.0711146 -0.0625271 ) 60
( 0.456052 0.0710419 -0.0785076 ) 25
( 0.342718 0.0322689 -0.0689292 ) 48
( 0.320101 0.0460947 -0.0446738 ) 56
( 0.300953 0.0614082 -0.0451273 ) 55
( 0.36874 0.054261 -0.0494212 ) 58
( 0.353719 0.0455377 -0.059191 ) 57
( 0.32434 0.0854186 -0.0374922 ) 101
( 0.353036 0.0836151 -0.0694602 ) 66
( 0.452508 0.0772231 -0.0555905 ) 70
( 0.286345 0.0901515 -0.0309875 ) 100
( 0.417166 0.0203238 -0.0480533 ) 51
( 0.334332 0.0725999 -0.0645034 ) 66
( 0.388197 0.0701275 -0.0536242 ) 58
( 0.471217 0.0901257 -0.0645131 ) 70
( 0.47398 0.068092 -0.0382045 ) 98
( 0.490003 0.0146469 -0.0838749 ) 17
( 0.265347 0.0160771 -0.0366173 ) 81
( 0.399858 0.0666632 -0.0694046 ) 59
( 0.327072 0.0285551 -0.0321223 ) 83
( 0.349201 0.064048 -0.0204728 ) 93
( 0.395508 0.0136882 -0.0780002 ) 5
( 0.306283 0.0318132 -0.040278 ) 83
( 0.302929 0.0349693 -0.0723498 ) 10
( 0.458126 0.0434133 -0.0605825 ) 61
( 0.272495 0.0513583 -0.0543027 ) 54
( 0.410949 0.0510394 -0.0599478 ) 59
( 0.457313 0.0242588 -0.0515032 ) 52
( 0.430471 0.0826262 -0.0787151 ) 33
( 0.365704 0.0410988 -0.0348529 ) 85
( 0.315991 0.0314861 -0.0576528 ) 47
( 0.473511 0.0304719 -0.0612977 ) 53
( 0.366629 0.0114747 -0.0796591 ) 4
( 0.290647 0.0899562 -0.0503423 ) 64
( 0.269123 0.0164858 -0.0710617 ) 45
( 0.405307 0.0262721 -0.0640904 ) 50
( 0.474267 0.047398 -0.0500783 ) 62
( 0.441138 0.0386866 -0.0695261 ) 51
( 0.419569 0.0138261 -0.070384 ) 42
( 0.346425 0.0806699 -0.0509007 ) 66
( 0.438795 0.055857 -0.0404742 ) 96
( 0.437432 0.0204281 -0.0763392 ) 15
( 0.478468 0.0748775 -0.0750663 ) 35
( 0.334553 0.0339132 -0.0507873 ) 48
( 0.38077 0.0380696 -0.0694357 ) 49
( 0.460877 0.0406557 -0.0375658 ) 88
( 0.401407 0.0836706 -0.0593742 ) 68
( 0.363215 0.0534083 -0.0747312 ) 22
( 0.280311 0.0682379 -0.0394719 ) 91
( 0.422364 0.062888 -0.0782014 ) 24
( 0.37137 0.0898864 -0.074234 ) 31
( 0.396956 0.0211221 -0.0382016 ) 86
( 0.347138 0.0156709 -0.0789865 ) 12
( 0.352695 0.0296693 -0.0442878 ) 48
( 0.273332 0.0789096 -0.0546293 ) 63
( 0.490006 0.0338744 -0.0785384 ) 17
( 0.383658 0.0741919 -0.0839167 ) 31
( 0.458124 0.0291024 -0.0743603 ) 16
( 0.424201 0.0430604 -0.0791781 ) 24
( 0.287265 0.0825087 -0.0684499 ) 64
( 0.430874 0.073657 -0.042938 ) 69
( 0.490014 0.0898765 -0.0823002 ) 35
( 0.293505 0.0527136 -0.0725226 ) 19
( 0.326526 0.00587578 -0.065175 ) 38
( 0.293729 0.0110913 -0.0708813 ) 37
( 0.351014 0.0159536 -0.0300718 ) 84
( 0.490038 0.0536568 -0.0821003 ) 26
( 0.41299 0.0679792 -0.0496021 ) 59
( 0.319249 0.0691539 -0.0770278 ) 20
( 0.457896 0.0583018 -0.0463284 ) 61
( 0.38086 0.00957965 -0.0399723 ) 76
( 0.473272 0.010726 -0.0537067 ) 44
( 0.47219 0.0135641 -0.0733275 ) 7
( 0.283948 0.0211252 -0.0407436 ) 82
( 0.269251 0.0318703 -0.0484779 ) 45
( 0.361774 0.0187397 -0.0617536 ) 49
( 0.472147 0.0230622 -0.0383421 ) 88
( 0.308141 0.0495792 -0.029288 ) 92
( 0.370975 0.0729387 -0.0630191 ) 67
( 0.43769 0.0900984 -0.0616589 ) 69
( 0.428929 0.00664779 -0.0395659 ) 78
( 0.48867 0.0765052 -0.0485585 ) 71
( 0.391249 0.0508005 -0.0566629 ) 59
( 0.474847 0.0497549 -0.0697752 ) 62
( 0.406153 0.0514573 -0.0805361 ) 23
( 0.398362 0.0717537 -0.0366184 ) 104
( 0.392162 0.0901554 -0.0757338 ) 32
( 0.412459 0.0900721 -0.0746408 ) 32
( 0.273965 0.00936696 -0.0531768 ) 36
( 0.436498 0.0198686 -0.0539936 ) 51
( 0.444039 0.0900553 -0.0430263 ) 69
( 0.356162 0.00636991 -0.0471968 ) 39
( 0.329699 0.0900758 -0.0559893 ) 65
( 0.49019 0.0413551 -0.0601302 ) 53
( 0.43302 0.0252984 -0.0351558 ) 87
( 0.342563 0.0155202 -0.0583245 ) 48
( 0.363762 0.0727283 -0.0445144 ) 67
( 0.490253 0.0379943 -0.0405772 ) 89
( 0.469727 0.0900455 -0.0845716 ) 34
( 0.419423 0.0507398 -0.0418944 ) 96
( 0.283461 0.0519965 -0.021921 ) 91
( 0.425746 0.0902818 -0.0339605 ) 105
( 0.363514 0.0902214 -0.0539315 ) 67
( 0.300538 0.0106269 -0.0394388 ) 73
( 0.265796 0.0902362 -0.040251 ) 99
( 0.300724 0.0441083 -0.054798 ) 55
( 0.34281 0.055488 -0.0759625 ) 21
( 0.352689 0.0652481 -0.0617424 ) 57
( 0.398305 0.00856381 -0.0590154 ) 41
( 0.38281 0.090033 -0.0579666 ) 67
( 0.417386 0.00156995 -0.0549043 ) 42
( 0.448717 0.00807062 -0.0435231 ) 43
( 0.295511 0.0668992 -0.0270168 ) 91
( 0.385369 0.0566738 -0.0386902 ) 94
( 0.490524 0.0901607 -0.0624072 ) 71
( 0.399 0.0329337 -0.0817722 ) 14
( 0.308296 0.0129953 -0.0574159 ) 38
( 0.490128 0.0523853 -0.0263926 ) 98
( 0.490048 0.090346 -0.0346556 ) 107
( 0.27071 0.0663368 -0.0698976 ) 54
( 0.307622 0.0800949 -0.0469895 ) 65
( 0.464289 0.0900757 -0.0459547 ) 70
( 0.321928 0.0658489 -0.0339645 ) 92
( 0.490099 0.00455879 -0.0449884 ) 44
( 0.490013 0.0627409 -0.0643537 ) 62
( 0.26633 0.0471779 -0.0727455 ) 18
( 0.430955 0.0512735 -0.0580702 ) 60
( 0.347191 0.090436 -0.0339031 ) 102
( 0.311493 0.0901797 -0.0638047 ) 65
( 0.40545 0.0902602 -0.04106 ) 104
( 0.490358 0.0572979 -0.0452929 ) 62
( 0.382588 0.0575169 -0.0732114 ) 22
( 0.455419 0.0494873 -0.0793193 ) 25
( 0.473206 0.0277207 -0.0873385 ) 17
( 0.267233 0.0901274 -0.0697391 ) 63
( 0.381344 0.0824856 -0.0396515 ) 103
( 0.452329 0.0118916 -0.0662479 ) 43
( 0.445189 0.089399 -0.0903628 ) 34
( 0.375132 0.0248607 -0.0286438 ) 85
( 0.335074 0.0900473 -0.0750894 ) 30
( 0.453632 0.0899748 -0.0727769 ) 34
( 0.318539 0.064726 -0.0535732 ) 56
( 0.286845 0.0480265 -0.0410542 ) 91
( 0.447778 0.0599672 -0.0641751 ) 61
( 0.315726 0.0198026 -0.074544 ) 11
( 0.474013 0.0715906 -0.0149018 ) 107
( 0.393378 0.0606382 -0.0209732 ) 95
( 0.410575 0.0815488 -0.0242968 ) 104
( 0.317396 0.037009 -0.016873 ) 83
( 0.455525 0.0776415 -0.0162679 ) 106
( 0.390578 0.0155908 -0.0202739 ) 86
( 0.49 0.0185198 -0.0308294 ) 89
( 0.323602 0.060711 -0.0149327 ) 92
( 0.363237 0.0817605 -0.0269932 ) 103
( 0.407666 0.0246402 -0.0171455 ) 86
( 0.440569 0.00382941 -0.0235065 ) 78
( 0.466771 0.0229699 -0.0192453 ) 88
( 0.348597 0.08511 -0.0143848 ) 102
( 0.380587 0.0455468 -0.0230132 ) 94
( 0.44774 0.060765 -0.0235461 ) 97
( 0.431059 0.0440268 -0.0265348 ) 96
( 0.392909 0.090232 -0.0254481 ) 104
( 0.41472 0.0430209 -0.015515 ) 95
( 0.458235 0.00596952 -0.0147215 ) 79
( 0.490066 0.0721696 -0.0271443 ) 107
( 0.439535 0.0251593 -0.0164704 ) 87
( 0.305666 0.022171 -0.0230433 ) 83
( 0.423826 0.0142636 -0.0212751 ) 78
( 0.269725 0.0900195 -0.0201486 ) 99
( 0.333211 0.0124412 -0.0221085 ) 74
( 0.414919 0.0620514 -0.0262574 ) 95
( 0.330873 0.0783032 -0.0202587 ) 101
( 0.270469 0.034853 -0.0288576 ) 81
( 0.380606 0.0750726 -0.0213198 ) 103
( 0.471453 0.0895422 -0.0275721 ) 106
( 0.490086 0.089964 -0.0146741 ) 107
( 0.259473 0.0469117 -0.0399936 ) 90
( 0.255894 -0.000331728 -0.0572084 ) 36
( 0.459498 -0.00336486 -0.0558311 ) 43
( 0.321342 -0.0017434 -0.0156967 ) 74
( 0.362215 0.0334791 -0.0751085 ) 13
( 0.419397 0.090048 -0.0548842 ) 69
( 0.318642 0.00540937 -0.0337533 ) 74
( 0.489751 0.00724646 -0.065398 ) 44
( 0.409309 0.00579628 -0.0368219 ) 77
( 0.28016 0.0330862 -0.0705658 ) 46
( 0.265683 0.0564738 -0.0144926 ) 90
( 0.442726 0.0903511 -0.0234678 ) 105
( 0.474687 0.00637695 -0.0261856 ) 80
( 0.262233 0.0723639 -0.0326198 ) 99
( 0.387649 -0.00840164 -0.0631142 ) 40
( 0.423683 0.0331924 -0.0619214 ) 51
( 0.268921 0.0104242 -0.0179807 ) 72
( 0.427988 -0.0128027 -0.0421278 ) 78
( 0.266068 -0.003635 -0.0404236 ) 72
( 0.396458 -0.00297739 -0.0244334 ) 77
( 0.33722 0.000522154 -0.0461665 ) 39
( 0.254323 -0.00877123 -0.0752242 ) 0
( 0.331116 0.0476758 -0.0280559 ) 92
( 0.455425 0.0751311 -0.0359562 ) 106
( 0.376859 -0.00564252 -0.0795802 ) 4
( 0.31287 0.0524489 -0.0681115 ) 56
( 0.402828 0.0373985 -0.0478694 ) 50
( 0.253064 0.0510504 -0.058346 ) 54
( 0.288807 -0.00306785 -0.0577788 ) 37
( 0.348861 0.0496221 -0.0404484 ) 93
( 0.313745 -0.0138225 -0.0291746 ) 74
( 0.415393 0.0333679 -0.0331322 ) 86
( 0.347277 -0.00226604 -0.0230004 ) 75
( 0.490138 -0.00980749 -0.031023 ) 80
( 0.290331 0.0341061 -0.0274075 ) 82
( 0.277414 0.0715882 -0.0197775 ) 99
( 0.367909 0.0606252 -0.0266073 ) 94
( 0.365255 0.00207021 -0.0302486 ) 76
( 0.452209 0.0238665 -0.0322058 ) 88
( 0.30556 0.0854562 -0.0279769 ) 101
( 0.476991 0.0378458 -0.0261746 ) 89
( 0.250334 0.0141031 -0.0235007 ) 72
( 0.420165 -0.00486083 -0.0242428 ) 78
( 0.350117 0.041829 -0.0224053 ) 84
( 0.468194 0.0552815 -0.0242822 ) 97
( 0.295121 -0.0110025 -0.0230114 ) 73
( 0.431844 0.0737087 -0.0229907 ) 105
( 0.286569 0.00673645 -0.0261714 ) 73
( 0.456887 -0.00495522 -0.0310953 ) 79
( 0.399515 0.0436504 -0.0284253 ) 95
( 0.449879 0.0412097 -0.0212556 ) 88
( 0.346249 -0.01374 -0.0568731 ) 39
( 0.281658 -0.0119547 -0.0836141 ) 1
( 0.470896 0.0601982 -0.0862653 ) 25
( 0.380431 0.0250191 -0.0844827 ) 13
( 0.383891 0.0443461 -0.0881056 ) 22
( 0.300213 0.0677004 -0.0838831 ) 19
( 0.347294 0.0394637 -0.0869284 ) 12
( 0.445082 0.0342652 -0.0885486 ) 16
( 0.275554 0.0792704 -0.0842494 ) 27
( 0.28287 0.0197413 -0.0851483 ) 10
( 0.329344 0.00860849 -0.0846935 ) 2
( 0.278692 0.0564967 -0.0852896 ) 19
( 0.363905 0.072137 -0.0816138 ) 31
( 0.301912 0.0874137 -0.0810419 ) 28
( 0.311 0.0459836 -0.0868654 ) 20
( 0.26628 0.0307942 -0.0846878 ) 9
( 0.342993 0.0738656 -0.0836454 ) 30
( 0.35687 0.0900353 -0.0879208 ) 30
( 0.407934 0.0742726 -0.0859515 ) 32
( 0.253297 0.0900608 -0.0839327 ) 27
( 0.417122 0.0257635 -0.0861303 ) 15
( 0.308595 0.00225213 -0.0808435 ) 2
( 0.438038 0.0548111 -0.0875001 ) 24
( 0.260745 0.0655706 -0.0871475 ) 18
( 0.289885 0.0392833 -0.0868237 ) 10
( 0.302147 0.0234959 -0.088656 ) 10
( 0.320409 0.0882412 -0.0884569 ) 29
( 0.265765 0.00376057 -0.0860852 ) 0
( 0.328025 0.0561017 -0.0893078 ) 20
)
