/*--------------------------------*- C++ -*----------------------------------*\
| =========                 |                                                 |
| \\      /  F ield         | OpenFOAM: The Open Source CFD Toolbox           |
|  \\    /   O peration     | Version:  4.x                                   |
|   \\  /    A nd           | Web:      www.OpenFOAM.org                      |
|    \\/     M anipulation  |                                                 |
\*---------------------------------------------------------------------------*/
FoamFile
{
    version     2.0;
    format      ascii;
    class       volScalarField;
    location    "40";
    object      alpha.iron;
}
// * * * * * * * * * * * * * * * * * * * * * * * * * * * * * * * * * * * * * //

dimensions      [0 0 0 0 0 0 0];

internalField   nonuniform List<scalar> 
132
(
0.999999
0.999999
0.999997
0.999994
0.999988
0.999977
0.999963
0.999942
0.999836
1
0.999999
0.999998
0.999996
0.999992
0.999986
0.999977
0.999969
0.999753
1
1
0.999999
0.999999
0.999997
0.999996
0.99999
0.999987
0.999601
1
1
1
1
1
0.999999
0.999998
0.999998
0.999554
0.999997
0.999994
0.999989
0.999981
0.999971
0.999957
0.999875
0.999999
0.999998
0.999995
0.999991
0.999985
0.999976
0.999964
0.999953
0.999767
1
0.999999
0.999998
0.999996
0.999993
0.999987
0.999979
0.999971
0.999902
1
1
1
1
0.999999
0.999999
0.999998
0.999996
0.999818
0.999995
0.999992
0.999986
0.999982
0.999903
1
0.999999
0.999999
0.999997
0.999995
0.999992
0.999986
0.999984
0.999876
1
1
1
0.999999
0.999999
0.999998
0.999996
0.999995
0.99965
1
1
1
1
1
1
1
0.999999
0.996583
0.999997
0.999996
0.999412
1
1
1
1
0.999999
0.999999
0.999998
0.999997
0.999395
1
1
1
1
1
1
1
0.999999
0.998933
1
1
1
1
1
1
1
1
0.999425
)
;

boundaryField
{
    inlet
    {
        type            fixedValue;
        value           nonuniform 0();
    }
    outlet
    {
        type            fixedValue;
        value           uniform 1;
    }
    wall
    {
        type            zeroGradient;
    }
    procBoundary7to0
    {
        type            processor;
        value           uniform 1;
    }
    procBoundary7to1
    {
        type            processor;
        value           uniform 1;
    }
    procBoundary7to3
    {
        type            processor;
        value           nonuniform List<scalar> 
36
(
0.999999
0.999998
0.999995
0.999989
0.999978
0.999964
0.999945
0.999938
0.999791
1
0.999999
0.999998
0.999996
0.999991
0.999984
0.999972
0.999962
0.99985
1
0.999999
0.999999
0.999998
0.999995
0.999992
0.999986
0.999983
0.999774
1
1
1
1
1
0.999999
0.999998
0.999997
0.999448
)
;
    }
    procBoundary7to5
    {
        type            processor;
        value           nonuniform List<scalar> 
44
(
0.999999
0.999997
0.999995
0.99999
0.999981
0.999968
0.999951
0.999713
0.999999
0.999999
0.999998
0.999996
0.999992
0.999987
0.999979
0.999972
0.999896
0.999999
0.999999
0.999999
0.999999
0.999998
0.999997
0.999994
0.999989
0.999988
0.999914
1
0.999999
0.999999
0.999998
0.999998
0.999999
0.999999
0.999998
0.999997
0.999468
1
1
1
1
0.999999
0.999999
0.999999
)
;
    }
    procBoundary7to6
    {
        type            processor;
        value           nonuniform List<scalar> 
12
(
1
1
1
1
1
1
1
1
1
1
1
1
)
;
    }
}


// ************************************************************************* //
