/*--------------------------------*- C++ -*----------------------------------*\
| =========                 |                                                 |
| \\      /  F ield         | OpenFOAM: The Open Source CFD Toolbox           |
|  \\    /   O peration     | Version:  4.x                                   |
|   \\  /    A nd           | Web:      www.OpenFOAM.org                      |
|    \\/     M anipulation  |                                                 |
\*---------------------------------------------------------------------------*/
FoamFile
{
    version     2.0;
    format      ascii;
    class       volVectorField;
    location    "40";
    object      ddtUrel;
}
// * * * * * * * * * * * * * * * * * * * * * * * * * * * * * * * * * * * * * //

dimensions      [0 1 -2 0 0 0 0];

internalField   nonuniform List<vector> 
132
(
(-3.763e-09 9.06728e-10 4.35129e-09)
(-4.2503e-09 1.10414e-09 4.52649e-09)
(-4.09301e-09 1.15994e-09 4.21387e-09)
(-3.44218e-09 1.08765e-09 3.46918e-09)
(-2.42291e-09 9.54275e-10 2.66465e-09)
(-1.21037e-09 8.11277e-10 2.05852e-09)
(-3.54462e-11 7.29044e-10 1.67844e-09)
(9.53379e-10 6.94694e-10 1.43961e-09)
(1.65162e-09 7.09835e-10 1.40244e-09)
(-2.78365e-09 9.30807e-10 4.04375e-09)
(-3.1645e-09 1.10231e-09 4.23521e-09)
(-3.12785e-09 1.10602e-09 3.88544e-09)
(-2.68886e-09 1.01182e-09 3.23646e-09)
(-1.80944e-09 8.80303e-10 2.46275e-09)
(-7.73961e-10 7.67885e-10 1.90643e-09)
(2.99431e-10 7.57807e-10 1.56079e-09)
(1.30412e-09 8.06819e-10 1.35052e-09)
(2.07445e-09 9.36903e-10 1.2441e-09)
(-2.22102e-09 8.30074e-10 3.44669e-09)
(-2.56728e-09 1.00751e-09 3.64786e-09)
(-2.53403e-09 1.00797e-09 3.40526e-09)
(-2.19214e-09 9.09098e-10 2.81654e-09)
(-1.43346e-09 8.06369e-10 2.13391e-09)
(-4.68038e-10 7.54493e-10 1.59592e-09)
(6.01855e-10 7.92989e-10 1.214e-09)
(1.75777e-09 9.75568e-10 9.39709e-10)
(3.10545e-09 1.30361e-09 7.91297e-10)
(-2.03609e-09 6.73164e-10 2.82882e-09)
(-2.33475e-09 8.56555e-10 2.99489e-09)
(-2.2638e-09 9.01259e-10 2.86872e-09)
(-1.98976e-09 8.20946e-10 2.38492e-09)
(-1.27248e-09 7.46582e-10 1.82545e-09)
(-3.12765e-10 7.35873e-10 1.31543e-09)
(8.47004e-10 8.27548e-10 8.85556e-10)
(2.15719e-09 1.06838e-09 5.0148e-10)
(3.44573e-09 1.43828e-09 2.27335e-10)
(-2.90946e-09 8.35611e-10 3.23286e-09)
(-2.484e-09 7.97437e-10 2.69524e-09)
(-1.78379e-09 7.16897e-10 2.07476e-09)
(-9.48692e-10 6.31949e-10 1.62314e-09)
(-1.06715e-10 5.6653e-10 1.32468e-09)
(6.04028e-10 5.29915e-10 1.12096e-09)
(1.11217e-09 5.11693e-10 1.10899e-09)
(-2.29762e-09 8.35099e-10 3.1413e-09)
(-2.47713e-09 9.09628e-10 3.25177e-09)
(-2.42158e-09 9.39822e-10 3.02354e-09)
(-2.11176e-09 8.75002e-10 2.51119e-09)
(-1.49951e-09 7.79305e-10 1.94534e-09)
(-7.17929e-10 6.95275e-10 1.54944e-09)
(6.98705e-11 6.44006e-10 1.27282e-09)
(8.1098e-10 6.40545e-10 1.10004e-09)
(1.43686e-09 6.92536e-10 1.00659e-09)
(-1.92132e-09 8.18704e-10 2.70911e-09)
(-2.10403e-09 9.33733e-10 2.82256e-09)
(-2.07071e-09 9.41501e-10 2.65025e-09)
(-1.82901e-09 8.99007e-10 2.23021e-09)
(-1.2692e-09 8.29865e-10 1.72889e-09)
(-5.22003e-10 7.602e-10 1.35996e-09)
(2.92835e-10 7.20144e-10 1.08926e-09)
(1.20584e-09 8.02816e-10 8.7962e-10)
(2.54318e-09 1.16251e-09 7.81604e-10)
(-1.73882e-09 6.80422e-10 2.23815e-09)
(-1.98665e-09 8.32755e-10 2.33889e-09)
(-1.93212e-09 8.86594e-10 2.26486e-09)
(-1.71901e-09 8.73382e-10 1.93529e-09)
(-1.17233e-09 8.50591e-10 1.52733e-09)
(-4.50099e-10 7.70193e-10 1.18145e-09)
(4.24484e-10 7.3928e-10 8.97365e-10)
(1.38553e-09 8.3161e-10 6.66621e-10)
(2.41601e-09 1.1181e-09 5.33091e-10)
(-1.42929e-09 5.54116e-10 1.59946e-09)
(-8.32276e-10 5.0572e-10 1.26003e-09)
(-2.00813e-10 4.48685e-10 1.03904e-09)
(3.12211e-10 4.18264e-10 8.59709e-10)
(6.42062e-10 3.90677e-10 7.89367e-10)
(-1.94523e-09 6.95459e-10 2.31508e-09)
(-2.01495e-09 7.43503e-10 2.41464e-09)
(-1.98286e-09 7.75541e-10 2.25551e-09)
(-1.7141e-09 7.46935e-10 1.90667e-09)
(-1.28593e-09 7.07769e-10 1.51742e-09)
(-7.26847e-10 6.31095e-10 1.23263e-09)
(-1.08918e-10 5.55196e-10 1.03112e-09)
(4.14122e-10 4.97252e-10 8.50376e-10)
(8.4003e-10 4.79882e-10 7.67859e-10)
(-1.67985e-09 7.36514e-10 2.02285e-09)
(-1.76266e-09 8.00309e-10 2.06935e-09)
(-1.76984e-09 8.40763e-10 1.9623e-09)
(-1.57623e-09 8.96699e-10 1.71292e-09)
(-1.19301e-09 9.15224e-10 1.38214e-09)
(-6.09181e-10 7.73551e-10 1.119e-09)
(3.09908e-11 6.57515e-10 9.15477e-10)
(6.81126e-10 6.04096e-10 7.26945e-10)
(1.25726e-09 6.5661e-10 6.33862e-10)
(-1.531e-09 6.75475e-10 1.74211e-09)
(-1.68516e-09 7.64558e-10 1.79053e-09)
(-1.70832e-09 8.52106e-10 1.71583e-09)
(-1.57899e-09 1.00479e-09 1.53193e-09)
(-1.25895e-09 1.22904e-09 1.26164e-09)
(-5.74563e-10 9.0881e-10 1.02102e-09)
(1.2789e-10 7.10381e-10 8.11025e-10)
(8.61213e-10 6.60437e-10 6.3167e-10)
(1.3585e-09 7.28652e-10 5.45657e-10)
(-3.70054e-10 3.8991e-10 8.42607e-10)
(-6.47757e-11 3.69507e-10 7.1356e-10)
(3.53199e-10 3.84362e-10 5.71834e-10)
(-1.67393e-09 5.50408e-10 1.79839e-09)
(-1.65545e-09 5.67912e-10 1.8418e-09)
(-1.67328e-09 6.24745e-10 1.73746e-09)
(-1.4667e-09 6.62063e-10 1.5009e-09)
(-1.19905e-09 6.98752e-10 1.25449e-09)
(-8.14852e-10 6.08441e-10 1.03144e-09)
(-3.15388e-10 5.05507e-10 8.42533e-10)
(4.67877e-11 4.39138e-10 7.0787e-10)
(4.84509e-10 4.14782e-10 6.02141e-10)
(-1.43125e-09 6.53556e-10 1.61116e-09)
(-1.48102e-09 6.71427e-10 1.62386e-09)
(-1.54089e-09 7.64827e-10 1.55253e-09)
(-1.43434e-09 9.3997e-10 1.37544e-09)
(-1.26204e-09 1.18744e-09 1.16704e-09)
(-7.30674e-10 8.61204e-10 9.60013e-10)
(-1.79502e-10 6.38781e-10 7.77099e-10)
(3.08469e-10 5.39829e-10 6.3732e-10)
(7.4877e-10 5.37243e-10 5.57059e-10)
(-1.34618e-09 6.45953e-10 1.44131e-09)
(-1.44636e-09 7.10579e-10 1.46123e-09)
(-1.53729e-09 8.74263e-10 1.40416e-09)
(-1.57906e-09 1.34265e-09 1.27909e-09)
(-1.94794e-09 2.81777e-09 1.12918e-09)
(-7.78429e-10 1.26596e-09 9.01243e-10)
(-6.99967e-11 7.6076e-10 7.17595e-10)
(5.27618e-10 6.19378e-10 5.80546e-10)
(9.52447e-10 6.62103e-10 4.87053e-10)
)
;

boundaryField
{
    inlet
    {
        type            calculated;
        value           nonuniform 0();
    }
    outlet
    {
        type            calculated;
        value           nonuniform List<vector> 
16
(
(8.38621e-10 2.4883e-10 1.91753e-09)
(1.15826e-09 3.10337e-10 2.35335e-09)
(6.01246e-09 2.62976e-09 2.00207e-09)
(3.44129e-09 1.43623e-09 3.56616e-10)
(1.25137e-09 -6.64819e-11 1.67656e-09)
(6.56885e-10 -1.34152e-10 1.07924e-09)
(1.1701e-08 5.10019e-09 8.55721e-10)
(4.9589e-09 2.16603e-09 2.17338e-10)
(4.5088e-10 -2.21421e-10 5.98557e-10)
(5.51033e-10 -1.67229e-10 7.19558e-10)
(7.87045e-10 2.32873e-10 2.30339e-10)
(8.96205e-10 1.65642e-10 2.64201e-10)
(-7.42783e-11 3.62876e-10 -2.91698e-10)
(-1.63219e-10 -1.92153e-10 1.17459e-10)
(-4.85752e-11 1.12011e-10 1.15351e-10)
(1.25427e-09 8.2418e-10 -2.87415e-10)
)
;
    }
    wall
    {
        type            calculated;
        value           nonuniform List<vector> 
66
(
(-8.42199e-10 5.21975e-10 1.15986e-09)
(-3.25824e-11 9.13685e-10 5.88991e-10)
(-5.50607e-10 6.07538e-10 1.73172e-10)
(6.5524e-10 1.3655e-10 1.05795e-09)
(3.55728e-10 2.28317e-10 3.62193e-10)
(-2.72526e-10 3.4116e-10 2.01193e-10)
(-1.00769e-09 4.08278e-10 9.17549e-10)
(-7.80397e-10 3.57121e-10 5.22674e-10)
(-1.09937e-09 2.90259e-10 2.16066e-10)
(-1.00584e-10 2.33077e-10 4.09874e-10)
(-3.09764e-10 4.5184e-10 3.48963e-10)
(-5.61743e-10 3.49983e-10 2.83228e-10)
(-9.67848e-10 2.76301e-10 5.06768e-10)
(-6.57147e-10 3.82558e-10 3.48048e-10)
(-1.10938e-08 2.24834e-08 8.58445e-10)
(-2.58393e-09 3.36937e-10 5.56085e-10)
(-1.02867e-09 3.31546e-10 3.69801e-10)
(2.03784e-10 2.10936e-10 2.07117e-10)
(-1.05373e-09 1.47016e-10 1.03858e-10)
(-1.06063e-09 2.4634e-10 2.34355e-10)
(-6.54598e-10 2.43807e-10 2.36564e-10)
(-1.24188e-10 1.23952e-10 1.24764e-10)
(-4.73007e-09 -2.06153e-11 6.12378e-10)
(-4.028e-09 -3.7187e-11 6.39548e-10)
(-1.33804e-09 6.80074e-11 1.36147e-10)
(3.95342e-10 1.24692e-10 1.05263e-10)
(1.70599e-10 9.3843e-10 -6.67544e-10)
(1.50881e-10 2.95129e-10 -1.96382e-10)
(5.9855e-10 3.79472e-10 3.70827e-10)
(5.98339e-10 1.33697e-09 1.02257e-10)
(-3.49971e-09 7.68624e-11 1.40386e-09)
(-1.87287e-09 9.38261e-11 8.75089e-10)
(-1.50573e-09 5.77162e-10 5.1334e-10)
(-9.36779e-10 6.12247e-10 1.78549e-10)
(-3.36037e-09 1.12146e-09 1.95998e-09)
(-3.80484e-09 9.9582e-10 1.11471e-09)
(-2.24972e-09 6.16563e-10 6.60151e-10)
(-1.16659e-09 3.46423e-10 2.0859e-10)
(-1.52196e-09 1.11527e-09 2.43243e-09)
(-2.13521e-09 9.89239e-10 1.7906e-09)
(-2.04775e-09 5.07208e-10 5.91396e-10)
(-1.4015e-09 2.95106e-10 2.22999e-10)
(-3.29859e-09 6.28734e-10 1.48104e-09)
(-2.63981e-09 5.98124e-10 1.15276e-09)
(-2.17129e-09 4.78423e-10 7.92825e-10)
(-1.21545e-09 3.52972e-10 2.93938e-10)
(-1.9974e-09 3.5234e-10 1.03814e-09)
(-1.01647e-09 2.49312e-10 6.31502e-10)
(-9.58424e-10 2.62194e-10 3.94514e-10)
(-2.49494e-08 2.30021e-08 1.48903e-09)
(-1.65968e-09 2.88196e-10 6.054e-10)
(-1.32824e-09 3.34427e-10 5.21379e-10)
(-8.50075e-10 2.66841e-10 4.93718e-10)
(-1.82058e-10 2.09501e-10 2.13907e-10)
(-5.04123e-10 1.20987e-10 5.02821e-10)
(8.49899e-11 2.02103e-10 4.58998e-10)
(-9.15926e-11 1.79718e-10 4.27178e-10)
(1.03045e-11 1.11615e-10 1.01234e-10)
(1.49095e-09 8.23674e-11 4.96142e-10)
(1.95296e-09 4.15719e-11 3.5586e-10)
(2.51005e-09 8.81651e-11 1.14251e-10)
(1.23158e-09 1.65512e-10 1.27525e-10)
(4.25366e-09 1.3297e-09 3.38185e-10)
(5.55679e-09 2.18548e-09 2.51482e-10)
(1.52398e-09 -5.57615e-11 3.04119e-10)
(3.23825e-09 4.91317e-10 -4.02345e-10)
)
;
    }
    procBoundary7to0
    {
        type            processor;
        value           uniform (-2.91695e-09 6.54227e-10 3.80576e-09);
    }
    procBoundary7to1
    {
        type            processor;
        value           uniform (-5.16844e-09 8.7048e-10 4.23419e-09);
    }
    procBoundary7to3
    {
        type            processor;
        value           nonuniform List<vector> 
36
(
(-5.23335e-09 1.15364e-09 5.34606e-09)
(-6.20401e-09 1.40752e-09 5.61007e-09)
(-5.96004e-09 1.49612e-09 5.20108e-09)
(-4.91243e-09 1.39032e-09 4.26698e-09)
(-3.35788e-09 1.21602e-09 3.25724e-09)
(-1.5826e-09 1.0279e-09 2.50839e-09)
(1.37144e-10 9.82346e-10 2.09921e-09)
(1.48089e-09 1.02792e-09 1.80662e-09)
(2.47023e-09 1.08416e-09 1.62305e-09)
(-3.50037e-09 9.94606e-10 4.92285e-09)
(-4.19948e-09 1.2236e-09 5.18533e-09)
(-4.21568e-09 1.25751e-09 4.77436e-09)
(-3.51978e-09 1.12321e-09 3.94567e-09)
(-2.26811e-09 9.69417e-10 2.97276e-09)
(-7.43695e-10 8.33228e-10 2.23397e-09)
(8.46023e-10 9.35685e-10 1.82991e-09)
(2.21585e-09 1.13721e-09 1.538e-09)
(3.20251e-09 1.3947e-09 1.30015e-09)
(-2.65322e-09 8.13517e-10 4.21826e-09)
(-3.22206e-09 1.0109e-09 4.44958e-09)
(-3.24018e-09 1.01423e-09 4.14204e-09)
(-2.74053e-09 8.77187e-10 3.38397e-09)
(-1.64978e-09 7.63516e-10 2.478e-09)
(-2.53403e-10 7.22549e-10 1.75725e-09)
(1.30442e-09 9.02333e-10 1.24351e-09)
(2.94458e-09 1.30403e-09 7.36274e-10)
(4.4761e-09 1.73279e-09 2.85582e-10)
(-2.37726e-09 6.54388e-10 3.45536e-09)
(-2.92748e-09 7.95248e-10 3.65973e-09)
(-2.89364e-09 8.78441e-10 3.46705e-09)
(-2.40568e-09 7.43497e-10 2.78765e-09)
(-1.37948e-09 6.61474e-10 2.04459e-09)
(2.30118e-11 7.17709e-10 1.31649e-09)
(1.76683e-09 1.03009e-09 6.29066e-10)
(3.88272e-09 1.60099e-09 -1.95441e-10)
(5.96819e-09 2.28436e-09 -1.03657e-09)
)
;
    }
    procBoundary7to5
    {
        type            processor;
        value           nonuniform List<vector> 
44
(
(-5.83871e-09 1.10218e-09 4.47068e-09)
(-5.49023e-09 1.18847e-09 4.0826e-09)
(-4.45642e-09 1.12345e-09 3.36441e-09)
(-3.10535e-09 1.01658e-09 2.58264e-09)
(-1.63636e-09 8.63049e-10 1.98979e-09)
(-2.20272e-10 7.42628e-10 1.63819e-09)
(9.86732e-10 6.58062e-10 1.42912e-09)
(1.85595e-09 4.83435e-10 1.39976e-09)
(-2.85634e-09 7.03384e-10 3.34284e-09)
(-3.0457e-09 8.11242e-10 3.45693e-09)
(-3.55522e-09 7.15687e-10 3.15853e-09)
(-2.98995e-09 6.98496e-10 2.62577e-09)
(-2.13789e-09 6.56559e-10 2.02287e-09)
(-1.1795e-09 5.83221e-10 1.55922e-09)
(-2.27099e-10 5.15666e-10 1.2673e-09)
(5.88787e-10 4.78625e-10 1.07038e-09)
(1.14321e-09 4.13324e-10 1.04391e-09)
(-2.85634e-09 7.03384e-10 3.34284e-09)
(-3.0457e-09 8.11242e-10 3.45693e-09)
(-3.0457e-09 8.11242e-10 3.45693e-09)
(-2.2476e-09 5.75507e-10 2.37178e-09)
(-1.92928e-09 5.54147e-10 2.02961e-09)
(-1.60372e-09 4.15513e-10 1.56849e-09)
(-9.38682e-10 4.04249e-10 1.21751e-09)
(-2.7092e-10 3.76913e-10 9.80954e-10)
(2.84558e-10 3.64286e-10 8.01616e-10)
(6.1864e-10 3.54022e-10 7.33506e-10)
(-2.25526e-09 5.16656e-10 2.37432e-09)
(-2.32429e-09 5.6974e-10 2.51388e-09)
(-2.2476e-09 5.75507e-10 2.37178e-09)
(-1.92928e-09 5.54147e-10 2.02961e-09)
(-1.92928e-09 5.54147e-10 2.02961e-09)
(-1.24649e-09 4.725e-10 1.29863e-09)
(-8.20121e-10 4.38882e-10 1.03394e-09)
(-4.08725e-10 3.12872e-10 7.98315e-10)
(-9.54743e-11 3.05292e-10 6.56391e-10)
(2.89803e-10 3.31842e-10 5.04622e-10)
(-1.90704e-09 3.58827e-10 1.83602e-09)
(-1.86127e-09 3.83841e-10 1.8988e-09)
(-1.86069e-09 4.19997e-10 1.81397e-09)
(-1.60045e-09 4.36628e-10 1.58603e-09)
(-1.24649e-09 4.725e-10 1.29863e-09)
(-8.20121e-10 4.38882e-10 1.03394e-09)
(-8.20121e-10 4.38882e-10 1.03394e-09)
)
;
    }
    procBoundary7to6
    {
        type            processor;
        value           nonuniform List<vector> 
12
(
(-2.15077e-09 6.84752e-10 3.52939e-09)
(-1.70617e-09 6.58072e-10 3.03903e-09)
(-1.48214e-09 5.53107e-10 2.51121e-09)
(-1.9569e-09 6.41357e-10 2.77966e-09)
(-1.60329e-09 6.67141e-10 2.41791e-09)
(-1.40709e-09 5.87825e-10 2.03619e-09)
(-1.77846e-09 5.95128e-10 2.0942e-09)
(-1.50943e-09 6.46044e-10 1.88059e-09)
(-1.3145e-09 5.82796e-10 1.62374e-09)
(-1.61089e-09 4.84699e-10 1.60807e-09)
(-1.36406e-09 5.81875e-10 1.50797e-09)
(-1.2092e-09 5.57932e-10 1.36727e-09)
)
;
    }
}


// ************************************************************************* //
