/*--------------------------------*- C++ -*----------------------------------*\
| =========                 |                                                 |
| \\      /  F ield         | OpenFOAM: The Open Source CFD Toolbox           |
|  \\    /   O peration     | Version:  4.x                                   |
|   \\  /    A nd           | Web:      www.OpenFOAM.org                      |
|    \\/     M anipulation  |                                                 |
\*---------------------------------------------------------------------------*/
FoamFile
{
    version     2.0;
    format      ascii;
    class       volScalarField;
    location    "40";
    object      particleRelTemp;
}
// * * * * * * * * * * * * * * * * * * * * * * * * * * * * * * * * * * * * * //

dimensions      [0 0 0 0 0 0 0];

internalField   nonuniform List<scalar> 
132
(
3.8207e-11
6.53858e-11
9.14343e-11
1.23898e-10
1.51095e-10
1.86834e-10
2.17159e-10
2.47476e-10
2.62047e-10
3.26667e-11
5.90659e-11
9.15444e-11
1.14124e-10
1.44621e-10
1.66951e-10
1.94999e-10
2.2348e-10
2.43821e-10
1.66072e-11
3.5383e-11
6.36988e-11
8.44571e-11
1.11397e-10
1.27139e-10
1.55772e-10
1.84943e-10
2.04318e-10
-5.12715e-12
1.11309e-11
2.98827e-11
5.70194e-11
7.35118e-11
9.27814e-11
1.17328e-10
1.40269e-10
1.62349e-10
9.42959e-11
1.18897e-10
1.47e-10
1.78212e-10
2.07194e-10
2.37027e-10
2.52537e-10
3.49836e-11
5.69235e-11
8.56291e-11
1.09982e-10
1.36641e-10
1.64105e-10
1.97415e-10
2.20722e-10
2.39437e-10
1.48442e-11
3.32455e-11
5.60605e-11
8.47396e-11
1.01816e-10
1.29636e-10
1.54134e-10
1.85337e-10
1.95842e-10
-9.05373e-12
8.92833e-12
3.30421e-11
5.2784e-11
7.25165e-11
8.92709e-11
1.15784e-10
1.37248e-10
1.57777e-10
1.32331e-10
1.4912e-10
1.74812e-10
1.93362e-10
2.25334e-10
8.23956e-12
4.30783e-11
6.16885e-11
8.93966e-11
1.113e-10
1.41233e-10
1.68315e-10
1.84869e-10
2.05606e-10
-7.78906e-12
9.8537e-12
3.15812e-11
5.82987e-11
7.91731e-11
1.0536e-10
1.28203e-10
1.43032e-10
1.62138e-10
-3.04997e-11
-9.80604e-12
8.21935e-12
2.90819e-11
4.1168e-11
5.88335e-11
8.48701e-11
9.84051e-11
1.17483e-10
1.38372e-10
1.5753e-10
1.68756e-10
-1.14843e-11
1.07695e-11
3.78316e-11
6.04363e-11
8.58125e-11
1.08415e-10
1.24293e-10
1.39399e-10
1.62368e-10
-2.94879e-11
-1.13959e-11
1.12878e-11
2.96122e-11
5.56037e-11
7.76874e-11
9.10839e-11
9.98367e-11
1.19518e-10
-5.0297e-11
-3.098e-11
-1.56918e-11
-9.08821e-13
2.03952e-11
3.67939e-11
5.4151e-11
6.05937e-11
6.06789e-11
)
;

boundaryField
{
    inlet
    {
        type            calculated;
        value           nonuniform 0();
    }
    outlet
    {
        type            calculated;
        value           nonuniform List<scalar> 
16
(
2.62047e-10
2.43821e-10
2.04318e-10
1.62349e-10
2.52537e-10
2.39437e-10
1.95842e-10
1.57777e-10
2.25334e-10
2.05606e-10
1.62138e-10
1.17483e-10
1.68756e-10
1.62368e-10
1.19518e-10
6.06789e-11
)
;
    }
    wall
    {
        type            calculated;
        value           nonuniform List<scalar> 
66
(
-1.14843e-11
-2.94879e-11
-5.0297e-11
1.07695e-11
-1.13959e-11
-3.098e-11
3.78316e-11
1.12878e-11
-1.56918e-11
6.04363e-11
2.96122e-11
-9.08821e-13
8.58125e-11
5.56037e-11
2.03952e-11
1.08415e-10
7.76874e-11
3.67939e-11
1.38372e-10
1.24293e-10
9.10839e-11
5.4151e-11
1.5753e-10
1.39399e-10
9.98367e-11
6.05937e-11
1.68756e-10
1.62368e-10
1.19518e-10
6.06789e-11
-5.12715e-12
-9.05373e-12
-3.04997e-11
-5.0297e-11
1.11309e-11
8.92833e-12
-9.80604e-12
-3.098e-11
2.98827e-11
3.30421e-11
8.21935e-12
-1.56918e-11
5.70194e-11
5.2784e-11
2.90819e-11
-9.08821e-13
7.35118e-11
7.25165e-11
4.1168e-11
2.03952e-11
9.27814e-11
8.92709e-11
5.88335e-11
3.67939e-11
1.17328e-10
1.15784e-10
8.48701e-11
5.4151e-11
1.40269e-10
1.37248e-10
9.84051e-11
6.05937e-11
1.62349e-10
1.57777e-10
1.17483e-10
6.06789e-11
)
;
    }
    procBoundary7to0
    {
        type            processor;
        value           uniform 1.02933e-11;
    }
    procBoundary7to1
    {
        type            processor;
        value           uniform 2.57829e-11;
    }
    procBoundary7to3
    {
        type            processor;
        value           nonuniform List<scalar> 
36
(
2.83745e-11
4.83623e-11
7.87546e-11
9.70674e-11
1.25994e-10
1.59779e-10
1.86524e-10
2.261e-10
2.37067e-10
1.39383e-11
4.16313e-11
6.87159e-11
9.63426e-11
1.26021e-10
1.51848e-10
1.811e-10
2.01668e-10
2.14014e-10
-7.0069e-13
1.23621e-11
4.64758e-11
6.97575e-11
9.8224e-11
1.2229e-10
1.34767e-10
1.62923e-10
1.74086e-10
-2.1485e-11
-1.38787e-11
1.09846e-11
3.65576e-11
6.11773e-11
7.06302e-11
9.71399e-11
1.18901e-10
1.47439e-10
)
;
    }
    procBoundary7to5
    {
        type            processor;
        value           nonuniform List<scalar> 
44
(
5.28165e-11
8.52918e-11
1.15033e-10
1.37902e-10
1.66516e-10
2.0028e-10
2.25465e-10
2.52889e-10
3.24525e-11
7.32992e-11
7.59076e-11
1.07807e-10
1.35986e-10
1.59567e-10
1.91887e-10
2.2187e-10
2.36439e-10
3.24525e-11
7.32992e-11
7.32992e-11
6.59156e-11
9.17401e-11
1.08522e-10
1.32352e-10
1.55959e-10
1.78148e-10
1.95631e-10
9.49795e-12
3.97954e-11
6.59156e-11
9.17401e-11
9.17401e-11
9.55386e-11
1.1729e-10
1.15957e-10
1.31475e-10
1.4732e-10
-6.0358e-12
1.37709e-11
3.9384e-11
6.53016e-11
9.55386e-11
1.1729e-10
1.1729e-10
)
;
    }
    procBoundary7to6
    {
        type            processor;
        value           nonuniform List<scalar> 
12
(
4.7319e-12
-9.87598e-12
-3.39266e-11
5.1085e-12
-1.37803e-11
-3.03946e-11
-1.18742e-11
-2.50606e-11
-4.77123e-11
-3.74236e-11
-4.44116e-11
-6.20148e-11
)
;
    }
}


// ************************************************************************* //
