/*--------------------------------*- C++ -*----------------------------------*\
| =========                 |                                                 |
| \\      /  F ield         | OpenFOAM: The Open Source CFD Toolbox           |
|  \\    /   O peration     | Version:  4.x                                   |
|   \\  /    A nd           | Web:      www.OpenFOAM.org                      |
|    \\/     M anipulation  |                                                 |
\*---------------------------------------------------------------------------*/
FoamFile
{
    version     2.0;
    format      ascii;
    class       volScalarField;
    location    "40";
    object      pSmooth;
}
// * * * * * * * * * * * * * * * * * * * * * * * * * * * * * * * * * * * * * //

dimensions      [1 -1 -2 0 0 0 0];

internalField   nonuniform List<scalar> 
132
(
21.0421
74.8352
2.4981
68.2951
0.1
62.493
0.1
57.2517
0.1
20.9481
74.8468
2.40138
68.103
0.1
61.1632
0.1
54.699
0.1
19.2507
74.7209
0.1
68.2431
0.1
62.7009
0.1
59.5225
0.1
19.7076
74.799
0.385345
68.5005
0.1
62.9547
0.1
59.2883
0.1
3.71887
68.2616
0.1
62.5202
0.1
56.5334
0.1
22.2268
74.8042
4.09816
68.4526
0.1
62.5994
0.1
56.7101
0.1
20.7749
74.7531
2.45753
68.2975
0.1
62.3883
0.1
56.2902
0.1
20.6923
75.116
2.13047
68.8529
0.1
62.874
0.1
57.2127
0.1
0.1
61.8672
0.1
56.692
0.1
21.115
74.8021
2.67774
68.1887
0.1
61.2918
0.1
54.4743
0.1
20.5692
74.8325
1.56609
68.21
0.1
62.3304
0.1
58.3395
0.1
20.6505
74.8615
1.90476
68.4861
0.1
62.6958
0.1
58.1953
0.1
0.1
58.7631
0.1
20.9399
74.9119
2.23597
68.3757
0.1
62.3193
0.1
57.2043
0.1
20.7206
74.8744
2.09136
68.545
0.1
62.8071
0.1
58.3252
0.1
20.9107
74.9245
2.3266
68.6497
0.1
62.705
0.1
57.2854
0.1
)
;

boundaryField
{
    inlet
    {
        type            zeroGradient;
    }
    outlet
    {
        type            fixedValue;
        value           uniform 0;
    }
    wall
    {
        type            zeroGradient;
    }
    procBoundary7to0
    {
        type            processor;
        value           uniform 81.8529;
    }
    procBoundary7to1
    {
        type            processor;
        value           uniform 22.2466;
    }
    procBoundary7to3
    {
        type            processor;
        value           nonuniform List<scalar> 
36
(
18.9405
74.7011
0.1
68.2922
0.1
63.0403
0.1
58.8839
0.1
20.5798
74.7392
2.28183
68.6368
0.1
63.2837
0.1
58.014
0.1
19.451
74.8183
0.205237
68.1942
0.1
62.5361
0.1
58.4831
0.1
19.5436
74.8386
0.444663
68.8057
0.1
63.5561
0.1
60.1568
0.1
)
;
    }
    procBoundary7to5
    {
        type            processor;
        value           nonuniform List<scalar> 
44
(
75.055
4.6778
68.4477
0.1
61.7596
0.1
53.7759
0.1
21.66
74.7174
2.45763
68.2898
0.1
62.4459
0.1
57.7499
0.1
21.66
74.7174
74.7174
1.75831
68.0234
0.1
61.2978
0.1
54.5531
0.1
20.6283
74.8518
1.75831
68.0234
68.0234
0.1
62.6939
0.1
58.9922
0.1
20.4441
74.7956
1.45346
68.4171
0.1
62.6939
62.6939
)
;
    }
    procBoundary7to6
    {
        type            processor;
        value           nonuniform List<scalar> 
12
(
82.0017
81.628
81.5882
81.7022
81.9104
81.8102
82.1065
81.8412
81.6902
81.7733
81.6682
81.6276
)
;
    }
}


// ************************************************************************* //
