/*--------------------------------*- C++ -*----------------------------------*\
| =========                 |                                                 |
| \\      /  F ield         | OpenFOAM: The Open Source CFD Toolbox           |
|  \\    /   O peration     | Version:  4.x                                   |
|   \\  /    A nd           | Web:      www.OpenFOAM.org                      |
|    \\/     M anipulation  |                                                 |
\*---------------------------------------------------------------------------*/
FoamFile
{
    version     2.0;
    format      ascii;
    class       volScalarField;
    location    "1";
    object      partTemp;
}
// * * * * * * * * * * * * * * * * * * * * * * * * * * * * * * * * * * * * * //

dimensions      [0 0 0 1 0 0 0];

internalField   nonuniform List<scalar> 
87
(
300.006
300.006
300.006
300.004
300.002
299.997
299.989
299.981
299.978
300.01
300.01
300.008
300.005
300.001
299.993
299.983
299.975
299.973
300.012
300.012
300.009
300.005
299.997
299.99
299.977
299.97
299.967
300.007
300.008
300.008
300.006
300.003
299.997
299.989
299.98
299.976
300.009
300.011
300.011
300.007
300.001
299.991
299.982
299.97
299.96
300.013
300.013
300.012
300.007
299.997
299.988
299.977
299.963
299.955
300.006
300.008
300.009
300.007
300.004
299.998
299.992
299.981
299.97
300.009
300.011
300.012
300.009
300.003
299.994
299.98
299.968
299.955
300.012
300.015
300.014
300.012
300.003
299.988
299.971
299.959
299.948
300.005
300.006
300.007
300.007
300.01
300.009
)
;

boundaryField
{
    inlet
    {
        type            zeroGradient;
    }
    outlet
    {
        type            zeroGradient;
    }
    wall
    {
        type            zeroGradient;
    }
    procBoundary1to0
    {
        type            processor;
        value           nonuniform List<scalar> 
12
(
300.004
300.007
300.011
300.005
300.008
300.011
300.004
300.006
300.008
300.002
300.004
300.005
)
;
    }
    procBoundary1to3
    {
        type            processor;
        value           nonuniform List<scalar> 
27
(
300.012
300.013
300.01
300.007
299.999
299.989
299.978
299.967
299.963
300.013
300.015
300.013
300.008
299.999
299.989
299.975
299.961
299.956
300.012
300.016
300.016
300.012
300.001
299.99
299.974
299.955
299.948
)
;
    }
    procBoundary1to5
    {
        type            processor;
        value           nonuniform List<scalar> 
32
(
300.007
300.004
300.001
299.994
299.985
299.975
300.011
300.009
300.005
299.997
299.987
299.971
299.957
300.013
300.014
300.011
300.005
299.994
299.978
299.961
299.944
300.002
300.003
300.007
300.011
300.006
300.003
300.011
300.013
300.006
300.013
300.005
)
;
    }
    procBoundary1to7
    {
        type            processor;
        value           uniform 300.01;
    }
}


// ************************************************************************* //
