/*--------------------------------*- C++ -*----------------------------------*\
| =========                 |                                                 |
| \\      /  F ield         | OpenFOAM: The Open Source CFD Toolbox           |
|  \\    /   O peration     | Version:  4.x                                   |
|   \\  /    A nd           | Web:      www.OpenFOAM.org                      |
|    \\/     M anipulation  |                                                 |
\*---------------------------------------------------------------------------*/
FoamFile
{
    version     2.0;
    format      ascii;
    class       volScalarField;
    location    "1";
    object      thCond;
}
// * * * * * * * * * * * * * * * * * * * * * * * * * * * * * * * * * * * * * //

dimensions      [1 1 -3 -1 0 0 0];

internalField   nonuniform List<scalar> 
87
(
193.126
192.772
192.694
192.337
192.394
192.013
191.645
191.699
191.869
192.921
192.739
192.526
192.317
192.239
191.845
191.494
191.645
191.925
192.656
192.428
192.353
191.884
191.934
191.794
191.586
191.571
191.761
192.088
192.043
191.903
191.545
191.461
191.124
190.804
190.964
191.217
191.829
191.881
191.718
191.401
191.321
191.107
190.802
190.784
191.228
191.584
191.576
191.474
191.253
191.143
190.858
190.649
190.54
191.092
191.307
191.222
190.894
190.663
190.662
190.298
190.316
190.547
190.882
191.018
190.956
190.96
190.712
190.541
190.317
190.257
190.311
190.774
190.834
190.832
190.786
190.353
190.261
190.091
190.109
190.136
190.641
190.82
190.716
190.31
190.541
190.185
190.451
)
;

boundaryField
{
    inlet
    {
        type            zeroGradient;
    }
    outlet
    {
        type            zeroGradient;
    }
    wall
    {
        type            zeroGradient;
    }
    procBoundary1to0
    {
        type            processor;
        value           nonuniform List<scalar> 
12
(
193.473
192.949
192.516
192.267
191.962
191.86
191.639
191.316
191.248
191.167
190.86
190.625
)
;
    }
    procBoundary1to3
    {
        type            processor;
        value           nonuniform List<scalar> 
27
(
192.446
192.363
192.007
192.132
191.979
191.981
191.663
191.644
191.529
191.402
191.317
191.01
190.968
190.907
190.948
190.79
190.711
190.541
190.619
190.428
190.349
190.202
190.294
190.196
189.909
190.049
190.055
)
;
    }
    procBoundary1to5
    {
        type            processor;
        value           nonuniform List<scalar> 
32
(
190.25
190.031
190.005
189.912
189.869
189.864
190.309
190.285
190.098
189.93
189.733
189.682
189.803
190.164
190.245
190.003
189.991
189.921
189.726
189.807
189.679
190.405
190.446
190.25
190.309
190.111
190.199
190.309
190.164
190.124
190.164
190.048
)
;
    }
    procBoundary1to7
    {
        type            processor;
        value           uniform 190.109;
    }
}


// ************************************************************************* //
