/*--------------------------------*- C++ -*----------------------------------*\
| =========                 |                                                 |
| \\      /  F ield         | OpenFOAM: The Open Source CFD Toolbox           |
|  \\    /   O peration     | Version:  4.x                                   |
|   \\  /    A nd           | Web:      www.OpenFOAM.org                      |
|    \\/     M anipulation  |                                                 |
\*---------------------------------------------------------------------------*/
FoamFile
{
    version     2.0;
    format      ascii;
    class       volVectorField;
    location    "1";
    object      U;
}
// * * * * * * * * * * * * * * * * * * * * * * * * * * * * * * * * * * * * * //

dimensions      [0 1 -1 0 0 0 0];

internalField   nonuniform List<vector> 
87
(
(0.0520773 -0.0159694 0.000222387)
(0.0867543 -0.0204605 -0.00197366)
(0.0865686 -0.0180345 -0.00153176)
(0.115713 -0.013904 0.00171784)
(0.090714 0.000506522 0.0122581)
(0.0718849 0.0276092 0.0280465)
(-0.0182542 0.0180419 0.0267899)
(-0.0275922 0.00828381 0.0014748)
(-0.0426529 -0.032582 0.00728213)
(-0.0223089 -0.0253159 -0.00280137)
(0.0052652 -0.0223712 -0.00252247)
(-0.026855 -0.0146943 0.00137814)
(-0.00462145 -0.00136699 0.00573636)
(-0.0505348 0.0173953 0.0186014)
(-0.0454912 0.024165 0.0176753)
(-0.0768215 0.0129043 0.0143893)
(-0.075999 0.000819046 0.00343316)
(-0.0665987 -0.000814823 0.0134621)
(-0.0372515 -0.0150198 0.00463433)
(-0.0361613 -0.0146691 0.00192497)
(-0.0689489 -0.00856037 0.00366184)
(-0.0608578 0.00228291 0.00496397)
(-0.0847145 0.0122552 0.00902541)
(-0.0676002 0.0183238 0.00661117)
(-0.0825059 0.0109263 0.00455285)
(-0.0712249 0.000161882 -0.000256084)
(-0.0683681 -0.00376104 0.00539533)
(0.0377052 -0.0117257 0.00947606)
(0.0683319 -0.0168706 0.00703565)
(0.055552 -0.0144427 0.00526784)
(0.0853705 -0.0143524 0.00684149)
(0.0686781 -0.00390423 0.0170026)
(0.0810728 0.014539 0.0307746)
(0.0456606 0.0127066 0.0481648)
(0.0432658 0.0235397 0.011893)
(-0.00211092 -0.0155837 0.0799016)
(-0.0294329 -0.0244973 0.00207861)
(-0.0101953 -0.0258837 -0.000992405)
(-0.0419785 -0.0218333 -0.000451301)
(-0.0163373 -0.0131951 -0.000465075)
(-0.0484938 0.00302576 0.0129003)
(-0.0116763 0.0121451 0.0151373)
(-0.0354634 0.0124368 0.0260192)
(-0.00938041 0.0157372 -0.00773884)
(-0.0115278 0.00181207 0.00266165)
(-0.0405277 -0.0119264 0.00564745)
(-0.0393592 -0.0161697 -0.000305856)
(-0.0741022 -0.0131948 0.000104786)
(-0.0640633 -0.00459687 -8.92379e-05)
(-0.0825334 0.00363671 0.00677346)
(-0.0538091 0.0124933 0.00699322)
(-0.0670025 0.00789227 0.0121868)
(-0.0421798 0.0115309 -0.00148036)
(-0.0433147 -0.00175071 0.0323358)
(0.0490187 -0.0105172 0.0212838)
(0.0770508 -0.0147701 0.0203312)
(0.0678053 -0.0126321 0.0189156)
(0.0957157 -0.0150126 0.0138242)
(0.0838177 -0.00783316 0.0204791)
(0.111912 0.00341621 0.0243132)
(0.0942152 0.00480128 0.0441326)
(0.140022 0.0220957 0.00842275)
(0.0431319 -0.0395681 0.0928391)
(-0.0137318 -0.0172547 0.0117463)
(0.01121 -0.0199364 0.00802873)
(-0.0251951 -0.0187211 0.00709494)
(0.0063784 -0.0126865 -0.000477513)
(-0.0359258 -0.0057378 0.00809461)
(0.0139412 -0.00106309 0.00341007)
(-0.0168985 8.62562e-05 0.0190482)
(0.0455477 0.0324753 -0.0117498)
(0.000349654 -0.0714144 0.0168239)
(-0.0217722 -0.0033662 0.0130436)
(-0.008809 -0.00737516 0.00563989)
(-0.0498072 -0.00857213 0.00504956)
(-0.0340647 -0.00747597 -0.00614733)
(-0.0659657 -0.0047638 -0.0027635)
(-0.0340777 0.00140956 -0.0070505)
(-0.0600958 -0.0010324 0.00205675)
(-0.00650361 0.0148174 -0.015218)
(-0.0240224 0.00796208 0.0445896)
(0.062927 -0.010423 0.0222196)
(0.0906244 -0.0122741 0.0212945)
(0.0832879 -0.0118043 0.0200152)
(-0.00143941 -0.00655562 0.00338788)
(0.0199876 -0.0102397 0.0019348)
(-0.00683484 -5.96889e-05 0.00356998)
)
;

boundaryField
{
    inlet
    {
        type            fixedValue;
        value           nonuniform 0();
    }
    outlet
    {
        type            zeroGradient;
    }
    wall
    {
        type            fixedValue;
        value           uniform (0 0 0);
    }
    procBoundary1to0
    {
        type            processor;
        value           nonuniform List<vector> 
12
(
(0.0604791 -0.015128 0.000584305)
(0.0122843 -0.0278948 -0.00238344)
(-0.00500647 -0.0156445 0.00588481)
(0.0547713 -0.0122505 0.00886745)
(0.00588424 -0.0222998 0.000370722)
(-0.00482685 -0.00835194 0.00756507)
(0.0616118 -0.0111643 0.0196248)
(0.0190503 -0.0162822 0.00860882)
(0.0114836 -0.00135619 0.00602408)
(0.0725942 -0.00959983 0.0208971)
(0.0207227 -0.00795992 0.00402727)
(0.0123724 -0.000329231 0.00181235)
)
;
    }
    procBoundary1to3
    {
        type            processor;
        value           nonuniform List<vector> 
27
(
(-0.0271087 0.00818964 0.000277321)
(-0.0315166 0.00546756 -0.00173763)
(-0.0708299 0.00613285 0.000712061)
(-0.0672076 0.00617388 0.00279194)
(-0.0887996 0.00956313 0.00443916)
(-0.0732323 0.00448477 0.00204627)
(-0.076237 0.00149182 0.00299258)
(-0.0606262 -0.014806 0.00684546)
(-0.0504788 0.0163168 0.0147143)
(-0.020197 0.00464474 0.0124542)
(-0.0216576 0.00147939 0.00803159)
(-0.0701221 0.001761 0.00559374)
(-0.0688885 0.00279772 -0.0037416)
(-0.0901397 0.00493553 -0.00312654)
(-0.071146 0.00576549 -0.0066562)
(-0.0739581 0.00452369 -0.00221601)
(-0.0552964 0.0035438 -0.00173424)
(-0.0344458 0.00443722 0.0269874)
(-0.00274642 0.00537208 0.0125353)
(0.0291688 0.0048912 0.0119485)
(-0.0169415 0.00637284 0.0176475)
(0.0150057 0.00232942 0.00121264)
(-0.0346857 0.00473747 0.000464299)
(-0.00693939 0.00278586 -0.00957608)
(-0.0431212 -0.00161529 -0.00796428)
(-0.0210937 0.00782916 -0.0250486)
(0.00624668 -0.00190165 0.0146802)
)
;
    }
    procBoundary1to5
    {
        type            processor;
        value           nonuniform List<vector> 
32
(
(0.112665 -0.012866 0.0162739)
(0.106123 -0.0105055 0.016998)
(0.145295 -0.00205135 0.0164105)
(0.127944 -0.00604095 0.0161774)
(0.210335 0.019797 0.00571799)
(0.0711718 -0.0803053 -0.0032127)
(-0.0089606 -0.00743147 0.00155064)
(0.0218062 -0.0107693 3.78305e-05)
(-0.0156786 -0.00686302 0.00378125)
(0.0379947 -0.000131342 -0.00529633)
(0.000540301 -0.00423984 0.00141082)
(0.0598761 0.044202 -0.0210624)
(-0.000503122 -0.126237 0.0061699)
(0.0102319 -0.00148001 0.000172219)
(-0.0214037 -0.00871682 0.000652388)
(0.00170204 -0.00684666 -0.00245588)
(-0.0432593 -0.0147867 -0.00269127)
(-0.00674762 -0.00261737 -0.00629892)
(-0.0500637 -0.0022394 -0.0123517)
(0.00921054 0.0248319 -0.016943)
(-0.0226101 0.00648646 0.00634679)
(0.0662597 -0.00829478 0.0212302)
(0.0929984 -0.010571 0.0210993)
(0.112665 -0.012866 0.0162739)
(-0.0089606 -0.00743147 0.00155064)
(0.089297 -0.00899182 0.0182135)
(0.000741323 -0.00439028 0.00319166)
(-0.0089606 -0.00743147 0.00155064)
(0.0102319 -0.00148001 0.000172219)
(0.0169336 -0.00828451 0.00323131)
(0.0102319 -0.00148001 0.000172219)
(-0.00909019 -0.00150788 0.00753242)
)
;
    }
    procBoundary1to7
    {
        type            processor;
        value           uniform (0.00335658 0.000990369 -0.00060587);
    }
}


// ************************************************************************* //
