/*--------------------------------*- C++ -*----------------------------------*\
| =========                 |                                                 |
| \\      /  F ield         | OpenFOAM: The Open Source CFD Toolbox           |
|  \\    /   O peration     | Version:  4.x                                   |
|   \\  /    A nd           | Web:      www.OpenFOAM.org                      |
|    \\/     M anipulation  |                                                 |
\*---------------------------------------------------------------------------*/
FoamFile
{
    version     2.0;
    format      ascii;
    class       volVectorField;
    location    "48.5";
    object      ddtUrel;
}
// * * * * * * * * * * * * * * * * * * * * * * * * * * * * * * * * * * * * * //

dimensions      [0 1 -2 0 0 0 0];

internalField   nonuniform List<vector> 
108
(
(-6.26031e-09 -2.93978e-09 -1.23783e-10)
(-7.13478e-09 -4.66915e-09 -2.82594e-10)
(-4.76401e-09 -7.07293e-09 -6.42543e-10)
(-1.19092e-09 -1.06268e-08 -1.22018e-09)
(2.55733e-09 -1.51066e-08 -1.94837e-09)
(6.27571e-09 -2.03451e-08 -2.7662e-09)
(9.67232e-09 -2.5881e-08 -3.63778e-09)
(1.28559e-08 -3.07577e-08 -4.44633e-09)
(1.46581e-08 -3.3791e-08 -5.28337e-09)
(-2.41674e-09 -3.3978e-09 -2.41116e-10)
(-2.15919e-09 -5.5231e-09 -4.7628e-10)
(-5.88664e-10 -8.62137e-09 -9.24511e-10)
(1.93366e-09 -1.30145e-08 -1.64756e-09)
(5.20273e-09 -1.88053e-08 -2.63254e-09)
(9.06527e-09 -2.58517e-08 -3.84242e-09)
(1.31871e-08 -3.34363e-08 -5.2602e-09)
(1.74539e-08 -4.00979e-08 -6.76181e-09)
(2.05698e-08 -4.39264e-08 -8.13996e-09)
(-6.85728e-10 -3.73711e-09 -3.16361e-10)
(-8.47505e-11 -6.25599e-09 -6.08703e-10)
(1.40566e-09 -9.93901e-09 -1.14674e-09)
(3.80185e-09 -1.51198e-08 -2.02357e-09)
(7.21034e-09 -2.21215e-08 -3.26497e-09)
(1.16803e-08 -3.08319e-08 -4.88957e-09)
(1.71419e-08 -4.02887e-08 -6.98036e-09)
(2.39333e-08 -4.83568e-08 -9.59774e-09)
(3.03136e-08 -5.20547e-08 -1.26966e-08)
(-7.02449e-11 -4.06656e-09 -3.68572e-10)
(6.27017e-10 -6.71539e-09 -7.09077e-10)
(2.10122e-09 -1.07755e-08 -1.32029e-09)
(4.67342e-09 -1.63648e-08 -2.28808e-09)
(8.3206e-09 -2.4106e-08 -3.67106e-09)
(1.34273e-08 -3.38178e-08 -5.5956e-09)
(2.03683e-08 -4.43213e-08 -8.36332e-09)
(3.16582e-08 -5.2512e-08 -1.28662e-08)
(5.34759e-08 -5.18264e-08 -2.33814e-08)
(-4.30582e-09 -3.33139e-09 -2.23756e-10)
(-4.44584e-09 -5.40813e-09 -4.48761e-10)
(-2.52775e-09 -8.46917e-09 -8.8708e-10)
(5.50816e-10 -1.2865e-08 -1.57445e-09)
(4.17857e-09 -1.87436e-08 -2.49897e-09)
(8.12613e-09 -2.60327e-08 -3.60627e-09)
(1.21062e-08 -3.41219e-08 -4.82844e-09)
(1.57309e-08 -4.15228e-08 -5.93095e-09)
(1.81461e-08 -4.61263e-08 -6.79232e-09)
(-1.52659e-09 -3.90893e-09 -3.35516e-10)
(-9.8918e-10 -6.44912e-09 -6.40322e-10)
(6.52633e-10 -1.03271e-08 -1.19232e-09)
(3.34965e-09 -1.60412e-08 -2.09826e-09)
(7.05596e-09 -2.39773e-08 -3.37654e-09)
(1.16659e-08 -3.42303e-08 -5.01711e-09)
(1.68542e-08 -4.60167e-08 -6.93837e-09)
(2.19676e-08 -5.70942e-08 -8.88441e-09)
(2.54863e-08 -6.41104e-08 -1.02836e-08)
(-1.15881e-10 -4.38698e-09 -4.12554e-10)
(7.23143e-10 -7.35655e-09 -7.91626e-10)
(2.45207e-09 -1.19802e-08 -1.45191e-09)
(5.26758e-09 -1.89085e-08 -2.57712e-09)
(9.42575e-09 -2.88191e-08 -4.2052e-09)
(1.50191e-08 -4.20033e-08 -6.3915e-09)
(2.18621e-08 -5.75935e-08 -9.11513e-09)
(2.91515e-08 -7.26531e-08 -1.21031e-08)
(3.4781e-08 -8.22493e-08 -1.45287e-08)
(4.131e-10 -4.69345e-09 -4.78008e-10)
(1.34774e-09 -7.9045e-09 -9.01729e-10)
(3.22351e-09 -1.29804e-08 -1.65604e-09)
(6.2558e-09 -2.06436e-08 -2.89981e-09)
(1.08137e-08 -3.17985e-08 -4.72945e-09)
(1.71706e-08 -4.68833e-08 -7.28886e-09)
(2.54325e-08 -6.50426e-08 -1.06564e-08)
(3.52003e-08 -8.28411e-08 -1.46728e-08)
(4.43419e-08 -9.38039e-08 -1.86952e-08)
(-2.24911e-09 -4.04528e-09 -3.82074e-10)
(-1.75612e-09 -6.74381e-09 -7.0776e-10)
(1.03677e-10 -1.09256e-08 -1.2987e-09)
(3.16447e-09 -1.72221e-08 -2.24541e-09)
(7.27121e-09 -2.61793e-08 -3.60097e-09)
(1.23181e-08 -3.80496e-08 -5.3645e-09)
(1.79935e-08 -5.21001e-08 -7.42653e-09)
(2.33851e-08 -6.57535e-08 -9.42798e-09)
(2.69961e-08 -7.46461e-08 -1.07567e-08)
(-4.27506e-10 -4.83125e-09 -5.07249e-10)
(5.27127e-10 -8.20845e-09 -9.38846e-10)
(2.54932e-09 -1.36409e-08 -1.71753e-09)
(5.92852e-09 -2.21803e-08 -3.01404e-09)
(1.09479e-08 -3.48497e-08 -4.94588e-09)
(1.77459e-08 -5.24799e-08 -7.61041e-09)
(2.60583e-08 -7.44188e-08 -1.09096e-08)
(3.45403e-08 -9.69291e-08 -1.43382e-08)
(4.04416e-08 -1.12308e-07 -1.67112e-08)
(6.57125e-10 -5.50972e-09 -6.152e-10)
(1.91887e-09 -9.51087e-09 -1.14673e-09)
(4.23682e-09 -1.61353e-08 -2.09354e-09)
(8.13249e-09 -2.68198e-08 -3.72893e-09)
(1.43194e-08 -4.3239e-08 -6.25349e-09)
(2.31903e-08 -6.70535e-08 -9.88082e-09)
(3.47367e-08 -9.81196e-08 -1.46278e-08)
(4.73062e-08 -1.31745e-07 -1.98512e-08)
(5.65953e-08 -1.56036e-07 -2.36736e-08)
(1.11395e-09 -5.91708e-09 -7.00632e-10)
(2.51269e-09 -1.0303e-08 -1.29588e-09)
(5.11056e-09 -1.76796e-08 -2.36384e-09)
(9.47439e-09 -2.96694e-08 -4.20083e-09)
(1.64425e-08 -4.85952e-08 -7.0933e-09)
(2.68427e-08 -7.67531e-08 -1.14001e-08)
(4.09247e-08 -1.14711e-07 -1.72541e-08)
(5.70154e-08 -1.57489e-07 -2.39946e-08)
(6.96404e-08 -1.89836e-07 -2.92305e-08)
)
;

boundaryField
{
    inlet
    {
        type            calculated;
        value           nonuniform 0();
    }
    outlet
    {
        type            calculated;
        value           nonuniform List<vector> 
12
(
(1.0206e-08 1.36749e-10 6.19355e-10)
(1.50024e-08 -4.59679e-10 6.83377e-10)
(-1.34056e-09 2.09127e-09 1.82398e-09)
(2.25668e-07 7.97044e-08 -1.03674e-07)
(1.92489e-09 3.29851e-10 5.70506e-10)
(-1.44585e-10 -2.8211e-11 5.62551e-10)
(-1.26517e-10 -2.04572e-10 2.1019e-10)
(-1.70359e-09 1.08566e-09 2.39738e-09)
(-2.43912e-10 1.32501e-10 5.22828e-10)
(-1.03469e-11 1.25779e-10 3.36232e-10)
(-1.40409e-10 -4.05961e-10 8.27383e-10)
(-6.49594e-10 -4.50295e-10 1.61625e-09)
)
;
    }
    wall
    {
        type            calculated;
        value           nonuniform List<vector> 
63
(
(-3.21141e-09 7.0853e-11 2.92478e-10)
(-1.39203e-09 3.23084e-10 3.51778e-10)
(-8.98506e-10 1.53754e-09 3.58101e-10)
(-8.37149e-10 -9.03982e-12 3.23275e-10)
(-6.60666e-09 2.14544e-10 4.72812e-10)
(-1.99146e-09 1.59856e-10 5.38648e-10)
(-1.85627e-09 -8.55112e-12 6.40935e-10)
(-1.712e-09 2.22391e-11 4.48793e-10)
(-3.5043e-09 2.29174e-09 5.96002e-10)
(-1.02851e-09 1.56945e-10 6.09075e-10)
(-9.42766e-10 -3.69949e-10 7.2147e-10)
(-2.86305e-09 -1.69072e-09 3.19978e-10)
(-2.18153e-09 5.11748e-10 3.56235e-10)
(-1.03808e-09 -3.60377e-11 4.27648e-10)
(-1.07671e-09 -3.01475e-10 5.03503e-10)
(-1.20009e-09 -1.07536e-10 1.08303e-10)
(-5.04287e-10 2.95941e-12 2.35823e-10)
(-2.82871e-10 -4.03117e-11 2.16449e-10)
(-1.7598e-10 -1.20738e-10 1.67715e-10)
(-7.26915e-10 -1.22256e-10 7.01677e-11)
(2.17391e-09 2.50562e-10 4.86887e-10)
(1.75241e-09 4.5475e-12 4.17024e-10)
(1.96595e-09 -1.1524e-10 2.17573e-10)
(2.71943e-09 -1.493e-10 2.11648e-10)
(2.09096e-10 -1.36393e-12 5.94208e-10)
(3.62484e-10 5.83867e-11 4.50173e-10)
(1.29048e-09 4.88332e-11 4.08145e-10)
(1.3998e-09 -4.19953e-10 1.81032e-10)
(3.718e-09 -3.16608e-10 1.45661e-09)
(3.34681e-09 -2.38823e-10 1.18517e-09)
(1.18039e-08 -4.97789e-10 1.14576e-09)
(1.68125e-08 -9.6238e-10 2.40685e-09)
(-1.26481e-09 -3.58814e-09 -1.95454e-09)
(3.74801e-09 -4.98326e-10 -7.85975e-10)
(-1.52769e-09 5.82496e-09 3.19762e-09)
(2.35228e-07 7.78407e-08 -1.08844e-07)
(-1.06984e-09 3.64798e-12 3.27231e-10)
(-3.50774e-10 1.39986e-10 3.45503e-10)
(-2.27769e-10 -4.44203e-13 1.44855e-10)
(-3.60855e-09 7.16024e-11 4.4803e-10)
(-2.03733e-09 1.03502e-10 4.69974e-10)
(-9.01064e-10 2.44626e-11 2.68558e-10)
(-5.55852e-09 -1.48626e-09 2.93513e-10)
(-8.52985e-10 -3.57592e-11 4.64245e-10)
(-4.57073e-10 -5.15376e-10 4.19465e-10)
(-1.31552e-09 -9.80081e-11 1.10808e-10)
(-1.09643e-09 -1.77373e-11 1.28942e-10)
(-2.07969e-10 -7.24029e-11 1.22739e-10)
(-7.85863e-10 -1.09581e-10 7.39057e-11)
(-4.39931e-10 -5.56343e-11 3.79573e-11)
(-4.68868e-10 -2.53247e-11 6.66953e-11)
(1.68067e-09 -1.35705e-10 1.69589e-10)
(-1.02341e-09 -3.61249e-11 6.04826e-12)
(-7.85823e-11 -5.91118e-11 -2.02883e-11)
(2.42052e-09 -7.51569e-10 1.75216e-10)
(-2.65157e-10 -1.3288e-10 -1.08356e-10)
(1.34126e-11 -3.24634e-11 8.25853e-11)
(1.41551e-08 -8.36246e-10 2.34059e-09)
(6.05864e-10 -2.41739e-10 5.68517e-10)
(-1.66965e-09 1.60204e-10 6.49905e-11)
(5.12863e-07 -7.92628e-08 -3.83363e-07)
(-2.15393e-09 1.08875e-09 2.00076e-09)
(-1.20386e-09 -4.00566e-10 1.75635e-09)
)
;
    }
    procBoundary3to1
    {
        type            processor;
        value           nonuniform List<vector> 
27
(
(-1.45031e-08 -2.5222e-09 8.39712e-11)
(-1.94159e-08 -3.9188e-09 5.68305e-11)
(-1.30857e-08 -5.89398e-09 -2.84608e-10)
(-6.09475e-09 -8.56075e-09 -7.86527e-10)
(-5.44419e-10 -1.18331e-08 -1.32686e-09)
(3.81731e-09 -1.55428e-08 -1.84196e-09)
(7.40402e-09 -1.93548e-08 -2.29422e-09)
(1.08637e-08 -2.25934e-08 -2.50995e-09)
(1.24456e-08 -2.4598e-08 -2.91324e-09)
(-9.47297e-09 -2.84816e-09 -7.1511e-11)
(-1.13903e-08 -4.49828e-09 -1.92993e-10)
(-7.98894e-09 -6.86517e-09 -5.38162e-10)
(-3.27319e-09 -1.01063e-08 -1.07158e-09)
(1.15381e-09 -1.42642e-08 -1.72437e-09)
(5.09817e-09 -1.92127e-08 -2.42242e-09)
(8.63973e-09 -2.45084e-08 -3.10787e-09)
(1.16729e-08 -2.91835e-08 -3.62674e-09)
(1.35687e-08 -3.2037e-08 -4.02647e-09)
(-5.10181e-09 -3.43229e-09 -2.54122e-10)
(-5.38492e-09 -5.56174e-09 -4.67067e-10)
(-3.27277e-09 -8.68435e-09 -9.00784e-10)
(8.34007e-11 -1.31351e-08 -1.57455e-09)
(3.91e-09 -1.91637e-08 -2.48236e-09)
(7.96341e-09 -2.67667e-08 -3.56864e-09)
(1.20586e-08 -3.53546e-08 -4.76814e-09)
(1.56632e-08 -4.32985e-08 -5.8512e-09)
(1.79633e-08 -4.82878e-08 -6.53983e-09)
)
;
    }
    procBoundary3to2
    {
        type            processor;
        value           nonuniform List<vector> 
12
(
(-4.54525e-09 -1.80835e-09 -9.43892e-11)
(-2.07686e-09 -2.05013e-09 -1.41377e-10)
(-8.5152e-10 -2.26844e-09 -1.68615e-10)
(-4.54468e-10 -2.41866e-09 -1.90639e-10)
(-3.29156e-09 -2.02792e-09 -1.51125e-10)
(-1.433e-09 -2.31577e-09 -1.98074e-10)
(-4.32549e-10 -2.57307e-09 -2.2812e-10)
(-6.70642e-11 -2.7366e-09 -2.61368e-10)
(-1.96295e-09 -2.43089e-09 -2.34955e-10)
(-6.93708e-10 -2.80068e-09 -2.9026e-10)
(7.23734e-11 -3.13765e-09 -3.36989e-10)
(3.82032e-10 -3.34501e-09 -3.77776e-10)
)
;
    }
    procBoundary3to7
    {
        type            processor;
        value           nonuniform List<vector> 
36
(
(-5.80212e-10 -5.10442e-09 -5.82016e-10)
(4.36422e-10 -8.73828e-09 -1.04361e-09)
(2.63486e-09 -1.45714e-08 -1.87213e-09)
(6.27915e-09 -2.37697e-08 -3.22545e-09)
(1.16791e-08 -3.76781e-08 -5.27958e-09)
(1.90525e-08 -5.73528e-08 -8.15671e-09)
(2.81427e-08 -8.22774e-08 -1.17801e-08)
(3.74777e-08 -1.0827e-07 -1.55574e-08)
(4.39649e-08 -1.26288e-07 -1.81724e-08)
(6.49624e-10 -6.11994e-09 -7.42427e-10)
(2.10062e-09 -1.0741e-08 -1.35889e-09)
(4.85824e-09 -1.85491e-08 -2.48426e-09)
(9.55801e-09 -3.14967e-08 -4.39159e-09)
(1.70626e-08 -5.2135e-08 -7.44715e-09)
(2.81647e-08 -8.31266e-08 -1.2002e-08)
(4.30487e-08 -1.2511e-07 -1.81436e-08)
(5.96573e-08 -1.72322e-07 -2.50503e-08)
(7.20756e-08 -2.0759e-07 -3.0207e-08)
(1.48779e-09 -7.04652e-09 -8.95673e-10)
(3.31557e-09 -1.25974e-08 -1.64829e-09)
(6.67325e-09 -2.23125e-08 -3.05529e-09)
(1.25619e-08 -3.90193e-08 -5.52436e-09)
(2.24384e-08 -6.68804e-08 -9.65246e-09)
(3.80228e-08 -1.11077e-07 -1.61529e-08)
(6.04423e-08 -1.75069e-07 -2.55335e-08)
(8.76372e-08 -2.5298e-07 -3.695e-08)
(1.09872e-07 -3.16578e-07 -4.62673e-08)
(1.90557e-09 -7.60979e-09 -1.00133e-09)
(3.94495e-09 -1.37403e-08 -1.85239e-09)
(7.74278e-09 -2.46651e-08 -3.43643e-09)
(1.44678e-08 -4.38519e-08 -6.27002e-09)
(2.60424e-08 -7.67861e-08 -1.11316e-08)
(4.50631e-08 -1.30987e-07 -1.91032e-08)
(7.38319e-08 -2.13448e-07 -3.11963e-08)
(1.11165e-07 -3.20699e-07 -4.69164e-08)
(1.44405e-07 -4.16162e-07 -6.09067e-08)
)
;
    }
}


// ************************************************************************* //
