/*--------------------------------*- C++ -*----------------------------------*\
| =========                 |                                                 |
| \\      /  F ield         | OpenFOAM: The Open Source CFD Toolbox           |
|  \\    /   O peration     | Version:  4.x                                   |
|   \\  /    A nd           | Web:      www.OpenFOAM.org                      |
|    \\/     M anipulation  |                                                 |
\*---------------------------------------------------------------------------*/
FoamFile
{
    version     2.0;
    format      ascii;
    class       volVectorField;
    location    "48.5";
    object      DDtUrel;
}
// * * * * * * * * * * * * * * * * * * * * * * * * * * * * * * * * * * * * * //

dimensions      [0 1 -2 0 0 0 0];

internalField   nonuniform List<vector> 
108
(
(0.000172966 -1.15488e-06 2.73422e-05)
(9.54928e-05 -6.13587e-06 1.29826e-05)
(8.41214e-05 -2.02748e-05 1.14005e-05)
(-7.37057e-05 -4.43823e-05 -3.08112e-05)
(-0.000135765 -5.0593e-05 -5.79368e-05)
(-0.000493011 -9.27406e-05 -0.000208088)
(-0.000756823 -7.13781e-05 -0.000341458)
(-0.00178191 -0.000267799 -0.00074852)
(-0.00303909 -0.000463734 -0.0011577)
(0.00013615 -8.80314e-06 3.57918e-05)
(5.66263e-05 -7.38984e-06 2.26063e-05)
(1.34296e-05 -6.33429e-06 2.4691e-05)
(-0.000121487 6.18949e-07 -1.40263e-05)
(-0.000252766 1.09579e-05 -5.29592e-05)
(-0.000520864 3.254e-05 -0.000185956)
(-0.000927086 6.09303e-05 -0.000367954)
(-0.00162575 0.000141341 -0.000672619)
(-0.00245073 0.000228051 -0.00096562)
(0.000195846 -1.85212e-05 3.9018e-05)
(0.000111374 -1.31311e-05 3.40579e-05)
(9.77443e-05 -4.22889e-06 3.0644e-05)
(-5.24086e-05 3.60112e-05 5.15316e-07)
(-8.86376e-05 4.77857e-05 -4.4452e-05)
(-0.000438834 0.000134794 -0.000190256)
(-0.000662363 0.000133363 -0.000400925)
(-0.00184795 0.000506369 -0.000836727)
(-0.00328162 0.000783527 -0.00114422)
(0.000235571 -4.29288e-05 3.91298e-05)
(0.000141957 -4.50391e-05 3.47574e-05)
(0.000122024 -3.01281e-05 2.87638e-05)
(-2.30481e-05 -1.65785e-06 -1.9911e-06)
(-5.55087e-05 3.85366e-05 -5.0604e-05)
(-0.000417037 9.45756e-05 -0.000197252)
(-0.000647681 0.000179213 -0.000475971)
(-0.0019966 0.000368133 -0.00118205)
(-0.00364353 0.000349115 -0.00153382)
(0.000107823 1.32367e-06 2.21695e-05)
(4.58552e-05 -3.1624e-06 9.63901e-06)
(2.04691e-05 -1.08493e-05 7.03742e-06)
(-0.000100066 -1.8619e-05 -3.06064e-05)
(-0.000200448 -2.72195e-05 -5.81016e-05)
(-0.000484461 -3.6614e-05 -0.000184861)
(-0.000809617 -5.16428e-05 -0.000309962)
(-0.00153997 -8.92568e-05 -0.000728519)
(-0.00244671 -0.000134325 -0.00107241)
(9.21597e-05 -6.86587e-06 2.59754e-05)
(3.77161e-05 -6.6737e-06 1.4715e-05)
(-5.03823e-06 -6.86383e-06 8.56109e-06)
(-0.000108705 1.68464e-06 -2.54535e-05)
(-0.000237682 9.84901e-06 -6.62128e-05)
(-0.00048436 4.34095e-05 -0.000186437)
(-0.000862573 7.95901e-05 -0.000351041)
(-0.00149184 0.00023689 -0.000680768)
(-0.00222066 0.000422887 -0.00102561)
(0.000142162 -2.09609e-05 2.61544e-05)
(7.61136e-05 -1.34792e-05 1.10298e-05)
(7.18584e-05 -1.31451e-05 1.29057e-05)
(-5.40212e-05 2.31838e-05 -3.42567e-05)
(-8.61723e-05 3.1897e-05 -5.98477e-05)
(-0.000406767 0.000132073 -0.000221599)
(-0.000636675 0.000158791 -0.000374766)
(-0.00171266 0.00057764 -0.000939811)
(-0.0029421 0.000899671 -0.0014759)
(0.00017172 -3.97436e-05 2.42459e-05)
(9.36212e-05 -3.97832e-05 7.35748e-06)
(8.42787e-05 -3.00358e-05 5.82742e-06)
(-4.4509e-05 -3.34911e-06 -3.7973e-05)
(-6.33169e-05 3.22448e-05 -6.37755e-05)
(-0.000386418 0.00010338 -0.000217294)
(-0.000562606 0.000197379 -0.000419202)
(-0.00179522 0.000419586 -0.00117511)
(-0.0033001 0.000401678 -0.00173233)
(4.87116e-05 -3.69538e-08 1.6458e-05)
(4.14314e-06 -3.57255e-06 4.99036e-06)
(-3.69694e-05 -8.3998e-06 -1.94913e-06)
(-0.000129915 -1.42374e-05 -2.90765e-05)
(-0.000258621 -1.61112e-05 -5.32911e-05)
(-0.000482532 -2.47292e-05 -0.000144605)
(-0.000832255 -2.06542e-05 -0.000245107)
(-0.00130105 -6.8549e-05 -0.000538302)
(-0.00191093 -0.000106046 -0.000791224)
(4.23724e-05 -6.77707e-06 1.57385e-05)
(5.56788e-06 -6.78878e-06 5.49087e-06)
(-4.13952e-05 -3.42416e-06 -2.73875e-06)
(-0.000125382 2.29758e-06 -2.75348e-05)
(-0.000252646 1.63378e-05 -5.80832e-05)
(-0.000466898 4.21585e-05 -0.000148768)
(-0.000823442 8.40551e-05 -0.000273577)
(-0.00128277 0.000195519 -0.00051284)
(-0.00186546 0.000312864 -0.000757171)
(7.1342e-05 -1.98664e-05 1.20143e-05)
(2.33058e-05 -1.48593e-05 2.65231e-06)
(-6.64664e-06 -9.26509e-06 -4.55131e-06)
(-9.97331e-05 1.33774e-05 -3.55844e-05)
(-0.000187996 3.39525e-05 -6.80898e-05)
(-0.000427011 0.000104542 -0.000181295)
(-0.000749936 0.000159609 -0.00031142)
(-0.00142595 0.000444213 -0.000681936)
(-0.00226539 0.000679946 -0.00104897)
(9.05921e-05 -3.3592e-05 1.11529e-05)
(2.94701e-05 -2.90421e-05 -5.51155e-07)
(5.23835e-06 -2.56744e-05 -5.65027e-06)
(-9.46462e-05 4.58397e-06 -4.08969e-05)
(-0.000156215 3.23165e-05 -6.96797e-05)
(-0.000405496 9.83383e-05 -0.000184334)
(-0.000649803 0.000173681 -0.000324936)
(-0.00154368 0.000361104 -0.00075398)
(-0.00267722 0.000448186 -0.00118062)
)
;

boundaryField
{
    inlet
    {
        type            calculated;
        value           nonuniform 0();
    }
    outlet
    {
        type            calculated;
        value           nonuniform List<vector> 
12
(
(-0.00983933 -0.00380297 -0.00259897)
(-0.00148188 0.000329559 -0.000595855)
(-0.0104025 0.00435796 -0.000478662)
(-0.0111402 -0.0012039 -0.00325864)
(-0.00584277 -0.000331603 -0.00280902)
(-0.00206221 0.00220656 -0.00162702)
(-0.009071 0.00595587 -0.00613001)
(-0.0101273 -0.00116341 -0.0066198)
(-0.00285491 -0.0009365 -0.00229376)
(-0.00177476 0.000399 -0.000801401)
(-0.00331496 0.00313729 -0.00269324)
(-0.00676238 0.000623282 -0.00258406)
)
;
    }
    wall
    {
        type            calculated;
        value           nonuniform List<vector> 
63
(
(0.000742244 -2.68085e-05 7.132e-05)
(0.000189328 -8.60522e-06 0.000130489)
(0.000679444 1.23847e-05 0.000111028)
(0.000815322 -0.000132225 0.000108122)
(0.000127647 -2.64543e-05 -1.16291e-05)
(-0.000289449 5.27196e-06 -8.30376e-06)
(6.41142e-05 5.67021e-05 0.000132379)
(0.000145002 -0.000213976 0.00012601)
(0.000946132 -0.000109104 0.000154758)
(-0.000107125 1.244e-05 0.000228673)
(0.000803568 7.36684e-06 0.000195551)
(0.000717656 -0.00015355 0.000173479)
(-0.000245364 -0.000354188 -5.77119e-05)
(-0.000530266 1.5935e-05 2.85944e-05)
(-0.000294919 0.000391532 0.000207125)
(-0.000232509 -0.000149605 0.00015825)
(0.00124675 -0.000192916 0.000382723)
(-0.00071652 5.37868e-05 0.000281408)
(0.00132182 -5.96997e-06 0.000374174)
(0.0011358 -2.13479e-05 0.000288414)
(-0.000904276 -0.000789727 -0.000316254)
(-0.000522256 4.75976e-05 5.50646e-05)
(-0.000762959 0.000866467 0.000123968)
(-0.000868317 -0.000147977 0.000270633)
(0.00217668 0.0004134 0.000540276)
(-0.001508 1.91126e-05 -2.4027e-06)
(0.00314222 -0.0010763 0.000377534)
(0.00276053 -7.42511e-05 0.000505095)
(-0.00184215 -0.00169498 -0.000641366)
(-0.000467867 -3.7266e-05 4.95866e-05)
(-0.00168476 0.0021392 -0.000381904)
(-0.00210329 0.000461374 -0.00340947)
(-0.00983933 -0.00380297 -0.00259897)
(-0.00148188 0.000329559 -0.000595855)
(-0.0104025 0.00435796 -0.000478662)
(-0.0111402 -0.0012039 -0.00325864)
(0.000815322 -0.000132225 0.000108122)
(0.000545243 -0.000116325 7.05605e-05)
(0.000153948 -9.20456e-05 4.24386e-05)
(0.000145002 -0.000213976 0.00012601)
(-2.70114e-05 -0.000168892 -0.00011345)
(-0.000181901 -5.20508e-05 -1.59818e-05)
(0.000717656 -0.00015355 0.000173479)
(0.000636132 -0.000149407 8.5943e-05)
(0.000121898 -0.000172806 8.49026e-05)
(-0.000232509 -0.000149605 0.00015825)
(-0.000284571 -0.000142602 -0.000209092)
(-0.000273264 2.08476e-05 -7.75973e-05)
(0.0011358 -2.13479e-05 0.000288414)
(0.00125415 -0.000100774 0.000315786)
(0.000380583 -6.79193e-05 0.000133126)
(-0.000868317 -0.000147977 0.000270633)
(-0.000647705 -1.66479e-05 -0.000209548)
(-0.000318665 0.000130268 -0.000151037)
(0.00276053 -7.42511e-05 0.000505095)
(0.00361262 2.79619e-05 0.00112474)
(0.00165073 -6.90641e-05 0.000458323)
(-0.00210329 0.000461374 -0.00340947)
(-0.00131962 0.00104982 -0.00380867)
(-0.000802749 0.000655103 -0.000589394)
(-0.0111402 -0.0012039 -0.00325864)
(-0.0101273 -0.00116341 -0.0066198)
(-0.00676238 0.000623282 -0.00258406)
)
;
    }
    procBoundary3to1
    {
        type            processor;
        value           nonuniform List<vector> 
27
(
(0.000171885 1.8457e-05 2.13392e-05)
(0.00010348 8.43957e-06 1.16605e-06)
(9.20564e-05 -4.10556e-06 -1.38683e-06)
(-4.45458e-05 -3.29171e-05 -5.49795e-05)
(-9.31446e-05 -5.09105e-05 -7.64337e-05)
(-0.00043859 -0.000113713 -0.000235964)
(-0.000686614 -0.000151198 -0.000344739)
(-0.00191485 -0.000389875 -0.000877025)
(-0.00333024 -0.000601709 -0.00139745)
(0.000103628 1.23588e-05 2.04614e-05)
(5.37596e-05 3.8141e-06 5.87424e-06)
(1.87945e-05 -3.51794e-06 -3.18338e-06)
(-8.49993e-05 -2.15888e-05 -3.7166e-05)
(-0.000204705 -3.97681e-05 -7.19844e-05)
(-0.000474329 -7.76328e-05 -0.000190003)
(-0.000848733 -0.000128399 -0.000333099)
(-0.00161215 -0.000260957 -0.000765821)
(-0.00246587 -0.000373896 -0.00111157)
(5.46742e-05 1.06676e-05 1.3854e-05)
(1.17775e-05 2.93487e-06 3.43963e-06)
(-2.65413e-05 -1.58653e-06 -5.84643e-06)
(-0.000120184 -1.91385e-05 -3.04934e-05)
(-0.000243664 -3.19517e-05 -5.57446e-05)
(-0.000477371 -7.31696e-05 -0.000142917)
(-0.000830106 -0.000105189 -0.000235859)
(-0.00135432 -0.000264699 -0.000510624)
(-0.00203493 -0.000378041 -0.000762591)
)
;
    }
    procBoundary3to2
    {
        type            processor;
        value           nonuniform List<vector> 
12
(
(0.000171719 -1.90237e-06 3.0808e-05)
(0.000149457 -1.01933e-05 3.39245e-05)
(0.000200633 -1.73238e-05 3.68351e-05)
(0.0002482 -3.93869e-05 3.63812e-05)
(0.000109684 1.02484e-06 2.36668e-05)
(0.00010477 -8.03979e-06 2.70224e-05)
(0.000140817 -1.8676e-05 2.50709e-05)
(0.000178738 -3.66649e-05 2.32919e-05)
(6.1319e-05 9.92577e-07 1.60846e-05)
(6.24397e-05 -7.82173e-06 1.78231e-05)
(8.09292e-05 -1.93666e-05 1.60361e-05)
(0.000100461 -3.06647e-05 1.41698e-05)
)
;
    }
    procBoundary3to7
    {
        type            processor;
        value           nonuniform List<vector> 
36
(
(1.55872e-05 1.3407e-06 8.60357e-06)
(-2.02576e-05 -2.67322e-06 2.48797e-06)
(-6.71178e-05 -6.17335e-06 -1.58246e-06)
(-0.000145823 -1.10237e-05 -1.25365e-05)
(-0.000273979 -1.34669e-05 -2.67102e-05)
(-0.000468133 -1.80962e-05 -6.89251e-05)
(-0.000798526 -2.94662e-05 -0.000116955)
(-0.00114572 -9.45746e-06 -0.000239687)
(-0.00163384 6.52341e-06 -0.00034959)
(2.05727e-05 -1.07475e-05 5.85037e-06)
(-1.61246e-05 -7.54362e-06 -4.38987e-07)
(-6.43303e-05 -6.26494e-06 -5.46901e-06)
(-0.000139698 8.50398e-07 -2.1384e-05)
(-0.000262603 6.60237e-06 -3.96561e-05)
(-0.000454303 4.27763e-05 -9.04502e-05)
(-0.000767669 6.41455e-05 -0.000154085)
(-0.00117139 0.000224372 -0.000266885)
(-0.00171131 0.000349858 -0.000407088)
(4.97598e-05 -2.1454e-05 1.93751e-06)
(-1.90356e-06 -1.19035e-05 -9.04719e-06)
(-2.57314e-05 -1.21306e-05 -1.66949e-05)
(-0.000119782 1.03769e-05 -3.76308e-05)
(-0.000201275 9.08737e-06 -5.51102e-05)
(-0.000433696 7.21021e-05 -0.000121998)
(-0.000705779 9.18797e-05 -0.000180244)
(-0.00131449 0.000305496 -0.000384608)
(-0.00212248 0.000506264 -0.000633645)
(6.20756e-05 -3.00789e-05 -3.82636e-06)
(1.4141e-06 -2.35327e-05 -1.36498e-05)
(-2.0043e-05 -1.79303e-05 -1.58987e-05)
(-0.000121758 1.1654e-06 -4.38928e-05)
(-0.000193967 2.26758e-05 -5.24682e-05)
(-0.000436847 6.66621e-05 -0.000137865)
(-0.0007008 0.000124689 -0.000194848)
(-0.00139809 0.000229647 -0.00046113)
(-0.00233103 0.000298137 -0.000753424)
)
;
    }
}


// ************************************************************************* //
