/*--------------------------------*- C++ -*----------------------------------*\
| =========                 |                                                 |
| \\      /  F ield         | OpenFOAM: The Open Source CFD Toolbox           |
|  \\    /   O peration     | Version:  4.x                                   |
|   \\  /    A nd           | Web:      www.OpenFOAM.org                      |
|    \\/     M anipulation  |                                                 |
\*---------------------------------------------------------------------------*/
FoamFile
{
    version     2.0;
    format      ascii;
    class       volScalarField;
    location    "48.5";
    object      Ksl;
}
// * * * * * * * * * * * * * * * * * * * * * * * * * * * * * * * * * * * * * //

dimensions      [1 -3 -1 0 0 0 0];

internalField   nonuniform List<scalar> 
108
(
4875.92
2746.97
4721.14
2575.98
4834.16
2373.44
5582.27
2083
6461.56
6454.01
3129.07
7246.78
3133.16
9814.01
3371.54
27338.2
4314.5
9.86518e+09
4916.25
2793.05
4850.32
2644.46
5058.09
2442.06
5713.74
2039.43
5805.89
3810.49
2514.54
3796.31
2442.63
3906.95
2281.56
4272.63
1929.32
6043.71
16206.5
3440.27
19056
3283.86
21664.2
3072.61
20822.9
2788.74
8554.48
47952.9
3724.74
265695
3711.34
4.10581e+08
3865.98
129301
4365
19585.4
10934.9
3309.17
10683.3
3088.75
9748.48
2739.07
7872.26
2230.69
4082.85
5359.84
2894.93
5432.14
2801.67
5847.38
2586.65
6656.33
2058.44
4806.24
27936.5
3634.83
33632.1
3573.95
29606.9
3557.94
20731.2
3714.59
8072.42
1e+10
4008.03
1e+10
3996.98
1e+10
4051.49
1e+10
4540.15
27263.6
93690.4
3710.29
7.59153e+06
3608.91
75203.1
3512.62
17808.2
3500.85
6041.55
7645.38
3221.74
8313.18
3173.2
9752.29
3060.07
11457.1
2589.22
11428
)
;

boundaryField
{
    inlet
    {
        type            zeroGradient;
    }
    outlet
    {
        type            zeroGradient;
    }
    wall
    {
        type            zeroGradient;
    }
    procBoundary3to1
    {
        type            processor;
        value           nonuniform List<scalar> 
27
(
5382.08
2964.08
5500.12
2866.05
5775.23
2644.08
6136.88
2200.78
6349.16
43567.1
3729.8
356104
3729.85
9.833e+09
3853.11
49884.2
4117.41
7252.25
47532.2
3746.63
62377.8
3707.71
48068.8
3649.2
21419.5
3706.23
8031.9
)
;
    }
    procBoundary3to2
    {
        type            processor;
        value           nonuniform List<scalar> 
12
(
2874.9
3130.61
2913.92
2636.24
3556.18
3715.63
3418.02
2965.47
3655.43
3938.75
3754.42
3265.26
)
;
    }
    procBoundary3to7
    {
        type            processor;
        value           nonuniform List<scalar> 
36
(
76567.9
3723.99
92049.1
3706.23
340445
3745.3
1.06202e+06
4133.13
24564.5
2.0095e+06
3794.09
1e+10
3835.57
137798
3952.47
21806.8
4224.46
7042.81
11851.2
3354.29
11864.5
3177.3
11566.1
2991.78
10939.3
2668.05
8399.7
6473.77
3015.43
6577.92
2894.45
7041.08
2790.8
8292.67
2562.73
9360
)
;
    }
}


// ************************************************************************* //
