/*--------------------------------*- C++ -*----------------------------------*\
| =========                 |                                                 |
| \\      /  F ield         | OpenFOAM: The Open Source CFD Toolbox           |
|  \\    /   O peration     | Version:  4.x                                   |
|   \\  /    A nd           | Web:      www.OpenFOAM.org                      |
|    \\/     M anipulation  |                                                 |
\*---------------------------------------------------------------------------*/
FoamFile
{
    version     2.0;
    format      ascii;
    class       volScalarField;
    location    "48.5";
    object      pSmooth;
}
// * * * * * * * * * * * * * * * * * * * * * * * * * * * * * * * * * * * * * //

dimensions      [1 -1 -2 0 0 0 0];

internalField   nonuniform List<scalar> 
108
(
18.2918
74.6143
0.1
68.8526
0.1
64.8098
0.1
63.8161
0.1
19.5144
75.1365
0.170335
69.2979
0.1
64.198
0.1
58.8773
0.1
18.6949
74.65
0.1
68.8551
0.1
64.6608
0.1
63.8138
0.1
19.219
74.7898
0.1
69.0486
0.1
64.6287
0.1
63.4305
0.1
18.2358
74.8714
0.1
68.6758
0.1
63.5588
0.1
60.5858
0.1
19.4255
75.2061
0.349916
68.594
0.1
62.4622
0.1
56.6084
0.1
18.4305
74.6597
0.1
68.5619
0.1
63.8134
0.1
62.661
0.1
18.9976
74.8053
0.1
68.8568
0.1
64.0554
0.1
62.2786
0.1
19.2154
74.7423
0.1
68.2874
0.1
62.9594
0.1
58.8473
0.1
21.3281
74.8958
3.23623
68.6859
0.1
63.0099
0.1
56.9798
0.1
19.9368
74.9152
0.804735
68.1996
0.1
62.3406
0.1
57.8821
0.1
20.0914
75.0615
1.16418
68.872
0.1
63.2163
0.1
58.9162
0.1
)
;

boundaryField
{
    inlet
    {
        type            zeroGradient;
    }
    outlet
    {
        type            fixedValue;
        value           uniform 0;
    }
    wall
    {
        type            zeroGradient;
    }
    procBoundary3to1
    {
        type            processor;
        value           nonuniform List<scalar> 
27
(
19.2906
75.0185
0.1
68.9387
0.1
63.9389
0.1
61.1448
0.1
19.5845
75.3124
0.635197
68.5827
0.1
62.2487
0.1
55.8709
0.1
20.0615
74.8356
1.26742
68.4443
0.1
62.7539
0.1
58.151
0.1
)
;
    }
    procBoundary3to2
    {
        type            processor;
        value           nonuniform List<scalar> 
12
(
81.2478
81.683
81.2932
81.2725
81.6327
82.1343
81.5193
81.4775
81.6159
81.756
81.9423
81.8073
)
;
    }
    procBoundary3to7
    {
        type            processor;
        value           nonuniform List<scalar> 
36
(
20.8124
74.7903
2.05377
68.3225
0.1
62.4452
0.1
57.5573
0.1
20.9308
74.8717
2.1748
68.0857
0.1
61.1291
0.1
54.7116
0.1
19.147
74.6914
0.1
68.3134
0.1
62.9582
0.1
60.1374
0.1
19.6986
74.7732
0.166298
68.4881
0.1
63.0854
0.1
59.8402
0.1
)
;
    }
}


// ************************************************************************* //
