/*--------------------------------*- C++ -*----------------------------------*\
| =========                 |                                                 |
| \\      /  F ield         | OpenFOAM: The Open Source CFD Toolbox           |
|  \\    /   O peration     | Version:  4.x                                   |
|   \\  /    A nd           | Web:      www.OpenFOAM.org                      |
|    \\/     M anipulation  |                                                 |
\*---------------------------------------------------------------------------*/
FoamFile
{
    version     2.0;
    format      ascii;
    class       volScalarField;
    location    "30";
    object      p;
}
// * * * * * * * * * * * * * * * * * * * * * * * * * * * * * * * * * * * * * //

dimensions      [1 -1 -2 0 0 0 0];

internalField   nonuniform List<scalar> 
114
(
5708.62
5729.17
5690.23
5722.03
5671.61
5715.19
5743.25
5726.33
5736.43
5708.64
5729.29
5690.4
5722.19
5671.83
5715.27
5742.95
5726.16
5736.2
5708.48
5729.15
5690.31
5722.1
5671.73
5715.2
5742.57
5725.96
5735.86
5708.37
5728.85
5690.34
5721.87
5671.9
5715.01
3812.48
3844.69
3793.64
3837.72
3866.2
3848.92
3859.3
3831.03
3852.05
3812.73
3844.81
3793.94
3837.72
3865.89
3848.7
3859
3830.77
3851.8
3812.48
3844.63
3793.78
3837.66
3865.36
3848.43
3858.52
3830.65
3851.38
3812.51
3844.27
3793.98
3837.38
1916.68
1959.71
1989.05
1971.37
1982.02
1953.58
1974.57
1935.36
1967.1
1916.72
1959.9
1988.79
1971.35
1981.89
1953.41
1974.52
1935.14
1967.21
1916.52
1959.97
1988.19
1970.96
1981.22
1953.16
1973.94
1935.12
1966.69
1916.5
1959.67
111.825
94.0571
104.568
76.0762
97.0169
57.9492
89.4851
39.79
111.419
93.7806
104.212
75.8128
96.7073
57.5682
89.211
110.777
93.4325
103.658
75.5883
96.2489
57.3963
)
;

boundaryField
{
    inlet
    {
        type            calculated;
        value           nonuniform List<scalar> 
12
(
5743.25
5742.95
5742.57
3866.2
3865.89
3865.36
1989.05
1988.79
1988.19
111.825
111.419
110.777
)
;
    }
    outlet
    {
        type            calculated;
        value           nonuniform 0();
    }
    wall
    {
        type            calculated;
        value           nonuniform List<scalar> 
66
(
6682.21
6681.91
6681.53
6665.29
6665.11
6664.91
6675.38
6675.16
6674.81
6647.57
6647.59
6647.44
6647.33
6668.13
6668.25
6668.11
6667.81
6629.19
6629.36
6629.27
6629.29
6660.99
6661.15
6661.05
6660.82
6610.57
6610.79
6610.68
6610.85
6654.14
6654.23
6654.15
6653.96
5742.57
3865.36
1988.19
110.777
5725.96
3848.43
1970.96
93.4325
5735.86
3858.52
1981.22
103.658
5708.37
3830.65
1953.16
75.5883
5728.85
3851.38
1973.94
96.2489
5690.34
3812.51
1935.12
57.3963
5721.87
3844.27
1966.69
5671.9
3793.98
1916.5
5715.01
3837.38
1959.67
)
;
    }
    procBoundary2to0
    {
        type            processor;
        value           nonuniform List<scalar> 
44
(
5708.51
5729.05
5690.19
5722.02
5671.86
5715.23
5743.31
5726.43
5736.45
5736.45
3831.01
3852.04
3812.57
3844.8
3793.95
3837.91
3866.29
3848.84
3859.3
3831.01
3852.04
3852.04
1935.17
1967.08
1916.39
1959.75
1989.33
1971.58
1982.3
1953.61
1974.74
1935.17
1967.08
1967.08
40.328
82.1583
111.917
94.2718
104.75
76.3658
97.0769
58.4328
89.4119
40.328
)
;
    }
    procBoundary2to3
    {
        type            processor;
        value           nonuniform List<scalar> 
12
(
5652.8
5653.16
5652.78
5653.01
3774.75
3775.25
3774.8
3775.18
1898.46
1898.28
1897.75
1897.66
)
;
    }
    procBoundary2to6
    {
        type            processor;
        value           nonuniform List<scalar> 
32
(
82.1443
39.0502
81.9526
88.8863
39.0399
81.8116
-1765.55
-1783.76
-1772.93
-1801.38
-1780.64
-1819.55
-1788.35
82.1443
39.0502
-1837.59
-1766.01
-1783.85
-1773.2
-1801.68
-1780.74
-1819.99
39.0502
88.8863
-1788.28
-1766.71
-1784.22
-1773.85
-1801.87
-1781.23
88.8863
-1820.15
)
;
    }
}


// ************************************************************************* //
