/*--------------------------------*- C++ -*----------------------------------*\
  =========                 |
  \\      /  F ield         | OpenFOAM: The Open Source CFD Toolbox
   \\    /   O peration     | Website:  https://openfoam.org
    \\  /    A nd           | Version:  4.x
     \\/     M anipulation  |
\*---------------------------------------------------------------------------*/
FoamFile
{
    version     2.0;
    format      ascii;
    class       vectorField;
    location    0;
    object      v;
}
// * * * * * * * * * * * * * * * * * * * * * * * * * * * * * * * * * * * * * //

235
(
( 3.14703e-09 -8.34934e-11 3.35494e-09 )  
( -1.55957e-09 1.41674e-09 1.80493e-08 )  
( -2.04081e-08 4.06966e-09 2.57121e-08 )  
( 1.23927e-09 2.1622e-09 8.78779e-09 )  
( 7.51013e-10 1.81073e-09 3.1166e-09 )  
( -2.66031e-09 8.47156e-10 1.49478e-09 )  
( 4.67495e-10 1.7604e-09 3.84535e-09 )  
( -1.44108e-09 2.03082e-09 4.74835e-09 )  
( 3.22209e-10 7.90456e-11 2.09393e-09 )  
( -2.33282e-10 -3.71011e-09 3.40022e-09 )  
( -1.47383e-09 6.79574e-10 3.92355e-10 )  
( 7.09134e-10 -1.22209e-09 -1.89588e-09 )  
( 1.18504e-08 9.53317e-09 1.19757e-08 )  
( -4.38713e-10 -5.31418e-09 -1.49381e-09 )  
( 1.91397e-09 5.91065e-11 2.07374e-09 )  
( 4.41059e-09 2.65826e-09 9.85007e-09 )  
( 1.12382e-09 -2.09028e-09 2.49e-09 )  
( 5.74161e-10 -7.4547e-11 -6.89196e-10 )  
( 1.97706e-09 -7.54309e-10 -2.27136e-09 )  
( 1.99108e-09 -3.39872e-09 -6.38147e-09 )  
( 2.93293e-09 -3.51937e-09 1.10484e-08 )  
( 8.32764e-10 1.36256e-10 -1.36195e-09 )  
( 3.46317e-09 -1.3495e-10 -9.93211e-10 )  
( 4.13438e-09 -2.25777e-09 3.30928e-09 )  
( 5.37351e-09 -2.92285e-10 -3.60759e-09 )  
( 6.15003e-09 -1.44053e-09 2.16739e-08 )  
( 2.44103e-09 9.06849e-11 -1.5829e-10 )  
( -1.84595e-09 -1.86721e-09 1.723e-09 )  
( -1.13699e-09 -2.02527e-09 3.67831e-09 )  
( 3.19709e-09 -1.09297e-09 -1.36766e-09 )  
( 2.05218e-09 -8.67193e-11 4.7978e-09 )  
( -5.85531e-09 3.64354e-09 2.12158e-08 )  
( 1.35477e-09 -8.86082e-10 -9.15523e-10 )  
( 1.10637e-09 -1.80737e-09 1.29409e-09 )  
( 3.22737e-09 -7.15864e-10 -3.13124e-09 )  
( 2.72445e-09 5.28264e-10 4.67636e-09 )  
( 5.22476e-09 -1.82582e-09 7.90215e-10 )  
( -1.63387e-09 -5.91465e-09 -1.87452e-09 )  
( -8.92996e-10 -2.63357e-09 5.49744e-10 )  
( 3.43881e-09 -1.68463e-10 -2.53211e-09 )  
( 2.13149e-09 -1.45833e-09 -3.37348e-09 )  
( -4.08387e-09 -2.18375e-09 -7.1019e-09 )  
( -5.08562e-09 -8.8335e-09 6.53442e-09 )  
( 2.38213e-09 -2.44833e-09 5.21606e-09 )  
( 1.28581e-09 -7.29163e-11 -2.25327e-09 )  
( 6.03337e-09 -2.30407e-09 -5.19224e-09 )  
( -9.66382e-10 -7.1241e-10 2.74788e-10 )  
( -8.78117e-09 2.06189e-08 1.53e-07 )  
( 3.24945e-10 -1.71695e-11 -1.27078e-09 )  
( 3.3581e-09 -1.55906e-09 -3.5545e-09 )  
( 1.07054e-08 3.87403e-09 1.38787e-09 )  
( 4.53248e-09 -8.61272e-09 5.4764e-09 )  
( 1.22736e-09 -4.45616e-10 -2.0399e-09 )  
( -4.88375e-10 -1.3884e-10 -6.17625e-10 )  
( 6.50527e-09 1.17376e-10 -4.46291e-10 )  
( -1.1359e-08 7.40063e-09 1.41003e-08 )  
( 5.10079e-10 -1.54212e-10 -1.57031e-09 )  
( 1.00907e-09 6.45655e-10 9.45709e-10 )  
( -1.78118e-08 -1.08391e-09 2.17745e-08 )  
( -1.1509e-10 -5.29176e-09 5.59775e-09 )  
( 7.10435e-10 -3.02205e-09 -3.61678e-09 )  
( 2.58914e-09 2.2121e-09 6.51153e-09 )  
( -4.91279e-09 -6.42379e-10 5.55611e-09 )  
( 2.00771e-09 -1.78849e-09 -3.81422e-09 )  
( 6.95264e-10 -1.7582e-09 3.51932e-11 )  
( 1.84731e-09 -3.88489e-10 2.40501e-10 )  
( 3.43263e-09 -3.16651e-10 -1.58738e-09 )  
( 1.03659e-08 -5.74155e-09 -8.71863e-09 )  
( 2.73696e-09 1.61026e-09 1.74523e-08 )  
( 3.28185e-09 -1.96573e-09 -5.56908e-09 )  
( 1.21197e-08 9.34729e-09 1.28381e-08 )  
( 1.79642e-10 -1.51832e-09 -1.11152e-09 )  
( 2.45852e-09 -8.95195e-10 9.99912e-10 )  
( -7.73925e-10 1.7934e-09 5.14653e-09 )  
( -2.41753e-09 -7.70432e-09 -4.43227e-09 )  
( 7.2517e-09 -1.14274e-08 -2.69846e-08 )  
( 1.35265e-08 -6.42425e-09 -1.42832e-08 )  
( 2.37313e-09 -1.84235e-09 4.41716e-09 )  
( 1.00353e-09 9.76309e-10 -2.1359e-09 )  
( -1.04723e-08 -1.73598e-08 6.41712e-08 )  
( 1.93924e-09 -1.74933e-09 -9.54369e-11 )  
( 3.71674e-09 -1.23856e-08 7.83601e-09 )  
( -6.90461e-09 -3.49552e-11 1.54283e-09 )  
( 5.18001e-09 -1.8404e-09 1.38789e-09 )  
( -2.54171e-10 -7.18665e-09 -6.47641e-09 )  
( -4.37293e-09 -2.44914e-08 -6.60762e-09 )  
( 1.4929e-09 -3.50251e-09 -6.04141e-11 )  
( 4.40125e-09 -1.10938e-09 7.99769e-09 )  
( -2.26507e-08 7.77313e-09 4.54677e-08 )  
( 3.56739e-09 -5.96211e-10 -2.42631e-09 )  
( 7.46939e-09 4.56521e-09 2.75562e-08 )  
( 4.04833e-09 -9.35975e-10 -2.24266e-09 )  
( 4.94081e-09 -4.75665e-10 6.6723e-10 )  
( -5.48517e-11 -3.1029e-10 -1.02755e-09 )  
( 1.90742e-10 4.95676e-10 8.44714e-09 )  
( 1.50018e-08 6.19215e-09 2.91465e-08 )  
( 8.89813e-10 1.91879e-10 2.0164e-09 )  
( 7.5395e-10 -1.42471e-09 -3.34158e-09 )  
( 2.36117e-09 -2.25396e-09 -3.28515e-09 )  
( 8.20588e-09 -1.13631e-09 6.10332e-09 )  
( 1.1949e-09 -1.25822e-09 -4.4093e-10 )  
( 2.18451e-09 -7.37523e-09 9.28792e-08 )  
( 3.43606e-09 3.89683e-09 1.14656e-08 )  
( 2.39934e-08 3.318e-08 1.06163e-07 )  
( 3.34572e-10 -5.28469e-10 3.78968e-10 )  
( 4.91262e-10 -5.71643e-10 -2.83809e-10 )  
( 3.6618e-09 -5.73839e-09 -5.661e-09 )  
( 2.51575e-09 -4.63124e-10 -2.5475e-09 )  
( 5.92276e-10 -1.85661e-09 -7.25189e-11 )  
( -6.52563e-10 3.59616e-09 1.40526e-08 )  
( 2.4606e-09 -2.1722e-09 5.04784e-10 )  
( 2.9442e-09 -3.556e-10 -1.97531e-09 )  
( 5.07451e-09 -8.4317e-10 -3.9179e-09 )  
( 1.28086e-09 -1.87416e-09 3.85888e-09 )  
( 1.08471e-06 4.11878e-08 -5.37615e-08 )  
( -1.76968e-09 -5.02084e-10 -2.62641e-09 )  
( 5.06356e-09 -1.61156e-09 -2.06045e-09 )  
( 1.97594e-09 2.81901e-10 1.32737e-09 )  
( 8.21712e-10 -1.08526e-09 -2.43413e-09 )  
( -1.04519e-08 3.75662e-09 1.5311e-08 )  
( 4.23737e-09 -9.88744e-10 -2.06603e-09 )  
( -6.78343e-09 1.01897e-09 2.05134e-08 )  
( 6.35466e-09 -7.56704e-10 9.88684e-09 )  
( 7.05575e-10 -1.69355e-10 2.2426e-10 )  
( 6.90049e-09 -9.80322e-09 1.6099e-08 )  
( 9.02428e-10 -1.30651e-09 -5.09923e-10 )  
( 7.31829e-09 -4.47395e-09 2.28707e-09 )  
( 1.64059e-09 -1.86296e-09 -3.22894e-09 )  
( 3.3526e-10 -3.65494e-09 1.23227e-08 )  
( 2.26028e-10 -3.31794e-09 5.3802e-09 )  
( 3.48825e-09 -1.48472e-09 -8.39957e-09 )  
( 1.13184e-09 -9.88149e-09 3.31701e-08 )  
( -2.1407e-08 -1.31375e-08 3.273e-08 )  
( 1.52427e-08 -1.09175e-08 -5.34624e-09 )  
( 2.56587e-08 2.13361e-08 4.1181e-08 )  
( -6.82347e-09 2.47182e-09 7.73482e-10 )  
( 2.34815e-09 -2.86408e-10 -6.71709e-10 )  
( 1.86032e-10 -7.8361e-09 1.25694e-09 )  
( -4.2238e-09 3.08049e-09 -4.89718e-10 )  
( 3.84812e-09 -6.18574e-10 -7.11508e-10 )  
( -1.50255e-09 -3.99624e-10 -4.37022e-10 )  
( -3.4952e-10 -3.32811e-09 1.18052e-09 )  
( 2.51932e-09 -8.51501e-09 9.02547e-09 )  
( 2.16892e-09 4.2978e-10 -1.24915e-09 )  
( 8.06913e-10 3.07639e-12 -1.28544e-09 )  
( -2.7857e-09 -1.50122e-09 -4.108e-09 )  
( 4.68663e-09 9.01511e-10 3.01699e-09 )  
( 3.56529e-09 2.67398e-09 5.58732e-09 )  
( 3.17833e-09 1.55945e-10 -1.99844e-10 )  
( 1.70901e-09 3.10687e-10 -9.95204e-10 )  
( 5.18086e-10 7.99391e-10 1.21622e-11 )  
( 1.02943e-09 1.99231e-10 -1.27135e-09 )  
( 4.13538e-09 1.55464e-09 6.50411e-09 )  
( 1.39699e-09 -3.05625e-10 -2.52729e-09 )  
( 2.03221e-09 2.50647e-09 1.51391e-09 )  
( 2.4117e-09 2.88051e-10 -3.15648e-10 )  
( 7.22565e-10 1.88224e-09 6.31184e-09 )  
( 1.53287e-09 -1.22315e-10 1.08113e-09 )  
( 1.64201e-09 4.41264e-10 -1.26758e-09 )  
( 3.36179e-09 -1.26722e-09 7.50788e-10 )  
( 4.489e-09 1.61062e-09 9.12613e-09 )  
( 9.30806e-10 3.32653e-10 -8.96757e-10 )  
( -5.21639e-10 -8.173e-12 4.50993e-09 )  
( 2.13029e-09 1.96606e-09 7.49619e-09 )  
( 3.8942e-10 1.87971e-09 3.78869e-09 )  
( 3.87215e-09 3.31025e-10 2.64808e-09 )  
( -9.82808e-10 1.2515e-09 7.2475e-09 )  
( -1.04741e-09 3.33882e-09 1.01204e-08 )  
( 2.95217e-10 1.30676e-09 1.14075e-08 )  
( 2.46596e-09 3.19268e-10 -7.801e-10 )  
( 7.45748e-10 1.08003e-09 8.32778e-10 )  
( 1.4572e-09 -1.78084e-10 2.33226e-10 )  
( 2.07057e-09 6.8368e-10 3.97084e-09 )  
( 2.48459e-09 5.05993e-11 -1.33937e-09 )  
( 1.68195e-09 7.95126e-11 -1.97864e-09 )  
( 1.52194e-09 1.56347e-10 1.22233e-09 )  
( 3.63007e-09 5.32884e-12 6.30767e-10 )  
( 1.56144e-09 2.08889e-09 7.74773e-09 )  
( 6.40336e-13 -1.03625e-09 -1.03552e-09 )  
( -1.34205e-09 -8.12215e-10 -1.34731e-09 )  
( 4.99688e-10 2.17218e-09 2.00623e-08 )  
( 1.44024e-09 -4.2658e-10 -3.77906e-09 )  
( 3.77311e-09 1.54004e-09 8.25807e-09 )  
( 4.13161e-09 -6.45739e-10 -6.93418e-10 )  
( -1.07447e-08 -2.14134e-08 -2.20604e-08 )  
( 1.10554e-09 -2.58387e-10 3.10883e-09 )  
( 3.10982e-10 -3.18338e-10 -5.30322e-10 )  
( 1.01941e-09 -6.51185e-11 -7.32405e-10 )  
( 1.57561e-09 -2.61633e-09 9.59378e-09 )  
( 6.18106e-09 -3.11004e-09 -5.67535e-09 )  
( 1.9255e-09 -3.06753e-09 -7.49363e-09 )  
( -8.23437e-09 -3.87535e-09 2.89861e-09 )  
( -2.02256e-08 1.02752e-08 1.81738e-08 )  
( 2.27547e-09 -2.69783e-09 5.47169e-09 )  
( 2.16631e-11 -1.46193e-10 -9.35669e-10 )  
( 1.9362e-09 -8.82169e-10 1.80564e-09 )  
( 3.74419e-09 -5.12607e-09 -7.51008e-09 )  
( -2.16417e-10 9.24264e-10 -3.23342e-09 )  
( 5.56596e-10 8.82535e-11 -3.96829e-10 )  
( -1.47618e-10 2.1927e-09 5.65622e-09 )  
( 3.33602e-09 4.95808e-11 8.50866e-09 )  
( 2.63425e-09 -1.99602e-10 1.66809e-09 )  
( -6.6878e-09 1.5606e-09 5.99058e-09 )  
( 2.85215e-09 3.56176e-09 8.77244e-09 )  
( 1.81778e-09 3.84151e-09 7.14624e-09 )  
( 3.90845e-09 1.98557e-09 2.65825e-08 )  
( 2.29104e-09 2.03588e-09 6.21283e-09 )  
( -6.75368e-10 2.36131e-10 -3.54043e-09 )  
( 1.85658e-10 -1.38852e-11 -6.08964e-10 )  
( 4.19328e-09 1.01826e-09 5.44831e-09 )  
( 1.76476e-09 1.26293e-09 -1.71191e-09 )  
( 1.85235e-09 -2.40399e-11 1.33662e-09 )  
( 1.56706e-09 8.44309e-11 3.03159e-10 )  
( 1.24235e-08 -2.87524e-08 4.28958e-08 )  
( 1.57276e-08 1.47404e-09 1.29269e-08 )  
( -1.13601e-08 6.22708e-10 2.03795e-09 )  
( 2.01526e-09 -3.36343e-09 -5.26668e-09 )  
( -1.42128e-08 -3.02903e-08 -3.7291e-08 )  
( 2.60717e-09 -1.37919e-09 -2.36601e-10 )  
( -3.85409e-08 2.6158e-08 8.21753e-08 )  
( -2.94601e-09 -1.01387e-08 -9.05462e-09 )  
( 3.33021e-09 2.31198e-10 -1.67314e-09 )  
( -1.33979e-09 -3.14389e-09 9.3163e-10 )  
( 1.10702e-09 -8.665e-12 -2.07878e-09 )  
( 4.12876e-09 -9.16937e-09 1.13077e-08 )  
( 9.37198e-09 -1.00508e-08 1.52973e-08 )  
( -2.49824e-08 1.50943e-08 4.78297e-08 )  
( -1.18065e-09 -2.66643e-08 2.16306e-08 )  
( -2.50651e-08 -5.11898e-09 7.91785e-09 )  
( -1.80862e-07 5.39006e-06 3.96424e-07 )  
( -6.25013e-09 -1.08319e-09 8.80807e-10 )  
( -4.0847e-08 -1.71903e-08 1.33582e-08 )  
( -3.88787e-09 -2.74375e-09 1.15823e-09 )  
( 8.30392e-09 -1.64236e-08 1.02058e-08 )  
( 1.49646e-09 -1.26879e-08 5.95035e-09 )  
)
