/*--------------------------------*- C++ -*----------------------------------*\
| =========                 |                                                 |
| \\      /  F ield         | OpenFOAM: The Open Source CFD Toolbox           |
|  \\    /   O peration     | Version:  4.x                                   |
|   \\  /    A nd           | Web:      www.OpenFOAM.org                      |
|    \\/     M anipulation  |                                                 |
\*---------------------------------------------------------------------------*/
FoamFile
{
    version     2.0;
    format      ascii;
    class       volVectorField;
    location    "32.5";
    object      ddtUrel;
}
// * * * * * * * * * * * * * * * * * * * * * * * * * * * * * * * * * * * * * //

dimensions      [0 1 -2 0 0 0 0];

internalField   nonuniform List<vector> 
132
(
(-3.31019e-09 -2.12214e-09 9.8e-10)
(-4.24387e-09 -1.63175e-09 1.352e-09)
(-3.64448e-09 -1.2892e-09 8.41585e-10)
(-3.55886e-09 -7.55222e-10 9.74793e-10)
(-3.68774e-09 -1.62879e-10 7.06151e-10)
(-4.32904e-09 2.5108e-10 -3.27422e-10)
(-6.4441e-09 6.64658e-10 -7.17483e-10)
(-7.25507e-09 7.19189e-10 -1.18213e-09)
(-6.98532e-09 7.68569e-10 -1.11588e-09)
(-2.11973e-09 -1.87639e-09 5.31509e-10)
(-2.74026e-09 -1.55644e-09 1.17651e-09)
(-2.71113e-09 -1.43721e-09 1.14645e-09)
(-2.78296e-09 -9.39347e-10 8.31839e-10)
(-3.66109e-09 -1.49281e-10 3.10256e-10)
(-4.22632e-09 1.98339e-10 -4.00926e-10)
(-6.81676e-09 5.83881e-10 -9.32896e-10)
(-8.0763e-09 8.27252e-10 -1.31873e-09)
(-7.20713e-09 8.09999e-10 -1.21198e-09)
(-9.43422e-10 -1.51824e-09 5.03788e-10)
(-1.59782e-09 -1.3589e-09 7.18888e-10)
(-1.87901e-09 -1.23867e-09 7.12405e-10)
(-2.3365e-09 -9.36313e-10 6.80401e-10)
(-3.40323e-09 -2.41315e-10 2.45369e-10)
(-4.07045e-09 1.12884e-10 -5.10175e-10)
(-6.35524e-09 2.2732e-10 -1.1383e-09)
(-7.43463e-09 4.93366e-10 -1.11565e-09)
(-5.88929e-09 4.74775e-10 -8.64951e-10)
(-7.22016e-10 -1.2879e-09 1.43491e-10)
(-8.8037e-10 -1.22399e-09 2.69222e-10)
(-1.27569e-09 -1.22739e-09 4.44859e-10)
(-2.01035e-09 -9.36154e-10 3.74298e-10)
(-2.8207e-09 -2.8744e-10 -2.29049e-11)
(-3.80976e-09 1.94619e-11 -4.97632e-10)
(-5.73011e-09 1.37442e-10 -8.83404e-10)
(-6.59607e-09 2.15646e-10 -8.45398e-10)
(-5.51942e-09 1.95347e-10 -7.01889e-10)
(-1.5932e-09 -1.27955e-09 1.35685e-09)
(-2.05966e-09 -7.75099e-10 8.80097e-10)
(-2.5149e-09 -2.46135e-10 3.61318e-10)
(-2.80912e-09 2.91694e-10 -2.19151e-10)
(-4.67309e-09 6.37511e-10 -5.5914e-10)
(-5.00697e-09 8.16044e-10 -6.90168e-10)
(-4.20475e-09 7.35158e-10 -5.81259e-10)
(-1.86179e-10 -1.41764e-09 8.71817e-10)
(-9.24329e-10 -1.43041e-09 1.18968e-09)
(-1.36111e-09 -1.32484e-09 1.24341e-09)
(-1.91801e-09 -6.5551e-10 7.65815e-10)
(-2.4535e-09 -6.38964e-13 2.50794e-10)
(-2.83357e-09 2.94363e-10 -2.70083e-10)
(-5.04219e-09 5.55474e-10 -6.24887e-10)
(-5.86863e-09 9.635e-10 -6.21356e-10)
(-4.75936e-09 1.03808e-09 -4.57198e-10)
(-2.89749e-11 -1.16212e-09 5.6255e-10)
(-7.10464e-10 -1.13027e-09 7.73727e-10)
(-1.19504e-09 -8.36874e-10 9.3306e-10)
(-1.77554e-09 -5.56672e-10 6.75751e-10)
(-2.53238e-09 -7.13389e-12 2.30555e-10)
(-3.14514e-09 2.56251e-10 -2.53463e-10)
(-4.76795e-09 4.71778e-10 -4.79247e-10)
(-5.18223e-09 1.00982e-09 -3.94073e-10)
(-3.68291e-09 1.39691e-09 -1.89292e-10)
(9.66877e-11 -1.04181e-09 2.44913e-10)
(-5.738e-10 -9.73516e-10 3.34419e-10)
(-1.33081e-09 -8.38963e-10 5.70229e-10)
(-1.78687e-09 -4.82796e-10 4.25544e-10)
(-2.42476e-09 -6.52797e-11 1.02175e-10)
(-3.26148e-09 2.49684e-10 -1.8987e-10)
(-4.46581e-09 6.5612e-10 -2.81741e-10)
(-4.87529e-09 1.19353e-09 -1.93969e-10)
(-3.75673e-09 1.72014e-09 3.43904e-11)
(-1.7715e-09 -2.20086e-10 5.08846e-10)
(-2.54034e-09 2.08345e-10 3.00334e-11)
(-3.9769e-09 5.64206e-10 -3.16289e-10)
(-4.1362e-09 8.29476e-10 -3.55519e-10)
(-3.2305e-09 8.36783e-10 -4.34537e-10)
(4.36319e-10 -1.28145e-09 6.87836e-10)
(-1.83933e-10 -1.17297e-09 1.014e-09)
(-6.58312e-10 -9.1588e-10 1.08286e-09)
(-1.02921e-09 -4.10762e-10 6.92608e-10)
(-1.78933e-09 9.82058e-11 3.73667e-10)
(-2.40319e-09 4.29934e-10 -5.11249e-11)
(-4.14149e-09 8.3328e-10 -3.61782e-10)
(-4.75692e-09 1.25694e-09 -3.22588e-10)
(-3.8166e-09 1.44335e-09 -1.73764e-10)
(2.68748e-10 -9.38313e-10 5.16243e-10)
(-3.42441e-10 -7.85402e-10 6.4794e-10)
(-9.07624e-10 -6.06515e-10 7.8847e-10)
(-1.384e-09 -2.58312e-10 5.01155e-10)
(-1.88821e-09 1.7719e-10 2.61198e-10)
(-2.4208e-09 5.15197e-10 2.12544e-11)
(-3.88166e-09 9.62693e-10 -3.90332e-11)
(-4.66015e-09 1.75779e-09 1.49715e-10)
(-4.0303e-09 2.53517e-09 3.61672e-10)
(5.18303e-11 -7.57409e-10 3.25961e-10)
(-7.45187e-10 -7.13307e-10 3.93802e-10)
(-1.29773e-09 -5.04935e-10 5.11749e-10)
(-1.71269e-09 -1.67541e-10 3.73833e-10)
(-2.13653e-09 2.16803e-10 1.87947e-10)
(-2.54283e-09 5.88452e-10 9.67549e-11)
(-3.81231e-09 1.21626e-09 8.60429e-11)
(-4.5689e-09 2.46787e-09 4.35195e-10)
(-4.40101e-09 4.34302e-09 1.00004e-09)
(-3.88591e-09 4.33781e-10 -5.26108e-11)
(-4.3218e-09 7.82297e-10 -2.40537e-10)
(-3.16476e-09 9.46795e-10 -3.55165e-10)
(5.05953e-10 -1.07499e-09 5.18555e-10)
(4.25674e-10 -1.11565e-09 8.27461e-10)
(-3.00174e-10 -9.26722e-10 8.35797e-10)
(-1.00755e-09 -3.45438e-10 5.39535e-10)
(-1.68986e-09 1.63744e-10 3.91078e-10)
(-2.48663e-09 4.7053e-10 1.65039e-10)
(-3.87399e-09 8.38739e-10 -3.63001e-11)
(-4.40004e-09 1.4371e-09 -7.03586e-11)
(-3.55651e-09 1.95069e-09 6.42402e-11)
(4.85934e-10 -7.85256e-10 4.06731e-10)
(-4.20844e-11 -7.91146e-10 5.63497e-10)
(-4.71929e-10 -5.82865e-10 6.40112e-10)
(-1.08435e-09 -1.11475e-10 3.84505e-10)
(-1.66784e-09 3.34072e-10 2.92556e-10)
(-2.39166e-09 6.3514e-10 1.40977e-10)
(-3.72177e-09 1.31667e-09 1.3715e-10)
(-4.63387e-09 2.57391e-09 4.6836e-10)
(-4.41925e-09 4.45466e-09 1.03868e-09)
(6.99226e-11 -6.31107e-10 2.90987e-10)
(-4.51225e-10 -6.17897e-10 4.11668e-10)
(-8.00486e-10 -4.46937e-10 4.38446e-10)
(-1.34376e-09 5.67436e-11 3.49536e-10)
(-1.89152e-09 7.25115e-10 2.50152e-10)
(-2.65145e-09 8.61824e-10 1.73972e-10)
(-3.63539e-09 1.86948e-09 3.44333e-10)
(-4.8444e-09 4.50014e-09 1.12333e-09)
(-6.69862e-09 1.21358e-08 3.51159e-09)
)
;

boundaryField
{
    inlet
    {
        type            calculated;
        value           nonuniform 0();
    }
    outlet
    {
        type            calculated;
        value           nonuniform List<vector> 
16
(
(1.45141e-09 1.2106e-09 1.06171e-09)
(1.24189e-09 1.12364e-09 9.91717e-10)
(4.61629e-09 1.28595e-09 1.29394e-09)
(2.7512e-09 4.29892e-10 7.99543e-10)
(1.04337e-09 -8.00436e-11 7.69761e-10)
(6.69589e-10 2.03996e-10 4.26173e-10)
(8.31002e-09 3.53267e-09 6.94275e-10)
(4.18257e-09 1.65856e-09 5.68083e-10)
(5.73157e-10 -1.653e-10 -7.53766e-10)
(6.50853e-10 4.58148e-10 -6.48273e-10)
(7.0461e-10 2.06124e-10 -6.72995e-11)
(1.64844e-09 4.17181e-12 -6.71631e-11)
(1.21875e-09 -8.46615e-11 -5.12856e-10)
(7.24515e-10 3.06256e-10 -4.69189e-10)
(2.90682e-10 3.29494e-10 2.81135e-10)
(-2.45501e-08 8.44273e-08 2.66374e-08)
)
;
    }
    wall
    {
        type            calculated;
        value           nonuniform List<vector> 
66
(
(1.76352e-09 -1.41885e-09 3.62853e-10)
(2.7489e-09 -7.76662e-10 3.09712e-10)
(8.00119e-10 -4.81537e-10 2.77081e-10)
(7.7761e-09 -2.23019e-09 1.70998e-09)
(1.1132e-09 -1.36559e-09 7.49205e-10)
(-7.56668e-10 -5.44054e-10 2.75734e-11)
(2.57189e-09 -1.61353e-09 1.5124e-09)
(3.79421e-09 -7.07835e-10 1.19136e-09)
(2.91445e-10 -8.45724e-10 3.20882e-10)
(2.7116e-10 4.0954e-10 1.05348e-10)
(1.21626e-09 4.17903e-10 -4.14939e-10)
(-3.0302e-10 2.65785e-10 6.69037e-11)
(-2.51677e-09 5.71789e-10 7.33502e-10)
(-2.41422e-09 3.43746e-10 5.15499e-10)
(-2.69279e-09 5.34126e-09 6.95765e-10)
(-4.39354e-10 8.34255e-10 1.13457e-10)
(-1.32465e-09 -8.07495e-11 8.10954e-12)
(-5.34288e-09 -1.09506e-10 -3.11027e-11)
(-9.36922e-09 -2.2235e-10 -4.1495e-10)
(-9.023e-09 4.95341e-10 -3.44143e-10)
(-5.32233e-09 2.23637e-10 1.06239e-10)
(-3.03452e-09 2.06909e-10 -1.40832e-10)
(-1.56311e-08 6.22615e-10 -3.97679e-10)
(-1.15061e-08 8.21964e-10 -4.8671e-11)
(-1.0763e-08 5.17095e-10 4.34836e-11)
(-6.14846e-09 -7.73577e-11 -3.21898e-10)
(2.10783e-09 3.4137e-11 -8.9893e-10)
(2.65292e-10 5.41141e-10 -7.59267e-10)
(-9.89132e-10 4.12776e-10 3.79765e-10)
(-2.40704e-08 8.38287e-08 2.62633e-08)
(-3.50293e-09 1.30406e-10 -2.53182e-09)
(1.61522e-14 -1.13902e-09 -1.89939e-09)
(-1.97156e-09 -4.64593e-10 -2.40677e-10)
(-9.11276e-10 -4.45662e-10 2.44787e-10)
(4.92918e-09 7.42689e-10 -1.55721e-09)
(3.13474e-09 6.60631e-11 -1.47196e-09)
(-3.65729e-09 -1.59278e-10 -3.14017e-10)
(-2.72811e-09 -5.02438e-10 4.66111e-11)
(1.24765e-09 -1.52591e-09 -1.16385e-10)
(-6.9667e-09 -1.4048e-09 1.5486e-09)
(-3.64425e-09 -1.45128e-10 6.57304e-10)
(2.68658e-10 -8.20736e-10 2.98849e-10)
(5.21175e-10 -1.9525e-09 7.26103e-10)
(-2.20296e-10 -1.70266e-10 7.20027e-10)
(-4.30039e-09 8.8428e-11 3.08054e-10)
(-8.58824e-10 2.5997e-10 9.67087e-11)
(-1.77805e-09 -3.79412e-12 -1.57385e-10)
(-2.22527e-09 -2.80294e-10 -2.0775e-10)
(-2.92501e-09 -2.56506e-11 -2.18367e-10)
(-5.48321e-10 5.27564e-09 5.96432e-10)
(-9.28141e-10 9.56781e-10 -1.61324e-10)
(-6.93097e-09 7.03483e-10 -6.99463e-10)
(5.63956e-10 2.11355e-10 5.56685e-10)
(-3.72487e-09 -9.63692e-11 1.16655e-10)
(-8.4853e-09 -1.19589e-10 -1.32566e-09)
(-6.27849e-09 6.92512e-11 6.09374e-10)
(-5.57948e-09 1.81253e-10 5.46861e-10)
(-3.50773e-09 2.32317e-10 -7.74935e-11)
(-1.01041e-08 -2.72647e-10 4.21221e-10)
(-8.22244e-09 1.08515e-09 3.00531e-10)
(-6.36761e-09 1.19417e-10 2.65416e-10)
(-6.02485e-09 -6.1134e-11 -2.98195e-10)
(4.39855e-09 1.0154e-10 1.5407e-09)
(7.2118e-09 1.01357e-09 5.31741e-10)
(3.19599e-10 -5.42345e-11 1.97945e-10)
(-1.01613e-07 9.46739e-08 8.43148e-08)
)
;
    }
    procBoundary7to0
    {
        type            processor;
        value           uniform (-2.47343e-09 -2.08792e-09 3.01575e-10);
    }
    procBoundary7to1
    {
        type            processor;
        value           uniform (-5.07942e-09 -2.04861e-09 8.9101e-10);
    }
    procBoundary7to3
    {
        type            processor;
        value           nonuniform List<vector> 
36
(
(-7.85895e-09 -3.42646e-09 2.7947e-10)
(-7.23618e-09 -1.99291e-09 9.40703e-10)
(-6.55624e-09 -1.3844e-09 1.26496e-09)
(-7.51973e-09 -7.5603e-10 1.04273e-09)
(-5.9255e-09 -1.37379e-10 3.15887e-10)
(-6.00835e-09 3.26774e-10 -5.57813e-10)
(-8.92651e-09 6.71083e-10 -1.25839e-09)
(-1.11781e-08 7.23505e-10 -2.20401e-09)
(-1.2526e-08 7.48116e-10 -2.88119e-09)
(-4.70153e-09 -2.5547e-09 2.21463e-10)
(-5.5783e-09 -2.2854e-09 6.38242e-10)
(-4.89939e-09 -2.55524e-09 9.63694e-10)
(-5.19551e-09 -1.07351e-09 8.65123e-10)
(-5.79863e-09 4.77029e-11 2.13726e-10)
(-6.06093e-09 1.99899e-10 -7.291e-10)
(-9.37849e-09 8.11499e-10 -1.50953e-09)
(-1.2355e-08 5.38025e-10 -2.41115e-09)
(-1.35154e-08 5.34775e-10 -3.00528e-09)
(-2.50575e-09 -2.19435e-09 3.22403e-10)
(-3.10524e-09 -1.82996e-09 4.95115e-10)
(-3.4347e-09 -1.79248e-09 6.73837e-10)
(-4.07481e-09 -1.03623e-09 5.04412e-10)
(-4.78282e-09 -3.12269e-10 -6.25718e-11)
(-5.36738e-09 -4.30404e-11 -9.38964e-10)
(-8.72756e-09 8.49998e-12 -1.61827e-09)
(-1.0738e-08 -1.63316e-10 -2.24897e-09)
(-1.0225e-08 -3.90453e-10 -2.52597e-09)
(-1.40926e-09 -1.63423e-09 6.40924e-11)
(-1.52685e-09 -1.66324e-09 1.49191e-10)
(-2.04618e-09 -1.85276e-09 2.35382e-10)
(-3.01978e-09 -1.20254e-09 1.04035e-10)
(-3.75187e-09 -4.06266e-10 -2.59407e-10)
(-4.98282e-09 -3.27435e-10 -9.91152e-10)
(-7.07991e-09 -5.35617e-10 -1.53899e-09)
(-8.82688e-09 -7.41478e-10 -1.92345e-09)
(-7.96643e-09 -1.45586e-09 -2.04912e-09)
)
;
    }
    procBoundary7to5
    {
        type            processor;
        value           nonuniform List<vector> 
44
(
(-5.83548e-09 -1.52421e-09 1.8003e-09)
(-4.56898e-09 -9.51974e-10 1.68451e-09)
(-4.14315e-09 -5.43999e-10 1.14795e-09)
(-3.8661e-09 -3.52249e-10 5.31843e-10)
(-3.95786e-09 1.73706e-10 -1.90889e-10)
(-5.17724e-09 4.84312e-10 -5.93785e-10)
(-5.42862e-09 5.35394e-10 -8.61131e-10)
(-4.49795e-09 8.44504e-10 -6.40296e-10)
(-8.1182e-10 -1.62962e-09 1.19026e-09)
(-1.07734e-09 -1.39833e-09 1.47509e-09)
(-2.03457e-09 -9.85554e-10 1.5713e-09)
(-1.9547e-09 -6.51934e-10 9.92744e-10)
(-2.56865e-09 -3.34161e-10 5.34993e-10)
(-2.49739e-09 5.98348e-11 -5.60652e-11)
(-3.77594e-09 4.14432e-10 -4.20013e-10)
(-3.79034e-09 4.27205e-10 -5.28169e-10)
(-2.88407e-09 4.74342e-10 -4.66292e-10)
(-8.1182e-10 -1.62962e-09 1.19026e-09)
(-1.07734e-09 -1.39833e-09 1.47509e-09)
(-1.07734e-09 -1.39833e-09 1.47509e-09)
(-5.52119e-10 -1.10738e-09 1.0083e-09)
(-1.01249e-09 -6.21389e-10 7.23248e-10)
(-1.36284e-09 -3.57961e-10 4.82289e-10)
(-1.79197e-09 -3.51187e-11 1.68109e-11)
(-3.12326e-09 1.88102e-10 -2.52014e-10)
(-3.22425e-09 3.20347e-10 -3.01674e-10)
(-2.51069e-09 4.31395e-10 -3.93827e-10)
(5.02549e-10 -1.2395e-09 1.00647e-09)
(-1.92446e-10 -1.30513e-09 1.19665e-09)
(-5.52119e-10 -1.10738e-09 1.0083e-09)
(-1.01249e-09 -6.21389e-10 7.23248e-10)
(-1.01249e-09 -6.21389e-10 7.23248e-10)
(-1.5436e-09 -6.10504e-11 3.81676e-10)
(-2.26573e-09 2.68469e-10 7.39882e-11)
(-3.13179e-09 1.39679e-10 -7.39776e-11)
(-3.45528e-09 3.61134e-10 -3.05539e-10)
(-2.36193e-09 4.9475e-10 -4.89236e-10)
(9.08705e-10 -1.0411e-09 8.28993e-10)
(5.77245e-10 -1.24218e-09 1.01387e-09)
(-2.48994e-10 -1.36855e-09 9.14448e-10)
(-9.51926e-10 -6.00947e-10 6.20431e-10)
(-1.5436e-09 -6.10504e-11 3.81676e-10)
(-2.26573e-09 2.68469e-10 7.39882e-11)
(-2.26573e-09 2.68469e-10 7.39882e-11)
)
;
    }
    procBoundary7to6
    {
        type            processor;
        value           nonuniform List<vector> 
12
(
(-6.89589e-10 -1.65927e-09 4.4069e-10)
(-7.56454e-11 -1.44786e-09 2.90729e-10)
(-1.91093e-10 -1.24175e-09 9.55203e-11)
(5.0077e-10 -1.11096e-09 7.87536e-10)
(7.93886e-10 -1.00369e-09 5.06649e-10)
(6.21241e-10 -8.94944e-10 2.43319e-10)
(1.18651e-09 -7.55453e-10 7.58348e-10)
(1.00364e-09 -7.3809e-10 4.77613e-10)
(5.67386e-10 -6.50221e-10 2.53619e-10)
(1.29362e-09 -6.34741e-10 6.49768e-10)
(1.2233e-09 -6.27706e-10 4.12386e-10)
(7.57297e-10 -5.77431e-10 2.81583e-10)
)
;
    }
}


// ************************************************************************* //
