/*--------------------------------*- C++ -*----------------------------------*\
| =========                 |                                                 |
| \\      /  F ield         | OpenFOAM: The Open Source CFD Toolbox           |
|  \\    /   O peration     | Version:  4.x                                   |
|   \\  /    A nd           | Web:      www.OpenFOAM.org                      |
|    \\/     M anipulation  |                                                 |
\*---------------------------------------------------------------------------*/
FoamFile
{
    version     2.0;
    format      ascii;
    class       volScalarField;
    location    "32.5";
    object      p;
}
// * * * * * * * * * * * * * * * * * * * * * * * * * * * * * * * * * * * * * //

dimensions      [1 -1 -2 0 0 0 0];

internalField   nonuniform List<scalar> 
132
(
22.5196
75.1181
4.268
68.5546
-14.0731
62.7201
-32.5039
56.6686
-49.0059
21.3137
74.9846
2.86639
68.1367
-15.2644
61.5778
-33.0998
55.3803
-48.9381
19.8453
75.0083
0.574485
68.4857
-18.9721
62.7425
-39.3746
58.9305
-60.161
19.9458
74.9953
0.642364
68.6783
-19.1136
63.138
-39.8354
59.345
-60.6225
-1873.93
-1809.41
-1892.25
-1815.18
-1910.3
-1821.65
-1926.8
-1855.99
-1802.82
-1874.21
-1809.2
-1892.48
-1815.01
-1910.7
-1820.56
-1928.05
-1857.23
-1802.91
-1875.75
-1809.38
-1893.83
-1815.25
-1911.41
-1821.77
-1926.09
-1857.44
-1802.69
-1876.31
-1808.99
-1895.4
-1814.82
-1914.65
-1819.76
-1933.34
-3773.06
-3693.74
-3792.07
-3698.88
-3809.67
-3734.46
-3680.73
-3752.78
-3687.36
-3770.81
-3694.05
-3788.26
-3701.18
-3803.76
-3735.13
-3680.8
-3754.14
-3687.41
-3773.79
-3693.26
-3794.65
-3697.26
-3817.39
-3735.04
-3680.78
-3753.82
-3687.17
-3773.01
-3692.91
-3792.68
-3697.25
-3813.35
-5672.87
-5574.94
-5696.48
-5612.51
-5558.38
-5631.08
-5564.89
-5649.99
-5571.13
-5668.63
-5577.05
-5686.84
-5612.91
-5558.62
-5631.55
-5564.95
-5650.65
-5570.7
-5670
-5575.31
-5689.85
-5612.76
-5558.59
-5631.41
-5564.89
-5650.21
-5570.84
-5668.65
-5576.26
-5685.4
)
;

boundaryField
{
    inlet
    {
        type            calculated;
        value           nonuniform 0();
    }
    outlet
    {
        type            calculated;
        value           nonuniform List<scalar> 
16
(
0
0
0
0
-1877.91
-1877.91
-1877.91
-1877.91
-3755.83
-3755.83
-3755.83
-3755.83
-5633.74
-5633.74
-5633.74
-5633.74
)
;
    }
    wall
    {
        type            calculated;
        value           nonuniform List<scalar> 
66
(
-6551.46
-6551.87
-6551.71
-6497.33
-6497.57
-6497.54
-6570.03
-6570.51
-6570.37
-6503.85
-6503.9
-6503.84
-6588.95
-6589.6
-6589.17
-6510.08
-6509.66
-6509.8
-6611.81
-6607.57
-6608.95
-6607.61
-6513.87
-6515.98
-6514.26
-6515.21
-6635.12
-6625.5
-6627.92
-6623.82
19.9458
-1857.44
-3735.04
-5612.76
74.9953
-1802.69
-3680.78
-5558.59
0.642363
-1876.31
-3753.82
-5631.41
68.6783
-1808.99
-3687.17
-5564.89
-19.1136
-1895.4
-3773.01
-5650.21
63.138
-1814.82
-3692.91
-5570.84
-39.8354
-1914.65
-3792.68
-5668.65
59.345
-1819.76
-3697.25
-5576.26
-60.6225
-1933.34
-3813.35
-5685.4
)
;
    }
    procBoundary7to0
    {
        type            processor;
        value           uniform 81.9887;
    }
    procBoundary7to1
    {
        type            processor;
        value           uniform 22.1872;
    }
    procBoundary7to3
    {
        type            processor;
        value           nonuniform List<scalar> 
36
(
1897.75
1952.87
1878.98
1946.43
1860.43
1941.08
1842.63
1935.69
1827.18
1897.64
1952.98
1878.57
1946.56
1859.67
1941.2
1840.67
1936.93
1822.22
1897.19
1952.98
1877.78
1946.35
1858.37
1940.55
1838.86
1936.02
1821.98
1897.13
1952.87
1877.69
1946.77
1857.21
1941.66
1834.73
1939.09
1807.67
)
;
    }
    procBoundary7to5
    {
        type            processor;
        value           nonuniform List<scalar> 
44
(
75.2168
4.42227
68.6417
-13.1943
61.9477
-30.1128
54.2854
-45.555
-1855.91
-1802.93
-1875.38
-1809.28
-1894.15
-1815.09
-1912.93
-1819.95
-1930.39
-1855.91
-1802.93
-1802.93
-3753.96
-3687.61
-3771.93
-3694.15
-3789.65
-3700.96
-3805.35
-3735.04
-3680.78
-3753.96
-3687.61
-3687.61
-5651.93
-5570.91
-5672.94
-5574.92
-5696.73
-5613.12
-5558.68
-5632.15
-5565.1
-5651.93
-5570.91
-5570.91
)
;
    }
    procBoundary7to6
    {
        type            processor;
        value           nonuniform List<scalar> 
12
(
82.1333
81.9161
81.8014
-1795.95
-1795.75
-1795.93
-3673.45
-3673.78
-3673.92
-5551.57
-5551.81
-5551.86
)
;
    }
}


// ************************************************************************* //
