/*--------------------------------*- C++ -*----------------------------------*\
| =========                 |                                                 |
| \\      /  F ield         | OpenFOAM: The Open Source CFD Toolbox           |
|  \\    /   O peration     | Version:  4.x                                   |
|   \\  /    A nd           | Web:      www.OpenFOAM.org                      |
|    \\/     M anipulation  |                                                 |
\*---------------------------------------------------------------------------*/
FoamFile
{
    version     2.0;
    format      ascii;
    class       volScalarField;
    location    "32.5";
    object      particleRelTemp;
}
// * * * * * * * * * * * * * * * * * * * * * * * * * * * * * * * * * * * * * //

dimensions      [0 0 0 0 0 0 0];

internalField   nonuniform List<scalar> 
132
(
1.53356e-09
1.8207e-09
2.04488e-09
2.2318e-09
2.30726e-09
2.44613e-09
2.52591e-09
2.65579e-09
2.69568e-09
1.35621e-09
1.66044e-09
1.96905e-09
2.08037e-09
2.21961e-09
2.23008e-09
2.28298e-09
2.3418e-09
2.45803e-09
9.52888e-10
1.12809e-09
1.40495e-09
1.53383e-09
1.68072e-09
1.57757e-09
1.67911e-09
1.83508e-09
1.9202e-09
4.32019e-10
5.84887e-10
7.74277e-10
9.85993e-10
1.05901e-09
1.02863e-09
1.10306e-09
1.16748e-09
1.35089e-09
2.00543e-09
2.11171e-09
2.2189e-09
2.34591e-09
2.42245e-09
2.53495e-09
2.58983e-09
1.33846e-09
1.57767e-09
1.83209e-09
1.93147e-09
2.05084e-09
2.11062e-09
2.23379e-09
2.30692e-09
2.40406e-09
8.8318e-10
1.05747e-09
1.25883e-09
1.48292e-09
1.48128e-09
1.57995e-09
1.64746e-09
1.79545e-09
1.80682e-09
3.1475e-10
5.21403e-10
7.94534e-10
8.99156e-10
9.64725e-10
9.5011e-10
1.06865e-09
1.13181e-09
1.24861e-09
2.00391e-09
1.96474e-09
1.976e-09
2.01971e-09
2.25196e-09
7.61466e-10
1.24865e-09
1.35712e-09
1.51076e-09
1.63208e-09
1.77395e-09
1.84246e-09
1.87703e-09
2.00232e-09
3.68508e-10
5.61339e-10
7.93334e-10
1.00622e-09
1.09981e-09
1.19421e-09
1.26281e-09
1.26025e-09
1.40022e-09
-1.68839e-10
1.3184e-10
2.97209e-10
4.74018e-10
4.58509e-10
4.58312e-10
6.43718e-10
6.33482e-10
7.8168e-10
1.47029e-09
1.53296e-09
1.55223e-09
3.61446e-10
6.02916e-10
8.99965e-10
1.02762e-09
1.21086e-09
1.28733e-09
1.33695e-09
1.30778e-09
1.48833e-09
-1.124e-10
1.39065e-10
3.86672e-10
5.14679e-10
6.83207e-10
8.08024e-10
8.0735e-10
7.10651e-10
8.77144e-10
-5.87849e-10
-3.08216e-10
-1.55331e-10
-6.66269e-11
1.10494e-10
1.78215e-10
2.25436e-10
1.55748e-10
1.92212e-11
)
;

boundaryField
{
    inlet
    {
        type            calculated;
        value           nonuniform 0();
    }
    outlet
    {
        type            calculated;
        value           nonuniform List<scalar> 
16
(
2.69568e-09
2.45803e-09
1.9202e-09
1.35089e-09
2.58983e-09
2.40406e-09
1.80682e-09
1.24861e-09
2.25196e-09
2.00232e-09
1.40022e-09
7.8168e-10
1.55223e-09
1.48833e-09
8.77144e-10
1.92212e-11
)
;
    }
    wall
    {
        type            calculated;
        value           nonuniform List<scalar> 
66
(
3.61446e-10
-1.124e-10
-5.87849e-10
6.02916e-10
1.39065e-10
-3.08216e-10
8.99965e-10
3.86672e-10
-1.55331e-10
1.02762e-09
5.14679e-10
-6.66269e-11
1.21086e-09
6.83207e-10
1.10494e-10
1.28733e-09
8.08024e-10
1.78215e-10
1.47029e-09
1.33695e-09
8.0735e-10
2.25436e-10
1.53296e-09
1.30778e-09
7.10651e-10
1.55748e-10
1.55223e-09
1.48833e-09
8.77144e-10
1.92212e-11
4.32019e-10
3.1475e-10
-1.68839e-10
-5.87849e-10
5.84887e-10
5.21403e-10
1.3184e-10
-3.08216e-10
7.74277e-10
7.94534e-10
2.97209e-10
-1.55331e-10
9.85993e-10
8.99156e-10
4.74018e-10
-6.66269e-11
1.05901e-09
9.64725e-10
4.58509e-10
1.10494e-10
1.02863e-09
9.5011e-10
4.58312e-10
1.78215e-10
1.10306e-09
1.06865e-09
6.43718e-10
2.25436e-10
1.16748e-09
1.13181e-09
6.33482e-10
1.55748e-10
1.35089e-09
1.24861e-09
7.8168e-10
1.92212e-11
)
;
    }
    procBoundary7to0
    {
        type            processor;
        value           uniform 1.13935e-09;
    }
    procBoundary7to1
    {
        type            processor;
        value           uniform 1.33511e-09;
    }
    procBoundary7to3
    {
        type            processor;
        value           nonuniform List<scalar> 
36
(
1.31362e-09
1.51878e-09
1.79332e-09
1.82756e-09
1.93575e-09
2.11828e-09
2.17615e-09
2.38168e-09
2.41044e-09
1.02299e-09
1.33094e-09
1.60326e-09
1.73577e-09
1.91536e-09
1.95399e-09
2.03498e-09
2.0511e-09
2.07602e-09
6.06328e-10
7.16592e-10
1.10926e-09
1.28102e-09
1.42913e-09
1.4789e-09
1.39164e-09
1.51916e-09
1.52166e-09
1.24109e-10
1.4396e-10
4.14456e-10
6.39425e-10
8.02156e-10
6.92961e-10
7.89747e-10
9.19425e-10
1.16503e-09
)
;
    }
    procBoundary7to5
    {
        type            processor;
        value           nonuniform List<scalar> 
44
(
1.62115e-09
1.88259e-09
2.04209e-09
2.13283e-09
2.21099e-09
2.34017e-09
2.39854e-09
2.58551e-09
1.37132e-09
1.81617e-09
1.70916e-09
1.90897e-09
2.00623e-09
2.06968e-09
2.21572e-09
2.34565e-09
2.38847e-09
1.37132e-09
1.81617e-09
1.81617e-09
1.43917e-09
1.64905e-09
1.59339e-09
1.65562e-09
1.73008e-09
1.79824e-09
1.90662e-09
8.39297e-10
1.20948e-09
1.43917e-09
1.64905e-09
1.64905e-09
1.39133e-09
1.40889e-09
1.17343e-09
1.19612e-09
1.30793e-09
4.76824e-10
6.88693e-10
9.62359e-10
1.14205e-09
1.39133e-09
1.40889e-09
1.40889e-09
)
;
    }
    procBoundary7to6
    {
        type            processor;
        value           nonuniform List<scalar> 
12
(
9.75586e-10
5.34367e-10
-5.20459e-11
8.98083e-10
4.15198e-10
-1.37014e-13
5.01219e-10
1.50403e-10
-4.06703e-10
-9.60815e-11
-3.17603e-10
-7.49777e-10
)
;
    }
}


// ************************************************************************* //
