/*--------------------------------*- C++ -*----------------------------------*\
| =========                 |                                                 |
| \\      /  F ield         | OpenFOAM: The Open Source CFD Toolbox           |
|  \\    /   O peration     | Version:  4.x                                   |
|   \\  /    A nd           | Web:      www.OpenFOAM.org                      |
|    \\/     M anipulation  |                                                 |
\*---------------------------------------------------------------------------*/
FoamFile
{
    version     2.0;
    format      ascii;
    class       surfaceScalarField;
    location    "32.5";
    object      phi;
}
// * * * * * * * * * * * * * * * * * * * * * * * * * * * * * * * * * * * * * //

dimensions      [0 3 -1 0 0 0 0];

internalField   nonuniform List<scalar> 
308
(
5.10221e-06
2.56772e-08
5.16381e-06
9.71629e-08
5.14993e-06
1.38843e-08
3.58959e-12
5.22309e-06
1.54554e-07
1.96131e-07
5.09339e-06
1.29707e-07
2.59051e-13
5.17801e-06
1.15751e-07
4.80638e-07
4.59682e-06
5.42198e-07
-2.43899e-12
5.94937e-06
-6.90662e-07
6.11977e-07
1.81465e-06
4.24574e-07
5.21952e-06
1.34661e-07
-2.02776e-08
5.26567e-06
7.35722e-08
-1.95956e-08
5.10709e-06
1.60164e-07
-1.08732e-08
5.54281e-06
-6.19163e-08
-2.08331e-08
5.30251e-06
3.68926e-07
-9.0821e-08
6.16485e-06
-2.9712e-07
1.8978e-07
5.61639e-06
1.02817e-06
-3.04978e-07
6.87158e-06
-1.26387e-06
7.88429e-07
2.59477e-06
-5.65121e-07
6.71093e-06
1.08867e-07
-1.08351e-07
6.72045e-06
4.45944e-08
-1.26124e-08
6.72423e-06
1.40487e-07
-1.44006e-07
6.85293e-06
-1.34535e-07
-1.26497e-08
6.91566e-06
2.50244e-07
-2.25989e-07
7.20935e-06
-4.1185e-07
5.84334e-08
7.37775e-06
5.28193e-07
-4.08504e-07
7.50326e-06
-9.51086e-07
6.19935e-07
1.08184e-06
-2.66983e-07
9.28648e-06
-3.55853e-07
9.2548e-06
-2.35305e-07
9.24888e-06
-4.7475e-07
9.08627e-06
-2.11573e-07
9.02764e-06
-6.48613e-07
8.64003e-06
-3.87778e-08
8.59309e-06
-9.7039e-07
7.89575e-06
6.34607e-07
-9.07381e-07
5.1207e-06
-1.19881e-12
5.19357e-06
-2.43004e-08
5.02519e-06
2.48332e-13
1.68381e-07
5.10995e-06
-9.94468e-10
3.24925e-07
4.4359e-06
4.91785e-13
5.60627e-07
5.80816e-06
1.42543e-07
-3.6269e-07
-2.15253e-07
2.5015e-06
5.06487e-06
6.03077e-09
2.24395e-12
5.12668e-06
-3.94785e-08
-8.214e-08
5.11581e-06
-4.4595e-13
2.86167e-12
5.18917e-06
-5.68369e-08
-6.1661e-08
5.09835e-06
5.44969e-13
-6.41023e-16
5.18364e-06
-3.50917e-08
1.38586e-07
4.8268e-06
4.55943e-13
5.18608e-08
5.4866e-06
-2.32511e-07
5.03687e-07
4.62018e-07
4.89812e-07
5.27405e-06
4.69097e-08
-8.85517e-09
5.31122e-06
-6.49072e-08
-2.43445e-08
5.11315e-06
5.77945e-08
-3.73704e-09
5.18818e-06
-1.26557e-07
-1.79564e-08
4.74456e-06
1.38731e-07
7.88969e-08
4.83037e-06
-1.08133e-07
4.5664e-08
3.901e-06
2.62096e-07
2.58772e-07
5.261e-06
-6.73475e-07
-2.99101e-07
9.56429e-07
1.22728e-06
8.18266e-06
-2.06112e-07
7.96649e-06
-8.40337e-08
7.83575e-06
-2.8622e-07
7.59302e-06
-9.53969e-08
7.43707e-06
-3.53933e-07
7.32395e-06
-3.37893e-08
7.11215e-06
-4.96499e-07
6.89161e-06
1.8167e-07
4.76182e-07
6.09096e-06
-4.75436e-08
6.75405e-06
-1.7e-07
6.27619e-06
-6.18486e-08
9.03163e-07
7.23072e-06
-3.74771e-07
-6.87874e-07
6.99746e-07
3.21271e-06
5.16503e-06
6.8006e-08
2.63067e-08
5.22744e-06
5.32742e-08
-1.23535e-07
5.0946e-06
8.94998e-08
2.54939e-08
5.16845e-06
-6.05474e-08
-1.09879e-07
4.85772e-06
1.84552e-07
7.86347e-08
5.27274e-06
-3.51675e-07
-9.4752e-08
4.65652e-06
4.38421e-07
1.67805e-07
6.31344e-06
-1.25331e-06
-2.74691e-07
1.86155e-06
8.16386e-07
6.9763e-06
6.95092e-08
-1.6843e-08
7.02235e-06
4.103e-08
-5.81564e-08
7.15755e-06
3.77698e-08
-8.72074e-08
7.3591e-06
-9.00234e-08
-1.90024e-07
7.67234e-06
4.44212e-08
-9.42175e-08
7.97684e-06
-3.74961e-07
-2.3555e-07
8.66909e-06
8.1868e-08
-7.69252e-08
8.65681e-06
-1.00371e-06
-5.36407e-07
5.6776e-07
6.25701e-07
9.36944e-06
-1.19523e-07
9.39574e-06
-6.93014e-08
9.34459e-06
-1.97299e-07
9.29062e-06
-1.31454e-07
9.2996e-06
-3.18484e-07
8.99731e-06
-1.06462e-07
9.18049e-06
-5.97811e-07
8.18684e-06
1.71603e-07
1.28819e-08
9.73894e-06
-6.99614e-07
9.32195e-06
3.25663e-07
-1.54753e-06
7.60706e-06
4.4596e-08
7.29759e-06
7.00763e-08
7.08928e-06
2.54707e-08
6.81407e-06
-5.57899e-09
6.58651e-06
-3.84411e-08
6.4617e-06
-1.20138e-07
6.06877e-06
-1.38872e-07
6.29116e-06
-1.71423e-07
-5.30117e-07
9.09282e-06
5.1433e-08
9.02861e-06
7.61281e-08
8.91652e-06
5.03508e-08
8.70115e-06
1.97651e-08
8.59862e-06
-3.01219e-08
8.28353e-06
-4.05986e-08
8.27458e-06
-2.0685e-07
7.64554e-06
-7.87903e-08
-8.5327e-07
1.04394e-05
1.04462e-05
1.02992e-05
1.01876e-05
9.83895e-06
9.69189e-06
8.88723e-06
8.98004e-06
)
;

boundaryField
{
    inlet
    {
        type            calculated;
        value           nonuniform 0();
    }
    outlet
    {
        type            calculated;
        value           nonuniform List<scalar> 
16
(
3.23643e-06
5.76686e-06
7.85816e-06
7.39158e-06
3.3067e-06
3.75439e-06
3.27233e-06
6.46448e-06
4.95778e-06
4.82506e-06
1.05522e-05
9.2179e-06
1.27476e-05
6.09013e-06
8.5944e-06
8.13965e-06
)
;
    }
    wall
    {
        type            calculated;
        value           nonuniform List<scalar> 
66
(
0
0
0
0
0
0
0
0
0
0
0
0
0
0
0
0
0
0
-9.86076e-32
0
0
0
0
4.93038e-32
0
0
0
1.97215e-31
0
0
0
0
0
0
0
0
0
0
0
0
0
0
0
0
0
0
0
0
0
0
0
0
0
0
0
0
0
0
0
0
0
0
0
0
0
0
)
;
    }
    procBoundary7to0
    {
        type            processor;
        value           uniform -5.15579e-06;
    }
    procBoundary7to1
    {
        type            processor;
        value           uniform 9.04945e-13;
    }
    procBoundary7to3
    {
        type            processor;
        value           nonuniform List<scalar> 
36
(
2.79001e-08
-3.7314e-08
-2.94172e-12
-2.16346e-07
2.05031e-12
-5.4674e-07
5.6686e-12
-1.4436e-06
5.72385e-07
7.97539e-08
-2.96689e-09
2.31742e-08
-1.9841e-07
9.18973e-08
-6.3925e-07
3.67465e-07
-1.47041e-06
8.8972e-07
1.47636e-07
3.20758e-08
1.59901e-07
-4.34265e-08
2.81941e-07
-2.37401e-07
7.40086e-07
-1.05823e-06
1.42501e-06
4.58817e-07
3.1158e-07
6.2115e-07
2.39646e-07
9.57495e-07
1.45391e-08
1.54552e-06
-8.88348e-07
2.49339e-06
)
;
    }
    procBoundary7to5
    {
        type            processor;
        value           nonuniform List<scalar> 
44
(
-1.50573e-07
-6.34139e-15
-2.07507e-07
-7.59879e-13
-1.3427e-07
3.89853e-08
1.69738e-07
-9.86596e-08
3.65957e-12
2.91167e-08
1.67923e-12
1.17287e-08
1.07806e-12
7.19446e-08
1.13422e-07
-5.40137e-07
6.39793e-07
1.05413e-12
-5.17942e-06
4.02146e-08
5.87239e-08
1.35827e-07
4.59579e-08
-1.20526e-07
1.97181e-07
-2.54575e-07
8.61983e-07
1.50933e-08
-7.42906e-08
1.78476e-08
-6.19127e-06
3.49156e-08
2.70274e-07
-4.7646e-08
7.54733e-07
-5.96553e-07
1.33455e-06
1.25216e-07
1.15856e-07
2.08336e-07
1.70905e-07
3.4464e-07
-8.89089e-06
1.50191e-07
)
;
    }
    procBoundary7to6
    {
        type            processor;
        value           nonuniform List<scalar> 
12
(
-5.38798e-06
-6.72442e-06
-9.28057e-06
-5.09119e-06
-5.41443e-06
-8.2855e-06
-5.27443e-06
-6.96981e-06
-9.38652e-06
-7.75056e-06
-9.1165e-06
-1.05075e-05
)
;
    }
}


// ************************************************************************* //
