/*--------------------------------*- C++ -*----------------------------------*\
| =========                 |                                                 |
| \\      /  F ield         | OpenFOAM: The Open Source CFD Toolbox           |
|  \\    /   O peration     | Version:  4.x                                   |
|   \\  /    A nd           | Web:      www.OpenFOAM.org                      |
|    \\/     M anipulation  |                                                 |
\*---------------------------------------------------------------------------*/
FoamFile
{
    version     2.0;
    format      ascii;
    class       volScalarField;
    location    "32.5";
    object      QWallFluidCoeff;
}
// * * * * * * * * * * * * * * * * * * * * * * * * * * * * * * * * * * * * * //

dimensions      [1 -1 -3 -1 0 0 0];

internalField   nonuniform List<scalar> 
132
(
0
0
0
0
0
0
0
0
0
0
0
0
0
0
0
0
0
0
0
0
0
0
0
0
0
0
0
-1.56758e+06
-2.98122e+06
-1.50073e+06
-3.03161e+06
-1.37176e+06
-3.07197e+06
-1.15658e+06
-3.13522e+06
-884470
0
0
0
0
0
0
0
0
0
0
0
0
0
0
0
0
0
0
0
0
0
0
0
0
0
-1.28561e+06
-2.80389e+06
-1.12826e+06
-2.80769e+06
-943082
-2.81112e+06
-814268
-2.81058e+06
-636711
0
0
0
0
0
0
0
0
0
0
0
0
0
0
0
0
0
0
0
0
0
0
0
-1.64189e+06
-2.94351e+06
-1.59923e+06
-2.97632e+06
-1.51252e+06
-3.04077e+06
-1.31036e+06
-3.17824e+06
-761320
-1.24466e+06
-3.45911e+06
-1.25444e+06
-1.11058e+06
-2.72782e+06
-900002
-2.70143e+06
-684752
-2.67803e+06
-530414
-2.60634e+06
-625323
-1.56382e+06
-2.90832e+06
-1.48094e+06
-2.9187e+06
-1.31952e+06
-2.94214e+06
-1.10297e+06
-3.01014e+06
-699791
-3.88584e+06
-6.14499e+06
-3.78713e+06
-6.13986e+06
-3.57096e+06
-6.00394e+06
-3.31729e+06
-5.54762e+06
-3.29412e+06
)
;

boundaryField
{
    inlet
    {
        type            calculated;
        value           nonuniform 0();
    }
    outlet
    {
        type            calculated;
        value           uniform 0;
    }
    wall
    {
        type            calculated;
        value           uniform 0;
    }
    procBoundary7to0
    {
        type            processor;
        value           uniform 0;
    }
    procBoundary7to1
    {
        type            processor;
        value           uniform 0;
    }
    procBoundary7to3
    {
        type            processor;
        value           uniform 0;
    }
    procBoundary7to5
    {
        type            processor;
        value           uniform 0;
    }
    procBoundary7to6
    {
        type            processor;
        value           uniform 0;
    }
}


// ************************************************************************* //
