/*--------------------------------*- C++ -*----------------------------------*\
| =========                 |                                                 |
| \\      /  F ield         | OpenFOAM: The Open Source CFD Toolbox           |
|  \\    /   O peration     | Version:  4.x                                   |
|   \\  /    A nd           | Web:      www.OpenFOAM.org                      |
|    \\/     M anipulation  |                                                 |
\*---------------------------------------------------------------------------*/
FoamFile
{
    version     2.0;
    format      ascii;
    class       volVectorField;
    location    "32.5";
    object      Urel;
}
// * * * * * * * * * * * * * * * * * * * * * * * * * * * * * * * * * * * * * //

dimensions      [0 1 -1 0 0 0 0];

internalField   nonuniform List<vector> 
132
(
(-0.0175349 -6.42138e-06 0.000213676)
(-0.0194561 -3.29606e-05 0.000152295)
(-0.0174499 -2.98985e-05 8.92245e-05)
(-0.0193905 -6.37222e-05 -1.72853e-05)
(-0.0173076 -3.66675e-05 -7.70784e-05)
(-0.0191258 -4.57051e-05 -0.000266185)
(-0.016864 -1.59453e-05 -0.000241514)
(-0.018247 5.63481e-05 -0.000487758)
(-0.0162471 -0.000134362 -0.000126483)
(-0.0179227 -7.21345e-05 0.000261507)
(-0.0198064 -6.44932e-05 0.000203524)
(-0.0178141 -5.85278e-05 0.000156959)
(-0.0197352 -6.36686e-05 7.78947e-05)
(-0.0177534 -0.000108006 4.9116e-05)
(-0.0195267 -0.000114924 -0.000106927)
(-0.0174962 -0.00030354 -5.14142e-06)
(-0.0186996 -0.00018673 -0.000278912)
(-0.0166275 -0.0010451 0.000272182)
(-0.0191434 -0.000140003 0.000359699)
(-0.020913 -9.90321e-05 0.000303365)
(-0.0190657 -0.000100531 0.000305913)
(-0.0209049 -3.88512e-05 0.000239733)
(-0.018949 -0.000136587 0.000266523)
(-0.0207555 -4.40965e-05 0.000153785)
(-0.0185178 -0.000364187 0.000286762)
(-0.0199107 -0.000214974 1.65668e-05)
(-0.0169152 -0.00126081 0.000609622)
(-0.0207828 -0.000129023 0.000485893)
(-0.0222432 -8.887e-05 0.000448868)
(-0.0207401 -6.25778e-05 0.000481418)
(-0.0222464 -2.84354e-05 0.000416928)
(-0.0204975 -9.03445e-05 0.000505962)
(-0.0220148 -9.11334e-05 0.000365044)
(-0.0197414 -0.000315131 0.000603094)
(-0.0209589 -0.000406137 0.000280481)
(-0.0173824 -0.00103369 0.00105006)
(-0.0172818 1.72633e-05 3.40221e-05)
(-0.0192309 2.50334e-05 -6.76528e-05)
(-0.0171575 3.47466e-05 -0.000127374)
(-0.0189832 5.85541e-05 -0.000309457)
(-0.0167554 7.62116e-05 -0.000361516)
(-0.0181345 6.48066e-05 -0.000533441)
(-0.0160992 0.00019838 -0.000837917)
(-0.0176182 -3.51247e-05 0.000173189)
(-0.0195115 -2.11048e-05 0.000147099)
(-0.0175078 -1.20848e-05 0.000111662)
(-0.0194239 2.03076e-06 6.47274e-05)
(-0.0173547 -3.45044e-06 6.17595e-07)
(-0.0191566 8.71839e-07 -0.000117836)
(-0.0169197 -4.45203e-05 -0.000172033)
(-0.0183051 -6.31269e-05 -0.000387669)
(-0.0159733 -0.000353628 -0.000372665)
(-0.0186124 -9.40599e-05 0.000242996)
(-0.0204446 -5.08143e-05 0.000222711)
(-0.0184747 -3.93085e-05 0.000214053)
(-0.0203048 3.11451e-06 0.000169593)
(-0.0182588 -2.7665e-05 0.000152019)
(-0.0199368 9.7864e-06 5.86798e-05)
(-0.0176826 -9.4685e-05 4.74237e-05)
(-0.0188575 -6.88829e-05 -0.000121619)
(-0.0164688 -0.000694654 -0.000191653)
(-0.020237 -0.000117673 0.000346986)
(-0.0216864 -5.56479e-05 0.000325117)
(-0.0200386 -4.5308e-05 0.000358158)
(-0.0215393 1.12841e-05 0.000309004)
(-0.0196649 -4.90739e-05 0.000341768)
(-0.0211535 -8.11797e-06 0.000237598)
(-0.0188825 -0.000142116 0.000292776)
(-0.0200303 -5.11869e-05 5.26776e-05)
(-0.0168209 -0.000608685 6.11154e-05)
(-0.0179043 0.000123634 -0.000180566)
(-0.0197303 0.000150783 -0.000292183)
(-0.0176658 0.000222257 -0.000572491)
(-0.0189803 0.000214486 -0.000617564)
(-0.0166865 0.000416981 -0.00170788)
(-0.0181968 -1.89796e-05 0.000105667)
(-0.0200218 -5.46062e-06 0.000124692)
(-0.0180334 2.24784e-05 8.98872e-05)
(-0.0198761 6.0563e-05 6.82792e-05)
(-0.0178237 7.54187e-05 -1.3854e-05)
(-0.0195606 0.000138883 -0.000116041)
(-0.0174368 0.000101197 -0.000254381)
(-0.0187244 0.000190362 -0.00044151)
(-0.0165292 -0.000303905 -0.000843281)
(-0.0194463 -0.000108686 0.000166486)
(-0.0210574 -6.68368e-05 0.000184859)
(-0.0193058 -4.50013e-05 0.000188022)
(-0.0209882 1.42645e-05 0.000185985)
(-0.0190916 -2.2768e-06 0.000128566)
(-0.0207787 0.000134193 8.84595e-05)
(-0.0185601 4.39326e-06 -3.54971e-05)
(-0.0200281 0.000270504 -6.2501e-05)
(-0.0168227 -0.000408089 -0.000588004)
(-0.0209055 -9.80704e-05 0.000242991)
(-0.0222154 -4.70885e-05 0.000247423)
(-0.0207742 6.55669e-06 0.000295548)
(-0.0220891 6.20546e-05 0.000278694)
(-0.0204282 0.0001034 0.000307272)
(-0.0217093 0.000158435 0.000235997)
(-0.0195778 0.000193355 0.000249375)
(-0.0206297 0.000196313 7.49365e-06)
(-0.0172277 7.79858e-05 -0.000214584)
(-0.0188174 0.000445676 -0.000536602)
(-0.0203576 0.00030488 -0.000602777)
(-0.0170236 0.000917021 -0.00158231)
(-0.0195016 1.0783e-05 5.53233e-05)
(-0.020945 3.1332e-05 0.0001012)
(-0.0191879 7.1257e-05 8.33245e-05)
(-0.020716 0.000107754 0.000102339)
(-0.0187537 0.000156826 1.32204e-05)
(-0.0202896 0.000202926 2.02539e-05)
(-0.0180605 0.000256746 -0.000179153)
(-0.019303 0.000259419 -0.000222827)
(-0.0164619 0.000389936 -0.000733592)
(-0.0206017 -0.000104159 0.000128621)
(-0.0219054 -7.51094e-05 0.000170173)
(-0.0203796 -4.13079e-05 0.000207247)
(-0.021703 1.13681e-05 0.000234957)
(-0.0199404 4.46173e-05 0.000231531)
(-0.0212607 0.000130076 0.000211355)
(-0.019086 0.00014633 0.000172614)
(-0.0201732 0.000282328 -1.17116e-05)
(-0.016996 0.000200644 -0.000140377)
(-0.02173 -8.05796e-05 0.000185621)
(-0.0228921 -3.88371e-05 0.000222799)
(-0.0215647 1.01372e-05 0.000268939)
(-0.0226727 5.80971e-05 0.00029363)
(-0.0211089 0.000119167 0.000323131)
(-0.0220966 0.000156767 0.000281425)
(-0.0201287 0.00026161 0.000316876)
(-0.020656 0.000245707 3.92688e-05)
(-0.018113 0.000546881 9.68088e-05)
)
;

boundaryField
{
    inlet
    {
        type            calculated;
        value           nonuniform 0();
    }
    outlet
    {
        type            calculated;
        value           nonuniform List<vector> 
16
(
(-0.00683073 -0.00138911 0.000321887)
(-0.0114399 -0.00832835 0.00328159)
(-0.00493669 -0.00527561 0.00265987)
(-0.00461992 -0.000165793 0.00505853)
(-0.00677628 0.00098842 -0.00226855)
(-0.0028034 2.66123e-05 1.10754e-05)
(-0.00672539 -0.00317287 -0.0018766)
(-0.00453146 -0.00295503 -0.0013238)
(-0.0095173 0.00110605 -0.0106703)
(-0.0099487 -0.00576668 -0.00205517)
(-0.00664089 -0.0054013 -0.00523765)
(-0.00597433 0.00185052 -0.00158732)
(-0.00749074 0.00633328 -0.00597063)
(-0.00368815 0.0019027 -0.00127123)
(-0.00544291 0.000160928 0.00190302)
(-0.0160059 0.00401978 0.00196296)
)
;
    }
    wall
    {
        type            calculated;
        value           nonuniform List<vector> 
66
(
(-2.80939e-09 -1.71191e-09 1.48082e-09)
(-3.87556e-09 -3.32761e-09 9.84456e-10)
(-1.98778e-09 -2.53885e-10 5.37671e-10)
(-3.90118e-09 -1.26504e-09 1.87754e-09)
(-4.03782e-09 -1.75376e-09 7.5426e-11)
(-2.55958e-09 -8.68302e-10 6.10461e-10)
(-3.62242e-09 -1.48728e-09 1.65897e-09)
(-4.70557e-09 -2.1973e-09 1.07252e-09)
(-4.29755e-09 -1.00607e-10 3.13018e-10)
(-2.94371e-09 -1.67832e-09 4.9093e-10)
(-5.24102e-09 -1.67228e-09 6.74043e-10)
(-5.7683e-09 -4.14123e-10 3.93071e-11)
(-2.53752e-09 -1.45419e-09 -5.16764e-10)
(-4.94935e-09 -1.38814e-09 -6.23193e-10)
(-6.33693e-09 1.80932e-09 -5.70498e-10)
(-2.59459e-09 -1.43483e-09 -7.67289e-10)
(-4.3056e-09 -1.1981e-09 -8.11693e-10)
(-4.29671e-09 -4.09964e-10 -1.62376e-09)
(7.80424e-10 6.83175e-10 -7.58566e-10)
(-1.05051e-09 -6.1898e-10 -4.66921e-10)
(-4.31114e-09 -1.39933e-09 -7.08265e-10)
(-4.28539e-09 -7.02166e-10 -2.10415e-10)
(2.38387e-09 -1.40106e-09 -1.755e-09)
(2.39117e-09 3.3509e-11 -1.76713e-09)
(-2.92337e-09 3.63928e-10 -1.70335e-09)
(-2.49246e-09 -6.52055e-10 -8.4123e-10)
(1.9917e-09 -3.36249e-10 7.50115e-10)
(1.05383e-09 6.3323e-10 -9.8112e-10)
(-4.50615e-10 3.12467e-09 -1.23815e-09)
(-2.27445e-09 -7.55002e-08 2.40776e-09)
(-9.8431e-09 -2.47976e-09 3.94928e-09)
(-9.25214e-09 -7.08044e-10 3.5191e-09)
(-5.36831e-09 -3.6575e-10 2.72809e-09)
(-1.98778e-09 -2.53885e-10 5.37671e-10)
(-9.35208e-09 -3.12902e-10 4.0036e-09)
(-9.58348e-09 4.72191e-10 2.60603e-09)
(-6.48481e-09 -9.91172e-10 1.99883e-09)
(-2.55958e-09 -8.68302e-10 6.10461e-10)
(-9.56487e-09 -1.04319e-09 4.89524e-09)
(-9.65262e-09 -1.96436e-09 1.32792e-09)
(-7.27531e-09 -8.76625e-10 1.03229e-09)
(-4.29755e-09 -1.00607e-10 3.13018e-10)
(-9.63368e-09 -5.53325e-10 2.26023e-09)
(-1.00963e-08 -2.80742e-10 1.60914e-09)
(-9.51947e-09 -8.57643e-10 7.21741e-10)
(-5.7683e-09 -4.14123e-10 3.93071e-11)
(-8.38205e-09 -1.07426e-09 1.17118e-09)
(-8.29216e-09 -1.63162e-10 2.52752e-10)
(-7.43821e-09 -7.96494e-10 -5.82035e-10)
(-6.33693e-09 1.80932e-09 -5.70498e-10)
(-7.09213e-09 -1.22421e-09 -1.44387e-09)
(-7.75614e-09 -1.94554e-09 -3.09067e-09)
(-9.12459e-09 -1.20305e-09 -3.47813e-09)
(-4.29671e-09 -4.09964e-10 -1.62376e-09)
(-3.5934e-09 -3.48871e-10 -3.12818e-09)
(-6.16925e-09 -1.23928e-09 -3.68215e-09)
(-7.41727e-09 -9.49907e-10 -2.60138e-09)
(-4.28539e-09 -7.02166e-10 -2.10415e-10)
(-4.53962e-10 2.52275e-10 -3.39192e-09)
(-3.60097e-09 -6.8972e-10 -2.32734e-09)
(-4.4013e-09 -6.8112e-10 -1.10646e-09)
(-2.49246e-09 -6.52055e-10 -8.4123e-10)
(4.14059e-09 1.36588e-09 -3.07472e-09)
(5.86527e-09 1.81453e-09 -2.00257e-09)
(-2.12869e-09 -3.32382e-10 -1.24689e-09)
(-2.27445e-09 -7.55002e-08 2.40776e-09)
)
;
    }
    procBoundary7to0
    {
        type            processor;
        value           uniform (-0.0195271 8.67366e-06 0.00028359);
    }
    procBoundary7to1
    {
        type            processor;
        value           uniform (-0.0179096 4.64783e-05 0.000222027);
    }
    procBoundary7to3
    {
        type            processor;
        value           nonuniform List<vector> 
36
(
(-0.018523 -7.9775e-06 0.000307944)
(-0.0204603 -1.8103e-05 0.000207411)
(-0.0184324 -3.92107e-05 0.000139697)
(-0.0203784 -4.62155e-05 -8.79722e-06)
(-0.0182543 -4.49383e-05 -4.23218e-05)
(-0.0200292 -3.20984e-05 -0.000261316)
(-0.0176941 -1.64588e-05 -0.000153695)
(-0.0189898 7.45428e-06 -0.000417536)
(-0.0167245 -3.25217e-05 0.000454576)
(-0.0189073 -6.53131e-05 0.000347398)
(-0.0208374 -5.38426e-05 0.000253948)
(-0.0187986 -6.72236e-05 0.000182084)
(-0.0208076 -8.20102e-05 3.59877e-05)
(-0.0186747 -0.000116475 1.2087e-05)
(-0.0205973 -0.000183232 -0.000219362)
(-0.0182261 -0.000285582 -3.61766e-05)
(-0.0196646 -0.000334316 -0.000297066)
(-0.0168714 -0.000962188 0.000579021)
(-0.0199288 -0.000121026 0.000412185)
(-0.0218317 -0.00010147 0.000340139)
(-0.0198955 -7.88741e-05 0.000288659)
(-0.0219173 -5.71465e-05 0.000178704)
(-0.0198794 -0.000136472 0.000197441)
(-0.0218426 -0.000155704 4.39245e-05)
(-0.019592 -0.000514626 0.000326454)
(-0.0209288 -0.000582801 0.000181112)
(-0.0179217 -0.00206482 0.0012654)
(-0.0217626 -0.00013979 0.000540937)
(-0.0232916 -0.000108388 0.000474518)
(-0.0218962 -7.02768e-05 0.000486469)
(-0.023505 -3.71808e-05 0.000383569)
(-0.0218583 -0.000148806 0.000497496)
(-0.0235652 -0.000162477 0.000345708)
(-0.02136 -0.000601347 0.00073917)
(-0.022989 -0.000717954 0.000631697)
(-0.018793 -0.00217879 0.00198383)
)
;
    }
    procBoundary7to5
    {
        type            processor;
        value           nonuniform List<vector> 
44
(
(-0.019764 -1.0326e-05 0.000160903)
(-0.0177902 -7.85776e-06 9.27965e-05)
(-0.0196536 -4.81293e-05 -9.42796e-06)
(-0.0176029 -1.90566e-06 -7.69881e-05)
(-0.0193297 8.3266e-06 -0.00025672)
(-0.0171756 0.000129162 -0.000243245)
(-0.0184293 0.000150045 -0.00047454)
(-0.0164977 0.000549633 -0.000159746)
(-0.0173819 2.16874e-05 0.000123381)
(-0.019285 1.84582e-05 8.19311e-05)
(-0.0176676 3.53095e-05 1.0816e-05)
(-0.0196429 2.04881e-05 -8.89374e-05)
(-0.0175427 5.22848e-05 -0.000164445)
(-0.0194386 8.34867e-05 -0.000338386)
(-0.0172245 0.000198385 -0.00045127)
(-0.0185961 0.000157163 -0.000603139)
(-0.0163737 0.000747599 -0.000999067)
(-0.0173819 2.16874e-05 0.000123381)
(-0.019285 1.84582e-05 8.19311e-05)
(-0.019285 1.84582e-05 8.19311e-05)
(-0.0179714 7.22884e-05 -8.88557e-06)
(-0.019893 8.45442e-05 -5.04084e-05)
(-0.0182948 0.000112544 -0.000211272)
(-0.0201125 8.62065e-05 -0.000327157)
(-0.0180724 0.000252203 -0.000599684)
(-0.0193217 0.000240088 -0.000750018)
(-0.0170035 0.000845004 -0.00179537)
(-0.0181159 5.98881e-05 3.87155e-05)
(-0.0199416 4.37957e-05 4.05207e-05)
(-0.0179714 7.22884e-05 -8.88557e-06)
(-0.019893 8.45442e-05 -5.04084e-05)
(-0.019893 8.45442e-05 -5.04084e-05)
(-0.0192038 0.000265573 -0.000164035)
(-0.0208877 0.000262869 -0.000205094)
(-0.0195365 0.000368027 -0.000734489)
(-0.0210585 0.000276752 -0.000683531)
(-0.0175041 0.000823066 -0.00190853)
(-0.0195594 0.000126502 -1.34716e-05)
(-0.0210179 0.000136704 -4.45231e-08)
(-0.0193985 0.000175122 -2.59109e-05)
(-0.0209808 0.000193958 -2.66591e-05)
(-0.0192038 0.000265573 -0.000164035)
(-0.0208877 0.000262869 -0.000205094)
(-0.0208877 0.000262869 -0.000205094)
)
;
    }
    procBoundary7to6
    {
        type            processor;
        value           nonuniform List<vector> 
12
(
(-0.019876 -8.41492e-05 0.000311074)
(-0.0208927 -0.000177147 0.00038615)
(-0.0221353 -0.000189887 0.000482375)
(-0.019612 -3.73105e-05 0.000214119)
(-0.0205283 -0.000131558 0.000261885)
(-0.0217205 -0.000177724 0.000333399)
(-0.0201657 -3.99318e-05 0.000110212)
(-0.0211151 -0.000167218 0.000134675)
(-0.0222128 -0.000168875 0.000194815)
(-0.0210971 -1.28128e-05 1.69936e-05)
(-0.0219764 -0.000146754 7.98968e-05)
(-0.0229006 -0.000144064 0.000136075)
)
;
    }
}


// ************************************************************************* //
