/*--------------------------------*- C++ -*----------------------------------*\
| =========                 |                                                 |
| \\      /  F ield         | OpenFOAM: The Open Source CFD Toolbox           |
|  \\    /   O peration     | Version:  4.x                                   |
|   \\  /    A nd           | Web:      www.OpenFOAM.org                      |
|    \\/     M anipulation  |                                                 |
\*---------------------------------------------------------------------------*/
FoamFile
{
    version     2.0;
    format      ascii;
    class       volVectorField;
    location    "11";
    object      DDtUrel;
}
// * * * * * * * * * * * * * * * * * * * * * * * * * * * * * * * * * * * * * //

dimensions      [0 1 -2 0 0 0 0];

internalField   nonuniform List<vector> 
114
(
(2.39483e-05 -9.92989e-05 -0.000123992)
(4.09237e-05 -0.00017307 -0.00022621)
(-0.000265332 -0.00043657 -0.000436395)
(-0.000323789 -0.000699893 -0.000665934)
(-0.00155532 -0.00155065 -0.00129676)
(-0.00291874 -0.00224508 -0.00174454)
(4.40066e-05 -2.8672e-05 -7.01624e-05)
(-3.9924e-05 -9.13893e-05 -0.000132965)
(-0.000109333 -0.000163756 -0.000208585)
(-0.000327571 -0.000364287 -0.000349894)
(-0.000596222 -0.000601245 -0.000517321)
(-0.00123622 -0.00125722 -0.000882523)
(-0.00190862 -0.00184323 -0.00122087)
(9.8826e-06 -1.42702e-05 -4.56116e-05)
(-2.0397e-05 -2.75347e-05 -9.28845e-05)
(-9.23296e-05 -6.25084e-05 -0.000134322)
(-0.000194749 -0.000109771 -0.000198132)
(-0.000368345 -0.00021119 -0.000294989)
(-0.000657257 -0.00034844 -0.000423517)
(-0.00102178 -0.000638845 -0.000646051)
(-0.00151458 -0.000971577 -0.00085407)
(0.000153974 1.24649e-05 5.52208e-05)
(0.000117699 -7.25982e-06 1.38447e-05)
(0.0001225 -2.64719e-05 -2.59753e-05)
(1.40159e-05 -0.000109023 -9.3947e-05)
(-4.27279e-05 -0.000192208 -0.00015582)
(-0.000326969 -0.000429559 -0.000265309)
(-0.000637219 -0.000719938 -0.000388197)
(-0.00144509 -0.00131461 -0.000582239)
(-0.00234202 -0.00195694 -0.000728894)
(9.1918e-05 2.26366e-06 4.9028e-06)
(6.17321e-05 -1.42507e-05 -2.1648e-05)
(3.57908e-05 -3.48788e-05 -5.91306e-05)
(-4.35606e-05 -9.47596e-05 -0.000101115)
(-0.000147883 -0.000175136 -0.000151192)
(-0.000357375 -0.00035843 -0.00023493)
(-0.000678163 -0.000606959 -0.000328258)
(-0.00118947 -0.00109383 -0.000469536)
(-0.00175216 -0.00156627 -0.00057154)
(4.7573e-05 -6.78638e-06 -1.97326e-05)
(1.81798e-05 -1.70373e-05 -4.20064e-05)
(-2.34324e-05 -3.20332e-05 -7.7334e-05)
(-9.2669e-05 -6.8394e-05 -0.000107479)
(-0.000209666 -0.000122535 -0.000152951)
(-0.000377071 -0.000226326 -0.000218045)
(-0.000663066 -0.000370395 -0.00030089)
(-0.000992781 -0.000645265 -0.000412738)
(-0.0014389 -0.00089433 -0.000488406)
(2.56602e-05 -9.78157e-06 -2.94298e-05)
(-2.33043e-06 -1.30072e-05 -5.08253e-05)
(0.000191447 7.92216e-06 2.16604e-05)
(0.000165492 -1.84316e-05 -2.41756e-06)
(0.000200422 -3.83003e-05 -3.23766e-05)
(9.96642e-05 -0.000137359 -5.87202e-05)
(0.000119233 -0.000225002 -9.85461e-05)
(-0.000185027 -0.000513897 -0.000107885)
(-0.000315688 -0.000813305 -0.000203238)
(-0.00155751 -0.00169381 -6.25586e-05)
(-0.00296672 -0.00246171 0.000147081)
(0.000121773 -4.60911e-06 -1.51274e-05)
(9.25349e-05 -2.38607e-05 -3.38169e-05)
(8.37803e-05 -4.60494e-05 -6.51008e-05)
(-6.24968e-06 -0.00011601 -8.34505e-05)
(-7.06287e-05 -0.000201227 -0.000113801)
(-0.000306989 -0.000423243 -0.000134528)
(-0.000590194 -0.000697527 -0.000172347)
(-0.00128337 -0.00140307 -0.0001156)
(-0.00201467 -0.00201755 2.42566e-05)
(7.77199e-05 -1.54163e-05 -3.27512e-05)
(3.92549e-05 -2.666e-05 -4.86162e-05)
(6.71629e-06 -3.91758e-05 -7.90273e-05)
(-8.16455e-05 -8.42735e-05 -9.4537e-05)
(-0.000176829 -0.000143765 -0.000128918)
(-0.000375083 -0.000271466 -0.000151752)
(-0.000655228 -0.000433475 -0.000203648)
(-0.00106694 -0.000796942 -0.000194527)
(-0.00158287 -0.00118685 -0.000131443)
(3.9707e-05 -1.45225e-05 -3.80408e-05)
(7.75667e-06 -1.90205e-05 -5.57282e-05)
(-5.07934e-05 -2.62527e-05 -8.53736e-05)
(-0.000124743 -4.07728e-05 -0.000103281)
(0.000227307 3.7334e-06 -4.63408e-06)
(0.000205817 -2.62955e-05 -3.28376e-05)
(0.000249502 -5.46675e-05 -5.60995e-05)
(0.000161498 -0.000162577 -7.72036e-05)
(0.000236377 -0.000261438 -9.53238e-05)
(-4.92027e-05 -0.000596167 -9.2867e-05)
(5.25418e-05 -0.000941086 -0.00013115)
(-0.00168943 -0.00215542 -6.45435e-05)
(-0.00368225 -0.00300552 -2.47678e-05)
(0.000170674 -1.09761e-05 -2.72997e-05)
(0.000134349 -3.61848e-05 -5.25335e-05)
(0.000126054 -6.07159e-05 -8.03933e-05)
(3.01567e-05 -0.000147871 -9.09828e-05)
(-1.78158e-05 -0.000235725 -0.000107928)
(-0.000263363 -0.000503742 -0.000107045)
(-0.000502871 -0.000799068 -0.000118663)
(-0.00139017 -0.00174804 -6.89301e-05)
(-0.00232111 -0.00256926 -9.40264e-06)
(0.000125689 -2.46392e-05 -3.71624e-05)
(7.44249e-05 -4.26087e-05 -5.88354e-05)
(3.79288e-05 -5.53888e-05 -8.50531e-05)
(-7.149e-05 -0.00011089 -9.61089e-05)
(-0.000164352 -0.000164231 -0.000119684)
(-0.000387716 -0.000315565 -0.00012892)
(-0.000655234 -0.000493911 -0.00015011)
(-0.00115413 -0.000932842 -0.000149488)
(-0.00174567 -0.00151526 -0.00011782)
(7.75075e-05 -2.28202e-05 -3.90485e-05)
(2.24221e-05 -2.9376e-05 -6.13109e-05)
(-4.31497e-05 -3.40974e-05 -9.51092e-05)
(-0.000142159 -5.50345e-05 -0.00010249)
(-0.000258331 -7.19091e-05 -0.000125722)
(-0.000424776 -0.000138314 -0.00015492)
)
;

boundaryField
{
    inlet
    {
        type            calculated;
        value           nonuniform 0();
    }
    outlet
    {
        type            calculated;
        value           nonuniform List<vector> 
12
(
(-0.0118864 -0.00685634 -0.00710295)
(-0.00262573 -0.00609788 -0.00327271)
(-0.00263112 -0.0024823 -0.000976627)
(-0.00337471 -0.00280621 -0.00125818)
(-0.00144439 -0.00172839 -0.000511611)
(-0.00177232 -0.000643982 -0.000168006)
(-0.0101705 -0.00619055 0.00441138)
(-0.00265554 -0.00488479 0.00250603)
(-0.00269415 -0.0023434 0.00125013)
(-0.0164997 -0.00876194 -0.000469225)
(-0.00387026 -0.00881022 0.000459513)
(-0.00340866 -0.00408061 0.000143979)
)
;
    }
    wall
    {
        type            calculated;
        value           nonuniform List<vector> 
66
(
(0.000680498 0.000140871 -2.74957e-07)
(0.000412497 4.3508e-05 -0.000115701)
(0.000418213 -5.17202e-05 -9.86474e-05)
(0.000230295 -4.92633e-05 -5.91115e-05)
(0.000337013 -2.54274e-05 -8.15498e-05)
(0.000136398 -8.66852e-05 -0.000142081)
(0.000110427 -0.00016829 -8.687e-05)
(3.40927e-05 -7.34478e-05 -4.08555e-05)
(0.00120482 0.000171593 -6.11326e-05)
(0.000431717 6.25876e-05 -0.000243074)
(0.000348508 -1.54645e-05 -0.000135977)
(-9.16937e-05 2.14614e-06 -0.000252767)
(0.000225177 -0.00031425 -0.000101106)
(-0.000105563 -0.000311841 -0.000119801)
(-0.000188987 -0.000257316 -5.65792e-05)
(-0.000327069 -8.74533e-05 -3.58741e-05)
(0.00254097 0.000312367 -0.000113701)
(0.000455773 0.000102733 -0.000150834)
(0.000137008 2.70989e-05 -0.000155595)
(-0.000407182 0.000119875 -2.0388e-05)
(-0.000231825 -0.0010979 0.000128304)
(-0.000425666 -0.000955335 4.10242e-05)
(-0.000550618 -0.000330207 -7.78002e-06)
(-0.000370701 -0.000206826 6.34269e-05)
(0.00885458 0.00104994 -0.000289131)
(0.00062862 0.000508342 -1.80215e-05)
(-0.000304617 0.000188303 1.09703e-05)
(-0.0021971 -0.00599697 2.91438e-05)
(-0.00138104 -0.00446745 0.000275825)
(-0.000898462 -0.000121688 -3.59011e-05)
(-0.0164997 -0.00876194 -0.000469225)
(-0.00387026 -0.00881022 0.000459513)
(-0.00340866 -0.00408061 0.000143979)
(0.000349138 0.000140061 0.000251658)
(0.000579579 0.000142385 0.000119068)
(0.000680498 0.000140871 -2.74957e-07)
(-4.40942e-06 2.47039e-05 9.25786e-05)
(0.000214674 -3.29543e-05 0.000156284)
(0.000337013 -2.54274e-05 -8.15498e-05)
(0.000477279 0.000209103 0.000170041)
(0.00108613 0.000256029 0.000109473)
(0.00120482 0.000171593 -6.11326e-05)
(-8.70357e-05 -0.00014951 -0.000246872)
(-0.000269454 -9.36149e-05 -0.000107407)
(0.000107202 -0.00024927 0.000225304)
(0.000225177 -0.00031425 -0.000101106)
(0.00185483 0.00043928 -0.000107678)
(0.000264335 0.000296704 2.43121e-05)
(0.00188705 0.000365309 1.50208e-05)
(0.00254097 0.000312367 -0.000113701)
(-0.00080001 -0.000753582 -0.00107702)
(-0.000773618 -0.000196171 -0.000273327)
(-0.000355286 -0.000763713 0.000688188)
(-0.000231825 -0.0010979 0.000128304)
(0.00504875 0.000932346 -0.000166472)
(-0.000843352 0.000145005 -5.77169e-05)
(0.00398251 0.000820511 -0.000717247)
(0.00885458 0.00104994 -0.000289131)
(-0.00253779 -0.00359952 -0.00456108)
(-0.0012577 4.7462e-05 -0.00048422)
(-0.00179627 -0.0026974 0.00147405)
(-0.0021971 -0.00599697 2.91438e-05)
(-0.0118864 -0.00685634 -0.00710295)
(-0.00337471 -0.00280621 -0.00125818)
(-0.0101705 -0.00619055 0.00441138)
(-0.0164997 -0.00876194 -0.000469225)
)
;
    }
    procBoundary5to1
    {
        type            processor;
        value           nonuniform List<vector> 
32
(
(-1.53224e-06 -9.09358e-05 -0.000106163)
(2.47175e-05 -0.000162431 -0.000238772)
(-0.000229461 -0.000412706 -0.000464628)
(-0.000251323 -0.000690046 -0.000830955)
(-0.00152426 -0.00157664 -0.00155347)
(-0.00302044 -0.00216407 -0.00200815)
(1.83703e-05 -2.87455e-05 -6.50822e-05)
(-5.66874e-05 -8.49546e-05 -0.000135093)
(-0.00011566 -0.00015494 -0.000231753)
(-0.000311343 -0.000347064 -0.000395199)
(-0.000564554 -0.000586412 -0.000636131)
(-0.00121867 -0.00128006 -0.00106581)
(-0.00192564 -0.0018206 -0.00140109)
(-1.30379e-05 -1.11946e-05 -3.85731e-05)
(-3.85042e-05 -2.19694e-05 -9.47476e-05)
(-0.000100167 -5.35316e-05 -0.00014406)
(-0.000198694 -0.000101429 -0.000225124)
(-0.000358641 -0.000189582 -0.000346708)
(-0.000645302 -0.000327568 -0.000531725)
(-0.00102729 -0.00058907 -0.000797423)
(-0.00150714 -0.000911691 -0.00102221)
(0.000169142 1.17862e-05 9.67003e-05)
(0.000122221 -1.05853e-07 3.82935e-05)
(0.00013529 -1.611e-05 -2.04043e-05)
(0.00013529 -1.611e-05 -2.04043e-05)
(0.00013529 -1.611e-05 -2.04043e-05)
(9.75544e-05 2.31044e-06 2.35296e-05)
(5.68862e-05 -1.11761e-05 -1.79106e-05)
(5.68862e-05 -1.11761e-05 -1.79106e-05)
(5.68862e-05 -1.11761e-05 -1.79106e-05)
(4.8043e-05 -3.69389e-06 -1.10031e-05)
(4.8043e-05 -3.69389e-06 -1.10031e-05)
)
;
    }
    procBoundary5to4
    {
        type            processor;
        value           nonuniform List<vector> 
12
(
(0.000138729 7.2284e-06 7.58722e-05)
(9.51172e-05 1.84478e-06 3.61148e-05)
(6.1437e-05 -3.83145e-06 1.33758e-05)
(4.53783e-05 -7.1294e-06 4.17823e-06)
(0.000165002 4.22575e-06 4.35121e-05)
(0.000119719 -3.3049e-06 1.51978e-05)
(8.71465e-05 -1.20503e-05 -3.11007e-07)
(6.35972e-05 -1.22056e-05 -7.15435e-06)
(0.000196475 1.34383e-06 1.87136e-05)
(0.000167726 -9.60559e-06 1.58165e-06)
(0.000135131 -2.1689e-05 -8.20425e-06)
(0.000103072 -2.11215e-05 -9.81629e-06)
)
;
    }
    procBoundary5to7
    {
        type            processor;
        value           nonuniform List<vector> 
44
(
(-6.2699e-06 -8.62826e-06 -5.94414e-05)
(-5.20511e-05 -1.42456e-05 -0.00010281)
(-0.00011169 -2.25628e-05 -0.000143679)
(-0.000232819 -3.45205e-05 -0.000205113)
(-0.000374496 -5.37155e-05 -0.000302357)
(-0.000667514 -7.87922e-05 -0.000434098)
(-0.000957779 -9.44218e-05 -0.000660765)
(-0.00136047 -9.57053e-05 -0.000864915)
(2.72618e-05 -6.13806e-06 -2.4816e-05)
(-6.2699e-06 -8.62826e-06 -5.94414e-05)
(-5.53374e-05 -1.89709e-05 -8.27471e-05)
(-0.000116581 -3.00047e-05 -0.000116253)
(-0.000240119 -4.58568e-05 -0.000165858)
(-0.000379572 -7.58248e-05 -0.000235068)
(-0.000645089 -0.000114856 -0.000326851)
(-0.000908141 -0.000163448 -0.000472113)
(-0.00126907 -0.000198037 -0.000581443)
(3.876e-05 -1.22956e-05 -2.66615e-05)
(-5.53374e-05 -1.89709e-05 -8.27471e-05)
(4.42712e-06 -8.95026e-06 -5.20603e-05)
(-5.53374e-05 -1.89709e-05 -8.27471e-05)
(-0.000116581 -3.00047e-05 -0.000116253)
(-0.000239423 -6.24891e-05 -0.000138625)
(-0.000396091 -0.000105387 -0.000182354)
(-0.000656521 -0.000160283 -0.00024398)
(-0.000942342 -0.000261462 -0.000304079)
(-0.00131514 -0.000355139 -0.000328204)
(4.52122e-05 -1.20862e-05 -3.85849e-05)
(2.81938e-06 -1.18646e-05 -5.70166e-05)
(-3.73493e-05 -1.51725e-05 -9.02076e-05)
(-0.000239423 -6.24891e-05 -0.000138625)
(-0.000120806 -1.53151e-06 -0.000116424)
(-0.000239423 -6.24891e-05 -0.000138625)
(-0.000396091 -0.000105387 -0.000182354)
(-0.0006769 -0.000196308 -0.000203687)
(-0.000990943 -0.000366848 -0.000254817)
(-0.00141604 -0.000567985 -0.000264555)
(4.83988e-05 -1.57106e-05 -4.27439e-05)
(-7.58507e-06 -1.40243e-05 -6.37459e-05)
(-6.54333e-05 -1.53455e-05 -9.12937e-05)
(-0.000151455 -7.09261e-06 -0.000113042)
(-0.000269372 7.5642e-07 -0.000146895)
(-0.0006769 -0.000196308 -0.000203687)
(-0.000417432 1.95115e-05 -0.000203885)
)
;
    }
}


// ************************************************************************* //
