/*--------------------------------*- C++ -*----------------------------------*\
| =========                 |                                                 |
| \\      /  F ield         | OpenFOAM: The Open Source CFD Toolbox           |
|  \\    /   O peration     | Version:  4.x                                   |
|   \\  /    A nd           | Web:      www.OpenFOAM.org                      |
|    \\/     M anipulation  |                                                 |
\*---------------------------------------------------------------------------*/
FoamFile
{
    version     2.0;
    format      ascii;
    class       volScalarField;
    location    "11";
    object      nu;
}
// * * * * * * * * * * * * * * * * * * * * * * * * * * * * * * * * * * * * * //

dimensions      [0 2 -1 0 0 0 0];

internalField   nonuniform List<scalar> 
114
(
1.00065e-06
1.00064e-06
1.00064e-06
1.00049e-06
1.00043e-06
9.99488e-07
1.00007e-06
9.99963e-07
9.99826e-07
9.99781e-07
9.99662e-07
9.99715e-07
9.99317e-07
1.00011e-06
9.99981e-07
9.99841e-07
9.99708e-07
9.99597e-07
9.99522e-07
9.99503e-07
9.99309e-07
1.00025e-06
1.00032e-06
1.00036e-06
1.0004e-06
1.00037e-06
1.00036e-06
1.00025e-06
1.00018e-06
9.99963e-07
1.0001e-06
9.9998e-07
9.99836e-07
9.99754e-07
9.99637e-07
9.99669e-07
9.99601e-07
9.99712e-07
9.99489e-07
1.00011e-06
9.99998e-07
9.99877e-07
9.99765e-07
9.99656e-07
9.99594e-07
9.99553e-07
9.99596e-07
9.99348e-07
1.00012e-06
1.00002e-06
1.00018e-06
1.00021e-06
1.00023e-06
1.00025e-06
1.00024e-06
1.00023e-06
1.00017e-06
1.00015e-06
9.98899e-07
1.00011e-06
1.00004e-06
9.99947e-07
9.99888e-07
9.9983e-07
9.99854e-07
9.99807e-07
9.99877e-07
9.99456e-07
1.00013e-06
1.00007e-06
9.99992e-07
9.99923e-07
9.99842e-07
9.99804e-07
9.9972e-07
9.99736e-07
9.9939e-07
1.00015e-06
1.00007e-06
9.9996e-07
9.99866e-07
1.00017e-06
1.0002e-06
1.00023e-06
1.00024e-06
1.00025e-06
1.00025e-06
1.00023e-06
1.00023e-06
9.90541e-07
1.00018e-06
1.00019e-06
1.00021e-06
1.00021e-06
1.00021e-06
1.0002e-06
1.00018e-06
1.00016e-06
9.99566e-07
1.00018e-06
1.0002e-06
1.00022e-06
1.00023e-06
1.00022e-06
1.00021e-06
1.00017e-06
1.00014e-06
9.99356e-07
1.00019e-06
1.00021e-06
1.00021e-06
1.00021e-06
1.00019e-06
1.00016e-06
)
;

boundaryField
{
    inlet
    {
        type            calculated;
        value           nonuniform 0();
    }
    outlet
    {
        type            calculated;
        value           uniform 1e-06;
    }
    wall
    {
        type            calculated;
        value           nonuniform List<scalar> 
66
(
1.00017e-06
1.00018e-06
1.00018e-06
1.00019e-06
1.0002e-06
1.00019e-06
1.0002e-06
1.00021e-06
1.00023e-06
1.00021e-06
1.00022e-06
1.00021e-06
1.00024e-06
1.00021e-06
1.00023e-06
1.00021e-06
1.00025e-06
1.00021e-06
1.00022e-06
1.00019e-06
1.00025e-06
1.0002e-06
1.00021e-06
1.00016e-06
1.00023e-06
1.00018e-06
1.00017e-06
1.00023e-06
1.00016e-06
1.00014e-06
9.90541e-07
9.99566e-07
9.99356e-07
1.00025e-06
1.00018e-06
1.00017e-06
1.00032e-06
1.00021e-06
1.0002e-06
1.00036e-06
1.00023e-06
1.00023e-06
1.00065e-06
1.0004e-06
1.00025e-06
1.00024e-06
1.00064e-06
1.00037e-06
1.00024e-06
1.00025e-06
1.00064e-06
1.00036e-06
1.00023e-06
1.00025e-06
1.00049e-06
1.00025e-06
1.00017e-06
1.00023e-06
1.00043e-06
1.00018e-06
1.00015e-06
1.00023e-06
9.99488e-07
9.99963e-07
9.98899e-07
9.90541e-07
)
;
    }
    procBoundary5to1
    {
        type            processor;
        value           nonuniform List<scalar> 
32
(
1.00092e-06
1.0009e-06
1.00087e-06
1.00067e-06
1.00058e-06
9.98256e-07
1.0002e-06
1.00001e-06
9.99829e-07
9.99743e-07
9.99606e-07
9.99645e-07
9.9906e-07
1.00019e-06
9.99997e-07
9.99805e-07
9.99631e-07
9.99504e-07
9.99421e-07
9.99412e-07
9.9925e-07
1.00038e-06
1.00049e-06
1.00058e-06
1.00058e-06
1.00058e-06
1.00026e-06
1.00019e-06
1.00019e-06
1.00019e-06
1.00021e-06
1.00021e-06
)
;
    }
    procBoundary5to4
    {
        type            processor;
        value           nonuniform List<scalar> 
12
(
1.0002e-06
1.00017e-06
1.00018e-06
1.00019e-06
1.00014e-06
1.00015e-06
1.00016e-06
1.00018e-06
1.00014e-06
1.00015e-06
1.00016e-06
1.00017e-06
)
;
    }
    procBoundary5to7
    {
        type            processor;
        value           nonuniform List<scalar> 
44
(
1.00019e-06
1.00008e-06
9.99953e-07
9.99826e-07
9.9971e-07
9.99655e-07
9.99648e-07
9.99682e-07
1.00028e-06
1.00019e-06
9.99902e-07
9.99778e-07
9.99664e-07
9.99631e-07
9.99704e-07
9.99781e-07
9.99766e-07
1.00007e-06
9.99902e-07
9.99968e-07
9.99902e-07
9.99778e-07
9.99757e-07
9.99693e-07
9.99612e-07
9.99627e-07
9.99283e-07
1.00012e-06
1.00007e-06
9.99996e-07
9.99757e-07
9.9993e-07
9.99757e-07
9.99693e-07
1.0001e-06
1.00006e-06
9.98476e-07
1.0002e-06
1.00022e-06
1.00022e-06
1.00019e-06
1.00011e-06
1.0001e-06
1.00003e-06
)
;
    }
}


// ************************************************************************* //
