/*--------------------------------*- C++ -*----------------------------------*\
| =========                 |                                                 |
| \\      /  F ield         | OpenFOAM: The Open Source CFD Toolbox           |
|  \\    /   O peration     | Version:  4.x                                   |
|   \\  /    A nd           | Web:      www.OpenFOAM.org                      |
|    \\/     M anipulation  |                                                 |
\*---------------------------------------------------------------------------*/
FoamFile
{
    version     2.0;
    format      ascii;
    class       surfaceScalarField;
    location    "11";
    object      phi;
}
// * * * * * * * * * * * * * * * * * * * * * * * * * * * * * * * * * * * * * //

dimensions      [0 3 -1 0 0 0 0];

internalField   nonuniform List<scalar> 
259
(
1.10682e-05
2.25562e-07
1.32048e-06
1.19336e-05
-3.05322e-07
6.7096e-07
1.18045e-05
6.45462e-07
1.43163e-06
1.37778e-05
-1.36237e-06
-2.65627e-08
1.26229e-05
1.52101e-06
1.12662e-06
-6.74186e-06
-3.28657e-06
7.23238e-06
-1.42199e-07
-8.91585e-08
7.52743e-06
6.36489e-08
-2.17981e-07
7.53421e-06
-3.5637e-07
-3.0229e-07
7.82369e-06
2.80024e-07
-2.91476e-07
7.37827e-06
-1.019e-06
-6.86471e-07
7.58874e-06
1.03234e-06
-7.66734e-08
-4.38019e-06
-2.03779e-06
6.38462e-06
5.81378e-08
6.34855e-06
-1.07237e-07
6.38872e-06
-3.23254e-07
6.20919e-06
-2.149e-07
6.26054e-06
-4.56034e-07
5.54302e-06
-3.37474e-07
5.98282e-06
-1.631e-07
-9.07129e-07
8.76875e-06
-9.27522e-08
2.25726e-07
8.92103e-06
3.71372e-08
6.39047e-07
9.0923e-06
-6.72474e-08
5.25359e-07
9.09266e-06
3.56547e-07
9.63572e-07
9.10461e-06
-1.49195e-07
8.08199e-07
8.60736e-06
8.45524e-07
1.08336e-06
7.73422e-06
-4.38666e-07
1.28524e-06
6.75786e-06
1.60521e-06
4.97772e-07
-8.61235e-07
2.1323e-06
5.15981e-06
-2.31827e-08
3.32571e-08
5.12211e-06
5.86817e-08
5.52272e-08
4.96587e-06
-4.31717e-09
4.15331e-09
5.10997e-06
2.10659e-07
-2.16192e-07
4.6589e-06
-1.12847e-08
1.08726e-08
5.01403e-06
4.57668e-07
-2.5875e-07
3.92402e-06
-1.76289e-07
1.41165e-07
4.57549e-06
1.20027e-06
-3.23211e-07
-9.09772e-07
6.68933e-07
4.84425e-06
-6.25748e-09
9.759e-08
4.88805e-06
3.23505e-08
4.0666e-08
4.68937e-06
8.71322e-08
4.754e-06
-2.58225e-07
4.42421e-06
1.03608e-07
4.68017e-06
-4.53815e-07
4.00911e-06
2.17929e-07
5.4224e-06
-8.8593e-07
1.60149e-07
4.54064e-06
6.11419e-08
4.92239e-09
9.5721e-06
-1.42616e-07
1.51674e-07
9.86057e-06
-4.10953e-08
3.91676e-07
1.0311e-05
-1.99458e-07
2.74375e-07
1.0557e-05
2.35498e-07
4.82113e-07
1.13339e-05
-4.62981e-07
4.94287e-07
1.12494e-05
6.82137e-07
4.8569e-07
1.27139e-05
-1.40573e-06
1.2265e-06
1.15928e-05
1.63998e-06
-2.11234e-08
-6.00091e-06
2.50749e-06
6.34171e-06
-1.40771e-07
7.54388e-08
6.2882e-06
-1.00986e-07
1.68621e-07
6.35403e-06
-2.16e-07
-4.51365e-08
6.46734e-06
9.73362e-08
-1.9134e-07
6.50547e-06
-3.7377e-07
-1.16468e-07
7.00635e-06
3.33546e-07
-4.11034e-07
6.67042e-06
-1.04019e-06
1.11555e-07
7.46744e-06
1.17079e-06
-6.51048e-07
-4.11565e-06
1.15841e-06
6.33954e-06
-1.20997e-07
1.09199e-07
6.25523e-06
-1.00283e-07
1.24269e-07
6.23507e-06
-1.52072e-07
4.33652e-08
6.20916e-06
1.05098e-08
-1.45492e-07
6.14137e-06
1.75724e-08
6.39435e-06
-4.4809e-07
5.87518e-06
1.73289e-07
6.38312e-06
-8.40871e-07
4.58444e-07
5.03881e-06
1.79457e-07
4.70598e-06
1.96023e-07
4.40295e-06
9.44718e-08
-1.94171e-07
1.06189e-05
-1.52687e-07
1.10028e-05
7.83212e-09
1.15099e-05
-2.32743e-07
1.18228e-05
1.69194e-07
1.29779e-05
-6.60823e-07
1.30768e-05
3.86763e-07
1.63814e-05
-2.07804e-06
1.53144e-05
1.04588e-06
-9.12338e-06
9.77777e-06
-2.52092e-07
1.00987e-05
-1.44457e-07
1.02705e-05
-4.49702e-07
1.03523e-05
-1.03955e-07
1.04692e-05
-8.94213e-07
1.04463e-05
-1.34508e-09
1.04642e-05
-1.98433e-06
1.01172e-05
7.41799e-07
-5.97399e-06
9.23095e-06
-2.85247e-07
9.46037e-06
-2.49605e-07
9.54092e-06
-4.86884e-07
9.55272e-06
-2.61249e-07
9.474e-06
-7.97918e-07
9.10036e-06
-7.57999e-08
8.6643e-06
7.86787e-06
8.68619e-06
8.79466e-06
8.55293e-06
8.30934e-06
7.80685e-06
)
;

boundaryField
{
    inlet
    {
        type            calculated;
        value           nonuniform 0();
    }
    outlet
    {
        type            calculated;
        value           nonuniform List<scalar> 
12
(
1.84977e-05
4.67849e-06
2.44576e-06
2.20023e-06
1.91731e-06
3.78679e-06
1.72185e-05
5.09271e-06
3.10702e-06
2.69453e-05
8.1262e-06
4.42676e-06
)
;
    }
    wall
    {
        type            calculated;
        value           nonuniform List<scalar> 
66
(
0
0
0
0
0
0
9.86076e-32
0
0
0
0
0
0
0
0
0
0
0
0
-1.97215e-31
0
0
0
0
0
0
0
0
0
0
0
0
0
0
0
0
0
0
0
0
0
0
0
0
0
0
0
0
0
0
0
0
1.2326e-32
0
0
0
0
0
0
0
0
-4.93038e-32
0
0
0
0
)
;
    }
    procBoundary5to1
    {
        type            processor;
        value           nonuniform List<scalar> 
32
(
-1.78489e-06
-1.23109e-06
-1.94794e-06
-5.84407e-07
-1.49276e-06
4.15366e-06
2.89693e-08
8.48468e-08
3.46562e-07
3.67426e-07
7.8853e-07
3.54863e-07
2.58637e-06
-1.71692e-07
1.04715e-07
3.17067e-07
2.11396e-07
5.471e-07
2.93681e-07
3.57267e-07
6.02071e-07
-2.6434e-07
-8.28465e-07
-1.08293e-05
4.94875e-08
-6.29375e-07
-1.85276e-08
-7.07948e-06
4.95075e-08
-3.90777e-08
-6.32474e-06
8.76067e-09
)
;
    }
    procBoundary5to4
    {
        type            processor;
        value           nonuniform List<scalar> 
12
(
-8.63739e-06
-5.24411e-06
-4.96753e-06
-4.66724e-06
-9.35543e-06
-6.38573e-06
-6.37092e-06
-5.30389e-06
-1.03146e-05
-9.60293e-06
-9.0886e-06
-8.69787e-06
)
;
    }
    procBoundary5to7
    {
        type            processor;
        value           nonuniform List<scalar> 
44
(
4.16945e-09
-1.03615e-07
2.96679e-08
-1.7333e-07
1.37602e-07
-2.57678e-07
3.98372e-07
-5.38069e-07
5.07887e-08
3.95896e-09
-3.6044e-12
8.10025e-08
-7.86509e-13
1.9948e-07
-6.06303e-08
5.09812e-07
-3.41433e-07
8.40616e-09
4.59434e-06
-3.02306e-08
-7.92402e-12
2.07027e-07
-2.1994e-07
7.4836e-08
-4.7638e-07
6.17804e-07
-1.13786e-06
2.57662e-08
4.14408e-08
5.64964e-08
4.46611e-06
-6.54988e-08
-7.20692e-08
3.07607e-07
-1.37497e-06
6.97359e-07
-2.07444e-06
-9.41077e-08
-1.62053e-07
-1.50683e-07
-2.11827e-07
-2.2336e-07
7.5491e-06
-1.25661e-07
)
;
    }
}


// ************************************************************************* //
