/*--------------------------------*- C++ -*----------------------------------*\
| =========                 |                                                 |
| \\      /  F ield         | OpenFOAM: The Open Source CFD Toolbox           |
|  \\    /   O peration     | Version:  4.x                                   |
|   \\  /    A nd           | Web:      www.OpenFOAM.org                      |
|    \\/     M anipulation  |                                                 |
\*---------------------------------------------------------------------------*/
FoamFile
{
    version     2.0;
    format      ascii;
    class       volScalarField;
    location    "11";
    object      QPartFluidCoeff;
}
// * * * * * * * * * * * * * * * * * * * * * * * * * * * * * * * * * * * * * //

dimensions      [1 -1 -3 -1 0 0 0];

internalField   nonuniform List<scalar> 
114
(
-2.83154e+07
-2.80106e+07
-2.74485e+07
-2.3563e+07
-3.30196e+07
-2.54221e+07
-2.59395e+07
-2.45957e+07
-2.19159e+07
-2.93393e+07
-3.16106e+07
-3.67939e+07
-2.49198e+07
-3.38895e+07
-2.14163e+07
-2.96384e+07
-2.0911e+07
-1.81808e+07
-2.44095e+07
-2.20294e+07
-2.22093e+07
-2.1827e+07
-1.91432e+07
-2.58764e+07
-2.13004e+07
-2.28424e+07
-2.77422e+07
-2.52693e+07
-2.20158e+07
-1.58082e+07
-2.70031e+07
-2.73015e+07
-3.08987e+07
-2.98629e+07
-3.01903e+07
-3.3787e+07
-1.7878e+07
-3.49069e+07
-2.03076e+07
-2.82928e+07
-1.81177e+07
-2.43803e+07
-2.99407e+07
-2.04462e+07
-2.71973e+07
-2.37936e+07
-2.58848e+07
-1.47037e+07
-3.41366e+07
-1.68421e+07
-2.47129e+07
-3.19688e+07
-2.55934e+07
-2.9246e+07
-2.69239e+07
-2.85086e+07
-2.4685e+07
-3.22251e+07
-2.08653e+07
-2.00866e+07
-3.59543e+07
-2.39932e+07
-3.04108e+07
-2.80374e+07
-3.06697e+07
-3.68819e+07
-2.92064e+07
-1.82113e+07
-2.998e+07
-2.57206e+07
-2.68591e+07
-2.41805e+07
-3.8201e+07
-3.07462e+07
-2.96054e+07
-3.54897e+07
-2.60958e+07
-1.26382e+07
-3.80199e+07
-3.10983e+07
-3.17561e+07
-8.24153e+06
-2.26633e+07
-1.5054e+07
-2.57506e+07
-2.04502e+07
-1.97736e+07
-2.47907e+07
-2.82296e+07
-1.96394e+07
-2.21299e+07
-2.84759e+07
-1.65679e+07
-2.31357e+07
-2.79989e+07
-2.56897e+07
-1.90746e+07
-2.98407e+07
-2.12568e+07
-2.13956e+07
-2.39794e+07
-2.94364e+07
-2.59488e+07
-2.1433e+07
-3.11949e+07
-2.32302e+07
-2.57808e+07
-2.13003e+07
-2.36729e+07
-2.08422e+07
-2.52179e+07
-2.21908e+07
-3.43917e+07
-2.69975e+07
)
;

boundaryField
{
    inlet
    {
        type            calculated;
        value           nonuniform 0();
    }
    outlet
    {
        type            calculated;
        value           uniform 0;
    }
    wall
    {
        type            calculated;
        value           uniform 0;
    }
    procBoundary5to1
    {
        type            processor;
        value           nonuniform List<scalar> 
32
(
738.957
502.648
777.487
641.76
638.061
286.607
482.156
603.156
628.439
690.774
596.919
702.96
324.211
585.487
407.072
834.187
661.111
794.465
544.543
698.202
224.63
508.808
434.434
637.061
637.061
637.061
609.424
939.448
939.448
939.448
458.982
458.982
)
;
    }
    procBoundary5to4
    {
        type            processor;
        value           nonuniform List<scalar> 
12
(
716.012
827.787
500.345
527.078
717.175
780.948
645.492
606.179
608.323
641.445
530.749
529.845
)
;
    }
    procBoundary5to7
    {
        type            processor;
        value           nonuniform List<scalar> 
44
(
698.689
509.619
605.359
855.533
932.809
619.113
474.42
468.752
789.719
698.689
493.304
638.116
519.468
595.621
646.879
707.173
448.625
291.437
493.304
757.201
493.304
638.116
356.571
512.829
570.046
517.681
308.6
657.468
684.217
539.733
356.571
488.011
356.571
512.829
428.75
539.096
358.632
550.333
520.796
561.237
636.223
371.008
428.75
351.677
)
;
    }
}


// ************************************************************************* //
