/*--------------------------------*- C++ -*----------------------------------*\
| =========                 |                                                 |
| \\      /  F ield         | OpenFOAM: The Open Source CFD Toolbox           |
|  \\    /   O peration     | Version:  4.x                                   |
|   \\  /    A nd           | Web:      www.OpenFOAM.org                      |
|    \\/     M anipulation  |                                                 |
\*---------------------------------------------------------------------------*/
FoamFile
{
    version     2.0;
    format      ascii;
    class       volScalarField;
    location    "11";
    object      QWallFluidCoeff;
}
// * * * * * * * * * * * * * * * * * * * * * * * * * * * * * * * * * * * * * //

dimensions      [1 -1 -3 -1 0 0 0];

internalField   nonuniform List<scalar> 
114
(
-3.2786e+06
-1.93931e+06
-3.64507e+06
-1.82925e+06
-4.39017e+06
-2.36216e+06
0
0
0
0
0
0
0
0
0
0
0
0
0
0
0
-1.51339e+06
-2.83151e+06
-1.53267e+06
-2.94856e+06
-1.47564e+06
-3.01586e+06
-1.1847e+06
-2.76939e+06
-657092
0
0
0
0
0
0
0
0
0
0
0
0
0
0
0
0
0
0
0
0
-1.71347e+06
-2.95779e+06
-1.79125e+06
-3.172e+06
-1.85326e+06
-3.50941e+06
-1.85484e+06
-4.09045e+06
-2.15916e+06
0
0
0
0
0
0
0
0
0
0
0
0
0
0
0
0
0
0
0
0
0
0
-3.98202e+06
-6.18533e+06
-4.19963e+06
-6.64523e+06
-4.34596e+06
-7.5718e+06
-4.36591e+06
-9.92422e+06
-5.12761e+06
-1.82375e+06
-2.9324e+06
-1.91066e+06
-3.04136e+06
-1.89717e+06
-3.13828e+06
-1.89283e+06
-3.21376e+06
-2.72787e+06
-1.6756e+06
-2.86127e+06
-1.72938e+06
-2.93672e+06
-1.69069e+06
-2.9616e+06
-1.5039e+06
-2.86504e+06
-1.16862e+06
-1.59091e+06
-2.73174e+06
-1.59134e+06
-2.68491e+06
-1.43313e+06
-2.54512e+06
)
;

boundaryField
{
    inlet
    {
        type            calculated;
        value           nonuniform 0();
    }
    outlet
    {
        type            calculated;
        value           uniform 0;
    }
    wall
    {
        type            calculated;
        value           uniform 0;
    }
    procBoundary5to1
    {
        type            processor;
        value           uniform 0;
    }
    procBoundary5to4
    {
        type            processor;
        value           uniform 0;
    }
    procBoundary5to7
    {
        type            processor;
        value           uniform 0;
    }
}


// ************************************************************************* //
