/*--------------------------------*- C++ -*----------------------------------*\
| =========                 |                                                 |
| \\      /  F ield         | OpenFOAM: The Open Source CFD Toolbox           |
|  \\    /   O peration     | Version:  4.x                                   |
|   \\  /    A nd           | Web:      www.OpenFOAM.org                      |
|    \\/     M anipulation  |                                                 |
\*---------------------------------------------------------------------------*/
FoamFile
{
    version     2.0;
    format      ascii;
    class       volVectorField;
    location    "11";
    object      UsNext;
}
// * * * * * * * * * * * * * * * * * * * * * * * * * * * * * * * * * * * * * //

dimensions      [0 1 -1 0 0 0 0];

internalField   nonuniform List<vector> 
114
(
(-2.09732e-08 1.14488e-09 1.08937e-08)
(-1.49736e-08 1.10724e-09 6.15574e-09)
(-1.27174e-08 -9.55921e-10 6.71812e-09)
(-6.24103e-09 -1.21167e-09 6.09391e-09)
(-5.67381e-09 -9.00766e-10 6.69853e-09)
(-2.24238e-08 1.00018e-08 -1.41682e-09)
(-2.66192e-08 2.01636e-09 3.01224e-08)
(-2.29027e-08 1.25861e-09 2.35783e-08)
(-1.75145e-08 -2.22649e-09 1.55256e-08)
(-1.21971e-08 -8.80663e-10 8.81756e-09)
(-8.99503e-09 -2.94637e-09 9.35711e-09)
(-5.45647e-09 -7.23875e-10 1.04431e-08)
(-3.90075e-09 4.56068e-09 7.67157e-09)
(-3.12844e-08 -4.38799e-09 3.24029e-08)
(-2.47067e-08 -2.33286e-10 3.35867e-08)
(-1.59459e-08 1.22303e-09 2.8897e-08)
(-1.43521e-08 -3.23566e-10 1.7264e-08)
(-1.13016e-08 -2.90031e-10 1.03502e-08)
(-7.48413e-09 -1.35411e-09 7.22727e-09)
(-3.61931e-09 3.23236e-10 9.7081e-09)
(-2.7093e-10 2.9041e-09 7.47777e-09)
(-2.80887e-08 1.40311e-09 1.45821e-09)
(-2.84296e-08 -4.23828e-09 3.69875e-09)
(-2.83055e-08 -4.86878e-09 8.40318e-09)
(-2.50516e-08 -1.29608e-09 6.02285e-09)
(-1.82213e-08 -1.34947e-09 1.89496e-09)
(-1.00923e-08 -1.11816e-09 4.91074e-09)
(-6.38099e-09 -1.91523e-10 4.29674e-09)
(-4.50833e-09 9.19636e-11 4.68788e-09)
(-1.93711e-09 2.00433e-09 4.30732e-09)
(-4.33944e-08 -1.04094e-08 4.56316e-09)
(-4.55175e-08 -1.90198e-08 1.08856e-08)
(-3.02293e-08 -8.27379e-09 1.96908e-08)
(-2.82563e-08 -2.99188e-09 1.54413e-08)
(-1.95348e-08 -5.77479e-09 1.08273e-08)
(-1.19648e-08 -3.33013e-09 7.29297e-09)
(-1.0284e-08 -3.87575e-10 6.94419e-09)
(-6.90084e-09 2.60069e-09 5.14533e-09)
(-4.03728e-09 2.35575e-09 3.58616e-09)
(-4.49806e-08 -8.41141e-09 9.70341e-09)
(-3.62551e-08 -6.97497e-09 2.20964e-08)
(-2.89378e-08 -8.36803e-09 2.69067e-08)
(-2.00466e-08 -1.77908e-09 2.21608e-08)
(-1.39066e-08 -2.61177e-09 1.2217e-08)
(-9.63496e-09 -2.52133e-09 8.22505e-09)
(-5.53551e-09 -5.16752e-11 4.80664e-09)
(-1.44832e-09 1.26021e-09 1.25757e-09)
(2.86758e-10 4.41306e-10 -2.4063e-10)
(-4.5207e-08 -5.94652e-09 1.51263e-08)
(-4.16799e-08 -4.48654e-09 2.48011e-08)
(-2.73953e-08 9.24704e-10 3.60799e-09)
(-2.9117e-08 -3.11315e-09 3.42669e-09)
(-2.88737e-08 -6.01529e-09 7.17061e-09)
(-2.98048e-08 -9.25325e-09 1.12511e-08)
(-2.18601e-08 -3.31425e-09 2.10516e-09)
(-1.15446e-08 -7.26657e-10 3.65537e-09)
(-4.00528e-09 -9.05259e-10 3.59803e-09)
(-1.4863e-09 -1.78364e-09 4.44934e-09)
(-2.74288e-09 1.4636e-09 1.07264e-08)
(-3.64612e-08 -9.55704e-10 5.16429e-10)
(-3.55815e-08 -6.41214e-09 4.81894e-09)
(-3.17008e-08 -1.00407e-08 1.57273e-08)
(-7.51728e-08 -2.79087e-08 1.26522e-08)
(-1.77442e-08 -5.4498e-09 6.95575e-09)
(-9.326e-09 -4.09384e-09 6.92643e-09)
(-3.50372e-09 -2.7184e-09 4.80064e-09)
(-2.37939e-09 -3.25223e-09 3.77365e-09)
(1.35064e-09 -3.31631e-09 6.51881e-10)
(-4.29666e-08 -5.83344e-09 4.62208e-09)
(-4.27486e-08 -9.77867e-09 9.65707e-09)
(-2.85046e-08 -1.06728e-08 1.9241e-08)
(-2.0751e-08 -7.65258e-09 1.64882e-08)
(-1.13444e-08 -4.41037e-09 8.84172e-09)
(-7.86239e-09 -4.16183e-09 5.17774e-09)
(-1.25596e-09 -2.37458e-09 1.86493e-09)
(3.5634e-10 -1.37331e-09 -1.49673e-09)
(3.31911e-10 -2.38791e-09 -4.07728e-09)
(-4.23306e-08 -2.93338e-09 3.53026e-09)
(-3.86555e-08 -4.68876e-09 1.06541e-08)
(-3.0526e-08 -6.12798e-09 1.31211e-08)
(-1.95911e-08 -5.17506e-09 1.3673e-08)
(-1.38242e-08 3.0341e-09 2.51786e-09)
(-2.10129e-08 -8.8989e-10 1.99099e-09)
(-1.37917e-08 2.32681e-09 1.84035e-09)
(-1.81131e-08 -7.39118e-09 6.94106e-09)
(-1.56916e-08 -1.7302e-09 9.46447e-10)
(-5.68667e-09 -5.86828e-10 2.64878e-09)
(-1.33875e-09 -1.08741e-09 1.71151e-09)
(6.88588e-10 -4.4456e-09 4.595e-09)
(-1.73278e-09 -1.11493e-08 1.00655e-08)
(-2.99347e-08 3.85222e-09 1.87057e-09)
(-3.20144e-08 -2.34738e-09 6.81798e-10)
(-6.75182e-08 7.80735e-09 1.87899e-08)
(-1.24554e-07 -3.76955e-08 6.86706e-09)
(-1.71608e-08 -5.39422e-09 4.01983e-09)
(-4.72288e-09 -1.70718e-09 3.236e-09)
(-1.731e-09 -2.80485e-09 3.79727e-09)
(8.21233e-10 -7.70269e-09 1.04717e-09)
(1.38106e-09 -1.79481e-08 -2.78978e-09)
(-3.23195e-08 -1.36675e-10 8.76243e-10)
(-2.96353e-08 -5.49527e-09 4.44054e-09)
(-2.09261e-08 -1.8988e-09 5.98935e-09)
(-3.42188e-08 -4.95611e-09 7.92752e-09)
(-9.1543e-09 -5.32242e-09 3.72049e-09)
(-4.79187e-09 -2.72357e-09 2.53254e-09)
(-1.89998e-09 -2.33261e-09 8.28899e-11)
(-3.48102e-10 -2.82937e-09 -1.96819e-09)
(1.91779e-09 -5.35392e-09 -4.42949e-09)
(-2.79264e-08 -5.07278e-09 2.76473e-09)
(-2.41557e-08 -7.54402e-09 3.38808e-09)
(-3.15613e-08 -7.08471e-09 3.23834e-09)
(-1.31423e-08 -1.39008e-09 6.22963e-09)
(-7.58847e-09 -2.81895e-09 3.78334e-09)
(-5.59862e-09 -2.99007e-09 -1.53598e-10)
)
;

boundaryField
{
    inlet
    {
        type            calculated;
        value           nonuniform 0();
    }
    outlet
    {
        type            calculated;
        value           nonuniform List<vector> 
12
(
(-2.24238e-08 1.00018e-08 -1.41682e-09)
(-3.90075e-09 4.56068e-09 7.67157e-09)
(-2.7093e-10 2.9041e-09 7.47777e-09)
(-1.93711e-09 2.00433e-09 4.30732e-09)
(-4.03728e-09 2.35575e-09 3.58616e-09)
(2.86758e-10 4.41306e-10 -2.4063e-10)
(-2.74288e-09 1.4636e-09 1.07264e-08)
(1.35064e-09 -3.31631e-09 6.51881e-10)
(3.31911e-10 -2.38791e-09 -4.07728e-09)
(-1.73278e-09 -1.11493e-08 1.00655e-08)
(1.38106e-09 -1.79481e-08 -2.78978e-09)
(1.91779e-09 -5.35392e-09 -4.42949e-09)
)
;
    }
    wall
    {
        type            calculated;
        value           nonuniform List<vector> 
66
(
(-1.38242e-08 3.0341e-09 2.51786e-09)
(-2.99347e-08 3.85222e-09 1.87057e-09)
(-3.23195e-08 -1.36675e-10 8.76243e-10)
(-2.79264e-08 -5.07278e-09 2.76473e-09)
(-2.10129e-08 -8.8989e-10 1.99099e-09)
(-3.20144e-08 -2.34738e-09 6.81798e-10)
(-2.96353e-08 -5.49527e-09 4.44054e-09)
(-2.41557e-08 -7.54402e-09 3.38808e-09)
(-1.37917e-08 2.32681e-09 1.84035e-09)
(-6.75182e-08 7.80735e-09 1.87899e-08)
(-2.09261e-08 -1.8988e-09 5.98935e-09)
(-3.15613e-08 -7.08471e-09 3.23834e-09)
(-1.81131e-08 -7.39118e-09 6.94106e-09)
(-1.24554e-07 -3.76955e-08 6.86706e-09)
(-3.42188e-08 -4.95611e-09 7.92752e-09)
(-1.31423e-08 -1.39008e-09 6.22963e-09)
(-1.56916e-08 -1.7302e-09 9.46447e-10)
(-1.71608e-08 -5.39422e-09 4.01983e-09)
(-9.1543e-09 -5.32242e-09 3.72049e-09)
(-7.58847e-09 -2.81895e-09 3.78334e-09)
(-5.68667e-09 -5.86828e-10 2.64878e-09)
(-4.72288e-09 -1.70718e-09 3.236e-09)
(-4.79187e-09 -2.72357e-09 2.53254e-09)
(-5.59862e-09 -2.99007e-09 -1.53598e-10)
(-1.33875e-09 -1.08741e-09 1.71151e-09)
(-1.731e-09 -2.80485e-09 3.79727e-09)
(-1.89998e-09 -2.33261e-09 8.28899e-11)
(6.88588e-10 -4.4456e-09 4.595e-09)
(8.21233e-10 -7.70269e-09 1.04717e-09)
(-3.48102e-10 -2.82937e-09 -1.96819e-09)
(-1.73278e-09 -1.11493e-08 1.00655e-08)
(1.38106e-09 -1.79481e-08 -2.78978e-09)
(1.91779e-09 -5.35392e-09 -4.42949e-09)
(-2.80887e-08 1.40311e-09 1.45821e-09)
(-2.73953e-08 9.24704e-10 3.60799e-09)
(-1.38242e-08 3.0341e-09 2.51786e-09)
(-2.84296e-08 -4.23828e-09 3.69875e-09)
(-2.9117e-08 -3.11315e-09 3.42669e-09)
(-2.10129e-08 -8.8989e-10 1.99099e-09)
(-2.83055e-08 -4.86878e-09 8.40318e-09)
(-2.88737e-08 -6.01529e-09 7.17061e-09)
(-1.37917e-08 2.32681e-09 1.84035e-09)
(-2.09732e-08 1.14488e-09 1.08937e-08)
(-2.50516e-08 -1.29608e-09 6.02285e-09)
(-2.98048e-08 -9.25325e-09 1.12511e-08)
(-1.81131e-08 -7.39118e-09 6.94106e-09)
(-1.49736e-08 1.10724e-09 6.15574e-09)
(-1.82213e-08 -1.34947e-09 1.89496e-09)
(-2.18601e-08 -3.31425e-09 2.10516e-09)
(-1.56916e-08 -1.7302e-09 9.46447e-10)
(-1.27174e-08 -9.55921e-10 6.71812e-09)
(-1.00923e-08 -1.11816e-09 4.91074e-09)
(-1.15446e-08 -7.26657e-10 3.65537e-09)
(-5.68667e-09 -5.86828e-10 2.64878e-09)
(-6.24103e-09 -1.21167e-09 6.09391e-09)
(-6.38099e-09 -1.91523e-10 4.29674e-09)
(-4.00528e-09 -9.05259e-10 3.59803e-09)
(-1.33875e-09 -1.08741e-09 1.71151e-09)
(-5.67381e-09 -9.00766e-10 6.69853e-09)
(-4.50833e-09 9.19636e-11 4.68788e-09)
(-1.4863e-09 -1.78364e-09 4.44934e-09)
(6.88588e-10 -4.4456e-09 4.595e-09)
(-2.24238e-08 1.00018e-08 -1.41682e-09)
(-1.93711e-09 2.00433e-09 4.30732e-09)
(-2.74288e-09 1.4636e-09 1.07264e-08)
(-1.73278e-09 -1.11493e-08 1.00655e-08)
)
;
    }
    procBoundary5to1
    {
        type            processor;
        value           nonuniform List<vector> 
32
(
(-3.37937e-09 -4.23933e-11 1.54494e-08)
(-7.13018e-10 5.38379e-09 8.78701e-09)
(-3.75406e-09 3.70854e-10 7.39318e-09)
(5.90285e-10 -1.71445e-09 7.60878e-09)
(8.33987e-09 -5.40035e-09 1.44048e-08)
(-2.09452e-09 -1.52721e-08 1.60415e-08)
(-1.50574e-08 1.56947e-09 4.49511e-08)
(-2.8004e-09 3.03596e-09 3.0038e-08)
(-3.7278e-10 1.98582e-09 8.70976e-09)
(-1.3947e-09 3.14938e-09 7.77144e-09)
(-4.02624e-09 -3.38876e-09 1.19476e-08)
(5.40922e-11 8.63952e-10 2.00386e-08)
(3.6736e-10 -7.72446e-09 1.70907e-08)
(-1.07232e-08 1.90986e-09 4.65444e-08)
(-6.51311e-09 1.85221e-09 5.78959e-08)
(-6.85905e-09 2.92205e-09 3.63504e-08)
(-6.16194e-10 2.82875e-09 1.97401e-08)
(-4.94786e-09 1.96459e-09 9.48692e-09)
(-6.74336e-09 -4.45499e-09 1.25163e-08)
(-4.41816e-09 5.26461e-10 1.64834e-08)
(-2.76428e-09 -6.92288e-09 1.74459e-08)
(-2.56191e-08 -1.468e-09 2.32858e-09)
(-2.05772e-08 -4.48346e-09 4.47099e-09)
(-1.84609e-08 -8.22539e-10 1.15331e-08)
(-1.84609e-08 -8.22539e-10 1.15331e-08)
(-1.84609e-08 -8.22539e-10 1.15331e-08)
(-3.80883e-08 -2.09097e-09 9.36486e-09)
(-3.37726e-08 -2.68547e-09 2.30816e-08)
(-3.37726e-08 -2.68547e-09 2.30816e-08)
(-3.37726e-08 -2.68547e-09 2.30816e-08)
(-3.93123e-08 -5.72599e-09 1.50619e-08)
(-3.93123e-08 -5.72599e-09 1.50619e-08)
)
;
    }
    procBoundary5to4
    {
        type            processor;
        value           nonuniform List<vector> 
12
(
(-2.10651e-08 7.49535e-10 -3.53298e-09)
(-3.38837e-08 -3.15836e-09 -2.50921e-09)
(-3.97463e-08 -5.22376e-09 -2.98219e-10)
(-4.24062e-08 -3.09235e-09 5.56831e-09)
(-1.99902e-08 -1.12222e-09 -9.82823e-10)
(-2.75922e-08 -3.87239e-09 3.57738e-10)
(-3.84353e-08 -7.46873e-09 -1.67248e-09)
(-3.88833e-08 -4.46372e-09 1.50451e-09)
(-1.0572e-08 -2.66869e-09 3.03717e-10)
(-1.90962e-08 -2.16077e-09 1.96922e-09)
(-2.55986e-08 -6.23084e-09 -1.48514e-09)
(-3.17315e-08 -4.20578e-09 6.29891e-10)
)
;
    }
    procBoundary5to7
    {
        type            processor;
        value           nonuniform List<vector> 
44
(
(-3.5077e-08 -4.36392e-09 3.50232e-08)
(-2.40637e-08 -6.16456e-10 4.21923e-08)
(-1.65541e-08 2.11998e-09 2.64437e-08)
(-1.15084e-08 1.32362e-09 1.91032e-08)
(-7.92854e-09 1.06969e-09 1.13631e-08)
(-3.92343e-09 -8.16411e-10 7.33249e-09)
(7.06661e-10 -6.45727e-11 6.5825e-09)
(2.8488e-09 1.8707e-09 7.96739e-09)
(-3.89032e-08 -5.99427e-09 2.23736e-08)
(-3.5077e-08 -4.36392e-09 3.50232e-08)
(-3.01137e-08 -5.50096e-09 2.62328e-08)
(-1.6798e-08 1.88361e-09 2.17172e-08)
(-2.67501e-09 5.72667e-09 1.20259e-08)
(-6.56499e-09 -9.44648e-10 7.51048e-09)
(-2.70099e-09 -5.59983e-10 3.19343e-09)
(1.62957e-09 -3.03722e-11 1.21555e-09)
(1.1695e-09 -1.39967e-09 -1.25407e-09)
(-4.4294e-08 -4.53622e-10 1.70961e-08)
(-3.01137e-08 -5.50096e-09 2.62328e-08)
(-4.21486e-08 -1.00304e-09 2.20582e-08)
(-3.01137e-08 -5.50096e-09 2.62328e-08)
(-1.6798e-08 1.88361e-09 2.17172e-08)
(-8.15885e-09 1.12679e-09 7.5147e-09)
(-8.28274e-09 -2.19341e-09 2.77932e-09)
(-3.87123e-09 -1.75458e-09 -9.51687e-10)
(-1.26747e-09 -1.61611e-09 -4.50501e-09)
(-2.91291e-11 -1.95065e-09 -6.62783e-09)
(-3.87368e-08 -2.44953e-09 9.56167e-09)
(-4.04243e-08 1.26338e-10 1.77858e-08)
(-3.54493e-08 4.91186e-09 2.16128e-08)
(-8.15885e-09 1.12679e-09 7.5147e-09)
(-2.06992e-08 9.53929e-10 1.20925e-08)
(-8.15885e-09 1.12679e-09 7.5147e-09)
(-8.28274e-09 -2.19341e-09 2.77932e-09)
(-4.59549e-09 -2.92587e-09 -2.30082e-09)
(-5.58746e-09 -1.58776e-09 -3.99082e-09)
(6.22413e-09 -1.6769e-10 -1.32021e-08)
(-2.42117e-08 -3.82592e-09 5.71179e-09)
(-2.40611e-08 -6.602e-09 5.90972e-09)
(-1.97785e-08 -2.3024e-09 5.71953e-09)
(-1.09035e-08 -1.23935e-09 3.17657e-09)
(-7.02258e-09 -1.69151e-10 1.58963e-09)
(-4.59549e-09 -2.92587e-09 -2.30082e-09)
(-5.08694e-09 5.90076e-10 1.56203e-09)
)
;
    }
}


// ************************************************************************* //
