/*--------------------------------*- C++ -*----------------------------------*\
| =========                 |                                                 |
| \\      /  F ield         | OpenFOAM: The Open Source CFD Toolbox           |
|  \\    /   O peration     | Version:  4.x                                   |
|   \\  /    A nd           | Web:      www.OpenFOAM.org                      |
|    \\/     M anipulation  |                                                 |
\*---------------------------------------------------------------------------*/
FoamFile
{
    version     2.0;
    format      ascii;
    class       volVectorField;
    location    "8.5";
    object      GField;
}
// * * * * * * * * * * * * * * * * * * * * * * * * * * * * * * * * * * * * * //

dimensions      [1 -2 -1 0 0 0 0];

internalField   nonuniform List<vector> 
108
(
(26.8222 0.388564 1.46277)
(98.7225 2.37757 1.12788)
(21.3203 1.08242 -0.644551)
(102.745 2.44498 -2.29953)
(25.177 1.9433 -2.355)
(112.734 0.236296 -3.54788)
(34.265 5.99079 -7.04103)
(137.101 -4.33049 -0.994908)
(34.1995 23.6308 -32.6811)
(38.0747 1.92299 2.18279)
(101.934 1.49918 2.04086)
(29.813 2.2087 -0.605592)
(105.728 0.146277 -2.22701)
(30.709 2.32608 -2.59098)
(114.717 -2.57894 -4.67149)
(33.5918 -0.62549 -5.42305)
(133.583 -5.93072 -4.1721)
(33.3513 -14.3238 -34.1338)
(53.3316 4.25347 3.7614)
(108.08 6.39905 3.69389)
(39.3139 3.69183 0.952791)
(106.977 5.57184 -0.557415)
(33.2505 4.72124 0.0631824)
(107.267 4.35809 -0.861102)
(25.0945 4.79919 2.75494)
(95.7523 -1.69322 2.22073)
(9.86047 0.345876 2.58621)
(97.3953 6.11576 7.41085)
(136.442 7.28404 9.7191)
(84.2826 6.38192 8.51378)
(131.175 5.91307 8.5833)
(70.346 7.80144 8.21632)
(132.907 4.84043 6.17694)
(60.1564 12.8612 12.6361)
(136.4 1.98816 3.56808)
(48.6773 36 -80.8096)
(20.7497 0.0739972 -0.728725)
(93.5452 0.607821 -0.6407)
(21.4375 0.394802 -4.09116)
(94.9047 0.961611 -4.39235)
(23.3688 1.1984 -7.74157)
(95.3647 2.12529 -5.53514)
(24.7895 3.50644 -12.7815)
(89.5674 1.06845 0.307959)
(27.2614 12.4468 -45.695)
(22.7055 0.430568 0.0971344)
(96.3949 -0.701429 0.349167)
(21.68 1.34169 -3.5011)
(98.7665 -1.50254 -4.36834)
(20.4479 2.74035 -6.56867)
(100.6 -1.90841 -5.47092)
(20.4799 6.09431 -9.38836)
(99.7507 -5.15093 -1.70553)
(31.0508 23.768 -48.364)
(23.0469 1.11261 1.39814)
(97.224 2.10454 2.84925)
(19.236 1.11973 -1.62494)
(100.355 0.7219 -1.49759)
(15.8229 2.44245 -3.05251)
(105.407 -1.00708 -1.16289)
(14.461 6.40729 -1.24446)
(113.697 -10.6033 2.136)
(18.7585 43.2695 -6.97458)
(74.3904 3.48099 9.08884)
(124.171 3.54854 15.3277)
(73.2084 2.75046 9.34469)
(128.787 0.771899 14.6919)
(65.3214 3.9782 5.40917)
(138.893 -2.2532 10.4189)
(53.4805 9.93254 4.90281)
(167.45 -8.46744 6.40658)
(28.8334 42.3203 -84.8663)
(9.57412 0.204161 -0.468909)
(84.9494 0.826341 -0.6339)
(9.09389 0.49134 -1.57324)
(85.7272 1.15657 -3.77391)
(10.2438 0.849136 -3.64064)
(85.0562 0.561854 -4.56022)
(8.667 1.93302 -4.64474)
(75.4808 -1.28399 0.223438)
(9.40953 5.82691 -9.8563)
(16.8575 1.07858 0.0933423)
(90.428 -0.417115 -0.433033)
(16.2065 1.54991 -1.43768)
(92.7008 -0.978515 -3.20544)
(15.5151 2.50932 -2.9363)
(94.6746 -1.51152 -4.56351)
(15.9314 6.09144 -4.20361)
(96.4874 -6.22044 -6.8915)
(21.4846 25.6183 -13.4834)
(13.8287 0.689087 0.509924)
(90.1585 0.976244 1.32982)
(13.6491 0.540333 -1.34016)
(95.4197 -0.890564 -1.78733)
(16.124 1.81522 -3.58606)
(104.875 -3.46772 -2.0568)
(20.9854 6.93202 -6.35173)
(126.124 -11.6104 -2.35206)
(23.1173 47.2052 -34.8538)
(62.8633 2.02505 7.98851)
(114.591 1.42576 14.5259)
(68.519 0.474556 9.98937)
(122.521 -2.51954 15.6758)
(66.8064 0.625565 7.16046)
(133.384 -5.92004 11.9788)
(56.3715 3.97262 3.29609)
(165.02 -10.7293 5.88076)
(29.0735 26.2782 -32.4782)
)
;

boundaryField
{
    inlet
    {
        type            calculated;
        value           nonuniform 0();
    }
    outlet
    {
        type            calculated;
        value           nonuniform List<vector> 
12
(
(71.1951 49.1937 -68.0341)
(69.4998 -29.8491 -71.1305)
(20.524 0.71992 5.38305)
(98.2449 72.6585 -163.097)
(58.5684 26.7408 -98.1712)
(66.5566 50.9461 -103.667)
(40.1306 92.5678 -14.9209)
(61.1451 89.7458 -179.97)
(20.5225 12.7087 -21.497)
(46.7691 55.7676 -29.3515)
(50.1228 102.35 -75.5701)
(63.1822 57.1074 -70.5812)
)
;
    }
    wall
    {
        type            calculated;
        value           uniform (0 0 0);
    }
    procBoundary3to1
    {
        type            processor;
        value           nonuniform List<vector> 
27
(
(30.1127 -1.85093 1.53821)
(99.1168 -1.61686 1.96328)
(15.7382 -0.725101 -0.344659)
(98.7138 -0.11046 -2.47966)
(10.5923 -0.245852 -0.963189)
(98.8292 0.627976 -6.77791)
(14.0536 1.35054 -1.58283)
(88.4842 -3.20442 -7.32851)
(26.304 15.7771 -3.08744)
(18.6556 -0.505977 -0.772434)
(95.5122 0.242276 -1.42628)
(16.8026 -0.460642 -4.01351)
(96.2495 1.39291 -6.69597)
(13.381 -0.737128 -5.54415)
(92.9657 1.34323 -6.89948)
(4.05055 -0.526112 -2.18583)
(79.5513 1.81337 -2.26731)
(4.14624 -0.661052 -2.86128)
(10.1934 -0.619738 -0.217874)
(86.9378 0.750503 -2.28409)
(5.39147 -0.386078 -0.827474)
(86.0995 1.91382 -4.8998)
(-0.0006108 7.04406e-06 -2.62973e-05)
(82.9723 0.588056 -4.40512)
(-0.000238797 -2.51084e-05 7.99134e-05)
(76.3032 1.24454 -5.81164)
(8.04346 -2.13692 -2.02015)
)
;
    }
    procBoundary3to2
    {
        type            processor;
        value           nonuniform List<vector> 
12
(
(101.212 1.83846 6.12762)
(106.003 2.96951 5.98847)
(115.294 6.0736 6.35272)
(140.558 6.32108 6.795)
(90.7257 0.705587 5.30373)
(93.4975 -0.250078 5.93365)
(95.1672 3.12592 7.33509)
(118.44 4.89959 10.0418)
(84.0555 0.390125 2.66102)
(87.8155 0.434478 3.39685)
(87.039 2.29448 5.38758)
(105.251 3.4648 9.27695)
)
;
    }
    procBoundary3to7
    {
        type            processor;
        value           nonuniform List<vector> 
36
(
(17.7135 0.0196731 -1.59595)
(84.8126 0.173103 -0.891304)
(18.0323 0.400296 -4.74954)
(81.4592 0.202639 -4.92713)
(14.5199 0.5088 -7.11576)
(72.3847 0.956771 -4.42377)
(8.2768 0.814488 -6.21444)
(53.1901 0.671196 4.03061)
(9.38903 1.75497 -8.81305)
(17.9564 1.25305 -1.27624)
(89.9205 0.270921 -1.10977)
(19 2.20803 -3.73936)
(92.4549 0.458125 -3.99)
(20.1433 4.71466 -7.04329)
(93.7527 0.796927 -4.65248)
(22.1551 11.0645 -13.3365)
(89.0353 -3.6827 -0.315066)
(21.1001 22.681 -25.3166)
(18.7095 0.008255 -0.939523)
(90.528 -0.395071 -0.790545)
(20.3344 -0.0625746 -3.78537)
(94.6546 -1.88379 -4.85062)
(23.2477 1.82986 -8.34047)
(97.4114 -3.84338 -4.52569)
(27.8567 10.9886 -17.9425)
(96.5086 -9.60027 1.09496)
(26.2002 58.3599 -56.5913)
(62.5496 0.478622 3.99521)
(113.304 -0.669435 9.90176)
(67.1521 -0.0477195 4.39043)
(123.743 -3.75712 10.6333)
(67.7622 1.90868 -0.699598)
(138.418 -7.06368 8.84934)
(60.0457 10.7953 -13.5381)
(172.768 -11.7485 8.51309)
(34.8371 51.6144 -70.2632)
)
;
    }
}


// ************************************************************************* //
