/*--------------------------------*- C++ -*----------------------------------*\
| =========                 |                                                 |
| \\      /  F ield         | OpenFOAM: The Open Source CFD Toolbox           |
|  \\    /   O peration     | Version:  4.x                                   |
|   \\  /    A nd           | Web:      www.OpenFOAM.org                      |
|    \\/     M anipulation  |                                                 |
\*---------------------------------------------------------------------------*/
FoamFile
{
    version     2.0;
    format      ascii;
    class       volVectorField;
    location    "38.5";
    object      GField;
}
// * * * * * * * * * * * * * * * * * * * * * * * * * * * * * * * * * * * * * //

dimensions      [1 -2 -1 0 0 0 0];

internalField   nonuniform List<vector> 
114
(
(55.0209 -0.598337 -2.89365)
(111.663 -0.946668 -5.44091)
(63.4871 -0.693668 -2.61483)
(116.95 -1.0129 -4.0758)
(68.8741 -0.286014 -1.57241)
(122.045 -0.580304 -2.67237)
(99.0994 0.334803 -4.57863)
(41.8814 0.162335 -2.65627)
(103.562 0.748497 -5.38976)
(49.7298 0.408629 -2.45524)
(107.073 0.4111 -4.52085)
(54.612 -0.221105 -2.05513)
(110.098 -0.196427 -3.66885)
(56.8487 -0.825413 -1.2125)
(112.899 -0.354474 -2.45767)
(99.9606 3.24407 -4.59654)
(44.4574 1.59697 -2.5448)
(106.078 3.33894 -4.90995)
(55.5683 1.91792 -2.17957)
(111.849 3.25857 -3.85456)
(63.3267 1.62709 -1.57041)
(116.667 2.71986 -2.79836)
(68.2997 1.15907 -0.858767)
(121.202 2.28021 -1.89541)
(100.266 1.77697 -3.87134)
(48.9965 0.901444 -2.32993)
(109.366 1.77399 -4.09861)
(64.2498 0.865713 -2.13585)
(118.855 1.57286 -3.35302)
(76.8051 0.390914 -1.65104)
(127.474 0.97076 -2.49142)
(85.8454 -0.570369 -0.921052)
(133.697 0.136596 -1.77081)
(26.5633 -0.0189633 -1.80584)
(95.8247 -0.0052218 -3.93521)
(22.4919 0.209329 -1.24722)
(97.9238 0.546838 -2.07207)
(97.4072 1.24116 -7.58288)
(34.0757 0.281438 -3.54567)
(96.3734 1.3522 -7.79982)
(29.3246 0.665723 -2.79255)
(95.0057 1.68821 -5.78838)
(23.7821 0.264741 -2.10759)
(94.0198 0.766668 -3.84931)
(17.5144 -0.161392 -1.44126)
(94.5184 0.4248 -2.14465)
(97.7718 3.87575 -7.75458)
(36.5076 1.88095 -3.98915)
(97.9416 4.39864 -8.22557)
(35.5715 1.81154 -3.32805)
(98.5738 4.18746 -6.36577)
(34.2882 1.46281 -2.7084)
(99.5761 3.63438 -4.96974)
(31.7127 0.88476 -2.35725)
(101.509 2.70079 -3.44763)
(98.362 2.45299 -6.99983)
(43.5705 1.21549 -4.03814)
(102.94 2.5712 -7.15758)
(51.3922 0.997935 -3.96049)
(107.73 2.14561 -5.80995)
(57.6993 0.477392 -3.91208)
(112.091 1.43622 -4.60847)
(61.7614 -0.358577 -3.19861)
(116.117 0.509255 -3.59413)
(9.97831 -0.636819 -1.47755)
(91.4369 -1.33262 -1.24393)
(95.3991 1.56713 -6.76514)
(32.0649 0.368553 -3.31108)
(92.7886 1.16522 -6.29008)
(23.4875 0.148227 -2.07195)
(90.6882 0.549532 -4.21186)
(15.0874 -0.2839 -1.26393)
(89.1449 -0.818652 -2.34193)
(6.56266 -0.275397 -0.740823)
(88.5262 -1.01536 -0.705361)
(96.3956 3.79379 -6.30106)
(33.579 1.55488 -3.15793)
(94.2642 4.10449 -5.85198)
(27.0519 1.40039 -2.27634)
(92.7166 3.56452 -4.06466)
(20.9158 0.891864 -1.52851)
(91.8693 2.5864 -2.28565)
(13.742 0.593979 -0.94898)
(91.991 1.5004 -0.815466)
(97.1644 2.57615 -5.90013)
(40.3137 1.39251 -3.4514)
(99.211 3.20617 -5.85507)
(44.1511 1.30167 -3.3771)
(101.874 2.75156 -4.57775)
(47.5743 0.653519 -2.92307)
(103.158 2.14421 -3.07055)
(48.7924 0.460959 -2.85526)
(105.518 1.12847 -2.21644)
(94.75 2.05669 -5.71564)
(29.0068 1.1211 -2.33463)
(90.3963 2.92764 -4.74875)
(18.8996 0.821497 -1.61875)
(88.2291 2.34494 -2.89339)
(11.0094 0.587387 -0.853824)
(87.0282 1.39982 -0.636323)
(4.16903 0.29545 -0.455516)
(94.8573 4.75362 -4.82774)
(33.3937 2.24388 -2.32902)
(92.7636 5.04239 -4.24213)
(28.2309 1.69717 -2.02753)
(91.9805 4.38228 -3.31666)
(24.2938 1.49114 -1.53162)
(92.2566 3.61743 -1.99778)
(96.4441 2.8783 -4.40439)
(40.6713 1.40986 -2.70379)
(98.1989 2.87135 -4.46655)
(43.6628 1.10197 -3.1396)
(100.138 2.25202 -4.06293)
(46.2814 0.747052 -2.46256)
)
;

boundaryField
{
    inlet
    {
        type            calculated;
        value           uniform (67 0 0);
    }
    outlet
    {
        type            calculated;
        value           nonuniform 0();
    }
    wall
    {
        type            calculated;
        value           uniform (0 0 0);
    }
    procBoundary2to0
    {
        type            processor;
        value           nonuniform List<vector> 
44
(
(54.398 -1.30203 -3.11683)
(111.291 -1.62686 -5.52343)
(61.7636 -0.504421 -2.96439)
(115.863 -1.1815 -4.90689)
(66.078 -0.13416 -2.19323)
(117.886 -0.774289 -3.81062)
(100.958 -1.53806 -5.66377)
(44.6639 -0.512223 -2.79531)
(106.761 -1.09227 -5.71764)
(106.761 -1.09227 -5.71764)
(31.8241 -0.0862449 -2.96981)
(96.0075 -0.118612 -6.37585)
(25.7004 -0.133373 -1.37257)
(95.0174 -0.665326 -2.96195)
(18.4507 0.389199 -0.404447)
(95.1973 0.0171637 -1.0983)
(96.8792 -0.688727 -8.87544)
(34.5686 -0.327392 -4.0582)
(97.1902 -0.687996 -8.74596)
(31.8241 -0.0862449 -2.96981)
(96.0075 -0.118612 -6.37585)
(96.0075 -0.118612 -6.37585)
(13.5629 -0.651904 -1.54717)
(90.851 -1.5569 -2.78741)
(13.4163 -0.324736 -1.93989)
(92.2419 -1.08035 -0.192224)
(95.0957 -0.859689 -7.00192)
(29.8632 -0.426412 -3.71915)
(92.3629 -0.983527 -7.35326)
(20.4352 -0.444217 -2.13994)
(90.7543 -1.13376 -4.58433)
(13.5629 -0.651904 -1.54717)
(90.851 -1.5569 -2.78741)
(90.851 -1.5569 -2.78741)
(1.53208 0.0738003 -0.237379)
(86.7522 -0.40022 -0.232147)
(95.1213 -0.606417 -4.61417)
(28.7152 0.0282089 -2.57897)
(90.1233 0.327953 -4.52868)
(15.5989 0.28026 -1.50766)
(87.926 0.747614 -3.39468)
(6.40474 0.184376 -0.770259)
(86.9444 -0.128658 -2.16889)
(1.53208 0.0738003 -0.237379)
)
;
    }
    procBoundary2to3
    {
        type            processor;
        value           nonuniform List<vector> 
12
(
(71.2221 -0.847933 -0.875496)
(56.6942 -1.06057 -0.892107)
(71.1655 1.96294 -0.3885)
(91.5548 -1.61888 -0.774882)
(18.8745 0.263166 -1.3727)
(11.8811 -0.20154 -1.22341)
(28.7556 1.15083 -2.38867)
(63.4847 -1.50461 -3.2106)
(6.36014 -0.533976 -1.51783)
(3.39285e-05 -8.12576e-06 6.18648e-06)
(7.61632 0.60822 -0.605078)
(48.3375 0.103644 -3.00886)
)
;
    }
    procBoundary2to6
    {
        type            processor;
        value           nonuniform List<vector> 
32
(
(86.4156 0.869459 0.46972)
(21.7464 1.53442 -1.59369)
(93.7943 2.36443 -1.12103)
(102.369 1.43747 -2.55965)
(48.2925 -0.114087 -2.94959)
(104.507 0.2042 -2.32815)
(92.1234 1.25798 -1.79483)
(26.9456 0.802351 -0.560665)
(87.5091 1.51088 -1.29077)
(13.1744 0.385975 -0.396709)
(84.1778 0.822316 -0.783099)
(3.34508 0.120396 -0.109723)
(82.8952 -0.282621 -0.47137)
(86.4156 0.869459 0.46972)
(21.7464 1.53442 -1.59369)
(3.64096e-05 -9.51271e-07 2.31103e-06)
(94.2756 5.08229 -1.40874)
(30.8102 1.7997 -0.798069)
(90.9835 4.73814 -1.15582)
(21.6953 1.32967 -0.883134)
(88.5741 3.0244 -0.957705)
(13.62 0.87562 -0.729666)
(21.7464 1.53442 -1.59369)
(102.369 1.43747 -2.55965)
(87.1923 1.39895 -1.10873)
(96.1741 3.11094 -1.66628)
(40.0032 1.49213 -1.11291)
(96.8444 3.3017 -1.68479)
(41.4257 1.13832 -1.71272)
(96.588 2.40647 -1.67266)
(102.369 1.43747 -2.55965)
(40.4028 0.841839 -1.74474)
)
;
    }
}


// ************************************************************************* //
