/*--------------------------------*- C++ -*----------------------------------*\
| =========                 |                                                 |
| \\      /  F ield         | OpenFOAM: The Open Source CFD Toolbox           |
|  \\    /   O peration     | Version:  4.x                                   |
|   \\  /    A nd           | Web:      www.OpenFOAM.org                      |
|    \\/     M anipulation  |                                                 |
\*---------------------------------------------------------------------------*/
FoamFile
{
    version     2.0;
    format      ascii;
    class       volScalarField;
    location    "38.5";
    object      Qsource;
}
// * * * * * * * * * * * * * * * * * * * * * * * * * * * * * * * * * * * * * //

dimensions      [1 -1 -3 0 0 0 0];

internalField   nonuniform List<scalar> 
114
(
7.6621e+09
6.5254e+09
3.64666e+09
6.93821e+09
4.26979e+09
5.60051e+09
6.66249e+09
7.35702e+09
7.01065e+09
4.86656e+09
8.24071e+09
5.52158e+09
7.92546e+09
7.26877e+09
5.41769e+09
4.73338e+09
6.61147e+09
5.98971e+09
5.92306e+09
6.74444e+09
5.8334e+09
7.76591e+09
6.02593e+09
7.50761e+09
5.69706e+09
4.9702e+09
6.99399e+09
5.73937e+09
5.91575e+09
5.47768e+09
5.12936e+09
6.84889e+09
6.13174e+09
9.84402e+09
1.23024e+10
6.60235e+09
1.12267e+10
4.73201e+09
7.93929e+09
9.59643e+09
9.18701e+09
8.89276e+09
7.02023e+09
1.11791e+10
8.746e+09
6.4202e+09
5.86194e+09
1.00101e+10
1.06643e+10
9.18509e+09
9.42871e+09
8.87155e+09
9.17879e+09
8.89776e+09
7.70378e+09
5.90807e+09
5.81899e+09
9.2324e+09
6.52818e+09
8.50489e+09
7.08055e+09
7.65354e+09
7.68242e+09
5.78367e+09
7.97598e+09
9.25136e+09
6.86205e+09
5.74472e+09
6.75359e+09
6.88768e+09
6.77467e+09
7.74032e+09
9.83995e+09
7.2443e+09
5.75078e+09
4.99303e+09
6.95612e+09
9.09937e+09
1.04924e+10
9.19775e+09
7.04349e+09
9.49518e+09
8.5153e+09
1.0253e+10
5.84472e+09
8.01719e+09
7.83468e+09
7.9433e+09
5.65105e+09
7.3178e+09
1.05885e+10
5.86113e+09
8.64908e+09
4.89843e+09
9.48204e+09
1.02974e+10
7.15727e+09
8.23415e+09
6.2655e+09
7.57092e+09
7.47118e+09
5.87318e+09
7.90278e+09
1.05249e+10
6.60063e+09
9.11667e+09
7.66868e+09
1.03059e+10
5.08872e+09
6.71712e+09
8.35296e+09
7.68318e+09
7.60328e+09
6.94337e+09
)
;

boundaryField
{
    inlet
    {
        type            calculated;
        value           uniform 0;
    }
    outlet
    {
        type            calculated;
        value           nonuniform 0();
    }
    wall
    {
        type            calculated;
        value           uniform 0;
    }
    procBoundary2to0
    {
        type            processor;
        value           nonuniform List<scalar> 
44
(
5.59088e+09
6.49743e+09
5.47381e+09
4.94365e+09
5.78934e+09
9.48573e+09
3.84081e+09
4.9802e+09
4.4088e+09
4.4088e+09
5.50998e+09
1.1325e+10
6.75911e+09
1.05246e+10
6.91707e+09
6.35105e+09
7.96719e+09
7.03458e+09
7.80005e+09
5.50998e+09
1.1325e+10
1.1325e+10
8.00307e+09
8.75028e+09
6.46016e+09
5.39571e+09
6.90791e+09
8.66148e+09
9.57272e+09
8.96898e+09
9.9615e+09
8.00307e+09
8.75028e+09
8.75028e+09
5.41856e+09
2.59689e+09
4.82606e+09
6.71411e+09
9.80812e+09
1.01658e+10
5.47883e+09
9.67787e+09
8.49894e+09
5.41856e+09
)
;
    }
    procBoundary2to3
    {
        type            processor;
        value           nonuniform List<scalar> 
12
(
9.12259e+09
6.76597e+09
7.28142e+09
5.92941e+09
8.51645e+09
7.66528e+09
1.2731e+10
9.02227e+09
8.16248e+09
9.53566e+09
6.04964e+09
9.29257e+09
)
;
    }
    procBoundary2to6
    {
        type            processor;
        value           nonuniform List<scalar> 
32
(
8.07965e+09
6.73768e+09
8.93199e+09
6.56233e+09
6.69182e+09
6.49645e+09
9.95378e+09
8.95558e+09
6.08875e+09
8.01289e+09
1.10664e+10
6.11236e+09
8.69987e+09
8.07965e+09
6.73768e+09
6.65602e+09
6.30444e+09
9.22117e+09
8.1831e+09
1.02333e+10
8.8611e+09
8.75503e+09
6.73768e+09
6.56233e+09
8.76021e+09
5.50626e+09
7.9965e+09
6.79517e+09
6.57378e+09
9.54738e+09
6.56233e+09
9.90523e+09
)
;
    }
}


// ************************************************************************* //
