/*--------------------------------*- C++ -*----------------------------------*\
  =========                 |
  \\      /  F ield         | OpenFOAM: The Open Source CFD Toolbox
   \\    /   O peration     | Website:  https://openfoam.org
    \\  /    A nd           | Version:  4.x
     \\/     M anipulation  |
\*---------------------------------------------------------------------------*/
FoamFile
{
    version     2.0;
    format      ascii;
    class       Cloud<passiveParticle>;
    location    0;
    object      positions;
}
// * * * * * * * * * * * * * * * * * * * * * * * * * * * * * * * * * * * * * //

407
(
( 0.258178 -0.00231841 0.0071712 ) 0
( 0.254323 0.0363199 0.0041213 ) 9
( 0.25886 0.0757426 -0.00888259 ) 27
( 0.259319 0.0469975 0.0238978 ) 52
( 0.261196 0.0900017 0.0159454 ) 61
( 0.250734 0.0131515 -0.00386396 ) 0
( 0.309257 -0.00715321 0.0175923 ) 36
( 0.335507 -0.00727898 0.0174909 ) 37
( 0.467292 -0.00659144 -0.00274941 ) 7
( 0.38633 -0.014081 0.0128402 ) 4
( 0.439557 -0.00882639 -0.00442321 ) 6
( 0.398257 -0.00654883 0.0265501 ) 39
( 0.420175 -0.0111174 -0.00554106 ) 6
( 0.400501 -0.0119102 -0.00719945 ) 5
( 0.409111 -0.00886056 0.0104007 ) 5
( 0.32227 -0.00643649 0.00311154 ) 2
( 0.471678 -0.0120904 0.0157419 ) 41
( 0.294071 0.00296948 0.0100905 ) 1
( 0.490169 -0.0125553 -0.0113101 ) 8
( 0.366651 -0.0128498 0.0135412 ) 4
( 0.485915 -0.000565232 0.00400681 ) 8
( 0.359008 -0.00343276 -0.00704343 ) 3
( 0.41931 -0.0111111 0.0273499 ) 40
( 0.306951 -0.012749 -0.00738086 ) 2
( 0.429066 -0.00399445 0.0116726 ) 6
( 0.452832 -0.0100045 0.0102242 ) 7
( 0.37979 -0.0125939 -0.00565653 ) 4
( 0.311814 0.0461454 0.0294841 ) 54
( 0.280522 0.0852865 0.0174932 ) 62
( 0.486895 0.0276314 0.0214333 ) 51
( 0.343967 0.0701086 -0.00223858 ) 21
( 0.459004 0.059908 -0.00736945 ) 25
( 0.420788 0.0522472 0.0211654 ) 58
( 0.380259 0.0560059 -0.00641555 ) 22
( 0.300277 0.0547341 -0.0119082 ) 19
( 0.352453 0.0132471 0.00118491 ) 3
( 0.301558 0.0187293 0.000380864 ) 10
( 0.392823 0.0669825 0.00379558 ) 23
( 0.284521 0.0216892 -0.0128919 ) 10
( 0.368223 0.020737 0.0159976 ) 47
( 0.398476 0.0834755 0.0130631 ) 32
( 0.437344 0.0260643 0.0086149 ) 15
( 0.468748 0.0167156 0.0149624 ) 50
( 0.421695 0.0219885 -0.00304406 ) 15
( 0.376589 0.00383311 0.0107712 ) 4
( 0.415235 0.057323 0.0031868 ) 23
( 0.296649 0.0519773 0.0181902 ) 53
( 0.345306 0.0251141 -0.013266 ) 12
( 0.330107 0.027863 0.0186833 ) 45
( 0.299261 0.0887369 0.0231256 ) 62
( 0.442331 0.0694007 -0.00408177 ) 24
( 0.326492 0.0329477 0.000286696 ) 11
( 0.360061 0.0718325 0.00932322 ) 30
( 0.364671 0.0549604 0.029196 ) 56
( 0.431275 0.0392556 -0.00525624 ) 15
( 0.313774 0.0906471 -0.0107042 ) 29
( 0.336706 0.0471174 -0.00895224 ) 21
( 0.399234 0.0500026 -0.00557525 ) 23
( 0.315679 0.0491625 -0.00114873 ) 20
( 0.348839 0.0222332 0.0184875 ) 46
( 0.428089 0.0576474 -0.0119626 ) 24
( 0.287771 0.0477433 0.00130405 ) 19
( 0.387629 0.0447482 0.00947738 ) 22
( 0.31423 0.0599921 0.0156061 ) 54
( 0.49083 0.0630019 -0.00976805 ) 26
( 0.449164 0.0447106 0.000735209 ) 25
( 0.349036 0.072663 0.0253731 ) 64
( 0.447656 0.0905001 0.0181535 ) 68
( 0.471541 0.0906127 0.0116991 ) 34
( 0.312664 0.0183212 0.0164612 ) 45
( 0.274232 0.0390408 -0.00997665 ) 9
( 0.452598 0.0597679 0.0131194 ) 25
( 0.33234 0.0899847 -0.00441082 ) 29
( 0.41162 0.0902212 8.95353e-05 ) 32
( 0.483956 0.0451225 -0.00914822 ) 26
( 0.390368 0.0332812 -0.0111971 ) 14
( 0.329864 0.0421527 0.0360762 ) 45
( 0.375667 0.00469614 -0.0137937 ) 4
( 0.460364 0.00112776 0.0246366 ) 41
( 0.307891 0.0724839 -0.0129659 ) 29
( 0.287 0.0671417 -0.00293652 ) 19
( 0.399034 0.0128995 0.0254556 ) 39
( 0.49045 0.0184086 0.00462697 ) 17
( 0.299194 0.0723423 0.0117927 ) 28
( 0.274915 0.00813298 0.00955882 ) 0
( 0.358804 0.0901435 0.0017815 ) 30
( 0.438393 0.0414814 0.0208075 ) 49
( 0.412106 0.0105915 0.0100511 ) 5
( 0.33904 0.0557079 0.0252664 ) 55
( 0.319051 0.0904054 0.0102899 ) 29
( 0.468026 0.0470751 0.0145193 ) 59
( 0.47329 0.012839 -0.00371668 ) 8
( 0.278679 0.047736 0.0243736 ) 53
( 0.318858 0.017137 -0.00911662 ) 11
( 0.402737 0.025694 0.00197698 ) 14
( 0.357774 0.0901793 0.0215492 ) 64
( 0.406864 0.0692507 -0.00966487 ) 23
( 0.364663 0.0211903 -0.0121579 ) 13
( 0.380785 0.0775799 0.0369084 ) 65
( 0.412981 0.0263967 0.0234729 ) 48
( 0.465154 0.0398313 -0.00894597 ) 16
( 0.485393 0.0783226 0.00078889 ) 35
( 0.426606 0.0122859 0.0228978 ) 40
( 0.43428 0.0554171 0.00726707 ) 24
( 0.490025 0.00824987 0.021448 ) 42
( 0.369694 0.0349406 0.00213387 ) 13
( 0.433877 0.0765442 0.0152349 ) 67
( 0.326012 0.0749919 0.020275 ) 63
( 0.477206 0.0325718 0.00449455 ) 17
( 0.381013 0.0189919 -0.00136104 ) 13
( 0.394902 0.00326646 0.00421828 ) 5
( 0.269991 0.0719389 0.00717841 ) 27
( 0.287083 0.0174317 0.0216816 ) 44
( 0.269207 0.0317345 0.0163471 ) 43
( 0.377376 0.0789497 0.00346042 ) 31
( 0.369955 0.053141 0.0100327 ) 22
( 0.374249 0.0383863 0.0227544 ) 47
( 0.475903 0.0602616 0.00231918 ) 26
( 0.321703 0.0732854 0.000947022 ) 29
( 0.361233 0.0521612 -0.00985706 ) 22
( 0.333066 0.0146914 0.00443233 ) 11
( 0.269037 0.0493435 0.00669659 ) 18
( 0.306564 0.0363597 0.0109462 ) 11
( 0.291623 0.0837362 -0.0130615 ) 28
( 0.403238 0.0435298 0.021513 ) 57
( 0.438079 0.0894422 0.00073297 ) 33
( 0.346156 0.0351481 0.00380615 ) 12
( 0.486077 0.0261436 -0.0129692 ) 17
( 0.409855 0.00563526 -0.00909965 ) 5
( 0.440252 0.0105821 -0.00324676 ) 6
( 0.40519 0.064107 0.0186074 ) 57
( 0.425263 0.090284 -0.0141846 ) 33
( 0.267651 0.0226848 -0.00133113 ) 9
( 0.393823 0.0841937 -0.00646311 ) 32
( 0.490172 0.00702068 -0.0137285 ) 8
( 0.373289 0.0904899 -0.0118194 ) 31
( 0.489879 0.0679147 0.0172461 ) 60
( 0.416715 0.0381743 0.00797179 ) 15
( 0.353074 0.0106204 0.0336682 ) 37
( 0.274106 0.0900599 -0.000689703 ) 27
( 0.298646 0.0353118 -0.00965792 ) 10
( 0.388217 0.0259145 0.015528 ) 47
( 0.266976 0.0740009 0.026777 ) 61
( 0.350754 0.0540675 0.00744632 ) 21
( 0.47139 0.0901181 -0.00790182 ) 34
( 0.467657 0.0719808 0.0153143 ) 68
( 0.455819 0.0318028 0.014331 ) 50
( 0.283458 0.00262937 -0.00711174 ) 1
( 0.444516 0.00860415 0.0160521 ) 41
( 0.285402 0.0286799 0.00569181 ) 10
( 0.418765 0.0892113 0.0187236 ) 67
( 0.454718 0.0238962 -0.00363905 ) 16
( 0.423809 0.0748563 -0.0017723 ) 33
( 0.343044 0.0274078 0.0368832 ) 46
( 0.253979 0.0609478 0.0115762 ) 18
( 0.300149 0.0902994 0.00351343 ) 28
( 0.340668 0.0859731 0.0129401 ) 30
( 0.301967 0.0051051 -0.0137424 ) 1
( 0.490467 0.0493337 0.0090749 ) 26
( 0.394183 0.0908478 0.0306181 ) 66
( 0.364558 0.0717159 -0.00994728 ) 31
( 0.490571 0.0902228 0.0151626 ) 69
( 0.257591 -0.00485177 -0.0122611 ) 0
( 0.275416 -0.0115495 0.0105556 ) 0
( 0.307744 0.0726539 0.0313343 ) 63
( 0.353283 0.00103329 0.0166692 ) 37
( 0.339565 -0.00141788 -0.00477962 ) 3
( 0.338304 0.0902325 0.032037 ) 64
( 0.456055 0.081623 0.00297824 ) 34
( 0.317418 0.027374 0.0333055 ) 45
( 0.490194 0.048296 0.0288072 ) 60
( 0.328085 0.00927699 0.024669 ) 36
( 0.458505 0.0477156 0.0321726 ) 59
( 0.283298 0.038557 0.0410651 ) 44
( 0.436567 0.0666636 0.0444449 ) 90
( 0.331664 0.0576027 0.00707085 ) 20
( 0.363222 -0.00482112 0.0411696 ) 38
( 0.254226 0.0363118 0.0525546 ) 75
( 0.472446 -0.00323235 0.0457788 ) 74
( 0.318087 0.0510768 0.0496421 ) 86
( 0.301834 0.0904714 0.0424887 ) 62
( 0.382446 0.0618791 0.0479553 ) 88
( 0.354927 0.0843446 0.0536607 ) 96
( 0.490339 0.0327041 0.0595728 ) 83
( 0.433846 -0.00718895 0.0483305 ) 72
( 0.430146 0.0897061 0.0516665 ) 99
( 0.364207 0.0559852 0.0525474 ) 88
( 0.352152 0.0411685 0.0223018 ) 46
( 0.284687 0.0900182 0.0559727 ) 94
( 0.475745 0.0231581 0.0497825 ) 83
( 0.267626 0.0495651 0.0459568 ) 84
( 0.393072 0.0140078 0.0624774 ) 71
( 0.468577 0.0901705 0.0487626 ) 100
( 0.417389 -0.000680088 0.0572533 ) 72
( 0.443291 0.0273932 0.0509684 ) 81
( 0.363985 0.0342575 0.0540145 ) 79
( 0.413953 0.0522869 0.0544582 ) 89
( 0.455131 0.0609677 0.0467717 ) 91
( 0.285644 0.0516635 0.0564043 ) 85
( 0.405716 0.0864732 0.0555583 ) 98
( 0.27016 0.0249996 0.053308 ) 75
( 0.254851 0.0604866 0.056335 ) 84
( 0.405202 0.0356506 0.0601856 ) 80
( 0.34435 0.0332209 0.0557988 ) 78
( 0.490522 0.0903315 0.0544421 ) 101
( 0.397993 -0.00474247 0.05864 ) 71
( 0.419905 0.0707255 0.0690462 ) 90
( 0.381994 0.0400763 0.0598729 ) 79
( 0.28591 0.0680897 0.0259302 ) 53
( 0.426448 0.03619 0.0558167 ) 81
( 0.375852 0.0808109 0.0556471 ) 97
( 0.376765 0.00342719 0.0596394 ) 70
( 0.377297 0.0887747 0.02087 ) 65
( 0.312539 0.0302893 0.0604526 ) 77
( 0.333931 0.07651 0.0610399 ) 96
( 0.268708 0.0729277 0.063646 ) 93
( 0.474094 0.0646274 0.0479869 ) 92
( 0.345502 0.0612795 0.0651108 ) 87
( 0.461332 0.00238457 0.06064 ) 73
( 0.450215 0.0905197 0.0563314 ) 100
( 0.443347 0.00830985 0.0552453 ) 72
( 0.311469 0.0697474 0.0523014 ) 86
( 0.389715 0.0556778 0.0304547 ) 57
( 0.490245 -0.00518016 0.0539781 ) 74
( 0.400766 0.0664835 0.0532705 ) 89
( 0.474603 0.0441746 0.0619817 ) 92
( 0.418674 0.0729898 0.0490291 ) 99
( 0.455053 0.0717531 0.0304445 ) 68
( 0.436518 0.0549388 0.0609233 ) 90
( 0.379337 0.0252495 0.0464844 ) 79
( 0.490398 0.0663098 0.0370762 ) 60
( 0.469159 0.0310041 0.0300417 ) 50
( 0.308673 0.0876064 0.0606139 ) 95
( 0.438097 0.0746323 0.0621135 ) 99
( 0.303173 0.0200896 0.044114 ) 76
( 0.259456 0.0900937 0.0357642 ) 61
( 0.29165 0.0216972 0.0738373 ) 106
( 0.265333 0.03251 0.0357439 ) 43
( 0.457863 0.0230869 0.0627177 ) 82
( 0.449417 0.0301472 0.032648 ) 50
( 0.337422 0.054839 0.0487689 ) 87
( 0.426859 0.0169768 0.0494625 ) 81
( 0.292355 0.0734989 0.0439558 ) 94
( 0.395433 0.0473191 0.0476409 ) 89
( 0.341815 -0.0103258 0.0356858 ) 37
( 0.363485 0.0141747 0.0497888 ) 70
( 0.366867 0.0906297 0.039104 ) 65
( 0.490502 0.0131845 0.0623136 ) 74
( 0.490582 0.010891 0.0426438 ) 42
( 0.45839 0.0153421 0.0447722 ) 82
( 0.407717 0.0188096 0.0502805 ) 80
( 0.401092 0.0536978 0.0716637 ) 119
( 0.391595 0.0106246 0.0433614 ) 71
( 0.383051 -0.00620805 0.0389773 ) 38
( 0.425243 0.046992 0.0393365 ) 58
( 0.470622 0.0844498 0.0302457 ) 68
( 0.438397 -0.00525509 0.0292694 ) 40
( 0.379358 0.0582509 0.0668635 ) 88
( 0.433553 0.0894017 0.0321112 ) 67
( 0.376457 0.0684594 0.0202579 ) 56
( 0.284473 0.0155105 0.0410169 ) 44
( 0.30165 0.0402422 0.0479778 ) 76
( 0.376094 0.0443374 0.0415278 ) 56
( 0.345906 0.0901337 0.0703556 ) 96
( 0.362393 0.0705975 0.0658304 ) 88
( 0.490102 0.0898667 0.0348318 ) 69
( 0.362162 0.0713192 0.0401932 ) 56
( 0.490558 0.0513623 0.052707 ) 92
( 0.273187 0.0686777 0.044889 ) 84
( 0.437952 0.0604634 0.0261024 ) 58
( 0.32669 0.090098 0.0485411 ) 95
( 0.490276 0.0320029 0.0399929 ) 51
( 0.264785 0.0901912 0.0548768 ) 93
( 0.270032 0.042214 0.0643168 ) 75
( 0.322937 0.0610801 0.0660957 ) 86
( 0.341105 0.0741847 0.043148 ) 96
( 0.414559 0.0900324 0.0381613 ) 66
( 0.459957 0.0378716 0.0501843 ) 82
( 0.452884 -0.00395225 0.0427926 ) 41
( 0.408821 0.0565527 0.0362312 ) 57
( 0.484195 -0.00779999 0.030877 ) 42
( 0.440946 0.0128367 0.0362343 ) 40
( 0.360002 0.0459353 0.0689291 ) 87
( 0.399703 0.0732859 0.0351462 ) 66
( 0.288228 0.0703026 0.0629197 ) 85
( 0.395881 0.0729505 0.0707168 ) 98
( 0.473763 0.0121615 0.0332901 ) 42
( 0.415309 0.00498237 0.0382588 ) 39
( 0.317883 0.0899635 0.0306941 ) 63
( 0.327839 0.0249377 0.0496175 ) 77
( 0.473904 0.0595442 0.0287837 ) 60
( 0.362886 0.0278756 0.0352545 ) 47
( 0.476432 0.0809424 0.0637482 ) 101
( 0.475732 0.0235329 0.0693707 ) 83
( 0.279398 0.0899252 0.0368309 ) 62
( 0.421379 0.0708728 0.029573 ) 58
( 0.452919 0.0901946 0.0369321 ) 68
( 0.409391 0.0357758 0.0403272 ) 48
( 0.325023 0.0643104 0.0367371 ) 54
( 0.424203 0.0900673 0.0705573 ) 99
( 0.458483 0.0735544 0.0614367 ) 100
( 0.429747 0.0288468 0.0336564 ) 49
( 0.295883 0.0554331 0.037402 ) 53
( 0.425345 0.0121606 0.0702135 ) 72
( 0.293737 0.0894409 0.0735937 ) 124
( 0.304171 0.0546982 0.0631221 ) 85
( 0.40494 0.0901745 0.0748946 ) 128
( 0.355791 0.0267387 0.0703126 ) 78
( 0.365856 0.0901236 0.0710455 ) 97
( 0.375463 0.0224785 0.0657055 ) 79
( 0.390933 0.0338683 0.0333699 ) 48
( 0.268277 0.0168933 0.0712237 ) 75
( 0.489899 0.0542068 0.0722442 ) 122
( 0.475812 0.0451644 0.041974 ) 60
( 0.297825 0.0322772 0.0292225 ) 44
( 0.352566 0.044494 0.0416262 ) 55
( 0.253182 0.0889251 0.0729344 ) 123
( 0.446349 0.0385765 0.0673613 ) 82
( 0.418947 0.0450187 0.0716311 ) 120
( 0.327186 0.0417441 0.066615 ) 77
( 0.445392 -0.00452099 0.0699547 ) 73
( 0.416941 0.0605303 0.0857781 ) 120
( 0.458074 0.0542925 0.0650761 ) 91
( 0.289294 0.0272331 0.0558666 ) 76
( 0.374293 0.0108303 0.0334105 ) 38
( 0.339631 0.0737836 0.0797682 ) 126
( 0.317566 0.00537882 0.0407932 ) 36
( 0.49073 0.0297933 0.0793264 ) 113
( 0.305142 0.0725099 0.072908 ) 124
( 0.306803 0.0318894 0.0821091 ) 107
( 0.250799 0.0264395 0.072008 ) 105
( 0.277891 0.0575832 0.0742893 ) 115
( 0.391827 0.0301073 0.0735534 ) 110
( 0.490561 -0.0142532 0.0714871 ) 104
( 0.434615 0.0529526 0.080405 ) 120
( 0.385789 0.0907677 0.0695529 ) 97
( 0.325097 0.0904411 0.0710856 ) 95
( 0.44451 0.0147251 0.0737107 ) 112
( 0.463296 -0.00902726 0.0768415 ) 103
( 0.377565 0.0751825 0.0767842 ) 127
( 0.443349 0.0458965 0.0447442 ) 90
( 0.449354 0.069968 0.0782502 ) 121
( 0.443481 0.0884926 0.0746235 ) 129
( 0.490717 0.0705842 0.0561011 ) 92
( 0.385413 0.0468228 0.0817244 ) 118
( 0.273266 0.0900218 0.0729329 ) 123
( 0.272819 0.0332987 0.0818024 ) 105
( 0.342511 0.0468514 0.0777994 ) 117
( 0.358787 0.0768812 0.0841978 ) 126
( 0.490081 0.0104906 0.0896763 ) 104
( 0.467343 0.0381535 0.0791952 ) 112
( 0.314123 0.0501011 0.0798137 ) 116
( 0.465252 0.0102386 0.0781183 ) 103
( 0.318407 0.0181335 0.0742306 ) 107
( 0.370554 0.0340353 0.0808617 ) 109
( 0.258403 0.0616774 0.0757815 ) 114
( 0.399987 0.0716217 0.0898266 ) 128
( 0.287939 0.0725941 0.0826382 ) 124
( 0.462483 0.0905169 0.072002 ) 130
( 0.490753 0.0754989 0.0751239 ) 131
( 0.417159 0.0803359 0.0874042 ) 129
( 0.431075 0.0301289 0.0766569 ) 111
( 0.392898 0.090086 0.0903625 ) 128
( 0.366427 0.0590835 0.0814456 ) 118
( 0.338864 0.0276934 0.0801716 ) 108
( 0.429801 -0.0108443 0.0796511 ) 102
( 0.472912 0.064228 0.0738383 ) 122
( 0.304693 0.0899118 0.0901497 ) 124
( 0.450928 0.0329229 0.0900737 ) 112
( 0.29248 0.0424694 0.0731889 ) 106
( 0.490281 0.0461864 0.0902495 ) 122
( 0.403207 0.0470057 0.0903065 ) 119
( 0.453613 0.0517059 0.0842584 ) 121
( 0.263164 0.0898598 0.0901419 ) 123
( 0.410691 0.0281701 0.0774988 ) 110
( 0.2645 0.0497353 0.0902675 ) 114
( 0.320646 0.0715905 0.0849054 ) 125
( 0.477691 -0.00509113 0.0900988 ) 104
( 0.384601 0.0242692 0.0905904 ) 109
( 0.330567 0.0555954 0.0905533 ) 116
( 0.269706 0.0707831 0.0901136 ) 114
( 0.346041 0.0903136 0.0902455 ) 126
( 0.32437 0.0367977 0.0901902 ) 107
( 0.256279 0.027066 0.0905596 ) 105
( 0.434006 0.0702256 0.090358 ) 120
( 0.465529 0.0725221 0.0901918 ) 130
( 0.356451 0.0173272 0.0901522 ) 108
( 0.434564 0.00549436 0.088478 ) 102
( 0.289689 0.0286378 0.0910928 ) 106
( 0.475181 0.0236893 0.0902115 ) 113
( 0.490005 0.0894636 0.0900747 ) 131
( 0.283046 0.0901132 0.0902635 ) 124
( 0.382358 0.0637778 0.0911543 ) 118
( 0.451864 0.013128 0.0912564 ) 103
( 0.303534 0.0629631 0.0902673 ) 115
( 0.486331 0.065885 0.0906872 ) 122
( 0.422239 0.0419706 0.0905936 ) 111
( 0.284086 0.0474772 0.090248 ) 115
( 0.471841 0.0531051 0.0907596 ) 121
( 0.349535 0.0604868 0.090509 ) 117
( 0.372904 0.0899882 0.090075 ) 127
( 0.324685 0.0901643 0.0905059 ) 125
( 0.45647 0.0902613 0.0904714 ) 130
( 0.421881 0.0197943 0.0906919 ) 111
( 0.326624 0.0172151 0.0911727 ) 107
( 0.353943 0.0370724 0.0905047 ) 108
( 0.433351 0.09054 0.0906402 ) 129
)
