/*--------------------------------*- C++ -*----------------------------------*\
  =========                 |
  \\      /  F ield         | OpenFOAM: The Open Source CFD Toolbox
   \\    /   O peration     | Website:  https://openfoam.org
    \\  /    A nd           | Version:  4.x
     \\/     M anipulation  |
\*---------------------------------------------------------------------------*/
FoamFile
{
    version     2.0;
    format      ascii;
    class       vectorField;
    location    0;
    object      v;
}
// * * * * * * * * * * * * * * * * * * * * * * * * * * * * * * * * * * * * * //

407
(
( -0.000562352 -3.72094e-05 0.000114754 )  
( -0.000581152 1.64898e-05 -4.39364e-05 )  
( -0.000314782 0.000122368 -6.5217e-05 )  
( -0.000443917 2.35448e-05 -4.8459e-05 )  
( -0.000214377 6.73323e-05 -2.21814e-05 )  
( -0.000666023 -6.43164e-05 5.29159e-05 )  
( -0.000588283 -5.62898e-05 2.36242e-05 )  
( -0.000589816 -9.98577e-05 2.99803e-05 )  
( -0.000180406 1.00503e-05 5.85249e-05 )  
( -0.00044391 -9.79815e-06 2.94573e-05 )  
( -0.000250683 -2.1817e-05 7.50832e-05 )  
( -0.000366579 -3.43106e-05 2.6798e-05 )  
( -0.000309191 -3.01704e-05 0.000102639 )  
( -0.000371666 9.57738e-06 0.000114538 )  
( -0.00035093 -2.28861e-05 7.2518e-05 )  
( -0.000669626 -6.88458e-05 9.69814e-06 )  
( -0.000109182 1.73883e-05 3.6506e-05 )  
( -0.000603101 -4.8508e-05 3.80756e-05 )  
( -5.79902e-05 5.86854e-06 2.08879e-05 )  
( -0.000466323 -6.96174e-05 3.40037e-05 )  
( -4.3394e-05 1.90129e-05 9.62183e-06 )  
( -0.000674826 -8.48984e-05 6.61156e-05 )  
( -0.000278431 -2.26795e-05 3.05418e-05 )  
( -0.000736716 -7.88405e-05 3.08152e-05 )  
( -0.000259813 -2.08481e-05 5.59472e-05 )  
( -0.000176986 -1.83286e-05 5.12487e-05 )  
( -0.000578872 -2.14192e-05 3.53254e-05 )  
( -0.000455154 -1.53717e-05 -6.67256e-05 )  
( -0.000280237 -3.09828e-05 -5.39799e-05 )  
( -2.97381e-05 7.10162e-06 5.18073e-06 )  
( -0.000379976 -5.97086e-05 -5.22922e-05 )  
( -0.000156562 -6.26616e-05 4.83625e-05 )  
( -0.000263648 -2.96699e-05 9.7767e-06 )  
( -0.000448936 -8.38754e-05 6.95545e-05 )  
( -0.000642694 -7.32979e-05 -8.16751e-05 )  
( -0.000664078 -0.000122172 2.08602e-05 )  
( -0.000663966 -8.10807e-05 -1.58597e-05 )  
( -0.000338906 -5.56831e-05 1.25368e-05 )  
( -0.000827867 -9.11861e-05 8.10434e-06 )  
( -0.00052754 -6.43213e-05 1.66056e-05 )  
( -0.000239549 -1.78678e-05 -3.05489e-05 )  
( -0.000241196 -3.23993e-05 6.1869e-05 )  
( -0.000125673 9.31494e-06 3.19897e-05 )  
( -0.000352813 -6.11578e-05 0.000137591 )  
( -0.000467449 -6.62373e-05 6.96944e-05 )  
( -0.000314099 -6.53444e-05 1.61863e-05 )  
( -0.000468727 -4.48914e-05 -9.63207e-05 )  
( -0.00074986 -8.80833e-05 1.42215e-05 )  
( -0.00053796 -3.55179e-05 -5.01255e-05 )  
( -0.000224961 -3.45261e-05 -0.000101354 )  
( -0.000184513 -3.40273e-05 3.30206e-05 )  
( -0.000648644 -7.87797e-05 -4.91025e-05 )  
( -0.000352154 -9.46416e-06 -8.06131e-06 )  
( -0.000383964 -6.84389e-05 -1.69845e-05 )  
( -0.00032219 -5.96004e-05 4.33942e-05 )  
( -0.000289714 -8.81555e-05 -6.87755e-05 )  
( -0.000635339 -0.000105599 -3.21541e-05 )  
( -0.000397943 -8.54755e-05 5.82862e-05 )  
( -0.00061742 -7.2479e-05 -6.65323e-05 )  
( -0.000539471 -8.43507e-05 -1.00585e-05 )  
( -0.000346964 -5.22573e-05 4.52419e-06 )  
( -0.000570848 -7.9092e-05 -7.67724e-05 )  
( -0.000401742 -4.45686e-05 6.41047e-05 )  
( -0.000450151 -4.36148e-05 -9.95194e-05 )  
( -5.4175e-05 -1.80536e-06 -4.99024e-07 )  
( -0.000250585 -2.137e-05 4.02401e-05 )  
( -0.0003638 1.10135e-05 -2.61273e-05 )  
( -7.93224e-05 1.16608e-06 1.7679e-05 )  
( -4.38032e-05 -1.83713e-05 -1.13363e-05 )  
( -0.000546263 -4.75861e-05 -3.40697e-05 )  
( -0.000707141 -6.894e-06 -2.05372e-05 )  
( -0.00021019 -1.34462e-05 2.47176e-05 )  
( -0.000339879 -0.000149624 -6.91748e-05 )  
( -0.000160084 5.63025e-06 6.04028e-06 )  
( -0.000126856 3.62833e-06 2.62716e-05 )  
( -0.000501669 -9.63505e-05 7.38227e-05 )  
( -0.000419091 5.37867e-06 -2.50992e-05 )  
( -0.000689624 -3.17355e-05 6.67045e-05 )  
( -0.00015502 -1.21671e-05 4.61337e-05 )  
( -0.000570528 -5.35984e-05 -7.88556e-05 )  
( -0.000594527 -3.6411e-05 -8.28162e-05 )  
( -0.000291048 -3.68306e-05 3.53802e-05 )  
( -4.0588e-05 1.65243e-05 -2.34713e-06 )  
( -0.000453629 -4.51067e-05 -0.000140579 )  
( -0.00059021 -1.79943e-05 6.54035e-05 )  
( -0.000233081 1.39803e-05 -4.9306e-05 )  
( -0.000210603 -1.06542e-06 1.36899e-05 )  
( -0.000345578 -1.95066e-05 0.000131518 )  
( -0.000402604 -1.18315e-05 -5.96248e-05 )  
( -0.000201627 -4.05328e-07 1.26794e-05 )  
( -0.000143466 -2.17114e-05 8.78477e-06 )  
( -0.000129123 6.17764e-06 3.9621e-05 )  
( -0.000438268 8.6219e-06 -5.74063e-05 )  
( -0.000744438 -3.67557e-05 -3.61732e-05 )  
( -0.000417408 -4.4963e-05 0.000103487 )  
( -0.00021756 8.73055e-06 2.38823e-06 )  
( -0.000307626 -7.08685e-05 4.1464e-05 )  
( -0.000669595 -9.74189e-05 9.32663e-05 )  
( -0.000222021 -4.22547e-05 -2.73825e-05 )  
( -0.000264531 -3.35868e-05 4.00447e-05 )  
( -0.000211518 -2.49923e-05 5.51007e-05 )  
( -2.53951e-05 1.33321e-06 -3.52046e-06 )  
( -0.000234099 -1.59566e-05 5.29901e-05 )  
( -0.00025132 -1.21416e-05 8.32578e-06 )  
( -2.02131e-05 1.44786e-05 6.58774e-06 )  
( -0.000421619 -4.75844e-05 8.12035e-05 )  
( -0.000177405 2.3197e-05 3.23563e-05 )  
( -0.000327716 -0.000106647 -7.94815e-05 )  
( -0.000115221 -8.44404e-06 2.42482e-05 )  
( -0.000530859 -8.18031e-05 9.26921e-05 )  
( -0.000385282 -6.70639e-06 0.00015926 )  
( -0.000399335 1.38271e-05 -3.59251e-05 )  
( -0.000514674 -6.03014e-06 8.35488e-06 )  
( -0.000539924 5.69348e-06 -3.37025e-05 )  
( -0.000317057 -3.81607e-05 -1.13303e-05 )  
( -0.000435668 -5.12924e-05 5.52068e-05 )  
( -0.00042468 -6.41928e-05 2.35343e-05 )  
( -9.37332e-05 -3.77857e-05 1.11854e-05 )  
( -0.000497984 -4.45549e-05 -5.42659e-05 )  
( -0.000515733 -3.72117e-05 0.000107836 )  
( -0.000668707 -7.94977e-05 -1.06841e-05 )  
( -0.000502608 -2.72591e-05 -7.16423e-05 )  
( -0.000574653 -7.48445e-05 -5.60253e-05 )  
( -0.000482603 -1.3427e-05 -0.000153275 )  
( -0.000309675 -3.22134e-05 4.20777e-05 )  
( -0.000135606 -2.92568e-05 2.26806e-05 )  
( -0.000570151 -0.000102164 -1.39854e-05 )  
( -9.90184e-05 8.26111e-06 3.04909e-05 )  
( -0.000403168 9.21653e-06 0.000128723 )  
( -0.000263818 -3.73908e-05 7.65108e-05 )  
( -0.000288517 -5.58928e-05 8.29849e-06 )  
( -0.000138379 -1.13163e-05 1.94787e-05 )  
( -0.000634808 -5.01555e-05 -9.5048e-06 )  
( -0.000234709 2.80797e-05 1.57162e-05 )  
( -3.95815e-05 1.60719e-05 1.03376e-05 )  
( -0.00020226 -5.8841e-06 -7.13471e-06 )  
( -0.000145363 -5.83932e-05 -1.25045e-05 )  
( -0.000335891 -4.15256e-05 3.10885e-05 )  
( -0.000437931 -6.38407e-05 -3.57363e-06 )  
( -0.000365569 2.96667e-06 -1.74933e-05 )  
( -0.000717809 -0.000117281 -0.000110542 )  
( -0.000339595 -5.45882e-05 6.73017e-05 )  
( -0.000294815 5.44791e-06 -5.73399e-06 )  
( -0.000463522 -0.00010304 -6.35946e-05 )  
( -4.30002e-05 1.32327e-06 -2.1658e-05 )  
( -0.000120726 -3.21356e-05 -3.80268e-07 )  
( -0.000196651 -7.70971e-06 3.26447e-05 )  
( -0.000750609 -6.52865e-05 7.22241e-05 )  
( -0.000209978 -2.77421e-05 5.86583e-05 )  
( -0.000605385 -6.95901e-05 -2.82711e-05 )  
( -0.000120765 -2.03e-05 6.04548e-06 )  
( -0.000234918 -3.97938e-05 4.87086e-05 )  
( -0.000225453 -2.9057e-05 2.33358e-05 )  
( -0.000414643 -3.31006e-05 -2.87639e-06 )  
( -0.000431809 -2.81105e-06 -9.57555e-05 )  
( -0.000290923 5.29265e-06 -0.000109348 )  
( -0.000279316 -9.58839e-06 -3.6772e-05 )  
( -0.000772059 -9.55044e-05 3.5497e-06 )  
( -3.72369e-05 2.12287e-06 1.17766e-05 )  
( -0.000145068 -2.42361e-05 -1.16665e-05 )  
( -0.000349919 -5.91256e-05 3.26383e-06 )  
( -1.16428e-05 -1.42369e-05 -1.31634e-06 )  
( -0.000777476 -0.000128216 0.000131839 )  
( -0.000563646 -3.6638e-05 9.16037e-05 )  
( -0.000298914 -7.4788e-05 -0.000110722 )  
( -0.000560286 -0.000120304 9.96085e-06 )  
( -0.00069421 -0.000127772 5.26412e-05 )  
( -0.000205184 -1.39147e-05 2.2054e-07 )  
( -0.000141456 -3.39836e-05 2.30626e-05 )  
( -0.000443004 2.58173e-07 -2.48093e-05 )  
( -3.15068e-05 -5.13229e-06 6.7694e-07 )  
( -0.000523821 -3.41595e-05 -3.15857e-05 )  
( -0.000113778 3.53909e-07 2.75237e-05 )  
( -0.000376623 7.00346e-06 -5.3465e-05 )  
( -0.000170859 -1.04097e-05 2.27309e-05 )  
( -0.000487373 -6.71306e-05 -7.80718e-05 )  
( -0.000309616 -1.25278e-05 1.82788e-05 )  
( -0.000319556 0.000104191 -1.74909e-05 )  
( -7.52724e-05 -2.44564e-06 -3.58102e-06 )  
( -0.000306684 4.14812e-07 1.8639e-06 )  
( -0.000129356 -1.70871e-05 -5.19223e-05 )  
( -0.00025225 -5.07474e-05 -3.65393e-05 )  
( -0.00014668 2.48572e-05 -1.00709e-05 )  
( -3.04698e-05 -4.79398e-06 4.03979e-06 )  
( -0.000142714 4.46338e-06 2.17995e-05 )  
( -8.20719e-05 -4.66793e-06 -2.97483e-06 )  
( -0.00026647 -2.8528e-05 -3.83893e-05 )  
( -0.000458744 -7.0669e-05 -2.78106e-05 )  
( -9.13043e-05 -3.47018e-05 -3.81083e-05 )  
( -6.643e-05 -4.36533e-06 4.36324e-06 )  
( -0.000290912 5.39395e-05 -2.22431e-05 )  
( -0.000212141 -3.02751e-05 -5.61036e-06 )  
( -2.2223e-05 -1.27579e-05 -6.97073e-06 )  
( -0.000170884 3.38714e-06 -4.15601e-06 )  
( -0.000150186 2.7548e-05 3.421e-05 )  
( -0.000296054 -4.45466e-05 -3.19256e-05 )  
( -0.00021663 -1.13323e-05 8.58764e-06 )  
( -0.000109884 1.62471e-05 -1.35222e-05 )  
( -0.000228435 3.77274e-05 -4.26729e-05 )  
( -9.30083e-05 5.95817e-05 -6.37401e-06 )  
( -0.000364223 5.8019e-05 -2.6962e-05 )  
( -0.000201966 9.8339e-05 -2.76487e-05 )  
( -0.00020736 -2.23718e-05 1.53258e-05 )  
( -0.0003143 -1.09096e-05 -2.68251e-06 )  
( -8.14195e-06 -1.24388e-06 6.83469e-07 )  
( -0.000199971 -1.91771e-05 -1.08808e-05 )  
( -6.20935e-05 1.18919e-05 1.01204e-05 )  
( -0.000242619 -3.91179e-05 -1.27692e-05 )  
( -0.000323306 7.66748e-06 -2.93054e-05 )  
( -0.000174771 5.11287e-06 1.13237e-05 )  
( -0.000191862 -2.00596e-05 -2.53011e-05 )  
( -0.000230413 -3.57178e-05 -2.17988e-05 )  
( -0.000217345 -2.65607e-05 -1.58557e-06 )  
( -0.000330209 4.02757e-05 1.94861e-05 )  
( -0.000232543 -4.53835e-05 -4.73824e-06 )  
( -0.000138986 4.11467e-05 1.43681e-05 )  
( -5.6485e-05 -5.45356e-06 -9.9382e-06 )  
( -0.000203387 -3.67912e-05 -2.19532e-05 )  
( -9.12017e-05 2.93476e-06 -8.89927e-06 )  
( -1.86719e-05 1.15481e-05 3.37917e-06 )  
( -0.000126496 1.42821e-05 1.95071e-05 )  
( -0.000198469 4.54601e-06 2.34542e-05 )  
( -0.000234888 -8.09683e-05 -1.39189e-05 )  
( -3.40099e-05 9.77647e-06 5.45755e-06 )  
( -0.000233569 -4.00629e-05 -1.73575e-05 )  
( -6.02878e-05 -2.31371e-06 -8.4271e-06 )  
( -0.000208833 -4.33313e-05 1.99826e-05 )  
( -9.7206e-05 1.52001e-05 4.27535e-06 )  
( -0.000118475 2.87613e-05 -1.08386e-05 )  
( -0.000277826 -4.29586e-05 7.92465e-06 )  
( -3.25044e-05 -3.85232e-06 -1.07948e-05 )  
( -0.000138086 -6.34232e-06 2.80894e-05 )  
( -0.000135577 6.05395e-06 -3.15764e-05 )  
( -7.80122e-05 1.50274e-05 -7.45307e-06 )  
( -0.000404609 -6.46447e-06 -1.63127e-05 )  
( -0.000178029 2.17742e-05 -1.14491e-05 )  
( -0.000290688 2.84685e-05 -7.13915e-06 )  
( -0.000412853 4.13657e-05 -2.69751e-05 )  
( -0.000105403 1.71732e-05 1.40091e-05 )  
( -0.000166231 1.33773e-05 3.02751e-05 )  
( -0.000301893 -3.07346e-05 -1.34662e-05 )  
( -0.000168669 1.64519e-06 3.57653e-05 )  
( -0.000232296 2.14972e-05 -6.11655e-05 )  
( -0.000239067 -3.98355e-05 4.91038e-06 )  
( -0.000457458 -5.999e-05 1.2985e-05 )  
( -0.000301114 -4.91351e-05 -4.08732e-05 )  
( -0.000137366 -1.04535e-05 -1.73556e-05 )  
( -2.54702e-05 -4.91989e-06 -5.68275e-06 )  
( -3.65592e-05 3.7094e-06 -7.04933e-06 )  
( -0.000118591 1.38318e-05 1.72196e-05 )  
( -0.000209162 -2.80696e-05 9.34425e-06 )  
( -0.000146648 -1.95732e-05 2.21757e-05 )  
( -0.000256271 -3.51922e-05 2.28142e-05 )  
( -0.000340432 -6.00932e-06 3.62108e-05 )  
( -0.00020555 -4.95492e-06 6.10968e-06 )  
( -5.78138e-05 -2.65529e-05 -1.32039e-05 )  
( -0.000197725 -1.85023e-07 3.62984e-05 )  
( -0.000179802 -3.82664e-05 -1.7459e-05 )  
( -7.72173e-05 1.65992e-05 3.57189e-06 )  
( -0.000327784 -3.2426e-05 -7.10381e-06 )  
( -0.000424298 1.4406e-05 2.59311e-05 )  
( -0.000347381 1.1641e-05 -2.08447e-05 )  
( -0.000303124 -6.20823e-05 -2.9169e-06 )  
( -9.35059e-05 1.69485e-05 -6.81079e-06 )  
( -0.000167654 -2.24484e-05 -3.20713e-05 )  
( -5.66076e-06 -8.99016e-06 2.99165e-07 )  
( -0.000289792 -2.5301e-05 -2.44574e-05 )  
( -2.95381e-05 -8.44508e-06 -4.99942e-07 )  
( -0.000233536 3.82685e-05 -2.43699e-06 )  
( -0.000230308 -8.4308e-06 9.59046e-06 )  
( -0.00014516 -8.28048e-06 -2.15414e-05 )  
( -3.20402e-05 -5.91661e-06 3.1403e-06 )  
( -9.65115e-05 1.82667e-05 6.1829e-06 )  
( -0.00019461 3.57809e-05 3.45685e-06 )  
( -0.000219067 -2.8349e-05 1.01623e-05 )  
( -0.000330626 -6.17419e-05 -3.10239e-05 )  
( -6.4241e-05 7.16668e-06 5.42399e-06 )  
( -0.000111287 1.7564e-05 3.78232e-06 )  
( -0.000111331 8.38797e-06 1.35112e-06 )  
( -0.000241847 -4.0333e-05 1.05177e-05 )  
( -2.91534e-05 1.45296e-05 1.55195e-05 )  
( -0.000171117 1.45883e-05 2.28908e-05 )  
( -0.000194808 -3.2588e-05 -1.94797e-05 )  
( -0.000248832 -5.14754e-05 -1.15918e-05 )  
( -0.000147121 1.84498e-05 -2.93674e-05 )  
( -0.000151046 -7.33594e-06 -2.16034e-05 )  
( -0.000111626 -6.03502e-07 1.76626e-05 )  
( -0.000243373 -2.31735e-05 6.41655e-06 )  
( -0.000166703 -7.29782e-05 -4.66832e-05 )  
( -0.000375641 2.62858e-05 -9.55112e-06 )  
( -7.98112e-05 -1.92774e-05 6.26241e-06 )  
( -0.000398267 -4.98737e-05 -3.42659e-05 )  
( -2.28089e-05 -1.37721e-05 -4.99135e-06 )  
( -5.16682e-05 2.08296e-06 -7.65572e-07 )  
( -0.000181881 -2.12687e-05 -4.50528e-05 )  
( -0.000195701 1.36853e-05 3.01071e-05 )  
( -3.92598e-05 8.33487e-06 7.93112e-06 )  
( -0.000223775 -2.36379e-05 3.00358e-05 )  
( -0.000318924 -7.43536e-05 -4.90127e-05 )  
( -4.94302e-05 -1.33111e-06 -3.13514e-06 )  
( -4.34895e-05 -1.70349e-06 -6.05902e-06 )  
( -0.000194245 3.98053e-06 1.68349e-05 )  
( -0.000324128 -3.68894e-06 -8.09158e-05 )  
( -0.000157428 7.30264e-06 -1.81505e-05 )  
( -9.9793e-05 -1.37815e-05 -2.07166e-05 )  
( -0.000252783 1.45641e-06 9.38582e-07 )  
( -6.17126e-05 -1.51749e-05 -1.42179e-05 )  
( -0.000227077 -3.8448e-05 -2.03476e-05 )  
( -8.67995e-05 -1.42012e-05 -2.25182e-05 )  
( -0.000224452 -3.59204e-05 -1.71812e-06 )  
( -0.000278327 -3.52482e-05 4.09795e-05 )  
( -0.000282445 2.60356e-05 -2.45261e-05 )  
( -3.29094e-05 6.10462e-06 -4.76985e-06 )  
( -6.02869e-05 -7.59804e-06 -2.28687e-07 )  
( -0.000435581 -3.57215e-05 -6.14121e-05 )  
( -0.000330989 -4.69305e-05 -2.6428e-05 )  
( -5.8051e-05 7.98334e-05 1.29798e-06 )  
( -0.000108986 2.05137e-05 4.87946e-06 )  
( -0.000158196 6.51684e-06 5.72093e-06 )  
( -0.000249114 -1.00181e-05 -2.25851e-06 )  
( -9.53484e-05 -2.65108e-06 -5.21057e-08 )  
( -8.74521e-05 7.97593e-07 -2.35659e-06 )  
( -7.44316e-05 2.24218e-06 -6.81073e-06 )  
( -0.000376799 2.28208e-05 -1.47955e-05 )  
( -0.000275591 -4.42788e-05 8.96872e-06 )  
( -0.000135707 6.43866e-06 1.38567e-06 )  
( -0.000457868 -3.26084e-05 -4.29803e-06 )  
( -1.87223e-05 6.52447e-07 -1.2398e-06 )  
( -0.000110422 -3.01562e-06 -2.11252e-05 )  
( -0.000192995 8.94326e-06 -1.0593e-05 )  
( -0.000190204 9.41841e-05 1.7034e-05 )  
( -0.000130376 2.27364e-05 -1.59245e-05 )  
( -0.000200201 -4.2333e-05 -1.02678e-05 )  
( -2.22719e-05 7.64124e-06 -3.28757e-06 )  
( -8.70701e-05 -2.20937e-06 -2.51403e-05 )  
( -8.73509e-05 -1.19939e-05 -1.63193e-05 )  
( -0.000120499 5.06572e-06 -9.94861e-06 )  
( -0.0001282 -1.37651e-06 1.32628e-05 )  
( -7.85162e-05 7.95472e-06 -9.9128e-07 )  
( -0.000146664 -1.35737e-05 -1.55531e-05 )  
( -0.000149792 2.61841e-05 -2.53257e-06 )  
( -6.0996e-05 -5.16374e-08 -1.45986e-05 )  
( -4.43575e-05 -1.05925e-06 -8.62005e-06 )  
( -2.09465e-05 -4.26443e-06 -4.65943e-06 )  
( -0.000151215 -3.43584e-05 -3.39639e-06 )  
( -5.14714e-05 1.89893e-05 -1.11215e-06 )  
( -0.000124471 2.53532e-05 5.73559e-06 )  
( -0.000173261 -2.18019e-05 1.10279e-06 )  
( -0.000119983 -2.20868e-05 -3.77467e-05 )  
( -9.79304e-06 3.99909e-06 -7.65333e-06 )  
( -4.26452e-05 7.89858e-06 6.08298e-06 )  
( -0.000173336 -2.02923e-05 1.37202e-05 )  
( -9.21566e-05 1.50981e-05 -1.66185e-05 )  
( -0.000278988 9.88473e-06 -6.37913e-06 )  
( -0.000180167 -3.34949e-05 -2.33238e-05 )  
( -0.000123013 5.32795e-05 1.43305e-06 )  
( -9.12597e-05 -6.94323e-06 -4.63543e-05 )  
( -9.71097e-05 2.4787e-06 -1.53756e-05 )  
( -2.68412e-05 -7.75664e-06 -1.07552e-06 )  
( -8.71729e-06 -5.63085e-06 -1.80957e-06 )  
( -7.05405e-05 6.59585e-06 8.05072e-06 )  
( -0.000155063 1.8675e-05 -3.35705e-05 )  
( -4.33437e-05 3.65995e-06 -1.48848e-06 )  
( -0.000133296 -2.27016e-05 -1.29518e-05 )  
( -0.000203786 -2.14118e-05 -2.7431e-05 )  
( -0.000110059 -1.2088e-05 -2.48697e-05 )  
( -5.17309e-05 -2.12843e-05 -1.45777e-05 )  
( -4.70422e-05 2.40624e-05 -1.36049e-05 )  
( -7.67136e-05 3.70276e-06 4.55121e-06 )  
( -0.000184082 -3.04671e-05 -1.22498e-05 )  
( -9.16226e-06 7.06918e-06 -5.93589e-06 )  
( -7.9545e-05 -1.85784e-05 1.07994e-05 )  
( -6.28668e-05 1.47418e-06 -3.5911e-06 )  
( -2.86827e-05 1.58931e-05 3.38024e-06 )  
( -0.000177962 -1.40844e-05 2.09499e-05 )  
( -5.80065e-05 1.89293e-05 7.122e-06 )  
( -0.000123933 3.58858e-06 8.79524e-06 )  
( -2.79956e-05 6.38845e-06 -5.92459e-07 )  
( -0.000118882 -2.79012e-05 5.58875e-06 )  
( -9.71396e-05 7.81458e-06 1.71671e-05 )  
( -6.59791e-05 2.62101e-05 -1.39194e-05 )  
( -4.92864e-05 6.26439e-06 -9.28808e-07 )  
( -0.000133445 -1.58458e-06 6.33955e-06 )  
( -9.68437e-05 2.51317e-05 -6.89889e-06 )  
( -5.73053e-05 -9.33871e-07 -2.99431e-06 )  
( -2.95245e-05 -9.33389e-06 -4.8762e-06 )  
( -0.000136041 -2.3307e-05 9.24136e-06 )  
( -9.51394e-05 -7.76661e-06 -1.18128e-05 )  
( -0.000125573 8.33713e-06 3.42196e-06 )  
( -1.02073e-05 1.12621e-05 3.13444e-07 )  
( -3.57859e-06 -0.00102064 9.62188e-07 )  
( -3.75998e-05 4.31893e-06 -6.09124e-06 )  
( -9.11896e-05 -9.49929e-06 -1.60918e-05 )  
( -7.87056e-05 2.43092e-06 -3.52241e-06 )  
( -9.19003e-05 -3.61303e-06 1.26759e-07 )  
( -9.69334e-06 -2.91577e-06 -2.28921e-06 )  
( -5.97612e-05 -1.39295e-06 -1.43612e-05 )  
( -7.91833e-05 3.37779e-06 -7.08764e-06 )  
( -3.04509e-05 1.34053e-05 5.19292e-07 )  
( -9.90554e-05 -7.13548e-06 -2.03103e-05 )  
( -3.77991e-05 0.000207204 8.96363e-06 )  
( -6.94781e-05 7.57497e-07 -7.04869e-06 )  
( -1.3474e-05 -5.89559e-08 1.73517e-06 )  
( -9.19638e-05 4.5163e-06 -7.66035e-06 )  
( -0.000148088 -3.27635e-06 -1.33575e-05 )  
( -0.000121282 -8.46885e-06 1.7519e-06 )  
( -3.52801e-05 -5.80714e-06 1.40178e-06 )  
)
