/*--------------------------------*- C++ -*----------------------------------*\
| =========                 |                                                 |
| \\      /  F ield         | OpenFOAM: The Open Source CFD Toolbox           |
|  \\    /   O peration     | Version:  4.x                                   |
|   \\  /    A nd           | Web:      www.OpenFOAM.org                      |
|    \\/     M anipulation  |                                                 |
\*---------------------------------------------------------------------------*/
FoamFile
{
    version     2.0;
    format      ascii;
    class       volScalarField;
    location    "47.5";
    object      Qsource;
}
// * * * * * * * * * * * * * * * * * * * * * * * * * * * * * * * * * * * * * //

dimensions      [1 -1 -3 0 0 0 0];

internalField   nonuniform List<scalar> 
132
(
6.89434e+09
5.22142e+09
5.54987e+09
4.1793e+09
6.29342e+09
5.8798e+09
7.95428e+09
5.46072e+09
4.19974e+09
5.50741e+09
5.5634e+09
6.43318e+09
6.15443e+09
4.79815e+09
7.34634e+09
6.31152e+09
6.47357e+09
6.28012e+09
3.11678e+09
6.31995e+09
6.64303e+09
5.58739e+09
6.49359e+09
5.46782e+09
4.93869e+09
5.78031e+09
9.47597e+09
3.83778e+09
4.98313e+09
4.40783e+09
5.11603e+09
7.40211e+09
9.50975e+09
8.04978e+09
8.64296e+09
8.11702e+09
8.03992e+09
7.31295e+09
8.19907e+09
4.98232e+09
9.45783e+09
8.01677e+09
8.49924e+09
9.60418e+09
8.61403e+09
9.20117e+09
9.19276e+09
8.96936e+09
5.30173e+09
9.44789e+09
8.40856e+09
7.53151e+09
9.07335e+09
6.73744e+09
1.0515e+10
6.89063e+09
6.34518e+09
7.96381e+09
7.03711e+09
7.79631e+09
5.51139e+09
1.13179e+10
6.42075e+09
7.38903e+09
8.99072e+09
7.42529e+09
8.36539e+09
6.16173e+09
8.95381e+09
7.57631e+09
6.33794e+09
6.24758e+09
8.28152e+09
7.98926e+09
6.92347e+09
9.2805e+09
6.72115e+09
9.45423e+09
1.01858e+10
1.01436e+10
6.70872e+09
7.20676e+09
8.09288e+09
9.30448e+09
9.83522e+09
8.08019e+09
9.20623e+09
6.43996e+09
5.39439e+09
6.90557e+09
8.67109e+09
9.57568e+09
9.00247e+09
9.97668e+09
8.04149e+09
8.77914e+09
5.18827e+09
5.40085e+09
7.61489e+09
5.62365e+09
7.93986e+09
8.21818e+09
6.76382e+09
4.76749e+09
6.89949e+09
5.1368e+09
9.59552e+09
9.09281e+09
8.08624e+09
7.19958e+09
6.62606e+09
1.04298e+10
7.18191e+09
6.92871e+09
5.18865e+09
5.58417e+09
9.05236e+09
6.10253e+09
8.69502e+09
8.40127e+09
8.24283e+09
4.9445e+09
9.33351e+09
4.82809e+09
6.73323e+09
9.83444e+09
1.02325e+10
5.51459e+09
9.82805e+09
8.5685e+09
5.56475e+09
2.62062e+09
)
;

boundaryField
{
    inlet
    {
        type            calculated;
        value           uniform 0;
    }
    outlet
    {
        type            calculated;
        value           nonuniform 0();
    }
    wall
    {
        type            calculated;
        value           uniform 0;
    }
    procBoundary0to1
    {
        type            processor;
        value           nonuniform List<scalar> 
12
(
5.90943e+09
5.25009e+09
4.56014e+09
7.97849e+09
9.01881e+09
7.91359e+09
7.63829e+09
6.48335e+09
9.46446e+09
6.85859e+09
7.85764e+09
5.89894e+09
)
;
    }
    procBoundary0to2
    {
        type            processor;
        value           nonuniform List<scalar> 
44
(
7.66784e+09
6.5261e+09
3.65047e+09
6.94023e+09
4.27654e+09
5.60391e+09
6.66393e+09
7.35586e+09
7.66784e+09
7.01069e+09
7.66784e+09
6.5261e+09
9.84875e+09
1.23035e+10
6.6133e+09
1.12282e+10
4.73242e+09
7.93563e+09
9.59181e+09
9.1712e+09
9.84875e+09
8.88009e+09
9.84875e+09
1.23035e+10
8.07369e+09
9.29953e+09
6.86073e+09
5.73472e+09
6.74512e+09
6.85432e+09
6.75311e+09
7.66246e+09
8.07369e+09
9.81312e+09
8.07369e+09
9.29953e+09
4.89851e+09
9.48595e+09
1.03013e+10
7.15722e+09
8.24061e+09
6.27797e+09
7.58791e+09
7.50708e+09
)
;
    }
    procBoundary0to4
    {
        type            processor;
        value           nonuniform List<scalar> 
36
(
5.75119e+09
7.52666e+09
9.26289e+09
6.42035e+09
8.00648e+09
6.4482e+09
9.80368e+09
7.33295e+09
1.0523e+10
7.01806e+09
7.2982e+09
9.38931e+09
1.0043e+10
1.01172e+10
8.59464e+09
8.14429e+09
5.77714e+09
1.111e+10
6.68857e+09
1.02795e+10
8.31739e+09
9.37521e+09
8.12811e+09
6.31141e+09
7.3123e+09
1.03e+10
6.7443e+09
3.45807e+09
6.73287e+09
9.39923e+09
5.70844e+09
8.80502e+09
6.67618e+09
1.10316e+10
5.99411e+09
7.06847e+09
)
;
    }
    procBoundary0to6
    {
        type            processor;
        value           uniform 8.1137e+09;
    }
    procBoundary0to7
    {
        type            processor;
        value           uniform 1.0121e+10;
    }
}


// ************************************************************************* //
