/*--------------------------------*- C++ -*----------------------------------*\
| =========                 |                                                 |
| \\      /  F ield         | OpenFOAM: The Open Source CFD Toolbox           |
|  \\    /   O peration     | Version:  4.x                                   |
|   \\  /    A nd           | Web:      www.OpenFOAM.org                      |
|    \\/     M anipulation  |                                                 |
\*---------------------------------------------------------------------------*/
FoamFile
{
    version     2.0;
    format      ascii;
    class       volVectorField;
    location    "47.5";
    object      UsNext;
}
// * * * * * * * * * * * * * * * * * * * * * * * * * * * * * * * * * * * * * //

dimensions      [0 1 -1 0 0 0 0];

internalField   nonuniform List<vector> 
132
(
(-3.98285e-10 2.54663e-10 2.6004e-10)
(-4.43053e-10 5.10638e-10 5.86754e-10)
(3.92185e-09 2.93796e-09 1.41091e-09)
(1.77924e-09 -7.50495e-10 -7.99986e-10)
(-1.01945e-09 -2.57255e-10 -3.26325e-10)
(-7.28867e-10 -6.34059e-11 1.62535e-10)
(-7.11703e-10 2.68697e-10 7.52368e-10)
(-5.84955e-10 4.41653e-10 5.06404e-11)
(-3.10198e-10 9.44592e-11 4.4244e-10)
(-6.83928e-11 4.12146e-10 2.38625e-10)
(3.36209e-10 7.68519e-10 4.57732e-10)
(2.17177e-09 1.0856e-09 3.96841e-10)
(1.47821e-09 -1.16701e-09 -1.0099e-10)
(5.68023e-10 -7.34658e-10 -9.02593e-11)
(9.77164e-11 -2.56646e-10 3.09402e-10)
(8.74476e-10 -1.16424e-10 7.56397e-10)
(1.80037e-09 -1.399e-10 1.61015e-09)
(2.78734e-09 -2.26145e-09 3.86736e-09)
(2.74242e-10 4.32939e-10 2.23592e-10)
(5.38055e-10 4.45253e-10 2.8129e-10)
(1.05565e-09 5.32535e-10 2.77686e-10)
(8.56825e-10 -3.46539e-10 2.57811e-10)
(8.07129e-10 -5.12047e-10 2.8998e-10)
(9.39637e-10 -3.58416e-10 3.76736e-10)
(1.10163e-09 -2.59877e-10 7.30457e-10)
(1.86632e-09 -9.8179e-10 1.58167e-09)
(1.99765e-09 -1.93512e-09 2.30008e-09)
(1.42856e-10 3.12717e-10 1.27723e-10)
(4.11046e-10 1.32129e-10 1.84508e-10)
(4.59265e-10 -1.70958e-11 1.86465e-10)
(-1.83745e-10 1.82581e-10 5.10759e-10)
(1.91334e-10 3.50658e-10 9.91799e-10)
(1.25215e-09 2.87546e-10 1.27449e-09)
(1.78362e-09 -3.58377e-10 -1.24754e-09)
(2.16126e-10 -2.09125e-10 -6.38943e-10)
(-2.61111e-10 -8.10197e-11 1.96674e-11)
(-4.93885e-10 -1.17178e-10 4.93517e-10)
(9.81021e-11 1.6799e-10 -4.89341e-10)
(-1.74972e-09 -1.28656e-09 3.17867e-09)
(3.34841e-11 3.08239e-10 3.34862e-10)
(4.37305e-10 5.95878e-10 6.7867e-10)
(1.37353e-09 4.28958e-10 6.99985e-10)
(1.39995e-09 -3.91763e-10 -2.55635e-10)
(5.1324e-10 -5.38035e-10 -2.87961e-10)
(4.24218e-11 -2.55385e-10 1.60753e-10)
(-1.32242e-10 -1.79398e-11 6.31031e-10)
(6.63403e-11 -5.79768e-11 1.4666e-09)
(-7.66054e-10 4.26527e-10 4.65847e-09)
(9.4243e-11 2.70401e-10 1.89403e-10)
(4.60738e-10 4.4115e-10 3.36115e-10)
(7.82174e-10 2.30988e-10 2.72006e-10)
(8.61526e-10 -1.88199e-10 1.68557e-10)
(6.73863e-10 -3.43938e-10 1.66169e-10)
(6.59722e-10 -3.19374e-10 3.2972e-10)
(7.11681e-10 -2.20869e-10 7.48424e-10)
(6.39882e-10 -3.08257e-10 1.60474e-09)
(1.01869e-09 -3.0376e-10 2.88026e-09)
(1.35757e-10 2.22982e-10 1.39429e-10)
(2.96408e-10 1.90628e-10 1.69023e-10)
(3.71983e-10 1.10034e-10 2.81077e-10)
(5.0609e-10 -1.53266e-10 2.81304e-10)
(5.43009e-10 -3.05832e-10 4.2518e-10)
(5.83312e-11 7.80688e-11 3.84144e-10)
(2.35191e-10 9.14916e-11 5.54003e-10)
(6.11329e-10 6.15576e-11 5.37668e-10)
(5.51722e-10 -1.7822e-11 -1.45546e-10)
(2.94415e-10 -4.6889e-11 -2.44128e-10)
(-4.27671e-11 5.56628e-11 2.28448e-10)
(-3.23156e-10 -3.16521e-11 6.43141e-10)
(-1.26465e-10 4.28767e-11 5.06587e-10)
(-1.68612e-09 -6.37266e-10 4.13711e-09)
(9.63092e-11 1.36881e-10 3.5754e-10)
(3.13483e-10 1.70588e-10 5.4092e-10)
(6.41104e-10 7.14658e-11 4.88565e-10)
(7.39521e-10 -2.60771e-11 2.10696e-10)
(3.90331e-10 -1.40136e-10 -7.08757e-11)
(1.28603e-10 -1.52118e-10 2.83291e-10)
(-8.44679e-11 -1.00536e-10 6.65657e-10)
(-3.01671e-10 -9.31787e-11 1.33029e-09)
(-2.2107e-09 1.85411e-09 4.68509e-09)
(8.47212e-11 1.53817e-10 2.06468e-10)
(2.62862e-10 1.97679e-10 3.28349e-10)
(5.09748e-10 9.28985e-11 3.03079e-10)
(4.90055e-10 -4.15537e-11 2.36774e-10)
(5.59058e-10 -1.07863e-10 2.31731e-10)
(5.81888e-10 -5.12455e-11 4.88253e-10)
(1.79471e-10 -5.10519e-11 6.56249e-10)
(-1.60302e-11 4.89976e-10 1.57152e-09)
(-5.42011e-10 1.93183e-09 3.1643e-09)
(5.88004e-11 8.36005e-11 1.76814e-10)
(2.4128e-10 -9.19329e-12 2.67372e-10)
(2.94283e-10 -6.61873e-11 3.3962e-10)
(3.90991e-10 -1.6871e-10 3.71414e-10)
(5.33813e-10 -2.82609e-10 5.21332e-10)
(6.72967e-10 -1.58764e-10 5.29506e-10)
(9.05638e-10 1.32635e-10 6.98576e-10)
(5.78565e-11 6.25289e-11 2.36341e-10)
(1.98102e-10 4.79908e-11 2.95565e-10)
(3.23181e-10 6.15524e-12 2.64855e-10)
(2.74296e-10 2.94458e-11 1.17577e-10)
(2.3738e-10 -4.61461e-12 3.2291e-11)
(4.47998e-11 4.09009e-11 2.37315e-10)
(-1.18009e-10 1.01149e-10 4.20892e-10)
(-8.00318e-11 -2.66821e-11 1.15814e-09)
(-3.1016e-10 -2.33151e-10 2.86917e-09)
(7.65528e-11 4.91749e-11 2.44868e-10)
(2.41211e-10 8.9661e-11 3.45481e-10)
(3.74025e-10 5.62417e-11 3.19316e-10)
(5.15732e-10 3.92664e-11 2.43511e-10)
(4.21337e-10 8.63072e-11 1.60511e-10)
(2.89617e-10 7.13639e-11 3.77091e-10)
(1.4107e-10 1.60179e-10 5.89782e-10)
(-8.54246e-11 1.50358e-10 1.14448e-09)
(-5.59251e-10 5.42008e-10 1.94924e-09)
(1.45609e-10 1.50984e-10 2.56139e-10)
(2.91054e-10 1.04945e-10 2.72227e-10)
(4.49835e-10 9.99661e-11 2.72503e-10)
(6.50772e-10 1.00197e-10 2.70479e-10)
(7.3176e-10 1.76658e-10 3.3234e-10)
(8.84091e-10 1.03054e-10 5.46575e-10)
(8.04786e-10 2.95269e-10 6.79744e-10)
(5.27521e-10 5.30976e-10 1.36207e-09)
(2.46891e-10 9.78174e-10 2.13317e-09)
(6.17333e-11 4.97353e-11 1.81839e-10)
(3.29885e-10 -4.40347e-11 2.79369e-10)
(5.2316e-10 -5.45052e-11 2.12274e-10)
(1.06866e-09 -5.13268e-11 4.00569e-10)
(1.28876e-09 1.08373e-10 6.02394e-10)
(1.29073e-09 1.63261e-12 6.10027e-10)
(1.4306e-09 3.57572e-10 6.92828e-10)
(1.31927e-09 4.31511e-10 9.94515e-10)
(1.83856e-09 1.9571e-10 1.0945e-09)
)
;

boundaryField
{
    inlet
    {
        type            calculated;
        value           nonuniform List<vector> 
16
(
(-3.98285e-10 2.54663e-10 2.6004e-10)
(-6.83928e-11 4.12146e-10 2.38625e-10)
(2.74242e-10 4.32939e-10 2.23592e-10)
(1.42856e-10 3.12717e-10 1.27723e-10)
(-1.83745e-10 1.82581e-10 5.10759e-10)
(3.34841e-11 3.08239e-10 3.34862e-10)
(9.4243e-11 2.70401e-10 1.89403e-10)
(1.35757e-10 2.22982e-10 1.39429e-10)
(5.83312e-11 7.80688e-11 3.84144e-10)
(9.63092e-11 1.36881e-10 3.5754e-10)
(8.47212e-11 1.53817e-10 2.06468e-10)
(5.88004e-11 8.36005e-11 1.76814e-10)
(5.78565e-11 6.25289e-11 2.36341e-10)
(7.65528e-11 4.91749e-11 2.44868e-10)
(1.45609e-10 1.50984e-10 2.56139e-10)
(6.17333e-11 4.97353e-11 1.81839e-10)
)
;
    }
    outlet
    {
        type            calculated;
        value           nonuniform 0();
    }
    wall
    {
        type            calculated;
        value           nonuniform List<vector> 
66
(
(-3.98285e-10 2.54663e-10 2.6004e-10)
(-6.83928e-11 4.12146e-10 2.38625e-10)
(2.74242e-10 4.32939e-10 2.23592e-10)
(1.42856e-10 3.12717e-10 1.27723e-10)
(-4.43053e-10 5.10638e-10 5.86754e-10)
(3.36209e-10 7.68519e-10 4.57732e-10)
(5.38055e-10 4.45253e-10 2.8129e-10)
(4.11046e-10 1.32129e-10 1.84508e-10)
(3.92185e-09 2.93796e-09 1.41091e-09)
(2.17177e-09 1.0856e-09 3.96841e-10)
(1.05565e-09 5.32535e-10 2.77686e-10)
(4.59265e-10 -1.70958e-11 1.86465e-10)
(1.77924e-09 -7.50495e-10 -7.99986e-10)
(1.47821e-09 -1.16701e-09 -1.0099e-10)
(8.56825e-10 -3.46539e-10 2.57811e-10)
(-1.01945e-09 -2.57255e-10 -3.26325e-10)
(5.68023e-10 -7.34658e-10 -9.02593e-11)
(8.07129e-10 -5.12047e-10 2.8998e-10)
(-7.28867e-10 -6.34059e-11 1.62535e-10)
(9.77164e-11 -2.56646e-10 3.09402e-10)
(9.39637e-10 -3.58416e-10 3.76736e-10)
(-7.11703e-10 2.68697e-10 7.52368e-10)
(8.74476e-10 -1.16424e-10 7.56397e-10)
(1.10163e-09 -2.59877e-10 7.30457e-10)
(-5.84955e-10 4.41653e-10 5.06404e-11)
(1.80037e-09 -1.399e-10 1.61015e-09)
(1.86632e-09 -9.8179e-10 1.58167e-09)
(-3.10198e-10 9.44592e-11 4.4244e-10)
(2.78734e-09 -2.26145e-09 3.86736e-09)
(1.99765e-09 -1.93512e-09 2.30008e-09)
(-3.98285e-10 2.54663e-10 2.6004e-10)
(-1.83745e-10 1.82581e-10 5.10759e-10)
(5.83312e-11 7.80688e-11 3.84144e-10)
(5.78565e-11 6.25289e-11 2.36341e-10)
(-4.43053e-10 5.10638e-10 5.86754e-10)
(1.91334e-10 3.50658e-10 9.91799e-10)
(2.35191e-10 9.14916e-11 5.54003e-10)
(1.98102e-10 4.79908e-11 2.95565e-10)
(3.92185e-09 2.93796e-09 1.41091e-09)
(1.25215e-09 2.87546e-10 1.27449e-09)
(6.11329e-10 6.15576e-11 5.37668e-10)
(3.23181e-10 6.15524e-12 2.64855e-10)
(1.77924e-09 -7.50495e-10 -7.99986e-10)
(1.78362e-09 -3.58377e-10 -1.24754e-09)
(5.51722e-10 -1.7822e-11 -1.45546e-10)
(2.74296e-10 2.94458e-11 1.17577e-10)
(-1.01945e-09 -2.57255e-10 -3.26325e-10)
(2.16126e-10 -2.09125e-10 -6.38943e-10)
(2.94415e-10 -4.6889e-11 -2.44128e-10)
(2.3738e-10 -4.61461e-12 3.2291e-11)
(-7.28867e-10 -6.34059e-11 1.62535e-10)
(-2.61111e-10 -8.10197e-11 1.96674e-11)
(-4.27671e-11 5.56628e-11 2.28448e-10)
(4.47998e-11 4.09009e-11 2.37315e-10)
(-7.11703e-10 2.68697e-10 7.52368e-10)
(-4.93885e-10 -1.17178e-10 4.93517e-10)
(-3.23156e-10 -3.16521e-11 6.43141e-10)
(-1.18009e-10 1.01149e-10 4.20892e-10)
(-5.84955e-10 4.41653e-10 5.06404e-11)
(9.81021e-11 1.6799e-10 -4.89341e-10)
(-1.26465e-10 4.28767e-11 5.06587e-10)
(-8.00318e-11 -2.66821e-11 1.15814e-09)
(-3.10198e-10 9.44592e-11 4.4244e-10)
(-1.74972e-09 -1.28656e-09 3.17867e-09)
(-1.68612e-09 -6.37266e-10 4.13711e-09)
(-3.1016e-10 -2.33151e-10 2.86917e-09)
)
;
    }
    procBoundary0to1
    {
        type            processor;
        value           nonuniform List<vector> 
12
(
(9.7163e-09 7.18514e-09 2.56649e-08)
(3.42949e-09 -5.10512e-09 1.1462e-08)
(4.09081e-09 -6.49543e-09 4.6369e-09)
(-5.74061e-09 4.80905e-09 1.74314e-08)
(-3.18134e-09 7.54051e-10 1.21743e-08)
(1.65349e-09 -1.40713e-09 3.87111e-09)
(-1.08794e-09 1.94075e-10 3.44543e-09)
(-9.98791e-10 9.39087e-10 4.9934e-09)
(1.35669e-09 5.67594e-10 3.30247e-09)
(-1.6132e-11 2.50732e-10 2.17684e-09)
(7.15101e-11 6.30983e-10 2.37527e-09)
(1.25631e-09 4.56531e-10 2.02869e-09)
)
;
    }
    procBoundary0to2
    {
        type            processor;
        value           nonuniform List<vector> 
44
(
(6.13752e-10 -1.86021e-10 2.26363e-10)
(7.70403e-10 -2.88525e-10 4.59959e-10)
(1.11725e-09 -4.40901e-10 4.0613e-10)
(1.37723e-09 -4.27291e-10 6.68952e-10)
(2.01739e-09 -1.38278e-09 1.28716e-09)
(2.3354e-09 -2.16333e-09 1.52577e-09)
(1.08264e-10 6.95784e-11 2.74769e-11)
(2.26466e-10 -3.8005e-11 8.0164e-11)
(6.13752e-10 -1.86021e-10 2.26363e-10)
(3.66867e-10 -1.76121e-10 1.47853e-10)
(6.13752e-10 -1.86021e-10 2.26363e-10)
(7.70403e-10 -2.88525e-10 4.59959e-10)
(7.56717e-10 -3.02492e-10 4.36537e-10)
(9.4517e-10 -1.95871e-10 6.98337e-10)
(1.50859e-09 -7.32702e-10 1.08061e-09)
(1.82329e-09 -1.098e-09 1.43505e-09)
(7.60273e-11 3.83712e-11 -2.0164e-11)
(1.8763e-10 9.78637e-12 2.92063e-11)
(2.46629e-10 -7.69561e-11 9.3236e-11)
(3.07169e-10 -1.83633e-10 1.88591e-10)
(7.56717e-10 -3.02492e-10 4.36537e-10)
(3.77427e-10 -3.93702e-10 2.50068e-10)
(7.56717e-10 -3.02492e-10 4.36537e-10)
(9.4517e-10 -1.95871e-10 6.98337e-10)
(1.23876e-09 6.7871e-11 1.09577e-09)
(1.53806e-09 -6.59452e-11 1.46932e-09)
(8.05293e-11 -1.39888e-11 7.89836e-11)
(1.08061e-10 -7.11897e-11 1.3561e-10)
(1.41156e-10 -1.28076e-10 1.88376e-10)
(1.02173e-10 -1.95923e-10 3.00828e-10)
(1.74102e-10 -3.40621e-10 3.89536e-10)
(4.1184e-10 -1.80256e-10 2.98342e-10)
(1.23876e-09 6.7871e-11 1.09577e-09)
(6.04574e-10 -2.32367e-10 4.84482e-10)
(1.23876e-09 6.7871e-11 1.09577e-09)
(1.53806e-09 -6.59452e-11 1.46932e-09)
(6.86588e-11 -8.13456e-12 9.14028e-11)
(2.13308e-10 -1.35754e-10 2.16514e-10)
(2.60965e-10 -2.2161e-10 2.69166e-10)
(3.00731e-10 -2.19802e-10 2.78134e-10)
(3.97626e-10 -1.65406e-10 3.71065e-10)
(7.23917e-10 -1.48984e-10 3.44168e-10)
(9.4651e-10 5.89817e-12 4.67015e-10)
(1.63955e-09 4.92018e-11 4.80094e-10)
)
;
    }
    procBoundary0to4
    {
        type            processor;
        value           nonuniform List<vector> 
36
(
(4.19111e-11 2.49761e-11 1.19915e-10)
(1.24962e-10 4.32339e-11 1.13635e-10)
(2.00609e-10 3.63517e-11 9.46982e-11)
(2.41946e-10 5.19262e-11 1.0489e-10)
(2.56461e-10 1.08577e-10 6.41614e-11)
(1.7199e-10 8.92706e-11 1.44496e-10)
(1.41357e-10 2.60802e-11 3.14917e-10)
(7.36518e-11 1.43066e-10 5.63178e-10)
(-1.24505e-10 -1.15196e-11 9.12331e-10)
(6.42383e-11 2.33464e-11 1.34066e-10)
(2.29871e-10 1.21177e-11 1.32927e-10)
(3.34061e-10 2.98067e-11 1.62362e-10)
(3.68971e-10 2.54601e-11 1.7028e-10)
(4.43372e-10 5.56078e-11 2.04776e-10)
(4.73001e-10 4.8741e-11 2.93453e-10)
(3.26456e-10 5.88752e-11 5.17786e-10)
(1.52257e-10 2.72784e-10 8.33662e-10)
(3.32449e-10 1.91202e-10 1.26956e-09)
(8.82538e-11 4.48021e-11 1.2859e-10)
(2.91656e-10 8.47246e-11 1.87756e-10)
(5.011e-10 8.39191e-11 1.97418e-10)
(6.85307e-10 3.3391e-11 2.17609e-10)
(8.21912e-10 8.89141e-11 2.9809e-10)
(1.01659e-09 1.34319e-10 3.78828e-10)
(9.66402e-10 1.50598e-10 5.1378e-10)
(8.06645e-10 4.62058e-10 8.52113e-10)
(1.69115e-09 4.37209e-11 9.27478e-10)
(8.88886e-11 1.06635e-11 1.01947e-10)
(3.27933e-10 -6.02718e-11 1.28408e-10)
(6.11975e-10 -1.3013e-10 4.8045e-11)
(8.90594e-10 -1.09826e-10 1.2824e-10)
(1.26912e-09 8.40425e-12 2.54533e-10)
(1.55151e-09 8.43082e-11 4.05845e-10)
(1.95103e-09 7.07721e-11 4.74222e-10)
(2.15512e-09 2.70799e-10 4.79226e-10)
(2.27644e-09 2.69789e-10 6.78793e-10)
)
;
    }
    procBoundary0to6
    {
        type            processor;
        value           uniform (1.80601e-09 2.07022e-10 3.88399e-10);
    }
    procBoundary0to7
    {
        type            processor;
        value           uniform (2.60133e-09 1.20303e-10 1.38881e-09);
    }
}


// ************************************************************************* //
