/*--------------------------------*- C++ -*----------------------------------*\
| =========                 |                                                 |
| \\      /  F ield         | OpenFOAM: The Open Source CFD Toolbox           |
|  \\    /   O peration     | Version:  4.x                                   |
|   \\  /    A nd           | Web:      www.OpenFOAM.org                      |
|    \\/     M anipulation  |                                                 |
\*---------------------------------------------------------------------------*/
FoamFile
{
    version     2.0;
    format      ascii;
    class       volScalarField;
    location    "34";
    object      Cs;
}
// * * * * * * * * * * * * * * * * * * * * * * * * * * * * * * * * * * * * * //

dimensions      [1 -3 0 0 0 0 0];

internalField   nonuniform List<scalar> 
87
(
335
335
334.999
334.999
334.998
334.998
334.997
334.996
335.753
335
335
335
335
334.999
334.999
334.999
334.998
334.593
335
335
334.999
334.999
334.999
334.998
334.996
334.995
334.945
335
335
335
335
335
335
334.999
334.998
334.548
335
334.999
334.999
334.999
334.997
334.996
334.992
334.991
334.691
334.999
334.998
334.996
334.994
334.988
334.985
334.975
334.976
334.878
335
335
335
335
334.999
334.999
334.997
334.996
334.772
334.999
334.999
334.997
334.995
334.991
334.988
334.98
334.978
334.74
334.998
334.995
334.991
334.985
334.977
334.971
334.962
334.96
334.86
335
335
335
335
334.999
334.999
)
;

boundaryField
{
    inlet
    {
        type            calculated;
        value           nonuniform 0();
    }
    outlet
    {
        type            calculated;
        value           uniform 335;
    }
    wall
    {
        type            calculated;
        value           nonuniform List<scalar> 
57
(
335
335
335
335
335
335
334.999
335
334.999
334.999
335
334.999
334.998
334.999
334.999
334.998
334.999
334.998
334.997
334.999
334.996
334.996
334.998
334.995
335.753
334.593
334.945
335
335
335
335
335
335
335
335
334.999
335
335
335
334.999
335
335
334.998
335
334.999
334.998
335
334.999
334.997
334.999
334.997
334.996
334.998
334.996
335.753
334.548
334.772
)
;
    }
    procBoundary1to0
    {
        type            processor;
        value           nonuniform List<scalar> 
12
(
335
335
335
335
335
334.999
335
335
334.999
335
335
335
)
;
    }
    procBoundary1to3
    {
        type            processor;
        value           nonuniform List<scalar> 
27
(
335
335
334.999
334.998
334.997
334.996
334.994
334.993
335.091
334.999
334.999
334.997
334.994
334.99
334.985
334.976
334.975
334.809
334.998
334.995
334.988
334.979
334.968
334.959
334.946
334.947
334.867
)
;
    }
    procBoundary1to5
    {
        type            processor;
        value           nonuniform List<scalar> 
32
(
335
334.999
334.999
334.998
334.995
334.962
334.999
334.997
334.995
334.991
334.986
334.979
334.914
334.998
334.996
334.993
334.987
334.98
334.973
334.964
334.864
335
335
335
334.999
335
335
334.999
334.998
334.999
334.998
334.999
)
;
    }
    procBoundary1to7
    {
        type            processor;
        value           uniform 334.999;
    }
}


// ************************************************************************* //
