/*--------------------------------*- C++ -*----------------------------------*\
| =========                 |                                                 |
| \\      /  F ield         | OpenFOAM: The Open Source CFD Toolbox           |
|  \\    /   O peration     | Version:  4.x                                   |
|   \\  /    A nd           | Web:      www.OpenFOAM.org                      |
|    \\/     M anipulation  |                                                 |
\*---------------------------------------------------------------------------*/
FoamFile
{
    version     2.0;
    format      ascii;
    class       volScalarField;
    location    "34";
    object      magGField;
}
// * * * * * * * * * * * * * * * * * * * * * * * * * * * * * * * * * * * * * //

dimensions      [1 -2 -1 0 0 0 0];

internalField   nonuniform List<scalar> 
87
(
93.0144
141.551
94.9275
149.944
93.2797
165.11
83.1936
200.921
60.6193
79.5007
132.984
80.3692
139.331
76.7586
149.415
64.4918
170.312
43.0615
67.792
123.113
66.5714
127.749
62.781
136.759
56.0833
156.239
51.4502
58.6535
116.991
58.4051
120.805
55.1128
127.309
46.7994
141.4
34.2693
33.4519
105.313
31.2877
108.95
27.0507
114.359
25.1485
121.247
30.3616
12.5168
96.807
4.06174
97.0027
2.10882e-05
93.6773
3.99727
86.1931
38.59
52.6221
113.116
50.0736
116.74
45.3946
122.983
40.0878
132.399
38.4634
23.4003
100.647
21.907
104.591
21.4794
108.881
26.2414
115.959
37.3349
7.66395
93.1925
7.75321
94.1261
10.6979
94.0352
20.1381
89.8556
42.856
40.7728
100.443
31.8274
7.31137
88.5248
2.67138e-05
)
;

boundaryField
{
    inlet
    {
        type            calculated;
        value           nonuniform 0();
    }
    outlet
    {
        type            calculated;
        value           nonuniform List<scalar> 9(125.308 89.153 106.823 72.3803 64.0549 81.7135 82.0069 79.8397 91.9576);
    }
    wall
    {
        type            calculated;
        value           uniform 0;
    }
    procBoundary1to0
    {
        type            processor;
        value           nonuniform List<scalar> 
12
(
136.114
126.905
118.821
113.452
102.444
96.5002
109.768
97.6312
92.3258
102.124
90.1764
82.6044
)
;
    }
    procBoundary1to3
    {
        type            processor;
        value           nonuniform List<scalar> 
27
(
69.1451
125.35
69.4647
130.55
64.927
134.205
50.6128
135.613
32.4695
17.1008
99.2056
11.8858
100.45
7.53786
100.905
7.54436
98.7165
20.978
2.26405
88.7577
2.17491e-05
87.2931
2.45734e-05
84.386
6.37707e-05
75.2297
20.5127
)
;
    }
    procBoundary1to5
    {
        type            processor;
        value           nonuniform List<scalar> 
32
(
94.4759
17.4156
82.7555
3.86398
60.0698
6.17029
0.550985
87.2942
1.73201e-05
82.4826
0.437978
70.2112
16.1862
81.03
2.42578e-05
79.7237
1.68456e-05
76.8475
2.82105
69.1961
25.114
44.7938
106.425
94.4759
0.550985
43.0191
8.64621
0.550985
81.03
92.2585
81.03
0.000510354
)
;
    }
    procBoundary1to7
    {
        type            processor;
        value           uniform 2.22343e-05;
    }
}


// ************************************************************************* //
