/*--------------------------------*- C++ -*----------------------------------*\
| =========                 |                                                 |
| \\      /  F ield         | OpenFOAM: The Open Source CFD Toolbox           |
|  \\    /   O peration     | Version:  4.x                                   |
|   \\  /    A nd           | Web:      www.OpenFOAM.org                      |
|    \\/     M anipulation  |                                                 |
\*---------------------------------------------------------------------------*/
FoamFile
{
    version     2.0;
    format      ascii;
    class       volVectorField;
    location    "34";
    object      UsPrev;
}
// * * * * * * * * * * * * * * * * * * * * * * * * * * * * * * * * * * * * * //

dimensions      [0 1 -1 0 0 0 0];

internalField   nonuniform List<vector> 
87
(
(2.2414e-09 9.56358e-09 3.12747e-08)
(-9.38966e-08 1.15402e-06 1.14216e-07)
(-2.59307e-08 -4.04189e-10 1.95854e-08)
(-1.9192e-08 -7.41e-10 1.78927e-09)
(-1.05565e-08 1.3059e-09 1.63957e-09)
(-3.6416e-09 -1.44423e-09 -3.08456e-09)
(8.47191e-09 -4.21078e-09 -1.00171e-08)
(6.50239e-07 9.68022e-09 -4.80242e-08)
(3.38054e-07 -2.10794e-08 -6.93882e-08)
(-9.46277e-09 -5.66935e-09 1.60478e-08)
(-1.75488e-08 -8.12698e-09 2.9544e-08)
(-3.38567e-08 -9.26523e-09 1.22532e-08)
(-2.22046e-08 -2.1042e-09 2.3001e-09)
(-1.95198e-08 -2.52997e-09 -5.20016e-09)
(-1.0537e-08 -5.29842e-09 -6.34814e-09)
(-3.77171e-09 -7.76399e-09 -2.00756e-08)
(6.06269e-09 -1.24839e-08 -2.57295e-08)
(-3.86106e-09 -3.46951e-08 -4.3071e-08)
(-1.29228e-08 -6.59331e-09 1.39597e-08)
(-2.00281e-08 -8.8306e-09 1.75913e-08)
(-2.78527e-08 1.67267e-09 1.27845e-08)
(-2.1613e-08 -1.60402e-09 5.88292e-09)
(-1.87532e-08 -4.27666e-09 -3.94449e-09)
(-1.10318e-08 -5.43632e-09 -7.67737e-09)
(-2.19672e-09 -5.8158e-09 -1.75955e-08)
(1.07892e-08 2.37866e-09 -3.13227e-08)
(1.18586e-08 1.04112e-08 -2.84259e-08)
(-1.47647e-08 6.17352e-09 2.1985e-08)
(-8.84943e-09 3.33745e-09 4.92123e-08)
(-5.46543e-09 1.16957e-09 1.8432e-08)
(-4.1837e-09 -7.9985e-10 1.08327e-09)
(-5.0263e-09 3.23338e-10 4.62721e-10)
(-5.9375e-10 -1.11239e-09 -3.37705e-09)
(2.89966e-09 -1.20608e-09 -7.57005e-09)
(6.045e-09 -2.72933e-09 -1.67511e-08)
(2.48022e-09 -8.14852e-09 -2.51601e-08)
(-1.51843e-08 5.19439e-10 1.83185e-08)
(-1.48262e-08 -2.60958e-09 2.84163e-08)
(-1.12135e-08 6.21381e-10 1.60524e-08)
(-1.48118e-08 -2.10245e-09 2.85567e-09)
(-1.27259e-08 -2.35001e-09 -4.49707e-09)
(-7.61364e-09 -3.69844e-09 -8.68739e-09)
(-3.93697e-09 -2.85656e-09 -1.56618e-08)
(2.13536e-09 -1.57141e-09 -2.29231e-08)
(1.38537e-08 -8.87919e-09 -2.96228e-08)
(-1.11702e-08 -1.99917e-09 1.32799e-08)
(-1.45928e-08 -2.4556e-09 1.603e-08)
(-1.53188e-08 -3.66284e-09 1.22305e-08)
(-1.51672e-08 -3.76187e-09 5.04034e-09)
(-1.21441e-08 -3.89621e-09 -4.16045e-09)
(-7.64269e-09 -4.3301e-09 -1.02824e-08)
(-1.4679e-09 -2.44558e-09 -1.75345e-08)
(5.06308e-09 6.61681e-10 -2.56184e-08)
(2.95389e-09 -9.08251e-10 -2.43841e-08)
(-6.36305e-09 -1.02795e-10 6.3732e-09)
(-6.26283e-09 1.73584e-09 8.62074e-09)
(-5.4222e-09 1.82849e-09 1.10232e-08)
(-2.69881e-09 7.97569e-10 2.40589e-09)
(-2.31776e-09 6.93494e-10 1.68073e-10)
(-1.34667e-09 1.03764e-10 -2.90178e-09)
(-1.80815e-10 1.40158e-09 -5.03586e-09)
(-6.32055e-10 1.19219e-09 -6.86105e-09)
(2.5762e-09 -6.23138e-10 -1.13191e-08)
(-7.95178e-09 -1.52415e-10 1.0514e-08)
(-7.62276e-09 2.08058e-10 1.30601e-08)
(-6.75594e-09 1.85879e-09 1.36162e-08)
(-6.97239e-09 -1.12646e-09 5.31477e-09)
(-3.96586e-09 -9.92669e-10 -1.16056e-09)
(-2.20621e-09 -3.55388e-10 -5.69049e-09)
(-7.6634e-10 2.15371e-09 -1.14325e-08)
(7.36849e-10 -4.51083e-10 -1.44236e-08)
(9.18882e-10 2.23757e-10 -9.9505e-09)
(-5.55754e-09 -1.51157e-09 9.67813e-09)
(-6.78249e-09 -9.96297e-10 1.18711e-08)
(-7.1362e-09 1.6162e-09 1.05888e-08)
(-8.06353e-09 -3.79404e-10 5.4519e-09)
(-6.49514e-09 -1.26988e-09 -1.41204e-09)
(-3.90564e-09 -7.67087e-10 -7.55434e-09)
(-1.60566e-10 2.42897e-09 -1.45522e-08)
(-1.08091e-09 9.55182e-10 -1.5231e-08)
(2.38005e-11 1.01392e-09 -1.26666e-08)
(-4.16094e-09 -5.8679e-10 4.60368e-09)
(-2.94679e-09 6.38865e-10 3.73482e-09)
(-3.73062e-09 5.77497e-10 5.76326e-09)
(-6.84283e-09 -3.63013e-10 6.7247e-09)
(-6.22278e-09 5.00596e-10 9.85995e-09)
(-4.23828e-09 -8.79937e-10 7.56022e-09)
)
;

boundaryField
{
    inlet
    {
        type            calculated;
        value           nonuniform 0();
    }
    outlet
    {
        type            calculated;
        value           uniform (0 0 0);
    }
    wall
    {
        type            calculated;
        value           uniform (0 0 0);
    }
    procBoundary1to0
    {
        type            processor;
        value           uniform (0 0 0);
    }
    procBoundary1to3
    {
        type            processor;
        value           uniform (0 0 0);
    }
    procBoundary1to5
    {
        type            processor;
        value           uniform (0 0 0);
    }
    procBoundary1to7
    {
        type            processor;
        value           uniform (0 0 0);
    }
}


// ************************************************************************* //
