/*--------------------------------*- C++ -*----------------------------------*\
  =========                 |
  \\      /  F ield         | OpenFOAM: The Open Source CFD Toolbox
   \\    /   O peration     | Website:  https://openfoam.org
    \\  /    A nd           | Version:  4.x
     \\/     M anipulation  |
\*---------------------------------------------------------------------------*/
FoamFile
{
    version     2.0;
    format      ascii;
    class       vectorField;
    location    0;
    object      v;
}
// * * * * * * * * * * * * * * * * * * * * * * * * * * * * * * * * * * * * * //

348
(
( 2.41027e-09 1.35734e-09 2.18447e-09 )  
( 2.80644e-09 1.43832e-09 1.67625e-09 )  
( 3.44384e-09 1.10322e-09 1.35832e-09 )  
( 1.50813e-09 4.20231e-10 -1.88729e-09 )  
( 4.49747e-09 1.35562e-09 4.67439e-09 )  
( 5.90434e-10 -7.56461e-11 -9.23451e-10 )  
( 1.10958e-09 4.19946e-10 -3.91068e-09 )  
( 4.42812e-10 5.35801e-11 -5.77342e-10 )  
( 4.10053e-09 -8.73504e-11 2.0591e-09 )  
( 1.47235e-09 1.26155e-10 -1.58744e-09 )  
( 1.80328e-09 9.18823e-10 -1.14786e-09 )  
( 9.24391e-10 -2.72132e-10 -1.23571e-09 )  
( 1.63488e-09 -2.9504e-10 1.33408e-09 )  
( 2.07848e-09 5.92725e-10 -1.26373e-09 )  
( 1.16289e-09 6.39757e-10 -1.84954e-09 )  
( 3.80123e-09 1.23548e-09 4.82793e-09 )  
( 2.70452e-09 -5.52172e-10 1.35878e-09 )  
( 1.76232e-09 3.31444e-11 -7.6395e-10 )  
( 3.0442e-09 1.30078e-09 6.61414e-09 )  
( 5.12467e-09 1.62079e-09 1.82497e-09 )  
( 2.46627e-09 -3.13277e-10 -5.91205e-11 )  
( 2.73251e-09 1.46605e-09 5.40241e-09 )  
( 5.0737e-09 1.86624e-09 5.13645e-09 )  
( 3.76032e-09 4.53362e-11 4.85393e-09 )  
( 1.93133e-09 4.43636e-11 6.91397e-10 )  
( 4.36453e-09 8.52149e-10 1.26688e-09 )  
( 6.99837e-10 6.85809e-10 -2.51739e-10 )  
( 4.51423e-10 -1.05647e-10 -6.65251e-10 )  
( -1.77471e-09 1.07369e-09 -3.86791e-09 )  
( 3.6881e-09 -2.48202e-10 7.51741e-10 )  
( 2.78697e-09 3.65203e-10 -1.51169e-09 )  
( 1.00686e-09 -1.03968e-10 -1.21501e-09 )  
( 2.7883e-09 6.08098e-10 2.89026e-09 )  
( 8.39169e-10 -1.13017e-10 1.26354e-10 )  
( 3.35836e-09 -7.19004e-10 2.66249e-09 )  
( 2.06539e-09 6.97479e-10 -5.82414e-10 )  
( 1.55584e-09 -3.1077e-10 -4.54458e-10 )  
( 1.23526e-09 1.57494e-10 -9.1741e-10 )  
( 4.65171e-09 7.87812e-10 3.74002e-09 )  
( 2.12257e-09 4.06415e-10 -9.78502e-10 )  
( 2.12551e-09 2.03555e-10 -1.35918e-09 )  
( 1.30275e-09 -2.18353e-10 -2.05163e-09 )  
( 3.05129e-09 5.93613e-10 -4.191e-10 )  
( 5.48486e-09 7.35561e-10 6.06028e-09 )  
( 4.16168e-09 2.42746e-09 3.73452e-09 )  
( 1.76505e-09 -3.76172e-10 1.06166e-09 )  
( 4.20661e-09 1.67273e-09 7.10509e-09 )  
( 3.39964e-09 3.29839e-10 8.78105e-11 )  
( 3.23869e-09 1.11532e-10 4.32768e-10 )  
( 8.72722e-09 6.57087e-09 7.5216e-10 )  
( 5.69251e-09 1.80579e-09 1.35499e-08 )  
( 2.79867e-09 4.9264e-10 -1.44632e-10 )  
( 1.68521e-09 -3.79287e-10 5.09455e-10 )  
( 1.00851e-09 1.51066e-09 -1.26896e-09 )  
( 3.35024e-09 1.83314e-10 -2.56216e-10 )  
( -3.69579e-10 8.56576e-10 1.00952e-09 )  
( 5.20923e-10 -9.83922e-11 -6.46316e-10 )  
( 1.27385e-09 8.66178e-11 -7.46258e-11 )  
( 4.39307e-09 7.48e-10 2.20932e-09 )  
( 1.89673e-10 2.34372e-12 -4.22699e-10 )  
( 8.11974e-10 4.89977e-10 -1.6143e-09 )  
( 7.65133e-10 8.20141e-10 -8.30381e-10 )  
( 3.47371e-10 -3.92547e-11 -1.93216e-09 )  
( 5.36739e-10 3.47574e-10 -3.37839e-10 )  
( 6.74378e-10 8.72011e-11 -4.95221e-10 )  
( 1.65457e-09 8.4963e-10 -1.48478e-09 )  
( 2.12778e-09 6.55737e-10 -9.70846e-10 )  
( 2.37989e-09 4.79386e-10 -5.71497e-10 )  
( 4.92082e-09 1.93071e-09 2.12914e-09 )  
( 5.97643e-09 1.86521e-09 5.37028e-09 )  
( 3.96263e-09 8.47716e-10 2.93804e-10 )  
( 1.66542e-09 1.26055e-09 3.50382e-09 )  
( 1.17953e-09 7.02171e-10 -1.83187e-09 )  
( 4.40209e-09 1.36302e-09 1.21446e-09 )  
( 2.18915e-09 8.55478e-10 2.55968e-09 )  
( 2.87904e-09 -1.40398e-10 2.99358e-10 )  
( 1.53298e-09 8.48917e-10 -1.15695e-09 )  
( 2.31418e-09 3.29107e-10 -2.99495e-10 )  
( 4.14929e-09 1.53492e-09 4.95843e-09 )  
( 4.73878e-09 1.67574e-09 5.06447e-09 )  
( 8.43074e-10 -2.78105e-10 -9.2855e-10 )  
( 3.20739e-09 1.15423e-10 5.81015e-10 )  
( 3.36214e-09 2.60794e-10 1.05195e-09 )  
( 4.85577e-09 2.89646e-09 7.03988e-09 )  
( 8.45691e-10 1.11264e-10 -1.68581e-09 )  
( -1.68052e-10 4.8364e-10 -1.23835e-09 )  
( -7.92328e-10 -1.71774e-10 -6.51668e-09 )  
( 3.9207e-09 7.76937e-10 3.85769e-09 )  
( 3.11557e-09 -3.6312e-10 1.3933e-09 )  
( 7.6964e-10 6.85107e-12 -1.84055e-09 )  
( 1.52568e-09 -3.15512e-10 7.56827e-10 )  
( 2.66492e-09 -5.9286e-11 1.92761e-09 )  
( 1.22755e-09 5.16042e-10 -1.77802e-09 )  
( 3.14973e-09 9.42057e-10 2.67997e-09 )  
( 5.78292e-09 6.01949e-10 4.07695e-09 )  
( 5.12555e-10 -3.2981e-10 -4.43136e-10 )  
( 2.75709e-10 -3.40468e-10 -1.17701e-10 )  
( 4.35789e-09 1.27967e-09 2.9962e-09 )  
( 7.54205e-10 -7.9368e-11 -4.03724e-10 )  
( 2.61159e-09 5.18636e-10 -5.33758e-10 )  
( 1.33516e-09 3.48997e-10 -1.68593e-09 )  
( 2.40727e-09 -5.96087e-10 -4.96453e-09 )  
( 3.1498e-09 1.48769e-10 1.75305e-11 )  
( 2.32145e-09 1.9915e-10 7.36311e-10 )  
( 1.1746e-09 2.80027e-10 -1.06758e-09 )  
( 4.53028e-09 1.44248e-09 2.39878e-09 )  
( 1.49192e-09 -5.24989e-11 -1.62385e-09 )  
( 3.99597e-09 7.43357e-10 6.04416e-10 )  
( -5.40652e-10 5.93409e-10 1.23098e-09 )  
( 1.57245e-09 1.34529e-10 4.02178e-10 )  
( 1.56076e-09 6.96694e-10 -1.50488e-09 )  
( 4.60207e-10 -6.38301e-11 9.90811e-10 )  
( 1.43263e-09 -3.34526e-10 4.05695e-10 )  
( 4.53783e-09 2.91293e-10 2.41177e-09 )  
( 1.17154e-09 -1.1924e-10 -3.01768e-10 )  
( 1.12242e-09 2.624e-10 -1.01907e-09 )  
( 2.97871e-09 1.40917e-10 2.6839e-10 )  
( 1.18227e-09 4.73264e-11 -8.82583e-10 )  
( 5.12734e-10 6.57496e-10 -1.32355e-09 )  
( 3.52052e-09 9.03143e-10 1.49205e-09 )  
( -4.1207e-10 7.13243e-10 -3.67857e-09 )  
( 1.98781e-09 8.70451e-10 -1.20657e-09 )  
( 4.69168e-10 -7.12879e-10 -5.68458e-10 )  
( 3.45978e-09 -3.4599e-10 2.19246e-09 )  
( 1.90525e-09 2.57611e-10 3.14469e-09 )  
( 3.33346e-09 8.74653e-10 1.23087e-09 )  
( 3.86827e-10 5.27881e-10 2.75428e-10 )  
( 3.11138e-09 3.41465e-10 1.81682e-10 )  
( 1.22167e-09 -8.37357e-11 -3.37897e-10 )  
( 1.03896e-09 8.8192e-10 -1.06203e-09 )  
( 2.70484e-09 -5.82222e-10 1.00549e-09 )  
( 1.03579e-09 -8.91305e-11 1.83972e-10 )  
( 1.53122e-10 -1.65612e-10 -2.66337e-10 )  
( 3.06501e-09 1.18876e-09 1.34357e-09 )  
( 3.23673e-09 4.72005e-10 1.70531e-09 )  
( 3.74051e-09 7.84708e-10 9.38361e-10 )  
( -5.44307e-10 1.53524e-09 -6.31246e-10 )  
( 9.85421e-10 -1.60965e-10 5.5985e-10 )  
( 3.06706e-09 3.1446e-10 2.0652e-10 )  
( 1.01349e-09 8.61207e-10 -2.01632e-09 )  
( 1.45559e-09 -1.60316e-10 1.4145e-09 )  
( 3.69844e-10 -1.57171e-10 -9.28706e-10 )  
( -2.88184e-10 1.04132e-09 -8.49798e-11 )  
( 3.04937e-09 7.12884e-09 -9.77098e-09 )  
( 1.24538e-09 2.29397e-09 2.55843e-09 )  
( 1.59163e-09 -7.41238e-11 1.91945e-09 )  
( 3.16404e-09 1.69237e-10 3.55942e-10 )  
( 1.24222e-09 -2.9267e-10 2.50911e-10 )  
( 8.54318e-10 2.35257e-10 -8.94114e-10 )  
( 2.93423e-09 9.348e-11 4.27344e-10 )  
( 1.61711e-09 2.29558e-09 -1.90953e-09 )  
( 6.46947e-10 1.08243e-10 4.05113e-10 )  
( -1.22146e-09 4.16933e-09 -2.83929e-09 )  
( 1.35675e-09 -5.164e-10 1.35596e-09 )  
( 2.36709e-09 9.87657e-10 1.87522e-10 )  
( 4.00491e-10 1.34342e-09 -1.34238e-09 )  
( 1.87717e-09 2.30277e-09 -1.16084e-09 )  
( -6.53786e-10 -5.22396e-11 -5.91783e-10 )  
( 3.88557e-09 3.95534e-10 9.75168e-10 )  
( -4.90544e-10 2.86724e-09 -1.40281e-09 )  
( 1.22082e-09 5.98664e-10 6.75618e-10 )  
( 2.25148e-09 7.75393e-10 -4.27449e-11 )  
( 2.42617e-09 2.75264e-10 -1.13733e-10 )  
( 3.44199e-09 5.41585e-10 6.0157e-10 )  
( 3.55776e-09 1.08081e-09 5.37451e-11 )  
( 2.70315e-09 2.99526e-10 -1.12714e-10 )  
( -1.22355e-10 1.20193e-09 -5.29256e-10 )  
( 2.88734e-09 1.15906e-09 2.18831e-09 )  
( 3.24398e-09 -5.3184e-10 1.87555e-09 )  
( 2.64062e-09 2.86321e-10 2.59271e-10 )  
( 1.61225e-09 1.9738e-09 2.19957e-09 )  
( 2.46161e-09 8.57195e-10 2.32887e-09 )  
( 1.77981e-09 2.08871e-09 1.70305e-09 )  
( 1.53421e-09 6.69599e-10 -1.44911e-10 )  
( 1.6822e-10 1.48484e-09 -1.77597e-09 )  
( 2.83283e-10 1.27134e-10 -3.40379e-10 )  
( 3.31492e-09 1.0418e-09 7.80815e-10 )  
( 2.68507e-09 1.99437e-10 6.24732e-10 )  
( 1.44361e-09 6.68416e-10 -1.07472e-09 )  
( 2.51285e-09 -2.69917e-10 1.88358e-09 )  
( 3.23385e-09 -1.91892e-11 8.66159e-10 )  
( 4.11198e-09 1.82875e-09 -2.03834e-09 )  
( 7.76119e-10 3.27976e-10 8.62567e-10 )  
( 3.05729e-09 4.55988e-11 7.42047e-10 )  
( 2.26699e-09 -4.16597e-11 2.15138e-09 )  
( 2.50014e-09 8.37162e-10 -1.33684e-09 )  
( 5.89629e-10 7.29212e-10 -1.15743e-09 )  
( 3.33206e-09 8.80528e-10 1.12377e-09 )  
( 4.16351e-09 1.05818e-09 3.9317e-09 )  
( 7.28202e-10 3.79656e-10 6.90864e-10 )  
( -1.03779e-10 1.63637e-09 -1.17003e-09 )  
( 2.07025e-09 5.21113e-10 3.21522e-10 )  
( 1.98476e-09 2.36593e-10 -7.33215e-10 )  
( 2.24263e-09 7.12085e-10 -1.98469e-10 )  
( 1.9633e-09 3.08539e-10 -1.34584e-09 )  
( 1.22452e-09 3.99758e-10 6.32549e-10 )  
( 2.37113e-09 -2.3963e-10 3.0776e-09 )  
( -6.45399e-10 2.05988e-09 -2.95539e-10 )  
( 1.48813e-09 1.69418e-10 1.85946e-09 )  
( 2.61214e-09 -3.04596e-10 -8.41279e-09 )  
( 1.31459e-09 -9.95461e-11 3.97519e-10 )  
( -3.58601e-10 8.27163e-10 -4.05132e-10 )  
( 3.00046e-09 8.55043e-10 9.30979e-11 )  
( -2.80527e-10 1.36e-09 -1.28271e-09 )  
( 4.01605e-09 6.73473e-10 1.10319e-09 )  
( 3.52947e-09 1.07884e-09 3.74796e-09 )  
( 1.2141e-09 3.19891e-10 1.17372e-09 )  
( 4.35494e-10 -3.22716e-11 2.14399e-10 )  
( 3.04741e-09 1.5193e-10 2.20477e-09 )  
( 1.89994e-10 -1.50881e-10 -4.50852e-10 )  
( 1.91355e-09 8.04076e-11 -7.60162e-10 )  
( 3.77345e-09 1.95553e-10 1.30768e-09 )  
( 2.22983e-09 -3.05828e-11 -2.10794e-10 )  
( 2.58735e-09 4.91279e-10 7.58848e-11 )  
( 1.13792e-09 -5.4793e-12 4.3383e-10 )  
( 7.67602e-09 -1.92476e-09 -1.30549e-08 )  
( 1.36116e-09 -5.08906e-10 6.1129e-10 )  
( 3.38059e-10 8.07334e-10 6.32624e-10 )  
( 3.93136e-09 9.80602e-10 2.64846e-09 )  
( 8.99342e-10 8.51525e-10 9.20087e-11 )  
( 1.1098e-09 9.06451e-11 2.87665e-10 )  
( 6.52362e-10 -3.67674e-10 -3.82512e-10 )  
( 3.07087e-10 2.67562e-11 -1.19806e-09 )  
( 1.18221e-10 2.91981e-09 -2.40818e-09 )  
( -4.43208e-09 -2.90723e-09 1.58678e-10 )  
( 2.1012e-09 4.39072e-10 -8.39236e-10 )  
( -1.66199e-09 4.2008e-10 -2.00021e-09 )  
( 1.16685e-09 8.54748e-10 7.13926e-11 )  
( 3.43376e-09 7.8539e-10 1.36841e-09 )  
( 6.1895e-10 2.94214e-09 1.95704e-10 )  
( 2.24862e-09 -4.01407e-12 1.04338e-09 )  
( 2.70745e-09 4.22467e-10 -8.54421e-11 )  
( 1.16602e-09 7.57986e-10 1.97552e-09 )  
( 6.90592e-10 3.00912e-11 6.62988e-10 )  
( 7.32243e-10 1.82213e-10 6.77783e-10 )  
( 1.78277e-09 5.69092e-10 7.74437e-11 )  
( 2.15145e-09 7.17606e-10 -3.28969e-10 )  
( -3.42881e-10 2.57915e-09 -1.85709e-09 )  
( 6.59823e-10 9.86719e-10 -5.93126e-10 )  
( 2.96245e-09 5.00751e-11 1.03235e-09 )  
( 2.9235e-09 9.67323e-10 6.55461e-10 )  
( 2.98264e-09 2.34466e-10 2.82961e-09 )  
( 2.13501e-09 1.21908e-09 2.24937e-09 )  
( 3.71266e-09 9.42554e-10 7.18035e-10 )  
( 2.5173e-09 8.45018e-10 3.02685e-10 )  
( -1.53158e-10 2.09358e-09 -2.14505e-09 )  
( 1.64196e-09 4.47169e-10 1.34175e-11 )  
( 2.7907e-09 3.9936e-09 -9.37626e-09 )  
( 3.3034e-11 2.91493e-09 -1.74679e-09 )  
( 2.41406e-09 -1.95659e-10 -2.312e-11 )  
( 3.34891e-09 5.5332e-10 5.48036e-10 )  
( 1.86717e-11 1.61743e-09 -7.93328e-10 )  
( 2.01757e-09 -8.34501e-10 6.80888e-10 )  
( 1.19e-09 1.04811e-09 -7.27754e-10 )  
( -1.75204e-09 1.60767e-09 -3.11138e-09 )  
( 3.21673e-09 8.37213e-10 7.16431e-10 )  
( 7.2915e-10 7.62806e-10 -9.01917e-10 )  
( 8.39929e-10 -7.25676e-11 6.81829e-10 )  
( 1.11623e-09 7.60072e-10 2.16624e-10 )  
( 2.43229e-09 -2.29876e-10 1.2625e-10 )  
( 2.11571e-09 4.51716e-10 -7.95297e-11 )  
( 2.47954e-09 1.09199e-09 -3.1668e-10 )  
( 2.97189e-09 -2.91702e-11 9.86107e-10 )  
( 1.3275e-09 2.89471e-10 2.36065e-10 )  
( 1.43909e-10 5.44209e-09 -1.7224e-09 )  
( 1.45886e-09 5.16122e-10 2.88331e-10 )  
( 1.75601e-09 6.34354e-10 -6.71089e-11 )  
( 8.96702e-10 -3.60542e-11 8.20954e-10 )  
( -1.14666e-09 1.23595e-11 -1.04373e-10 )  
( 4.09313e-09 4.73451e-10 2.46343e-09 )  
( 3.85303e-10 1.47884e-09 5.70317e-10 )  
( 6.06848e-10 1.02788e-09 -1.29017e-10 )  
( 3.4772e-09 6.85164e-10 3.22471e-10 )  
( -9.15136e-10 3.57551e-09 -5.2711e-10 )  
( 1.25788e-09 -1.0184e-09 2.13093e-09 )  
( 6.7267e-10 1.45993e-10 -1.53938e-11 )  
( 2.39903e-09 5.03949e-10 7.50967e-10 )  
( 1.02789e-09 2.56651e-10 5.23771e-11 )  
( 1.56974e-09 8.11335e-10 -1.79726e-10 )  
( 1.04964e-09 -7.1005e-10 -2.29924e-10 )  
( 3.33914e-09 7.7456e-10 7.79418e-10 )  
( 1.09413e-09 7.03275e-10 1.47952e-10 )  
( 3.3961e-09 6.27096e-10 9.77328e-10 )  
( 1.82597e-09 7.92134e-10 2.42289e-10 )  
( 9.65022e-10 -2.41301e-10 1.79736e-10 )  
( 5.31774e-10 6.52891e-10 -6.38302e-11 )  
( -6.82249e-11 1.36571e-09 -1.69197e-10 )  
( 6.32768e-10 1.15543e-09 -1.06422e-09 )  
( -4.19682e-10 6.043e-11 -3.59451e-10 )  
( 2.50962e-10 9.22712e-11 -3.35399e-11 )  
( 1.17247e-09 -8.69963e-12 -3.08118e-11 )  
( 6.33729e-10 3.60399e-11 4.21621e-10 )  
( 1.27234e-10 -1.59051e-09 -2.38857e-10 )  
( 1.1804e-09 -4.73171e-10 -1.13171e-10 )  
( -3.73191e-09 2.31332e-09 -3.76388e-09 )  
( 6.46192e-10 5.11422e-10 3.04277e-10 )  
( -5.98097e-11 1.92957e-09 -1.06461e-09 )  
( 2.27177e-09 6.36859e-10 -1.51403e-11 )  
( 8.79328e-10 4.70816e-10 6.44599e-12 )  
( 1.56636e-09 1.10539e-08 -1.12627e-08 )  
( 2.09343e-10 2.13017e-11 3.15537e-10 )  
( 8.51056e-10 4.08535e-10 1.69868e-10 )  
( 1.34713e-09 3.15512e-10 -5.2828e-10 )  
( 1.18566e-09 -1.04958e-10 3.2888e-10 )  
( 1.2015e-09 -3.84278e-10 -5.03274e-11 )  
( 3.48035e-10 6.10244e-10 -1.28108e-10 )  
( 1.13292e-09 1.30187e-12 -1.30774e-10 )  
( -2.41111e-10 1.46006e-09 1.0801e-10 )  
( -1.79149e-09 8.84256e-10 -2.71288e-10 )  
( 1.86518e-09 5.72263e-10 2.4233e-10 )  
( 2.48998e-09 7.12523e-10 -2.16598e-10 )  
( 3.25651e-10 3.84209e-09 -1.41223e-09 )  
( 3.94198e-09 3.26373e-08 -2.56489e-10 )  
( 5.23055e-10 7.62355e-11 -1.23183e-10 )  
( 3.60714e-10 -3.07789e-10 -1.19653e-10 )  
( 9.6144e-10 -3.37069e-11 -6.79497e-11 )  
( 3.29241e-10 2.17018e-10 -1.35678e-10 )  
( 2.78595e-09 7.07488e-09 -1.94938e-09 )  
( 1.22027e-09 4.48823e-10 3.20729e-10 )  
( 9.869e-10 3.35535e-10 1.18e-10 )  
( 6.56156e-10 2.78756e-10 -5.18673e-11 )  
( 2.77863e-10 -4.78296e-11 9.44406e-10 )  
( 1.75604e-09 1.91317e-10 1.14952e-10 )  
( 4.98502e-09 -1.9468e-09 4.02247e-10 )  
( 1.93204e-10 2.04847e-11 1.5436e-10 )  
( 7.78673e-10 5.5208e-10 5.50575e-11 )  
( -3.20138e-09 1.06682e-09 -7.7625e-10 )  
( 1.34284e-09 -3.79412e-09 -4.75047e-10 )  
( -1.07628e-10 6.80208e-11 3.83641e-10 )  
( 1.12328e-09 -3.76618e-10 4.0969e-10 )  
( -1.31214e-09 1.45599e-09 -1.04454e-09 )  
( -4.38412e-12 2.03178e-09 -1.18934e-09 )  
( 1.26429e-10 9.39605e-10 -3.60278e-10 )  
( 4.37297e-10 3.8964e-11 -1.38476e-10 )  
( 1.85238e-10 1.96007e-09 1.91769e-10 )  
( 4.68152e-10 3.96829e-10 6.53111e-11 )  
( 7.8913e-10 -1.26681e-10 1.97075e-10 )  
( -2.50609e-11 2.01745e-09 3.57799e-10 )  
( -6.30701e-10 1.24214e-09 2.24802e-10 )  
( 2.33987e-10 2.25942e-10 1.21462e-10 )  
( 2.10676e-09 2.59371e-10 4.35137e-11 )  
( 2.6391e-10 7.53977e-11 -3.95852e-10 )  
( 2.33697e-09 8.38868e-09 -6.78797e-09 )  
( 5.24781e-10 -4.24083e-11 2.74893e-11 )  
( -5.41164e-10 2.29702e-09 -1.48681e-09 )  
( 3.93022e-10 2.16022e-10 4.94212e-10 )  
( 4.01995e-10 1.33676e-11 6.67017e-11 )  
( 8.68386e-10 8.15892e-11 -2.96069e-10 )  
)
