/*--------------------------------*- C++ -*----------------------------------*\
| =========                 |                                                 |
| \\      /  F ield         | OpenFOAM: The Open Source CFD Toolbox           |
|  \\    /   O peration     | Version:  4.x                                   |
|   \\  /    A nd           | Web:      www.OpenFOAM.org                      |
|    \\/     M anipulation  |                                                 |
\*---------------------------------------------------------------------------*/
FoamFile
{
    version     2.0;
    format      ascii;
    class       volScalarField;
    location    "46.5";
    object      KslPrev;
}
// * * * * * * * * * * * * * * * * * * * * * * * * * * * * * * * * * * * * * //

dimensions      [1 -3 -1 0 0 0 0];

internalField   nonuniform List<scalar> 
87
(
3788.1
12716.2
3492.13
3223.8
6629.2
3132.17
3574.56
12583.7
3857.84
27680
3991.61
157089
4030.76
1e+10
4014.42
3484.63
10770
3683.66
15695.4
3786.1
26215.7
3824.63
68304.5
3821.76
3370.3
8147.56
3393.5
7986.95
3429.23
8363.26
3425.76
8988.94
3443.48
3515.24
10620.9
3702.58
14953
3752.1
22881.5
3784.52
43322.8
3755.2
3439.48
9111.14
3562.66
10074.5
3591.85
11216.1
3614.84
13170.1
3566.39
3358.81
7537.23
3298.52
6929.34
3263.25
6629.88
3221.17
6485.69
3159.29
3426.91
8075.27
3455.59
8040.04
3412.75
8025.69
3403.26
8316.46
3322.39
3368.88
7562.54
3342.27
7050.83
3289.58
6758.24
3256.91
6675.12
3179.33
3315.46
6967.74
3197.13
6010.94
3065.56
5477.99
3014.79
5230.98
2963.7
)
;

boundaryField
{
    inlet
    {
        type            zeroGradient;
    }
    outlet
    {
        type            zeroGradient;
    }
    wall
    {
        type            zeroGradient;
    }
    procBoundary6to0
    {
        type            processor;
        value           uniform 0;
    }
    procBoundary6to2
    {
        type            processor;
        value           uniform 0;
    }
    procBoundary6to4
    {
        type            processor;
        value           uniform 0;
    }
    procBoundary6to7
    {
        type            processor;
        value           uniform 0;
    }
}


// ************************************************************************* //
