/*--------------------------------*- C++ -*----------------------------------*\
| =========                 |                                                 |
| \\      /  F ield         | OpenFOAM: The Open Source CFD Toolbox           |
|  \\    /   O peration     | Version:  4.x                                   |
|   \\  /    A nd           | Web:      www.OpenFOAM.org                      |
|    \\/     M anipulation  |                                                 |
\*---------------------------------------------------------------------------*/
FoamFile
{
    version     2.0;
    format      ascii;
    class       volScalarField;
    location    "46.5";
    object      particleRelTemp;
}
// * * * * * * * * * * * * * * * * * * * * * * * * * * * * * * * * * * * * * //

dimensions      [0 0 0 0 0 0 0];

internalField   nonuniform List<scalar> 
87
(
-1.0468e-12
-4.02291e-12
-1.91124e-12
-6.05302e-12
-4.75299e-12
-3.51726e-12
-9.7001e-12
-9.22409e-12
-8.51898e-12
-7.60304e-12
-6.55901e-12
-5.45272e-12
-4.44204e-12
-2.98575e-12
-9.37369e-13
-9.73244e-12
-9.40763e-12
-8.82214e-12
-8.00806e-12
-7.22817e-12
-6.22776e-12
-4.95565e-12
-4.06582e-12
-2.16885e-12
-9.85126e-12
-9.48573e-12
-9.0712e-12
-8.31215e-12
-7.71323e-12
-6.75237e-12
-5.89887e-12
-4.99334e-12
-3.24938e-12
-9.77042e-12
-9.2952e-12
-8.77149e-12
-7.9964e-12
-7.13515e-12
-6.10465e-12
-4.99523e-12
-3.68598e-12
-2.10725e-12
-9.8113e-12
-9.451e-12
-9.01612e-12
-8.2932e-12
-7.68089e-12
-6.63257e-12
-5.67613e-12
-4.86327e-12
-2.9535e-12
-9.86827e-12
-9.55163e-12
-9.11352e-12
-8.65532e-12
-7.96625e-12
-7.34249e-12
-6.61472e-12
-5.64699e-12
-4.44608e-12
-9.81113e-12
-9.48578e-12
-8.97915e-12
-8.32095e-12
-7.6379e-12
-6.53548e-12
-5.56434e-12
-4.51379e-12
-3.85617e-12
-9.83299e-12
-9.60544e-12
-9.18337e-12
-8.64108e-12
-7.95067e-12
-7.15263e-12
-6.32373e-12
-5.42105e-12
-4.25054e-12
-9.93332e-12
-9.6046e-12
-9.31217e-12
-8.88985e-12
-8.43438e-12
-7.68632e-12
-7.32371e-12
-6.74365e-12
-5.41196e-12
)
;

boundaryField
{
    inlet
    {
        type            calculated;
        value           nonuniform List<scalar> 9(-9.7001e-12 -9.73244e-12 -9.85126e-12 -9.77042e-12 -9.8113e-12 -9.86827e-12 -9.81113e-12 -9.83299e-12 -9.93332e-12);
    }
    outlet
    {
        type            calculated;
        value           nonuniform 0();
    }
    wall
    {
        type            calculated;
        value           nonuniform List<scalar> 
57
(
-9.81113e-12
-9.83299e-12
-9.93332e-12
-9.48578e-12
-9.60544e-12
-9.6046e-12
-8.97915e-12
-9.18337e-12
-9.31217e-12
-8.32095e-12
-8.64108e-12
-8.88985e-12
-7.6379e-12
-7.95067e-12
-8.43438e-12
-6.53548e-12
-7.15263e-12
-7.68632e-12
-5.56434e-12
-6.32373e-12
-7.32371e-12
-4.51379e-12
-5.42105e-12
-6.74365e-12
-3.85617e-12
-4.25054e-12
-5.41196e-12
-9.85126e-12
-9.86827e-12
-9.93332e-12
-9.48573e-12
-9.55163e-12
-9.6046e-12
-9.0712e-12
-9.11352e-12
-9.31217e-12
-8.31215e-12
-8.65532e-12
-8.88985e-12
-7.71323e-12
-7.96625e-12
-8.43438e-12
-6.75237e-12
-7.34249e-12
-7.68632e-12
-6.05302e-12
-5.89887e-12
-6.61472e-12
-7.32371e-12
-4.75299e-12
-4.99334e-12
-5.64699e-12
-6.74365e-12
-3.51726e-12
-3.24938e-12
-4.44608e-12
-5.41196e-12
)
;
    }
    procBoundary6to0
    {
        type            processor;
        value           uniform -6.80605e-13;
    }
    procBoundary6to2
    {
        type            processor;
        value           nonuniform List<scalar> 
32
(
-2.10721e-12
-4.24928e-12
-2.69985e-12
-6.26756e-12
-5.37128e-12
-4.18603e-12
-9.73105e-12
-9.15752e-12
-8.52963e-12
-7.82043e-12
-6.83574e-12
-5.5112e-12
-4.1241e-12
-2.071e-12
-2.071e-12
-2.071e-12
-9.83214e-12
-9.33975e-12
-8.86071e-12
-8.05168e-12
-7.18059e-12
-6.12852e-12
-5.36732e-12
-5.36732e-12
-5.36732e-12
-9.87964e-12
-9.4958e-12
-8.97322e-12
-8.42344e-12
-7.71521e-12
-6.76942e-12
-6.76942e-12
)
;
    }
    procBoundary6to4
    {
        type            processor;
        value           nonuniform List<scalar> 
27
(
-9.75265e-12
-9.28489e-12
-8.53767e-12
-7.75816e-12
-6.51977e-12
-5.33802e-12
-3.74531e-12
-2.27075e-12
-6.98753e-13
-9.76427e-12
-9.37344e-12
-8.68087e-12
-8.05315e-12
-6.97843e-12
-5.78363e-12
-4.63644e-12
-3.13334e-12
-1.6184e-12
-9.77715e-12
-9.43154e-12
-8.92753e-12
-8.18735e-12
-7.43929e-12
-6.49156e-12
-5.34181e-12
-4.04856e-12
-2.96853e-12
)
;
    }
    procBoundary6to7
    {
        type            processor;
        value           nonuniform List<scalar> 
12
(
1.23822e-12
1.67078e-13
-1.2775e-12
1.46273e-12
7.05279e-14
-1.51317e-12
-4.46031e-13
-1.51389e-12
-3.053e-12
-1.8739e-12
-3.0362e-12
-4.46196e-12
)
;
    }
}


// ************************************************************************* //
