/*--------------------------------*- C++ -*----------------------------------*\
| =========                 |                                                 |
| \\      /  F ield         | OpenFOAM: The Open Source CFD Toolbox           |
|  \\    /   O peration     | Version:  4.x                                   |
|   \\  /    A nd           | Web:      www.OpenFOAM.org                      |
|    \\/     M anipulation  |                                                 |
\*---------------------------------------------------------------------------*/
FoamFile
{
    version     2.0;
    format      ascii;
    class       volScalarField;
    location    "46.5";
    object      QWallFluidCoeff;
}
// * * * * * * * * * * * * * * * * * * * * * * * * * * * * * * * * * * * * * //

dimensions      [1 -1 -3 -1 0 0 0];

internalField   nonuniform List<scalar> 
87
(
0
0
0
-2.91443e+06
-1.62936e+06
-2.97516e+06
0
0
0
0
0
0
0
0
0
0
0
0
0
0
0
0
0
0
-2.75622e+06
-1.36161e+06
-2.76712e+06
-1.39006e+06
-2.75297e+06
-1.34006e+06
-2.74839e+06
-1.25648e+06
-2.72372e+06
0
0
0
0
0
0
0
0
0
0
0
0
0
0
0
0
0
0
-2.75015e+06
-1.43659e+06
-2.80586e+06
-1.54161e+06
-2.8342e+06
-1.60146e+06
-2.87329e+06
-1.6314e+06
-2.91104e+06
-2.72041e+06
-1.36984e+06
-2.72817e+06
-1.3737e+06
-2.73306e+06
-1.3708e+06
-2.73894e+06
-1.32224e+06
-2.77686e+06
-2.73564e+06
-1.43665e+06
-2.77849e+06
-1.52393e+06
-2.80825e+06
-1.57382e+06
-2.84421e+06
-1.589e+06
-2.87453e+06
-5.52098e+06
-3.03487e+06
-5.70232e+06
-3.423e+06
-5.89078e+06
-3.69382e+06
-6.02719e+06
-3.85958e+06
-6.08873e+06
)
;

boundaryField
{
    inlet
    {
        type            calculated;
        value           uniform 0;
    }
    outlet
    {
        type            calculated;
        value           nonuniform 0();
    }
    wall
    {
        type            calculated;
        value           uniform 0;
    }
    procBoundary6to0
    {
        type            processor;
        value           uniform 0;
    }
    procBoundary6to2
    {
        type            processor;
        value           uniform 0;
    }
    procBoundary6to4
    {
        type            processor;
        value           uniform 0;
    }
    procBoundary6to7
    {
        type            processor;
        value           uniform 0;
    }
}


// ************************************************************************* //
