/*--------------------------------*- C++ -*----------------------------------*\
| =========                 |                                                 |
| \\      /  F ield         | OpenFOAM: The Open Source CFD Toolbox           |
|  \\    /   O peration     | Version:  4.x                                   |
|   \\  /    A nd           | Web:      www.OpenFOAM.org                      |
|    \\/     M anipulation  |                                                 |
\*---------------------------------------------------------------------------*/
FoamFile
{
    version     2.0;
    format      ascii;
    class       volScalarField;
    location    "55.5";
    object      KslPrev;
}
// * * * * * * * * * * * * * * * * * * * * * * * * * * * * * * * * * * * * * //

dimensions      [1 -3 -1 0 0 0 0];

internalField   nonuniform List<scalar> 
87
(
3809.11
12035.8
3481.65
3221.09
6556.53
3125.33
3578.88
12655.3
3870.15
28594
4010.63
163516
4052.13
1e+10
4047.84
3488.02
10768.3
3690.42
15857.5
3797.86
27187.9
3839.09
73197.2
3837.54
3373.1
8159.84
3399.56
8049.61
3441.24
8570.75
3448.48
9538.18
3481.67
3522.13
10581.3
3712.39
14897.3
3765.69
22783.5
3802.45
42621.3
3776.41
3446.08
9045.11
3566.77
9937.7
3592.68
10936.8
3610.28
12542.8
3553.5
3365.02
7511.16
3303.58
6900.23
3266.96
6591.53
3222.88
6434.03
3158.27
3432.34
8067.7
3463.53
8049.61
3424.69
8087.66
3422.54
8484.56
3354.09
3373.7
7542.92
3346.28
7028.79
3292.59
6729.35
3258.31
6637.86
3179.07
3320.02
6962.15
3202.33
6015.77
3072.05
5493.54
3023.27
5254.43
2974.43
)
;

boundaryField
{
    inlet
    {
        type            zeroGradient;
    }
    outlet
    {
        type            zeroGradient;
    }
    wall
    {
        type            zeroGradient;
    }
    procBoundary6to0
    {
        type            processor;
        value           uniform 0;
    }
    procBoundary6to2
    {
        type            processor;
        value           uniform 0;
    }
    procBoundary6to4
    {
        type            processor;
        value           uniform 0;
    }
    procBoundary6to7
    {
        type            processor;
        value           uniform 0;
    }
}


// ************************************************************************* //
