/*--------------------------------*- C++ -*----------------------------------*\
| =========                 |                                                 |
| \\      /  F ield         | OpenFOAM: The Open Source CFD Toolbox           |
|  \\    /   O peration     | Version:  4.x                                   |
|   \\  /    A nd           | Web:      www.OpenFOAM.org                      |
|    \\/     M anipulation  |                                                 |
\*---------------------------------------------------------------------------*/
FoamFile
{
    version     2.0;
    format      ascii;
    class       volScalarField;
    location    "55.5";
    object      p_rgh;
}
// * * * * * * * * * * * * * * * * * * * * * * * * * * * * * * * * * * * * * //

dimensions      [1 -1 -2 0 0 0 0];

internalField   nonuniform List<scalar> 
87
(
82.1795
38.168
81.6751
88.7227
38.479
81.6936
112.3
94.0675
104.984
76.4971
97.2261
58.4453
89.3146
40.6523
81.9801
111.649
93.7902
104.512
75.9854
97.0487
57.7355
89.5672
39.4896
82.1791
111.063
93.5288
103.984
75.8953
96.6854
57.6964
89.2935
39.5603
82.3449
112.047
93.9844
104.72
76.1388
97.1556
58.0422
89.6099
39.7441
82.2806
111.366
93.6626
104.087
75.8745
96.5781
57.7067
89.1378
39.2779
81.8879
110.869
93.4277
103.717
75.7871
96.3164
57.5987
88.9481
39.3142
81.8197
111.565
93.8116
104.304
76.086
96.7533
57.9899
89.2439
39.5857
82.0227
111.078
93.5565
103.886
75.8873
96.4325
57.6418
89.0012
39.3837
81.8268
110.697
93.4384
103.594
75.8084
96.2632
57.7276
88.8946
39.5934
81.8886
)
;

boundaryField
{
    inlet
    {
        type            fixedFluxPressure;
        gradient        nonuniform List<scalar> 9(0.00128489 0.00105449 0.000983008 0.00212394 0.0019218 0.00183156 0.00298752 0.00278325 0.00262534);
        value           nonuniform List<scalar> 9(112.3 111.649 111.063 112.047 111.366 110.869 111.565 111.078 110.697);
    }
    outlet
    {
        type            fixedValue;
        value           nonuniform 0();
    }
    wall
    {
        type            fixedFluxPressure;
        gradient        nonuniform List<scalar> 
57
(
-5.20363e-07
-1.01346e-06
1.22989e-06
-2.6431e-06
-3.26547e-06
-2.03582e-06
-3.9232e-06
-1.99746e-06
-1.21287e-06
-8.88798e-06
-4.27405e-06
-3.1149e-06
-5.4013e-06
-2.57822e-06
-2.06967e-06
-1.99504e-05
-9.99658e-06
-5.45743e-06
-9.565e-06
-5.9448e-07
-2.52226e-06
-3.28081e-05
-1.19113e-05
2.01675e-06
-4.18635e-06
-2.13184e-05
-1.95032e-05
-1.11147e-07
-1.17355e-06
8.075e-06
-1.39735e-05
-2.97764e-05
3.77907e-07
-2.21969e-06
-3.05e-06
-1.6226e-06
-1.2439e-05
-7.51846e-06
-2.67835e-06
-5.05433e-06
-3.46755e-06
-2.01354e-06
-1.30147e-05
-9.36213e-06
-3.33888e-06
-6.29091e-06
-3.15789e-06
-1.82229e-06
-8.63768e-07
-2.04891e-06
-1.50675e-05
-1.50247e-05
-8.94771e-07
-2.70878e-07
-7.32718e-06
3.09213e-06
3.05739e-06
)
;
        value           nonuniform List<scalar> 
57
(
111.565
111.078
110.697
93.8116
93.5565
93.4384
104.304
103.886
103.594
76.086
75.8873
75.8084
96.7533
96.4325
96.2632
57.9899
57.6418
57.7276
89.2439
89.0012
88.8946
39.5857
39.3837
39.5934
82.0227
81.8268
81.8886
111.063
110.869
110.697
93.5288
93.4277
93.4384
103.984
103.717
103.594
75.8953
75.7871
75.8084
96.6854
96.3164
96.2632
57.6964
57.5987
57.7276
88.7227
89.2935
88.9481
88.8946
38.479
39.5603
39.3142
39.5934
81.6936
82.3449
81.8197
81.8886
)
;
    }
    procBoundary6to0
    {
        type            processor;
        value           uniform 82.0493;
    }
    procBoundary6to2
    {
        type            processor;
        value           nonuniform List<scalar> 
32
(
81.8724
38.6501
82.0807
88.8874
38.7244
81.9543
111.644
93.8238
104.486
75.7695
97.0106
57.5643
89.5181
39.2849
39.2849
39.2849
110.984
93.323
103.778
75.2805
96.2961
56.908
88.8467
88.8467
88.8467
110.478
93.1021
103.398
75.2053
96.0364
56.9432
56.9432
)
;
    }
    procBoundary6to4
    {
        type            processor;
        value           nonuniform List<scalar> 
27
(
111.865
94.0422
104.658
76.1005
97.0463
57.8384
89.3787
39.4332
81.9089
111.899
93.9329
104.604
76.0786
96.9333
57.6375
89.3207
38.9978
81.9837
111.561
93.633
104.177
75.873
96.5119
57.4271
88.8724
39.037
81.7067
)
;
    }
    procBoundary6to7
    {
        type            processor;
        value           nonuniform List<scalar> 
12
(
21.0544
19.1997
19.767
23.0232
21.1985
21.3358
21.5058
20.6807
20.9188
21.4735
20.9265
21.3147
)
;
    }
}


// ************************************************************************* //
