/*--------------------------------*- C++ -*----------------------------------*\
| =========                 |                                                 |
| \\      /  F ield         | OpenFOAM: The Open Source CFD Toolbox           |
|  \\    /   O peration     | Version:  4.x                                   |
|   \\  /    A nd           | Web:      www.OpenFOAM.org                      |
|    \\/     M anipulation  |                                                 |
\*---------------------------------------------------------------------------*/
FoamFile
{
    version     2.0;
    format      ascii;
    class       volScalarField;
    location    "55.5";
    object      QPartFluid;
}
// * * * * * * * * * * * * * * * * * * * * * * * * * * * * * * * * * * * * * //

dimensions      [1 -1 -3 0 0 0 0];

internalField   nonuniform List<scalar> 
87
(
8.12117e+09
6.83609e+09
8.97568e+09
5.70483e+09
6.24019e+09
5.62852e+09
9.95372e+09
8.95701e+09
6.08348e+09
7.98941e+09
1.10822e+10
6.09123e+09
8.7153e+09
6.67739e+09
9.9725e+09
6.30282e+09
9.21647e+09
8.17501e+09
1.02116e+10
8.84864e+09
8.7231e+09
8.74669e+09
9.206e+09
9.38324e+09
4.67851e+09
7.5827e+09
5.95947e+09
6.13915e+09
8.70042e+09
9.4365e+09
7.33388e+09
6.26837e+09
8.73294e+09
7.34877e+09
9.0053e+09
9.65992e+09
8.64124e+09
6.67092e+09
7.89925e+09
7.93248e+09
6.12272e+09
9.57426e+09
5.37306e+09
8.8741e+09
8.84526e+09
8.04128e+09
7.94851e+09
6.56556e+09
1.00269e+10
6.61111e+09
9.99477e+09
4.80938e+09
6.68165e+09
6.17983e+09
7.84659e+09
8.21699e+09
6.18655e+09
7.63027e+09
6.43837e+09
6.87776e+09
4.91223e+09
5.41244e+09
7.43529e+09
7.03714e+09
7.17525e+09
6.52133e+09
1.03085e+10
8.71925e+09
4.5385e+09
5.19796e+09
5.83511e+09
7.62858e+09
6.19124e+09
9.6771e+09
6.72302e+09
7.21515e+09
6.11157e+09
8.49251e+09
4.2469e+09
6.13717e+09
6.76477e+09
6.33745e+09
5.24234e+09
8.49012e+09
5.6128e+09
5.64268e+09
7.19115e+09
)
;

boundaryField
{
    inlet
    {
        type            calculated;
        value           uniform 0;
    }
    outlet
    {
        type            calculated;
        value           nonuniform 0();
    }
    wall
    {
        type            calculated;
        value           uniform 0;
    }
    procBoundary6to0
    {
        type            processor;
        value           uniform 2.6266e+09;
    }
    procBoundary6to2
    {
        type            processor;
        value           nonuniform List<scalar> 
32
(
5.73165e+09
8.45203e+09
1.02209e+10
9.68934e+09
5.3327e+09
7.73093e+09
4.89737e+09
9.48938e+09
1.03011e+10
7.16013e+09
8.23949e+09
6.28394e+09
7.58915e+09
7.54443e+09
7.54443e+09
7.54443e+09
5.87055e+09
7.91984e+09
1.05284e+10
6.62928e+09
9.12585e+09
7.74092e+09
1.03142e+10
1.03142e+10
1.03142e+10
4.25801e+09
6.30821e+09
7.5132e+09
7.25955e+09
6.75693e+09
6.51288e+09
6.51288e+09
)
;
    }
    procBoundary6to4
    {
        type            processor;
        value           nonuniform List<scalar> 
27
(
3.45913e+09
6.739e+09
9.4082e+09
5.72753e+09
8.82497e+09
6.72192e+09
1.10641e+10
6.03842e+09
7.08763e+09
6.20515e+09
8.58864e+09
7.54666e+09
9.65898e+09
1.05309e+10
7.61816e+09
1.18499e+10
8.48379e+09
8.1437e+09
7.25265e+09
7.01609e+09
6.70219e+09
7.98512e+09
8.44553e+09
9.54551e+09
4.97452e+09
5.18524e+09
7.09493e+09
)
;
    }
    procBoundary6to7
    {
        type            processor;
        value           nonuniform List<scalar> 
12
(
7.5319e+09
5.35944e+09
7.0824e+09
3.86008e+09
6.02453e+09
6.58071e+09
8.59011e+09
8.22393e+09
6.05134e+09
7.30831e+09
6.35533e+09
6.09423e+09
)
;
    }
}


// ************************************************************************* //
