/*--------------------------------*- C++ -*----------------------------------*\
| =========                 |                                                 |
| \\      /  F ield         | OpenFOAM: The Open Source CFD Toolbox           |
|  \\    /   O peration     | Version:  4.x                                   |
|   \\  /    A nd           | Web:      www.OpenFOAM.org                      |
|    \\/     M anipulation  |                                                 |
\*---------------------------------------------------------------------------*/
FoamFile
{
    version     2.0;
    format      ascii;
    class       volVectorField;
    location    "55.5";
    object      Us;
}
// * * * * * * * * * * * * * * * * * * * * * * * * * * * * * * * * * * * * * //

dimensions      [0 1 -1 0 0 0 0];

internalField   nonuniform List<vector> 
87
(
(1.8021e-08 -1.9632e-10 -9.3931e-09)
(1.35604e-08 1.11372e-09 -4.91762e-09)
(2.06447e-08 1.05172e-09 -6.57554e-09)
(3.27928e-09 -9.12781e-10 -1.4534e-09)
(7.54374e-09 -1.46062e-10 -2.1984e-09)
(6.72755e-09 -4.04535e-11 -2.07177e-09)
(5.49087e-10 -2.87562e-10 -3.42287e-10)
(8.66798e-10 -5.63739e-10 -6.38136e-10)
(1.80685e-09 -5.82094e-10 -1.1501e-09)
(2.38016e-09 -6.63986e-10 -1.60618e-09)
(5.65935e-09 -6.98764e-10 -1.84967e-09)
(7.24407e-09 1.51779e-10 -3.16551e-09)
(9.92606e-09 1.07761e-09 -4.1416e-09)
(1.25688e-08 1.49162e-09 -6.31167e-09)
(1.46926e-08 -1.06277e-09 -6.94709e-09)
(5.05548e-10 -2.60969e-10 -3.17957e-10)
(3.50648e-10 -4.51537e-10 -5.81148e-10)
(1.47604e-09 -6.53017e-10 -8.23465e-10)
(2.03544e-09 -6.33318e-10 -1.24487e-09)
(3.41818e-09 -7.79973e-10 -1.23914e-09)
(4.84491e-09 -7.30884e-10 -2.06232e-09)
(7.82971e-09 -3.44615e-10 -2.5403e-09)
(9.95022e-09 3.12015e-10 -3.27792e-09)
(1.56784e-08 -9.79596e-10 -5.30073e-09)
(1.4576e-10 -1.57343e-11 -1.86599e-10)
(-1.0765e-09 -8.07187e-10 -5.69609e-10)
(3.79768e-10 -3.07013e-10 -4.44245e-10)
(7.26097e-10 -7.19535e-10 -8.65043e-10)
(1.15423e-09 -6.78366e-10 -6.73955e-10)
(2.35721e-09 -6.97663e-10 -1.07164e-09)
(3.4612e-09 -4.23081e-10 -1.64204e-09)
(2.89384e-09 -7.29831e-10 -2.19658e-09)
(1.19426e-08 -9.68819e-10 -1.65239e-09)
(2.62332e-10 -2.32933e-10 -1.93483e-10)
(2.80296e-10 -4.35597e-10 -4.45522e-10)
(1.11519e-09 -6.3934e-10 -8.94823e-10)
(1.43647e-09 -6.52235e-10 -1.02826e-09)
(2.59309e-09 -6.3653e-10 -1.28169e-09)
(4.68562e-09 -6.35413e-10 -2.16118e-09)
(6.53005e-09 1.91871e-11 -2.50201e-09)
(8.94004e-09 1.75637e-09 -4.2005e-09)
(1.10016e-08 -8.02281e-10 -4.16186e-09)
(2.1456e-10 -2.65333e-10 -2.57892e-10)
(1.59875e-10 -2.39346e-10 -3.6987e-10)
(7.93865e-10 -6.28453e-10 -5.85062e-10)
(1.0435e-09 -7.34539e-10 -1.0693e-09)
(1.57126e-09 -5.65133e-10 -3.89666e-10)
(3.5831e-09 -7.69721e-10 -1.74015e-09)
(5.64503e-09 -1.36339e-10 -1.45694e-09)
(5.97452e-09 2.94827e-10 -1.19182e-09)
(1.3155e-08 1.56385e-10 -5.17868e-09)
(5.09992e-10 -1.6647e-10 1.2483e-10)
(-4.49273e-09 -1.8696e-09 -7.11368e-11)
(2.6842e-10 -4.33244e-10 -3.54689e-10)
(-2.54437e-11 -5.05058e-10 -6.27018e-10)
(4.16319e-10 -4.89965e-10 -3.50743e-10)
(7.22527e-10 -6.55664e-10 -5.70239e-10)
(1.85904e-09 -2.61185e-10 -5.78167e-10)
(2.50939e-09 -1.08122e-09 -5.26152e-10)
(5.49756e-09 4.52202e-10 -3.32713e-09)
(1.54124e-10 -1.82349e-10 -7.17093e-11)
(4.19922e-11 -2.01632e-10 -1.54113e-10)
(6.11516e-10 -3.21456e-10 -5.27941e-10)
(6.60297e-10 -4.39437e-10 -5.09625e-10)
(1.84152e-09 -3.96434e-10 -7.2489e-10)
(2.69304e-09 -1.40196e-10 -1.12997e-09)
(-6.23629e-10 -5.36712e-09 -1.27405e-09)
(5.42494e-09 7.60773e-10 -1.76558e-09)
(7.47978e-09 2.12116e-09 -5.75484e-10)
(1.14145e-09 3.59832e-10 -1.4269e-10)
(-5.62459e-11 -8.39203e-11 -2.04386e-10)
(2.31146e-10 -2.9394e-10 -2.78851e-10)
(-1.05877e-10 -4.91553e-10 -2.82355e-10)
(9.74735e-10 -5.24426e-10 -3.5969e-10)
(1.58033e-09 -5.38785e-10 -6.83599e-10)
(-1.06534e-08 -1.5309e-08 -8.40635e-11)
(-2.62698e-10 1.63756e-09 -8.28268e-10)
(6.74984e-09 2.48298e-09 -3.07528e-09)
(4.38095e-09 1.16601e-09 1.77593e-10)
(-1.91846e-10 2.56951e-11 -1.38422e-10)
(4.16448e-11 -2.37842e-10 -1.77784e-10)
(-1.75521e-10 -2.07265e-10 -2.41047e-10)
(-8.64528e-11 -3.04269e-10 -3.12751e-10)
(1.84979e-10 -2.79618e-10 -4.5704e-10)
(5.1758e-10 -1.32786e-10 -3.87744e-10)
(4.04369e-10 -7.91968e-11 1.78503e-10)
(4.997e-09 4.7519e-10 -3.03125e-09)
)
;

boundaryField
{
    inlet
    {
        type            zeroGradient;
    }
    outlet
    {
        type            zeroGradient;
    }
    wall
    {
        type            zeroGradient;
    }
    procBoundary6to0
    {
        type            processor;
        value           uniform (2.09393e-08 -1.34405e-09 -1.11053e-08);
    }
    procBoundary6to2
    {
        type            processor;
        value           nonuniform List<vector> 
32
(
(2.29926e-08 6.70283e-10 -1.07035e-08)
(1.5353e-08 2.69013e-10 -5.6782e-09)
(2.54618e-08 5.67224e-10 -9.48522e-09)
(5.61728e-09 -1.56861e-09 -2.15787e-09)
(9.03799e-09 -2.19654e-09 -1.84521e-09)
(1.4322e-08 8.08734e-11 -4.02612e-09)
(4.18856e-10 -1.16474e-10 -3.23347e-10)
(9.92692e-10 -4.6397e-10 -7.6264e-10)
(2.36054e-09 -6.16527e-10 -1.15803e-09)
(3.20008e-09 -7.42023e-10 -1.46415e-09)
(5.58826e-09 -7.5543e-10 -2.21509e-09)
(8.3623e-09 -6.1598e-10 -3.43746e-09)
(1.18714e-08 4.36485e-11 -4.19861e-09)
(1.53031e-08 1.33924e-09 -7.45342e-09)
(1.53031e-08 1.33924e-09 -7.45342e-09)
(1.53031e-08 1.33924e-09 -7.45342e-09)
(2.94596e-10 -6.50637e-11 -2.34498e-10)
(6.53415e-10 -5.10614e-10 -7.50132e-10)
(1.74525e-09 -7.28758e-10 -8.0504e-10)
(2.58526e-09 -9.70071e-10 -1.20596e-09)
(4.69852e-09 -8.55453e-10 -2.08563e-09)
(5.95672e-09 -7.85723e-10 -2.48846e-09)
(8.31848e-09 -7.97669e-10 -2.39834e-09)
(8.31848e-09 -7.97669e-10 -2.39834e-09)
(8.31848e-09 -7.97669e-10 -2.39834e-09)
(9.89824e-11 -4.46235e-11 -1.73727e-10)
(5.62789e-11 -3.65706e-10 -6.16873e-10)
(8.49621e-10 -4.85464e-10 -8.33625e-10)
(7.84086e-10 -6.05093e-10 -8.66443e-10)
(2.57236e-09 -6.73637e-10 -1.15006e-09)
(2.23693e-09 -6.40691e-10 -1.13821e-09)
(2.23693e-09 -6.40691e-10 -1.13821e-09)
)
;
    }
    procBoundary6to4
    {
        type            processor;
        value           nonuniform List<vector> 
27
(
(2.97485e-10 -1.06321e-10 -3.39099e-10)
(6.4461e-10 -1.07361e-10 -6.20573e-10)
(2.06697e-09 -5.0111e-10 -1.11996e-09)
(2.64383e-09 -5.77874e-10 -1.38042e-09)
(5.78332e-09 -6.26687e-11 -1.97958e-09)
(8.62702e-09 2.33518e-10 -2.94348e-09)
(1.0148e-08 6.488e-10 -3.59589e-09)
(1.34578e-08 1.47582e-09 -6.112e-09)
(1.46162e-08 -7.59823e-11 -6.39343e-09)
(1.82592e-10 -7.00918e-11 -2.21124e-10)
(3.28666e-10 -1.1375e-10 -4.46635e-10)
(1.36575e-09 -4.61096e-10 -9.77434e-10)
(1.86006e-09 -4.986e-10 -1.11623e-09)
(3.28636e-09 -3.17019e-10 -1.76133e-09)
(5.68395e-09 4.23435e-10 -2.3329e-09)
(6.90872e-09 1.51482e-09 -2.80988e-09)
(8.3177e-09 2.12778e-09 -4.13729e-09)
(1.00014e-08 -1.55345e-09 -7.25968e-10)
(2.17245e-10 1.29041e-12 -1.14921e-10)
(1.25961e-10 -1.39715e-10 -2.17575e-10)
(9.21855e-10 9.25569e-11 -5.0803e-10)
(9.28914e-10 -3.36055e-10 -6.1989e-10)
(1.8752e-09 -6.67775e-10 -1.11182e-09)
(2.57038e-09 -6.05129e-10 -1.25754e-09)
(3.52376e-09 4.35236e-10 -1.1545e-09)
(1.05026e-09 3.14702e-09 -1.48253e-09)
(6.91649e-09 6.18141e-10 -1.41271e-09)
)
;
    }
    procBoundary6to7
    {
        type            processor;
        value           nonuniform List<vector> 
12
(
(2.14005e-08 7.72782e-10 -1.50379e-08)
(2.10541e-08 2.34988e-09 -7.68737e-09)
(2.05055e-08 1.38404e-09 -3.68597e-09)
(1.68172e-08 -3.43574e-09 -9.63843e-09)
(2.00639e-08 -2.93433e-09 -7.51606e-09)
(2.33473e-08 6.59867e-10 -4.82018e-09)
(1.37559e-08 -2.8212e-09 -4.41819e-09)
(1.96528e-08 -3.16893e-10 -6.79099e-09)
(1.74923e-08 -2.51644e-09 -6.10556e-09)
(9.27641e-09 1.98035e-09 -2.02213e-09)
(1.18493e-08 3.60169e-09 -3.37453e-09)
(7.38953e-09 -1.65716e-09 -2.18428e-09)
)
;
    }
}


// ************************************************************************* //
