/*--------------------------------*- C++ -*----------------------------------*\
  =========                 |
  \\      /  F ield         | OpenFOAM: The Open Source CFD Toolbox
   \\    /   O peration     | Website:  https://openfoam.org
    \\  /    A nd           | Version:  4.x
     \\/     M anipulation  |
\*---------------------------------------------------------------------------*/
FoamFile
{
    version     2.0;
    format      ascii;
    class       Cloud<passiveParticle>;
    location    0;
    object      positions;
}
// * * * * * * * * * * * * * * * * * * * * * * * * * * * * * * * * * * * * * //

325
(
( 0.0388652 -0.081182 0.0295064 ) 1
( 0.0913109 -0.07336 0.0223472 ) 3
( 0.244278 -0.0297086 0.0296453 ) 26
( 0.104058 -0.0622527 0.032283 ) 12
( 0.121275 -0.0409381 0.0239764 ) 22
( 0.069355 -0.0265409 0.0234481 ) 20
( 0.0144377 -0.0313829 0.0342941 ) 18
( 0.0097893 -0.0204789 0.0185371 ) 18
( 0.229644 -0.0151767 0.0288033 ) 26
( 0.018408 -0.06241 0.0159926 ) 9
( 0.241527 -0.00397314 0.0176458 ) 35
( 0.204863 -0.0421471 0.014694 ) 25
( 0.179731 -0.0292833 0.0209612 ) 24
( 0.24728 -0.0512867 0.0183785 ) 17
( 0.238988 -0.0713452 0.0254765 ) 17
( 0.126465 -0.0523445 0.0392989 ) 13
( 0.118015 -0.0744279 0.0484091 ) 40
( 0.0664885 -0.0449498 0.0295882 ) 11
( 0.0817363 -0.0414128 0.0178228 ) 20
( 0.138698 -0.00767193 0.0335506 ) 31
( 0.122615 -0.0693887 0.0297646 ) 13
( 0.169719 -0.0153846 0.03087 ) 24
( 0.210714 -0.00892175 0.0297703 ) 34
( 0.124064 -0.0216168 0.0208628 ) 22
( 0.0608564 -0.0900886 0.0331749 ) 2
( 0.202088 -0.0201944 0.0159758 ) 25
( 0.0345587 -0.0220886 0.0162379 ) 19
( 0.231815 -0.04618 0.0298137 ) 17
( 0.0976441 -0.0115418 0.0332085 ) 30
( 0.197746 -0.0680316 0.0276022 ) 16
( 0.124112 -0.0284559 0.0393294 ) 22
( 0.0770888 -0.00603506 0.0280484 ) 29
( 0.193408 -0.0835751 0.0163931 ) 6
( 0.0536614 -0.030696 0.0347763 ) 19
( 0.0763972 -0.0602129 0.0214439 ) 11
( 0.0506451 -0.0900272 0.016089 ) 1
( 0.0599194 -0.0673918 0.0300386 ) 11
( 0.153258 -0.0453029 0.0287505 ) 14
( 0.136558 -0.053131 0.0221851 ) 13
( 0.180715 -0.0681619 0.0174752 ) 15
( 0.0315783 -0.0621519 0.0306695 ) 10
( 0.0484979 -0.010828 0.024938 ) 28
( 0.029331 -0.0417762 0.0234993 ) 19
( 0.0874948 -0.0203872 0.0188335 ) 21
( 0.139491 -0.0768764 0.0224011 ) 5
( 0.184203 -0.054045 0.0308581 ) 15
( 0.140916 -0.0319097 0.0211052 ) 23
( 0.113523 -0.0820342 0.0173023 ) 4
( 0.15754 -0.083824 0.0270976 ) 5
( 0.0887085 -0.0435225 0.0384707 ) 12
( 0.0678381 -0.0791267 0.0163413 ) 2
( 0.106237 -0.0144844 0.0156257 ) 21
( 0.151121 -0.0227796 0.0355375 ) 23
( 0.189409 -0.00732039 0.0363665 ) 33
( 0.212095 -0.0901748 0.0161801 ) 7
( 0.0962798 -0.0548572 0.015636 ) 12
( 0.135793 -0.00516579 0.0144163 ) 31
( 0.00979338 -0.0747444 0.0283303 ) 0
( 0.184904 -0.0101204 0.0172385 ) 33
( 0.00973829 -0.0568981 0.0369948 ) 9
( 0.0815081 -0.0225745 0.0382676 ) 20
( 0.103565 -0.0901044 0.0325706 ) 3
( 0.0284141 -0.0173947 0.0353789 ) 19
( 0.1965 -0.0316665 0.0310737 ) 25
( 0.0475265 -0.0369729 0.0172576 ) 19
( 0.216584 -0.0774634 0.0307369 ) 7
( 0.216804 -0.0301048 0.0251231 ) 25
( 0.164463 -0.0591066 0.0369848 ) 14
( 0.225498 -0.0573506 0.0148165 ) 17
( 0.0840415 -0.0627826 0.0393427 ) 12
( 0.0477752 -0.0508656 0.0310775 ) 10
( 0.118793 -0.00367623 0.0266911 ) 31
( 0.176008 -0.0902567 0.022968 ) 6
( 0.10871 -0.0441673 0.0386483 ) 12
( 0.0584711 -2.29922e-06 0.0382948 ) 29
( 0.153926 -0.0122322 0.0193574 ) 32
( 0.24927 -0.0872316 0.0176672 ) 8
( 0.228232 0.00821747 0.025625 ) 35
( 0.065943 0.0126431 0.0236102 ) 29
( 0.188673 0.0101695 0.0260736 ) 33
( 0.0921134 0.00913885 0.0296109 ) 30
( 0.203814 0.00192751 0.0461287 ) 70
( 0.149412 0.00634403 0.024294 ) 32
( 0.208589 0.0102943 0.027355 ) 34
( 0.170289 0.00446824 0.0314487 ) 33
( 0.0353134 0.00431018 0.0404954 ) 28
( 0.211841 -0.0541203 0.0288391 ) 16
( 0.0194382 -0.0902701 0.0354992 ) 0
( 0.0993274 -0.0353905 0.0239347 ) 21
( 0.230545 -0.0903331 0.0233084 ) 8
( 0.0283228 -0.0901056 0.0153124 ) 1
( 0.0799588 -0.0877572 0.0289782 ) 2
( 0.158581 -0.0655629 0.0194677 ) 14
( 0.00959812 -0.000938669 0.0156814 ) 27
( 0.00991051 -0.0453009 0.0211996 ) 9
( 0.115968 -0.057906 0.0149123 ) 13
( 0.0257862 -0.0467262 0.0422949 ) 9
( 0.0289021 -0.00366848 0.0213359 ) 28
( 0.22147 0.0104195 0.0440919 ) 70
( 0.131665 -0.05586 0.0577887 ) 49
( 0.140708 -0.0729244 0.0543247 ) 41
( 0.168724 -0.0901482 0.0422327 ) 6
( 0.154748 -0.00709109 0.0546054 ) 68
( 0.0334877 -0.0272336 0.0518906 ) 55
( 0.127604 -0.0900617 0.0562851 ) 40
( 0.0426113 -0.0769884 0.0597573 ) 37
( 0.167508 -0.0420942 0.0591627 ) 60
( 0.125854 -0.00919537 0.0692113 ) 67
( 0.230589 -0.0234943 0.0596117 ) 62
( 0.0466414 -0.0574607 0.0615783 ) 46
( 0.116036 -0.0443551 0.0603934 ) 49
( 0.0859164 -0.0775284 0.062155 ) 39
( 0.242442 -0.0904385 0.0561128 ) 44
( 0.210215 -0.0331394 0.0605845 ) 61
( 0.246301 -0.0571017 0.0544581 ) 53
( 0.0741985 0.000229959 0.0625804 ) 65
( 0.0648588 -0.0380671 0.0655935 ) 56
( 0.203261 -0.0901137 0.060154 ) 43
( 0.00989599 -0.0828578 0.0715178 ) 72
( 0.168249 0.0100081 0.0581467 ) 69
( 0.0718746 -0.0639084 0.0605038 ) 47
( 0.186776 -0.0730468 0.06275 ) 42
( 0.234155 -0.0727677 0.0540609 ) 44
( 0.148226 -0.090497 0.0575229 ) 41
( 0.0900653 -0.0188639 0.0612364 ) 57
( 0.229391 -0.0473597 0.0515337 ) 53
( 0.209084 0.00975993 0.0654765 ) 70
( 0.175511 -0.00697431 0.0677172 ) 69
( 0.00967691 -0.0104049 0.0627316 ) 63
( 0.0663455 -0.0173369 0.0680587 ) 56
( 0.0269928 -0.060495 0.0716195 ) 81
( 0.194751 -0.0145117 0.054765 ) 61
( 0.149582 -0.0370883 0.0663919 ) 59
( 0.0639188 -0.0902106 0.0565852 ) 38
( 0.166261 -0.0655519 0.0621038 ) 50
( 0.18839 -0.0334765 0.0595448 ) 60
( 0.104887 -0.0726518 0.0653856 ) 39
( 0.223106 -0.0906662 0.0613682 ) 44
( 0.249322 -0.00224034 0.0534617 ) 71
( 0.115353 -0.0247639 0.0589252 ) 58
( 0.0308583 0.00970618 0.0591165 ) 64
( 0.190751 0.00379479 0.0612127 ) 69
( 0.088145 0.0130165 0.0685867 ) 66
( 0.0877224 -0.0529096 0.0558642 ) 48
( 0.102148 -0.00180883 0.0563457 ) 66
( 0.118646 0.00796602 0.0612768 ) 67
( 0.210905 -0.0568302 0.0505819 ) 52
( 0.016854 -0.0267498 0.0715616 ) 90
( 0.0296041 -0.0851887 0.0724964 ) 73
( 0.02663 -0.0086179 0.052944 ) 63
( 0.107641 -0.0899694 0.0555018 ) 39
( 0.151003 -0.0560696 0.0553017 ) 50
( 0.204519 -0.0900423 0.0403305 ) 7
( 0.214876 -0.0757312 0.0525754 ) 43
( 0.142104 -0.0876325 0.0389752 ) 5
( 0.0629739 -0.0213871 0.0492872 ) 56
( 0.0754992 0.00958095 0.0403259 ) 29
( 0.00963163 -0.0454721 0.0630855 ) 45
( 0.0994312 -0.0309745 0.049347 ) 57
( 0.182359 -0.0245155 0.0430337 ) 60
( 0.125268 -0.0733416 0.0668461 ) 40
( 0.0628344 -0.0553653 0.0455858 ) 47
( 0.0466814 -0.0304122 0.0679597 ) 55
( 0.227611 -0.0893464 0.0425466 ) 8
( 0.070176 -0.0756662 0.0447272 ) 38
( 0.193685 -0.0476581 0.0469636 ) 51
( 0.0179601 -0.061183 0.0543724 ) 45
( 0.215624 -0.00747209 0.0592523 ) 70
( 0.159079 -0.0198304 0.0690828 ) 59
( 0.134329 -0.0120394 0.0519677 ) 67
( 0.210902 -0.039539 0.0419204 ) 25
( 0.0853626 -0.00566218 0.0474109 ) 66
( 0.133616 -0.0314883 0.0562993 ) 58
( 0.106015 -0.0588977 0.0515104 ) 48
( 0.150904 -0.0736378 0.0714384 ) 77
( 0.0456277 -0.0902922 0.0457085 ) 37
( 0.228339 -0.0304619 0.0412861 ) 26
( 0.0826477 -0.0905417 0.0479408 ) 38
( 0.17759 -0.0901449 0.0599496 ) 42
( 0.226363 -0.0625283 0.0393114 ) 17
( 0.143486 -0.0623323 0.0380359 ) 14
( 0.164015 -0.0245628 0.0504352 ) 59
( 0.136361 0.00760593 0.0511306 ) 67
( 0.179745 -0.061425 0.0486996 ) 51
( 0.080301 -0.0345372 0.0539678 ) 56
( 0.0102565 0.00459638 0.0491909 ) 63
( 0.0556938 -0.00394931 0.0578471 ) 65
( 0.181449 -0.0761649 0.035698 ) 6
( 0.0460174 -0.0656431 0.0438013 ) 46
( 0.0443514 -0.0687998 0.0774203 ) 82
( 0.0219526 -0.090472 0.0552401 ) 36
( 0.0098277 -0.0130993 0.0404112 ) 27
( 0.123418 -0.0899812 0.0327242 ) 4
( 0.231359 -0.00782187 0.0472104 ) 71
( 0.231074 -0.00848787 0.0722969 ) 107
( 0.114171 -0.0119381 0.0440671 ) 67
( 0.116845 -0.0901243 0.0731116 ) 76
( 0.145199 -0.0047735 0.0715848 ) 104
( 0.211644 -0.0205391 0.0454073 ) 61
( 0.0289078 -0.0750311 0.0454701 ) 37
( 0.0455354 -0.0137221 0.0441527 ) 64
( 0.10673 -0.0129082 0.0716015 ) 102
( 0.182879 0.0119496 0.0448963 ) 69
( 0.00984216 -0.0283621 0.0531799 ) 54
( 0.172383 -0.0412924 0.0401533 ) 24
( 0.246551 -0.0901668 0.0368625 ) 8
( 0.0616058 -0.0554409 0.0746576 ) 83
( 0.0805075 -0.0483713 0.073442 ) 83
( 0.197148 -0.0705665 0.046679 ) 52
( 0.226241 -0.0404612 0.0695374 ) 62
( 0.0490595 -0.0901677 0.079119 ) 73
( 0.204211 -0.0738801 0.071613 ) 79
( 0.173445 -0.00619451 0.0480237 ) 69
( 0.249698 -0.0737718 0.0658889 ) 44
( 0.0290935 -0.0437575 0.0614038 ) 46
( 0.247854 -0.0416717 0.0727563 ) 98
( 0.00944114 -0.0774415 0.0476199 ) 36
( 0.0401993 -0.0115379 0.0671246 ) 64
( 0.181872 -0.0238876 0.0757269 ) 96
( 0.0981722 -0.0348642 0.0700647 ) 57
( 0.0868785 -0.0665386 0.0783747 ) 84
( 0.117029 0.00827529 0.0420526 ) 31
( 0.156557 -0.0547988 0.0757323 ) 86
( 0.21694 -0.0590394 0.0692264 ) 52
( 0.0806805 -0.027821 0.0760972 ) 92
( 0.236337 -0.0591496 0.0713338 ) 53
( 0.0968185 -0.0766573 0.0454945 ) 39
( 0.14929 -0.0386279 0.0467843 ) 59
( 0.0505158 -0.0408195 0.0514977 ) 55
( 0.155919 0.0141625 0.072964 ) 104
( 0.131716 -0.0428102 0.0723609 ) 94
( 0.0409003 0.00853856 0.0760575 ) 100
( 0.0925195 0.0138269 0.0493047 ) 66
( 0.141218 -0.090137 0.0766781 ) 77
( 0.198309 -0.0534229 0.0656166 ) 52
( 0.154698 0.00876452 0.0430451 ) 68
( 0.198526 -0.0347484 0.0762839 ) 97
( 0.0756877 -0.0900931 0.075104 ) 74
( 0.22185 -0.0803379 0.0776308 ) 79
( 0.193175 0.00257225 0.0814073 ) 105
( 0.120815 -0.0259007 0.0778365 ) 94
( 0.0146862 -0.0711935 0.0874253 ) 81
( 0.202348 -0.0128056 0.0729506 ) 106
( 0.174819 -0.0722198 0.077831 ) 78
( 0.0234485 -0.00782712 0.0766419 ) 99
( 0.0663383 -0.037921 0.0852779 ) 92
( 0.109693 -0.0723601 0.084309 ) 75
( 0.181187 -0.0476441 0.073648 ) 87
( 0.0657128 -0.002083 0.0804982 ) 101
( 0.194462 -0.0899198 0.0779735 ) 79
( 0.0402398 -0.0468207 0.0769056 ) 82
( 0.0097765 0.00628713 0.0807322 ) 99
( 0.00990982 -0.0523549 0.0831451 ) 81
( 0.163134 -0.00315747 0.0825716 ) 104
( 0.224548 0.00930717 0.0771494 ) 107
( 0.131107 0.00828158 0.0762905 ) 103
( 0.136784 -0.0612344 0.0774218 ) 85
( 0.142933 -0.0274956 0.0823686 ) 95
( 0.0613346 -0.0768723 0.0709361 ) 38
( 0.0775668 0.0130205 0.0852921 ) 101
( 0.161721 -0.0902543 0.0716922 ) 77
( 0.248008 -0.0321156 0.0562305 ) 62
( 0.160089 -0.0681511 0.0901982 ) 86
( 0.0969914 -0.090221 0.072279 ) 75
( 0.245113 -0.0902174 0.075597 ) 80
( 0.0580377 -0.0763637 0.0903075 ) 74
( 0.231457 -0.0176776 0.0901215 ) 98
( 0.106218 -0.0305964 0.0902683 ) 93
( 0.0358428 -0.0808208 0.0905003 ) 73
( 0.0733115 -0.0556734 0.0904252 ) 83
( 0.242551 0.00728083 0.0698215 ) 71
( 0.228975 -0.0672421 0.090341 ) 89
( 0.0858089 -0.040287 0.0904388 ) 93
( 0.0327795 -0.0245624 0.0829864 ) 91
( 0.208717 -0.0703454 0.0903587 ) 88
( 0.111888 0.00443612 0.0790196 ) 103
( 0.225391 -0.0481958 0.0875014 ) 89
( 0.165482 -0.0363628 0.0777838 ) 95
( 0.126677 -0.0900266 0.0902419 ) 76
( 0.0881104 -0.00556905 0.0752612 ) 102
( 0.111342 -0.0463449 0.0793688 ) 85
( 0.0269089 0.0101798 0.0901037 ) 99
( 0.184998 -0.0368263 0.0903602 ) 96
( 0.126963 -0.00530758 0.0901385 ) 103
( 0.206154 -0.0516742 0.08404 ) 88
( 0.0521058 -0.0173453 0.0818037 ) 91
( 0.126478 -0.0392823 0.0906756 ) 94
( 0.0542086 0.0104368 0.0904375 ) 100
( 0.00984416 -0.0304823 0.0897085 ) 90
( 0.218849 -0.0233154 0.0757492 ) 97
( 0.210208 -0.0901438 0.0901872 ) 79
( 0.0315446 -0.0613868 0.0905226 ) 82
( 0.146323 -0.00981072 0.0904779 ) 104
( 0.18813 -0.0564823 0.0901023 ) 87
( 0.146597 -0.0454791 0.0901538 ) 86
( 0.248564 -0.0572829 0.0865037 ) 89
( 0.176036 -0.0904645 0.0850784 ) 78
( 0.180577 -0.00973835 0.0901324 ) 105
( 0.143813 0.0116464 0.0905232 ) 104
( 0.050602 -0.0559477 0.0907211 ) 82
( 0.14175 -0.0755241 0.0902305 ) 77
( 0.0946251 0.00435693 0.0905904 ) 102
( 0.0860912 -0.0824524 0.0901853 ) 75
( 0.122312 -0.0585917 0.0904253 ) 85
( 0.107826 -0.0106151 0.0907072 ) 102
( 0.247222 -0.0768443 0.0901321 ) 80
( 0.23259 -0.0900651 0.0906494 ) 80
( 0.0699266 -0.0188999 0.0902456 ) 92
( 0.169352 -0.0505379 0.0904912 ) 87
( 0.0256746 -0.0424097 0.0901431 ) 90
( 0.00986963 -0.010659 0.0904692 ) 99
( 0.098105 -0.0558171 0.0903703 ) 84
( 0.155694 -0.0897811 0.0903389 ) 77
( 0.104514 -0.090202 0.0904419 ) 75
( 0.0378223 -0.0067924 0.0903064 ) 100
( 0.216745 -0.00347438 0.0901618 ) 106
( 0.0898058 -0.018131 0.0904705 ) 93
( 0.187908 -0.0761571 0.0909543 ) 78
( 0.212047 -0.0340404 0.0905504 ) 97
( 0.0476188 -0.0351604 0.0905993 ) 91
( 0.0098455 -0.0901543 0.0900716 ) 72
( 0.242487 -0.0392095 0.0908711 ) 98
( 0.24153 0.0125757 0.0902517 ) 107
( 0.197175 -0.0208304 0.0902961 ) 97
( 0.164683 -0.0214137 0.0903793 ) 95
)
