/*--------------------------------*- C++ -*----------------------------------*\
| =========                 |                                                 |
| \\      /  F ield         | OpenFOAM: The Open Source CFD Toolbox           |
|  \\    /   O peration     | Version:  4.x                                   |
|   \\  /    A nd           | Web:      www.OpenFOAM.org                      |
|    \\/     M anipulation  |                                                 |
\*---------------------------------------------------------------------------*/
FoamFile
{
    version     2.0;
    format      ascii;
    class       volScalarField;
    location    "44";
    object      alpha.iron;
}
// * * * * * * * * * * * * * * * * * * * * * * * * * * * * * * * * * * * * * //

dimensions      [0 0 0 0 0 0 0];

internalField   nonuniform List<scalar> 
87
(
1
1
1
1
1
1
1
1
0.99696
1
1
1
1
1
1
1
1
0.999098
1
1
1
1
1
1
0.999999
0.999998
0.999568
1
1
1
1
1
1
1
1
0.99952
1
1
1
1
0.999999
0.999999
0.999998
0.999998
0.999721
1
1
0.999999
0.999999
0.999997
0.999996
0.999991
0.999991
0.999877
1
1
1
1
1
1
0.999999
0.999999
0.999762
1
1
1
1
0.999999
0.999999
0.999996
0.999995
0.999792
1
1
0.999999
0.999998
0.999996
0.999992
0.999986
0.999983
0.999869
1
1
1
1
1
1
)
;

boundaryField
{
    inlet
    {
        type            fixedValue;
        value           nonuniform 0();
    }
    outlet
    {
        type            fixedValue;
        value           uniform 1;
    }
    wall
    {
        type            zeroGradient;
    }
    procBoundary1to0
    {
        type            processor;
        value           nonuniform List<scalar> 
12
(
1
1
1
1
1
1
1
1
1
1
1
1
)
;
    }
    procBoundary1to3
    {
        type            processor;
        value           nonuniform List<scalar> 
27
(
1
1
1
1
1
1
0.999999
0.999999
0.999798
1
1
1
0.999999
0.999998
0.999997
0.999994
0.999993
0.999797
1
1
0.999999
0.999997
0.999994
0.999989
0.99998
0.999976
0.999894
)
;
    }
    procBoundary1to5
    {
        type            processor;
        value           nonuniform List<scalar> 
32
(
1
1
1
0.999999
0.999998
0.99999
1
1
0.999999
0.999998
0.999996
0.999993
0.999944
1
0.999999
0.999998
0.999996
0.999992
0.999985
0.999975
0.999814
1
1
1
1
1
1
1
1
1
1
1
)
;
    }
    procBoundary1to7
    {
        type            processor;
        value           uniform 1;
    }
}


// ************************************************************************* //
