/*--------------------------------*- C++ -*----------------------------------*\
  =========                 |
  \\      /  F ield         | OpenFOAM: The Open Source CFD Toolbox
   \\    /   O peration     | Website:  https://openfoam.org
    \\  /    A nd           | Version:  4.x
     \\/     M anipulation  |
\*---------------------------------------------------------------------------*/
FoamFile
{
    version     2.0;
    format      ascii;
    class       Cloud<passiveParticle>;
    location    0;
    object      positions;
}
// * * * * * * * * * * * * * * * * * * * * * * * * * * * * * * * * * * * * * //

356
(
( 0.0742904 -0.0554286 -0.0596095 ) 41
( 0.0860949 -0.0205638 -0.029096 ) 83
( 0.249941 -0.0571572 -0.0378135 ) 79
( 0.0502552 -0.0383893 -0.0671899 ) 49
( 0.177238 -0.0798308 -0.0518094 ) 36
( 0.052415 -0.0752677 -0.0488931 ) 31
( 0.193008 -0.0267539 -0.0537407 ) 54
( 0.145405 -0.0834309 -0.026174 ) 67
( 0.0553119 -0.0674276 -0.0310027 ) 72
( 0.0535484 -0.0265572 -0.0263236 ) 81
( 0.00981178 -0.0395223 -0.0345472 ) 80
( 0.217691 -0.0898215 -0.061022 ) 37
( 0.203172 -0.0500781 -0.0423859 ) 78
( 0.212037 -0.0255522 -0.0483891 ) 55
( 0.0789886 -0.0210725 -0.0557674 ) 50
( 0.176407 -0.071418 -0.0698412 ) 45
( 0.186321 -0.04234 -0.0350592 ) 86
( 0.194262 -0.0148347 -0.0696426 ) 54
( 0.109198 -0.0279586 -0.0582707 ) 51
( 0.226072 -0.0496266 -0.070606 ) 47
( 0.241915 -0.0204816 -0.059129 ) 56
( 0.242129 -0.07045 -0.0256081 ) 79
( 0.0743364 -0.0366996 -0.0288476 ) 82
( 0.137487 -0.0446851 -0.0393556 ) 75
( 0.204453 -0.0530955 -0.06373 ) 46
( 0.0958659 -0.0517323 -0.0335077 ) 74
( 0.0620318 -0.0407746 -0.043737 ) 50
( 0.215494 -0.064574 -0.0517753 ) 46
( 0.0272972 -0.0143398 -0.0498428 ) 48
( 0.0791365 -0.0729905 -0.050855 ) 32
( 0.204787 -0.0731431 -0.0374696 ) 69
( 0.11951 -0.0384523 -0.044894 ) 52
( 0.232797 -0.0560249 -0.0473996 ) 47
( 0.0266378 -0.0169543 -0.0301825 ) 80
( 0.138798 -0.0574966 -0.0244278 ) 75
( 0.0278805 -0.0765901 -0.036676 ) 63
( 0.141191 -0.0201947 -0.0702931 ) 53
( 0.0384788 -0.0747782 -0.0629054 ) 31
( 0.107967 -0.0802282 -0.0393422 ) 65
( 0.0730016 -0.0766505 -0.0323915 ) 64
( 0.110855 -0.0786139 -0.0197718 ) 65
( 0.135452 -0.0456533 -0.0684012 ) 43
( 0.149417 -0.0491867 -0.054605 ) 44
( 0.240169 -0.0356014 -0.0718267 ) 26
( 0.171186 -0.0274808 -0.0687477 ) 54
( 0.12729 -0.0901816 -0.0207485 ) 66
( 0.233595 -0.0753089 -0.0527941 ) 38
( 0.0365983 -0.0626314 -0.0474252 ) 40
( 0.1722 -0.0571383 -0.0515115 ) 45
( 0.107374 -0.0761153 -0.0662801 ) 33
( 0.0937424 -0.0217304 -0.0690167 ) 51
( 0.138299 -0.0878246 -0.0550486 ) 34
( 0.187991 -0.0628695 -0.040464 ) 77
( 0.133258 -0.0181679 -0.0413389 ) 84
( 0.0835513 -0.0383007 -0.0646925 ) 51
( 0.11264 -0.0200343 -0.0404132 ) 84
( 0.0985281 -0.0584657 -0.0672389 ) 42
( 0.150514 -0.0110675 -0.0348481 ) 94
( 0.0402002 -0.0265868 -0.0411149 ) 81
( 0.066614 -0.0217673 -0.040451 ) 82
( 0.0341846 -0.0347966 -0.0243221 ) 81
( 0.148753 -0.0793795 -0.0696047 ) 35
( 0.0114762 -0.0272417 -0.0627594 ) 48
( 0.0976323 -0.0660316 -0.048753 ) 42
( 0.128892 -0.0732969 -0.0308477 ) 66
( 0.00964827 -0.00690668 -0.0306491 ) 89
( 0.239698 -0.0432051 -0.0281828 ) 79
( 0.149996 -0.0624434 -0.0398178 ) 76
( 0.166721 -0.0709246 -0.0333807 ) 77
( 0.200243 -0.0861292 -0.0517099 ) 37
( 0.160764 -0.0281144 -0.0351838 ) 85
( 0.189259 -0.0353044 -0.0713502 ) 54
( 0.12132 -0.00643948 -0.0520018 ) 61
( 0.18743 -0.0824465 -0.0351193 ) 68
( 0.0275497 -0.0474666 -0.0382258 ) 71
( 0.0544933 -0.0580083 -0.0586515 ) 40
( 0.0304367 -0.0900413 -0.0511394 ) 31
( 0.0823647 -0.0437106 -0.0456178 ) 41
( 0.157516 -0.0252528 -0.0545334 ) 53
( 0.138889 -0.031943 -0.0544449 ) 53
( 0.0841515 -0.0901496 -0.0421009 ) 65
( 0.0328306 -0.030805 -0.0595114 ) 49
( 0.0498637 -0.00882611 -0.0361514 ) 90
( 0.0910743 -0.0364836 -0.0182497 ) 83
( 0.0185987 -0.00910881 -0.0668564 ) 57
( 0.0703475 -0.0585693 -0.040335 ) 73
( 0.0534639 -0.02289 -0.0552383 ) 49
( 0.174915 -0.0326838 -0.0482341 ) 54
( 0.00991524 -0.0641512 -0.0350734 ) 71
( 0.00990662 -0.0802135 -0.0232054 ) 62
( 0.200329 -0.0502744 -0.0227582 ) 78
( 0.123695 -0.0552109 -0.0556198 ) 43
( 0.187007 -0.0901165 -0.0658852 ) 36
( 0.237109 -0.0901045 -0.065649 ) 38
( 0.114943 -0.0616494 -0.039038 ) 75
( 0.0654369 -0.0145638 -0.0688045 ) 50
( 0.00990419 -0.0628662 -0.0617892 ) 39
( 0.0977544 -0.0328892 -0.039184 ) 83
( 0.224903 -0.072983 -0.035133 ) 70
( 0.177269 -0.0566427 -0.0249666 ) 77
( 0.224322 -0.0261869 -0.0329273 ) 88
( 0.208091 -0.0308347 -0.0670617 ) 55
( 0.0435655 -0.0794473 -0.0202874 ) 63
( 0.216672 -0.0900798 -0.0411723 ) 69
( 0.243086 -0.0902311 -0.0437272 ) 38
( 0.0262395 -0.0614384 -0.0240688 ) 71
( 0.0968669 -0.0142077 -0.0508441 ) 60
( 0.209476 -0.0732442 -0.0685494 ) 37
( 0.126463 -0.068399 -0.0707327 ) 43
( 0.19647 -0.0903059 -0.0194154 ) 69
( 0.169596 -0.0902747 -0.0311159 ) 68
( 0.154351 -0.0877638 -0.0434536 ) 35
( 0.179866 -0.0233525 -0.0295199 ) 86
( 0.192724 -0.0687848 -0.0587812 ) 45
( 0.0797512 -0.0548166 -0.0225156 ) 73
( 0.233951 -0.0678973 -0.0712045 ) 47
( 0.12166 -0.0747344 -0.0525146 ) 34
( 0.188239 -0.0460712 -0.0546684 ) 45
( 0.235432 -0.0359153 -0.0462255 ) 56
( 0.163255 -0.0480589 -0.036346 ) 76
( 0.0584021 -0.0900873 -0.0631121 ) 32
( 0.216271 -0.0900176 -0.0213882 ) 69
( 0.121403 -0.0901154 -0.0651675 ) 34
( 0.150157 -0.0400001 -0.0233782 ) 85
( 0.0435237 -0.0442506 -0.0494722 ) 40
( 0.00989492 -0.0219038 -0.0436838 ) 48
( 0.161394 -0.0574917 -0.0681355 ) 44
( 0.121645 -0.0168181 -0.0690162 ) 52
( 0.124495 -0.0296253 -0.0278878 ) 84
( 0.103122 -0.0471762 -0.0517126 ) 42
( 0.20342 -0.032985 -0.0322356 ) 87
( 0.0446493 -0.0900535 -0.0371024 ) 63
( 0.114493 -0.0438214 -0.069051 ) 43
( 0.0100184 -0.0448253 -0.0535591 ) 39
( 0.0965278 -0.0902403 -0.0267841 ) 65
( 0.0279316 -0.0501181 -0.0603141 ) 40
( 0.0782184 -0.090052 -0.0610722 ) 32
( 0.0623568 -0.00559627 -0.0513185 ) 59
( 0.0644793 -0.0902172 -0.0442063 ) 32
( 0.119633 -0.0594926 -0.0199418 ) 75
( 0.00972278 -0.0236962 -0.0203813 ) 80
( 0.117934 -0.00258762 -0.0328532 ) 93
( 0.0111145 -0.08241 -0.0584405 ) 30
( 0.220092 -0.0496514 -0.0320711 ) 78
( 0.00985511 -0.00304112 -0.0500941 ) 57
( 0.130895 -0.042091 0.00676814 ) 118
( 0.110707 -0.0513011 -0.00414765 ) 108
( 0.126408 -0.0172213 0.00203491 ) 118
( 0.170465 -0.0737938 0.00156517 ) 102
( 0.0585523 -0.0723168 0.000459428 ) 98
( 0.0397908 -0.00708711 -0.0191433 ) 90
( 0.225972 -0.0427459 -0.00187406 ) 122
( 0.134214 -0.0623983 0.00495079 ) 109
( 0.0216983 -0.0121391 0.0050564 ) 123
( 0.208193 -0.0191049 -0.0169074 ) 87
( 0.124898 0.00574736 0.00182098 ) 127
( 0.190616 -0.0340511 -0.0167408 ) 86
( 0.0607727 -0.0107524 -0.00638815 ) 125
( 0.0199489 -0.0337312 0.00797541 ) 114
( 0.159944 -0.00403955 -0.0129289 ) 128
( 0.0827775 -0.00871462 0.00347395 ) 125
( 0.122441 -0.0126803 -0.0166399 ) 93
( 0.0561913 -0.0565062 0.0138284 ) 107
( 0.110727 -0.0356937 0.00805069 ) 117
( 0.163282 -0.0374332 0.0137011 ) 119
( 0.239513 -0.0566986 0.000916761 ) 113
( 0.0910664 -0.0432622 0.000378408 ) 108
( 0.206262 -0.061817 0.0114863 ) 112
( 0.205791 -0.0496748 -0.00382255 ) 112
( 0.143214 -0.00865209 -0.00344734 ) 128
( 0.150745 -0.0739153 0.00327767 ) 101
( 0.161991 -0.0901745 0.00874128 ) 101
( 0.186409 -0.0488578 0.011923 ) 111
( 0.22817 -0.0763504 0.00986809 ) 104
( 0.0353562 -0.0823315 -0.00152278 ) 97
( 0.23503 -0.0353433 0.0137163 ) 122
( 0.176865 -0.0174221 -0.010134 ) 120
( 0.0382704 -0.0335915 0.000346689 ) 115
( 0.219242 -0.0643878 -0.00281663 ) 112
( 0.056392 -0.0208843 0.00993866 ) 116
( 0.22172 -0.0902142 -0.00242776 ) 103
( 0.0262125 -0.0646191 -0.00189262 ) 105
( 0.214582 -0.0378684 -0.0169533 ) 87
( 0.0961129 -0.023954 0.001255 ) 117
( 0.168953 -0.0184299 0.00807553 ) 120
( 0.10133 -0.0713733 0.00560599 ) 108
( 0.15031 -0.0515138 0.00834493 ) 110
( 0.0563552 -0.0306794 -0.00717525 ) 116
( 0.238579 -0.0749264 -0.00672468 ) 104
( 0.1584 -0.0398406 -0.00523511 ) 119
( 0.0789701 -0.0902146 -0.0177908 ) 64
( 0.213272 -0.0130838 0.0014128 ) 130
( 0.0714967 -0.0901466 0.000486957 ) 98
( 0.193567 -0.0129938 -0.000536148 ) 129
( 0.118275 -0.0308302 -0.00935497 ) 118
( 0.206103 -0.0784514 -0.007035 ) 103
( 0.179329 -0.0809799 -0.0150501 ) 68
( 0.0951487 -0.0901107 0.0123837 ) 99
( 0.0742749 -0.07149 -0.0133866 ) 98
( 0.149167 -0.0902571 -0.00782497 ) 101
( 0.118307 -0.0902138 -0.0030827 ) 100
( 0.169352 -0.0540304 0.0033913 ) 111
( 0.0150821 -0.0902541 -0.00691148 ) 96
( 0.00982998 -0.0843382 0.0111177 ) 96
( 0.190937 -0.0683194 0.000707538 ) 111
( 0.18394 -0.0318616 0.00183718 ) 120
( 0.247355 -0.0414098 -0.00901879 ) 122
( 0.139182 -0.0237222 -0.0158752 ) 85
( 0.00985856 -0.050983 0.00242626 ) 105
( 0.109959 -0.00686377 -0.0023032 ) 126
( 0.134732 -0.0900508 0.00826568 ) 100
( 0.0656022 -0.00337758 0.0119306 ) 125
( 0.0529215 -0.0901723 -0.00638639 ) 97
( 0.0710523 -0.0490846 0.00296477 ) 107
( 0.0423328 -0.0707278 0.0130212 ) 106
( 0.0180925 -0.00457663 -0.0128715 ) 123
( 0.230538 -0.056197 -0.0165941 ) 79
( 0.0745167 -0.0287315 0.00460986 ) 116
( 0.185638 -0.0511653 -0.00779201 ) 111
( 0.203573 -0.0302257 -0.00115546 ) 121
( 0.160246 -0.075772 -0.0153322 ) 67
( 0.133686 -0.0425404 -0.0126999 ) 118
( 0.0414703 -0.0134509 -0.000495997 ) 124
( 0.181594 -0.0902524 0.00215844 ) 102
( 0.18206 0.00900821 -0.0387667 ) 95
( 0.0877963 0.0117652 -0.0413281 ) 92
( 0.135556 0.0142261 -0.0561551 ) 61
( 0.0586234 0.00902328 -0.0244302 ) 91
( 0.00979435 0.011727 -0.0204919 ) 89
( 0.0781778 0.00488192 -0.0572376 ) 59
( 0.124092 0.00380757 -0.068766 ) 61
( 0.148102 0.0133786 -0.0310445 ) 94
( 0.0433064 0.0103486 -0.0368433 ) 90
( 0.113564 0.0111025 -0.0463185 ) 61
( 0.0549304 0.0121102 -0.0563206 ) 58
( 0.10547 -0.00057308 -0.0624173 ) 60
( 0.177063 0.0018696 -0.00491795 ) 129
( 0.0110429 0.0100791 -0.000647365 ) 123
( 0.0869408 0.0111531 -0.00729043 ) 126
( 0.0435399 0.0110334 -0.0116993 ) 124
( 0.209495 0.00574235 -0.00260279 ) 130
( 0.0630088 0.00877207 -0.00500668 ) 125
( 0.100222 0.00418638 0.0121176 ) 126
( 0.146057 0.00887863 0.00520031 ) 128
( 0.107695 0.0127068 -0.00532891 ) 126
( 0.1532 0.0142705 -0.0120475 ) 128
( 0.16595 0.00122069 0.0114752 ) 128
( 0.0330682 0.00394806 0.00353893 ) 124
( 0.139844 -0.0676306 -0.0559918 ) 44
( 0.0665684 -0.00902114 -0.0253875 ) 91
( 0.00997893 -0.0901546 -0.0402909 ) 62
( 0.0479241 -0.0486981 -0.0281946 ) 72
( 0.0789667 -0.00608416 -0.0406311 ) 91
( 0.0825005 -0.0655052 0.00342433 ) 107
( 0.00987395 0.00866809 -0.0662017 ) 57
( 0.235153 0.00625382 -0.0136881 ) 131
( 0.153819 -0.0372772 -0.0699236 ) 53
( 0.163207 -0.0901981 -0.0611749 ) 35
( 0.0435658 -0.00575063 -0.0574288 ) 58
( 0.12512 -0.0902015 -0.0405155 ) 66
( 0.0244212 0.00535156 -0.0342527 ) 89
( 0.0930029 -0.0710088 -0.0300201 ) 74
( 0.0736149 -0.0235291 -0.0141401 ) 116
( 0.10564 0.0116386 -0.0265085 ) 92
( 0.0274793 0.00520387 -0.0537832 ) 57
( 0.0492165 -0.0617838 -0.0131953 ) 106
( 0.248985 -0.0474056 -0.0551102 ) 47
( 0.0973091 -0.00481819 -0.0333455 ) 92
( 0.0996821 -0.0900988 -0.054473 ) 33
( 0.150167 -0.0251282 0.00490586 ) 119
( 0.17369 -0.00466309 -0.0270074 ) 95
( 0.218481 -0.0436716 -0.0532349 ) 46
( 0.192336 0.00533035 0.00726131 ) 129
( 0.231487 -0.0203969 0.00184101 ) 122
( 0.135622 0.00155796 -0.0408052 ) 93
( 0.0973094 -0.0635756 -0.0121513 ) 108
( 0.0602924 -0.0898434 -0.0247664 ) 64
( 0.212906 -0.0655405 -0.0212909 ) 78
( 0.191725 -0.00846077 -0.0199264 ) 95
( 0.15177 -0.0588248 -0.00979634 ) 110
( 0.0785302 0.00674268 -0.0246041 ) 91
( 0.027091 -0.0902401 -0.0225945 ) 62
( 0.192942 -0.0685434 -0.0220908 ) 77
( 0.126613 0.0130717 -0.0244663 ) 93
( 0.109451 -0.0427666 -0.022278 ) 83
( 0.103407 -0.0208553 -0.0177667 ) 83
( 0.158992 -0.0233641 -0.0160784 ) 85
( 0.159301 -0.0718797 -0.0545134 ) 35
( 0.00984204 -0.0632345 -0.0130735 ) 105
( 0.0629166 -0.0475859 -0.0151161 ) 73
( 0.0270534 -0.022124 -0.011019 ) 114
( 0.170641 -0.0386358 -0.0205956 ) 86
( 0.139257 -0.00180328 -0.021502 ) 94
( 0.23631 -0.0901161 -0.0193001 ) 70
( 0.118596 -0.0704781 -0.00362891 ) 109
( 0.0896695 -0.00685009 -0.0150671 ) 92
( 0.232646 -0.0298091 -0.0154273 ) 88
( 0.034377 -0.0491772 -0.0109272 ) 106
( 0.0106229 -0.0427105 -0.0152117 ) 80
( 0.136517 -0.0751183 -0.0104259 ) 100
( 0.193331 0.00992155 -0.0128036 ) 129
( 0.0988768 -0.0892484 -0.00708667 ) 99
( 0.0375698 -0.0519228 0.0085627 ) 106
( 0.144034 -0.0614896 -0.0769267 ) 14
( 0.17323 -0.0449849 -0.0780714 ) 15
( 0.0858379 -0.0736468 -0.0694968 ) 33
( 0.00990553 -0.0445513 -0.0734304 ) 9
( 0.0408073 -0.0584748 -0.0739091 ) 10
( 0.056159 -0.072511 -0.0721308 ) 2
( 0.0673461 -0.0441234 -0.0755024 ) 11
( 0.0422576 -0.0901609 -0.0747757 ) 1
( 0.205197 -0.0901709 -0.0779689 ) 7
( 0.244491 -0.0533222 -0.0797074 ) 17
( 0.224642 -0.0236427 -0.0754252 ) 26
( 0.0774375 -0.0263795 -0.0794606 ) 20
( 0.223739 -0.0831127 -0.0788157 ) 8
( 0.0215751 -0.0742362 -0.0732736 ) 0
( 0.0854171 -0.050916 -0.0800406 ) 12
( 0.109106 -0.0279999 -0.0799201 ) 21
( 0.209785 -0.0448856 -0.0810955 ) 16
( 0.192275 -0.0612079 -0.0772018 ) 15
( 0.172033 -0.0899123 -0.0789962 ) 6
( 0.128625 -0.0315672 -0.0806687 ) 22
( 0.0432567 -0.0193194 -0.0719757 ) 19
( 0.134224 -0.0879113 -0.0802324 ) 4
( 0.0333978 -0.0403811 -0.0775222 ) 19
( 0.112422 -0.0592814 -0.0814614 ) 13
( 0.0700946 -0.0898492 -0.0792705 ) 2
( 0.0220395 -0.024168 -0.079371 ) 18
( 0.0959251 -0.0901393 -0.0743674 ) 3
( 0.188819 -0.0799578 -0.0829475 ) 6
( 0.161228 -0.0710806 -0.0827208 ) 14
( 0.206385 -0.0209727 -0.0842832 ) 25
( 0.159247 -0.0247874 -0.0844847 ) 23
( 0.0722426 -0.0658004 -0.081797 ) 11
( 0.0229287 -0.056591 -0.0824578 ) 9
( 0.0578297 -0.0279447 -0.082407 ) 20
( 0.0343434 0.000891716 -0.0737559 ) 28
( 0.0544694 -0.00839321 -0.0842946 ) 28
( 0.218615 -0.063212 -0.0831235 ) 16
( 0.113414 -0.0854742 -0.0828287 ) 4
( 0.144288 -0.0437925 -0.0861657 ) 14
( 0.241871 -0.0208085 -0.0850804 ) 26
( 0.00994163 -0.0900534 -0.0767516 ) 0
( 0.0948414 -0.0674471 -0.0861388 ) 12
( 0.228263 -0.0391703 -0.0874339 ) 26
( 0.061564 0.00986008 -0.087813 ) 29
( 0.0372772 -0.0741857 -0.0856082 ) 1
( 0.153305 -0.090061 -0.085765 ) 5
( 0.0505647 -0.046114 -0.0860241 ) 10
( 0.00989618 -0.0018666 -0.0831818 ) 27
( 0.191284 -0.0449245 -0.0886708 ) 15
( 0.0350527 -0.0122632 -0.0887205 ) 28
( 0.00991162 -0.0702432 -0.0888816 ) 9
( 0.0927651 -0.0347404 -0.0890724 ) 21
( 0.0256976 -0.0900572 -0.0889498 ) 0
)
