/*--------------------------------*- C++ -*----------------------------------*\
| =========                 |                                                 |
| \\      /  F ield         | OpenFOAM: The Open Source CFD Toolbox           |
|  \\    /   O peration     | Version:  4.x                                   |
|   \\  /    A nd           | Web:      www.OpenFOAM.org                      |
|    \\/     M anipulation  |                                                 |
\*---------------------------------------------------------------------------*/
FoamFile
{
    version     2.0;
    format      ascii;
    class       volScalarField;
    location    "55.5";
    object      pSmooth;
}
// * * * * * * * * * * * * * * * * * * * * * * * * * * * * * * * * * * * * * //

dimensions      [1 -1 -2 0 0 0 0];

internalField   nonuniform List<scalar> 
87
(
19.1888
74.8718
2.02325
69.1175
0.1
65.1541
0.1
65.5577
0.1
18.6964
74.7974
1.49014
69.0905
0.1
65.1667
0.1
65.0074
0.1
19.523
75.0317
2.30156
68.8825
0.1
63.8015
0.1
60.9271
0.1
19.5124
75.1145
2.35926
68.9679
0.1
63.6449
0.1
59.8379
0.1
19.0582
75.0774
1.9655
68.9363
0.1
63.605
0.1
60.0747
0.1
19.8458
75.2713
2.70448
68.4859
0.1
62.079
0.1
55.6945
0.1
19.3041
74.8957
1.94446
68.8978
0.1
64.1368
0.1
61.8256
0.1
18.7663
74.7888
1.47889
68.6549
0.1
63.6483
0.1
61.1349
0.1
20.3062
74.8639
3.06025
68.3971
0.1
62.592
0.1
57.8742
0.1
20.7181
75.5819
3.42448
20.4739
75.2189
22.7212
)
;

boundaryField
{
    inlet
    {
        type            zeroGradient;
    }
    outlet
    {
        type            fixedValue;
        value           uniform 0;
    }
    wall
    {
        type            zeroGradient;
    }
    procBoundary1to0
    {
        type            processor;
        value           nonuniform List<scalar> 
12
(
81.2669
81.1631
81.6066
81.6509
81.7281
82.192
81.405
81.4619
81.821
82.1693
82.2229
82.0468
)
;
    }
    procBoundary1to3
    {
        type            processor;
        value           nonuniform List<scalar> 
27
(
18.4952
74.6405
1.27878
68.8482
0.1
64.7859
0.1
63.8011
0.1
18.4241
74.8921
1.25336
68.6803
0.1
63.5708
0.1
60.6642
0.1
19.451
74.7559
2.14786
68.282
0.1
62.9156
0.1
58.7945
0.1
)
;
    }
    procBoundary1to5
    {
        type            processor;
        value           nonuniform List<scalar> 
32
(
69.1374
0.1
62.3615
0.1
55.6828
0.1
2.99798
68.4644
0.1
62.1999
0.1
56.3542
0.1
75.0954
5.18408
68.3312
0.1
61.4401
0.1
53.6033
0.1
19.7497
74.8558
69.1374
2.99798
2.25601
19.8821
2.99798
75.0954
74.9733
75.0954
21.4031
)
;
    }
    procBoundary1to7
    {
        type            processor;
        value           uniform 20.852;
    }
}


// ************************************************************************* //
