/*--------------------------------*- C++ -*----------------------------------*\
| =========                 |                                                 |
| \\      /  F ield         | OpenFOAM: The Open Source CFD Toolbox           |
|  \\    /   O peration     | Version:  4.x                                   |
|   \\  /    A nd           | Web:      www.OpenFOAM.org                      |
|    \\/     M anipulation  |                                                 |
\*---------------------------------------------------------------------------*/
FoamFile
{
    version     2.0;
    format      ascii;
    class       volVectorField;
    location    "44.5";
    object      impParticleForces;
}
// * * * * * * * * * * * * * * * * * * * * * * * * * * * * * * * * * * * * * //

dimensions      [1 1 -2 0 0 0 0];

internalField   nonuniform List<vector> 
87
(
(0.00242892 1.11797e-05 -3.49495e-05)
(0.00242553 1.36435e-05 -4.24543e-05)
(0.00244746 1.27187e-05 -3.72205e-05)
(0.00240772 1.61489e-05 -4.79955e-05)
(0.00239326 1.39773e-05 -4.26078e-05)
(0.00240351 1.20015e-05 -3.77577e-05)
(0.00238826 8.29894e-06 -5.58089e-05)
(0.00241302 8.63704e-06 -5.52735e-05)
(0.0024367 9.27276e-06 -5.34569e-05)
(0.00243257 9.01836e-06 -5.01225e-05)
(0.00245948 9.19061e-06 -4.6469e-05)
(0.00241927 8.5792e-06 -4.14295e-05)
(0.00243834 8.5019e-06 -3.68722e-05)
(0.00239471 8.29431e-06 -3.21917e-05)
(0.00241572 8.03544e-06 -2.79533e-05)
(0.00235338 1.75933e-05 -5.50036e-05)
(0.00238909 1.87259e-05 -5.49916e-05)
(0.0024288 1.97328e-05 -5.37119e-05)
(0.00243135 1.83546e-05 -5.08161e-05)
(0.002454 1.75942e-05 -4.74083e-05)
(0.00242822 1.53945e-05 -4.28516e-05)
(0.00244448 1.39013e-05 -3.84384e-05)
(0.00240842 1.185e-05 -3.39342e-05)
(0.00242964 9.97383e-06 -3.01146e-05)
(0.00229757 1.96972e-05 -5.40496e-05)
(0.00233042 2.09571e-05 -5.43352e-05)
(0.00236098 2.12317e-05 -5.3205e-05)
(0.00237325 2.02185e-05 -5.07943e-05)
(0.00241356 1.96375e-05 -4.75623e-05)
(0.00240604 1.75919e-05 -4.3622e-05)
(0.00240547 1.54608e-05 -3.89869e-05)
(0.00237276 1.26472e-05 -3.47293e-05)
(0.00239936 1.03757e-05 -3.12013e-05)
(0.00236406 7.81849e-06 -4.17193e-05)
(0.00239273 8.47218e-06 -4.08328e-05)
(0.00243253 9.05373e-06 -3.86026e-05)
(0.00241849 8.44272e-06 -3.67253e-05)
(0.00243204 8.22224e-06 -3.3736e-05)
(0.00241428 7.53624e-06 -3.07945e-05)
(0.00243473 7.30113e-06 -2.73538e-05)
(0.00238454 6.52456e-06 -2.45651e-05)
(0.00240839 5.9945e-06 -2.15218e-05)
(0.00232695 1.64414e-05 -4.22081e-05)
(0.00236954 1.78167e-05 -4.12867e-05)
(0.00241143 1.88483e-05 -3.9298e-05)
(0.00240303 1.70233e-05 -3.7802e-05)
(0.0024313 1.64897e-05 -3.46114e-05)
(0.00240688 1.41111e-05 -3.2172e-05)
(0.00243906 1.32154e-05 -2.85255e-05)
(0.00239461 1.05368e-05 -2.60913e-05)
(0.00242395 8.9439e-06 -2.31162e-05)
(0.00228448 1.90574e-05 -4.25553e-05)
(0.00230421 1.97069e-05 -4.21349e-05)
(0.00234 2.00929e-05 -4.0592e-05)
(0.00235406 1.91602e-05 -3.88227e-05)
(0.00238308 1.8233e-05 -3.61342e-05)
(0.00237185 1.60632e-05 -3.33641e-05)
(0.00239131 1.43027e-05 -2.99767e-05)
(0.00236737 1.16281e-05 -2.73525e-05)
(0.00238395 9.24784e-06 -2.45192e-05)
(0.00232053 6.90182e-06 -3.53513e-05)
(0.00233217 7.16184e-06 -3.45087e-05)
(0.00238309 7.66376e-06 -3.21407e-05)
(0.00237481 7.14269e-06 -3.06943e-05)
(0.00239187 6.86079e-06 -2.80587e-05)
(0.0023821 6.33434e-06 -2.57034e-05)
(0.00241108 5.83666e-06 -2.24103e-05)
(0.00236701 5.13037e-06 -2.05376e-05)
(0.00236734 4.48884e-06 -1.815e-05)
(0.00228751 1.48254e-05 -3.61992e-05)
(0.00230971 1.54628e-05 -3.5283e-05)
(0.00235283 1.61352e-05 -3.34698e-05)
(0.00235691 1.50866e-05 -3.19577e-05)
(0.0023865 1.44679e-05 -2.93475e-05)
(0.00237308 1.25998e-05 -2.71887e-05)
(0.00239324 1.12685e-05 -2.43847e-05)
(0.00236474 9.02772e-06 -2.24378e-05)
(0.00237811 7.30533e-06 -2.01642e-05)
(0.00225589 1.76337e-05 -3.69359e-05)
(0.00227254 1.81023e-05 -3.62496e-05)
(0.00231334 1.85236e-05 -3.47029e-05)
(0.00231715 1.75441e-05 -3.31412e-05)
(0.00233586 1.64013e-05 -3.0901e-05)
(0.00235009 1.48328e-05 -2.84579e-05)
(0.00236098 1.2854e-05 -2.59274e-05)
(0.00234497 1.03498e-05 -2.39295e-05)
(0.00236281 8.0929e-06 -2.17018e-05)
)
;

boundaryField
{
    inlet
    {
        type            zeroGradient;
    }
    outlet
    {
        type            zeroGradient;
    }
    wall
    {
        type            zeroGradient;
    }
    procBoundary6to0
    {
        type            processor;
        value           uniform (0.0023999 9.65663e-06 -3.39683e-05);
    }
    procBoundary6to2
    {
        type            processor;
        value           nonuniform List<vector> 
32
(
(0.00245137 1.3322e-05 -4.13791e-05)
(0.00245927 1.49612e-05 -4.97152e-05)
(0.00247766 1.43009e-05 -4.33363e-05)
(0.00244638 1.74124e-05 -5.63858e-05)
(0.00241683 1.51774e-05 -4.91785e-05)
(0.00243452 1.3725e-05 -4.33013e-05)
(0.0023668 7.78254e-06 -7.05707e-05)
(0.00241464 8.84668e-06 -7.17183e-05)
(0.00246584 1.02573e-05 -7.13594e-05)
(0.00244566 9.88049e-06 -6.57459e-05)
(0.00246467 1.01914e-05 -6.05534e-05)
(0.00243471 9.72796e-06 -5.34454e-05)
(0.00245376 1.01634e-05 -4.72957e-05)
(0.00241413 1.03423e-05 -4.06862e-05)
(0.00241413 1.03423e-05 -4.06862e-05)
(0.00241413 1.03423e-05 -4.06862e-05)
(0.00233928 1.65679e-05 -6.89211e-05)
(0.00238519 1.83341e-05 -7.03401e-05)
(0.00245319 2.0539e-05 -7.06799e-05)
(0.00243508 1.86903e-05 -6.56099e-05)
(0.00246612 1.86937e-05 -6.11422e-05)
(0.00243781 1.64121e-05 -5.43051e-05)
(0.00246316 1.55407e-05 -4.87813e-05)
(0.00246316 1.55407e-05 -4.87813e-05)
(0.00246316 1.55407e-05 -4.87813e-05)
(0.00228679 1.89448e-05 -6.65316e-05)
(0.00232717 2.04867e-05 -6.77779e-05)
(0.00239182 2.21355e-05 -6.81711e-05)
(0.00239059 2.08677e-05 -6.42249e-05)
(0.00241665 2.00522e-05 -5.97834e-05)
(0.00239968 1.78545e-05 -5.36469e-05)
(0.00239968 1.78545e-05 -5.36469e-05)
)
;
    }
    procBoundary6to4
    {
        type            processor;
        value           nonuniform List<vector> 
27
(
(0.00235305 -4.75933e-06 -5.52697e-05)
(0.00240385 -5.08851e-06 -5.51276e-05)
(0.0024564 -4.61561e-06 -5.35973e-05)
(0.00243608 -3.29635e-06 -4.9954e-05)
(0.00245963 -2.01872e-06 -4.57331e-05)
(0.00242722 9.34149e-08 -4.09251e-05)
(0.00245169 2.14401e-06 -3.61304e-05)
(0.00239248 4.22282e-06 -3.11145e-05)
(0.00240053 6.18979e-06 -2.64813e-05)
(0.00235534 -4.91012e-06 -4.20798e-05)
(0.00239412 -4.96647e-06 -4.09268e-05)
(0.00243538 -4.54056e-06 -3.86155e-05)
(0.0024345 -3.43432e-06 -3.62086e-05)
(0.00246103 -2.45737e-06 -3.26156e-05)
(0.00242565 -8.47848e-07 -2.98392e-05)
(0.00244654 6.3577e-07 -2.59255e-05)
(0.00239137 2.08391e-06 -2.32011e-05)
(0.00239727 3.24926e-06 -1.99264e-05)
(0.0023349 -4.83549e-06 -3.52652e-05)
(0.00234367 -4.56785e-06 -3.423e-05)
(0.0023881 -4.37596e-06 -3.18593e-05)
(0.00239159 -3.6004e-06 -2.99101e-05)
(0.00242117 -2.68057e-06 -2.67854e-05)
(0.00239692 -1.3485e-06 -2.45166e-05)
(0.00238377 -5.0048e-08 -2.18301e-05)
(0.00235844 9.47732e-07 -1.93952e-05)
(0.00236326 1.61896e-06 -1.65525e-05)
)
;
    }
    procBoundary6to7
    {
        type            processor;
        value           nonuniform List<vector> 
12
(
(0.00241021 1.1366e-05 -2.98394e-05)
(0.00241666 1.10641e-05 -3.24067e-05)
(0.00240155 9.94508e-06 -3.39858e-05)
(0.00237867 7.94413e-06 -2.39584e-05)
(0.00239104 8.2574e-06 -2.63432e-05)
(0.00237044 7.92991e-06 -2.79177e-05)
(0.00238271 5.34078e-06 -1.88368e-05)
(0.00238875 6.53949e-06 -2.09384e-05)
(0.00235644 6.56567e-06 -2.22358e-05)
(0.00235438 3.62572e-06 -1.61326e-05)
(0.00234962 5.26977e-06 -1.8477e-05)
(0.00232952 5.52166e-06 -1.99836e-05)
)
;
    }
}


// ************************************************************************* //
