/*--------------------------------*- C++ -*----------------------------------*\
| =========                 |                                                 |
| \\      /  F ield         | OpenFOAM: The Open Source CFD Toolbox           |
|  \\    /   O peration     | Version:  4.x                                   |
|   \\  /    A nd           | Web:      www.OpenFOAM.org                      |
|    \\/     M anipulation  |                                                 |
\*---------------------------------------------------------------------------*/
FoamFile
{
    version     2.0;
    format      ascii;
    class       volScalarField;
    location    "44.5";
    object      particleRelTemp;
}
// * * * * * * * * * * * * * * * * * * * * * * * * * * * * * * * * * * * * * //

dimensions      [0 0 0 0 0 0 0];

internalField   nonuniform List<scalar> 
87
(
-1.58244e-12
-8.3292e-12
-3.62425e-12
-1.29513e-11
-1.00197e-11
-7.29621e-12
-2.14083e-11
-2.02883e-11
-1.86183e-11
-1.64693e-11
-1.40599e-11
-1.15158e-11
-9.20695e-12
-5.93302e-12
-1.38159e-12
-2.14808e-11
-2.07134e-11
-1.93361e-11
-1.74194e-11
-1.56148e-11
-1.33132e-11
-1.04116e-11
-8.41737e-12
-4.21614e-12
-2.17632e-11
-2.0902e-11
-1.99211e-11
-1.81347e-11
-1.67454e-11
-1.45318e-11
-1.25982e-11
-1.05782e-11
-6.70634e-12
-2.1582e-11
-2.04641e-11
-1.92199e-11
-1.73931e-11
-1.5396e-11
-1.30261e-11
-1.04918e-11
-7.53217e-12
-4.03786e-12
-2.167e-11
-2.08232e-11
-1.97955e-11
-1.80864e-11
-1.66637e-11
-1.42538e-11
-1.20734e-11
-1.02406e-11
-5.99062e-12
-2.18056e-11
-2.1063e-11
-2.00219e-11
-1.89378e-11
-1.7334e-11
-1.59003e-11
-1.42431e-11
-1.20615e-11
-9.41672e-12
-2.1678e-11
-2.09156e-11
-1.97136e-11
-1.81573e-11
-1.65672e-11
-1.40302e-11
-1.18139e-11
-9.45062e-12
-8.01391e-12
-2.17271e-11
-2.11945e-11
-2.01982e-11
-1.8903e-11
-1.72927e-11
-1.54597e-11
-1.35666e-11
-1.15396e-11
-8.95456e-12
-2.19611e-11
-2.11889e-11
-2.04971e-11
-1.94915e-11
-1.84235e-11
-1.66978e-11
-1.58753e-11
-1.45765e-11
-1.16184e-11
)
;

boundaryField
{
    inlet
    {
        type            calculated;
        value           nonuniform List<scalar> 9(-2.14083e-11 -2.14808e-11 -2.17632e-11 -2.1582e-11 -2.167e-11 -2.18056e-11 -2.1678e-11 -2.17271e-11 -2.19611e-11);
    }
    outlet
    {
        type            calculated;
        value           nonuniform 0();
    }
    wall
    {
        type            calculated;
        value           nonuniform List<scalar> 
57
(
-2.1678e-11
-2.17271e-11
-2.19611e-11
-2.09156e-11
-2.11945e-11
-2.11889e-11
-1.97136e-11
-2.01982e-11
-2.04971e-11
-1.81573e-11
-1.8903e-11
-1.94915e-11
-1.65672e-11
-1.72927e-11
-1.84235e-11
-1.40302e-11
-1.54597e-11
-1.66978e-11
-1.18139e-11
-1.35666e-11
-1.58753e-11
-9.45062e-12
-1.15396e-11
-1.45765e-11
-8.01391e-12
-8.95456e-12
-1.16184e-11
-2.17632e-11
-2.18056e-11
-2.19611e-11
-2.0902e-11
-2.1063e-11
-2.11889e-11
-1.99211e-11
-2.00219e-11
-2.04971e-11
-1.81347e-11
-1.89378e-11
-1.94915e-11
-1.67454e-11
-1.7334e-11
-1.84235e-11
-1.45318e-11
-1.59003e-11
-1.66978e-11
-1.29513e-11
-1.25982e-11
-1.42431e-11
-1.58753e-11
-1.00197e-11
-1.05782e-11
-1.20615e-11
-1.45765e-11
-7.29621e-12
-6.70634e-12
-9.41672e-12
-1.16184e-11
)
;
    }
    procBoundary6to0
    {
        type            processor;
        value           uniform -7.43301e-13;
    }
    procBoundary6to2
    {
        type            processor;
        value           nonuniform List<scalar> 
32
(
-4.00637e-12
-8.84913e-12
-5.41175e-12
-1.34447e-11
-1.14296e-11
-8.78479e-12
-2.14734e-11
-2.0122e-11
-1.86473e-11
-1.69824e-11
-1.46995e-11
-1.16487e-11
-8.48116e-12
-3.85744e-12
-3.85744e-12
-3.85744e-12
-2.17138e-11
-2.05499e-11
-1.94273e-11
-1.7525e-11
-1.55035e-11
-1.30834e-11
-1.13573e-11
-1.13573e-11
-1.13573e-11
-2.18331e-11
-2.09301e-11
-1.96979e-11
-1.83962e-11
-1.67436e-11
-1.45693e-11
-1.45693e-11
)
;
    }
    procBoundary6to4
    {
        type            processor;
        value           nonuniform List<scalar> 
27
(
-2.15424e-11
-2.04454e-11
-1.86747e-11
-1.68445e-11
-1.39683e-11
-1.12422e-11
-7.60708e-12
-4.29345e-12
-7.8406e-13
-2.15733e-11
-2.06514e-11
-1.90106e-11
-1.75288e-11
-1.50353e-11
-1.22799e-11
-9.66136e-12
-6.27539e-12
-2.92731e-12
-2.16014e-11
-2.07867e-11
-1.95952e-11
-1.78402e-11
-1.61065e-11
-1.39221e-11
-1.13014e-11
-8.38445e-12
-5.9897e-12
)
;
    }
    procBoundary6to7
    {
        type            processor;
        value           nonuniform List<scalar> 
12
(
3.3906e-12
9.43938e-13
-2.36675e-12
3.85912e-12
7.06964e-13
-2.92925e-12
-4.29568e-13
-2.87253e-12
-6.37859e-12
-3.63427e-12
-6.3121e-12
-9.5475e-12
)
;
    }
}


// ************************************************************************* //
