/*--------------------------------*- C++ -*----------------------------------*\
| =========                 |                                                 |
| \\      /  F ield         | OpenFOAM: The Open Source CFD Toolbox           |
|  \\    /   O peration     | Version:  4.x                                   |
|   \\  /    A nd           | Web:      www.OpenFOAM.org                      |
|    \\/     M anipulation  |                                                 |
\*---------------------------------------------------------------------------*/
FoamFile
{
    version     2.0;
    format      ascii;
    class       volScalarField;
    location    "30.5";
    object      p_rgh;
}
// * * * * * * * * * * * * * * * * * * * * * * * * * * * * * * * * * * * * * //

dimensions      [1 -1 -2 0 0 0 0];

internalField   nonuniform List<scalar> 
132
(
23.0019
75.0289
4.81484
68.4704
-13.4638
62.5662
-31.9336
56.3965
-48.6528
21.7848
74.9273
3.39931
68.0377
-14.6331
61.3335
-32.37
54.9456
-48.1305
20.4011
74.9393
1.21334
68.4001
-18.2379
62.6314
-38.4806
58.6385
-58.9466
20.4574
74.9096
1.22533
68.5552
-18.4132
62.9763
-38.8881
59.0315
-58.9495
4.75067
68.2616
-13.508
62.2677
-31.5217
55.4193
-47.187
22.3234
74.9478
4.11174
68.3753
-14.1792
62.3417
-32.4191
56.6389
-49.5846
21.0853
74.9215
2.51989
68.2898
-15.6881
62.2316
-33.4635
55.4373
-48.4007
20.897
75.1224
1.9939
68.6977
-17.232
62.7197
-36.8125
57.6616
-57.2541
-16.6926
61.702
-35.7689
56.4269
-52.7255
22.0096
74.9782
3.68121
68.2152
-14.4258
61.1999
-32.0167
53.9792
-47.8419
21.135
74.93
2.09243
68.2404
-17.6666
62.2919
-38.7488
58.2388
-62.9371
21.2754
74.9331
2.49368
68.4614
-16.7526
62.6428
-36.6085
58.3815
-70.7278
-38.2571
58.0738
-63.0727
21.9132
75.2967
3.50337
68.7144
-15.1693
62.2857
-33.4146
55.7823
-52.0996
21.3062
75.0507
2.66673
68.6184
-16.4715
62.7334
-35.9272
57.9983
-60.761
21.4849
75.0615
2.85131
68.6646
-15.9804
62.5897
-34.5372
57.1002
-55.1923
)
;

boundaryField
{
    inlet
    {
        type            fixedFluxPressure;
        gradient        nonuniform 0();
        value           nonuniform 0();
    }
    outlet
    {
        type            fixedValue;
        value           uniform 0;
    }
    wall
    {
        type            fixedFluxPressure;
        gradient        nonuniform List<scalar> 
66
(
1.68797e-05
5.32042e-06
3.74652e-06
8.93631e-06
6.94489e-07
6.13997e-07
3.23791e-05
7.57737e-06
6.19243e-07
2.47909e-06
-4.30295e-07
-1.54873e-06
-1.6932e-05
-9.0728e-06
-3.93959e-06
-6.89235e-06
-4.99074e-06
-8.59831e-06
5.27258e-06
9.54498e-06
-1.59281e-05
-2.57867e-06
-3.51979e-06
-9.61582e-06
-1.06547e-05
-5.76787e-06
2.67875e-05
-2.05137e-05
-5.33602e-05
3.40491e-05
-2.13129e-05
-1.72462e-05
-7.498e-06
-7.34655e-06
-1.86777e-06
-5.49277e-06
-6.17973e-06
-6.27306e-06
-1.3787e-05
-3.94487e-05
-1.1237e-05
-6.82068e-06
-6.36042e-06
-2.17342e-06
-4.18381e-06
-3.18319e-06
-8.81453e-06
-1.99467e-05
-1.08691e-05
-7.70862e-06
-6.03582e-06
-1.13641e-05
-7.355e-06
-3.57372e-06
-1.04503e-05
-5.38737e-05
-1.57982e-05
-9.10223e-06
6.00177e-07
-7.20657e-06
-4.87465e-06
-3.87724e-06
2.77942e-05
2.21486e-05
-1.66569e-05
0.000152182
)
;
        value           nonuniform List<scalar> 
66
(
21.9132
21.3062
21.4849
75.2967
75.0507
75.0615
3.50337
2.66673
2.85131
68.7144
68.6184
68.6646
-15.1693
-16.4715
-15.9804
62.2857
62.7334
62.5897
-38.2571
-33.4146
-35.9272
-34.5372
58.0738
55.7823
57.9983
57.1002
-63.0727
-52.0996
-60.761
-55.1923
20.4574
20.897
21.2754
21.4849
74.9096
75.1224
74.9331
75.0615
1.22533
1.9939
2.49368
2.8513
68.5552
68.6977
68.4614
68.6646
-18.4132
-17.232
-16.7526
-15.9804
62.9763
62.7196
62.6428
62.5897
-38.8881
-36.8125
-36.6085
-34.5372
59.0315
57.6616
58.3815
57.1002
-58.9495
-57.2541
-70.7278
-55.1923
)
;
    }
    procBoundary7to0
    {
        type            processor;
        value           uniform 82.0655;
    }
    procBoundary7to1
    {
        type            processor;
        value           uniform 22.8108;
    }
    procBoundary7to3
    {
        type            processor;
        value           nonuniform List<scalar> 
36
(
20.4856
74.8536
1.9808
68.561
-16.2792
63.2222
-33.9019
57.4132
-49.0496
20.2608
74.9481
1.29789
68.494
-17.4443
63.0308
-36.5247
58.8989
-54.4657
19.7552
74.9785
0.421349
68.3096
-18.88
62.5008
-38.2636
57.8474
-54.4184
19.6711
74.8266
0.230367
68.6179
-20.2804
63.3926
-42.8282
60.8121
-68.2893
)
;
    }
    procBoundary7to5
    {
        type            processor;
        value           nonuniform List<scalar> 
44
(
75.1113
5.07334
68.46
-12.5278
61.6646
-29.5839
53.9282
-45.2022
22.6706
74.8667
3.34016
68.247
-15.3772
62.1801
-34.2428
57.1928
-51.4056
22.6706
74.8667
74.8667
2.4427
68.014
-15.0646
61.1944
-33.0205
54.3405
-48.5122
21.3318
74.9613
2.4427
68.014
68.014
-17.4184
62.4999
-37.8054
58.0012
-62.7767
21.2076
75.0172
2.27215
68.5023
-17.4184
62.4999
62.4999
)
;
    }
    procBoundary7to6
    {
        type            processor;
        value           nonuniform List<scalar> 
12
(
82.0922
81.8988
81.7649
81.9283
82.1495
81.9783
82.3483
82.0191
81.8653
82.159
81.9301
81.8679
)
;
    }
}


// ************************************************************************* //
