/*--------------------------------*- C++ -*----------------------------------*\
| =========                 |                                                 |
| \\      /  F ield         | OpenFOAM: The Open Source CFD Toolbox           |
|  \\    /   O peration     | Version:  4.x                                   |
|   \\  /    A nd           | Web:      www.OpenFOAM.org                      |
|    \\/     M anipulation  |                                                 |
\*---------------------------------------------------------------------------*/
FoamFile
{
    version     2.0;
    format      ascii;
    class       volScalarField;
    location    "30.5";
    object      QWallFluidCoeff;
}
// * * * * * * * * * * * * * * * * * * * * * * * * * * * * * * * * * * * * * //

dimensions      [1 -1 -3 -1 0 0 0];

internalField   nonuniform List<scalar> 
132
(
0
0
0
0
0
0
0
0
0
0
0
0
0
0
0
0
0
0
0
0
0
0
0
0
0
0
0
-1.58621e+06
-2.98294e+06
-1.52337e+06
-3.02978e+06
-1.39086e+06
-3.05106e+06
-1.13791e+06
-3.04705e+06
-743906
0
0
0
0
0
0
0
0
0
0
0
0
0
0
0
0
0
0
0
0
0
0
0
0
0
-1.27718e+06
-2.80295e+06
-1.1188e+06
-2.81511e+06
-937184
-2.83881e+06
-825092
-2.88971e+06
-750909
0
0
0
0
0
0
0
0
0
0
0
0
0
0
0
0
0
0
0
0
0
0
0
-1.66047e+06
-2.95241e+06
-1.63256e+06
-2.99733e+06
-1.56926e+06
-3.08329e+06
-1.38359e+06
-3.26305e+06
-783494
-1.15969e+06
-3.35691e+06
-1.18438e+06
-1.10898e+06
-2.7069e+06
-887702
-2.6624e+06
-626565
-2.59855e+06
-374972
-2.43788e+06
-497972
-1.55712e+06
-2.90371e+06
-1.4748e+06
-2.91732e+06
-1.32319e+06
-2.94815e+06
-1.12528e+06
-3.03572e+06
-713462
-3.90268e+06
-6.14772e+06
-3.81383e+06
-6.15458e+06
-3.61801e+06
-6.04373e+06
-3.40029e+06
-5.62995e+06
-3.35241e+06
)
;

boundaryField
{
    inlet
    {
        type            calculated;
        value           nonuniform 0();
    }
    outlet
    {
        type            calculated;
        value           uniform 0;
    }
    wall
    {
        type            calculated;
        value           uniform 0;
    }
    procBoundary7to0
    {
        type            processor;
        value           uniform 0;
    }
    procBoundary7to1
    {
        type            processor;
        value           uniform 0;
    }
    procBoundary7to3
    {
        type            processor;
        value           uniform 0;
    }
    procBoundary7to5
    {
        type            processor;
        value           uniform 0;
    }
    procBoundary7to6
    {
        type            processor;
        value           uniform 0;
    }
}


// ************************************************************************* //
