/*--------------------------------*- C++ -*----------------------------------*\
| =========                 |                                                 |
| \\      /  F ield         | OpenFOAM: The Open Source CFD Toolbox           |
|  \\    /   O peration     | Version:  4.x                                   |
|   \\  /    A nd           | Web:      www.OpenFOAM.org                      |
|    \\/     M anipulation  |                                                 |
\*---------------------------------------------------------------------------*/
FoamFile
{
    version     2.0;
    format      ascii;
    class       volScalarField;
    location    "30.5";
    object      Sm;
}
// * * * * * * * * * * * * * * * * * * * * * * * * * * * * * * * * * * * * * //

dimensions      [1 -3 -1 0 0 0 0];

internalField   nonuniform List<scalar> 
132
(
9.92006e-65
7.82754e-65
6.43253e-65
6.74254e-65
1.03076e-64
1.03851e-64
7.98255e-65
5.65753e-65
8.37005e-65
7.67255e-65
9.45506e-65
7.28504e-65
6.89754e-65
8.29255e-65
5.65753e-65
7.51755e-65
6.35504e-65
8.06005e-65
4.80503e-65
7.44005e-65
6.12254e-65
7.13005e-65
7.44005e-65
8.06006e-65
7.51755e-65
7.20755e-65
8.60256e-65
6.51006e-65
6.58756e-65
8.68007e-65
5.50254e-65
7.28506e-65
6.74256e-65
7.90507e-65
5.89005e-65
4.34004e-65
6.43254e-65
7.36254e-65
6.74254e-65
6.89754e-65
8.60255e-65
8.44755e-65
7.36255e-65
3.95252e-65
8.52505e-65
7.44004e-65
7.51755e-65
8.13755e-65
7.05255e-65
5.73504e-65
7.67255e-65
5.73504e-65
5.50254e-65
8.21506e-65
6.97505e-65
6.04504e-65
7.36255e-65
8.60256e-65
8.91257e-65
7.05256e-65
7.98256e-65
6.74256e-65
7.90507e-65
5.96755e-65
7.20756e-65
7.36256e-65
6.20005e-65
6.58756e-65
7.98257e-65
5.34755e-65
5.03753e-65
5.81254e-65
7.36255e-65
6.04504e-65
5.81254e-65
8.06006e-65
7.36255e-65
6.82005e-65
5.19254e-65
8.52506e-65
7.05255e-65
7.13005e-65
8.75757e-65
7.51755e-65
7.05256e-65
7.36256e-65
7.51756e-65
6.97505e-65
7.98256e-65
7.59506e-65
7.67256e-65
7.05256e-65
7.75006e-65
5.58005e-65
6.35506e-65
7.05256e-65
6.89756e-65
6.12255e-65
5.27005e-65
7.59507e-65
7.05257e-65
5.81255e-65
5.50254e-65
6.43255e-65
6.12255e-65
6.89756e-65
5.81255e-65
7.67256e-65
7.44006e-65
5.19254e-65
3.87503e-65
6.89756e-65
6.66506e-65
5.42504e-65
5.96756e-65
6.04506e-65
6.04506e-65
6.20006e-65
6.89756e-65
6.35506e-65
7.20756e-65
6.43256e-65
7.28507e-65
6.04506e-65
7.44008e-65
5.65756e-65
5.81256e-65
6.58756e-65
6.51007e-65
6.51006e-65
6.35507e-65
4.10754e-65
)
;

boundaryField
{
    inlet
    {
        type            calculated;
        value           nonuniform 0();
    }
    outlet
    {
        type            calculated;
        value           uniform 0;
    }
    wall
    {
        type            calculated;
        value           uniform 0;
    }
    procBoundary7to0
    {
        type            processor;
        value           uniform 2.32501e-65;
    }
    procBoundary7to1
    {
        type            processor;
        value           uniform 5.73504e-65;
    }
    procBoundary7to3
    {
        type            processor;
        value           nonuniform List<scalar> 
36
(
7.67255e-65
9.06755e-65
8.75755e-65
8.52505e-65
6.12254e-65
6.27754e-65
8.52505e-65
7.13005e-65
7.44005e-65
9.06756e-65
5.03753e-65
7.75005e-65
4.34003e-65
4.65003e-65
7.90505e-65
7.28505e-65
8.83506e-65
6.12254e-65
5.11504e-65
8.13756e-65
8.21506e-65
5.81254e-65
6.82005e-65
7.98256e-65
6.66505e-65
7.20756e-65
5.42504e-65
8.52507e-65
4.03004e-65
5.42505e-65
6.12255e-65
5.58005e-65
7.13006e-65
6.20006e-65
7.90507e-65
8.52507e-65
)
;
    }
    procBoundary7to5
    {
        type            processor;
        value           nonuniform List<scalar> 
44
(
8.44755e-65
6.04503e-65
7.51754e-65
5.73503e-65
4.57253e-65
7.28505e-65
5.42504e-65
8.68006e-65
9.99756e-65
4.34002e-65
7.28504e-65
7.59505e-65
6.20004e-65
7.05255e-65
7.13005e-65
6.89755e-65
5.58004e-65
9.99756e-65
4.34002e-65
4.34002e-65
8.99006e-65
7.98255e-65
1.00751e-64
7.36255e-65
8.21506e-65
8.91257e-65
8.68006e-65
4.80503e-65
9.37757e-65
8.99006e-65
7.98255e-65
7.98255e-65
9.68757e-65
7.75006e-65
6.51005e-65
6.74256e-65
6.82006e-65
7.36256e-65
5.65755e-65
7.13006e-65
5.58004e-65
9.68757e-65
7.75006e-65
7.75006e-65
)
;
    }
    procBoundary7to6
    {
        type            processor;
        value           nonuniform List<scalar> 
12
(
6.74255e-65
7.13006e-65
4.96005e-65
8.52506e-65
7.59506e-65
7.51757e-65
7.90506e-65
7.75007e-65
5.65756e-65
3.79754e-65
7.82758e-65
6.04507e-65
)
;
    }
}


// ************************************************************************* //
