/*--------------------------------*- C++ -*----------------------------------*\
| =========                 |                                                 |
| \\      /  F ield         | OpenFOAM: The Open Source CFD Toolbox           |
|  \\    /   O peration     | Version:  4.x                                   |
|   \\  /    A nd           | Web:      www.OpenFOAM.org                      |
|    \\/     M anipulation  |                                                 |
\*---------------------------------------------------------------------------*/
FoamFile
{
    version     2.0;
    format      ascii;
    class       volVectorField;
    location    "30.5";
    object      UsNext;
}
// * * * * * * * * * * * * * * * * * * * * * * * * * * * * * * * * * * * * * //

dimensions      [0 1 -1 0 0 0 0];

internalField   nonuniform List<vector> 
132
(
(-5.6922e-09 -1.92315e-10 3.8424e-09)
(-6.36248e-09 6.60612e-10 4.36537e-09)
(-5.72235e-09 1.47861e-09 3.46187e-09)
(-5.14499e-09 9.39993e-10 3.60696e-10)
(-4.98836e-09 9.67377e-10 -1.70765e-09)
(-6.05259e-09 4.20667e-10 -4.20553e-09)
(-5.13053e-09 6.04261e-10 -7.15706e-09)
(-5.58178e-09 7.12644e-10 -7.88776e-09)
(-3.59939e-09 -3.72873e-10 -7.29908e-09)
(-6.35871e-09 -8.14437e-10 2.59119e-09)
(-6.55097e-09 -3.9444e-11 3.98554e-09)
(-6.02403e-09 8.25112e-11 2.11342e-09)
(-6.00943e-09 -7.31756e-10 1.06007e-09)
(-2.995e-09 4.76406e-10 -1.93365e-09)
(-1.82967e-09 2.79978e-10 -4.14885e-09)
(-1.15577e-09 5.85554e-10 -7.1931e-09)
(-1.65336e-09 7.26591e-10 -1.22806e-08)
(-1.72343e-09 -1.25604e-09 -1.19689e-08)
(-5.29997e-09 -1.78371e-09 1.25653e-09)
(-6.10891e-09 -3.2964e-10 3.13809e-09)
(-5.5048e-09 -9.14909e-10 1.83277e-09)
(-5.25851e-09 -1.56851e-09 4.80097e-10)
(-3.34273e-09 -2.82474e-10 -1.55895e-09)
(-1.91358e-09 -6.08636e-10 -4.05436e-09)
(-4.48732e-10 3.92106e-10 -5.0178e-09)
(-6.95543e-10 6.06692e-10 -8.47429e-09)
(3.62779e-09 5.83257e-10 -8.11954e-09)
(-3.40112e-09 -1.44887e-09 1.34691e-10)
(-3.37189e-09 -2.77803e-10 4.44382e-10)
(-3.21416e-09 -8.90093e-10 6.63083e-10)
(-3.68678e-09 -9.70192e-10 -1.29833e-10)
(-2.64345e-09 -5.07777e-10 -4.56241e-10)
(-1.88091e-09 -9.25195e-10 -1.94849e-09)
(-7.12045e-10 -4.77693e-10 -3.09624e-09)
(6.02055e-10 9.49845e-11 -2.97369e-09)
(2.5719e-09 7.89767e-10 -3.19745e-09)
(-5.02104e-09 4.15554e-10 2.30215e-09)
(-5.01525e-09 7.0145e-10 9.53483e-10)
(-3.75682e-09 1.35104e-09 -3.58173e-10)
(-3.5506e-09 4.68583e-10 -2.54781e-09)
(-3.54971e-09 2.04569e-11 -3.20802e-09)
(-3.28578e-09 3.17079e-10 -4.80055e-09)
(-6.90203e-10 3.28219e-10 -3.12097e-09)
(-5.25322e-09 -1.27037e-09 1.94204e-09)
(-4.72343e-09 -4.58919e-10 2.6411e-09)
(-4.8986e-09 -1.24343e-09 1.21339e-09)
(-4.42358e-09 -9.6528e-10 2.10234e-10)
(-3.44201e-09 1.29833e-10 -1.73998e-09)
(-2.95901e-09 -7.83906e-10 -3.23953e-09)
(-3.51539e-09 -9.8454e-10 -3.33322e-09)
(-3.2197e-09 -2.60467e-10 -5.7643e-09)
(-5.9243e-10 3.40362e-11 -3.77885e-09)
(-4.79968e-09 -1.31848e-09 1.31902e-09)
(-4.08833e-09 -5.41923e-10 1.62637e-09)
(-4.55791e-09 -2.07337e-09 -4.22718e-10)
(-5.20095e-09 -1.08669e-09 -1.51775e-10)
(-5.03572e-09 -1.33768e-09 -1.40168e-09)
(-4.27854e-09 -2.7322e-09 -3.66193e-09)
(-3.46264e-09 -8.99341e-10 -4.31059e-09)
(-2.42118e-09 -9.38291e-10 -5.05705e-09)
(9.19125e-09 3.83509e-09 -3.86772e-09)
(-2.55413e-09 -9.05219e-10 3.16932e-10)
(-3.13084e-09 -7.64184e-10 4.41221e-11)
(-3.38912e-09 -1.75837e-09 -6.61762e-10)
(-4.5926e-09 -3.0552e-10 -1.73504e-10)
(-3.89113e-09 -7.15226e-10 -6.27093e-10)
(-4.62557e-09 -1.62878e-09 -2.79075e-09)
(-4.49227e-09 -1.68301e-09 -3.30364e-09)
(-2.41877e-09 -1.09069e-09 -2.22045e-09)
(3.79202e-09 6.48142e-10 -2.03882e-09)
(-6.29995e-10 -7.21468e-10 2.22533e-10)
(1.793e-10 -2.64884e-10 1.51269e-11)
(3.34018e-10 -6.96324e-10 -5.95758e-10)
(3.84999e-10 -1.20188e-09 -1.16394e-09)
(3.09046e-10 -1.60024e-10 4.62569e-10)
(-3.24412e-09 -6.24522e-10 1.23241e-09)
(-3.5281e-09 -7.23709e-10 1.91877e-09)
(-2.88271e-09 -1.58931e-09 9.51606e-10)
(-2.27834e-09 -2.15686e-09 4.60167e-10)
(-1.59809e-09 -1.22682e-09 -6.01498e-10)
(-1.40574e-09 -1.49546e-09 -1.27452e-09)
(-1.15505e-09 -1.52519e-09 -1.45264e-09)
(-9.72708e-10 -8.39274e-10 -2.21642e-09)
(-3.78392e-10 -1.229e-09 -1.47812e-09)
(-3.62467e-09 -1.28741e-09 7.68902e-10)
(-3.42109e-09 -1.84848e-09 1.766e-10)
(-3.56814e-09 -2.32177e-09 1.02367e-10)
(-4.36471e-09 -1.90243e-09 -1.59495e-10)
(-4.01817e-09 -1.68763e-09 -1.07395e-09)
(-4.70673e-09 -2.17415e-09 -2.38006e-09)
(-5.27267e-09 -1.44581e-09 -2.58105e-09)
(-4.28991e-09 -1.03384e-09 -2.49052e-09)
(-1.66886e-09 -1.09598e-09 -3.11492e-09)
(-2.0546e-09 -5.50128e-10 5.05471e-10)
(-2.56047e-09 -9.25402e-10 1.88951e-10)
(-3.22434e-09 -8.09218e-10 -8.84551e-11)
(-4.46971e-09 -6.3767e-10 -2.42977e-10)
(-3.77316e-09 -7.46329e-10 -7.14538e-10)
(-6.951e-09 -1.17151e-09 -3.06349e-09)
(-5.38327e-09 -9.45826e-10 -2.43608e-09)
(-4.03443e-09 -8.66057e-10 -9.26916e-10)
(-2.20936e-09 -5.19634e-10 -1.17516e-09)
(2.24998e-09 -3.29662e-11 2.5526e-10)
(3.50643e-09 -1.94968e-09 -6.43485e-10)
(1.63198e-09 -4.07481e-10 1.39091e-09)
(-9.47899e-10 -9.27723e-10 7.52955e-10)
(-7.77904e-10 -1.07195e-09 1.20907e-09)
(-6.76639e-10 -9.6821e-10 1.09935e-09)
(-4.28528e-10 -1.1476e-09 3.29543e-10)
(-3.21226e-10 -1.14378e-09 -3.75581e-10)
(-9.96855e-11 -1.98029e-09 -9.05231e-10)
(4.37739e-10 -1.38513e-09 1.1348e-10)
(2.6494e-09 -6.65384e-10 -1.19406e-09)
(5.98075e-10 -1.04711e-10 -3.63054e-10)
(-1.35274e-09 -1.61436e-09 3.62358e-10)
(-1.3573e-09 -1.50381e-09 1.02802e-10)
(-1.57398e-09 -1.64838e-09 4.84021e-10)
(-2.12277e-09 -1.3325e-09 -6.36604e-11)
(-2.44021e-09 -1.2586e-09 -5.08134e-10)
(-2.51901e-09 -1.65166e-09 -7.65469e-10)
(-3.13578e-09 -1.65461e-09 -7.45872e-10)
(-2.77664e-09 -1.34594e-10 -1.73725e-09)
(-6.44568e-10 2.57077e-09 -1.48138e-09)
(-1.02503e-09 -6.67876e-10 3.40597e-10)
(-1.3285e-09 -9.99966e-10 9.78751e-11)
(-1.73662e-09 -6.02932e-10 5.47395e-11)
(-2.5911e-09 -5.05046e-10 -2.45721e-10)
(-3.56501e-09 -6.37685e-10 -3.25897e-10)
(-2.76106e-09 -5.68377e-10 -1.3675e-09)
(-3.15494e-09 -7.20116e-10 -2.0401e-10)
(-1.91964e-09 -5.82703e-10 -8.66843e-10)
(-3.019e-09 1.23868e-08 2.7714e-09)
)
;

boundaryField
{
    inlet
    {
        type            calculated;
        value           nonuniform 0();
    }
    outlet
    {
        type            calculated;
        value           nonuniform List<vector> 
16
(
(-3.59939e-09 -3.72873e-10 -7.29908e-09)
(-1.72343e-09 -1.25604e-09 -1.19689e-08)
(3.62779e-09 5.83257e-10 -8.11954e-09)
(2.5719e-09 7.89767e-10 -3.19745e-09)
(-6.90203e-10 3.28219e-10 -3.12097e-09)
(-5.9243e-10 3.40362e-11 -3.77885e-09)
(9.19125e-09 3.83509e-09 -3.86772e-09)
(3.79202e-09 6.48142e-10 -2.03882e-09)
(3.09046e-10 -1.60024e-10 4.62569e-10)
(-3.78392e-10 -1.229e-09 -1.47812e-09)
(-1.66886e-09 -1.09598e-09 -3.11492e-09)
(-2.20936e-09 -5.19634e-10 -1.17516e-09)
(1.63198e-09 -4.07481e-10 1.39091e-09)
(5.98075e-10 -1.04711e-10 -3.63054e-10)
(-6.44568e-10 2.57077e-09 -1.48138e-09)
(-3.019e-09 1.23868e-08 2.7714e-09)
)
;
    }
    wall
    {
        type            calculated;
        value           nonuniform List<vector> 
66
(
(-9.47899e-10 -9.27723e-10 7.52955e-10)
(-1.35274e-09 -1.61436e-09 3.62358e-10)
(-1.02503e-09 -6.67876e-10 3.40597e-10)
(-7.77904e-10 -1.07195e-09 1.20907e-09)
(-1.3573e-09 -1.50381e-09 1.02802e-10)
(-1.3285e-09 -9.99966e-10 9.78751e-11)
(-6.76639e-10 -9.6821e-10 1.09935e-09)
(-1.57398e-09 -1.64838e-09 4.84021e-10)
(-1.73662e-09 -6.02932e-10 5.47395e-11)
(-4.28528e-10 -1.1476e-09 3.29543e-10)
(-2.12277e-09 -1.3325e-09 -6.36604e-11)
(-2.5911e-09 -5.05046e-10 -2.45721e-10)
(-3.21226e-10 -1.14378e-09 -3.75581e-10)
(-2.44021e-09 -1.2586e-09 -5.08134e-10)
(-3.56501e-09 -6.37685e-10 -3.25897e-10)
(-9.96855e-11 -1.98029e-09 -9.05231e-10)
(-2.51901e-09 -1.65166e-09 -7.65469e-10)
(-2.76106e-09 -5.68377e-10 -1.3675e-09)
(2.24998e-09 -3.29662e-11 2.5526e-10)
(4.37739e-10 -1.38513e-09 1.1348e-10)
(-3.13578e-09 -1.65461e-09 -7.45872e-10)
(-3.15494e-09 -7.20116e-10 -2.0401e-10)
(3.50643e-09 -1.94968e-09 -6.43485e-10)
(2.6494e-09 -6.65384e-10 -1.19406e-09)
(-2.77664e-09 -1.34594e-10 -1.73725e-09)
(-1.91964e-09 -5.82703e-10 -8.66843e-10)
(1.63198e-09 -4.07481e-10 1.39091e-09)
(5.98075e-10 -1.04711e-10 -3.63054e-10)
(-6.44568e-10 2.57077e-09 -1.48138e-09)
(-3.019e-09 1.23868e-08 2.7714e-09)
(-3.40112e-09 -1.44887e-09 1.34691e-10)
(-2.55413e-09 -9.05219e-10 3.16932e-10)
(-2.0546e-09 -5.50128e-10 5.05471e-10)
(-1.02503e-09 -6.67876e-10 3.40597e-10)
(-3.37189e-09 -2.77803e-10 4.44382e-10)
(-3.13084e-09 -7.64184e-10 4.41221e-11)
(-2.56047e-09 -9.25402e-10 1.88951e-10)
(-1.3285e-09 -9.99966e-10 9.78751e-11)
(-3.21416e-09 -8.90093e-10 6.63083e-10)
(-3.38912e-09 -1.75837e-09 -6.61762e-10)
(-3.22434e-09 -8.09218e-10 -8.84551e-11)
(-1.73662e-09 -6.02932e-10 5.47395e-11)
(-3.68678e-09 -9.70192e-10 -1.29833e-10)
(-4.5926e-09 -3.0552e-10 -1.73504e-10)
(-4.46971e-09 -6.3767e-10 -2.42977e-10)
(-2.5911e-09 -5.05046e-10 -2.45721e-10)
(-2.64345e-09 -5.07777e-10 -4.56241e-10)
(-3.89113e-09 -7.15226e-10 -6.27093e-10)
(-3.77316e-09 -7.46329e-10 -7.14538e-10)
(-3.56501e-09 -6.37685e-10 -3.25897e-10)
(-1.88091e-09 -9.25195e-10 -1.94849e-09)
(-4.62557e-09 -1.62878e-09 -2.79075e-09)
(-6.951e-09 -1.17151e-09 -3.06349e-09)
(-2.76106e-09 -5.68377e-10 -1.3675e-09)
(-7.12045e-10 -4.77693e-10 -3.09624e-09)
(-4.49227e-09 -1.68301e-09 -3.30364e-09)
(-5.38327e-09 -9.45826e-10 -2.43608e-09)
(-3.15494e-09 -7.20116e-10 -2.0401e-10)
(6.02055e-10 9.49845e-11 -2.97369e-09)
(-2.41877e-09 -1.09069e-09 -2.22045e-09)
(-4.03443e-09 -8.66057e-10 -9.26916e-10)
(-1.91964e-09 -5.82703e-10 -8.66843e-10)
(2.5719e-09 7.89767e-10 -3.19745e-09)
(3.79202e-09 6.48142e-10 -2.03882e-09)
(-2.20936e-09 -5.19634e-10 -1.17516e-09)
(-3.019e-09 1.23868e-08 2.7714e-09)
)
;
    }
    procBoundary7to0
    {
        type            processor;
        value           uniform (-7.11244e-09 -7.75882e-10 3.89221e-09);
    }
    procBoundary7to1
    {
        type            processor;
        value           uniform (-5.04554e-09 1.44614e-09 3.40229e-09);
    }
    procBoundary7to3
    {
        type            processor;
        value           nonuniform List<vector> 
36
(
(-7.64249e-09 -8.21301e-10 5.35242e-09)
(-8.22599e-09 1.20783e-09 6.35943e-09)
(-9.17851e-09 1.50069e-09 5.26577e-09)
(-8.57719e-09 -8.37002e-10 2.14248e-09)
(-6.23119e-09 -1.15101e-09 -3.63779e-09)
(-5.7286e-09 -3.24516e-10 -6.81563e-09)
(-3.85282e-09 -4.41104e-10 -1.35199e-08)
(-2.15186e-09 3.38541e-10 -1.70611e-08)
(-1.83525e-09 1.43381e-09 -1.20864e-08)
(-8.1641e-09 -1.73264e-09 4.16154e-09)
(-9.82033e-09 7.0041e-10 6.30268e-09)
(-1.00419e-08 2.39932e-10 5.30924e-09)
(-8.06433e-09 -2.57575e-10 2.57661e-09)
(-5.59564e-09 -6.63838e-11 -1.63694e-09)
(-2.81383e-09 1.09462e-09 -5.81636e-09)
(-1.73952e-09 1.23965e-09 -1.41617e-08)
(-1.08527e-09 -4.25004e-10 -2.18712e-08)
(-4.07305e-09 2.0741e-09 -2.73132e-08)
(-7.33611e-09 -3.92626e-10 3.75199e-09)
(-7.76342e-09 3.28959e-10 5.22226e-09)
(-7.74547e-09 -1.57584e-09 4.86801e-09)
(-7.98221e-09 -2.46273e-09 2.39963e-09)
(-4.23204e-09 -5.27989e-10 -1.73864e-09)
(-3.26585e-10 2.33474e-10 -4.97182e-09)
(1.34155e-09 2.02077e-09 -1.01889e-08)
(2.23668e-09 1.95283e-09 -1.50131e-08)
(4.46278e-10 -2.86738e-09 -1.5863e-08)
(-4.17558e-09 3.54296e-10 1.23759e-09)
(-4.96547e-09 7.18292e-11 1.98983e-09)
(-5.65638e-09 -1.39453e-09 2.56908e-09)
(-3.68765e-09 -1.34969e-09 7.73396e-10)
(-2.66035e-09 -4.27474e-10 -6.47122e-10)
(-2.06741e-10 -1.25359e-09 -2.64338e-09)
(4.81293e-10 9.12361e-11 -4.09661e-09)
(1.73306e-09 -1.67573e-09 -5.58204e-09)
(1.83884e-09 -2.27331e-09 -7.04786e-09)
)
;
    }
    procBoundary7to5
    {
        type            processor;
        value           nonuniform List<vector> 
44
(
(-4.76401e-09 1.67953e-09 5.22188e-09)
(-6.41716e-09 1.88521e-09 3.15652e-09)
(-6.81062e-09 1.92116e-09 9.10638e-10)
(-6.63861e-09 1.10545e-09 -1.32773e-09)
(-6.82834e-09 5.07759e-10 -3.17868e-09)
(-6.92036e-09 5.88326e-10 -5.27754e-09)
(-6.15258e-09 3.79242e-10 -7.15347e-09)
(-4.11438e-09 -2.08019e-09 -6.76532e-09)
(-5.64174e-09 2.61032e-10 2.91788e-09)
(-4.44199e-09 2.08055e-10 3.30786e-09)
(-6.04377e-09 1.81022e-09 2.22781e-09)
(-6.49069e-09 1.60639e-09 6.24345e-10)
(-7.05194e-09 1.79834e-09 -5.85068e-10)
(-7.03958e-09 1.44523e-09 -2.03657e-09)
(-7.64768e-09 1.06553e-09 -3.78753e-09)
(-6.67041e-09 9.37825e-10 -3.32339e-09)
(-3.56219e-09 7.07643e-10 -2.99422e-09)
(-5.64174e-09 2.61032e-10 2.91788e-09)
(-4.44199e-09 2.08055e-10 3.30786e-09)
(-4.44199e-09 2.08055e-10 3.30786e-09)
(-2.46335e-09 6.77736e-10 1.0908e-09)
(-1.60283e-09 2.82733e-10 9.74537e-10)
(-4.29986e-09 1.48407e-09 6.06488e-10)
(-3.21323e-09 1.26083e-09 -7.96142e-10)
(-4.5418e-09 4.39983e-10 -6.31884e-10)
(-4.17206e-09 -8.11254e-10 -8.11876e-10)
(-2.05676e-09 -2.68221e-10 -1.24501e-09)
(-1.63805e-09 5.96485e-10 2.96216e-10)
(-2.3563e-09 8.45571e-10 2.05125e-09)
(-2.46335e-09 6.77736e-10 1.0908e-09)
(-1.60283e-09 2.82733e-10 9.74537e-10)
(-1.60283e-09 2.82733e-10 9.74537e-10)
(9.89201e-10 -3.35719e-10 3.9282e-10)
(2.24889e-09 6.91957e-10 1.68588e-10)
(-9.48867e-10 6.30476e-11 -3.23786e-11)
(3.13492e-12 -5.92941e-10 -3.03685e-10)
(1.07457e-10 -3.78449e-10 7.65685e-11)
(-5.01369e-10 -3.26281e-10 4.55553e-10)
(3.52817e-10 1.83511e-10 9.38643e-10)
(1.57631e-09 6.65019e-10 6.36739e-10)
(-1.17412e-11 2.9979e-10 5.2674e-10)
(9.89201e-10 -3.35719e-10 3.9282e-10)
(2.24889e-09 6.91957e-10 1.68588e-10)
(2.24889e-09 6.91957e-10 1.68588e-10)
)
;
    }
    procBoundary7to6
    {
        type            processor;
        value           nonuniform List<vector> 
12
(
(-5.65852e-09 -1.09292e-09 2.6172e-09)
(-4.86922e-09 -8.0501e-10 1.75378e-09)
(-1.30861e-09 -2.17882e-10 5.58156e-10)
(-5.15632e-09 -1.1159e-09 1.87934e-09)
(-4.00338e-09 -6.83107e-10 1.30297e-09)
(-1.583e-09 -1.46364e-10 5.94941e-10)
(-3.36468e-09 -7.8623e-10 1.37575e-09)
(-3.71067e-09 -1.00002e-09 1.30759e-09)
(-1.83012e-09 -7.8614e-10 8.23409e-10)
(-1.46369e-09 -1.25449e-09 3.49403e-10)
(-1.33802e-09 -1.30694e-09 7.22428e-10)
(-7.19549e-10 -5.22701e-10 6.64991e-10)
)
;
    }
}


// ************************************************************************* //
