/*--------------------------------*- C++ -*----------------------------------*\
| =========                 |                                                 |
| \\      /  F ield         | OpenFOAM: The Open Source CFD Toolbox           |
|  \\    /   O peration     | Version:  4.x                                   |
|   \\  /    A nd           | Web:      www.OpenFOAM.org                      |
|    \\/     M anipulation  |                                                 |
\*---------------------------------------------------------------------------*/
FoamFile
{
    version     2.0;
    format      ascii;
    class       volVectorField;
    location    "9.5";
    object      ddtUrel;
}
// * * * * * * * * * * * * * * * * * * * * * * * * * * * * * * * * * * * * * //

dimensions      [0 1 -2 0 0 0 0];

internalField   nonuniform List<vector> 
114
(
(9.20317e-07 -7.10405e-09 -4.89755e-07)
(1.13348e-06 -3.14858e-08 -4.30534e-07)
(1.31975e-06 -2.49951e-08 -3.89478e-07)
(1.38848e-06 -1.28961e-08 -3.92708e-07)
(1.52369e-06 -2.26326e-08 -3.68779e-07)
(1.45854e-06 3.50217e-08 -3.4145e-07)
(3.22615e-09 -1.77851e-07 -7.36565e-07)
(2.47381e-07 -1.54445e-07 -6.90511e-07)
(5.12962e-07 -1.20279e-07 -5.90759e-07)
(8.16753e-07 -1.14126e-07 -4.86762e-07)
(1.01949e-06 -1.42358e-07 -4.27255e-07)
(1.2226e-06 -1.30994e-07 -3.98347e-07)
(1.33557e-06 -1.15336e-07 -3.89801e-07)
(1.44594e-06 -4.72751e-08 -3.86289e-07)
(1.37019e-06 3.98253e-08 -3.63035e-07)
(-4.30284e-08 -2.72576e-07 -8.71637e-07)
(1.54414e-07 -2.35533e-07 -7.00463e-07)
(3.42186e-07 -2.73857e-07 -5.90948e-07)
(6.51015e-07 -2.86128e-07 -4.87946e-07)
(7.46955e-07 -2.50085e-07 -4.37489e-07)
(9.67489e-07 -2.28016e-07 -3.81483e-07)
(1.00391e-06 -1.65649e-07 -3.75446e-07)
(1.06392e-06 -4.40836e-08 -4.09468e-07)
(9.68796e-07 5.5029e-08 -4.18855e-07)
(-1.0746e-07 -2.9126e-07 -8.74365e-07)
(-2.59354e-08 -3.09197e-07 -7.43187e-07)
(1.6603e-08 -3.33809e-07 -5.90105e-07)
(1.40102e-07 -2.83821e-07 -4.84739e-07)
(2.28982e-07 -2.8032e-07 -4.34491e-07)
(3.39308e-07 -2.48479e-07 -3.0929e-07)
(6.58535e-08 -1.22431e-07 -3.44996e-07)
(1.88032e-07 -2.15285e-09 -4.6974e-07)
(1.7599e-07 7.72134e-08 -5.14954e-07)
(1.14873e-06 -5.58912e-09 -4.64217e-07)
(1.23524e-06 -1.07626e-08 -4.39999e-07)
(1.24312e-06 -2.17037e-09 -4.08513e-07)
(1.16321e-06 3.76559e-08 -3.78536e-07)
(1.42077e-07 -1.00072e-07 -6.74165e-07)
(2.58123e-07 -9.3853e-08 -6.63449e-07)
(4.95623e-07 -6.40872e-08 -6.01376e-07)
(7.29445e-07 -6.0279e-08 -5.19691e-07)
(9.32825e-07 -6.27024e-08 -4.79834e-07)
(1.08559e-06 -5.62837e-08 -4.52573e-07)
(1.16949e-06 -1.89372e-08 -4.44346e-07)
(1.19121e-06 1.9091e-08 -4.24407e-07)
(1.1195e-06 5.90959e-08 -4.02213e-07)
(6.90928e-08 -1.70712e-07 -7.27429e-07)
(1.52198e-07 -1.74288e-07 -6.63466e-07)
(3.73496e-07 -1.36368e-07 -5.94541e-07)
(5.68596e-07 -1.09493e-07 -5.30095e-07)
(7.55555e-07 -1.02348e-07 -4.86878e-07)
(8.8797e-07 -7.94303e-08 -4.39308e-07)
(9.85856e-07 -2.33835e-08 -4.44927e-07)
(1.01562e-06 2.0959e-08 -4.62054e-07)
(9.33273e-07 7.43916e-08 -4.66824e-07)
(1.61168e-08 -1.92946e-07 -7.47603e-07)
(3.052e-09 -1.96753e-07 -6.72152e-07)
(1.10332e-07 -1.69989e-07 -5.95224e-07)
(2.7579e-07 -1.40363e-07 -5.34061e-07)
(4.15526e-07 -1.28834e-07 -4.81281e-07)
(5.58302e-07 -8.2403e-08 -4.1181e-07)
(6.75722e-07 -1.88036e-08 -4.67931e-07)
(7.3913e-07 4.22117e-08 -5.5898e-07)
(6.63521e-07 1.07544e-07 -6.01202e-07)
(1.12479e-06 6.95405e-09 -4.82949e-07)
(1.04774e-06 2.44786e-08 -4.59793e-07)
(2.27162e-07 -6.27973e-08 -6.18777e-07)
(3.25243e-07 -6.64995e-08 -6.10623e-07)
(4.96514e-07 -3.89229e-08 -6.01838e-07)
(6.98498e-07 -2.41654e-08 -5.70879e-07)
(8.87368e-07 -2.40303e-08 -5.48406e-07)
(1.01795e-06 -1.0883e-08 -5.30133e-07)
(1.09336e-06 7.84273e-09 -5.1368e-07)
(1.09405e-06 2.60888e-08 -4.89834e-07)
(1.01024e-06 5.34347e-08 -4.75584e-07)
(1.61713e-07 -1.01349e-07 -6.19404e-07)
(2.34542e-07 -1.06206e-07 -6.12378e-07)
(4.14563e-07 -5.72884e-08 -5.99329e-07)
(5.88536e-07 -3.21995e-08 -5.69074e-07)
(7.71528e-07 -3.28923e-08 -5.40581e-07)
(8.84317e-07 -2.57298e-08 -5.22852e-07)
(9.66869e-07 -7.96811e-09 -5.16367e-07)
(9.77524e-07 2.63967e-08 -5.11746e-07)
(8.97005e-07 6.23615e-08 -5.10822e-07)
(1.08217e-07 -1.15826e-07 -6.16536e-07)
(1.25161e-07 -1.05938e-07 -5.94233e-07)
(2.30416e-07 -7.97351e-08 -5.97806e-07)
(3.88611e-07 -5.17693e-08 -5.7272e-07)
(5.47698e-07 -4.66458e-08 -5.35865e-07)
(6.68995e-07 -2.79016e-08 -5.32227e-07)
(7.79692e-07 -7.00661e-09 -5.41287e-07)
(7.64749e-07 3.70234e-08 -5.61981e-07)
(6.88235e-07 7.20329e-08 -5.45328e-07)
(2.93842e-07 -3.67866e-08 -6.04236e-07)
(3.87662e-07 -3.43667e-08 -6.11489e-07)
(5.40847e-07 -3.35606e-08 -6.18009e-07)
(7.1206e-07 -2.29744e-08 -6.20014e-07)
(8.83914e-07 -9.74108e-09 -6.11963e-07)
(1.01512e-06 7.64121e-09 -6.07488e-07)
(1.09512e-06 1.53186e-08 -5.90224e-07)
(1.09219e-06 3.28984e-08 -5.6952e-07)
(2.45023e-07 -5.35692e-08 -5.89206e-07)
(3.37051e-07 -4.43983e-08 -5.96884e-07)
(4.70842e-07 -2.70961e-08 -6.10043e-07)
(6.21845e-07 -1.75954e-08 -6.02399e-07)
(7.93598e-07 -1.65121e-08 -5.92741e-07)
(9.0665e-07 -8.23969e-09 -5.85553e-07)
(9.78071e-07 -4.20413e-10 -5.72641e-07)
(2.02091e-07 -6.13957e-08 -5.83567e-07)
(2.44602e-07 -5.04896e-08 -5.81677e-07)
(3.70068e-07 -2.31982e-08 -6.16089e-07)
(5.11926e-07 -2.00385e-08 -5.9312e-07)
(6.48314e-07 -1.79528e-08 -5.73e-07)
(7.38216e-07 -2.31454e-09 -5.79242e-07)
)
;

boundaryField
{
    inlet
    {
        type            calculated;
        value           nonuniform List<vector> 
12
(
(-1.92526e-06 -5.7055e-07 -8.55184e-07)
(-8.54385e-07 -8.11282e-07 -2.06677e-06)
(-1.24522e-06 -6.93217e-07 -1.8607e-06)
(8.40924e-08 7.95353e-08 -5.23162e-07)
(-1.79817e-07 -2.4113e-07 -9.81985e-07)
(-2.41188e-08 -1.85805e-07 -1.02977e-06)
(5.77786e-08 3.13193e-08 -4.81213e-07)
(-1.1281e-07 -1.04392e-07 -4.05127e-07)
(-1.04948e-07 -1.2934e-07 -3.15801e-07)
(2.01449e-07 3.07214e-08 -4.44618e-07)
(5.38269e-08 -5.71593e-09 -4.10905e-07)
(7.90564e-09 -4.80747e-08 -4.67613e-07)
)
;
    }
    outlet
    {
        type            calculated;
        value           nonuniform 0();
    }
    wall
    {
        type            calculated;
        value           nonuniform List<vector> 
66
(
(-2.54123e-06 -6.89862e-07 -6.34532e-07)
(-1.61204e-06 -1.73887e-06 -2.55545e-06)
(-1.98043e-06 -1.0089e-06 -1.62332e-06)
(9.83851e-07 -1.39522e-06 -1.14504e-07)
(2.18872e-06 -1.71203e-07 2.82304e-07)
(1.88683e-08 -1.31896e-06 -1.07818e-06)
(2.07047e-07 -4.59137e-07 -2.54837e-07)
(-1.01278e-06 -1.40503e-06 -5.40565e-07)
(-2.23566e-06 -2.34981e-06 -2.25999e-07)
(4.30188e-06 8.90112e-08 -1.50217e-07)
(1.81412e-06 6.7481e-08 -1.84366e-07)
(4.63408e-06 -2.34108e-06 7.45403e-08)
(-2.31387e-06 -1.1236e-06 1.7867e-07)
(3.39497e-06 -3.28346e-07 3.34637e-08)
(2.12897e-06 -8.81541e-07 3.21255e-08)
(9.60995e-07 -1.76056e-06 -1.89274e-07)
(-4.79788e-06 -1.57549e-06 -3.58093e-07)
(4.26818e-06 -5.21625e-08 1.12537e-07)
(2.84651e-06 -3.9468e-07 -2.32685e-07)
(4.2511e-06 -1.61451e-06 -3.2117e-07)
(-1.88929e-06 -1.94767e-06 8.39739e-07)
(2.70246e-06 4.49078e-07 -5.07065e-08)
(3.47139e-06 -1.29095e-06 -9.97348e-08)
(4.1213e-06 -2.85726e-06 4.86682e-08)
(-9.76642e-06 -1.75859e-06 1.34315e-06)
(5.89165e-06 -3.88577e-07 -2.43551e-08)
(5.738e-06 -7.55681e-07 -2.40514e-07)
(4.6627e-06 -1.33901e-06 -7.10286e-08)
(-9.70899e-06 -6.84598e-07 -2.79782e-07)
(5.02579e-06 -3.77335e-07 3.21756e-08)
(5.61428e-06 -4.98101e-08 4.79584e-08)
(3.65218e-06 -2.37821e-07 -4.95575e-08)
(-1.09954e-05 -5.34797e-07 -3.08065e-07)
(-5.87233e-07 -4.01376e-07 -1.61921e-06)
(-2.24602e-08 -1.89582e-07 -1.12579e-06)
(-2.75489e-08 -2.39697e-08 -1.84603e-07)
(1.38489e-07 1.57007e-08 -2.76133e-07)
(-4.80019e-07 -8.64182e-07 -1.18692e-06)
(-1.17979e-06 -3.61181e-07 -7.87947e-07)
(-2.03119e-07 -8.89797e-09 -8.85097e-08)
(5.82268e-08 7.34905e-08 -1.30219e-07)
(-1.64542e-06 -1.40356e-06 -4.08014e-07)
(-9.80401e-07 -1.08595e-07 -4.65757e-07)
(-5.12946e-07 -6.11961e-08 -6.62953e-07)
(6.50388e-07 2.80604e-07 -7.38268e-07)
(-1.94631e-06 -6.41991e-07 -1.40364e-07)
(-6.27401e-07 -6.90112e-08 -5.20621e-07)
(-2.00801e-07 9.90925e-08 -6.66762e-07)
(8.58138e-07 7.25764e-08 -4.79121e-07)
(-1.64332e-06 -9.01162e-07 -5.1852e-07)
(-5.33561e-07 -1.23097e-07 -4.68721e-07)
(1.14181e-07 2.05802e-08 -4.38566e-07)
(5.52125e-07 -3.06251e-08 -2.86997e-07)
(7.55377e-07 -7.48714e-07 7.44195e-07)
(3.07592e-07 2.32006e-07 1.36841e-07)
(4.51649e-07 1.09766e-07 -6.96725e-07)
(6.26084e-07 1.05772e-07 -5.06185e-07)
(-2.43853e-06 3.15458e-07 -5.68376e-08)
(1.9031e-06 3.51746e-07 -5.71396e-07)
(9.55764e-07 -7.39927e-08 -7.02292e-07)
(-3.59424e-06 1.32327e-07 -5.9343e-07)
(1.89598e-06 2.39335e-07 -1.2775e-06)
(3.76059e-07 1.13964e-08 -8.15784e-07)
(-9.42246e-07 3.22586e-07 -6.11154e-07)
(9.36896e-07 5.74415e-07 -1.90292e-06)
(-4.91345e-07 -1.44165e-07 -7.34655e-07)
)
;
    }
    procBoundary2to0
    {
        type            processor;
        value           nonuniform List<vector> 
44
(
(8.15712e-07 9.61635e-08 -4.86325e-07)
(1.06011e-06 8.94774e-08 -4.21947e-07)
(1.22332e-06 7.31035e-08 -4.02684e-07)
(1.31803e-06 2.28552e-08 -4.1004e-07)
(1.3226e-06 9.03718e-09 -4.17224e-07)
(1.34937e-06 2.87622e-08 -3.76872e-07)
(5.85584e-08 -1.11256e-07 -7.14352e-07)
(3.13271e-07 -6.37947e-09 -7.17106e-07)
(5.71113e-07 -1.30972e-08 -5.80501e-07)
(5.71113e-07 -1.30972e-08 -5.80501e-07)
(7.65449e-07 -3.91602e-09 -5.2592e-07)
(9.91871e-07 -6.20971e-09 -4.83635e-07)
(1.10304e-06 3.73187e-08 -4.82825e-07)
(1.18848e-06 5.98001e-09 -4.73308e-07)
(1.20754e-06 -4.0085e-09 -4.31375e-07)
(1.16098e-06 1.41123e-08 -3.80105e-07)
(1.69384e-07 -5.58588e-08 -6.53501e-07)
(2.81406e-07 -2.20031e-08 -6.52688e-07)
(5.02656e-07 -1.44575e-08 -5.93877e-07)
(7.65449e-07 -3.91602e-09 -5.2592e-07)
(9.91871e-07 -6.20971e-09 -4.83635e-07)
(9.91871e-07 -6.20971e-09 -4.83635e-07)
(1.07643e-06 6.0273e-09 -5.43751e-07)
(1.14022e-06 4.93652e-09 -5.15887e-07)
(1.13292e-06 -6.74248e-09 -4.98313e-07)
(1.05167e-06 9.73426e-11 -4.62664e-07)
(2.52533e-07 -3.32841e-08 -6.16296e-07)
(3.48942e-07 -2.55344e-08 -6.20766e-07)
(5.15719e-07 -2.07263e-08 -6.12751e-07)
(7.2497e-07 -4.31255e-09 -5.87044e-07)
(9.35292e-07 1.81868e-10 -5.64193e-07)
(1.07643e-06 6.0273e-09 -5.43751e-07)
(1.14022e-06 4.93652e-09 -5.15887e-07)
(1.14022e-06 4.93652e-09 -5.15887e-07)
(1.14443e-06 2.6824e-08 -5.71569e-07)
(1.04646e-06 3.90307e-08 -5.38836e-07)
(3.09107e-07 -1.97071e-08 -6.12773e-07)
(4.14307e-07 -2.21206e-08 -6.29336e-07)
(5.65736e-07 -2.76689e-08 -6.42935e-07)
(7.47402e-07 -2.37454e-08 -6.44926e-07)
(9.23519e-07 -8.44544e-09 -6.3802e-07)
(1.06082e-06 1.34602e-08 -6.21858e-07)
(1.14528e-06 1.8043e-08 -5.97358e-07)
(1.14443e-06 2.6824e-08 -5.71569e-07)
)
;
    }
    procBoundary2to3
    {
        type            processor;
        value           nonuniform List<vector> 
12
(
(1.29432e-06 1.33918e-07 -3.36964e-07)
(1.16972e-06 9.11036e-08 -3.7534e-07)
(7.91109e-07 1.1868e-07 -4.35215e-07)
(1.7231e-07 1.32685e-07 -5.41703e-07)
(9.86117e-07 6.18692e-08 -3.64198e-07)
(9.13164e-07 7.84132e-08 -3.94702e-07)
(7.50621e-07 1.08156e-07 -4.54114e-07)
(5.52917e-07 1.17319e-07 -5.09614e-07)
(8.20875e-07 2.48454e-08 -4.37801e-07)
(8.00951e-07 6.42604e-08 -4.51547e-07)
(6.95582e-07 1.0508e-07 -4.75671e-07)
(5.11525e-07 1.2178e-07 -4.64131e-07)
)
;
    }
    procBoundary2to6
    {
        type            processor;
        value           nonuniform List<vector> 
32
(
(1.01352e-06 6.45317e-08 -5.50527e-07)
(9.87009e-07 4.07597e-08 -5.65408e-07)
(9.55799e-07 9.1189e-08 -5.60603e-07)
(7.98906e-07 1.65197e-08 -5.67409e-07)
(8.08552e-07 5.48205e-08 -5.85018e-07)
(8.23215e-07 1.00722e-07 -5.59552e-07)
(3.28936e-07 -3.33538e-08 -6.21795e-07)
(4.24869e-07 -3.75437e-08 -6.44728e-07)
(5.78565e-07 -3.69798e-08 -6.64917e-07)
(7.42722e-07 -2.05547e-08 -6.76892e-07)
(9.01427e-07 -1.55321e-10 -6.78301e-07)
(1.04296e-06 1.92671e-08 -6.80212e-07)
(1.11745e-06 3.61867e-08 -6.6228e-07)
(1.01352e-06 6.45317e-08 -5.50527e-07)
(9.87009e-07 4.07597e-08 -5.65408e-07)
(1.10601e-06 5.65655e-08 -6.34826e-07)
(2.94265e-07 -3.83625e-08 -5.80671e-07)
(3.81815e-07 -3.34122e-08 -6.13915e-07)
(5.14357e-07 -2.23171e-08 -6.37838e-07)
(6.67146e-07 -9.4596e-09 -6.43912e-07)
(8.07944e-07 -5.57659e-10 -6.55563e-07)
(9.48304e-07 1.15141e-08 -6.57818e-07)
(9.87009e-07 4.07597e-08 -5.65408e-07)
(7.98906e-07 1.65197e-08 -5.67409e-07)
(1.02327e-06 3.12619e-08 -6.47688e-07)
(2.59314e-07 -3.5984e-08 -5.92958e-07)
(3.26992e-07 -2.98184e-08 -5.9497e-07)
(4.32546e-07 -1.52837e-08 -6.30691e-07)
(5.49932e-07 -9.49163e-09 -6.16665e-07)
(6.78486e-07 -1.73238e-09 -6.31069e-07)
(7.98906e-07 1.65197e-08 -5.67409e-07)
(8.20065e-07 1.09648e-08 -6.38123e-07)
)
;
    }
}


// ************************************************************************* //
