/*--------------------------------*- C++ -*----------------------------------*\
| =========                 |                                                 |
| \\      /  F ield         | OpenFOAM: The Open Source CFD Toolbox           |
|  \\    /   O peration     | Version:  4.x                                   |
|   \\  /    A nd           | Web:      www.OpenFOAM.org                      |
|    \\/     M anipulation  |                                                 |
\*---------------------------------------------------------------------------*/
FoamFile
{
    version     2.0;
    format      ascii;
    class       volScalarField;
    location    "9.5";
    object      KslPrev;
}
// * * * * * * * * * * * * * * * * * * * * * * * * * * * * * * * * * * * * * //

dimensions      [1 -3 -1 0 0 0 0];

internalField   nonuniform List<scalar> 
114
(
5351.5
3087.95
4986.17
3095.28
6027.37
3245.09
3474.32
6813.21
3286.18
5424.06
3113.18
4893.99
3039.14
5448.08
3118.13
3403.75
6492.75
3174.25
4971.61
2966.03
4311.22
2814.62
4404.28
2886.98
3358.91
5905.86
3045.06
4373.12
2740.83
3593.09
2494.95
3253.79
2414.29
13985.1
3949.69
17282.7
3767.41
3512.02
8451.7
3639.24
9443.07
3775.74
11474.8
3827.02
14180.7
3667.68
3464.19
8112.07
3572.69
8508.88
3645.18
9527.26
3718
11540.3
3633.64
3396.5
6756.21
3315.64
5781.26
3162.24
5200.4
3058.12
4861.44
2898.58
48215.3
3998.97
3558.02
9369.38
3793.99
13134.1
3951.28
19617.1
3972.98
24309
3858.6
3489.55
9104.01
3728.82
12266.2
3892.48
17966.1
3977.65
25920.1
3904.33
3420.63
7386.36
3439.48
6975.26
3380.16
6596.5
3382.88
6287.9
3231.29
3568.12
9863.59
3832.81
13985.1
3902.43
18343.3
3856.27
20043
3510.85
9214.56
3757.56
12176.2
3856.69
16243.3
3859.11
3409.78
7252.37
3442.25
6911.59
3393.02
6533.19
)
;

boundaryField
{
    inlet
    {
        type            zeroGradient;
    }
    outlet
    {
        type            zeroGradient;
    }
    wall
    {
        type            zeroGradient;
    }
    procBoundary2to0
    {
        type            processor;
        value           uniform 0;
    }
    procBoundary2to3
    {
        type            processor;
        value           uniform 0;
    }
    procBoundary2to6
    {
        type            processor;
        value           uniform 0;
    }
}


// ************************************************************************* //
