/*--------------------------------*- C++ -*----------------------------------*\
| =========                 |                                                 |
| \\      /  F ield         | OpenFOAM: The Open Source CFD Toolbox           |
|  \\    /   O peration     | Version:  4.x                                   |
|   \\  /    A nd           | Web:      www.OpenFOAM.org                      |
|    \\/     M anipulation  |                                                 |
\*---------------------------------------------------------------------------*/
FoamFile
{
    version     2.0;
    format      ascii;
    class       volScalarField;
    location    "9.5";
    object      pSmooth;
}
// * * * * * * * * * * * * * * * * * * * * * * * * * * * * * * * * * * * * * //

dimensions      [1 -1 -2 0 0 0 0];

internalField   nonuniform List<scalar> 
114
(
76.6159
95.9606
61.9906
91.3593
46.831
84.6895
107.946
91.9377
101.236
76.3745
95.5437
61.6845
91.0099
46.7432
85.0354
107.813
91.9506
101.216
76.2684
95.3384
61.2624
90.5861
46.6175
85.218
107.395
91.7358
100.73
75.9227
94.4235
60.3813
88.9685
45.228
83.8786
61.4006
89.7404
44.464
81.6004
108.958
92.632
102.138
76.617
95.8194
61.0182
89.488
44.2214
81.7894
108.885
92.6122
102.097
76.4224
95.7025
60.7365
89.5051
44.4287
82.283
108.28
92.2684
101.399
76.0116
94.637
59.9466
88.2756
43.8519
82.072
43.871
80.7087
110.181
93.4487
103.141
77.1802
95.9077
60.7384
88.4592
43.4392
80.5976
110.088
93.558
103.179
77.0813
95.9658
60.5612
88.6598
43.4488
80.7657
109.408
93.0808
102.342
76.6457
95.0585
60.1894
87.8136
43.293
80.6511
110.924
94.0696
103.522
77.2584
95.7148
60.129
87.7653
42.5457
110.82
94.0607
103.567
77.2758
95.873
60.1365
87.921
110.052
93.5941
102.777
76.9324
95.1174
59.8602
)
;

boundaryField
{
    inlet
    {
        type            zeroGradient;
    }
    outlet
    {
        type            fixedValue;
        value           nonuniform 0();
    }
    wall
    {
        type            zeroGradient;
    }
    procBoundary2to0
    {
        type            processor;
        value           nonuniform List<scalar> 
44
(
76.3407
95.5338
61.596
90.9611
46.7715
85.1271
108.024
92.1449
101.575
101.575
77.0059
96.4154
61.004
89.4232
44.095
81.606
109.206
92.7519
102.531
77.0059
96.4154
96.4154
61.0263
88.8024
43.4449
80.6248
110.611
93.8406
103.636
77.5493
96.4159
61.0263
88.8024
88.8024
42.9129
80.0564
111.182
94.4096
103.932
77.5988
96.0487
60.5056
87.9534
42.9129
)
;
    }
    procBoundary2to3
    {
        type            processor;
        value           nonuniform List<scalar> 
12
(
27.8185
28.4626
29.2406
29.076
25.4121
25.4687
25.9191
26.9423
26.0539
25.45
25.2541
25.8387
)
;
    }
    procBoundary2to6
    {
        type            processor;
        value           nonuniform List<scalar> 
32
(
79.8951
42.5389
79.9112
87.3141
42.4778
79.6094
111.893
94.6061
104.322
78.0639
96.164
60.756
87.9484
79.8951
42.5389
43.5871
111.629
94.6963
104.271
78.0234
96.3172
60.7127
42.5389
87.3141
88.0876
110.818
94.206
103.463
77.7142
95.6971
87.3141
60.4865
)
;
    }
}


// ************************************************************************* //
