/*--------------------------------*- C++ -*----------------------------------*\
| =========                 |                                                 |
| \\      /  F ield         | OpenFOAM: The Open Source CFD Toolbox           |
|  \\    /   O peration     | Version:  4.x                                   |
|   \\  /    A nd           | Web:      www.OpenFOAM.org                      |
|    \\/     M anipulation  |                                                 |
\*---------------------------------------------------------------------------*/
FoamFile
{
    version     2.0;
    format      ascii;
    class       volVectorField;
    location    "9.5";
    object      UsNext;
}
// * * * * * * * * * * * * * * * * * * * * * * * * * * * * * * * * * * * * * //

dimensions      [0 1 -1 0 0 0 0];

internalField   nonuniform List<vector> 
114
(
(-8.96142e-09 1.25912e-09 -1.94043e-08)
(-1.78687e-08 5.17279e-10 -3.70367e-08)
(-1.8309e-08 -5.47899e-09 -3.80352e-08)
(-1.06091e-08 -4.59712e-09 -2.27087e-08)
(-6.97837e-09 -2.04631e-08 2.00688e-08)
(1.73447e-09 -2.59408e-08 5.81694e-08)
(4.05276e-08 -8.57609e-09 7.47475e-09)
(1.29564e-09 2.72355e-09 1.07143e-08)
(-9.67134e-09 3.41767e-09 -7.72872e-10)
(-1.5417e-08 2.06021e-09 -1.61652e-08)
(-2.41664e-08 -2.95671e-09 -3.2969e-08)
(-2.69231e-08 -8.57566e-10 -2.98018e-08)
(-1.69832e-08 -1.03952e-09 -1.32202e-08)
(-7.22522e-09 -1.17388e-08 2.04516e-08)
(-6.89809e-09 -2.41459e-08 5.38783e-08)
(3.49812e-09 3.85246e-10 9.8032e-09)
(3.40679e-09 -9.86031e-10 1.18216e-08)
(-1.40393e-08 4.2843e-09 4.60019e-09)
(-2.33606e-08 2.41318e-09 -1.28797e-08)
(-3.03413e-08 1.25044e-09 -2.75624e-08)
(-3.20804e-08 2.23962e-09 -2.43777e-08)
(-2.51186e-08 -2.5994e-09 -1.42893e-08)
(-1.81917e-09 -1.73749e-08 1.67668e-08)
(-1.26903e-08 -2.05117e-08 4.45658e-08)
(1.21411e-08 -1.78637e-09 8.80258e-09)
(4.32687e-09 -1.00846e-10 9.73908e-09)
(-5.52071e-09 2.03523e-09 8.64881e-09)
(-2.24517e-08 6.69775e-09 -1.839e-09)
(-2.3459e-08 1.49573e-08 -1.36707e-08)
(-2.31342e-08 3.77643e-09 -1.10461e-08)
(-2.3597e-08 2.96267e-09 -1.69224e-08)
(-1.92153e-08 1.09079e-09 6.67105e-09)
(-1.51289e-08 -1.00187e-08 2.64181e-08)
(-3.06027e-08 -6.54395e-09 -3.57678e-08)
(-3.89402e-08 -7.40434e-09 -2.6164e-08)
(-3.57132e-08 -1.53541e-08 2.05071e-08)
(-4.37149e-08 -1.73711e-08 4.73345e-08)
(3.23337e-09 1.42501e-09 8.06888e-09)
(4.46957e-09 2.73986e-09 1.10902e-08)
(9.98965e-10 2.12302e-10 -8.79412e-10)
(-7.53342e-09 1.83506e-09 -1.74925e-08)
(-1.50488e-08 2.3096e-09 -3.24856e-08)
(-3.41834e-08 -2.23216e-09 -3.01137e-08)
(-3.8885e-08 -5.20957e-09 -1.51379e-08)
(-4.64529e-08 -1.29248e-08 1.69239e-08)
(-4.33441e-08 -1.78842e-08 4.48665e-08)
(4.47655e-09 5.64885e-10 1.15115e-08)
(3.30862e-09 8.82035e-10 1.04517e-08)
(-3.16617e-09 1.58294e-09 2.95348e-09)
(-1.063e-08 2.25588e-09 -1.3271e-08)
(-1.82259e-08 6.93258e-09 -2.2039e-08)
(-3.03366e-08 3.86755e-09 -2.51162e-08)
(-3.7555e-08 -3.68991e-10 -1.73091e-08)
(-3.97365e-08 -8.7963e-09 7.1361e-09)
(-3.86513e-08 -1.53206e-08 3.0734e-08)
(3.56744e-09 -7.51023e-11 7.98865e-09)
(3.02578e-09 3.73577e-10 7.59253e-09)
(-2.97823e-10 6.61822e-10 3.80696e-09)
(-6.93342e-09 1.7991e-09 -3.27101e-09)
(-1.16602e-08 5.60343e-09 -7.93919e-09)
(-1.78792e-08 5.92411e-09 -1.45256e-08)
(-2.2743e-08 1.54888e-09 -1.55641e-08)
(-2.78422e-08 -2.41114e-09 -2.69279e-09)
(-3.4863e-08 -2.13145e-09 2.37448e-09)
(-8.37241e-08 -1.09581e-08 1.32558e-08)
(-8.86913e-08 -8.3057e-09 4.03241e-08)
(4.14539e-09 2.0229e-09 7.2828e-09)
(6.68967e-09 1.6241e-09 7.63045e-09)
(6.42103e-09 9.50956e-10 -1.42724e-09)
(-5.48754e-09 3.44983e-09 -1.52214e-08)
(-1.83456e-08 1.51383e-09 -2.80649e-08)
(-4.32573e-08 -3.4247e-09 -2.49751e-08)
(-5.90893e-08 -4.27368e-09 -1.27675e-08)
(-7.42537e-08 -1.05286e-08 1.19692e-08)
(-8.37234e-08 -1.03035e-08 3.08593e-08)
(3.97933e-09 1.91176e-10 7.09682e-09)
(7.54376e-09 1.46509e-09 7.53791e-09)
(2.82314e-09 1.19265e-09 -1.16123e-09)
(-3.775e-09 1.17435e-09 -1.14807e-08)
(-1.5262e-08 5.94929e-09 -1.90383e-08)
(-3.41381e-08 1.16214e-09 -1.96299e-08)
(-5.16155e-08 2.21895e-09 -1.53446e-08)
(-6.77933e-08 -6.14684e-09 2.9046e-09)
(-7.74394e-08 -4.31678e-09 2.21943e-08)
(3.41689e-09 -2.69235e-10 6.4924e-09)
(4.44349e-09 4.05302e-10 6.12197e-09)
(2.6384e-09 1.75034e-09 2.12955e-09)
(-2.93618e-09 2.87394e-09 -5.89067e-09)
(-1.04807e-08 5.02622e-09 -8.54921e-09)
(-1.89005e-08 2.22955e-09 -1.25692e-08)
(-2.95812e-08 1.00085e-09 -1.02023e-08)
(-3.8571e-08 2.03392e-10 -4.81778e-09)
(-5.56992e-08 9.81884e-10 1.17316e-09)
(4.39843e-09 2.47904e-09 5.01367e-09)
(8.22493e-09 3.04568e-09 3.47168e-09)
(8.12409e-09 1.88587e-09 -1.75837e-09)
(-2.93799e-09 2.07824e-09 -8.3832e-09)
(-1.75483e-08 -2.72835e-09 -1.7929e-08)
(-5.24651e-08 -2.31697e-09 -1.1658e-08)
(-7.37453e-08 -5.7252e-09 -6.46607e-09)
(-9.74608e-08 -9.28148e-09 1.15063e-08)
(3.84957e-09 9.30684e-10 4.86504e-09)
(8.58052e-09 1.13478e-09 4.85864e-09)
(4.1717e-09 1.64262e-09 -5.72186e-10)
(-3.30297e-09 1.04899e-09 -6.23314e-09)
(-1.76165e-08 2.27203e-09 -1.45661e-08)
(-3.91096e-08 -8.22651e-10 -1.50647e-08)
(-5.76696e-08 -9.80343e-11 -1.15862e-08)
(3.41535e-09 -6.58299e-10 4.90474e-09)
(4.67577e-09 5.65763e-11 4.49085e-09)
(5.01427e-09 4.45316e-10 7.18139e-10)
(2.61452e-10 1.53871e-09 -2.66983e-09)
(-1.09654e-08 2.88677e-09 -9.0911e-09)
(-2.12317e-08 1.53369e-09 -7.74028e-09)
)
;

boundaryField
{
    inlet
    {
        type            calculated;
        value           nonuniform List<vector> 
12
(
(4.05276e-08 -8.57609e-09 7.47475e-09)
(3.49812e-09 3.85246e-10 9.8032e-09)
(1.21411e-08 -1.78637e-09 8.80258e-09)
(3.23337e-09 1.42501e-09 8.06888e-09)
(4.47655e-09 5.64885e-10 1.15115e-08)
(3.56744e-09 -7.51023e-11 7.98865e-09)
(4.14539e-09 2.0229e-09 7.2828e-09)
(3.97933e-09 1.91176e-10 7.09682e-09)
(3.41689e-09 -2.69235e-10 6.4924e-09)
(4.39843e-09 2.47904e-09 5.01367e-09)
(3.84957e-09 9.30684e-10 4.86504e-09)
(3.41535e-09 -6.58299e-10 4.90474e-09)
)
;
    }
    outlet
    {
        type            calculated;
        value           nonuniform 0();
    }
    wall
    {
        type            calculated;
        value           nonuniform List<vector> 
66
(
(4.05276e-08 -8.57609e-09 7.47475e-09)
(3.49812e-09 3.85246e-10 9.8032e-09)
(1.21411e-08 -1.78637e-09 8.80258e-09)
(1.29564e-09 2.72355e-09 1.07143e-08)
(3.40679e-09 -9.86031e-10 1.18216e-08)
(4.32687e-09 -1.00846e-10 9.73908e-09)
(-9.67134e-09 3.41767e-09 -7.72872e-10)
(-1.40393e-08 4.2843e-09 4.60019e-09)
(-5.52071e-09 2.03523e-09 8.64881e-09)
(-8.96142e-09 1.25912e-09 -1.94043e-08)
(-1.5417e-08 2.06021e-09 -1.61652e-08)
(-2.33606e-08 2.41318e-09 -1.28797e-08)
(-2.24517e-08 6.69775e-09 -1.839e-09)
(-1.78687e-08 5.17279e-10 -3.70367e-08)
(-2.41664e-08 -2.95671e-09 -3.2969e-08)
(-3.03413e-08 1.25044e-09 -2.75624e-08)
(-2.3459e-08 1.49573e-08 -1.36707e-08)
(-1.8309e-08 -5.47899e-09 -3.80352e-08)
(-2.69231e-08 -8.57566e-10 -2.98018e-08)
(-3.20804e-08 2.23962e-09 -2.43777e-08)
(-2.31342e-08 3.77643e-09 -1.10461e-08)
(-1.06091e-08 -4.59712e-09 -2.27087e-08)
(-1.69832e-08 -1.03952e-09 -1.32202e-08)
(-2.51186e-08 -2.5994e-09 -1.42893e-08)
(-2.3597e-08 2.96267e-09 -1.69224e-08)
(-6.97837e-09 -2.04631e-08 2.00688e-08)
(-7.22522e-09 -1.17388e-08 2.04516e-08)
(-1.81917e-09 -1.73749e-08 1.67668e-08)
(-1.92153e-08 1.09079e-09 6.67105e-09)
(1.73447e-09 -2.59408e-08 5.81694e-08)
(-6.89809e-09 -2.41459e-08 5.38783e-08)
(-1.26903e-08 -2.05117e-08 4.45658e-08)
(-1.51289e-08 -1.00187e-08 2.64181e-08)
(1.21411e-08 -1.78637e-09 8.80258e-09)
(3.56744e-09 -7.51023e-11 7.98865e-09)
(3.41689e-09 -2.69235e-10 6.4924e-09)
(3.41535e-09 -6.58299e-10 4.90474e-09)
(4.32687e-09 -1.00846e-10 9.73908e-09)
(3.02578e-09 3.73577e-10 7.59253e-09)
(4.44349e-09 4.05302e-10 6.12197e-09)
(4.67577e-09 5.65763e-11 4.49085e-09)
(-5.52071e-09 2.03523e-09 8.64881e-09)
(-2.97823e-10 6.61822e-10 3.80696e-09)
(2.6384e-09 1.75034e-09 2.12955e-09)
(5.01427e-09 4.45316e-10 7.18139e-10)
(-2.24517e-08 6.69775e-09 -1.839e-09)
(-6.93342e-09 1.7991e-09 -3.27101e-09)
(-2.93618e-09 2.87394e-09 -5.89067e-09)
(2.61452e-10 1.53871e-09 -2.66983e-09)
(-2.3459e-08 1.49573e-08 -1.36707e-08)
(-1.16602e-08 5.60343e-09 -7.93919e-09)
(-1.04807e-08 5.02622e-09 -8.54921e-09)
(-1.09654e-08 2.88677e-09 -9.0911e-09)
(-2.31342e-08 3.77643e-09 -1.10461e-08)
(-1.78792e-08 5.92411e-09 -1.45256e-08)
(-1.89005e-08 2.22955e-09 -1.25692e-08)
(-2.12317e-08 1.53369e-09 -7.74028e-09)
(-2.3597e-08 2.96267e-09 -1.69224e-08)
(-2.2743e-08 1.54888e-09 -1.55641e-08)
(-2.95812e-08 1.00085e-09 -1.02023e-08)
(-1.92153e-08 1.09079e-09 6.67105e-09)
(-2.78422e-08 -2.41114e-09 -2.69279e-09)
(-3.8571e-08 2.03392e-10 -4.81778e-09)
(-1.51289e-08 -1.00187e-08 2.64181e-08)
(-3.4863e-08 -2.13145e-09 2.37448e-09)
(-5.56992e-08 9.81884e-10 1.17316e-09)
)
;
    }
    procBoundary2to0
    {
        type            processor;
        value           nonuniform List<vector> 
44
(
(-1.31616e-08 -5.26927e-09 -2.17261e-08)
(-2.06709e-08 -6.56317e-09 -4.14222e-08)
(-2.16504e-08 -1.33086e-08 -4.13313e-08)
(-1.55456e-08 -1.35744e-08 -2.85004e-08)
(1.79342e-08 -2.20881e-08 1.35471e-08)
(2.6611e-08 -2.57671e-08 7.036e-08)
(6.58724e-09 1.26053e-08 7.33464e-09)
(6.25888e-09 6.45094e-09 1.01798e-08)
(-3.88605e-09 2.8054e-09 3.39515e-09)
(-3.88605e-09 2.8054e-09 3.39515e-09)
(-4.10912e-09 5.01406e-10 -2.35639e-08)
(-1.30783e-08 -5.73856e-09 -3.30703e-08)
(-3.24205e-08 -8.53313e-09 -4.13854e-08)
(-3.54535e-08 -1.72515e-08 -2.66926e-08)
(-4.34495e-08 -1.58682e-08 8.09729e-09)
(-4.02326e-08 -1.32902e-08 6.39057e-08)
(6.62095e-09 7.93817e-09 9.79107e-09)
(8.91523e-09 5.81488e-09 1.01163e-08)
(8.81244e-09 -1.0393e-09 -2.68891e-09)
(-4.10912e-09 5.01406e-10 -2.35639e-08)
(-1.30783e-08 -5.73856e-09 -3.30703e-08)
(-1.30783e-08 -5.73856e-09 -3.30703e-08)
(-4.21271e-08 -5.48554e-09 -2.73133e-08)
(-7.08266e-08 -5.91175e-09 -1.47439e-08)
(-9.15041e-08 -1.02029e-08 4.49067e-09)
(-9.20643e-08 -6.79766e-09 2.39944e-08)
(4.07826e-09 4.49693e-09 8.62761e-09)
(1.02471e-08 2.94024e-09 8.16648e-09)
(1.29284e-08 -2.4921e-11 -2.90542e-09)
(-9.71316e-10 -7.93137e-10 -1.45454e-08)
(-2.31776e-08 -1.73138e-09 -2.96812e-08)
(-4.21271e-08 -5.48554e-09 -2.73133e-08)
(-7.08266e-08 -5.91175e-09 -1.47439e-08)
(-7.08266e-08 -5.91175e-09 -1.47439e-08)
(-9.7341e-08 -9.48744e-09 7.31179e-09)
(-1.03086e-07 -1.09199e-08 3.13288e-08)
(5.61779e-09 3.95457e-09 6.95777e-09)
(1.14232e-08 3.52205e-09 6.58444e-09)
(1.065e-08 3.55784e-09 -2.45745e-10)
(-7.17479e-09 1.3059e-09 -1.30445e-08)
(-2.95953e-08 -6.05178e-09 -2.42418e-08)
(-6.0818e-08 -6.07439e-09 -2.09858e-08)
(-8.68957e-08 -8.01219e-09 -8.8486e-09)
(-9.7341e-08 -9.48744e-09 7.31179e-09)
)
;
    }
    procBoundary2to3
    {
        type            processor;
        value           nonuniform List<vector> 
12
(
(1.40267e-08 -9.42245e-09 6.60845e-08)
(6.36876e-10 -2.82452e-08 6.70981e-08)
(1.77399e-09 -5.06287e-08 5.36847e-08)
(-1.50439e-08 -1.89503e-08 2.67602e-08)
(-3.51511e-08 -1.63664e-08 6.57677e-08)
(-4.37642e-08 -2.14075e-08 6.17802e-08)
(-2.89405e-08 -2.0167e-08 4.66675e-08)
(-3.33636e-08 -9.1866e-09 1.55855e-08)
(-8.95896e-08 -1.02984e-08 5.06091e-08)
(-9.16933e-08 -1.10899e-08 4.81818e-08)
(-8.63856e-08 -5.07058e-09 3.33146e-08)
(-6.23275e-08 8.20303e-09 1.45424e-08)
)
;
    }
    procBoundary2to6
    {
        type            processor;
        value           nonuniform List<vector> 
32
(
(-1.02362e-07 -5.95566e-09 2.32477e-08)
(-8.3712e-08 -1.10935e-08 3.77085e-09)
(-9.66838e-08 -3.67044e-09 1.65591e-08)
(-2.71291e-08 -1.20484e-09 -5.48289e-09)
(-4.61314e-08 -4.74676e-09 -2.36537e-09)
(-3.86661e-08 -6.46565e-10 1.26227e-09)
(5.03196e-09 2.26012e-09 3.82764e-09)
(6.93451e-09 2.89182e-09 3.52721e-09)
(5.41278e-09 1.13046e-09 9.21046e-11)
(-1.53421e-09 -4.86247e-10 -4.71878e-09)
(-2.73696e-08 -1.92742e-10 -1.30396e-08)
(-6.71677e-08 -6.98701e-09 -2.11617e-09)
(-8.00746e-08 -9.54445e-09 3.25232e-10)
(-1.02362e-07 -5.95566e-09 2.32477e-08)
(-8.3712e-08 -1.10935e-08 3.77085e-09)
(-9.48732e-08 -1.09145e-08 9.51162e-09)
(6.43512e-09 1.87597e-09 3.83585e-09)
(7.55555e-09 1.02885e-09 3.56286e-09)
(7.17959e-09 9.57692e-10 1.12681e-09)
(-4.47655e-09 8.69186e-10 -3.37447e-09)
(-1.75384e-08 3.07284e-09 -1.08777e-08)
(-4.54839e-08 -1.22334e-09 -6.98668e-09)
(-8.3712e-08 -1.10935e-08 3.77085e-09)
(-2.71291e-08 -1.20484e-09 -5.48289e-09)
(-7.04344e-08 -5.89576e-09 -3.66194e-09)
(1.96727e-09 3.01418e-10 2.11842e-09)
(6.79544e-09 1.19124e-10 2.23139e-09)
(3.10498e-09 1.31746e-09 1.34103e-09)
(-1.98856e-09 1.66983e-09 -2.27811e-09)
(-6.92872e-09 2.66224e-09 -4.21616e-09)
(-2.71291e-08 -1.20484e-09 -5.48289e-09)
(-2.61642e-08 2.1156e-09 -5.59452e-09)
)
;
    }
}


// ************************************************************************* //
