/*--------------------------------*- C++ -*----------------------------------*\
| =========                 |                                                 |
| \\      /  F ield         | OpenFOAM: The Open Source CFD Toolbox           |
|  \\    /   O peration     | Version:  4.x                                   |
|   \\  /    A nd           | Web:      www.OpenFOAM.org                      |
|    \\/     M anipulation  |                                                 |
\*---------------------------------------------------------------------------*/
FoamFile
{
    version     2.0;
    format      ascii;
    class       volVectorField;
    location    "58";
    object      DDtUrel;
}
// * * * * * * * * * * * * * * * * * * * * * * * * * * * * * * * * * * * * * //

dimensions      [0 1 -2 0 0 0 0];

internalField   nonuniform List<vector> 
132
(
(0.00184765 -6.27804e-05 -0.000176424)
(0.00123395 -3.42152e-05 -9.84016e-05)
(0.000858364 -7.71304e-06 -3.78075e-05)
(0.000650776 8.66799e-06 -1.27044e-06)
(0.000504432 1.77163e-05 1.63624e-05)
(0.00042132 2.0776e-05 2.31343e-05)
(0.000345953 2.33004e-05 2.03464e-05)
(0.000316485 2.71844e-05 1.98668e-05)
(0.000266128 3.66115e-05 1.31094e-05)
(0.00181436 -7.70061e-05 -0.000179687)
(0.00118945 -3.88627e-05 -9.79994e-05)
(0.00081093 -9.7073e-06 -3.88778e-05)
(0.000601381 6.73911e-06 -2.87955e-06)
(0.000456526 1.45061e-05 1.65662e-05)
(0.000378017 1.48624e-05 2.50918e-05)
(0.000304584 1.14714e-05 2.49167e-05)
(0.000273826 1.55382e-05 2.53429e-05)
(0.00022339 2.08859e-05 1.62628e-05)
(0.00178084 -5.42414e-05 -0.000182629)
(0.00114593 -2.67495e-05 -9.7508e-05)
(0.000764702 -8.27907e-06 -3.81906e-05)
(0.000547882 5.41772e-06 -2.26306e-06)
(0.000405513 1.04358e-05 1.74408e-05)
(0.000326581 1.02239e-05 2.95333e-05)
(0.000255401 9.3426e-06 3.31759e-05)
(0.000219238 1.00722e-05 3.32794e-05)
(0.000171177 1.22043e-05 2.10396e-05)
(0.00176935 -2.3565e-05 -0.000180014)
(0.00113257 -8.51706e-06 -9.49644e-05)
(0.000749173 -3.19344e-06 -3.60012e-05)
(0.00178726 -6.79159e-05 -0.000189807)
(0.00114733 -3.54477e-05 -9.48931e-05)
(0.000759874 -1.00322e-05 -3.28376e-05)
(0.000543164 6.04803e-06 6.45337e-06)
(0.00039989 1.6363e-05 2.0125e-05)
(0.000321303 2.06546e-05 2.76603e-05)
(0.000252372 2.43019e-05 2.47718e-05)
(0.000223286 2.79144e-05 2.56147e-05)
(0.000177256 3.1865e-05 1.79842e-05)
(0.00174928 -8.19318e-05 -0.000194899)
(0.00109859 -3.87935e-05 -9.47751e-05)
(0.000710275 -1.05477e-05 -3.28664e-05)
(0.00049181 5.47801e-06 6.03022e-06)
(0.000350894 1.36547e-05 2.02341e-05)
(0.000276069 1.69359e-05 2.89168e-05)
(0.000211095 1.67388e-05 2.67841e-05)
(0.000185071 1.97014e-05 2.88636e-05)
(0.00014397 1.92984e-05 1.96815e-05)
(0.00171198 -5.57022e-05 -0.000200868)
(0.00105402 -2.56815e-05 -9.60395e-05)
(0.000664975 -7.5906e-06 -3.27362e-05)
(0.000444317 4.71685e-06 7.62401e-06)
(0.000307624 8.8573e-06 2.12569e-05)
(0.000232664 1.19222e-05 3.3609e-05)
(0.000173907 1.01187e-05 2.97727e-05)
(0.000147154 1.10297e-05 3.15011e-05)
(0.000112067 9.95102e-06 2.05951e-05)
(0.0017007 -1.88082e-05 -0.000204149)
(0.00104043 -8.42525e-06 -9.61963e-05)
(0.000649632 -1.77146e-06 -3.15668e-05)
(0.000430819 1.60913e-06 8.17296e-06)
(0.000294019 4.42071e-07 2.15819e-05)
(0.00174083 -7.6435e-05 -0.000174924)
(0.00108031 -3.87484e-05 -8.79496e-05)
(0.000685709 -1.08905e-05 -3.36996e-05)
(0.000465563 5.93861e-06 1.54004e-06)
(0.000323023 1.59243e-05 1.26042e-05)
(0.000249272 2.09972e-05 2.09488e-05)
(0.00018333 2.39972e-05 1.6026e-05)
(0.000157889 2.85459e-05 1.69565e-05)
(0.000110108 3.01529e-05 1.03344e-05)
(0.00169793 -9.20754e-05 -0.000179666)
(0.00102864 -4.26107e-05 -8.71705e-05)
(0.000634636 -1.14669e-05 -3.10173e-05)
(0.000414753 6.79329e-06 4.39546e-06)
(0.000277335 1.41393e-05 1.3702e-05)
(0.000207307 2.00033e-05 2.21006e-05)
(0.000148326 1.71123e-05 1.89447e-05)
(0.000128399 2.0498e-05 2.06034e-05)
(9.04762e-05 1.63573e-05 1.28921e-05)
(0.00165531 -6.56514e-05 -0.000183957)
(0.000978069 -2.9331e-05 -8.77568e-05)
(0.000586909 -8.18367e-06 -2.9964e-05)
(0.000368093 5.48103e-06 7.28682e-06)
(0.000239769 7.9827e-06 1.58999e-05)
(0.000169737 1.21736e-05 2.79454e-05)
(0.000120425 9.38079e-06 2.16541e-05)
(9.49093e-05 1.02227e-05 2.42945e-05)
(6.63671e-05 8.75316e-06 1.58278e-05)
(0.00164032 -2.13993e-05 -0.000183402)
(0.000960729 -9.97919e-06 -8.64587e-05)
(0.000570262 -3.77038e-06 -2.84918e-05)
(0.00035553 -5.91907e-07 8.27451e-06)
(0.000227915 -9.52717e-07 1.56696e-05)
(0.000162474 -4.19506e-07 2.55907e-05)
(0.0001129 4.87962e-07 2.14632e-05)
(0.00171386 -8.39015e-05 -0.00013244)
(0.00104026 -4.08551e-05 -6.77693e-05)
(0.000638482 -1.04474e-05 -2.80754e-05)
(0.000410822 7.5183e-06 -6.00147e-07)
(0.000267776 1.46366e-05 7.60748e-06)
(0.000188282 1.93576e-05 1.47804e-05)
(0.000124564 2.2159e-05 1.33887e-05)
(9.37515e-05 2.61878e-05 1.86846e-05)
(4.73468e-05 2.351e-05 1.94487e-05)
(0.00166455 -9.88494e-05 -0.000134308)
(0.000981687 -4.41759e-05 -6.59857e-05)
(0.000583896 -1.12653e-05 -2.54672e-05)
(0.000360785 8.34222e-06 2.08533e-06)
(0.000227493 1.33634e-05 8.97778e-06)
(0.000154334 2.16066e-05 1.53508e-05)
(0.000101438 1.76356e-05 1.39059e-05)
(7.51186e-05 2.22431e-05 1.56986e-05)
(4.39954e-05 1.67878e-05 1.47191e-05)
(0.0016193 -6.41536e-05 -0.000134577)
(0.000929013 -2.84119e-05 -6.30539e-05)
(0.000538379 -8.04706e-06 -2.31101e-05)
(0.000317751 6.32055e-06 3.5412e-06)
(0.000198003 7.53776e-06 9.85604e-06)
(0.000123917 1.22524e-05 1.54961e-05)
(8.49629e-05 9.22689e-06 1.46047e-05)
(5.13619e-05 9.61143e-06 1.67752e-05)
(3.45804e-05 8.01117e-06 1.19959e-05)
(0.00160947 -1.51039e-05 -0.000134156)
(0.000917102 -4.65702e-06 -6.40251e-05)
(0.000526117 -1.75567e-06 -2.35269e-05)
(0.000311958 7.60627e-07 1.99865e-06)
(0.000188983 8.71002e-08 9.59607e-06)
(0.00012297 -1.5997e-06 1.62843e-05)
(7.79262e-05 1.11569e-07 1.42693e-05)
(5.03177e-05 5.82566e-07 1.62783e-05)
(3.03962e-05 4.03258e-07 1.0737e-05)
)
;

boundaryField
{
    inlet
    {
        type            calculated;
        value           nonuniform List<vector> 
16
(
(0.00412251 -9.6029e-05 -0.000378229)
(0.00403973 -0.00029873 -0.000398805)
(0.00398122 -0.000163125 -0.00041958)
(0.00401109 -0.000117063 -0.00039763)
(0.0039348 -0.000119838 -0.000568376)
(0.00381339 -0.00032897 -0.000609891)
(0.00372663 -0.000159647 -0.000656372)
(0.00376334 -5.05443e-05 -0.000721232)
(0.00395261 -0.000153886 -0.000526725)
(0.00381046 -0.000391493 -0.000573007)
(0.00370185 -0.000272978 -0.000610007)
(0.00367711 -0.000102121 -0.000595465)
(0.00395797 -0.000189983 -0.000394602)
(0.00375876 -0.000438812 -0.000428933)
(0.0036303 -0.000202803 -0.000435236)
(0.00370212 -1.84985e-05 -0.000414049)
)
;
    }
    outlet
    {
        type            calculated;
        value           nonuniform 0();
    }
    wall
    {
        type            calculated;
        value           nonuniform List<vector> 
66
(
(0.00412251 -9.6029e-05 -0.000378229)
(0.00403973 -0.00029873 -0.000398805)
(0.00398122 -0.000163125 -0.00041958)
(0.00401109 -0.000117063 -0.00039763)
(0.000863897 -9.56203e-06 -5.38941e-05)
(0.0006664 -6.12898e-05 -3.50751e-05)
(0.000513185 -1.94949e-05 -2.46875e-05)
(0.000570257 1.96621e-05 -1.08875e-06)
(0.000762026 3.83505e-05 2.80542e-05)
(0.000568137 2.35868e-05 1.22112e-05)
(0.000443357 -6.13322e-06 1.62771e-05)
(0.000497077 -8.0797e-06 2.45462e-05)
(0.000932741 4.63679e-05 4.12894e-05)
(0.000739818 3.68502e-05 1.66525e-05)
(0.000511148 4.77584e-05 1.71385e-05)
(0.000766573 5.10538e-05 3.93987e-05)
(0.000575022 4.37493e-05 3.85725e-05)
(0.000392668 5.3822e-05 2.50335e-05)
(0.000835358 4.10043e-05 3.42101e-05)
(0.000698657 1.67326e-05 3.39043e-05)
(0.000466239 2.80389e-05 4.11288e-05)
(0.000610417 5.20348e-05 -1.47238e-05)
(0.000476549 -5.86262e-05 5.89204e-06)
(0.000270191 2.20744e-05 6.43521e-05)
(0.000800245 4.25832e-05 5.81441e-06)
(0.000645998 -2.04102e-05 3.77588e-05)
(0.000306927 1.46202e-05 8.47765e-05)
(0.000512454 0.000124084 -2.82317e-05)
(0.000319678 -2.52111e-06 -2.72363e-05)
(4.76674e-05 2.68369e-05 -3.29181e-05)
(0.00412251 -9.6029e-05 -0.000378229)
(0.0039348 -0.000119838 -0.000568376)
(0.00395261 -0.000153886 -0.000526725)
(0.00395797 -0.000189983 -0.000394602)
(0.000863897 -9.56203e-06 -5.38941e-05)
(0.00041853 3.99308e-06 6.7546e-07)
(0.000294561 1.20728e-06 -2.48964e-05)
(0.000241922 7.99304e-06 -1.8651e-05)
(0.000762026 3.83505e-05 2.80542e-05)
(0.00028417 1.73397e-05 5.88308e-05)
(0.000194413 2.26342e-05 -2.18525e-07)
(0.000140199 3.61105e-05 -4.38137e-06)
(0.000932741 4.63679e-05 4.12894e-05)
(0.000370508 1.87536e-05 0.000129448)
(0.000299739 2.02777e-05 6.25511e-05)
(0.000171209 4.40082e-05 5.13491e-05)
(0.000766573 5.10538e-05 3.93987e-05)
(0.000255902 4.13623e-05 7.41427e-05)
(0.000174131 3.99244e-05 1.02692e-05)
(6.48551e-05 2.03788e-05 1.85287e-06)
(0.000835358 4.10043e-05 3.42101e-05)
(0.000342874 3.27096e-05 9.19715e-05)
(0.000318551 3.67955e-05 5.86818e-05)
(9.23975e-05 1.51809e-05 3.98027e-05)
(0.000610417 5.20348e-05 -1.47238e-05)
(0.000174371 5.14604e-05 4.68042e-05)
(0.000127856 4.47046e-05 -3.06287e-05)
(-6.36172e-05 4.17805e-05 -1.23705e-05)
(0.000800245 4.25832e-05 5.81441e-06)
(0.000310086 5.21859e-05 8.71821e-05)
(0.00031664 7.18141e-05 -1.583e-06)
(5.21458e-06 8.08324e-05 4.30497e-05)
(0.000512454 0.000124084 -2.82317e-05)
(9.07133e-05 6.99556e-05 3.51308e-05)
(2.84726e-05 8.85941e-05 -6.5145e-05)
(-0.000217086 2.67623e-05 5.53108e-05)
)
;
    }
    procBoundary0to1
    {
        type            processor;
        value           nonuniform List<vector> 
12
(
(0.000264082 3.83835e-05 1.14683e-05)
(0.000227229 2.8302e-05 1.58484e-05)
(0.000168396 1.91574e-05 2.17862e-05)
(0.000168828 3.3055e-05 1.52219e-05)
(0.00014129 2.54513e-05 1.83627e-05)
(0.000101399 1.31352e-05 2.01944e-05)
(0.000102 3.14545e-05 8.7107e-06)
(8.82906e-05 2.26335e-05 1.40619e-05)
(5.27304e-05 1.13937e-05 1.28732e-05)
(2.33648e-05 2.80258e-05 1.88015e-05)
(2.67934e-05 2.00117e-05 1.46254e-05)
(1.23562e-05 8.99331e-06 1.04222e-05)
)
;
    }
    procBoundary0to2
    {
        type            processor;
        value           nonuniform List<vector> 
44
(
(0.000531263 1.64451e-07 -7.30615e-07)
(0.000389481 -7.04427e-07 2.0056e-05)
(0.000315364 -1.24448e-06 3.50226e-05)
(0.000245936 5.31873e-07 3.83681e-05)
(0.000220701 6.39493e-07 3.92115e-05)
(0.000170159 -4.09364e-06 3.01918e-05)
(0.00176834 1.69548e-05 -0.0001722)
(0.00112672 1.07004e-05 -9.42299e-05)
(0.000531263 1.64451e-07 -7.30615e-07)
(0.000740545 4.12483e-06 -3.29748e-05)
(0.000531263 1.64451e-07 -7.30615e-07)
(0.000389481 -7.04427e-07 2.0056e-05)
(0.000224418 -2.74184e-07 3.49729e-05)
(0.000166587 7.73258e-07 3.14296e-05)
(0.000147813 1.90765e-06 3.37184e-05)
(0.000109404 1.34679e-07 2.2745e-05)
(0.00170632 2.4782e-05 -0.00019773)
(0.00104202 1.20061e-05 -9.65045e-05)
(0.000650196 5.63383e-06 -3.25419e-05)
(0.000429769 -9.01551e-07 7.43822e-06)
(0.000224418 -2.74184e-07 3.49729e-05)
(0.000294986 -7.27067e-06 2.07209e-05)
(0.000224418 -2.74184e-07 3.49729e-05)
(0.000166587 7.73258e-07 3.14296e-05)
(9.04123e-05 3.97731e-06 2.23667e-05)
(6.16768e-05 7.48348e-07 1.46064e-05)
(0.00164984 2.8225e-05 -0.000179379)
(0.00096534 1.08818e-05 -8.31191e-05)
(0.000574361 2.98564e-06 -2.87302e-05)
(0.000354804 -4.59238e-06 7.20925e-06)
(0.000229045 -7.4492e-06 1.63634e-05)
(0.000157733 -1.24423e-05 2.75024e-05)
(9.04123e-05 3.97731e-06 2.23667e-05)
(0.000113141 -9.31076e-06 2.34477e-05)
(9.04123e-05 3.97731e-06 2.23667e-05)
(6.16768e-05 7.48348e-07 1.46064e-05)
(0.00161998 3.80198e-05 -0.00013551)
(0.000926353 1.7209e-05 -6.10893e-05)
(0.000535879 3.73006e-06 -2.3699e-05)
(0.000318512 -4.42803e-06 3.62146e-06)
(0.000195355 -6.63099e-06 1.0822e-05)
(0.000126788 -1.04259e-05 1.92981e-05)
(8.3207e-05 -9.0148e-06 1.4132e-05)
(5.86649e-05 -8.73254e-06 1.14016e-05)
)
;
    }
    procBoundary0to4
    {
        type            processor;
        value           nonuniform List<vector> 
36
(
(0.00171612 -8.7334e-05 -7.09237e-05)
(0.00103166 -4.22375e-05 -3.89962e-05)
(0.00062452 -1.12262e-05 -1.99037e-05)
(0.000394885 7.85844e-06 -2.06074e-06)
(0.000251706 1.52706e-05 4.18415e-06)
(0.000175822 1.87945e-05 8.88715e-06)
(0.000115623 1.70871e-05 1.15107e-05)
(9.37156e-05 1.70602e-05 2.02049e-05)
(5.05144e-05 1.50928e-05 2.30338e-05)
(0.00166586 -0.000102115 -6.66451e-05)
(0.000973561 -4.37504e-05 -3.54347e-05)
(0.000571532 -1.09027e-05 -1.74363e-05)
(0.000348855 8.55963e-06 -1.63521e-06)
(0.000214101 1.32279e-05 4.10723e-06)
(0.000143835 1.81497e-05 8.46074e-06)
(9.07092e-05 1.47498e-05 9.88757e-06)
(7.04515e-05 1.70349e-05 1.39357e-05)
(3.63218e-05 1.21154e-05 1.38786e-05)
(0.00162161 -6.95555e-05 -6.34073e-05)
(0.000921523 -3.05089e-05 -3.19511e-05)
(0.000528343 -8.77933e-06 -1.42104e-05)
(0.000310735 3.94141e-06 -6.00064e-07)
(0.000185561 7.48607e-06 4.26219e-06)
(0.000118135 1.2088e-05 5.30299e-06)
(7.26579e-05 9.20802e-06 7.56837e-06)
(4.94004e-05 1.03029e-05 8.46489e-06)
(2.63751e-05 6.18151e-06 7.29011e-06)
(0.00160733 -2.2823e-05 -6.60273e-05)
(0.000903745 -8.03282e-06 -3.2444e-05)
(0.000512502 -3.95451e-06 -1.52301e-05)
(0.000296057 -1.7327e-07 -1.56968e-06)
(0.000173839 7.96832e-07 4.40744e-06)
(0.000105782 3.6046e-06 6.94404e-06)
(6.49923e-05 4.27264e-07 6.84789e-06)
(3.88503e-05 -1.61877e-06 7.74999e-06)
(2.12746e-05 -1.60915e-06 4.44948e-06)
)
;
    }
    procBoundary0to6
    {
        type            processor;
        value           uniform (3.74193e-05 -8.2951e-06 8.8086e-06);
    }
    procBoundary0to7
    {
        type            processor;
        value           uniform (1.53948e-05 1.66773e-06 8.95806e-06);
    }
}


// ************************************************************************* //
