/*--------------------------------*- C++ -*----------------------------------*\
| =========                 |                                                 |
| \\      /  F ield         | OpenFOAM: The Open Source CFD Toolbox           |
|  \\    /   O peration     | Version:  4.x                                   |
|   \\  /    A nd           | Web:      www.OpenFOAM.org                      |
|    \\/     M anipulation  |                                                 |
\*---------------------------------------------------------------------------*/
FoamFile
{
    version     2.0;
    format      ascii;
    class       volScalarField;
    location    "58";
    object      QPartFluidCoeff;
}
// * * * * * * * * * * * * * * * * * * * * * * * * * * * * * * * * * * * * * //

dimensions      [1 -1 -3 -1 0 0 0];

internalField   nonuniform List<scalar> 
132
(
-1.72807e+07
-1.41903e+07
-1.23324e+07
-9.87963e+06
-1.43999e+07
-1.49561e+07
-1.95997e+07
-1.31462e+07
-1.53067e+07
-1.54993e+07
-1.70061e+07
-1.84175e+07
-1.86515e+07
-1.27993e+07
-2.23847e+07
-1.7722e+07
-1.93236e+07
-1.7507e+07
-1.03908e+07
-1.95812e+07
-1.91581e+07
-1.68811e+07
-1.85529e+07
-1.63048e+07
-1.32733e+07
-1.72442e+07
-2.83728e+07
-9.92877e+06
-1.51118e+07
-1.1697e+07
-1.42265e+07
-2.32476e+07
-2.87912e+07
-2.52334e+07
-2.5822e+07
-2.53353e+07
-2.37425e+07
-2.25935e+07
-2.45382e+07
-1.66076e+07
-3.15268e+07
-2.67215e+07
-2.83289e+07
-3.20154e+07
-2.87159e+07
-3.06787e+07
-3.06656e+07
-3.02536e+07
-1.76724e+07
-3.14961e+07
-2.80297e+07
-2.51056e+07
-3.0246e+07
-2.24739e+07
-3.50703e+07
-2.29922e+07
-2.11739e+07
-2.65451e+07
-2.346e+07
-2.59866e+07
-1.837e+07
-3.77239e+07
-1.86203e+07
-2.32349e+07
-2.71285e+07
-2.32291e+07
-2.49732e+07
-1.89085e+07
-2.68684e+07
-2.35623e+07
-1.80729e+07
-2.08253e+07
-2.76044e+07
-2.66276e+07
-2.30766e+07
-3.09313e+07
-2.23981e+07
-3.152e+07
-3.39612e+07
-3.351e+07
-2.23637e+07
-2.4017e+07
-2.69734e+07
-3.09954e+07
-3.27756e+07
-2.69011e+07
-3.0675e+07
-2.14019e+07
-1.79845e+07
-2.30178e+07
-2.8899e+07
-3.19141e+07
-2.99921e+07
-3.32525e+07
-2.68118e+07
-2.92685e+07
-1.45152e+07
-1.66272e+07
-2.25646e+07
-1.72857e+07
-2.36182e+07
-2.59067e+07
-1.96788e+07
-1.44312e+07
-2.01434e+07
-1.71219e+07
-3.19852e+07
-3.03061e+07
-2.6948e+07
-2.3995e+07
-2.20752e+07
-3.47673e+07
-2.39348e+07
-2.31079e+07
-1.72963e+07
-1.86136e+07
-3.01809e+07
-2.03344e+07
-2.89887e+07
-2.80108e+07
-2.74965e+07
-1.64971e+07
-3.11287e+07
-1.60955e+07
-2.24651e+07
-3.28121e+07
-3.41889e+07
-1.84224e+07
-3.29465e+07
-2.86442e+07
-1.87382e+07
-8.75294e+06
)
;

boundaryField
{
    inlet
    {
        type            calculated;
        value           uniform 0;
    }
    outlet
    {
        type            calculated;
        value           nonuniform 0();
    }
    wall
    {
        type            calculated;
        value           uniform 0;
    }
    procBoundary0to1
    {
        type            processor;
        value           nonuniform List<scalar> 
12
(
138.899
342.589
298.336
554.184
688.616
678.577
537.35
496.616
618.525
488.695
593.833
446.141
)
;
    }
    procBoundary0to2
    {
        type            processor;
        value           nonuniform List<scalar> 
44
(
539.46
422.937
230.868
451.643
274.951
347.39
439.665
523.996
539.46
463.665
539.46
422.937
744.484
930.189
500.027
849.124
357.726
599.9
725.04
693.287
744.484
671.187
744.484
930.189
610.407
703.559
518.587
433.264
509.667
517.334
509.987
577.508
610.407
741.144
610.407
703.559
370.24
717.144
778.722
540.97
622.85
474.653
573.679
568.997
)
;
    }
    procBoundary0to4
    {
        type            processor;
        value           nonuniform List<scalar> 
36
(
372.244
537.347
637.019
452.09
541.116
453.148
676.242
519.794
729.926
530.465
551.723
709.734
759.147
764.649
649.809
615.731
437.283
840.243
505.606
777.05
628.649
708.816
614.536
476.998
552.993
778.808
510.172
261.47
509.357
711.303
433.037
667.255
508.35
836.594
456.476
535.92
)
;
    }
    procBoundary0to6
    {
        type            processor;
        value           uniform 613.968;
    }
    procBoundary0to7
    {
        type            processor;
        value           uniform 771.121;
    }
}


// ************************************************************************* //
