/*--------------------------------*- C++ -*----------------------------------*\
| =========                 |                                                 |
| \\      /  F ield         | OpenFOAM: The Open Source CFD Toolbox           |
|  \\    /   O peration     | Version:  4.x                                   |
|   \\  /    A nd           | Web:      www.OpenFOAM.org                      |
|    \\/     M anipulation  |                                                 |
\*---------------------------------------------------------------------------*/
FoamFile
{
    version     2.0;
    format      ascii;
    class       volScalarField;
    location    "12.5";
    object      Deff;
}
// * * * * * * * * * * * * * * * * * * * * * * * * * * * * * * * * * * * * * //

dimensions      [0 2 -1 0 0 0 0];

internalField   nonuniform List<scalar> 
108
(
9.88229e-08
9.8593e-08
9.84283e-08
9.84106e-08
9.83495e-08
9.83146e-08
9.82029e-08
9.81408e-08
9.79589e-08
9.86069e-08
9.85019e-08
9.83401e-08
9.81927e-08
9.8156e-08
9.81577e-08
9.81435e-08
9.81042e-08
9.79152e-08
9.85665e-08
9.83666e-08
9.82766e-08
9.81054e-08
9.80909e-08
9.81005e-08
9.80464e-08
9.79228e-08
9.79935e-08
9.8589e-08
9.84193e-08
9.82306e-08
9.81608e-08
9.80322e-08
9.80213e-08
9.78625e-08
9.80006e-08
9.79993e-08
9.87922e-08
9.86362e-08
9.84157e-08
9.82633e-08
9.82386e-08
9.82627e-08
9.82335e-08
9.80136e-08
9.78777e-08
9.86697e-08
9.84839e-08
9.83623e-08
9.82268e-08
9.81875e-08
9.81462e-08
9.80752e-08
9.79408e-08
9.78542e-08
9.86278e-08
9.83896e-08
9.81948e-08
9.80784e-08
9.80247e-08
9.79956e-08
9.79691e-08
9.79221e-08
9.79027e-08
9.84313e-08
9.83029e-08
9.82054e-08
9.79837e-08
9.78999e-08
9.79252e-08
9.7804e-08
9.78815e-08
9.79212e-08
9.87927e-08
9.85709e-08
9.85513e-08
9.83257e-08
9.82542e-08
9.80699e-08
9.80851e-08
9.8e-08
9.79697e-08
9.8665e-08
9.83676e-08
9.8387e-08
9.82983e-08
9.8195e-08
9.80594e-08
9.80561e-08
9.80139e-08
9.79111e-08
9.85813e-08
9.83179e-08
9.81985e-08
9.81066e-08
9.8104e-08
9.79943e-08
9.79978e-08
9.79334e-08
9.79451e-08
9.83797e-08
9.83031e-08
9.82301e-08
9.80058e-08
9.7941e-08
9.78336e-08
9.80058e-08
9.8022e-08
9.79766e-08
)
;

boundaryField
{
    inlet
    {
        type            calculated;
        value           uniform 0;
    }
    outlet
    {
        type            calculated;
        value           nonuniform 0();
    }
    wall
    {
        type            calculated;
        value           uniform 0;
    }
    procBoundary4to0
    {
        type            processor;
        value           uniform 0;
    }
    procBoundary4to5
    {
        type            processor;
        value           uniform 0;
    }
    procBoundary4to6
    {
        type            processor;
        value           uniform 0;
    }
}


// ************************************************************************* //
