/*--------------------------------*- C++ -*----------------------------------*\
| =========                 |                                                 |
| \\      /  F ield         | OpenFOAM: The Open Source CFD Toolbox           |
|  \\    /   O peration     | Version:  4.x                                   |
|   \\  /    A nd           | Web:      www.OpenFOAM.org                      |
|    \\/     M anipulation  |                                                 |
\*---------------------------------------------------------------------------*/
FoamFile
{
    version     2.0;
    format      ascii;
    class       volScalarField;
    location    "12.5";
    object      magGField;
}
// * * * * * * * * * * * * * * * * * * * * * * * * * * * * * * * * * * * * * //

dimensions      [1 -2 -1 0 0 0 0];

internalField   nonuniform List<scalar> 
108
(
93.993
42.5101
94.693
44.3104
95.5335
45.1729
95.9418
44.1135
96.4518
92.4763
33.954
89.0236
23.697
86.1271
15.1263
84.9052
7.9871
84.5497
91.9006
31.6994
86.6669
19.8099
83.6918
12.0338
82.5302
7.82531
82.0274
91.9713
31.0673
85.3265
17.6663
81.3612
7.73004
79.157
5.27492
78.9063
93.4194
43.7574
95.0612
46.0357
96.4606
48.5038
98.593
49.4544
100.151
92.615
37.93
90.9368
32.8518
89.551
27.505
88.5589
21.4763
88.049
92.0437
35.6559
88.4272
27.8583
86.6834
22.3114
86.8201
18.852
87.7902
91.0113
33.2143
86.6624
22.6988
83.604
14.5003
82.3512
8.04473
81.6947
94.0564
46.9791
98.4319
53.3526
100.574
55.9342
101.978
58.3947
105.197
93.4154
42.9079
94.4989
45.9714
95.8732
48.1224
97.2224
51.161
99.9223
92.2402
40.7955
91.8431
40.854
92.6514
41.875
94.1955
44.4195
96.8245
90.9436
39.5132
90.5562
37.8027
90.3672
38.5097
92.0791
42.5424
93.9293
)
;

boundaryField
{
    inlet
    {
        type            calculated;
        value           uniform 67;
    }
    outlet
    {
        type            calculated;
        value           nonuniform 0();
    }
    wall
    {
        type            calculated;
        value           uniform 0;
    }
    procBoundary4to0
    {
        type            processor;
        value           nonuniform List<scalar> 
36
(
94.4339
43.4669
96.6289
47.0147
98.4974
48.8332
100.536
51.2153
103.441
93.4799
35.9113
91.3905
30.5384
89.8392
25.6549
88.9153
21.0708
89.9124
92.595
34.2987
89.0958
25.0159
86.9497
18.0342
86.8475
14.5088
88.0711
92.4868
32.9025
87.7779
22.0308
85.7446
15.9455
85.3293
14.2731
85.7257
)
;
    }
    procBoundary4to5
    {
        type            processor;
        value           nonuniform List<scalar> 
12
(
42.7425
5.15933
5.05781
2.82189
51.161
15.0928
15.2144
8.71807
62.6578
55.2316
48.5252
45.8945
)
;
    }
    procBoundary4to6
    {
        type            processor;
        value           nonuniform List<scalar> 
27
(
89.6842
29.8467
84.8322
16.3489
81.2215
5.93596
79.9656
0.0383185
79.5327
90.0616
33.6959
86.813
24.7975
85.212
17.9124
84.5382
12.352
84.4882
92.272
41.6838
91.9134
40.1577
91.2917
38.4421
90.9042
36.7401
92.3313
)
;
    }
}


// ************************************************************************* //
