/*--------------------------------*- C++ -*----------------------------------*\
| =========                 |                                                 |
| \\      /  F ield         | OpenFOAM: The Open Source CFD Toolbox           |
|  \\    /   O peration     | Version:  4.x                                   |
|   \\  /    A nd           | Web:      www.OpenFOAM.org                      |
|    \\/     M anipulation  |                                                 |
\*---------------------------------------------------------------------------*/
FoamFile
{
    version     2.0;
    format      ascii;
    class       volScalarField;
    location    "12.5";
    object      QWallFluidCoeff;
}
// * * * * * * * * * * * * * * * * * * * * * * * * * * * * * * * * * * * * * //

dimensions      [1 -1 -3 -1 0 0 0];

internalField   nonuniform List<scalar> 
108
(
-2.70504e+06
-1.43381e+06
-2.72115e+06
-1.48218e+06
-2.74045e+06
-1.50522e+06
-2.74982e+06
-1.47691e+06
-2.7615e+06
0
0
0
0
0
0
0
0
0
0
0
0
0
0
0
0
0
0
0
0
0
0
0
0
0
0
0
-2.69183e+06
-1.46737e+06
-2.72961e+06
-1.52818e+06
-2.7617e+06
-1.59337e+06
-2.81044e+06
-1.61831e+06
-2.84592e+06
0
0
0
0
0
0
0
0
0
0
0
0
0
0
0
0
0
0
0
0
0
0
0
0
0
0
0
-5.413e+06
-3.10636e+06
-5.61353e+06
-3.43916e+06
-5.71105e+06
-3.57165e+06
-5.77474e+06
-3.6968e+06
-5.92013e+06
-2.69173e+06
-1.44453e+06
-2.71668e+06
-1.52647e+06
-2.74824e+06
-1.58334e+06
-2.77914e+06
-1.66283e+06
-2.84071e+06
-2.66461e+06
-1.38735e+06
-2.65543e+06
-1.38894e+06
-2.67411e+06
-1.41664e+06
-2.7097e+06
-1.4851e+06
-2.77004e+06
-2.6346e+06
-1.35236e+06
-2.62562e+06
-1.30532e+06
-2.62124e+06
-1.32481e+06
-2.66089e+06
-1.43468e+06
-2.70357e+06
)
;

boundaryField
{
    inlet
    {
        type            calculated;
        value           uniform 0;
    }
    outlet
    {
        type            calculated;
        value           nonuniform 0();
    }
    wall
    {
        type            calculated;
        value           uniform 0;
    }
    procBoundary4to0
    {
        type            processor;
        value           uniform 0;
    }
    procBoundary4to5
    {
        type            processor;
        value           uniform 0;
    }
    procBoundary4to6
    {
        type            processor;
        value           uniform 0;
    }
}


// ************************************************************************* //
