/*--------------------------------*- C++ -*----------------------------------*\
| =========                 |                                                 |
| \\      /  F ield         | OpenFOAM: The Open Source CFD Toolbox           |
|  \\    /   O peration     | Version:  4.x                                   |
|   \\  /    A nd           | Web:      www.OpenFOAM.org                      |
|    \\/     M anipulation  |                                                 |
\*---------------------------------------------------------------------------*/
FoamFile
{
    version     2.0;
    format      ascii;
    class       volScalarField;
    location    "46.5";
    object      KslPrev;
}
// * * * * * * * * * * * * * * * * * * * * * * * * * * * * * * * * * * * * * //

dimensions      [1 -3 -1 0 0 0 0];

internalField   nonuniform List<scalar> 
108
(
3384.72
7940.85
3390.35
7587.55
3372.33
7291.59
3309.23
7138.34
3186
3477.03
9885.65
3654.77
12645.2
3706.25
15369.6
3684.36
19289.9
3611.81
3513.86
11146.6
3767.04
17118.4
3823.15
27285.4
3795.68
72764.5
3740.29
3491.38
11192.4
3785.15
18615.3
3872.78
43566.2
3900.39
792053
3864.18
3365.03
7853.37
3356.04
7552.93
3362.86
7291.13
3302.46
7387.14
3262.06
3447.62
9004.93
3542.11
9960.6
3579.69
11050.5
3570.81
12979.6
3542.14
3462.7
10203.4
3680.99
13957
3758.22
19815.5
3732.58
32345.6
3689.46
3496.64
10531.3
3709.15
15082.2
3785.41
22616.3
3762.8
35556.6
3670.2
3320.62
6958.87
3168.92
5962.01
3104.29
5536.6
3030.59
5219.68
2902.92
3373.16
7719.34
3355.94
7084.36
3290.69
6676.25
3199.51
6369.45
3083.99
3425.01
8266.73
3452.82
8118.4
3421.77
7815.42
3319
7407.46
3206.28
3466.52
8484.03
3495.8
8621.03
3460.75
8255.08
3330.53
7598.01
3208.41
)
;

boundaryField
{
    inlet
    {
        type            zeroGradient;
    }
    outlet
    {
        type            zeroGradient;
    }
    wall
    {
        type            zeroGradient;
    }
    procBoundary4to0
    {
        type            processor;
        value           uniform 0;
    }
    procBoundary4to5
    {
        type            processor;
        value           uniform 0;
    }
    procBoundary4to6
    {
        type            processor;
        value           uniform 0;
    }
}


// ************************************************************************* //
