/*--------------------------------*- C++ -*----------------------------------*\
| =========                 |                                                 |
| \\      /  F ield         | OpenFOAM: The Open Source CFD Toolbox           |
|  \\    /   O peration     | Version:  4.x                                   |
|   \\  /    A nd           | Web:      www.OpenFOAM.org                      |
|    \\/     M anipulation  |                                                 |
\*---------------------------------------------------------------------------*/
FoamFile
{
    version     2.0;
    format      ascii;
    class       volScalarField;
    location    "46.5";
    object      particleRelTemp;
}
// * * * * * * * * * * * * * * * * * * * * * * * * * * * * * * * * * * * * * //

dimensions      [0 0 0 0 0 0 0];

internalField   nonuniform List<scalar> 
108
(
-9.82254e-12
-9.51795e-12
-9.02913e-12
-8.41194e-12
-7.81989e-12
-7.06101e-12
-5.81037e-12
-4.53888e-12
-3.34408e-12
-9.77707e-12
-9.40771e-12
-8.79296e-12
-8.11598e-12
-7.21886e-12
-6.24305e-12
-5.0578e-12
-3.7048e-12
-2.28014e-12
-9.75399e-12
-9.27306e-12
-8.51784e-12
-7.80746e-12
-6.77241e-12
-5.67912e-12
-4.21824e-12
-2.79223e-12
-1.21784e-12
-9.75265e-12
-9.28489e-12
-8.53767e-12
-7.75816e-12
-6.51977e-12
-5.33802e-12
-3.74531e-12
-2.27075e-12
-6.98753e-13
-9.81084e-12
-9.5486e-12
-9.1176e-12
-8.60361e-12
-8.1057e-12
-7.47735e-12
-6.61396e-12
-5.14846e-12
-4.07614e-12
-9.76322e-12
-9.43159e-12
-8.97789e-12
-8.31177e-12
-7.53832e-12
-6.72108e-12
-5.57495e-12
-4.66108e-12
-3.07594e-12
-9.84242e-12
-9.36384e-12
-8.78892e-12
-8.14566e-12
-7.15949e-12
-5.96405e-12
-4.79582e-12
-3.53768e-12
-2.17256e-12
-9.76427e-12
-9.37344e-12
-8.68087e-12
-8.05315e-12
-6.97843e-12
-5.78363e-12
-4.63644e-12
-3.13334e-12
-1.6184e-12
-9.91151e-12
-9.60645e-12
-9.28283e-12
-8.82307e-12
-8.42681e-12
-7.77041e-12
-6.945e-12
-5.97424e-12
-5.14694e-12
-9.84734e-12
-9.54199e-12
-9.01503e-12
-8.65679e-12
-7.99492e-12
-7.16278e-12
-6.32705e-12
-5.29061e-12
-4.15483e-12
-9.82578e-12
-9.42001e-12
-8.89364e-12
-8.33885e-12
-7.67672e-12
-6.46348e-12
-5.64935e-12
-4.51055e-12
-3.21801e-12
-9.77715e-12
-9.43154e-12
-8.92753e-12
-8.18735e-12
-7.43929e-12
-6.49156e-12
-5.34181e-12
-4.04856e-12
-2.96853e-12
)
;

boundaryField
{
    inlet
    {
        type            calculated;
        value           nonuniform List<scalar> 
12
(
-9.82254e-12
-9.77707e-12
-9.75399e-12
-9.75265e-12
-9.81084e-12
-9.76322e-12
-9.84242e-12
-9.76427e-12
-9.91151e-12
-9.84734e-12
-9.82578e-12
-9.77715e-12
)
;
    }
    outlet
    {
        type            calculated;
        value           nonuniform 0();
    }
    wall
    {
        type            calculated;
        value           nonuniform List<scalar> 
63
(
-9.91151e-12
-9.84734e-12
-9.82578e-12
-9.77715e-12
-9.60645e-12
-9.54199e-12
-9.42001e-12
-9.43154e-12
-9.28283e-12
-9.01503e-12
-8.89364e-12
-8.92753e-12
-8.82307e-12
-8.65679e-12
-8.33885e-12
-8.18735e-12
-8.42681e-12
-7.99492e-12
-7.67672e-12
-7.43929e-12
-7.77041e-12
-7.16278e-12
-6.46348e-12
-6.49156e-12
-6.945e-12
-6.32705e-12
-5.64935e-12
-5.34181e-12
-5.97424e-12
-5.29061e-12
-4.51055e-12
-4.04856e-12
-5.14694e-12
-4.15483e-12
-3.21801e-12
-2.96853e-12
-9.82254e-12
-9.81084e-12
-9.91151e-12
-9.51795e-12
-9.5486e-12
-9.60645e-12
-9.02913e-12
-9.1176e-12
-9.28283e-12
-8.41194e-12
-8.60361e-12
-8.82307e-12
-7.81989e-12
-8.1057e-12
-8.42681e-12
-7.06101e-12
-7.47735e-12
-7.77041e-12
-5.81037e-12
-6.61396e-12
-6.945e-12
-4.53888e-12
-5.14846e-12
-5.97424e-12
-3.34408e-12
-4.07614e-12
-5.14694e-12
)
;
    }
    procBoundary4to0
    {
        type            processor;
        value           nonuniform List<scalar> 
36
(
-9.86419e-12
-9.3971e-12
-8.96875e-12
-8.30735e-12
-7.54653e-12
-6.59906e-12
-5.86641e-12
-4.4257e-12
-3.47696e-12
-9.79399e-12
-9.36586e-12
-8.80235e-12
-7.97555e-12
-7.04993e-12
-5.91803e-12
-4.64465e-12
-3.52977e-12
-2.04994e-12
-9.60544e-12
-9.19007e-12
-8.65001e-12
-7.57466e-12
-6.685e-12
-5.13435e-12
-3.83226e-12
-2.39854e-12
-1.177e-12
-9.7206e-12
-9.26038e-12
-8.54778e-12
-7.56881e-12
-6.65392e-12
-5.24126e-12
-3.37423e-12
-2.28544e-12
-6.80605e-13
)
;
    }
    procBoundary4to5
    {
        type            processor;
        value           nonuniform List<scalar> 
12
(
-1.85941e-12
-8.60778e-13
7.49533e-13
1.17531e-12
-2.66756e-12
-1.34475e-12
-1.99162e-14
-4.13525e-13
-3.85129e-12
-2.74284e-12
-1.7533e-12
-1.47843e-12
)
;
    }
    procBoundary4to6
    {
        type            processor;
        value           nonuniform List<scalar> 
27
(
-9.7001e-12
-9.22409e-12
-8.51898e-12
-7.60304e-12
-6.55901e-12
-5.45272e-12
-4.44204e-12
-2.98575e-12
-9.37369e-13
-9.77042e-12
-9.2952e-12
-8.77149e-12
-7.9964e-12
-7.13515e-12
-6.10465e-12
-4.99523e-12
-3.68598e-12
-2.10725e-12
-9.81113e-12
-9.48578e-12
-8.97915e-12
-8.32095e-12
-7.6379e-12
-6.53548e-12
-5.56434e-12
-4.51379e-12
-3.85617e-12
)
;
    }
}


// ************************************************************************* //
