/*--------------------------------*- C++ -*----------------------------------*\
| =========                 |                                                 |
| \\      /  F ield         | OpenFOAM: The Open Source CFD Toolbox           |
|  \\    /   O peration     | Version:  4.x                                   |
|   \\  /    A nd           | Web:      www.OpenFOAM.org                      |
|    \\/     M anipulation  |                                                 |
\*---------------------------------------------------------------------------*/
FoamFile
{
    version     2.0;
    format      ascii;
    class       volVectorField;
    location    "46.5";
    object      U;
}
// * * * * * * * * * * * * * * * * * * * * * * * * * * * * * * * * * * * * * //

dimensions      [0 1 -1 0 0 0 0];

internalField   nonuniform List<vector> 
108
(
(0.029905 -0.000915319 -0.000565514)
(0.0128921 -0.000425972 -0.000367813)
(0.0309658 -0.000981565 -0.000548864)
(0.0138808 -0.00040071 -0.000418533)
(0.0316722 -0.000738077 -0.000272609)
(0.0145412 -0.000232264 -0.000304153)
(0.0324365 -0.000525487 -0.000221877)
(0.0148246 -0.000231406 -0.000298455)
(0.0334554 -0.000518947 0.000198643)
(0.0296928 -0.00166963 -0.00047235)
(0.0105846 -0.000790496 -0.000250584)
(0.0294353 -0.00173965 -0.000353879)
(0.00850697 -0.0005997 -0.0002492)
(0.0293106 -0.00129405 -0.000125092)
(0.00698417 -0.000427513 -0.000148555)
(0.0294068 -0.00097511 1.44519e-05)
(0.00550952 -0.000405088 -0.000131709)
(0.0299037 -0.000604588 0.000286736)
(0.0296829 -0.00093714 -0.000417517)
(0.00953007 -0.000521089 -0.000193807)
(0.0287554 -0.00106832 -0.000173445)
(0.00629925 -0.00036599 -5.60689e-05)
(0.0284041 -0.000933858 8.48473e-05)
(0.00391616 -0.000269923 5.50603e-05)
(0.0283861 -0.000535854 -0.000139203)
(0.00145718 -0.000112574 6.38482e-05)
(0.028496 0.000153351 -0.000176624)
(0.0297199 -0.000598951 -0.000667448)
(0.00947072 -0.000157976 -0.000256028)
(0.0286221 -0.000556976 -0.000457364)
(0.00576458 -0.000225177 -0.000235782)
(0.0280163 -0.000474436 -0.000318009)
(0.00245376 -0.00013277 -7.06973e-05)
(0.0277356 7.40303e-05 -0.000225069)
(0.000132823 -1.15168e-05 -3.16563e-06)
(0.0274151 3.65531e-05 6.28618e-05)
(0.0299109 -0.000722651 0.000183094)
(0.0129551 -0.000310289 6.50261e-05)
(0.0310191 -0.000626059 0.000203931)
(0.0138967 -0.000235708 -0.000177911)
(0.0316769 -0.000498982 -2.90633e-05)
(0.0144254 -0.000199866 -0.000264488)
(0.032153 -0.000351135 1.48294e-05)
(0.0143134 -2.86973e-05 -0.000266448)
(0.0326961 -0.00014023 0.000148732)
(0.029808 -0.00144893 0.000394556)
(0.0115327 -0.000772121 0.000144339)
(0.0300072 -0.00154706 0.000591663)
(0.0106804 -0.00055287 3.72487e-05)
(0.0300793 -0.00121172 0.000356226)
(0.00963962 -0.000379888 -8.06652e-05)
(0.0301197 -0.000748939 0.000330797)
(0.0082274 -0.00021171 -8.28578e-05)
(0.0304455 -0.000474503 0.000398299)
(0.0297867 -0.000963407 0.000536914)
(0.010288 -0.00041836 0.000216269)
(0.0292702 -0.000908349 0.000687119)
(0.00768101 -0.000285644 0.000155868)
(0.028859 -0.000535087 0.000519299)
(0.00539707 -0.000109887 8.34082e-05)
(0.0287612 -9.04033e-05 0.000494814)
(0.00327318 -1.03916e-05 7.20582e-05)
(0.028917 6.01725e-05 0.000307113)
(0.0297101 -0.000305014 0.000395442)
(0.010023 2.52512e-05 0.000324434)
(0.0289537 -4.64778e-05 0.000779101)
(0.00711754 -7.99828e-06 0.000211593)
(0.0286696 -3.42676e-05 0.000821949)
(0.00472595 -7.9237e-05 0.000219905)
(0.028677 -5.41095e-05 0.000749176)
(0.00296316 -6.58381e-05 0.000144527)
(0.0288215 -5.4932e-05 0.000149767)
(0.0300274 -0.000696414 0.000464911)
(0.0144021 -0.000363793 0.00034143)
(0.0320378 -0.00060079 0.000706208)
(0.0171819 -0.000208776 0.000262666)
(0.0336333 -0.000363182 0.000554165)
(0.0188557 -9.20685e-05 0.000182845)
(0.0347748 -0.000236577 0.000725046)
(0.0200275 -0.000104995 0.000505653)
(0.0361672 -0.000309101 0.000984021)
(0.0299828 -0.00134236 0.000489064)
(0.0132564 -0.000765514 0.000293415)
(0.03105 -0.00134116 0.000732916)
(0.0146942 -0.00054011 0.000296208)
(0.0321427 -0.000887167 0.000690813)
(0.0157761 -0.000406003 0.00029211)
(0.0330492 -0.000659712 0.000844901)
(0.0164742 -0.000456124 0.000388153)
(0.0341767 -0.000650003 0.000793836)
(0.0297973 -0.000935256 0.000576352)
(0.0124645 -0.000426573 0.000397909)
(0.0304608 -0.000925148 0.00093551)
(0.0129217 -0.000394432 0.000383426)
(0.0310571 -0.000552584 0.000934556)
(0.013489 -0.000172745 0.000304191)
(0.0318277 -0.000201796 0.000900093)
(0.0141349 -0.000197425 0.000351761)
(0.0326518 -0.000238937 0.000852507)
(0.0297065 -0.000162388 0.000502164)
(0.0121806 -7.17532e-05 0.000337528)
(0.030124 -0.000255278 0.000740506)
(0.0122321 -0.000178859 0.000316891)
(0.0308531 -0.000280803 0.000729311)
(0.0128023 -0.000269199 0.000336247)
(0.0315655 -0.000337325 0.000793455)
(0.0136908 -0.000296133 0.000195952)
(0.0324955 -0.000395447 0.000501057)
)
;

boundaryField
{
    inlet
    {
        type            fixedValue;
        value           uniform (0.01 0 0);
    }
    outlet
    {
        type            zeroGradient;
    }
    wall
    {
        type            fixedValue;
        value           uniform (0 0 0);
    }
    procBoundary4to0
    {
        type            processor;
        value           nonuniform List<vector> 
36
(
(0.0299273 -0.000816824 -0.00131609)
(0.0125261 -0.000368682 -0.000848629)
(0.0310152 -0.00079964 -0.00139246)
(0.0136651 -0.000268533 -0.000826851)
(0.0317105 -0.000580786 -0.00110023)
(0.0141283 -0.000212258 -0.000771933)
(0.0320539 -0.000514153 -0.000867625)
(0.0137501 -2.00304e-05 -0.000794315)
(0.032144 -0.000120948 -0.000595282)
(0.0298292 -0.00159379 -0.00152014)
(0.0102835 -0.000785976 -0.000799774)
(0.0296618 -0.00183558 -0.00156018)
(0.00842682 -0.000628119 -0.000601366)
(0.0293015 -0.00143886 -0.00106263)
(0.00643605 -0.000484339 -0.00041976)
(0.0291181 -0.000721786 -0.000754386)
(0.00402042 -0.000367289 -0.0003421)
(0.0289262 1.40221e-05 -0.000707844)
(0.0296469 -0.000770767 -0.00151759)
(0.00900988 -0.000345629 -0.00073756)
(0.0287175 -0.000781947 -0.00133241)
(0.00494123 -0.000134829 -0.00035488)
(0.0277829 -0.000285033 -0.000776052)
(0.0013982 -1.89379e-05 -0.000104387)
(0.0270259 0.000214156 -0.000555043)
(1.11286e-08 2.91251e-10 3.37366e-10)
(0.0261925 0.000338643 -0.000123794)
(0.0297206 -0.000149192 -0.00144323)
(0.00947282 3.25567e-05 -0.00082632)
(0.0290498 0.000162305 -0.00151088)
(0.0061566 0.000129176 -0.000551897)
(0.0286294 0.000281581 -0.00121456)
(0.00391885 0.000130982 -0.000418002)
(0.0286842 -6.0272e-05 -0.000864616)
(0.0025131 0.000143027 -0.000343849)
(0.0283101 -8.01349e-05 -0.000214416)
)
;
    }
    procBoundary4to5
    {
        type            processor;
        value           nonuniform List<vector> 
12
(
(0.0146853 -0.000308579 0.000222409)
(0.00325327 -0.000386977 5.97379e-05)
(1.56143e-06 -2.36408e-07 1.94979e-07)
(1.25403e-08 -1.50068e-09 8.42491e-10)
(0.0135969 9.61419e-05 -0.000320608)
(0.00696503 -0.000303807 -7.75547e-05)
(0.00130481 -5.36831e-05 4.75286e-05)
(0.0019372 -7.53507e-05 0.000171339)
(0.0212428 -0.000143508 0.000713967)
(0.0170068 -0.000770186 0.000375185)
(0.014456 -0.000529339 0.000404994)
(0.0139002 -0.000610956 0.000239453)
)
;
    }
    procBoundary4to6
    {
        type            processor;
        value           nonuniform List<vector> 
27
(
(0.0294682 0.000319852 -0.000566645)
(0.00845535 0.000201212 -0.000178489)
(0.0278598 0.000354005 -0.000379506)
(0.00387421 7.43049e-05 -0.000124302)
(0.0271823 0.000136319 -0.000204947)
(0.000678766 1.3933e-05 -2.58531e-05)
(0.0266889 -0.00019131 -8.9846e-05)
(1.17614e-08 -1.76123e-10 -4.22182e-11)
(0.0265496 -0.000470433 -0.00010646)
(0.0296416 0.000724473 0.000952111)
(0.0099284 0.000301676 0.000308152)
(0.0289523 0.000813898 0.000991087)
(0.00712513 0.000209017 0.000307856)
(0.0285784 0.000564427 0.00075915)
(0.00464994 4.14624e-05 0.000209551)
(0.0283815 0.00025543 0.00018862)
(0.0024203 -2.65932e-05 0.000198985)
(0.0283004 9.86505e-05 2.10524e-05)
(0.0298523 0.000692922 0.000725445)
(0.0127335 0.000231683 0.000307463)
(0.0304069 0.000530665 0.000733726)
(0.0130272 0.000135642 0.000213898)
(0.0309094 0.000208757 0.000687583)
(0.0130922 -7.68127e-05 0.000205034)
(0.0312487 -0.000174778 0.000652208)
(0.0125523 -0.000247103 0.00027954)
(0.0314348 -0.000251931 0.000588617)
)
;
    }
}


// ************************************************************************* //
