/*--------------------------------*- C++ -*----------------------------------*\
| =========                 |                                                 |
| \\      /  F ield         | OpenFOAM: The Open Source CFD Toolbox           |
|  \\    /   O peration     | Version:  4.x                                   |
|   \\  /    A nd           | Web:      www.OpenFOAM.org                      |
|    \\/     M anipulation  |                                                 |
\*---------------------------------------------------------------------------*/
FoamFile
{
    version     2.0;
    format      ascii;
    class       volVectorField;
    location    "46.5";
    object      UsPrev;
}
// * * * * * * * * * * * * * * * * * * * * * * * * * * * * * * * * * * * * * //

dimensions      [0 1 -1 0 0 0 0];

internalField   nonuniform List<vector> 
108
(
(-1.0038e-11 7.40048e-12 -7.93157e-11)
(5.15256e-12 2.21012e-11 -4.53559e-11)
(6.3666e-11 1.56994e-11 2.21313e-11)
(1.14526e-10 5.80091e-11 1.51068e-10)
(1.68667e-10 9.9121e-11 2.37742e-10)
(1.7617e-10 1.01899e-10 3.10797e-10)
(2.27653e-10 5.393e-11 4.60102e-10)
(1.88935e-10 1.29998e-10 6.41406e-10)
(1.58364e-11 -4.29712e-11 9.47768e-10)
(3.38353e-12 -4.84265e-11 -4.25678e-11)
(1.19919e-10 -7.84234e-11 -6.55261e-11)
(1.31244e-10 -3.1248e-11 6.90841e-11)
(2.59741e-10 1.84999e-11 2.41507e-10)
(4.1998e-10 1.25271e-10 3.88287e-10)
(5.69822e-10 1.63882e-10 5.05527e-10)
(5.20939e-10 1.42243e-10 6.73413e-10)
(4.02649e-10 2.68084e-10 9.17012e-10)
(6.84166e-10 1.16038e-10 1.2449e-09)
(4.49733e-11 -6.12779e-11 1.36286e-11)
(1.96114e-10 -5.15818e-11 6.23293e-11)
(3.98589e-10 -2.0336e-11 1.52816e-10)
(6.97791e-10 -4.22597e-11 2.86277e-10)
(9.78329e-10 1.60502e-10 4.35742e-10)
(1.29573e-09 1.53691e-10 4.94386e-10)
(1.41234e-09 1.85281e-10 5.69564e-10)
(1.18904e-09 3.70661e-10 8.85192e-10)
(2.17709e-09 -5.57339e-11 8.70642e-10)
(5.56594e-11 -8.12491e-11 5.92604e-11)
(2.43127e-10 -2.18765e-10 6.79579e-11)
(5.13414e-10 -2.72944e-10 3.90136e-11)
(8.76895e-10 -2.31172e-10 1.67939e-10)
(1.37079e-09 -4.50844e-11 3.63432e-10)
(1.82432e-09 1.07558e-11 4.77843e-10)
(2.22132e-09 1.23211e-10 4.67088e-10)
(2.5351e-09 7.92322e-11 3.93711e-10)
(2.73577e-09 9.55022e-11 6.09033e-10)
(1.15017e-11 1.8187e-11 -3.42922e-11)
(3.66361e-11 1.54136e-12 -2.00814e-11)
(7.69631e-11 1.39499e-11 3.57835e-11)
(1.58064e-10 1.91204e-11 5.27015e-11)
(1.96603e-10 3.5138e-11 1.405e-10)
(1.91827e-10 3.03751e-11 1.22746e-10)
(2.27724e-10 -2.25537e-11 2.39324e-10)
(2.80851e-10 7.00426e-11 3.94017e-10)
(4.42188e-10 -6.68023e-11 3.63331e-10)
(3.28468e-12 -3.21026e-11 -2.39341e-11)
(8.67041e-11 -4.44455e-11 -2.08666e-11)
(1.19864e-10 -4.01451e-11 3.55434e-11)
(2.90535e-10 -3.99245e-11 1.42381e-10)
(3.96539e-10 2.03802e-11 2.36825e-10)
(4.40412e-10 4.97156e-11 2.76119e-10)
(5.66712e-10 8.93446e-11 4.17411e-10)
(5.8899e-10 -6.29996e-12 4.86512e-10)
(8.27569e-10 -1.74563e-10 6.4407e-10)
(1.90653e-11 -2.55628e-11 2.45866e-11)
(1.33145e-10 -5.50058e-11 1.75893e-11)
(2.40644e-10 2.7391e-13 8.71338e-11)
(4.13058e-10 -2.1561e-11 1.76002e-10)
(6.46271e-10 9.8594e-12 2.10912e-10)
(8.73829e-10 9.30525e-11 2.82978e-10)
(9.69083e-10 1.89891e-10 3.60513e-10)
(1.28262e-09 3.03827e-10 3.06618e-10)
(1.18057e-09 2.82891e-10 6.84834e-10)
(3.68814e-11 -9.01156e-11 6.90724e-12)
(1.44785e-10 -1.7512e-10 9.86045e-12)
(3.65221e-10 -1.94229e-10 -8.9637e-12)
(5.17207e-10 -1.70782e-10 6.61438e-11)
(7.91653e-10 -1.29497e-10 1.41429e-10)
(1.3513e-09 -2.76715e-11 1.40918e-10)
(1.58523e-09 2.13935e-10 2.58565e-10)
(1.88324e-09 8.35646e-11 2.61085e-10)
(2.13414e-09 -4.67344e-11 6.16084e-10)
(8.43156e-12 1.57492e-11 -1.96837e-11)
(3.05102e-11 1.44603e-11 -6.57946e-12)
(5.88172e-11 1.44292e-11 -7.1355e-12)
(1.27212e-10 3.51824e-12 1.37893e-11)
(6.75362e-11 1.04542e-11 3.43392e-11)
(1.01193e-10 -7.12036e-12 3.53245e-11)
(1.08666e-10 -5.48858e-11 1.20032e-10)
(1.44468e-10 -1.29409e-11 1.89607e-10)
(2.11438e-10 -3.47982e-11 9.0048e-11)
(2.24285e-11 -2.9871e-11 -3.55774e-11)
(5.69915e-11 -2.5405e-11 -1.50027e-11)
(7.63016e-11 -3.2778e-11 9.93369e-12)
(1.8189e-10 4.76628e-12 2.48457e-11)
(2.55156e-10 -1.44062e-12 8.34806e-11)
(2.03465e-10 -1.08299e-10 1.0137e-10)
(2.47868e-10 -9.04741e-11 8.41213e-11)
(3.39311e-10 -8.09211e-11 2.22681e-10)
(3.77913e-10 -1.13159e-10 2.25243e-10)
(7.94349e-12 -2.0059e-11 3.08373e-12)
(9.79228e-11 -1.45884e-11 -1.53786e-11)
(1.10188e-10 -1.80716e-11 2.122e-11)
(2.05117e-10 -3.36027e-12 2.54076e-11)
(3.66692e-10 -4.23318e-12 9.21315e-11)
(4.84506e-10 -6.07928e-11 8.74235e-11)
(5.30635e-10 7.54443e-11 8.03998e-11)
(6.00523e-10 1.4788e-10 1.62702e-10)
(5.57127e-10 5.12559e-11 2.40555e-10)
(3.8497e-11 -8.55367e-11 -2.66768e-11)
(8.55182e-11 -1.22745e-10 -3.45251e-11)
(2.269e-10 -4.23176e-11 -1.0669e-11)
(2.54917e-10 -1.06169e-10 2.97294e-11)
(4.02309e-10 -1.63239e-10 -1.05603e-11)
(5.44281e-10 -1.80145e-10 -1.49115e-11)
(6.08198e-10 -9.44658e-12 3.04376e-11)
(3.39056e-09 -1.37251e-09 5.40761e-11)
(1.31795e-09 2.6575e-11 1.75206e-10)
)
;

boundaryField
{
    inlet
    {
        type            calculated;
        value           uniform (0 0 0);
    }
    outlet
    {
        type            calculated;
        value           nonuniform 0();
    }
    wall
    {
        type            calculated;
        value           uniform (0 0 0);
    }
    procBoundary4to0
    {
        type            processor;
        value           uniform (0 0 0);
    }
    procBoundary4to5
    {
        type            processor;
        value           uniform (0 0 0);
    }
    procBoundary4to6
    {
        type            processor;
        value           uniform (0 0 0);
    }
}


// ************************************************************************* //
