/*--------------------------------*- C++ -*----------------------------------*\
  =========                 |
  \\      /  F ield         | OpenFOAM: The Open Source CFD Toolbox
   \\    /   O peration     | Website:  https://openfoam.org
    \\  /    A nd           | Version:  4.x
     \\/     M anipulation  |
\*---------------------------------------------------------------------------*/
FoamFile
{
    version     2.0;
    format      ascii;
    class       Cloud<passiveParticle>;
    location    0;
    object      positions;
}
// * * * * * * * * * * * * * * * * * * * * * * * * * * * * * * * * * * * * * //

258
(
( 0.0238622 0.0373641 0.0153883 ) 6
( 0.24835 0.0516093 -0.00685325 ) 2
( 0.027431 0.0279941 0.0324863 ) 6
( 0.0326149 0.0721905 0.0175569 ) 25
( 0.242096 0.0712194 0.000342807 ) 2
( 0.196831 0.0712788 0.00281757 ) 1
( 0.225475 0.0399162 -0.0103959 ) 0
( 0.105941 0.0456266 0.0369988 ) 18
( 0.167536 0.019562 0.0187525 ) 12
( 0.131306 0.0344906 0.0151919 ) 10
( 0.0682859 0.0675185 0.0308734 ) 17
( 0.219026 0.0674846 0.00877204 ) 1
( 0.0543094 0.0347427 0.0266358 ) 7
( 0.139653 0.0400191 0.0351775 ) 11
( 0.0875736 0.0459142 0.0297708 ) 18
( 0.111051 0.0900186 0.0147579 ) 27
( 0.0346825 0.0152653 0.0196078 ) 7
( 0.0645633 0.0900805 0.0200293 ) 26
( 0.179002 0.0835078 0.0156276 ) 30
( 0.163791 0.0745239 0.0244752 ) 29
( 0.0484408 0.0728133 0.0304842 ) 25
( 0.240304 0.0901647 0.0189169 ) 32
( 0.229704 0.0220729 -0.00342674 ) 0
( 0.108649 0.061983 0.022493 ) 18
( 0.0963101 0.0291523 0.0242401 ) 9
( 0.189655 0.0509899 0.0147658 ) 21
( 0.132489 0.014879 0.0178142 ) 10
( 0.214538 0.0717166 -0.00990026 ) 4
( 0.139601 0.0520574 0.0197306 ) 20
( 0.0153737 0.0178819 0.0171819 ) 6
( 0.117345 0.0783722 0.0295065 ) 28
( 0.131598 0.0203076 0.0365542 ) 10
( 0.203316 0.0368701 0.0171682 ) 13
( 0.213628 0.0533923 0.0213352 ) 22
( 0.00975769 0.0744938 0.0216392 ) 24
( 0.205976 0.0518287 0.00320501 ) 1
( 0.0985446 0.0899637 0.0300019 ) 27
( 0.110393 0.0153305 0.0251192 ) 9
( 0.200773 0.026959 0.033995 ) 13
( 0.239157 0.0358934 0.0164236 ) 14
( 0.145841 0.0730788 0.016704 ) 29
( 0.0913939 0.0633206 0.0383087 ) 18
( 0.190979 0.0902209 0.00135879 ) 3
( 0.159435 0.0557215 0.0209071 ) 20
( 0.0195853 0.0901915 0.0281086 ) 24
( 0.215965 0.0868498 0.0210923 ) 31
( 0.231424 0.0529312 0.00299409 ) 2
( 0.224064 0.0278298 0.0261773 ) 14
( 0.130306 0.0900929 0.0197332 ) 28
( 0.173168 0.0901642 -0.00754776 ) 3
( 0.00980411 0.019378 0.0360183 ) 6
( 0.231177 0.0491404 0.0302111 ) 23
( 0.196552 0.0901814 0.0218505 ) 31
( 0.037251 0.0513408 0.0195777 ) 16
( 0.0682241 0.0502419 0.0210055 ) 17
( 0.0796773 0.0838148 0.0312278 ) 26
( 0.240155 0.0165967 0.0122684 ) 0
( 0.195045 0.0703258 0.0223685 ) 22
( 0.149167 0.0902446 0.0258424 ) 29
( 0.150593 0.0257952 0.0271322 ) 11
( 0.208119 0.0902264 -0.00849991 ) 4
( 0.242994 0.0903803 -0.00375578 ) 5
( 0.0919361 0.0724179 0.0206791 ) 27
( 0.0387323 0.0897011 0.0242726 ) 25
( 0.0186071 0.0568416 0.0224633 ) 15
( 0.227541 0.0748764 0.0316563 ) 32
( 0.00988362 0.038069 0.0291726 ) 6
( 0.224523 0.0900817 0.00349408 ) 5
( 0.236066 0.0641038 0.0181812 ) 23
( 0.127121 0.0670091 0.0174859 ) 19
( 0.197641 0.0504825 0.0326749 ) 22
( 0.184994 0.0289289 0.017261 ) 12
( 0.0761843 0.0319889 0.021381 ) 8
( 0.247833 0.0753716 0.0296543 ) 32
( 0.05153 0.0534986 0.0329352 ) 16
( 0.166622 0.0381066 0.0255421 ) 11
( 0.0535971 0.0151905 0.0535802 ) 34
( 0.0882567 0.0319278 0.0573459 ) 36
( 0.167083 0.0675899 0.0422972 ) 21
( 0.11308 0.0418127 0.0190543 ) 10
( 0.0489472 0.0320143 0.0627305 ) 34
( 0.208073 0.0547591 0.0520719 ) 49
( 0.0289356 0.0595429 0.0546016 ) 43
( 0.12454 0.0558418 0.0552312 ) 46
( 0.181364 0.0274529 0.0571531 ) 39
( 0.175533 0.0900126 0.0532052 ) 57
( 0.031406 0.0403538 0.0591736 ) 34
( 0.0713023 0.059645 0.0589259 ) 44
( 0.10471 0.0219705 0.0623814 ) 36
( 0.107964 0.0804544 0.0593201 ) 54
( 0.105713 0.0594832 0.0601492 ) 45
( 0.055266 0.0890392 0.0560951 ) 52
( 0.150253 0.0695976 0.0569345 ) 47
( 0.131978 0.0399043 0.0639613 ) 37
( 0.0208287 0.0793691 0.056944 ) 51
( 0.179611 0.0552344 0.0554173 ) 48
( 0.139552 0.0214816 0.0647936 ) 38
( 0.0701324 0.039944 0.0586927 ) 35
( 0.134384 0.090092 0.0589174 ) 55
( 0.2381 0.0470304 0.0496606 ) 50
( 0.00987717 0.0170806 0.0644141 ) 33
( 0.22869 0.0874562 0.0564947 ) 59
( 0.207374 0.0760501 0.0524499 ) 58
( 0.0839781 0.0891599 0.0658734 ) 54
( 0.148843 0.0490436 0.057515 ) 47
( 0.158862 0.0901125 0.0674359 ) 56
( 0.00971666 0.0635597 0.0595194 ) 42
( 0.095457 0.0379395 0.074398 ) 63
( 0.249222 0.0175937 0.0549521 ) 41
( 0.192259 0.0653263 0.0445745 ) 48
( 0.0446632 0.0527101 0.0697081 ) 43
( 0.0843061 0.0736606 0.0535444 ) 54
( 0.225188 0.0610098 0.0449094 ) 50
( 0.112963 0.0906115 0.0436082 ) 55
( 0.196918 0.0514002 0.0679686 ) 49
( 0.129641 0.0724683 0.0458628 ) 55
( 0.166237 0.0903853 0.0356952 ) 29
( 0.0614999 0.016865 0.0732742 ) 62
( 0.0380591 0.0831261 0.0468847 ) 52
( 0.229262 0.0181109 0.0603857 ) 41
( 0.199221 0.0203002 0.0523372 ) 40
( 0.211812 0.0352357 0.0549279 ) 40
( 0.164655 0.0372348 0.061274 ) 38
( 0.105938 0.0260182 0.041262 ) 9
( 0.0215569 0.0251663 0.0509414 ) 33
( 0.0135991 0.0395699 0.0678734 ) 33
( 0.16645 0.0246484 0.0444883 ) 38
( 0.04391 0.0708421 0.0614408 ) 43
( 0.249503 0.0572986 0.0374481 ) 23
( 0.0569441 0.0665081 0.0471877 ) 44
( 0.110921 0.0642129 0.0419004 ) 18
( 0.00975627 0.0903037 0.0449867 ) 51
( 0.216741 0.089799 0.0407339 ) 31
( 0.0941077 0.0902501 0.0491093 ) 54
( 0.249018 0.04596 0.0690015 ) 50
( 0.171 0.0719358 0.0607708 ) 57
( 0.0311178 0.0651343 0.0358695 ) 16
( 0.17876 0.0560309 0.0314054 ) 21
( 0.151985 0.0549131 0.0390792 ) 20
( 0.0737353 0.0901372 0.0489846 ) 53
( 0.0637636 0.0297511 0.0431062 ) 35
( 0.0260338 0.0464149 0.0391465 ) 15
( 0.0431278 0.0320818 0.0438681 ) 34
( 0.122872 0.0336839 0.0479176 ) 37
( 0.148343 0.0306087 0.0499593 ) 38
( 0.151588 0.0902397 0.0490034 ) 56
( 0.182508 0.033299 0.0363276 ) 12
( 0.125853 0.0729084 0.0652874 ) 55
( 0.209347 0.0666714 0.0352412 ) 22
( 0.0886567 0.0515556 0.0540815 ) 45
( 0.196966 0.0900747 0.041711 ) 31
( 0.106165 0.0404132 0.0559104 ) 36
( 0.116764 0.0472409 0.0742416 ) 73
( 0.246985 0.0787363 0.0562695 ) 59
( 0.0859711 0.0707787 0.0730823 ) 72
( 0.246244 0.0372628 0.0346639 ) 14
( 0.0123327 0.0605857 0.0405314 ) 15
( 0.215214 0.0640999 0.0725863 ) 76
( 0.228551 0.0304903 0.0452857 ) 41
( 0.121499 0.0252342 0.0721599 ) 64
( 0.0831758 0.0277807 0.039035 ) 8
( 0.193473 0.0707922 0.0657105 ) 48
( 0.134403 0.0903051 0.0390163 ) 28
( 0.182039 0.0788692 0.0346884 ) 30
( 0.23644 0.0905744 0.0384457 ) 32
( 0.0274956 0.0631816 0.0738285 ) 69
( 0.180185 0.0153637 0.0733948 ) 66
( 0.0533997 0.0474463 0.0514575 ) 43
( 0.0537243 0.0904716 0.0367144 ) 25
( 0.0638051 0.0502738 0.0743172 ) 71
( 0.0725752 0.0512264 0.04128 ) 17
( 0.0490706 0.0166327 0.0330441 ) 7
( 0.241194 0.0175048 0.0370633 ) 14
( 0.0348072 0.0902449 0.0651907 ) 52
( 0.214359 0.0412032 0.0367151 ) 13
( 0.158134 0.0589885 0.0717494 ) 74
( 0.127513 0.0556513 0.035342 ) 19
( 0.148902 0.0743182 0.0376658 ) 29
( 0.210095 0.0837977 0.0703413 ) 58
( 0.134847 0.0572196 0.0734172 ) 73
( 0.0105195 0.0900345 0.0702571 ) 51
( 0.00967406 0.0408429 0.0486792 ) 33
( 0.0274559 0.0230498 0.0733978 ) 60
( 0.193739 0.0900729 0.0611668 ) 57
( 0.238282 0.0744252 0.0760786 ) 86
( 0.143207 0.0790981 0.072853 ) 83
( 0.100901 0.0206473 0.0816415 ) 63
( 0.168291 0.0444723 0.0436784 ) 48
( 0.148969 0.0366653 0.0726828 ) 65
( 0.0659898 0.0745164 0.0704542 ) 53
( 0.101895 0.0900232 0.0759529 ) 81
( 0.2117 0.0361043 0.0741663 ) 67
( 0.0865028 0.0310935 0.0905481 ) 63
( 0.193365 0.0417253 0.0506191 ) 39
( 0.175106 0.048871 0.0730489 ) 75
( 0.0727556 0.0192753 0.0572054 ) 35
( 0.00952304 0.0563075 0.0774631 ) 69
( 0.165832 0.0755676 0.0789741 ) 83
( 0.188675 0.034519 0.0740521 ) 66
( 0.093071 0.0552365 0.0830036 ) 72
( 0.244397 0.0429271 0.0903168 ) 77
( 0.121636 0.0901574 0.0740361 ) 82
( 0.0771984 0.0292027 0.0735691 ) 62
( 0.0426835 0.0732254 0.0810206 ) 79
( 0.0510392 0.0371135 0.0814388 ) 61
( 0.109167 0.0703276 0.0756883 ) 72
( 0.229122 0.040295 0.065849 ) 41
( 0.0226453 0.0734454 0.0901399 ) 78
( 0.169663 0.0309911 0.0795157 ) 66
( 0.0296803 0.0433801 0.0787471 ) 70
( 0.11044 0.0370212 0.0901253 ) 63
( 0.201928 0.0578328 0.0860822 ) 76
( 0.235847 0.0628248 0.0608898 ) 50
( 0.0765242 0.0738961 0.0901922 ) 80
( 0.16503 0.014991 0.09035 ) 65
( 0.19833 0.0771724 0.0846147 ) 85
( 0.00974297 0.026129 0.0817873 ) 60
( 0.22759 0.0905333 0.0760158 ) 86
( 0.183211 0.0647997 0.0815397 ) 75
( 0.147866 0.0528583 0.087733 ) 74
( 0.233954 0.0546994 0.0785532 ) 77
( 0.0516908 0.0903164 0.0751589 ) 79
( 0.130617 0.0672035 0.0901234 ) 73
( 0.0602729 0.061191 0.0902433 ) 71
( 0.233274 0.0280261 0.0808333 ) 68
( 0.0711466 0.0904688 0.0804968 ) 80
( 0.140593 0.0900615 0.0901052 ) 83
( 0.0100279 0.0900253 0.0901331 ) 78
( 0.135411 0.0289996 0.0858461 ) 64
( 0.201312 0.0204381 0.079906 ) 67
( 0.180626 0.0438459 0.0906857 ) 75
( 0.177917 0.0902345 0.0728856 ) 84
( 0.201313 0.0386424 0.0904699 ) 67
( 0.0746088 0.0470306 0.0903465 ) 71
( 0.149844 0.0724756 0.0902621 ) 83
( 0.039905 0.0558781 0.0902317 ) 70
( 0.115066 0.0813993 0.0905313 ) 82
( 0.22388 0.0667781 0.0903215 ) 77
( 0.111429 0.0573757 0.0903287 ) 73
( 0.0373961 0.0900356 0.0901481 ) 79
( 0.0359543 0.0285205 0.0904108 ) 61
( 0.185339 0.0242264 0.0904866 ) 66
( 0.211959 0.0901926 0.0902871 ) 85
( 0.153909 0.0342828 0.0908848 ) 65
( 0.118177 0.0187138 0.0905984 ) 64
( 0.249897 0.0705601 0.0908218 ) 77
( 0.160626 0.0901321 0.0905224 ) 83
( 0.128871 0.0473023 0.0901255 ) 73
( 0.0662531 0.0283705 0.0903316 ) 62
( 0.243156 0.0900375 0.0901482 ) 86
( 0.221408 0.040642 0.0904483 ) 67
( 0.217822 0.0208687 0.0907998 ) 67
( 0.166707 0.0585866 0.0902464 ) 75
( 0.0138172 0.0429808 0.0907363 ) 69
( 0.0578081 0.0808344 0.0908194 ) 80
( 0.0882107 0.0902253 0.0902834 ) 81
( 0.180211 0.0821863 0.0905611 ) 84
( 0.0971779 0.0727069 0.0906695 ) 81
)
