/*--------------------------------*- C++ -*----------------------------------*\
  =========                 |
  \\      /  F ield         | OpenFOAM: The Open Source CFD Toolbox
   \\    /   O peration     | Website:  https://openfoam.org
    \\  /    A nd           | Version:  4.x
     \\/     M anipulation  |
\*---------------------------------------------------------------------------*/
FoamFile
{
    version     2.0;
    format      ascii;
    class       vectorField;
    location    0;
    object      v;
}
// * * * * * * * * * * * * * * * * * * * * * * * * * * * * * * * * * * * * * //

236
(
( -4.20349e-07 1.27004e-08 1.07484e-07 )  
( -4.75094e-07 4.66475e-09 1.96535e-07 )  
( -2.57276e-07 4.02216e-08 1.42896e-07 )  
( -3.40178e-07 4.22253e-08 1.12026e-07 )  
( -4.8634e-07 1.19274e-08 1.41362e-07 )  
( -5.34442e-07 -5.71705e-08 5.35e-08 )  
( -4.52867e-07 1.91044e-08 2.18437e-08 )  
( -5.39087e-07 -1.99201e-08 7.66319e-08 )  
( -3.78461e-07 -1.39585e-09 2.85454e-08 )  
( -2.28768e-07 -2.85312e-08 -9.30022e-09 )  
( -4.43323e-07 9.73527e-08 -6.29432e-08 )  
( -8.60296e-08 1.17881e-08 2.9024e-08 )  
( -2.79772e-07 1.74243e-08 2.51824e-09 )  
( -4.56067e-07 5.01266e-08 1.0846e-07 )  
( -3.59862e-08 1.81669e-07 1.70513e-08 )  
( -2.07464e-07 5.58824e-08 1.80943e-08 )  
( -5.14054e-07 1.78229e-09 1.10148e-07 )  
( -5.74143e-07 8.4909e-09 -4.98848e-09 )  
( -5.01829e-08 -1.43473e-09 2.21787e-08 )  
( -1.34322e-07 4.64901e-09 8.43419e-08 )  
( -7.18902e-08 -1.37096e-08 2.6009e-07 )  
( -4.55487e-07 -7.88474e-10 1.40985e-07 )  
( -4.45428e-08 -2.1903e-08 2.52306e-08 )  
( -2.1544e-07 -1.52837e-08 6.42014e-08 )  
( -4.17278e-07 2.64427e-08 4.80259e-08 )  
( -1.96759e-07 -9.69322e-09 6.74245e-08 )  
( -3.93143e-07 4.50209e-08 9.9423e-08 )  
( -3.03091e-07 -5.7763e-11 9.67839e-09 )  
( 3.52074e-08 -1.36948e-08 2.38529e-08 )  
( -3.52895e-07 6.47895e-09 3.06477e-08 )  
( -3.13829e-07 1.36495e-08 -3.62891e-08 )  
( -4.66476e-07 9.9974e-09 5.26797e-08 )  
( -3.61264e-07 5.00371e-09 1.32479e-07 )  
( -9.08007e-08 2.35158e-08 5.7957e-08 )  
( -6.17456e-07 3.72779e-08 -1.09347e-08 )  
( -1.7822e-07 -1.71766e-08 8.41709e-08 )  
( -5.29665e-07 1.14842e-08 4.04957e-08 )  
( -1.83731e-07 -3.71442e-08 1.73537e-07 )  
( -5.02796e-07 5.43735e-08 6.6801e-09 )  
( -4.42585e-07 3.15336e-08 1.15967e-08 )  
( -2.52121e-07 -3.57633e-08 6.65028e-08 )  
( -1.21737e-07 -1.0799e-08 5.49066e-08 )  
( 9.5402e-08 -5.18152e-09 2.76244e-07 )  
( -4.75979e-07 3.35438e-09 8.63528e-08 )  
( -5.00517e-07 -5.01265e-09 4.99287e-08 )  
( -1.09132e-07 -1.74681e-08 8.89178e-08 )  
( -1.54868e-07 -2.29517e-08 1.72326e-07 )  
( 3.64992e-08 1.34542e-09 -8.21342e-10 )  
( -1.36462e-07 2.07541e-08 3.31821e-07 )  
( -1.13014e-07 6.85051e-10 7.01122e-08 )  
( -1.45547e-07 2.49554e-08 1.39444e-07 )  
( -3.01659e-07 -3.96228e-07 1.63077e-07 )  
( -4.01342e-07 -2.77695e-08 1.06079e-07 )  
( -2.71981e-07 6.89624e-09 4.26875e-08 )  
( -5.01263e-08 -1.42961e-08 3.27865e-09 )  
( -1.53984e-07 1.76538e-09 7.70265e-08 )  
( -4.30129e-07 6.06789e-08 1.02479e-07 )  
( -7.35706e-08 -2.34606e-08 5.60758e-08 )  
( -1.5858e-07 1.24982e-08 -2.67471e-08 )  
( -2.75486e-07 -2.51795e-08 8.89423e-08 )  
( -5.32355e-07 3.76315e-08 3.08224e-08 )  
( -1.61824e-07 -2.91402e-08 6.39015e-08 )  
( -5.07703e-07 -1.38295e-08 1.72531e-07 )  
( -2.94307e-07 -2.05513e-08 7.64086e-08 )  
( -1.36235e-07 -1.45389e-08 1.08924e-07 )  
( -3.1935e-07 6.20632e-08 -1.00004e-07 )  
( -3.34389e-07 6.03664e-09 -3.88569e-08 )  
( -2.85587e-07 4.64983e-09 -3.25663e-09 )  
( -2.52538e-07 9.56827e-09 3.5097e-07 )  
( -4.10437e-07 -1.17828e-08 1.11162e-07 )  
( -1.30214e-07 -5.61875e-08 1.07369e-07 )  
( -1.36351e-07 2.57421e-08 6.5049e-08 )  
( -3.8624e-07 -1.61762e-08 3.56046e-09 )  
( -4.90432e-07 -1.48396e-08 -1.60542e-08 )  
( -1.84073e-07 1.0632e-08 3.98534e-08 )  
( -1.00529e-07 -3.85472e-08 2.44498e-07 )  
( -2.80942e-07 1.05922e-07 6.64518e-07 )  
( -3.60759e-07 4.89933e-08 4.37021e-07 )  
( -4.78435e-07 -3.02242e-08 1.26439e-07 )  
( -8.09767e-08 -1.23565e-08 5.36818e-08 )  
( -2.74326e-07 1.24535e-09 2.55834e-07 )  
( -4.51225e-07 4.04914e-09 -4.51172e-08 )  
( -4.90949e-07 -3.07324e-08 9.17942e-08 )  
( -3.19796e-07 5.93394e-08 -4.17183e-08 )  
( -1.96872e-07 3.49914e-08 2.72346e-08 )  
( -1.30399e-07 -1.32217e-08 1.85949e-07 )  
( 2.73818e-08 3.51407e-07 4.6708e-07 )  
( -4.95325e-07 3.82741e-08 -2.05661e-08 )  
( -5.01249e-07 1.94562e-09 1.02448e-07 )  
( -3.38249e-07 5.06896e-08 1.50491e-07 )  
( -2.28829e-07 -1.66563e-08 5.06333e-08 )  
( -3.65063e-07 4.58158e-08 1.68661e-07 )  
( -1.37965e-07 -1.00738e-08 7.12648e-08 )  
( -1.86678e-07 7.60191e-08 2.2122e-08 )  
( -6.58116e-09 -4.56155e-09 3.56549e-08 )  
( -4.09325e-07 -4.1598e-08 6.95749e-08 )  
( -1.24056e-07 1.5387e-08 1.0567e-07 )  
( -2.29549e-07 -7.55998e-09 -4.41088e-08 )  
( -3.49985e-08 7.09635e-08 9.45269e-08 )  
( -1.14105e-07 -1.95437e-09 1.48891e-07 )  
( -2.59419e-07 -3.32691e-08 8.45187e-08 )  
( -4.39526e-07 3.52613e-08 -6.51802e-08 )  
( -2.02082e-07 2.96635e-08 2.67267e-07 )  
( -5.21433e-07 3.30015e-08 1.0806e-07 )  
( -1.03858e-07 9.4722e-08 3.03759e-07 )  
( -1.38429e-07 -2.74234e-08 -4.79494e-08 )  
( -1.56291e-07 4.97971e-08 5.77004e-08 )  
( -5.7771e-08 4.33941e-08 2.66103e-07 )  
( -2.19584e-07 -4.82589e-08 8.43586e-08 )  
( -4.14148e-08 5.6337e-08 5.66773e-08 )  
( -4.69707e-07 5.42832e-10 1.315e-07 )  
( -1.10137e-07 1.04168e-07 5.7087e-08 )  
( -1.92524e-07 -1.35416e-08 7.68106e-08 )  
( -1.62306e-07 -1.3281e-08 1.51363e-07 )  
( -6.31498e-07 6.10129e-08 2.38586e-08 )  
( -3.6191e-05 -1.55362e-06 2.04699e-06 )  
( 5.8013e-08 -3.13542e-08 7.65661e-08 )  
( -1.08273e-07 7.98033e-09 8.29865e-08 )  
( -1.18277e-07 3.70584e-08 1.07372e-08 )  
( -8.44149e-08 -1.07171e-09 8.66687e-08 )  
( -4.34385e-07 -4.36761e-09 1.06541e-07 )  
( -1.71176e-07 -1.21292e-08 9.58478e-08 )  
( -4.21097e-07 4.15947e-09 1.04319e-07 )  
( -4.4634e-07 -3.6575e-09 9.75541e-08 )  
( -5.1221e-08 -2.94011e-09 6.09222e-09 )  
( -3.41209e-07 2.38339e-09 1.37432e-07 )  
( -3.53704e-07 7.23926e-08 -4.06353e-08 )  
( -1.41389e-07 1.24757e-09 2.10397e-08 )  
( -2.04e-07 -1.61647e-08 7.79081e-08 )  
( -4.81443e-07 -2.08912e-08 9.13218e-08 )  
( -3.53777e-07 -2.64196e-09 3.15426e-08 )  
( -1.79113e-07 -7.5826e-09 3.5994e-07 )  
( -2.42978e-07 2.37035e-08 1.69751e-07 )  
( -3.09587e-07 2.80938e-08 1.83248e-07 )  
( -2.83639e-07 -1.4703e-08 1.35892e-07 )  
( -2.99179e-07 4.00166e-08 1.78877e-07 )  
( -2.22682e-07 -1.52855e-08 3.18578e-08 )  
( -3.49444e-07 6.99568e-08 -9.14146e-09 )  
( -3.94914e-07 1.2542e-07 -6.07355e-08 )  
( -1.34923e-07 7.5885e-08 2.0187e-08 )  
( -7.08028e-08 -1.08225e-07 1.6388e-07 )  
( 4.63499e-08 -2.54282e-09 2.43616e-08 )  
( -5.68946e-07 3.97154e-08 -3.64562e-08 )  
( -5.21176e-07 -1.6693e-08 7.81976e-08 )  
( -1.21842e-07 2.32467e-08 6.74592e-08 )  
( -9.81803e-08 -6.28996e-09 5.76748e-08 )  
( 4.91285e-08 -4.10887e-08 4.32611e-08 )  
( -5.2176e-07 -9.78761e-09 5.65586e-08 )  
( -4.2627e-07 -4.41151e-08 5.96028e-08 )  
( -3.60695e-07 3.61948e-08 -7.32583e-09 )  
( -1.29578e-07 1.86533e-08 4.99359e-08 )  
( -1.81888e-07 -4.65418e-08 6.61166e-08 )  
( -9.05296e-08 -7.67293e-09 5.29332e-08 )  
( -5.06236e-07 -1.23244e-08 8.61569e-08 )  
( -8.9436e-08 2.80268e-08 9.01359e-08 )  
( -2.92216e-07 -9.43427e-08 1.62955e-08 )  
( -2.82626e-07 3.83151e-08 5.67186e-09 )  
( -4.75465e-07 -3.68938e-08 6.84887e-08 )  
( -1.80671e-07 3.07466e-08 2.39507e-08 )  
( -1.23135e-07 1.81335e-08 5.28579e-08 )  
( -4.07898e-07 6.93808e-08 2.65231e-08 )  
( -4.87212e-07 5.1668e-09 8.83489e-08 )  
( -8.75446e-08 -1.22658e-08 4.72117e-08 )  
( -2.564e-07 -1.07297e-08 5.36524e-08 )  
( -4.68732e-07 -1.76528e-08 8.98409e-08 )  
( -5.09355e-07 -6.11426e-08 4.54971e-08 )  
( -4.98307e-07 -1.38903e-08 1.9884e-08 )  
( -4.58981e-07 -1.17994e-08 6.79072e-08 )  
( -4.54153e-07 -2.68857e-08 9.19721e-08 )  
( -1.71996e-07 -8.28501e-08 6.4505e-08 )  
( -2.77366e-07 1.22449e-08 5.54107e-10 )  
( -1.74457e-07 -3.17911e-08 4.16267e-08 )  
( -1.73881e-07 4.92195e-08 6.36006e-09 )  
( -5.42667e-07 -4.03118e-08 7.78942e-08 )  
( -1.74047e-07 -8.1043e-09 3.2202e-08 )  
( -1.47137e-07 -2.22142e-08 6.13637e-08 )  
( -1.45514e-07 -2.63198e-08 1.82583e-08 )  
( -4.46592e-07 -3.15616e-09 9.30552e-10 )  
( -5.06392e-07 -1.43872e-08 1.04476e-07 )  
( -4.53989e-07 -3.21926e-08 -2.56618e-08 )  
( -1.79778e-08 -3.17939e-08 8.07791e-08 )  
( -4.0157e-07 3.55035e-08 1.22653e-07 )  
( -2.44061e-07 -2.48227e-08 4.25414e-08 )  
( -4.72347e-07 -1.25246e-08 7.42878e-08 )  
( -2.15158e-07 -8.09442e-09 9.62735e-08 )  
( 1.94681e-07 3.16921e-07 5.44305e-07 )  
( -1.80253e-07 -9.17981e-09 3.21798e-08 )  
( -9.6951e-08 2.68213e-08 2.86413e-08 )  
( -1.20377e-07 -7.24685e-10 5.02437e-08 )  
( -4.35964e-07 7.6348e-09 1.15803e-07 )  
( -2.22201e-07 -1.00286e-08 1.98298e-07 )  
( -7.77795e-08 1.77394e-08 3.74808e-07 )  
( -4.75635e-07 2.7004e-08 3.4468e-08 )  
( -1.82463e-07 7.28074e-08 9.10615e-08 )  
( -5.6223e-07 -2.44939e-08 6.8637e-08 )  
( -6.29982e-08 -7.61146e-09 5.6265e-08 )  
( -4.97392e-07 8.50639e-09 2.93485e-08 )  
( -8.73264e-08 -9.39545e-08 2.80034e-07 )  
( -1.51028e-09 -4.55779e-08 6.98578e-08 )  
( -5.94666e-08 -6.80247e-09 2.39102e-08 )  
( -4.89224e-07 -1.45691e-08 5.7025e-08 )  
( -3.45434e-07 3.03188e-08 6.92249e-08 )  
( -2.79231e-07 6.82949e-08 2.19669e-08 )  
( -2.02519e-07 2.09051e-08 2.70415e-08 )  
( -4.99427e-07 -1.77388e-08 1.0564e-07 )  
( -4.01705e-07 1.4422e-08 8.75695e-08 )  
( -3.80909e-07 -1.83345e-08 1.46138e-07 )  
( -4.80567e-07 -2.99455e-08 8.02073e-08 )  
( -8.38212e-09 -1.23973e-08 1.00974e-07 )  
( -4.29941e-08 -1.18259e-08 3.58758e-08 )  
( -5.02876e-07 5.17503e-09 5.53297e-08 )  
( -1.80195e-07 2.02833e-08 5.52328e-08 )  
( -1.24245e-07 2.82774e-08 1.49691e-08 )  
( -1.72614e-07 2.90838e-08 -3.49947e-08 )  
( -3.08806e-07 -2.43299e-08 1.66027e-07 )  
( -1.3205e-07 7.06973e-08 1.25069e-07 )  
( -2.12811e-07 1.77813e-08 -1.54322e-08 )  
( -7.00984e-08 -1.05694e-07 1.66778e-07 )  
( 1.82375e-07 4.58173e-07 9.95038e-07 )  
( -5.67412e-07 -1.65787e-08 -6.1512e-08 )  
( -2.81979e-07 1.07748e-07 2.27641e-07 )  
( 9.01092e-08 7.0241e-08 2.17099e-07 )  
( -2.31513e-07 -1.10408e-08 1.20361e-07 )  
( -5.20909e-07 -2.69505e-08 -3.16415e-08 )  
( -2.76435e-07 -3.80482e-08 6.12804e-08 )  
( -8.05433e-07 2.02572e-07 4.74549e-08 )  
( -2.52032e-07 -7.19166e-09 1.27564e-07 )  
( -2.85944e-07 6.45561e-08 2.56106e-07 )  
( -4.66307e-07 -2.32028e-08 7.50163e-08 )  
( -4.02454e-07 -6.13429e-09 3.72873e-08 )  
( 1.98629e-06 1.0089e-05 5.46597e-07 )  
( -1.52088e-07 5.34718e-08 7.93537e-08 )  
( -4.43969e-07 -1.44155e-08 1.17831e-07 )  
( -6.18762e-07 1.37102e-08 -1.55344e-08 )  
( -3.82573e-07 -2.02021e-08 1.19795e-07 )  
( -5.4156e-07 -2.96712e-08 7.23536e-08 )  
)
