/*--------------------------------*- C++ -*----------------------------------*\
| =========                 |                                                 |
| \\      /  F ield         | OpenFOAM: The Open Source CFD Toolbox           |
|  \\    /   O peration     | Version:  4.x                                   |
|   \\  /    A nd           | Web:      www.OpenFOAM.org                      |
|    \\/     M anipulation  |                                                 |
\*---------------------------------------------------------------------------*/
FoamFile
{
    version     2.0;
    format      ascii;
    class       volScalarField;
    location    "11.5";
    object      QPartFluidCoeff;
}
// * * * * * * * * * * * * * * * * * * * * * * * * * * * * * * * * * * * * * //

dimensions      [1 -1 -3 -1 0 0 0];

internalField   nonuniform List<scalar> 
108
(
-2.69483e+07
-1.22435e+07
-2.08088e+07
-1.01954e+07
-1.47507e+07
-1.19704e+07
-1.71712e+07
-1.52262e+07
-1.38724e+07
-2.0043e+07
-3.01734e+07
-1.66599e+07
-1.78411e+07
-1.90654e+07
-1.64601e+07
-1.98799e+07
-1.89436e+07
-1.60122e+07
-2.23002e+07
-2.14053e+07
-2.29192e+07
-1.58775e+07
-1.95901e+07
-1.66981e+07
-1.98889e+07
-2.09537e+07
-1.18513e+07
-1.49266e+07
-1.32648e+07
-1.70089e+07
-2.20934e+07
-1.58709e+07
-1.87676e+07
-1.16047e+07
-1.64229e+07
-1.69537e+07
-2.76514e+07
-2.61507e+07
-3.29837e+07
-3.42682e+07
-2.8123e+07
-2.57649e+07
-2.25144e+07
-2.74432e+07
-2.86898e+07
-2.47494e+07
-2.66647e+07
-2.83146e+07
-2.99503e+07
-2.55701e+07
-2.71532e+07
-3.28018e+07
-3.17511e+07
-2.42138e+07
-4.23126e+07
-3.29428e+07
-2.99384e+07
-3.76314e+07
-2.82282e+07
-3.28988e+07
-2.82731e+07
-3.32823e+07
-2.72871e+07
-2.84159e+07
-2.41116e+07
-2.3845e+07
-2.7173e+07
-3.1664e+07
-2.57408e+07
-2.56903e+07
-2.95864e+07
-2.01397e+07
-2.69729e+07
-3.54141e+07
-3.06203e+07
-3.40727e+07
-2.20972e+07
-2.61895e+07
-3.04842e+07
-2.6544e+07
-2.1878e+07
-3.17079e+07
-2.09882e+07
-2.85825e+07
-1.74068e+07
-1.61804e+07
-3.3345e+07
-2.8174e+07
-3.91641e+07
-1.95983e+07
-2.24035e+07
-3.51658e+07
-3.18867e+07
-2.50375e+07
-2.65366e+07
-3.53652e+07
-2.92054e+07
-3.43188e+07
-1.84323e+07
-2.02125e+07
-1.5776e+07
-2.01972e+07
-2.42151e+07
-2.31299e+07
-3.03704e+07
-2.36165e+07
-3.46857e+07
-2.77348e+07
)
;

boundaryField
{
    inlet
    {
        type            calculated;
        value           nonuniform 0();
    }
    outlet
    {
        type            calculated;
        value           uniform 0;
    }
    wall
    {
        type            calculated;
        value           uniform 0;
    }
    procBoundary3to1
    {
        type            processor;
        value           nonuniform List<scalar> 
27
(
287.936
506.914
415.209
648.728
410.073
382.47
337.202
389.252
322.611
673.134
622.867
517.13
489.039
403.248
618.235
554.376
664.877
428.975
596.032
579.377
346.231
820.617
581.799
770.709
489.968
665.62
257.411
)
;
    }
    procBoundary3to2
    {
        type            processor;
        value           nonuniform List<scalar> 
12
(
224.679
338.286
498.924
306.952
843.17
480.975
612.215
363.912
672.753
428.597
765.48
736.87
)
;
    }
    procBoundary3to7
    {
        type            processor;
        value           nonuniform List<scalar> 
36
(
769.01
690.965
487.34
596.759
808.809
927.515
608.834
489.525
498.407
592.306
879.601
592.313
626.01
694.47
554.602
631.88
623.523
558.505
461.192
708.284
545.74
697.852
666.507
831.933
715.482
732.736
631.725
416.307
616.541
708.58
469.102
633.475
660.779
670.56
606.221
331.731
)
;
    }
}


// ************************************************************************* //
