/*--------------------------------*- C++ -*----------------------------------*\
| =========                 |                                                 |
| \\      /  F ield         | OpenFOAM: The Open Source CFD Toolbox           |
|  \\    /   O peration     | Version:  4.x                                   |
|   \\  /    A nd           | Web:      www.OpenFOAM.org                      |
|    \\/     M anipulation  |                                                 |
\*---------------------------------------------------------------------------*/
FoamFile
{
    version     2.0;
    format      ascii;
    class       volScalarField;
    location    "1";
    object      pSmooth;
}
// * * * * * * * * * * * * * * * * * * * * * * * * * * * * * * * * * * * * * //

dimensions      [1 -1 -2 0 0 0 0];

internalField   nonuniform List<scalar> 
132
(
1585.72
1556.07
1537.99
1457.69
1419.28
1300.37
1251.18
1085.44
1031.43
1586.26
1557.18
1540.26
1464.44
1425.57
1307.11
1260.42
1092.85
1041.26
1589.6
1558.81
1543.43
1468.32
1427.4
1317.36
1273.67
1103.6
1062.11
1589.36
1558.27
1543.72
1586.05
1552.86
1535.66
1455.71
1417.68
1292.87
1248.53
1079.94
1033.05
1591.26
1558.18
1540.49
1462.41
1425.22
1301.94
1256.27
1089.1
1041.06
1593.67
1559.43
1542.8
1467.21
1431.48
1314.14
1270.01
1094.2
1055.15
1594.06
1559.03
1545.5
1469.73
1433.92
1578.5
1542.31
1527.57
1447.82
1412.64
1286.32
1237.63
1069.5
1023.38
1584.86
1548.77
1534.6
1455.73
1420.2
1295.9
1249.7
1078.36
1033.23
1584.91
1549.8
1534.03
1460.23
1424.9
1307.87
1262.95
1089.92
1046.37
1585.6
1550.47
1538.7
1466.35
1432.13
1309.78
1263.79
1578.99
1540.28
1521.92
1444.86
1409.26
1286.3
1234.78
1065.69
1016.77
1585.89
1546.82
1531.27
1453.78
1418.42
1295.04
1242.88
1070.66
1022.71
1581.55
1546.58
1531.66
1464.09
1423.33
1306.22
1259.03
1084.71
1037.49
1584.13
1547.87
1535.02
1464.97
1430.07
1310.99
1257.47
1079.46
1029.53
)
;

boundaryField
{
    inlet
    {
        type            zeroGradient;
    }
    outlet
    {
        type            fixedValue;
        value           nonuniform 0();
    }
    wall
    {
        type            zeroGradient;
    }
    procBoundary0to1
    {
        type            processor;
        value           nonuniform List<scalar> 
12
(
818.303
817.965
838.955
817.347
818.463
839.693
812.452
813.7
831.905
804.519
807.592
821.354
)
;
    }
    procBoundary0to2
    {
        type            processor;
        value           nonuniform List<scalar> 
44
(
1469.83
1433.44
1316.94
1273.72
1103.85
1058.88
1586.47
1554.86
1469.83
1538.93
1469.83
1433.44
1313.37
1269.16
1095.24
1051.62
1589.67
1555.72
1539.82
1466.9
1313.37
1433.98
1313.37
1269.16
1087.61
1040.98
1582.54
1546.62
1533.97
1464.8
1432.42
1317.96
1087.61
1272.76
1087.61
1040.98
1582.05
1546.84
1532.69
1465.31
1432.6
1316.99
1266.04
1092.43
)
;
    }
    procBoundary0to4
    {
        type            processor;
        value           nonuniform List<scalar> 
36
(
1568.2
1524.28
1511.55
1436.11
1403.26
1276.43
1231.92
1058.21
1016.24
1573.91
1534.74
1522.55
1445.56
1411.37
1286.25
1238.42
1065.64
1020.73
1575.28
1536.46
1522.69
1453.57
1417.99
1295.98
1253.34
1077.29
1032.36
1576.62
1538.14
1529.27
1455.4
1424.68
1303.55
1251.42
1077.22
1024.19
)
;
    }
    procBoundary0to6
    {
        type            processor;
        value           uniform 1035.91;
    }
    procBoundary0to7
    {
        type            processor;
        value           uniform 802.664;
    }
}


// ************************************************************************* //
