/*--------------------------------*- C++ -*----------------------------------*\
| =========                 |                                                 |
| \\      /  F ield         | OpenFOAM: The Open Source CFD Toolbox           |
|  \\    /   O peration     | Version:  4.x                                   |
|   \\  /    A nd           | Web:      www.OpenFOAM.org                      |
|    \\/     M anipulation  |                                                 |
\*---------------------------------------------------------------------------*/
FoamFile
{
    version     2.0;
    format      ascii;
    class       volScalarField;
    location    "60";
    object      pSmooth;
}
// * * * * * * * * * * * * * * * * * * * * * * * * * * * * * * * * * * * * * //

dimensions      [1 -1 -2 0 0 0 0];

internalField   nonuniform List<scalar> 
114
(
74.3825
95.1041
56.0951
88.0956
37.374
81.3326
109.174
92.169
102.458
74.6055
95.5499
56.493
88.5936
38.0307
81.7889
108.752
91.9461
102.054
74.3397
95.1335
56.2412
88.1967
37.6825
81.3937
108.478
91.857
101.852
74.3071
94.9819
56.3485
88.1254
38.0086
81.3849
56.2672
88.6568
37.3424
81.7073
110.007
92.6974
103.277
74.862
96.2611
56.6315
89.212
37.936
82.2268
109.545
92.3604
102.706
74.4652
95.6023
56.2167
88.5076
37.5135
81.6041
109.13
92.192
102.37
74.4178
95.3581
56.313
88.3724
37.8068
81.5701
37.9572
81.7056
110.898
93.2219
104.032
75.5646
96.7491
57.5828
89.3017
39.3019
81.8206
110.465
93.0352
103.644
75.1841
96.4038
57.0511
89.2245
38.5762
82.0563
110.003
92.7654
103.133
75.0169
95.9826
57.1023
88.8612
38.6637
81.953
111.499
93.6918
104.378
75.6726
96.9567
57.5013
89.5047
39.2323
110.847
93.1981
103.664
75.1801
96.2205
56.8336
88.7989
110.354
92.9891
103.296
75.1103
95.9697
56.87
)
;

boundaryField
{
    inlet
    {
        type            zeroGradient;
    }
    outlet
    {
        type            fixedValue;
        value           nonuniform 0();
    }
    wall
    {
        type            zeroGradient;
    }
    procBoundary2to0
    {
        type            processor;
        value           nonuniform List<scalar> 
44
(
74.5172
95.3719
56.3837
88.4083
38.0458
81.636
108.778
91.9463
102.137
102.137
74.7091
95.917
56.6609
89.17
38.0769
82.2488
109.799
92.3741
102.967
74.7091
95.917
95.917
56.6817
88.8356
38.3725
81.8663
110.72
93.0042
103.703
75.1268
96.2915
56.6817
88.8356
88.8356
38.7132
82.0418
111.261
93.5599
104.171
75.4958
96.629
57.2602
89.1125
38.7132
)
;
    }
    procBoundary2to3
    {
        type            processor;
        value           nonuniform List<scalar> 
12
(
18.2839
19.5817
18.7234
19.2679
18.2082
19.4956
18.4548
19.0381
19.2525
21.4661
19.9533
20.1429
)
;
    }
    procBoundary2to6
    {
        type            processor;
        value           nonuniform List<scalar> 
32
(
82.1776
38.098
81.6445
88.6853
38.4138
81.6741
112.182
93.9633
104.896
76.4355
97.1811
58.4471
89.2572
82.1776
38.098
40.7009
111.524
93.6749
104.411
75.8833
96.9827
57.6463
38.098
88.6853
89.5267
110.951
93.426
103.894
75.8059
96.628
88.6853
57.6219
)
;
    }
}


// ************************************************************************* //
