/*--------------------------------*- C++ -*----------------------------------*\
| =========                 |                                                 |
| \\      /  F ield         | OpenFOAM: The Open Source CFD Toolbox           |
|  \\    /   O peration     | Version:  4.x                                   |
|   \\  /    A nd           | Web:      www.OpenFOAM.org                      |
|    \\/     M anipulation  |                                                 |
\*---------------------------------------------------------------------------*/
FoamFile
{
    version     2.0;
    format      ascii;
    class       volScalarField;
    location    "49";
    object      p;
}
// * * * * * * * * * * * * * * * * * * * * * * * * * * * * * * * * * * * * * //

dimensions      [1 -1 -2 0 0 0 0];

internalField   nonuniform List<scalar> 
87
(
82.1174
38.0935
81.5937
88.6599
38.3974
81.6122
-1765.72
-1783.94
-1773.03
-1801.5
-1780.78
-1819.54
-1788.71
-1837.35
-1796.06
-1766.34
-1784.2
-1773.48
-1802
-1780.95
-1820.26
-1788.45
-1838.55
-1795.85
-1766.94
-1784.47
-1774.03
-1802.1
-1781.34
-1820.31
-1788.76
-1838.46
-1795.73
-3643.86
-3661.91
-3651.19
-3679.77
-3658.76
-3697.88
-3666.29
-3716.19
-3673.61
-3644.51
-3662.19
-3651.78
-3680
-3659.29
-3698.17
-3666.72
-3716.57
-3673.98
-3645.03
-3662.46
-3652.17
-3680.1
-3659.58
-3698.3
-3666.94
-3716.59
-3674.08
-5522.27
-5540.01
-5529.53
-5557.74
-5537.09
-5575.85
-5544.61
-5594.27
-5551.84
-5522.72
-5540.23
-5529.91
-5557.91
-5537.37
-5576.15
-5544.8
-5594.39
-5551.98
-5523.12
-5540.36
-5530.23
-5558
-5537.57
-5576.09
-5544.94
-5594.22
-5551.95
)
;

boundaryField
{
    inlet
    {
        type            calculated;
        value           nonuniform List<scalar> 9(-1765.72 -1766.34 -1766.94 -3643.86 -3644.51 -3645.03 -5522.27 -5522.72 -5523.12);
    }
    outlet
    {
        type            calculated;
        value           nonuniform 0();
    }
    wall
    {
        type            calculated;
        value           nonuniform List<scalar> 
57
(
-6461.22
-6461.68
-6462.08
-6478.96
-6479.19
-6479.32
-6468.49
-6468.87
-6469.18
-6496.7
-6496.86
-6496.96
-6476.05
-6476.33
-6476.52
-6514.8
-6515.11
-6515.04
-6483.56
-6483.76
-6483.89
-6533.22
-6533.35
-6533.18
-6490.8
-6490.93
-6490.91
-1766.94
-3645.03
-5523.12
-1784.47
-3662.46
-5540.36
-1774.03
-3652.17
-5530.23
-1802.1
-3680.1
-5558
-1781.34
-3659.58
-5537.57
-1820.31
-3698.3
-5576.09
88.6599
-1788.76
-3666.94
-5544.94
38.3974
-1838.46
-3716.59
-5594.22
81.6122
-1795.73
-3674.08
-5551.95
)
;
    }
    procBoundary6to0
    {
        type            processor;
        value           uniform 81.975;
    }
    procBoundary6to2
    {
        type            processor;
        value           nonuniform List<scalar> 
32
(
1959.67
1916.46
1959.9
1966.7
1916.54
1959.75
111.568
93.7536
104.414
75.6887
96.9411
57.4659
89.4569
39.1694
39.1694
39.1694
110.934
93.2753
103.739
75.2278
96.2592
56.8468
88.7931
88.7931
88.7931
110.409
93.0421
103.337
75.1413
95.9797
56.8728
56.8728
)
;
    }
    procBoundary6to4
    {
        type            processor;
        value           nonuniform List<scalar> 
27
(
-1766.09
-1783.9
-1773.29
-1801.83
-1780.91
-1820.06
-1788.61
-1838.41
-1796.16
-3643.97
-3661.92
-3651.26
-3679.77
-3658.93
-3698.2
-3666.55
-3716.8
-3673.89
-5522.23
-5540.14
-5529.61
-5557.9
-5537.27
-5576.33
-5544.92
-5594.7
-5552.09
)
;
    }
    procBoundary6to7
    {
        type            processor;
        value           nonuniform List<scalar> 
12
(
20.9363
19.1296
19.6791
-1855.01
-1856.81
-1856.69
-3734.45
-3735.19
-3735.01
-5612.43
-5612.85
-5612.52
)
;
    }
}


// ************************************************************************* //
