/*--------------------------------*- C++ -*----------------------------------*\
| =========                 |                                                 |
| \\      /  F ield         | OpenFOAM: The Open Source CFD Toolbox           |
|  \\    /   O peration     | Version:  4.x                                   |
|   \\  /    A nd           | Web:      www.OpenFOAM.org                      |
|    \\/     M anipulation  |                                                 |
\*---------------------------------------------------------------------------*/
FoamFile
{
    version     2.0;
    format      ascii;
    class       surfaceScalarField;
    location    "49";
    object      phi;
}
// * * * * * * * * * * * * * * * * * * * * * * * * * * * * * * * * * * * * * //

dimensions      [0 3 -1 0 0 0 0];

internalField   nonuniform List<scalar> 
192
(
2.80909e-07
-5.04242e-08
7.42688e-06
8.25459e-08
-1.25792e-07
1.5445e-07
-1.31743e-07
9.38182e-06
-2.60784e-07
9.45521e-06
-3.06521e-07
-2.48365e-07
7.2246e-06
3.66823e-07
7.45747e-08
6.88827e-06
1.47525e-07
2.56177e-08
6.03931e-06
3.49108e-07
1.16277e-07
5.76419e-06
9.37561e-08
3.56813e-08
5.22013e-06
1.87415e-07
1.04238e-07
5.0555e-06
5.26113e-08
3.55769e-08
5.0021e-06
-8.12094e-09
1.47911e-08
4.91076e-06
2.31401e-08
3.73313e-08
-1.59471e-07
-1.92188e-08
7.61661e-06
4.83665e-07
4.41248e-08
7.37597e-06
1.91549e-07
8.70046e-10
6.82802e-06
4.69646e-07
7.68961e-08
6.61964e-06
1.37659e-07
-1.87612e-08
6.15467e-06
2.92388e-07
7.34702e-08
5.99489e-06
8.41709e-08
-1.2586e-08
5.60385e-06
1.25593e-07
4.95318e-08
5.47267e-06
3.09501e-08
-2.42144e-09
-1.0287e-07
1.15329e-08
8.29239e-06
-1.02213e-08
8.28968e-06
-3.58685e-08
8.3853e-06
1.2275e-09
8.29529e-06
-6.60791e-08
8.23005e-06
6.0436e-09
8.14082e-06
-8.49172e-08
8.00768e-06
-2.05544e-09
7.83908e-06
-1.06968e-07
2.35728e-08
7.56559e-06
4.34745e-07
3.14508e-07
7.34924e-06
1.86572e-07
1.15132e-07
6.83952e-06
4.47134e-07
3.20132e-07
6.68373e-06
1.31336e-07
9.58749e-08
6.27757e-06
3.44053e-07
2.64428e-07
6.13703e-06
9.26763e-08
7.53639e-08
5.80219e-06
2.41522e-07
1.46989e-07
5.67516e-06
6.06694e-08
8.56512e-08
1.61567e-07
1.06061e-07
7.95897e-06
4.49739e-07
2.33424e-07
7.84266e-06
2.06547e-07
9.72117e-08
7.67885e-06
4.36267e-07
2.51571e-07
7.58272e-06
1.48015e-07
6.06846e-08
7.4442e-06
3.39331e-07
2.16712e-07
7.32868e-06
1.35731e-07
5.98793e-08
7.14724e-06
2.73874e-07
1.98624e-07
7.08598e-06
9.42454e-08
2.52599e-08
1.80479e-07
1.09597e-07
8.44942e-06
1.53358e-07
8.56985e-06
5.02573e-08
8.84994e-06
1.57399e-07
8.87807e-06
5.38081e-08
9.0787e-06
1.44744e-07
9.11486e-06
1.46526e-08
9.27039e-06
1.16294e-07
9.28154e-06
-2.38714e-08
7.64465e-08
8.21969e-06
3.5539e-07
8.21104e-06
1.51665e-07
8.25941e-06
3.1906e-07
8.22247e-06
1.22443e-07
8.27416e-06
1.95774e-07
8.21714e-06
6.6236e-08
8.18198e-06
8.47703e-08
8.18499e-06
-2.09448e-08
-1.06517e-08
8.40712e-06
3.44962e-07
8.493e-06
1.62999e-07
8.73215e-06
3.31481e-07
8.76523e-06
1.50046e-07
8.94184e-06
2.35868e-07
8.96957e-06
9.83858e-08
9.08963e-06
1.63339e-07
9.081e-06
1.2943e-08
2.544e-08
8.66158e-06
8.87484e-06
9.36372e-06
9.56757e-06
9.94819e-06
1.00612e-05
1.03409e-05
1.03299e-05
)
;

boundaryField
{
    inlet
    {
        type            calculated;
        value           uniform -8.16327e-06;
    }
    outlet
    {
        type            calculated;
        value           nonuniform 0();
    }
    wall
    {
        type            calculated;
        value           uniform 0;
    }
    procBoundary6to0
    {
        type            processor;
        value           uniform -9.66338e-08;
    }
    procBoundary6to2
    {
        type            processor;
        value           nonuniform List<scalar> 
32
(
2.10588e-08
1.31665e-07
8.32653e-08
3.08069e-07
3.15674e-07
2.56307e-07
4.37214e-07
1.6733e-07
3.35686e-07
1.14379e-07
1.81129e-07
5.18952e-08
2.34477e-08
-5.54433e-06
-1.31018e-07
2.59095e-08
3.85691e-07
1.95745e-07
3.50519e-07
1.83232e-07
2.86526e-07
1.40813e-07
-7.38428e-06
-2.9273e-07
2.07791e-07
3.64759e-07
2.30127e-07
3.72797e-07
2.93757e-07
3.51583e-07
-9.13637e-06
2.58319e-07
)
;
    }
    procBoundary6to4
    {
        type            processor;
        value           nonuniform List<scalar> 
27
(
6.00511e-08
-4.13676e-09
4.78809e-08
3.13069e-08
7.1275e-08
2.4556e-08
2.32818e-08
4.95649e-09
7.80682e-08
-7.70026e-08
-5.97395e-08
-1.41272e-07
-3.57383e-08
-9.80749e-08
8.07095e-09
-3.8874e-08
1.80387e-08
-1.05964e-08
-9.73047e-08
-2.78813e-08
-4.72981e-08
1.03703e-08
1.69575e-08
6.61509e-08
9.73826e-08
1.03578e-07
1.23668e-07
)
;
    }
    procBoundary6to7
    {
        type            processor;
        value           nonuniform List<scalar> 
12
(
5.38942e-06
7.60182e-06
9.60172e-06
4.96096e-06
5.27279e-06
7.46427e-06
5.39891e-06
6.96901e-06
9.40914e-06
8.17804e-06
9.15451e-06
1.04318e-05
)
;
    }
}


// ************************************************************************* //
