/*--------------------------------*- C++ -*----------------------------------*\
| =========                 |                                                 |
| \\      /  F ield         | OpenFOAM: The Open Source CFD Toolbox           |
|  \\    /   O peration     | Version:  4.x                                   |
|   \\  /    A nd           | Web:      www.OpenFOAM.org                      |
|    \\/     M anipulation  |                                                 |
\*---------------------------------------------------------------------------*/
FoamFile
{
    version     2.0;
    format      ascii;
    class       volVectorField;
    location    "49";
    object      UsNext;
}
// * * * * * * * * * * * * * * * * * * * * * * * * * * * * * * * * * * * * * //

dimensions      [0 1 -1 0 0 0 0];

internalField   nonuniform List<vector> 
87
(
(1.50675e-09 3.58702e-10 4.95293e-10)
(9.80076e-10 1.6746e-10 3.34041e-10)
(1.25726e-09 -5.48154e-11 3.29814e-10)
(2.09169e-10 -7.21989e-12 1.08348e-10)
(4.60234e-10 4.69774e-11 1.88832e-10)
(3.72339e-10 -9.96981e-11 1.03442e-10)
(1.15217e-10 -2.8453e-11 4.81841e-11)
(2.36292e-10 -7.98847e-11 9.37001e-11)
(3.3381e-10 -1.03343e-10 6.58076e-11)
(4.80278e-10 -7.4484e-11 1.19599e-10)
(7.63138e-10 -5.04971e-11 2.69163e-10)
(9.37642e-10 1.99778e-11 1.53157e-10)
(1.04548e-09 1.56188e-10 2.12218e-10)
(1.22654e-09 1.23649e-10 3.11101e-10)
(1.63628e-09 3.05644e-10 3.9036e-10)
(9.37112e-11 2.87875e-11 -2.52859e-11)
(9.10691e-11 -1.96981e-11 2.8018e-11)
(2.21312e-10 -2.03847e-11 2.4353e-11)
(2.3031e-10 -4.31776e-11 6.89734e-11)
(3.59798e-10 -1.28947e-10 1.44248e-10)
(4.29245e-10 -5.70905e-11 1.43722e-10)
(8.40389e-10 -2.49254e-11 2.32857e-10)
(9.95217e-10 1.67109e-10 3.84123e-10)
(1.25325e-09 -5.08403e-11 2.56679e-10)
(2.72837e-11 -7.92123e-12 -1.01197e-12)
(1.65251e-11 -6.87506e-11 1.10864e-12)
(7.22019e-11 -3.93158e-11 8.66287e-13)
(8.34091e-11 -6.56338e-11 1.16171e-11)
(1.16342e-10 -6.42834e-11 2.78057e-11)
(1.48462e-10 -9.21767e-11 6.71916e-11)
(1.49966e-10 -8.41921e-11 7.08407e-11)
(-4.76601e-11 -1.82722e-10 -8.44332e-11)
(2.40133e-10 -1.8115e-10 5.58788e-11)
(5.41595e-11 -2.84014e-11 2.49137e-11)
(1.86255e-10 -6.46852e-11 4.4992e-11)
(3.22578e-10 -9.34293e-11 3.82263e-12)
(3.74544e-10 -7.66476e-11 4.43509e-11)
(5.30801e-10 -5.38884e-11 9.96851e-11)
(7.99356e-10 -8.51793e-11 7.67608e-11)
(9.91565e-10 8.37382e-11 1.19842e-10)
(1.07304e-09 3.56095e-11 1.89378e-10)
(1.29583e-09 2.78878e-10 3.16745e-10)
(4.82746e-11 -1.31808e-11 -1.78542e-11)
(1.54106e-10 -2.30264e-11 1.92431e-11)
(2.54437e-10 -7.4612e-11 8.35044e-11)
(2.88348e-10 -5.72406e-11 5.34249e-11)
(4.08623e-10 -5.01788e-11 1.16798e-10)
(5.32022e-10 -9.71663e-11 4.54823e-11)
(7.61554e-10 2.24238e-11 1.71803e-10)
(9.45838e-10 2.99888e-10 2.82617e-10)
(1.35967e-09 2.36781e-10 8.48116e-11)
(4.73745e-11 -2.91144e-11 3.184e-11)
(-1.20613e-10 -1.0599e-10 3.2537e-11)
(1.47312e-10 -1.80745e-10 2.24669e-10)
(1.12129e-10 -3.78798e-11 2.72488e-11)
(1.52884e-10 -5.99691e-11 6.49267e-11)
(1.52385e-10 -7.99988e-11 2.86003e-11)
(2.56336e-10 -8.94441e-11 7.95994e-11)
(3.31359e-10 -2.15077e-11 1.95304e-10)
(5.94791e-10 5.4881e-11 -7.17721e-11)
(5.68429e-11 -2.65399e-11 4.29813e-12)
(8.42949e-11 -4.33167e-11 1.25991e-11)
(2.09026e-10 -5.36651e-11 -2.20027e-11)
(2.35981e-10 -5.40993e-11 -6.09641e-12)
(3.51948e-10 -5.81834e-11 -1.89261e-11)
(4.43257e-10 -1.04749e-10 -8.91947e-12)
(7.00586e-10 7.04138e-11 3.04196e-11)
(5.9722e-10 5.26955e-12 4.51095e-11)
(6.64625e-10 1.37625e-10 1.02581e-10)
(5.41893e-11 -1.20092e-11 -1.72025e-11)
(7.83439e-11 -1.25427e-11 4.93107e-12)
(1.2388e-10 -4.53323e-11 6.34111e-12)
(1.73159e-10 -3.51501e-11 9.63324e-12)
(2.85081e-10 -3.80175e-11 -9.43606e-12)
(3.247e-10 -6.50571e-11 -4.13934e-12)
(6.60621e-10 1.82798e-10 8.55921e-11)
(6.47239e-10 6.41683e-10 1.05092e-10)
(7.45558e-10 4.47805e-10 -4.84604e-11)
(1.58814e-10 -1.73374e-11 8.51872e-12)
(2.25827e-11 -1.91979e-11 4.40254e-13)
(9.05023e-11 -9.54901e-11 9.49235e-11)
(6.45506e-11 -3.46075e-11 -1.30835e-11)
(9.26075e-11 -3.05308e-11 1.16035e-11)
(1.41439e-10 -5.70194e-11 7.56971e-12)
(1.64452e-10 -4.17946e-11 1.49783e-11)
(1.32284e-10 3.34037e-11 1.06342e-10)
(4.44988e-10 1.30879e-10 -1.31759e-10)
)
;

boundaryField
{
    inlet
    {
        type            calculated;
        value           nonuniform List<vector> 9((1.15217e-10 -2.8453e-11 4.81841e-11) (9.37112e-11 2.87875e-11 -2.52859e-11) (2.72837e-11 -7.92123e-12 -1.01197e-12) (5.41595e-11 -2.84014e-11 2.49137e-11) (4.82746e-11 -1.31808e-11 -1.78542e-11) (4.73745e-11 -2.91144e-11 3.184e-11) (5.68429e-11 -2.65399e-11 4.29813e-12) (5.41893e-11 -1.20092e-11 -1.72025e-11) (1.58814e-10 -1.73374e-11 8.51872e-12));
    }
    outlet
    {
        type            calculated;
        value           nonuniform 0();
    }
    wall
    {
        type            calculated;
        value           nonuniform List<vector> 
57
(
(5.68429e-11 -2.65399e-11 4.29813e-12)
(5.41893e-11 -1.20092e-11 -1.72025e-11)
(1.58814e-10 -1.73374e-11 8.51872e-12)
(8.42949e-11 -4.33167e-11 1.25991e-11)
(7.83439e-11 -1.25427e-11 4.93107e-12)
(2.25827e-11 -1.91979e-11 4.40254e-13)
(2.09026e-10 -5.36651e-11 -2.20027e-11)
(1.2388e-10 -4.53323e-11 6.34111e-12)
(9.05023e-11 -9.54901e-11 9.49235e-11)
(2.35981e-10 -5.40993e-11 -6.09641e-12)
(1.73159e-10 -3.51501e-11 9.63324e-12)
(6.45506e-11 -3.46075e-11 -1.30835e-11)
(3.51948e-10 -5.81834e-11 -1.89261e-11)
(2.85081e-10 -3.80175e-11 -9.43606e-12)
(9.26075e-11 -3.05308e-11 1.16035e-11)
(4.43257e-10 -1.04749e-10 -8.91947e-12)
(3.247e-10 -6.50571e-11 -4.13934e-12)
(1.41439e-10 -5.70194e-11 7.56971e-12)
(7.00586e-10 7.04138e-11 3.04196e-11)
(6.60621e-10 1.82798e-10 8.55921e-11)
(1.64452e-10 -4.17946e-11 1.49783e-11)
(5.9722e-10 5.26955e-12 4.51095e-11)
(6.47239e-10 6.41683e-10 1.05092e-10)
(1.32284e-10 3.34037e-11 1.06342e-10)
(6.64625e-10 1.37625e-10 1.02581e-10)
(7.45558e-10 4.47805e-10 -4.84604e-11)
(4.44988e-10 1.30879e-10 -1.31759e-10)
(2.72837e-11 -7.92123e-12 -1.01197e-12)
(4.73745e-11 -2.91144e-11 3.184e-11)
(1.58814e-10 -1.73374e-11 8.51872e-12)
(1.65251e-11 -6.87506e-11 1.10864e-12)
(-1.20613e-10 -1.0599e-10 3.2537e-11)
(2.25827e-11 -1.91979e-11 4.40254e-13)
(7.22019e-11 -3.93158e-11 8.66287e-13)
(1.47312e-10 -1.80745e-10 2.24669e-10)
(9.05023e-11 -9.54901e-11 9.49235e-11)
(8.34091e-11 -6.56338e-11 1.16171e-11)
(1.12129e-10 -3.78798e-11 2.72488e-11)
(6.45506e-11 -3.46075e-11 -1.30835e-11)
(1.16342e-10 -6.42834e-11 2.78057e-11)
(1.52884e-10 -5.99691e-11 6.49267e-11)
(9.26075e-11 -3.05308e-11 1.16035e-11)
(1.48462e-10 -9.21767e-11 6.71916e-11)
(1.52385e-10 -7.99988e-11 2.86003e-11)
(1.41439e-10 -5.70194e-11 7.56971e-12)
(2.09169e-10 -7.21989e-12 1.08348e-10)
(1.49966e-10 -8.41921e-11 7.08407e-11)
(2.56336e-10 -8.94441e-11 7.95994e-11)
(1.64452e-10 -4.17946e-11 1.49783e-11)
(4.60234e-10 4.69774e-11 1.88832e-10)
(-4.76601e-11 -1.82722e-10 -8.44332e-11)
(3.31359e-10 -2.15077e-11 1.95304e-10)
(1.32284e-10 3.34037e-11 1.06342e-10)
(3.72339e-10 -9.96981e-11 1.03442e-10)
(2.40133e-10 -1.8115e-10 5.58788e-11)
(5.94791e-10 5.4881e-11 -7.17721e-11)
(4.44988e-10 1.30879e-10 -1.31759e-10)
)
;
    }
    procBoundary6to0
    {
        type            processor;
        value           uniform (1.3206e-09 3.93189e-10 1.15763e-09);
    }
    procBoundary6to2
    {
        type            processor;
        value           nonuniform List<vector> 
32
(
(1.05714e-09 -1.18802e-10 6.67122e-10)
(7.35365e-10 2.30957e-11 4.68442e-10)
(1.0465e-09 -2.18809e-10 4.42766e-10)
(3.61799e-10 -7.9152e-11 1.63189e-10)
(4.26932e-10 -1.40493e-10 2.57582e-10)
(6.59173e-10 -5.92702e-11 2.67962e-10)
(9.43401e-11 4.52747e-11 6.02967e-11)
(2.3566e-10 -2.26357e-11 1.28925e-10)
(3.53317e-10 -7.19062e-11 1.4086e-10)
(3.66373e-10 -4.89428e-11 1.43625e-10)
(4.8928e-10 8.66138e-12 2.31239e-10)
(6.78821e-10 1.98076e-11 2.46362e-10)
(8.8546e-10 1.81528e-10 4.15696e-10)
(1.34837e-09 2.22884e-10 4.75114e-10)
(1.34837e-09 2.22884e-10 4.75114e-10)
(1.34837e-09 2.22884e-10 4.75114e-10)
(3.90179e-11 5.14738e-11 2.37238e-11)
(1.61279e-10 -1.66736e-11 1.03003e-10)
(2.21147e-10 -1.49751e-11 1.06323e-10)
(2.68836e-10 -1.06312e-11 1.21581e-10)
(3.59577e-10 -8.34356e-11 1.48935e-10)
(4.78073e-10 3.77649e-12 1.91805e-10)
(6.15447e-10 -4.8904e-11 3.32091e-10)
(6.15447e-10 -4.8904e-11 3.32091e-10)
(6.15447e-10 -4.8904e-11 3.32091e-10)
(1.90954e-11 -3.49667e-11 5.42551e-12)
(4.76346e-11 -4.92201e-11 -1.88535e-12)
(1.08508e-10 -2.43579e-11 3.7e-11)
(9.75822e-11 -6.2682e-11 2.30147e-11)
(2.25031e-10 -7.05788e-11 6.48423e-11)
(1.99676e-10 -6.24337e-11 6.73835e-11)
(1.99676e-10 -6.24337e-11 6.73835e-11)
)
;
    }
    procBoundary6to4
    {
        type            processor;
        value           nonuniform List<vector> 
27
(
(8.72779e-11 3.92847e-11 6.15863e-11)
(2.8268e-10 2.74165e-11 7.57343e-11)
(5.71537e-10 -1.87558e-11 -2.42558e-12)
(7.45067e-10 9.47699e-12 5.31209e-11)
(1.0684e-09 9.40184e-11 1.87747e-10)
(1.25845e-09 1.70901e-10 3.29603e-10)
(1.6368e-09 1.32242e-10 4.66425e-10)
(1.70631e-09 3.54288e-10 5.2629e-10)
(1.77423e-09 3.82789e-10 7.32954e-10)
(6.75836e-11 2.59349e-11 2.28871e-11)
(1.94733e-10 1.69004e-11 1.92365e-11)
(3.99725e-10 -9.67267e-12 -2.19394e-11)
(4.65256e-10 -1.25065e-11 4.07442e-12)
(6.65898e-10 -2.70701e-11 5.68898e-11)
(1.027e-09 8.91799e-11 1.1529e-10)
(1.20368e-09 2.39792e-10 2.52306e-10)
(1.32243e-09 1.40381e-10 3.24994e-10)
(1.53529e-09 3.12836e-11 5.90061e-10)
(5.7472e-11 -3.44756e-12 -7.46515e-12)
(1.04444e-10 -2.6613e-12 -1.77526e-11)
(2.62347e-10 4.61097e-11 -1.56971e-11)
(2.36805e-10 -8.8861e-12 -3.23393e-12)
(3.66141e-10 -5.49026e-11 -1.69684e-11)
(3.85507e-10 -5.7352e-11 -2.12012e-11)
(4.31476e-10 4.68448e-11 5.85634e-11)
(1.79553e-09 -5.99877e-10 5.92672e-11)
(8.53956e-10 9.40779e-11 1.50387e-10)
)
;
    }
    procBoundary6to7
    {
        type            processor;
        value           nonuniform List<vector> 
12
(
(1.82061e-09 -2.31834e-11 7.02594e-10)
(1.42287e-09 5.58475e-11 2.76379e-10)
(5.70131e-10 -2.03264e-10 7.24809e-11)
(1.73442e-09 2.18803e-10 5.04515e-10)
(1.46812e-09 1.29514e-10 2.69074e-10)
(4.21691e-10 -2.47216e-10 7.69549e-11)
(1.52064e-09 2.89153e-10 3.71289e-10)
(1.34568e-09 1.31126e-10 1.21895e-10)
(7.18051e-10 -8.97613e-11 4.96442e-12)
(6.39538e-10 1.58577e-10 1.32608e-10)
(6.48427e-10 3.79246e-10 4.17454e-11)
(4.4726e-10 -8.87364e-11 3.89376e-12)
)
;
    }
}


// ************************************************************************* //
