/*--------------------------------*- C++ -*----------------------------------*\
| =========                 |                                                 |
| \\      /  F ield         | OpenFOAM: The Open Source CFD Toolbox           |
|  \\    /   O peration     | Version:  4.x                                   |
|   \\  /    A nd           | Web:      www.OpenFOAM.org                      |
|    \\/     M anipulation  |                                                 |
\*---------------------------------------------------------------------------*/
FoamFile
{
    version     2.0;
    format      ascii;
    class       volScalarField;
    location    "54.5";
    object      p_rgh;
}
// * * * * * * * * * * * * * * * * * * * * * * * * * * * * * * * * * * * * * //

dimensions      [1 -1 -2 0 0 0 0];

internalField   nonuniform List<scalar> 
132
(
135.525
106.863
133.156
36.5458
51.576
47.3677
-7.68377
81.1666
-40.8819
152.378
125.3
130.935
55.2816
59.8305
33.6663
15.6095
66.347
-1.18339
193.797
159.926
147.692
52.0711
50.4271
10.4144
22.021
49.6016
-13.3311
192.045
173.906
147.968
149.507
124.638
127.909
50.2264
58.1114
29.7374
17.8897
69.8618
2.98504
162.286
136.032
136.212
62.1911
66.5176
27.9426
32.8269
55.3725
17.2237
200.202
172.908
161.197
60.8309
57.9389
11.7299
37.6821
31.9858
23.0382
203.822
193.752
163.059
59.9933
35.5418
169.693
149.231
135.936
40.7583
40.4938
2.59168
12.5485
36.9909
-29.6081
184.26
170.185
155.735
49.4728
44.1619
2.91209
26.1158
10.4621
-4.21961
250.263
242.776
214.434
23.0982
23.1634
-12.3778
20.2367
-10.8615
-0.861201
272.876
283.697
277.973
-36.9378
-28.1787
-27.5168
22.1689
168.326
153.438
127.139
33.7978
29.1695
-7.68004
37.5905
20.7766
47.367
178.161
180.627
146.43
33.5608
11.0641
-10.6645
39.9036
8.19369
45.4236
253.01
313.685
292.069
-67.5223
-67.2057
-42.1801
22.3637
-14.2277
41.3904
279.19
385.526
472.149
-241.831
-164.192
-59.1802
12.5432
-24.2829
42.3601
)
;

boundaryField
{
    inlet
    {
        type            fixedFluxPressure;
        gradient        nonuniform List<scalar> 
16
(
-0.0423352
-0.129272
-0.384706
-0.10378
-0.0335402
-0.11182
-0.155364
-0.138408
-0.0176204
-0.0349212
-0.0647672
-0.0329379
-0.00563302
-0.00694987
-0.0387758
-0.00576765
)
;
        value           nonuniform List<scalar> 
16
(
135.524
152.376
193.792
192.044
149.507
162.284
200.2
203.82
169.693
184.259
250.262
272.876
168.326
178.161
253.01
279.19
)
;
    }
    outlet
    {
        type            fixedValue;
        value           nonuniform 0();
    }
    wall
    {
        type            fixedFluxPressure;
        gradient        nonuniform List<scalar> 
66
(
-0.0128438
-0.0326984
-0.152766
0.00861888
-0.0227092
-0.333601
-0.528321
-0.475002
0.0836099
-0.27704
-0.376779
-0.292499
0.0608141
-0.47683
-0.804009
0.286349
-0.0944758
-0.236551
-0.117387
-0.405937
-1.60998
-1.49706
-2.20502
-3.0226
1.00951
-0.0957906
-8.27309
7.56977
9.56757
-5.26648
-0.0631849
-0.0314143
-0.0302598
-0.0328605
-0.082282
-0.159071
-0.0783953
-0.0750678
-0.186714
-0.102195
-0.0267835
-0.0317688
-0.0165209
0.250762
0.200775
0.230024
0.139458
0.274425
0.196178
0.0466768
0.188881
-0.125301
-0.220799
0.41189
-1.25055
-0.755707
-0.770127
-0.366723
0.214596
2.30551
-2.86462
-1.904
18.8301
5.7255
0.0652365
-1.53598
)
;
        value           nonuniform List<scalar> 
66
(
135.524
152.377
193.795
192.045
106.862
125.296
159.919
173.899
133.158
130.932
147.686
147.964
36.5467
55.2748
52.0596
51.5801
59.8291
50.4237
47.366
33.6605
10.3914
-7.70516
15.578
21.9779
81.181
66.3456
49.4834
-40.7738
-1.04671
-13.4063
135.524
149.507
169.693
168.326
106.862
124.636
149.229
153.437
133.154
127.907
135.935
127.138
36.5456
50.23
40.7611
33.8011
51.578
58.1153
40.4966
29.1701
47.3704
29.7356
2.58853
-7.67416
-7.70164
17.8789
12.5375
37.5853
81.1697
69.8947
36.95
20.7494
-40.6129
3.06683
-29.6072
47.3451
)
;
    }
    procBoundary0to1
    {
        type            processor;
        value           nonuniform List<scalar> 
12
(
121.919
79.1139
65.8064
91.3914
66.3781
51.8965
46.1819
8.64356
-6.56777
24.4917
12.4295
-1.27085
)
;
    }
    procBoundary0to2
    {
        type            processor;
        value           nonuniform List<scalar> 
44
(
47.064
38.1041
1.2391
38.4873
21.5141
30.5283
180.321
156.747
47.064
136.818
47.064
38.1041
2.9336
46.2164
14.9833
39.0958
185.951
165.316
147.863
51.1125
2.9336
47.4627
2.9336
46.2164
-22.4269
26.3486
247.428
240.996
217.192
10.9518
16.4456
-18.0807
-22.4269
32.1349
-22.4269
26.3486
250.333
307.306
274.976
-79.9437
-69.6419
-47.3662
22.3321
-23.941
)
;
    }
    procBoundary0to4
    {
        type            processor;
        value           nonuniform List<scalar> 
36
(
154.598
133.275
115.636
29.0535
34.6276
-13.9932
43.6576
0.252165
38.8447
153.728
138.088
121.065
22.4582
24.7481
-16.001
42.1588
-8.76334
41.2919
204.339
203.216
164.289
-25.9643
-12.9923
-29.9024
32.0576
-24.8876
34.9532
223.611
256.005
238.136
-91.1789
-60.3216
-45.3175
19.1062
-26.5594
38.7019
)
;
    }
    procBoundary0to6
    {
        type            processor;
        value           uniform 42.4437;
    }
    procBoundary0to7
    {
        type            processor;
        value           uniform -9.41163;
    }
}


// ************************************************************************* //
