/*--------------------------------*- C++ -*----------------------------------*\
| =========                 |                                                 |
| \\      /  F ield         | OpenFOAM: The Open Source CFD Toolbox           |
|  \\    /   O peration     | Version:  4.x                                   |
|   \\  /    A nd           | Web:      www.OpenFOAM.org                      |
|    \\/     M anipulation  |                                                 |
\*---------------------------------------------------------------------------*/
FoamFile
{
    version     2.0;
    format      ascii;
    class       volScalarField;
    location    "54.5";
    object      QPartFluid;
}
// * * * * * * * * * * * * * * * * * * * * * * * * * * * * * * * * * * * * * //

dimensions      [1 -1 -3 0 0 0 0];

internalField   nonuniform List<scalar> 
132
(
5.18252e+09
4.24941e+09
3.69098e+09
2.94885e+09
4.3274e+09
4.46984e+09
5.99623e+09
4.15316e+09
4.82456e+09
4.64298e+09
5.0734e+09
5.48301e+09
5.54043e+09
3.82656e+09
6.68819e+09
5.39873e+09
6.07275e+09
5.40314e+09
3.10538e+09
5.83575e+09
5.70512e+09
5.00945e+09
5.56215e+09
4.87173e+09
4.02939e+09
5.25792e+09
8.87331e+09
2.97683e+09
4.50221e+09
3.48118e+09
4.26717e+09
6.95873e+09
8.6106e+09
7.51796e+09
7.74393e+09
7.60115e+09
7.23707e+09
7.28025e+09
7.83552e+09
4.97713e+09
9.429e+09
7.97807e+09
8.43622e+09
9.59482e+09
8.59824e+09
9.3351e+09
9.40137e+09
9.17015e+09
5.29503e+09
9.40713e+09
8.35215e+09
7.48089e+09
9.07431e+09
6.75788e+09
1.06348e+10
6.97214e+09
6.51218e+09
7.95584e+09
7.01465e+09
7.74265e+09
5.47467e+09
1.1321e+10
5.58546e+09
6.95841e+09
8.11698e+09
6.93058e+09
7.50389e+09
5.66595e+09
8.08905e+09
7.1934e+09
5.67483e+09
6.24685e+09
8.26662e+09
7.94555e+09
6.86836e+09
9.28806e+09
6.75614e+09
9.53708e+09
1.03248e+10
1.03559e+10
6.71086e+09
7.19217e+09
8.03043e+09
9.21205e+09
9.84292e+09
8.1217e+09
9.28838e+09
6.43574e+09
5.3728e+09
6.91118e+09
8.66036e+09
9.47972e+09
8.89773e+09
9.99679e+09
8.08482e+09
8.82638e+09
4.35535e+09
4.98348e+09
6.75216e+09
5.16768e+09
7.10936e+09
7.8098e+09
5.95825e+09
4.40565e+09
6.19296e+09
5.13817e+09
9.58974e+09
9.05645e+09
8.04547e+09
7.21755e+09
6.67276e+09
1.06009e+10
7.36398e+09
7.08876e+09
5.19591e+09
5.58793e+09
8.97684e+09
6.02501e+09
8.70467e+09
8.44524e+09
8.36729e+09
4.95725e+09
9.43798e+09
4.83844e+09
6.77213e+09
9.54461e+09
1.0266e+10
5.54739e+09
9.94704e+09
8.67495e+09
5.66988e+09
2.62294e+09
)
;

boundaryField
{
    inlet
    {
        type            calculated;
        value           uniform 0;
    }
    outlet
    {
        type            calculated;
        value           nonuniform 0();
    }
    wall
    {
        type            calculated;
        value           uniform 0;
    }
    procBoundary0to1
    {
        type            processor;
        value           nonuniform List<scalar> 
12
(
1.97686e+09
4.60288e+09
4.1533e+09
7.84326e+09
9.19535e+09
8.29583e+09
7.61095e+09
6.68158e+09
9.78933e+09
6.73743e+09
8.13213e+09
5.96496e+09
)
;
    }
    procBoundary0to2
    {
        type            processor;
        value           nonuniform List<scalar> 
44
(
7.07455e+09
5.57816e+09
3.05359e+09
5.98631e+09
3.68297e+09
4.67226e+09
5.80718e+09
6.90212e+09
7.07455e+09
6.10251e+09
7.07455e+09
5.57816e+09
9.88888e+09
1.23723e+10
6.65572e+09
1.13468e+10
4.73017e+09
7.91772e+09
9.54582e+09
9.11644e+09
9.88888e+09
8.86187e+09
9.88888e+09
1.23723e+10
8.10232e+09
9.35585e+09
6.8652e+09
5.72979e+09
6.70408e+09
6.78241e+09
6.74225e+09
7.62585e+09
8.10232e+09
9.81947e+09
8.10232e+09
9.35585e+09
4.90495e+09
9.48698e+09
1.02134e+10
7.08036e+09
8.24229e+09
6.29592e+09
7.61427e+09
7.50029e+09
)
;
    }
    procBoundary0to4
    {
        type            processor;
        value           nonuniform List<scalar> 
36
(
4.92488e+09
7.10194e+09
8.41456e+09
5.96965e+09
7.18192e+09
6.01909e+09
9.05362e+09
6.96408e+09
9.74667e+09
7.01911e+09
7.29661e+09
9.36918e+09
1.00215e+10
1.01468e+10
8.6483e+09
8.27006e+09
5.91885e+09
1.13209e+10
6.6925e+09
1.02784e+10
8.27804e+09
9.31441e+09
8.16035e+09
6.34927e+09
7.41176e+09
1.04725e+10
6.78518e+09
3.4647e+09
6.74391e+09
9.35071e+09
5.67094e+09
8.85302e+09
6.74087e+09
1.11074e+10
5.99988e+09
7.08373e+09
)
;
    }
    procBoundary0to6
    {
        type            processor;
        value           uniform 8.09734e+09;
    }
    procBoundary0to7
    {
        type            processor;
        value           uniform 1.01587e+10;
    }
}


// ************************************************************************* //
