/*--------------------------------*- C++ -*----------------------------------*\
| =========                 |                                                 |
| \\      /  F ield         | OpenFOAM: The Open Source CFD Toolbox           |
|  \\    /   O peration     | Version:  4.x                                   |
|   \\  /    A nd           | Web:      www.OpenFOAM.org                      |
|    \\/     M anipulation  |                                                 |
\*---------------------------------------------------------------------------*/
FoamFile
{
    version     2.0;
    format      ascii;
    class       volScalarField;
    location    "54.5";
    object      QPartFluidCoeff;
}
// * * * * * * * * * * * * * * * * * * * * * * * * * * * * * * * * * * * * * //

dimensions      [1 -1 -3 -1 0 0 0];

internalField   nonuniform List<scalar> 
132
(
-1.7275e+07
-1.41647e+07
-1.23032e+07
-9.82945e+06
-1.44246e+07
-1.48993e+07
-1.99871e+07
-1.38434e+07
-1.60816e+07
-1.54766e+07
-1.69113e+07
-1.82767e+07
-1.8468e+07
-1.27552e+07
-2.22938e+07
-1.79955e+07
-2.02421e+07
-1.80103e+07
-1.03513e+07
-1.94525e+07
-1.9017e+07
-1.66981e+07
-1.85404e+07
-1.6239e+07
-1.34312e+07
-1.75263e+07
-2.95776e+07
-9.92276e+06
-1.50073e+07
-1.16039e+07
-1.42239e+07
-2.31957e+07
-2.87019e+07
-2.50598e+07
-2.5813e+07
-2.5337e+07
-2.41233e+07
-2.4267e+07
-2.61179e+07
-1.65904e+07
-3.143e+07
-2.65935e+07
-2.81207e+07
-3.19826e+07
-2.86606e+07
-3.11167e+07
-3.13375e+07
-3.05669e+07
-1.76501e+07
-3.13571e+07
-2.78405e+07
-2.49362e+07
-3.02476e+07
-2.25262e+07
-3.5449e+07
-2.32403e+07
-2.17072e+07
-2.65195e+07
-2.33822e+07
-2.58088e+07
-1.82489e+07
-3.77364e+07
-1.86182e+07
-2.31947e+07
-2.70566e+07
-2.31019e+07
-2.50129e+07
-1.88864e+07
-2.69633e+07
-2.39778e+07
-1.8916e+07
-2.08228e+07
-2.75554e+07
-2.64851e+07
-2.28945e+07
-3.09601e+07
-2.25204e+07
-3.17901e+07
-3.44158e+07
-3.45196e+07
-2.23695e+07
-2.39739e+07
-2.67681e+07
-3.07068e+07
-3.28096e+07
-2.70723e+07
-3.09612e+07
-2.14524e+07
-1.79093e+07
-2.30373e+07
-2.88679e+07
-3.15991e+07
-2.9659e+07
-3.33225e+07
-2.69493e+07
-2.94212e+07
-1.45178e+07
-1.66116e+07
-2.25072e+07
-1.72256e+07
-2.36978e+07
-2.60326e+07
-1.98608e+07
-1.46854e+07
-2.06431e+07
-1.71272e+07
-3.19658e+07
-3.01881e+07
-2.68182e+07
-2.40584e+07
-2.22425e+07
-3.53362e+07
-2.45465e+07
-2.36291e+07
-1.73197e+07
-1.86264e+07
-2.99228e+07
-2.00833e+07
-2.90155e+07
-2.81507e+07
-2.78909e+07
-1.65241e+07
-3.14599e+07
-1.61281e+07
-2.25738e+07
-3.18154e+07
-3.422e+07
-1.84912e+07
-3.31567e+07
-2.89164e+07
-1.88996e+07
-8.74312e+06
)
;

boundaryField
{
    inlet
    {
        type            calculated;
        value           uniform 0;
    }
    outlet
    {
        type            calculated;
        value           nonuniform 0();
    }
    wall
    {
        type            calculated;
        value           uniform 0;
    }
    procBoundary0to1
    {
        type            processor;
        value           nonuniform List<scalar> 
12
(
149.43
347.918
313.933
592.85
695.046
627.051
575.282
505.034
739.933
509.255
614.674
450.865
)
;
    }
    procBoundary0to2
    {
        type            processor;
        value           nonuniform List<scalar> 
44
(
534.734
421.628
230.807
452.478
278.379
353.156
438.94
521.702
534.734
461.263
534.734
421.628
747.457
935.164
503.077
857.658
357.534
598.467
721.527
689.072
747.457
669.83
747.457
935.164
612.419
707.168
518.911
433.091
506.733
512.653
509.618
576.405
612.419
742.211
612.419
707.168
370.744
717.081
771.986
535.174
622.998
475.882
575.53
566.915
)
;
    }
    procBoundary0to4
    {
        type            processor;
        value           nonuniform List<scalar> 
36
(
372.251
536.805
636.02
451.22
542.85
454.957
684.323
526.384
736.709
530.545
551.52
708.176
757.481
766.951
653.687
625.098
447.38
855.7
505.857
776.898
625.702
704.036
616.805
479.913
560.223
791.569
512.863
261.882
509.744
706.781
428.642
669.161
509.513
839.561
453.505
535.429
)
;
    }
    procBoundary0to6
    {
        type            processor;
        value           uniform 612.044;
    }
    procBoundary0to7
    {
        type            processor;
        value           uniform 767.85;
    }
}


// ************************************************************************* //
