/*--------------------------------*- C++ -*----------------------------------*\
| =========                 |                                                 |
| \\      /  F ield         | OpenFOAM: The Open Source CFD Toolbox           |
|  \\    /   O peration     | Version:  4.x                                   |
|   \\  /    A nd           | Web:      www.OpenFOAM.org                      |
|    \\/     M anipulation  |                                                 |
\*---------------------------------------------------------------------------*/
FoamFile
{
    version     2.0;
    format      ascii;
    class       volScalarField;
    location    "54.5";
    object      SPartFluid;
}
// * * * * * * * * * * * * * * * * * * * * * * * * * * * * * * * * * * * * * //

dimensions      [1 -3 -1 0 0 0 0];

internalField   nonuniform List<scalar> 
132
(
5.50234e-65
4.41739e-65
3.09987e-65
2.86726e-65
3.79692e-65
4.02902e-65
4.72428e-65
3.48142e-65
3.85971e-65
4.88241e-65
4.72741e-65
4.57232e-65
5.11464e-65
3.17716e-65
5.81139e-65
4.41619e-65
4.9578e-65
3.95047e-65
2.71249e-65
5.34742e-65
4.72736e-65
4.72729e-65
4.26218e-65
4.33952e-65
3.25428e-65
4.49401e-65
6.89636e-65
2.86748e-65
4.41748e-65
3.25496e-65
4.18491e-65
6.66481e-65
8.05952e-65
7.05199e-65
6.81902e-65
7.12845e-65
5.73304e-65
6.42901e-65
6.27151e-65
5.42491e-65
7.98229e-65
6.27727e-65
7.20699e-65
7.28412e-65
7.12883e-65
7.05078e-65
7.74742e-65
6.97318e-65
5.88993e-65
8.13737e-65
6.81982e-65
6.27717e-65
7.36185e-65
5.88945e-65
8.29113e-65
6.04403e-65
4.95962e-65
8.05992e-65
6.12248e-65
6.12246e-65
4.7273e-65
8.98923e-65
5.96738e-65
6.81985e-65
7.28465e-65
6.7421e-65
6.58684e-65
5.19174e-65
7.0509e-65
6.89584e-65
4.72602e-65
6.43243e-65
7.0524e-65
6.43233e-65
5.96719e-65
7.3618e-65
5.73444e-65
7.36143e-65
8.83332e-65
8.29112e-65
7.67244e-65
6.2775e-65
6.58745e-65
8.21441e-65
7.82682e-65
7.36183e-65
7.4392e-65
6.1995e-65
4.57228e-65
7.28503e-65
7.59517e-65
7.67274e-65
8.13672e-65
8.21429e-65
7.12952e-65
7.12952e-65
4.57245e-65
4.88245e-65
5.73484e-65
5.34729e-65
6.12208e-65
7.43929e-65
4.80442e-65
4.10721e-65
4.9597e-65
5.50247e-65
8.13743e-65
7.28485e-65
6.74219e-65
5.81215e-65
5.96707e-65
8.36905e-65
6.58699e-65
5.50219e-65
4.57253e-65
4.96014e-65
7.28543e-65
5.73461e-65
7.28444e-65
8.0594e-65
6.74202e-65
5.11476e-65
8.05965e-65
5.27009e-65
5.89036e-65
7.83012e-65
9.2191e-65
4.49427e-65
9.14433e-65
7.12963e-65
5.42483e-65
2.32502e-65
)
;

boundaryField
{
    inlet
    {
        type            calculated;
        value           uniform 0;
    }
    outlet
    {
        type            calculated;
        value           nonuniform 0();
    }
    wall
    {
        type            calculated;
        value           uniform 0;
    }
    procBoundary0to1
    {
        type            processor;
        value           nonuniform List<scalar> 
12
(
1.63288e-65
3.64553e-65
3.48862e-65
6.59698e-65
7.21163e-65
7.12947e-65
7.05468e-65
5.5798e-65
8.90571e-65
6.58802e-65
7.05277e-65
5.73476e-65
)
;
    }
    procBoundary0to2
    {
        type            processor;
        value           nonuniform List<scalar> 
44
(
6.50972e-65
4.88225e-65
2.55733e-65
4.8821e-65
3.02241e-65
4.10751e-65
5.73495e-65
6.50995e-65
6.50972e-65
5.11493e-65
6.50972e-65
4.88225e-65
8.44679e-65
9.76397e-65
5.73478e-65
9.22253e-65
5.42499e-65
6.81998e-65
7.67237e-65
7.82724e-65
8.44679e-65
6.9747e-65
8.44679e-65
9.76397e-65
7.59464e-65
8.13731e-65
7.28501e-65
4.96003e-65
5.50251e-65
6.1223e-65
5.57981e-65
7.12973e-65
7.59464e-65
8.36968e-65
7.59464e-65
8.13731e-65
4.80505e-65
8.13774e-65
8.37039e-65
6.50968e-65
6.81967e-65
5.88984e-65
6.27734e-65
7.74985e-65
)
;
    }
    procBoundary0to4
    {
        type            processor;
        value           nonuniform List<scalar> 
36
(
5.19245e-65
7.36242e-65
7.51731e-65
5.57984e-65
5.96721e-65
5.65723e-65
7.59447e-65
6.74217e-65
8.9122e-65
7.74993e-65
6.35498e-65
7.36237e-65
8.60213e-65
8.21454e-65
7.51709e-65
6.35472e-65
5.42484e-65
9.06724e-65
6.97501e-65
8.75758e-65
6.66501e-65
8.44711e-65
6.6647e-65
5.96728e-65
6.12229e-65
9.68713e-65
5.65743e-65
4.34005e-65
5.73514e-65
7.59537e-65
5.19223e-65
7.3621e-65
6.35478e-65
9.2221e-65
5.96741e-65
5.96747e-65
)
;
    }
    procBoundary0to6
    {
        type            processor;
        value           uniform 6.74248e-65;
    }
    procBoundary0to7
    {
        type            processor;
        value           uniform 9.92005e-65;
    }
}


// ************************************************************************* //
