/*--------------------------------*- C++ -*----------------------------------*\
| =========                 |                                                 |
| \\      /  F ield         | OpenFOAM: The Open Source CFD Toolbox           |
|  \\    /   O peration     | Version:  4.x                                   |
|   \\  /    A nd           | Web:      www.OpenFOAM.org                      |
|    \\/     M anipulation  |                                                 |
\*---------------------------------------------------------------------------*/
FoamFile
{
    version     2.0;
    format      ascii;
    class       volScalarField;
    location    "54.5";
    object      thCond;
}
// * * * * * * * * * * * * * * * * * * * * * * * * * * * * * * * * * * * * * //

dimensions      [1 1 -3 -1 0 0 0];

internalField   nonuniform List<scalar> 
132
(
193.181
193.186
193.264
193.229
193.047
192.858
192.778
192.913
192.972
193.196
193.029
192.97
192.838
192.88
192.568
192.608
192.569
192.657
193.363
192.905
192.805
192.645
192.606
192.561
192.55
192.426
192.161
193.204
192.884
192.807
192.84
192.376
192.088
192.063
191.994
191.918
191.97
191.934
191.988
192.578
192.144
192.095
191.92
191.797
191.724
191.649
191.596
191.685
192.377
192.011
191.952
191.82
191.583
191.596
191.378
191.583
191.601
192.099
192.058
191.922
191.782
191.311
192.214
191.861
191.583
191.516
191.442
191.488
191.299
191.287
191.436
191.962
191.67
191.522
191.396
191.201
191.237
191.004
190.888
190.961
191.702
191.594
191.349
191.043
190.897
190.873
190.816
190.968
191.021
191.582
191.427
191.167
190.911
190.769
190.715
190.654
192.072
191.734
191.401
191.297
191.122
190.958
191.078
191.133
190.96
191.75
191.306
191.082
190.975
190.918
190.814
190.605
190.713
190.674
191.701
191.385
190.933
190.795
190.611
190.444
190.504
190.654
190.457
191.546
191.214
190.736
190.478
190.648
190.264
190.341
190.582
190.694
)
;

boundaryField
{
    inlet
    {
        type            zeroGradient;
    }
    outlet
    {
        type            zeroGradient;
    }
    wall
    {
        type            zeroGradient;
    }
    procBoundary0to1
    {
        type            processor;
        value           nonuniform List<scalar> 
12
(
193.139
192.731
192.296
191.936
191.663
191.346
191.177
191.011
190.573
190.696
190.43
190.288
)
;
    }
    procBoundary0to2
    {
        type            processor;
        value           nonuniform List<scalar> 
44
(
192.386
192.349
192.519
192.246
192.37
192.126
192.781
192.52
192.386
192.529
192.386
192.349
191.252
191.05
191.394
191.121
192.231
191.945
191.699
191.552
191.252
191.457
191.252
191.05
190.734
190.65
191.636
191.593
191.318
191.088
191.018
190.809
190.734
190.583
190.734
190.65
191.402
190.976
190.704
190.651
190.561
190.515
190.397
190.35
)
;
    }
    procBoundary0to4
    {
        type            processor;
        value           nonuniform List<scalar> 
36
(
191.727
191.287
190.972
190.947
190.839
190.784
190.571
190.468
190.128
191.311
191.111
190.795
190.519
190.465
190.472
190.452
190.389
190.034
191.24
190.851
190.663
190.362
190.36
190.363
190.27
190.032
190.183
191.294
190.961
190.595
190.468
190.226
190.185
189.933
190.182
190.176
)
;
    }
    procBoundary0to6
    {
        type            processor;
        value           uniform 190.367;
    }
    procBoundary0to7
    {
        type            processor;
        value           uniform 189.9;
    }
}


// ************************************************************************* //
