/*--------------------------------*- C++ -*----------------------------------*\
| =========                 |                                                 |
| \\      /  F ield         | OpenFOAM: The Open Source CFD Toolbox           |
|  \\    /   O peration     | Version:  4.x                                   |
|   \\  /    A nd           | Web:      www.OpenFOAM.org                      |
|    \\/     M anipulation  |                                                 |
\*---------------------------------------------------------------------------*/
FoamFile
{
    version     2.0;
    format      ascii;
    class       volVectorField;
    location    "54.5";
    object      U;
}
// * * * * * * * * * * * * * * * * * * * * * * * * * * * * * * * * * * * * * //

dimensions      [0 1 -1 0 0 0 0];

internalField   nonuniform List<vector> 
132
(
(0.03008 -0.000365065 -0.00130872)
(0.0144947 -0.000235435 -0.000936352)
(0.0332261 -0.000345369 -0.00148205)
(0.0191584 -0.00017878 -0.000970963)
(0.0365025 -9.89324e-05 -0.00122626)
(0.022719 -7.35198e-05 -0.000902171)
(0.0391141 0.000197566 -0.000927769)
(0.0256666 -8.92382e-06 -0.000984363)
(0.0407173 0.000333439 -0.000865271)
(0.0301501 -0.00103884 -0.00149013)
(0.013836 -0.000784165 -0.00089909)
(0.0326248 -0.00120583 -0.00159621)
(0.0174349 -0.000853554 -0.000988086)
(0.035289 -0.000957382 -0.00143492)
(0.0203334 -0.000848973 -0.000898394)
(0.0374764 -0.000739222 -0.00116636)
(0.0227444 -0.00119782 -0.000900962)
(0.0389261 -0.000710877 -0.000927875)
(0.0302566 -0.000580463 -0.00165234)
(0.0133552 -0.000368583 -0.000875067)
(0.0322079 -0.000552481 -0.00171887)
(0.0161948 -0.000512959 -0.000952985)
(0.0341573 -0.000242886 -0.00157754)
(0.0182718 -0.000413792 -0.00090886)
(0.0356723 0.00012698 -0.00129482)
(0.0198336 -0.000502447 -0.000703467)
(0.0364046 0.000382618 -0.000754812)
(0.0301896 -0.000478484 -0.00162785)
(0.0135834 -0.000203696 -0.000798793)
(0.0322676 -0.00032723 -0.0015427)
(0.0299713 -0.000537626 -0.00208688)
(0.012779 -0.000212959 -0.00123407)
(0.031751 -0.000474843 -0.00197398)
(0.0146533 -0.000229705 -0.00113469)
(0.0333027 -0.000333617 -0.00128103)
(0.0160999 -0.000124132 -0.000956541)
(0.0344912 -8.51085e-05 -0.000739709)
(0.0173107 2.79132e-06 -0.00087107)
(0.0350892 0.00016101 -0.000317577)
(0.0300249 -0.00132997 -0.00236905)
(0.0114354 -0.000663473 -0.00118379)
(0.0307817 -0.00139662 -0.00218275)
(0.0115191 -0.000706553 -0.00104216)
(0.0314778 -0.00122879 -0.00151292)
(0.0110448 -0.00067574 -0.000816418)
(0.0319158 -0.00101132 -0.000957273)
(0.0103877 -0.000703025 -0.000737354)
(0.0320079 -0.000639166 -0.000319921)
(0.0299742 -0.000693912 -0.00263931)
(0.0104075 -0.000229075 -0.00120324)
(0.0301694 -0.000474518 -0.00247452)
(0.00916617 -0.000367912 -0.000938358)
(0.0303134 -0.000271277 -0.00163135)
(0.00728561 -0.000270876 -0.000680176)
(0.0301744 0.000271366 -0.000872948)
(0.00510602 -0.000283534 -0.000724811)
(0.0298659 0.000568997 -0.00017751)
(0.0297882 -0.00018302 -0.0028115)
(0.0108908 -0.000109902 -0.00138928)
(0.0299586 -0.000160134 -0.00259658)
(0.00980856 -0.000103711 -0.00114901)
(0.0305913 0.000103805 -0.00186541)
(0.0298735 -0.000665198 -0.00180368)
(0.0126172 -0.000292093 -0.00111839)
(0.0312052 -0.000621847 -0.00182676)
(0.0139247 -0.000284482 -0.0012482)
(0.0326188 -0.000460297 -0.00144003)
(0.015055 -0.00018642 -0.00134514)
(0.0338669 -0.000170656 -0.000931999)
(0.0161394 -0.000130176 -0.00167909)
(0.0347197 0.000246063 -0.00064349)
(0.0298401 -0.00158136 -0.0020188)
(0.0110975 -0.000832827 -0.00111532)
(0.0302 -0.00171559 -0.00193675)
(0.0103975 -0.000767726 -0.00108175)
(0.0307011 -0.00133624 -0.00141016)
(0.00952449 -0.000693665 -0.00105549)
(0.0311134 -0.000917496 -0.000944136)
(0.00888034 -0.00102505 -0.0012427)
(0.0316732 -0.000504986 -0.000535179)
(0.0297134 -0.00104409 -0.00212987)
(0.00985676 -0.000535579 -0.00120664)
(0.0293813 -0.000940052 -0.00208554)
(0.00702296 -0.000504209 -0.00102513)
(0.0291479 -0.000546078 -0.00145688)
(0.00438975 -0.0003529 -0.000761399)
(0.0288584 -0.000131453 -0.000696229)
(0.00314821 -0.000507166 -0.000874754)
(0.029245 1.11719e-05 0.000777891)
(0.029592 -0.00038168 -0.00200053)
(0.00972489 -0.000219387 -0.00125558)
(0.029055 -0.000490725 -0.00133675)
(0.00674225 -0.000300176 -0.0014031)
(0.0293643 -0.000474916 -0.00109541)
(0.00491642 -0.000498189 -0.000681427)
(0.0294199 -0.000418084 -0.000697039)
(0.0299478 -0.000780153 -0.0013127)
(0.0125464 -0.000355933 -0.00086816)
(0.0310147 -0.000678227 -0.00134343)
(0.0134253 -0.00032901 -0.000916975)
(0.0320302 -0.00045614 -0.00091129)
(0.0138957 -0.00021318 -0.00101713)
(0.0324059 -0.000309939 -0.000417998)
(0.0137813 -8.62563e-05 -0.00119223)
(0.0323639 -2.9369e-05 1.09565e-05)
(0.0298266 -0.00166759 -0.00150338)
(0.0103843 -0.00093097 -0.000812706)
(0.0295777 -0.00174194 -0.00152113)
(0.00816526 -0.000872111 -0.000683147)
(0.0296774 -0.00145685 -0.000929307)
(0.00622707 -0.00064522 -0.000638016)
(0.0294083 -0.00106245 -0.000441244)
(0.00388086 -0.000621766 -0.00068736)
(0.0293165 0.000396231 -0.000287833)
(0.0295869 -0.000695868 -0.0015207)
(0.00917446 -0.000482537 -0.00077132)
(0.0285848 6.46311e-05 -0.00134023)
(0.00447829 -0.000895888 -0.000442916)
(0.0281449 -3.54718e-05 -0.000705787)
(0.00054234 -0.000205111 -0.000257054)
(0.0272168 0.000412544 -0.000331428)
(-0.0023602 -0.000664588 -0.00143299)
(0.026349 0.00054755 -0.000132941)
(0.0295124 -0.000146976 -0.00141258)
(0.010484 2.45106e-05 -0.000879461)
(0.0283868 0.000208012 -0.0015072)
(0.00567929 9.00384e-05 -0.000657258)
(0.0297683 0.000456005 -0.00122248)
(0.00448863 -1.09065e-05 -0.000624132)
(0.0292807 0.000438735 -0.000872234)
(0.00337985 -5.03763e-05 -0.000584732)
(0.0287037 -0.000279746 -0.000514321)
)
;

boundaryField
{
    inlet
    {
        type            fixedValue;
        value           uniform (0.01 0 0);
    }
    outlet
    {
        type            zeroGradient;
    }
    wall
    {
        type            fixedValue;
        value           uniform (0 0 0);
    }
    procBoundary0to1
    {
        type            processor;
        value           nonuniform List<vector> 
12
(
(0.0284651 0.000327468 -0.00108335)
(0.0245017 -0.00115808 -0.000913734)
(0.0207073 -0.000449534 -0.000822639)
(0.0181038 0.000294506 -0.00067496)
(0.00977511 -0.000732584 -0.000559661)
(0.00269032 -0.000344561 -0.000863554)
(0.0171563 0.000193484 -0.00196303)
(0.00920992 -0.00109538 -0.001382)
(0.00228407 -0.000551837 -0.000970707)
(0.0121286 0.000152924 -0.000965572)
(0.00171638 -0.000528541 -0.00057118)
(-0.00121437 -0.000189511 -0.000195793)
)
;
    }
    procBoundary0to2
    {
        type            processor;
        value           nonuniform List<vector> 
44
(
(0.0166974 -0.000307429 -0.000914723)
(0.0344938 -0.000154882 -0.0014865)
(0.0192879 -0.000532998 -0.000750115)
(0.0362869 8.01196e-05 -0.00100662)
(0.0212606 -0.000665415 -0.000398427)
(0.0379005 0.000416867 -0.000573424)
(0.0300283 5.88213e-05 -0.00131538)
(0.0127328 -7.12555e-06 -0.000750582)
(0.0166974 -0.000307429 -0.000914723)
(0.0315548 0.000125966 -0.00152674)
(0.0166974 -0.000307429 -0.000914723)
(0.0344938 -0.000154882 -0.0014865)
(0.00847232 -0.000276297 -0.000767307)
(0.0307733 0.000304422 -0.00120998)
(0.00743491 -0.000516376 -0.000737152)
(0.0312328 0.000479504 -0.000672464)
(0.0299497 0.000381928 -0.00255753)
(0.0105607 6.77407e-05 -0.00128965)
(0.0300254 0.000320849 -0.00266561)
(0.00889149 0.000240409 -0.00103034)
(0.00847232 -0.000276297 -0.000767307)
(0.0299321 0.000604227 -0.0020076)
(0.00847232 -0.000276297 -0.000767307)
(0.0307733 0.000304422 -0.00120998)
(0.00444822 -0.0005411 -0.000669354)
(0.0298257 0.000458668 -0.000419781)
(0.0297646 0.000410569 -0.00210282)
(0.00972111 8.11871e-05 -0.00106867)
(0.0290384 2.28703e-05 -0.00172632)
(0.00630637 7.57833e-05 -0.000755436)
(0.0284855 -0.000140137 -0.00110165)
(0.00268296 -0.000234516 -0.000342162)
(0.00444822 -0.0005411 -0.000669354)
(0.0280576 -0.000410812 -0.000517168)
(0.00444822 -0.0005411 -0.000669354)
(0.0298257 0.000458668 -0.000419781)
(0.0296796 0.0005485 -0.001766)
(0.00942898 0.000449377 -0.000758603)
(0.0288016 8.73347e-05 -0.00148457)
(0.00579809 0.000901881 -0.000563546)
(0.0286969 0.000618578 -0.000861898)
(0.00326009 8.15935e-05 -0.000341144)
(0.0284118 0.000628376 -0.000127083)
(0.00116336 -0.000210665 -0.000208165)
)
;
    }
    procBoundary0to4
    {
        type            processor;
        value           nonuniform List<vector> 
36
(
(0.029918 -0.000886206 -0.000607229)
(0.012895 -0.000411453 -0.000420254)
(0.0309822 -0.000913558 -0.000583062)
(0.0137267 -0.000394178 -0.000454185)
(0.0318988 -0.000647297 -0.000140147)
(0.0143345 -0.000227994 -0.00049538)
(0.0327485 -0.000399431 6.31915e-05)
(0.0147398 -0.000302116 -0.000631937)
(0.0336389 -0.000360956 0.0004474)
(0.0296971 -0.00179597 -0.000526236)
(0.0106372 -0.0009418 -0.000299024)
(0.0294497 -0.00181702 -0.000454398)
(0.00840546 -0.000691967 -0.000216859)
(0.029551 -0.00132311 -4.08029e-05)
(0.00683928 -0.000503358 -0.000326267)
(0.0296634 -0.00110491 0.000210822)
(0.00549633 -0.000381352 -0.000385084)
(0.0301422 -0.00095103 0.000582682)
(0.0296632 -0.000968296 -0.000463349)
(0.00956126 -0.000632262 -0.000173388)
(0.0288128 -0.000954114 -0.000336522)
(0.00609127 -0.000570509 6.87609e-05)
(0.0286161 -0.000880032 0.000171267)
(0.00341376 -0.000388504 -6.85353e-05)
(0.0287774 -0.00058778 0.00034624)
(0.000754759 -0.000279228 -7.19447e-05)
(0.028456 -0.000186818 -0.000507151)
(0.0296702 -0.000646891 -0.000803112)
(0.00975508 -0.000205962 -0.000192533)
(0.0286258 -0.000650808 -0.00129397)
(0.00590191 -0.000328095 0.000413281)
(0.0285068 -0.000601553 -0.000466451)
(0.00268418 -0.000338801 -0.000149391)
(0.0280913 -0.000119563 -0.000167393)
(-1.05041e-05 -0.000429939 -0.000311957)
(0.0277421 0.000415045 0.000217183)
)
;
    }
    procBoundary0to6
    {
        type            processor;
        value           uniform (0.0284044 0.000755855 -0.000307837);
    }
    procBoundary0to7
    {
        type            processor;
        value           uniform (0.00186859 -1.08281e-05 -0.000575244);
    }
}


// ************************************************************************* //
