/*--------------------------------*- C++ -*----------------------------------*\
| =========                 |                                                 |
| \\      /  F ield         | OpenFOAM: The Open Source CFD Toolbox           |
|  \\    /   O peration     | Version:  4.x                                   |
|   \\  /    A nd           | Web:      www.OpenFOAM.org                      |
|    \\/     M anipulation  |                                                 |
\*---------------------------------------------------------------------------*/
FoamFile
{
    version     2.0;
    format      ascii;
    class       volVectorField;
    location    "54.5";
    object      Urel;
}
// * * * * * * * * * * * * * * * * * * * * * * * * * * * * * * * * * * * * * //

dimensions      [0 1 -1 0 0 0 0];

internalField   nonuniform List<vector> 
132
(
(-0.0239378 0.000464829 0.00126345)
(-0.0223501 0.00043575 0.00119021)
(-0.0237127 0.00043354 0.0011921)
(-0.0229644 0.000373343 0.00106866)
(-0.0245312 0.000340802 0.00101804)
(-0.0239412 0.000269015 0.000886945)
(-0.0254342 0.000230824 0.000835743)
(-0.0248012 0.000158214 0.000734235)
(-0.0262252 0.000101786 0.000682735)
(-0.0238377 0.000489841 0.00129349)
(-0.0221413 0.000455 0.00120071)
(-0.0234313 0.000474395 0.00120678)
(-0.0225112 0.000404075 0.00107664)
(-0.0240255 0.000389642 0.00103266)
(-0.0232565 0.000310782 0.000887043)
(-0.0247372 0.000299486 0.000835053)
(-0.0239287 0.000240578 0.000710157)
(-0.0253548 0.000205817 0.000659737)
(-0.02372 0.000347817 0.00132017)
(-0.0219232 0.000315611 0.00120878)
(-0.0231378 0.000324732 0.00121893)
(-0.0220543 0.000277016 0.00107501)
(-0.0234917 0.000255076 0.00103574)
(-0.0225492 0.000201981 0.000874235)
(-0.0239803 0.000186406 0.000812083)
(-0.0229992 0.000140483 0.000657141)
(-0.0243979 0.00012002 0.000602365)
(-0.0236518 0.000146868 0.00131243)
(-0.0218358 0.000121126 0.00119728)
(-0.0230125 0.00012327 0.00120249)
(-0.0237332 0.000502171 0.00129742)
(-0.0219554 0.000456875 0.00118992)
(-0.0231818 0.000460341 0.00119463)
(-0.0220869 0.000396277 0.00103921)
(-0.0235627 0.000371597 0.000978959)
(-0.0226089 0.000289619 0.000832335)
(-0.0240876 0.000253669 0.000769239)
(-0.0230984 0.000165196 0.000655701)
(-0.0245559 0.00011297 0.00058675)
(-0.0236057 0.000529167 0.00133299)
(-0.0216783 0.00046889 0.00120074)
(-0.022827 0.000498236 0.00121255)
(-0.021495 0.000412269 0.00103766)
(-0.0229381 0.000411659 0.000986263)
(-0.0216967 0.00031231 0.00081612)
(-0.0232257 0.000304271 0.000757456)
(-0.0219172 0.000212124 0.000618529)
(-0.0235046 0.000189997 0.000553178)
(-0.023454 0.000364665 0.00136607)
(-0.0213971 0.000316905 0.00121308)
(-0.0224678 0.000328699 0.00123483)
(-0.0209147 0.000268944 0.00103532)
(-0.022317 0.00025534 0.000987555)
(-0.0208151 0.000192547 0.000793629)
(-0.0223713 0.000170203 0.00072053)
(-0.0207752 0.000121603 0.000570619)
(-0.0224646 9.66939e-05 0.000496727)
(-0.0233769 0.000123319 0.00137514)
(-0.0213111 0.000107499 0.0012209)
(-0.0223277 0.000107157 0.00124125)
(-0.02074 8.32729e-05 0.00103372)
(-0.0220998 7.79109e-05 0.000989451)
(-0.0235153 0.000548899 0.00115639)
(-0.0216317 0.000494462 0.00106139)
(-0.0227095 0.000500688 0.00106689)
(-0.021411 0.000425718 0.000930978)
(-0.0227577 0.000402426 0.000880295)
(-0.0215958 0.000311363 0.000756855)
(-0.0229988 0.000273958 0.00069895)
(-0.0218119 0.000178959 0.000618045)
(-0.0232273 0.000121295 0.000559494)
(-0.0233571 0.000577945 0.00118395)
(-0.0213019 0.000506516 0.00106866)
(-0.0222936 0.000543851 0.001075)
(-0.0207114 0.000440246 0.00090946)
(-0.0220407 0.000439321 0.000860027)
(-0.0205445 0.000326208 0.000715833)
(-0.0220351 0.000306048 0.000660344)
(-0.0204962 0.000217418 0.000553823)
(-0.022104 0.000182285 0.000496952)
(-0.0231745 0.000402492 0.0012018)
(-0.0209653 0.000348582 0.00107464)
(-0.0218599 0.000368581 0.00108136)
(-0.0199984 0.000288865 0.000889311)
(-0.0213179 0.000280945 0.000834469)
(-0.0195097 0.000206871 0.00066702)
(-0.0210864 0.000186911 0.000584725)
(-0.019261 0.000136869 0.000483125)
(-0.0209859 0.000115628 0.000391472)
(-0.0230915 0.000129954 0.00119805)
(-0.0208436 0.000112849 0.00107015)
(-0.0216973 0.000120356 0.00106821)
(-0.0197713 9.5399e-05 0.000871173)
(-0.0210765 0.000102723 0.000811965)
(-0.0192214 8.65878e-05 0.000649151)
(-0.0208024 9.50927e-05 0.000578566)
(-0.0233829 0.000588022 0.000875641)
(-0.0214348 0.000525935 0.000806743)
(-0.0224214 0.000529781 0.000803212)
(-0.0209812 0.000442143 0.000701532)
(-0.0222272 0.000414429 0.000651783)
(-0.0208965 0.000325448 0.000560081)
(-0.0222161 0.000286181 0.000504373)
(-0.0208416 0.000192572 0.000436158)
(-0.0221975 0.000134647 0.000360247)
(-0.0231979 0.000609005 0.000889206)
(-0.0210458 0.000531531 0.000801884)
(-0.021941 0.00056476 0.000798016)
(-0.0201528 0.00044728 0.000669138)
(-0.0214227 0.000440782 0.000620483)
(-0.0196966 0.000326181 0.000509364)
(-0.0211791 0.000285976 0.000461425)
(-0.0193855 0.000205539 0.000377319)
(-0.0210284 0.000138272 0.000329139)
(-0.0229995 0.000398662 0.000891387)
(-0.0206906 0.000346809 0.00079347)
(-0.0214806 0.000352823 0.000775845)
(-0.0194065 0.000275621 0.00063386)
(-0.0206745 0.000251767 0.000579306)
(-0.0186405 0.000189864 0.000459599)
(-0.0202303 0.000148037 0.000413407)
(-0.0182261 0.000116978 0.000320912)
(-0.0199629 7.34582e-05 0.000265313)
(-0.0229259 0.00011197 0.000888299)
(-0.0206038 8.89957e-05 0.000794229)
(-0.0213539 7.63114e-05 0.000779355)
(-0.0192685 6.2384e-05 0.000639845)
(-0.0205032 4.95061e-05 0.000594444)
(-0.0185005 4.74e-05 0.000470324)
(-0.0200485 4.98182e-05 0.000422117)
(-0.0180596 3.61764e-05 0.000332783)
(-0.0197718 3.50896e-05 0.000275985)
)
;

boundaryField
{
    inlet
    {
        type            calculated;
        value           nonuniform List<vector> 
16
(
(-0.00999995 5.09519e-08 4.00581e-08)
(-0.00999987 1.30373e-07 6.22027e-08)
(-0.00999963 1.16828e-07 1.32225e-07)
(-0.00999984 5.53745e-08 5.24912e-08)
(-0.00999996 3.12217e-08 2.16102e-08)
(-0.00999985 8.39032e-08 3.96121e-08)
(-0.0099998 8.84752e-08 5.11296e-08)
(-0.00999981 6.67797e-08 8.40478e-08)
(-0.00999995 3.61531e-08 6.3998e-09)
(-0.00999992 9.25231e-08 3.57834e-08)
(-0.00999988 6.58591e-08 4.61128e-08)
(-0.00999991 4.53331e-08 7.3981e-08)
(-0.00999996 3.00853e-08 4.53496e-09)
(-0.00999995 6.21377e-08 5.24392e-09)
(-0.00999982 7.7883e-08 3.97384e-08)
(-0.0099999 4.64758e-08 5.54553e-08)
)
;
    }
    outlet
    {
        type            calculated;
        value           nonuniform 0();
    }
    wall
    {
        type            calculated;
        value           nonuniform List<vector> 
66
(
(5.05695e-08 5.09519e-08 4.00581e-08)
(1.33748e-07 1.30373e-07 6.22027e-08)
(3.7233e-07 1.16828e-07 1.32225e-07)
(1.60024e-07 5.53745e-08 5.24912e-08)
(1.06914e-07 6.75143e-08 8.57287e-08)
(3.66224e-07 8.91644e-08 1.72818e-07)
(5.364e-07 1.04743e-07 2.35726e-07)
(5.45397e-07 9.21669e-08 2.31333e-07)
(3.08799e-07 2.05412e-07 8.08549e-08)
(7.679e-07 2.33157e-07 3.23887e-07)
(7.95559e-07 1.18313e-07 3.78896e-07)
(7.43269e-07 7.80221e-08 3.01614e-07)
(6.23685e-07 1.95808e-07 2.56618e-07)
(9.63729e-07 2.46561e-07 4.88561e-07)
(1.03512e-06 2.47395e-07 4.77495e-07)
(9.84393e-07 4.10865e-07 7.10558e-08)
(1.17863e-06 3.81654e-07 5.32828e-07)
(1.23426e-06 4.10435e-07 6.48058e-07)
(1.37134e-06 3.43644e-07 2.39247e-07)
(1.55694e-06 6.92351e-07 5.99811e-07)
(1.42845e-06 9.12948e-07 7.53579e-07)
(1.4192e-06 1.24268e-06 1.70461e-06)
(7.62964e-07 2.17897e-06 1.97104e-06)
(5.83508e-07 2.23277e-06 1.85478e-06)
(-8.87546e-07 2.71383e-08 4.30967e-06)
(-3.31449e-06 4.59773e-06 1.92959e-06)
(-8.04143e-09 3.66374e-06 2.91727e-06)
(-2.37093e-05 9.34564e-06 1.55515e-06)
(-8.99257e-06 2.93927e-06 6.31918e-06)
(-2.11917e-06 2.90458e-06 1.74453e-06)
(5.05695e-08 5.09519e-08 4.00581e-08)
(3.6476e-08 3.12217e-08 2.16102e-08)
(4.65608e-08 3.61531e-08 6.3998e-09)
(3.60717e-08 3.00853e-08 4.53496e-09)
(1.06914e-07 6.75143e-08 8.57287e-08)
(1.40818e-07 9.97433e-08 5.90403e-08)
(1.09548e-07 5.36892e-08 -1.31712e-09)
(8.45516e-08 5.60408e-08 -1.98017e-08)
(3.08799e-07 2.05412e-07 8.08549e-08)
(2.54609e-07 1.438e-07 8.97646e-08)
(1.82318e-07 7.91327e-08 8.21326e-08)
(1.67308e-07 1.90047e-08 4.75634e-08)
(6.23685e-07 1.95808e-07 2.56618e-07)
(6.55406e-07 1.17958e-07 2.5026e-07)
(4.84686e-07 7.59045e-08 2.13975e-07)
(4.49485e-07 6.07777e-08 1.54881e-07)
(9.84393e-07 4.10865e-07 7.10558e-08)
(9.01594e-07 1.68384e-07 1.65177e-07)
(6.82527e-07 4.41997e-08 1.91958e-07)
(5.03246e-07 5.12688e-08 1.19204e-07)
(1.37134e-06 3.43644e-07 2.39247e-07)
(9.85915e-07 5.18964e-07 2.61514e-07)
(9.00258e-07 3.56226e-07 3.70642e-07)
(5.51055e-07 1.72254e-07 2.27811e-07)
(1.4192e-06 1.24268e-06 1.70461e-06)
(3.94955e-07 4.48355e-07 1.48566e-06)
(6.83826e-07 7.43138e-07 9.58054e-07)
(4.66349e-07 3.49737e-07 3.55394e-07)
(-8.87546e-07 2.71383e-08 4.30967e-06)
(-5.87195e-06 6.75067e-07 4.85698e-06)
(-7.7561e-07 6.28056e-07 2.53548e-06)
(7.02416e-08 -5.07035e-08 2.36416e-06)
(-2.37093e-05 9.34564e-06 1.55515e-06)
(-1.43882e-05 -1.21318e-08 3.19632e-06)
(-2.93837e-06 -6.33782e-07 5.27331e-06)
(-8.52415e-09 -1.3595e-07 4.22159e-06)
)
;
    }
    procBoundary0to1
    {
        type            processor;
        value           nonuniform List<vector> 
12
(
(-0.0255295 1.85177e-05 0.000615881)
(-0.0244729 0.000139943 0.00057993)
(-0.023323 7.29141e-05 0.000506153)
(-0.0234895 2.21323e-05 0.000515736)
(-0.022104 0.00011253 0.000467105)
(-0.0207407 6.18974e-05 0.00041142)
(-0.0219513 2.61994e-05 0.000516055)
(-0.0205078 0.000121978 0.000437724)
(-0.0191074 7.76497e-05 0.000346235)
(-0.0206642 5.67149e-05 0.000293522)
(-0.0191349 9.46851e-05 0.000254868)
(-0.0180109 5.52222e-05 0.00021268)
)
;
    }
    procBoundary0to2
    {
        type            processor;
        value           nonuniform List<vector> 
44
(
(-0.0218901 0.000102391 0.00105537)
(-0.0232903 0.000101352 0.00101328)
(-0.02231 9.09126e-05 0.000844495)
(-0.0237239 9.43602e-05 0.000767248)
(-0.0227256 7.72099e-05 0.000608533)
(-0.0241361 7.77434e-05 0.000536202)
(-0.0236572 -0.0001113 0.00126414)
(-0.0218151 -0.000104148 0.00116772)
(-0.0218901 0.000102391 0.00105537)
(-0.0229941 -0.000116025 0.00117317)
(-0.0218901 0.000102391 0.00105537)
(-0.0232903 0.000101352 0.00101328)
(-0.0205682 6.80659e-05 0.000789023)
(-0.0221122 6.85279e-05 0.000716807)
(-0.0205318 5.39969e-05 0.000562248)
(-0.0222127 4.61639e-05 0.000486362)
(-0.0234175 -0.000151262 0.00133925)
(-0.0213463 -0.000128344 0.00119931)
(-0.0223759 -0.00014603 0.00122444)
(-0.0207627 -0.000126958 0.00102433)
(-0.0205682 6.80659e-05 0.000789023)
(-0.0221425 -0.000129986 0.000982634)
(-0.0205682 6.80659e-05 0.000789023)
(-0.0221122 6.85279e-05 0.000716807)
(-0.0189547 7.40257e-05 0.000467905)
(-0.0206853 5.67927e-05 0.000400008)
(-0.0231462 -0.000173166 0.00118573)
(-0.0209085 -0.000143175 0.00105144)
(-0.0217652 -0.000148524 0.00104549)
(-0.019842 -0.000119855 0.000860022)
(-0.0211393 -0.000103963 0.000799245)
(-0.019242 -6.7179e-05 0.000633131)
(-0.0189547 7.40257e-05 0.000467905)
(-0.0208298 -2.61464e-05 0.000552542)
(-0.0189547 7.40257e-05 0.000467905)
(-0.0206853 5.67927e-05 0.000400008)
(-0.0229729 -0.000207397 0.000899513)
(-0.0206532 -0.000181905 0.000786582)
(-0.0214314 -0.000203383 0.000773477)
(-0.0193718 -0.000152731 0.000637836)
(-0.020621 -0.000156025 0.000579751)
(-0.01863 -0.000101059 0.00046126)
(-0.0201843 -8.87843e-05 0.000385454)
(-0.0181798 -4.60495e-05 0.00032504)
)
;
    }
    procBoundary0to4
    {
        type            processor;
        value           nonuniform List<vector> 
36
(
(-0.0233615 0.000605815 0.000512179)
(-0.0214306 0.000539641 0.000475672)
(-0.0223753 0.000544829 0.000459848)
(-0.0209248 0.000453053 0.000411415)
(-0.0221332 0.000423603 0.000358981)
(-0.0208054 0.000330226 0.000311887)
(-0.0221058 0.000296687 0.000258033)
(-0.0207635 0.000221859 0.000210681)
(-0.022131 0.000189921 0.000120371)
(-0.0231705 0.000625627 0.000497364)
(-0.0210395 0.000542655 0.000454525)
(-0.0218924 0.000569182 0.00042809)
(-0.0201085 0.000451262 0.000373773)
(-0.0213538 0.00044153 0.000319853)
(-0.0196496 0.000330944 0.000270744)
(-0.0211024 0.000308624 0.000218358)
(-0.019357 0.000226558 0.000176885)
(-0.0209755 0.000190764 0.00010831)
(-0.0229798 0.000420668 0.000485487)
(-0.0206903 0.000366755 0.000436634)
(-0.0214453 0.000379725 0.000398528)
(-0.0194139 0.000300794 0.000337439)
(-0.0206446 0.000296031 0.000281726)
(-0.018674 0.000217074 0.000232921)
(-0.0202035 0.000193876 0.000200678)
(-0.0181865 0.000139164 0.000151708)
(-0.0199488 0.00010562 0.000121086)
(-0.0228948 0.000142775 0.00049691)
(-0.0205616 0.000109433 0.000438922)
(-0.0212677 0.000121036 0.000411544)
(-0.0191575 9.72446e-05 0.000346667)
(-0.0203598 0.000101883 0.000301602)
(-0.018295 7.64833e-05 0.000239757)
(-0.0198403 6.09061e-05 0.000206006)
(-0.0177685 6.04525e-05 0.000159462)
(-0.019539 6.03901e-05 0.00012459)
)
;
    }
    procBoundary0to6
    {
        type            processor;
        value           uniform (-0.01995 -4.02151e-05 0.000280004);
    }
    procBoundary0to7
    {
        type            processor;
        value           uniform (-0.0177934 2.37416e-05 0.000228781);
    }
}


// ************************************************************************* //
