/*--------------------------------*- C++ -*----------------------------------*\
| =========                 |                                                 |
| \\      /  F ield         | OpenFOAM: The Open Source CFD Toolbox           |
|  \\    /   O peration     | Version:  4.x                                   |
|   \\  /    A nd           | Web:      www.OpenFOAM.org                      |
|    \\/     M anipulation  |                                                 |
\*---------------------------------------------------------------------------*/
FoamFile
{
    version     2.0;
    format      ascii;
    class       volVectorField;
    location    "44.5";
    object      ddtUrel;
}
// * * * * * * * * * * * * * * * * * * * * * * * * * * * * * * * * * * * * * //

dimensions      [0 1 -2 0 0 0 0];

internalField   nonuniform List<vector> 
108
(
(-7.30812e-09 1.81207e-11 -2.02314e-10)
(-8.55632e-09 6.80504e-11 -1.9928e-10)
(-6.7248e-09 1.34727e-10 -2.37626e-10)
(-4.14061e-09 2.17598e-10 -2.59324e-10)
(-1.7914e-09 3.23907e-10 -2.74369e-10)
(3.36081e-10 4.96353e-10 -2.44556e-10)
(1.92181e-09 6.50986e-10 -2.53228e-10)
(3.55745e-09 6.89194e-10 -3.15624e-10)
(1.97329e-09 8.33638e-11 -1.48911e-09)
(-3.53426e-09 1.07352e-10 -2.91716e-10)
(-3.74938e-09 1.56558e-10 -3.29172e-10)
(-3.00422e-09 2.0519e-10 -3.75187e-10)
(-1.75234e-09 2.74854e-10 -4.24175e-10)
(-3.52396e-10 4.12216e-10 -5.08101e-10)
(1.27303e-09 6.77453e-10 -6.57243e-10)
(2.8926e-09 1.1457e-09 -9.96809e-10)
(4.93523e-09 1.78634e-09 -1.65854e-09)
(5.05616e-09 2.61767e-09 -3.13107e-09)
(-1.90352e-09 1.74269e-10 -2.76416e-10)
(-1.8809e-09 1.93993e-10 -3.2343e-10)
(-1.43707e-09 2.46973e-10 -3.8358e-10)
(-6.2318e-10 3.21577e-10 -4.82254e-10)
(5.0183e-10 5.27159e-10 -6.75986e-10)
(2.2417e-09 9.93455e-10 -1.05456e-09)
(4.81087e-09 2.07474e-09 -1.94843e-09)
(9.66323e-09 4.16195e-09 -3.80629e-09)
(1.48587e-08 8.02011e-09 -7.38073e-09)
(-1.46662e-09 1.56013e-10 -2.33334e-10)
(-1.48457e-09 2.2254e-10 -2.88627e-10)
(-1.20252e-09 3.50918e-10 -3.73254e-10)
(-3.29074e-10 3.79282e-10 -4.97891e-10)
(8.73334e-10 6.34501e-10 -7.8058e-10)
(3.04169e-09 1.30708e-09 -1.39328e-09)
(7.03926e-09 3.0579e-09 -3.01558e-09)
(1.7332e-08 7.69359e-09 -7.49923e-09)
(4.3203e-08 2.16756e-08 -2.22215e-08)
(-5.43356e-09 2.00387e-11 -2.29059e-10)
(-6.12636e-09 8.30987e-11 -2.47219e-10)
(-5.06419e-09 1.46641e-10 -2.69317e-10)
(-3.30789e-09 2.08327e-10 -2.67376e-10)
(-1.57317e-09 2.92936e-10 -2.83784e-10)
(-2.40601e-11 4.24649e-10 -2.49345e-10)
(1.17122e-09 5.89096e-10 -2.266e-10)
(2.05207e-09 7.11527e-10 -2.04138e-10)
(2.31467e-09 7.54328e-10 -6.51504e-10)
(-2.8078e-09 7.7005e-11 -2.91454e-10)
(-2.9596e-09 1.27796e-10 -3.36194e-10)
(-2.45936e-09 1.82375e-10 -3.75669e-10)
(-1.54181e-09 2.28939e-10 -4.18707e-10)
(-4.29125e-10 3.39016e-10 -4.85488e-10)
(7.77661e-10 5.43587e-10 -5.92961e-10)
(2.00782e-09 9.2042e-10 -7.87634e-10)
(3.21359e-09 1.39953e-09 -1.14183e-09)
(3.96525e-09 1.89419e-09 -1.72491e-09)
(-1.5864e-09 1.13366e-10 -2.67832e-10)
(-1.60079e-09 1.47419e-10 -3.13208e-10)
(-1.27174e-09 1.95155e-10 -3.62982e-10)
(-6.6441e-10 2.57456e-10 -4.49346e-10)
(2.12259e-10 4.12892e-10 -6.10448e-10)
(1.43491e-09 7.53489e-10 -8.88543e-10)
(3.11286e-09 1.46151e-09 -1.43671e-09)
(5.47843e-09 2.67523e-09 -2.41911e-09)
(7.96864e-09 4.18283e-09 -3.83835e-09)
(-1.23308e-09 1.20988e-10 -2.24751e-10)
(-1.28341e-09 1.67951e-10 -2.70218e-10)
(-9.64899e-10 2.2854e-10 -3.30671e-10)
(-4.0797e-10 3.00768e-10 -4.49818e-10)
(4.94302e-10 4.95713e-10 -6.74821e-10)
(1.89597e-09 9.7389e-10 -1.10306e-09)
(4.27659e-09 2.03482e-09 -2.03151e-09)
(8.61853e-09 4.14069e-09 -3.93118e-09)
(1.47696e-08 7.68899e-09 -7.28103e-09)
(-3.58292e-09 1.57546e-11 -2.24335e-10)
(-3.90675e-09 7.1153e-11 -2.53777e-10)
(-3.3398e-09 1.41418e-10 -2.85189e-10)
(-2.29642e-09 1.84714e-10 -2.70988e-10)
(-1.14594e-09 2.33296e-10 -2.78139e-10)
(-1.00992e-10 3.05046e-10 -2.32338e-10)
(7.18055e-10 3.95723e-10 -1.77012e-10)
(1.28656e-09 5.00848e-10 -1.33884e-10)
(1.70352e-09 5.81745e-10 -1.61914e-10)
(-2.03486e-09 6.35631e-11 -2.66231e-10)
(-2.12198e-09 1.05642e-10 -3.12109e-10)
(-1.81306e-09 1.68084e-10 -3.59188e-10)
(-1.20389e-09 1.7676e-10 -3.94172e-10)
(-4.1518e-10 2.34166e-10 -4.3976e-10)
(4.03129e-10 3.66205e-10 -4.87035e-10)
(1.1987e-09 5.92115e-10 -5.50413e-10)
(1.88353e-09 8.58357e-10 -6.76329e-10)
(2.38433e-09 1.09964e-09 -8.409e-10)
(-1.23812e-09 8.58577e-11 -2.46768e-10)
(-1.24764e-09 1.18421e-10 -2.93226e-10)
(-1.02972e-09 1.67172e-10 -3.45738e-10)
(-6.32139e-10 1.87798e-10 -4.10185e-10)
(-1.28775e-11 2.75025e-10 -5.20773e-10)
(7.60493e-10 4.78496e-10 -6.7428e-10)
(1.71607e-09 8.61772e-10 -9.24277e-10)
(2.79982e-09 1.41173e-09 -1.31888e-09)
(3.7563e-09 1.93406e-09 -1.7148e-09)
(-9.89717e-10 9.24787e-11 -2.12696e-10)
(-1.0216e-09 1.29539e-10 -2.55233e-10)
(-7.88021e-10 1.7563e-10 -3.1013e-10)
(-4.25695e-10 2.1351e-10 -3.98113e-10)
(1.6221e-10 3.25876e-10 -5.50396e-10)
(1.01126e-09 5.96735e-10 -7.91517e-10)
(2.20405e-09 1.12991e-09 -1.2024e-09)
(3.80143e-09 1.96883e-09 -1.88765e-09)
(5.46989e-09 2.88272e-09 -2.64814e-09)
)
;

boundaryField
{
    inlet
    {
        type            calculated;
        value           nonuniform 0();
    }
    outlet
    {
        type            calculated;
        value           nonuniform List<vector> 
12
(
(1.79006e-08 -1.02686e-09 1.74732e-10)
(2.6835e-08 -1.66257e-09 1.46951e-09)
(-1.3493e-09 5.92553e-09 2.82611e-09)
(3.05046e-07 1.51558e-07 -1.59702e-07)
(3.12143e-09 6.01762e-10 9.04825e-10)
(2.59957e-10 3.46484e-10 1.06989e-09)
(1.47834e-10 -4.22378e-11 4.10606e-10)
(-2.27192e-09 1.74627e-09 3.30295e-09)
(5.30033e-12 3.68073e-11 6.39145e-10)
(6.16255e-10 1.71086e-10 6.33875e-10)
(6.07298e-11 -6.19099e-10 1.19089e-09)
(-9.30045e-10 -8.38817e-10 1.9556e-09)
)
;
    }
    wall
    {
        type            calculated;
        value           nonuniform List<vector> 
63
(
(-3.27272e-09 5.13545e-13 -7.56488e-10)
(-1.36334e-09 3.4992e-10 -6.66018e-10)
(-7.58438e-11 8.66203e-10 -4.2791e-10)
(-7.12726e-10 2.05652e-10 -8.7349e-11)
(-5.52243e-09 -5.70129e-11 -6.51073e-10)
(-9.33096e-10 4.11471e-10 -6.8532e-10)
(5.60431e-10 2.59255e-10 -3.99942e-10)
(-7.87764e-10 2.63589e-10 -1.36639e-10)
(-7.78292e-10 7.5816e-11 -8.18463e-10)
(4.71159e-10 2.89924e-10 -7.61593e-10)
(1.55049e-09 1.63586e-10 -3.48731e-10)
(-2.85106e-09 1.35816e-09 -3.31392e-10)
(5.11282e-10 1.37449e-10 -6.17837e-10)
(1.51086e-09 2.23747e-10 -6.43054e-10)
(1.75004e-09 7.95701e-11 -3.90786e-10)
(3.24957e-11 5.68807e-11 -1.75516e-10)
(1.6372e-09 -2.59568e-11 -6.4343e-10)
(1.53641e-09 1.26256e-10 -5.76031e-10)
(1.53405e-09 1.12819e-10 -3.9803e-10)
(4.95162e-10 1.3141e-11 -3.20904e-10)
(5.97851e-09 3.2418e-10 -1.11084e-10)
(4.62342e-09 3.133e-11 -1.36711e-10)
(4.76651e-09 -1.75466e-10 1.50839e-11)
(5.74512e-09 -2.60572e-10 4.38663e-11)
(4.34717e-09 -8.60805e-10 -1.56621e-10)
(2.13888e-09 -5.83744e-11 3.04302e-11)
(3.66916e-09 1.05881e-09 4.05909e-10)
(3.35262e-09 -2.59796e-10 1.6806e-10)
(2.39789e-08 -3.97964e-10 3.90278e-09)
(1.17609e-08 -1.31711e-09 2.74043e-09)
(2.69504e-08 -8.89065e-10 2.67628e-09)
(2.73638e-08 -1.13989e-09 3.85735e-09)
(-2.15467e-08 -1.53195e-08 -9.33344e-09)
(-1.22296e-08 -1.64658e-09 -4.05564e-09)
(4.98045e-10 1.2531e-08 5.28809e-09)
(3.18836e-07 1.49437e-07 -1.69382e-07)
(-1.42076e-09 2.33825e-10 -8.42907e-11)
(-7.73998e-10 1.68179e-10 -7.06245e-11)
(-7.90331e-10 8.04753e-11 -2.22632e-10)
(-4.83479e-09 3.53483e-10 -1.33871e-10)
(-3.52036e-09 1.85228e-10 -3.29436e-11)
(-2.14597e-09 1.17534e-10 -1.7648e-10)
(-7.14128e-09 1.65752e-09 -3.68804e-10)
(-1.35787e-09 1.45092e-10 7.9717e-11)
(-8.54639e-10 2.38094e-10 -1.39482e-10)
(-7.78415e-10 8.50785e-11 -1.84776e-10)
(-1.85614e-09 9.83952e-11 -9.40955e-11)
(-7.93775e-10 1.66787e-11 -1.89982e-10)
(-1.32722e-10 5.81507e-11 -3.58991e-10)
(-5.33728e-10 -5.17853e-11 -2.54307e-10)
(-7.18734e-10 -1.36174e-10 -3.1182e-10)
(3.58044e-09 -2.28027e-10 -3.75891e-11)
(-1.16397e-09 -8.86639e-11 -1.98227e-10)
(-1.39649e-10 -1.79392e-10 -3.65227e-10)
(5.4627e-09 -8.99561e-10 1.60474e-10)
(-2.13348e-10 -7.40252e-11 -2.95365e-10)
(-8.35868e-11 -1.87383e-11 -1.37913e-10)
(2.36541e-08 -9.58219e-10 3.75506e-09)
(2.00303e-09 -2.48679e-10 8.91804e-10)
(-2.37473e-09 2.03654e-10 -9.02122e-11)
(6.99392e-07 -5.0711e-08 -5.72646e-07)
(-3.00713e-09 1.78086e-09 2.76129e-09)
(-2.22784e-09 -7.2403e-10 2.08219e-09)
)
;
    }
    procBoundary3to1
    {
        type            processor;
        value           nonuniform List<vector> 
27
(
(-1.55853e-08 -6.15673e-11 7.73286e-11)
(-2.09423e-08 -1.87739e-12 1.82522e-10)
(-1.48939e-08 5.59914e-11 1.03915e-10)
(-8.52072e-09 1.69482e-10 2.27021e-11)
(-3.90082e-09 2.77491e-10 3.74666e-11)
(-5.49942e-10 4.27006e-10 1.86882e-10)
(1.93377e-09 5.50794e-10 4.17675e-10)
(4.72595e-09 6.58942e-10 8.62642e-10)
(5.0385e-09 4.24062e-10 4.72215e-10)
(-1.05363e-08 -3.55476e-11 -2.0073e-11)
(-1.29484e-08 3.14083e-11 2.03347e-11)
(-1.01443e-08 1.03588e-10 -5.13281e-12)
(-6.31837e-09 1.84779e-10 -3.23484e-11)
(-3.17092e-09 2.65627e-10 -1.43046e-11)
(-8.02677e-10 3.62221e-10 1.2138e-10)
(9.94345e-10 4.57342e-10 3.28818e-10)
(2.43171e-09 5.42713e-10 6.24093e-10)
(3.26822e-09 5.32853e-10 6.24785e-10)
(-6.21895e-09 -2.68701e-11 -7.83031e-11)
(-7.15445e-09 3.26056e-11 -7.51129e-11)
(-5.99149e-09 1.03186e-10 -9.27907e-11)
(-4.04068e-09 1.75487e-10 -9.43774e-11)
(-2.18168e-09 2.20802e-10 -6.77874e-11)
(-6.73739e-10 2.58115e-10 4.77648e-11)
(4.82491e-10 2.77828e-10 2.01405e-10)
(1.30831e-09 3.28121e-10 3.62724e-10)
(1.88307e-09 3.80388e-10 4.57834e-10)
)
;
    }
    procBoundary3to2
    {
        type            processor;
        value           nonuniform List<vector> 
12
(
(-5.36654e-09 -2.82004e-11 -1.8596e-10)
(-2.95218e-09 4.02551e-11 -2.36169e-10)
(-1.81882e-09 7.52461e-11 -2.19507e-10)
(-1.52602e-09 9.05818e-11 -1.90561e-10)
(-4.06456e-09 -2.80554e-11 -2.00135e-10)
(-2.31345e-09 2.35169e-11 -2.39271e-10)
(-1.43402e-09 5.42824e-11 -2.14847e-10)
(-1.17546e-09 6.69597e-11 -1.80082e-10)
(-2.78882e-09 -2.75771e-11 -1.87945e-10)
(-1.69966e-09 1.27466e-11 -2.12922e-10)
(-1.10291e-09 4.02073e-11 -1.94714e-10)
(-9.19432e-10 4.82549e-11 -1.67452e-10)
)
;
    }
    procBoundary3to7
    {
        type            processor;
        value           nonuniform List<vector> 
36
(
(-2.19105e-09 -6.91621e-12 -1.74803e-10)
(-2.34558e-09 4.15435e-11 -2.13639e-10)
(-2.05389e-09 9.87269e-11 -2.54339e-10)
(-1.48523e-09 1.45024e-10 -2.73788e-10)
(-7.7744e-10 1.60798e-10 -2.69357e-10)
(-6.51557e-11 1.71378e-10 -2.15898e-10)
(3.94893e-10 2.16035e-10 -1.40147e-10)
(7.29243e-10 2.53413e-10 -8.90476e-11)
(9.88485e-10 3.01608e-10 -4.66125e-11)
(-1.37351e-09 4.54873e-11 -2.03123e-10)
(-1.43571e-09 7.19205e-11 -2.53335e-10)
(-1.24022e-09 1.25503e-10 -3.05146e-10)
(-8.80476e-10 1.21784e-10 -3.52082e-10)
(-3.67101e-10 1.46911e-10 -3.86353e-10)
(1.44164e-10 1.89894e-10 -3.87992e-10)
(6.11169e-10 3.17662e-10 -3.75675e-10)
(9.68964e-10 4.36046e-10 -3.86726e-10)
(1.21282e-09 5.46748e-10 -4.17289e-10)
(-9.13767e-10 7.58781e-11 -1.8533e-10)
(-9.45259e-10 8.84636e-11 -2.41117e-10)
(-8.09026e-10 1.22732e-10 -2.94512e-10)
(-5.57259e-10 1.25039e-10 -3.56115e-10)
(-1.7325e-10 1.62782e-10 -4.28358e-10)
(2.84212e-10 2.5011e-10 -4.94543e-10)
(7.78443e-10 4.35747e-10 -5.77557e-10)
(1.24544e-09 6.6486e-10 -7.07206e-10)
(1.49978e-09 8.99992e-10 -8.59094e-10)
(-7.7806e-10 8.34138e-11 -1.57671e-10)
(-8.24352e-10 9.78116e-11 -2.09523e-10)
(-6.60523e-10 1.24261e-10 -2.62158e-10)
(-4.2948e-10 1.4108e-10 -3.34188e-10)
(-8.01699e-11 1.93943e-10 -4.2948e-10)
(3.92309e-10 3.13741e-10 -5.5806e-10)
(9.59026e-10 5.43887e-10 -7.12621e-10)
(1.61572e-09 8.6151e-10 -9.36751e-10)
(2.03298e-09 1.15826e-09 -1.19199e-09)
)
;
    }
}


// ************************************************************************* //
