/*--------------------------------*- C++ -*----------------------------------*\
| =========                 |                                                 |
| \\      /  F ield         | OpenFOAM: The Open Source CFD Toolbox           |
|  \\    /   O peration     | Version:  4.x                                   |
|   \\  /    A nd           | Web:      www.OpenFOAM.org                      |
|    \\/     M anipulation  |                                                 |
\*---------------------------------------------------------------------------*/
FoamFile
{
    version     2.0;
    format      ascii;
    class       volVectorField;
    location    "44.5";
    object      impParticleForces;
}
// * * * * * * * * * * * * * * * * * * * * * * * * * * * * * * * * * * * * * //

dimensions      [1 1 -2 0 0 0 0];

internalField   nonuniform List<vector> 
108
(
(0.0024932 2.64426e-05 -3.97835e-05)
(0.00248669 3.09274e-05 -3.30537e-05)
(0.00248853 2.85801e-05 -2.76543e-05)
(0.00247991 2.36116e-05 -2.30629e-05)
(0.00246323 1.77541e-05 -2.05982e-05)
(0.00244831 1.43177e-05 -1.96782e-05)
(0.00241233 1.03141e-05 -2.55675e-05)
(0.00236858 1.09858e-05 -3.33156e-05)
(0.00227982 9.92959e-06 -5.0749e-05)
(0.00248228 1.92646e-05 -3.97675e-05)
(0.00250619 2.08898e-05 -3.3318e-05)
(0.00248354 2.02159e-05 -2.75012e-05)
(0.00247951 1.8828e-05 -2.25484e-05)
(0.00246091 1.7881e-05 -1.96931e-05)
(0.0024573 1.90671e-05 -1.82043e-05)
(0.00240207 2.24126e-05 -2.54244e-05)
(0.00235373 2.82182e-05 -3.66e-05)
(0.00226723 3.58633e-05 -5.24707e-05)
(0.00248079 1.65962e-05 -4.05058e-05)
(0.00249948 1.65124e-05 -3.43745e-05)
(0.00249356 1.60298e-05 -2.86738e-05)
(0.00250465 1.61108e-05 -2.41321e-05)
(0.00249191 1.81696e-05 -2.16391e-05)
(0.00250077 2.36413e-05 -2.15202e-05)
(0.00243746 3.42658e-05 -3.05016e-05)
(0.0024067 4.37042e-05 -4.68198e-05)
(0.00230005 6.24885e-05 -6.80947e-05)
(0.00241797 1.40861e-05 -3.99423e-05)
(0.00244389 1.31616e-05 -3.44113e-05)
(0.00246582 1.1717e-05 -2.92065e-05)
(0.00248501 1.25555e-05 -2.58799e-05)
(0.00247461 1.5278e-05 -2.43776e-05)
(0.00246615 2.1129e-05 -2.61722e-05)
(0.002407 3.0346e-05 -3.61018e-05)
(0.00236039 4.34658e-05 -5.62223e-05)
(0.00229546 5.67164e-05 -8.59377e-05)
(0.00249592 2.25783e-05 -3.85648e-05)
(0.00252383 2.59888e-05 -3.20695e-05)
(0.00250739 2.46569e-05 -2.66841e-05)
(0.0025233 2.09601e-05 -2.14686e-05)
(0.0024793 1.68837e-05 -1.82372e-05)
(0.00248012 1.36911e-05 -1.55667e-05)
(0.00242694 1.16994e-05 -2.0223e-05)
(0.00241294 1.02994e-05 -2.43777e-05)
(0.00231012 9.961e-06 -5.0057e-05)
(0.00249398 1.76604e-05 -3.89714e-05)
(0.00252449 1.89979e-05 -3.23212e-05)
(0.00249765 1.82401e-05 -2.69272e-05)
(0.00251226 1.71921e-05 -2.18401e-05)
(0.00247698 1.66743e-05 -1.87272e-05)
(0.00248355 1.78866e-05 -1.67416e-05)
(0.00242815 2.17209e-05 -2.27225e-05)
(0.00239724 2.80554e-05 -3.19298e-05)
(0.0022984 3.96286e-05 -5.24457e-05)
(0.0025251 1.59275e-05 -4.14367e-05)
(0.00254302 1.55145e-05 -3.52722e-05)
(0.00252228 1.4758e-05 -3.00008e-05)
(0.00256076 1.44694e-05 -2.51225e-05)
(0.00252416 1.65344e-05 -2.31896e-05)
(0.00254546 2.09472e-05 -2.22416e-05)
(0.00247293 3.18828e-05 -3.19156e-05)
(0.00244903 4.57781e-05 -4.66469e-05)
(0.00233247 7.05398e-05 -7.69035e-05)
(0.00245932 1.34423e-05 -4.10462e-05)
(0.00248574 1.21584e-05 -3.57609e-05)
(0.00248152 1.08555e-05 -3.12898e-05)
(0.00252426 1.06195e-05 -2.79348e-05)
(0.00250961 1.30127e-05 -2.69605e-05)
(0.00252483 1.79698e-05 -2.70582e-05)
(0.00244262 2.92638e-05 -3.75188e-05)
(0.00242539 4.41937e-05 -5.41152e-05)
(0.0023133 6.17563e-05 -9.1323e-05)
(0.00245607 1.7019e-05 -3.45963e-05)
(0.00249655 1.93307e-05 -2.86952e-05)
(0.00246428 1.88946e-05 -2.35687e-05)
(0.00248726 1.6785e-05 -1.84428e-05)
(0.00244098 1.43358e-05 -1.47356e-05)
(0.00245235 1.24432e-05 -1.09454e-05)
(0.00239528 1.13333e-05 -1.33993e-05)
(0.00236683 1.22587e-05 -1.64519e-05)
(0.00228285 1.03649e-05 -3.3365e-05)
(0.00245581 1.45398e-05 -3.52136e-05)
(0.00247954 1.50614e-05 -2.93189e-05)
(0.00245439 1.48144e-05 -2.46379e-05)
(0.00245179 1.42261e-05 -2.01913e-05)
(0.00242476 1.43498e-05 -1.70179e-05)
(0.00245172 1.64946e-05 -1.43834e-05)
(0.00239682 2.00861e-05 -1.75729e-05)
(0.00237699 2.78014e-05 -2.26656e-05)
(0.00227833 3.58783e-05 -3.77496e-05)
(0.00246395 1.34018e-05 -3.73501e-05)
(0.00250296 1.26116e-05 -3.25588e-05)
(0.00247133 1.1958e-05 -2.80159e-05)
(0.00248069 1.18579e-05 -2.41471e-05)
(0.00245773 1.3915e-05 -2.23687e-05)
(0.00248827 1.80848e-05 -2.21603e-05)
(0.00243305 2.65082e-05 -2.71022e-05)
(0.00240687 3.90743e-05 -3.62183e-05)
(0.00229582 5.81638e-05 -5.63778e-05)
(0.00243507 1.21207e-05 -3.82983e-05)
(0.00244512 1.06409e-05 -3.33258e-05)
(0.0024339 9.50747e-06 -2.9718e-05)
(0.00245368 9.14612e-06 -2.66387e-05)
(0.00245137 1.13812e-05 -2.62845e-05)
(0.00246853 1.57346e-05 -2.6327e-05)
(0.00240489 2.57755e-05 -3.30553e-05)
(0.00239489 3.9128e-05 -4.39918e-05)
(0.00229192 5.49849e-05 -6.62895e-05)
)
;

boundaryField
{
    inlet
    {
        type            zeroGradient;
    }
    outlet
    {
        type            zeroGradient;
    }
    wall
    {
        type            zeroGradient;
    }
    procBoundary3to1
    {
        type            processor;
        value           nonuniform List<vector> 
27
(
(0.00247345 4.34811e-05 -3.94163e-05)
(0.00251134 5.58847e-05 -3.35264e-05)
(0.0024961 4.70717e-05 -2.86464e-05)
(0.002529 3.47268e-05 -2.49387e-05)
(0.00248556 2.36913e-05 -2.29662e-05)
(0.00249264 1.58006e-05 -2.21095e-05)
(0.0024492 8.30418e-06 -2.8748e-05)
(0.00244056 4.71516e-06 -3.18281e-05)
(0.00231189 -4.52113e-06 -5.50715e-05)
(0.00248992 3.3505e-05 -3.83172e-05)
(0.00252505 4.12489e-05 -3.18854e-05)
(0.002502 3.71794e-05 -2.68543e-05)
(0.00252426 2.93408e-05 -2.24453e-05)
(0.0024849 2.11542e-05 -1.95081e-05)
(0.0025054 1.45777e-05 -1.76919e-05)
(0.00246564 8.55527e-06 -2.15118e-05)
(0.00246024 3.61879e-06 -2.5018e-05)
(0.00231599 -2.88223e-06 -4.83775e-05)
(0.00245835 2.24977e-05 -3.48363e-05)
(0.00248793 2.74079e-05 -2.85215e-05)
(0.00245824 2.63466e-05 -2.34299e-05)
(0.00250176 2.27033e-05 -1.88029e-05)
(0.0024558 1.71226e-05 -1.53315e-05)
(0.00246861 1.30059e-05 -1.17142e-05)
(0.00240699 8.00475e-06 -1.25639e-05)
(0.00238798 5.57549e-06 -1.40554e-05)
(0.00227699 -3.39706e-06 -2.81589e-05)
)
;
    }
    procBoundary3to2
    {
        type            processor;
        value           nonuniform List<vector> 
12
(
(0.00246084 1.98831e-05 -4.66517e-05)
(0.00245462 1.68007e-05 -4.66081e-05)
(0.00246743 1.63457e-05 -4.71097e-05)
(0.00242485 1.48678e-05 -4.63806e-05)
(0.00250344 1.71012e-05 -4.60471e-05)
(0.00248163 1.55838e-05 -4.58946e-05)
(0.00249375 1.58895e-05 -4.72322e-05)
(0.00243364 1.45465e-05 -4.62874e-05)
(0.00245717 1.31455e-05 -4.12015e-05)
(0.00245137 1.3322e-05 -4.13791e-05)
(0.00247766 1.43009e-05 -4.33363e-05)
(0.00243452 1.3725e-05 -4.33013e-05)
)
;
    }
    procBoundary3to7
    {
        type            processor;
        value           nonuniform List<vector> 
36
(
(0.00241198 1.22588e-05 -2.86388e-05)
(0.00244236 1.40099e-05 -2.36038e-05)
(0.00240731 1.37925e-05 -1.87356e-05)
(0.00243065 1.27746e-05 -1.38484e-05)
(0.00241255 1.12147e-05 -9.09606e-06)
(0.00242355 1.0634e-05 -4.275e-06)
(0.00234589 9.41672e-06 -3.06901e-06)
(0.00231053 9.26837e-06 -2.0569e-06)
(0.00223771 1.07597e-05 -8.72255e-06)
(0.00241021 1.1366e-05 -2.98394e-05)
(0.00245901 1.15547e-05 -2.53855e-05)
(0.00241328 1.10523e-05 -2.10371e-05)
(0.00242763 1.06508e-05 -1.69491e-05)
(0.00240149 1.08196e-05 -1.3466e-05)
(0.00241222 1.18001e-05 -1.0018e-05)
(0.00235416 1.62832e-05 -1.00927e-05)
(0.00232764 2.00155e-05 -9.72334e-06)
(0.00224627 3.22813e-05 -1.63111e-05)
(0.00241666 1.10641e-05 -3.24067e-05)
(0.00246137 9.98067e-06 -2.87085e-05)
(0.00242542 9.15935e-06 -2.5209e-05)
(0.00244368 8.74939e-06 -2.2266e-05)
(0.00242267 1.05382e-05 -2.05571e-05)
(0.00245065 1.17064e-05 -1.91122e-05)
(0.00238303 1.98182e-05 -2.03966e-05)
(0.00235402 2.56534e-05 -2.0897e-05)
(0.00224946 4.28962e-05 -3.15236e-05)
(0.00240155 9.94508e-06 -3.39858e-05)
(0.00241692 8.29766e-06 -3.03301e-05)
(0.00240353 7.11036e-06 -2.75904e-05)
(0.00240163 6.90182e-06 -2.45811e-05)
(0.00240274 8.07085e-06 -2.42567e-05)
(0.00241055 1.12048e-05 -2.25643e-05)
(0.00235454 1.8402e-05 -2.53446e-05)
(0.00233263 2.69964e-05 -2.55323e-05)
(0.00222955 3.63605e-05 -3.68649e-05)
)
;
    }
}


// ************************************************************************* //
