/*--------------------------------*- C++ -*----------------------------------*\
| =========                 |                                                 |
| \\      /  F ield         | OpenFOAM: The Open Source CFD Toolbox           |
|  \\    /   O peration     | Version:  4.x                                   |
|   \\  /    A nd           | Web:      www.OpenFOAM.org                      |
|    \\/     M anipulation  |                                                 |
\*---------------------------------------------------------------------------*/
FoamFile
{
    version     2.0;
    format      ascii;
    class       volScalarField;
    location    "44.5";
    object      QPartFluid;
}
// * * * * * * * * * * * * * * * * * * * * * * * * * * * * * * * * * * * * * //

dimensions      [1 -1 -3 0 0 0 0];

internalField   nonuniform List<scalar> 
108
(
8.49013e+09
3.85602e+09
6.73411e+09
3.23684e+09
5.01752e+09
3.79955e+09
5.63765e+09
5.29888e+09
2.91369e+09
6.1907e+09
8.82381e+09
4.94648e+09
5.50013e+09
5.93871e+09
4.89844e+09
5.85642e+09
5.503e+09
3.59031e+09
6.63833e+09
6.80404e+09
7.09894e+09
4.9381e+09
5.8826e+09
5.4092e+09
6.7647e+09
7.13207e+09
4.11943e+09
4.33887e+09
4.30636e+09
4.66446e+09
6.67854e+09
5.52646e+09
5.51994e+09
3.62367e+09
5.56533e+09
4.36669e+09
8.55488e+09
8.09467e+09
1.0273e+10
1.06592e+10
8.52354e+09
7.99959e+09
6.86078e+09
8.60533e+09
7.67882e+09
7.6104e+09
8.02661e+09
8.02962e+09
8.9884e+09
7.48401e+09
7.86189e+09
9.25566e+09
8.64239e+09
5.75304e+09
1.27412e+10
9.91268e+09
9.07545e+09
1.14239e+10
8.55584e+09
1.02417e+10
8.303e+09
9.9112e+09
7.91111e+09
8.42882e+09
7.16591e+09
7.31185e+09
8.04468e+09
9.17589e+09
7.63805e+09
7.30002e+09
8.68598e+09
5.57562e+09
8.24518e+09
1.10269e+10
9.25816e+09
1.03762e+10
6.61851e+09
7.8467e+09
9.15982e+09
8.45088e+09
6.97957e+09
9.55151e+09
6.14138e+09
8.15402e+09
5.01649e+09
4.37836e+09
9.42599e+09
7.61863e+09
1.05786e+10
5.11018e+09
6.03941e+09
1.03192e+10
9.20484e+09
7.28535e+09
7.42282e+09
1.00084e+10
8.1317e+09
9.33598e+09
5.05523e+09
8.76872e+09
4.87342e+09
5.7886e+09
6.98157e+09
6.44732e+09
8.59821e+09
6.36138e+09
9.58391e+09
7.54863e+09
)
;

boundaryField
{
    inlet
    {
        type            calculated;
        value           nonuniform 0();
    }
    outlet
    {
        type            calculated;
        value           uniform 0;
    }
    wall
    {
        type            calculated;
        value           uniform 0;
    }
    procBoundary3to1
    {
        type            processor;
        value           nonuniform List<scalar> 
27
(
3.94661e+09
7.09616e+09
6.22487e+09
8.96008e+09
6.29651e+09
5.82441e+09
5.76513e+09
6.30412e+09
4.29339e+09
7.91841e+09
8.48669e+09
7.18654e+09
6.80987e+09
5.79605e+09
9.31108e+09
9.44e+09
1.31761e+10
4.44635e+09
9.49175e+09
7.88243e+09
5.49421e+09
1.11478e+10
8.87868e+09
1.0704e+10
7.4892e+09
9.67861e+09
3.37546e+09
)
;
    }
    procBoundary3to2
    {
        type            processor;
        value           nonuniform List<scalar> 
12
(
4.59927e+09
4.47159e+09
6.51211e+09
3.98068e+09
1.12297e+10
6.4068e+09
7.69426e+09
4.8208e+09
9.29479e+09
5.73926e+09
1.02359e+10
7.74161e+09
)
;
    }
    procBoundary3to7
    {
        type            processor;
        value           nonuniform List<scalar> 
36
(
1.00662e+10
9.15522e+09
6.45598e+09
7.98285e+09
1.11053e+10
1.2531e+10
8.00101e+09
6.52922e+09
6.13249e+09
7.47417e+09
1.14369e+10
7.43899e+09
8.17244e+09
8.38337e+09
6.95707e+09
7.88406e+09
7.67524e+09
6.83498e+09
5.32339e+09
9.46113e+09
6.9717e+09
9.02421e+09
8.42025e+09
1.05718e+10
8.69014e+09
9.18674e+09
6.94759e+09
7.07919e+09
7.54013e+09
8.98859e+09
5.99217e+09
7.95565e+09
8.07693e+09
8.06259e+09
7.06883e+09
3.66057e+09
)
;
    }
}


// ************************************************************************* //
