/*--------------------------------*- C++ -*----------------------------------*\
| =========                 |                                                 |
| \\      /  F ield         | OpenFOAM: The Open Source CFD Toolbox           |
|  \\    /   O peration     | Version:  4.x                                   |
|   \\  /    A nd           | Web:      www.OpenFOAM.org                      |
|    \\/     M anipulation  |                                                 |
\*---------------------------------------------------------------------------*/
FoamFile
{
    version     2.0;
    format      ascii;
    class       volVectorField;
    location    "44.5";
    object      Urel;
}
// * * * * * * * * * * * * * * * * * * * * * * * * * * * * * * * * * * * * * //

dimensions      [0 1 -1 0 0 0 0];

internalField   nonuniform List<vector> 
108
(
(-0.0230317 6.67442e-05 0.000439503)
(-0.0244909 5.77116e-05 0.000375232)
(-0.0232224 7.02694e-05 0.000300287)
(-0.0246936 0.000110098 0.000202655)
(-0.0230262 0.000205574 0.000225098)
(-0.0244363 0.000261524 0.000107034)
(-0.0219692 0.000493168 0.000502007)
(-0.0231885 0.000430734 0.000488679)
(-0.0189567 0.0012303 0.0018095)
(-0.0227796 3.33451e-05 0.000394997)
(-0.0242507 3.20239e-05 0.000310526)
(-0.0228086 5.21607e-05 0.000223034)
(-0.0242417 4.63853e-05 8.05125e-05)
(-0.0223488 3.78783e-05 8.06133e-05)
(-0.0235606 -3.20142e-06 -7.30117e-05)
(-0.0208898 -8.47247e-05 0.000243688)
(-0.0215448 -0.000154675 0.000311817)
(-0.0180608 -0.00045628 0.00117261)
(-0.0239135 -5.77436e-05 0.000385106)
(-0.0253775 -3.84843e-05 0.000299619)
(-0.024206 -1.09885e-05 0.000189435)
(-0.0256698 -2.20197e-05 7.78531e-05)
(-0.0240969 -0.000148421 2.22238e-05)
(-0.0255504 -0.000201729 -4.80396e-05)
(-0.0231367 -0.000646842 0.000226145)
(-0.024464 -0.000641021 0.000522123)
(-0.0199191 -0.00222144 0.00164028)
(-0.0251991 5.91857e-05 0.000406229)
(-0.0265582 0.000118664 0.000325972)
(-0.0256089 0.000217481 0.000226956)
(-0.0269362 0.000226214 0.000137532)
(-0.0256095 0.000216327 9.43427e-05)
(-0.0269418 8.73393e-05 6.69359e-05)
(-0.0247977 -0.000122249 0.000340327)
(-0.0260105 -0.000502077 0.000887472)
(-0.0212701 -0.00121529 0.00282498)
(-0.0205213 3.30994e-05 0.000399575)
(-0.0223439 1.74863e-05 0.000317588)
(-0.0204993 2.70356e-05 0.000267466)
(-0.0224136 4.26693e-05 0.000140423)
(-0.0203063 7.76444e-05 0.000191468)
(-0.0221374 0.000124185 1.38689e-05)
(-0.0196166 0.000178307 0.000404925)
(-0.0210517 0.00025551 0.000283776)
(-0.01777 0.000375457 0.00190534)
(-0.02044 -4.32589e-07 0.000378794)
(-0.0223087 -6.8777e-06 0.000273544)
(-0.0203782 1.68526e-05 0.000223511)
(-0.022302 1.46549e-05 9.09956e-05)
(-0.0201587 3.6293e-06 0.000118563)
(-0.0218692 -8.80163e-06 -1.64478e-05)
(-0.0193813 -0.00013558 0.000299002)
(-0.020431 -0.00013296 0.000344041)
(-0.0175193 -0.000842969 0.00136116)
(-0.0217536 -5.53488e-05 0.000453559)
(-0.023508 -3.52134e-05 0.000371994)
(-0.0219223 -3.41606e-06 0.000337019)
(-0.0237712 2.62274e-05 0.000198165)
(-0.0219456 -0.000102729 0.00030069)
(-0.023817 -8.41422e-05 0.000115869)
(-0.0214471 -0.000601551 0.000644559)
(-0.0230437 -0.000563263 0.00060087)
(-0.0189759 -0.00247568 0.00247785)
(-0.0233592 4.27614e-05 0.000518935)
(-0.0248266 0.000104362 0.000442938)
(-0.0235953 0.000200936 0.000429431)
(-0.0251049 0.000227972 0.000326886)
(-0.0235477 0.000215687 0.000425647)
(-0.0251587 0.000112585 0.000302048)
(-0.0229094 -0.000158625 0.000767202)
(-0.0245543 -0.000560631 0.000977097)
(-0.019995 -0.00150392 0.00331007)
(-0.0187525 5.48542e-05 0.000336701)
(-0.0206508 3.73285e-05 0.000244699)
(-0.0186698 5.03929e-05 0.000226887)
(-0.0206113 5.39045e-05 0.000118884)
(-0.0185069 8.85174e-05 0.000165009)
(-0.0202841 8.87151e-05 1.01535e-05)
(-0.0179675 0.000152504 0.000294297)
(-0.019183 7.76033e-05 0.000150492)
(-0.0167695 0.000365743 0.00135043)
(-0.0187281 8.04451e-06 0.00029814)
(-0.0206567 2.52574e-05 0.000213632)
(-0.0186794 2.84041e-05 0.000188385)
(-0.0206023 2.35761e-05 9.09356e-05)
(-0.0185395 4.12569e-06 0.000111175)
(-0.0202895 -6.15135e-05 -2.51925e-05)
(-0.0179842 -0.000161068 0.000216157)
(-0.019106 -0.000297682 0.000194678)
(-0.0166703 -0.000725072 0.000934999)
(-0.0198312 -3.29232e-05 0.000367058)
(-0.0217117 1.91401e-05 0.00031015)
(-0.0198087 3.5682e-05 0.000283318)
(-0.0217867 6.29639e-05 0.000209497)
(-0.0198018 -3.14782e-05 0.000267569)
(-0.0216965 -7.18043e-05 0.000173588)
(-0.0194865 -0.000461024 0.000527035)
(-0.0207795 -0.000534671 0.000482196)
(-0.0178658 -0.00197381 0.00171618)
(-0.0215459 1.05414e-05 0.000466062)
(-0.0230316 7.91913e-05 0.000406237)
(-0.0215538 0.000144205 0.000410921)
(-0.0231024 0.000203685 0.000331849)
(-0.0213758 0.000130201 0.000434553)
(-0.0229985 8.89949e-05 0.000334787)
(-0.020791 -0.000243914 0.000714087)
(-0.0223193 -0.000489207 0.000729486)
(-0.018441 -0.00141964 0.00204531)
)
;

boundaryField
{
    inlet
    {
        type            calculated;
        value           nonuniform 0();
    }
    outlet
    {
        type            calculated;
        value           nonuniform List<vector> 
12
(
(-0.0088661 0.0115235 0.00546362)
(-9.82364e-06 -2.48017e-06 5.88178e-07)
(-0.00964291 -0.0150508 0.000499844)
(-0.013949 0.000436341 0.0112477)
(-0.00531144 0.00064948 0.00996747)
(-0.00380227 -0.00342193 0.00145059)
(-0.00764339 -0.0189627 0.0143283)
(-0.00919016 -0.002725 0.0187751)
(-0.00748875 0.00386751 0.00820369)
(-0.00331873 -0.000110443 0.000436103)
(-0.0102453 -0.0124811 0.00696769)
(-0.00661121 -0.00450035 0.00508581)
)
;
    }
    wall
    {
        type            calculated;
        value           nonuniform List<vector> 
63
(
(3.94237e-09 -4.28082e-09 1.67529e-09)
(2.83207e-09 -2.69575e-09 1.13833e-09)
(2.46318e-09 -3.49736e-09 4.97764e-10)
(1.20089e-09 -7.08672e-10 5.34092e-11)
(5.39484e-09 -6.38923e-09 1.80686e-09)
(3.54117e-09 -3.11065e-09 4.98458e-10)
(4.25733e-09 -2.56723e-09 -9.57202e-11)
(2.35541e-09 -1.9042e-09 -6.69719e-10)
(5.00766e-09 -5.07196e-09 1.7421e-10)
(3.61779e-09 -3.00766e-09 -2.47173e-10)
(3.0997e-09 -2.201e-09 -6.03999e-10)
(2.09461e-09 -3.60911e-09 -2.4322e-10)
(4.71026e-09 -3.06984e-09 -1.79328e-10)
(3.32413e-09 -1.95413e-09 -3.95876e-10)
(2.66649e-09 -9.33995e-10 -4.55602e-10)
(1.41823e-09 -3.23558e-10 -1.69656e-10)
(4.32678e-09 -2.6765e-09 -1.23277e-09)
(2.59435e-09 -1.50045e-09 -9.4095e-10)
(2.1842e-09 -8.5313e-10 -6.87877e-10)
(2.14271e-09 -1.63424e-10 -3.9433e-10)
(4.75073e-09 -1.66894e-09 -1.71374e-09)
(1.62361e-09 -8.76333e-10 -1.56159e-09)
(5.74767e-10 -2.10469e-10 -1.32722e-09)
(1.24321e-09 2.93635e-10 -1.51423e-09)
(4.753e-09 -2.02857e-09 -3.73469e-09)
(2.72724e-10 -1.55825e-10 -3.42804e-09)
(-7.12976e-11 6.112e-10 -2.69538e-09)
(8.68854e-09 3.58419e-09 -1.38586e-09)
(1.01007e-08 4.91173e-09 -6.69881e-09)
(-2.00575e-09 4.33381e-09 -6.47303e-09)
(-3.26542e-09 4.4239e-10 -7.66178e-09)
(8.80607e-09 3.38709e-09 -5.27056e-09)
(-5.59645e-08 -9.72832e-10 -4.3438e-09)
(-8.78527e-08 3.04004e-09 -6.55282e-09)
(-3.44228e-09 2.00297e-08 -1.20147e-08)
(-5.64093e-09 7.06926e-07 -3.1318e-08)
(1.20089e-09 -7.08672e-10 5.34092e-11)
(1.41823e-09 -6.04551e-10 1.77304e-10)
(1.10676e-09 -7.35809e-10 4.49021e-10)
(2.35541e-09 -1.9042e-09 -6.69719e-10)
(2.12448e-09 -1.30524e-09 -5.26255e-10)
(1.10177e-09 -9.21518e-10 3.55108e-11)
(2.09461e-09 -3.60911e-09 -2.4322e-10)
(1.33763e-09 -8.44793e-10 -6.37597e-10)
(1.18981e-09 -8.10589e-10 2.80571e-11)
(1.41823e-09 -3.23558e-10 -1.69656e-10)
(1.46657e-09 -6.44914e-10 -3.54757e-10)
(8.55822e-10 -1.97225e-10 2.81094e-11)
(2.14271e-09 -1.63424e-10 -3.9433e-10)
(1.49914e-09 -1.75619e-10 -4.68769e-10)
(3.69623e-10 -5.18954e-10 -3.74764e-10)
(1.24321e-09 2.93635e-10 -1.51423e-09)
(2.15644e-09 -3.25534e-10 -6.34551e-10)
(-1.08086e-10 3.46105e-12 -1.64366e-10)
(8.68854e-09 3.58419e-09 -1.38586e-09)
(1.83405e-09 6.47827e-10 -1.875e-09)
(-6.78135e-10 1.02148e-10 -1.01231e-09)
(8.80607e-09 3.38709e-09 -5.27056e-09)
(1.15905e-09 8.27096e-10 -5.01516e-09)
(-2.04336e-09 -5.83176e-10 -3.08265e-09)
(-5.64093e-09 7.06926e-07 -3.1318e-08)
(-1.03749e-09 1.65789e-10 -1.87695e-08)
(-1.43036e-09 -2.25391e-09 -6.26309e-09)
)
;
    }
    procBoundary3to1
    {
        type            processor;
        value           nonuniform List<vector> 
27
(
(-0.0232821 6.47451e-05 0.000521415)
(-0.0247324 2.70695e-05 0.000463264)
(-0.023481 6.42707e-06 0.000428164)
(-0.0249779 9.92303e-06 0.000341837)
(-0.0234003 9.07585e-05 0.000454458)
(-0.0249175 0.000138101 0.000329165)
(-0.0226972 0.000400558 0.000860163)
(-0.0240849 0.000459327 0.00075019)
(-0.0198517 0.00125441 0.00255455)
(-0.0207133 5.7077e-05 0.000415101)
(-0.0225606 1.88138e-05 0.000330749)
(-0.0206621 1.6077e-05 0.000296576)
(-0.02261 -4.91804e-06 0.000202907)
(-0.0205233 6.05064e-05 0.000251612)
(-0.0223299 8.56291e-05 0.00014772)
(-0.0199991 0.000241981 0.000507947)
(-0.0212336 0.000340735 0.000524796)
(-0.0184288 0.000786238 0.00218333)
(-0.0191308 7.61045e-05 0.00035789)
(-0.0209936 3.44862e-05 0.000267625)
(-0.0190568 3.33034e-05 0.00026412)
(-0.0209755 -4.40015e-06 0.000174247)
(-0.0189068 7.34374e-05 0.000224818)
(-0.0206825 4.92791e-05 0.000103889)
(-0.0184265 0.000270713 0.000392817)
(-0.019649 0.000203181 0.000278058)
(-0.01723 0.00102056 0.00134686)
)
;
    }
    procBoundary3to2
    {
        type            processor;
        value           nonuniform List<vector> 
12
(
(-0.0241078 7.1431e-05 0.000555521)
(-0.0239618 5.48026e-06 0.000520657)
(-0.0248725 -0.000109374 0.000504435)
(-0.0259216 -3.83465e-05 0.000512722)
(-0.022183 4.26331e-05 0.000492479)
(-0.0221848 -2.4012e-05 0.000472718)
(-0.0231837 -0.000125118 0.000544429)
(-0.0243949 -5.82616e-05 0.000589319)
(-0.0206489 6.36132e-05 0.000400883)
(-0.0206771 4.99488e-06 0.00036682)
(-0.0216179 -8.35325e-05 0.000425773)
(-0.0228573 -7.65375e-05 0.000502838)
)
;
    }
    procBoundary3to7
    {
        type            processor;
        value           nonuniform List<vector> 
36
(
(-0.0176582 3.01523e-05 0.000207209)
(-0.0196116 7.74196e-06 0.000159118)
(-0.0175793 2.23313e-05 0.000124705)
(-0.0195254 1.00375e-05 5.71813e-05)
(-0.0173907 4.06917e-05 2.38029e-05)
(-0.0191793 2.03337e-05 -9.09036e-05)
(-0.0168572 5.95898e-05 -4.23666e-05)
(-0.0180724 0.00010982 -0.000220168)
(-0.015879 -4.68475e-05 0.000246101)
(-0.0179032 -2.19218e-06 0.000224454)
(-0.0198501 1.3599e-05 0.000185936)
(-0.0178339 2.78564e-05 0.00015819)
(-0.0197479 3.3317e-05 9.89713e-05)
(-0.0177071 6.11393e-06 9.65181e-05)
(-0.0194444 6.85321e-07 -3.99275e-06)
(-0.0173477 -0.000213999 9.29285e-05)
(-0.0184376 -0.0001472 -2.64279e-05)
(-0.0163064 -0.00109961 0.000258436)
(-0.0192556 -5.29335e-05 0.00033099)
(-0.0209936 5.35102e-06 0.000286964)
(-0.0192014 7.17661e-06 0.000314878)
(-0.0209905 6.91847e-05 0.000271603)
(-0.0190616 -4.34253e-05 0.000345513)
(-0.0208025 5.2057e-05 0.000260583)
(-0.0185329 -0.000339853 0.000481897)
(-0.0198958 -0.000183949 0.000277498)
(-0.0167798 -0.00136608 0.000998431)
(-0.0207348 3.21259e-05 0.000438678)
(-0.0221685 9.54524e-05 0.000409851)
(-0.0206308 0.000152489 0.000448609)
(-0.0221035 0.000189998 0.00039807)
(-0.0203122 0.000156641 0.000510751)
(-0.0218018 0.000108494 0.000392542)
(-0.0195014 -9.04927e-05 0.000711056)
(-0.0207788 -0.000298462 0.000459119)
(-0.0172257 -0.000760233 0.00150981)
)
;
    }
}


// ************************************************************************* //
