/*--------------------------------*- C++ -*----------------------------------*\
| =========                 |                                                 |
| \\      /  F ield         | OpenFOAM: The Open Source CFD Toolbox           |
|  \\    /   O peration     | Version:  4.x                                   |
|   \\  /    A nd           | Web:      www.OpenFOAM.org                      |
|    \\/     M anipulation  |                                                 |
\*---------------------------------------------------------------------------*/
FoamFile
{
    version     2.0;
    format      ascii;
    class       volScalarField;
    location    "29.5";
    object      thCond;
}
// * * * * * * * * * * * * * * * * * * * * * * * * * * * * * * * * * * * * * //

dimensions      [1 1 -3 -1 0 0 0];

internalField   nonuniform List<scalar> 
108
(
191.756
191.912
191.688
191.944
191.885
191.955
191.664
191.631
191.727
191.749
191.492
191.699
191.771
191.719
191.822
191.515
191.491
191.531
191.775
191.657
191.605
191.789
191.737
191.82
191.564
191.517
191.677
192.103
192.066
191.948
191.689
191.729
191.824
191.874
191.592
191.785
191.013
191.027
190.719
190.766
190.87
190.921
190.777
190.7
190.631
191.034
190.973
190.803
190.859
190.908
190.871
190.582
190.627
190.677
190.836
190.916
190.852
190.819
190.886
190.833
190.774
190.692
190.704
191.199
191.318
191.149
191.053
190.877
191.022
190.918
190.818
190.954
190.353
190.194
190.124
190.117
190.234
190.131
189.933
190.047
190.125
190.358
190.447
190.247
190.514
190.44
190.095
189.981
189.909
190.149
190.677
190.418
190.321
190.486
190.336
190.097
190.121
190.076
190.251
190.644
190.91
190.71
190.621
190.5
190.284
190.261
190.112
190.131
)
;

boundaryField
{
    inlet
    {
        type            zeroGradient;
    }
    outlet
    {
        type            zeroGradient;
    }
    wall
    {
        type            zeroGradient;
    }
    procBoundary3to1
    {
        type            processor;
        value           nonuniform List<scalar> 
27
(
192.28
192.046
191.838
191.691
191.802
191.81
191.605
191.661
191.869
191.338
191.303
191.204
191.141
191.096
190.856
190.646
190.545
191.156
190.569
190.604
190.629
190.23
190.191
190.073
190.11
190.155
190.686
)
;
    }
    procBoundary3to2
    {
        type            processor;
        value           nonuniform List<scalar> 
12
(
192.129
192.109
192.105
192.516
191.124
191.378
191.381
191.755
190.652
190.823
190.683
190.972
)
;
    }
    procBoundary3to7
    {
        type            processor;
        value           nonuniform List<scalar> 
36
(
189.899
189.865
189.93
189.794
189.449
189.384
189.496
189.731
189.556
190.067
189.762
189.858
189.865
189.634
189.701
189.581
189.664
189.578
190.444
190.045
190.034
189.966
189.76
189.603
189.593
189.676
189.643
190.455
190.26
190.014
190.165
189.915
189.822
189.71
189.922
190.183
)
;
    }
}


// ************************************************************************* //
