/*--------------------------------*- C++ -*----------------------------------*\
| =========                 |                                                 |
| \\      /  F ield         | OpenFOAM: The Open Source CFD Toolbox           |
|  \\    /   O peration     | Version:  4.x                                   |
|   \\  /    A nd           | Web:      www.OpenFOAM.org                      |
|    \\/     M anipulation  |                                                 |
\*---------------------------------------------------------------------------*/
FoamFile
{
    version     2.0;
    format      ascii;
    class       volVectorField;
    location    "29.5";
    object      Us;
}
// * * * * * * * * * * * * * * * * * * * * * * * * * * * * * * * * * * * * * //

dimensions      [0 1 -1 0 0 0 0];

internalField   nonuniform List<vector> 
108
(
(2.61666e-09 -3.01667e-09 1.67602e-09)
(2.21877e-09 -2.70805e-09 2.35979e-09)
(1.17337e-08 -3.74767e-08 -2.62383e-09)
(1.35981e-09 -7.10564e-09 -1.20894e-09)
(-2.08254e-09 -2.00637e-09 -9.03018e-09)
(1.17977e-08 -3.12492e-09 -1.16767e-08)
(2.1182e-08 -4.13418e-09 -2.77804e-08)
(1.401e-07 6.69119e-08 -5.11293e-08)
(-1.24671e-06 3.7949e-08 -7.09757e-08)
(1.07296e-09 -1.53423e-10 9.47515e-10)
(-6.13793e-10 1.30112e-09 1.96725e-09)
(7.89464e-10 -2.24403e-09 1.42564e-09)
(1.51894e-09 1.59064e-09 2.35054e-10)
(5.53765e-09 -4.03749e-10 -4.90903e-09)
(1.25703e-08 3.31796e-10 -9.58955e-09)
(4.10176e-08 2.50347e-09 -4.06461e-08)
(6.44406e-08 2.701e-08 -5.6929e-08)
(-1.837e-06 6.803e-08 -1.63303e-07)
(9.75213e-10 -1.08288e-08 1.55492e-09)
(8.74077e-10 -1.14016e-09 1.80998e-09)
(1.88693e-09 -2.16719e-09 2.18632e-09)
(3.18614e-09 -1.42818e-11 1.63823e-09)
(8.31828e-09 2.27647e-11 -3.01391e-09)
(1.57122e-08 -8.66645e-10 -3.52278e-09)
(1.91898e-08 1.57995e-09 -1.04916e-08)
(2.5154e-08 1.01409e-08 -2.01386e-08)
(9.29295e-09 -2.69815e-08 -1.7278e-08)
(1.65815e-09 -7.07482e-10 -4.09417e-10)
(1.73016e-09 -7.61136e-10 3.961e-10)
(5.96279e-10 2.01491e-08 -1.06689e-09)
(2.14682e-09 -1.64786e-10 5.1048e-10)
(4.37784e-09 1.23753e-09 -1.5724e-09)
(9.56117e-09 -4.78624e-10 -1.82641e-09)
(1.34326e-08 1.0286e-08 -3.56042e-09)
(1.35085e-08 4.88797e-09 -4.89806e-09)
(1.64179e-09 6.34961e-07 -3.21352e-08)
(2.47974e-09 -8.38771e-10 2.08362e-09)
(1.56143e-09 2.04096e-09 2.94291e-09)
(2.04314e-09 -1.4536e-09 -6.52804e-10)
(2.72698e-09 -7.38596e-10 -2.12088e-09)
(4.46694e-09 -1.75146e-09 -9.04218e-09)
(9.88712e-09 -3.02776e-09 -1.384e-08)
(1.05916e-08 7.40348e-10 -2.18293e-08)
(1.32042e-08 7.99963e-09 -3.98091e-08)
(-2.58746e-07 1.4605e-08 -4.94548e-08)
(1.29966e-09 -1.11492e-09 -3.3048e-10)
(7.3116e-10 -2.23037e-10 1.04603e-09)
(1.36151e-09 -3.00837e-10 1.3573e-09)
(2.86476e-09 4.50185e-10 -2.48483e-10)
(8.3239e-09 -1.19503e-09 -5.34259e-09)
(1.52987e-08 -2.25962e-09 -1.01116e-08)
(1.17926e-08 -1.11844e-08 -2.40877e-08)
(1.22446e-08 -4.72658e-09 -4.04156e-08)
(-1.43538e-08 4.72881e-09 -6.06106e-08)
(1.92001e-09 -1.2277e-09 2.24212e-10)
(2.37413e-09 -8.23439e-10 5.81576e-10)
(2.57288e-09 -1.98089e-09 1.82661e-09)
(4.15489e-09 -3.34432e-10 3.49351e-10)
(9.92464e-09 -1.66723e-09 -3.91415e-09)
(1.64452e-08 -3.20302e-09 -7.60373e-09)
(2.24963e-08 -8.35078e-09 -1.41393e-08)
(1.67242e-08 -9.86454e-10 -1.76516e-08)
(4.09997e-09 2.68976e-09 -2.12397e-08)
(2.26216e-09 -8.32447e-11 -2.90133e-10)
(3.16076e-09 -1.12343e-09 1.07658e-10)
(2.13133e-09 -8.88083e-10 4.10435e-10)
(2.70251e-09 -6.59415e-10 3.46441e-10)
(4.89043e-09 -9.15068e-10 -1.48602e-09)
(6.77059e-09 -9.95473e-10 -3.26587e-09)
(8.91561e-09 1.02741e-09 -4.7765e-09)
(8.01498e-09 -9.40569e-10 -6.22519e-09)
(1.97109e-09 1.88223e-09 -1.98402e-08)
(1.33862e-09 7.58125e-10 -7.91502e-10)
(2.01932e-09 2.73396e-09 1.28511e-10)
(1.9958e-09 3.65648e-09 2.85387e-12)
(5.04982e-09 -3.72251e-10 -3.25732e-09)
(6.38988e-09 -6.17875e-10 -6.61116e-09)
(3.79736e-09 -2.76418e-10 -8.02026e-09)
(4.2704e-09 -1.0561e-09 -1.25732e-08)
(8.38352e-10 -9.8197e-11 -1.48472e-08)
(-9.72784e-10 2.30965e-09 -1.07926e-08)
(8.12095e-10 -2.18386e-09 -1.80012e-09)
(1.46929e-09 3.14457e-10 -1.09705e-09)
(1.08636e-09 1.62499e-09 -3.54484e-09)
(4.17165e-09 8.3105e-10 -2.20967e-09)
(6.24988e-09 2.1787e-10 -4.80335e-09)
(7.62576e-09 1.32801e-09 -5.90214e-09)
(5.05004e-09 7.59006e-10 -1.07695e-08)
(2.59839e-09 -6.80035e-10 -1.59264e-08)
(-2.14199e-09 3.49667e-09 -2.34601e-08)
(2.12115e-09 -1.88266e-09 -1.67424e-09)
(2.25287e-09 -1.30484e-09 -1.11423e-09)
(1.90543e-09 -1.74843e-09 -1.74151e-09)
(4.01195e-09 -2.51605e-09 -2.98295e-09)
(8.29522e-09 -1.10234e-09 -4.51643e-09)
(1.07674e-08 2.74843e-10 -5.70386e-09)
(1.30793e-08 1.45167e-09 -8.91327e-09)
(7.68385e-09 2.18338e-09 -1.00684e-08)
(4.13344e-09 -9.17601e-10 -1.08592e-08)
(2.75247e-09 -9.18373e-10 -1.09445e-09)
(2.7394e-09 -3.37165e-10 -1.02797e-09)
(3.40855e-09 -2.04411e-09 -1.35771e-09)
(3.36725e-09 -9.05081e-10 -1.25644e-09)
(5.8361e-09 -8.31078e-10 -2.46138e-09)
(6.50355e-09 -1.68425e-09 -3.2739e-09)
(6.70743e-09 8.38071e-11 -2.67205e-09)
(6.40041e-09 4.4838e-10 -4.29554e-09)
(3.14646e-09 -1.45689e-09 -7.23678e-09)
)
;

boundaryField
{
    inlet
    {
        type            zeroGradient;
    }
    outlet
    {
        type            zeroGradient;
    }
    wall
    {
        type            zeroGradient;
    }
    procBoundary3to1
    {
        type            processor;
        value           nonuniform List<vector> 
27
(
(6.09944e-09 -3.83021e-09 8.65599e-10)
(7.60746e-09 -1.03884e-08 1.65369e-09)
(1.9375e-08 -2.07345e-08 -2.20995e-10)
(-3.98655e-09 -5.32977e-09 -3.73038e-09)
(-1.67817e-09 -3.3571e-09 -1.08075e-08)
(1.1775e-08 -1.70735e-09 -1.12197e-08)
(2.09881e-08 -2.94236e-09 -2.24785e-08)
(3.32784e-08 1.12135e-08 -2.72003e-08)
(2.2375e-08 1.86467e-08 -2.67642e-08)
(6.21721e-09 4.44949e-10 3.60862e-10)
(7.66153e-09 -1.54035e-10 1.97557e-09)
(4.60543e-09 -2.33868e-09 -8.35316e-13)
(7.00312e-10 -4.33816e-09 -3.09997e-09)
(4.45005e-09 -4.50393e-09 -1.04511e-08)
(9.25121e-09 -5.0535e-09 -1.51038e-08)
(1.5072e-08 -3.40098e-09 -2.20948e-08)
(1.72931e-08 8.82544e-10 -2.34189e-08)
(5.31333e-09 2.62606e-09 -2.48265e-08)
(4.34441e-09 3.08163e-09 -2.39499e-09)
(9.05362e-09 4.3716e-09 -4.03694e-10)
(7.62518e-09 3.23406e-09 1.25282e-10)
(5.3652e-09 4.29492e-10 -3.08195e-09)
(6.1948e-09 -1.14598e-09 -6.83642e-09)
(5.87604e-09 -2.87889e-09 -1.0304e-08)
(5.69522e-09 4.4141e-10 -1.50635e-08)
(2.83044e-09 -6.26156e-10 -1.16211e-08)
(-1.40894e-09 4.51651e-09 -1.14903e-08)
)
;
    }
    procBoundary3to2
    {
        type            processor;
        value           nonuniform List<vector> 
12
(
(2.57776e-09 -3.32642e-09 -1.30602e-09)
(1.786e-09 -1.87142e-09 -1.23618e-09)
(2.11962e-09 -1.13993e-09 -6.2295e-10)
(2.13659e-09 -3.21059e-10 -7.0274e-10)
(2.75926e-09 -2.32228e-09 -1.32249e-09)
(1.59592e-09 -1.76333e-09 -1.18081e-09)
(2.22031e-09 -9.70243e-10 -4.96234e-10)
(1.90825e-09 -3.04503e-11 -2.93027e-10)
(1.49771e-09 -1.40848e-09 -1.65498e-09)
(1.77807e-09 -1.88289e-09 -1.69445e-09)
(2.31503e-09 -3.46602e-10 -1.19087e-09)
(1.97497e-09 4.87145e-11 -8.17175e-10)
)
;
    }
    procBoundary3to7
    {
        type            processor;
        value           nonuniform List<vector> 
36
(
(-6.65036e-10 1.21216e-09 -2.91992e-09)
(8.61435e-10 1.80567e-09 -1.99796e-09)
(2.61565e-09 3.17874e-09 -2.15945e-09)
(3.14158e-09 1.53492e-09 -4.20487e-09)
(2.64883e-09 1.38044e-09 -4.31195e-09)
(-2.95211e-09 5.0486e-10 -5.4991e-09)
(-1.01514e-09 6.65137e-11 -6.65951e-09)
(-3.78021e-09 2.56193e-10 -6.51481e-09)
(-3.25703e-09 -8.85265e-10 -6.18542e-09)
(-7.28339e-10 -1.19122e-09 -2.71993e-09)
(2.95366e-10 -7.13981e-10 -2.24259e-09)
(1.64774e-09 -8.6948e-11 -4.55581e-09)
(2.39946e-09 2.06487e-10 -4.08229e-09)
(3.44469e-09 9.74468e-10 -4.15313e-09)
(3.75477e-09 4.19422e-10 -4.60929e-09)
(2.87435e-09 -1.94809e-10 -5.71305e-09)
(8.14207e-10 -2.09777e-10 -8.78654e-09)
(-8.26217e-10 -1.978e-09 -9.7683e-09)
(5.47463e-10 -1.19082e-09 -2.27079e-09)
(1.70901e-10 -1.02236e-09 -1.83483e-09)
(1.87694e-09 -1.37981e-09 -3.94288e-09)
(2.74646e-09 -1.55023e-09 -4.21065e-09)
(4.09909e-09 -1.77991e-10 -3.83201e-09)
(3.9028e-09 -8.36316e-10 -4.61535e-09)
(4.77353e-09 9.12268e-11 -3.20507e-09)
(1.6121e-09 6.53318e-10 -6.41029e-09)
(2.93791e-09 3.16117e-10 -6.33172e-09)
(2.5385e-09 -1.11071e-09 -1.52331e-09)
(1.5448e-09 -8.60656e-10 -1.028e-09)
(1.67121e-09 -6.09243e-10 -2.09286e-09)
(2.13679e-09 -9.58824e-10 -2.50001e-09)
(2.97623e-09 -3.286e-10 -1.86825e-09)
(1.72271e-09 -1.16526e-09 -2.76231e-09)
(1.73193e-09 -2.32773e-10 -2.5411e-09)
(1.34977e-09 4.79756e-10 -2.22514e-09)
(1.89247e-09 1.05604e-09 -2.71668e-09)
)
;
    }
}


// ************************************************************************* //
