/*--------------------------------*- C++ -*----------------------------------*\
| =========                 |                                                 |
| \\      /  F ield         | OpenFOAM: The Open Source CFD Toolbox           |
|  \\    /   O peration     | Version:  4.x                                   |
|   \\  /    A nd           | Web:      www.OpenFOAM.org                      |
|    \\/     M anipulation  |                                                 |
\*---------------------------------------------------------------------------*/
FoamFile
{
    version     2.0;
    format      ascii;
    class       volVectorField;
    location    "6";
    object      DDtUrel;
}
// * * * * * * * * * * * * * * * * * * * * * * * * * * * * * * * * * * * * * //

dimensions      [0 1 -2 0 0 0 0];

internalField   nonuniform List<vector> 
114
(
(0.000934213 6.943e-06 0.000249142)
(0.000843301 9.12541e-06 0.000195173)
(0.00084849 1.14112e-05 0.000132823)
(0.000906005 1.131e-05 7.33165e-05)
(0.000979011 1.42187e-05 2.0259e-05)
(0.00104769 1.13843e-05 7.26899e-06)
(0.00214094 7.72217e-05 -5.1277e-05)
(0.00155127 5.11097e-05 0.000116687)
(0.00119151 3.33143e-05 0.000213075)
(0.000987442 1.68186e-05 0.000260431)
(0.00087365 1.0076e-05 0.000204615)
(0.00087337 3.8435e-06 0.000137399)
(0.000923445 8.63578e-06 7.60509e-05)
(0.00100239 1.58547e-05 2.02436e-05)
(0.00106896 1.27909e-05 -3.42942e-07)
(0.00221573 0.000124605 -4.58522e-05)
(0.00164748 8.19219e-05 0.000118291)
(0.00130115 5.65636e-05 0.000221698)
(0.00110142 4.22074e-05 0.000276285)
(0.000972075 2.61797e-05 0.000232058)
(0.000954958 1.17703e-05 0.000176321)
(0.000988912 7.10831e-06 0.000104894)
(0.00107034 1.52692e-06 4.64794e-05)
(0.00113159 5.52957e-06 8.53375e-06)
(0.00229644 0.000144324 -3.9734e-05)
(0.00175523 0.000101295 0.000120736)
(0.00143204 7.28541e-05 0.00022873)
(0.00125605 6.24921e-05 0.000292831)
(0.00112899 4.82622e-05 0.000270813)
(0.00110055 3.70299e-05 0.000226196)
(0.00111309 2.14501e-05 0.000153587)
(0.00117581 -2.63842e-06 8.83682e-05)
(0.00119783 -9.69487e-06 2.62798e-05)
(0.000876782 9.30323e-06 0.000117865)
(0.000916392 1.03402e-05 6.37835e-05)
(0.000974104 1.55866e-05 8.45767e-06)
(0.0010306 7.38499e-06 1.13515e-06)
(0.00201963 7.57643e-05 -8.4943e-05)
(0.00141226 4.29917e-05 0.000116669)
(0.00109805 2.60858e-05 0.000202763)
(0.000950015 9.32182e-06 0.000249346)
(0.000887197 4.7876e-06 0.000189161)
(0.000903184 -3.06882e-07 0.00012553)
(0.000935394 4.6827e-06 6.97435e-05)
(0.000994547 1.30317e-05 1.31047e-05)
(0.00103748 4.69529e-06 -4.54499e-06)
(0.00209015 0.000128255 -8.09945e-05)
(0.00149412 7.77382e-05 0.000116561)
(0.00118452 4.6271e-05 0.00021238)
(0.00103724 2.48925e-05 0.000268485)
(0.000969132 1.43646e-05 0.000219498)
(0.000976917 1.98234e-06 0.000168074)
(0.00100446 -4.22384e-07 0.000103426)
(0.00106203 -4.90965e-06 3.98188e-05)
(0.00110685 -2.85362e-07 5.51953e-06)
(0.00217317 0.000150264 -7.62696e-05)
(0.00160298 9.95382e-05 0.00011926)
(0.00130754 6.33442e-05 0.000226121)
(0.00117491 4.51102e-05 0.000296303)
(0.00110774 3.1489e-05 0.00026933)
(0.00111666 1.29947e-05 0.000233218)
(0.00112172 4.61562e-06 0.000162061)
(0.00118656 -1.56277e-05 9.60529e-05)
(0.00119191 -7.61506e-06 3.5457e-05)
(0.000938844 1.28411e-05 5.77754e-06)
(0.000952685 2.43543e-06 -1.66494e-05)
(0.00192582 7.52525e-05 -7.79126e-05)
(0.00130804 3.74153e-05 9.85535e-05)
(0.00101929 2.01928e-05 0.000168588)
(0.00090531 4.57357e-06 0.0002046)
(0.000871676 2.26052e-06 0.000157677)
(0.000900219 -7.97316e-07 0.000107474)
(0.000925653 3.7663e-06 5.80306e-05)
(0.000970136 7.4944e-06 5.78892e-06)
(0.000989671 1.48233e-06 -1.45894e-05)
(0.00198924 0.00012932 -7.63925e-05)
(0.00137889 7.34241e-05 9.79388e-05)
(0.0010913 3.86473e-05 0.000177109)
(0.000975474 1.37648e-05 0.000223437)
(0.000946816 5.19117e-06 0.000187319)
(0.00097367 -5.61161e-06 0.00014769)
(0.00100746 -4.62033e-06 9.2116e-05)
(0.00105611 -1.03688e-05 3.34597e-05)
(0.00109096 -3.39468e-06 -1.04683e-06)
(0.00207056 0.000151722 -7.37185e-05)
(0.00148041 9.62807e-05 9.98413e-05)
(0.00120321 5.54378e-05 0.00019155)
(0.00110278 3.16212e-05 0.000254348)
(0.00108199 1.71084e-05 0.000239488)
(0.00112297 -1.0744e-06 0.000215948)
(0.00114613 -4.30024e-06 0.000150674)
(0.00122689 -1.87244e-05 9.18349e-05)
(0.00124772 -3.7986e-06 2.48173e-05)
(0.00187458 6.81794e-05 -5.02546e-05)
(0.00125069 3.44009e-05 8.36744e-05)
(0.000969606 1.61703e-05 0.000131257)
(0.000866997 9.3805e-07 0.000157902)
(0.000850139 6.61886e-07 0.000120644)
(0.000881522 -2.63475e-06 7.72852e-05)
(0.000909631 3.9797e-07 3.88037e-05)
(0.00094201 3.68865e-06 -8.90477e-06)
(0.001937 0.000129889 -4.95251e-05)
(0.00131798 6.69996e-05 8.25058e-05)
(0.00103697 3.06727e-05 0.000138435)
(0.000930981 4.44901e-06 0.000173484)
(0.000920459 -6.1619e-07 0.000146523)
(0.000957156 -1.10319e-05 0.000116848)
(0.000999613 -9.85065e-06 6.75999e-05)
(0.00202304 0.000152884 -4.993e-05)
(0.00142169 9.13269e-05 8.30155e-05)
(0.00114908 4.60217e-05 0.000151091)
(0.00105609 1.95055e-05 0.000198853)
(0.00105321 6.73116e-06 0.000192218)
(0.00111259 -1.25654e-05 0.000174874)
)
;

boundaryField
{
    inlet
    {
        type            calculated;
        value           nonuniform List<vector> 
12
(
(0.00430712 0.000297597 -0.000498461)
(0.00442284 0.000336446 -0.00047248)
(0.0046749 0.000325952 -0.000429083)
(0.00379417 0.000288671 -0.000868508)
(0.00390731 0.000393054 -0.000845019)
(0.00421181 0.000395637 -0.000815321)
(0.00369742 0.00031102 -0.000741261)
(0.00376241 0.000408973 -0.000712789)
(0.00406296 0.000400732 -0.000693143)
(0.00364848 0.00023411 -0.000631449)
(0.00375838 0.00046123 -0.000558198)
(0.00414161 0.000445933 -0.000545754)
)
;
    }
    outlet
    {
        type            calculated;
        value           nonuniform 0();
    }
    wall
    {
        type            calculated;
        value           nonuniform List<vector> 
66
(
(0.00430712 0.000297597 -0.000498461)
(0.00442284 0.000336446 -0.00047248)
(0.0046749 0.000325952 -0.000429083)
(0.00108611 0.000113956 0.000329608)
(0.00136261 7.36763e-05 0.000318063)
(0.00184514 0.000118769 0.000302622)
(0.000798669 7.39468e-05 0.000393656)
(0.00111909 7.37529e-05 0.000412844)
(0.00173717 9.31331e-05 0.000400331)
(0.000295318 2.34282e-05 0.000523324)
(0.000623873 -3.91736e-05 0.000614756)
(0.000945889 0.000116146 0.000618183)
(0.00181947 0.000190263 0.000611747)
(0.000278681 2.08435e-05 0.000193151)
(0.000256405 -2.17629e-05 0.000233652)
(0.00043886 3.91439e-05 0.000272913)
(0.00135529 0.000157475 0.000467005)
(0.000450122 4.29585e-05 0.000110494)
(0.000446108 -6.66263e-05 4.96372e-05)
(0.000527061 -4.31271e-05 0.000218766)
(0.00136405 0.000202006 0.000448154)
(0.000740199 1.71978e-05 4.06243e-05)
(0.000646339 9.35038e-06 -2.65837e-06)
(0.000607228 -1.54773e-05 5.92753e-06)
(0.00130395 0.00014415 0.000252578)
(0.000889858 4.04296e-05 -7.486e-05)
(0.000930374 0.000106682 -0.000151844)
(0.00104634 -4.14073e-05 -4.72804e-05)
(0.00159742 -3.08132e-05 0.000183103)
(0.00106093 3.52912e-05 4.55149e-05)
(0.00104085 8.66579e-05 -2.39849e-05)
(0.00116645 7.47402e-05 3.42667e-05)
(0.00123456 -6.91221e-05 3.05087e-05)
(0.0046749 0.000325952 -0.000429083)
(0.00421181 0.000395637 -0.000815321)
(0.00406296 0.000400732 -0.000693143)
(0.00414161 0.000445933 -0.000545754)
(0.00184514 0.000118769 0.000302622)
(0.000955152 0.000123947 0.000469933)
(0.000581978 0.000124015 0.000362832)
(0.000579461 0.000123472 0.000272252)
(0.00173717 9.31331e-05 0.000400331)
(0.00109544 5.27196e-05 0.000484537)
(0.000819711 5.63171e-05 0.000347494)
(0.000839928 2.95096e-05 0.000245206)
(0.00181947 0.000190263 0.000611747)
(0.00135688 8.01441e-05 0.000835141)
(0.00115714 5.18408e-05 0.000641772)
(0.00110305 2.33644e-05 0.000455101)
(0.00135529 0.000157475 0.000467005)
(0.00129971 9.2179e-05 0.000538436)
(0.00130563 5.30569e-05 0.00048062)
(0.00128236 5.57728e-05 0.000395831)
(0.00136405 0.000202006 0.000448154)
(0.00158831 -1.66084e-05 0.000620577)
(0.00168824 -4.40131e-05 0.000632413)
(0.00174477 -5.54077e-05 0.000543129)
(0.00130395 0.00014415 0.000252578)
(0.00123978 3.38421e-05 0.000385754)
(0.0014344 4.80805e-05 0.000385351)
(0.00159742 -3.08132e-05 0.000183103)
(0.00166884 -0.000170244 0.000286933)
(0.00205519 -0.000104352 0.000384949)
(0.00123456 -6.91221e-05 3.05087e-05)
(0.0011534 -2.31311e-05 0.000195705)
(0.00194373 0.000113427 0.000175192)
)
;
    }
    procBoundary2to0
    {
        type            processor;
        value           nonuniform List<vector> 
44
(
(0.000990784 -5.30742e-06 0.000262241)
(0.000877374 5.67322e-06 0.000211566)
(0.000870236 1.32758e-05 0.000147622)
(0.000915206 9.85073e-06 8.36902e-05)
(0.000994129 8.61712e-06 2.11158e-05)
(0.00106034 4.89227e-06 1.00776e-05)
(0.00210398 -1.31018e-05 -5.47672e-05)
(0.00150248 -9.49473e-07 0.000121361)
(0.0011389 2.66539e-06 0.000207471)
(0.0011389 2.66539e-06 0.000207471)
(0.000913819 6.17908e-06 0.000236165)
(0.000862266 7.56207e-06 0.000178638)
(0.000908177 1.57457e-05 0.00013514)
(0.000940145 1.13547e-05 7.5463e-05)
(0.000995551 1.11024e-05 1.20939e-05)
(0.00103146 7.95354e-06 4.47473e-06)
(0.00198469 -1.26279e-05 -8.71779e-05)
(0.00137255 -2.31741e-06 0.000120427)
(0.00106293 2.32173e-06 0.000197057)
(0.000913819 6.17908e-06 0.000236165)
(0.000862266 7.56207e-06 0.000178638)
(0.000862266 7.56207e-06 0.000178638)
(0.000872722 6.40047e-06 9.75576e-05)
(0.000900788 8.74747e-06 5.21512e-05)
(0.000976112 1.77695e-05 8.55574e-06)
(0.000990356 4.86479e-06 -9.11634e-06)
(0.00189512 -9.26727e-06 -7.0328e-05)
(0.00127856 -2.24431e-06 0.000100442)
(0.000994585 1.66261e-06 0.000165411)
(0.000878828 4.46447e-06 0.000194847)
(0.000850304 5.38522e-06 0.000147941)
(0.000872722 6.40047e-06 9.75576e-05)
(0.000900788 8.74747e-06 5.21512e-05)
(0.000900788 8.74747e-06 5.21512e-05)
(0.000905285 6.4997e-06 -6.97401e-06)
(0.00091602 -8.38687e-07 -3.34276e-05)
(0.00185351 -1.59308e-05 -3.8635e-05)
(0.00122996 -1.63311e-06 8.64954e-05)
(0.000948811 2.36603e-06 0.00013162)
(0.000842854 6.25045e-06 0.00015272)
(0.000828203 5.28533e-06 0.00011422)
(0.00085425 6.53391e-06 7.36701e-05)
(0.000881659 6.03295e-06 3.43156e-05)
(0.000905285 6.4997e-06 -6.97401e-06)
)
;
    }
    procBoundary2to3
    {
        type            processor;
        value           nonuniform List<vector> 
12
(
(0.00109636 9.52513e-06 -6.61739e-06)
(0.00113409 2.78788e-06 -2.51817e-05)
(0.00120211 1.27896e-06 -4.29727e-05)
(0.00127658 -1.48446e-05 -2.91821e-05)
(0.0010196 4.11797e-06 -2.49233e-05)
(0.00106282 -9.2464e-06 -3.45128e-05)
(0.00113011 -6.18431e-06 -5.05303e-05)
(0.00123115 -3.26564e-06 -2.74279e-05)
(0.000917626 -3.64913e-06 -5.35787e-05)
(0.000992462 -1.9432e-05 -4.57746e-05)
(0.0011054 -9.68655e-06 -4.72307e-05)
(0.001265 9.81927e-07 -4.2061e-05)
)
;
    }
    procBoundary2to6
    {
        type            processor;
        value           nonuniform List<vector> 
32
(
(0.000950751 6.61988e-07 -2.9344e-05)
(0.00104058 -1.53495e-05 1.20658e-05)
(0.00106087 -1.13895e-05 -1.98537e-05)
(0.00115483 -1.8562e-05 0.000114443)
(0.00123123 -3.34672e-05 5.87514e-05)
(0.00123824 -2.81859e-05 -8.9927e-06)
(0.00186275 6.49362e-05 1.32624e-05)
(0.00123012 3.08177e-05 7.83272e-05)
(0.00095264 1.22093e-05 9.95494e-05)
(0.00085126 -1.55501e-06 0.00010597)
(0.000843931 -1.73427e-06 8.35295e-05)
(0.000870743 -2.82047e-06 5.26329e-05)
(0.000901959 -5.09137e-06 2.08354e-05)
(0.000950751 6.61988e-07 -2.9344e-05)
(0.00104058 -1.53495e-05 1.20658e-05)
(0.000925348 -9.70711e-06 -2.09555e-05)
(0.00192116 0.000127454 4.70557e-06)
(0.00129446 6.01276e-05 7.56529e-05)
(0.00101322 2.38818e-05 0.000104759)
(0.000909651 -4.50089e-06 0.000120478)
(0.000905964 -6.02299e-06 0.000102462)
(0.000937383 -1.2513e-05 7.5177e-05)
(0.00104058 -1.53495e-05 1.20658e-05)
(0.00115483 -1.8562e-05 0.000114443)
(0.000985982 -1.57454e-05 3.8818e-05)
(0.00200637 0.000146501 -5.32922e-06)
(0.00139398 8.30557e-05 7.32768e-05)
(0.00111846 3.74925e-05 0.000113772)
(0.00102419 6.68525e-06 0.000142162)
(0.00101695 -5.46291e-06 0.000135255)
(0.00115483 -1.8562e-05 0.000114443)
(0.00107023 -2.61032e-05 0.000117321)
)
;
    }
}


// ************************************************************************* //
