/*--------------------------------*- C++ -*----------------------------------*\
| =========                 |                                                 |
| \\      /  F ield         | OpenFOAM: The Open Source CFD Toolbox           |
|  \\    /   O peration     | Version:  4.x                                   |
|   \\  /    A nd           | Web:      www.OpenFOAM.org                      |
|    \\/     M anipulation  |                                                 |
\*---------------------------------------------------------------------------*/
FoamFile
{
    version     2.0;
    format      ascii;
    class       volScalarField;
    location    "6";
    object      KslPrev;
}
// * * * * * * * * * * * * * * * * * * * * * * * * * * * * * * * * * * * * * //

dimensions      [1 -3 -1 0 0 0 0];

internalField   nonuniform List<scalar> 
114
(
6157.9
3291.82
8908.27
3506.69
18420.9
3547.98
3441.06
6399.73
3201.21
5481.77
3178
6660.39
3344.67
9751.15
3411.54
3374.75
6089.86
3092.15
4915.47
3004.98
5361.68
3107.52
7353.27
3279.84
3350.08
5452.44
2944.58
4077.75
2684.49
3676.19
2586.58
3768.37
2646.72
19466.5
3858.05
19554.7
3725.69
3492.51
8700.3
3676.8
10492.4
3783.52
12539.2
3720.33
14688.7
3622.23
3449.33
8303.44
3616.86
9297.31
3698.73
10849.3
3690.87
13908.3
3696.76
3402.65
6605.53
3329.55
5617.46
3158.54
4974.98
2982.37
4549.16
2832.07
24725.9
3958.72
3558.26
9763.12
3835.11
13715.5
3912.96
15905.2
3839.7
15607.6
3737.71
3510.24
9380.83
3797.09
12883.4
3926.64
15962.5
3929.75
20137.2
3912.76
3453.63
7321.39
3492.02
6727.85
3382.9
5784.06
3228.43
5010.01
2998.06
3576.32
10575.8
3888.15
15800.2
3951.21
17486.5
3892.6
17358
3518.55
9689.65
3811.26
13544.7
3937.69
17516.2
3965.41
3443.81
7121.41
3480.9
6499.21
3401.74
5677
)
;

boundaryField
{
    inlet
    {
        type            zeroGradient;
    }
    outlet
    {
        type            zeroGradient;
    }
    wall
    {
        type            zeroGradient;
    }
    procBoundary2to0
    {
        type            processor;
        value           uniform 0;
    }
    procBoundary2to3
    {
        type            processor;
        value           uniform 0;
    }
    procBoundary2to6
    {
        type            processor;
        value           uniform 0;
    }
}


// ************************************************************************* //
