/*--------------------------------*- C++ -*----------------------------------*\
| =========                 |                                                 |
| \\      /  F ield         | OpenFOAM: The Open Source CFD Toolbox           |
|  \\    /   O peration     | Version:  4.x                                   |
|   \\  /    A nd           | Web:      www.OpenFOAM.org                      |
|    \\/     M anipulation  |                                                 |
\*---------------------------------------------------------------------------*/
FoamFile
{
    version     2.0;
    format      ascii;
    class       volScalarField;
    location    "6";
    object      p;
}
// * * * * * * * * * * * * * * * * * * * * * * * * * * * * * * * * * * * * * //

dimensions      [1 -1 -2 0 0 0 0];

internalField   nonuniform List<scalar> 
114
(
5707.56
5724.95
5688.69
5717.28
5671.61
5710.55
5744.46
5727.66
5735.22
5708.1
5725.39
5689.31
5717.23
5671.64
5710.1
5743.33
5726.79
5735.01
5708.23
5725.85
5689.55
5717.69
5671.73
5710.51
5742.41
5726.17
5734.27
5708.06
5725.24
5689.44
5716.86
5671.3
5709.46
3812.67
3840.43
3795.08
3832.96
3867.76
3850.58
3858.81
3831.59
3849.15
3813.2
3840.74
3795.24
3833.08
3866.75
3849.89
3858.65
3831.61
3849.67
3813.39
3841.28
3795.42
3833.46
3865.63
3849.15
3857.67
3831.32
3848.9
3813.17
3840.55
3795.17
3832.98
1918.83
1956.09
1990.73
1973.29
1982.04
1954.94
1972.56
1936.75
1963.85
1918.67
1955.77
1989.94
1972.91
1981.96
1954.99
1973.04
1936.94
1964.53
1918.84
1956.3
1988.84
1972.11
1980.88
1954.55
1972.19
1936.78
1963.73
1918.75
1955.81
113.25
95.8355
104.626
77.595
95.2092
59.3388
86.2982
41.1601
112.679
95.4675
104.586
77.6133
95.6645
59.501
86.7376
111.561
94.7389
103.515
77.2048
94.7858
59.2661
)
;

boundaryField
{
    inlet
    {
        type            calculated;
        value           nonuniform List<scalar> 
12
(
5744.46
5743.33
5742.41
3867.76
3866.75
3865.63
1990.73
1989.94
1988.84
113.25
112.679
111.561
)
;
    }
    outlet
    {
        type            calculated;
        value           nonuniform 0();
    }
    wall
    {
        type            calculated;
        value           nonuniform List<scalar> 
66
(
6683.39
6682.26
6681.33
6666.47
6665.6
6664.98
6673.79
6673.58
6672.89
6645.74
6646.3
6646.45
6646.4
6662.74
6663.19
6663.67
6663.25
6626.27
6626.83
6627.07
6627.15
6654.92
6654.74
6655.12
6654.35
6609.54
6609.4
6609.3
6608.7
6648.85
6648.24
6648.41
6646.92
5742.41
3865.63
1988.84
111.561
5726.17
3849.15
1972.11
94.739
5734.27
3857.67
1980.88
103.515
5708.06
3831.32
1954.55
77.2048
5725.24
3848.9
1972.19
94.7858
5689.44
3813.17
1936.78
59.2661
5716.86
3840.55
1963.73
5671.3
3795.17
1918.75
5709.46
3832.98
1955.81
)
;
    }
    procBoundary2to0
    {
        type            processor;
        value           nonuniform List<scalar> 
44
(
5704.56
5721.9
5686.9
5715.98
5671.21
5709.94
5747.59
5729.63
5735.75
5735.75
3831.36
3848.88
3811.29
3839.6
3794.69
3832.97
3870.45
3852.05
3859.53
3831.36
3848.88
3848.88
1936.52
1964.01
1918.26
1955.53
1992.73
1974.72
1982.86
1955.11
1972.61
1936.52
1964.01
1964.01
41.5234
77.808
114.431
96.8515
105.384
77.9426
95.4302
59.5209
86.2917
41.5234
)
;
    }
    procBoundary2to3
    {
        type            processor;
        value           nonuniform List<scalar> 
12
(
5654.56
5654.44
5654.04
5653.41
3777.5
3777.57
3777.27
3777.09
1901.28
1900.78
1900.5
1900.44
)
;
    }
    procBoundary2to6
    {
        type            processor;
        value           nonuniform List<scalar> 
32
(
77.9874
41.3302
78.0116
86.1588
41.3028
77.9978
-1764.09
-1781.87
-1772.63
-1799.47
-1782.03
-1817.68
-1790.9
77.9874
41.3302
-1835.63
-1764.66
-1782
-1772.78
-1799.47
-1781.73
-1817.5
41.3302
86.1588
-1790.83
-1765.73
-1782.7
-1773.81
-1799.91
-1782.47
86.1588
-1817.81
)
;
    }
}


// ************************************************************************* //
