/*--------------------------------*- C++ -*----------------------------------*\
| =========                 |                                                 |
| \\      /  F ield         | OpenFOAM: The Open Source CFD Toolbox           |
|  \\    /   O peration     | Version:  4.x                                   |
|   \\  /    A nd           | Web:      www.OpenFOAM.org                      |
|    \\/     M anipulation  |                                                 |
\*---------------------------------------------------------------------------*/
FoamFile
{
    version     2.0;
    format      ascii;
    class       volScalarField;
    location    "6";
    object      QPartFluid;
}
// * * * * * * * * * * * * * * * * * * * * * * * * * * * * * * * * * * * * * //

dimensions      [1 -1 -3 0 0 0 0];

internalField   nonuniform List<scalar> 
114
(
7.08251e+09
5.42164e+09
2.89708e+09
5.51811e+09
2.51287e+09
2.74321e+09
5.7937e+09
7.01815e+09
6.16642e+09
4.50208e+09
7.26888e+09
4.84822e+09
7.05908e+09
6.13363e+09
4.14593e+09
3.8637e+09
6.30987e+09
3.51037e+09
5.89984e+09
5.09914e+09
5.94721e+09
3.33963e+09
5.18417e+09
3.60074e+09
3.94931e+09
4.0681e+09
4.50322e+09
4.77274e+09
4.01503e+09
4.27242e+09
3.03908e+09
4.90067e+09
3.85381e+09
9.36165e+09
1.18184e+10
6.18847e+09
1.08494e+10
4.70817e+09
7.9636e+09
9.52084e+09
9.02963e+09
8.85878e+09
6.94113e+09
1.08577e+10
8.47593e+09
6.17184e+09
5.83407e+09
1.00648e+10
1.06223e+10
9.22888e+09
9.29081e+09
8.90406e+09
9.02618e+09
8.23793e+09
7.87798e+09
5.03564e+09
5.47508e+09
8.35328e+09
6.11552e+09
7.59513e+09
6.69285e+09
6.72604e+09
7.20632e+09
4.81899e+09
8.0687e+09
9.14004e+09
6.7956e+09
5.70793e+09
6.62849e+09
6.77836e+09
6.64264e+09
7.75546e+09
9.81881e+09
7.38822e+09
5.79171e+09
4.94586e+09
6.92918e+09
8.92836e+09
1.03456e+10
9.00941e+09
7.0002e+09
9.40973e+09
8.61332e+09
1.039e+10
4.95065e+09
7.61518e+09
6.88202e+09
7.52211e+09
4.73869e+09
6.9186e+09
9.75225e+09
5.67472e+09
1.0033e+10
4.84467e+09
9.39326e+09
1.01085e+10
7.06913e+09
7.69709e+09
6.75192e+09
7.58971e+09
8.04873e+09
5.82571e+09
7.84077e+09
1.03598e+10
6.46523e+09
8.93411e+09
7.52163e+09
1.03037e+10
4.21979e+09
6.33116e+09
7.40648e+09
7.29706e+09
6.67324e+09
6.67172e+09
)
;

boundaryField
{
    inlet
    {
        type            calculated;
        value           uniform 0;
    }
    outlet
    {
        type            calculated;
        value           nonuniform 0();
    }
    wall
    {
        type            calculated;
        value           uniform 0;
    }
    procBoundary2to0
    {
        type            processor;
        value           nonuniform List<scalar> 
44
(
5.12893e+09
5.47482e+09
4.64918e+09
3.77799e+09
4.18178e+09
8.13367e+09
2.95498e+09
4.56112e+09
3.5052e+09
3.5052e+09
5.16221e+09
1.11593e+10
7.38564e+09
1.00108e+10
6.61007e+09
6.02893e+09
7.9118e+09
6.99658e+09
7.63156e+09
5.16221e+09
1.11593e+10
1.11593e+10
7.9389e+09
8.65506e+09
6.54978e+09
5.37775e+09
6.82358e+09
8.55343e+09
9.32345e+09
8.56983e+09
9.9275e+09
7.9389e+09
8.65506e+09
8.65506e+09
5.78922e+09
2.68202e+09
4.78026e+09
6.67007e+09
9.48154e+09
1.02486e+10
5.34525e+09
1.00131e+10
8.56863e+09
5.78922e+09
)
;
    }
    procBoundary2to3
    {
        type            processor;
        value           nonuniform List<scalar> 
12
(
6.70832e+09
5.26811e+09
5.99513e+09
4.16698e+09
7.98221e+09
7.25659e+09
1.21954e+10
8.38184e+09
8.35217e+09
9.95675e+09
6.92912e+09
6.40503e+09
)
;
    }
    procBoundary2to6
    {
        type            processor;
        value           nonuniform List<scalar> 
32
(
8.20342e+09
6.75061e+09
8.96679e+09
5.7149e+09
6.46455e+09
5.7415e+09
9.85548e+09
8.8755e+09
5.98277e+09
7.94276e+09
1.09642e+10
6.28205e+09
8.69651e+09
8.20342e+09
6.75061e+09
6.76977e+09
6.23526e+09
9.17688e+09
8.0339e+09
9.73592e+09
9.06726e+09
8.73218e+09
6.75061e+09
5.7149e+09
8.67991e+09
4.61755e+09
7.64252e+09
5.89048e+09
6.23666e+09
8.63452e+09
5.7149e+09
9.7353e+09
)
;
    }
}


// ************************************************************************* //
