/*--------------------------------*- C++ -*----------------------------------*\
| =========                 |                                                 |
| \\      /  F ield         | OpenFOAM: The Open Source CFD Toolbox           |
|  \\    /   O peration     | Version:  4.x                                   |
|   \\  /    A nd           | Web:      www.OpenFOAM.org                      |
|    \\/     M anipulation  |                                                 |
\*---------------------------------------------------------------------------*/
FoamFile
{
    version     2.0;
    format      ascii;
    class       volScalarField;
    location    "6";
    object      SPartFluid;
}
// * * * * * * * * * * * * * * * * * * * * * * * * * * * * * * * * * * * * * //

dimensions      [1 -3 -1 0 0 0 0];

internalField   nonuniform List<scalar> 
114
(
6.50794e-65
4.88077e-65
2.55624e-65
4.88035e-65
2.24645e-65
2.63394e-65
5.73471e-65
6.50912e-65
5.11396e-65
3.79634e-65
6.19779e-65
4.41555e-65
6.19734e-65
6.11981e-65
3.95108e-65
4.02992e-65
5.65695e-65
2.78949e-65
5.26865e-65
3.87384e-65
5.19067e-65
2.78902e-65
4.64831e-65
3.09893e-65
4.41743e-65
4.26227e-65
3.87465e-65
4.57178e-65
3.33192e-65
3.79673e-65
2.7119e-65
4.49393e-65
3.09934e-65
8.44301e-65
9.75975e-65
5.73218e-65
9.37311e-65
5.42464e-65
6.81896e-65
7.67036e-65
7.74711e-65
7.04933e-65
6.27431e-65
8.98545e-65
7.59119e-65
5.19022e-65
6.04477e-65
8.60139e-65
8.29075e-65
7.59263e-65
7.35974e-65
7.3596e-65
7.04951e-65
7.12703e-65
6.275e-65
5.88981e-65
5.19201e-65
6.97386e-65
5.81112e-65
6.89557e-65
5.88815e-65
5.88812e-65
6.50787e-65
4.26126e-65
7.59067e-65
7.97839e-65
7.28447e-65
4.95914e-65
5.50071e-65
6.1199e-65
5.57715e-65
7.12598e-65
8.3653e-65
6.58391e-65
4.88005e-65
5.34719e-65
6.0441e-65
7.12803e-65
9.06425e-65
7.28171e-65
6.42937e-65
7.51379e-65
7.43656e-65
8.36644e-65
5.34724e-65
7.51658e-65
6.04388e-65
6.97292e-65
4.64852e-65
6.50757e-65
8.28945e-65
4.95813e-65
8.90948e-65
4.80455e-65
8.1358e-65
8.36726e-65
6.50722e-65
6.42912e-65
6.27381e-65
6.27377e-65
7.74565e-65
6.89713e-65
6.89635e-65
8.36784e-65
5.81037e-65
7.20416e-65
6.89395e-65
8.36585e-65
5.26977e-65
6.50917e-65
6.27613e-65
7.12788e-65
5.50051e-65
6.35242e-65
)
;

boundaryField
{
    inlet
    {
        type            calculated;
        value           uniform 0;
    }
    outlet
    {
        type            calculated;
        value           nonuniform 0();
    }
    wall
    {
        type            calculated;
        value           uniform 0;
    }
    procBoundary2to0
    {
        type            processor;
        value           nonuniform List<scalar> 
44
(
4.72584e-65
4.26082e-65
4.33809e-65
3.25361e-65
4.18335e-65
7.20501e-65
2.86738e-65
4.41683e-65
3.25439e-65
3.25439e-65
4.57042e-65
9.14049e-65
6.58417e-65
8.28841e-65
6.04214e-65
4.95797e-65
8.0594e-65
6.12145e-65
6.12054e-65
4.57042e-65
9.14049e-65
9.14049e-65
7.12574e-65
7.12563e-65
6.19659e-65
4.57033e-65
7.28442e-65
7.59333e-65
7.66975e-65
7.97884e-65
8.36542e-65
7.12574e-65
7.12563e-65
7.12563e-65
5.42161e-65
2.32366e-65
5.26959e-65
5.8888e-65
7.82484e-65
9.21822e-65
4.41504e-65
9.21679e-65
7.12551e-65
5.42161e-65
)
;
    }
    procBoundary2to3
    {
        type            processor;
        value           nonuniform List<scalar> 
12
(
6.97235e-65
5.03569e-65
5.50078e-65
4.649e-65
7.51444e-65
6.50737e-65
1.03814e-64
7.74775e-65
7.66906e-65
8.98601e-65
5.65547e-65
5.73329e-65
)
;
    }
    procBoundary2to6
    {
        type            processor;
        value           nonuniform List<scalar> 
32
(
6.73899e-65
6.04221e-65
7.1269e-65
5.11308e-65
5.81031e-65
4.95832e-65
1.03841e-64
7.59364e-65
4.9585e-65
7.43675e-65
9.37254e-65
6.11901e-65
7.35826e-65
6.73899e-65
6.04221e-65
6.5065e-65
5.81204e-65
7.90383e-65
6.43077e-65
8.52181e-65
7.35928e-65
7.82372e-65
6.04221e-65
5.11308e-65
7.04906e-65
4.95981e-65
7.20657e-65
5.424e-65
6.12068e-65
7.59246e-65
5.11308e-65
8.754e-65
)
;
    }
}


// ************************************************************************* //
