/*--------------------------------*- C++ -*----------------------------------*\
| =========                 |                                                 |
| \\      /  F ield         | OpenFOAM: The Open Source CFD Toolbox           |
|  \\    /   O peration     | Version:  4.x                                   |
|   \\  /    A nd           | Web:      www.OpenFOAM.org                      |
|    \\/     M anipulation  |                                                 |
\*---------------------------------------------------------------------------*/
FoamFile
{
    version     2.0;
    format      ascii;
    class       volScalarField;
    location    "6";
    object      thCond;
}
// * * * * * * * * * * * * * * * * * * * * * * * * * * * * * * * * * * * * * //

dimensions      [1 1 -3 -1 0 0 0];

internalField   nonuniform List<scalar> 
114
(
192.575
192.531
192.701
192.47
192.709
192.499
192.983
192.742
192.786
192.707
192.435
192.516
192.276
192.297
192.419
193.186
192.899
193.038
192.751
192.778
192.677
192.814
192.599
192.615
193.3
193.195
193.14
192.982
193.079
193.044
193.121
192.84
192.837
191.396
191.218
191.585
191.291
192.405
192.129
191.896
191.742
191.625
191.575
191.258
191.428
191.572
192.471
192.058
191.877
191.775
191.755
191.712
191.653
191.616
191.593
192.635
192.465
192.166
192.119
192.046
192.061
192.004
191.916
191.947
190.871
190.794
191.777
191.739
191.47
191.238
191.158
190.936
190.72
190.88
190.957
192.018
191.715
191.374
191.079
191.15
191.104
190.906
190.929
190.795
192.167
191.751
191.609
191.406
191.552
191.314
191.093
191.292
190.944
191.515
191.091
190.821
190.77
190.698
190.589
190.491
190.453
191.508
191.213
190.889
190.865
190.718
190.627
190.473
191.811
191.419
191.206
190.974
190.996
190.831
)
;

boundaryField
{
    inlet
    {
        type            zeroGradient;
    }
    outlet
    {
        type            zeroGradient;
    }
    wall
    {
        type            zeroGradient;
    }
    procBoundary2to0
    {
        type            processor;
        value           nonuniform List<scalar> 
44
(
192.822
192.776
192.717
192.738
192.66
192.305
193.407
193.085
193.008
193.008
191.965
191.459
191.683
191.525
191.744
191.725
192.274
192.233
192.1
191.965
191.459
191.459
190.831
190.781
191.1
191.164
191.725
191.571
191.313
191.064
190.887
190.831
190.781
190.781
190.68
190.79
191.659
191.329
190.852
190.593
190.759
190.353
190.432
190.68
)
;
    }
    procBoundary2to3
    {
        type            processor;
        value           nonuniform List<scalar> 
12
(
191.923
191.965
192.045
192.361
191.125
191.198
191.025
191.445
190.463
190.479
190.801
191.084
)
;
    }
    procBoundary2to6
    {
        type            processor;
        value           nonuniform List<scalar> 
32
(
190.461
190.603
190.511
190.888
190.88
190.849
190.773
190.804
190.813
190.442
190.173
190.312
190.163
190.461
190.603
190.212
191.282
190.917
190.814
190.446
190.341
190.259
190.603
190.888
190.248
191.638
191.168
191.082
190.738
190.447
190.888
190.273
)
;
    }
}


// ************************************************************************* //
