/*--------------------------------*- C++ -*----------------------------------*\
| =========                 |                                                 |
| \\      /  F ield         | OpenFOAM: The Open Source CFD Toolbox           |
|  \\    /   O peration     | Version:  4.x                                   |
|   \\  /    A nd           | Web:      www.OpenFOAM.org                      |
|    \\/     M anipulation  |                                                 |
\*---------------------------------------------------------------------------*/
FoamFile
{
    version     2.0;
    format      ascii;
    class       volScalarField;
    location    "32.5";
    object      Qsource;
}
// * * * * * * * * * * * * * * * * * * * * * * * * * * * * * * * * * * * * * //

dimensions      [1 -1 -3 0 0 0 0];

internalField   nonuniform List<scalar> 
108
(
9.0893e+09
4.8659e+09
7.32358e+09
4.2854e+09
5.52408e+09
4.8279e+09
5.95153e+09
6.18026e+09
3.03232e+09
6.85443e+09
9.89891e+09
5.58765e+09
6.59855e+09
6.69935e+09
6.11129e+09
6.46344e+09
6.6042e+09
3.86745e+09
7.27757e+09
7.83027e+09
7.73299e+09
6.01705e+09
6.5298e+09
6.49489e+09
7.28423e+09
8.22122e+09
4.37649e+09
5.94647e+09
6.55971e+09
6.32178e+09
9.02161e+09
7.11824e+09
8.01248e+09
5.08277e+09
8.33545e+09
5.84165e+09
8.51011e+09
8.03486e+09
1.01614e+10
1.05481e+10
8.34066e+09
7.8454e+09
6.68852e+09
8.29878e+09
7.27525e+09
7.76189e+09
8.13071e+09
8.37059e+09
9.09469e+09
7.7486e+09
8.06991e+09
9.56094e+09
8.95276e+09
5.72736e+09
1.27379e+10
9.93603e+09
9.03369e+09
1.14085e+10
8.48956e+09
1.01848e+10
8.171e+09
9.8613e+09
7.72021e+09
9.02631e+09
8.15808e+09
7.90259e+09
9.07452e+09
9.74909e+09
8.76755e+09
7.78159e+09
9.96622e+09
6.10718e+09
8.10123e+09
1.08514e+10
9.01102e+09
1.01782e+10
6.4657e+09
7.65073e+09
8.91925e+09
8.32494e+09
6.82151e+09
9.65688e+09
6.23186e+09
8.15252e+09
5.03695e+09
4.38225e+09
9.5427e+09
7.70037e+09
1.10686e+10
5.12542e+09
6.06021e+09
1.03686e+10
9.21245e+09
7.30363e+09
7.40036e+09
1.00088e+10
8.16262e+09
9.37133e+09
4.95595e+09
9.31659e+09
5.84747e+09
6.35308e+09
8.02559e+09
7.00932e+09
9.78737e+09
7.03927e+09
1.08949e+10
8.23214e+09
)
;

boundaryField
{
    inlet
    {
        type            calculated;
        value           nonuniform 0();
    }
    outlet
    {
        type            calculated;
        value           uniform 0;
    }
    wall
    {
        type            calculated;
        value           uniform 0;
    }
    procBoundary3to1
    {
        type            processor;
        value           nonuniform List<scalar> 
27
(
4.57776e+09
8.12182e+09
6.85663e+09
9.98687e+09
6.85983e+09
6.88315e+09
6.17135e+09
7.40228e+09
4.67978e+09
7.96752e+09
8.52042e+09
7.19681e+09
6.8313e+09
5.74522e+09
9.22891e+09
9.26676e+09
1.30366e+10
4.32476e+09
9.37225e+09
7.85769e+09
5.4586e+09
1.10981e+10
8.81823e+09
1.06206e+10
7.44359e+09
9.67509e+09
3.37238e+09
)
;
    }
    procBoundary3to2
    {
        type            processor;
        value           nonuniform List<scalar> 
12
(
5.59416e+09
5.44856e+09
7.51184e+09
6.14512e+09
1.12275e+10
6.45597e+09
7.7221e+09
5.79122e+09
9.18616e+09
5.78068e+09
1.02722e+10
8.66512e+09
)
;
    }
    procBoundary3to7
    {
        type            processor;
        value           nonuniform List<scalar> 
36
(
9.94716e+09
9.0437e+09
6.37815e+09
7.91965e+09
1.10511e+10
1.24851e+10
8.00919e+09
6.62572e+09
6.42601e+09
7.49402e+09
1.13472e+10
7.38964e+09
8.12401e+09
8.42306e+09
6.95948e+09
7.96317e+09
7.77617e+09
6.96352e+09
5.2068e+09
9.37505e+09
6.83065e+09
8.91447e+09
8.20877e+09
1.04571e+10
8.5854e+09
9.14357e+09
6.88475e+09
7.51338e+09
8.40146e+09
9.37124e+09
6.8761e+09
8.2934e+09
8.92344e+09
8.37908e+09
7.95267e+09
3.86556e+09
)
;
    }
}


// ************************************************************************* //
