/*--------------------------------*- C++ -*----------------------------------*\
| =========                 |                                                 |
| \\      /  F ield         | OpenFOAM: The Open Source CFD Toolbox           |
|  \\    /   O peration     | Version:  4.x                                   |
|   \\  /    A nd           | Web:      www.OpenFOAM.org                      |
|    \\/     M anipulation  |                                                 |
\*---------------------------------------------------------------------------*/
FoamFile
{
    version     2.0;
    format      ascii;
    class       volVectorField;
    location    "32.5";
    object      UsPrev;
}
// * * * * * * * * * * * * * * * * * * * * * * * * * * * * * * * * * * * * * //

dimensions      [0 1 -1 0 0 0 0];

internalField   nonuniform List<vector> 
108
(
(-2.42436e-08 -7.28002e-09 1.43962e-08)
(-3.07171e-08 -6.09944e-09 1.83822e-08)
(-3.91706e-08 -1.26942e-09 1.79598e-08)
(-3.64235e-08 -3.31955e-09 1.09362e-08)
(-3.55033e-08 -3.28938e-09 -1.48091e-10)
(-2.2156e-08 -1.48217e-09 -6.52187e-09)
(-1.47571e-08 -6.36794e-09 -1.72096e-08)
(5.2712e-08 4.135e-08 -4.29251e-08)
(-7.51824e-07 2.29821e-08 -5.46592e-08)
(-2.70215e-08 -5.49104e-09 1.24106e-08)
(-3.5127e-08 -6.41454e-09 1.56819e-08)
(-3.49995e-08 -5.56024e-09 1.46257e-08)
(-3.77466e-08 -3.61121e-09 1.03886e-08)
(-3.75755e-08 -2.09326e-09 1.4013e-09)
(-3.40436e-08 2.29027e-09 -8.46832e-09)
(-2.34504e-08 1.85815e-10 -2.48473e-08)
(-3.00104e-08 2.51374e-08 -4.54593e-08)
(-1.16189e-06 5.64354e-08 -1.36858e-07)
(-2.39774e-08 -9.74862e-09 9.88863e-09)
(-3.18137e-08 -3.48302e-09 1.24276e-08)
(-3.10667e-08 -4.0101e-09 1.32831e-08)
(-3.04116e-08 -3.8179e-09 9.78639e-09)
(-3.34172e-08 -3.8064e-10 2.1981e-09)
(-2.29907e-08 2.0354e-09 -8.05855e-09)
(-1.9549e-08 1.02776e-09 -1.79412e-08)
(1.20877e-08 1.46685e-08 -3.64636e-08)
(1.25016e-08 7.82468e-10 -4.86705e-08)
(-1.23457e-08 -5.15775e-09 4.01879e-09)
(-2.18209e-08 -4.71565e-09 7.95611e-09)
(-2.00332e-08 -6.57566e-09 7.32449e-09)
(-1.67251e-08 -3.18886e-09 3.40273e-09)
(-2.37134e-08 -2.16621e-09 3.05911e-09)
(-1.44741e-08 6.56567e-10 -2.19629e-09)
(2.03926e-09 3.89411e-09 -6.6572e-09)
(1.03837e-08 2.13633e-09 -7.02022e-09)
(-5.6468e-10 -4.01393e-08 -2.21366e-08)
(-2.39567e-08 -5.00271e-09 1.57991e-08)
(-2.65572e-08 -3.40669e-09 1.71978e-08)
(-2.99924e-08 -4.37935e-09 1.72589e-08)
(-2.86027e-08 -3.97649e-09 8.2224e-09)
(-2.51699e-08 -2.6404e-09 -1.61852e-09)
(-2.05998e-08 -1.72259e-09 -8.93722e-09)
(-1.50198e-08 2.2533e-10 -1.94324e-08)
(7.94761e-10 8.09345e-09 -3.73047e-08)
(-1.47778e-07 1.05627e-08 -4.2152e-08)
(-2.26253e-08 -3.87614e-09 1.23195e-08)
(-2.99172e-08 -3.37223e-09 1.5693e-08)
(-3.09754e-08 -4.42498e-09 1.52463e-08)
(-3.04009e-08 -3.11009e-09 1.04941e-08)
(-2.98113e-08 -2.86989e-09 1.98621e-09)
(-2.52276e-08 5.75349e-10 -7.71478e-09)
(-3.30214e-08 -1.3153e-08 -1.81853e-08)
(-1.10576e-08 -3.0398e-09 -4.10727e-08)
(-1.32591e-09 -5.75529e-09 -5.82023e-08)
(-2.12871e-08 -4.47156e-09 9.24485e-09)
(-2.51181e-08 -1.77353e-09 1.19372e-08)
(-2.6964e-08 -2.3315e-09 1.32486e-08)
(-2.4932e-08 -2.28592e-09 8.71582e-09)
(-2.36359e-08 -2.76181e-10 5.35414e-10)
(-1.99388e-08 1.39143e-09 -6.58242e-09)
(-1.13213e-08 -9.90343e-10 -1.45852e-08)
(-4.44258e-09 -2.84905e-09 -3.21747e-08)
(4.76477e-09 -6.8211e-09 -4.16394e-08)
(-1.38096e-08 -2.30084e-09 3.79043e-09)
(-2.35694e-08 -2.80665e-09 6.42227e-09)
(-1.57154e-08 -1.21249e-09 5.90264e-09)
(-1.49294e-08 -2.34696e-09 3.88297e-09)
(-1.24819e-08 -1.11615e-09 1.20332e-10)
(-8.63474e-09 -5.50643e-10 -3.54799e-09)
(-4.20918e-09 -1.21227e-09 -6.74473e-09)
(-1.28324e-09 -1.64523e-09 -8.35624e-09)
(4.78184e-10 -7.36161e-10 -1.62838e-08)
(-1.7001e-08 -3.5438e-09 1.30521e-08)
(-1.91127e-08 -1.4094e-09 1.57088e-08)
(-2.17628e-08 -8.12516e-10 1.51491e-08)
(-2.2756e-08 -2.96551e-09 8.02452e-09)
(-1.82954e-08 -2.5583e-09 -1.1398e-09)
(-1.3506e-08 -9.20877e-10 -7.32651e-09)
(-9.40418e-09 8.75293e-10 -1.48628e-08)
(-9.78251e-10 1.49531e-09 -1.87861e-08)
(1.30158e-09 1.5365e-09 -1.31573e-08)
(-1.81913e-08 -3.54449e-09 1.07903e-08)
(-2.23375e-08 -1.33449e-09 1.51174e-08)
(-2.48441e-08 -4.35419e-09 1.57987e-08)
(-2.26178e-08 -2.33591e-09 8.8006e-09)
(-1.87393e-08 -8.90196e-10 1.10354e-09)
(-1.43207e-08 1.07293e-10 -6.50739e-09)
(-9.34998e-09 1.88349e-09 -1.50975e-08)
(-5.47078e-09 1.6103e-09 -2.30573e-08)
(-4.59839e-09 2.78433e-09 -2.48707e-08)
(-1.76845e-08 -4.76841e-10 9.27652e-09)
(-1.91693e-08 -4.11318e-10 1.25814e-08)
(-2.26187e-08 -7.04049e-09 1.36024e-08)
(-2.23804e-08 -3.60739e-09 8.46948e-09)
(-1.78493e-08 -1.50246e-10 3.98767e-10)
(-1.15285e-08 1.06107e-10 -5.10828e-09)
(-9.62401e-09 1.99362e-09 -1.04629e-08)
(-2.22351e-09 3.37032e-09 -1.59158e-08)
(-5.38024e-10 -1.75374e-09 -1.55496e-08)
(-1.17982e-08 1.20629e-09 3.66967e-09)
(-1.44392e-08 -1.36443e-09 5.65713e-09)
(-1.5015e-08 -6.60689e-09 7.49307e-09)
(-1.1477e-08 -3.59059e-09 3.01182e-09)
(-1.14897e-08 -5.46729e-10 6.54274e-10)
(-6.44759e-09 -1.26137e-09 -2.82004e-09)
(-4.16783e-09 1.26418e-10 -5.33007e-09)
(-1.00306e-09 -1.50471e-09 -6.50723e-09)
(1.66511e-09 -1.69876e-09 -5.88758e-09)
)
;

boundaryField
{
    inlet
    {
        type            calculated;
        value           nonuniform 0();
    }
    outlet
    {
        type            calculated;
        value           uniform (0 0 0);
    }
    wall
    {
        type            calculated;
        value           uniform (0 0 0);
    }
    procBoundary3to1
    {
        type            processor;
        value           uniform (0 0 0);
    }
    procBoundary3to2
    {
        type            processor;
        value           uniform (0 0 0);
    }
    procBoundary3to7
    {
        type            processor;
        value           uniform (0 0 0);
    }
}


// ************************************************************************* //
