/*--------------------------------*- C++ -*----------------------------------*\
| =========                 |                                                 |
| \\      /  F ield         | OpenFOAM: The Open Source CFD Toolbox           |
|  \\    /   O peration     | Version:  4.x                                   |
|   \\  /    A nd           | Web:      www.OpenFOAM.org                      |
|    \\/     M anipulation  |                                                 |
\*---------------------------------------------------------------------------*/
FoamFile
{
    version     2.0;
    format      ascii;
    class       volScalarField;
    location    "46";
    object      KslPrev;
}
// * * * * * * * * * * * * * * * * * * * * * * * * * * * * * * * * * * * * * //

dimensions      [1 -3 -1 0 0 0 0];

internalField   nonuniform List<scalar> 
87
(
3827.6
2557.75
3760.71
2399.55
3770.21
2114.17
4120.04
1684.27
5737.21
4466.79
2694.17
4411.17
2553.34
4530.24
2298.91
5096.7
1942.53
5954.28
5385.14
2962.04
5503.16
2862.31
5777.31
2639.35
6132.72
2197.54
6370.13
6049.41
3037.52
6112.97
2964.84
6470.85
2805.32
7788.73
2627.18
11504.2
11491.9
3399.3
12964.2
3288.98
15714.7
3052.77
16659.5
2804.12
10094.2
43567.1
3727.4
353124
3723.32
1e+10
3842.93
52170.9
4111.75
7410.41
6337.23
3018.6
6630.83
2917.16
7237.31
2717.69
8389.06
2528.04
8749.45
12243.6
3348.57
12180.7
3193.62
12089.9
2982.3
10963.7
2703.31
7603.15
41914.4
3732.71
53711.6
3693.67
44568.2
3639.33
21141.9
3702.48
8034.83
8786.01
3354.55
12666.6
60589.7
3730.12
1e+10
)
;

boundaryField
{
    inlet
    {
        type            zeroGradient;
    }
    outlet
    {
        type            zeroGradient;
    }
    wall
    {
        type            zeroGradient;
    }
    procBoundary1to0
    {
        type            processor;
        value           uniform 0;
    }
    procBoundary1to3
    {
        type            processor;
        value           uniform 0;
    }
    procBoundary1to5
    {
        type            processor;
        value           uniform 0;
    }
    procBoundary1to7
    {
        type            processor;
        value           uniform 0;
    }
}


// ************************************************************************* //
