/*--------------------------------*- C++ -*----------------------------------*\
| =========                 |                                                 |
| \\      /  F ield         | OpenFOAM: The Open Source CFD Toolbox           |
|  \\    /   O peration     | Version:  4.x                                   |
|   \\  /    A nd           | Web:      www.OpenFOAM.org                      |
|    \\/     M anipulation  |                                                 |
\*---------------------------------------------------------------------------*/
FoamFile
{
    version     2.0;
    format      ascii;
    class       volScalarField;
    location    "46";
    object      p_rgh;
}
// * * * * * * * * * * * * * * * * * * * * * * * * * * * * * * * * * * * * * //

dimensions      [1 -1 -2 0 0 0 0];

internalField   nonuniform List<scalar> 
87
(
18.7311
74.4988
-1.04078
68.8963
-22.4151
65.056
-47.114
65.6494
-61.3283
18.192
74.4854
-1.53039
68.8687
-23.0163
65.0439
-47.2596
65.007
-72.9247
18.9287
74.7461
-0.253927
68.7001
-20.8096
63.7927
-42.4761
61.1452
-66.2594
18.9727
74.783
-0.130795
68.7407
-20.2546
63.4861
-41.3635
59.7663
-60.9654
18.5462
74.7663
-0.728147
68.687
-21.2206
63.4356
-42.36
59.9658
-62.6455
19.2363
75.0126
0.354433
68.3195
-18.6089
62.1592
-36.2247
55.8984
-51.675
18.7151
74.5332
-0.790383
68.6299
-21.6568
63.8739
-44.0863
61.0305
-66.9725
18.1977
74.4438
-1.51918
68.385
-22.1535
63.4111
-43.8299
60.83
-65.4811
19.6793
74.5227
0.900858
68.1617
-18.2647
62.5699
-37.1556
58.0985
-54.252
20.152
75.2437
1.77684
19.9704
74.9017
22.128
)
;

boundaryField
{
    inlet
    {
        type            fixedFluxPressure;
        gradient        nonuniform 0();
        value           nonuniform 0();
    }
    outlet
    {
        type            fixedValue;
        value           uniform 0;
    }
    wall
    {
        type            fixedFluxPressure;
        gradient        nonuniform List<scalar> 
57
(
-0.00020034
-0.000104144
-5.08583e-05
-0.000535739
-0.00012075
-4.65044e-05
-0.000128621
-7.04516e-05
-4.83718e-05
-8.23379e-06
-4.10275e-06
-6.83601e-06
-1.24825e-07
-3.77082e-07
2.88452e-06
4.86415e-06
9.33789e-06
5.30812e-06
2.17187e-05
4.77327e-05
3.57787e-05
5.94345e-05
2.64362e-05
3.26631e-05
0.000315638
0.000173258
6.41518e-05
-5.521e-05
-5.93689e-05
-1.25499e-06
-3.15136e-06
-0.00553802
-1.90321e-05
-1.01263e-05
-6.55934e-06
-7.71392e-06
-1.9799e-05
-2.00343e-05
-1.48714e-05
3.65956e-06
7.99995e-06
2.67814e-06
-8.77251e-07
-6.66285e-07
4.15118e-06
7.18659e-06
1.14709e-06
2.183e-06
1.99456e-05
1.17574e-05
3.8007e-06
-1.19195e-05
1.15851e-05
7.23295e-06
0.00010791
8.63147e-05
1.81343e-05
)
;
        value           nonuniform List<scalar> 
57
(
18.7311
18.192
18.9287
74.4988
74.4854
74.7461
-1.04078
-1.53039
-0.253928
68.8963
68.8687
68.7001
-22.4151
-23.0163
-20.8096
65.056
65.0439
63.7927
-47.114
-47.2596
-42.4761
65.6494
65.007
61.1452
-61.3283
-72.9247
-66.2594
18.7311
18.9727
18.7151
20.152
74.4987
74.783
74.5332
75.2437
-1.04078
-0.130795
-0.790383
1.77684
68.8963
68.7407
68.6299
-22.4151
-20.2546
-21.6568
65.056
63.4861
63.8739
-47.114
-41.3635
-44.0863
65.6494
59.7663
61.0305
-61.3283
-60.9654
-66.9725
)
;
    }
    procBoundary1to0
    {
        type            processor;
        value           nonuniform List<scalar> 
12
(
80.7441
80.7325
81.1722
81.2225
81.3044
81.7922
80.9642
81.0419
81.4004
81.7606
81.8448
81.6776
)
;
    }
    procBoundary1to3
    {
        type            processor;
        value           nonuniform List<scalar> 
27
(
17.9199
74.2558
-2.20465
68.5433
-23.1111
64.5298
-46.1527
63.6533
-71.4163
17.8719
74.5478
-1.96941
68.389
-22.5637
63.2108
-43.9212
60.3503
-63.8934
18.8475
74.4336
-0.482245
68.0305
-19.9424
62.6886
-38.9829
58.7056
-55.4567
)
;
    }
    procBoundary1to5
    {
        type            processor;
        value           nonuniform List<scalar> 
32
(
68.877
-16.5038
62.0488
-33.9048
53.091
-53.1333
1.1697
68.1968
-17.2276
61.8187
-35.5706
55.6768
-50.1843
74.7824
4.56756
68.1157
-12.7878
61.3687
-29.6468
53.5932
-44.5802
19.1672
74.5142
68.877
1.1697
-0.0446965
19.3867
1.1697
74.7824
74.661
74.7824
20.7044
)
;
    }
    procBoundary1to7
    {
        type            processor;
        value           uniform 20.4958;
    }
}


// ************************************************************************* //
