/*--------------------------------*- C++ -*----------------------------------*\
| =========                 |                                                 |
| \\      /  F ield         | OpenFOAM: The Open Source CFD Toolbox           |
|  \\    /   O peration     | Version:  4.x                                   |
|   \\  /    A nd           | Web:      www.OpenFOAM.org                      |
|    \\/     M anipulation  |                                                 |
\*---------------------------------------------------------------------------*/
FoamFile
{
    version     2.0;
    format      ascii;
    class       volScalarField;
    location    "46";
    object      QPartFluidCoeff;
}
// * * * * * * * * * * * * * * * * * * * * * * * * * * * * * * * * * * * * * //

dimensions      [1 -1 -3 -1 0 0 0];

internalField   nonuniform List<scalar> 
87
(
-1.4324e+07
-2.35298e+07
-1.39929e+07
-2.18599e+07
-1.45725e+07
-1.62782e+07
-1.74871e+07
-2.19726e+07
-1.33178e+07
-1.51093e+07
-1.47729e+07
-1.94771e+07
-1.91657e+07
-1.46609e+07
-2.22392e+07
-2.55019e+07
-2.24547e+07
-1.33888e+07
-1.31564e+07
-2.36544e+07
-2.07509e+07
-2.98686e+07
-2.09918e+07
-1.94162e+07
-1.92247e+07
-2.10188e+07
-1.4325e+07
-2.47575e+07
-2.19785e+07
-2.04708e+07
-2.52799e+07
-2.12166e+07
-2.61594e+07
-3.02217e+07
-2.98737e+07
-1.78817e+07
-3.00642e+07
-2.24081e+07
-2.52268e+07
-3.14328e+07
-3.06938e+07
-2.57647e+07
-3.13962e+07
-3.52526e+07
-1.57371e+07
-2.63845e+07
-2.82862e+07
-2.39531e+07
-2.26971e+07
-1.93263e+07
-3.10488e+07
-3.14958e+07
-4.39519e+07
-1.48556e+07
-2.37429e+07
-2.33737e+07
-2.74377e+07
-3.20962e+07
-2.03394e+07
-3.22752e+07
-2.5382e+07
-2.48342e+07
-1.06644e+07
-2.16139e+07
-2.95481e+07
-2.16741e+07
-2.70403e+07
-2.7331e+07
-3.0326e+07
-2.5499e+07
-3.1553e+07
-1.23783e+07
-3.15916e+07
-2.62623e+07
-1.82876e+07
-3.71515e+07
-2.95866e+07
-3.56973e+07
-2.49826e+07
-3.22872e+07
-1.12644e+07
-2.15678e+07
-1.84441e+07
-2.53331e+07
-2.61904e+07
-4.06605e+07
-1.96579e+07
)
;

boundaryField
{
    inlet
    {
        type            calculated;
        value           nonuniform 0();
    }
    outlet
    {
        type            calculated;
        value           uniform 0;
    }
    wall
    {
        type            calculated;
        value           uniform 0;
    }
    procBoundary1to0
    {
        type            processor;
        value           nonuniform List<scalar> 
12
(
152.493
396.284
642.855
548.722
678.035
479.64
409.539
766.864
407.837
456.467
523.763
705.459
)
;
    }
    procBoundary1to3
    {
        type            processor;
        value           nonuniform List<scalar> 
27
(
641.813
291.496
509.114
244.695
379.412
287.336
426.482
400.926
220.557
646.91
612.013
777.072
806.213
645.21
605.385
519.546
651.809
581.827
623.978
833.962
701.14
785.11
501.366
594.234
693.957
639.916
528.801
)
;
    }
    procBoundary1to5
    {
        type            processor;
        value           nonuniform List<scalar> 
32
(
593.908
547.958
531.291
431.923
595.678
441.989
548.859
532.977
445.882
625.09
643.343
766.476
495.459
752.622
464.722
658.908
445.1
402.227
564.471
472.895
502.3
502.499
430.759
593.908
548.859
572.272
612.852
548.859
752.622
622.678
752.622
643.318
)
;
    }
    procBoundary1to7
    {
        type            processor;
        value           uniform 763.19;
    }
}


// ************************************************************************* //
