/*--------------------------------*- C++ -*----------------------------------*\
| =========                 |                                                 |
| \\      /  F ield         | OpenFOAM: The Open Source CFD Toolbox           |
|  \\    /   O peration     | Version:  4.x                                   |
|   \\  /    A nd           | Web:      www.OpenFOAM.org                      |
|    \\/     M anipulation  |                                                 |
\*---------------------------------------------------------------------------*/
FoamFile
{
    version     2.0;
    format      ascii;
    class       volScalarField;
    location    "41";
    object      KslNext;
}
// * * * * * * * * * * * * * * * * * * * * * * * * * * * * * * * * * * * * * //

dimensions      [1 -3 -1 0 0 0 0];

internalField   nonuniform List<scalar> 
132
(
3312.74
6853.64
3084
5268.49
2902.08
4538.64
2787.03
4092.76
2612.48
3330.21
7334.55
3191.14
5911.79
3045.71
5181.93
2927.77
4712.62
2817.66
3344.43
7684.25
3256.01
6407.01
3183.44
5744.42
3071.93
5397.26
3030.59
3357.36
7597.53
3221.77
3363.68
7963.06
3293.27
7055.66
3256.58
6519.12
3212.65
6172.69
3110.78
3392.91
9128.51
3461.83
9136.54
3527.91
9622.81
3527.01
10354
3478.26
3434.11
10121.2
3555.33
11435.6
3668.95
14133.1
3737.09
20400.6
3704.24
3475.41
9819.05
3563.71
10867.1
3656.96
3395.74
8126.94
3372.52
7415.97
3317.59
6886.15
3241.05
6501.91
3105.77
3450.08
9520.48
3546.95
10226.1
3605.46
11217.2
3595.92
12406
3482.77
3495.59
10683.4
3676.08
14520.1
3795.47
20164.4
3797.3
25321.9
3706.9
3518.89
11210.7
3716.35
16147.1
3787.02
22866
3757.15
3379.94
8204.61
3386.09
7706.45
3363.02
7559.87
3348.18
7677.17
3310.63
3449.86
10252.1
3618.19
12716
3691.41
16497.5
3747.74
26164.4
3722.88
3506.72
11665.9
3769.04
21415.7
3914.95
71810.1
4014.82
1e+10
4077.96
3493.29
11545.2
3756.89
20106.6
3814.91
39962.2
3809.36
93587.1
3756.9
)
;

boundaryField
{
    inlet
    {
        type            zeroGradient;
    }
    outlet
    {
        type            zeroGradient;
    }
    wall
    {
        type            zeroGradient;
    }
    procBoundary0to1
    {
        type            processor;
        value           uniform 0;
    }
    procBoundary0to2
    {
        type            processor;
        value           uniform 0;
    }
    procBoundary0to4
    {
        type            processor;
        value           uniform 0;
    }
    procBoundary0to6
    {
        type            processor;
        value           uniform 0;
    }
    procBoundary0to7
    {
        type            processor;
        value           uniform 0;
    }
}


// ************************************************************************* //
