/*--------------------------------*- C++ -*----------------------------------*\
| =========                 |                                                 |
| \\      /  F ield         | OpenFOAM: The Open Source CFD Toolbox           |
|  \\    /   O peration     | Version:  4.x                                   |
|   \\  /    A nd           | Web:      www.OpenFOAM.org                      |
|    \\/     M anipulation  |                                                 |
\*---------------------------------------------------------------------------*/
FoamFile
{
    version     2.0;
    format      ascii;
    class       volScalarField;
    location    "40";
    object      p_rgh;
}
// * * * * * * * * * * * * * * * * * * * * * * * * * * * * * * * * * * * * * //

dimensions      [1 -1 -2 0 0 0 0];

internalField   nonuniform List<scalar> 
114
(
69.3543
-16.4719
62.7918
-33.3753
56.0578
-46.7724
1.20543
68.7244
-17.2208
62.477
-34.9906
56.408
-50.2565
75.1681
4.59839
68.5766
-12.8046
61.8798
-29.5952
53.9437
-44.6922
19.2083
74.9019
-0.0225364
68.8211
-20.2165
63.7655
-41.7944
60.761
-65.9763
19.4481
75.0308
0.452241
68.5611
-18.8578
62.7494
-38.0837
58.3202
-55.9634
20.7514
74.8171
2.39042
68.4122
-16.4282
62.5893
-35.4332
57.9145
-53.4851
21.6083
74.8517
20.0378
75.1991
1.06602
68.7937
-18.3019
62.8319
-37.9877
57.7746
-58.1653
19.8885
75.1712
0.676511
68.6155
-18.8895
62.5141
-38.8145
57.4416
-58.9859
20.5445
75.1395
1.9485
68.3873
-16.5644
61.4322
-34.5242
54.7177
-50.6179
20.5793
74.9773
1.68699
68.1581
19.7055
74.794
0.369333
68.7171
-20.3309
63.8135
-43.7744
62.3954
-65.7901
19.7583
74.8551
0.434775
68.6958
-19.8018
63.4084
-41.6413
60.5745
-68.0778
20.297
74.9023
1.19494
68.4399
-18.7987
62.735
-40.3151
59.1671
-67.9503
20.3902
74.9225
1.37407
68.5523
-18.3639
62.8434
)
;

boundaryField
{
    inlet
    {
        type            fixedFluxPressure;
        gradient        nonuniform 0();
        value           nonuniform 0();
    }
    outlet
    {
        type            fixedValue;
        value           uniform 0;
    }
    wall
    {
        type            fixedFluxPressure;
        gradient        nonuniform List<scalar> 
66
(
6.27783e-06
1.4225e-05
1.31972e-05
1.92456e-05
5.53046e-06
8.78917e-06
7.62872e-06
8.58859e-06
3.76701e-06
3.27775e-05
2.29887e-05
2.16164e-05
7.887e-06
4.51928e-06
5.05766e-06
7.18392e-06
-3.46988e-07
2.79019e-06
5.82495e-06
1.07526e-05
-7.64366e-07
-1.07193e-06
-1.78659e-07
9.78377e-08
-4.21631e-06
-1.59329e-05
-1.20849e-05
-9.76165e-06
-7.25751e-06
-6.18013e-06
-7.28005e-05
-4.52102e-05
-2.18907e-05
-2.16288e-06
3.71976e-06
3.14935e-06
-3.0623e-07
2.54836e-06
1.16665e-06
8.16379e-07
1.56385e-05
8.66143e-07
-1.76144e-06
1.13059e-06
1.34623e-05
7.78039e-06
-9.77213e-06
-3.0407e-07
3.53806e-06
-1.8418e-07
-1.80923e-06
3.07477e-07
2.21495e-08
9.65579e-08
-8.36517
-2.52153e-06
-2.01526e-06
-2.96099e-06
-1.03196e-06
-1.72838e-06
-4.42696e-06
-7.48619e-06
0.000789348
-2.15229e-07
1.43154e-05
-5.66545e-05
)
;
        value           nonuniform List<scalar> 
66
(
19.7055
19.7583
20.297
20.3902
74.794
74.8551
74.9023
74.9225
0.369333
0.434775
1.19494
1.37407
68.7171
68.6958
68.4399
68.5523
-20.3309
-19.8018
-18.7987
-18.3639
63.8135
63.4084
62.735
62.8434
-43.7744
-41.6413
-40.3151
62.3954
60.5745
59.1671
-65.7901
-68.0778
-67.9503
19.2083
20.0378
19.7055
74.9019
75.1991
74.794
-0.0225364
1.06602
0.369333
69.3543
68.8211
68.7937
68.7171
-16.4719
-20.2165
-18.3019
-20.3309
62.7918
63.7655
62.8319
63.8135
-33.4948
-41.7944
-37.9877
-43.7744
56.0578
60.761
57.7746
62.3954
-46.7724
-65.9763
-58.1653
-65.7901
)
;
    }
    procBoundary5to1
    {
        type            processor;
        value           nonuniform List<scalar> 
32
(
69.0634
-21.8502
64.4928
-44.1875
62.5659
-66.8208
-1.56017
68.7634
-22.2546
63.8262
-43.7363
61.4408
-64.9908
74.8707
0.540684
68.6277
-18.7685
63.1837
-37.7783
58.9504
-54.7901
20.185
75.6247
1.78974
1.78974
1.78974
20.0256
75.3393
75.3393
75.3393
22.1841
22.1841
)
;
    }
    procBoundary5to4
    {
        type            processor;
        value           nonuniform List<scalar> 
12
(
81.5093
81.8215
81.8056
81.7368
81.9033
82.0107
82.1765
81.9873
81.3535
81.5505
81.6749
81.679
)
;
    }
    procBoundary5to7
    {
        type            processor;
        value           nonuniform List<scalar> 
44
(
74.9395
2.19676
68.4122
-16.306
62.6268
-34.7355
57.4821
-50.6447
20.8064
74.9395
3.66225
68.4033
-14.6337
62.6715
-32.7459
56.6961
-49.5518
22.1963
3.66225
74.9436
3.66225
68.4033
-17.3866
62.0155
-36.3747
56.8521
-54.2669
21.0462
74.9255
2.56089
-17.3866
68.3338
-17.3866
62.0155
-39.1707
58.8927
-65.4021
20.8792
75.0259
2.14029
68.5083
-17.0986
-39.1707
62.4832
)
;
    }
}


// ************************************************************************* //
