/*--------------------------------*- C++ -*----------------------------------*\
| =========                 |                                                 |
| \\      /  F ield         | OpenFOAM: The Open Source CFD Toolbox           |
|  \\    /   O peration     | Version:  4.x                                   |
|   \\  /    A nd           | Web:      www.OpenFOAM.org                      |
|    \\/     M anipulation  |                                                 |
\*---------------------------------------------------------------------------*/
FoamFile
{
    version     2.0;
    format      ascii;
    class       volScalarField;
    location    "40";
    object      pSmooth;
}
// * * * * * * * * * * * * * * * * * * * * * * * * * * * * * * * * * * * * * //

dimensions      [1 -1 -2 0 0 0 0];

internalField   nonuniform List<scalar> 
114
(
69.2214
0.1
62.6908
0.1
55.9139
0.1
1.35146
68.5975
0.1
62.3813
0.1
56.2465
0.1
75.055
4.6778
68.4477
0.1
61.7596
0.1
53.7759
0.1
19.2783
74.789
0.1
68.686
0.1
63.6168
0.1
60.6021
0.1
19.5104
74.9085
0.529236
68.4149
0.1
62.5894
0.1
58.1721
0.1
20.7999
74.7015
2.45763
68.2898
0.1
62.4459
0.1
57.7499
0.1
21.66
74.7174
20.1075
75.0873
1.16318
68.6734
0.1
62.7043
0.1
57.6316
0.1
19.9538
75.0564
0.765819
68.5013
0.1
62.3831
0.1
57.309
0.1
20.6149
75.0285
2.05012
68.2566
0.1
61.2978
0.1
54.5531
0.1
20.6283
74.8518
1.75831
68.0234
19.7669
74.6793
0.456691
68.5848
0.1
63.6752
0.1
62.2479
0.1
19.8144
74.7353
0.510753
68.5493
0.1
63.2743
0.1
60.4458
0.1
20.3607
74.7901
1.28982
68.3079
0.1
62.5973
0.1
58.9922
0.1
20.4441
74.7956
1.45346
68.4171
0.1
62.6939
)
;

boundaryField
{
    inlet
    {
        type            zeroGradient;
    }
    outlet
    {
        type            fixedValue;
        value           uniform 0;
    }
    wall
    {
        type            zeroGradient;
    }
    procBoundary5to1
    {
        type            processor;
        value           nonuniform List<scalar> 
32
(
68.8881
0.1
64.2946
0.1
62.4
0.1
0.1
68.6246
0.1
63.6531
0.1
61.24
0.1
74.7446
0.592654
68.4957
0.1
63.0549
0.1
58.8475
0.1
20.2815
75.5125
1.89051
1.89051
1.89051
20.1384
75.236
75.236
75.236
22.2466
22.2466
)
;
    }
    procBoundary5to4
    {
        type            processor;
        value           nonuniform List<scalar> 
12
(
81.4201
81.7266
81.7047
81.6174
81.8019
81.9064
82.073
81.8666
81.2494
81.4417
81.5712
81.5594
)
;
    }
    procBoundary5to7
    {
        type            processor;
        value           nonuniform List<scalar> 
44
(
74.8352
2.4981
68.2951
0.1
62.493
0.1
57.2517
0.1
21.0421
74.8352
3.71887
68.2616
0.1
62.5202
0.1
56.5334
0.1
22.2268
3.71887
74.8042
3.71887
68.2616
0.1
61.8672
0.1
56.692
0.1
21.115
74.8021
2.67774
0.1
68.1887
0.1
61.8672
0.1
58.7631
0.1
20.9399
74.9119
2.23597
68.3757
0.1
0.1
62.3193
)
;
    }
}


// ************************************************************************* //
