/*--------------------------------*- C++ -*----------------------------------*\
| =========                 |                                                 |
| \\      /  F ield         | OpenFOAM: The Open Source CFD Toolbox           |
|  \\    /   O peration     | Version:  4.x                                   |
|   \\  /    A nd           | Web:      www.OpenFOAM.org                      |
|    \\/     M anipulation  |                                                 |
\*---------------------------------------------------------------------------*/
FoamFile
{
    version     2.0;
    format      ascii;
    class       volScalarField;
    location    "40";
    object      QPartFluidCoeff;
}
// * * * * * * * * * * * * * * * * * * * * * * * * * * * * * * * * * * * * * //

dimensions      [1 -1 -3 -1 0 0 0];

internalField   nonuniform List<scalar> 
114
(
-2.62129e+07
-2.42189e+07
-2.34197e+07
-1.89992e+07
-2.61491e+07
-1.93698e+07
-2.41958e+07
-2.3472e+07
-1.96031e+07
-2.74282e+07
-2.81009e+07
-3.35923e+07
-2.16346e+07
-3.31689e+07
-2.04697e+07
-2.90385e+07
-1.95978e+07
-1.76987e+07
-2.48025e+07
-2.07984e+07
-2.22069e+07
-2.2158e+07
-1.90002e+07
-2.52245e+07
-2.12699e+07
-2.19299e+07
-2.79042e+07
-2.40759e+07
-2.26427e+07
-1.631e+07
-2.70479e+07
-2.74833e+07
-3.08009e+07
-3.00128e+07
-2.94925e+07
-3.38497e+07
-1.80366e+07
-3.55417e+07
-2.12721e+07
-2.8403e+07
-1.84093e+07
-2.43059e+07
-3.04525e+07
-2.06292e+07
-2.81754e+07
-2.43817e+07
-2.71523e+07
-1.50831e+07
-3.423e+07
-1.69152e+07
-2.41676e+07
-3.1799e+07
-2.44431e+07
-2.85544e+07
-2.5224e+07
-2.67212e+07
-2.22584e+07
-2.90275e+07
-1.70669e+07
-2.06608e+07
-3.63523e+07
-2.33719e+07
-3.04121e+07
-2.77236e+07
-3.06746e+07
-3.59603e+07
-2.91432e+07
-1.60376e+07
-2.47229e+07
-2.59785e+07
-2.60978e+07
-2.46654e+07
-3.79117e+07
-3.0953e+07
-3.03464e+07
-3.67662e+07
-2.77571e+07
-1.76972e+07
-3.91288e+07
-3.19555e+07
-3.32863e+07
-8.29259e+06
-2.29032e+07
-1.50788e+07
-2.57471e+07
-2.01889e+07
-1.95333e+07
-2.39269e+07
-2.64803e+07
-1.67314e+07
-2.32173e+07
-2.74099e+07
-1.6782e+07
-2.31176e+07
-2.72805e+07
-2.56615e+07
-1.82671e+07
-3.01643e+07
-1.78582e+07
-2.02499e+07
-2.44343e+07
-2.90702e+07
-2.62475e+07
-2.09037e+07
-3.16476e+07
-2.35046e+07
-2.75129e+07
-2.16339e+07
-2.39781e+07
-2.16151e+07
-2.44462e+07
-2.24898e+07
-3.47303e+07
-2.85449e+07
)
;

boundaryField
{
    inlet
    {
        type            calculated;
        value           nonuniform 0();
    }
    outlet
    {
        type            calculated;
        value           uniform 0;
    }
    wall
    {
        type            calculated;
        value           uniform 0;
    }
    procBoundary5to1
    {
        type            processor;
        value           nonuniform List<scalar> 
32
(
728.582
461.604
732.622
577.992
565.554
242.162
490.21
612.869
618.395
686.991
576.933
714.034
279.556
596.678
416.679
843.036
671.661
807.983
564.829
730.261
254.255
489.66
418.737
576.1
576.1
576.1
593.714
922.515
922.515
922.515
445.047
445.047
)
;
    }
    procBoundary5to4
    {
        type            processor;
        value           nonuniform List<scalar> 
12
(
729.657
840.193
509.81
532.893
724.077
793.951
652.995
615.266
620.396
648.712
533.049
535.809
)
;
    }
    procBoundary5to7
    {
        type            processor;
        value           nonuniform List<scalar> 
44
(
688.762
484.455
601.001
837.632
944.465
604.225
493.657
465.25
755.279
688.762
495.132
654.354
529.293
621.836
667.576
750.229
464.296
290.521
495.132
764.572
495.132
654.354
382.292
551.243
627.478
580.962
355.614
645.976
692.109
535.326
382.292
493.131
382.292
551.243
445.715
615.708
369.116
552.094
530.612
569.582
657.309
394.396
445.715
376.254
)
;
    }
}


// ************************************************************************* //
