/*--------------------------------*- C++ -*----------------------------------*\
| =========                 |                                                 |
| \\      /  F ield         | OpenFOAM: The Open Source CFD Toolbox           |
|  \\    /   O peration     | Version:  4.x                                   |
|   \\  /    A nd           | Web:      www.OpenFOAM.org                      |
|    \\/     M anipulation  |                                                 |
\*---------------------------------------------------------------------------*/
FoamFile
{
    version     2.0;
    format      ascii;
    class       volScalarField;
    location    "40";
    object      QPartFluid;
}
// * * * * * * * * * * * * * * * * * * * * * * * * * * * * * * * * * * * * * //

dimensions      [1 -1 -3 0 0 0 0];

internalField   nonuniform List<scalar> 
114
(
7.86388e+09
7.26566e+09
7.0259e+09
5.69977e+09
7.84474e+09
5.81093e+09
7.25874e+09
7.04159e+09
5.88092e+09
8.22847e+09
8.43028e+09
1.00777e+10
6.49038e+09
9.95066e+09
6.1409e+09
8.71155e+09
5.87934e+09
5.30962e+09
7.44075e+09
6.23951e+09
6.66206e+09
6.6474e+09
5.70006e+09
7.56735e+09
6.38098e+09
6.57896e+09
8.37127e+09
7.22276e+09
6.79281e+09
4.893e+09
8.11437e+09
8.24499e+09
9.24027e+09
9.00385e+09
8.84776e+09
1.01549e+10
5.41098e+09
1.06625e+10
6.38164e+09
8.5209e+09
5.52278e+09
7.29176e+09
9.13574e+09
6.18876e+09
8.45262e+09
7.3145e+09
8.1457e+09
4.52493e+09
1.0269e+10
5.07455e+09
7.25027e+09
9.53971e+09
7.33294e+09
8.56631e+09
7.56721e+09
8.01635e+09
6.67751e+09
8.70826e+09
5.12006e+09
6.19823e+09
1.09057e+10
7.01157e+09
9.12363e+09
8.31709e+09
9.20238e+09
1.07881e+10
8.74295e+09
4.81127e+09
7.41687e+09
7.79354e+09
7.82933e+09
7.39963e+09
1.13735e+10
9.28591e+09
9.10392e+09
1.10299e+10
8.32713e+09
5.30917e+09
1.17386e+10
9.58666e+09
9.98589e+09
2.48778e+09
6.87097e+09
4.52364e+09
7.72414e+09
6.05666e+09
5.86e+09
7.17808e+09
7.94408e+09
5.01942e+09
6.96519e+09
8.22297e+09
5.03459e+09
6.93527e+09
8.18416e+09
7.69845e+09
5.48014e+09
9.04928e+09
5.35745e+09
6.07497e+09
7.33028e+09
8.72107e+09
7.87424e+09
6.2711e+09
9.49429e+09
7.05137e+09
8.25387e+09
6.49016e+09
7.19342e+09
6.48453e+09
7.33385e+09
6.74694e+09
1.04191e+10
8.56346e+09
)
;

boundaryField
{
    inlet
    {
        type            calculated;
        value           nonuniform 0();
    }
    outlet
    {
        type            calculated;
        value           uniform 0;
    }
    wall
    {
        type            calculated;
        value           uniform 0;
    }
    procBoundary5to1
    {
        type            processor;
        value           nonuniform List<scalar> 
32
(
9.63914e+09
6.10702e+09
9.69259e+09
7.64683e+09
7.48228e+09
3.2038e+09
6.48548e+09
8.10826e+09
8.18137e+09
9.08888e+09
7.63282e+09
9.44667e+09
3.69852e+09
7.89405e+09
5.51267e+09
1.11534e+10
8.88608e+09
1.06896e+10
7.47269e+09
9.66135e+09
3.36379e+09
6.4782e+09
5.53989e+09
7.62181e+09
7.62181e+09
7.62181e+09
7.85484e+09
1.22049e+10
1.22049e+10
1.22049e+10
5.88797e+09
5.88797e+09
)
;
    }
    procBoundary5to4
    {
        type            processor;
        value           nonuniform List<scalar> 
12
(
9.65337e+09
1.11157e+10
6.74479e+09
7.05018e+09
9.57953e+09
1.0504e+10
8.63912e+09
8.13997e+09
8.20784e+09
8.58246e+09
7.05223e+09
7.08875e+09
)
;
    }
    procBoundary5to7
    {
        type            processor;
        value           nonuniform List<scalar> 
44
(
9.11232e+09
6.40934e+09
7.95124e+09
1.10819e+10
1.24953e+10
7.9939e+09
6.53108e+09
6.15526e+09
9.99235e+09
9.11232e+09
6.55059e+09
8.6571e+09
7.00254e+09
8.2269e+09
8.83203e+09
9.92553e+09
6.14263e+09
3.84359e+09
6.55059e+09
1.01153e+10
6.55059e+09
8.6571e+09
5.05772e+09
7.29295e+09
8.30153e+09
7.68613e+09
4.70477e+09
8.54626e+09
9.1566e+09
7.08236e+09
5.05772e+09
6.52413e+09
5.05772e+09
7.29295e+09
5.89681e+09
8.14581e+09
4.8834e+09
7.30421e+09
7.02e+09
7.53557e+09
8.6962e+09
5.21786e+09
5.89681e+09
4.97784e+09
)
;
    }
}


// ************************************************************************* //
