/*--------------------------------*- C++ -*----------------------------------*\
| =========                 |                                                 |
| \\      /  F ield         | OpenFOAM: The Open Source CFD Toolbox           |
|  \\    /   O peration     | Version:  4.x                                   |
|   \\  /    A nd           | Web:      www.OpenFOAM.org                      |
|    \\/     M anipulation  |                                                 |
\*---------------------------------------------------------------------------*/
FoamFile
{
    version     2.0;
    format      ascii;
    class       volScalarField;
    location    "39";
    object      alpha.iron;
}
// * * * * * * * * * * * * * * * * * * * * * * * * * * * * * * * * * * * * * //

dimensions      [0 0 0 0 0 0 0];

internalField   nonuniform List<scalar> 
132
(
0.999999
0.999998
0.999996
0.999992
0.999985
0.999972
0.999956
0.999932
0.999811
0.999999
0.999999
0.999997
0.999995
0.99999
0.999983
0.999972
0.999963
0.999724
1
0.999999
0.999999
0.999998
0.999996
0.999994
0.999987
0.999984
0.999563
1
1
1
1
0.999999
0.999999
0.999998
0.999997
0.999526
0.999996
0.999993
0.999987
0.999977
0.999965
0.99995
0.999872
0.999999
0.999997
0.999994
0.999989
0.999981
0.999971
0.999958
0.999946
0.999773
0.999999
0.999999
0.999998
0.999995
0.999991
0.999984
0.999974
0.999967
0.999891
1
1
1
1
0.999999
0.999999
0.999997
0.999995
0.999784
0.999994
0.999989
0.999982
0.999978
0.999901
1
0.999999
0.999998
0.999997
0.999994
0.99999
0.999983
0.99998
0.999875
1
1
1
0.999999
0.999998
0.999998
0.999995
0.999994
0.999638
1
1
1
1
1
1
0.999999
0.999999
0.996539
0.999997
0.999995
0.999443
1
1
1
1
0.999999
0.999999
0.999997
0.999996
0.999426
1
1
1
1
1
1
0.999999
0.999999
0.998956
1
1
1
1
1
1
1
1
0.999433
)
;

boundaryField
{
    inlet
    {
        type            fixedValue;
        value           nonuniform 0();
    }
    outlet
    {
        type            fixedValue;
        value           uniform 1;
    }
    wall
    {
        type            zeroGradient;
    }
    procBoundary7to0
    {
        type            processor;
        value           uniform 1;
    }
    procBoundary7to1
    {
        type            processor;
        value           uniform 0.999999;
    }
    procBoundary7to3
    {
        type            processor;
        value           nonuniform List<scalar> 
36
(
0.999999
0.999997
0.999993
0.999985
0.99997
0.999954
0.999931
0.999924
0.99976
0.999999
0.999999
0.999997
0.999994
0.999988
0.99998
0.999965
0.999954
0.999813
1
0.999999
0.999998
0.999997
0.999994
0.99999
0.999982
0.999979
0.999743
1
1
1
1
0.999999
0.999999
0.999997
0.999996
0.999398
)
;
    }
    procBoundary7to5
    {
        type            processor;
        value           nonuniform List<scalar> 
44
(
0.999999
0.999997
0.999993
0.999987
0.999977
0.999962
0.999943
0.999687
0.999999
0.999998
0.999997
0.999995
0.99999
0.999983
0.999974
0.999967
0.999892
0.999999
0.999998
0.999998
0.999998
0.999997
0.999996
0.999993
0.999987
0.999985
0.999913
1
0.999999
0.999998
0.999997
0.999997
0.999999
0.999999
0.999997
0.999997
0.999499
1
1
1
1
0.999999
0.999999
0.999999
)
;
    }
    procBoundary7to6
    {
        type            processor;
        value           nonuniform List<scalar> 
12
(
1
1
1
0.999999
1
1
1
1
1
1
1
1
)
;
    }
}


// ************************************************************************* //
