/*--------------------------------*- C++ -*----------------------------------*\
| =========                 |                                                 |
| \\      /  F ield         | OpenFOAM: The Open Source CFD Toolbox           |
|  \\    /   O peration     | Version:  4.x                                   |
|   \\  /    A nd           | Web:      www.OpenFOAM.org                      |
|    \\/     M anipulation  |                                                 |
\*---------------------------------------------------------------------------*/
FoamFile
{
    version     2.0;
    format      ascii;
    class       volScalarField;
    location    "39";
    object      particleRelTemp;
}
// * * * * * * * * * * * * * * * * * * * * * * * * * * * * * * * * * * * * * //

dimensions      [0 0 0 0 0 0 0];

internalField   nonuniform List<scalar> 
132
(
6.27829e-11
1.01736e-10
1.38539e-10
1.83779e-10
2.20955e-10
2.70085e-10
3.11382e-10
3.53105e-10
3.72728e-10
5.41784e-11
9.20961e-11
1.38245e-10
1.69533e-10
2.11637e-10
2.41728e-10
2.79726e-10
3.18224e-10
3.46371e-10
2.96958e-11
5.63285e-11
9.66112e-11
1.25551e-10
1.62903e-10
1.83159e-10
2.22225e-10
2.62555e-10
2.89175e-10
-3.44454e-12
1.96313e-11
4.63202e-11
8.44727e-11
1.07219e-10
1.32724e-10
1.66034e-10
1.97404e-10
2.28503e-10
1.42254e-10
1.76232e-10
2.14929e-10
2.5786e-10
2.97394e-10
3.3831e-10
3.59588e-10
5.7267e-11
8.87039e-11
1.29367e-10
1.62999e-10
1.99772e-10
2.37142e-10
2.82799e-10
3.14605e-10
3.40557e-10
2.68012e-11
5.29836e-11
8.52892e-11
1.25661e-10
1.48617e-10
1.86706e-10
2.20041e-10
2.63054e-10
2.77337e-10
-9.61471e-12
1.62264e-11
5.07131e-11
7.81578e-11
1.05119e-10
1.27463e-10
1.63613e-10
1.93146e-10
2.21646e-10
1.93697e-10
2.15933e-10
2.50501e-10
2.75744e-10
3.20503e-10
1.69609e-11
6.76736e-11
9.37059e-11
1.323e-10
1.62669e-10
2.03956e-10
2.40813e-10
2.63277e-10
2.92063e-10
-7.47234e-12
1.78656e-11
4.8977e-11
8.6638e-11
1.15465e-10
1.5136e-10
1.82511e-10
2.02421e-10
2.29187e-10
-4.19966e-11
-1.18185e-11
1.3796e-11
4.32899e-11
5.9583e-11
8.32935e-11
1.19579e-10
1.37741e-10
1.64721e-10
1.97548e-10
2.23754e-10
2.38888e-10
-1.26202e-11
1.93636e-11
5.81917e-11
8.96935e-11
1.25265e-10
1.56154e-10
1.77687e-10
1.97664e-10
2.29746e-10
-4.02486e-11
-1.3891e-11
1.86759e-11
4.44077e-11
8.07535e-11
1.11339e-10
1.29315e-10
1.40304e-10
1.68002e-10
-7.17815e-11
-4.35623e-11
-2.17042e-11
-1.03851e-12
2.90729e-11
5.16503e-11
7.53259e-11
8.34901e-11
8.28198e-11
)
;

boundaryField
{
    inlet
    {
        type            calculated;
        value           nonuniform 0();
    }
    outlet
    {
        type            calculated;
        value           nonuniform List<scalar> 
16
(
3.72728e-10
3.46371e-10
2.89175e-10
2.28503e-10
3.59588e-10
3.40557e-10
2.77337e-10
2.21646e-10
3.20503e-10
2.92063e-10
2.29187e-10
1.64721e-10
2.38888e-10
2.29746e-10
1.68002e-10
8.28198e-11
)
;
    }
    wall
    {
        type            calculated;
        value           nonuniform List<scalar> 
66
(
-1.26202e-11
-4.02486e-11
-7.17815e-11
1.93636e-11
-1.3891e-11
-4.35623e-11
5.81917e-11
1.86759e-11
-2.17042e-11
8.96935e-11
4.44077e-11
-1.03851e-12
1.25265e-10
8.07535e-11
2.90729e-11
1.56154e-10
1.11339e-10
5.16503e-11
1.97548e-10
1.77687e-10
1.29315e-10
7.53259e-11
2.23754e-10
1.97664e-10
1.40304e-10
8.34901e-11
2.38888e-10
2.29746e-10
1.68002e-10
8.28198e-11
-3.44454e-12
-9.61471e-12
-4.19966e-11
-7.17815e-11
1.96313e-11
1.62264e-11
-1.18185e-11
-4.35623e-11
4.63202e-11
5.07131e-11
1.3796e-11
-2.17042e-11
8.44727e-11
7.81578e-11
4.32899e-11
-1.03851e-12
1.07219e-10
1.05119e-10
5.9583e-11
2.90729e-11
1.32724e-10
1.27463e-10
8.32935e-11
5.16503e-11
1.66034e-10
1.63613e-10
1.19579e-10
7.53259e-11
1.97404e-10
1.93146e-10
1.37741e-10
8.34901e-11
2.28503e-10
2.21646e-10
1.64721e-10
8.28198e-11
)
;
    }
    procBoundary7to0
    {
        type            processor;
        value           uniform 2.20566e-11;
    }
    procBoundary7to1
    {
        type            processor;
        value           uniform 4.4428e-11;
    }
    procBoundary7to3
    {
        type            processor;
        value           nonuniform List<scalar> 
36
(
4.78643e-11
7.6399e-11
1.19488e-10
1.44451e-10
1.84188e-10
2.30999e-10
2.67225e-10
3.21792e-10
3.36588e-10
2.63031e-11
6.60189e-11
1.04625e-10
1.42855e-10
1.84123e-10
2.19047e-10
2.5877e-10
2.86196e-10
3.02708e-10
3.66648e-12
2.21342e-11
7.10755e-11
1.03724e-10
1.43101e-10
1.75724e-10
1.91546e-10
2.3013e-10
2.45061e-10
-2.78657e-11
-1.74232e-11
1.80712e-11
5.42362e-11
8.85332e-11
1.00286e-10
1.36318e-10
1.66539e-10
2.06787e-10
)
;
    }
    procBoundary7to5
    {
        type            processor;
        value           nonuniform List<scalar> 
44
(
8.31894e-11
1.28989e-10
1.70358e-10
2.01845e-10
2.41027e-10
2.87396e-10
3.21597e-10
3.59875e-10
5.39328e-11
1.12493e-10
1.1512e-10
1.5968e-10
1.98417e-10
2.30671e-10
2.7528e-10
3.16574e-10
3.36494e-10
5.39328e-11
1.12493e-10
1.12493e-10
9.98579e-11
1.36319e-10
1.58417e-10
1.90957e-10
2.23279e-10
2.53636e-10
2.7799e-10
1.90791e-11
6.28501e-11
9.98579e-11
1.36319e-10
1.36319e-10
1.39556e-10
1.68872e-10
1.65221e-10
1.8624e-10
2.08371e-10
-4.50566e-12
2.3911e-11
6.05879e-11
9.69413e-11
1.39556e-10
1.68872e-10
1.68872e-10
)
;
    }
    procBoundary7to6
    {
        type            processor;
        value           nonuniform List<scalar> 
12
(
1.35037e-11
-9.27297e-12
-4.59697e-11
1.35552e-11
-1.53809e-11
-4.0811e-11
-1.2257e-11
-3.25176e-11
-6.7108e-11
-5.10355e-11
-6.20083e-11
-8.88767e-11
)
;
    }
}


// ************************************************************************* //
