/*--------------------------------*- C++ -*----------------------------------*\
| =========                 |                                                 |
| \\      /  F ield         | OpenFOAM: The Open Source CFD Toolbox           |
|  \\    /   O peration     | Version:  4.x                                   |
|   \\  /    A nd           | Web:      www.OpenFOAM.org                      |
|    \\/     M anipulation  |                                                 |
\*---------------------------------------------------------------------------*/
FoamFile
{
    version     2.0;
    format      ascii;
    class       volScalarField;
    location    "39";
    object      pSmooth;
}
// * * * * * * * * * * * * * * * * * * * * * * * * * * * * * * * * * * * * * //

dimensions      [1 -1 -2 0 0 0 0];

internalField   nonuniform List<scalar> 
132
(
21.2326
74.783
2.74845
68.2382
0.1
62.4305
0.1
57.0931
0.1
21.0021
74.7765
2.49067
68.0003
0.1
61.1154
0.1
54.6693
0.1
19.3273
74.6718
0.1
68.1773
0.1
62.5934
0.1
59.3477
0.1
19.7458
74.7375
0.454493
68.429
0.1
62.8745
0.1
59.1791
0.1
3.73106
68.1904
0.1
62.4471
0.1
56.4484
0.1
22.208
74.7349
4.0894
68.3809
0.1
62.5301
0.1
56.6868
0.1
20.784
74.6855
2.45089
68.2284
0.1
62.3274
0.1
56.2224
0.1
20.6666
75.0244
2.08449
68.7607
0.1
62.8195
0.1
57.3019
0.1
0.1
61.7964
0.1
56.6126
0.1
21.1375
74.7428
2.72979
68.1193
0.1
61.2603
0.1
54.3882
0.1
20.5935
74.777
1.61812
68.1562
0.1
62.2696
0.1
58.2383
0.1
20.67
74.8018
1.94533
68.4252
0.1
62.638
0.1
58.1188
0.1
0.1
58.7139
0.1
20.9575
74.8709
2.27047
68.328
0.1
62.2521
0.1
57.0973
0.1
20.738
74.8194
2.12691
68.4938
0.1
62.7563
0.1
58.2508
0.1
20.917
74.8633
2.34284
68.5888
0.1
62.6521
0.1
57.2415
0.1
)
;

boundaryField
{
    inlet
    {
        type            zeroGradient;
    }
    outlet
    {
        type            fixedValue;
        value           uniform 0;
    }
    wall
    {
        type            zeroGradient;
    }
    procBoundary7to0
    {
        type            processor;
        value           uniform 81.7595;
    }
    procBoundary7to1
    {
        type            processor;
        value           uniform 22.2223;
    }
    procBoundary7to3
    {
        type            processor;
        value           nonuniform List<scalar> 
36
(
19.0232
74.6417
0.1
68.2342
0.1
62.9809
0.1
58.7525
0.1
20.5024
74.6613
2.17451
68.5488
0.1
63.2175
0.1
58.0204
0.1
19.4276
74.7589
0.180726
68.131
0.1
62.4664
0.1
58.4095
0.1
19.5069
74.7512
0.394159
68.7164
0.1
63.4973
0.1
60.2065
0.1
)
;
    }
    procBoundary7to5
    {
        type            processor;
        value           nonuniform List<scalar> 
44
(
74.9903
4.65266
68.3817
0.1
61.7218
0.1
53.7144
0.1
21.6847
74.653
2.45919
68.2484
0.1
62.3959
0.1
57.6842
0.1
21.6847
74.653
74.653
1.7717
67.9567
0.1
61.2556
0.1
54.4867
0.1
20.6369
74.7874
1.7717
67.9567
67.9567
0.1
62.6324
0.1
58.9105
0.1
20.456
74.7365
1.47335
68.3558
0.1
62.6324
62.6324
)
;
    }
    procBoundary7to6
    {
        type            processor;
        value           nonuniform List<scalar> 
12
(
81.9476
81.584
81.5347
81.6528
81.8455
81.7348
82.0573
81.7863
81.6352
81.7346
81.6132
81.5709
)
;
    }
}


// ************************************************************************* //
