/*--------------------------------*- C++ -*----------------------------------*\
| =========                 |                                                 |
| \\      /  F ield         | OpenFOAM: The Open Source CFD Toolbox           |
|  \\    /   O peration     | Version:  4.x                                   |
|   \\  /    A nd           | Web:      www.OpenFOAM.org                      |
|    \\/     M anipulation  |                                                 |
\*---------------------------------------------------------------------------*/
FoamFile
{
    version     2.0;
    format      ascii;
    class       volScalarField;
    location    "25.5";
    object      pSmooth;
}
// * * * * * * * * * * * * * * * * * * * * * * * * * * * * * * * * * * * * * //

dimensions      [1 -1 -2 0 0 0 0];

internalField   nonuniform List<scalar> 
108
(
112.497
94.902
105.483
76.9964
98.2355
59.9854
91.0956
44.2394
84.1661
113.173
95.2425
106.115
77.2673
98.6935
59.7587
91.4798
44.2603
84.869
113.602
95.5112
106.452
77.5335
98.9397
59.3034
91.9399
43.7097
85.4323
113.816
95.8706
106.638
78.0293
99.0018
59.8866
91.3776
43.3055
85.9186
112.24
94.7197
105.149
76.879
97.6839
58.8586
90.3343
43.0955
83.0658
112.847
95.0125
105.664
77.0973
98.1853
58.7118
90.786
42.857
83.4329
113.147
95.2435
105.903
77.1002
98.2748
58.4502
90.6513
42.4046
83.3819
113.623
95.4577
106.34
77.4818
98.6499
58.7923
90.9848
41.5709
83.8061
112.155
94.6408
105.082
76.9869
97.8149
58.6495
90.4222
42.167
83.1523
112.698
94.9292
105.481
77.0849
98.1222
58.6793
90.7395
42.2099
83.6634
113.009
95.0894
105.734
77.0586
98.2442
58.6051
90.7926
41.8388
83.5794
113.402
95.2511
106.079
77.3584
98.4732
58.7172
90.9339
41.4091
84.0824
)
;

boundaryField
{
    inlet
    {
        type            zeroGradient;
    }
    outlet
    {
        type            fixedValue;
        value           nonuniform 0();
    }
    wall
    {
        type            zeroGradient;
    }
    procBoundary4to0
    {
        type            processor;
        value           nonuniform List<scalar> 
36
(
111.777
94.4091
104.713
76.5763
97.4079
60.9913
90.0283
46.0772
83.0929
112.429
94.7515
105.268
76.77
97.8295
60.7856
90.4146
46.178
83.2906
112.727
94.9907
105.573
77.0271
98.0639
59.992
90.4495
44.6432
83.5463
113.111
95.2671
105.949
77.2097
98.2762
59.2906
90.5862
43.7856
83.6734
)
;
    }
    procBoundary4to5
    {
        type            processor;
        value           nonuniform List<scalar> 
12
(
23.2566
23.5902
23.5917
24.2196
23.8329
23.6213
24.3306
23.7085
23.8678
23.7495
24.133
23.7666
)
;
    }
    procBoundary4to6
    {
        type            processor;
        value           nonuniform List<scalar> 
27
(
113.876
95.4039
106.607
77.5858
98.9903
59.0536
93.85
40.812
82.8245
113.394
95.1176
105.984
77.0207
98.348
58.3792
90.7127
41.3908
83.6141
113.089
95.0745
105.879
77.1106
98.4155
58.6531
91.1177
41.0461
83.5457
)
;
    }
}


// ************************************************************************* //
