/*--------------------------------*- C++ -*----------------------------------*\
| =========                 |                                                 |
| \\      /  F ield         | OpenFOAM: The Open Source CFD Toolbox           |
|  \\    /   O peration     | Version:  4.x                                   |
|   \\  /    A nd           | Web:      www.OpenFOAM.org                      |
|    \\/     M anipulation  |                                                 |
\*---------------------------------------------------------------------------*/
FoamFile
{
    version     2.0;
    format      ascii;
    class       volScalarField;
    location    "25.5";
    object      Qsource;
}
// * * * * * * * * * * * * * * * * * * * * * * * * * * * * * * * * * * * * * //

dimensions      [1 -1 -3 0 0 0 0];

internalField   nonuniform List<scalar> 
108
(
5.76939e+09
7.48721e+09
9.27306e+09
6.35636e+09
8.00252e+09
6.32195e+09
9.78755e+09
7.20695e+09
1.05405e+10
7.026e+09
7.27359e+09
9.40028e+09
1.00062e+10
1.01298e+10
8.50186e+09
8.13342e+09
5.54992e+09
1.12514e+10
6.7005e+09
1.02802e+10
8.33672e+09
9.35921e+09
8.15437e+09
6.28092e+09
7.39128e+09
1.05636e+10
6.93364e+09
3.4605e+09
6.73584e+09
9.41786e+09
5.72514e+09
8.86492e+09
6.79641e+09
1.11814e+10
6.16363e+09
7.26449e+09
5.90227e+09
5.91219e+09
8.92364e+09
8.80228e+09
9.4294e+09
5.97935e+09
6.5037e+09
8.10282e+09
1.05592e+10
6.25733e+09
7.5995e+09
7.57616e+09
7.59539e+09
7.77129e+09
6.80431e+09
8.53473e+09
9.28656e+09
1.06045e+10
4.20332e+09
7.3383e+09
1.00726e+10
8.34442e+09
9.73484e+09
8.34493e+09
8.26784e+09
7.36937e+09
8.80123e+09
6.21336e+09
8.58663e+09
7.5665e+09
9.65789e+09
1.05927e+10
7.66341e+09
1.19788e+10
8.519e+09
8.2693e+09
6.23744e+09
7.17154e+09
6.19716e+09
7.06262e+09
8.15689e+09
9.09581e+09
9.87074e+09
7.67988e+09
1.01161e+10
5.71684e+09
9.40433e+09
7.99426e+09
6.27305e+09
8.36481e+09
8.17723e+09
8.29204e+09
6.68908e+09
9.5262e+09
6.07151e+09
7.83946e+09
9.32095e+09
7.56639e+09
7.5862e+09
7.3588e+09
8.25958e+09
8.38288e+09
7.97478e+09
8.08593e+09
7.37234e+09
7.53673e+09
8.29762e+09
9.29518e+09
9.84426e+09
5.82729e+09
5.45868e+09
7.96562e+09
)
;

boundaryField
{
    inlet
    {
        type            calculated;
        value           uniform 0;
    }
    outlet
    {
        type            calculated;
        value           nonuniform 0();
    }
    wall
    {
        type            calculated;
        value           uniform 0;
    }
    procBoundary4to0
    {
        type            processor;
        value           nonuniform List<scalar> 
36
(
5.19192e+09
5.41303e+09
7.63169e+09
5.66573e+09
7.99241e+09
8.31377e+09
6.85312e+09
4.87741e+09
7.03809e+09
5.13788e+09
9.60747e+09
9.10791e+09
8.10319e+09
7.22505e+09
6.73915e+09
1.05355e+10
7.38035e+09
6.9439e+09
5.19011e+09
5.61947e+09
9.07282e+09
6.20578e+09
8.73753e+09
8.67759e+09
8.34771e+09
5.14227e+09
9.31846e+09
4.82944e+09
6.72848e+09
9.83924e+09
1.0234e+10
5.51052e+09
9.84545e+09
8.54786e+09
5.61955e+09
2.56193e+09
)
;
    }
    procBoundary4to5
    {
        type            processor;
        value           nonuniform List<scalar> 
12
(
7.14267e+09
8.18683e+09
8.81003e+09
1.0471e+10
7.95223e+09
6.30366e+09
7.77039e+09
5.34042e+09
3.75096e+09
7.4774e+09
6.63937e+09
7.47349e+09
)
;
    }
    procBoundary4to6
    {
        type            processor;
        value           nonuniform List<scalar> 
27
(
9.97859e+09
8.97811e+09
6.12749e+09
8.08095e+09
1.12274e+10
6.31087e+09
8.82904e+09
6.08029e+09
1.01452e+10
7.36444e+09
9.0295e+09
9.71387e+09
8.7253e+09
6.75345e+09
8.0504e+09
8.12089e+09
6.27625e+09
9.64617e+09
5.75277e+09
5.79351e+09
8.29998e+09
7.42199e+09
8.05226e+09
6.86559e+09
1.12353e+10
9.29938e+09
5.40418e+09
)
;
    }
}


// ************************************************************************* //
