/*--------------------------------*- C++ -*----------------------------------*\
| =========                 |                                                 |
| \\      /  F ield         | OpenFOAM: The Open Source CFD Toolbox           |
|  \\    /   O peration     | Version:  4.x                                   |
|   \\  /    A nd           | Web:      www.OpenFOAM.org                      |
|    \\/     M anipulation  |                                                 |
\*---------------------------------------------------------------------------*/
FoamFile
{
    version     2.0;
    format      ascii;
    class       volVectorField;
    location    "25.5";
    object      Us;
}
// * * * * * * * * * * * * * * * * * * * * * * * * * * * * * * * * * * * * * //

dimensions      [0 1 -1 0 0 0 0];

internalField   nonuniform List<vector> 
108
(
(-2.84424e-09 2.12849e-10 -1.29947e-09)
(4.97244e-09 7.66193e-10 -2.36516e-09)
(-2.4379e-09 -8.75546e-10 -5.92129e-09)
(1.39151e-08 -2.21658e-09 -9.64685e-09)
(3.24113e-08 -1.64992e-08 -3.39035e-08)
(4.90092e-08 -1.0098e-08 -6.55973e-08)
(-6.515e-09 -2.30146e-08 -4.36053e-08)
(-5.60091e-08 -1.48818e-08 -6.65208e-08)
(-1.55303e-08 -7.25945e-08 -4.85967e-08)
(-2.3221e-09 1.36106e-10 -1.74328e-09)
(2.86647e-09 -4.61323e-10 -4.75613e-09)
(5.51414e-09 -5.22834e-09 -8.73809e-09)
(1.56086e-08 -1.01664e-08 -1.65683e-08)
(2.32449e-08 -1.60195e-08 -3.18411e-08)
(2.22723e-08 -3.26935e-08 -5.92056e-08)
(-4.10961e-08 -2.87879e-08 -4.84551e-08)
(-9.80517e-08 -2.61434e-08 -4.79169e-08)
(5.48909e-08 -1.37217e-07 -1.26462e-07)
(-4.27977e-09 -1.0107e-09 -6.0265e-10)
(3.59597e-09 -4.2397e-09 -5.97393e-09)
(7.94781e-09 -7.60544e-09 -8.65584e-09)
(1.75312e-08 -1.34509e-08 -1.14804e-08)
(1.96273e-08 -2.18472e-08 -1.52333e-08)
(1.9029e-08 -4.52649e-08 -3.57625e-08)
(-5.72178e-09 -2.14157e-08 -5.4801e-08)
(-5.19097e-08 -8.95222e-08 -7.58235e-08)
(-1.00217e-07 -2.25007e-08 -3.54181e-08)
(-2.61978e-09 -1.24941e-09 -9.16865e-10)
(1.40942e-09 -3.67098e-09 -3.80266e-09)
(-7.13029e-10 -8.76233e-09 -4.96472e-09)
(1.16865e-08 -1.68929e-08 -3.42486e-09)
(1.38267e-08 -3.50405e-08 -1.29163e-09)
(1.22958e-08 -5.41743e-08 -2.12775e-08)
(1.38381e-08 -4.38626e-11 -2.06883e-08)
(-1.09392e-08 -1.54515e-07 -4.04423e-08)
(-1.38636e-08 -1.33566e-07 -3.47953e-08)
(-1.40228e-09 8.72655e-10 -1.33585e-09)
(1.18581e-09 1.12862e-09 -1.74087e-09)
(-6.56163e-09 -5.835e-10 -4.77082e-09)
(-6.35047e-09 -2.74508e-09 -5.46141e-09)
(-9.27263e-09 -9.2429e-09 -1.78411e-08)
(-7.3745e-09 -1.10909e-08 -2.39302e-08)
(-3.2712e-08 -6.35798e-09 -2.35883e-08)
(-7.30324e-08 -3.09979e-08 -3.68066e-08)
(-1.31339e-07 -1.25443e-08 -1.52596e-08)
(-3.99045e-09 1.94248e-10 -1.45411e-09)
(7.09218e-10 5.0055e-10 -3.07656e-09)
(-3.84971e-09 -1.62906e-09 -5.67176e-09)
(-2.28396e-10 -9.20124e-09 -1.37475e-08)
(-1.15581e-08 -1.53012e-08 -2.3248e-08)
(-1.6765e-08 -2.78381e-08 -2.27448e-08)
(-5.62778e-08 -4.2535e-08 -3.61089e-08)
(-1.13758e-07 -7.96304e-08 -6.66748e-08)
(-1.89151e-07 -3.1415e-08 -1.82401e-08)
(-4.51481e-09 2.49778e-10 -6.21314e-10)
(-1.33427e-09 -1.15124e-09 -4.41001e-09)
(-6.06774e-09 -5.45138e-09 -6.57585e-09)
(-3.65681e-09 -1.06071e-08 -1.25668e-08)
(-7.35952e-09 -1.94263e-08 -1.33367e-08)
(-4.9097e-09 -2.7043e-08 -3.29583e-08)
(-3.91648e-08 -2.6808e-08 -5.33643e-08)
(-1.18406e-07 -6.04551e-08 -6.32215e-08)
(-2.15809e-07 1.21723e-08 -4.7798e-08)
(-4.65691e-09 -1.94691e-10 -1.21432e-09)
(-3.32921e-09 -1.81722e-09 -2.89382e-09)
(-5.75655e-09 -9.27038e-09 -5.41324e-09)
(-5.90813e-09 -1.29394e-08 -4.49669e-09)
(-6.49493e-09 -2.39054e-08 -5.54404e-09)
(-1.93017e-08 -2.83794e-08 -2.88063e-08)
(-5.88198e-08 -5.17618e-08 -3.34491e-08)
(-7.54809e-08 -1.03032e-07 -4.52401e-08)
(-1.41513e-07 -8.80111e-08 -1.68981e-07)
(-3.03275e-09 6.33987e-10 6.32705e-10)
(-1.17732e-10 1.3905e-10 -6.60589e-10)
(-5.28615e-09 -4.48704e-11 -1.16719e-09)
(-7.01441e-09 3.53926e-10 -2.04122e-09)
(-9.22418e-09 -9.99554e-10 -3.05588e-09)
(-9.74158e-09 -3.03589e-09 -3.13292e-09)
(-1.37029e-08 -4.70259e-09 -3.34116e-09)
(-4.2787e-08 -1.18651e-08 -8.06948e-09)
(-6.46979e-08 2.24555e-09 8.48945e-09)
(-6.73982e-09 2.21367e-10 2.87608e-09)
(-2.22052e-09 3.30206e-10 -1.32047e-09)
(-4.34494e-09 -1.20698e-09 -2.73078e-09)
(-5.0711e-09 -1.45275e-09 -2.50127e-09)
(-1.7403e-08 -3.07617e-09 -6.56051e-09)
(-1.46939e-08 -1.62333e-08 -4.0294e-09)
(-3.75321e-08 -3.51244e-08 -4.18779e-09)
(-8.2593e-08 -1.53503e-08 -2.04297e-08)
(-1.085e-07 -4.09702e-09 9.10239e-10)
(-5.49393e-09 3.52826e-10 6.43306e-10)
(-2.2454e-09 2.19699e-10 -1.35367e-09)
(-5.57247e-09 -2.47299e-09 -2.22293e-09)
(-8.00501e-09 -4.18735e-09 -2.85038e-09)
(-1.70558e-08 -8.99024e-09 -9.38922e-09)
(-1.23777e-08 -2.18517e-08 -1.05782e-08)
(-7.61268e-08 -3.97733e-08 -8.55384e-09)
(-1.07054e-07 -4.6721e-08 -2.69205e-08)
(-1.443e-07 -3.31752e-09 -1.49339e-08)
(-4.81971e-09 8.37359e-10 -4.37892e-10)
(-4.24184e-09 8.30722e-10 -4.16002e-10)
(-1.2501e-08 -6.01323e-09 -1.85075e-09)
(-6.7907e-09 -9.66123e-09 -1.54079e-09)
(-1.37107e-08 -1.78277e-08 -2.31264e-09)
(-1.75132e-08 -2.34424e-08 -3.02377e-09)
(-6.11147e-08 -6.50071e-08 -2.03311e-08)
(-7.88769e-08 -9.03303e-08 -4.77603e-09)
(-1.93704e-07 -1.1601e-07 -1.12269e-08)
)
;

boundaryField
{
    inlet
    {
        type            zeroGradient;
    }
    outlet
    {
        type            zeroGradient;
    }
    wall
    {
        type            zeroGradient;
    }
    procBoundary4to0
    {
        type            processor;
        value           nonuniform List<vector> 
36
(
(-2.759e-09 1.0889e-09 -2.01907e-09)
(2.00757e-09 -1.04881e-09 -5.28808e-09)
(1.32702e-09 7.00409e-11 -6.65969e-09)
(2.39617e-08 -3.92943e-09 -1.6767e-08)
(4.19235e-08 -3.53226e-09 -3.86578e-08)
(4.0395e-08 -2.28745e-08 -6.93004e-08)
(2.87996e-08 -3.89391e-08 -5.34185e-08)
(-1.32806e-07 -1.77561e-08 -4.33814e-08)
(-3.1212e-07 6.56923e-09 1.44652e-08)
(-3.61834e-09 -4.10069e-10 -1.64686e-09)
(2.43722e-09 -2.44364e-09 -5.96094e-09)
(5.73906e-09 -3.79027e-09 -7.95254e-09)
(3.65017e-08 -1.29207e-08 -2.20199e-08)
(5.1168e-08 -3.24477e-08 -3.68521e-08)
(5.04527e-08 -5.18815e-08 -6.38258e-08)
(3.90684e-09 -4.34834e-08 -3.88138e-08)
(-1.33166e-07 -5.68269e-08 -4.29209e-08)
(-2.59647e-07 5.79477e-08 4.2088e-08)
(-3.1897e-09 -3.86363e-09 -4.25009e-10)
(1.25672e-09 -6.05571e-09 -4.34003e-09)
(4.54574e-09 -1.34443e-08 -5.46658e-09)
(2.41565e-08 -2.46753e-08 -1.12148e-08)
(3.26756e-08 -5.63582e-08 -1.74403e-08)
(2.67412e-08 -6.45343e-08 -3.60327e-08)
(2.88765e-08 -4.73611e-08 -1.66677e-08)
(-4.04695e-08 -1.07858e-07 -1.22525e-08)
(-1.04262e-07 7.92163e-08 6.01069e-08)
(-5.07345e-09 -2.83627e-09 -4.54127e-10)
(1.15841e-09 -6.23402e-09 -1.07414e-09)
(3.45344e-09 -1.77049e-08 -5.54237e-09)
(2.02617e-08 -3.77712e-08 2.14924e-09)
(2.99368e-08 -5.42943e-08 3.33177e-09)
(1.72594e-08 -8.73349e-08 2.77146e-08)
(2.91384e-08 -1.01814e-07 5.36528e-08)
(-4.02649e-09 -1.44389e-07 5.5351e-08)
(-1.54628e-07 -1.3199e-07 1.93963e-07)
)
;
    }
    procBoundary4to5
    {
        type            processor;
        value           nonuniform List<vector> 
12
(
(-1.91944e-07 3.72855e-08 4.11349e-08)
(-1.44026e-07 1.41235e-07 3.17981e-08)
(-1.4988e-07 7.84023e-10 9.79225e-08)
(-6.20545e-08 -5.80861e-08 8.91675e-08)
(-1.85062e-07 2.42235e-08 1.10275e-08)
(-2.51247e-07 3.3693e-09 1.86127e-08)
(-1.95872e-07 -7.26088e-08 2.60769e-08)
(-1.61748e-07 -1.72941e-07 -9.18807e-08)
(-8.19141e-08 -8.12194e-09 7.21418e-09)
(-1.70147e-07 -1.19502e-08 2.80004e-08)
(-1.10449e-07 -6.512e-08 1.15624e-08)
(-2.25204e-07 -1.40914e-07 -8.22345e-10)
)
;
    }
    procBoundary4to6
    {
        type            processor;
        value           nonuniform List<vector> 
27
(
(-4.08792e-09 -1.52063e-09 -1.85172e-09)
(-3.57008e-10 -4.52045e-09 -3.8826e-09)
(1.34322e-09 -1.46563e-08 -4.24541e-09)
(6.92096e-09 -2.56458e-08 1.21725e-09)
(1.17894e-08 -4.86103e-08 1.16631e-08)
(3.31061e-08 -7.72004e-08 -4.02312e-09)
(-2.35123e-08 -1.42471e-07 2.30745e-08)
(-5.30309e-08 -2.03497e-07 5.81214e-08)
(-1.07653e-07 -1.77498e-07 5.40215e-08)
(-5.32265e-09 -1.79121e-09 -1.15203e-09)
(-1.21637e-09 -7.31056e-09 -4.37882e-09)
(-6.41206e-09 -9.63121e-09 -4.42944e-09)
(-8.54388e-09 -1.67349e-08 -1.8086e-09)
(-2.66354e-08 -2.30787e-08 -5.71541e-09)
(-3.05163e-08 -6.05113e-08 2.82715e-09)
(-7.14662e-08 -9.17294e-08 -2.87514e-08)
(-9.54174e-08 -1.39617e-07 1.8468e-08)
(-1.42826e-07 -1.43919e-07 5.01942e-09)
(-4.92104e-09 -1.93341e-09 -9.04257e-11)
(-5.18505e-09 -5.71295e-09 -1.46951e-09)
(-1.00927e-08 -5.77252e-09 -1.13763e-09)
(-1.04032e-08 -9.14499e-09 -1.3247e-09)
(-2.59275e-08 -1.84209e-08 5.77206e-10)
(-3.69207e-08 -4.31501e-08 8.49325e-09)
(3.42989e-07 3.98689e-07 7.99714e-09)
(-1.48288e-07 -8.44964e-08 6.08453e-09)
(-2.12211e-07 -1.235e-07 -2.41056e-08)
)
;
    }
}


// ************************************************************************* //
