/*--------------------------------*- C++ -*----------------------------------*\
| =========                 |                                                 |
| \\      /  F ield         | OpenFOAM: The Open Source CFD Toolbox           |
|  \\    /   O peration     | Version:  4.x                                   |
|   \\  /    A nd           | Web:      www.OpenFOAM.org                      |
|    \\/     M anipulation  |                                                 |
\*---------------------------------------------------------------------------*/
FoamFile
{
    version     2.0;
    format      ascii;
    class       volVectorField;
    location    "27.5";
    object      GField;
}
// * * * * * * * * * * * * * * * * * * * * * * * * * * * * * * * * * * * * * //

dimensions      [1 -2 -1 0 0 0 0];

internalField   nonuniform List<vector> 
108
(
(96.4156 -3.24121 -2.23361)
(40.4492 -1.52868 -1.42162)
(97.4839 -3.52096 -2.41329)
(42.5996 -1.3995 -1.55214)
(98.9245 -2.77782 -1.61632)
(43.7063 -0.818938 -1.14839)
(100.032 -2.00265 -1.43091)
(42.9862 -0.723541 -1.10348)
(101.105 -1.24569 -0.148738)
(94.7575 -5.05555 -1.93099)
(32.5478 -2.27076 -0.991757)
(92.2466 -5.03837 -1.94878)
(24.2009 -1.58978 -0.87773)
(90.5844 -3.47723 -1.48964)
(17.4791 -1.00441 -0.463793)
(90.3825 -2.1762 -1.18222)
(11.1269 -0.798779 -0.293727)
(90.3169 -0.847616 0.0626196)
(94.2661 -2.96203 -1.96054)
(29.2969 -1.66419 -0.916716)
(89.4932 -2.9514 -1.64443)
(17.8216 -1.13852 -0.352616)
(87.1711 -1.98798 -0.806042)
(9.54862 -0.792605 0.0873523)
(86.3152 -0.639907 -0.490518)
(3.39142 -0.361593 0.160534)
(86.1103 -0.68707 0.954662)
(94.3999 -1.13048 -2.3161)
(29.7349 -0.0646926 -0.820958)
(88.9544 -0.440886 -1.88839)
(18.7069 -0.339465 -0.591902)
(85.9851 -0.284141 -1.65738)
(10.939 -0.246046 0.0469695)
(84.106 -0.708647 -1.54848)
(6.30534 -0.271437 0.307966)
(83.399 0.044463 -0.568107)
(95.8331 -2.71377 1.08627)
(41.78 -1.27948 0.536045)
(97.7406 -2.58166 1.46535)
(44.4036 -1.05854 -0.202894)
(99.3593 -2.25617 0.734969)
(46.8427 -0.969424 -0.509377)
(101.542 -1.83804 0.671033)
(47.0893 -0.410761 -0.576912)
(102.388 -1.08611 0.722134)
(94.9964 -4.28035 1.75622)
(36.5494 -2.2463 0.733535)
(94.185 -4.30009 2.66021)
(33.3286 -1.58903 0.357202)
(93.645 -3.28073 1.91419)
(29.6861 -1.15246 -0.0834003)
(93.4314 -2.0507 1.56477)
(24.562 -0.75949 -0.155505)
(93.7416 -1.48174 0.892634)
(94.3972 -3.36812 2.13604)
(33.3584 -1.53844 0.90417)
(90.9892 -3.3146 2.78373)
(25.6954 -1.12049 0.650334)
(89.2226 -2.17306 2.07469)
(19.6929 -0.550252 0.352179)
(89.0763 -0.726055 1.39512)
(15.2349 -0.184825 0.315851)
(89.6256 -0.348482 0.224977)
(93.6704 -1.10783 1.5831)
(31.1476 0.0188689 1.21029)
(90.0293 -0.367037 2.62496)
(21.1985 -0.0389394 0.800377)
(87.6401 -0.375759 2.18619)
(13.2465 -0.222793 0.789012)
(87.2623 -0.663039 1.51377)
(7.60317 -0.173163 0.570775)
(88.6187 -1.26663 0.871685)
(96.5201 -2.5221 0.849516)
(45.5761 -1.36511 0.624707)
(101.613 -2.34202 1.11097)
(53.4894 -0.885839 0.26538)
(104.83 -1.59727 0.395095)
(57.5544 -0.497307 -0.0660845)
(107.059 -1.14744 0.811631)
(60.5954 -0.48115 0.757785)
(110.698 -1.1901 1.44496)
(95.8052 -4.06228 1.04613)
(41.2961 -2.22697 0.591696)
(97.6363 -3.87702 1.42946)
(45.3454 -1.52493 0.581976)
(99.8222 -2.46441 1.1474)
(47.6799 -1.17973 0.540872)
(101.649 -1.8726 1.57917)
(49.2292 -1.50976 0.735938)
(104.096 -2.1187 1.39583)
(94.5043 -3.10855 1.09349)
(38.8466 -1.43776 0.806076)
(94.5845 -3.08 1.64334)
(39.3293 -1.35193 0.750032)
(95.6902 -1.95658 1.44766)
(40.1239 -0.714411 0.499349)
(97.1734 -0.980268 1.3275)
(40.674 -0.836057 0.556432)
(98.697 -1.20502 1.1046)
(93.5936 -0.36025 1.2591)
(37.5805 -0.113814 0.861023)
(93.7868 -0.60299 1.77384)
(36.2528 -0.425063 0.784828)
(94.162 -0.769908 1.5694)
(35.9982 -0.666052 0.790167)
(96.0295 -1.08958 1.52629)
(36.725 -0.650267 0.289211)
(97.8001 -1.39999 0.659612)
)
;

boundaryField
{
    inlet
    {
        type            calculated;
        value           uniform (67 0 0);
    }
    outlet
    {
        type            calculated;
        value           nonuniform 0();
    }
    wall
    {
        type            calculated;
        value           uniform (0 0 0);
    }
    procBoundary4to0
    {
        type            processor;
        value           nonuniform List<vector> 
36
(
(96.7084 -3.0137 -4.06485)
(41.1535 -1.47432 -2.65311)
(98.8951 -2.95388 -4.21385)
(44.9787 -1.13834 -2.56504)
(100.993 -2.11804 -3.34632)
(46.9511 -0.95918 -2.41715)
(102.921 -1.78629 -2.84407)
(47.9571 -0.454331 -2.60103)
(104.492 -0.852922 -2.46523)
(95.6177 -4.53117 -4.64007)
(33.7957 -2.2316 -2.47815)
(93.8382 -4.78498 -4.66756)
(29.4089 -1.89078 -1.94841)
(92.9067 -3.68052 -3.16297)
(25.4407 -1.82435 -1.49918)
(92.155 -2.66547 -2.19056)
(20.266 -2.05127 -1.47088)
(92.3628 -2.20063 -1.41164)
(94.6955 -2.99612 -4.46389)
(31.4043 -1.55608 -2.29617)
(90.8955 -3.31088 -3.74406)
(22.0537 -1.08218 -1.33851)
(88.0799 -1.88811 -2.2167)
(14.5891 -0.847459 -0.981521)
(86.0232 -0.220174 -2.0958)
(9.70371 -0.846756 -0.931826)
(84.3502 0.31051 -1.12983)
(94.7165 -0.939687 -3.92956)
(30.3208 -0.126181 -2.24948)
(90.1357 -0.277667 -3.48143)
(19.7747 0.253124 -1.37243)
(87.9735 0.100417 -2.181)
(13.664 0.365698 -1.11396)
(86.7159 -0.0663052 -1.7826)
(11.391 0.569839 -1.30152)
(86.2455 1.29937 -2.28741)
)
;
    }
    procBoundary4to5
    {
        type            processor;
        value           nonuniform List<vector> 
12
(
(40.1902 -0.706868 0.32107)
(6.60863 -0.79488 0.152562)
(7.63954e-05 -1.00009e-05 -3.70485e-05)
(0.998121 -0.0643974 0.132856)
(46.3199 0.046044 -0.812249)
(20.8252 -1.24047 -0.195887)
(13.1736 -0.701824 0.395306)
(4.32746 -0.174936 0.623159)
(64.2001 -0.472336 0.940452)
(49.7496 -2.78453 0.424719)
(39.5675 -1.77013 0.506959)
(35.5881 -1.56059 0.420252)
)
;
    }
    procBoundary4to6
    {
        type            processor;
        value           nonuniform List<vector> 
27
(
(92.1412 1.46804 -2.06921)
(27.8464 0.958699 -0.727131)
(87.9651 1.6081 -1.72227)
(15.9069 0.577798 -0.555716)
(84.9706 0.611137 -1.23403)
(7.97586 0.41332 -0.288281)
(83.8514 -0.534314 -1.03551)
(0.276335 0.0195188 -0.00722606)
(83.1426 -0.0855912 -1.51384)
(92.6608 2.29758 2.7957)
(31.8142 1.01717 0.815076)
(89.9165 2.58572 2.615)
(23.7231 0.797016 0.724151)
(88.5141 1.76563 1.67888)
(17.0923 0.294211 0.333389)
(87.5649 0.632478 1.17417)
(10.4873 0.0236518 0.465004)
(87.1051 0.0482239 -0.995397)
(94.5546 2.4384 1.85911)
(39.9281 0.927607 0.704543)
(94.7587 2.01901 1.41962)
(39.2673 0.684191 0.374698)
(94.6953 1.05195 1.0324)
(37.6789 0.142712 0.344467)
(94.401 -0.0625355 1.03478)
(35.2859 -0.222799 0.655757)
(95.5007 -0.260561 1.21424)
)
;
    }
}


// ************************************************************************* //
