/*--------------------------------*- C++ -*----------------------------------*\
| =========                 |                                                 |
| \\      /  F ield         | OpenFOAM: The Open Source CFD Toolbox           |
|  \\    /   O peration     | Version:  4.x                                   |
|   \\  /    A nd           | Web:      www.OpenFOAM.org                      |
|    \\/     M anipulation  |                                                 |
\*---------------------------------------------------------------------------*/
FoamFile
{
    version     2.0;
    format      ascii;
    class       volScalarField;
    location    "27.5";
    object      QWallFluid;
}
// * * * * * * * * * * * * * * * * * * * * * * * * * * * * * * * * * * * * * //

dimensions      [1 -1 -3 0 0 0 0];

internalField   nonuniform List<scalar> 
108
(
8.28754e+08
4.13817e+08
8.36176e+08
4.31281e+08
8.45756e+08
4.39982e+08
8.53171e+08
4.34155e+08
8.60326e+08
0
0
0
0
0
0
0
0
0
0
0
0
0
0
0
0
0
0
0
0
0
0
0
0
0
0
0
8.24504e+08
4.24409e+08
8.37604e+08
4.45508e+08
8.48564e+08
4.64972e+08
8.63375e+08
4.6687e+08
8.69055e+08
0
0
0
0
0
0
0
0
0
0
0
0
0
0
0
0
0
0
0
0
0
0
0
0
0
0
0
1.65835e+09
9.09969e+08
1.72791e+09
1.03399e+09
1.77125e+09
1.09629e+09
1.80127e+09
1.14245e+09
1.85016e+09
8.24637e+08
4.2081e+08
8.37179e+08
4.5318e+08
8.51783e+08
4.71646e+08
8.64179e+08
4.83949e+08
8.8078e+08
8.15438e+08
4.0051e+08
8.16039e+08
4.04446e+08
8.23426e+08
4.10793e+08
8.33502e+08
4.15315e+08
8.43936e+08
8.08816e+08
3.89835e+08
8.10217e+08
3.78789e+08
8.12791e+08
3.76692e+08
8.25674e+08
3.82695e+08
8.37787e+08
)
;

boundaryField
{
    inlet
    {
        type            calculated;
        value           uniform 0;
    }
    outlet
    {
        type            calculated;
        value           nonuniform 0();
    }
    wall
    {
        type            calculated;
        value           uniform 0;
    }
    procBoundary4to0
    {
        type            processor;
        value           nonuniform List<scalar> 
36
(
8.31123e+08
4.20036e+08
8.46113e+08
4.50712e+08
8.60041e+08
4.66302e+08
8.72986e+08
4.74271e+08
8.83471e+08
0
0
0
0
0
0
0
0
0
0
0
0
0
0
0
0
0
0
0
0
0
0
0
0
0
0
0
)
;
    }
    procBoundary4to5
    {
        type            processor;
        value           nonuniform List<scalar> 
12
(
4.1132e+08
0
0
0
4.60772e+08
0
0
0
1.19653e+09
4.88434e+08
4.06505e+08
3.7344e+08
)
;
    }
    procBoundary4to6
    {
        type            processor;
        value           nonuniform List<scalar> 
27
(
0
0
0
0
0
0
0
0
0
0
0
0
0
0
0
0
0
0
8.15732e+08
4.0925e+08
8.17018e+08
4.0375e+08
8.16438e+08
3.90584e+08
8.14368e+08
3.70653e+08
8.21965e+08
)
;
    }
}


// ************************************************************************* //
