/*--------------------------------*- C++ -*----------------------------------*\
| =========                 |                                                 |
| \\      /  F ield         | OpenFOAM: The Open Source CFD Toolbox           |
|  \\    /   O peration     | Version:  4.x                                   |
|   \\  /    A nd           | Web:      www.OpenFOAM.org                      |
|    \\/     M anipulation  |                                                 |
\*---------------------------------------------------------------------------*/
FoamFile
{
    version     2.0;
    format      ascii;
    class       volVectorField;
    location    "27.5";
    object      U;
}
// * * * * * * * * * * * * * * * * * * * * * * * * * * * * * * * * * * * * * //

dimensions      [0 1 -1 0 0 0 0];

internalField   nonuniform List<vector> 
108
(
(0.0299867 -0.00100805 -0.00069449)
(0.0127322 -0.000481166 -0.000447324)
(0.0309539 -0.00111799 -0.000766199)
(0.0135359 -0.00044468 -0.000493181)
(0.0315279 -0.000885302 -0.000515179)
(0.0139511 -0.000261412 -0.000366653)
(0.032124 -0.000643121 -0.000459565)
(0.0138457 -0.000233049 -0.000355493)
(0.0328898 -0.000405268 -4.8415e-05)
(0.0298074 -0.00159028 -0.000607245)
(0.0102953 -0.000718232 -0.000313563)
(0.0294382 -0.00160787 -0.00062182)
(0.00778383 -0.000511307 -0.0002823)
(0.0291795 -0.00112015 -0.000479874)
(0.00562953 -0.00032349 -0.000149448)
(0.0291247 -0.000701318 -0.000380976)
(0.00359246 -0.000257889 -9.48899e-05)
(0.0294624 -0.000276492 2.04274e-05)
(0.029711 -0.000933523 -0.000617776)
(0.00933471 -0.000530199 -0.000291973)
(0.028667 -0.000945397 -0.000526682)
(0.0057581 -0.000367836 -0.000113911)
(0.0281654 -0.000642384 -0.000260433)
(0.00308506 -0.00025609 2.81741e-05)
(0.0279618 -0.000207387 -0.0001589)
(0.00110632 -0.000117978 5.23267e-05)
(0.0279679 -0.00022314 0.000309998)
(0.0297095 -0.000355723 -0.000728831)
(0.0094452 -2.05064e-05 -0.000260696)
(0.0285513 -0.000141505 -0.000606056)
(0.00602552 -0.000109339 -0.000190621)
(0.0278899 -9.22314e-05 -0.000537561)
(0.00355246 -7.99301e-05 1.52365e-05)
(0.0275173 -0.000231829 -0.000506611)
(0.00204749 -8.81679e-05 9.99851e-05)
(0.027093 1.44242e-05 -0.000184438)
(0.0298388 -0.000844941 0.000338279)
(0.013115 -0.00040162 0.00016831)
(0.0310402 -0.000819849 0.000465351)
(0.0142185 -0.00033894 -6.49971e-05)
(0.0318562 -0.000723344 0.000235582)
(0.0149973 -0.00031036 -0.000163158)
(0.0325654 -0.000589462 0.000215158)
(0.0152662 -0.000133152 -0.000187084)
(0.0334499 -0.000354818 0.000235978)
(0.0297722 -0.00134145 0.000550462)
(0.0115671 -0.000710889 0.000232192)
(0.0299897 -0.00136921 0.000847041)
(0.01069 -0.000509675 0.000114555)
(0.0301093 -0.00105487 0.000615417)
(0.00956588 -0.000371379 -2.69229e-05)
(0.030219 -0.000663316 0.00050607)
(0.00799995 -0.000247393 -5.06794e-05)
(0.0306739 -0.000484872 0.000292172)
(0.0296508 -0.00105792 0.000670994)
(0.0106112 -0.000489347 0.000287642)
(0.0292531 -0.00106562 0.000894962)
(0.00831437 -0.000362552 0.000210403)
(0.0289685 -0.000705546 0.00067357)
(0.00640033 -0.000178845 0.000114396)
(0.0289815 -0.000236288 0.000453899)
(0.00496828 -6.02815e-05 0.000102939)
(0.0292449 -0.000113739 7.34066e-05)
(0.0297167 -0.000351438 0.00050226)
(0.00995293 6.05671e-06 0.000386759)
(0.0289222 -0.000117893 0.000843282)
(0.00689451 -1.26528e-05 0.000260304)
(0.0286174 -0.000122701 0.000713881)
(0.00432462 -7.27392e-05 0.000257554)
(0.0286615 -0.000217791 0.00049725)
(0.0024861 -5.66299e-05 0.000186599)
(0.0289242 -0.000413403 0.000284554)
(0.03005 -0.000785197 0.000264542)
(0.0143546 -0.000429941 0.000196804)
(0.0320307 -0.000738241 0.000350259)
(0.0170684 -0.000282659 8.47141e-05)
(0.0335826 -0.000511676 0.000126604)
(0.0186326 -0.000160988 -2.13752e-05)
(0.0346677 -0.000371551 0.000262839)
(0.0196308 -0.000155866 0.000245525)
(0.0359646 -0.000386679 0.000469523)
(0.0300358 -0.00127355 0.000328024)
(0.0131516 -0.000709213 0.000188477)
(0.0310534 -0.0012331 0.000454687)
(0.0144918 -0.000487345 0.000186013)
(0.0320821 -0.000792069 0.00036879)
(0.0154392 -0.000382014 0.000175145)
(0.0329175 -0.000606454 0.000511397)
(0.015963 -0.00048957 0.000238649)
(0.0339524 -0.000691117 0.000455291)
(0.0297843 -0.000979676 0.000344675)
(0.012404 -0.000459065 0.000257426)
(0.0304012 -0.000989953 0.000528254)
(0.0127123 -0.000436966 0.000242459)
(0.0309255 -0.000632339 0.000467896)
(0.0130377 -0.000232133 0.000162278)
(0.0315616 -0.000318414 0.000431185)
(0.0132544 -0.00027244 0.000181353)
(0.0321321 -0.00039235 0.000359631)
(0.0297637 -0.000114551 0.000400445)
(0.0120075 -3.63485e-05 0.00027514)
(0.030087 -0.000193434 0.000569086)
(0.0117706 -0.000138 0.000254841)
(0.0306761 -0.000250828 0.000511303)
(0.011806 -0.000218436 0.000259159)
(0.0311737 -0.000353725 0.000495522)
(0.0119108 -0.000210899 9.38071e-05)
(0.0318025 -0.000455246 0.0002145)
)
;

boundaryField
{
    inlet
    {
        type            fixedValue;
        value           uniform (0.01 0 0);
    }
    outlet
    {
        type            zeroGradient;
    }
    wall
    {
        type            fixedValue;
        value           uniform (0 0 0);
    }
    procBoundary4to0
    {
        type            processor;
        value           nonuniform List<vector> 
36
(
(0.0298007 -0.000928624 -0.00125226)
(0.0127969 -0.000458406 -0.000824687)
(0.0310308 -0.000926822 -0.00132205)
(0.0141531 -0.000358183 -0.000807226)
(0.0319322 -0.000669688 -0.00105828)
(0.0149123 -0.000304659 -0.00076794)
(0.0325792 -0.000565466 -0.000900427)
(0.0151571 -0.000143586 -0.00082219)
(0.0331879 -0.000270938 -0.00078304)
(0.0297201 -0.00140832 -0.00144199)
(0.0106322 -0.000702004 -0.000779402)
(0.0297049 -0.0015147 -0.00147742)
(0.00933725 -0.000600337 -0.000618674)
(0.0295434 -0.00117045 -0.00100595)
(0.00811351 -0.000581895 -0.000478271)
(0.0295639 -0.000855218 -0.000702866)
(0.0064814 -0.000656084 -0.000470493)
(0.0295754 -0.000704709 -0.000452192)
(0.0294726 -0.000932378 -0.00138919)
(0.00985893 -0.000488417 -0.000720726)
(0.0288957 -0.00105247 -0.00119018)
(0.00703709 -0.000345329 -0.00042715)
(0.0282531 -0.000605696 -0.00071113)
(0.00470191 -0.000273203 -0.000316445)
(0.0276782 -7.09406e-05 -0.000674378)
(0.00310828 -0.000271293 -0.000298546)
(0.0271788 9.99148e-05 -0.000364057)
(0.0296039 -0.000293581 -0.00122812)
(0.0095643 -3.97029e-05 -0.000709518)
(0.0288227 -8.87274e-05 -0.00111322)
(0.00636555 8.14989e-05 -0.000441842)
(0.0281882 3.21812e-05 -0.000698895)
(0.00442705 0.000118455 -0.000361025)
(0.0280333 -2.14122e-05 -0.00057637)
(0.00365672 0.000182909 -0.000417914)
(0.0276023 0.000415782 -0.0007321)
)
;
    }
    procBoundary4to5
    {
        type            processor;
        value           nonuniform List<vector> 
12
(
(0.0130027 -0.000228673 0.000103746)
(0.00215097 -0.000258683 4.96224e-05)
(2.49985e-08 -3.27737e-09 -1.21636e-08)
(0.000327965 -2.11804e-05 4.36449e-05)
(0.015034 1.50378e-05 -0.00026353)
(0.00677112 -0.000403264 -6.36657e-05)
(0.00430334 -0.000229245 0.000129082)
(0.00141348 -5.71517e-05 0.000203529)
(0.0205544 -0.000151299 0.000301338)
(0.0161385 -0.000903399 0.000137834)
(0.0128894 -0.000576636 0.000165191)
(0.0116403 -0.000510424 0.000137444)
)
;
    }
    procBoundary4to6
    {
        type            processor;
        value           nonuniform List<vector> 
27
(
(0.0294907 0.000469903 -0.000662223)
(0.00890715 0.000306696 -0.000232544)
(0.028135 0.00051436 -0.000550829)
(0.00514259 0.00018681 -0.000179649)
(0.0276724 0.000199052 -0.000401893)
(0.00258669 0.000134027 -9.35123e-05)
(0.0273079 -0.000173978 -0.000337259)
(8.97851e-05 6.31576e-06 -2.36487e-06)
(0.0271689 -2.79923e-05 -0.000494613)
(0.0295368 0.00073241 0.000891166)
(0.0101874 0.000325741 0.000261003)
(0.0289498 0.000832522 0.000841927)
(0.00769278 0.000258464 0.000234807)
(0.0286818 0.000572134 0.000544051)
(0.00556206 9.57418e-05 0.00010846)
(0.0285463 0.000206234 0.000382734)
(0.0034139 7.69087e-06 0.000151332)
(0.0284985 1.58067e-05 -0.00032565)
(0.0298355 0.000769419 0.000586657)
(0.0126681 0.00029432 0.000223562)
(0.0303435 0.000646528 0.00045463)
(0.0126975 0.000221251 0.000121188)
(0.0307501 0.0003416 0.000335281)
(0.0122766 4.65072e-05 0.000112251)
(0.0309068 -2.0461e-05 0.00033879)
(0.0115346 -7.28218e-05 0.000214358)
(0.0309162 -8.43369e-05 0.000393076)
)
;
    }
}


// ************************************************************************* //
