/*--------------------------------*- C++ -*----------------------------------*\
| =========                 |                                                 |
| \\      /  F ield         | OpenFOAM: The Open Source CFD Toolbox           |
|  \\    /   O peration     | Version:  4.x                                   |
|   \\  /    A nd           | Web:      www.OpenFOAM.org                      |
|    \\/     M anipulation  |                                                 |
\*---------------------------------------------------------------------------*/
FoamFile
{
    version     2.0;
    format      ascii;
    class       volScalarField;
    location    "60";
    object      magGField;
}
// * * * * * * * * * * * * * * * * * * * * * * * * * * * * * * * * * * * * * //

dimensions      [1 -2 -1 0 0 0 0];

internalField   nonuniform List<scalar> 
132
(
100.357
48.9753
110.652
65.3342
119.905
77.3533
127.322
86.4159
135.15
100.748
46.4125
108.113
58.8377
115.617
68.4352
121.76
75.7585
127.76
101.526
44.4449
106.449
54.3903
111.344
61.6864
115.79
65.8894
117.762
100.947
44.9678
106.838
99.3452
42.2025
102.859
48.5682
106.453
53.4548
109.831
56.622
112.934
98.9921
37.4646
99.9674
38.0947
100.224
36.5883
100.923
33.8474
102.102
98.3289
33.8297
97.7975
30.4857
96.1748
24.6729
94.9148
16.7561
95.0639
97.0567
35.1739
97.4674
32.477
96.2562
97.4307
40.9749
99.8878
45.5833
103
49.7343
106.219
52.3133
109.936
96.8322
35.8033
96.7465
34.0245
96.484
31.5055
97.1557
28.7025
99.2084
95.792
31.4861
93.4836
22.8297
90.9793
15.4522
90.2165
10.8309
90.7161
95.0694
30.4795
92.4396
21.7741
90.9339
16.2663
91.4315
97.2497
40.3768
98.9768
43.4965
100.377
44.5055
101.33
43.3739
101.211
96.2002
32.8864
93.9894
26.5807
92.3305
20.0902
90.94
12.603
90.6639
95.4049
28.6677
90.3755
15.2158
86.5155
4.0347
83.8572
3.38635e-05
81.1164
95.0945
30.768
91.1723
20.9153
89.9653
15.0019
89.5524
11.3227
89.4165
)
;

boundaryField
{
    inlet
    {
        type            calculated;
        value           uniform 67;
    }
    outlet
    {
        type            calculated;
        value           nonuniform 0();
    }
    wall
    {
        type            calculated;
        value           uniform 0;
    }
    procBoundary0to1
    {
        type            processor;
        value           nonuniform List<scalar> 
12
(
93.7053
80.5832
66.2049
58.1179
30.6691
8.18813
52.9963
28.1986
5.83128
36.9638
5.86286
3.14814e-05
)
;
    }
    procBoundary0to2
    {
        type            processor;
        value           nonuniform List<scalar> 
44
(
55.4316
111.896
64.0912
117.406
69.7841
122.862
99.3316
41.7967
55.4316
103.746
55.4316
111.896
27.3765
96.1518
23.8784
98.4404
97.9163
34.1965
96.9134
29.0665
27.3765
95.2582
27.3765
96.1518
14.3151
92.6552
95.7357
30.9552
92.3474
20.3049
89.378
9.87411
14.3151
87.0943
14.3151
92.6552
94.9572
29.0337
90.5715
18.9093
88.4413
11.1084
87.5004
4.39408
)
;
    }
    procBoundary0to4
    {
        type            processor;
        value           nonuniform List<scalar> 
36
(
96.2373
40.9626
97.595
43.706
99.4034
45.5703
100.991
45.9963
102.755
94.5766
33.6466
92.4826
26.6756
91.1914
21.9546
91.4494
17.6083
91.92
94.2642
29.7154
89.7261
19.041
87.7707
11.4833
87.4744
3.74133
87.6517
94.5593
30.3768
89.6614
19.4975
87.1624
10.0139
85.677
2.67614
85.2725
)
;
    }
    procBoundary0to6
    {
        type            processor;
        value           uniform 87.5333;
    }
    procBoundary0to7
    {
        type            processor;
        value           uniform 6.35394;
    }
}


// ************************************************************************* //
