/*--------------------------------*- C++ -*----------------------------------*\
| =========                 |                                                 |
| \\      /  F ield         | OpenFOAM: The Open Source CFD Toolbox           |
|  \\    /   O peration     | Version:  4.x                                   |
|   \\  /    A nd           | Web:      www.OpenFOAM.org                      |
|    \\/     M anipulation  |                                                 |
\*---------------------------------------------------------------------------*/
FoamFile
{
    version     2.0;
    format      ascii;
    class       volScalarField;
    location    "60";
    object      p_rgh;
}
// * * * * * * * * * * * * * * * * * * * * * * * * * * * * * * * * * * * * * //

dimensions      [1 -1 -2 0 0 0 0];

internalField   nonuniform List<scalar> 
132
(
108.838
92.5989
103.211
72.7269
93.9328
55.8128
87.6114
37.5124
80.9997
108.879
92.2534
102.228
73.8477
94.4905
55.8095
87.715
37.321
81.0562
109.146
92.3689
102.377
74.4459
95.197
56.196
88.2655
37.9252
81.552
108.964
92.064
102.183
109.486
92.7192
102.778
74.1922
95.0147
56.1208
88.2312
37.7765
81.5237
109.699
92.6223
102.832
74.4602
95.4165
56.1201
88.4388
37.5676
81.6469
110.117
92.8274
103.269
74.8574
96.1091
56.5031
89.0441
37.9602
82.1746
109.925
92.4658
103.005
74.6812
95.8459
109.866
92.67
102.795
74.6457
95.3449
56.3319
88.2037
37.7232
81.3147
110.223
92.7599
103.124
74.7522
95.6964
56.3026
88.4582
37.5254
81.394
110.786
93.1313
103.782
75.2146
96.3313
56.7686
88.902
38.2719
81.7919
110.798
93.0597
103.723
75.0986
96.233
56.5963
88.7557
110.404
93.1403
103.419
75.2474
96.1754
57.0184
88.9369
38.7436
82.1225
110.878
93.319
103.813
75.3079
96.4706
57.0855
89.2134
38.575
82.1694
111.489
93.8506
104.535
75.9248
97.0885
57.8317
89.3497
39.9294
82.0452
111.293
93.5737
104.167
75.4657
96.5793
57.1901
89.0433
38.6354
81.9827
)
;

boundaryField
{
    inlet
    {
        type            fixedFluxPressure;
        gradient        nonuniform List<scalar> 
16
(
-0.000313521
-0.000295621
-0.000269986
-0.000242566
-0.000187278
-0.0001737
-0.000157194
-0.000139685
-7.98031e-05
-7.44448e-05
-6.79255e-05
-6.20114e-05
-1.53571e-07
-2.43523e-07
-3.3607e-07
-1.99299e-07
)
;
        value           nonuniform List<scalar> 
16
(
108.838
108.879
109.146
108.964
109.486
109.699
110.117
109.925
109.866
110.222
110.786
110.798
110.404
110.878
111.489
111.293
)
;
    }
    outlet
    {
        type            fixedValue;
        value           nonuniform 0();
    }
    wall
    {
        type            fixedFluxPressure;
        gradient        nonuniform List<scalar> 
66
(
-8.84183e-07
-4.27411e-07
-2.46928e-07
-3.27678e-08
-4.29447e-06
-1.9184e-06
1.02059e-06
2.07324e-06
-5.72476e-06
2.41299e-07
1.0352e-06
1.3386e-06
9.08351e-06
5.36195e-06
3.82202e-06
3.11576e-06
3.11049e-06
2.26186e-06
2.51588e-06
3.77268e-06
4.31503e-06
1.5012e-06
2.08677e-06
2.15231e-06
2.06267e-06
3.07378e-06
3.37757e-06
1.34652e-06
2.07455e-06
2.25896e-06
-1.20007e-06
-8.52683e-07
-4.12974e-07
-3.70262e-07
-5.16996e-06
-4.11679e-06
-1.11401e-06
-4.00814e-07
-8.07656e-06
-1.26964e-06
-4.43569e-07
-3.41255e-07
7.80519e-06
5.10889e-06
1.60338e-07
4.1479e-07
2.79935e-06
1.79468e-06
5.84581e-07
3.30988e-08
1.98816e-06
1.63634e-06
8.879e-07
2.0748e-08
1.03367e-06
9.67067e-07
5.86167e-07
2.93637e-07
1.36237e-06
1.75997e-06
1.02511e-06
8.26212e-07
2.20788e-06
6.55822e-07
4.36893e-07
2.92159e-07
)
;
        value           nonuniform List<scalar> 
66
(
108.838
108.879
109.146
108.964
92.5989
92.2534
92.3689
92.064
103.211
102.228
102.377
102.183
72.7269
73.8477
74.4459
93.9328
94.4905
95.197
55.8128
55.8095
56.196
87.6114
87.715
88.2655
37.5124
37.321
37.9252
80.9997
81.0562
81.552
108.838
109.486
109.866
110.404
92.5989
92.7192
92.67
93.1403
103.211
102.778
102.795
103.419
72.7269
74.1922
74.6457
75.2474
93.9328
95.0147
95.3449
96.1754
55.8128
56.1208
56.3319
57.0184
87.6114
88.2312
88.2037
88.9369
37.5124
37.7765
37.7232
38.7436
80.9997
81.5237
81.3147
82.1225
)
;
    }
    procBoundary0to1
    {
        type            processor;
        value           nonuniform List<scalar> 
12
(
18.8457
18.3975
19.2151
19.104
18.7975
19.5141
18.9982
18.4908
20.0857
20.4313
20.1889
22.5107
)
;
    }
    procBoundary0to2
    {
        type            processor;
        value           nonuniform List<scalar> 
44
(
74.3566
95.0252
55.9877
88.0108
37.3072
81.2675
109.192
92.2026
74.3566
102.471
74.3566
95.0252
56.168
88.5707
37.2583
81.6428
110.049
92.7277
103.286
74.8361
56.168
96.2148
56.168
88.5707
37.8706
81.6416
110.929
93.2403
104.034
75.5384
96.7073
57.5189
37.8706
89.2384
37.8706
81.6416
111.504
93.6833
104.364
75.6417
96.9184
57.4423
89.4481
39.1613
)
;
    }
    procBoundary0to4
    {
        type            processor;
        value           nonuniform List<scalar> 
36
(
110.564
93.165
103.427
75.2893
96.0141
57.0554
88.6717
38.5056
81.5488
111.115
93.3786
103.94
75.4417
96.3789
57.0626
88.9467
38.5603
81.8191
111.769
93.8734
104.512
75.9654
96.8439
57.7226
89.2973
39.4259
81.8709
111.701
93.8644
104.505
75.9639
96.9311
57.7162
89.2999
39.3141
81.8526
)
;
    }
    procBoundary0to6
    {
        type            processor;
        value           uniform 82.1259;
    }
    procBoundary0to7
    {
        type            processor;
        value           uniform 20.6285;
    }
}


// ************************************************************************* //
