/*--------------------------------*- C++ -*----------------------------------*\
| =========                 |                                                 |
| \\      /  F ield         | OpenFOAM: The Open Source CFD Toolbox           |
|  \\    /   O peration     | Version:  4.x                                   |
|   \\  /    A nd           | Web:      www.OpenFOAM.org                      |
|    \\/     M anipulation  |                                                 |
\*---------------------------------------------------------------------------*/
FoamFile
{
    version     2.0;
    format      ascii;
    class       volVectorField;
    location    "60";
    object      UsNext;
}
// * * * * * * * * * * * * * * * * * * * * * * * * * * * * * * * * * * * * * //

dimensions      [0 1 -1 0 0 0 0];

internalField   nonuniform List<vector> 
132
(
(-3.20268e-10 1.80245e-10 1.328e-10)
(-3.59789e-10 3.76656e-10 3.12872e-10)
(3.41264e-09 1.30553e-09 9.25379e-10)
(1.5616e-09 -7.39512e-10 -8.60628e-10)
(-5.92745e-10 -4.77894e-10 -5.3191e-10)
(-3.86186e-10 -2.16305e-10 -2.7372e-10)
(-1.36179e-11 -1.82096e-10 -2.6446e-10)
(2.89172e-10 -1.64327e-10 -2.48797e-10)
(4.95483e-10 -4.15194e-10 -2.53214e-10)
(-5.41015e-11 3.0681e-10 6.38531e-11)
(2.66629e-10 5.79628e-10 1.30327e-10)
(1.88521e-09 7.48123e-10 -3.74176e-11)
(1.29983e-09 -1.05834e-09 -4.49225e-10)
(6.58898e-10 -7.78217e-10 -5.04252e-10)
(1.84035e-10 -3.93033e-10 -3.57831e-10)
(4.79718e-10 -3.10234e-10 -3.49437e-10)
(5.70158e-10 -2.97178e-10 -3.20555e-10)
(6.27922e-10 -4.0375e-10 -3.61827e-10)
(2.57092e-10 3.15884e-10 3.69317e-11)
(4.32346e-10 3.28666e-10 -6.57912e-11)
(9.14094e-10 3.42007e-10 -1.56767e-10)
(7.47349e-10 -4.08374e-10 -2.93593e-10)
(7.59122e-10 -6.30833e-10 -3.48414e-10)
(5.99047e-10 -4.04298e-10 -3.69017e-10)
(5.88171e-10 -3.55453e-10 -3.42902e-10)
(6.77636e-10 -3.8477e-10 -3.06385e-10)
(8.10654e-10 -3.75223e-10 -3.61088e-10)
(1.1657e-10 2.63795e-10 4.85422e-12)
(2.90056e-10 1.26531e-10 -1.35579e-10)
(4.36138e-10 -2.87472e-12 -2.04681e-10)
(-9.75473e-11 1.25051e-10 3.55773e-10)
(1.85153e-10 2.53023e-10 6.33739e-10)
(1.11814e-09 1.86478e-10 8.54496e-10)
(1.55316e-09 -3.51064e-10 -1.22754e-09)
(3.86557e-10 -2.65795e-10 -7.84579e-10)
(8.57207e-11 -1.21095e-10 -4.08232e-10)
(1.18981e-10 -1.45003e-10 -3.52803e-10)
(3.23456e-10 -1.37569e-10 -2.83333e-10)
(3.91046e-10 -1.01659e-10 -2.50554e-10)
(5.99513e-11 2.35026e-10 1.74817e-10)
(3.8697e-10 4.28828e-10 3.28647e-10)
(1.30519e-09 2.7608e-10 2.3349e-10)
(1.27582e-09 -3.77947e-10 -5.90146e-10)
(7.07923e-10 -5.59152e-10 -6.7655e-10)
(3.24836e-10 -2.91606e-10 -4.67179e-10)
(3.54165e-10 -2.88263e-10 -3.71665e-10)
(4.63856e-10 -3.12382e-10 -3.15735e-10)
(4.81909e-10 -3.85996e-10 -2.98841e-10)
(1.27081e-10 1.81452e-10 4.45986e-11)
(4.2504e-10 2.91049e-10 8.46481e-13)
(7.71276e-10 9.84986e-11 -1.58261e-10)
(8.49595e-10 -2.51712e-10 -3.24634e-10)
(7.15551e-10 -4.16921e-10 -4.22856e-10)
(5.91679e-10 -3.68938e-10 -3.90794e-10)
(5.60982e-10 -3.45143e-10 -3.37132e-10)
(5.77659e-10 -3.49475e-10 -3.0226e-10)
(6.08367e-10 -3.1392e-10 -2.53014e-10)
(1.26133e-10 1.55617e-10 1.1205e-11)
(3.03846e-10 1.2599e-10 -1.04261e-10)
(4.9915e-10 3.03988e-11 -2.04746e-10)
(5.63348e-10 -1.7985e-10 -2.78139e-10)
(5.93466e-10 -2.54698e-10 -3.14182e-10)
(6.06726e-11 5.90235e-11 2.5147e-10)
(2.10016e-10 6.60886e-11 2.88251e-10)
(5.78088e-10 6.2731e-11 2.60452e-10)
(5.19696e-10 -1.03124e-11 -3.71244e-10)
(4.34092e-10 -8.36571e-11 -4.62872e-10)
(3.02486e-10 -6.13667e-11 -3.90079e-10)
(2.78607e-10 -8.54412e-11 -3.21541e-10)
(2.20736e-10 -7.44352e-11 -2.26272e-10)
(2.88235e-10 -6.66511e-11 -1.96311e-10)
(8.79024e-11 1.16293e-10 1.6763e-10)
(3.04925e-10 1.32839e-10 1.83133e-10)
(6.86602e-10 7.30537e-11 3.26644e-11)
(6.98793e-10 -8.05182e-11 -2.97711e-10)
(6.63292e-10 -1.55972e-10 -5.39584e-10)
(5.14297e-10 -1.53005e-10 -4.29178e-10)
(4.60725e-10 -1.87964e-10 -3.30529e-10)
(4.70945e-10 -2.61708e-10 -2.82446e-10)
(4.65232e-10 -2.81488e-10 -2.21116e-10)
(1.02004e-10 9.98707e-11 3.39258e-11)
(2.85244e-10 1.1689e-10 -3.46975e-12)
(5.62865e-10 3.36211e-11 -1.55383e-10)
(5.52327e-10 -1.13405e-10 -3.02315e-10)
(6.01597e-10 -2.1569e-10 -4.05168e-10)
(5.01541e-10 -1.74871e-10 -3.62606e-10)
(5.09846e-10 -2.12578e-10 -2.47845e-10)
(5.23295e-10 -2.54034e-10 -2.79896e-10)
(5.20375e-10 -2.83173e-10 -2.24635e-10)
(8.73034e-11 8.17876e-11 8.4536e-13)
(2.33215e-10 2.88242e-11 -7.53552e-11)
(3.88366e-10 -4.00181e-11 -1.83447e-10)
(4.01544e-10 -1.43061e-10 -2.57463e-10)
(4.86319e-10 -2.03991e-10 -3.07191e-10)
(4.31604e-10 -1.95031e-10 -2.6866e-10)
(4.40198e-10 -2.40147e-10 -2.02885e-10)
(4.53538e-11 5.29618e-11 1.47985e-10)
(1.53612e-10 2.34972e-11 1.00053e-10)
(3.41818e-10 4.78468e-11 3.98758e-11)
(2.35904e-10 -2.5571e-11 -1.56383e-10)
(2.91358e-10 -4.63583e-12 -2.66082e-10)
(2.90826e-10 -1.28897e-12 -3.05041e-10)
(2.71416e-10 -4.12291e-11 -2.9984e-10)
(2.7375e-10 -5.03533e-11 -2.31256e-10)
(3.04799e-10 -4.12775e-11 -1.53311e-10)
(7.04168e-11 5.35649e-11 1.15214e-10)
(2.09799e-10 3.44954e-11 7.15325e-11)
(3.78595e-10 -5.1999e-11 -7.39907e-11)
(4.52805e-10 -4.93603e-11 -2.46639e-10)
(4.7488e-10 -7.30343e-11 -3.50527e-10)
(3.87986e-10 -9.02073e-11 -3.23452e-10)
(4.26408e-10 -7.0676e-11 -2.7336e-10)
(4.33426e-10 -1.51194e-10 -2.35715e-10)
(4.63992e-10 -1.44301e-10 -1.42471e-10)
(9.56749e-11 7.43503e-11 -1.33845e-13)
(2.03668e-10 4.25395e-11 -5.87957e-11)
(3.44667e-10 -2.09433e-11 -1.46155e-10)
(3.06801e-10 -7.21613e-11 -2.86317e-10)
(4.20981e-10 -6.66953e-11 -3.28988e-10)
(3.84826e-10 -1.28791e-10 -3.03419e-10)
(4.78171e-10 -1.28505e-10 -2.6695e-10)
(4.89543e-10 -1.78822e-10 -2.57308e-10)
(4.99185e-10 -1.46017e-10 -1.67956e-10)
(5.68298e-11 2.60806e-11 -2.44347e-11)
(1.50103e-10 1.53357e-11 -5.45133e-11)
(2.6779e-10 -2.08668e-11 -1.45289e-10)
(2.61264e-10 -8.29746e-11 -2.09834e-10)
(3.81583e-10 -8.74593e-11 -2.38271e-10)
(3.72009e-10 -1.2495e-10 -2.22331e-10)
(4.62379e-10 -1.71768e-10 -2.05695e-10)
(4.66235e-10 -1.56867e-10 -2.39509e-10)
(3.52515e-10 -1.78818e-10 -1.67619e-10)
)
;

boundaryField
{
    inlet
    {
        type            calculated;
        value           nonuniform List<vector> 
16
(
(-3.20268e-10 1.80245e-10 1.328e-10)
(-5.41015e-11 3.0681e-10 6.38531e-11)
(2.57092e-10 3.15884e-10 3.69317e-11)
(1.1657e-10 2.63795e-10 4.85422e-12)
(-9.75473e-11 1.25051e-10 3.55773e-10)
(5.99513e-11 2.35026e-10 1.74817e-10)
(1.27081e-10 1.81452e-10 4.45986e-11)
(1.26133e-10 1.55617e-10 1.1205e-11)
(6.06726e-11 5.90235e-11 2.5147e-10)
(8.79024e-11 1.16293e-10 1.6763e-10)
(1.02004e-10 9.98707e-11 3.39258e-11)
(8.73034e-11 8.17876e-11 8.4536e-13)
(4.53538e-11 5.29618e-11 1.47985e-10)
(7.04168e-11 5.35649e-11 1.15214e-10)
(9.56749e-11 7.43503e-11 -1.33845e-13)
(5.68298e-11 2.60806e-11 -2.44347e-11)
)
;
    }
    outlet
    {
        type            calculated;
        value           nonuniform 0();
    }
    wall
    {
        type            calculated;
        value           nonuniform List<vector> 
66
(
(-3.20268e-10 1.80245e-10 1.328e-10)
(-5.41015e-11 3.0681e-10 6.38531e-11)
(2.57092e-10 3.15884e-10 3.69317e-11)
(1.1657e-10 2.63795e-10 4.85422e-12)
(-3.59789e-10 3.76656e-10 3.12872e-10)
(2.66629e-10 5.79628e-10 1.30327e-10)
(4.32346e-10 3.28666e-10 -6.57912e-11)
(2.90056e-10 1.26531e-10 -1.35579e-10)
(3.41264e-09 1.30553e-09 9.25379e-10)
(1.88521e-09 7.48123e-10 -3.74176e-11)
(9.14094e-10 3.42007e-10 -1.56767e-10)
(4.36138e-10 -2.87472e-12 -2.04681e-10)
(1.5616e-09 -7.39512e-10 -8.60628e-10)
(1.29983e-09 -1.05834e-09 -4.49225e-10)
(7.47349e-10 -4.08374e-10 -2.93593e-10)
(-5.92745e-10 -4.77894e-10 -5.3191e-10)
(6.58898e-10 -7.78217e-10 -5.04252e-10)
(7.59122e-10 -6.30833e-10 -3.48414e-10)
(-3.86186e-10 -2.16305e-10 -2.7372e-10)
(1.84035e-10 -3.93033e-10 -3.57831e-10)
(5.99047e-10 -4.04298e-10 -3.69017e-10)
(-1.36179e-11 -1.82096e-10 -2.6446e-10)
(4.79718e-10 -3.10234e-10 -3.49437e-10)
(5.88171e-10 -3.55453e-10 -3.42902e-10)
(2.89172e-10 -1.64327e-10 -2.48797e-10)
(5.70158e-10 -2.97178e-10 -3.20555e-10)
(6.77636e-10 -3.8477e-10 -3.06385e-10)
(4.95483e-10 -4.15194e-10 -2.53214e-10)
(6.27922e-10 -4.0375e-10 -3.61827e-10)
(8.10654e-10 -3.75223e-10 -3.61088e-10)
(-3.20268e-10 1.80245e-10 1.328e-10)
(-9.75473e-11 1.25051e-10 3.55773e-10)
(6.06726e-11 5.90235e-11 2.5147e-10)
(4.53538e-11 5.29618e-11 1.47985e-10)
(-3.59789e-10 3.76656e-10 3.12872e-10)
(1.85153e-10 2.53023e-10 6.33739e-10)
(2.10016e-10 6.60886e-11 2.88251e-10)
(1.53612e-10 2.34972e-11 1.00053e-10)
(3.41264e-09 1.30553e-09 9.25379e-10)
(1.11814e-09 1.86478e-10 8.54496e-10)
(5.78088e-10 6.2731e-11 2.60452e-10)
(3.41818e-10 4.78468e-11 3.98758e-11)
(1.5616e-09 -7.39512e-10 -8.60628e-10)
(1.55316e-09 -3.51064e-10 -1.22754e-09)
(5.19696e-10 -1.03124e-11 -3.71244e-10)
(2.35904e-10 -2.5571e-11 -1.56383e-10)
(-5.92745e-10 -4.77894e-10 -5.3191e-10)
(3.86557e-10 -2.65795e-10 -7.84579e-10)
(4.34092e-10 -8.36571e-11 -4.62872e-10)
(2.91358e-10 -4.63583e-12 -2.66082e-10)
(-3.86186e-10 -2.16305e-10 -2.7372e-10)
(8.57207e-11 -1.21095e-10 -4.08232e-10)
(3.02486e-10 -6.13667e-11 -3.90079e-10)
(2.90826e-10 -1.28897e-12 -3.05041e-10)
(-1.36179e-11 -1.82096e-10 -2.6446e-10)
(1.18981e-10 -1.45003e-10 -3.52803e-10)
(2.78607e-10 -8.54412e-11 -3.21541e-10)
(2.71416e-10 -4.12291e-11 -2.9984e-10)
(2.89172e-10 -1.64327e-10 -2.48797e-10)
(3.23456e-10 -1.37569e-10 -2.83333e-10)
(2.20736e-10 -7.44352e-11 -2.26272e-10)
(2.7375e-10 -5.03533e-11 -2.31256e-10)
(4.95483e-10 -4.15194e-10 -2.53214e-10)
(3.91046e-10 -1.01659e-10 -2.50554e-10)
(2.88235e-10 -6.66511e-11 -1.96311e-10)
(3.04799e-10 -4.12775e-11 -1.53311e-10)
)
;
    }
    procBoundary0to1
    {
        type            processor;
        value           nonuniform List<vector> 
12
(
(3.72836e-10 -3.16903e-10 -9.31045e-11)
(6.32359e-10 -4.67465e-10 -2.23879e-10)
(3.87205e-10 -4.14773e-10 -1.61867e-11)
(3.48536e-10 -3.273e-10 -1.68692e-10)
(5.08361e-10 -4.59594e-10 -1.65339e-10)
(3.75127e-10 -3.57911e-10 -3.41135e-11)
(2.21366e-10 -9.85318e-11 -1.33943e-10)
(3.97462e-10 -2.66833e-10 -4.06496e-11)
(4.07268e-10 -2.95779e-10 -1.20493e-10)
(2.03761e-10 -6.11655e-11 -8.1523e-11)
(4.17924e-10 -1.73493e-10 -3.08735e-11)
(4.71154e-10 -1.7528e-10 -7.7525e-11)
)
;
    }
    procBoundary0to2
    {
        type            processor;
        value           nonuniform List<vector> 
44
(
(4.716e-10 -1.68164e-10 -2.53409e-10)
(6.45255e-10 -3.03128e-10 -2.59328e-10)
(6.08142e-10 -3.25877e-10 -2.9431e-10)
(6.55592e-10 -3.21636e-10 -2.18478e-10)
(6.25295e-10 -4.11691e-10 -2.33395e-10)
(6.35118e-10 -3.4138e-10 -2.42959e-10)
(5.13791e-10 -9.39708e-11 -1.12641e-10)
(1.42049e-10 1.99208e-11 -1.75989e-10)
(4.716e-10 -1.68164e-10 -2.53409e-10)
(3.39393e-10 -6.0796e-11 -2.41379e-10)
(4.716e-10 -1.68164e-10 -2.53409e-10)
(6.45255e-10 -3.03128e-10 -2.59328e-10)
(5.4949e-10 -2.91357e-10 -2.8691e-10)
(5.20834e-10 -2.86833e-10 -2.30122e-10)
(5.16882e-10 -3.41669e-10 -1.88531e-10)
(4.94203e-10 -3.33139e-10 -2.07731e-10)
(5.95077e-11 5.14263e-11 -7.97945e-11)
(1.8159e-10 4.52153e-11 -1.67477e-10)
(3.23558e-10 -2.10501e-11 -2.5144e-10)
(3.90678e-10 -1.15824e-10 -2.85415e-10)
(5.4949e-10 -2.91357e-10 -2.8691e-10)
(4.57956e-10 -1.69854e-10 -3.08637e-10)
(5.4949e-10 -2.91357e-10 -2.8691e-10)
(5.20834e-10 -2.86833e-10 -2.30122e-10)
(3.9491e-10 -2.43164e-10 -2.22639e-10)
(3.62378e-10 -2.68899e-10 -1.4196e-10)
(5.26597e-11 4.45354e-11 -5.92001e-11)
(1.26102e-10 9.37688e-12 -1.28455e-10)
(2.34099e-10 -4.4598e-11 -2.23938e-10)
(2.26849e-10 -8.85245e-11 -2.65066e-10)
(3.19186e-10 -1.61065e-10 -2.82203e-10)
(2.6967e-10 -1.64952e-10 -2.42634e-10)
(3.9491e-10 -2.43164e-10 -2.22639e-10)
(2.76778e-10 -1.75693e-10 -1.91627e-10)
(3.9491e-10 -2.43164e-10 -2.22639e-10)
(3.62378e-10 -2.68899e-10 -1.4196e-10)
(4.74243e-11 2.39713e-11 -3.62811e-11)
(8.72491e-11 -1.84166e-11 -9.50227e-11)
(1.49303e-10 -5.90809e-11 -1.93346e-10)
(1.05859e-10 -8.75843e-11 -2.26504e-10)
(1.72905e-10 -1.27651e-10 -2.40785e-10)
(1.77822e-10 -1.16306e-10 -2.49216e-10)
(2.46082e-10 -1.45324e-10 -1.53763e-10)
(2.71874e-10 -1.42589e-10 -1.99311e-10)
)
;
    }
    procBoundary0to4
    {
        type            processor;
        value           nonuniform List<vector> 
36
(
(3.2405e-11 7.00215e-12 5.89356e-11)
(6.01273e-11 2.18671e-11 2.25711e-11)
(1.43771e-10 6.00433e-12 -3.32967e-11)
(1.67353e-10 -2.87467e-12 -9.17209e-11)
(2.01275e-10 2.11361e-11 -1.74056e-10)
(1.81716e-10 3.17066e-11 -2.04822e-10)
(2.01562e-10 -5.1451e-12 -2.09196e-10)
(1.09272e-10 2.53317e-11 -1.88656e-10)
(1.53013e-10 4.65097e-12 -6.52984e-11)
(5.02286e-11 1.49333e-11 2.87221e-11)
(1.05125e-10 2.27668e-11 -6.69865e-12)
(2.04205e-10 -5.17796e-11 -7.77859e-11)
(1.93594e-10 -6.16933e-11 -1.74565e-10)
(2.33712e-10 -7.97305e-11 -2.36488e-10)
(2.27848e-10 -5.71938e-11 -2.19815e-10)
(2.98818e-10 -4.41042e-11 -2.49287e-10)
(3.25908e-10 -7.74263e-11 -1.98454e-10)
(4.69205e-10 -1.14019e-10 -1.41015e-10)
(4.92996e-11 3.10288e-11 -1.19653e-11)
(1.30248e-10 5.03398e-11 -7.4281e-11)
(2.03223e-10 -2.08638e-11 -1.51374e-10)
(2.02932e-10 -4.7971e-11 -2.30312e-10)
(2.47583e-10 -8.11901e-11 -2.7807e-10)
(2.52663e-10 -7.08527e-11 -2.47452e-10)
(3.21065e-10 -5.58277e-11 -2.86218e-10)
(4.00304e-10 -6.95552e-11 -2.57337e-10)
(4.35175e-10 -1.39298e-10 -1.39812e-10)
(5.1375e-11 1.13492e-11 -4.53621e-11)
(9.86003e-11 2.16152e-12 -7.67523e-11)
(1.42653e-10 -6.03135e-11 -1.37873e-10)
(1.85385e-10 -8.20819e-11 -1.61931e-10)
(3.01439e-10 -8.47419e-11 -1.93991e-10)
(3.3978e-10 -9.80206e-11 -2.2802e-10)
(4.92301e-10 -8.52982e-11 -1.82727e-10)
(4.8024e-10 -8.38802e-11 -1.85316e-10)
(4.6131e-10 -1.1217e-10 -1.15932e-10)
)
;
    }
    procBoundary0to6
    {
        type            processor;
        value           uniform (3.03115e-10 -1.32563e-10 -2.07779e-10);
    }
    procBoundary0to7
    {
        type            processor;
        value           uniform (4.11812e-10 -1.72947e-10 -5.96865e-11);
    }
}


// ************************************************************************* //
