/*--------------------------------*- C++ -*----------------------------------*\
  =========                 |
  \\      /  F ield         | OpenFOAM: The Open Source CFD Toolbox
   \\    /   O peration     | Website:  https://openfoam.org
    \\  /    A nd           | Version:  4.x
     \\/     M anipulation  |
\*---------------------------------------------------------------------------*/
FoamFile
{
    version     2.0;
    format      ascii;
    class       vectorField;
    location    0;
    object      v;
}
// * * * * * * * * * * * * * * * * * * * * * * * * * * * * * * * * * * * * * //

348
(
( -7.97206e-08 2.45096e-09 -5.44239e-09 )  
( -8.22281e-08 1.93144e-09 -5.8835e-09 )  
( -7.89815e-08 1.5211e-09 -6.89095e-09 )  
( -4.02333e-08 8.86391e-09 -5.25794e-09 )  
( -5.97855e-08 8.92238e-09 -2.34746e-09 )  
( -2.41974e-08 5.94141e-09 -2.21027e-09 )  
( -2.47143e-08 1.00297e-08 -1.8134e-08 )  
( -8.60774e-09 -1.05565e-09 -1.53445e-09 )  
( -6.05962e-08 6.80382e-09 8.07609e-09 )  
( -2.10676e-08 1.0559e-09 -2.82942e-09 )  
( -3.417e-08 1.06663e-09 2.7988e-09 )  
( -1.46883e-08 4.1295e-09 -1.74572e-09 )  
( -2.88038e-08 6.08868e-09 2.88808e-09 )  
( -4.04463e-08 -1.00421e-09 1.66175e-09 )  
( -3.0482e-08 1.9355e-09 3.62714e-10 )  
( -9.79538e-08 1.17304e-08 -7.63557e-09 )  
( -5.80254e-08 1.77317e-08 9.52742e-09 )  
( -4.88724e-08 1.27616e-08 2.71574e-10 )  
( -8.99358e-08 8.70578e-09 -4.5345e-09 )  
( -8.75008e-08 1.09723e-08 4.3252e-09 )  
( -4.87915e-08 1.08442e-08 4.07599e-09 )  
( -8.78282e-08 9.95975e-09 -4.96767e-09 )  
( -9.07026e-08 1.38046e-08 2.6927e-09 )  
( -5.61022e-08 1.27016e-08 7.00421e-09 )  
( -2.51933e-08 -2.16371e-09 -4.76105e-10 )  
( -8.05747e-08 8.3626e-09 7.0551e-09 )  
( -2.28185e-08 5.62039e-09 -7.26447e-09 )  
( -1.11686e-08 -8.38935e-10 -1.26094e-09 )  
( -1.24441e-07 3.013e-07 -3.16257e-08 )  
( -6.38819e-08 1.54625e-08 8.34939e-09 )  
( -3.53835e-08 2.82793e-10 -3.23574e-09 )  
( -3.01321e-08 3.14196e-09 1.40531e-09 )  
( -4.68905e-08 6.16257e-09 6.02172e-09 )  
( -1.1988e-08 2.37731e-09 -1.97624e-10 )  
( -5.34502e-08 1.10314e-08 4.33431e-09 )  
( -3.99203e-08 1.02915e-09 2.13766e-09 )  
( -3.96511e-08 1.04554e-08 4.89261e-09 )  
( -2.09879e-08 -1.36601e-09 -1.15997e-09 )  
( -6.00257e-08 1.0101e-08 1.88545e-09 )  
( -4.37283e-08 -4.45972e-09 1.52377e-08 )  
( -1.59045e-08 4.94995e-10 -3.92988e-09 )  
( -1.82002e-08 3.44685e-09 3.81649e-10 )  
( -5.88409e-08 5.32378e-09 4.65267e-10 )  
( -7.26657e-08 1.62968e-08 6.76741e-09 )  
( -8.65734e-08 1.49052e-08 -2.36036e-10 )  
( -4.04369e-08 7.95192e-09 1.06318e-09 )  
( -6.91498e-08 1.34048e-08 1.83874e-09 )  
( -5.99594e-08 3.83685e-09 3.34068e-09 )  
( -4.84367e-08 3.76795e-09 -1.60516e-09 )  
( -1.09897e-07 -5.30219e-08 1.07326e-08 )  
( -6.99022e-08 1.22425e-08 7.28194e-09 )  
( -4.96709e-08 2.71047e-09 -5.73804e-10 )  
( -2.06943e-08 2.60087e-09 1.66498e-09 )  
( -2.90542e-08 -7.05028e-09 3.02822e-09 )  
( -6.53669e-08 1.47318e-08 3.69808e-09 )  
( -3.39101e-08 1.21679e-08 -2.20497e-09 )  
( -1.74185e-08 2.12253e-09 -3.53633e-09 )  
( -2.45588e-08 8.65347e-11 4.75109e-09 )  
( -8.03522e-08 1.18386e-08 9.72426e-09 )  
( -8.49982e-09 3.30813e-09 -3.03131e-09 )  
( -2.97337e-08 6.90781e-09 1.66626e-09 )  
( -2.9115e-08 7.7321e-09 -4.94862e-09 )  
( -9.85143e-09 2.12268e-09 -7.68909e-09 )  
( -1.44656e-08 5.14789e-09 -6.12065e-09 )  
( -2.13635e-08 5.62322e-09 -9.97246e-10 )  
( -3.21362e-08 -4.38166e-09 8.9936e-10 )  
( -4.11258e-08 4.65647e-12 5.61939e-09 )  
( -4.48577e-08 2.35079e-09 -1.15096e-09 )  
( -7.79271e-08 9.21779e-09 2.15006e-09 )  
( -7.64784e-08 1.33773e-08 4.4896e-10 )  
( -6.79892e-08 4.53809e-09 6.02234e-09 )  
( -7.63201e-08 7.59958e-09 -4.95394e-09 )  
( -2.94002e-08 1.43739e-09 -1.1248e-09 )  
( -7.4037e-08 6.07334e-09 3.84685e-09 )  
( -6.20251e-08 2.57625e-09 -8.20438e-09 )  
( -6.34035e-08 1.75316e-08 1.02571e-09 )  
( -2.94014e-08 8.69076e-11 6.60937e-09 )  
( -3.99261e-08 1.31721e-09 1.5871e-09 )  
( -8.90915e-08 1.21161e-08 6.86615e-10 )  
( -7.63838e-08 1.25659e-08 5.13689e-09 )  
( -2.00664e-08 5.11256e-09 -1.3601e-09 )  
( -5.36033e-08 -1.73117e-09 3.02039e-09 )  
( -4.66881e-08 -9.01902e-10 -3.10139e-10 )  
( -8.3038e-08 1.39833e-08 2.16417e-09 )  
( -1.97906e-08 8.7287e-09 -1.31583e-09 )  
( -9.94017e-09 -1.81877e-10 1.85428e-09 )  
( -1.55696e-08 1.04603e-08 -2.14116e-08 )  
( -6.12387e-08 7.39522e-09 5.89554e-09 )  
( -6.27016e-08 1.85392e-08 5.73609e-09 )  
( -2.51706e-08 6.8171e-09 1.40338e-09 )  
( -2.71408e-08 3.84838e-09 -1.92679e-09 )  
( -3.70342e-08 -2.11974e-09 6.77036e-09 )  
( -2.13012e-08 1.87631e-10 -2.76049e-09 )  
( -4.73268e-08 2.59399e-09 6.21268e-09 )  
( -8.19132e-08 1.56274e-08 3.24073e-09 )  
( -1.54942e-08 5.24814e-09 8.84833e-10 )  
( -1.00791e-08 1.12168e-08 -3.4226e-09 )  
( -8.23971e-08 9.45406e-09 1.83869e-09 )  
( -9.48009e-09 1.1674e-09 1.67157e-09 )  
( -5.15697e-08 1.51233e-09 7.6576e-09 )  
( -3.65686e-08 3.81203e-09 5.52112e-10 )  
( -1.85793e-08 5.06487e-09 -2.27549e-08 )  
( -5.84905e-08 1.12117e-08 1.57746e-09 )  
( -3.1746e-08 -1.00524e-09 -5.18314e-09 )  
( -2.49557e-08 6.47502e-09 -5.60044e-09 )  
( -7.89331e-08 1.27369e-08 6.48703e-10 )  
( -2.14593e-08 2.67076e-09 -4.01145e-09 )  
( -7.03259e-08 7.69798e-09 2.93029e-09 )  
( -1.56496e-08 -2.01771e-09 9.6792e-09 )  
( -9.83703e-07 1.4923e-08 2.62838e-08 )  
( -3.34816e-08 -4.53163e-10 -1.02693e-10 )  
( -1.74156e-08 1.32409e-09 2.26605e-09 )  
( -3.44574e-08 7.72666e-09 4.99478e-09 )  
( -6.25809e-08 7.10471e-09 4.74832e-09 )  
( -2.73068e-08 3.32183e-09 2.02909e-09 )  
( -3.51475e-08 5.04823e-09 1.84927e-09 )  
( -5.09463e-08 2.17299e-09 1.91052e-09 )  
( -1.19162e-08 -1.84202e-09 -5.16719e-09 )  
( -2.32952e-08 -2.99817e-09 -5.1507e-09 )  
( -7.67953e-08 5.71186e-09 -8.81773e-09 )  
( -1.1462e-08 1.04533e-08 -1.49209e-08 )  
( -3.42361e-08 -2.50447e-09 2.14849e-09 )  
( -9.03948e-09 2.22161e-09 -8.79784e-10 )  
( -5.12149e-08 6.1338e-09 -5.23904e-09 )  
( -3.33287e-08 7.92262e-10 -8.37207e-10 )  
( -7.34613e-08 2.32774e-09 -1.02036e-08 )  
( -1.40077e-08 -5.84041e-09 8.31902e-09 )  
( -5.42537e-08 2.13352e-09 2.32303e-09 )  
( -1.38095e-08 1.08859e-09 -5.77092e-10 )  
( -3.2102e-08 -2.09471e-09 4.22521e-09 )  
( -3.25524e-08 -1.00983e-08 1.36135e-10 )  
( -1.71861e-08 3.9225e-09 4.03234e-09 )  
( -1.37838e-08 2.42886e-08 -1.15884e-08 )  
( -7.54003e-08 8.08358e-09 -3.06087e-09 )  
( -6.60583e-08 -1.15457e-09 2.19119e-09 )  
( -7.58259e-08 3.60878e-09 4.79331e-10 )  
( -1.4521e-08 4.95385e-10 -4.833e-09 )  
( -2.57043e-08 2.7807e-09 1.81648e-09 )  
( -4.3532e-08 -1.29921e-09 -1.27037e-09 )  
( -1.92582e-08 2.48689e-09 -6.65828e-09 )  
( -3.80868e-08 4.6188e-09 -2.97424e-10 )  
( -1.17798e-08 2.17073e-09 -4.57709e-09 )  
( -2.14702e-08 -1.99906e-09 -4.38581e-10 )  
( 6.11874e-09 2.00245e-08 -2.71074e-08 )  
( -3.58141e-08 -8.66928e-09 6.4927e-09 )  
( -3.30812e-08 -1.72326e-11 -4.54326e-10 )  
( -5.54913e-08 1.1453e-09 3.80894e-09 )  
( -1.67552e-08 -4.94725e-10 -1.97823e-09 )  
( -1.6645e-08 -2.36429e-09 -4.47122e-09 )  
( -3.72758e-08 -4.39878e-09 2.60987e-10 )  
( -2.22749e-08 4.14544e-09 -9.80765e-09 )  
( -1.5933e-08 -1.83703e-09 1.87405e-09 )  
( -1.12023e-08 1.49193e-08 -1.43753e-08 )  
( -2.40913e-08 1.82703e-09 -4.55275e-10 )  
( -6.01641e-08 2.57227e-10 -4.68688e-09 )  
( -2.35962e-08 1.0862e-09 -1.88361e-09 )  
( -1.60842e-08 2.9246e-09 -1.14493e-08 )  
( -1.1215e-08 -1.99924e-09 -4.52771e-10 )  
( -7.20238e-08 -1.16559e-09 -1.25998e-09 )  
( -1.74919e-08 2.3005e-09 -4.60311e-09 )  
( -6.97416e-08 -1.63641e-09 1.25394e-10 )  
( -4.20919e-08 -2.92985e-09 -4.33303e-10 )  
( -5.15372e-08 2.75843e-10 3.51708e-09 )  
( -7.308e-08 -1.04548e-09 -1.96309e-09 )  
( -6.07893e-08 -2.42356e-09 -4.92831e-09 )  
( -2.93225e-08 -3.79811e-09 3.64961e-10 )  
( -2.47542e-08 -3.68737e-09 1.12012e-09 )  
( -6.32111e-08 6.40064e-09 4.40876e-09 )  
( -3.51645e-08 6.98455e-10 -6.10334e-09 )  
( -4.78893e-08 -1.66001e-09 -1.91376e-10 )  
( -6.97765e-08 -1.31617e-10 -7.55291e-09 )  
( -5.5358e-08 -3.87093e-09 -7.48573e-09 )  
( -6.83972e-08 1.78803e-09 -6.56228e-09 )  
( -4.02847e-08 -1.57422e-09 7.32165e-10 )  
( -1.92298e-08 -1.09799e-09 -3.3582e-09 )  
( -8.08529e-09 -4.58633e-09 -7.90264e-10 )  
( -7.31397e-08 7.39426e-09 -3.99494e-09 )  
( -3.19933e-08 -6.39597e-09 -3.02132e-09 )  
( -2.787e-08 2.55232e-09 -1.95467e-09 )  
( -3.72616e-08 -6.62109e-10 1.46565e-09 )  
( -4.99523e-08 6.40987e-11 -1.89639e-09 )  
( -8.11435e-09 3.84774e-09 -1.07725e-08 )  
( -2.47463e-08 1.83609e-09 2.23369e-09 )  
( -4.32693e-08 -9.4713e-11 -3.40781e-09 )  
( -5.02922e-08 5.65981e-09 8.36334e-09 )  
( -5.162e-08 -4.29473e-08 5.36736e-08 )  
( -2.2185e-08 -2.31929e-09 2.74498e-09 )  
( -7.31521e-08 8.11374e-10 -8.94145e-09 )  
( -8.54968e-08 9.26163e-09 -1.89363e-09 )  
( -1.46942e-08 -2.11663e-09 9.71041e-10 )  
( -2.23551e-08 -4.00509e-09 -4.15147e-09 )  
( -5.04389e-08 2.42566e-09 -3.90933e-09 )  
( -2.57032e-08 -3.01281e-09 9.81527e-10 )  
( -4.30738e-08 -1.19091e-09 -1.0759e-09 )  
( -2.0478e-08 3.52345e-10 -5.08378e-09 )  
( -3.0517e-08 7.7854e-09 1.32311e-09 )  
( -3.93511e-08 6.74312e-09 -9.62983e-10 )  
( -1.8473e-08 8.96463e-10 -3.10831e-09 )  
( -2.78912e-08 -4.10315e-10 8.64925e-10 )  
( 1.45118e-09 5.95941e-09 -2.55954e-08 )  
( -1.59851e-08 -1.17132e-10 -2.81063e-09 )  
( -7.35769e-09 2.6693e-10 -2.83159e-09 )  
( -7.49833e-08 2.94534e-09 3.41045e-10 )  
( -1.05215e-08 2.76186e-09 -7.44685e-09 )  
( -7.05613e-08 3.2197e-09 4.94253e-10 )  
( -5.13359e-08 1.10904e-09 3.22611e-09 )  
( -2.84684e-08 -1.78916e-09 2.17099e-09 )  
( -1.31965e-08 2.85531e-09 2.99876e-09 )  
( -6.0305e-08 -6.36499e-09 -8.69325e-09 )  
( -1.25557e-08 2.27196e-09 -1.4211e-09 )  
( -2.26413e-08 -5.15373e-09 3.0716e-09 )  
( -6.5409e-08 6.24885e-09 -1.09649e-09 )  
( -2.64936e-08 1.16191e-09 -6.76307e-10 )  
( -4.7069e-08 1.56665e-09 3.27494e-10 )  
( -1.89962e-08 2.09372e-09 1.23254e-09 )  
( 1.71441e-08 -4.89567e-09 -3.59915e-08 )  
( -3.15096e-08 1.88488e-09 3.83828e-10 )  
( -1.73042e-08 -3.45646e-09 6.71028e-09 )  
( -8.20123e-08 6.42525e-09 -1.05923e-09 )  
( -3.45862e-08 -3.15007e-09 -1.61768e-09 )  
( -2.14017e-08 -5.38084e-10 -1.03574e-10 )  
( -1.27635e-08 1.44394e-09 1.23425e-09 )  
( -1.34626e-08 -7.41603e-10 -2.99264e-09 )  
( -7.50391e-09 7.72347e-09 -8.04876e-09 )  
( -3.49491e-07 -1.11049e-07 1.53669e-08 )  
( -2.69931e-08 -1.61197e-09 -2.12386e-09 )  
( -2.17972e-08 -1.50854e-09 -7.44369e-09 )  
( -4.05903e-08 -6.04463e-09 2.59242e-09 )  
( -8.58849e-08 8.19487e-09 -3.75672e-09 )  
( -5.27553e-08 -6.26475e-09 5.94507e-09 )  
( -4.26213e-08 4.08377e-09 7.35862e-09 )  
( -3.80708e-08 3.61364e-10 6.82599e-10 )  
( -4.33769e-08 -4.49547e-09 8.70852e-10 )  
( -1.07738e-08 -1.16364e-09 -1.55051e-09 )  
( -3.38721e-08 -1.5736e-09 -1.02167e-09 )  
( -4.22864e-08 -3.13877e-09 8.70916e-10 )  
( -4.60263e-08 9.03288e-10 2.03141e-09 )  
( -1.55739e-08 2.19291e-09 -7.17854e-09 )  
( -2.69439e-08 -2.10135e-09 1.75254e-09 )  
( -3.99551e-08 -4.61257e-09 -1.1128e-09 )  
( -6.57768e-08 6.68577e-09 -4.98394e-09 )  
( -4.32706e-08 2.12243e-09 2.74501e-09 )  
( -7.44143e-08 7.16011e-09 -8.24131e-09 )  
( -6.45183e-08 -1.79772e-09 -1.49859e-08 )  
( -5.87675e-08 -1.59574e-09 -9.15615e-09 )  
( -2.07371e-08 4.47699e-10 -7.31092e-09 )  
( -2.18263e-08 -1.15184e-09 7.99914e-10 )  
( 6.27432e-09 1.31255e-08 -2.628e-08 )  
( -1.85856e-08 5.25142e-09 -1.1165e-08 )  
( -2.72882e-08 -3.35685e-10 -5.49667e-11 )  
( -6.79252e-08 -1.023e-10 -1.86204e-09 )  
( -2.11838e-08 -2.64323e-09 -4.08592e-10 )  
( -2.77184e-08 1.78094e-09 3.85543e-09 )  
( -3.60007e-08 -8.23174e-10 4.86681e-09 )  
( -1.47669e-08 4.62553e-09 -1.17404e-08 )  
( -7.0641e-08 3.07628e-09 -2.69707e-09 )  
( -1.765e-08 -6.80194e-10 -3.3797e-09 )  
( -1.36717e-08 7.67929e-10 1.80354e-10 )  
( -3.2643e-08 -4.19237e-09 -1.74759e-09 )  
( -2.62601e-08 -1.3824e-09 -1.76064e-09 )  
( -4.60707e-08 -2.54689e-09 5.72971e-09 )  
( -4.42672e-08 -8.06147e-09 -9.8007e-10 )  
( -5.97138e-08 -1.25298e-09 -5.73807e-09 )  
( -4.6462e-08 -8.67155e-10 -9.12755e-09 )  
( -1.13691e-08 1.0467e-08 -7.53626e-09 )  
( -3.59715e-08 -4.76491e-09 -2.12742e-09 )  
( -4.35416e-08 -7.96586e-10 -1.30942e-09 )  
( -2.3394e-08 -5.02746e-10 1.09682e-09 )  
( -1.32208e-08 -9.13612e-10 1.26059e-09 )  
( -7.47333e-08 5.26714e-09 1.13173e-09 )  
( -3.65931e-08 4.95979e-09 3.61131e-10 )  
( -2.75798e-08 -3.59042e-09 -2.65819e-09 )  
( -6.94987e-08 3.57837e-09 -5.38496e-09 )  
( -1.37033e-08 2.43577e-09 -4.39686e-09 )  
( -2.53229e-08 3.79141e-09 -4.01746e-09 )  
( -9.7524e-09 -3.66357e-09 3.44238e-09 )  
( -5.72317e-08 3.45634e-09 -1.37326e-09 )  
( -1.38929e-08 -1.92404e-09 1.63339e-10 )  
( -4.42443e-08 -2.60864e-09 1.88335e-09 )  
( -2.07225e-08 1.92792e-08 9.37883e-09 )  
( -6.77588e-08 -2.68855e-10 -1.11424e-08 )  
( -3.59047e-08 -4.35705e-09 -2.1033e-09 )  
( -7.15926e-08 1.37158e-09 -1.00913e-08 )  
( -4.84775e-08 -2.35175e-09 -5.59524e-09 )  
( -2.47617e-08 1.35922e-09 3.0117e-09 )  
( -4.839e-09 3.63853e-10 2.98949e-09 )  
( -4.40723e-09 1.33375e-10 1.63441e-09 )  
( -1.78946e-08 -2.84755e-09 1.48393e-09 )  
( -8.74337e-09 -2.433e-09 3.20438e-09 )  
( -7.65366e-09 -1.8019e-09 2.86096e-09 )  
( -1.6047e-08 -1.43957e-09 1.92756e-10 )  
( -2.00059e-08 -6.00823e-10 4.70763e-10 )  
( -2.60623e-08 -1.34954e-08 2.79806e-09 )  
( -2.51169e-08 7.23865e-09 6.10993e-09 )  
( -2.38708e-08 4.94332e-09 -1.41867e-08 )  
( -2.72181e-08 -1.21444e-09 -2.83099e-09 )  
( -1.40766e-08 2.31073e-09 -2.82922e-09 )  
( -3.36573e-08 -5.07826e-09 -4.95795e-10 )  
( -2.64047e-08 -1.72038e-09 9.42701e-10 )  
( -1.89576e-09 3.21113e-08 -3.32177e-08 )  
( -9.14086e-09 -2.53108e-10 3.3635e-10 )  
( -2.04722e-08 -3.26635e-09 -1.45285e-09 )  
( -1.82291e-08 -1.55843e-09 1.9839e-09 )  
( -4.16971e-08 8.24426e-09 1.85302e-10 )  
( -4.34099e-08 8.64729e-09 5.27308e-09 )  
( -2.14568e-08 -1.64492e-09 1.57338e-10 )  
( -1.4408e-08 7.81175e-10 2.04238e-09 )  
( -2.30219e-08 -2.26325e-09 -7.21694e-10 )  
( -9.17747e-09 -1.28873e-10 1.21922e-09 )  
( -3.20976e-08 -1.06227e-08 -6.1257e-09 )  
( -4.4574e-08 -8.3226e-09 2.51219e-09 )  
( -3.99906e-09 5.15029e-09 -4.56524e-09 )  
( 1.70392e-09 8.24138e-08 2.38554e-09 )  
( -9.08554e-09 1.08511e-09 1.38482e-09 )  
( -3.60749e-08 1.41748e-08 -8.62974e-10 )  
( -3.91949e-08 2.40741e-09 4.17975e-10 )  
( -2.23043e-08 -1.87556e-09 1.98529e-09 )  
( 3.15894e-09 1.73906e-08 -5.55904e-09 )  
( -1.66795e-08 -4.4498e-10 -4.42002e-09 )  
( -2.52064e-08 -6.37089e-10 -2.30827e-09 )  
( -1.66386e-08 -9.3708e-10 -3.17945e-10 )  
( -1.81316e-08 5.79517e-10 -1.28419e-09 )  
( -3.39528e-08 -1.45489e-09 1.85274e-11 )  
( -5.45742e-08 1.29706e-08 4.29992e-09 )  
( -8.05612e-09 -6.6639e-10 3.2719e-10 )  
( -3.45905e-08 -8.14044e-10 -3.33075e-10 )  
( -1.71833e-08 1.04783e-09 -1.79691e-09 )  
( 2.1135e-08 1.39975e-07 2.3489e-09 )  
( -6.17369e-09 1.94993e-09 -1.00306e-09 )  
( -1.5725e-08 6.6997e-09 -3.67175e-10 )  
( -1.03822e-08 1.91364e-09 -2.99876e-09 )  
( -6.07664e-09 2.77077e-09 -3.16896e-09 )  
( -1.15954e-08 -2.38805e-09 1.85333e-09 )  
( -2.26771e-08 -1.1538e-09 4.17225e-09 )  
( -4.75438e-08 5.89161e-09 1.26834e-09 )  
( -1.86743e-08 -8.83209e-10 1.329e-09 )  
( -1.0527e-08 3.65212e-09 -3.46039e-09 )  
( -4.52102e-09 -6.24127e-10 -8.1364e-10 )  
( -1.02518e-08 4.96628e-10 2.81741e-10 )  
( -1.90099e-08 -5.24242e-10 4.62511e-09 )  
( -3.32467e-08 4.22552e-09 1.57628e-09 )  
( -1.07545e-08 -6.80409e-11 1.99888e-10 )  
( 3.62473e-09 2.33057e-08 -1.79966e-08 )  
( -3.28338e-08 4.82791e-09 2.0723e-09 )  
( -5.56228e-09 6.30023e-09 -5.52908e-09 )  
( -1.64031e-08 6.38095e-10 -3.48458e-09 )  
( -1.15202e-08 -1.47709e-09 1.91264e-09 )  
( -1.62312e-08 -7.38481e-10 3.29997e-09 )  
)
