/*--------------------------------*- C++ -*----------------------------------*\
| =========                 |                                                 |
| \\      /  F ield         | OpenFOAM: The Open Source CFD Toolbox           |
|  \\    /   O peration     | Version:  4.x                                   |
|   \\  /    A nd           | Web:      www.OpenFOAM.org                      |
|    \\/     M anipulation  |                                                 |
\*---------------------------------------------------------------------------*/
FoamFile
{
    version     2.0;
    format      ascii;
    class       volScalarField;
    location    "5";
    object      Ksl;
}
// * * * * * * * * * * * * * * * * * * * * * * * * * * * * * * * * * * * * * //

dimensions      [1 -3 -1 0 0 0 0];

internalField   nonuniform List<scalar> 
114
(
8551.25
3311.94
16991.9
3441.64
45327.7
3379.43
3276.53
7217.16
3094.16
6695.05
3159.33
10073.1
3278.44
17439.4
3215.6
3226.2
6756.29
2996.12
5703.15
3001.73
7227.54
3113.61
12679.5
3184.16
3206.83
5869.45
2847.46
4355.12
2657.74
4098.39
2609.89
4310.46
2653.43
51712.5
3705.2
42212.5
3599.81
3339.5
10889.9
3535.98
14504.5
3580.91
18896.7
3503.98
26668.8
3406.8
3310.89
10035
3491.46
11782.5
3543.08
15115.6
3584.86
24808.3
3689.12
3266.58
7460.25
3220.85
6096.77
3044.06
5221.07
2888.52
4847.17
2777.61
30321.2
3828.02
3415.24
12687.1
3663.69
19630.8
3689.62
23905.4
3615.7
27338.7
3537.77
3392.67
11514.3
3661.12
16192.7
3766.97
21126.8
3833.66
33492.2
3931.24
3336.54
8409.72
3379.13
7240.54
3237.96
5817.11
3077.56
5091.53
2873.07
3437.44
14351.2
3703.68
26122.9
3733.07
29564.9
3692.58
28651.5
3389.82
12261.4
3654.69
18915.5
3768.36
29019.9
3814.13
3322.6
8110.37
3356.52
6944.99
3263.73
5709.16
)
;

boundaryField
{
    inlet
    {
        type            zeroGradient;
    }
    outlet
    {
        type            zeroGradient;
    }
    wall
    {
        type            zeroGradient;
    }
    procBoundary2to0
    {
        type            processor;
        value           nonuniform List<scalar> 
44
(
6850.43
3159.58
11204.6
3302.76
26981.6
3327.54
3228.11
7713.81
3120.59
3120.59
25175.6
3738.36
21698.5
3535.97
27688.3
3463.06
3391.56
13148
3640.07
25175.6
3738.36
3738.36
28798.4
3871.55
31038.3
3592.39
3501.78
14605.3
3803.07
25017
3866.11
28798.4
3871.55
3871.55
23073.7
3870.08
3443.82
14012.6
3728.26
24570
3790.03
25670.3
3819.05
23073.7
)
;
    }
    procBoundary2to3
    {
        type            processor;
        value           nonuniform List<scalar> 
12
(
264155
17486.2
19667.6
4841
37867.4
25800.2
24316.6
5103.97
39649.7
22493
42318.5
4807.06
)
;
    }
    procBoundary2to6
    {
        type            processor;
        value           nonuniform List<scalar> 
32
(
3658.69
44068
3872.77
3059.08
4969.63
2872.34
3550.59
15689.5
3839.45
53558.9
3935.82
64910.4
3940.17
3658.69
44068
69942.2
3460.84
12447.8
3713.17
21927.8
3921.71
40833.7
44068
3059.08
4078.61
3359.18
7946.94
3359.81
6925.51
3356.33
3059.08
6283.17
)
;
    }
}


// ************************************************************************* //
