/*--------------------------------*- C++ -*----------------------------------*\
| =========                 |                                                 |
| \\      /  F ield         | OpenFOAM: The Open Source CFD Toolbox           |
|  \\    /   O peration     | Version:  4.x                                   |
|   \\  /    A nd           | Web:      www.OpenFOAM.org                      |
|    \\/     M anipulation  |                                                 |
\*---------------------------------------------------------------------------*/
FoamFile
{
    version     2.0;
    format      ascii;
    class       volScalarField;
    location    "5";
    object      KslPrev;
}
// * * * * * * * * * * * * * * * * * * * * * * * * * * * * * * * * * * * * * //

dimensions      [1 -3 -1 0 0 0 0];

internalField   nonuniform List<scalar> 
114
(
7520.71
2661.32
20196
2597.79
28378.4
2437.67
2777.88
6211.42
2593.21
5748.52
2535.19
9433.49
2465.98
45747.5
2307.11
2732.77
5803.24
2509.4
4843.03
2408.07
6278.02
2344
19149.6
2321.6
2710.95
5013.85
2380.42
3638.32
2119.64
3282.93
1941.16
3427.53
1881.77
159641
2813.6
32989.3
2538.29
2831.45
9506.36
2977.7
13801.5
2896.89
24076.6
2646.41
101525
2402.88
2807.28
8736.06
2944.2
10818.8
2871.01
16861.1
2739.6
102878
2727.86
2762.34
6416.37
2705.7
5209.32
2445.95
4314.91
2169.1
3948.32
1967.79
48783.7
2681.29
2894.73
11148
3082.85
20301.8
2986.48
39444
2735.69
61635.4
2465.53
2873.1
10078.6
3085.91
15905.2
3061.99
31292.5
2951.51
40014.5
2901.43
2820.54
7262.21
2838.11
6286.53
2607.63
4900.65
2326.04
4190.49
2030.45
2909.7
12731.6
3117.22
30722
3025.99
72601
2807.45
39387.2
2867.51
10787
3078.44
19676.5
3065.25
72259.9
2941.23
2803.01
6996.63
2816.7
6023.5
2632.91
4820.84
)
;

boundaryField
{
    inlet
    {
        type            zeroGradient;
    }
    outlet
    {
        type            zeroGradient;
    }
    wall
    {
        type            zeroGradient;
    }
    procBoundary2to0
    {
        type            processor;
        value           uniform 0;
    }
    procBoundary2to3
    {
        type            processor;
        value           uniform 0;
    }
    procBoundary2to6
    {
        type            processor;
        value           uniform 0;
    }
}


// ************************************************************************* //
