/*--------------------------------*- C++ -*----------------------------------*\
| =========                 |                                                 |
| \\      /  F ield         | OpenFOAM: The Open Source CFD Toolbox           |
|  \\    /   O peration     | Version:  4.x                                   |
|   \\  /    A nd           | Web:      www.OpenFOAM.org                      |
|    \\/     M anipulation  |                                                 |
\*---------------------------------------------------------------------------*/
FoamFile
{
    version     2.0;
    format      ascii;
    class       volScalarField;
    location    "5";
    object      QPartFluidCoeff;
}
// * * * * * * * * * * * * * * * * * * * * * * * * * * * * * * * * * * * * * //

dimensions      [1 -1 -3 -1 0 0 0];

internalField   nonuniform List<scalar> 
114
(
-2.27888e+07
-1.78475e+07
-9.34205e+06
-1.81706e+07
-8.19845e+06
-9.09894e+06
-1.95262e+07
-2.32439e+07
-2.06985e+07
-1.4554e+07
-2.40055e+07
-1.56044e+07
-2.32414e+07
-1.94185e+07
-1.37426e+07
-1.30747e+07
-2.08942e+07
-1.17219e+07
-1.91937e+07
-1.69717e+07
-1.91763e+07
-1.09357e+07
-1.59921e+07
-1.18074e+07
-1.33627e+07
-1.35539e+07
-1.52171e+07
-1.57441e+07
-1.3377e+07
-1.38775e+07
-1.00003e+07
-1.59053e+07
-1.27637e+07
-3.0225e+07
-3.93582e+07
-2.00963e+07
-3.60446e+07
-1.58267e+07
-2.62597e+07
-3.16871e+07
-2.95162e+07
-2.82893e+07
-2.36414e+07
-3.5928e+07
-2.75373e+07
-2.04757e+07
-1.96562e+07
-3.32159e+07
-3.56057e+07
-3.04506e+07
-3.09611e+07
-2.92701e+07
-2.99603e+07
-2.6623e+07
-2.59752e+07
-1.6938e+07
-1.80558e+07
-2.8085e+07
-2.03256e+07
-2.55674e+07
-2.21526e+07
-2.24341e+07
-2.37531e+07
-1.61553e+07
-2.67559e+07
-3.05724e+07
-2.27651e+07
-1.87726e+07
-2.21145e+07
-2.07504e+07
-2.3536e+07
-2.54952e+07
-3.27717e+07
-2.42996e+07
-1.92947e+07
-1.66306e+07
-2.28101e+07
-2.99811e+07
-3.42507e+07
-3.03355e+07
-2.3047e+07
-3.15841e+07
-2.84249e+07
-3.45515e+07
-1.66962e+07
-2.5181e+07
-2.31977e+07
-2.50282e+07
-1.59683e+07
-2.32663e+07
-3.30693e+07
-1.89679e+07
-3.36895e+07
-1.62674e+07
-3.09397e+07
-3.38261e+07
-2.33675e+07
-2.58844e+07
-2.21938e+07
-2.55949e+07
-2.61661e+07
-1.95336e+07
-2.57294e+07
-3.47442e+07
-2.12652e+07
-3.01495e+07
-2.47003e+07
-3.46862e+07
-1.42081e+07
-2.08835e+07
-2.49702e+07
-2.42996e+07
-2.26332e+07
-2.2431e+07
)
;

boundaryField
{
    inlet
    {
        type            calculated;
        value           uniform 0;
    }
    outlet
    {
        type            calculated;
        value           nonuniform 0();
    }
    wall
    {
        type            calculated;
        value           uniform 0;
    }
    procBoundary2to0
    {
        type            processor;
        value           nonuniform List<scalar> 
44
(
372.876
409.598
331.58
281.135
299.308
617.576
227.475
341.427
264.891
264.891
379.98
839.458
540.511
751.843
488.841
459.093
601.924
518.858
576.973
379.98
839.458
839.458
598.473
660.692
485.396
408.816
518.569
635.801
707.5
638.045
754.646
598.473
660.692
660.692
434.03
203.722
362.413
496.398
719.929
768.178
408.506
751.761
655.28
434.03
)
;
    }
    procBoundary2to3
    {
        type            processor;
        value           nonuniform List<scalar> 
12
(
489.647
382.415
435.988
306.052
592.727
537.964
902.88
622.131
639.118
744.778
520.434
481.932
)
;
    }
    procBoundary2to6
    {
        type            processor;
        value           nonuniform List<scalar> 
32
(
626.659
502.391
683.043
441.198
493.417
442.535
746.908
665.493
453.588
585.861
831.271
462.579
662.797
626.659
502.391
512.98
474.789
686.648
612.181
730.661
691.279
655.111
502.391
441.198
663.569
353.839
572.423
450.626
471.453
663.257
441.198
742.409
)
;
    }
}


// ************************************************************************* //
