/*--------------------------------*- C++ -*----------------------------------*\
| =========                 |                                                 |
| \\      /  F ield         | OpenFOAM: The Open Source CFD Toolbox           |
|  \\    /   O peration     | Version:  4.x                                   |
|   \\  /    A nd           | Web:      www.OpenFOAM.org                      |
|    \\/     M anipulation  |                                                 |
\*---------------------------------------------------------------------------*/
FoamFile
{
    version     2.0;
    format      ascii;
    class       volScalarField;
    location    "5";
    object      Sm;
}
// * * * * * * * * * * * * * * * * * * * * * * * * * * * * * * * * * * * * * //

dimensions      [1 -3 -1 0 0 0 0];

internalField   nonuniform List<scalar> 
114
(
6.50618e-65
4.87943e-65
2.55544e-65
4.87925e-65
2.24609e-65
2.63382e-65
5.73444e-65
6.50837e-65
5.11311e-65
3.79539e-65
6.19618e-65
4.41425e-65
6.19603e-65
6.11878e-65
3.95088e-65
4.02984e-65
5.65647e-65
2.78907e-65
5.26755e-65
3.873e-65
5.18944e-65
2.78856e-65
4.6477e-65
3.09875e-65
4.41716e-65
4.262e-65
3.87436e-65
4.5712e-65
3.33149e-65
3.79622e-65
2.71159e-65
4.49355e-65
3.09926e-65
8.44024e-65
9.75711e-65
5.73143e-65
9.37266e-65
5.42432e-65
6.81808e-65
7.66864e-65
7.74489e-65
6.73731e-65
6.58214e-65
8.98324e-65
7.58993e-65
5.18989e-65
6.04455e-65
8.60048e-65
8.28936e-65
7.5908e-65
7.3578e-65
7.35781e-65
7.04807e-65
7.12605e-65
6.27464e-65
5.88963e-65
5.19158e-65
6.97296e-65
5.81005e-65
6.89423e-65
5.887e-65
5.88719e-65
6.50716e-65
4.26111e-65
7.58932e-65
7.9778e-65
7.284e-65
4.95843e-65
5.49928e-65
5.73074e-65
5.88489e-65
7.1235e-65
8.3629e-65
6.58269e-65
4.87966e-65
5.34693e-65
6.04337e-65
7.12645e-65
9.06176e-65
7.27941e-65
6.42746e-65
7.51191e-65
7.43542e-65
8.36615e-65
5.34702e-65
7.51582e-65
6.04299e-65
6.97131e-65
4.64745e-65
6.50609e-65
8.28798e-65
4.9575e-65
8.90927e-65
4.80417e-65
8.13438e-65
8.36503e-65
6.58246e-65
6.42663e-65
6.27143e-65
6.2718e-65
7.74414e-65
6.8968e-65
6.8954e-65
8.36609e-65
5.80868e-65
7.20175e-65
6.89174e-65
8.36368e-65
5.26956e-65
6.50847e-65
6.27503e-65
7.12619e-65
5.49908e-65
6.35079e-65
)
;

boundaryField
{
    inlet
    {
        type            calculated;
        value           uniform 0;
    }
    outlet
    {
        type            calculated;
        value           nonuniform 0();
    }
    wall
    {
        type            calculated;
        value           uniform 0;
    }
    procBoundary2to0
    {
        type            processor;
        value           nonuniform List<scalar> 
44
(
4.72443e-65
4.25955e-65
4.33677e-65
3.25293e-65
4.18274e-65
7.20487e-65
2.86727e-65
4.41623e-65
3.25387e-65
3.25387e-65
4.56877e-65
9.13726e-65
6.58199e-65
8.28645e-65
6.04113e-65
4.95789e-65
8.05886e-65
6.12055e-65
6.11892e-65
4.56877e-65
9.13726e-65
9.13726e-65
7.12301e-65
7.12348e-65
6.1955e-65
4.57002e-65
7.2839e-65
7.59193e-65
7.66752e-65
7.97599e-65
8.36219e-65
7.12301e-65
7.12348e-65
7.12348e-65
5.42015e-65
2.3234e-65
5.26923e-65
5.88777e-65
7.82265e-65
9.21486e-65
4.41322e-65
9.21319e-65
7.12325e-65
5.42015e-65
)
;
    }
    procBoundary2to3
    {
        type            processor;
        value           nonuniform List<scalar> 
12
(
6.97296e-65
5.03604e-65
5.50129e-65
4.64924e-65
7.51521e-65
6.50793e-65
1.03822e-64
7.74828e-65
7.6691e-65
8.98658e-65
5.65593e-65
5.73369e-65
)
;
    }
    procBoundary2to6
    {
        type            processor;
        value           nonuniform List<scalar> 
32
(
6.73827e-65
6.04118e-65
7.12644e-65
5.1121e-65
5.80957e-65
4.95815e-65
1.03834e-64
7.59247e-65
4.95724e-65
7.43416e-65
9.36897e-65
6.11678e-65
7.35582e-65
6.73827e-65
6.04118e-65
6.50511e-65
5.81164e-65
7.90283e-65
6.42931e-65
8.51928e-65
7.35692e-65
7.82128e-65
6.04118e-65
5.1121e-65
7.04723e-65
4.95963e-65
7.20578e-65
5.42317e-65
6.11921e-65
7.59059e-65
5.1121e-65
8.75173e-65
)
;
    }
}


// ************************************************************************* //
