/*--------------------------------*- C++ -*----------------------------------*\
  =========                 |
  \\      /  F ield         | OpenFOAM: The Open Source CFD Toolbox
   \\    /   O peration     | Website:  https://openfoam.org
    \\  /    A nd           | Version:  4.x
     \\/     M anipulation  |
\*---------------------------------------------------------------------------*/
FoamFile
{
    version     2.0;
    format      ascii;
    class       Cloud<passiveParticle>;
    location    0;
    object      positions;
}
// * * * * * * * * * * * * * * * * * * * * * * * * * * * * * * * * * * * * * //

303
(
( 0.252963 0.0900486 -0.0558046 ) 63
( 0.250449 0.0316256 -0.0549338 ) 45
( 0.250272 0.0300163 -0.0351497 ) 81
( 0.254044 0.0693119 -0.0504229 ) 54
( 0.251003 0.068252 -0.0699612 ) 54
( 0.250541 0.0107799 -0.0752694 ) 0
( 0.250042 0.0882438 -0.0216928 ) 99
( 0.250087 0.0359571 -0.07435 ) 9
( 0.255989 0.0312922 -0.0150633 ) 81
( 0.381176 -0.0139626 -0.0338151 ) 76
( 0.421055 -0.0111326 -0.0808096 ) 6
( 0.473705 -0.00618164 -0.0415274 ) 80
( 0.324528 -0.0104786 -0.0764009 ) 2
( 0.403996 -0.00384211 -0.0735521 ) 5
( 0.490068 -0.0109807 -0.0578445 ) 44
( 0.371717 -0.00591115 -0.0492879 ) 40
( 0.46861 -0.00182021 -0.0854542 ) 7
( 0.342628 -0.0028169 -0.0730988 ) 3
( 0.334685 -0.0140195 -0.032865 ) 75
( 0.439294 -0.00180433 -0.0578273 ) 42
( 0.321641 -0.0117841 -0.0474289 ) 38
( 0.360808 -0.000891081 -0.0651457 ) 39
( 0.310638 -0.00594763 -0.0628152 ) 38
( 0.354245 -0.0122629 -0.0387093 ) 75
( 0.27214 -0.00316411 -0.0685202 ) 36
( 0.283843 -0.0122167 -0.0389833 ) 73
( 0.436694 0.000608385 -0.0773508 ) 6
( 0.49004 -0.01221 -0.077721 ) 8
( 0.302414 -0.00847391 -0.0445025 ) 37
( 0.394156 -0.00440721 -0.0448502 ) 41
( 0.472399 -0.0116095 -0.0684669 ) 44
( 0.275375 -0.0100681 -0.0201178 ) 72
( 0.473071 -0.0126255 -0.0212214 ) 80
( 0.387644 0.0265104 -0.0548105 ) 49
( 0.303826 0.0719246 -0.0647574 ) 64
( 0.336986 0.0639508 -0.0467563 ) 57
( 0.325523 0.0165126 -0.0484613 ) 47
( 0.443407 0.0376292 -0.0466838 ) 51
( 0.286603 0.0647079 -0.0582552 ) 55
( 0.331202 0.0508639 -0.0605254 ) 56
( 0.455285 0.0130434 -0.0858998 ) 7
( 0.369665 0.0348425 -0.0532767 ) 49
( 0.49005 0.0227642 -0.0532073 ) 53
( 0.324482 0.0376844 -0.0746521 ) 11
( 0.293252 0.0258986 -0.0575171 ) 46
( 0.37921 0.0096043 -0.0642723 ) 40
( 0.470473 0.0687673 -0.0577927 ) 61
( 0.431372 0.0711152 -0.0625273 ) 60
( 0.456053 0.0710426 -0.0785085 ) 25
( 0.342722 0.0322692 -0.0689295 ) 48
( 0.320105 0.0460942 -0.0446741 ) 56
( 0.300956 0.0614082 -0.0451275 ) 55
( 0.368743 0.0542619 -0.0494209 ) 58
( 0.353722 0.0455383 -0.0591908 ) 57
( 0.324341 0.0854191 -0.0374919 ) 101
( 0.353037 0.0836157 -0.0694601 ) 66
( 0.452509 0.0772234 -0.055591 ) 70
( 0.286347 0.0901515 -0.0309872 ) 100
( 0.417168 0.0203244 -0.0480534 ) 51
( 0.334334 0.0726004 -0.0645033 ) 66
( 0.388198 0.0701277 -0.0536242 ) 58
( 0.471217 0.090126 -0.0645135 ) 70
( 0.47398 0.068092 -0.0382052 ) 98
( 0.489924 0.014646 -0.0838793 ) 17
( 0.265354 0.0160774 -0.0366178 ) 81
( 0.39986 0.0666638 -0.0694046 ) 59
( 0.327076 0.0285551 -0.0321225 ) 83
( 0.349203 0.0640477 -0.0204726 ) 93
( 0.395511 0.0136889 -0.0780003 ) 5
( 0.306289 0.0318132 -0.0402784 ) 83
( 0.302934 0.0349689 -0.0723502 ) 10
( 0.458128 0.0434136 -0.0605836 ) 61
( 0.272499 0.0513588 -0.0543028 ) 54
( 0.410951 0.05104 -0.0599479 ) 59
( 0.457314 0.0242587 -0.0515043 ) 52
( 0.430472 0.082627 -0.0787151 ) 33
( 0.365707 0.0410993 -0.0348529 ) 85
( 0.315995 0.0314855 -0.0576537 ) 47
( 0.473512 0.0304716 -0.0613001 ) 53
( 0.366632 0.0114747 -0.0796599 ) 4
( 0.290649 0.0899562 -0.050342 ) 64
( 0.26913 0.0164847 -0.0710622 ) 45
( 0.40531 0.0262729 -0.0640905 ) 50
( 0.474268 0.047398 -0.0500793 ) 62
( 0.441139 0.0386872 -0.0695277 ) 51
( 0.419571 0.0138268 -0.0703845 ) 42
( 0.346427 0.0806702 -0.0509005 ) 66
( 0.438796 0.0558575 -0.0404746 ) 96
( 0.437434 0.0204286 -0.0763409 ) 15
( 0.478469 0.0748783 -0.0750675 ) 35
( 0.334557 0.0339126 -0.0507881 ) 48
( 0.380772 0.0380705 -0.0694358 ) 49
( 0.460878 0.0406559 -0.0375664 ) 88
( 0.401407 0.0836709 -0.0593742 ) 68
( 0.363217 0.0534091 -0.074731 ) 22
( 0.280315 0.0682379 -0.0394724 ) 91
( 0.422366 0.0628887 -0.0782016 ) 24
( 0.371371 0.0898869 -0.074234 ) 31
( 0.396959 0.0211228 -0.0382016 ) 86
( 0.347142 0.0156713 -0.0789872 ) 12
( 0.352699 0.0296694 -0.0442881 ) 48
( 0.273335 0.0789101 -0.0546292 ) 63
( 0.490004 0.0338743 -0.0785425 ) 17
( 0.383659 0.0741922 -0.0839172 ) 31
( 0.458126 0.0291026 -0.0743612 ) 16
( 0.424203 0.0430613 -0.0791788 ) 24
( 0.287267 0.0825094 -0.0684498 ) 64
( 0.430876 0.0736575 -0.0429381 ) 69
( 0.490014 0.0899401 -0.0823025 ) 35
( 0.293509 0.0527137 -0.0725227 ) 19
( 0.32653 0.00587399 -0.0651766 ) 38
( 0.293735 0.0110907 -0.0708825 ) 37
( 0.351018 0.0159538 -0.030072 ) 84
( 0.490039 0.0536572 -0.0821012 ) 26
( 0.412992 0.0679797 -0.0496023 ) 59
( 0.319252 0.0691544 -0.0770281 ) 20
( 0.457896 0.058302 -0.046329 ) 61
( 0.380864 0.00958015 -0.0399723 ) 76
( 0.473273 0.0107267 -0.0537081 ) 44
( 0.472192 0.0135661 -0.073329 ) 7
( 0.283954 0.0211247 -0.040744 ) 82
( 0.269257 0.0318708 -0.0484782 ) 45
( 0.361778 0.0187401 -0.0617543 ) 49
( 0.472148 0.0230623 -0.0383429 ) 88
( 0.308145 0.0495789 -0.029288 ) 92
( 0.370976 0.0729393 -0.0630188 ) 67
( 0.43769 0.0900986 -0.0616591 ) 69
( 0.428931 0.00664818 -0.0395663 ) 78
( 0.48867 0.0765049 -0.0485599 ) 71
( 0.391251 0.0508009 -0.0566629 ) 59
( 0.474848 0.0497556 -0.0697764 ) 62
( 0.406154 0.0514581 -0.0805363 ) 23
( 0.398364 0.0717542 -0.0366183 ) 104
( 0.392163 0.0901556 -0.0757342 ) 32
( 0.412459 0.0900724 -0.0746408 ) 32
( 0.273972 0.00936694 -0.0531781 ) 36
( 0.436498 0.0198683 -0.0539938 ) 51
( 0.44404 0.0900554 -0.0430264 ) 69
( 0.356167 0.00637016 -0.0471975 ) 39
( 0.3297 0.0900762 -0.055989 ) 65
( 0.490191 0.041355 -0.0601318 ) 53
( 0.433022 0.0252988 -0.0351561 ) 87
( 0.342567 0.0155197 -0.0583254 ) 48
( 0.363763 0.0727289 -0.044514 ) 67
( 0.490253 0.0379943 -0.040578 ) 89
( 0.469727 0.0900461 -0.084572 ) 34
( 0.419425 0.0507405 -0.0418946 ) 96
( 0.283465 0.0519957 -0.0219214 ) 91
( 0.425747 0.0902818 -0.0339604 ) 105
( 0.363514 0.0902217 -0.0539315 ) 67
( 0.300545 0.0106258 -0.0394393 ) 73
( 0.265798 0.0902363 -0.0402508 ) 99
( 0.300728 0.0441082 -0.0547984 ) 55
( 0.342813 0.0554886 -0.0759625 ) 21
( 0.35269 0.0652489 -0.0617422 ) 57
( 0.398308 0.00856414 -0.0590157 ) 41
( 0.382811 0.0900333 -0.0579665 ) 67
( 0.417388 0.00157049 -0.0549048 ) 42
( 0.448718 0.00807083 -0.0435238 ) 43
( 0.295515 0.0668987 -0.027017 ) 91
( 0.385372 0.0566743 -0.03869 ) 94
( 0.490524 0.090161 -0.0624082 ) 71
( 0.399002 0.0329345 -0.0817721 ) 14
( 0.308301 0.0129932 -0.0574173 ) 38
( 0.490128 0.0523854 -0.0263929 ) 98
( 0.490048 0.0903459 -0.0346562 ) 107
( 0.270714 0.0663374 -0.0698977 ) 54
( 0.307624 0.0800949 -0.0469894 ) 65
( 0.464289 0.0900758 -0.0459548 ) 70
( 0.32193 0.0658489 -0.0339644 ) 92
( 0.4901 0.00455891 -0.0449891 ) 44
( 0.490013 0.0627411 -0.0643545 ) 62
( 0.266335 0.0471782 -0.0727456 ) 18
( 0.430957 0.0512739 -0.0580708 ) 60
( 0.347191 0.0904361 -0.0339029 ) 102
( 0.311494 0.0901798 -0.0638048 ) 65
( 0.405451 0.0902603 -0.0410599 ) 104
( 0.490359 0.0572978 -0.0452936 ) 62
( 0.38259 0.0575175 -0.0732116 ) 22
( 0.455421 0.0494883 -0.0793204 ) 25
( 0.473203 0.0277224 -0.0873423 ) 17
( 0.267235 0.0901276 -0.0697391 ) 63
( 0.381345 0.0824857 -0.0396514 ) 103
( 0.452331 0.0118916 -0.0662493 ) 43
( 0.44519 0.0893995 -0.0903629 ) 34
( 0.375135 0.0248611 -0.0286437 ) 85
( 0.335075 0.0900473 -0.0750891 ) 30
( 0.453632 0.0899752 -0.072777 ) 34
( 0.318542 0.0647261 -0.0535733 ) 56
( 0.286849 0.0480261 -0.0410545 ) 91
( 0.447779 0.0599676 -0.064176 ) 61
( 0.315731 0.0198019 -0.0745446 ) 11
( 0.474013 0.0715908 -0.0149021 ) 107
( 0.393379 0.0606387 -0.0209729 ) 95
( 0.410575 0.0815491 -0.0242967 ) 104
( 0.317401 0.0370092 -0.016873 ) 83
( 0.455525 0.0776419 -0.0162682 ) 106
( 0.390581 0.0155914 -0.0202738 ) 86
( 0.490001 0.01852 -0.0308301 ) 89
( 0.323605 0.0607112 -0.0149325 ) 92
( 0.363239 0.081761 -0.026993 ) 103
( 0.407669 0.024641 -0.0171455 ) 86
( 0.44057 0.00382947 -0.0235069 ) 78
( 0.466772 0.02297 -0.0192458 ) 88
( 0.348598 0.0851103 -0.0143846 ) 102
( 0.38059 0.0455472 -0.023013 ) 94
( 0.447741 0.0607653 -0.0235464 ) 97
( 0.43106 0.0440275 -0.0265349 ) 96
( 0.39291 0.0902322 -0.025448 ) 104
( 0.414722 0.0430218 -0.0155147 ) 95
( 0.458237 0.00596954 -0.0147221 ) 79
( 0.490066 0.0721695 -0.0271449 ) 107
( 0.439536 0.0251597 -0.0164706 ) 87
( 0.305672 0.0221711 -0.0230437 ) 83
( 0.423828 0.014264 -0.0212753 ) 78
( 0.269727 0.0900188 -0.0201483 ) 99
( 0.333216 0.0124401 -0.0221091 ) 74
( 0.41492 0.0620522 -0.0262574 ) 95
( 0.330875 0.0783039 -0.0202587 ) 101
( 0.270473 0.0348528 -0.028858 ) 81
( 0.380608 0.0750728 -0.0213197 ) 103
( 0.471453 0.0895422 -0.0275723 ) 106
( 0.490086 0.0899639 -0.0146742 ) 107
( 0.259478 0.0469125 -0.0399935 ) 90
( 0.255899 -0.000331281 -0.0572077 ) 36
( 0.459499 -0.00336462 -0.0558323 ) 43
( 0.321349 -0.00174645 -0.0156983 ) 74
( 0.362218 0.0334799 -0.0751088 ) 13
( 0.419398 0.0900481 -0.0548841 ) 69
( 0.318649 0.00540698 -0.0337552 ) 74
( 0.489738 0.00724633 -0.0653999 ) 44
( 0.409312 0.00579651 -0.0368222 ) 77
( 0.280166 0.033086 -0.0705661 ) 46
( 0.265687 0.0564731 -0.0144931 ) 90
( 0.442726 0.0903513 -0.0234679 ) 105
( 0.474688 0.00637689 -0.0261861 ) 80
( 0.262236 0.072364 -0.0326197 ) 99
( 0.387651 -0.00840173 -0.0631145 ) 40
( 0.423685 0.0331929 -0.0619222 ) 51
( 0.268928 0.0104243 -0.0179808 ) 72
( 0.427991 -0.0128024 -0.0421286 ) 78
( 0.266075 -0.00363318 -0.0404241 ) 72
( 0.396461 -0.00297696 -0.0244335 ) 77
( 0.337225 0.000522128 -0.0461676 ) 39
( 0.254326 -0.00877299 -0.0752214 ) 0
( 0.33112 0.0476761 -0.0280556 ) 92
( 0.455426 0.0751314 -0.0359566 ) 106
( 0.376861 -0.00564311 -0.0795804 ) 4
( 0.312873 0.052449 -0.0681117 ) 56
( 0.40283 0.0373993 -0.0478694 ) 50
( 0.253068 0.0510511 -0.0583459 ) 54
( 0.288813 -0.00306889 -0.057779 ) 37
( 0.348864 0.0496226 -0.0404482 ) 93
( 0.313753 -0.0138273 -0.0291775 ) 74
( 0.415395 0.0333687 -0.0331321 ) 86
( 0.347282 -0.0022658 -0.0230009 ) 75
( 0.490139 -0.00980749 -0.0310233 ) 80
( 0.290336 0.0341057 -0.0274078 ) 82
( 0.277417 0.0715877 -0.0197779 ) 99
( 0.36791 0.0606254 -0.026607 ) 94
( 0.365259 0.00207008 -0.0302489 ) 76
( 0.45221 0.0238668 -0.0322063 ) 88
( 0.305562 0.0854558 -0.0279768 ) 101
( 0.476991 0.0378459 -0.0261751 ) 89
( 0.25034 0.0141045 -0.0235 ) 72
( 0.420167 -0.0048606 -0.0242431 ) 78
( 0.35012 0.0418293 -0.0224051 ) 84
( 0.468195 0.0552817 -0.0242825 ) 97
( 0.295128 -0.0110042 -0.0230119 ) 73
( 0.431845 0.0737089 -0.0229906 ) 105
( 0.286576 0.00673569 -0.026172 ) 73
( 0.456889 -0.00495519 -0.0310959 ) 79
( 0.399517 0.0436513 -0.0284252 ) 95
( 0.449881 0.0412101 -0.0212561 ) 88
( 0.346252 -0.0137414 -0.0568735 ) 39
( 0.281658 -0.0119732 -0.0836158 ) 1
( 0.470897 0.060199 -0.0862666 ) 25
( 0.380434 0.0250196 -0.0844829 ) 13
( 0.383894 0.0443467 -0.0881057 ) 22
( 0.300216 0.0677005 -0.0838832 ) 19
( 0.347297 0.0394644 -0.0869285 ) 12
( 0.445087 0.0342657 -0.0885499 ) 16
( 0.275557 0.0792713 -0.0842493 ) 27
( 0.282875 0.0197415 -0.0851494 ) 10
( 0.329347 0.00860974 -0.0846948 ) 2
( 0.278696 0.0564972 -0.0852898 ) 19
( 0.363907 0.0721378 -0.0816136 ) 31
( 0.301914 0.0874137 -0.0810422 ) 28
( 0.311004 0.0459837 -0.0868657 ) 20
( 0.266286 0.0307942 -0.084688 ) 9
( 0.342994 0.0738661 -0.0836451 ) 30
( 0.35687 0.0900355 -0.0879205 ) 30
( 0.407935 0.0742731 -0.0859515 ) 32
( 0.253299 0.0900609 -0.083933 ) 27
( 0.417124 0.0257643 -0.0861308 ) 15
( 0.308599 0.00225184 -0.0808462 ) 2
( 0.43804 0.0548122 -0.0875007 ) 24
( 0.260749 0.065571 -0.0871476 ) 18
( 0.28989 0.0392834 -0.086824 ) 10
( 0.302152 0.0234961 -0.0886569 ) 10
( 0.32041 0.0882411 -0.0884571 ) 29
( 0.265771 0.0037583 -0.0860859 ) 0
( 0.328028 0.0561024 -0.0893079 ) 20
)
