/*--------------------------------*- C++ -*----------------------------------*\
| =========                 |                                                 |
| \\      /  F ield         | OpenFOAM: The Open Source CFD Toolbox           |
|  \\    /   O peration     | Version:  4.x                                   |
|   \\  /    A nd           | Web:      www.OpenFOAM.org                      |
|    \\/     M anipulation  |                                                 |
\*---------------------------------------------------------------------------*/
FoamFile
{
    version     2.0;
    format      ascii;
    class       volVectorField;
    location    "14";
    object      impParticleForces;
}
// * * * * * * * * * * * * * * * * * * * * * * * * * * * * * * * * * * * * * //

dimensions      [1 1 -2 0 0 0 0];

internalField   nonuniform List<vector> 
87
(
(0.00244632 1.97559e-05 -1.22018e-05)
(0.00247697 8.41021e-05 4.16417e-06)
(0.00245488 1.37438e-05 9.05647e-06)
(0.00248094 -1.93797e-05 1.12287e-05)
(0.00242889 -3.85763e-05 5.92038e-06)
(0.00241626 -5.72929e-05 -4.26006e-06)
(0.00239369 -7.99425e-05 -2.27468e-05)
(0.00236653 -0.00010398 -5.33607e-05)
(0.00227576 -0.000132584 -8.60712e-05)
(0.00247324 2.19637e-06 -1.23987e-05)
(0.00248344 1.59714e-05 2.00079e-06)
(0.00247535 -2.54297e-06 8.08779e-06)
(0.00248332 -1.97926e-05 8.31203e-06)
(0.00243501 -3.36548e-05 8.72358e-07)
(0.00242066 -4.79227e-05 -1.21884e-05)
(0.00238114 -6.52274e-05 -3.30622e-05)
(0.00235148 -8.31156e-05 -5.98287e-05)
(0.00226441 -0.000107078 -8.16523e-05)
(0.00246069 -1.60726e-06 -1.3259e-05)
(0.00248023 2.19206e-06 1.01967e-06)
(0.00245077 -3.16459e-06 4.08276e-06)
(0.0024598 -1.05099e-05 2.37844e-06)
(0.00240725 -1.80285e-05 -8.79378e-06)
(0.00239401 -2.53831e-05 -2.55553e-05)
(0.00234263 -3.36065e-05 -4.94053e-05)
(0.00231486 -4.22586e-05 -7.69193e-05)
(0.00224067 -5.00674e-05 -9.54913e-05)
(0.0024734 -2.48064e-07 -1.26972e-05)
(0.00247954 1.27125e-05 1.5524e-06)
(0.00247798 -5.14874e-06 8.90192e-06)
(0.00250269 -2.40938e-05 1.16839e-05)
(0.00246879 -3.98906e-05 7.47173e-06)
(0.00247488 -5.78507e-05 -4.18738e-07)
(0.00245607 -8.23632e-05 -1.9133e-05)
(0.0024434 -0.000111188 -4.88831e-05)
(0.00231709 -0.000148474 -8.98127e-05)
(0.00251129 -6.85519e-06 -1.16775e-05)
(0.00250437 5.15659e-08 1.27163e-06)
(0.00249212 -9.28456e-06 7.53656e-06)
(0.00251975 -2.19589e-05 8.48752e-06)
(0.00248542 -3.41693e-05 1.32995e-06)
(0.00247691 -4.78939e-05 -1.08187e-05)
(0.00244609 -6.77386e-05 -3.14161e-05)
(0.00242589 -9.01617e-05 -5.78761e-05)
(0.00230145 -0.000120987 -8.40342e-05)
(0.00247164 -4.34681e-06 -1.21772e-05)
(0.00249357 -1.19779e-06 1.1994e-06)
(0.00246391 -4.82308e-06 2.94855e-06)
(0.00247284 -1.10714e-05 9.64355e-08)
(0.00243347 -1.81195e-05 -1.11125e-05)
(0.00244063 -2.57831e-05 -2.76926e-05)
(0.00239914 -3.50572e-05 -5.0743e-05)
(0.00238387 -4.38456e-05 -7.81551e-05)
(0.00227415 -5.48412e-05 -9.79993e-05)
(0.00243876 -1.13065e-05 -1.35405e-05)
(0.00246448 -9.02819e-06 -8.07216e-07)
(0.00247044 -1.47606e-05 6.12096e-06)
(0.00250328 -2.56937e-05 9.36617e-06)
(0.0024723 -3.80164e-05 4.65048e-06)
(0.00249585 -5.46789e-05 -1.93915e-06)
(0.00246777 -7.753e-05 -1.8108e-05)
(0.00246535 -0.000100701 -3.89437e-05)
(0.00232443 -0.000133774 -6.96658e-05)
(0.00247591 -1.31836e-05 -1.32126e-05)
(0.00249166 -8.77765e-06 -1.28315e-06)
(0.00246942 -1.31917e-05 2.7378e-06)
(0.00249983 -2.08629e-05 3.12528e-06)
(0.00247984 -3.23451e-05 -3.75293e-06)
(0.00249439 -4.5757e-05 -1.46163e-05)
(0.00245026 -6.52046e-05 -3.32136e-05)
(0.00243196 -8.74603e-05 -5.58824e-05)
(0.00231206 -0.000116146 -7.67197e-05)
(0.00243727 -8.05309e-06 -1.26112e-05)
(0.00246707 -4.03455e-06 -3.65592e-06)
(0.00244051 -6.97018e-06 -2.61276e-06)
(0.00247831 -1.10741e-05 -6.885e-06)
(0.00244383 -1.91955e-05 -1.69116e-05)
(0.00245696 -2.66485e-05 -3.32509e-05)
(0.00240238 -3.64862e-05 -5.16644e-05)
(0.00237931 -4.653e-05 -7.42928e-05)
(0.00227998 -5.89657e-05 -8.9564e-05)
(0.00241265 -1.80682e-05 -1.35678e-05)
(0.00242471 -1.61135e-05 -3.98416e-06)
(0.00243591 -1.90865e-05 8.77914e-07)
(0.00244411 -1.73523e-05 -1.36216e-05)
(0.00248236 -1.44804e-05 -3.59496e-06)
(0.0024142 -1.18893e-05 -1.29469e-05)
)
;

boundaryField
{
    inlet
    {
        type            zeroGradient;
    }
    outlet
    {
        type            zeroGradient;
    }
    wall
    {
        type            zeroGradient;
    }
    procBoundary1to0
    {
        type            processor;
        value           nonuniform List<vector> 
12
(
(0.0024238 -4.87611e-06 -2.99319e-05)
(0.00248081 -1.0573e-05 -3.07549e-05)
(0.00248517 -7.98633e-06 -3.19877e-05)
(0.00246691 -1.25742e-05 -3.03603e-05)
(0.00250656 -1.64485e-05 -2.99459e-05)
(0.00248054 -1.04081e-05 -2.9137e-05)
(0.0024364 -1.82417e-05 -2.74526e-05)
(0.00246836 -1.965e-05 -2.73508e-05)
(0.00243859 -1.33969e-05 -2.48565e-05)
(0.00242652 -2.25694e-05 -2.39306e-05)
(0.00244951 -2.19938e-05 -2.42416e-05)
(0.00243064 -1.52749e-05 -2.12702e-05)
)
;
    }
    procBoundary1to3
    {
        type            processor;
        value           nonuniform List<vector> 
27
(
(0.00248289 2.19485e-06 -1.47686e-05)
(0.00246025 3.60605e-06 -2.26046e-06)
(0.00244824 3.24892e-06 1.40245e-06)
(0.00242792 1.18176e-06 -2.61378e-06)
(0.00240164 -6.58255e-07 -1.47651e-05)
(0.00238449 -1.97525e-06 -3.44591e-05)
(0.0023482 -1.51448e-06 -6.33687e-05)
(0.00231108 -3.47585e-07 -9.91264e-05)
(0.00225361 1.70289e-06 -0.000127633)
(0.00247746 8.43979e-07 -1.3328e-05)
(0.00249116 1.94889e-06 -1.20305e-06)
(0.00247355 2.33641e-06 2.82632e-07)
(0.00247959 4.73495e-07 -3.84444e-06)
(0.00244197 -1.422e-06 -1.74867e-05)
(0.00243974 -2.71367e-06 -3.68805e-05)
(0.00239554 -2.33666e-06 -6.57992e-05)
(0.00238039 5.04834e-07 -0.000101736)
(0.00230271 5.30372e-06 -0.000140947)
(0.00243481 -1.24575e-06 -1.246e-05)
(0.00246791 6.15392e-07 -4.7708e-06)
(0.00244438 -2.23497e-07 -5.39391e-06)
(0.0024648 -2.29299e-06 -1.09017e-05)
(0.00243172 -4.41771e-06 -2.31949e-05)
(0.00244628 -5.70888e-06 -4.11489e-05)
(0.00240025 -6.17399e-06 -6.52725e-05)
(0.00237319 -4.9447e-06 -9.33371e-05)
(0.00229505 -3.72794e-06 -0.00011727)
)
;
    }
    procBoundary1to5
    {
        type            processor;
        value           nonuniform List<vector> 
32
(
(0.00246846 -2.59132e-05 3.36931e-06)
(0.00244354 -3.65527e-05 -4.78911e-07)
(0.00246904 -5.02327e-05 -5.39614e-06)
(0.00242405 -7.33075e-05 -2.09978e-05)
(0.00243261 -9.73558e-05 -3.61967e-05)
(0.00231652 -0.000134407 -6.19251e-05)
(0.00244883 -1.68032e-05 -2.8089e-06)
(0.00247002 -2.23052e-05 -3.2566e-06)
(0.00244519 -3.18972e-05 -9.79964e-06)
(0.00247232 -4.36739e-05 -1.80538e-05)
(0.00242912 -6.47044e-05 -3.45054e-05)
(0.00242234 -8.67636e-05 -5.14738e-05)
(0.002318 -0.000117792 -6.98386e-05)
(0.00245245 -1.03037e-05 -6.98751e-06)
(0.00242056 -1.18836e-05 -8.27392e-06)
(0.00244797 -1.54133e-05 -1.32879e-05)
(0.00241853 -2.17057e-05 -2.13611e-05)
(0.00241865 -2.86431e-05 -3.30048e-05)
(0.00237649 -3.9784e-05 -4.89058e-05)
(0.00234731 -5.15119e-05 -6.60151e-05)
(0.00227389 -6.73816e-05 -8.07451e-05)
(0.0023979 -2.23035e-05 -1.11484e-05)
(0.00240903 -2.05728e-05 -5.79041e-06)
(0.00246846 -2.59132e-05 3.36931e-06)
(0.00244883 -1.68032e-05 -2.8089e-06)
(0.00241484 -2.28863e-05 -2.26114e-06)
(0.00242016 -2.03842e-05 -1.04494e-05)
(0.00244883 -1.68032e-05 -2.8089e-06)
(0.00245245 -1.03037e-05 -6.98751e-06)
(0.00243669 -1.81916e-05 -6.77839e-06)
(0.00245245 -1.03037e-05 -6.98751e-06)
(0.00239584 -1.43945e-05 -1.02454e-05)
)
;
    }
    procBoundary1to7
    {
        type            processor;
        value           uniform (0.00241015 -4.30736e-06 -1.24359e-05);
    }
}


// ************************************************************************* //
