/*--------------------------------*- C++ -*----------------------------------*\
| =========                 |                                                 |
| \\      /  F ield         | OpenFOAM: The Open Source CFD Toolbox           |
|  \\    /   O peration     | Version:  4.x                                   |
|   \\  /    A nd           | Web:      www.OpenFOAM.org                      |
|    \\/     M anipulation  |                                                 |
\*---------------------------------------------------------------------------*/
FoamFile
{
    version     2.0;
    format      ascii;
    class       volScalarField;
    location    "14";
    object      particleRelTemp;
}
// * * * * * * * * * * * * * * * * * * * * * * * * * * * * * * * * * * * * * //

dimensions      [0 0 0 0 0 0 0];

internalField   nonuniform List<scalar> 
87
(
7.87783e-07
4.0969e-08
-2.03756e-07
-3.74629e-07
-3.08116e-07
-2.30112e-07
-1.95297e-07
-1.81137e-07
-1.5228e-07
3.24999e-09
6.72941e-08
-1.51796e-07
-3.12281e-07
-2.64591e-07
-2.23465e-07
-1.73245e-07
-1.6365e-07
-1.331e-07
3.01899e-08
-1.04372e-07
-1.41568e-07
-2.58305e-07
-2.12621e-07
-2.00041e-07
-1.4013e-07
-1.41319e-07
-9.90774e-08
1.77929e-06
7.23456e-07
7.15979e-08
-3.0297e-07
-2.61157e-07
-2.34913e-07
-1.90055e-07
-1.76571e-07
-1.47512e-07
1.46833e-06
1.08491e-06
3.91399e-07
-2.38353e-07
-2.34189e-07
-2.07236e-07
-1.73889e-07
-1.54178e-07
-1.10556e-07
9.64472e-07
5.65063e-07
6.71924e-08
-2.1305e-07
-1.77841e-07
-1.80477e-07
-1.46975e-07
-1.31877e-07
-8.85912e-08
1.30987e-06
1.34661e-06
2.79607e-07
-2.41542e-07
-2.36845e-07
-2.17888e-07
-1.91124e-07
-1.77418e-07
-1.27259e-07
4.51059e-06
2.60249e-06
7.70425e-07
-1.41137e-07
-2.08588e-07
-2.05148e-07
-1.63417e-07
-1.45737e-07
-1.09933e-07
2.26484e-06
1.4797e-06
5.95695e-07
-1.30642e-07
-1.80718e-07
-1.73406e-07
-1.35292e-07
-1.27573e-07
-9.45014e-08
1.72579e-06
4.23993e-07
9.50136e-08
2.16582e-06
1.28466e-06
2.15455e-06
)
;

boundaryField
{
    inlet
    {
        type            calculated;
        value           nonuniform 0();
    }
    outlet
    {
        type            calculated;
        value           nonuniform List<scalar> 9(-1.5228e-07 -1.331e-07 -9.90774e-08 -1.47512e-07 -1.10556e-07 -8.85912e-08 -1.27259e-07 -1.09933e-07 -9.45014e-08);
    }
    wall
    {
        type            calculated;
        value           nonuniform List<scalar> 
57
(
7.87783e-07
3.24999e-09
3.01899e-08
4.0969e-08
6.72941e-08
-1.04372e-07
-2.03756e-07
-1.51796e-07
-1.41568e-07
-3.74629e-07
-3.12281e-07
-2.58305e-07
-3.08116e-07
-2.64591e-07
-2.12621e-07
-2.30112e-07
-2.23465e-07
-2.00041e-07
-1.95297e-07
-1.73245e-07
-1.4013e-07
-1.81137e-07
-1.6365e-07
-1.41319e-07
-1.5228e-07
-1.331e-07
-9.90774e-08
7.87783e-07
1.77929e-06
1.30987e-06
1.72579e-06
4.0969e-08
7.23456e-07
1.34661e-06
4.23993e-07
-2.03756e-07
7.15979e-08
2.79607e-07
9.50136e-08
-3.74629e-07
-3.0297e-07
-2.41542e-07
-3.08116e-07
-2.61157e-07
-2.36845e-07
-2.30112e-07
-2.34913e-07
-2.17888e-07
-1.95297e-07
-1.90055e-07
-1.91124e-07
-1.81137e-07
-1.76571e-07
-1.77418e-07
-1.5228e-07
-1.47512e-07
-1.27259e-07
)
;
    }
    procBoundary1to0
    {
        type            processor;
        value           nonuniform List<scalar> 
12
(
1.39376e-06
1.50712e-06
8.50776e-07
3.40462e-06
4.4536e-06
2.66534e-06
5.34222e-06
7.89947e-06
4.86168e-06
3.16487e-06
5.56107e-06
2.91817e-06
)
;
    }
    procBoundary1to3
    {
        type            processor;
        value           nonuniform List<scalar> 
27
(
-5.84002e-09
-1.01872e-07
-2.1172e-07
-2.43022e-07
-2.16869e-07
-1.88132e-07
-1.54138e-07
-1.38981e-07
-1.10592e-07
9.53687e-08
-3.00833e-08
-1.19445e-07
-2.16016e-07
-1.97109e-07
-1.80648e-07
-1.42167e-07
-1.34358e-07
-1.0548e-07
2.49355e-07
1.92037e-07
3.98794e-08
-1.76097e-07
-1.78937e-07
-1.6293e-07
-1.29735e-07
-1.1911e-07
-9.57092e-08
)
;
    }
    procBoundary1to5
    {
        type            processor;
        value           nonuniform List<scalar> 
32
(
-2.65064e-07
-2.4485e-07
-2.32571e-07
-1.76845e-07
-1.72257e-07
-1.34258e-07
1.37299e-07
-2.27736e-07
-2.25113e-07
-2.11637e-07
-1.70764e-07
-1.53676e-07
-1.1758e-07
1.0511e-06
1.07567e-07
-2.1138e-07
-2.11395e-07
-1.87186e-07
-1.47621e-07
-1.33303e-07
-9.58046e-08
3.1834e-07
1.80849e-08
-2.65064e-07
1.37299e-07
-1.34824e-07
4.69582e-07
1.37299e-07
1.0511e-06
1.15138e-07
1.0511e-06
2.36589e-07
)
;
    }
    procBoundary1to7
    {
        type            processor;
        value           uniform 3.82696e-07;
    }
}


// ************************************************************************* //
