/*--------------------------------*- C++ -*----------------------------------*\
| =========                 |                                                 |
| \\      /  F ield         | OpenFOAM: The Open Source CFD Toolbox           |
|  \\    /   O peration     | Version:  4.x                                   |
|   \\  /    A nd           | Web:      www.OpenFOAM.org                      |
|    \\/     M anipulation  |                                                 |
\*---------------------------------------------------------------------------*/
FoamFile
{
    version     2.0;
    format      ascii;
    class       volScalarField;
    location    "14";
    object      partTemp;
}
// * * * * * * * * * * * * * * * * * * * * * * * * * * * * * * * * * * * * * //

dimensions      [0 0 0 1 0 0 0];

internalField   nonuniform List<scalar> 
87
(
299.999
300
300
300
300
300
300
300
300
300
300
300
300
300
300
300
300
300
300
300
300
300
300
300
300
300
300
299.997
299.999
300
300
300
300
300
300
300
299.998
299.998
299.999
300
300
300
300
300
300
299.998
299.999
300
300
300
300
300
300
300
299.998
299.998
299.999
300
300
300
300
300
300
299.994
299.996
299.999
300
300
300
300
300
300
299.997
299.998
299.999
300
300
300
300
300
300
299.997
299.999
300
299.997
299.998
299.997
)
;

boundaryField
{
    inlet
    {
        type            zeroGradient;
    }
    outlet
    {
        type            zeroGradient;
    }
    wall
    {
        type            zeroGradient;
    }
    procBoundary1to0
    {
        type            processor;
        value           nonuniform List<scalar> 
12
(
299.998
299.998
299.999
299.995
299.994
299.996
299.993
299.989
299.993
299.995
299.992
299.996
)
;
    }
    procBoundary1to3
    {
        type            processor;
        value           nonuniform List<scalar> 
27
(
300
300
300
300
300
300
300
300
300
300
300
300
300
300
300
300
300
300
299.999
299.999
300
300
300
300
300
300
300
)
;
    }
    procBoundary1to5
    {
        type            processor;
        value           nonuniform List<scalar> 
32
(
300
300
300
300
300
300
300
300
300
300
300
300
300
299.998
300
300
300
300
300
300
300
299.999
300
300
300
300
299.999
300
299.998
300
299.998
299.999
)
;
    }
    procBoundary1to7
    {
        type            processor;
        value           uniform 299.999;
    }
}


// ************************************************************************* //
