/*--------------------------------*- C++ -*----------------------------------*\
| =========                 |                                                 |
| \\      /  F ield         | OpenFOAM: The Open Source CFD Toolbox           |
|  \\    /   O peration     | Version:  4.x                                   |
|   \\  /    A nd           | Web:      www.OpenFOAM.org                      |
|    \\/     M anipulation  |                                                 |
\*---------------------------------------------------------------------------*/
FoamFile
{
    version     2.0;
    format      ascii;
    class       volScalarField;
    location    "14";
    object      QWallFluid;
}
// * * * * * * * * * * * * * * * * * * * * * * * * * * * * * * * * * * * * * //

dimensions      [1 -1 -3 0 0 0 0];

internalField   nonuniform List<scalar> 
87
(
1.76405e+09
2.27713e+09
1.68378e+09
2.31095e+09
1.69893e+09
2.34771e+09
1.49587e+09
2.40268e+09
1.41508e+09
7.86713e+08
1.05271e+09
7.42782e+08
1.01701e+09
6.42537e+08
9.60926e+08
5.05073e+08
8.67747e+08
5.21988e+08
6.80057e+08
9.60963e+08
5.38415e+08
9.09048e+08
3.7802e+08
8.44051e+08
2.19198e+08
7.36112e+08
2.24723e+08
6.52971e+08
9.80204e+08
6.23216e+08
1.01897e+09
6.43381e+08
1.11061e+09
5.96335e+08
1.32138e+09
7.54856e+08
0
0
0
0
0
0
0
0
0
0
0
0
0
0
0
0
0
0
5.27779e+08
8.78779e+08
5.36695e+08
9.12031e+08
5.43162e+08
1.00331e+09
5.17967e+08
1.246e+09
5.08754e+08
0
0
0
0
0
0
0
0
0
0
0
0
0
0
0
0
0
0
5.31625e+08
9.06967e+08
5.11086e+08
0
0
0
)
;

boundaryField
{
    inlet
    {
        type            calculated;
        value           nonuniform 0();
    }
    outlet
    {
        type            calculated;
        value           uniform 0;
    }
    wall
    {
        type            calculated;
        value           uniform 0;
    }
    procBoundary1to0
    {
        type            processor;
        value           nonuniform List<scalar> 
12
(
2.19921e+09
1.05381e+09
9.65409e+08
9.24815e+08
0
0
8.54895e+08
0
0
8.55515e+08
0
0
)
;
    }
    procBoundary1to3
    {
        type            processor;
        value           nonuniform List<scalar> 
27
(
6.92769e+08
9.69515e+08
5.98456e+08
9.40957e+08
4.97084e+08
9.51364e+08
4.46691e+08
1.08273e+09
5.63917e+08
0
0
0
0
0
0
0
0
0
0
0
0
0
0
0
0
0
0
)
;
    }
    procBoundary1to5
    {
        type            processor;
        value           nonuniform List<scalar> 
32
(
9.38504e+08
5.1129e+08
1.03125e+09
4.88733e+08
1.24501e+09
6.03587e+08
0
0
0
0
0
0
0
0
0
0
0
0
0
0
0
5.01694e+08
8.41219e+08
9.38504e+08
0
4.46386e+08
0
0
0
0
0
0
)
;
    }
    procBoundary1to7
    {
        type            processor;
        value           uniform 0;
    }
}


// ************************************************************************* //
