/*--------------------------------*- C++ -*----------------------------------*\
| =========                 |                                                 |
| \\      /  F ield         | OpenFOAM: The Open Source CFD Toolbox           |
|  \\    /   O peration     | Version:  4.x                                   |
|   \\  /    A nd           | Web:      www.OpenFOAM.org                      |
|    \\/     M anipulation  |                                                 |
\*---------------------------------------------------------------------------*/
FoamFile
{
    version     2.0;
    format      ascii;
    class       volScalarField;
    location    "14";
    object      SPartFluid;
}
// * * * * * * * * * * * * * * * * * * * * * * * * * * * * * * * * * * * * * //

dimensions      [1 -3 -1 0 0 0 0];

internalField   nonuniform List<scalar> 
87
(
3.71728e-65
5.88849e-65
3.79735e-65
5.115e-65
3.95253e-65
4.18481e-65
4.41725e-65
5.03726e-65
4.80482e-65
3.63951e-65
3.25411e-65
4.64959e-65
4.18488e-65
3.40983e-65
5.03722e-65
6.5871e-65
4.57221e-65
3.95227e-65
3.486e-65
5.50099e-65
5.81179e-65
7.1295e-65
5.50219e-65
4.33975e-65
4.95958e-65
4.57217e-65
4.49468e-65
6.64994e-65
5.65353e-65
5.34643e-65
6.19976e-65
5.81225e-65
6.58714e-65
8.36951e-65
7.28456e-65
6.35463e-65
7.38851e-65
5.03088e-65
6.43086e-65
6.97434e-65
7.28461e-65
5.65708e-65
7.51692e-65
7.59438e-65
5.50204e-65
8.12297e-65
6.58298e-65
6.19866e-65
5.26946e-65
5.26958e-65
7.36187e-65
8.05927e-65
1.03066e-64
4.88207e-65
7.02668e-65
5.72882e-65
7.67084e-65
7.90443e-65
5.81218e-65
8.44697e-65
7.05216e-65
5.73462e-65
4.18471e-65
7.40213e-65
7.01544e-65
5.65453e-65
6.12172e-65
6.97452e-65
6.97444e-65
6.58697e-65
7.20687e-65
4.41712e-65
7.86861e-65
6.34679e-65
5.11269e-65
9.06593e-65
8.29193e-65
8.75666e-65
6.81935e-65
7.90426e-65
3.48719e-65
6.57208e-65
5.2672e-65
8.05786e-65
7.01346e-65
9.97986e-65
5.72046e-65
)
;

boundaryField
{
    inlet
    {
        type            calculated;
        value           nonuniform 0();
    }
    outlet
    {
        type            calculated;
        value           uniform 0;
    }
    wall
    {
        type            calculated;
        value           uniform 0;
    }
    procBoundary1to0
    {
        type            processor;
        value           nonuniform List<scalar> 
12
(
1.70479e-65
4.26028e-65
6.89632e-65
6.19529e-65
6.7355e-65
4.95652e-65
4.71957e-65
6.24903e-65
4.56015e-65
4.9564e-65
5.49055e-65
8.0492e-65
)
;
    }
    procBoundary1to3
    {
        type            processor;
        value           nonuniform List<scalar> 
27
(
6.97362e-65
3.25441e-65
5.81195e-65
2.55739e-65
4.10728e-65
3.02234e-65
4.72715e-65
3.87473e-65
4.57217e-65
7.51397e-65
6.27563e-65
8.98867e-65
8.5242e-65
7.59447e-65
6.277e-65
6.04445e-65
6.43193e-65
9.0667e-65
7.66705e-65
8.98551e-65
8.83306e-65
8.52394e-65
6.12208e-65
6.27691e-65
8.52417e-65
7.12932e-65
7.43931e-65
)
;
    }
    procBoundary1to5
    {
        type            processor;
        value           nonuniform List<scalar> 
32
(
6.81938e-65
8.05978e-65
6.35462e-65
6.74208e-65
7.59456e-65
8.44701e-65
6.81827e-65
5.65693e-65
5.81215e-65
6.66451e-65
8.21438e-65
8.52434e-65
7.9044e-65
8.43661e-65
6.04297e-65
7.43914e-65
5.81214e-65
4.57214e-65
6.97444e-65
5.73454e-65
8.67925e-65
6.35144e-65
4.80393e-65
6.81938e-65
6.81827e-65
6.97408e-65
7.04679e-65
6.81827e-65
8.43661e-65
6.81701e-65
8.43661e-65
8.21145e-65
)
;
    }
    procBoundary1to7
    {
        type            processor;
        value           uniform 9.91463e-65;
    }
}


// ************************************************************************* //
