/*--------------------------------*- C++ -*----------------------------------*\
| =========                 |                                                 |
| \\      /  F ield         | OpenFOAM: The Open Source CFD Toolbox           |
|  \\    /   O peration     | Version:  4.x                                   |
|   \\  /    A nd           | Web:      www.OpenFOAM.org                      |
|    \\/     M anipulation  |                                                 |
\*---------------------------------------------------------------------------*/
FoamFile
{
    version     2.0;
    format      ascii;
    class       volScalarField;
    location    "14";
    object      thCond;
}
// * * * * * * * * * * * * * * * * * * * * * * * * * * * * * * * * * * * * * //

dimensions      [1 1 -3 -1 0 0 0];

internalField   nonuniform List<scalar> 
87
(
192.916
192.503
192.492
192.228
192.224
191.999
191.769
191.772
191.939
192.707
192.566
192.277
192.143
192.129
191.839
191.529
191.745
192.005
192.336
192.086
191.85
191.704
191.812
191.819
191.614
191.669
191.84
191.896
191.853
191.71
191.451
191.356
191.077
190.789
190.964
191.279
191.627
191.721
191.5
191.29
191.159
191.065
190.772
190.85
191.301
191.306
191.321
191.221
191.154
191.105
190.864
190.651
190.546
191.139
191.167
191.113
190.771
190.589
190.599
190.272
190.312
190.56
190.917
190.891
190.828
190.83
190.636
190.459
190.309
190.262
190.335
190.812
190.672
190.638
190.647
190.244
190.198
190.08
190.116
190.149
190.675
190.713
190.624
190.224
190.439
190.084
190.333
)
;

boundaryField
{
    inlet
    {
        type            zeroGradient;
    }
    outlet
    {
        type            zeroGradient;
    }
    wall
    {
        type            zeroGradient;
    }
    procBoundary1to0
    {
        type            processor;
        value           nonuniform List<scalar> 
12
(
193.296
192.771
192.301
192.116
191.813
191.695
191.535
191.195
191.135
191.02
190.754
190.526
)
;
    }
    procBoundary1to3
    {
        type            processor;
        value           nonuniform List<scalar> 
27
(
191.869
191.963
191.71
191.962
191.898
191.967
191.685
191.693
191.626
191.077
191.071
190.752
190.786
190.883
190.93
190.787
190.717
190.589
190.423
190.24
190.146
190.134
190.244
190.137
189.936
190.045
190.11
)
;
    }
    procBoundary1to5
    {
        type            processor;
        value           nonuniform List<scalar> 
32
(
190.19
189.997
189.992
189.913
189.879
189.896
190.196
190.214
190.085
189.927
189.737
189.696
189.829
190.052
190.139
189.933
189.935
189.931
189.734
189.819
189.7
190.343
190.384
190.19
190.196
190.064
190.138
190.196
190.052
190.052
190.052
189.974
)
;
    }
    procBoundary1to7
    {
        type            processor;
        value           uniform 189.947;
    }
}


// ************************************************************************* //
