/*--------------------------------*- C++ -*----------------------------------*\
| =========                 |                                                 |
| \\      /  F ield         | OpenFOAM: The Open Source CFD Toolbox           |
|  \\    /   O peration     | Version:  4.x                                   |
|   \\  /    A nd           | Web:      www.OpenFOAM.org                      |
|    \\/     M anipulation  |                                                 |
\*---------------------------------------------------------------------------*/
FoamFile
{
    version     2.0;
    format      ascii;
    class       volVectorField;
    location    "14";
    object      Us;
}
// * * * * * * * * * * * * * * * * * * * * * * * * * * * * * * * * * * * * * //

dimensions      [0 1 -1 0 0 0 0];

internalField   nonuniform List<vector> 
87
(
(-0.000177787 -3.84525e-06 -8.4841e-06)
(-2.90777e-05 -3.03499e-05 -2.60325e-05)
(5.53445e-06 -2.6352e-05 -2.56789e-05)
(6.53231e-06 -5.15065e-07 -1.47877e-05)
(-1.09159e-05 6.1779e-06 1.77576e-06)
(-1.08794e-05 1.90288e-06 1.11752e-06)
(-2.55194e-06 1.10756e-06 7.83789e-07)
(1.53224e-06 6.97018e-07 9.19275e-07)
(1.72699e-06 3.92145e-08 -2.87576e-07)
(-0.000220658 -2.13885e-06 -7.58018e-06)
(-6.9012e-05 1.31896e-05 -6.2655e-06)
(-3.68825e-05 1.21046e-07 -1.29715e-05)
(-2.09888e-05 1.12661e-05 -1.13389e-05)
(-2.51781e-05 5.24616e-06 1.15018e-06)
(-1.36398e-05 2.93614e-06 3.20074e-06)
(-6.21758e-06 1.92299e-06 2.36487e-06)
(1.37662e-06 4.43744e-07 6.58568e-07)
(2.11387e-06 8.54793e-08 -1.27058e-06)
(-7.48121e-05 1.91148e-05 -4.94982e-06)
(-2.84088e-05 5.62278e-05 -1.20661e-05)
(-4.86832e-06 2.02051e-05 -2.63376e-05)
(-2.03901e-05 1.4462e-05 -1.26685e-05)
(-2.11439e-05 5.89535e-06 3.87875e-06)
(-1.71585e-05 2.68783e-06 3.66133e-06)
(-9.75005e-06 2.36737e-06 1.60914e-06)
(4.85013e-07 1.4022e-06 7.34052e-07)
(8.09555e-07 4.5038e-07 -3.19292e-07)
(-0.000137115 4.0953e-05 5.97021e-06)
(-4.96825e-05 1.68831e-06 -6.05017e-06)
(-5.70435e-06 -1.15372e-05 -1.16733e-05)
(1.30513e-06 -2.01068e-06 1.67249e-06)
(-1.12795e-05 -3.01021e-06 -1.95091e-06)
(-6.92377e-06 -6.03144e-07 -6.02333e-07)
(-3.80908e-06 1.8449e-06 1.56458e-06)
(1.07159e-06 6.56272e-07 4.28145e-07)
(1.17286e-06 -5.74684e-07 3.6763e-07)
(-0.000199194 1.33711e-05 7.41821e-07)
(-0.00011009 -4.93183e-06 1.08272e-06)
(-3.71796e-05 1.46237e-06 6.64326e-06)
(-1.33733e-05 3.18778e-06 -1.34853e-06)
(-1.33852e-05 3.41959e-08 -5.58027e-06)
(-1.36542e-05 2.79391e-07 6.90983e-07)
(-7.04132e-06 2.60638e-06 2.28892e-06)
(1.14734e-06 4.0905e-07 7.73297e-07)
(1.9378e-06 -4.62537e-07 -5.85527e-07)
(-0.000142765 3.42709e-07 2.79892e-06)
(-8.44628e-05 2.05067e-05 1.20954e-05)
(-2.81309e-05 2.64328e-05 -8.75756e-07)
(-9.89505e-06 1.37159e-05 -4.72949e-06)
(-1.62293e-05 6.4298e-06 -4.21423e-07)
(-1.74e-05 3.03149e-06 6.64498e-07)
(-1.02796e-05 2.68233e-06 1.34069e-06)
(-3.04254e-06 1.62338e-06 9.56611e-07)
(4.40341e-07 3.75469e-07 2.37864e-07)
(-0.00010482 3.8074e-05 -3.12415e-06)
(-4.88293e-05 2.3138e-05 1.68455e-05)
(-1.49992e-06 4.1187e-06 4.36897e-06)
(1.2387e-05 -6.1057e-06 4.99601e-06)
(-4.52316e-06 -6.95833e-06 9.51789e-07)
(-1.27358e-05 1.09539e-07 2.65013e-06)
(-5.44931e-06 4.48956e-07 8.59157e-07)
(-1.20024e-06 5.94308e-07 1.22906e-06)
(2.48946e-08 -5.45268e-07 1.04433e-06)
(-0.000222518 9.52899e-06 6.96758e-06)
(-0.000116606 1.18215e-05 2.00811e-06)
(-2.30415e-05 5.96067e-06 2.09847e-05)
(2.04649e-05 -2.69356e-06 1.13757e-05)
(9.1613e-06 -2.49029e-06 -5.22423e-07)
(-1.72771e-05 1.90879e-06 1.91921e-06)
(-6.82526e-06 1.32789e-06 1.80236e-06)
(-7.69435e-07 4.22255e-07 4.41613e-07)
(5.1992e-07 4.79848e-07 8.34735e-07)
(-0.000161347 -2.32655e-05 6.98198e-06)
(-0.000109857 1.19665e-05 1.2284e-05)
(-4.19901e-05 9.58282e-06 1.55444e-05)
(1.57056e-05 8.70492e-06 5.30781e-06)
(1.81769e-06 1.65408e-05 -1.01904e-06)
(-1.15038e-05 2.94356e-06 -1.73609e-06)
(-6.33889e-06 1.09179e-07 2.97305e-07)
(-9.78598e-07 4.33498e-08 3.5456e-07)
(1.19461e-06 6.05613e-07 -4.51481e-08)
(-0.000134639 2.07679e-05 2.90565e-06)
(-5.44857e-06 2.12017e-05 1.76479e-05)
(-1.3876e-05 8.09874e-06 1.49131e-05)
(-0.000148514 3.28668e-05 4.9373e-06)
(-0.000102866 3.08836e-05 1.56958e-05)
(-0.000125035 -1.54884e-05 1.00374e-09)
)
;

boundaryField
{
    inlet
    {
        type            zeroGradient;
    }
    outlet
    {
        type            zeroGradient;
    }
    wall
    {
        type            zeroGradient;
    }
    procBoundary1to0
    {
        type            processor;
        value           nonuniform List<vector> 
12
(
(-0.000118302 5.69644e-06 2.84869e-05)
(-0.000183839 1.33039e-05 -5.5446e-06)
(-0.000126132 -2.9073e-05 8.54155e-06)
(-0.000134128 -4.64581e-05 1.00391e-06)
(-0.000176133 1.22788e-05 -1.05631e-05)
(-0.000156758 -2.41385e-05 4.08704e-06)
(-0.000156228 -5.84278e-05 -3.69975e-05)
(-0.000155323 -1.24718e-05 -5.30064e-06)
(-0.000161838 -7.86982e-06 -3.20582e-06)
(-0.000137941 -4.94031e-05 -1.29872e-05)
(-0.000140835 -3.27597e-05 1.55348e-05)
(-0.000116926 -2.02731e-05 1.30112e-05)
)
;
    }
    procBoundary1to3
    {
        type            processor;
        value           nonuniform List<vector> 
27
(
(-9.37869e-05 1.48926e-05 -3.2303e-06)
(-6.34282e-05 4.82749e-05 -5.13987e-06)
(-2.29407e-05 2.20857e-05 -1.53947e-05)
(-1.77006e-05 1.58242e-05 -9.93646e-06)
(-2.75587e-05 2.28833e-06 9.79409e-07)
(-2.21409e-05 9.95727e-07 1.51434e-06)
(-1.38758e-05 3.33965e-06 1.58083e-06)
(-1.74227e-06 -1.7357e-07 -6.01149e-07)
(-7.11481e-07 6.08685e-07 1.80098e-07)
(-0.000105313 1.7668e-05 -1.21518e-05)
(-7.89315e-05 2.44721e-05 5.68767e-06)
(-2.94637e-05 2.747e-05 -1.45243e-05)
(-1.71012e-05 1.17952e-05 -6.24224e-06)
(-2.03356e-05 6.08707e-06 -2.18606e-07)
(-2.11339e-05 3.34788e-06 1.71386e-06)
(-1.3896e-05 1.91744e-06 1.57579e-06)
(-3.7912e-06 5.44751e-07 -8.56416e-07)
(-5.46985e-07 4.83737e-07 -5.17437e-08)
(-9.02134e-05 1.49074e-05 4.43549e-06)
(-7.73172e-05 8.61491e-06 1.70231e-05)
(-3.61032e-05 2.60924e-05 -3.12742e-06)
(-1.42834e-05 1.89246e-05 -5.3872e-06)
(-1.55194e-05 1.14207e-05 3.27585e-06)
(-1.79891e-05 1.95889e-06 5.65906e-07)
(-1.19694e-05 3.99677e-07 -4.00401e-09)
(-1.53613e-06 7.05824e-07 -5.07961e-07)
(9.5834e-08 1.18334e-06 7.53348e-08)
)
;
    }
    procBoundary1to5
    {
        type            processor;
        value           nonuniform List<vector> 
32
(
(1.57733e-06 -1.10475e-06 1.02496e-05)
(-2.88546e-06 -3.64164e-06 6.50386e-06)
(-9.89353e-06 1.33837e-06 2.4643e-06)
(-5.11657e-06 -5.27508e-07 5.18913e-07)
(-2.66623e-06 7.58593e-07 1.04519e-06)
(-9.14672e-07 6.01325e-07 9.12357e-07)
(-2.41455e-05 1.08807e-05 2.57183e-05)
(1.29726e-05 -6.18058e-07 1.10342e-05)
(4.75143e-06 -8.07299e-07 1.16518e-05)
(-7.72382e-06 -1.63441e-06 2.84242e-06)
(-7.37522e-06 -2.73575e-06 1.09096e-06)
(-3.18873e-06 1.33212e-06 1.77135e-06)
(-8.21855e-07 1.34632e-07 1.46499e-06)
(-9.87298e-05 1.6509e-05 8.55479e-06)
(-2.25532e-05 1.69369e-05 2.3259e-05)
(2.8887e-06 8.64274e-06 1.1957e-05)
(7.3765e-08 5.98272e-06 1.16835e-05)
(-9.46108e-06 -4.37873e-07 5.87749e-07)
(-8.52379e-06 -8.95715e-07 -1.00577e-06)
(-2.7851e-06 1.09467e-06 1.83787e-06)
(1.44643e-06 -3.5566e-07 6.6556e-07)
(-0.000105393 1.25445e-05 1.24217e-05)
(-5.41144e-05 1.56009e-05 2.50979e-05)
(1.57733e-06 -1.10475e-06 1.02496e-05)
(-2.41455e-05 1.08807e-05 2.57183e-05)
(-4.05577e-05 3.44425e-06 2.20345e-05)
(-0.000141961 1.21849e-05 -2.15639e-06)
(-2.41455e-05 1.08807e-05 2.57183e-05)
(-9.87298e-05 1.6509e-05 8.55479e-06)
(-7.1401e-05 1.58589e-05 2.75306e-05)
(-9.87298e-05 1.6509e-05 8.55479e-06)
(-0.000101857 5.43859e-06 3.63504e-06)
)
;
    }
    procBoundary1to7
    {
        type            processor;
        value           uniform (-9.17166e-05 4.15889e-06 4.99034e-06);
    }
}


// ************************************************************************* //
