/*--------------------------------*- C++ -*----------------------------------*\
| =========                 |                                                 |
| \\      /  F ield         | OpenFOAM: The Open Source CFD Toolbox           |
|  \\    /   O peration     | Version:  4.x                                   |
|   \\  /    A nd           | Web:      www.OpenFOAM.org                      |
|    \\/     M anipulation  |                                                 |
\*---------------------------------------------------------------------------*/
FoamFile
{
    version     2.0;
    format      ascii;
    class       volVectorField;
    location    "12.5";
    object      ddtUrel;
}
// * * * * * * * * * * * * * * * * * * * * * * * * * * * * * * * * * * * * * //

dimensions      [0 1 -2 0 0 0 0];

internalField   nonuniform List<vector> 
132
(
(1.24703e-06 1.55004e-07 -3.28394e-07)
(1.43531e-06 1.24697e-07 -3.91436e-07)
(1.76385e-06 4.30526e-08 -4.73181e-07)
(2.20831e-06 9.46361e-08 -5.11208e-07)
(2.67967e-06 1.69081e-07 -5.83565e-07)
(3.04684e-06 2.30478e-07 -6.72788e-07)
(3.35184e-06 2.5786e-07 -7.7677e-07)
(3.59941e-06 3.19686e-07 -8.18714e-07)
(3.72563e-06 4.01107e-07 -8.48485e-07)
(1.33757e-06 1.67781e-07 -3.28839e-07)
(1.6027e-06 1.06024e-07 -3.98204e-07)
(1.88639e-06 -6.28838e-08 -5.6313e-07)
(2.41274e-06 7.67326e-08 -5.41677e-07)
(2.86235e-06 2.16086e-07 -6.41824e-07)
(3.25968e-06 2.76532e-07 -7.60697e-07)
(3.70762e-06 2.85994e-07 -8.80308e-07)
(4.00074e-06 3.52975e-07 -9.20868e-07)
(4.10401e-06 4.2828e-07 -9.066e-07)
(1.54207e-06 1.66841e-07 -3.16538e-07)
(1.80372e-06 1.29385e-07 -3.70005e-07)
(2.22522e-06 7.966e-08 -4.74604e-07)
(2.68963e-06 1.59354e-07 -5.83263e-07)
(3.10707e-06 3.0602e-07 -7.18211e-07)
(3.50876e-06 3.54856e-07 -8.65594e-07)
(4.06373e-06 3.48758e-07 -9.60649e-07)
(4.44215e-06 3.88349e-07 -1.03359e-06)
(4.75732e-06 4.14107e-07 -1.04602e-06)
(1.52155e-06 1.30282e-07 -3.20778e-07)
(1.86937e-06 1.24569e-07 -3.57648e-07)
(2.34904e-06 1.26822e-07 -4.66155e-07)
(1.19301e-06 1.49369e-07 -3.31899e-07)
(1.40596e-06 1.43946e-07 -3.94722e-07)
(1.70241e-06 1.01961e-07 -4.52909e-07)
(2.09858e-06 1.40577e-07 -4.9367e-07)
(2.52348e-06 1.999e-07 -5.83818e-07)
(2.8689e-06 2.786e-07 -6.66773e-07)
(3.13375e-06 2.77723e-07 -7.35626e-07)
(3.34749e-06 3.42324e-07 -7.7947e-07)
(3.473e-06 4.05395e-07 -8.11228e-07)
(1.29908e-06 1.63719e-07 -3.42933e-07)
(1.50097e-06 1.31848e-07 -3.93875e-07)
(1.82974e-06 9.25061e-09 -5.33167e-07)
(2.30254e-06 1.49291e-07 -5.37163e-07)
(2.70388e-06 2.57443e-07 -6.53821e-07)
(3.05533e-06 3.22248e-07 -7.51092e-07)
(3.4099e-06 3.4287e-07 -8.11551e-07)
(3.59902e-06 3.83904e-07 -8.58428e-07)
(3.63204e-06 4.25405e-07 -8.7517e-07)
(1.42455e-06 1.58667e-07 -3.52671e-07)
(1.67684e-06 1.5579e-07 -3.90844e-07)
(2.08049e-06 1.31522e-07 -4.89994e-07)
(2.54579e-06 2.25624e-07 -5.87782e-07)
(2.90123e-06 3.57676e-07 -7.14349e-07)
(3.25472e-06 3.97716e-07 -8.27409e-07)
(3.65142e-06 3.9459e-07 -8.56462e-07)
(3.86664e-06 3.86033e-07 -9.61238e-07)
(3.97389e-06 4.76653e-07 -9.89929e-07)
(1.44419e-06 1.50905e-07 -3.4409e-07)
(1.74046e-06 1.5281e-07 -3.77291e-07)
(2.15082e-06 1.76669e-07 -4.84139e-07)
(2.66602e-06 2.56351e-07 -6.09512e-07)
(2.96695e-06 3.93691e-07 -7.56689e-07)
(1.10787e-06 1.72212e-07 -3.6229e-07)
(1.2805e-06 1.71779e-07 -4.1579e-07)
(1.58211e-06 1.80453e-07 -4.41935e-07)
(1.95616e-06 2.06917e-07 -4.95248e-07)
(2.31707e-06 2.48226e-07 -5.8153e-07)
(2.65728e-06 3.13587e-07 -6.37085e-07)
(2.86715e-06 3.26224e-07 -6.55935e-07)
(2.9352e-06 3.50482e-07 -6.87188e-07)
(3.0283e-06 3.83915e-07 -6.97042e-07)
(1.16291e-06 1.88683e-07 -3.77916e-07)
(1.38928e-06 1.90534e-07 -4.25747e-07)
(1.74523e-06 1.82166e-07 -4.80798e-07)
(2.16067e-06 2.42526e-07 -5.30948e-07)
(2.49653e-06 2.99668e-07 -6.54872e-07)
(2.78916e-06 3.43105e-07 -7.18561e-07)
(3.00876e-06 3.89925e-07 -7.42399e-07)
(3.09173e-06 4.0679e-07 -8.00448e-07)
(3.12624e-06 4.28531e-07 -7.67619e-07)
(1.27469e-06 1.89715e-07 -3.93185e-07)
(1.53571e-06 2.03826e-07 -4.39888e-07)
(1.92291e-06 2.18879e-07 -5.088e-07)
(2.33089e-06 2.9231e-07 -5.99449e-07)
(2.64789e-06 3.81393e-07 -7.22919e-07)
(2.95379e-06 3.96078e-07 -7.67775e-07)
(3.17341e-06 4.22033e-07 -7.83746e-07)
(3.23552e-06 4.44479e-07 -8.87788e-07)
(3.27014e-06 4.87741e-07 -9.00599e-07)
(1.32728e-06 1.85888e-07 -3.95581e-07)
(1.60264e-06 1.80625e-07 -4.382e-07)
(2.01198e-06 2.26663e-07 -5.12911e-07)
(2.42881e-06 3.12078e-07 -6.2726e-07)
(2.71094e-06 3.89493e-07 -7.57658e-07)
(3.02454e-06 3.85172e-07 -8.37504e-07)
(3.27809e-06 4.17258e-07 -8.83474e-07)
(1.05224e-06 2.09169e-07 -4.04105e-07)
(1.21815e-06 2.19459e-07 -4.45634e-07)
(1.47288e-06 2.31692e-07 -4.6126e-07)
(1.79189e-06 2.48076e-07 -5.06701e-07)
(2.04037e-06 2.79086e-07 -5.70914e-07)
(2.31422e-06 3.20843e-07 -5.97856e-07)
(2.47082e-06 3.37592e-07 -6.01974e-07)
(2.57423e-06 3.28904e-07 -6.02787e-07)
(2.6834e-06 3.6171e-07 -5.84508e-07)
(1.09065e-06 2.28296e-07 -4.24133e-07)
(1.30131e-06 2.34098e-07 -4.59364e-07)
(1.59506e-06 2.3525e-07 -4.91141e-07)
(1.94972e-06 2.5999e-07 -5.36985e-07)
(2.21056e-06 3.17779e-07 -6.26157e-07)
(2.43265e-06 3.70016e-07 -6.68466e-07)
(2.56092e-06 4.0125e-07 -6.95984e-07)
(2.61657e-06 3.89394e-07 -7.00257e-07)
(2.69429e-06 4.27795e-07 -6.43058e-07)
(1.18959e-06 2.37662e-07 -4.40882e-07)
(1.40541e-06 2.43316e-07 -4.82241e-07)
(1.73616e-06 2.53665e-07 -5.29646e-07)
(2.062e-06 2.88915e-07 -6.03557e-07)
(2.378e-06 3.62692e-07 -6.86939e-07)
(2.62885e-06 3.91501e-07 -7.39816e-07)
(2.72571e-06 4.35066e-07 -7.8008e-07)
(2.70066e-06 4.83993e-07 -7.98379e-07)
(2.6955e-06 5.54621e-07 -7.51731e-07)
(1.19538e-06 2.33207e-07 -4.50446e-07)
(1.45456e-06 2.30633e-07 -4.83242e-07)
(1.82709e-06 2.63756e-07 -5.44693e-07)
(2.17722e-06 3.01414e-07 -6.24155e-07)
(2.45847e-06 3.58114e-07 -7.20018e-07)
(2.70842e-06 3.57632e-07 -7.73076e-07)
(2.82209e-06 3.99663e-07 -8.12505e-07)
(2.78933e-06 5.13559e-07 -8.13648e-07)
(2.7252e-06 6.53247e-07 -8.38686e-07)
)
;

boundaryField
{
    inlet
    {
        type            calculated;
        value           nonuniform List<vector> 
16
(
(5.51594e-07 2.34247e-07 -1.25122e-07)
(5.12227e-07 4.071e-07 -9.04584e-08)
(1.70915e-06 3.57249e-07 4.40523e-08)
(4.35792e-08 2.16721e-07 -4.31338e-08)
(5.03476e-07 1.02384e-07 -2.60466e-08)
(4.27519e-07 2.03479e-07 -4.22848e-08)
(8.21996e-07 1.25805e-07 -1.84021e-07)
(5.78594e-07 1.97068e-07 4.30817e-09)
(2.81985e-07 8.03566e-08 -9.39832e-08)
(2.73595e-07 1.69833e-07 -1.39786e-07)
(3.83618e-07 1.13898e-07 -1.38853e-07)
(3.20083e-07 1.43464e-07 -2.79765e-08)
(2.21075e-07 1.30441e-07 -9.42517e-08)
(1.91531e-07 1.48282e-07 -1.24015e-07)
(6.6276e-07 1.04664e-07 -1.8688e-07)
(4.33127e-07 1.25524e-07 -1.58313e-07)
)
;
    }
    outlet
    {
        type            calculated;
        value           nonuniform 0();
    }
    wall
    {
        type            calculated;
        value           nonuniform List<vector> 
66
(
(5.396e-07 2.57368e-07 -1.19972e-07)
(4.70059e-07 4.27767e-07 -1.07953e-07)
(1.49838e-06 4.29543e-07 3.11435e-08)
(1.53337e-07 2.00871e-07 -4.33696e-08)
(5.7661e-07 3.55684e-07 -3.00027e-07)
(1.26133e-06 2.73997e-07 -1.74014e-07)
(2.11218e-06 2.27426e-07 -5.24415e-08)
(2.2073e-06 1.45058e-07 2.22026e-08)
(8.3893e-07 -2.10988e-07 -3.87303e-07)
(-9.80821e-07 -1.9941e-06 -1.80123e-06)
(3.32697e-06 -2.86581e-07 -1.36524e-07)
(3.37936e-06 1.01092e-07 -1.71296e-07)
(1.87369e-06 4.3995e-08 -3.09324e-07)
(3.17303e-06 -4.66298e-07 -1.79872e-07)
(3.65161e-06 -1.20113e-07 -5.54502e-07)
(2.78403e-06 9.58375e-09 -3.68837e-07)
(3.7785e-06 2.02013e-07 -4.93403e-07)
(4.74581e-06 6.10166e-07 -6.88025e-07)
(3.26459e-06 4.95605e-08 -3.86592e-07)
(4.31753e-06 2.02027e-07 -7.33976e-07)
(5.04881e-06 4.32532e-07 -1.04554e-06)
(3.18271e-06 -9.83798e-08 -7.58031e-07)
(6.5729e-06 -3.27741e-07 -1.36753e-06)
(7.55393e-06 7.76328e-08 -1.2356e-06)
(3.56927e-06 3.862e-09 -6.65865e-07)
(6.72443e-06 1.4322e-08 -1.23411e-06)
(8.8283e-06 1.88517e-07 -1.5308e-06)
(3.34996e-06 -3.86129e-07 -4.90944e-07)
(6.34074e-06 -1.32103e-07 -7.61093e-07)
(1.07992e-05 1.68546e-08 -7.44323e-07)
(6.30482e-07 2.32811e-07 -1.2277e-07)
(4.69531e-07 1.03618e-07 -4.87222e-08)
(2.59066e-07 8.24292e-08 -8.94113e-08)
(2.43e-07 1.23817e-07 -8.87496e-08)
(7.34322e-07 3.23467e-07 -2.94991e-07)
(1.04432e-06 2.5383e-07 -3.52822e-07)
(6.19661e-07 5.44103e-08 -3.83184e-07)
(4.34558e-07 1.13565e-07 -3.02037e-07)
(7.44003e-07 -2.32535e-07 -3.66499e-07)
(1.28709e-06 1.50514e-07 -1.92734e-07)
(8.39203e-07 1.1978e-07 -9.28243e-08)
(6.12716e-07 8.34651e-08 -1.52563e-07)
(1.86284e-06 -3.22244e-08 -3.33047e-07)
(1.55443e-06 -4.69811e-08 -1.8361e-07)
(1.30458e-06 7.69009e-08 -2.19115e-07)
(1.37966e-06 9.8065e-08 -3.17345e-07)
(3.44666e-06 -5.5373e-08 -3.61176e-07)
(2.27232e-06 -1.02065e-07 -4.05736e-07)
(1.70828e-06 -5.42527e-09 -4.52525e-07)
(1.56988e-06 8.51372e-08 -5.17763e-07)
(3.26385e-06 -7.78032e-09 -4.3184e-07)
(3.30142e-06 2.69195e-07 -5.03035e-07)
(3.37987e-06 3.25798e-07 -5.0568e-07)
(2.56154e-06 9.95435e-08 -4.41975e-07)
(3.51819e-06 -1.26731e-07 -7.58639e-07)
(2.24257e-06 -3.14571e-07 -6.0893e-07)
(3.54808e-06 1.78395e-07 -3.55564e-07)
(2.7573e-06 1.69352e-07 -3.12374e-07)
(3.9e-06 -5.36474e-08 -6.51872e-07)
(3.18939e-06 9.26471e-08 -6.66632e-07)
(2.09159e-06 6.96127e-08 -5.22496e-07)
(2.15655e-06 -8.70543e-08 -5.46451e-07)
(2.80284e-06 -4.10394e-07 -5.11376e-07)
(5.07774e-06 2.19731e-07 -5.83155e-07)
(3.3796e-06 7.68902e-08 -5.26866e-07)
(2.74561e-06 1.95467e-07 -4.18171e-07)
)
;
    }
    procBoundary0to1
    {
        type            processor;
        value           nonuniform List<vector> 
12
(
(3.68804e-06 5.81085e-07 -9.44317e-07)
(4.12276e-06 5.77586e-07 -9.82694e-07)
(4.63623e-06 6.00631e-07 -1.06836e-06)
(3.2392e-06 4.9136e-07 -7.76513e-07)
(3.46582e-06 5.25413e-07 -8.41462e-07)
(3.77023e-06 5.92872e-07 -9.40638e-07)
(2.83902e-06 4.32604e-07 -6.42871e-07)
(2.97414e-06 5.20858e-07 -7.15011e-07)
(2.99305e-06 6.14063e-07 -8.27326e-07)
(2.52435e-06 3.88749e-07 -4.85209e-07)
(2.60035e-06 5.15985e-07 -5.67487e-07)
(2.61387e-06 6.73237e-07 -6.83015e-07)
)
;
    }
    procBoundary0to2
    {
        type            processor;
        value           nonuniform List<vector> 
44
(
(2.82846e-06 2.03378e-07 -5.9305e-07)
(3.20509e-06 3.26927e-07 -7.74197e-07)
(3.61056e-06 3.84482e-07 -9.81847e-07)
(4.20632e-06 4.16761e-07 -1.1361e-06)
(4.63338e-06 4.44533e-07 -1.27379e-06)
(4.99199e-06 5.35022e-07 -1.3804e-06)
(1.47908e-06 4.61898e-08 -3.22202e-07)
(1.74781e-06 6.49455e-08 -3.64353e-07)
(2.82846e-06 2.03378e-07 -5.9305e-07)
(2.25694e-06 6.4737e-08 -4.91085e-07)
(2.82846e-06 2.03378e-07 -5.9305e-07)
(3.20509e-06 3.26927e-07 -7.74197e-07)
(3.31842e-06 4.08358e-07 -9.16848e-07)
(3.76342e-06 4.14976e-07 -9.95609e-07)
(3.96823e-06 4.53179e-07 -1.13902e-06)
(4.1242e-06 5.3594e-07 -1.18435e-06)
(1.36527e-06 1.06036e-07 -3.56844e-07)
(1.65363e-06 1.1136e-07 -3.89575e-07)
(2.12738e-06 1.37291e-07 -4.98961e-07)
(2.60279e-06 1.91118e-07 -6.21149e-07)
(3.31842e-06 4.08358e-07 -9.16848e-07)
(2.88194e-06 2.74865e-07 -7.92994e-07)
(3.31842e-06 4.08358e-07 -9.16848e-07)
(3.76342e-06 4.14976e-07 -9.95609e-07)
(3.36195e-06 4.78712e-07 -9.94343e-07)
(3.26863e-06 6.38257e-07 -9.77871e-07)
(1.30795e-06 1.55406e-07 -4.00817e-07)
(1.54987e-06 1.55211e-07 -4.44621e-07)
(1.98159e-06 1.8226e-07 -5.20901e-07)
(2.39042e-06 2.34704e-07 -6.28554e-07)
(2.64777e-06 2.8694e-07 -7.91319e-07)
(2.9844e-06 3.36907e-07 -9.06887e-07)
(3.36195e-06 4.78712e-07 -9.94343e-07)
(3.29281e-06 3.96389e-07 -1.01157e-06)
(3.36195e-06 4.78712e-07 -9.94343e-07)
(3.26863e-06 6.38257e-07 -9.77871e-07)
(1.20958e-06 2.1223e-07 -4.45007e-07)
(1.47004e-06 2.07616e-07 -4.82698e-07)
(1.82735e-06 2.09497e-07 -5.30589e-07)
(2.16259e-06 2.42293e-07 -6.26282e-07)
(2.42577e-06 2.78169e-07 -7.41185e-07)
(2.69025e-06 2.97051e-07 -8.19097e-07)
(2.86978e-06 3.90459e-07 -8.86404e-07)
(2.88684e-06 4.75279e-07 -9.08044e-07)
)
;
    }
    procBoundary0to4
    {
        type            processor;
        value           nonuniform List<vector> 
36
(
(9.51617e-07 2.17936e-07 -4.09813e-07)
(1.103e-06 2.3503e-07 -4.3535e-07)
(1.34396e-06 2.47658e-07 -4.51068e-07)
(1.58055e-06 2.54074e-07 -4.7833e-07)
(1.77475e-06 2.83676e-07 -5.27212e-07)
(1.93573e-06 3.13182e-07 -5.44413e-07)
(2.09717e-06 3.23161e-07 -5.38704e-07)
(2.21774e-06 3.1119e-07 -5.05017e-07)
(2.18225e-06 3.39791e-07 -4.32786e-07)
(9.96657e-07 2.4147e-07 -4.26912e-07)
(1.17152e-06 2.58011e-07 -4.59981e-07)
(1.40936e-06 2.51004e-07 -4.84015e-07)
(1.6581e-06 2.62526e-07 -5.18181e-07)
(1.8727e-06 3.06267e-07 -5.75991e-07)
(2.04817e-06 3.45101e-07 -6.01826e-07)
(2.15722e-06 3.58698e-07 -6.15439e-07)
(2.20393e-06 3.71979e-07 -5.79591e-07)
(2.24332e-06 4.42192e-07 -5.17026e-07)
(1.04581e-06 2.49782e-07 -4.38401e-07)
(1.24197e-06 2.60869e-07 -4.74837e-07)
(1.5089e-06 2.48415e-07 -5.16683e-07)
(1.76795e-06 2.5785e-07 -5.66953e-07)
(2.01841e-06 3.09608e-07 -6.11964e-07)
(2.23703e-06 3.56163e-07 -6.76887e-07)
(2.31654e-06 3.83501e-07 -7.10028e-07)
(2.29757e-06 4.54897e-07 -6.60196e-07)
(2.33803e-06 5.49172e-07 -5.77017e-07)
(1.08534e-06 2.52665e-07 -4.58209e-07)
(1.31441e-06 2.51653e-07 -4.86835e-07)
(1.60661e-06 2.33338e-07 -5.37073e-07)
(1.89182e-06 2.54445e-07 -5.82498e-07)
(2.11869e-06 2.94927e-07 -6.45169e-07)
(2.34867e-06 3.04355e-07 -7.14106e-07)
(2.44764e-06 3.65526e-07 -7.32557e-07)
(2.38541e-06 4.69944e-07 -7.10274e-07)
(2.36629e-06 5.96165e-07 -6.62323e-07)
)
;
    }
    procBoundary0to6
    {
        type            processor;
        value           uniform (2.92003e-06 6.33069e-07 -8.9864e-07);
    }
    procBoundary0to7
    {
        type            processor;
        value           uniform (2.57739e-06 7.12232e-07 -8.37694e-07);
    }
}


// ************************************************************************* //
