/*--------------------------------*- C++ -*----------------------------------*\
| =========                 |                                                 |
| \\      /  F ield         | OpenFOAM: The Open Source CFD Toolbox           |
|  \\    /   O peration     | Version:  4.x                                   |
|   \\  /    A nd           | Web:      www.OpenFOAM.org                      |
|    \\/     M anipulation  |                                                 |
\*---------------------------------------------------------------------------*/
FoamFile
{
    version     2.0;
    format      ascii;
    class       volVectorField;
    location    "12.5";
    object      GField;
}
// * * * * * * * * * * * * * * * * * * * * * * * * * * * * * * * * * * * * * //

dimensions      [1 -2 -1 0 0 0 0];

internalField   nonuniform List<vector> 
132
(
(99.1955 -2.1801 -4.34624)
(53.4612 -1.19858 -3.00943)
(110.294 -2.21731 -4.87639)
(72.421 -0.945389 -3.11114)
(121.226 -1.53606 -4.45598)
(87.9778 -0.454068 -2.93749)
(131.681 -1.15778 -4.02181)
(100.891 -0.748041 -2.39454)
(142.722 -1.39981 -1.71001)
(98.6739 -3.17632 -4.71641)
(50.1373 -1.88322 -2.97211)
(106.739 -3.17333 -5.31952)
(65.3618 -1.5317 -3.3519)
(116.457 -2.43008 -5.3715)
(79.0674 -1.14431 -3.13159)
(124.807 -2.76805 -4.29158)
(88.4157 -3.14776 -1.69668)
(129.709 -5.25998 -0.478443)
(98.7826 -2.2851 -5.0412)
(48.4467 -1.33724 -2.80318)
(104.869 -2.46893 -5.50112)
(61.4511 -1.41922 -3.1967)
(112.234 -1.85857 -5.43943)
(72.1933 -0.829953 -3.16419)
(118.248 -1.7309 -3.71503)
(74.6192 -1.31539 -0.512259)
(116.392 -2.52607 1.40013)
(98.349 -1.2458 -5.41288)
(48.2509 -0.289619 -2.86531)
(105.16 -0.560871 -5.92836)
(96.5822 -2.50264 -9.02857)
(45.8372 -1.16678 -5.58086)
(100.972 -2.62711 -9.7094)
(53.9653 -1.18465 -5.5702)
(105.578 -2.55326 -8.47116)
(60.8145 -0.929032 -5.06867)
(109.686 -2.28878 -6.70841)
(65.3994 -1.14213 -3.54133)
(113.756 -2.00764 -1.67704)
(96.114 -3.72932 -9.73624)
(40.8701 -1.60965 -5.45461)
(97.6802 -3.75355 -10.6925)
(43.0308 -1.47854 -5.18748)
(98.2635 -3.60956 -9.34408)
(42.2285 -1.48244 -3.91299)
(98.0299 -3.78182 -6.11559)
(38.2945 -2.01979 -1.25941)
(97.357 -4.48865 1.14377)
(95.0094 -2.81428 -10.0706)
(38.1421 -1.03862 -5.22536)
(95.337 -2.85659 -11.1876)
(36.6644 -1.03714 -4.88878)
(93.8955 -2.57145 -8.73302)
(31.1728 -0.767323 -2.90652)
(90.9359 -1.77687 -2.73168)
(22.1117 -0.521056 -0.00402684)
(89.3627 -1.06838 4.64183)
(94.1531 -0.759759 -10.6888)
(37.8436 -0.33886 -5.80402)
(94.4895 -0.723768 -12.058)
(35.0402 -0.0905721 -5.05895)
(91.971 -0.141793 -9.49313)
(94.8279 -2.91922 -6.95846)
(42.4355 -1.45106 -4.32226)
(96.7291 -3.38043 -7.43608)
(46.2403 -1.43214 -4.33002)
(98.8996 -3.40068 -6.27341)
(49.0995 -1.27378 -3.59963)
(100.766 -3.17489 -4.01074)
(50.1262 -1.21001 -1.92094)
(103.189 -1.99374 -0.115096)
(94.2678 -4.31571 -7.69587)
(36.2321 -1.94318 -4.27111)
(92.8832 -4.89455 -7.94713)
(31.7975 -1.78678 -3.26884)
(90.9743 -4.01317 -5.49235)
(24.955 -1.1721 -1.89851)
(89.1321 -2.50217 -2.10029)
(16.279 -0.877642 -0.133877)
(89.1378 -2.42122 2.00004)
(92.8533 -3.37926 -7.30918)
(32.8059 -1.58192 -3.95169)
(89.5801 -3.78067 -7.66035)
(21.9522 -1.06238 -2.2931)
(85.938 -2.53038 -4.24007)
(11.6839 -0.496255 -0.550213)
(84.1508 -0.837264 0.597405)
(6.24253 -0.348622 0.251047)
(85.0438 -0.498572 4.24662)
(92.4201 -0.354996 -7.72514)
(30.7384 -0.0596929 -4.26478)
(88.0116 -0.177376 -8.10404)
(17.8092 -0.040843 -2.04114)
(84.1381 -0.300889 -3.96831)
(6.45281 -0.115623 -0.474537)
(82.6925 -1.02633 0.69416)
(94.2255 -3.30167 -5.33208)
(43.273 -1.76375 -3.70221)
(96.379 -3.52189 -5.98703)
(46.8359 -1.49884 -3.81222)
(98.3297 -2.88022 -4.97059)
(48.6921 -1.45876 -3.41009)
(100.437 -2.89319 -3.41239)
(51.1422 -1.16687 -2.47478)
(103.421 -2.02656 -0.041548)
(93.1994 -4.18558 -5.90209)
(35.6906 -2.01368 -3.42824)
(91.0594 -4.43077 -6.38584)
(30.3757 -1.44759 -2.79575)
(89.6799 -3.34816 -4.17113)
(25.5845 -0.922797 -1.65931)
(88.8711 -2.66672 -0.868686)
(21.0535 -0.549518 -0.652668)
(89.8605 -2.15791 2.1654)
(92.3737 -2.96437 -5.67083)
(34.1064 -1.5905 -3.25917)
(88.87 -3.33684 -5.389)
(24.9054 -1.05413 -2.09822)
(86.8783 -2.06344 -2.85432)
(17.9939 -0.64834 -1.01537)
(86.8429 -0.889227 0.0891073)
(14.4934 -0.568714 -0.348724)
(88.0242 -0.69044 2.7883)
(92.3225 -0.993917 -5.41882)
(32.727 -0.192686 -3.38856)
(87.6054 -0.380396 -5.48643)
(21.9169 0.133936 -2.23355)
(85.6875 -0.0203815 -3.12944)
(15.8937 0.101087 -1.28037)
(85.3236 -0.164043 0.974607)
(14.2643 0.0948069 -0.489838)
(85.6785 0.239039 2.83446)
)
;

boundaryField
{
    inlet
    {
        type            calculated;
        value           uniform (67 0 0);
    }
    outlet
    {
        type            calculated;
        value           nonuniform 0();
    }
    wall
    {
        type            calculated;
        value           uniform (0 0 0);
    }
    procBoundary0to1
    {
        type            processor;
        value           nonuniform List<vector> 
12
(
(108.933 -0.864702 1.20845)
(87.158 -4.88467 2.01669)
(60.7627 -2.02224 1.43036)
(68.4827 -1.40762 1.53117)
(33.3176 -3.36493 1.82609)
(12.5789 -0.480687 0.599681)
(51.1831 -0.988639 2.11391)
(12.2067 -1.07266 0.66719)
(4.26674 -0.364614 0.396183)
(52.9896 -1.1833 1.22371)
(18.9605 -0.545038 0.183614)
(12.8482 -1.07383 -0.206497)
)
;
    }
    procBoundary0to2
    {
        type            processor;
        value           nonuniform List<vector> 
44
(
(61.2204 -0.224238 -3.39119)
(111.714 -0.293681 -6.05355)
(72.2935 -0.0982413 -3.3284)
(117.332 -0.18919 -3.58054)
(75.2016 0.77094 -0.455479)
(117.966 1.18611 2.35059)
(96.3894 0.91176 -4.38705)
(46.5459 0.735564 -2.79205)
(61.2204 -0.224238 -3.39119)
(102.766 1.51512 -5.63553)
(61.2204 -0.224238 -3.39119)
(111.714 -0.293681 -6.05355)
(27.6496 0.0847941 -2.94824)
(88.7958 -0.122775 -3.3134)
(19.707 0.324053 -0.449986)
(88.929 0.758411 4.37711)
(94.5742 1.37674 -9.18039)
(38.3523 0.495532 -5.10132)
(94.2887 1.54861 -10.7292)
(35.2624 1.00634 -4.64679)
(27.6496 0.0847941 -2.94824)
(92.8203 1.9543 -8.79952)
(27.6496 0.0847941 -2.94824)
(88.7958 -0.122775 -3.3134)
(0.336197 -0.00350125 0.0008788)
(83.5375 -0.180328 3.10259)
(92.8723 2.28916 -7.53339)
(34.3751 0.999246 -4.01545)
(89.7901 2.28169 -7.42861)
(24.8341 0.883738 -2.41879)
(86.8191 1.80138 -4.47467)
(14.8821 0.425079 -0.74246)
(0.336197 -0.00350125 0.0008788)
(84.6852 -0.0892365 0.0943315)
(0.336197 -0.00350125 0.0008788)
(83.5375 -0.180328 3.10259)
(91.9428 1.65347 -6.49316)
(32.8182 1.06075 -3.13525)
(87.9777 2.07444 -5.85222)
(23.8374 0.845205 -2.33372)
(86.4551 1.21716 -3.61133)
(17.38 0.673705 -1.06478)
(86.6096 0.493446 -0.0428135)
(13.7296 0.597168 -0.430674)
)
;
    }
    procBoundary0to4
    {
        type            processor;
        value           nonuniform List<vector> 
36
(
(93.8682 -3.60451 -3.23062)
(42.4064 -1.88412 -2.29261)
(94.5217 -4.26785 -3.76899)
(44.1942 -1.87087 -2.60502)
(95.4188 -3.66811 -2.90719)
(45.0958 -1.36906 -2.25503)
(95.8791 -2.62727 -2.26558)
(44.0598 -1.22926 -1.79494)
(96.4423 -1.25919 0.507567)
(92.3083 -4.71541 -2.96737)
(33.8407 -2.12935 -1.77451)
(88.8352 -4.75997 -3.29281)
(23.6065 -1.42445 -1.50079)
(86.0361 -3.19388 -2.33924)
(15.0884 -0.757455 -0.75729)
(84.8855 -1.66927 -0.739887)
(7.96684 -0.494049 -0.281235)
(84.5342 -1.12486 1.17011)
(91.8065 -2.9337 -2.94705)
(31.6074 -1.7233 -1.6896)
(86.5661 -3.04567 -2.86027)
(19.7479 -1.18528 -1.02415)
(83.6531 -2.12117 -1.4041)
(11.9967 -0.852189 -0.406993)
(82.529 -0.168599 0.409061)
(7.80204 -0.59129 -0.118357)
(82.0038 -0.510994 1.90151)
(91.9024 -1.26364 -3.32732)
(31.0262 -0.0983188 -1.59414)
(85.2696 -0.747993 -3.02299)
(17.6248 -0.285162 -1.1751)
(81.331 -0.955226 -1.997)
(7.7223 -0.127108 -0.321492)
(79.1524 -0.805013 -0.283326)
(5.27384 -0.0707902 -0.079627)
(78.8532 0.0688529 2.89268)
)
;
    }
    procBoundary0to6
    {
        type            processor;
        value           uniform (87.9627 0.772588 2.69027);
    }
    procBoundary0to7
    {
        type            processor;
        value           uniform (11.4811 0.136927 -0.597619);
    }
}


// ************************************************************************* //
