/*--------------------------------*- C++ -*----------------------------------*\
| =========                 |                                                 |
| \\      /  F ield         | OpenFOAM: The Open Source CFD Toolbox           |
|  \\    /   O peration     | Version:  4.x                                   |
|   \\  /    A nd           | Web:      www.OpenFOAM.org                      |
|    \\/     M anipulation  |                                                 |
\*---------------------------------------------------------------------------*/
FoamFile
{
    version     2.0;
    format      ascii;
    class       volVectorField;
    location    "13";
    object      ddtUrel;
}
// * * * * * * * * * * * * * * * * * * * * * * * * * * * * * * * * * * * * * //

dimensions      [0 1 -2 0 0 0 0];

internalField   nonuniform List<vector> 
114
(
(0.00020839 -4.28799e-06 -1.54079e-05)
(0.000187376 -1.11564e-05 -2.54555e-05)
(0.000158348 -1.55198e-05 -3.03362e-05)
(0.000117443 -1.86374e-05 -2.0912e-05)
(8.66838e-05 -2.01659e-05 -1.02274e-05)
(7.05442e-05 -1.92911e-05 -3.21833e-06)
(0.000263278 4.97381e-06 8.97507e-06)
(0.000242318 -3.09618e-06 -7.3637e-06)
(0.000219378 -8.50266e-06 -1.79381e-05)
(0.000187867 -1.30102e-05 -2.34101e-05)
(0.000143679 -1.73105e-05 -1.97626e-05)
(0.000102069 -2.14099e-05 -1.09278e-05)
(8.0143e-05 -2.08637e-05 -5.43925e-06)
(0.000299447 1.18245e-05 2.84863e-05)
(0.000297575 6.69203e-06 2.35852e-05)
(0.000278764 -5.72204e-07 6.37497e-06)
(0.000253909 -4.52496e-06 -5.38714e-06)
(0.000219903 -7.89188e-06 -1.28791e-05)
(0.000170971 -1.12628e-05 -1.57007e-05)
(0.000121095 -1.57465e-05 -1.20721e-05)
(9.00023e-05 -1.50318e-05 -7.35956e-06)
(0.000210619 5.27702e-06 -1.58313e-06)
(0.000214755 9.31257e-06 2.56837e-06)
(0.000201545 2.58292e-07 3.25392e-06)
(0.000187793 -4.35322e-06 -5.07884e-06)
(0.000170274 -9.10963e-06 -1.331e-05)
(0.000141485 -1.68337e-05 -2.07175e-05)
(0.000106724 -2.22082e-05 -1.58589e-05)
(7.95487e-05 -2.32586e-05 -5.54624e-06)
(6.41338e-05 -2.39663e-05 6.54965e-07)
(0.000244085 8.0593e-06 1.04571e-05)
(0.000255114 5.85484e-06 1.92939e-05)
(0.00024612 -2.07809e-06 1.83553e-05)
(0.000224159 -3.22673e-06 2.27229e-06)
(0.000204937 -7.12897e-06 -1.04204e-05)
(0.000176776 -1.54182e-05 -1.7483e-05)
(0.000135085 -2.2503e-05 -1.43694e-05)
(9.323e-05 -2.56858e-05 -6.48038e-06)
(7.26771e-05 -2.45786e-05 -1.0348e-06)
(0.000269286 1.47175e-05 2.58627e-05)
(0.000285147 6.12164e-06 3.60996e-05)
(0.000281958 2.04038e-07 3.39212e-05)
(0.000264673 -2.88398e-06 1.60251e-05)
(0.000244399 -8.12021e-06 -6.10308e-07)
(0.000213926 -1.2921e-05 -7.66782e-06)
(0.000166109 -1.65854e-05 -1.03933e-05)
(0.000115161 -1.77432e-05 -7.67492e-06)
(8.21311e-05 -1.76816e-05 -3.62621e-06)
(0.000276396 2.24554e-05 3.20931e-05)
(0.000286167 1.45001e-05 3.58479e-05)
(0.000174775 -1.091e-07 -4.02196e-07)
(0.0001783 -1.04096e-06 8.1091e-06)
(0.000172666 -5.72086e-06 1.16355e-05)
(0.000168623 -8.00934e-06 4.04909e-06)
(0.000157962 -1.17875e-05 -5.30481e-06)
(0.00012914 -1.9498e-05 -1.19318e-05)
(9.25167e-05 -2.34761e-05 -7.82682e-06)
(6.44388e-05 -2.3501e-05 1.12823e-06)
(5.37332e-05 -2.34693e-05 5.19876e-06)
(0.000201244 3.17559e-06 4.96084e-06)
(0.000208291 2.88434e-07 1.84231e-05)
(0.000207557 -8.81262e-06 2.28512e-05)
(0.00019957 -8.97404e-06 1.15572e-05)
(0.000186749 -1.06095e-05 -3.18705e-06)
(0.000157793 -1.46842e-05 -9.74418e-06)
(0.000112724 -2.25426e-05 -6.26747e-06)
(7.46317e-05 -2.40413e-05 9.34431e-07)
(5.79765e-05 -2.31053e-05 3.51465e-06)
(0.000227988 1.38567e-05 1.72912e-05)
(0.000240439 6.61858e-06 3.17929e-05)
(0.000242474 -5.55152e-06 3.35314e-05)
(0.000232428 -7.78459e-06 2.04059e-05)
(0.000218653 -9.34339e-06 4.20311e-06)
(0.000189248 -1.05976e-05 9.46006e-07)
(0.00014346 -1.51435e-05 -8.66271e-08)
(9.71181e-05 -1.63025e-05 2.23066e-06)
(7.28801e-05 -1.53638e-05 3.02059e-06)
(0.000232371 2.71507e-05 2.58932e-05)
(0.000243619 1.80858e-05 3.09353e-05)
(0.000247371 4.83463e-06 3.15896e-05)
(0.000239842 -3.54381e-06 2.36177e-05)
(0.000145297 5.36193e-07 1.3446e-06)
(0.000144705 -4.095e-06 9.78167e-06)
(0.00013785 -1.36278e-05 1.10914e-05)
(0.000151326 -1.53556e-05 6.7843e-06)
(0.00015206 -1.72545e-05 5.99032e-08)
(0.000120457 -1.92318e-05 -5.63798e-06)
(8.41248e-05 -2.04758e-05 -2.4771e-06)
(5.77569e-05 -2.02631e-05 3.44426e-06)
(4.81014e-05 -1.97371e-05 5.54476e-06)
(0.000165365 4.00044e-06 1.69379e-06)
(0.000167361 4.3658e-08 1.32768e-05)
(0.000166554 -1.26368e-05 1.86449e-05)
(0.000165099 -1.91198e-05 1.00982e-05)
(0.000161015 -2.02971e-05 -7.18516e-07)
(0.000137621 -1.32701e-05 -2.86124e-06)
(9.71829e-05 -1.68572e-05 -1.56971e-06)
(6.50161e-05 -1.94541e-05 3.43744e-06)
(5.19971e-05 -1.99623e-05 4.85877e-06)
(0.000182478 1.80698e-05 9.97561e-06)
(0.000189767 1.04231e-05 2.12211e-05)
(0.000192825 -4.80067e-06 2.4881e-05)
(0.000188452 -1.27058e-05 1.77295e-05)
(0.000181639 -1.13219e-05 6.32367e-06)
(0.000160477 -6.51722e-06 6.0638e-06)
(0.000120696 -9.0418e-06 6.06875e-06)
(8.51536e-05 -1.28109e-05 5.75555e-06)
(6.51821e-05 -1.41595e-05 4.90012e-06)
(0.000191541 3.19929e-05 1.74776e-05)
(0.000198778 2.23467e-05 2.24335e-05)
(0.000203822 6.50397e-06 2.39436e-05)
(0.000202241 -2.95355e-06 2.05074e-05)
(0.000193108 -3.63412e-06 1.46262e-05)
(0.000170899 -9.82445e-07 1.41259e-05)
)
;

boundaryField
{
    inlet
    {
        type            calculated;
        value           nonuniform 0();
    }
    outlet
    {
        type            calculated;
        value           nonuniform List<vector> 
12
(
(7.56028e-06 -2.18579e-05 1.45526e-05)
(3.75018e-05 -6.16962e-05 -8.36479e-06)
(3.91414e-05 -4.14236e-05 -1.27323e-05)
(1.99205e-06 -4.02236e-05 2.35013e-05)
(2.91346e-05 -5.91881e-05 1.87353e-05)
(-5.24886e-06 -4.35163e-05 -8.70333e-06)
(-6.30571e-06 -3.44062e-05 3.62002e-05)
(-5.60361e-05 -4.81935e-05 1.79245e-05)
(1.76425e-05 -1.49722e-05 1.98079e-05)
(-1.0512e-05 -6.35855e-06 1.57254e-05)
(-3.45293e-05 -3.06905e-05 1.14174e-05)
(-3.22428e-06 -1.94039e-05 5.59572e-06)
)
;
    }
    wall
    {
        type            calculated;
        value           nonuniform List<vector> 
66
(
(2.57214e-05 -9.84851e-06 -1.49508e-05)
(9.16625e-05 -4.06177e-05 -6.77506e-05)
(7.0815e-05 4.84946e-05 -3.7759e-05)
(0.000136625 8.17965e-05 1.81262e-05)
(-6.16514e-06 -1.03956e-05 2.76749e-05)
(4.61482e-05 8.15531e-06 4.78453e-06)
(9.08205e-05 4.14618e-05 3.4791e-05)
(0.000116564 6.53376e-05 2.764e-05)
(-0.00012299 -6.60609e-05 5.73817e-06)
(4.53529e-05 -6.49642e-05 5.52517e-05)
(0.00010933 -3.67768e-05 5.60366e-05)
(0.000159181 -1.45039e-06 3.29617e-05)
(0.00010202 -2.63107e-05 1.2947e-05)
(3.70754e-05 -9.82902e-05 -7.57632e-08)
(9.23394e-05 -6.89095e-05 3.83096e-05)
(0.000190106 -1.91591e-05 4.36372e-05)
(0.00021267 -2.47794e-05 1.55536e-05)
(0.000113398 -0.000113083 -4.52899e-05)
(0.000142164 -2.30075e-05 -2.67343e-05)
(0.00022039 2.60379e-06 3.14375e-05)
(6.41001e-05 -3.94068e-05 -2.35564e-05)
(0.000113141 2.34152e-05 -1.20138e-05)
(0.000168764 3.32801e-05 2.357e-05)
(0.000210322 5.79765e-05 6.94712e-05)
(-1.6435e-05 -2.62448e-05 2.23103e-06)
(-8.97129e-06 -1.51302e-05 -1.96289e-05)
(6.69121e-05 2.27683e-05 2.93064e-05)
(-3.74761e-05 -1.34071e-05 2.30899e-05)
(-6.90145e-05 -2.97433e-05 1.55564e-05)
(1.30895e-05 -6.05339e-06 1.65749e-05)
(-1.1209e-05 -5.85879e-06 1.56064e-05)
(-3.70152e-05 -2.9944e-05 1.14901e-05)
(-5.96168e-06 -1.92094e-05 5.39051e-06)
(0.000153423 -5.57435e-06 -8.23227e-05)
(9.25842e-05 -4.63024e-05 -5.18301e-05)
(2.48145e-05 -9.85301e-06 -1.49081e-05)
(0.000190908 6.0624e-05 -3.89013e-05)
(0.000109184 -1.4593e-05 5.344e-06)
(-5.39283e-06 -1.03919e-05 2.76632e-05)
(8.4598e-05 -9.45541e-06 -1.23144e-05)
(7.92975e-05 1.9933e-06 4.19231e-05)
(-0.000125699 -6.60296e-05 5.68897e-06)
(0.000141153 -2.96275e-05 -5.71498e-05)
(8.39922e-05 2.97212e-06 -2.37789e-05)
(9.35937e-05 1.09937e-05 6.46719e-06)
(0.00010169 -2.63057e-05 1.29464e-05)
(0.000149809 -4.0838e-05 -8.25925e-05)
(8.64556e-05 9.98141e-06 -1.22028e-05)
(0.000106603 5.53427e-06 -1.26591e-05)
(0.000212566 -2.48206e-05 1.55558e-05)
(0.000137988 -4.23988e-05 -0.000131047)
(3.952e-05 -2.44735e-05 -6.75454e-05)
(5.34071e-05 -5.59079e-05 -4.60977e-05)
(6.10272e-05 -3.94856e-05 -2.36145e-05)
(2.39505e-05 -3.44663e-05 -5.13756e-05)
(5.05396e-06 -4.28481e-05 -4.77019e-05)
(-1.78064e-05 -5.02369e-05 -2.0249e-05)
(-1.79312e-05 -2.62738e-05 2.23832e-06)
(1.85149e-06 -3.75247e-05 -1.77002e-05)
(1.86954e-05 -2.58209e-05 4.26638e-06)
(-4.89665e-05 -3.33488e-05 3.02872e-05)
(-3.82568e-05 -1.32891e-05 2.3092e-05)
(3.83202e-06 -2.16554e-05 1.48913e-05)
(-1.7103e-06 -3.99843e-05 2.37444e-05)
(-8.54476e-06 -3.41148e-05 3.56383e-05)
(-1.09486e-05 -5.91879e-06 1.5441e-05)
)
;
    }
    procBoundary5to1
    {
        type            processor;
        value           nonuniform List<vector> 
32
(
(0.000218405 -2.03583e-06 -1.99787e-05)
(0.000194332 -8.43295e-06 -3.16587e-05)
(0.000164158 -9.20718e-06 -2.90435e-05)
(0.000121001 -1.26564e-05 -1.89428e-05)
(8.79433e-05 -1.28705e-05 -8.05862e-06)
(7.23254e-05 -1.12434e-05 -3.3677e-06)
(0.000267548 9.81903e-06 2.33597e-06)
(0.000248319 1.16196e-06 -1.2948e-05)
(0.000224356 -4.73238e-06 -2.24636e-05)
(0.000189887 -6.57602e-06 -2.08467e-05)
(0.000141497 -1.20793e-05 -1.48095e-05)
(0.000102061 -1.26559e-05 -6.2963e-06)
(8.2366e-05 -1.03446e-05 -3.40363e-06)
(0.000304725 8.15095e-06 1.90375e-05)
(0.000298409 7.32354e-06 1.11982e-05)
(0.000279983 3.70154e-06 -1.47758e-06)
(0.000252195 1.5293e-06 -7.72837e-06)
(0.000211752 -9.19331e-07 -1.11726e-05)
(0.000161038 -6.99366e-06 -1.08748e-05)
(0.000116968 -8.5244e-06 -8.57469e-06)
(9.14074e-05 -6.0223e-06 -5.60419e-06)
(0.000236387 1.00585e-05 4.69162e-06)
(0.000236305 1.98579e-05 -2.01553e-06)
(0.000221452 7.67376e-06 -5.7571e-06)
(0.000221452 7.67376e-06 -5.7571e-06)
(0.000221452 7.67376e-06 -5.7571e-06)
(0.000263026 1.2589e-05 1.41841e-05)
(0.000269506 1.49395e-05 1.62714e-05)
(0.000269506 1.49395e-05 1.62714e-05)
(0.000269506 1.49395e-05 1.62714e-05)
(0.000285271 1.48746e-05 2.49641e-05)
(0.000285271 1.48746e-05 2.49641e-05)
)
;
    }
    procBoundary5to4
    {
        type            processor;
        value           nonuniform List<vector> 
12
(
(0.000200631 2.08727e-06 1.13533e-06)
(0.000227909 7.60528e-06 7.72441e-06)
(0.000246746 1.57489e-05 1.5938e-05)
(0.000255333 2.4545e-05 2.27676e-05)
(0.000164615 5.88184e-06 1.41752e-06)
(0.000187915 1.41632e-05 3.47516e-06)
(0.000209008 1.98564e-05 1.06423e-05)
(0.000212825 3.16535e-05 1.76706e-05)
(0.000138225 5.84961e-06 -4.89659e-07)
(0.000158575 1.24225e-05 1.15781e-06)
(0.000174786 2.01504e-05 7.45439e-06)
(0.000177212 3.51849e-05 1.35155e-05)
)
;
    }
    procBoundary5to7
    {
        type            processor;
        value           nonuniform List<vector> 
44
(
(0.000304422 1.27238e-05 2.80257e-05)
(0.000300347 6.18413e-06 2.40077e-05)
(0.00028344 -8.95528e-07 1.18378e-05)
(0.000261448 -3.75599e-06 1.14697e-06)
(0.000224922 -5.77759e-06 -6.66223e-06)
(0.000178576 -7.09619e-06 -1.52091e-05)
(0.000128252 -6.80851e-06 -1.41978e-05)
(9.37405e-05 -6.3124e-06 -7.93305e-06)
(0.000293483 1.84e-05 2.64462e-05)
(0.000304422 1.27238e-05 2.80257e-05)
(0.000283548 4.05573e-06 3.18475e-05)
(0.000271717 -3.54915e-06 1.93294e-05)
(0.000255943 -8.07188e-06 6.23833e-06)
(0.000224252 -9.98711e-06 -1.56511e-07)
(0.000175697 -1.09004e-05 -8.31085e-06)
(0.000123336 -8.48481e-06 -8.03142e-06)
(8.85544e-05 -7.49498e-06 -3.22091e-06)
(0.000265797 3.07553e-05 2.5018e-05)
(0.000283548 4.05573e-06 3.18475e-05)
(0.000272892 2.05831e-05 2.59594e-05)
(0.000283548 4.05573e-06 3.18475e-05)
(0.000271717 -3.54915e-06 1.93294e-05)
(0.000226033 -6.87903e-06 1.36673e-05)
(0.000198753 -6.83603e-06 9.55458e-06)
(0.000153871 -1.00326e-05 3.95539e-06)
(0.000109425 -8.14457e-06 3.37206e-06)
(8.14379e-05 -6.08291e-06 2.94672e-06)
(0.000222668 3.66596e-05 2.24941e-05)
(0.000233245 2.55861e-05 2.36278e-05)
(0.000229057 1.14747e-05 2.21233e-05)
(0.000226033 -6.87903e-06 1.36673e-05)
(0.000221138 3.28075e-07 1.78043e-05)
(0.000226033 -6.87903e-06 1.36673e-05)
(0.000198753 -6.83603e-06 9.55458e-06)
(0.000135829 -4.01159e-06 1.23444e-05)
(0.00010128 -7.09105e-06 8.40283e-06)
(7.47795e-05 -6.90306e-06 5.73784e-06)
(0.000184547 4.18477e-05 1.53966e-05)
(0.000193518 3.06166e-05 1.75284e-05)
(0.000193294 1.51457e-05 1.78232e-05)
(0.000188836 3.49403e-06 1.56075e-05)
(0.000177094 1.2013e-06 1.25723e-05)
(0.000135829 -4.01159e-06 1.23444e-05)
(0.000157245 -2.6804e-06 9.55873e-06)
)
;
    }
}


// ************************************************************************* //
