/*--------------------------------*- C++ -*----------------------------------*\
| =========                 |                                                 |
| \\      /  F ield         | OpenFOAM: The Open Source CFD Toolbox           |
|  \\    /   O peration     | Version:  4.x                                   |
|   \\  /    A nd           | Web:      www.OpenFOAM.org                      |
|    \\/     M anipulation  |                                                 |
\*---------------------------------------------------------------------------*/
FoamFile
{
    version     2.0;
    format      ascii;
    class       volScalarField;
    location    "13";
    object      Deff;
}
// * * * * * * * * * * * * * * * * * * * * * * * * * * * * * * * * * * * * * //

dimensions      [0 2 -1 0 0 0 0];

internalField   nonuniform List<scalar> 
114
(
9.79741e-08
9.78777e-08
9.78766e-08
9.78356e-08
9.78181e-08
9.78259e-08
9.79767e-08
9.79867e-08
9.79221e-08
9.78422e-08
9.77449e-08
9.77239e-08
9.7791e-08
9.79025e-08
9.79499e-08
9.7842e-08
9.78451e-08
9.78444e-08
9.77443e-08
9.7788e-08
9.77246e-08
9.80517e-08
9.80672e-08
9.79072e-08
9.7906e-08
9.77965e-08
9.77426e-08
9.7728e-08
9.77868e-08
9.78183e-08
9.79363e-08
9.78975e-08
9.77831e-08
9.7775e-08
9.76702e-08
9.764e-08
9.77048e-08
9.762e-08
9.77208e-08
9.78527e-08
9.79377e-08
9.77798e-08
9.76979e-08
9.76786e-08
9.76308e-08
9.75977e-08
9.76128e-08
9.76957e-08
9.77727e-08
9.78742e-08
9.79896e-08
9.78684e-08
9.788e-08
9.77833e-08
9.77325e-08
9.77127e-08
9.76892e-08
9.77007e-08
9.77732e-08
9.79561e-08
9.781e-08
9.78353e-08
9.77378e-08
9.7637e-08
9.76143e-08
9.75518e-08
9.7646e-08
9.77479e-08
9.78376e-08
9.78178e-08
9.77169e-08
9.7684e-08
9.74906e-08
9.75379e-08
9.74981e-08
9.74962e-08
9.75495e-08
9.79459e-08
9.76861e-08
9.75908e-08
9.76072e-08
9.82345e-08
9.80008e-08
9.805e-08
9.78407e-08
9.78142e-08
9.78475e-08
9.77481e-08
9.77649e-08
9.78166e-08
9.80127e-08
9.79193e-08
9.79857e-08
9.78353e-08
9.76839e-08
9.77006e-08
9.77691e-08
9.76963e-08
9.77661e-08
9.79223e-08
9.78544e-08
9.76893e-08
9.76857e-08
9.76219e-08
9.75463e-08
9.76307e-08
9.76267e-08
9.7655e-08
9.78879e-08
9.78441e-08
9.76703e-08
9.76819e-08
9.75007e-08
9.75731e-08
)
;

boundaryField
{
    inlet
    {
        type            calculated;
        value           nonuniform 0();
    }
    outlet
    {
        type            calculated;
        value           uniform 0;
    }
    wall
    {
        type            calculated;
        value           uniform 0;
    }
    procBoundary5to1
    {
        type            processor;
        value           uniform 0;
    }
    procBoundary5to4
    {
        type            processor;
        value           uniform 0;
    }
    procBoundary5to7
    {
        type            processor;
        value           uniform 0;
    }
}


// ************************************************************************* //
