/*--------------------------------*- C++ -*----------------------------------*\
| =========                 |                                                 |
| \\      /  F ield         | OpenFOAM: The Open Source CFD Toolbox           |
|  \\    /   O peration     | Version:  4.x                                   |
|   \\  /    A nd           | Web:      www.OpenFOAM.org                      |
|    \\/     M anipulation  |                                                 |
\*---------------------------------------------------------------------------*/
FoamFile
{
    version     2.0;
    format      ascii;
    class       volVectorField;
    location    "13";
    object      impParticleForces;
}
// * * * * * * * * * * * * * * * * * * * * * * * * * * * * * * * * * * * * * //

dimensions      [1 1 -2 0 0 0 0];

internalField   nonuniform List<vector> 
114
(
(0.00238188 -1.51e-05 5.61457e-06)
(0.00236861 -2.02374e-05 -6.23335e-06)
(0.00240004 -2.87359e-05 -1.98352e-05)
(0.00236199 -4.9492e-05 -4.07156e-05)
(0.00236807 -7.48433e-05 -6.15053e-05)
(0.00225579 -0.000112774 -8.5836e-05)
(0.00233084 -1.23822e-05 3.36606e-06)
(0.00236397 -1.2453e-05 -3.53692e-06)
(0.0023538 -1.62099e-05 -1.89015e-05)
(0.00239494 -2.216e-05 -3.68787e-05)
(0.00236361 -4.12396e-05 -5.721e-05)
(0.00236391 -6.32596e-05 -7.72697e-05)
(0.00226079 -9.78566e-05 -9.40466e-05)
(0.00230509 -1.91607e-06 8.82784e-06)
(0.00227821 -4.10528e-06 -3.32982e-06)
(0.00231668 -5.82737e-06 -1.68302e-05)
(0.00230556 -1.08059e-05 -3.40432e-05)
(0.00232404 -1.69464e-05 -5.49883e-05)
(0.00230074 -2.71139e-05 -7.27954e-05)
(0.00228631 -3.86699e-05 -9.16466e-05)
(0.00221753 -5.58053e-05 -0.000103789)
(0.00230801 -1.74345e-05 -7.62189e-07)
(0.00232349 -1.59006e-05 3.41526e-06)
(0.00234168 -1.57985e-05 3.05522e-06)
(0.00236008 -1.68976e-05 -1.18955e-06)
(0.00236013 -2.27888e-05 -9.77025e-06)
(0.00239039 -3.12041e-05 -1.83965e-05)
(0.0023541 -5.2126e-05 -3.18982e-05)
(0.00233574 -7.56247e-05 -4.46916e-05)
(0.00224396 -0.000108538 -5.33272e-05)
(0.00232263 -1.42795e-05 -9.96199e-07)
(0.00233949 -1.3499e-05 1.76355e-06)
(0.00233838 -1.28809e-05 -2.48722e-06)
(0.0023705 -1.34857e-05 -9.92376e-06)
(0.00235928 -1.90571e-05 -2.0575e-05)
(0.00238963 -2.50903e-05 -3.27752e-05)
(0.00234146 -4.367e-05 -4.54169e-05)
(0.00234397 -6.29805e-05 -5.73087e-05)
(0.00225145 -9.34257e-05 -6.38169e-05)
(0.00228266 -4.7538e-06 -3.45695e-06)
(0.00229162 -5.04455e-06 -2.02883e-06)
(0.00228985 -7.08547e-06 -9.89807e-06)
(0.00232252 -8.99869e-06 -2.14415e-05)
(0.0023044 -1.42283e-05 -3.43347e-05)
(0.00232474 -1.98829e-05 -4.98056e-05)
(0.00228964 -3.0853e-05 -6.19922e-05)
(0.00228091 -4.24509e-05 -7.45769e-05)
(0.00221152 -5.95165e-05 -7.97448e-05)
(0.00224128 5.75809e-06 -8.5017e-06)
(0.0022618 4.74948e-06 -9.29563e-06)
(0.00231555 -1.80971e-05 -3.54715e-07)
(0.00234365 -1.72343e-05 9.83539e-07)
(0.0023415 -1.84152e-05 -1.45899e-06)
(0.00236553 -2.12877e-05 -6.19767e-06)
(0.00237208 -2.86582e-05 -1.13903e-05)
(0.00239497 -3.90137e-05 -1.8183e-05)
(0.00237531 -6.44247e-05 -2.27076e-05)
(0.00239436 -9.31723e-05 -2.84068e-05)
(0.00227559 -0.000141527 -1.95318e-05)
(0.00232328 -1.55803e-05 -1.50279e-06)
(0.00236725 -1.52783e-05 -1.62432e-06)
(0.00234469 -1.62441e-05 -6.58572e-06)
(0.00237517 -1.9775e-05 -1.35282e-05)
(0.00237292 -2.60977e-05 -2.11066e-05)
(0.00239876 -3.53765e-05 -3.06051e-05)
(0.00238347 -5.59214e-05 -3.62159e-05)
(0.00237127 -7.99749e-05 -4.29965e-05)
(0.00226611 -0.000122415 -3.72981e-05)
(0.00230065 -9.46022e-06 -4.9967e-06)
(0.00231952 -9.61001e-06 -6.65423e-06)
(0.00231327 -1.20385e-05 -1.35057e-05)
(0.00232747 -1.62639e-05 -2.32148e-05)
(0.00232902 -2.21698e-05 -3.37227e-05)
(0.00234035 -2.90926e-05 -4.69595e-05)
(0.00230478 -4.11658e-05 -5.41355e-05)
(0.00230008 -5.41247e-05 -6.27468e-05)
(0.00222451 -7.92513e-05 -5.96524e-05)
(0.00225305 -2.25925e-06 -1.19724e-05)
(0.00230179 -2.12395e-06 -1.39375e-05)
(0.00228242 -4.67654e-06 -2.04291e-05)
(0.0022976 -7.0422e-06 -3.24315e-05)
(0.00226564 -1.83103e-05 -2.08931e-06)
(0.00229685 -1.75924e-05 -1.89875e-06)
(0.0022963 -1.90829e-05 -5.00204e-06)
(0.00232894 -2.29925e-05 -9.33587e-06)
(0.00233639 -3.17433e-05 -1.53468e-05)
(0.00236485 -4.49777e-05 -2.11433e-05)
(0.00236426 -7.41408e-05 -2.51242e-05)
(0.00240315 -0.000106368 -2.73302e-05)
(0.00227867 -0.000163603 -2.15605e-05)
(0.00229737 -1.66379e-05 -2.62432e-06)
(0.00233122 -1.63358e-05 -3.34947e-06)
(0.00231666 -1.82066e-05 -8.08854e-06)
(0.0023414 -2.19316e-05 -1.41162e-05)
(0.00234893 -3.00941e-05 -2.17552e-05)
(0.00235975 -4.21386e-05 -2.98148e-05)
(0.00235205 -6.51752e-05 -3.55112e-05)
(0.00235884 -9.29376e-05 -3.93578e-05)
(0.00226764 -0.000146827 -3.33347e-05)
(0.00227656 -1.2567e-05 -6.11094e-06)
(0.00230271 -1.26839e-05 -7.77198e-06)
(0.00230007 -1.49831e-05 -1.36711e-05)
(0.00231216 -1.91473e-05 -2.12523e-05)
(0.00230767 -2.6271e-05 -3.14173e-05)
(0.00232003 -3.48306e-05 -4.24401e-05)
(0.00228703 -4.84031e-05 -5.00777e-05)
(0.00227584 -6.35044e-05 -5.59864e-05)
(0.00221351 -9.22165e-05 -5.35274e-05)
(0.0022516 -6.31894e-06 -1.19612e-05)
(0.00227504 -5.94953e-06 -1.3536e-05)
(0.00227202 -8.2149e-06 -1.88716e-05)
(0.00228351 -1.1117e-05 -2.60855e-05)
(0.00227543 -1.68044e-05 -3.83292e-05)
(0.00225981 -2.15438e-05 -5.07875e-05)
)
;

boundaryField
{
    inlet
    {
        type            zeroGradient;
    }
    outlet
    {
        type            zeroGradient;
    }
    wall
    {
        type            zeroGradient;
    }
    procBoundary5to1
    {
        type            processor;
        value           nonuniform List<vector> 
32
(
(0.00239645 -1.76495e-05 1.23226e-05)
(0.00237425 -2.23507e-05 -2.77461e-06)
(0.00240453 -3.087e-05 -1.85815e-05)
(0.00237978 -5.10187e-05 -4.14567e-05)
(0.00236919 -7.65644e-05 -7.06137e-05)
(0.00223999 -0.000110755 -9.90568e-05)
(0.00232228 -1.34747e-05 6.06877e-06)
(0.00235914 -1.18186e-05 3.51851e-06)
(0.0023508 -1.6066e-05 -1.42334e-05)
(0.00238398 -2.10626e-05 -3.62705e-05)
(0.00235027 -4.01938e-05 -5.99873e-05)
(0.00234065 -6.30896e-05 -8.73866e-05)
(0.00222949 -9.47728e-05 -0.000104413)
(0.00229301 2.43671e-06 2.05953e-06)
(0.00225779 -1.30289e-06 1.24103e-06)
(0.00230148 -2.96697e-06 -2.44508e-07)
(0.0022756 -9.56172e-06 -2.87873e-05)
(0.00231843 -1.72009e-05 -5.89044e-05)
(0.00228799 -2.56889e-05 -7.93751e-05)
(0.00228719 -3.58595e-05 -0.000108338)
(0.00219992 -4.8427e-05 -0.000115138)
(0.00230638 -1.73547e-05 -2.44461e-06)
(0.00232018 -1.55516e-05 5.96334e-06)
(0.0023425 -1.52798e-05 8.11961e-06)
(0.0023425 -1.52798e-05 8.11961e-06)
(0.0023425 -1.52798e-05 8.11961e-06)
(0.00232599 -1.54663e-05 -1.05858e-06)
(0.00235735 -1.54235e-05 7.17107e-06)
(0.00235735 -1.54235e-05 7.17107e-06)
(0.00235735 -1.54235e-05 7.17107e-06)
(0.00227888 -3.79637e-06 -1.28369e-06)
(0.00227888 -3.79637e-06 -1.28369e-06)
)
;
    }
    procBoundary5to4
    {
        type            processor;
        value           nonuniform List<vector> 
12
(
(0.00232559 -2.16651e-05 -8.34734e-06)
(0.0023509 -1.77881e-05 -7.39728e-06)
(0.00230337 -7.97153e-06 -8.25674e-06)
(0.00224842 7.51133e-06 -1.15869e-05)
(0.00233787 -2.23549e-05 -4.26422e-06)
(0.00236026 -1.99946e-05 -3.54374e-06)
(0.00232459 -1.22519e-05 -6.78704e-06)
(0.00227579 -2.1013e-06 -1.30202e-05)
(0.0023016 -2.17983e-05 -4.01747e-06)
(0.00231238 -1.97529e-05 -3.7715e-06)
(0.00229275 -1.44951e-05 -6.24265e-06)
(0.00226739 -6.91667e-06 -1.17427e-05)
)
;
    }
    procBoundary5to7
    {
        type            processor;
        value           nonuniform List<vector> 
44
(
(0.00228456 1.00936e-05 -2.66407e-06)
(0.00226525 5.4889e-06 -9.47072e-06)
(0.00230269 1.5995e-06 -2.26278e-05)
(0.00231539 -4.44445e-06 -4.12612e-05)
(0.00234579 -1.01536e-05 -6.17724e-05)
(0.00229982 -1.20424e-05 -8.13436e-05)
(0.00227699 -1.33465e-05 -0.000100547)
(0.00221564 -1.20727e-05 -0.000118527)
(0.00225629 7.27935e-06 -3.00268e-06)
(0.00228456 1.00936e-05 -2.66407e-06)
(0.00225612 4.81921e-07 -1.70427e-05)
(0.00229166 -2.20378e-06 -3.09791e-05)
(0.00228004 -7.34188e-06 -4.27488e-05)
(0.00230085 -1.21934e-05 -5.85397e-05)
(0.00226961 -1.59285e-05 -7.20143e-05)
(0.00226284 -1.83287e-05 -8.41029e-05)
(0.00219739 -2.08383e-05 -9.56917e-05)
(0.00222277 4.09669e-06 -1.11834e-05)
(0.00225612 4.81921e-07 -1.70427e-05)
(0.00227974 4.64983e-06 -1.13285e-05)
(0.00225612 4.81921e-07 -1.70427e-05)
(0.00229166 -2.20378e-06 -3.09791e-05)
(0.00226343 -1.18713e-05 -4.17185e-05)
(0.00227793 -1.70238e-05 -5.5642e-05)
(0.00224446 -2.23803e-05 -6.5469e-05)
(0.00223661 -2.67234e-05 -7.59743e-05)
(0.00217391 -3.21213e-05 -7.79041e-05)
(0.00225609 -2.39456e-07 -2.02274e-05)
(0.00229034 4.90182e-07 -2.28652e-05)
(0.00227269 3.86645e-07 -2.49022e-05)
(0.00226343 -1.18713e-05 -4.17185e-05)
(0.00229878 1.70973e-06 -3.51532e-05)
(0.00226343 -1.18713e-05 -4.17185e-05)
(0.00227793 -1.70238e-05 -5.5642e-05)
(0.00222798 -2.81054e-05 -6.0773e-05)
(0.00221741 -3.23742e-05 -7.12219e-05)
(0.00215731 -4.18487e-05 -7.01281e-05)
(0.00225293 -2.63161e-06 -1.75694e-05)
(0.00226812 -2.15516e-06 -1.87438e-05)
(0.0022587 -2.22476e-06 -2.40093e-05)
(0.00228269 -2.20966e-06 -3.19402e-05)
(0.00225824 -4.91846e-06 -4.35115e-05)
(0.00222798 -2.81054e-05 -6.0773e-05)
(0.00225746 -6.94439e-06 -5.62327e-05)
)
;
    }
}


// ************************************************************************* //
