/*--------------------------------*- C++ -*----------------------------------*\
| =========                 |                                                 |
| \\      /  F ield         | OpenFOAM: The Open Source CFD Toolbox           |
|  \\    /   O peration     | Version:  4.x                                   |
|   \\  /    A nd           | Web:      www.OpenFOAM.org                      |
|    \\/     M anipulation  |                                                 |
\*---------------------------------------------------------------------------*/
FoamFile
{
    version     2.0;
    format      ascii;
    class       volScalarField;
    location    "13";
    object      particleRelTemp;
}
// * * * * * * * * * * * * * * * * * * * * * * * * * * * * * * * * * * * * * //

dimensions      [0 0 0 0 0 0 0];

internalField   nonuniform List<scalar> 
114
(
-4.31439e-08
1.03506e-07
2.14855e-07
2.51801e-07
2.82235e-07
2.25598e-07
-4.58973e-08
-5.82055e-08
6.1195e-08
1.70077e-07
2.37116e-07
3.20933e-07
2.80716e-07
6.94216e-08
1.11817e-07
3.3003e-08
7.02886e-08
1.57725e-07
2.3355e-07
3.55593e-07
3.63893e-07
-1.87899e-07
-9.09601e-08
-2.81463e-08
4.52678e-08
1.24539e-07
1.9427e-07
2.24576e-07
2.68867e-07
2.33311e-07
-2.2277e-07
-7.78375e-08
6.29239e-08
1.004e-07
1.57977e-07
2.01068e-07
2.41279e-07
3.09407e-07
2.40341e-07
-3.2332e-08
9.18379e-08
1.75536e-07
1.89008e-07
1.99213e-07
2.10841e-07
2.57794e-07
3.40401e-07
2.78536e-07
1.3137e-07
2.37402e-07
-1.50744e-07
-2.68987e-08
-2.5247e-09
7.75268e-08
1.17491e-07
1.20681e-07
2.06497e-07
2.95859e-07
2.3528e-07
-1.46987e-07
-1.40496e-08
4.48138e-08
1.26051e-07
1.74474e-07
1.82193e-07
2.29914e-07
3.23314e-07
2.58253e-07
-1.01507e-08
5.8348e-08
1.72686e-07
2.30474e-07
2.40066e-07
2.27643e-07
2.51698e-07
3.36063e-07
3.0722e-07
7.77308e-08
1.63511e-07
2.76531e-07
3.27513e-07
-5.57265e-08
-2.46815e-08
-5.87906e-08
3.05465e-08
7.89286e-08
9.3477e-08
1.85872e-07
3.06065e-07
2.67573e-07
-4.12914e-08
8.34511e-09
-1.87782e-08
7.08097e-08
1.21362e-07
1.60121e-07
2.30695e-07
3.03203e-07
2.99009e-07
2.14971e-08
6.21078e-08
1.20587e-07
1.87171e-07
2.43588e-07
2.3585e-07
2.87926e-07
3.59561e-07
3.47064e-07
8.23387e-08
1.00117e-07
2.59191e-07
3.336e-07
3.2469e-07
2.7614e-07
)
;

boundaryField
{
    inlet
    {
        type            calculated;
        value           nonuniform 0();
    }
    outlet
    {
        type            calculated;
        value           nonuniform List<scalar> 
12
(
2.25598e-07
2.80716e-07
3.63893e-07
2.33311e-07
2.40341e-07
2.78536e-07
2.3528e-07
2.58253e-07
3.0722e-07
2.67573e-07
2.99009e-07
3.47064e-07
)
;
    }
    wall
    {
        type            calculated;
        value           nonuniform List<scalar> 
66
(
-5.57265e-08
-4.12914e-08
2.14971e-08
8.23387e-08
-2.46815e-08
8.34511e-09
6.21078e-08
1.00117e-07
-5.87906e-08
-1.87782e-08
1.20587e-07
2.59191e-07
3.05465e-08
7.08097e-08
1.87171e-07
3.336e-07
7.89286e-08
1.21362e-07
2.43588e-07
3.2469e-07
9.3477e-08
1.60121e-07
2.3585e-07
2.7614e-07
1.85872e-07
2.30695e-07
2.87926e-07
3.06065e-07
3.03203e-07
3.59561e-07
2.67573e-07
2.99009e-07
3.47064e-07
-1.87899e-07
-1.50744e-07
-5.57265e-08
-9.09601e-08
-2.68987e-08
-2.46815e-08
-2.81463e-08
-2.5247e-09
-5.87906e-08
-4.31439e-08
4.52678e-08
7.75268e-08
3.05465e-08
1.03506e-07
1.24539e-07
1.17491e-07
7.89286e-08
2.14855e-07
1.9427e-07
1.20681e-07
9.3477e-08
2.51801e-07
2.24576e-07
2.06497e-07
1.85872e-07
2.82235e-07
2.68867e-07
2.95859e-07
3.06065e-07
2.25598e-07
2.33311e-07
2.3528e-07
2.67573e-07
)
;
    }
    procBoundary5to1
    {
        type            processor;
        value           nonuniform List<scalar> 
32
(
-1.26216e-07
1.24992e-08
2.3395e-07
3.54847e-07
4.49618e-07
1.99899e-07
-1.1749e-07
-1.58236e-07
2.67842e-09
1.58507e-07
3.69885e-07
4.48462e-07
2.41479e-07
7.57945e-08
1.62921e-08
1.601e-08
7.71049e-08
1.55581e-07
2.53443e-07
3.29228e-07
4.98439e-07
-3.2516e-07
-2.02499e-07
-1.19011e-07
-1.19011e-07
-1.19011e-07
-1.54682e-07
-7.1807e-08
-7.1807e-08
-7.1807e-08
5.22249e-08
5.22249e-08
)
;
    }
    procBoundary5to4
    {
        type            processor;
        value           nonuniform List<scalar> 
12
(
-4.0325e-07
-2.92268e-07
-1.20204e-07
4.42954e-08
-3.35421e-07
-2.57331e-07
-1.28982e-07
1.18675e-08
-2.40245e-07
-1.79068e-07
-1.22081e-07
-8.98558e-08
)
;
    }
    procBoundary5to7
    {
        type            processor;
        value           nonuniform List<scalar> 
44
(
2.60579e-07
2.52259e-07
1.87016e-07
1.31771e-07
1.52606e-07
2.19397e-07
3.83905e-07
5.29914e-07
2.22241e-07
2.60579e-07
2.72269e-07
2.28098e-07
2.2122e-07
1.96272e-07
2.86443e-07
3.73067e-07
2.94824e-07
2.5288e-07
2.72269e-07
2.91648e-07
2.72269e-07
2.28098e-07
1.35715e-07
2.19751e-07
2.67587e-07
3.70159e-07
2.32072e-07
1.30018e-07
2.88593e-07
2.96714e-07
1.35715e-07
1.87828e-07
1.35715e-07
2.19751e-07
2.62935e-07
3.54517e-07
2.70167e-07
-7.51921e-08
8.99502e-08
2.53447e-07
1.99827e-07
1.88901e-07
2.62935e-07
2.23247e-07
)
;
    }
}


// ************************************************************************* //
