/*--------------------------------*- C++ -*----------------------------------*\
| =========                 |                                                 |
| \\      /  F ield         | OpenFOAM: The Open Source CFD Toolbox           |
|  \\    /   O peration     | Version:  4.x                                   |
|   \\  /    A nd           | Web:      www.OpenFOAM.org                      |
|    \\/     M anipulation  |                                                 |
\*---------------------------------------------------------------------------*/
FoamFile
{
    version     2.0;
    format      ascii;
    class       volScalarField;
    location    "13";
    object      thCond;
}
// * * * * * * * * * * * * * * * * * * * * * * * * * * * * * * * * * * * * * //

dimensions      [1 1 -3 -1 0 0 0];

internalField   nonuniform List<scalar> 
114
(
190.185
189.998
189.996
189.916
189.882
189.897
190.19
190.209
190.084
189.929
189.74
189.699
189.83
190.046
190.138
189.928
189.935
189.933
189.739
189.824
189.701
190.336
190.366
190.055
190.053
189.84
189.736
189.707
189.821
189.883
190.112
190.036
189.814
189.799
189.595
189.537
189.662
189.498
189.693
189.949
190.114
189.808
189.649
189.611
189.519
189.454
189.484
189.645
189.794
189.991
190.215
189.98
190.002
189.815
189.716
189.678
189.632
189.654
189.795
190.15
189.866
189.916
189.726
189.531
189.487
189.365
189.548
189.746
189.92
189.882
189.686
189.622
189.247
189.338
189.261
189.257
189.361
190.13
189.626
189.441
189.473
190.691
190.237
190.332
189.926
189.875
189.939
189.746
189.779
189.879
190.26
190.079
190.207
189.916
189.622
189.654
189.787
189.646
189.781
190.084
189.953
189.632
189.625
189.501
189.355
189.519
189.511
189.566
190.018
189.933
189.595
189.618
189.266
189.407
)
;

boundaryField
{
    inlet
    {
        type            zeroGradient;
    }
    outlet
    {
        type            zeroGradient;
    }
    wall
    {
        type            zeroGradient;
    }
    procBoundary5to1
    {
        type            processor;
        value           nonuniform List<scalar> 
32
(
190.584
190.598
190.274
190.315
190.565
190.912
190.823
190.63
190.458
190.311
190.267
190.341
190.807
190.635
190.646
190.24
190.199
190.084
190.121
190.158
190.67
190.698
190.608
190.214
190.214
190.214
190.43
190.076
190.076
190.076
190.326
190.326
)
;
    }
    procBoundary5to4
    {
        type            processor;
        value           nonuniform List<scalar> 
12
(
190.149
190.064
190.215
190.226
189.991
189.945
190.039
190.075
190.17
190.056
190.122
190.182
)
;
    }
    procBoundary5to7
    {
        type            processor;
        value           nonuniform List<scalar> 
44
(
189.897
189.954
189.814
189.458
189.394
189.505
189.733
189.542
189.951
189.897
189.756
189.574
189.493
189.416
189.269
189.319
189.456
190.167
189.756
189.698
189.756
189.574
189.524
189.487
189.355
189.446
189.561
189.891
189.711
189.629
189.524
189.677
189.524
189.487
189.597
189.584
189.678
190.039
189.942
189.638
189.607
189.69
189.597
189.821
)
;
    }
}


// ************************************************************************* //
