/*--------------------------------*- C++ -*----------------------------------*\
| =========                 |                                                 |
| \\      /  F ield         | OpenFOAM: The Open Source CFD Toolbox           |
|  \\    /   O peration     | Version:  4.x                                   |
|   \\  /    A nd           | Web:      www.OpenFOAM.org                      |
|    \\/     M anipulation  |                                                 |
\*---------------------------------------------------------------------------*/
FoamFile
{
    version     2.0;
    format      ascii;
    class       volVectorField;
    location    "44";
    object      GField;
}
// * * * * * * * * * * * * * * * * * * * * * * * * * * * * * * * * * * * * * //

dimensions      [1 -2 -1 0 0 0 0];

internalField   nonuniform List<vector> 
114
(
(91.1397 3.34463 0.495013)
(9.41932 0.707817 -1.03072)
(77.9201 1.6605 2.81201)
(3.00368e-05 5.31327e-06 -8.26534e-06)
(53.9754 -1.24523 6.47265)
(3.61343 1.16979 -0.306529)
(0.0883936 -0.0182551 -0.0141939)
(88.5843 3.56027 0.951912)
(0.302056 -0.0838882 -0.0813262)
(84.9433 3.83845 5.03679)
(4.08151 -1.20522 -1.86269)
(73.1788 8.59787 13.0232)
(18.9645 -2.67325 -15.2778)
(79.4832 2.05593 0.316343)
(4.36651e-05 1.41475e-07 3.1634e-06)
(78.0731 0.904493 1.15879)
(4.19328e-05 -4.09643e-06 -5.63086e-06)
(75.221 -1.11783 2.51391)
(3.85348e-05 -1.07566e-07 -1.06967e-05)
(64.3783 -4.33007 4.04836)
(19.9878 0.533021 -1.35473)
(45.3102 -1.00686 0.638585)
(106.48 -1.08805 2.23941)
(43.5803 -1.41135 2.42804)
(110.32 0.276965 3.51264)
(39.2738 -2.98806 5.06157)
(115.445 2.69825 2.04316)
(31.2007 -6.75939 9.79637)
(126.666 7.16528 -2.8382)
(21.279 -19.9191 23.2623)
(10.017 -1.23867 0.175117)
(92.329 -0.0284747 0.838922)
(4.08324 -0.767936 0.196885)
(93.1235 1.84019 0.292102)
(2.32612 -0.692634 0.30459)
(92.7427 5.32878 -0.407417)
(9.08289 -4.71408 2.74968)
(88.3028 11.4652 -3.19697)
(27.9893 -28.757 19.3704)
(0.251545 -0.0394525 0.0311103)
(87.8945 0.896043 0.145159)
(4.20906e-05 -7.44726e-06 1.12864e-05)
(88.268 0.779347 0.970748)
(2.38795 -0.810049 0.745412)
(90.2181 0.23583 2.29248)
(8.64758 -3.92846 3.71624)
(85.7922 6.22262 -2.0521)
(19.9124 -10.0349 9.71602)
(3.98787e-05 -4.2308e-06 1.61484e-06)
(84.0502 -0.68414 -0.437948)
(41.7869 0.249823 -0.993501)
(101.009 0.233659 0.104197)
(39.0063 0.917991 -0.772812)
(102.651 1.06947 0.15819)
(35.3123 1.33722 0.373756)
(104.032 1.89316 -0.120335)
(26.9013 1.30403 3.55937)
(103.385 2.20786 -5.95647)
(13.6869 0.623317 13.6844)
(21.4133 -0.895323 -0.246236)
(94.3972 -0.183622 0.806268)
(17.6911 -1.10762 0.162029)
(96.5435 1.47625 -0.319974)
(14.0938 -1.65222 0.955612)
(98.4132 5.54138 -2.47606)
(12.7943 -2.99748 3.18186)
(100.902 12.3616 -9.01822)
(15.7924 -11.4039 18.301)
(4.05342 -0.184604 0.176206)
(88.7097 0.858266 -0.220789)
(3.96048e-05 -8.14571e-07 6.14322e-06)
(86.803 2.05487 -0.224831)
(3.78241e-05 -3.42844e-06 5.32612e-06)
(82.457 2.09806 -0.890118)
(7.86803 -1.30897 3.05532)
(75.1504 2.15342 -5.18837)
(26.9771 -9.92756 30.2332)
(6.23127 -0.240562 0.56755)
(89.0763 0.835384 -0.0122944)
(3.69316 -0.147536 0.632984)
(90.5705 0.393523 -0.283942)
(66.2891 -0.531812 2.24524)
(117.184 -0.557282 2.86084)
(69.0516 -0.38682 3.27546)
(125.154 -0.143155 2.17203)
(69.1083 -1.58395 6.69079)
(140.578 0.577734 0.251958)
(63.3229 -5.60855 15.2667)
(175.488 3.26611 -7.24192)
(34.0023 -22.999 39.7592)
(52.3749 -2.28354 1.15185)
(108.674 -1.51636 1.86014)
(53.2753 -2.88223 1.29829)
(114.424 -0.233858 0.4154)
(51.2171 -4.27969 2.52998)
(122.374 2.26761 -2.29748)
(43.2945 -7.79561 6.09683)
(134.431 9.52595 -9.75262)
(20.0061 -18.146 13.8932)
(44.3082 -1.70521 1.26346)
(103.151 -1.00407 1.73004)
(43.4651 -2.41893 2.15107)
(107.3 -0.565598 0.795639)
(42.7748 -3.39501 5.23533)
(115.137 0.795706 -2.74029)
(39.3137 -5.2592 11.9088)
(134.252 4.57413 -12.0241)
(24.454 -7.77043 30.97)
(42.3236 -1.80013 0.797366)
(102.173 -1.2853 0.609677)
(40.4373 -2.66067 0.788198)
(104.936 -1.51251 -1.19908)
(36.9035 -4.31682 1.68761)
(110.23 -0.860689 -2.40345)
)
;

boundaryField
{
    inlet
    {
        type            calculated;
        value           nonuniform 0();
    }
    outlet
    {
        type            calculated;
        value           nonuniform List<vector> 
12
(
(7.92942 2.56702 -0.672656)
(41.6972 -5.87767 -33.5913)
(44.1153 1.17644 -2.99005)
(46.729 -43.7424 51.0841)
(61.8001 -63.4951 42.7696)
(44.0312 -22.1897 21.4845)
(30.1367 1.37246 30.1312)
(34.8198 -25.1438 40.3508)
(60.1745 -22.1442 67.4376)
(74.5921 -50.4538 87.2214)
(44.0811 -39.9824 30.612)
(54.2452 -17.2368 68.6993)
)
;
    }
    wall
    {
        type            calculated;
        value           uniform (0 0 0);
    }
    procBoundary5to1
    {
        type            processor;
        value           nonuniform List<vector> 
32
(
(117.298 2.15551 -3.99618)
(45.419 1.76189 -10.5349)
(122.829 3.37472 -0.0211491)
(35.5041 0.375474 -17.4494)
(129.399 4.53699 10.4808)
(20.0621 -2.34682 -30.31)
(27.3286 -2.94073 -3.76034)
(107.95 0.745798 0.338721)
(26.3543 -5.47299 -6.70197)
(113.04 3.96715 3.55121)
(25.1114 -10.8387 -12.4098)
(119.843 12.7271 12.3002)
(19.6656 -25.7144 -25.8309)
(91.9485 -0.129039 0.348094)
(6.81015 -0.538615 -2.19661)
(92.4309 1.42565 0.137955)
(7.30179 -1.25687 -3.36298)
(91.9765 2.86565 2.06792)
(12.7754 -5.05977 -7.60425)
(86.742 8.96461 8.20229)
(27.436 -22.5619 -16.1077)
(37.7115 0.284594 -1.49848)
(98.6262 1.50594 -0.596556)
(25.9586 1.17423 -1.47259)
(25.9586 1.17423 -1.47259)
(25.9586 1.17423 -1.47259)
(5.33546 -0.775093 -0.541507)
(89.4111 1.84923 -1.13577)
(89.4111 1.84923 -1.13577)
(89.4111 1.84923 -1.13577)
(3.74058e-05 -4.10299e-07 2.84218e-06)
(3.74058e-05 -4.10299e-07 2.84218e-06)
)
;
    }
    procBoundary5to4
    {
        type            processor;
        value           nonuniform List<vector> 
12
(
(102.819 -1.63257 0.581984)
(91.5989 -1.7462 0.917288)
(87.5506 0.483438 -0.524712)
(84.032 0.0736746 0.192109)
(100.045 -0.466343 0.410428)
(93.0031 -1.40708 1.17422)
(88.6712 0.165077 0.841763)
(88.1366 -0.187794 0.391031)
(111.292 -0.998591 3.06621)
(104.723 -1.92848 2.46784)
(100.33 -0.766641 2.66835)
(99.7842 -1.18426 1.59489)
)
;
    }
    procBoundary5to7
    {
        type            processor;
        value           nonuniform List<vector> 
44
(
(87.9129 0.996666 -0.165756)
(1.47537 0.333586 -0.482218)
(87.9937 1.50435 0.0408604)
(0.00041621 0.000121876 -0.000179281)
(85.0827 2.2675 2.33478)
(3.29498e-05 1.01846e-05 -2.04403e-05)
(72.6631 -3.81524 10.5175)
(9.93577 4.10185 -4.86936)
(1.62337 0.196385 -0.332788)
(87.9129 0.996666 -0.165756)
(4.24994e-05 -6.88402e-06 1.57113e-06)
(84.0669 -1.14469 1.34341)
(3.74077e-05 -7.49675e-06 1.58087e-06)
(82.7823 -0.645382 2.78069)
(3.2958e-05 -6.57759e-06 -1.1382e-06)
(74.0608 5.61217 3.31508)
(18.4239 -4.26795 4.76462)
(3.98955e-05 -3.86319e-07 -3.64759e-07)
(4.24994e-05 -6.88402e-06 1.57113e-06)
(82.3397 -0.302348 0.107195)
(4.24994e-05 -6.88402e-06 1.57113e-06)
(84.0669 -1.14469 1.34341)
(6.28189 -0.369045 1.83326)
(91.6107 0.343217 0.0507792)
(12.4255 -0.829485 6.55429)
(86.6259 -0.361443 -7.1565)
(27.0741 -2.35979 32.6701)
(1.0254 0.00752095 0.119029)
(86.5655 0.306298 -0.0731374)
(4.0522e-05 5.36934e-07 6.12822e-06)
(6.28189 -0.369045 1.83326)
(85.8742 -0.566893 0.639725)
(6.28189 -0.369045 1.83326)
(91.6107 0.343217 0.0507792)
(33.7023 -9.10092 5.08629)
(123.959 3.81132 -5.75031)
(21.9329 -17.9217 17.1736)
(36.7877 -0.841257 0.646149)
(97.8427 -0.608202 0.0955437)
(33.5838 -1.48449 0.586493)
(98.2976 -0.978388 -0.693868)
(30.778 -2.52119 1.91427)
(33.7023 -9.10092 5.08629)
(99.976 -1.31907 -4.02723)
)
;
    }
}


// ************************************************************************* //
