/*--------------------------------*- C++ -*----------------------------------*\
| =========                 |                                                 |
| \\      /  F ield         | OpenFOAM: The Open Source CFD Toolbox           |
|  \\    /   O peration     | Version:  4.x                                   |
|   \\  /    A nd           | Web:      www.OpenFOAM.org                      |
|    \\/     M anipulation  |                                                 |
\*---------------------------------------------------------------------------*/
FoamFile
{
    version     2.0;
    format      ascii;
    class       surfaceScalarField;
    location    "44";
    object      phi;
}
// * * * * * * * * * * * * * * * * * * * * * * * * * * * * * * * * * * * * * //

dimensions      [0 3 -1 0 0 0 0];

internalField   nonuniform List<scalar> 
259
(
6.20528e-06
4.09262e-07
2.37683e-07
5.23625e-06
3.81828e-08
2.42163e-07
4.7906e-06
3.25702e-07
2.86471e-07
3.24076e-06
-6.97012e-08
5.83004e-07
3.60555e-06
4.3405e-07
2.10414e-07
-8.79545e-08
1.37327e-06
5.34117e-06
-1.54783e-09
1.15686e-08
5.48889e-06
2.64298e-07
7.36873e-08
5.11364e-06
-5.75915e-09
1.46946e-08
5.51378e-06
1.61472e-07
2.73613e-07
4.6114e-06
-7.31445e-08
5.56165e-08
5.71394e-06
2.54757e-07
5.79741e-07
-1.31837e-07
2.47792e-07
4.87292e-06
2.76501e-08
4.72011e-06
1.91033e-12
4.79231e-06
1.26214e-07
4.54121e-06
4.48723e-08
4.62378e-06
2.83855e-07
3.87678e-06
2.21549e-07
5.23153e-06
1.1475e-07
5.02042e-07
9.18455e-06
-1.32779e-07
-2.17074e-08
9.21031e-06
-6.62551e-08
1.38396e-07
9.30046e-06
-1.28814e-07
9.69678e-08
9.19542e-06
1.25438e-07
2.1729e-07
9.33587e-06
-2.18029e-07
3.19741e-07
9.03178e-06
4.75797e-07
1.14759e-07
9.50945e-06
-6.80694e-07
7.86032e-07
9.13325e-06
1.10423e-06
-5.17615e-07
-2.88741e-06
2.17643e-06
6.17313e-06
-7.61083e-08
-4.57819e-09
5.94077e-06
5.15354e-08
9.72506e-08
5.84844e-06
-4.58543e-08
2.09381e-08
5.89401e-06
1.55223e-07
-1.66532e-09
5.7061e-06
-8.9531e-08
7.41043e-08
6.29641e-06
3.29497e-07
-1.70391e-07
5.83277e-06
-5.11802e-07
3.50361e-07
7.19176e-06
1.04699e-06
-7.22009e-07
-2.2958e-06
2.22961e-06
5.3146e-06
-2.20428e-09
1.2091e-08
5.38608e-06
1.25043e-08
-4.79559e-09
5.34023e-06
7.92041e-13
5.59922e-06
4.41385e-08
5.55888e-06
4.34349e-08
6.11267e-06
8.39846e-08
5.65687e-06
3.98161e-07
6.54297e-06
-4.25599e-07
2.35958e-06
5.08933e-06
3.38195e-08
-2.67335e-08
8.63764e-06
-3.80015e-08
7.44749e-08
8.59719e-06
2.97725e-09
1.75871e-07
8.55612e-06
-1.07473e-08
1.48786e-07
8.48458e-06
1.50785e-07
1.38039e-07
8.40242e-06
-1.78523e-08
4.19753e-07
8.06987e-06
4.40197e-07
7.10946e-09
7.8365e-06
-9.90239e-08
1.11843e-06
7.24104e-06
8.62417e-07
-7.84566e-07
-6.36334e-07
3.17321e-06
6.99367e-06
-6.43241e-08
5.37936e-08
6.89591e-06
3.9897e-08
1.58095e-07
6.88545e-06
-6.60019e-08
8.66473e-08
6.81977e-06
2.09175e-07
5.62474e-09
6.76774e-06
-9.85463e-08
2.0683e-07
6.86772e-06
4.53032e-07
-2.83204e-07
6.82614e-06
-2.57724e-07
5.50645e-07
7.21859e-06
8.61365e-07
-1.11341e-06
-1.26832e-06
1.91041e-06
5.59082e-06
-2.48791e-08
8.52975e-08
5.43592e-06
1.00402e-07
8.95967e-08
5.25078e-06
-8.43e-09
1.27567e-07
5.32529e-06
1.45038e-07
3.37741e-08
4.98083e-06
3.1057e-07
5.58988e-06
-2.15872e-07
4.9653e-06
8.89041e-07
6.3193e-06
-1.02216e-06
3.63383e-06
5.74605e-06
8.0667e-08
5.71674e-06
3.54303e-08
5.67142e-06
8.38287e-08
-8.80743e-08
1.11151e-05
-1.66628e-07
1.14138e-05
-1.22841e-07
1.1756e-05
-1.93443e-07
1.19164e-05
-2.23913e-08
1.26835e-05
-3.47271e-07
1.25221e-05
1.68529e-07
1.4435e-05
-7.94563e-07
1.28923e-05
7.58148e-07
-2.44057e-06
9.74946e-06
-2.36508e-07
9.934e-06
-1.49281e-07
1.01416e-05
-3.14353e-07
1.0172e-05
-4.72067e-08
1.04865e-05
-4.54929e-07
1.01901e-05
1.81675e-07
1.07194e-05
-7.73216e-07
9.52886e-06
8.35309e-07
-1.53317e-06
8.92242e-06
-2.07345e-07
8.99831e-06
-1.35573e-07
9.11199e-06
-3.00464e-07
9.22179e-06
-1.23237e-07
9.53367e-06
-4.56243e-07
9.50366e-06
-4.18759e-09
1.04693e-05
9.78645e-06
8.74214e-06
8.7542e-06
8.78359e-06
8.71973e-06
8.87761e-06
)
;

boundaryField
{
    inlet
    {
        type            calculated;
        value           nonuniform 0();
    }
    outlet
    {
        type            calculated;
        value           nonuniform List<scalar> 
12
(
4.93286e-07
3.06573e-06
3.27713e-06
1.12175e-05
4.61833e-06
3.23796e-06
6.88059e-06
8.16978e-06
4.49982e-06
1.85061e-05
1.05319e-05
1.34092e-05
)
;
    }
    wall
    {
        type            calculated;
        value           nonuniform List<scalar> 
66
(
0
0
0
0
0
-6.16298e-33
0
0
0
0
0
0
0
0
0
0
0
0
0
0
0
0
0
0
0
0
0
2.46519e-32
0
0
0
0
0
0
0
0
0
0
0
0
0
0
-1.2326e-32
0
0
0
0
0
0
0
0
0
0
0
0
0
0
0
0
0
0
0
0
0
1.2326e-32
0
)
;
    }
    procBoundary5to1
    {
        type            processor;
        value           nonuniform List<scalar> 
32
(
2.07636e-07
6.88687e-07
-1.66521e-07
1.03654e-06
-1.00926e-06
1.82695e-06
2.24937e-07
-7.64377e-08
4.04496e-07
-5.09521e-07
8.50202e-07
-1.50299e-06
2.4443e-06
-3.90118e-08
1.30875e-07
-7.67493e-08
2.00447e-07
-2.72246e-07
4.52307e-07
-7.29198e-07
1.04163e-06
4.99351e-08
-9.78988e-08
-7.05986e-06
-6.91885e-08
-5.83092e-08
2.09131e-08
-5.50694e-06
-2.31202e-07
1.73184e-08
-4.8113e-06
-2.02942e-09
)
;
    }
    procBoundary5to4
    {
        type            processor;
        value           nonuniform List<scalar> 
12
(
-9.08e-06
-6.24614e-06
-5.39857e-06
-5.1449e-06
-8.69582e-06
-7.02572e-06
-5.70347e-06
-5.80357e-06
-1.0874e-05
-9.62579e-06
-8.86628e-06
-8.71202e-06
)
;
    }
    procBoundary5to7
    {
        type            processor;
        value           nonuniform List<scalar> 
44
(
1.80944e-07
2.03844e-08
1.42633e-07
1.7334e-11
6.72961e-08
3.24366e-12
-4.85547e-07
2.78892e-07
1.95392e-08
3.57303e-08
-7.44671e-13
-2.16924e-08
-4.77614e-08
-2.44162e-08
-2.3262e-07
7.0124e-07
-8.4833e-07
-6.85366e-13
5.15133e-06
-5.84923e-08
-3.78887e-08
-6.29326e-08
-2.12224e-08
1.4384e-07
-1.24026e-07
1.0392e-07
-7.2309e-07
-1.4207e-08
6.75563e-08
-9.04955e-09
5.97781e-06
-1.03525e-08
-2.08266e-07
1.39852e-07
-8.49804e-07
4.95992e-07
-1.52208e-06
-1.56796e-07
-1.12203e-07
-2.46023e-07
-1.47453e-07
-4.05856e-07
8.86242e-06
-1.2885e-07
)
;
    }
}


// ************************************************************************* //
