/*--------------------------------*- C++ -*----------------------------------*\
| =========                 |                                                 |
| \\      /  F ield         | OpenFOAM: The Open Source CFD Toolbox           |
|  \\    /   O peration     | Version:  4.x                                   |
|   \\  /    A nd           | Web:      www.OpenFOAM.org                      |
|    \\/     M anipulation  |                                                 |
\*---------------------------------------------------------------------------*/
FoamFile
{
    version     2.0;
    format      ascii;
    class       volScalarField;
    location    "2.5";
    object      Cs;
}
// * * * * * * * * * * * * * * * * * * * * * * * * * * * * * * * * * * * * * //

dimensions      [1 -3 0 0 0 0 0];

internalField   nonuniform List<scalar> 
114
(
334.361
334.451
334.6
334.737
334.883
335.019
334.845
334.565
334.33
334.264
334.389
334.583
334.76
334.891
335.009
334.818
334.526
334.315
334.269
334.357
334.518
334.687
334.827
334.936
334.821
334.573
334.381
334.311
334.337
334.413
334.508
334.61
334.709
334.787
334.884
334.972
335.069
334.92
334.751
334.619
334.633
334.708
334.804
334.903
334.989
335.069
334.908
334.751
334.631
334.612
334.669
334.753
334.847
334.943
335.032
334.907
334.765
334.639
334.583
334.585
334.62
334.67
334.73
334.796
335.001
335.046
334.956
334.862
334.779
334.78
334.829
334.891
334.957
335.027
335.085
334.951
334.865
334.789
334.768
334.797
334.852
334.916
334.993
335.061
334.948
334.866
334.785
334.741
334.733
334.746
334.773
334.809
334.854
334.974
334.929
334.883
334.876
334.899
334.921
334.986
335.051
334.973
334.927
334.881
334.866
334.877
334.906
334.952
334.972
334.927
334.878
334.849
334.838
334.836
)
;

boundaryField
{
    inlet
    {
        type            calculated;
        value           uniform 335;
    }
    outlet
    {
        type            calculated;
        value           nonuniform 0();
    }
    wall
    {
        type            calculated;
        value           nonuniform List<scalar> 
66
(
334.845
334.818
334.821
334.565
334.526
334.573
334.33
334.315
334.381
334.361
334.264
334.269
334.311
334.451
334.389
334.357
334.337
334.6
334.583
334.518
334.413
334.737
334.76
334.687
334.508
334.883
334.891
334.827
334.61
335.019
335.009
334.936
334.709
334.821
334.907
334.948
334.972
334.573
334.765
334.866
334.927
334.381
334.639
334.785
334.878
334.311
334.583
334.741
334.849
334.337
334.585
334.733
334.838
334.413
334.62
334.746
334.836
334.508
334.67
334.773
334.61
334.73
334.809
334.709
334.796
334.854
)
;
    }
    procBoundary2to0
    {
        type            processor;
        value           nonuniform List<scalar> 
44
(
334.325
334.451
334.578
334.699
334.862
335.037
334.858
334.57
334.384
334.384
334.644
334.688
334.833
334.937
335.046
335.143
334.919
334.743
334.628
334.644
334.688
334.688
334.881
334.94
335.064
335.144
334.953
334.848
334.771
334.776
334.825
334.881
334.94
334.94
335.013
335.066
334.967
334.897
334.845
334.846
334.879
334.902
334.953
335.013
)
;
    }
    procBoundary2to3
    {
        type            processor;
        value           nonuniform List<scalar> 
12
(
335.122
335.124
335.048
334.802
335.16
335.157
335.116
334.865
335.085
335.131
335.114
334.898
)
;
    }
    procBoundary2to6
    {
        type            processor;
        value           nonuniform List<scalar> 
32
(
335.084
335.012
335.072
334.847
334.866
334.892
334.978
334.935
334.902
334.895
334.911
334.964
335.015
335.084
335.012
335.065
334.98
334.943
334.909
334.9
334.915
334.946
335.012
334.847
334.99
334.979
334.947
334.911
334.879
334.876
334.847
334.876
)
;
    }
}


// ************************************************************************* //
