/*--------------------------------*- C++ -*----------------------------------*\
| =========                 |                                                 |
| \\      /  F ield         | OpenFOAM: The Open Source CFD Toolbox           |
|  \\    /   O peration     | Version:  4.x                                   |
|   \\  /    A nd           | Web:      www.OpenFOAM.org                      |
|    \\/     M anipulation  |                                                 |
\*---------------------------------------------------------------------------*/
FoamFile
{
    version     2.0;
    format      ascii;
    class       volVectorField;
    location    "2.5";
    object      GField;
}
// * * * * * * * * * * * * * * * * * * * * * * * * * * * * * * * * * * * * * //

dimensions      [1 -2 -1 0 0 0 0];

internalField   nonuniform List<vector> 
114
(
(11.8832 0.242728 -0.305148)
(81.7227 -0.567589 -1.27209)
(3.82241 0.653087 -1.32281)
(73.9753 -0.610845 -11.7825)
(-5.71603 0.618734 -6.02624)
(52.9402 -4.5436 -57.5334)
(102.972 7.36732 -8.16574)
(39.1528 5.41529 -2.51776)
(100.931 7.38491 1.25083)
(23.7763 5.38138 0.999366)
(90.5163 2.74775 2.22316)
(8.57739 3.13043 -0.200883)
(85.3426 6.36361 -2.38322)
(11.4994 6.52084 -1.19044)
(85.3335 19.8156 -3.56791)
(107.17 10.0803 -6.87162)
(43.2458 6.52403 -1.79716)
(111.467 11.4014 0.523875)
(39.6472 8.51754 1.52914)
(105.911 9.88772 0.612099)
(27.0769 6.89192 -0.11347)
(98.6176 4.35504 -3.92382)
(20.4668 4.21626 -1.09329)
(94.7581 0.322373 -14.3187)
(109.998 5.12064 -5.90093)
(51.8284 3.33789 -1.44812)
(121.673 6.55149 1.75465)
(62.1781 5.56868 2.93224)
(125.498 10.0351 3.6456)
(68.1068 8.42638 2.95638)
(129.096 13.3434 3.08703)
(72.2818 10.4737 2.79526)
(130.296 16.3503 1.03144)
(-3.36636 -0.0300875 4.16765)
(64.4802 -0.0763096 5.11576)
(-56.3809 -1.1395 19.2478)
(32.8618 -4.45713 -9.63955)
(95.959 6.99609 -10.0173)
(26.0094 3.88802 -1.03918)
(88.9529 4.80529 3.19486)
(13.2291 3.59047 2.23802)
(83.4344 2.20262 2.06238)
(5.3625 3.59066 0.648928)
(80.2134 12.7194 -6.93396)
(5.13487 8.61679 -0.506002)
(79.1375 58.0902 -19.1539)
(101.145 11.0638 -8.06741)
(32.2833 6.0831 -0.259924)
(99.8914 10.7254 3.38001)
(25.9409 5.98278 4.76873)
(96.0408 6.06217 4.08514)
(13.7512 3.52025 3.52687)
(91.1412 1.67163 2.22276)
(4.6211 1.31804 2.84501)
(92.3186 -2.72689 1.84411)
(104.603 5.81801 -7.74721)
(44.4462 3.84905 -0.47363)
(113.237 8.12039 4.92671)
(58.9354 6.20475 8.00506)
(121.304 10.5716 9.2319)
(67.3524 7.91011 9.97841)
(125.753 13.7061 8.89635)
(72.9913 9.25887 12.5624)
(129.541 23.0219 8.30596)
(13.1082 0.471496 9.97443)
(123.937 -8.11866 57.1609)
(96.0398 6.02536 -6.35892)
(22.6247 2.40144 -0.565487)
(91.0908 4.14778 3.0768)
(12.1526 1.20507 1.69146)
(88.9579 0.876854 2.76696)
(6.64097 0.296175 0.838768)
(88.7881 1.54398 -5.10263)
(3.29749 -1.13231 -0.500438)
(94.0371 0.143255 -9.73898)
(100.673 10.8712 -5.3845)
(30.3913 5.50554 -0.143311)
(100.507 11.1548 3.13881)
(27.3786 5.43708 3.55075)
(100.382 6.93964 3.94399)
(17.5096 3.03174 1.55762)
(99.733 5.37003 3.27701)
(9.87069 1.64256 -1.58929)
(100.288 9.07334 -9.99056)
(103.332 5.03936 -4.76617)
(41.5805 3.00784 -0.0460104)
(111.355 7.81094 5.08749)
(60.1716 4.93258 7.55936)
(123.815 9.1854 10.7224)
(75.1115 4.77005 10.9862)
(131.243 7.4281 11.3599)
(85.6546 2.43732 11.2006)
(137.066 4.52643 8.25219)
(94.698 4.54382 -4.66771)
(17.7352 1.84566 -0.603274)
(86.6698 3.7336 2.82163)
(6.4417 0.852424 0.0221584)
(84.1152 0.449717 1.70983)
(2.76789 0.525067 -0.750034)
(82.8382 2.17156 -14.9413)
(-0.975016 -0.854202 -5.48752)
(99.431 11.6042 -4.2675)
(27.5179 5.40398 -0.236332)
(96.6004 10.6671 2.17276)
(21.4665 4.20043 2.0398)
(93.7681 5.03667 4.89829)
(9.35769 1.22395 1.06048)
(87.5911 4.04715 2.65734)
(102.741 6.08625 -3.26861)
(44.2282 3.76694 0.204601)
(110.7 8.9034 4.1687)
(63.4452 6.08801 6.3341)
(122.856 11.1185 9.06134)
(80.7792 8.37041 11.3644)
)
;

boundaryField
{
    inlet
    {
        type            calculated;
        value           uniform (67 0 0);
    }
    outlet
    {
        type            calculated;
        value           nonuniform 0();
    }
    wall
    {
        type            calculated;
        value           uniform (0 0 0);
    }
    procBoundary2to0
    {
        type            processor;
        value           nonuniform List<vector> 
44
(
(18.6069 -4.66251 0.0759815)
(86.9708 -3.29572 1.26159)
(6.81937 -2.97671 -0.494196)
(79.1931 -8.86851 -2.61421)
(3.99066 -3.6499 -0.64872)
(75.7457 -22.9067 -1.34644)
(102.33 0.553718 -8.02304)
(31.5173 0.557293 -2.08904)
(93.1317 0.6308 0.599238)
(93.1317 0.6308 0.599238)
(7.59665 0.228652 2.64103)
(74.3703 -0.597845 2.73234)
(1.9238 -2.17538 -0.0174592)
(75.1398 -16.0343 -3.49917)
(-0.754579 -8.23616 -3.41416)
(75.711 -70.0518 -17.5759)
(93.486 0.762678 -8.25517)
(21.2202 0.482596 0.438447)
(83.2797 -0.00896015 3.80107)
(7.59665 0.228652 2.64103)
(74.3703 -0.597845 2.73234)
(74.3703 -0.597845 2.73234)
(7.65254 0.38597 3.33192)
(97.8592 -4.62342 13.0046)
(-2.89159 3.21036 -1.25207)
(79.4603 3.6858 -6.63892)
(95.1811 0.655503 -3.12943)
(20.0923 0.456243 0.922317)
(90.798 0.547016 3.81875)
(10.9262 0.340519 2.78879)
(91.6557 1.67336 3.77077)
(7.65254 0.38597 3.33192)
(97.8592 -4.62342 13.0046)
(97.8592 -4.62342 13.0046)
(3.07406 -0.502095 -1.16221)
(98.8374 -10.7591 -3.22043)
(97.071 -1.47749 -1.43479)
(21.1791 -0.37413 0.510571)
(90.6523 -0.03417 4.08856)
(9.39016 -0.265901 1.13487)
(88.7006 0.0921015 3.18583)
(5.23504 -0.359591 0.4186)
(89.6035 -0.358364 -3.66204)
(3.07406 -0.502095 -1.16221)
)
;
    }
    procBoundary2to3
    {
        type            processor;
        value           nonuniform List<vector> 
12
(
(15.4144 -2.69736 21.541)
(27.4848 33.9122 -5.71295)
(33.5827 3.94079 1.41232)
(77.525 14.3418 1.59359)
(-294.381 7.49709 -152.954)
(7.41499 -4.63555 -1.31618)
(32.6816 3.83877 10.1898)
(83.8501 9.23404 13.8592)
(8.44176 0.344181 -6.61194)
(23.2988 -29.2313 -10.3914)
(7.28724 0.969037 -15.1828)
(100.374 0.594125 8.76195)
)
;
    }
    procBoundary2to6
    {
        type            processor;
        value           nonuniform List<vector> 
32
(
(78.5796 -8.42933 -58.578)
(-1.89851 -0.0216208 0.475869)
(73.4038 -6.50724 -1.90603)
(133.926 10.6809 9.40422)
(94.2698 9.55662 12.4737)
(141.56 24.0453 4.81848)
(89.4339 3.20522 2.52004)
(19.1868 1.61612 2.32086)
(78.9567 2.60949 3.41008)
(2.98399 0.187491 0.572288)
(72.8567 1.24788 0.753004)
(-6.3889 0.146793 1.70231)
(69.6223 7.02228 -6.6244)
(78.5796 -8.42933 -58.578)
(-1.89851 -0.0216208 0.475869)
(-55.0907 -0.385811 5.38997)
(98.8663 11.5119 0.0947563)
(23.8922 4.89132 1.2488)
(94.9893 9.87083 3.56997)
(11.0385 2.80948 1.87895)
(90.7534 5.56455 4.90041)
(2.21933 1.36444 0.779324)
(-1.89851 -0.0216208 0.475869)
(133.926 10.6809 9.40422)
(88.5436 15.5957 5.59701)
(102.935 5.84838 -0.630288)
(43.4265 3.45097 1.34342)
(110.485 8.66386 4.29486)
(60.2695 5.22105 6.04261)
(120.598 7.65932 8.19441)
(133.926 10.6809 9.40422)
(73.5567 4.77709 10.2099)
)
;
    }
}


// ************************************************************************* //
