/*--------------------------------*- C++ -*----------------------------------*\
| =========                 |                                                 |
| \\      /  F ield         | OpenFOAM: The Open Source CFD Toolbox           |
|  \\    /   O peration     | Version:  4.x                                   |
|   \\  /    A nd           | Web:      www.OpenFOAM.org                      |
|    \\/     M anipulation  |                                                 |
\*---------------------------------------------------------------------------*/
FoamFile
{
    version     2.0;
    format      ascii;
    class       volScalarField;
    location    "2.5";
    object      p;
}
// * * * * * * * * * * * * * * * * * * * * * * * * * * * * * * * * * * * * * //

dimensions      [1 -1 -2 0 0 0 0];

internalField   nonuniform List<scalar> 
114
(
5695.97
5709.29
5680.32
5701.33
5660.36
5710.91
5726.23
5708.27
5716.2
5692.35
5708.23
5673.2
5701.16
5652.6
5694.71
5726.58
5708.47
5715.89
5691.3
5708.27
5673.99
5703.54
5655.44
5703.29
5727.79
5707.06
5714.77
5689.74
5706.94
5671.22
5701.33
5651.69
5697.99
3808.83
3827.51
3794.37
3820.53
3850.62
3833.26
3841.06
3817.05
3831.78
3797.89
3823.69
3775.77
3820.85
3850.86
3833.27
3840.76
3816.12
3831.7
3798.41
3824.26
3779.8
3821.27
3850.51
3832.41
3839.7
3814.43
3830.88
3795.73
3823.83
3775.72
3820.31
1896.69
1940.93
1973.82
1956.24
1964.04
1939.27
1953.73
1919.78
1947.69
1897.56
1939.38
1973.59
1955.61
1964.26
1937.38
1955.43
1918.07
1948.14
1898.28
1943.43
1973.06
1955.26
1963.05
1936.9
1954
1917.73
1947.41
1896.93
1942.63
97.8728
79.9473
87.5658
62.431
76.3749
43.0048
64.7636
20.9094
97.3851
79.3331
87.5268
61.6589
77.0483
44.3879
63.2101
96.379
78.5623
86.1656
60.3561
76.0084
41.8442
)
;

boundaryField
{
    inlet
    {
        type            calculated;
        value           nonuniform List<scalar> 
12
(
5726.23
5726.58
5727.79
3850.62
3850.86
3850.51
1973.82
1973.59
1973.06
97.8717
97.3844
96.3785
)
;
    }
    outlet
    {
        type            calculated;
        value           nonuniform 0();
    }
    wall
    {
        type            calculated;
        value           nonuniform List<scalar> 
66
(
6664.75
6665.03
6666.25
6646.04
6646.13
6644.83
6653.3
6652.95
6652
6633.3
6629.33
6628.25
6626.78
6646.73
6645.49
6645.44
6644.05
6618.51
6611.11
6611.63
6608.54
6639.57
6639.45
6641.63
6638.91
6599.17
6591.33
6593.94
6589.56
6649.94
6633.71
6642.07
6636.13
5727.79
3850.51
1973.05
96.3787
5707.05
3832.41
1955.25
78.5559
5714.77
3839.7
1963.05
86.1627
5689.74
3814.43
1936.9
60.354
5706.94
3830.88
1954
76.0067
5671.22
3795.73
1917.73
41.842
5701.33
3823.83
1947.41
5651.7
3775.72
1896.93
5697.99
3820.31
1942.63
)
;
    }
    procBoundary2to0
    {
        type            processor;
        value           nonuniform List<scalar> 
44
(
5696.71
5711.83
5677.44
5702.86
5651.36
5697.18
5725.05
5706.69
5716.59
5716.59
3821.42
3830.2
3799.72
3824.52
3774.69
3822.26
3848.84
3832.79
3840.67
3821.42
3830.2
3830.2
1918.68
1947.33
1899.01
1945.59
1972.32
1954.99
1964.17
1938.59
1955.47
1918.68
1947.33
1947.33
25.0315
63.7002
96.913
79.5712
87.8102
63.5732
77.9884
47.948
68.6704
25.0315
)
;
    }
    procBoundary2to3
    {
        type            processor;
        value           nonuniform List<scalar> 
12
(
5635.82
5631.78
5633.32
5631.77
3734.56
3752.03
3755.3
3754.8
1875.65
1875.02
1878.36
1876.28
)
;
    }
    procBoundary2to6
    {
        type            processor;
        value           nonuniform List<scalar> 
32
(
65.8004
28.5469
65.845
66.8763
23.026
64.0492
-1779.41
-1797.51
-1791.15
-1813.68
-1806.1
-1827.44
-1806.59
65.8004
28.5469
-1841.68
-1780.3
-1799.05
-1790.33
-1817.78
-1800.97
-1837.69
28.5469
66.8763
-1809.72
-1781.29
-1799.52
-1791.78
-1817.98
-1801.98
66.8763
-1837.45
)
;
    }
}


// ************************************************************************* //
