/*--------------------------------*- C++ -*----------------------------------*\
| =========                 |                                                 |
| \\      /  F ield         | OpenFOAM: The Open Source CFD Toolbox           |
|  \\    /   O peration     | Version:  4.x                                   |
|   \\  /    A nd           | Web:      www.OpenFOAM.org                      |
|    \\/     M anipulation  |                                                 |
\*---------------------------------------------------------------------------*/
FoamFile
{
    version     2.0;
    format      ascii;
    class       volScalarField;
    location    "2.5";
    object      p_rgh;
}
// * * * * * * * * * * * * * * * * * * * * * * * * * * * * * * * * * * * * * //

dimensions      [1 -1 -2 0 0 0 0];

internalField   nonuniform List<scalar> 
114
(
72.9698
84.7757
53.3052
72.0167
28.5825
76.8428
95.0991
81.8409
93.7268
70.9922
84.7557
46.4791
71.4571
20.6869
60.808
95.9019
82.6987
93.6705
69.8496
85.3424
48.3456
75.0583
24.6136
70.6188
97.0537
80.499
91.4409
67.5811
84.3455
47.3532
75.8554
24.5114
69.1445
55.3922
72.9903
38.8553
63.9361
95.6862
80.2279
89.5058
65.3363
79.2303
44.2651
68.9539
20.0682
64.2416
96.0621
80.2241
89.0734
64.6404
79.5797
45.3515
70.1523
24.6029
65.0829
95.7219
79.2193
87.9232
63.2812
79.7015
44.1616
71.707
22.916
66.7732
18.7693
62.7596
96.1536
79.1038
87.3576
62.5904
76.7727
42.4709
70.0177
19.4915
60.9949
95.9531
78.4592
87.5248
60.7651
78.6525
40.9918
70.695
20.4051
65.1727
95.4311
78.0968
86.346
60.4339
77.5859
41.2382
70.7668
20.0871
65.5371
97.8728
79.9473
87.5658
62.431
76.3749
43.0048
64.7636
20.9094
97.3851
79.3331
87.5268
61.6589
77.0483
44.3879
63.2101
96.379
78.5623
86.1656
60.3561
76.0084
41.8442
)
;

boundaryField
{
    inlet
    {
        type            fixedFluxPressure;
        gradient        nonuniform List<scalar> 
12
(
-188.26
-220.812
-216.471
-64.4615
-74.1334
-75.2005
-17.904
-19.9008
-20.8991
-0.0765303
-0.0545732
-0.0391856
)
;
        value           nonuniform List<scalar> 
12
(
92.4844
92.8351
94.0472
94.7909
95.0325
94.6775
95.9049
95.6767
95.1408
97.8717
97.3844
96.3785
)
;
    }
    outlet
    {
        type            fixedValue;
        value           nonuniform 0();
    }
    wall
    {
        type            fixedFluxPressure;
        gradient        nonuniform List<scalar> 
66
(
0.357373
0.354708
0.21467
2.48912
2.10928
1.02671
1.36998
1.54861
0.678005
11.3904
5.93749
2.84741
1.19199
1.46387
1.32629
0.950103
0.690849
25.0543
8.66793
2.41484
0.721869
1.12092
0.650078
0.432888
0.134355
12.6187
5.08305
2.19002
0.291458
1.3323
0.82903
0.544585
0.127274
0.00455552
-0.0501773
-0.0655686
-0.0250655
-0.038184
-0.184004
-0.39266
-0.452628
-0.110551
-0.0720785
-0.113692
-0.199508
0.586212
-0.13927
-0.0433146
-0.149827
0.102441
-0.0337095
-0.0944472
-0.124847
-0.238722
-0.177659
-0.223536
-0.158211
-0.0647622
-0.155222
-0.14042
0.505082
-0.142443
-0.204207
-0.0564418
-0.0556658
-0.0963314
)
;
        value           nonuniform List<scalar> 
66
(
95.1042
95.907
97.0568
81.8764
82.7289
80.5137
93.7463
93.6927
91.4505
73.1325
71.077
69.8903
67.5982
84.7967
84.7746
85.356
84.3553
53.6631
46.603
48.38
47.3635
72.0327
71.4663
75.0645
75.8574
28.7628
20.7595
24.6449
24.5155
76.8618
60.8199
70.6266
69.1464
97.0538
95.7212
95.4302
96.3787
80.4985
79.2167
78.0912
78.5559
91.4393
87.9222
86.3444
86.1627
67.5895
63.2792
60.4333
60.354
84.3469
79.701
77.5845
76.0067
47.3498
44.159
41.235
41.842
75.8545
71.7047
70.7648
24.5186
22.914
20.0842
69.1437
66.7724
65.5358
)
;
    }
    procBoundary2to0
    {
        type            processor;
        value           nonuniform List<scalar> 
44
(
74.3224
87.3221
50.795
74.1788
19.9413
62.8261
93.7032
80.1867
93.2075
93.2075
69.5754
77.8663
45.7564
69.39
18.3466
64.8314
93.9124
79.8508
89.0076
69.5754
77.8663
77.8663
41.4283
69.7547
20.7376
66.8676
94.675
77.9334
87.546
61.9366
78.5391
41.4283
69.7547
69.7547
25.0315
63.7002
96.913
79.5712
87.8102
63.5732
77.9884
47.948
68.6704
25.0315
)
;
    }
    procBoundary2to3
    {
        type            processor;
        value           nonuniform List<scalar> 
12
(
0.0279353
-4.03741
-1.22347
1.35647
-23.0624
-5.55759
-1.83201
0.481636
-2.74031
-3.62409
-0.192527
-1.06405
)
;
    }
    procBoundary2to6
    {
        type            processor;
        value           nonuniform List<scalar> 
32
(
65.8004
28.5469
65.845
66.8763
23.026
64.0492
98.3833
80.0438
86.2205
63.64
71.3169
50.2697
71.4051
65.8004
28.5469
36.5981
97.4964
78.545
87.0727
59.5748
76.472
39.9207
28.5469
66.8763
68.1443
96.5054
78.0899
85.6361
59.2559
75.239
66.8763
39.7633
)
;
    }
}


// ************************************************************************* //
