/*--------------------------------*- C++ -*----------------------------------*\
| =========                 |                                                 |
| \\      /  F ield         | OpenFOAM: The Open Source CFD Toolbox           |
|  \\    /   O peration     | Version:  4.x                                   |
|   \\  /    A nd           | Web:      www.OpenFOAM.org                      |
|    \\/     M anipulation  |                                                 |
\*---------------------------------------------------------------------------*/
FoamFile
{
    version     2.0;
    format      ascii;
    class       volScalarField;
    location    "2.5";
    object      SPartFluid;
}
// * * * * * * * * * * * * * * * * * * * * * * * * * * * * * * * * * * * * * //

dimensions      [1 -3 -1 0 0 0 0];

internalField   nonuniform List<scalar> 
114
(
6.49005e-65
4.87095e-65
2.55206e-65
4.87797e-65
2.24892e-65
2.63726e-65
5.73097e-65
6.50062e-65
5.10508e-65
3.86536e-65
6.18587e-65
4.40824e-65
6.19357e-65
6.12187e-65
3.95483e-65
4.02832e-65
5.65118e-65
2.78526e-65
5.18148e-65
3.86756e-65
5.18315e-65
2.78733e-65
4.64892e-65
3.10092e-65
4.41519e-65
4.25911e-65
3.87127e-65
4.56623e-65
3.32818e-65
3.79306e-65
2.71005e-65
4.49304e-65
3.09962e-65
8.42853e-65
9.67281e-65
5.81562e-65
9.38662e-65
5.42037e-65
6.809e-65
7.6535e-65
7.41867e-65
7.03209e-65
6.5718e-65
8.66673e-65
7.90099e-65
5.19601e-65
6.0414e-65
8.5907e-65
8.27646e-65
7.57653e-65
7.34467e-65
7.3478e-65
7.04286e-65
7.12599e-65
6.27841e-65
5.88687e-65
5.18694e-65
6.96448e-65
5.80173e-65
6.88476e-65
5.88029e-65
5.88277e-65
6.50569e-65
4.26132e-65
7.59213e-65
7.98662e-65
7.27814e-65
4.9509e-65
5.48616e-65
5.71569e-65
5.87056e-65
7.10971e-65
8.35315e-65
6.58252e-65
4.88432e-65
5.3433e-65
6.03515e-65
7.11185e-65
9.04189e-65
7.2636e-65
6.41634e-65
7.50352e-65
7.43335e-65
8.37031e-65
5.3439e-65
7.50722e-65
6.03424e-65
6.95891e-65
4.63962e-65
6.49701e-65
8.28037e-65
4.87828e-65
6.74042e-65
4.79942e-65
8.1188e-65
8.34346e-65
6.56337e-65
6.40788e-65
6.2561e-65
6.26259e-65
7.74128e-65
6.89221e-65
6.88455e-65
7.65172e-65
6.48848e-65
7.18411e-65
6.87803e-65
8.35224e-65
5.26651e-65
6.5004e-65
6.26395e-65
7.11205e-65
5.48836e-65
6.34032e-65
)
;

boundaryField
{
    inlet
    {
        type            calculated;
        value           uniform 0;
    }
    outlet
    {
        type            calculated;
        value           nonuniform 0();
    }
    wall
    {
        type            calculated;
        value           uniform 0;
    }
    procBoundary2to0
    {
        type            processor;
        value           nonuniform List<scalar> 
44
(
4.71372e-65
4.25116e-65
4.33112e-65
3.24938e-65
4.18756e-65
7.21616e-65
2.86567e-65
4.41023e-65
3.24868e-65
3.24868e-65
4.55659e-65
9.11643e-65
6.57096e-65
8.27177e-65
5.89065e-65
5.12241e-65
8.05261e-65
6.11167e-65
6.10485e-65
4.55659e-65
9.11643e-65
9.11643e-65
7.02982e-65
7.19436e-65
6.35328e-65
4.57599e-65
7.27767e-65
7.57807e-65
7.6478e-65
7.95331e-65
8.34079e-65
7.02982e-65
7.19436e-65
7.19436e-65
5.41648e-65
2.32578e-65
5.26452e-65
5.87688e-65
7.80156e-65
9.18675e-65
4.39966e-65
9.19133e-65
7.11418e-65
5.41648e-65
)
;
    }
    procBoundary2to3
    {
        type            processor;
        value           nonuniform List<scalar> 
12
(
6.98041e-65
5.04403e-65
5.50816e-65
4.65216e-65
7.22013e-65
6.51993e-65
1.03937e-64
7.75411e-65
7.68363e-65
9.00015e-65
5.11891e-65
7.83043e-65
)
;
    }
    procBoundary2to6
    {
        type            processor;
        value           nonuniform List<scalar> 
32
(
6.74022e-65
6.03731e-65
7.12759e-65
5.10611e-65
5.80706e-65
4.95802e-65
1.03733e-64
7.57896e-65
4.94409e-65
7.41125e-65
9.3413e-65
5.56132e-65
7.88268e-65
6.74022e-65
6.03731e-65
6.49964e-65
5.8061e-65
7.89074e-65
6.41392e-65
8.49685e-65
7.33826e-65
7.57286e-65
6.03731e-65
5.10611e-65
7.26819e-65
4.95675e-65
7.19602e-65
5.41392e-65
6.10636e-65
7.5755e-65
5.10611e-65
8.73611e-65
)
;
    }
}


// ************************************************************************* //
