/*--------------------------------*- C++ -*----------------------------------*\
| =========                 |                                                 |
| \\      /  F ield         | OpenFOAM: The Open Source CFD Toolbox           |
|  \\    /   O peration     | Version:  4.x                                   |
|   \\  /    A nd           | Web:      www.OpenFOAM.org                      |
|    \\/     M anipulation  |                                                 |
\*---------------------------------------------------------------------------*/
FoamFile
{
    version     2.0;
    format      ascii;
    class       volVectorField;
    location    "2.5";
    object      Us;
}
// * * * * * * * * * * * * * * * * * * * * * * * * * * * * * * * * * * * * * //

dimensions      [0 1 -1 0 0 0 0];

internalField   nonuniform List<vector> 
114
(
(0.000120294 -6.12331e-05 -0.00015941)
(0.00017374 -7.74712e-05 -0.00014294)
(0.000162674 -0.000100939 -0.000107819)
(0.000149924 -8.14273e-05 -0.000100388)
(0.000133616 -6.77248e-05 -0.00012947)
(0.000123133 -3.08996e-05 -0.000128804)
(-2.63007e-06 -4.12498e-05 -4.595e-05)
(3.56612e-05 -4.29558e-05 -0.000120953)
(9.98819e-05 -5.4992e-05 -0.000167681)
(0.000143634 -5.28485e-05 -0.000172255)
(0.000204484 -6.41116e-05 -0.000141966)
(0.000195627 -9.56461e-05 -8.96225e-05)
(0.000145465 -8.03606e-05 -6.58623e-05)
(0.000115262 -6.39163e-05 -8.00198e-05)
(0.000103839 -1.80623e-05 -8.86775e-05)
(6.80925e-06 -1.44699e-05 -4.75845e-05)
(-1.79809e-05 5.81894e-06 -0.000113489)
(0.000126211 -2.85736e-05 -0.000208981)
(0.000155752 1.69584e-05 -0.000136617)
(0.000202332 -1.82337e-05 -0.000118321)
(0.000171607 -7.37115e-05 -7.81839e-05)
(0.000114274 -3.3757e-05 -5.0341e-05)
(0.000120754 -4.62765e-05 -5.34888e-05)
(9.73792e-05 -2.07267e-05 -6.21641e-05)
(-2.91998e-05 6.31086e-07 -2.97387e-05)
(-3.81607e-05 -2.47009e-06 -6.64169e-05)
(2.20439e-05 -1.63178e-05 -0.000100076)
(6.70726e-05 4.38248e-05 -8.91125e-05)
(0.00011043 1.52267e-05 -0.000102687)
(7.00867e-05 -1.92922e-05 -5.83373e-05)
(7.95314e-05 -9.89547e-06 -2.05291e-05)
(7.89618e-05 4.32969e-05 -2.49845e-05)
(7.54867e-05 -8.74033e-06 -1.97091e-05)
(0.000138029 -9.20371e-05 -0.000103443)
(0.000129819 -9.16821e-05 -0.000104277)
(0.000125018 -7.36816e-05 -0.000116947)
(0.000113256 -6.05159e-05 -0.000139547)
(1.62829e-05 -1.6397e-05 -3.94551e-05)
(5.30822e-05 -3.29224e-05 -0.000111802)
(8.62734e-05 -3.20104e-05 -0.000162191)
(0.00012114 -3.97663e-05 -0.000159196)
(0.000147884 -5.3848e-05 -0.000132761)
(0.000149707 -8.50587e-05 -8.51588e-05)
(0.000123387 -6.94434e-05 -6.66084e-05)
(0.000101285 -6.3379e-05 -7.58989e-05)
(0.000104563 -4.09734e-05 -9.1673e-05)
(2.38878e-05 -1.68712e-05 -5.18528e-05)
(3.85351e-05 -2.65799e-05 -9.52206e-05)
(8.5274e-05 -2.62415e-05 -0.000165949)
(0.000118757 -2.15833e-05 -0.000144687)
(0.000117274 -3.17813e-05 -0.000133961)
(0.000114447 -5.55296e-05 -7.23076e-05)
(0.000102162 -4.38127e-05 -5.38234e-05)
(9.12483e-05 -3.45267e-05 -4.98505e-05)
(8.55785e-05 -2.8301e-05 -4.47566e-05)
(8.38748e-06 -6.52301e-06 -2.57966e-05)
(1.47209e-05 -9.95562e-06 -6.69467e-05)
(3.8523e-05 -9.58275e-06 -0.000103789)
(5.26561e-05 -9.67189e-06 -8.33611e-05)
(6.22841e-05 -4.70783e-06 -9.93901e-05)
(5.27007e-05 -1.38207e-05 -4.67213e-05)
(5.00868e-05 -2.21926e-05 -2.33957e-05)
(5.15081e-05 -1.20449e-05 -2.76333e-05)
(4.60907e-05 -8.39344e-06 -9.73514e-06)
(9.26548e-05 -7.02535e-05 -9.72019e-05)
(9.55708e-05 -6.29477e-05 -0.000129264)
(2.02595e-05 -5.03252e-06 -3.71469e-05)
(5.28581e-05 -2.76999e-05 -8.52191e-05)
(7.86931e-05 -3.10234e-05 -0.000133039)
(8.01289e-05 -2.80845e-05 -0.00013346)
(0.000102505 -5.21655e-05 -0.000124024)
(8.88017e-05 -5.25657e-05 -7.99371e-05)
(8.41295e-05 -4.56527e-05 -6.40138e-05)
(7.26729e-05 -5.55702e-05 -6.60444e-05)
(6.79513e-05 -5.55236e-05 -8.18041e-05)
(2.07138e-05 -8.13374e-06 -3.05702e-05)
(5.15976e-05 -3.12474e-05 -8.29486e-05)
(7.2074e-05 -2.74489e-05 -0.000131344)
(7.18462e-05 -1.98361e-05 -0.000120722)
(8.13356e-05 -2.2764e-05 -0.000104204)
(7.25301e-05 -4.20765e-05 -6.47369e-05)
(6.74618e-05 -3.18094e-05 -4.17751e-05)
(4.49143e-05 -3.51108e-05 -4.1666e-05)
(4.06352e-05 -3.28635e-05 -4.43365e-05)
(1.32903e-05 -8.29113e-06 -2.62281e-05)
(4.29206e-05 -1.94946e-05 -6.30769e-05)
(4.73355e-05 -1.4653e-05 -6.34278e-05)
(7.79536e-05 -2.98121e-06 -6.80935e-05)
(5.03639e-05 -1.32067e-05 -6.6096e-05)
(2.78652e-05 -1.87557e-05 -4.09467e-05)
(2.41564e-05 -2.00424e-05 -3.63872e-05)
(2.67498e-05 -1.93979e-05 -2.46447e-05)
(2.22301e-05 -1.45987e-05 -2.51967e-05)
(1.81715e-05 -7.30941e-06 -2.94679e-05)
(4.62831e-05 -2.10754e-05 -6.70608e-05)
(6.56772e-05 -2.93366e-05 -9.93176e-05)
(5.46163e-05 -2.86404e-05 -0.000100456)
(5.7935e-05 -3.36616e-05 -9.28933e-05)
(4.55594e-05 -4.00174e-05 -6.8199e-05)
(4.77225e-05 -4.0907e-05 -5.32137e-05)
(1.29115e-05 -4.44467e-05 -5.54802e-05)
(1.37238e-05 -6.83479e-06 -1.96906e-05)
(4.92091e-05 -2.43563e-05 -6.97709e-05)
(4.84035e-05 -2.5103e-05 -8.01834e-05)
(4.64151e-05 -2.65025e-05 -8.98875e-05)
(4.56732e-05 -3.10097e-05 -7.87024e-05)
(3.63244e-05 -3.45913e-05 -5.59193e-05)
(2.17837e-05 -1.99828e-05 -3.4401e-05)
(1.01921e-05 -3.13853e-06 -1.49869e-05)
(2.92774e-05 -2.38042e-05 -5.42092e-05)
(4.74546e-05 -2.5268e-05 -6.45743e-05)
(3.35032e-05 -1.07335e-05 -4.29723e-05)
(2.50365e-05 -1.68446e-05 -4.73754e-05)
(9.80955e-06 -1.40297e-05 -2.45754e-05)
)
;

boundaryField
{
    inlet
    {
        type            zeroGradient;
    }
    outlet
    {
        type            zeroGradient;
    }
    wall
    {
        type            zeroGradient;
    }
    procBoundary2to0
    {
        type            processor;
        value           nonuniform List<vector> 
44
(
(0.000103141 -7.52513e-05 -0.000153375)
(0.000125579 -7.85323e-05 -0.000136333)
(0.000156477 -0.000108114 -0.000124946)
(0.000131914 -0.000102785 -0.000125931)
(0.000150447 -8.00081e-05 -0.000144757)
(6.83215e-05 -9.94061e-06 -0.000212521)
(-4.67171e-06 -2.0562e-05 -3.32719e-05)
(2.87213e-05 -4.98197e-05 -9.58337e-05)
(8.17486e-05 -6.29872e-05 -0.000138368)
(8.17486e-05 -6.29872e-05 -0.000138368)
(0.000120901 -5.19114e-05 -0.000155674)
(0.000138799 -6.54018e-05 -0.000129975)
(0.000123338 -8.69508e-05 -0.000113454)
(0.000129458 -9.64323e-05 -0.000128046)
(0.000120479 -7.91576e-05 -0.000134489)
(0.00011559 -3.85889e-05 -0.00018983)
(1.82563e-05 -1.85209e-05 -4.60717e-05)
(5.28568e-05 -3.37001e-05 -9.97465e-05)
(7.93812e-05 -3.94184e-05 -0.000132525)
(0.000120901 -5.19114e-05 -0.000155674)
(0.000138799 -6.54018e-05 -0.000129975)
(0.000138799 -6.54018e-05 -0.000129975)
(0.000102997 -6.77378e-05 -9.18297e-05)
(8.81121e-05 -6.22601e-05 -9.26315e-05)
(9.79917e-05 -6.54789e-05 -0.00010677)
(9.83007e-05 -7.05666e-05 -0.000123249)
(2.4509e-05 -9.88819e-06 -4.258e-05)
(5.76013e-05 -2.87833e-05 -8.7978e-05)
(8.32164e-05 -2.57956e-05 -0.00012008)
(0.000101904 -3.24381e-05 -0.000143383)
(0.000105427 -5.71494e-05 -0.000116054)
(0.000102997 -6.77378e-05 -9.18297e-05)
(8.81121e-05 -6.22601e-05 -9.26315e-05)
(8.81121e-05 -6.22601e-05 -9.26315e-05)
(5.93783e-05 -5.85934e-05 -7.52257e-05)
(6.02053e-05 -6.51539e-05 -9.05445e-05)
(1.90703e-05 -1.33134e-05 -3.98107e-05)
(4.71025e-05 -2.24943e-05 -6.83269e-05)
(7.90938e-05 -1.91535e-05 -9.8842e-05)
(8.34777e-05 -2.22268e-05 -9.4083e-05)
(8.34868e-05 -2.63075e-05 -8.16303e-05)
(6.73199e-05 -4.31219e-05 -7.82344e-05)
(6.14676e-05 -5.6265e-05 -7.77014e-05)
(5.93783e-05 -5.85934e-05 -7.52257e-05)
)
;
    }
    procBoundary2to3
    {
        type            processor;
        value           nonuniform List<vector> 
12
(
(0.00012701 -2.81143e-05 -0.000180409)
(0.00014142 5.74843e-06 -0.000111253)
(0.000123872 -2.8229e-05 -4.83109e-05)
(6.29571e-05 2.03953e-06 -3.36876e-05)
(0.000128746 -4.26971e-05 -0.000178417)
(0.000110171 -2.94565e-05 -0.000105202)
(9.32722e-05 -2.01034e-05 -5.61717e-05)
(4.16481e-05 -8.29362e-06 -2.33215e-05)
(6.58721e-05 -4.44991e-05 -0.00013515)
(5.30932e-05 -4.45188e-05 -8.51993e-05)
(3.5074e-05 -3.13447e-05 -5.20689e-05)
(1.70174e-05 -1.32999e-05 -1.75835e-05)
)
;
    }
    procBoundary2to6
    {
        type            processor;
        value           nonuniform List<vector> 
32
(
(1.29217e-05 -4.86725e-05 -6.60094e-05)
(1.02936e-05 -2.75126e-05 -3.05944e-05)
(1.85312e-06 -3.49044e-05 -4.0874e-05)
(6.6689e-06 -1.15623e-05 -2.03604e-05)
(8.57258e-06 -1.4603e-05 -1.65242e-05)
(-1.07806e-06 -6.69411e-06 -1.11653e-05)
(2.31493e-05 -1.30604e-05 -2.51219e-05)
(4.23274e-05 -2.48148e-05 -4.68525e-05)
(4.97314e-05 -2.43441e-05 -6.42248e-05)
(4.79858e-05 -1.86916e-05 -6.66369e-05)
(5.12166e-05 -2.15575e-05 -5.77751e-05)
(9.29071e-06 -3.43622e-05 -4.22063e-05)
(3.11845e-06 -3.92207e-05 -4.15255e-05)
(1.29217e-05 -4.86725e-05 -6.60094e-05)
(1.02936e-05 -2.75126e-05 -3.05944e-05)
(-1.10432e-05 -3.55767e-05 -3.73238e-05)
(3.47017e-05 -1.19754e-05 -2.03394e-05)
(4.30273e-05 -2.40731e-05 -4.53146e-05)
(4.15897e-05 -3.00708e-05 -5.17493e-05)
(2.64772e-05 -1.98344e-05 -5.26069e-05)
(2.15659e-05 -2.06373e-05 -5.1941e-05)
(3.17848e-06 -2.57979e-05 -3.74439e-05)
(1.02936e-05 -2.75126e-05 -3.05944e-05)
(6.6689e-06 -1.15623e-05 -2.03604e-05)
(-1.14819e-05 -2.58275e-05 -2.78768e-05)
(5.90552e-06 -3.07696e-06 -9.19732e-06)
(1.42769e-05 -2.35598e-05 -4.03955e-05)
(1.24956e-05 -9.4036e-06 -2.45126e-05)
(1.31303e-05 -1.5092e-05 -3.18353e-05)
(7.11233e-06 -1.26129e-05 -2.50737e-05)
(6.6689e-06 -1.15623e-05 -2.03604e-05)
(3.26835e-06 -1.17928e-05 -1.9727e-05)
)
;
    }
}


// ************************************************************************* //
