/*--------------------------------*- C++ -*----------------------------------*\
  =========                 |
  \\      /  F ield         | OpenFOAM: The Open Source CFD Toolbox
   \\    /   O peration     | Website:  https://openfoam.org
    \\  /    A nd           | Version:  4.x
     \\/     M anipulation  |
\*---------------------------------------------------------------------------*/
FoamFile
{
    version     2.0;
    format      ascii;
    class       vectorField;
    location    0;
    object      v;
}
// * * * * * * * * * * * * * * * * * * * * * * * * * * * * * * * * * * * * * //

356
(
( 5.75812e-09 -1.1204e-09 3.36833e-09 )  
( 3.27467e-09 2.27235e-10 1.66039e-09 )  
( -1.03028e-08 4.31169e-09 1.87823e-08 )  
( 1.2903e-09 1.24325e-09 1.65644e-09 )  
( -1.1494e-09 -1.05454e-09 2.1556e-09 )  
( 8.56953e-10 9.1609e-10 2.9113e-09 )  
( 1.45857e-09 -7.15724e-10 5.23832e-09 )  
( 6.54075e-10 6.21794e-10 1.19187e-09 )  
( 1.35455e-09 6.30327e-10 1.99854e-09 )  
( 2.18969e-09 9.00377e-10 1.75543e-09 )  
( 2.91159e-10 4.11134e-10 4.74366e-10 )  
( -2.21596e-09 -1.97208e-10 -3.20013e-09 )  
( -1.95681e-10 -6.93879e-10 4.5897e-09 )  
( 7.66233e-10 -1.63191e-09 6.35531e-09 )  
( 3.02582e-09 3.62559e-10 2.33069e-09 )  
( -1.54751e-09 -5.25311e-10 3.06026e-09 )  
( 6.73589e-10 -3.18593e-10 5.09727e-09 )  
( 1.67068e-09 -1.93191e-09 5.38347e-09 )  
( 2.68018e-09 -1.04499e-09 2.18119e-09 )  
( 9.25449e-10 -2.88961e-09 7.15706e-09 )  
( 2.7293e-09 -2.98546e-09 5.88848e-09 )  
( -5.93623e-09 1.01601e-09 1.26341e-08 )  
( 3.1538e-09 5.5173e-10 1.96862e-09 )  
( 1.46038e-09 -9.68077e-10 2.2478e-09 )  
( -9.59258e-10 -1.13843e-09 5.08696e-09 )  
( 2.75885e-09 3.22013e-10 2.08536e-09 )  
( 2.38766e-09 7.27022e-10 2.27469e-09 )  
( -6.99385e-10 -2.33785e-09 4.60222e-09 )  
( 1.02011e-09 8.20853e-10 1.36961e-09 )  
( 4.14647e-09 7.08076e-10 3.81169e-09 )  
( -6.45628e-10 -2.05925e-09 3.90378e-09 )  
( 2.244e-09 -9.65782e-10 2.52093e-09 )  
( -4.88539e-09 2.82074e-09 1.18386e-08 )  
( 8.87333e-10 7.10027e-10 1.3109e-09 )  
( 1.30281e-09 -5.4397e-10 1.83714e-09 )  
( 1.16113e-10 4.40516e-10 1.60919e-09 )  
( 1.50967e-09 -1.52252e-09 3.20111e-09 )  
( -4.45124e-12 1.03606e-09 2.5392e-09 )  
( 1.51037e-09 -6.9786e-11 3.27213e-10 )  
( 2.2439e-09 1.13781e-10 2.05114e-09 )  
( 9.62612e-10 1.80666e-10 8.02021e-10 )  
( 4.96667e-10 -1.54164e-09 2.09585e-09 )  
( -2.71912e-10 -1.0373e-09 2.25116e-09 )  
( 2.35178e-09 -4.5568e-09 6.29152e-09 )  
( 6.53336e-10 -1.5398e-09 3.87573e-09 )  
( 8.85206e-10 -1.75243e-10 -1.937e-10 )  
( -4.77824e-09 -3.36382e-09 7.03337e-09 )  
( 5.16785e-10 8.74875e-10 1.77029e-09 )  
( -2.26575e-10 -9.73046e-10 3.04732e-09 )  
( 3.61203e-09 -8.91348e-10 -2.22699e-09 )  
( 2.60839e-09 -3.03082e-10 2.27e-09 )  
( 2.81048e-12 -8.27239e-11 3.66681e-10 )  
( 6.32185e-10 -5.27049e-10 3.37829e-09 )  
( 3.00953e-09 -6.47596e-10 2.88464e-09 )  
( 2.9251e-09 -2.9441e-10 1.65222e-09 )  
( 2.99404e-09 -6.33618e-10 2.42424e-09 )  
( 3.39694e-09 -7.0921e-10 8.13329e-10 )  
( 3.25865e-09 -9.52276e-10 4.14101e-09 )  
( 1.34458e-09 6.62978e-10 1.68403e-09 )  
( 2.36136e-09 2.21428e-10 1.80522e-09 )  
( 8.07045e-10 6.54436e-10 1.33022e-09 )  
( -1.02082e-09 -3.47418e-10 1.31055e-09 )  
( 9.33396e-10 8.87649e-10 7.71667e-10 )  
( 2.57497e-09 -5.43639e-10 6.14697e-10 )  
( 1.50124e-09 -1.17979e-10 5.10575e-10 )  
( 2.4404e-10 1.97914e-10 6.71477e-10 )  
( -7.87726e-10 6.5484e-09 1.01102e-08 )  
( 8.98852e-10 -7.27178e-10 2.2351e-09 )  
( 8.94821e-10 -2.97032e-10 2.80333e-09 )  
( 9.40466e-10 1.79237e-10 2.78718e-10 )  
( 2.82844e-09 -1.77765e-10 3.44525e-09 )  
( 5.4682e-10 -9.73414e-10 5.00999e-09 )  
( 3.18754e-09 -7.982e-10 3.0118e-09 )  
( -8.02663e-10 6.18058e-12 2.67499e-09 )  
( 7.01144e-10 7.0025e-10 1.58176e-09 )  
( 2.38936e-09 1.46501e-09 2.20633e-09 )  
( -6.17584e-10 5.40847e-10 1.68372e-09 )  
( 3.54705e-09 2.96701e-10 2.27744e-09 )  
( 1.10269e-09 -1.30956e-09 3.41354e-09 )  
( 1.26151e-09 -1.07973e-09 2.9187e-09 )  
( 8.41168e-10 1.00025e-10 1.71698e-10 )  
( 1.10399e-09 1.10656e-09 1.59529e-09 )  
( 2.74347e-09 -9.28465e-10 2.03685e-09 )  
( 3.18479e-09 6.80493e-10 1.67046e-09 )  
( 9.09746e-10 7.92466e-10 1.03837e-09 )  
( 2.61307e-09 2.62008e-10 2.67055e-09 )  
( 2.04627e-09 9.74743e-10 1.81919e-09 )  
( 1.30285e-09 -4.68746e-10 4.10397e-09 )  
( 3.16415e-10 1.7322e-10 7.6239e-10 )  
( 2.23521e-10 2.02734e-10 9.59454e-10 )  
( 2.30256e-09 -8.88997e-10 4.19471e-09 )  
( 1.36406e-09 -1.73985e-09 9.87885e-10 )  
( -1.22418e-09 3.05992e-10 1.71153e-09 )  
( 1.09571e-09 -2.49387e-09 6.02526e-09 )  
( 2.02574e-09 -4.03441e-10 8.38955e-10 )  
( 2.48623e-09 8.36295e-10 1.93737e-09 )  
( 2.43936e-10 6.05195e-10 7.30453e-10 )  
( 2.75297e-09 1.80662e-11 2.09289e-09 )  
( -1.54769e-09 -1.81158e-09 6.7383e-09 )  
( 1.35095e-09 -8.13988e-10 3.4575e-09 )  
( -5.74397e-10 1.54003e-09 7.71264e-09 )  
( 8.04146e-10 -1.98442e-09 5.74911e-09 )  
( 5.29004e-10 3.72382e-10 1.57333e-09 )  
( 1.8808e-09 4.42481e-10 -6.79318e-10 )  
( -1.25883e-08 -5.15901e-09 1.09226e-08 )  
( 4.34237e-10 6.12533e-10 1.42663e-09 )  
( 2.8168e-09 -3.61122e-10 2.57242e-09 )  
( -1.76111e-09 6.53623e-11 2.24013e-09 )  
( 9.15766e-10 -1.83007e-09 8.68206e-10 )  
( -3.9969e-10 1.02981e-11 2.28252e-09 )  
( -3.26775e-10 -2.86628e-10 1.55662e-09 )  
( -3.98141e-10 1.60067e-10 1.31755e-09 )  
( 5.09387e-09 -7.4218e-10 4.47831e-09 )  
( -1.04086e-09 -5.98356e-10 2.98937e-09 )  
( 2.51718e-09 -1.11722e-11 1.57654e-09 )  
( -4.64961e-10 -4.63608e-09 7.94109e-09 )  
( 1.26324e-09 -8.89517e-10 -3.39652e-10 )  
( -2.57515e-10 -5.99939e-10 4.71776e-09 )  
( -1.16835e-09 2.86836e-09 1.00585e-08 )  
( 1.10956e-09 -7.4489e-10 3.03038e-09 )  
( 2.1119e-09 6.34334e-10 3.18899e-09 )  
( -6.38932e-10 1.42963e-09 3.40762e-10 )  
( -1.5264e-10 -4.3057e-11 -8.22947e-10 )  
( 3.63806e-09 2.89089e-10 3.20343e-09 )  
( 1.51305e-09 9.69432e-10 2.13851e-09 )  
( 3.7694e-10 4.32237e-10 6.00463e-10 )  
( -6.79592e-10 -8.58096e-10 2.43858e-09 )  
( 2.45856e-09 -3.42599e-10 2.834e-09 )  
( 3.49473e-09 8.75341e-11 2.39977e-09 )  
( 2.77916e-09 -6.70676e-10 1.41507e-09 )  
( 1.24448e-09 -6.35892e-10 5.49527e-09 )  
( 2.19399e-10 4.19115e-10 1.24102e-09 )  
( 2.09488e-09 -2.06227e-09 1.30472e-09 )  
( 4.70717e-10 4.30813e-10 5.59249e-10 )  
( 8.38283e-10 5.35122e-11 9.70438e-11 )  
( 9.48442e-10 1.31952e-09 1.66613e-09 )  
( 2.80302e-09 1.03756e-09 3.60368e-09 )  
( 2.53083e-09 3.41056e-10 1.9423e-09 )  
( 1.77168e-09 5.0145e-10 2.49369e-09 )  
( 1.79685e-09 5.38646e-11 1.2434e-09 )  
( 3.3496e-10 4.54873e-10 6.81699e-10 )  
( 4.37621e-09 -1.62859e-09 3.38603e-09 )  
( 6.82233e-11 4.21601e-10 1.27235e-09 )  
( 9.62027e-10 -8.43223e-10 4.07851e-09 )  
( 4.27865e-10 4.47773e-10 7.72279e-10 )  
( 2.40788e-09 9.26373e-10 1.61246e-09 )  
( 2.05902e-09 1.13436e-09 1.25101e-09 )  
( 5.94958e-09 7.98105e-10 2.21472e-09 )  
( 3.04261e-10 4.08972e-10 1.89405e-09 )  
( 1.01213e-09 1.80301e-10 8.29039e-10 )  
( 1.78172e-09 -3.96661e-10 1.29028e-09 )  
( 1.19315e-09 1.37584e-09 5.89066e-09 )  
( 1.85501e-09 6.76545e-10 7.60174e-10 )  
( 6.7643e-10 2.30503e-10 5.97068e-10 )  
( 5.02944e-09 -2.27665e-10 5.12718e-09 )  
( 7.74835e-09 8.54972e-10 1.73079e-09 )  
( 3.85136e-09 -6.01108e-10 3.54738e-09 )  
( 3.58402e-09 -2.46211e-11 1.06029e-09 )  
( 8.98122e-10 8.15686e-10 6.64248e-10 )  
( 7.33896e-09 5.32537e-10 3.63018e-09 )  
( 4.68306e-09 5.06789e-10 1.13209e-09 )  
( 6.39621e-09 -1.2423e-09 2.23827e-09 )  
( 1.12896e-09 1.5143e-10 6.24239e-10 )  
( 2.94395e-09 1.35572e-09 1.49704e-09 )  
( 2.93786e-09 1.00083e-09 2.51634e-09 )  
( -5.53502e-10 -1.90933e-11 4.30114e-09 )  
( 1.75769e-09 7.95116e-10 1.16737e-09 )  
( 1.92519e-10 3.42902e-10 3.12887e-09 )  
( 1.62452e-09 -3.62965e-10 3.44447e-09 )  
( 6.61419e-09 3.52016e-10 2.80874e-09 )  
( 3.3131e-10 4.08548e-10 1.48491e-09 )  
( -1.75792e-10 4.39015e-10 9.71303e-10 )  
( 1.80772e-09 8.23581e-10 2.34225e-09 )  
( -1.25011e-09 3.93734e-10 5.93759e-09 )  
( 2.48351e-10 3.05146e-10 6.96292e-10 )  
( 2.58159e-09 1.47483e-11 5.1945e-09 )  
( 6.75768e-09 1.96664e-10 2.98186e-09 )  
( 9.97484e-10 7.20085e-10 8.60232e-10 )  
( 8.34071e-11 -1.35799e-09 3.89478e-09 )  
( 2.3725e-09 5.10209e-10 7.02263e-10 )  
( 1.15706e-09 8.03145e-10 1.53648e-09 )  
( 3.7936e-10 2.97263e-10 8.37096e-10 )  
( 2.62634e-09 1.41967e-10 4.74852e-09 )  
( 2.50233e-09 1.18234e-09 1.11687e-09 )  
( 6.38078e-09 9.82048e-10 2.2914e-09 )  
( 1.60789e-09 3.83883e-10 1.1004e-09 )  
( 1.71939e-09 1.02645e-09 1.72127e-09 )  
( 2.18416e-09 3.85521e-10 1.21639e-09 )  
( 1.45262e-10 -2.72417e-09 1.00104e-08 )  
( 2.83932e-09 9.12067e-10 2.84905e-09 )  
( 9.3539e-10 -1.96857e-11 1.03072e-09 )  
( 5.37353e-09 1.41861e-10 4.7753e-09 )  
( 9.09281e-10 5.04799e-11 5.02735e-10 )  
( 6.74826e-09 4.95015e-10 2.6111e-09 )  
( 4.31969e-09 1.34536e-09 2.20926e-09 )  
( -9.52807e-10 -1.11334e-09 4.24945e-09 )  
( -1.75406e-10 5.1834e-10 2.24335e-09 )  
( 4.4897e-10 2.97198e-10 5.98912e-10 )  
( 1.79105e-09 -8.82833e-11 1.07813e-09 )  
( 2.60351e-10 1.31675e-10 9.74339e-10 )  
( 7.07028e-10 3.32709e-11 2.34121e-10 )  
( 1.85524e-09 6.25785e-10 2.11515e-09 )  
( 2.5545e-10 1.32658e-10 6.7624e-10 )  
( 1.58287e-10 1.40391e-10 4.99948e-10 )  
( 3.14168e-10 6.45807e-10 2.35451e-09 )  
( 3.22737e-09 1.31337e-09 2.78153e-09 )  
( 1.63123e-09 9.24031e-10 5.71159e-09 )  
( 4.9297e-09 1.13855e-09 2.16284e-09 )  
( 2.33268e-10 6.04517e-11 4.25427e-10 )  
( 6.89631e-09 1.26015e-09 1.1596e-09 )  
( 4.38207e-10 -9.48956e-11 3.19595e-10 )  
( 3.47424e-09 3.56251e-10 -2.28559e-10 )  
( 2.56117e-10 2.11296e-10 7.11724e-10 )  
( 1.82995e-09 2.14757e-10 1.01508e-09 )  
( 4.90566e-10 3.65537e-10 5.45052e-10 )  
( 4.3197e-10 2.12535e-10 6.55059e-10 )  
( 1.64628e-10 1.94147e-09 5.31467e-09 )  
( 2.95317e-09 9.99488e-10 1.51396e-09 )  
( 2.1249e-09 6.71327e-10 2.81406e-09 )  
( 3.96114e-09 5.89454e-10 4.19486e-09 )  
( 1.90806e-10 3.62213e-10 1.82687e-09 )  
( 3.09161e-09 7.81514e-10 1.92159e-09 )  
( 1.54024e-09 1.25202e-10 9.04926e-10 )  
( -1.43644e-10 1.26256e-10 1.39585e-09 )  
( 4.40758e-09 -1.78646e-09 2.86135e-09 )  
( 2.25127e-09 -4.19439e-10 2.73098e-09 )  
( 2.15432e-09 -1.1524e-09 3.4029e-09 )  
( 2.73754e-09 -6.36872e-10 1.65637e-09 )  
( 5.07397e-11 -2.91642e-11 5.07003e-10 )  
( 2.34165e-09 8.30304e-10 2.52918e-09 )  
( 2.40334e-09 -1.67218e-09 3.28818e-09 )  
( 2.66971e-09 -1.52837e-09 4.20867e-09 )  
( 1.31947e-09 -5.88773e-10 2.23994e-09 )  
( 2.11772e-09 -7.66471e-10 4.1026e-09 )  
( 1.43043e-09 3.13112e-10 1.8417e-09 )  
( 2.52376e-09 -1.04688e-09 2.63183e-09 )  
( 8.39367e-09 -2.68306e-10 3.8127e-09 )  
( 3.07658e-10 1.41875e-10 3.62371e-10 )  
( 3.6284e-09 -1.21233e-09 2.17802e-09 )  
( 2.23491e-09 -8.02645e-10 1.05585e-09 )  
( 7.10319e-09 -3.73771e-10 3.68901e-09 )  
( 3.44541e-09 -4.45946e-10 1.19487e-09 )  
( 5.15526e-09 8.45023e-10 -1.06576e-10 )  
( 6.17672e-09 -2.84106e-10 2.92504e-09 )  
( 5.57625e-09 1.62358e-10 2.10509e-09 )  
( 4.57354e-09 -6.4518e-10 3.53776e-09 )  
( 7.06229e-09 -8.55335e-11 2.99569e-09 )  
( 1.03678e-09 -1.84031e-10 5.67898e-10 )  
( -1.04524e-10 -8.58078e-10 1.77441e-09 )  
( 3.2243e-09 -2.57338e-10 1.73178e-09 )  
( 2.98443e-10 2.08189e-10 7.72351e-10 )  
( 9.41305e-10 4.57638e-10 1.60856e-09 )  
( 2.99152e-09 1.03852e-10 2.00493e-09 )  
( 1.90162e-09 4.00764e-10 5.49477e-10 )  
( 3.15303e-10 3.46416e-10 6.4684e-10 )  
( 6.5571e-09 -1.03088e-09 5.32269e-09 )  
( -3.35212e-10 -6.766e-10 2.73239e-09 )  
( -7.4183e-10 -2.17094e-10 9.54814e-10 )  
( 1.51097e-09 6.5236e-10 1.61522e-09 )  
( 4.44815e-10 6.37891e-11 2.89211e-10 )  
( 5.9945e-10 -1.20104e-11 1.47898e-09 )  
( 2.64536e-09 3.45108e-10 1.6021e-09 )  
( 3.50735e-09 2.6793e-10 1.67773e-09 )  
( 4.30952e-09 -1.56692e-09 3.39132e-09 )  
( 1.03499e-09 5.427e-10 1.48319e-09 )  
( 6.09289e-10 2.25526e-10 1.21656e-09 )  
( -5.0809e-09 3.46703e-10 1.41227e-08 )  
( 3.5676e-09 -6.60502e-10 2.1703e-09 )  
( 3.05294e-09 -1.11521e-10 -2.96532e-09 )  
( 4.62009e-09 1.11492e-09 2.23168e-09 )  
( 6.69004e-09 -1.31292e-09 3.67952e-09 )  
( -1.24102e-09 -1.39795e-09 6.19296e-09 )  
( 8.27092e-09 -9.21523e-11 2.68132e-09 )  
( 4.18063e-09 8.45232e-10 6.82499e-09 )  
( 3.29861e-09 -1.05153e-09 3.64352e-09 )  
( 1.84374e-09 6.0936e-10 1.45366e-09 )  
( 8.80209e-10 2.97748e-10 1.26677e-09 )  
( -7.78988e-10 -3.16498e-09 4.86065e-09 )  
( 6.69604e-09 1.5364e-10 4.69644e-09 )  
( 1.00334e-09 3.48138e-10 1.8002e-09 )  
( 3.56741e-09 -1.12388e-09 2.5341e-09 )  
( 1.67958e-10 1.6093e-10 8.20602e-10 )  
( 6.98173e-10 -8.79247e-10 3.00954e-09 )  
( 3.46013e-09 -1.80414e-09 3.76134e-09 )  
( 2.98753e-09 8.16776e-10 2.15441e-09 )  
( 4.37401e-09 6.11308e-10 1.67293e-09 )  
( 5.53468e-09 7.35092e-10 3.05934e-09 )  
( -6.93543e-10 -6.92136e-10 1.60161e-09 )  
( 1.482e-10 1.21911e-10 4.1527e-10 )  
( 1.64353e-09 2.59919e-11 1.14246e-09 )  
( 7.89038e-10 5.10434e-10 1.0781e-09 )  
( 2.70559e-09 -8.73526e-10 3.3239e-09 )  
( 4.68141e-09 -1.88185e-10 4.1842e-09 )  
( 1.24544e-09 -1.86231e-09 1.07773e-08 )  
( 1.56239e-09 1.52056e-10 1.08511e-09 )  
( 4.6705e-09 -7.03675e-11 1.83234e-09 )  
( 2.32089e-09 2.36105e-09 7.21284e-09 )  
( 5.50508e-10 5.06763e-10 1.15527e-09 )  
( 2.54469e-10 3.14913e-10 4.23622e-10 )  
( 1.01233e-09 2.80184e-10 9.59672e-10 )  
( 6.85869e-09 -3.29118e-11 4.09496e-09 )  
( 4.1609e-10 2.22718e-10 6.36725e-10 )  
( 7.57345e-10 5.15733e-10 7.50185e-10 )  
( -1.05608e-09 -1.06945e-09 1.99513e-09 )  
( 5.58384e-10 -1.21763e-09 3.58938e-09 )  
( 6.28358e-09 1.8294e-10 -1.12373e-09 )  
( 5.63735e-11 5.72001e-10 8.01201e-11 )  
( 2.41257e-10 2.24644e-09 1.46205e-09 )  
( 6.29074e-09 3.61573e-09 3.24717e-09 )  
( 2.92768e-09 2.43502e-09 1.13222e-09 )  
( -1.84639e-09 1.01838e-09 1.23856e-09 )  
( -2.23631e-09 7.0666e-10 -7.96237e-11 )  
( 4.63283e-09 -8.12746e-09 9.94478e-09 )  
( 2.05863e-09 -4.22631e-09 6.84915e-09 )  
( 2.90092e-09 1.18678e-09 2.18769e-09 )  
( -2.37615e-09 4.557e-10 2.96666e-11 )  
( -9.44149e-10 8.27065e-10 7.88444e-10 )  
( 3.0676e-09 -2.42734e-09 8.37333e-10 )  
( 2.05444e-09 -9.01624e-10 1.97318e-09 )  
( 7.65207e-10 -1.81946e-09 5.52068e-09 )  
( 1.11309e-10 -7.39031e-10 3.5199e-09 )  
( -1.4455e-09 1.2802e-09 1.7035e-09 )  
( 1.84328e-09 -1.68741e-09 2.41809e-09 )  
( 1.64596e-09 1.39181e-09 1.61391e-09 )  
( -2.92654e-09 5.36299e-10 1.61557e-10 )  
( 6.61087e-10 1.49247e-09 1.03332e-09 )  
( 1.15037e-09 -2.39063e-09 1.43737e-09 )  
( 1.00372e-08 1.8777e-08 3.34979e-09 )  
( 1.09859e-09 1.52987e-09 7.5155e-10 )  
( 5.46161e-09 -1.81743e-09 -1.47604e-09 )  
( -1.94481e-09 5.9099e-10 2.88565e-09 )  
( -4.32982e-10 -4.40501e-10 2.48396e-09 )  
( -4.32507e-10 -2.34659e-09 5.57512e-09 )  
( -4.20169e-11 1.93649e-10 4.15373e-09 )  
( 6.08107e-09 2.97613e-09 7.83259e-10 )  
( 1.21307e-10 1.07313e-09 4.70371e-10 )  
( 1.8932e-09 9.13216e-10 1.52161e-09 )  
( 1.32367e-09 7.54207e-10 1.35836e-09 )  
( 1.48436e-09 2.98453e-10 1.42525e-09 )  
( 2.21429e-09 -6.9917e-10 5.53789e-09 )  
( -9.14529e-10 1.05734e-09 1.9133e-10 )  
( -1.36778e-09 -1.89959e-10 2.77385e-09 )  
( 1.4926e-09 -4.89983e-09 6.51416e-09 )  
( -8.60797e-10 5.46577e-10 4.53237e-10 )  
( 2.80083e-09 -2.91136e-09 8.86735e-10 )  
( 1.44677e-09 -3.99205e-09 6.69554e-09 )  
( 1.92746e-09 -3.40888e-10 1.66013e-09 )  
( -1.50515e-09 1.40367e-09 1.3471e-09 )  
( -2.50202e-09 4.42443e-10 9.73502e-10 )  
( 3.54226e-10 1.81068e-09 1.18242e-09 )  
( 7.13366e-10 6.6127e-10 5.95247e-10 )  
( 1.67963e-09 -4.71611e-10 4.59816e-09 )  
( 1.55244e-09 7.45218e-10 1.23075e-09 )  
( -7.0601e-11 3.97095e-10 2.72615e-10 )  
( 1.46181e-09 -2.98119e-10 1.93012e-09 )  
( -6.02381e-10 5.5497e-10 4.15363e-10 )  
)
