/*--------------------------------*- C++ -*----------------------------------*\
  =========                 |
  \\      /  F ield         | OpenFOAM: The Open Source CFD Toolbox
   \\    /   O peration     | Website:  https://openfoam.org
    \\  /    A nd           | Version:  4.x
     \\/     M anipulation  |
\*---------------------------------------------------------------------------*/
FoamFile
{
    version     2.0;
    format      ascii;
    class       vectorField;
    location    0;
    object      v;
}
// * * * * * * * * * * * * * * * * * * * * * * * * * * * * * * * * * * * * * //

325
(
( 1.22549e-07 1.4248e-08 -3.33328e-08 )  
( 1.71963e-07 -7.55514e-08 -4.60659e-08 )  
( -6.07533e-07 -5.67961e-08 -9.57845e-08 )  
( 1.43394e-07 -6.2487e-08 -4.94953e-08 )  
( 5.24092e-08 -1.04235e-07 -6.67952e-08 )  
( 2.12861e-07 -7.22291e-08 -8.78686e-08 )  
( 9.17908e-08 -9.77736e-09 -1.6629e-08 )  
( 8.3636e-08 -2.43263e-08 -4.13134e-08 )  
( -6.25503e-07 -4.91821e-08 -1.18592e-07 )  
( 9.6044e-08 9.53088e-09 -1.83686e-08 )  
( -6.71393e-07 4.87388e-09 -9.36016e-08 )  
( -3.91948e-07 -4.30135e-08 -1.20768e-07 )  
( -3.10347e-07 -1.18497e-07 -1.36268e-07 )  
( -5.80703e-07 -3.42855e-08 -5.22763e-08 )  
( -7.83799e-07 1.83447e-07 1.35163e-07 )  
( 3.88151e-08 -8.26561e-08 -5.14605e-08 )  
( 1.08906e-07 -5.70343e-08 -3.00027e-08 )  
( 1.99429e-07 -7.34714e-08 -7.46448e-08 )  
( 1.78708e-07 -7.91839e-08 -8.22958e-08 )  
( -2.05869e-07 -1.45316e-07 -1.05438e-07 )  
( 9.6714e-08 -8.65738e-08 -3.9009e-08 )  
( -2.59812e-07 -1.23052e-07 -1.33996e-07 )  
( -6.15364e-07 -1.14867e-07 -1.06652e-07 )  
( 4.0916e-08 -1.03136e-07 -8.41253e-08 )  
( 1.13856e-07 -3.63677e-08 -6.86503e-09 )  
( -4.99703e-07 -1.40606e-07 -1.466e-07 )  
( 1.79987e-07 -3.42766e-08 -5.85888e-08 )  
( -5.13129e-07 -3.92444e-08 -7.09646e-08 )  
( 1.40155e-07 -5.51949e-08 -5.37589e-08 )  
( -2.64395e-07 -3.26249e-08 -7.10069e-08 )  
( 8.52623e-08 -7.53415e-08 -4.87536e-08 )  
( 2.20084e-07 -6.12927e-08 -6.88001e-08 )  
( -1.19061e-07 -2.56003e-08 -7.44427e-08 )  
( 2.31447e-07 -4.06722e-08 -6.62781e-08 )  
( 2.03454e-07 -7.235e-08 -4.21464e-08 )  
( 1.13909e-07 -8.69747e-10 -1.70616e-08 )  
( 1.87489e-07 -4.68098e-08 -3.88984e-08 )  
( -8.43731e-08 -1.60699e-07 -1.25634e-07 )  
( -2.14551e-08 -1.60641e-07 -7.67945e-08 )  
( -2.81193e-07 -8.46584e-08 -5.61651e-08 )  
( 1.29286e-07 4.22954e-09 -2.62737e-08 )  
( 2.06945e-07 -4.82789e-08 -7.10434e-08 )  
( 1.71314e-07 -4.76989e-08 -4.60352e-08 )  
( 1.71376e-07 -6.55741e-08 -7.54276e-08 )  
( 6.3673e-08 -3.50503e-08 -6.1344e-08 )  
( -2.91078e-07 -1.11279e-07 -7.05422e-08 )  
( -9.81419e-08 -1.85103e-07 -1.32388e-07 )  
( 1.34704e-07 -8.75386e-08 -6.43453e-08 )  
( -4.36652e-09 -7.19232e-08 -7.80478e-08 )  
( 1.35199e-07 -3.73442e-08 -2.9645e-08 )  
( 1.85499e-07 -4.00896e-08 -3.78077e-08 )  
( 1.16542e-07 -6.51361e-08 -5.03166e-08 )  
( -1.76124e-07 -1.34944e-07 -9.2789e-08 )  
( -3.65448e-07 -1.11927e-07 -2.06548e-07 )  
( -1.1316e-07 -3.99451e-08 -2.71712e-08 )  
( 1.58268e-07 -8.72965e-08 -9.27077e-08 )  
( -1.82923e-07 -1.37184e-07 -1.00663e-07 )  
( 5.36517e-08 2.16499e-09 -1.31618e-08 )  
( -4.33694e-07 -1.26891e-07 -1.85615e-07 )  
( 5.85323e-08 -6.89392e-10 -1.56959e-08 )  
( 1.75569e-07 -6.9028e-08 -3.83647e-08 )  
( 7.78673e-08 -1.46405e-08 -3.53528e-08 )  
( 1.09784e-07 -1.9116e-08 -3.33762e-08 )  
( -3.66457e-07 -1.62081e-07 -1.03658e-07 )  
( 1.97765e-07 -3.46555e-08 -6.81559e-08 )  
( -3.53123e-07 -6.56395e-09 -5.47262e-08 )  
( -4.71295e-07 -4.08684e-08 -1.18894e-07 )  
( -1.23236e-07 -1.49475e-07 -1.14126e-07 )  
( -4.89732e-07 -9.51477e-09 -9.17849e-08 )  
( 1.58117e-07 -2.41657e-08 -2.0109e-08 )  
( 1.8126e-07 -3.80134e-08 -5.81529e-08 )  
( 1.76781e-07 -6.62959e-08 -4.97521e-08 )  
( -6.23012e-08 -4.36631e-08 -5.82895e-08 )  
( 8.27649e-08 -5.36186e-08 -5.18072e-08 )  
( 1.9368e-07 -6.91662e-08 -6.00246e-08 )  
( -2.47433e-07 -1.50672e-07 -1.05774e-07 )  
( -1.98248e-07 2.13651e-08 -3.49808e-08 )  
( -6.01738e-07 -1.99098e-08 -8.34374e-08 )  
( 2.00961e-07 -6.11569e-08 -7.44461e-08 )  
( -4.22683e-07 -9.08948e-08 -9.87852e-08 )  
( 1.48556e-07 -7.66314e-08 -6.29179e-08 )  
( -4.40035e-07 -1.3609e-07 -1.0119e-07 )  
( -2.37796e-07 -1.50924e-07 -8.5833e-08 )  
( -5.46139e-07 -1.03849e-07 -9.74016e-08 )  
( -3.10657e-07 -1.38851e-07 -1.07997e-07 )  
( 1.69962e-07 -3.72129e-08 -1.45645e-08 )  
( -3.80349e-07 -1.14747e-08 -8.09078e-08 )  
( 4.21583e-08 -6.70585e-09 -1.50087e-08 )  
( 1.2714e-07 -6.10171e-08 -5.65646e-08 )  
( -1.64279e-07 4.19391e-08 -3.49064e-09 )  
( 8.68008e-08 3.91556e-09 -2.97419e-08 )  
( 1.49259e-07 -5.81755e-08 -1.95781e-08 )  
( -9.56287e-09 -1.02707e-07 -1.68726e-07 )  
( 8.20067e-08 -2.03565e-08 -3.55299e-08 )  
( 8.23679e-08 -7.80546e-09 -2.1483e-08 )  
( 1.35083e-07 -1.25431e-07 -6.3569e-08 )  
( 1.21835e-07 -5.03231e-08 -4.07219e-08 )  
( 1.35346e-07 -3.28512e-08 -4.98389e-08 )  
( -4.7272e-07 -1.16646e-07 -1.16848e-08 )  
( 3.2582e-08 -5.53793e-08 -3.38244e-08 )  
( -4.54833e-10 -5.44078e-08 -1.75054e-08 )  
( -3.01068e-08 -3.5148e-08 -3.85834e-08 )  
( -1.81306e-07 -7.64249e-08 -3.79761e-08 )  
( 1.21352e-07 -1.99606e-08 -4.74048e-08 )  
( 5.68492e-08 -3.45126e-08 8.97278e-10 )  
( 1.1327e-07 -6.69331e-09 -1.82949e-08 )  
( -4.67301e-08 -6.57254e-08 6.05557e-09 )  
( 7.8836e-08 -4.63002e-08 3.65311e-09 )  
( -4.33122e-07 -3.49023e-08 -7.36356e-08 )  
( 1.47812e-07 -1.80991e-08 -3.25342e-08 )  
( 7.29985e-08 -4.68719e-08 -1.49758e-08 )  
( 1.28823e-07 -9.06451e-09 -2.08306e-08 )  
( -1.16242e-07 -2.9605e-08 -1.15874e-08 )  
( -3.4059e-07 -7.70142e-08 -2.27395e-08 )  
( -3.48241e-07 3.45833e-08 -1.01435e-08 )  
( 1.55563e-07 -3.92432e-08 -3.32998e-08 )  
( 1.57361e-07 -2.6544e-08 -1.51051e-10 )  
( -8.85246e-08 -4.63057e-08 -4.75028e-09 )  
( 5.88941e-08 4.41299e-09 7.25683e-09 )  
( -2.16994e-07 -2.494e-07 4.23122e-09 )  
( 1.41888e-07 -3.86271e-09 -2.01787e-08 )  
( -1.00948e-07 -4.94408e-08 -3.47534e-08 )  
( -2.45518e-07 -3.01713e-08 -2.78287e-08 )  
( -6.92468e-09 -2.2703e-08 -2.53369e-09 )  
( 1.36691e-07 -4.16032e-08 -2.26558e-08 )  
( -3.9173e-07 -4.28562e-08 -6.30784e-08 )  
( -3.21076e-07 -9.6664e-08 -4.9045e-08 )  
( -2.31577e-07 -1.23584e-07 -1.00119e-07 )  
( 6.70214e-08 -8.00097e-09 -1.84722e-08 )  
( 1.34864e-07 -1.51316e-08 -2.1926e-08 )  
( 1.19974e-07 -3.4778e-09 -3.44826e-08 )  
( -2.72347e-07 -1.32329e-07 -8.44107e-08 )  
( 1.27104e-08 -7.14959e-08 -2.76402e-08 )  
( 1.12163e-07 -4.07453e-11 -1.03139e-08 )  
( -5.80721e-08 -8.84931e-08 1.14422e-08 )  
( -2.55189e-07 -8.37104e-08 -5.39936e-08 )  
( 1.56016e-07 -7.25998e-08 -5.68475e-08 )  
( -1.04826e-07 1.0466e-08 -1.0603e-08 )  
( -5.5292e-07 9.19927e-09 -2.10987e-07 )  
( 9.53197e-08 -4.65861e-08 -1.12393e-08 )  
( 1.08657e-07 -1.94128e-08 -1.08091e-08 )  
( -2.77364e-07 -1.25603e-07 -8.21709e-08 )  
( 1.14025e-07 -3.73883e-08 -2.93005e-08 )  
( 1.49778e-07 -3.82454e-08 -1.60555e-08 )  
( 1.29563e-07 -5.09108e-08 -3.10354e-08 )  
( 9.51518e-08 -5.43475e-08 -1.38075e-09 )  
( -2.52923e-07 -8.41594e-08 -7.07789e-08 )  
( 7.25222e-08 -1.03568e-08 -8.88903e-09 )  
( 9.85185e-08 -2.86265e-10 -2.50072e-08 )  
( 1.21319e-07 -1.58732e-08 -2.94521e-08 )  
( 9.0156e-08 -3.00422e-08 -1.68626e-08 )  
( 3.9889e-09 -9.47024e-08 -4.36861e-08 )  
( -3.49931e-07 -1.24427e-08 -2.92685e-08 )  
( -2.00637e-07 -7.24291e-08 -5.89516e-08 )  
( 3.56361e-08 -6.62822e-08 -4.5418e-08 )  
( 1.93952e-07 -1.54425e-08 -4.1043e-08 )  
( 1.75273e-07 -5.20143e-08 -5.16033e-08 )  
( 6.31315e-08 -3.05915e-09 -5.15124e-09 )  
( 1.26015e-07 -3.8834e-08 -3.13935e-08 )  
( -2.68834e-07 -1.08984e-07 -1.10772e-07 )  
( 4.00424e-08 -3.06941e-08 -6.27578e-09 )  
( 1.75526e-07 -3.50356e-08 -4.73566e-08 )  
( 1.51012e-07 -1.32002e-08 -4.97066e-08 )  
( -1.30611e-07 8.86122e-09 1.28994e-10 )  
( 1.66581e-07 -1.53826e-08 -2.34515e-08 )  
( -2.82371e-07 -1.03314e-07 -6.29218e-08 )  
( 9.27031e-08 2.59141e-09 -2.58339e-08 )  
( -4.36941e-07 -1.06211e-07 -1.06266e-07 )  
( -1.0274e-07 -5.52801e-08 -5.50581e-08 )  
( -6.75459e-09 -6.65788e-08 -4.36415e-08 )  
( -3.79163e-07 -7.59669e-08 -4.19819e-08 )  
( 1.49171e-07 -5.67974e-08 -4.29598e-08 )  
( 4.98891e-08 -8.53761e-08 -2.53268e-08 )  
( 1.12743e-07 -5.15922e-08 -4.62473e-08 )  
( -2.32922e-08 -4.1975e-08 1.08431e-08 )  
( 8.33132e-08 6.27897e-09 -1.72075e-08 )  
( -5.06099e-07 -3.94014e-08 -8.1488e-08 )  
( 9.58957e-08 -1.30052e-08 -1.12756e-08 )  
( -6.20452e-08 -1.26305e-08 -6.95941e-09 )  
( -3.40311e-07 -5.04604e-08 -5.53385e-08 )  
( -1.514e-08 -1.34158e-07 -5.4778e-08 )  
( -1.89359e-07 -8.81342e-08 -5.88945e-08 )  
( -3.44461e-08 -4.35669e-08 -4.92646e-08 )  
( -1.91077e-07 -1.10695e-07 -3.76724e-08 )  
( 1.6268e-07 -4.77994e-08 -6.42939e-09 )  
( 8.2182e-08 -7.27628e-09 -3.00008e-09 )  
( 1.57203e-07 -3.5306e-08 -4.84168e-08 )  
( -1.51322e-07 -8.0908e-08 -5.51497e-08 )  
( 1.51064e-07 -2.33608e-08 -4.01108e-08 )  
( 1.15194e-07 -1.19806e-08 -7.51284e-09 )  
( 5.65141e-08 6.64363e-09 -1.5012e-08 )  
( 7.2619e-08 -5.81706e-09 -6.02615e-09 )  
( 7.24389e-08 -1.10952e-07 -6.03081e-08 )  
( -5.48263e-07 -3.81356e-08 -1.87678e-07 )  
( -3.5133e-07 -5.6322e-08 -6.70608e-08 )  
( 1.41021e-07 -5.85111e-08 -4.12398e-08 )  
( 4.07465e-08 -2.1762e-08 -7.84418e-09 )  
( 1.28269e-08 -4.83506e-08 2.17008e-08 )  
( -5.39221e-07 -8.59663e-08 -7.67498e-08 )  
( 1.06472e-07 9.99469e-10 -3.03055e-08 )  
( 1.61148e-07 -5.29365e-08 -5.63237e-08 )  
( 7.88592e-08 -4.67513e-08 -1.85206e-08 )  
( -3.3747e-07 -1.08339e-07 -7.11381e-08 )  
( 5.52726e-08 -9.03531e-09 -1.09462e-08 )  
( -2.35539e-07 -1.30431e-07 -2.49471e-08 )  
( -1.47774e-07 -1.4961e-09 -7.08008e-09 )  
( 1.26652e-07 -2.33961e-08 -6.28109e-09 )  
( 1.44176e-07 -3.36237e-08 -1.16965e-08 )  
( -1.88871e-07 -7.0543e-08 -7.66283e-08 )  
( -2.68146e-07 -3.7754e-08 -6.70647e-08 )  
( 9.52756e-08 -2.27554e-09 1.20984e-09 )  
( -1.23375e-07 -3.6489e-08 -1.45042e-08 )  
( -2.76281e-07 -1.7163e-07 -1.27346e-07 )  
( -2.52756e-07 7.90332e-09 2.96307e-10 )  
( 1.0842e-07 -1.17212e-08 -4.07114e-08 )  
( -4.39288e-07 -9.28229e-08 -8.1749e-08 )  
( 6.05309e-08 6.64579e-09 -1.48815e-08 )  
( 1.19268e-07 -1.96112e-08 -3.19139e-08 )  
( -2.51858e-07 -9.28461e-08 -3.20319e-08 )  
( 1.01123e-07 -3.98039e-08 1.04568e-10 )  
( 1.13011e-07 -1.82766e-08 -1.68262e-08 )  
( 1.32179e-07 -7.58183e-08 -2.0406e-08 )  
( -7.51938e-08 -6.19446e-08 -8.99129e-09 )  
( -2.24553e-07 1.39542e-08 -2.17831e-08 )  
( 1.08996e-07 -3.00934e-08 -1.18477e-08 )  
( -2.48604e-07 1.75784e-08 -3.28329e-09 )  
( 1.32524e-07 -1.8651e-08 -1.05595e-08 )  
( -2.7477e-08 -1.28468e-07 -7.99979e-08 )  
( 1.94503e-07 -1.92787e-08 -4.9572e-08 )  
( -9.33223e-08 -1.13715e-07 3.78642e-08 )  
( 6.02527e-08 -6.07794e-08 -9.41261e-09 )  
( 1.4262e-07 1.16812e-08 -3.01222e-08 )  
( 1.50381e-07 -4.60128e-08 -3.51753e-08 )  
( -1.05506e-08 -2.25148e-08 2.95223e-09 )  
( -2.81008e-07 -2.53415e-07 -9.65952e-08 )  
( -2.2184e-07 -1.0792e-07 -8.77726e-08 )  
( -2.54065e-07 -7.68988e-08 -1.2893e-08 )  
( 1.10488e-07 -1.61268e-08 -2.11916e-08 )  
( -1.0735e-07 -3.20933e-09 7.26748e-09 )  
( -2.2998e-07 -8.65358e-08 -6.97859e-08 )  
( 9.66016e-08 -3.56053e-08 -2.80529e-09 )  
( 7.35893e-08 -7.54084e-09 -3.24064e-08 )  
( -3.18166e-07 -1.0648e-07 -5.63388e-08 )  
( -3.43332e-08 -1.5372e-08 1.27024e-08 )  
( 9.58283e-08 -1.72973e-08 -2.126e-08 )  
( 1.1916e-07 -2.30007e-08 1.9785e-09 )  
( 1.01543e-07 -4.03102e-08 -3.8758e-08 )  
( -1.82096e-07 -1.74503e-07 -1.48115e-08 )  
( 1.21797e-07 -1.87078e-08 -4.14704e-09 )  
( -6.17431e-08 -3.38258e-08 7.52987e-09 )  
( 1.3526e-07 -9.75694e-09 -4.50312e-08 )  
( 5.12967e-08 -1.00174e-08 -1.90275e-08 )  
( 5.37125e-08 2.90602e-09 -3.41176e-08 )  
( -7.45971e-08 -3.1264e-08 -1.63303e-08 )  
( -3.38428e-07 -7.74669e-08 -5.37878e-08 )  
( 4.9051e-08 -4.35639e-08 9.05674e-09 )  
( 3.49282e-08 -3.70361e-08 9.82662e-10 )  
( -2.38956e-08 -4.37323e-08 -2.27305e-08 )  
( 1.52916e-07 -8.54851e-09 -4.3713e-09 )  
( 1.33205e-07 -2.66737e-08 -4.25143e-09 )  
( -2.51583e-08 -2.27765e-08 7.87434e-09 )  
( -5.02246e-07 -8.8264e-08 -9.07985e-08 )  
( -1.76535e-08 -1.25082e-08 1.20178e-08 )  
( 5.81591e-08 -5.37471e-09 -1.57141e-08 )  
( -1.09646e-07 9.04866e-09 -1.28377e-08 )  
( 8.99068e-08 -1.50692e-08 -1.65588e-09 )  
( -1.93096e-07 -2.84309e-08 -4.23219e-08 )  
( 6.81111e-08 -2.01352e-08 -1.38057e-08 )  
( 7.50187e-08 3.18062e-09 -1.34285e-08 )  
( 7.88075e-08 -2.40234e-08 -1.94279e-09 )  
( -3.58591e-07 -7.20248e-08 -7.64984e-08 )  
( -8.87926e-08 5.25688e-09 -8.7125e-09 )  
( 6.26783e-08 -2.06775e-08 -1.00475e-09 )  
( 1.03614e-07 -1.61073e-08 -3.7998e-08 )  
( -9.84411e-08 -1.32517e-08 -2.12463e-08 )  
( 6.88839e-08 -4.08609e-08 -9.32884e-09 )  
( -1.69758e-07 -1.9791e-09 -8.52853e-09 )  
( -3.13585e-08 -1.61417e-08 5.37142e-10 )  
( 1.38221e-08 -9.57806e-09 1.69672e-09 )  
( 1.27908e-07 -4.49773e-08 -1.95296e-08 )  
( 7.55023e-08 -3.98773e-08 -4.2722e-10 )  
( 9.37815e-08 -1.91544e-08 -1.10049e-08 )  
( -1.41573e-07 -5.08193e-08 1.36275e-08 )  
( 2.30733e-08 -2.99451e-08 5.25176e-09 )  
( -1.71206e-07 -4.35144e-09 -1.24308e-08 )  
( 1.16006e-07 -1.99899e-08 -2.40463e-08 )  
( 5.31274e-08 -2.70147e-08 -2.65841e-09 )  
( 1.09963e-07 2.82256e-09 -1.20065e-08 )  
( 4.3642e-08 -7.28313e-09 -6.79742e-09 )  
( -3.08458e-07 -5.84932e-08 -6.15577e-08 )  
( -4.64822e-08 -7.3712e-09 1.62384e-09 )  
( 6.61522e-08 -4.31944e-10 -2.60869e-08 )  
( 2.48976e-09 -3.56261e-08 2.03641e-08 )  
( -7.01404e-08 -2.86667e-08 1.23825e-08 )  
( -7.06243e-08 -5.57438e-08 -4.67126e-09 )  
( -1.76217e-07 -3.06728e-08 2.0908e-09 )  
( -2.40012e-08 -1.31718e-08 8.85496e-09 )  
( -8.03302e-08 -4.96749e-08 1.653e-08 )  
( 1.90634e-08 -2.01717e-08 1.22827e-08 )  
( 7.55809e-08 -1.42324e-08 -1.01255e-09 )  
( 1.47516e-09 -2.0074e-08 3.55709e-09 )  
( 7.17903e-08 -3.1094e-08 -1.39837e-09 )  
( 7.04178e-08 -1.38922e-08 -8.54347e-09 )  
( 4.8105e-08 -1.63977e-08 2.97905e-09 )  
( 3.65287e-08 -2.16778e-08 -1.31395e-09 )  
( -9.61089e-08 2.53054e-09 1.90709e-08 )  
( -4.9243e-08 -1.75655e-08 5.32655e-09 )  
( 8.40679e-08 -2.06076e-08 -1.34011e-08 )  
( -3.7148e-08 -1.87101e-08 5.47624e-09 )  
( 5.95348e-08 6.0604e-09 -7.21765e-09 )  
( 4.11566e-08 -9.68092e-09 -6.36723e-09 )  
( 5.85226e-08 -1.07616e-08 1.84865e-08 )  
( -5.22688e-09 -1.37613e-08 4.62558e-09 )  
( 2.97475e-08 -6.13781e-09 -1.60414e-09 )  
( 7.12797e-08 -1.89963e-08 -1.40221e-08 )  
( -9.58677e-07 4.02077e-07 1.5295e-08 )  
( 5.97821e-08 -3.09741e-08 -4.49015e-10 )  
( -2.08683e-08 -1.07878e-08 1.95742e-09 )  
( -1.54641e-07 -3.64991e-08 -2.94058e-08 )  
( 9.71331e-08 -8.4492e-09 -1.74573e-08 )  
( 2.78156e-08 -5.38881e-09 4.36709e-09 )  
( -1.44571e-07 -1.00962e-08 -1.57197e-08 )  
( -3.16475e-07 -2.54556e-08 3.03759e-09 )  
( -1.45835e-07 -4.40554e-08 2.8487e-09 )  
( -4.62677e-08 -2.68172e-08 1.19669e-08 )  
)
