/*--------------------------------*- C++ -*----------------------------------*\
| =========                 |                                                 |
| \\      /  F ield         | OpenFOAM: The Open Source CFD Toolbox           |
|  \\    /   O peration     | Version:  4.x                                   |
|   \\  /    A nd           | Web:      www.OpenFOAM.org                      |
|    \\/     M anipulation  |                                                 |
\*---------------------------------------------------------------------------*/
FoamFile
{
    version     2.0;
    format      ascii;
    class       volScalarField;
    location    "12.5";
    object      KslPrev;
}
// * * * * * * * * * * * * * * * * * * * * * * * * * * * * * * * * * * * * * //

dimensions      [1 -3 -1 0 0 0 0];

internalField   nonuniform List<scalar> 
114
(
2881.88
6053.68
2511.75
6421.6
1905.9
4062.78
17032.6
3462.09
13141.6
3320.47
9701.91
3334.22
3598.62
3678.62
28122.2
3634.11
34054.1
3583.26
60694.8
3735.71
10539.2
7564.52
3276.12
7512.9
3149.6
8014.05
3070.77
10959
3359.48
22678.4
62937.1
3828.8
126678
3860.28
111625
4010.52
80485.2
4673.83
32931.6
63348.4
3988.3
126873
4079.05
117371
4206.49
53865.5
4391
11382.1
112410
4115.55
6281.84
3091.73
6155.98
2871.21
5972.06
2556.37
5843.18
2114.05
4408.67
21380.1
3686.21
24489.8
3577.79
24398.8
3493.52
14892.4
3533.33
5021.26
20986.6
3629.15
22121.7
3561.79
25554
3510.35
19705.9
3621.4
11406.9
36392.7
4016.52
103980
4180.12
5082.24
2870.15
4863.29
2662.4
4731.23
2309.67
4708.24
1669.19
3674.73
5774.69
3108.36
5498.06
2970.44
5491.95
2846.06
5445.95
2746.76
3284.18
6502.59
3183.65
6169.89
3066.13
6218.05
3006.6
6915.42
3045.83
8749.84
6818.24
3326.3
6699.92
3363.74
7361.31
3520.63
)
;

boundaryField
{
    inlet
    {
        type            zeroGradient;
    }
    outlet
    {
        type            zeroGradient;
    }
    wall
    {
        type            zeroGradient;
    }
    procBoundary5to1
    {
        type            processor;
        value           uniform 0;
    }
    procBoundary5to4
    {
        type            processor;
        value           uniform 0;
    }
    procBoundary5to7
    {
        type            processor;
        value           uniform 0;
    }
}


// ************************************************************************* //
