/*--------------------------------*- C++ -*----------------------------------*\
| =========                 |                                                 |
| \\      /  F ield         | OpenFOAM: The Open Source CFD Toolbox           |
|  \\    /   O peration     | Version:  4.x                                   |
|   \\  /    A nd           | Web:      www.OpenFOAM.org                      |
|    \\/     M anipulation  |                                                 |
\*---------------------------------------------------------------------------*/
FoamFile
{
    version     2.0;
    format      ascii;
    class       volScalarField;
    location    "12.5";
    object      QWallFluidCoeff;
}
// * * * * * * * * * * * * * * * * * * * * * * * * * * * * * * * * * * * * * //

dimensions      [1 -1 -3 -1 0 0 0];

internalField   nonuniform List<scalar> 
114
(
-3.21583e+06
-1.75727e+06
-3.59129e+06
-1.66792e+06
-4.42994e+06
-2.32425e+06
0
0
0
0
0
0
0
0
0
0
0
0
0
0
0
-1.44008e+06
-2.83918e+06
-1.45934e+06
-2.95086e+06
-1.38932e+06
-3.01918e+06
-1.07578e+06
-2.76655e+06
-582417
0
0
0
0
0
0
0
0
0
0
0
0
0
0
0
0
0
0
0
0
-1.66283e+06
-2.95387e+06
-1.70258e+06
-3.15374e+06
-1.75396e+06
-3.48938e+06
-1.78492e+06
-4.06754e+06
-2.1784e+06
0
0
0
0
0
0
0
0
0
0
0
0
0
0
0
0
0
0
0
0
0
0
-3.91118e+06
-6.19608e+06
-4.07323e+06
-6.62563e+06
-4.19032e+06
-7.5369e+06
-4.24013e+06
-9.89601e+06
-5.09625e+06
-1.76786e+06
-2.93339e+06
-1.85562e+06
-3.04864e+06
-1.85597e+06
-3.15879e+06
-1.87811e+06
-3.24768e+06
-2.74135e+06
-1.59394e+06
-2.85036e+06
-1.66591e+06
-2.93301e+06
-1.65842e+06
-2.96999e+06
-1.51072e+06
-2.89562e+06
-1.2189e+06
-1.52442e+06
-2.73362e+06
-1.54769e+06
-2.70423e+06
-1.42887e+06
-2.57278e+06
)
;

boundaryField
{
    inlet
    {
        type            calculated;
        value           nonuniform 0();
    }
    outlet
    {
        type            calculated;
        value           uniform 0;
    }
    wall
    {
        type            calculated;
        value           uniform 0;
    }
    procBoundary5to1
    {
        type            processor;
        value           uniform 0;
    }
    procBoundary5to4
    {
        type            processor;
        value           uniform 0;
    }
    procBoundary5to7
    {
        type            processor;
        value           uniform 0;
    }
}


// ************************************************************************* //
