/*--------------------------------*- C++ -*----------------------------------*\
| =========                 |                                                 |
| \\      /  F ield         | OpenFOAM: The Open Source CFD Toolbox           |
|  \\    /   O peration     | Version:  4.x                                   |
|   \\  /    A nd           | Web:      www.OpenFOAM.org                      |
|    \\/     M anipulation  |                                                 |
\*---------------------------------------------------------------------------*/
FoamFile
{
    version     2.0;
    format      ascii;
    class       volScalarField;
    location    "12.5";
    object      SPartFluid;
}
// * * * * * * * * * * * * * * * * * * * * * * * * * * * * * * * * * * * * * //

dimensions      [1 -3 -1 0 0 0 0];

internalField   nonuniform List<scalar> 
114
(
6.81979e-65
8.05974e-65
6.35478e-65
6.74221e-65
7.59464e-65
8.44701e-65
6.81971e-65
5.65726e-65
5.81225e-65
6.66466e-65
8.21451e-65
8.52441e-65
7.90438e-65
8.44708e-65
6.04469e-65
7.43961e-65
5.81218e-65
4.57223e-65
6.97452e-65
5.73454e-65
8.67921e-65
6.27737e-65
4.8824e-65
6.9748e-65
5.42485e-65
6.4323e-65
6.81978e-65
7.12972e-65
5.65727e-65
5.96718e-65
7.12979e-65
6.81978e-65
8.52468e-65
7.12971e-65
8.36964e-65
8.13711e-65
5.26973e-65
8.60197e-65
6.89704e-65
8.21468e-65
4.5723e-65
7.28466e-65
7.59463e-65
6.19967e-65
7.0521e-65
7.12954e-65
6.897e-65
5.57958e-65
9.99702e-65
4.41726e-65
6.66489e-65
8.21485e-65
6.74236e-65
7.36233e-65
6.97482e-65
6.89734e-65
6.6648e-65
7.2848e-65
6.58725e-65
5.34737e-65
8.36977e-65
6.1998e-65
7.12977e-65
7.12975e-65
7.05221e-65
9.14463e-65
6.43221e-65
5.50223e-65
8.05973e-65
6.35477e-65
7.05223e-65
5.96727e-65
1.0152e-64
7.36214e-65
8.21455e-65
8.91196e-65
8.67943e-65
3.56486e-65
9.37712e-65
8.98962e-65
7.98214e-65
2.63498e-65
6.89744e-65
4.57246e-65
7.12991e-65
6.0449e-65
4.95992e-65
6.97487e-65
6.2774e-65
6.04487e-65
6.0449e-65
6.89738e-65
4.18491e-65
5.65738e-65
7.43981e-65
6.50981e-65
4.57236e-65
7.05227e-65
6.04478e-65
6.27735e-65
6.27735e-65
8.52475e-65
6.89729e-65
5.88979e-65
8.05969e-65
6.50972e-65
6.74219e-65
6.81967e-65
7.20731e-65
5.50234e-65
7.28475e-65
5.6573e-65
9.68708e-65
7.74966e-65
)
;

boundaryField
{
    inlet
    {
        type            calculated;
        value           nonuniform 0();
    }
    outlet
    {
        type            calculated;
        value           uniform 0;
    }
    wall
    {
        type            calculated;
        value           uniform 0;
    }
    procBoundary5to1
    {
        type            processor;
        value           nonuniform List<scalar> 
32
(
7.90475e-65
5.81235e-65
8.44719e-65
7.05219e-65
5.73469e-65
4.18469e-65
5.65726e-65
6.12224e-65
6.97469e-65
6.97467e-65
6.58708e-65
7.20694e-65
4.41706e-65
6.35466e-65
5.11472e-65
9.06702e-65
8.29204e-65
8.75694e-65
6.81949e-65
7.90431e-65
3.48713e-65
6.58735e-65
5.26987e-65
8.05978e-65
8.05978e-65
8.05978e-65
7.05227e-65
9.99713e-65
9.99713e-65
9.99713e-65
5.73474e-65
5.73474e-65
)
;
    }
    procBoundary5to4
    {
        type            processor;
        value           nonuniform List<scalar> 
12
(
8.91235e-65
9.06727e-65
5.65731e-65
5.96726e-65
8.2149e-65
8.13735e-65
6.81983e-65
6.8198e-65
7.20747e-65
7.5949e-65
6.2774e-65
6.35486e-65
)
;
    }
    procBoundary5to7
    {
        type            processor;
        value           nonuniform List<scalar> 
44
(
7.82702e-65
6.4321e-65
6.74209e-65
1.03069e-64
1.03843e-64
7.9819e-65
5.65702e-65
8.36923e-65
9.91942e-65
7.82702e-65
6.43214e-65
7.36208e-65
6.7421e-65
6.89706e-65
8.60189e-65
8.44683e-65
7.36189e-65
3.95227e-65
6.43214e-65
8.52453e-65
6.43214e-65
7.36208e-65
5.03721e-65
5.81216e-65
7.36204e-65
6.04459e-65
5.81206e-65
8.0597e-65
7.36217e-65
6.81969e-65
5.03721e-65
5.19224e-65
5.03721e-65
5.81216e-65
5.50222e-65
6.43216e-65
6.12216e-65
6.89731e-65
5.81233e-65
7.67222e-65
7.43972e-65
5.19229e-65
5.50222e-65
3.87484e-65
)
;
    }
}


// ************************************************************************* //
