/*--------------------------------*- C++ -*----------------------------------*\
| =========                 |                                                 |
| \\      /  F ield         | OpenFOAM: The Open Source CFD Toolbox           |
|  \\    /   O peration     | Version:  4.x                                   |
|   \\  /    A nd           | Web:      www.OpenFOAM.org                      |
|    \\/     M anipulation  |                                                 |
\*---------------------------------------------------------------------------*/
FoamFile
{
    version     2.0;
    format      ascii;
    class       volVectorField;
    location    "41.5";
    object      impParticleForces;
}
// * * * * * * * * * * * * * * * * * * * * * * * * * * * * * * * * * * * * * //

dimensions      [1 1 -2 0 0 0 0];

internalField   nonuniform List<vector> 
114
(
(0.00241813 2.16279e-05 -1.19929e-05)
(0.00237527 1.55299e-05 -6.714e-06)
(0.00237525 9.91171e-06 -1.03712e-06)
(0.00231926 2.40948e-06 2.68898e-06)
(0.00229668 -4.80224e-06 6.97694e-06)
(0.00221479 -1.41593e-05 5.68019e-06)
(0.00242094 2.12314e-05 -1.73899e-05)
(0.00243692 1.90184e-05 -1.19058e-05)
(0.00239531 1.39578e-05 -6.39741e-06)
(0.00240784 9.91681e-06 1.12009e-08)
(0.00235073 2.70078e-06 2.84605e-06)
(0.00233342 -3.12183e-06 7.56821e-06)
(0.0022425 -1.37467e-05 3.40188e-06)
(0.00244457 1.66741e-05 -2.26026e-05)
(0.00240699 1.64559e-05 -1.71062e-05)
(0.00243112 1.49026e-05 -1.16266e-05)
(0.00239208 1.13862e-05 -6.55306e-06)
(0.00238993 8.06393e-06 -9.30455e-07)
(0.00234057 3.68394e-06 2.38691e-06)
(0.00231067 -5.39445e-07 4.64843e-06)
(0.00223726 -6.62952e-06 1.22081e-06)
(0.0023875 8.1885e-06 -2.02596e-05)
(0.00239364 1.20818e-05 -1.45403e-05)
(0.00238525 1.31816e-05 -8.96612e-06)
(0.00239229 1.2225e-05 -2.91875e-06)
(0.00236377 9.08389e-06 3.17019e-06)
(0.00237988 5.84582e-06 1.01454e-05)
(0.00231802 -1.90648e-06 1.77757e-05)
(0.00229837 -7.94652e-06 2.39613e-05)
(0.0022057 -2.10082e-05 3.37963e-05)
(0.00241479 7.17312e-06 -2.05236e-05)
(0.00242577 1.07423e-05 -1.51662e-05)
(0.00240454 1.17719e-05 -9.74022e-06)
(0.00242497 1.13274e-05 -3.72771e-06)
(0.00238522 8.42327e-06 2.3896e-06)
(0.0024026 5.97762e-06 9.65212e-06)
(0.00233379 -1.13055e-06 1.66479e-05)
(0.00233054 -6.26837e-06 2.53394e-05)
(0.00223569 -2.06805e-05 3.46109e-05)
(0.00239348 6.97239e-06 -2.09611e-05)
(0.0024022 9.32514e-06 -1.61409e-05)
(0.00238405 9.63321e-06 -1.10412e-05)
(0.00241064 8.90185e-06 -5.27282e-06)
(0.00237048 6.447e-06 5.82261e-07)
(0.00238259 3.77651e-06 7.96571e-06)
(0.00232581 -5.78039e-07 1.48293e-05)
(0.0023074 -4.71767e-06 2.36162e-05)
(0.00222583 -1.27079e-05 3.0663e-05)
(0.00238553 6.92742e-06 -2.20226e-05)
(0.00239467 7.70903e-06 -1.77197e-05)
(0.00238086 2.35371e-06 -1.42596e-05)
(0.00240106 5.11831e-06 -9.06978e-06)
(0.00237448 6.51595e-06 -4.12226e-06)
(0.00238654 6.21076e-06 2.01365e-06)
(0.00236585 4.41132e-06 8.69916e-06)
(0.0023694 1.43096e-06 1.6236e-05)
(0.00232429 -4.9959e-06 2.63045e-05)
(0.00232018 -1.20527e-05 3.53134e-05)
(0.0022109 -2.34401e-05 5.13848e-05)
(0.00239878 1.84229e-06 -1.42662e-05)
(0.00243739 4.10421e-06 -9.24449e-06)
(0.00239564 5.16952e-06 -4.598e-06)
(0.0024149 5.0517e-06 1.29261e-06)
(0.00239053 3.27184e-06 7.77502e-06)
(0.00240469 1.49822e-06 1.52791e-05)
(0.00236323 -4.70316e-06 2.53716e-05)
(0.00234704 -9.27181e-06 3.5347e-05)
(0.0022323 -2.28073e-05 5.25807e-05)
(0.00238232 2.47716e-06 -1.51483e-05)
(0.0024077 3.96749e-06 -1.09915e-05)
(0.00238724 4.05107e-06 -6.34428e-06)
(0.00239915 3.3842e-06 -9.34029e-07)
(0.00238688 1.38212e-06 5.57234e-06)
(0.00239361 -8.0381e-07 1.32699e-05)
(0.00234469 -5.30186e-06 2.31244e-05)
(0.00233351 -1.02898e-05 3.68038e-05)
(0.00224287 -2.0123e-05 5.69602e-05)
(0.00237205 3.38903e-06 -1.66449e-05)
(0.0024182 3.71721e-06 -1.30978e-05)
(0.00238162 2.75494e-06 -8.88609e-06)
(0.00240085 1.37214e-06 -4.17661e-06)
(0.0023308 -4.92737e-08 -1.07593e-05)
(0.0023528 1.98551e-06 -5.93505e-06)
(0.00233296 2.97768e-06 -1.00695e-06)
(0.00235444 2.67107e-06 4.85686e-06)
(0.00234051 8.41055e-07 1.20199e-05)
(0.00235413 -2.19379e-06 1.98767e-05)
(0.00232371 -9.22368e-06 3.33141e-05)
(0.00234064 -1.47049e-05 4.05056e-05)
(0.00221064 -2.86588e-05 6.24566e-05)
(0.00236576 -7.64594e-07 -1.07757e-05)
(0.00239297 8.12186e-07 -6.19131e-06)
(0.00236094 1.42033e-06 -1.80664e-06)
(0.00237783 1.39074e-06 3.74894e-06)
(0.00236571 -5.30696e-07 1.06292e-05)
(0.00236888 -2.46239e-06 1.79641e-05)
(0.00233798 -8.20416e-06 2.90066e-05)
(0.00234006 -1.159e-05 3.79869e-05)
(0.0022239 -2.55879e-05 5.89584e-05)
(0.00234942 1.52459e-08 -1.19851e-05)
(0.00237845 7.57203e-07 -7.97191e-06)
(0.00236349 6.16027e-07 -3.72924e-06)
(0.00237321 -1.53234e-07 1.42761e-06)
(0.00235696 -2.34047e-06 8.26766e-06)
(0.00237147 -4.33846e-06 1.53315e-05)
(0.00232673 -8.57464e-06 2.62428e-05)
(0.00231751 -1.19768e-05 3.66675e-05)
(0.00222513 -2.20386e-05 6.08776e-05)
(0.0023436 1.24621e-06 -1.38049e-05)
(0.00236997 1.02622e-06 -1.06447e-05)
(0.00235383 -1.53435e-07 -6.8509e-06)
(0.00236945 -1.82303e-06 -2.43701e-06)
(0.00235341 -4.64253e-06 3.95562e-06)
(0.00234339 -6.21456e-06 1.03507e-05)
)
;

boundaryField
{
    inlet
    {
        type            zeroGradient;
    }
    outlet
    {
        type            zeroGradient;
    }
    wall
    {
        type            zeroGradient;
    }
    procBoundary5to1
    {
        type            processor;
        value           nonuniform List<vector> 
32
(
(0.00248555 3.32866e-05 -2.17923e-05)
(0.00243459 2.26733e-05 -1.74037e-05)
(0.00244054 1.46033e-05 -1.46402e-05)
(0.00239471 6.48358e-06 -1.51135e-05)
(0.00237372 4.20082e-08 -1.09513e-05)
(0.00225373 -1.02682e-05 -2.05262e-05)
(0.00246813 3.3937e-05 -2.45174e-05)
(0.00250524 2.73799e-05 -1.9893e-05)
(0.00246696 1.91685e-05 -1.63019e-05)
(0.00247537 1.33872e-05 -1.21957e-05)
(0.00241789 5.37562e-06 -1.26147e-05)
(0.00240266 1.21497e-06 -1.10853e-05)
(0.00227203 -1.17654e-05 -2.3371e-05)
(0.00248651 2.54587e-05 -2.83582e-05)
(0.00245618 2.44638e-05 -2.30616e-05)
(0.00249922 2.10386e-05 -1.81546e-05)
(0.00245248 1.55396e-05 -1.42604e-05)
(0.0024645 1.14238e-05 -9.98624e-06)
(0.00240244 6.30449e-06 -1.00245e-05)
(0.00238333 3.70419e-06 -1.0464e-05)
(0.00227266 -5.35996e-06 -2.41389e-05)
(0.00239555 1.92298e-05 -2.84441e-05)
(0.00240314 2.54343e-05 -2.25277e-05)
(0.00239889 2.50139e-05 -1.75189e-05)
(0.00239889 2.50139e-05 -1.75189e-05)
(0.00239889 2.50139e-05 -1.75189e-05)
(0.00242914 1.60503e-05 -2.8751e-05)
(0.00246328 2.14115e-05 -2.33012e-05)
(0.00246328 2.14115e-05 -2.33012e-05)
(0.00246328 2.14115e-05 -2.33012e-05)
(0.00241144 1.31039e-05 -2.81258e-05)
(0.00241144 1.31039e-05 -2.81258e-05)
)
;
    }
    procBoundary5to4
    {
        type            processor;
        value           nonuniform List<vector> 
12
(
(0.00241555 2.37074e-06 -2.55623e-05)
(0.00244787 2.05367e-06 -2.57898e-05)
(0.0024145 3.66444e-06 -2.58401e-05)
(0.00239888 5.46858e-06 -2.64507e-05)
(0.00241644 -1.88045e-06 -1.82452e-05)
(0.00244372 -1.98079e-06 -1.80506e-05)
(0.00241697 1.68807e-07 -1.86665e-05)
(0.00239583 2.6264e-06 -1.99183e-05)
(0.00237946 -3.45561e-06 -1.38393e-05)
(0.00238874 -3.32714e-06 -1.42194e-05)
(0.00237221 -1.49623e-06 -1.50338e-05)
(0.00236167 1.0624e-06 -1.6505e-05)
)
;
    }
    procBoundary5to7
    {
        type            processor;
        value           nonuniform List<vector> 
44
(
(0.00243896 1.28681e-05 -2.32094e-05)
(0.00240376 1.25301e-05 -1.81189e-05)
(0.00242676 1.14637e-05 -1.30037e-05)
(0.00240851 9.82178e-06 -7.90537e-06)
(0.00241906 9.06308e-06 -2.57353e-06)
(0.00234189 7.43865e-06 -6.28338e-07)
(0.00230689 6.91536e-06 1.23035e-06)
(0.00223443 8.3023e-06 -4.84407e-06)
(0.00240895 1.12211e-05 -2.83745e-05)
(0.00243896 1.28681e-05 -2.32094e-05)
(0.00237529 7.35582e-06 -1.30731e-05)
(0.00240013 6.22731e-06 -7.84676e-06)
(0.00236709 4.81474e-06 -2.47464e-06)
(0.00237589 3.37034e-06 4.23793e-06)
(0.00232242 2.07628e-06 9.80534e-06)
(0.00230402 2.03243e-06 1.75615e-05)
(0.00222003 5.39509e-08 2.24513e-05)
(0.00237661 7.33211e-06 -2.39483e-05)
(0.00237529 7.35582e-06 -1.30731e-05)
(0.00241873 6.73247e-06 -2.01585e-05)
(0.00237529 7.35582e-06 -1.30731e-05)
(0.00240013 6.22731e-06 -7.84676e-06)
(0.00235388 -3.37676e-07 1.63539e-06)
(0.00236707 -2.36086e-06 8.53615e-06)
(0.00232543 -4.69779e-06 1.69925e-05)
(0.00230857 -6.2386e-06 2.6354e-05)
(0.00221407 -8.6955e-06 4.30758e-05)
(0.00238036 4.73581e-06 -1.88768e-05)
(0.00240977 3.74244e-06 -1.60264e-05)
(0.00236814 2.17289e-06 -1.24862e-05)
(0.00235388 -3.37676e-07 1.63539e-06)
(0.00238474 1.88779e-07 -8.395e-06)
(0.00235388 -3.37676e-07 1.63539e-06)
(0.00236707 -2.36086e-06 8.53615e-06)
(0.00230166 -9.34902e-06 1.9853e-05)
(0.0023001 -1.04317e-05 3.03203e-05)
(0.00219709 -1.54467e-05 4.62335e-05)
(0.00235178 3.06452e-06 -1.60553e-05)
(0.00236759 1.77334e-06 -1.36889e-05)
(0.00234387 -9.78618e-08 -1.052e-05)
(0.00236547 -2.39964e-06 -6.93624e-06)
(0.00232567 -4.65173e-06 -1.90072e-06)
(0.00230166 -9.34902e-06 1.9853e-05)
(0.00232539 -6.65611e-06 3.05156e-06)
)
;
    }
}


// ************************************************************************* //
