/*--------------------------------*- C++ -*----------------------------------*\
| =========                 |                                                 |
| \\      /  F ield         | OpenFOAM: The Open Source CFD Toolbox           |
|  \\    /   O peration     | Version:  4.x                                   |
|   \\  /    A nd           | Web:      www.OpenFOAM.org                      |
|    \\/     M anipulation  |                                                 |
\*---------------------------------------------------------------------------*/
FoamFile
{
    version     2.0;
    format      ascii;
    class       volScalarField;
    location    "41.5";
    object      p;
}
// * * * * * * * * * * * * * * * * * * * * * * * * * * * * * * * * * * * * * //

dimensions      [1 -1 -2 0 0 0 0];

internalField   nonuniform List<scalar> 
114
(
69.2951
-16.3545
62.6882
-33.2353
55.9587
-46.705
1.27392
68.6652
-17.1761
62.3688
-34.9799
56.3439
-50.3662
75.1451
4.74435
68.5217
-12.653
61.7891
-29.4657
53.8605
-44.5778
-1858.59
-1803.04
-1877.81
-1809.15
-1898
-1814.24
-1919.57
-1817.27
-1943.17
-1858.36
-1802.9
-1877.33
-1809.38
-1896.61
-1815.23
-1915.81
-1819.69
-1933.53
-1857.03
-1803.12
-1875.36
-1809.59
-1894.15
-1815.43
-1913.13
-1820.12
-1931.05
-1856.19
-1803.09
-3735.7
-3680.66
-3754.66
-3687.1
-3774.04
-3693.09
-3793.77
-3698.14
-3812.74
-3735.85
-3680.69
-3755.05
-3687.26
-3774.6
-3693.39
-3794.5
-3698.48
-3813.98
-3735.19
-3680.71
-3753.78
-3687.5
-3772.27
-3694.49
-3790.21
-3701.17
-3806.07
-3735.16
-3680.9
-3754.04
-3687.73
-5613.94
-5558.99
-5633.27
-5565.1
-5653.96
-5570.02
-5677.41
-5571.46
-5709.49
-5613.89
-5558.92
-5633.2
-5565.12
-5653.43
-5570.42
-5675.24
-5573.29
-5699.36
-5613.34
-5558.88
-5632.44
-5565.38
-5652.41
-5571.1
-5673.92
-5574.68
-5698.64
-5613.26
-5558.86
-5632.27
-5565.26
-5652
-5571.01
)
;

boundaryField
{
    inlet
    {
        type            calculated;
        value           nonuniform 0();
    }
    outlet
    {
        type            calculated;
        value           nonuniform List<scalar> 
12
(
0
0
0
-1877.91
-1877.91
-1877.91
-3755.83
-3755.83
-3755.83
-5633.74
-5633.74
-5633.74
)
;
    }
    wall
    {
        type            calculated;
        value           nonuniform List<scalar> 
66
(
-6552.89
-6552.84
-6552.3
-6552.22
-6497.94
-6497.88
-6497.84
-6497.82
-6572.23
-6572.16
-6571.39
-6571.22
-6504.05
-6504.08
-6504.34
-6504.21
-6592.92
-6592.38
-6591.37
-6590.95
-6508.98
-6509.38
-6510.06
-6509.96
-6616.36
-6614.19
-6612.88
-6510.41
-6512.25
-6513.64
-6649.84
-6637.91
-6637.05
-1858.59
-3735.7
-5613.94
-1803.04
-3680.66
-5558.99
-1877.81
-3754.66
-5633.27
69.2951
-1809.15
-3687.1
-5565.1
-16.3545
-1898
-3774.04
-5653.96
62.6882
-1814.24
-3693.09
-5570.02
-33.2833
-1919.57
-3793.77
-5677.41
55.9587
-1817.27
-3698.14
-5571.46
-46.705
-1943.17
-3812.74
-5709.49
)
;
    }
    procBoundary5to1
    {
        type            processor;
        value           nonuniform List<scalar> 
32
(
1946.92
1856.24
1942.35
1834
1940.36
1810.69
1876.47
1946.64
1855.8
1941.72
1834.34
1939.29
1812.24
1952.76
1878.68
1946.47
1859.4
1940.96
1840.44
1936.6
1822.97
20.2866
75.6027
1.89759
1.89759
1.89759
20.102
75.3043
75.3043
75.3043
22.3108
22.3108
)
;
    }
    procBoundary5to4
    {
        type            processor;
        value           nonuniform List<scalar> 
12
(
-1796.41
-1796.1
-1796.12
-1796.21
-3673.93
-3673.83
-3673.66
-3673.86
-5552.4
-5552.2
-5552.09
-5552.09
)
;
    }
    procBoundary5to7
    {
        type            processor;
        value           nonuniform List<scalar> 
44
(
74.8223
2.3484
68.3221
-16.3092
62.5399
-34.8461
57.4565
-50.7958
20.9959
74.8223
-1874.11
-1809.55
-1892.38
-1815.31
-1910.44
-1821.3
-1927.02
-1855.54
-1874.11
-1802.99
-1874.11
-1809.55
-3773.11
-3693.87
-3792.07
-3699
-3809.67
-3734.68
-3680.92
-3753.17
-3773.11
-3687.56
-3773.11
-3693.87
-5672.77
-5574.98
-5695.6
-5612.75
-5558.76
-5631.46
-5565.31
-5650.66
-5672.77
-5571.37
)
;
    }
}


// ************************************************************************* //
