/*--------------------------------*- C++ -*----------------------------------*\
| =========                 |                                                 |
| \\      /  F ield         | OpenFOAM: The Open Source CFD Toolbox           |
|  \\    /   O peration     | Version:  4.x                                   |
|   \\  /    A nd           | Web:      www.OpenFOAM.org                      |
|    \\/     M anipulation  |                                                 |
\*---------------------------------------------------------------------------*/
FoamFile
{
    version     2.0;
    format      ascii;
    class       volScalarField;
    location    "41.5";
    object      QPartFluidCoeff;
}
// * * * * * * * * * * * * * * * * * * * * * * * * * * * * * * * * * * * * * //

dimensions      [1 -1 -3 -1 0 0 0];

internalField   nonuniform List<scalar> 
114
(
-2.62005e+07
-2.41898e+07
-2.34134e+07
-1.90108e+07
-2.6184e+07
-1.94011e+07
-2.41952e+07
-2.34835e+07
-1.9602e+07
-2.74566e+07
-2.8191e+07
-3.36586e+07
-2.17107e+07
-3.31753e+07
-2.04785e+07
-2.90542e+07
-1.96095e+07
-1.7715e+07
-2.48373e+07
-2.08197e+07
-2.21926e+07
-2.21512e+07
-1.89977e+07
-2.52161e+07
-2.12668e+07
-2.19212e+07
-2.7902e+07
-2.4087e+07
-2.26412e+07
-1.62894e+07
-2.70381e+07
-2.74758e+07
-3.07716e+07
-2.99984e+07
-2.94493e+07
-3.38482e+07
-1.79883e+07
-3.5547e+07
-2.12331e+07
-2.83912e+07
-1.84043e+07
-2.42996e+07
-3.04526e+07
-2.0664e+07
-2.8191e+07
-2.44354e+07
-2.71772e+07
-1.50986e+07
-3.42263e+07
-1.6908e+07
-2.41597e+07
-3.17977e+07
-2.44417e+07
-2.85577e+07
-2.52292e+07
-2.67352e+07
-2.22565e+07
-2.90535e+07
-1.70834e+07
-2.06521e+07
-3.635e+07
-2.3365e+07
-3.04096e+07
-2.77161e+07
-3.06669e+07
-3.59276e+07
-2.91149e+07
-1.60114e+07
-2.47187e+07
-2.59761e+07
-2.60929e+07
-2.46638e+07
-3.79118e+07
-3.09571e+07
-3.03388e+07
-3.67723e+07
-2.7752e+07
-1.76862e+07
-3.91262e+07
-3.19104e+07
-3.32819e+07
-8.29321e+06
-2.29051e+07
-1.50823e+07
-2.57505e+07
-2.0194e+07
-1.95369e+07
-2.39309e+07
-2.64847e+07
-1.67503e+07
-2.32145e+07
-2.74102e+07
-1.6781e+07
-2.31183e+07
-2.72817e+07
-2.56571e+07
-1.82618e+07
-3.01422e+07
-1.78482e+07
-2.0266e+07
-2.44433e+07
-2.90887e+07
-2.62552e+07
-2.09273e+07
-3.16549e+07
-2.35176e+07
-2.75295e+07
-2.16472e+07
-2.39738e+07
-2.16158e+07
-2.44434e+07
-2.24879e+07
-3.47245e+07
-2.85371e+07
)
;

boundaryField
{
    inlet
    {
        type            calculated;
        value           nonuniform 0();
    }
    outlet
    {
        type            calculated;
        value           uniform 0;
    }
    wall
    {
        type            calculated;
        value           uniform 0;
    }
    procBoundary5to1
    {
        type            processor;
        value           nonuniform List<scalar> 
32
(
728.502
461.522
732.456
577.453
564.995
242.084
490.753
613.148
618.931
687.234
577.381
714.487
279.931
596.559
416.353
843.141
671.576
808.529
565.284
730.817
254.541
489.348
418.561
575.271
575.271
575.271
593.834
922.743
922.743
922.743
445.188
445.188
)
;
    }
    procBoundary5to4
    {
        type            processor;
        value           nonuniform List<scalar> 
12
(
729.582
840.042
509.736
532.853
724.035
793.926
653.023
615.155
620.446
648.714
533.178
535.835
)
;
    }
    procBoundary5to7
    {
        type            processor;
        value           nonuniform List<scalar> 
44
(
689.475
484.908
601.835
838.443
945.41
604.535
493.631
464.289
755.799
689.475
495.116
654.253
529.287
621.854
667.711
750.026
463.865
290.662
495.116
764.549
495.116
654.253
381.237
551.238
626.984
580.864
354.896
646.49
692.419
535.642
381.237
493.611
381.237
551.238
445.338
614.929
368.619
553.038
531.093
571.067
657.808
396.08
445.338
376.607
)
;
    }
}


// ************************************************************************* //
