/*--------------------------------*- C++ -*----------------------------------*\
| =========                 |                                                 |
| \\      /  F ield         | OpenFOAM: The Open Source CFD Toolbox           |
|  \\    /   O peration     | Version:  4.x                                   |
|   \\  /    A nd           | Web:      www.OpenFOAM.org                      |
|    \\/     M anipulation  |                                                 |
\*---------------------------------------------------------------------------*/
FoamFile
{
    version     2.0;
    format      ascii;
    class       volVectorField;
    location    "41.5";
    object      Us;
}
// * * * * * * * * * * * * * * * * * * * * * * * * * * * * * * * * * * * * * //

dimensions      [0 1 -1 0 0 0 0];

internalField   nonuniform List<vector> 
114
(
(2.88356e-09 -4.22363e-10 1.20717e-09)
(2.52611e-09 -3.01925e-10 -1.33065e-11)
(2.56085e-09 2.4712e-12 -7.8885e-10)
(1.27913e-09 1.53082e-10 -1.13635e-09)
(1.34122e-09 -3.24826e-11 -1.08438e-09)
(-3.58572e-09 -3.57531e-10 -5.90456e-10)
(5.59205e-09 3.48654e-10 4.14547e-09)
(5.20616e-09 -5.08807e-10 1.8025e-09)
(4.81224e-09 -9.51095e-10 4.07393e-11)
(3.89143e-09 -2.06938e-10 -1.11791e-09)
(3.18619e-09 3.50496e-10 -2.35293e-09)
(2.10893e-09 3.04887e-10 -2.5427e-09)
(7.31032e-10 1.11789e-11 -2.21644e-09)
(5.36989e-09 6.42379e-10 2.0235e-09)
(6.428e-09 2.56966e-10 1.88526e-09)
(7.11768e-09 2.44974e-10 8.85496e-10)
(6.2432e-09 -4.74208e-10 -1.33277e-10)
(5.10611e-09 -4.35383e-10 -8.78226e-10)
(3.86397e-09 1.67828e-10 -1.83683e-09)
(2.87679e-09 4.59282e-10 -3.16184e-09)
(8.78881e-10 1.28623e-11 -1.84849e-09)
(5.29425e-10 1.36936e-10 1.89705e-10)
(1.43339e-09 3.57292e-10 3.54941e-10)
(1.77943e-09 -2.05523e-10 8.04896e-10)
(1.556e-09 -1.83685e-10 4.53783e-10)
(1.53771e-09 1.00443e-11 4.04528e-10)
(1.03594e-09 -7.70151e-11 -4.94946e-10)
(7.57387e-10 1.35944e-10 -9.7252e-10)
(6.28687e-10 2.2477e-10 -1.19162e-09)
(-1.67739e-10 1.29673e-10 -2.64549e-09)
(1.73964e-09 7.16181e-11 5.77091e-10)
(2.63059e-09 4.17907e-11 5.14155e-10)
(3.70981e-09 -2.40892e-10 1.74306e-09)
(3.31016e-09 2.72178e-10 7.98486e-10)
(3.32661e-09 1.24837e-10 1.77744e-10)
(2.84415e-09 2.05108e-10 -7.12424e-10)
(2.44079e-09 2.34428e-10 -1.47442e-09)
(1.31785e-09 5.33285e-10 -2.11518e-09)
(3.60406e-10 3.32152e-10 -2.72036e-09)
(2.7127e-09 1.06287e-10 1.20079e-09)
(4.3413e-09 2.21408e-10 7.2002e-10)
(4.91742e-09 -1.24217e-10 1.28267e-09)
(5.55858e-09 3.34446e-10 6.91296e-10)
(4.92934e-09 8.03803e-11 -2.87911e-10)
(3.88035e-09 1.49723e-10 -6.73482e-10)
(3.16468e-09 6.27778e-10 -1.63741e-09)
(1.69731e-09 1.48926e-09 -2.04031e-09)
(-7.59982e-11 4.655e-10 -1.53072e-09)
(3.44107e-09 -1.66183e-10 6.85638e-10)
(4.52515e-09 -3.2347e-10 1.39708e-10)
(7.98243e-10 1.83357e-11 6.73478e-11)
(8.55306e-10 8.90967e-11 2.74742e-10)
(1.02069e-09 -1.60715e-10 4.8923e-10)
(1.36912e-09 5.7033e-11 4.87248e-12)
(1.51078e-09 2.90386e-11 4.79757e-11)
(7.0043e-10 -1.05291e-10 -3.49517e-10)
(-1.03758e-10 1.2607e-10 -6.57202e-10)
(-6.9309e-10 6.30634e-10 -1.56671e-09)
(1.70949e-09 -2.83102e-10 -6.21515e-09)
(1.53659e-09 -3.09802e-11 3.35742e-10)
(1.70389e-09 -3.46684e-11 4.63286e-10)
(2.10874e-09 -1.71044e-10 1.19022e-09)
(4.75914e-09 5.86517e-10 5.71784e-10)
(2.81232e-09 2.20569e-10 2.42204e-11)
(2.00391e-09 2.31665e-10 -6.55071e-10)
(4.94266e-10 5.38023e-10 -1.26848e-09)
(-2.00356e-10 1.4058e-09 -1.84462e-09)
(-5.39178e-10 1.43161e-09 -3.53922e-09)
(2.47406e-09 2.67364e-10 9.06765e-10)
(2.82363e-09 1.97075e-10 2.58497e-10)
(3.51475e-09 2.01242e-11 8.26475e-10)
(4.04603e-09 -1.04092e-11 3.31886e-10)
(3.52127e-09 1.17784e-10 -1.79288e-10)
(2.46781e-09 3.9084e-10 -4.46363e-10)
(1.24815e-09 9.64775e-10 -1.26679e-09)
(3.32719e-10 1.43512e-09 -1.86296e-09)
(-4.35548e-11 1.11405e-09 -2.04002e-09)
(2.95591e-09 -2.07462e-11 6.65609e-10)
(3.4559e-09 -3.18964e-11 3.21076e-10)
(4.08545e-09 -1.88492e-10 -3.62117e-11)
(3.99041e-09 1.36216e-10 5.0118e-12)
(4.01062e-10 4.79591e-11 -3.68274e-11)
(4.6377e-10 -1.50556e-11 1.76759e-10)
(6.19594e-10 -7.95889e-11 -9.25896e-11)
(1.10256e-09 -1.01839e-10 -7.30639e-11)
(1.16441e-09 -8.05866e-11 3.72604e-11)
(2.75927e-10 7.88943e-12 -2.37885e-10)
(-6.64312e-10 2.56011e-10 -2.74388e-10)
(-9.30084e-10 1.84413e-09 -2.16297e-09)
(1.54171e-09 4.7606e-09 -5.85096e-09)
(8.41814e-10 2.81329e-12 -3.52045e-12)
(8.43962e-10 6.84926e-11 2.61769e-10)
(2.4611e-09 -4.45564e-10 5.53261e-11)
(5.45764e-09 1.25149e-09 -2.2314e-10)
(2.3667e-09 7.00229e-10 -1.31527e-10)
(1.1041e-09 1.68827e-10 -1.79847e-10)
(3.21903e-10 7.28434e-10 -9.15287e-10)
(-6.08787e-10 2.94798e-09 -1.27829e-09)
(1.2069e-09 6.51298e-09 -1.95597e-09)
(1.16129e-09 1.71264e-10 4.58702e-11)
(1.41425e-09 1.34523e-10 8.33674e-11)
(1.86619e-09 1.55033e-10 1.31433e-10)
(2.61091e-09 -2.97313e-11 4.33215e-11)
(2.1214e-09 4.59664e-10 -1.03248e-10)
(1.67609e-09 3.72382e-10 -1.3692e-10)
(6.57574e-10 7.31766e-10 -6.06886e-10)
(-1.77992e-10 1.05235e-09 -1.0168e-09)
(1.21402e-10 1.10106e-09 -1.3072e-09)
(2.04986e-09 3.03673e-10 8.45278e-11)
(1.87662e-09 8.29115e-11 -6.39069e-12)
(2.13871e-09 -9.10972e-10 -5.27501e-11)
(2.42743e-09 -6.53507e-11 -5.4612e-11)
(2.46073e-09 2.851e-10 -1.27351e-11)
(1.58696e-09 2.70572e-10 3.08329e-11)
)
;

boundaryField
{
    inlet
    {
        type            zeroGradient;
    }
    outlet
    {
        type            zeroGradient;
    }
    wall
    {
        type            zeroGradient;
    }
    procBoundary5to1
    {
        type            processor;
        value           nonuniform List<vector> 
32
(
(3.26669e-09 -6.25745e-10 1.10925e-09)
(2.72901e-09 -5.17093e-10 6.69468e-11)
(2.43783e-09 -3.58562e-10 -1.13114e-09)
(2.14859e-09 2.30875e-10 -1.77389e-09)
(2.48663e-10 -2.46366e-10 -2.32162e-09)
(8.06828e-10 -6.35709e-10 -5.46131e-09)
(5.90965e-09 -2.31999e-10 7.15108e-09)
(4.6955e-09 -1.40429e-09 1.8571e-09)
(4.54101e-09 -1.38916e-09 -1.30793e-10)
(3.78749e-09 -2.43058e-10 -1.72552e-09)
(3.87204e-09 1.70234e-10 -3.86173e-09)
(2.74e-09 -1.10281e-09 -4.9732e-09)
(1.02428e-09 -1.12583e-09 -3.85464e-09)
(5.99011e-09 6.95084e-10 3.2596e-09)
(6.9761e-09 2.12649e-10 4.05761e-09)
(7.24303e-09 -6.56339e-10 1.15138e-09)
(7.02885e-09 -1.32805e-09 -7.29307e-10)
(6.31481e-09 -1.20249e-09 -2.27133e-09)
(5.70575e-09 2.53915e-10 -4.4121e-09)
(3.63088e-09 9.86984e-11 -4.7729e-09)
(2.26767e-09 -1.30901e-09 -4.34066e-09)
(1.18978e-09 3.24737e-10 2.03416e-09)
(1.60189e-09 1.03571e-09 3.75672e-10)
(1.99511e-09 5.0309e-10 1.41763e-09)
(1.99511e-09 5.0309e-10 1.41763e-09)
(1.99511e-09 5.0309e-10 1.41763e-09)
(2.07313e-09 5.20641e-10 1.78992e-09)
(3.8692e-09 1.06306e-09 3.03058e-09)
(3.8692e-09 1.06306e-09 3.03058e-09)
(3.8692e-09 1.06306e-09 3.03058e-09)
(3.19222e-09 -2.07827e-10 1.30385e-09)
(3.19222e-09 -2.07827e-10 1.30385e-09)
)
;
    }
    procBoundary5to4
    {
        type            processor;
        value           nonuniform List<vector> 
12
(
(-5.95296e-11 1.82092e-11 9.00213e-10)
(8.55459e-10 4.15044e-10 1.13753e-09)
(2.29789e-09 5.80344e-11 7.44871e-10)
(3.0318e-09 -6.48524e-11 1.86237e-10)
(5.78182e-10 -5.99199e-14 2.87522e-10)
(1.19378e-09 -9.84909e-12 4.03706e-10)
(1.49679e-09 1.08085e-10 6.73331e-10)
(2.07714e-09 -3.05744e-10 7.88973e-10)
(3.05959e-10 -4.9053e-12 5.52006e-11)
(6.76763e-10 -2.93189e-11 1.46072e-10)
(9.83843e-10 5.7026e-11 2.87233e-10)
(1.60381e-09 -1.4315e-10 2.36682e-10)
)
;
    }
    procBoundary5to7
    {
        type            processor;
        value           nonuniform List<vector> 
44
(
(6.29339e-09 -5.08713e-10 4.17196e-10)
(7.30804e-09 3.48614e-11 6.09213e-10)
(8.258e-09 -7.60358e-11 -2.03952e-10)
(7.00937e-09 -3.62578e-10 -6.3814e-10)
(6.075e-09 -5.24786e-10 -2.00882e-09)
(3.52599e-09 6.92635e-10 -2.44727e-09)
(2.34624e-09 1.49003e-09 -2.70721e-09)
(3.76531e-10 2.71557e-10 -1.70417e-09)
(4.93527e-09 -1.46539e-10 2.9601e-10)
(6.29339e-09 -5.08713e-10 4.17196e-10)
(5.66585e-09 -5.37707e-10 1.31765e-10)
(6.1685e-09 4.55498e-11 6.38841e-11)
(4.93521e-09 -1.77909e-12 -1.99488e-10)
(4.32537e-09 6.63664e-10 -8.10383e-10)
(2.9256e-09 1.35037e-09 -1.61835e-09)
(1.5087e-09 2.30246e-09 -2.14859e-09)
(-3.44426e-10 5.31926e-10 -1.72987e-09)
(3.46277e-09 -8.24825e-10 5.12625e-11)
(5.66585e-09 -5.37707e-10 1.31765e-10)
(4.06245e-09 -6.59331e-10 1.41236e-10)
(5.66585e-09 -5.37707e-10 1.31765e-10)
(6.1685e-09 4.55498e-11 6.38841e-11)
(3.66986e-09 4.53165e-10 1.40278e-10)
(2.67724e-09 5.74995e-10 -3.74419e-10)
(1.32117e-09 1.01643e-09 -1.48176e-09)
(5.81417e-10 1.46637e-09 -1.52687e-09)
(-2.75977e-11 6.01007e-10 -1.38111e-09)
(2.87163e-09 -3.04085e-10 4.34278e-10)
(3.53199e-09 -1.69734e-10 1.57713e-10)
(3.60539e-09 -1.69343e-10 2.45624e-10)
(3.66986e-09 4.53165e-10 1.40278e-10)
(3.87099e-09 6.98388e-11 3.10354e-10)
(3.66986e-09 4.53165e-10 1.40278e-10)
(2.67724e-09 5.74995e-10 -3.74419e-10)
(9.32718e-10 4.23173e-10 -5.77952e-10)
(-1.73817e-10 1.54141e-09 -9.89351e-10)
(2.74038e-10 7.85886e-10 -1.40309e-09)
(2.00286e-09 -6.6947e-11 1.64545e-10)
(2.50943e-09 -4.82519e-11 1.78498e-10)
(2.55395e-09 -1.81946e-10 -3.14319e-11)
(2.73516e-09 1.48711e-10 1.52327e-10)
(2.82606e-09 4.69444e-10 7.70046e-11)
(9.32718e-10 4.23173e-10 -5.77952e-10)
(3.47502e-09 8.80853e-10 -4.39874e-10)
)
;
    }
}


// ************************************************************************* //
