/*--------------------------------*- C++ -*----------------------------------*\
| =========                 |                                                 |
| \\      /  F ield         | OpenFOAM: The Open Source CFD Toolbox           |
|  \\    /   O peration     | Version:  4.x                                   |
|   \\  /    A nd           | Web:      www.OpenFOAM.org                      |
|    \\/     M anipulation  |                                                 |
\*---------------------------------------------------------------------------*/
FoamFile
{
    version     2.0;
    format      ascii;
    class       volScalarField;
    location    "59.5";
    object      alpha.iron;
}
// * * * * * * * * * * * * * * * * * * * * * * * * * * * * * * * * * * * * * //

dimensions      [0 0 0 0 0 0 0];

internalField   nonuniform List<scalar> 
132
(
1
1
1
1
1
1
1
1
0.999996
1
1
1
1
1
1
1
1
0.999993
1
1
1
1
1
1
1
1
0.999983
1
1
1
1
1
1
1
1
0.999964
1
1
1
1
1
1
0.999985
1
1
1
1
1
1
1
0.999999
0.999912
1
1
1
1
1
1
1
0.999999
0.999996
1
1
1
1
1
1
1
1
0.999999
1
1
1
1
0.999991
1
1
1
1
1
1
1
1
0.999981
1
1
1
1
1
1
1
1
0.999937
1
1
1
1
1
1
1
1
0.99673
1
1
0.999559
1
1
1
1
1
1
1
1
0.999738
1
1
1
1
1
1
1
1
0.998612
1
1
1
1
1
1
1
1
0.999739
)
;

boundaryField
{
    inlet
    {
        type            fixedValue;
        value           nonuniform 0();
    }
    outlet
    {
        type            fixedValue;
        value           uniform 1;
    }
    wall
    {
        type            zeroGradient;
    }
    procBoundary7to0
    {
        type            processor;
        value           uniform 1;
    }
    procBoundary7to1
    {
        type            processor;
        value           uniform 1;
    }
    procBoundary7to3
    {
        type            processor;
        value           nonuniform List<scalar> 
36
(
1
1
1
1
1
1
1
1
0.999996
1
1
1
1
1
1
1
1
0.999998
1
1
1
1
1
1
1
1
0.999991
1
1
1
1
1
1
1
1
0.999958
)
;
    }
    procBoundary7to5
    {
        type            processor;
        value           nonuniform List<scalar> 
44
(
1
1
1
1
1
1
0.999999
0.999982
1
1
1
1
1
1
1
1
0.999993
1
1
1
1
1
1
1
1
1
0.999993
1
1
1
1
1
1
1
1
1
0.999345
1
1
1
1
1
1
1
)
;
    }
    procBoundary7to6
    {
        type            processor;
        value           nonuniform List<scalar> 
12
(
1
1
1
1
1
1
1
1
1
1
1
1
)
;
    }
}


// ************************************************************************* //
