/*--------------------------------*- C++ -*----------------------------------*\
| =========                 |                                                 |
| \\      /  F ield         | OpenFOAM: The Open Source CFD Toolbox           |
|  \\    /   O peration     | Version:  4.x                                   |
|   \\  /    A nd           | Web:      www.OpenFOAM.org                      |
|    \\/     M anipulation  |                                                 |
\*---------------------------------------------------------------------------*/
FoamFile
{
    version     2.0;
    format      ascii;
    class       volVectorField;
    location    "59.5";
    object      impParticleForces;
}
// * * * * * * * * * * * * * * * * * * * * * * * * * * * * * * * * * * * * * //

dimensions      [1 1 -2 0 0 0 0];

internalField   nonuniform List<vector> 
132
(
(0.00241888 -3.58284e-06 -3.10621e-05)
(0.00244938 -2.56251e-06 -2.6378e-05)
(0.00241452 -1.96112e-06 -2.18736e-05)
(0.0024385 -1.12218e-06 -1.7522e-05)
(0.00242152 -3.9452e-07 -1.35632e-05)
(0.00243306 1.07943e-06 -9.73192e-06)
(0.00235476 1.40219e-06 -9.81219e-06)
(0.00231967 2.2939e-06 -1.04944e-05)
(0.00224644 4.29133e-06 -1.816e-05)
(0.00241586 -1.24388e-06 -3.18961e-05)
(0.00246571 -1.29067e-06 -2.7842e-05)
(0.00242032 -1.27089e-06 -2.37423e-05)
(0.00243525 -4.54096e-07 -2.00896e-05)
(0.00240953 1.21184e-06 -1.71427e-05)
(0.00242062 3.45292e-06 -1.44591e-05)
(0.00236238 8.85577e-06 -1.57942e-05)
(0.00233629 1.31838e-05 -1.70256e-05)
(0.00225417 2.57457e-05 -2.45759e-05)
(0.0024214 3.62718e-07 -3.40318e-05)
(0.00246692 -7.80772e-07 -3.05952e-05)
(0.00243155 -9.7572e-07 -2.72294e-05)
(0.00245042 -4.04901e-07 -2.44525e-05)
(0.00242993 2.49576e-06 -2.30939e-05)
(0.00245825 4.4127e-06 -2.20748e-05)
(0.00239023 1.28563e-05 -2.46633e-05)
(0.00236196 1.85554e-05 -2.70035e-05)
(0.00225673 3.61711e-05 -3.79886e-05)
(0.00240491 -1.60662e-08 -3.53759e-05)
(0.00242096 -1.60535e-06 -3.19058e-05)
(0.002408 -2.1823e-06 -2.91929e-05)
(0.00240661 -1.46808e-06 -2.62697e-05)
(0.00240819 5.93885e-07 -2.60828e-05)
(0.0024164 4.46873e-06 -2.47525e-05)
(0.00236035 1.17808e-05 -2.87348e-05)
(0.00233883 2.04645e-05 -3.06877e-05)
(0.00223586 2.94725e-05 -4.20237e-05)
(0.00238507 -3.71461e-06 -1.67087e-05)
(0.00241034 -3.23964e-06 -1.23712e-05)
(0.00237754 -2.54599e-06 -8.34806e-06)
(0.00238708 -1.71221e-06 -3.41232e-06)
(0.00233321 -1.21875e-06 1.36838e-07)
(0.00231352 5.54595e-07 5.12588e-06)
(0.00222877 -8.70443e-07 8.63046e-06)
(0.00238435 -2.5576e-06 -2.59847e-05)
(0.00242733 -3.11836e-06 -2.26857e-05)
(0.00238886 -3.00057e-06 -1.92939e-05)
(0.00240985 -2.5864e-06 -1.57951e-05)
(0.00238495 -1.32384e-06 -1.23604e-05)
(0.00238731 7.35612e-07 -8.74166e-06)
(0.00232786 3.51466e-06 -6.53346e-06)
(0.00231214 8.4432e-06 -3.09207e-06)
(0.00222498 1.37835e-05 -2.1689e-06)
(0.00239611 -1.05168e-06 -2.7932e-05)
(0.00243452 -2.91058e-06 -2.50997e-05)
(0.00239575 -2.93568e-06 -2.20868e-05)
(0.00240914 -2.73959e-06 -1.90169e-05)
(0.00239307 -8.73765e-07 -1.64667e-05)
(0.00240813 1.48168e-06 -1.36969e-05)
(0.00234618 5.93638e-06 -1.26215e-05)
(0.00231251 1.1322e-05 -1.09342e-05)
(0.00222245 1.97365e-05 -1.09806e-05)
(0.00237326 -9.80839e-07 -2.92149e-05)
(0.00239161 -3.09739e-06 -2.6387e-05)
(0.00236649 -3.46229e-06 -2.37949e-05)
(0.00237862 -3.49004e-06 -2.09619e-05)
(0.00235517 -1.68454e-06 -1.86795e-05)
(0.002357 1.16273e-06 -1.66851e-05)
(0.00230842 5.73491e-06 -1.65445e-05)
(0.00227857 1.15404e-05 -1.55112e-05)
(0.00219533 1.64478e-05 -1.73111e-05)
(0.00236459 -5.92039e-06 -4.93428e-06)
(0.00237785 -5.63537e-06 1.54068e-08)
(0.00233405 -6.28246e-06 6.48545e-06)
(0.00231699 -6.26795e-06 1.33437e-05)
(0.00222139 -7.6343e-06 2.81534e-05)
(0.00238802 -3.67098e-06 -2.10738e-05)
(0.00241857 -4.26203e-06 -1.87499e-05)
(0.00237856 -4.85255e-06 -1.60425e-05)
(0.00239665 -5.10688e-06 -1.30436e-05)
(0.00237164 -4.74159e-06 -9.53117e-06)
(0.00238117 -4.15943e-06 -5.58129e-06)
(0.00232872 -2.21271e-06 -8.84289e-07)
(0.00231887 -2.14267e-07 4.73526e-06)
(0.00222335 8.98279e-06 1.3139e-05)
(0.00239514 -1.56464e-06 -2.27388e-05)
(0.00242103 -3.20454e-06 -2.06792e-05)
(0.00239166 -3.95661e-06 -1.8419e-05)
(0.00241562 -4.592e-06 -1.61161e-05)
(0.00239032 -3.72708e-06 -1.2948e-05)
(0.00240272 -3.60767e-06 -1.03123e-05)
(0.00234502 2.90099e-07 -5.93913e-06)
(0.002329 1.87561e-06 -2.71935e-06)
(0.00222195 1.30516e-05 5.02651e-06)
(0.00236194 -1.42835e-06 -2.37601e-05)
(0.00237665 -3.44383e-06 -2.14803e-05)
(0.00235754 -4.57384e-06 -1.95482e-05)
(0.00238146 -5.34454e-06 -1.71818e-05)
(0.00235682 -5.08614e-06 -1.49465e-05)
(0.00236918 -3.78918e-06 -1.27672e-05)
(0.00231572 -1.25252e-06 -9.68295e-06)
(0.00228471 2.91381e-06 -6.95803e-06)
(0.00219341 6.11781e-06 -1.4242e-06)
(0.002309 -1.09725e-05 9.07043e-06)
(0.00230559 -1.0215e-05 1.74949e-05)
(0.00220335 -1.52019e-05 3.12285e-05)
(0.00235862 -4.68829e-06 -1.86642e-05)
(0.00237519 -5.53563e-06 -1.70276e-05)
(0.00235254 -6.37914e-06 -1.48024e-05)
(0.00237428 -6.96071e-06 -1.25933e-05)
(0.00233552 -7.13807e-06 -9.04556e-06)
(0.00233456 -6.69747e-06 -5.60044e-06)
(0.00229365 -6.10433e-06 -2.71577e-07)
(0.00227625 -3.5249e-06 5.14043e-06)
(0.0021896 -1.63423e-06 1.32506e-05)
(0.00235543 -2.16333e-06 -2.06789e-05)
(0.00236407 -3.74976e-06 -1.92052e-05)
(0.00235206 -4.7207e-06 -1.7836e-05)
(0.00238541 -5.52726e-06 -1.65403e-05)
(0.00234888 -5.40291e-06 -1.42739e-05)
(0.00233715 -4.97896e-06 -1.10348e-05)
(0.00229789 -3.10507e-06 -8.22758e-06)
(0.00228276 -1.55891e-06 -3.19457e-06)
(0.0021924 2.41115e-06 6.7581e-08)
(0.00233522 -1.93091e-06 -2.1961e-05)
(0.00235192 -3.7611e-06 -2.04045e-05)
(0.00233707 -5.10835e-06 -1.91074e-05)
(0.00237031 -6.1242e-06 -1.79278e-05)
(0.00234417 -6.57385e-06 -1.65931e-05)
(0.00231918 -5.04452e-06 -1.34245e-05)
(0.00227428 -3.78087e-06 -1.18715e-05)
(0.00225099 -6.78884e-07 -7.52515e-06)
(0.00217473 -2.35621e-06 -9.69439e-06)
)
;

boundaryField
{
    inlet
    {
        type            zeroGradient;
    }
    outlet
    {
        type            zeroGradient;
    }
    wall
    {
        type            zeroGradient;
    }
    procBoundary7to0
    {
        type            processor;
        value           uniform (0.00240511 -4.53421e-06 -3.58361e-05);
    }
    procBoundary7to1
    {
        type            processor;
        value           uniform (0.00241685 -6.05476e-06 -3.05987e-05);
    }
    procBoundary7to3
    {
        type            processor;
        value           nonuniform List<vector> 
36
(
(0.00246008 -3.67832e-06 -3.6861e-05)
(0.00250141 -2.68585e-06 -3.14459e-05)
(0.00247029 -1.80688e-06 -2.66409e-05)
(0.00249472 -1.09636e-06 -2.20213e-05)
(0.00244951 -3.35053e-07 -1.89606e-05)
(0.00246259 4.94556e-07 -1.62299e-05)
(0.00240584 1.41352e-06 -2.01046e-05)
(0.00237829 3.73043e-06 -2.48847e-05)
(0.00229437 2.18479e-06 -4.31869e-05)
(0.00245978 -9.72057e-07 -3.70873e-05)
(0.0024839 -1.06539e-06 -3.15802e-05)
(0.00245972 -5.97465e-07 -2.72367e-05)
(0.00245782 3.72627e-07 -2.32038e-05)
(0.0024313 2.3897e-06 -2.05301e-05)
(0.00245893 6.14447e-06 -1.87727e-05)
(0.00240431 1.08969e-05 -2.30076e-05)
(0.0023846 1.93135e-05 -2.95011e-05)
(0.00228653 2.71289e-05 -4.52457e-05)
(0.00246693 7.98119e-07 -3.88412e-05)
(0.00250634 -3.03598e-07 -3.43182e-05)
(0.00247505 -3.89379e-07 -3.00077e-05)
(0.0024846 5.00923e-07 -2.64412e-05)
(0.00246162 3.67647e-06 -2.49125e-05)
(0.00249202 8.71464e-06 -2.51864e-05)
(0.00243665 1.75802e-05 -3.09439e-05)
(0.00241073 2.98871e-05 -4.12181e-05)
(0.00230102 4.83419e-05 -6.17633e-05)
(0.0024373 8.19639e-07 -3.95961e-05)
(0.00244767 -8.3277e-07 -3.48188e-05)
(0.00243648 -1.44892e-06 -3.1347e-05)
(0.00245611 -9.5186e-07 -2.84412e-05)
(0.00245345 2.09956e-06 -2.82159e-05)
(0.00246983 7.15136e-06 -2.86584e-05)
(0.00240611 1.71936e-05 -3.59145e-05)
(0.00239562 3.01902e-05 -4.7713e-05)
(0.00229481 4.48784e-05 -7.02985e-05)
)
;
    }
    procBoundary7to5
    {
        type            processor;
        value           nonuniform List<vector> 
44
(
(0.00245123 -3.61537e-06 -2.56195e-05)
(0.00241502 -2.46645e-06 -2.07534e-05)
(0.00244039 -1.24001e-06 -1.61723e-05)
(0.0024028 -1.26998e-06 -1.21914e-05)
(0.00240186 -1.47524e-06 -8.15084e-06)
(0.00235214 -3.3026e-06 -6.80653e-06)
(0.00232293 -5.76546e-06 -6.852e-06)
(0.00224891 -1.08775e-05 -1.19052e-05)
(0.00239401 -4.77556e-06 -2.44599e-05)
(0.00240362 -4.23315e-06 -2.06428e-05)
(0.00239292 -4.14223e-06 -1.4772e-05)
(0.00241987 -3.0875e-06 -1.00299e-05)
(0.00238068 -3.1352e-06 -5.5437e-06)
(0.00239276 -3.40741e-06 -3.55858e-08)
(0.0023364 -5.78669e-06 4.97418e-06)
(0.00231666 -8.45767e-06 1.13653e-05)
(0.00223457 -1.58861e-05 1.68733e-05)
(0.00239401 -4.77556e-06 -2.44599e-05)
(0.00240362 -4.23315e-06 -2.06428e-05)
(0.00240362 -4.23315e-06 -2.06428e-05)
(0.00239131 -6.17779e-06 -1.29167e-05)
(0.00241143 -6.09352e-06 -9.35315e-06)
(0.00239672 -6.27292e-06 -1.20528e-06)
(0.00240255 -6.5651e-06 4.51893e-06)
(0.00235212 -9.16166e-06 1.21736e-05)
(0.00233983 -1.29109e-05 2.32021e-05)
(0.00224824 -2.17771e-05 4.03952e-05)
(0.00237914 -6.28813e-06 -1.9134e-05)
(0.00242693 -6.08675e-06 -1.62436e-05)
(0.00239131 -6.17779e-06 -1.29167e-05)
(0.00241143 -6.09352e-06 -9.35315e-06)
(0.00241143 -6.09352e-06 -9.35315e-06)
(0.0023633 -9.82124e-06 -3.39949e-06)
(0.00235201 -9.2687e-06 1.43909e-06)
(0.00233283 -1.18717e-05 1.52085e-05)
(0.00232113 -1.40829e-05 2.35452e-05)
(0.00222937 -2.32128e-05 4.42464e-05)
(0.00235058 -7.48154e-06 -1.65254e-05)
(0.00237808 -7.68116e-06 -1.41105e-05)
(0.00236275 -8.13484e-06 -1.13274e-05)
(0.00237908 -8.55979e-06 -8.1502e-06)
(0.0023633 -9.82124e-06 -3.39949e-06)
(0.00235201 -9.2687e-06 1.43909e-06)
(0.00235201 -9.2687e-06 1.43909e-06)
)
;
    }
    procBoundary7to6
    {
        type            processor;
        value           nonuniform List<vector> 
12
(
(0.00243376 -4.2363e-07 -3.67366e-05)
(0.00245151 2.52422e-06 -3.85757e-05)
(0.00240654 2.40977e-06 -3.9e-05)
(0.00242085 -1.81223e-06 -2.96925e-05)
(0.00243378 8.30461e-07 -3.1434e-05)
(0.00240189 1.48675e-06 -3.23385e-05)
(0.00241303 -2.62101e-06 -2.33803e-05)
(0.00242906 1.00822e-06 -2.45938e-05)
(0.00238805 1.25582e-06 -2.5734e-05)
(0.0023709 -3.55489e-06 -2.02873e-05)
(0.00238278 -8.68416e-08 -2.20776e-05)
(0.00236716 5.87211e-07 -2.34573e-05)
)
;
    }
}


// ************************************************************************* //
