/*--------------------------------*- C++ -*----------------------------------*\
| =========                 |                                                 |
| \\      /  F ield         | OpenFOAM: The Open Source CFD Toolbox           |
|  \\    /   O peration     | Version:  4.x                                   |
|   \\  /    A nd           | Web:      www.OpenFOAM.org                      |
|    \\/     M anipulation  |                                                 |
\*---------------------------------------------------------------------------*/
FoamFile
{
    version     2.0;
    format      ascii;
    class       volScalarField;
    location    "9.5";
    object      Deff;
}
// * * * * * * * * * * * * * * * * * * * * * * * * * * * * * * * * * * * * * //

dimensions      [0 2 -1 0 0 0 0];

internalField   nonuniform List<scalar> 
132
(
9.98398e-08
9.97574e-08
9.96946e-08
9.96372e-08
9.95254e-08
9.94202e-08
9.93754e-08
9.94837e-08
9.95889e-08
9.9704e-08
9.95914e-08
9.95168e-08
9.94319e-08
9.94433e-08
9.92795e-08
9.9317e-08
9.93105e-08
9.93153e-08
9.9734e-08
9.94882e-08
9.9423e-08
9.93326e-08
9.93087e-08
9.92782e-08
9.9289e-08
9.92484e-08
9.90656e-08
9.96338e-08
9.9468e-08
9.94281e-08
9.95119e-08
9.92436e-08
9.90579e-08
9.9024e-08
9.89758e-08
9.89246e-08
9.89311e-08
9.89449e-08
9.8982e-08
9.93355e-08
9.90966e-08
9.90502e-08
9.89526e-08
9.88818e-08
9.8834e-08
9.88205e-08
9.87827e-08
9.88236e-08
9.92054e-08
9.90103e-08
9.89726e-08
9.89046e-08
9.87963e-08
9.87456e-08
9.86641e-08
9.87766e-08
9.87669e-08
9.90502e-08
9.90289e-08
9.89603e-08
9.8891e-08
9.863e-08
9.91233e-08
9.89301e-08
9.87703e-08
9.87256e-08
9.86803e-08
9.86951e-08
9.8596e-08
9.8599e-08
9.86783e-08
9.89812e-08
9.88218e-08
9.87265e-08
9.86829e-08
9.85635e-08
9.85756e-08
9.84583e-08
9.84086e-08
9.85032e-08
9.88355e-08
9.87771e-08
9.86462e-08
9.84896e-08
9.84085e-08
9.83849e-08
9.83602e-08
9.84449e-08
9.84781e-08
9.87676e-08
9.86878e-08
9.85551e-08
9.84266e-08
9.83356e-08
9.83067e-08
9.82806e-08
9.90193e-08
9.88407e-08
9.86627e-08
9.86034e-08
9.85037e-08
9.84025e-08
9.84731e-08
9.85034e-08
9.84101e-08
9.88484e-08
9.86176e-08
9.84974e-08
9.84417e-08
9.84055e-08
9.83573e-08
9.82393e-08
9.82935e-08
9.82727e-08
9.88183e-08
9.8655e-08
9.84208e-08
9.83458e-08
9.82448e-08
9.81573e-08
9.81864e-08
9.82646e-08
9.81581e-08
9.87335e-08
9.85634e-08
9.83178e-08
9.81841e-08
9.82697e-08
9.80604e-08
9.81012e-08
9.8229e-08
9.82852e-08
)
;

boundaryField
{
    inlet
    {
        type            calculated;
        value           uniform 0;
    }
    outlet
    {
        type            calculated;
        value           nonuniform 0();
    }
    wall
    {
        type            calculated;
        value           uniform 0;
    }
    procBoundary0to1
    {
        type            processor;
        value           uniform 0;
    }
    procBoundary0to2
    {
        type            processor;
        value           uniform 0;
    }
    procBoundary0to4
    {
        type            processor;
        value           uniform 0;
    }
    procBoundary0to6
    {
        type            processor;
        value           uniform 0;
    }
    procBoundary0to7
    {
        type            processor;
        value           uniform 0;
    }
}


// ************************************************************************* //
