/*--------------------------------*- C++ -*----------------------------------*\
| =========                 |                                                 |
| \\      /  F ield         | OpenFOAM: The Open Source CFD Toolbox           |
|  \\    /   O peration     | Version:  4.x                                   |
|   \\  /    A nd           | Web:      www.OpenFOAM.org                      |
|    \\/     M anipulation  |                                                 |
\*---------------------------------------------------------------------------*/
FoamFile
{
    version     2.0;
    format      ascii;
    class       volVectorField;
    location    "9.5";
    object      impParticleForces;
}
// * * * * * * * * * * * * * * * * * * * * * * * * * * * * * * * * * * * * * //

dimensions      [1 1 -2 0 0 0 0];

internalField   nonuniform List<vector> 
132
(
(0.00220835 -2.53922e-05 -0.000104189)
(0.00222984 -2.59636e-05 -0.00010246)
(0.00227897 -2.67201e-05 -9.6991e-05)
(0.00230237 -2.6307e-05 -8.42965e-05)
(0.00234797 -2.635e-05 -6.79475e-05)
(0.00238228 -2.60764e-05 -4.75885e-05)
(0.0024174 -2.60757e-05 -2.66119e-05)
(0.00238202 -2.32262e-05 -7.48148e-06)
(0.00236778 -1.76097e-05 5.85582e-06)
(0.00223606 -2.25952e-05 -0.000107032)
(0.00227119 -2.34784e-05 -0.00010662)
(0.00232342 -2.4244e-05 -0.000101348)
(0.00234542 -2.36562e-05 -8.77813e-05)
(0.00238109 -2.34903e-05 -7.00951e-05)
(0.00241016 -2.32803e-05 -4.84885e-05)
(0.00241423 -2.28318e-05 -2.56633e-05)
(0.00240093 -2.15295e-05 -6.50492e-06)
(0.00241129 -1.94647e-05 6.79182e-06)
(0.00225321 -1.53564e-05 -0.000109064)
(0.00229387 -1.60705e-05 -0.000109184)
(0.00234151 -1.63613e-05 -0.000103249)
(0.00236239 -1.5655e-05 -8.87519e-05)
(0.0024085 -1.56659e-05 -7.07452e-05)
(0.00239987 -1.4836e-05 -4.71011e-05)
(0.00240243 -1.43723e-05 -2.42995e-05)
(0.00238499 -1.35011e-05 -6.34284e-06)
(0.00240823 -1.28914e-05 5.47751e-06)
(0.00226287 -4.91201e-06 -0.00010976)
(0.0022881 -4.67188e-06 -0.000108749)
(0.00232657 -4.16951e-06 -0.000102329)
(0.00224135 -2.70925e-05 -0.000105181)
(0.00227795 -2.83946e-05 -0.000105155)
(0.00232631 -2.93364e-05 -0.000100076)
(0.0023541 -2.88216e-05 -8.69321e-05)
(0.00239143 -2.8712e-05 -6.95635e-05)
(0.00240593 -2.76871e-05 -4.7375e-05)
(0.00244105 -2.76045e-05 -2.61543e-05)
(0.00240709 -2.49177e-05 -6.36986e-06)
(0.00241626 -2.2007e-05 8.64953e-06)
(0.00227233 -2.43151e-05 -0.00010835)
(0.00233059 -2.62239e-05 -0.000110664)
(0.00237726 -2.70263e-05 -0.00010527)
(0.00239795 -2.61947e-05 -9.05028e-05)
(0.00244863 -2.64343e-05 -7.28939e-05)
(0.00244344 -2.48814e-05 -4.83242e-05)
(0.00246129 -2.45408e-05 -2.462e-05)
(0.00243747 -2.28764e-05 -5.18529e-06)
(0.00244851 -2.13953e-05 8.25781e-06)
(0.00229409 -1.65368e-05 -0.000110781)
(0.00234771 -1.78267e-05 -0.000112695)
(0.00239262 -1.81454e-05 -0.000106833)
(0.00240846 -1.7248e-05 -9.06644e-05)
(0.00244607 -1.68429e-05 -7.12084e-05)
(0.00243953 -1.58761e-05 -4.6518e-05)
(0.00246341 -1.5593e-05 -2.22247e-05)
(0.00241535 -1.40236e-05 -5.52163e-06)
(0.00242348 -1.29e-05 5.02555e-06)
(0.00231561 -5.14907e-06 -0.000113032)
(0.00234309 -4.93179e-06 -0.000112384)
(0.00239497 -4.6367e-06 -0.000107681)
(0.00240226 -3.89858e-06 -9.03032e-05)
(0.00246138 -3.28318e-06 -7.20176e-05)
(0.00225227 -2.85709e-05 -9.8666e-05)
(0.00228476 -2.98817e-05 -9.8343e-05)
(0.00233514 -3.10707e-05 -9.35656e-05)
(0.00234386 -2.98067e-05 -7.9669e-05)
(0.00237752 -2.93139e-05 -6.30955e-05)
(0.0023791 -2.74721e-05 -4.24103e-05)
(0.00240814 -2.67762e-05 -2.26952e-05)
(0.00238614 -2.425e-05 -5.86676e-06)
(0.00239465 -2.20762e-05 6.52825e-06)
(0.0022919 -2.59963e-05 -0.000102332)
(0.00233649 -2.76994e-05 -0.000103231)
(0.00238192 -2.86327e-05 -9.77713e-05)
(0.00238484 -2.7015e-05 -8.23659e-05)
(0.00242664 -2.67148e-05 -6.49841e-05)
(0.00241117 -2.43357e-05 -4.24587e-05)
(0.0024448 -2.38841e-05 -2.14826e-05)
(0.00241794 -2.17689e-05 -5.34819e-06)
(0.00242475 -2.01784e-05 5.40174e-06)
(0.00231119 -1.75553e-05 -0.000103937)
(0.00234847 -1.85267e-05 -0.00010436)
(0.00239881 -1.92479e-05 -9.91045e-05)
(0.00240694 -1.81116e-05 -8.31941e-05)
(0.00244131 -1.74551e-05 -6.40478e-05)
(0.00241606 -1.56291e-05 -4.09396e-05)
(0.0024374 -1.48762e-05 -1.98579e-05)
(0.00239071 -1.33814e-05 -6.46231e-06)
(0.0023997 -1.25186e-05 1.4552e-06)
(0.00232369 -5.08021e-06 -0.00010524)
(0.00235816 -5.04176e-06 -0.000105502)
(0.00241116 -4.77232e-06 -0.000100369)
(0.00240709 -4.13235e-06 -8.33954e-05)
(0.00243692 -3.78167e-06 -6.38728e-05)
(0.00241657 -3.59747e-06 -4.09774e-05)
(0.00243202 -3.46407e-06 -1.96168e-05)
(0.00224142 -2.91015e-05 -8.55352e-05)
(0.00227213 -3.03744e-05 -8.47941e-05)
(0.00232519 -3.16828e-05 -8.05455e-05)
(0.00232373 -2.9802e-05 -6.76495e-05)
(0.00235844 -2.90504e-05 -5.34597e-05)
(0.00236305 -2.70607e-05 -3.63614e-05)
(0.00238187 -2.55823e-05 -1.96209e-05)
(0.00236123 -2.29136e-05 -6.02711e-06)
(0.00239056 -2.15771e-05 4.14098e-06)
(0.00228495 -2.65899e-05 -8.85161e-05)
(0.00233537 -2.86936e-05 -8.91799e-05)
(0.00238147 -2.96242e-05 -8.39534e-05)
(0.00237902 -2.76049e-05 -7.02474e-05)
(0.0023944 -2.60124e-05 -5.39169e-05)
(0.00238196 -2.34754e-05 -3.5365e-05)
(0.0024199 -2.26115e-05 -1.83178e-05)
(0.00238609 -2.01446e-05 -6.01977e-06)
(0.00241246 -1.90708e-05 2.28447e-06)
(0.00230528 -1.81322e-05 -8.97732e-05)
(0.00233938 -1.89331e-05 -8.90578e-05)
(0.00239763 -1.9812e-05 -8.44282e-05)
(0.00238322 -1.80488e-05 -6.94835e-05)
(0.00240613 -1.71236e-05 -5.28035e-05)
(0.00239008 -1.52869e-05 -3.3984e-05)
(0.00240908 -1.41794e-05 -1.73326e-05)
(0.00236705 -1.29534e-05 -7.09163e-06)
(0.00239553 -1.25664e-05 -1.3128e-06)
(0.00230474 -5.30183e-06 -8.96935e-05)
(0.00234839 -5.26971e-06 -8.9772e-05)
(0.00240719 -5.20722e-06 -8.50562e-05)
(0.00239754 -4.49915e-06 -7.03404e-05)
(0.00239782 -4.26884e-06 -5.25421e-05)
(0.00239062 -4.01197e-06 -3.40877e-05)
(0.00240422 -3.9638e-06 -1.75438e-05)
(0.00236042 -3.95196e-06 -8.21788e-06)
(0.00236554 -4.0423e-06 -4.23296e-06)
)
;

boundaryField
{
    inlet
    {
        type            zeroGradient;
    }
    outlet
    {
        type            zeroGradient;
    }
    wall
    {
        type            zeroGradient;
    }
    procBoundary0to1
    {
        type            processor;
        value           nonuniform List<vector> 
12
(
(0.0023847 -4.62454e-06 1.32911e-05)
(0.00239839 -1.32793e-05 1.01845e-05)
(0.00238127 -9.52035e-06 4.37594e-06)
(0.00242158 -1.63273e-05 1.55305e-05)
(0.0024526 -1.84596e-05 1.22463e-05)
(0.0024238 -1.12522e-05 4.02308e-06)
(0.00240713 -1.94727e-05 1.229e-05)
(0.00243896 -1.86027e-05 8.23976e-06)
(0.00241314 -1.1735e-05 1.10038e-07)
(0.00239158 -1.97742e-05 6.98395e-06)
(0.00242098 -1.78217e-05 2.85647e-06)
(0.00239568 -1.2113e-05 -4.24411e-06)
)
;
    }
    procBoundary0to2
    {
        type            processor;
        value           nonuniform List<vector> 
44
(
(0.00236997 -3.5007e-06 -8.96872e-05)
(0.00240018 -3.24018e-06 -7.03739e-05)
(0.0023911 -2.94828e-06 -4.63702e-05)
(0.0024102 -2.58522e-06 -2.34252e-05)
(0.00237244 -2.10087e-06 -7.06983e-06)
(0.00236898 -1.45104e-06 2.27762e-06)
(0.00227157 6.23207e-06 -0.000109919)
(0.00230353 7.16793e-06 -0.000109952)
(0.00236997 -3.5007e-06 -8.96872e-05)
(0.00234819 8.2517e-06 -0.000104106)
(0.00236997 -3.5007e-06 -8.96872e-05)
(0.00240018 -3.24018e-06 -7.03739e-05)
(0.00244531 -3.38242e-06 -4.58272e-05)
(0.00246839 -3.13816e-06 -2.13058e-05)
(0.00241155 -2.48307e-06 -5.619e-06)
(0.00242799 -1.95161e-06 4.14382e-06)
(0.0022949 6.91821e-06 -0.000110305)
(0.00234559 8.09502e-06 -0.000112325)
(0.00240886 9.5105e-06 -0.000108949)
(0.00242007 9.86243e-06 -9.27573e-05)
(0.00244531 -3.38242e-06 -4.58272e-05)
(0.002451 1.02082e-05 -7.2863e-05)
(0.00244531 -3.38242e-06 -4.58272e-05)
(0.00246839 -3.13816e-06 -2.13058e-05)
(0.00239125 -3.18043e-06 -6.83353e-06)
(0.00240423 -2.88318e-06 -9.9113e-09)
(0.00231345 7.73437e-06 -0.000104058)
(0.0023448 8.61441e-06 -0.000103911)
(0.00239607 9.75215e-06 -9.93371e-05)
(0.00239868 9.66248e-06 -8.382e-05)
(0.00241637 9.37006e-06 -6.4493e-05)
(0.00240377 8.33799e-06 -4.18046e-05)
(0.00239125 -3.18043e-06 -6.83353e-06)
(0.0024286 7.88631e-06 -2.10607e-05)
(0.00239125 -3.18043e-06 -6.83353e-06)
(0.00240423 -2.88318e-06 -9.9113e-09)
(0.00231086 8.01602e-06 -9.01458e-05)
(0.00235836 9.11539e-06 -9.04293e-05)
(0.00240336 1.0121e-05 -8.55698e-05)
(0.00238336 9.2344e-06 -7.06442e-05)
(0.00239813 8.55549e-06 -5.40073e-05)
(0.00237572 7.25051e-06 -3.54157e-05)
(0.00239675 6.35045e-06 -1.90715e-05)
(0.0023709 5.17959e-06 -9.05051e-06)
)
;
    }
    procBoundary0to4
    {
        type            processor;
        value           nonuniform List<vector> 
36
(
(0.00223406 -2.93253e-05 -7.05404e-05)
(0.00226077 -3.0408e-05 -6.92142e-05)
(0.00231285 -3.17009e-05 -6.47016e-05)
(0.00231959 -3.00259e-05 -5.47403e-05)
(0.00234889 -2.88993e-05 -4.26707e-05)
(0.00233657 -2.60248e-05 -2.86812e-05)
(0.00236862 -2.47231e-05 -1.53245e-05)
(0.00235113 -2.21821e-05 -4.92433e-06)
(0.00238342 -2.11584e-05 2.38174e-06)
(0.00228149 -2.69055e-05 -7.21843e-05)
(0.00231481 -2.82189e-05 -7.08611e-05)
(0.00237045 -2.96057e-05 -6.62183e-05)
(0.00237105 -2.76174e-05 -5.55536e-05)
(0.0023882 -2.58855e-05 -4.21693e-05)
(0.00236499 -2.29348e-05 -2.75027e-05)
(0.00238845 -2.15278e-05 -1.42302e-05)
(0.00236378 -1.93507e-05 -5.10132e-06)
(0.00241157 -1.89034e-05 8.21124e-07)
(0.00230287 -1.84204e-05 -7.28841e-05)
(0.00234784 -1.96672e-05 -7.20589e-05)
(0.00238474 -1.98996e-05 -6.59258e-05)
(0.00237775 -1.83493e-05 -5.46036e-05)
(0.00239094 -1.70564e-05 -4.05153e-05)
(0.0023609 -1.5057e-05 -2.61435e-05)
(0.00238068 -1.40585e-05 -1.33187e-05)
(0.00236559 -1.32907e-05 -5.66426e-06)
(0.00238011 -1.30447e-05 -2.61333e-06)
(0.0022922 -5.35249e-06 -7.24304e-05)
(0.002341 -5.70113e-06 -7.12023e-05)
(0.00238682 -5.39689e-06 -6.56034e-05)
(0.00236762 -5.09875e-06 -5.39114e-05)
(0.00238913 -4.95674e-06 -4.0203e-05)
(0.00236174 -4.65003e-06 -2.6184e-05)
(0.0023934 -4.64172e-06 -1.34566e-05)
(0.00234773 -4.95803e-06 -7.29966e-06)
(0.00236614 -5.52475e-06 -5.39566e-06)
)
;
    }
    procBoundary0to6
    {
        type            processor;
        value           uniform (0.0023968 4.38951e-06 -4.12249e-06);
    }
    procBoundary0to7
    {
        type            processor;
        value           uniform (0.0023966 -4.34627e-06 -8.33992e-06);
    }
}


// ************************************************************************* //
