/*--------------------------------*- C++ -*----------------------------------*\
| =========                 |                                                 |
| \\      /  F ield         | OpenFOAM: The Open Source CFD Toolbox           |
|  \\    /   O peration     | Version:  4.x                                   |
|   \\  /    A nd           | Web:      www.OpenFOAM.org                      |
|    \\/     M anipulation  |                                                 |
\*---------------------------------------------------------------------------*/
FoamFile
{
    version     2.0;
    format      ascii;
    class       surfaceScalarField;
    location    "9.5";
    object      phi;
}
// * * * * * * * * * * * * * * * * * * * * * * * * * * * * * * * * * * * * * //

dimensions      [0 3 -1 0 0 0 0];

internalField   nonuniform List<scalar> 
308
(
9.28689e-06
-2.63718e-07
-8.59903e-07
1.01261e-05
-2.06003e-07
-6.33172e-07
1.15281e-05
-3.63385e-07
-1.03868e-06
1.24107e-05
-2.03096e-07
-6.7947e-07
1.35426e-05
-3.22299e-07
-8.09603e-07
1.41733e-05
-1.92801e-07
-4.37922e-07
1.48706e-05
-4.49961e-07
-2.47321e-07
1.52168e-05
-4.67119e-07
1.2091e-07
-7.83301e-07
7.2436e-07
9.19597e-06
-3.2409e-07
-9.72329e-07
9.78323e-06
-1.80303e-07
-6.12965e-07
1.09027e-05
-3.67701e-07
-1.11515e-06
1.15393e-05
-2.1743e-07
-6.22277e-07
1.23743e-05
-3.28852e-07
-8.28448e-07
1.26974e-05
-2.10653e-07
-3.05251e-07
1.28237e-05
-4.78454e-07
-9.77656e-08
1.25747e-05
-4.31787e-07
2.13629e-07
-7.22178e-07
6.89042e-07
9.03881e-06
-1.94747e-07
-1.00488e-06
9.5523e-06
-1.06712e-07
-5.8708e-07
1.04969e-05
-1.91343e-07
-1.12091e-06
1.09531e-05
-5.5101e-07
1.14551e-05
-6.81155e-07
1.15269e-05
-1.77469e-07
1.09885e-05
2.36939e-07
1.03758e-05
2.92804e-07
7.81698e-07
9.03456e-06
-1.06642e-06
9.50343e-06
-6.19478e-07
-1.17507e-06
8.74554e-06
-3.76125e-07
-1.06605e-06
9.01713e-06
-1.84857e-07
-7.19911e-07
9.59317e-06
-4.31067e-07
-1.18365e-06
9.83486e-06
-1.99016e-07
-7.2215e-07
1.03215e-05
-4.36245e-07
-8.5995e-07
1.05312e-05
-1.99103e-07
-4.48572e-07
1.09198e-05
-4.45895e-07
-1.90005e-07
1.11966e-05
-2.689e-07
1.12996e-07
-5.3583e-07
8.32683e-07
8.37344e-06
-3.98061e-07
-1.16057e-06
8.4399e-06
-1.72087e-07
-6.92192e-07
8.55999e-06
-4.27094e-07
-1.23921e-06
8.4805e-06
-1.77226e-07
-5.64579e-07
8.33965e-06
-3.90982e-07
-7.32864e-07
8.20355e-06
-1.53419e-07
-2.14836e-07
7.9506e-06
-3.28482e-07
3.77783e-08
7.92773e-06
-1.6297e-07
1.30569e-07
-3.5888e-07
6.16529e-07
8.13479e-06
-2.18854e-07
-1.15561e-06
8.12295e-06
-9.40146e-08
-6.53318e-07
8.02234e-06
-2.25097e-07
-1.2223e-06
7.84506e-06
-8.87837e-08
-4.62175e-07
7.48721e-06
-1.63063e-07
-5.51222e-07
7.32016e-06
-9.88e-08
6.99624e-06
3.2848e-07
7.05811e-06
1.16954e-07
6.08484e-07
8.02611e-06
-1.20221e-06
7.98064e-06
-6.89485e-07
7.75216e-06
-1.25314e-06
7.47088e-06
-4.21734e-07
-4.85613e-07
8.3677e-06
-4.36585e-07
-8.33903e-07
8.44832e-06
-2.17766e-07
-5.82757e-07
8.6946e-06
-5.17088e-07
-9.12847e-07
8.7546e-06
-2.1481e-07
-5.67339e-07
8.98725e-06
-4.70835e-07
-6.21767e-07
9.04494e-06
-1.68551e-07
-3.37703e-07
9.3124e-06
-3.8827e-07
-6.91987e-08
9.51028e-06
-1.6833e-07
8.34426e-08
-3.73792e-07
7.30028e-07
7.92337e-06
-4.46414e-07
-9.10849e-07
7.7688e-06
-2.12624e-07
-5.42756e-07
7.44742e-06
-5.0168e-07
-9.33245e-07
7.21821e-06
-1.70736e-07
-3.79438e-07
6.79655e-06
-3.629e-07
-4.19139e-07
6.61681e-06
-9.55273e-08
-1.08126e-07
6.32428e-06
-2.26338e-07
1.68375e-07
6.30825e-06
-8.42913e-08
6.25613e-08
-2.30604e-07
4.11531e-07
7.64152e-06
-2.07443e-07
-8.72835e-07
7.38105e-06
-9.44468e-08
-5.11034e-07
6.70442e-06
-2.07777e-07
-8.39566e-07
6.40736e-06
-6.3767e-08
-2.72084e-07
5.85487e-06
-1.15912e-07
-2.45716e-07
5.73622e-06
-3.81491e-08
-3.75313e-08
5.60978e-06
-5.49197e-08
2.83506e-07
5.63953e-06
3.36927e-08
3.83088e-07
7.49034e-06
-8.68791e-07
7.15594e-06
-5.2005e-07
6.38543e-06
-8.39468e-07
6.08156e-06
-2.44184e-07
5.56074e-06
-2.03285e-07
5.45584e-06
-4.57805e-08
3.20335e-07
8.38362e-06
-4.61002e-07
8.48476e-06
-2.44637e-07
8.74303e-06
-5.07377e-07
8.81599e-06
-1.98205e-07
9.03401e-06
-4.03116e-07
9.13183e-06
-1.56044e-07
9.478e-06
-3.3411e-07
9.68085e-06
-1.004e-07
-2.25127e-07
7.83617e-06
-4.33435e-07
7.64958e-06
-2.26461e-07
7.31946e-06
-4.72332e-07
7.16344e-06
-1.55208e-07
6.94022e-06
-3.16227e-07
6.84729e-06
-9.03783e-08
6.74778e-06
-1.73564e-07
6.76369e-06
-5.3584e-08
-1.12955e-07
7.68394e-06
-2.40394e-07
7.41335e-06
-1.13778e-07
6.85295e-06
-2.2286e-07
6.67843e-06
-6.00596e-08
6.35366e-06
-1.10625e-07
6.30441e-06
-3.70657e-08
6.26949e-06
-3.93388e-08
6.2881e-06
-3.51754e-08
-1.52739e-08
7.59264e-06
7.24896e-06
6.60625e-06
6.44915e-06
6.22292e-06
6.15861e-06
6.25682e-06
6.23207e-06
)
;

boundaryField
{
    inlet
    {
        type            calculated;
        value           nonuniform List<scalar> 
16
(
-8.16327e-06
-8.16327e-06
-8.16327e-06
-8.16327e-06
-8.16327e-06
-8.16327e-06
-8.16327e-06
-8.16327e-06
-8.16327e-06
-8.16327e-06
-8.16327e-06
-8.16327e-06
-8.16327e-06
-8.16327e-06
-8.16327e-06
-8.16327e-06
)
;
    }
    outlet
    {
        type            calculated;
        value           nonuniform 0();
    }
    wall
    {
        type            calculated;
        value           uniform 0;
    }
    procBoundary0to1
    {
        type            processor;
        value           nonuniform List<scalar> 
12
(
1.52757e-05
1.18245e-05
9.00522e-06
1.16241e-05
7.82329e-06
6.90986e-06
9.98673e-06
6.37006e-06
5.65144e-06
1.01168e-05
6.83962e-06
6.34181e-06
)
;
    }
    procBoundary0to2
    {
        type            processor;
        value           nonuniform List<scalar> 
44
(
-1.22687e-07
-1.49632e-07
-1.05017e-07
-1.77027e-07
-1.11882e-07
-1.33281e-07
3.75321e-10
4.38982e-08
1.03889e-05
9.82866e-08
5.47569e-07
6.85255e-07
-6.50428e-08
-9.60969e-08
-4.89962e-08
-3.7415e-08
5.40869e-08
2.14642e-08
8.14507e-08
6.66629e-08
6.97518e-06
1.32995e-07
8.17068e-08
-3.83698e-07
-3.07826e-08
-1.71157e-08
1.32068e-07
7.05139e-08
1.4906e-07
6.25551e-08
1.22584e-07
3.0823e-08
5.4283e-06
3.59767e-08
-2.44636e-08
-3.68493e-07
4.31975e-08
5.31034e-08
1.02041e-07
5.2215e-08
6.97605e-08
3.38914e-08
1.38551e-08
2.16724e-08
)
;
    }
    procBoundary0to4
    {
        type            processor;
        value           nonuniform List<scalar> 
36
(
-5.93256e-07
-4.39264e-07
-6.63732e-07
-4.42095e-07
-4.36671e-07
-2.79478e-07
-8.12613e-08
-1.90038e-08
5.19233e-07
-6.11323e-07
-3.74337e-07
-6.3817e-07
-2.66415e-07
-2.82805e-07
-8.08619e-08
1.07332e-07
-1.62546e-10
2.23426e-07
-5.8655e-07
-3.53122e-07
-5.28642e-07
-1.9271e-07
-1.26556e-07
-4.15926e-08
1.84206e-07
-3.33131e-09
2.31706e-07
-5.81757e-07
-3.4325e-07
-5.2166e-07
-1.99359e-07
-1.57434e-07
-5.24361e-08
1.6894e-07
-7.6366e-09
2.33288e-07
)
;
    }
    procBoundary0to6
    {
        type            processor;
        value           uniform 4.98637e-08;
    }
    procBoundary0to7
    {
        type            processor;
        value           uniform 6.30213e-06;
    }
}


// ************************************************************************* //
