/*--------------------------------*- C++ -*----------------------------------*\
| =========                 |                                                 |
| \\      /  F ield         | OpenFOAM: The Open Source CFD Toolbox           |
|  \\    /   O peration     | Version:  4.x                                   |
|   \\  /    A nd           | Web:      www.OpenFOAM.org                      |
|    \\/     M anipulation  |                                                 |
\*---------------------------------------------------------------------------*/
FoamFile
{
    version     2.0;
    format      ascii;
    class       volVectorField;
    location    "9.5";
    object      UsNext;
}
// * * * * * * * * * * * * * * * * * * * * * * * * * * * * * * * * * * * * * //

dimensions      [0 1 -1 0 0 0 0];

internalField   nonuniform List<vector> 
132
(
(3.90724e-08 2.57695e-08 2.14055e-08)
(4.98687e-08 -1.15968e-09 1.02835e-08)
(4.70337e-08 2.27054e-08 -1.21868e-09)
(-1.29056e-08 -1.34971e-08 -2.34927e-08)
(-4.38657e-08 -1.60865e-08 -2.05176e-08)
(-4.37706e-08 -7.6193e-09 -2.4319e-08)
(-3.19034e-08 -6.67683e-09 -2.85651e-08)
(-1.80377e-08 -1.21342e-10 -4.95886e-09)
(-1.2296e-08 -7.64323e-10 9.09261e-09)
(1.32505e-08 2.85551e-08 1.38299e-08)
(2.75472e-08 1.08334e-08 1.71442e-08)
(2.19991e-08 -3.83777e-09 -2.29895e-09)
(-1.46565e-08 -1.59496e-08 -2.04482e-08)
(-3.14156e-08 -1.03283e-08 -3.66679e-08)
(-4.01999e-08 -1.06613e-08 -3.85489e-08)
(-1.50179e-08 -1.12897e-08 -2.89041e-08)
(3.31904e-10 -9.44159e-09 3.04487e-09)
(9.6497e-09 -2.41673e-09 4.69119e-08)
(2.18021e-08 2.14931e-08 1.15732e-08)
(1.45827e-08 1.17781e-08 1.01969e-08)
(3.76755e-09 1.9259e-09 -2.28324e-09)
(-1.31616e-08 -5.26927e-09 -2.17261e-08)
(-2.06709e-08 -6.56317e-09 -4.14222e-08)
(-2.16504e-08 -1.33086e-08 -4.13313e-08)
(-1.55456e-08 -1.35744e-08 -2.85004e-08)
(1.79342e-08 -2.20881e-08 1.35471e-08)
(2.6611e-08 -2.57671e-08 7.036e-08)
(6.58724e-09 1.26053e-08 7.33464e-09)
(6.25888e-09 6.45094e-09 1.01798e-08)
(-3.88605e-09 2.8054e-09 3.39515e-09)
(2.62268e-08 1.17043e-08 3.69656e-08)
(3.75429e-08 3.25463e-09 1.21222e-08)
(2.21549e-08 -2.00044e-09 -5.81404e-09)
(-2.77309e-09 -8.246e-09 -3.23994e-08)
(-2.30772e-08 -6.18936e-09 -2.86647e-08)
(-3.24058e-08 -9.25354e-09 -2.92684e-08)
(-3.33229e-08 1.09093e-09 -3.32885e-08)
(-3.78782e-08 -3.86349e-09 -7.94802e-09)
(-3.17998e-08 -9.72991e-09 1.39395e-08)
(1.30255e-08 1.55592e-08 1.69446e-08)
(3.06956e-08 1.09335e-08 1.96066e-08)
(2.7551e-08 -1.9007e-09 -3.29669e-09)
(8.84714e-10 -9.40984e-09 -2.9636e-08)
(-2.79017e-08 -1.08079e-08 -4.20956e-08)
(-3.95379e-08 -1.04934e-08 -3.96357e-08)
(-4.69741e-08 -1.18244e-08 -3.34243e-08)
(-4.39431e-08 -1.23239e-08 -1.10037e-09)
(-3.69501e-08 -5.12098e-09 3.02059e-08)
(1.0587e-08 1.18349e-08 1.47477e-08)
(1.67146e-08 1.18048e-08 1.12713e-08)
(1.10466e-08 2.12132e-09 -5.63549e-09)
(-2.80423e-09 -1.5178e-09 -2.39556e-08)
(-2.07611e-08 -4.4907e-09 -3.69697e-08)
(-3.24205e-08 -8.53313e-09 -4.13854e-08)
(-3.54535e-08 -1.72515e-08 -2.66926e-08)
(-4.34495e-08 -1.58682e-08 8.09729e-09)
(-4.02326e-08 -1.32902e-08 6.39057e-08)
(6.62095e-09 7.93817e-09 9.79107e-09)
(8.91523e-09 5.81488e-09 1.01163e-08)
(8.81244e-09 -1.0393e-09 -2.68891e-09)
(-4.10912e-09 5.01406e-10 -2.35639e-08)
(-1.30783e-08 -5.73856e-09 -3.30703e-08)
(1.0255e-08 3.21046e-09 1.94172e-08)
(1.69593e-08 3.15207e-09 1.36687e-08)
(1.84123e-08 -4.12055e-10 -2.50734e-09)
(5.95887e-10 -1.77693e-09 -1.85765e-08)
(-1.39901e-08 -1.13305e-09 -2.1429e-08)
(-3.68753e-08 -7.96098e-09 -2.29997e-08)
(-4.51248e-08 -1.03588e-08 -2.55681e-08)
(-5.32355e-08 -4.2663e-09 -6.22409e-09)
(-6.06594e-08 -8.1822e-09 1.71179e-09)
(9.96492e-09 8.23031e-09 1.60054e-08)
(1.9519e-08 7.38907e-09 1.54979e-08)
(1.93281e-08 -2.8675e-11 -2.46088e-09)
(8.53463e-10 -4.53152e-09 -2.13566e-08)
(-1.81294e-08 -3.84525e-09 -3.11253e-08)
(-4.1306e-08 -8.38847e-09 -3.43828e-08)
(-6.31362e-08 -1.72308e-08 -2.57056e-08)
(-7.85699e-08 -8.79675e-09 -4.99917e-09)
(-8.76659e-08 -5.61493e-09 1.25621e-08)
(5.82981e-09 6.96543e-09 1.11637e-08)
(1.40467e-08 7.24299e-09 1.20869e-08)
(1.31141e-08 3.34344e-11 -2.50277e-09)
(-2.99592e-09 -5.07479e-09 -1.69801e-08)
(-2.38605e-08 -7.86644e-09 -2.78555e-08)
(-5.02037e-08 -1.06341e-08 -3.12279e-08)
(-7.40695e-08 -1.22566e-08 -2.08434e-08)
(-9.15041e-08 -1.02029e-08 4.49067e-09)
(-9.20643e-08 -6.79766e-09 2.39944e-08)
(4.07826e-09 4.49693e-09 8.62761e-09)
(1.02471e-08 2.94024e-09 8.16648e-09)
(1.29284e-08 -2.4921e-11 -2.90542e-09)
(-9.71316e-10 -7.93137e-10 -1.45454e-08)
(-2.31776e-08 -1.73138e-09 -2.96812e-08)
(-4.21271e-08 -5.48554e-09 -2.73133e-08)
(-7.08266e-08 -5.91175e-09 -1.47439e-08)
(5.10668e-09 1.50584e-09 9.94144e-09)
(1.02547e-08 2.61996e-09 8.72382e-09)
(1.2877e-08 9.31028e-10 1.89441e-09)
(-5.35811e-09 -1.89848e-09 -7.74525e-09)
(-1.34986e-08 4.62152e-10 -1.29853e-08)
(-3.34313e-08 -5.96185e-09 -1.67649e-08)
(-4.44472e-08 -6.38006e-09 -1.47351e-08)
(-7.49602e-08 -9.68761e-10 -5.3802e-09)
(-8.2849e-08 -6.31187e-09 -7.95345e-10)
(6.17311e-09 2.96276e-09 9.79147e-09)
(1.19371e-08 3.59448e-09 1.03942e-08)
(1.213e-08 -2.76694e-10 2.21177e-09)
(-6.31759e-09 -2.7837e-09 -1.17238e-08)
(-2.5641e-08 -5.28715e-09 -2.00052e-08)
(-4.32696e-08 -7.14055e-09 -2.27079e-08)
(-7.05351e-08 -1.00578e-08 -1.21656e-08)
(-9.21293e-08 -5.61631e-09 -8.2935e-10)
(-1.02059e-07 -9.65659e-09 7.49931e-09)
(8.45338e-09 5.9994e-09 9.72841e-09)
(1.18485e-08 4.14838e-09 7.80302e-09)
(1.31195e-08 1.39104e-09 9.31409e-10)
(-7.73624e-09 -1.65246e-09 -9.39914e-09)
(-2.62477e-08 -1.06231e-08 -1.91025e-08)
(-5.72992e-08 -8.00853e-09 -2.2659e-08)
(-8.25102e-08 -1.09572e-08 -1.28123e-08)
(-9.94781e-08 -1.00086e-08 2.8506e-09)
(-1.11003e-07 -1.30157e-08 1.57173e-08)
(5.61779e-09 3.95457e-09 6.95777e-09)
(1.14232e-08 3.52205e-09 6.58444e-09)
(1.065e-08 3.55784e-09 -2.45745e-10)
(-7.17479e-09 1.3059e-09 -1.30445e-08)
(-2.95953e-08 -6.05178e-09 -2.42418e-08)
(-6.0818e-08 -6.07439e-09 -2.09858e-08)
(-8.68957e-08 -8.01219e-09 -8.8486e-09)
(-9.7341e-08 -9.48744e-09 7.31179e-09)
(-1.03086e-07 -1.09199e-08 3.13288e-08)
)
;

boundaryField
{
    inlet
    {
        type            calculated;
        value           nonuniform List<vector> 
16
(
(3.90724e-08 2.57695e-08 2.14055e-08)
(1.32505e-08 2.85551e-08 1.38299e-08)
(2.18021e-08 2.14931e-08 1.15732e-08)
(6.58724e-09 1.26053e-08 7.33464e-09)
(2.62268e-08 1.17043e-08 3.69656e-08)
(1.30255e-08 1.55592e-08 1.69446e-08)
(1.0587e-08 1.18349e-08 1.47477e-08)
(6.62095e-09 7.93817e-09 9.79107e-09)
(1.0255e-08 3.21046e-09 1.94172e-08)
(9.96492e-09 8.23031e-09 1.60054e-08)
(5.82981e-09 6.96543e-09 1.11637e-08)
(4.07826e-09 4.49693e-09 8.62761e-09)
(5.10668e-09 1.50584e-09 9.94144e-09)
(6.17311e-09 2.96276e-09 9.79147e-09)
(8.45338e-09 5.9994e-09 9.72841e-09)
(5.61779e-09 3.95457e-09 6.95777e-09)
)
;
    }
    outlet
    {
        type            calculated;
        value           nonuniform 0();
    }
    wall
    {
        type            calculated;
        value           nonuniform List<vector> 
66
(
(3.90724e-08 2.57695e-08 2.14055e-08)
(1.32505e-08 2.85551e-08 1.38299e-08)
(2.18021e-08 2.14931e-08 1.15732e-08)
(6.58724e-09 1.26053e-08 7.33464e-09)
(4.98687e-08 -1.15968e-09 1.02835e-08)
(2.75472e-08 1.08334e-08 1.71442e-08)
(1.45827e-08 1.17781e-08 1.01969e-08)
(6.25888e-09 6.45094e-09 1.01798e-08)
(4.70337e-08 2.27054e-08 -1.21868e-09)
(2.19991e-08 -3.83777e-09 -2.29895e-09)
(3.76755e-09 1.9259e-09 -2.28324e-09)
(-3.88605e-09 2.8054e-09 3.39515e-09)
(-1.29056e-08 -1.34971e-08 -2.34927e-08)
(-1.46565e-08 -1.59496e-08 -2.04482e-08)
(-1.31616e-08 -5.26927e-09 -2.17261e-08)
(-4.38657e-08 -1.60865e-08 -2.05176e-08)
(-3.14156e-08 -1.03283e-08 -3.66679e-08)
(-2.06709e-08 -6.56317e-09 -4.14222e-08)
(-4.37706e-08 -7.6193e-09 -2.4319e-08)
(-4.01999e-08 -1.06613e-08 -3.85489e-08)
(-2.16504e-08 -1.33086e-08 -4.13313e-08)
(-3.19034e-08 -6.67683e-09 -2.85651e-08)
(-1.50179e-08 -1.12897e-08 -2.89041e-08)
(-1.55456e-08 -1.35744e-08 -2.85004e-08)
(-1.80377e-08 -1.21342e-10 -4.95886e-09)
(3.31904e-10 -9.44159e-09 3.04487e-09)
(1.79342e-08 -2.20881e-08 1.35471e-08)
(-1.2296e-08 -7.64323e-10 9.09261e-09)
(9.6497e-09 -2.41673e-09 4.69119e-08)
(2.6611e-08 -2.57671e-08 7.036e-08)
(3.90724e-08 2.57695e-08 2.14055e-08)
(2.62268e-08 1.17043e-08 3.69656e-08)
(1.0255e-08 3.21046e-09 1.94172e-08)
(5.10668e-09 1.50584e-09 9.94144e-09)
(4.98687e-08 -1.15968e-09 1.02835e-08)
(3.75429e-08 3.25463e-09 1.21222e-08)
(1.69593e-08 3.15207e-09 1.36687e-08)
(1.02547e-08 2.61996e-09 8.72382e-09)
(4.70337e-08 2.27054e-08 -1.21868e-09)
(2.21549e-08 -2.00044e-09 -5.81404e-09)
(1.84123e-08 -4.12055e-10 -2.50734e-09)
(1.2877e-08 9.31028e-10 1.89441e-09)
(-1.29056e-08 -1.34971e-08 -2.34927e-08)
(-2.77309e-09 -8.246e-09 -3.23994e-08)
(5.95887e-10 -1.77693e-09 -1.85765e-08)
(-5.35811e-09 -1.89848e-09 -7.74525e-09)
(-4.38657e-08 -1.60865e-08 -2.05176e-08)
(-2.30772e-08 -6.18936e-09 -2.86647e-08)
(-1.39901e-08 -1.13305e-09 -2.1429e-08)
(-1.34986e-08 4.62152e-10 -1.29853e-08)
(-4.37706e-08 -7.6193e-09 -2.4319e-08)
(-3.24058e-08 -9.25354e-09 -2.92684e-08)
(-3.68753e-08 -7.96098e-09 -2.29997e-08)
(-3.34313e-08 -5.96185e-09 -1.67649e-08)
(-3.19034e-08 -6.67683e-09 -2.85651e-08)
(-3.33229e-08 1.09093e-09 -3.32885e-08)
(-4.51248e-08 -1.03588e-08 -2.55681e-08)
(-4.44472e-08 -6.38006e-09 -1.47351e-08)
(-1.80377e-08 -1.21342e-10 -4.95886e-09)
(-3.78782e-08 -3.86349e-09 -7.94802e-09)
(-5.32355e-08 -4.2663e-09 -6.22409e-09)
(-7.49602e-08 -9.68761e-10 -5.3802e-09)
(-1.2296e-08 -7.64323e-10 9.09261e-09)
(-3.17998e-08 -9.72991e-09 1.39395e-08)
(-6.06594e-08 -8.1822e-09 1.71179e-09)
(-8.2849e-08 -6.31187e-09 -7.95345e-10)
)
;
    }
    procBoundary0to1
    {
        type            processor;
        value           nonuniform List<vector> 
12
(
(1.81902e-08 2.59806e-08 8.26993e-08)
(1.99071e-08 -4.07934e-09 7.3104e-08)
(1.67399e-08 -8.63439e-09 6.28983e-08)
(-3.33349e-08 1.01851e-08 5.30321e-08)
(-2.83615e-08 2.13602e-09 5.55266e-08)
(-4.26055e-08 -5.14802e-09 5.9554e-08)
(-5.41629e-08 -9.18527e-10 1.70784e-08)
(-8.28173e-08 1.18882e-10 3.45111e-08)
(-8.7774e-08 -2.81427e-09 5.43612e-08)
(-6.51306e-08 -3.15669e-09 9.03019e-09)
(-9.96384e-08 -3.88777e-09 1.75181e-08)
(-1.09917e-07 -1.23114e-08 2.65738e-08)
)
;
    }
    procBoundary0to2
    {
        type            processor;
        value           nonuniform List<vector> 
44
(
(-8.96142e-09 1.25912e-09 -1.94043e-08)
(-1.78687e-08 5.17279e-10 -3.70367e-08)
(-1.8309e-08 -5.47899e-09 -3.80352e-08)
(-1.06091e-08 -4.59712e-09 -2.27087e-08)
(-6.97837e-09 -2.04631e-08 2.00688e-08)
(1.73447e-09 -2.59408e-08 5.81694e-08)
(4.05276e-08 -8.57609e-09 7.47475e-09)
(1.29564e-09 2.72355e-09 1.07143e-08)
(-8.96142e-09 1.25912e-09 -1.94043e-08)
(-9.67134e-09 3.41767e-09 -7.72872e-10)
(-8.96142e-09 1.25912e-09 -1.94043e-08)
(-1.78687e-08 5.17279e-10 -3.70367e-08)
(-3.06027e-08 -6.54395e-09 -3.57678e-08)
(-3.89402e-08 -7.40434e-09 -2.6164e-08)
(-3.57132e-08 -1.53541e-08 2.05071e-08)
(-4.37149e-08 -1.73711e-08 4.73345e-08)
(3.23337e-09 1.42501e-09 8.06888e-09)
(4.46957e-09 2.73986e-09 1.10902e-08)
(9.98965e-10 2.12302e-10 -8.79412e-10)
(-7.53342e-09 1.83506e-09 -1.74925e-08)
(-3.06027e-08 -6.54395e-09 -3.57678e-08)
(-1.50488e-08 2.3096e-09 -3.24856e-08)
(-3.06027e-08 -6.54395e-09 -3.57678e-08)
(-3.89402e-08 -7.40434e-09 -2.6164e-08)
(-8.37241e-08 -1.09581e-08 1.32558e-08)
(-8.86913e-08 -8.3057e-09 4.03241e-08)
(4.14539e-09 2.0229e-09 7.2828e-09)
(6.68967e-09 1.6241e-09 7.63045e-09)
(6.42103e-09 9.50956e-10 -1.42724e-09)
(-5.48754e-09 3.44983e-09 -1.52214e-08)
(-1.83456e-08 1.51383e-09 -2.80649e-08)
(-4.32573e-08 -3.4247e-09 -2.49751e-08)
(-8.37241e-08 -1.09581e-08 1.32558e-08)
(-5.90893e-08 -4.27368e-09 -1.27675e-08)
(-8.37241e-08 -1.09581e-08 1.32558e-08)
(-8.86913e-08 -8.3057e-09 4.03241e-08)
(4.39843e-09 2.47904e-09 5.01367e-09)
(8.22493e-09 3.04568e-09 3.47168e-09)
(8.12409e-09 1.88587e-09 -1.75837e-09)
(-2.93799e-09 2.07824e-09 -8.3832e-09)
(-1.75483e-08 -2.72835e-09 -1.7929e-08)
(-5.24651e-08 -2.31697e-09 -1.1658e-08)
(-7.37453e-08 -5.7252e-09 -6.46607e-09)
(-9.74608e-08 -9.28148e-09 1.15063e-08)
)
;
    }
    procBoundary0to4
    {
        type            processor;
        value           nonuniform List<vector> 
36
(
(3.03407e-09 7.93232e-10 4.21451e-09)
(5.32482e-09 1.20496e-09 4.61702e-09)
(8.06985e-09 -7.13913e-10 2.81321e-09)
(1.76141e-09 -1.50423e-09 -2.28741e-09)
(-4.50977e-09 -3.93188e-10 -3.62802e-09)
(-1.39322e-08 2.42134e-10 -4.48967e-09)
(-4.28055e-08 -5.70782e-09 -7.31808e-09)
(-6.34922e-08 -4.84614e-09 1.84899e-09)
(-6.00365e-08 1.86746e-09 -2.58809e-09)
(4.07678e-09 1.73857e-09 5.56144e-09)
(7.51778e-09 1.51291e-09 5.62577e-09)
(8.45353e-09 4.75338e-10 2.84301e-09)
(-6.08989e-10 -7.54217e-11 -4.73576e-09)
(-1.46804e-08 -5.5571e-09 -8.08739e-09)
(-3.21879e-08 -1.14848e-08 -1.79438e-08)
(-6.61816e-08 -1.31824e-08 -6.59333e-09)
(-7.74184e-08 -5.53409e-09 -1.02066e-09)
(-9.88628e-08 -9.07737e-09 6.99477e-09)
(4.50433e-09 2.35563e-09 4.80379e-09)
(8.45128e-09 2.88203e-09 6.04804e-09)
(5.26865e-09 8.02373e-10 9.71517e-10)
(-6.02706e-09 3.35795e-09 -4.92382e-09)
(-2.28586e-08 -4.60974e-09 -1.36135e-08)
(-5.32767e-08 -1.23617e-08 -1.47919e-08)
(-7.6143e-08 -1.05276e-08 -7.10884e-09)
(-9.31378e-08 -1.22367e-08 6.6931e-10)
(-1.05826e-07 -1.23729e-08 4.95168e-09)
(4.08564e-09 2.50093e-09 4.49971e-09)
(7.33385e-09 2.84312e-09 4.07207e-09)
(5.57285e-09 2.87492e-09 -7.15661e-10)
(-4.47678e-09 3.71155e-09 -4.79213e-09)
(-2.97758e-08 -3.37766e-09 -1.16084e-08)
(-6.89766e-08 -1.00929e-08 -1.36095e-08)
(-9.06039e-08 -9.09423e-09 -7.84522e-09)
(-1.09599e-07 -1.38619e-08 8.74577e-09)
(-1.10242e-07 -7.15028e-09 1.57099e-08)
)
;
    }
    procBoundary0to6
    {
        type            processor;
        value           uniform (-1.02362e-07 -5.95566e-09 2.32477e-08);
    }
    procBoundary0to7
    {
        type            processor;
        value           uniform (-1.05937e-07 -9.42153e-09 3.76188e-08);
    }
}


// ************************************************************************* //
