/*--------------------------------*- C++ -*----------------------------------*\
| =========                 |                                                 |
| \\      /  F ield         | OpenFOAM: The Open Source CFD Toolbox           |
|  \\    /   O peration     | Version:  4.x                                   |
|   \\  /    A nd           | Web:      www.OpenFOAM.org                      |
|    \\/     M anipulation  |                                                 |
\*---------------------------------------------------------------------------*/
FoamFile
{
    version     2.0;
    format      ascii;
    class       volScalarField;
    location    "37";
    object      Qsource;
}
// * * * * * * * * * * * * * * * * * * * * * * * * * * * * * * * * * * * * * //

dimensions      [1 -1 -3 0 0 0 0];

internalField   nonuniform List<scalar> 
132
(
6.89252e+09
5.22266e+09
5.54831e+09
4.17984e+09
6.29241e+09
5.87983e+09
7.95324e+09
5.46039e+09
4.19953e+09
5.50741e+09
5.56331e+09
6.43323e+09
6.15401e+09
4.79936e+09
7.347e+09
6.31409e+09
6.47416e+09
6.28079e+09
3.11595e+09
6.32316e+09
6.64303e+09
5.59619e+09
6.49785e+09
5.48052e+09
4.9455e+09
5.79799e+09
9.49006e+09
3.83898e+09
4.98083e+09
4.40702e+09
5.11422e+09
7.40464e+09
9.50836e+09
8.05525e+09
8.64252e+09
8.1199e+09
8.04151e+09
7.31876e+09
8.20088e+09
4.9825e+09
9.46044e+09
8.01894e+09
8.50693e+09
9.60927e+09
8.62418e+09
9.20871e+09
9.21772e+09
8.98634e+09
5.30037e+09
9.45566e+09
8.41121e+09
7.53859e+09
9.08e+09
6.76958e+09
1.05267e+10
6.92819e+09
6.35195e+09
7.96579e+09
7.03553e+09
7.79797e+09
5.50948e+09
1.13228e+10
6.42023e+09
7.38992e+09
8.99032e+09
7.42596e+09
8.36551e+09
6.1629e+09
8.95434e+09
7.57602e+09
6.337e+09
6.24841e+09
8.28223e+09
7.99238e+09
6.92052e+09
9.28388e+09
6.72445e+09
9.4514e+09
1.01657e+10
1.01473e+10
6.70786e+09
7.20861e+09
8.09338e+09
9.30629e+09
9.83962e+09
8.07305e+09
9.21762e+09
6.44861e+09
5.39117e+09
6.90647e+09
8.65884e+09
9.56682e+09
8.95663e+09
9.95096e+09
7.98961e+09
8.73218e+09
5.18613e+09
5.40445e+09
7.61377e+09
5.62897e+09
7.94104e+09
8.2306e+09
6.76816e+09
4.78671e+09
6.90996e+09
5.13647e+09
9.59945e+09
9.0962e+09
8.09409e+09
7.20647e+09
6.65128e+09
1.04398e+10
7.21178e+09
6.92982e+09
5.18643e+09
5.58913e+09
9.04265e+09
6.11567e+09
8.68655e+09
8.41054e+09
8.22059e+09
4.91928e+09
9.32634e+09
4.82458e+09
6.71216e+09
9.7997e+09
1.01549e+10
5.46781e+09
9.65153e+09
8.47546e+09
5.39124e+09
2.59012e+09
)
;

boundaryField
{
    inlet
    {
        type            calculated;
        value           uniform 0;
    }
    outlet
    {
        type            calculated;
        value           nonuniform 0();
    }
    wall
    {
        type            calculated;
        value           uniform 0;
    }
    procBoundary0to1
    {
        type            processor;
        value           nonuniform List<scalar> 
12
(
5.91059e+09
5.24708e+09
4.56937e+09
7.98347e+09
9.03304e+09
7.95995e+09
7.63962e+09
6.46915e+09
9.51013e+09
6.89887e+09
7.85609e+09
5.8761e+09
)
;
    }
    procBoundary0to2
    {
        type            processor;
        value           nonuniform List<scalar> 
44
(
7.6618e+09
6.52211e+09
3.64613e+09
6.93517e+09
4.26732e+09
5.59715e+09
6.65972e+09
7.36008e+09
7.6618e+09
7.0086e+09
7.6618e+09
6.52211e+09
9.84221e+09
1.2295e+10
6.59934e+09
1.12247e+10
4.73099e+09
7.94206e+09
9.59656e+09
9.19385e+09
9.84221e+09
8.89506e+09
9.84221e+09
1.2295e+10
7.9434e+09
9.23116e+09
6.86122e+09
5.74788e+09
6.75433e+09
6.89651e+09
6.77793e+09
7.76287e+09
7.9434e+09
9.84574e+09
7.9434e+09
9.23116e+09
4.89715e+09
9.48336e+09
1.02953e+10
7.16235e+09
8.23195e+09
6.26891e+09
7.56604e+09
7.49168e+09
)
;
    }
    procBoundary0to4
    {
        type            processor;
        value           nonuniform List<scalar> 
36
(
5.75067e+09
7.52807e+09
9.26303e+09
6.4223e+09
8.00756e+09
6.45174e+09
9.80738e+09
7.33913e+09
1.05268e+10
7.01857e+09
7.29807e+09
9.39058e+09
1.00454e+10
1.01223e+10
8.59688e+09
8.14652e+09
5.7776e+09
1.11185e+10
6.6879e+09
1.02777e+10
8.31693e+09
9.36033e+09
8.12025e+09
6.30534e+09
7.30469e+09
1.02984e+10
6.74328e+09
3.45642e+09
6.72752e+09
9.38856e+09
5.69383e+09
8.77648e+09
6.63978e+09
1.09949e+10
5.97581e+09
7.04925e+09
)
;
    }
    procBoundary0to6
    {
        type            processor;
        value           uniform 8.06829e+09;
    }
    procBoundary0to7
    {
        type            processor;
        value           uniform 9.96733e+09;
    }
}


// ************************************************************************* //
