/*--------------------------------*- C++ -*----------------------------------*\
| =========                 |                                                 |
| \\      /  F ield         | OpenFOAM: The Open Source CFD Toolbox           |
|  \\    /   O peration     | Version:  4.x                                   |
|   \\  /    A nd           | Web:      www.OpenFOAM.org                      |
|    \\/     M anipulation  |                                                 |
\*---------------------------------------------------------------------------*/
FoamFile
{
    version     2.0;
    format      ascii;
    class       volScalarField;
    location    "8.5";
    object      Cs;
}
// * * * * * * * * * * * * * * * * * * * * * * * * * * * * * * * * * * * * * //

dimensions      [1 -3 0 0 0 0 0];

internalField   nonuniform List<scalar> 
114
(
334.803
334.832
334.857
334.917
334.943
335.394
335.053
335.089
335.134
335.14
335.165
335.145
335.222
335.028
335.08
335.127
335.164
335.187
335.189
335.178
335.186
334.886
334.878
334.885
334.894
334.92
334.942
334.981
335.005
335.081
335.017
335.067
335.119
335.138
335.165
335.145
335.151
335.118
335.149
335.005
335.05
335.092
335.125
335.155
335.165
335.155
335.128
335.123
334.995
335.036
334.919
334.915
334.92
334.924
334.935
334.943
334.965
334.971
335.417
334.996
335.036
335.071
335.077
335.083
335.062
335.077
335.056
335.183
334.986
335.016
335.046
335.065
335.093
335.105
335.133
335.123
335.204
334.977
335.016
335.061
335.084
334.917
334.912
334.911
334.912
334.915
334.918
334.93
334.933
337.824
334.925
334.926
334.929
334.935
334.941
334.949
334.961
334.97
335.223
334.921
334.92
334.922
334.927
334.937
334.949
334.969
334.988
335.328
334.922
334.924
334.93
334.939
334.952
334.968
)
;

boundaryField
{
    inlet
    {
        type            calculated;
        value           nonuniform 0();
    }
    outlet
    {
        type            calculated;
        value           uniform 335;
    }
    wall
    {
        type            calculated;
        value           nonuniform List<scalar> 
66
(
334.917
334.925
334.921
334.922
334.912
334.926
334.92
334.924
334.911
334.929
334.922
334.93
334.912
334.935
334.927
334.939
334.915
334.941
334.937
334.952
334.918
334.949
334.949
334.968
334.93
334.961
334.969
334.933
334.97
334.988
337.824
335.223
335.328
334.886
334.919
334.917
334.878
334.915
334.912
334.885
334.92
334.911
334.803
334.894
334.924
334.912
334.832
334.92
334.935
334.915
334.857
334.942
334.943
334.918
334.917
334.981
334.965
334.93
334.943
335.005
334.971
334.933
335.394
335.081
335.417
337.824
)
;
    }
    procBoundary5to1
    {
        type            processor;
        value           nonuniform List<scalar> 
32
(
334.723
334.775
334.82
334.9
334.941
336.143
335.041
335.097
335.15
335.168
335.196
335.176
335.377
335.02
335.089
335.147
335.191
335.212
335.216
335.203
335.299
334.813
334.795
334.795
334.795
334.795
334.951
335
335
335
334.979
334.979
)
;
    }
    procBoundary5to4
    {
        type            processor;
        value           nonuniform List<scalar> 
12
(
334.897
334.966
334.964
334.957
334.926
334.962
334.957
334.948
334.925
334.928
334.926
334.925
)
;
    }
    procBoundary5to7
    {
        type            processor;
        value           nonuniform List<scalar> 
44
(
334.989
335.031
335.075
335.113
335.136
335.127
335.094
335.048
334.945
334.989
335.078
335.121
335.149
335.115
335.058
335.031
335.021
335.02
335.078
335.058
335.078
335.121
335.121
335.136
335.153
335.137
335.196
334.986
335.011
335.043
335.121
335.066
335.121
335.136
334.995
335.015
335.805
334.918
334.923
334.943
334.974
335.01
334.995
335.037
)
;
    }
}


// ************************************************************************* //
