/*--------------------------------*- C++ -*----------------------------------*\
| =========                 |                                                 |
| \\      /  F ield         | OpenFOAM: The Open Source CFD Toolbox           |
|  \\    /   O peration     | Version:  4.x                                   |
|   \\  /    A nd           | Web:      www.OpenFOAM.org                      |
|    \\/     M anipulation  |                                                 |
\*---------------------------------------------------------------------------*/
FoamFile
{
    version     2.0;
    format      ascii;
    class       volScalarField;
    location    "8.5";
    object      Ksl;
}
// * * * * * * * * * * * * * * * * * * * * * * * * * * * * * * * * * * * * * //

dimensions      [1 -3 -1 0 0 0 0];

internalField   nonuniform List<scalar> 
114
(
2694.54
4735.46
2396.44
5245.06
1893.9
3665.61
15714.5
3543.29
14955.3
3454.85
11237.4
3489.93
4176.44
3721.47
22953.2
3651.1
22326
3555.87
19170.1
3709.35
12755.1
6329.05
3186.45
6174.81
3048.95
6570.15
3003.42
8637.99
3264.57
14107.3
101025
4008.6
291668
4049.24
435904
4236.52
57082.1
4962.58
16245.8
96136
4081.24
85219.2
4144.93
69715.3
4277.47
45186.1
4704.84
12056.8
622639
4303.83
5487.59
3015.91
5184.63
2776.2
5087.6
2485.01
5383.07
2060.94
4507.31
26736.1
3868.66
39407.8
3700.87
35566.3
3546.41
16360.1
3577.45
4900.9
18963.3
3767.91
24204
3663.56
31469.6
3560.15
22651.7
3643.57
11532
39963.5
4286.35
1e+10
4475.34
4731.19
2837.65
4381.81
2600.33
4216.32
2257.9
4310.4
1658.96
3649.74
5297.54
3102.34
5200.98
2983.71
5355.04
2874.07
5506.74
2807.89
3323.64
5468.62
3095.13
5389.28
3004.6
5799.32
2995.14
7142.58
3128.71
9993.07
5795.12
3270.7
5925.25
3337.79
6983.65
3515.26
)
;

boundaryField
{
    inlet
    {
        type            zeroGradient;
    }
    outlet
    {
        type            zeroGradient;
    }
    wall
    {
        type            zeroGradient;
    }
    procBoundary5to1
    {
        type            processor;
        value           nonuniform List<scalar> 
32
(
2834.28
5107.89
2569.52
5739.76
2014.3
4225.86
19358.1
3676.21
19820.5
3615.79
13728.6
3599.83
4094.64
3882
61194.8
3907.51
1e+10
3994.65
9.90156e+09
4207.45
36600.3
5117.24
2874.47
4722.67
4722.67
4722.67
15129.3
3655.74
3655.74
3655.74
20762.8
20762.8
)
;
    }
    procBoundary5to4
    {
        type            processor;
        value           nonuniform List<scalar> 
12
(
3326.68
4007.42
4033.26
4201.38
3173.82
3857.48
3796.6
4089.58
3031.86
3178.24
3202.4
3307.01
)
;
    }
    procBoundary5to7
    {
        type            processor;
        value           nonuniform List<scalar> 
44
(
3881.03
17493.1
4023.58
19996
4460.05
30352.8
5840.57
23152.6
18246.4
3881.03
1e+10
4606.92
1e+10
5207.45
1e+10
6268.39
20217.8
73131.9
1e+10
4062.03
1e+10
4606.92
1e+10
4683.2
1e+10
5320.5
17432.2
26254.8
3811.29
36691.1
1e+10
3700.1
1e+10
4683.2
8348.19
3836.96
8072.6
8901.97
3527.29
12505.1
3677.74
26603.2
8348.19
3937.25
)
;
    }
}


// ************************************************************************* //
