/*--------------------------------*- C++ -*----------------------------------*\
| =========                 |                                                 |
| \\      /  F ield         | OpenFOAM: The Open Source CFD Toolbox           |
|  \\    /   O peration     | Version:  4.x                                   |
|   \\  /    A nd           | Web:      www.OpenFOAM.org                      |
|    \\/     M anipulation  |                                                 |
\*---------------------------------------------------------------------------*/
FoamFile
{
    version     2.0;
    format      ascii;
    class       volScalarField;
    location    "8.5";
    object      nu;
}
// * * * * * * * * * * * * * * * * * * * * * * * * * * * * * * * * * * * * * //

dimensions      [0 2 -1 0 0 0 0];

internalField   nonuniform List<scalar> 
114
(
1.00059e-06
1.0005e-06
1.00043e-06
1.00025e-06
1.00017e-06
9.98827e-07
9.99841e-07
9.99734e-07
9.99601e-07
9.99582e-07
9.99507e-07
9.99567e-07
9.99337e-07
9.99915e-07
9.99761e-07
9.99622e-07
9.9951e-07
9.99442e-07
9.99436e-07
9.9947e-07
9.99446e-07
1.00034e-06
1.00036e-06
1.00034e-06
1.00032e-06
1.00024e-06
1.00017e-06
1.00006e-06
9.99985e-07
9.99759e-07
9.9995e-07
9.998e-07
9.99644e-07
9.9959e-07
9.99509e-07
9.99566e-07
9.99549e-07
9.99646e-07
9.99556e-07
9.99986e-07
9.99852e-07
9.99725e-07
9.99626e-07
9.99537e-07
9.99507e-07
9.99537e-07
9.99619e-07
9.99633e-07
1.00001e-06
9.99892e-07
1.00024e-06
1.00025e-06
1.00024e-06
1.00023e-06
1.00019e-06
1.00017e-06
1.0001e-06
1.00009e-06
9.98757e-07
1.00001e-06
9.99891e-07
9.99789e-07
9.99772e-07
9.99751e-07
9.99814e-07
9.99769e-07
9.99832e-07
9.99454e-07
1.00004e-06
9.99954e-07
9.99864e-07
9.99807e-07
9.99723e-07
9.99686e-07
9.99602e-07
9.99633e-07
9.99392e-07
1.00007e-06
9.99953e-07
9.99817e-07
9.99749e-07
1.00025e-06
1.00026e-06
1.00027e-06
1.00026e-06
1.00025e-06
1.00024e-06
1.00021e-06
1.0002e-06
9.9164e-07
1.00022e-06
1.00022e-06
1.00021e-06
1.0002e-06
1.00018e-06
1.00015e-06
1.00012e-06
1.00009e-06
9.99335e-07
1.00023e-06
1.00024e-06
1.00023e-06
1.00022e-06
1.00019e-06
1.00015e-06
1.00009e-06
1.00004e-06
9.99021e-07
1.00023e-06
1.00023e-06
1.00021e-06
1.00018e-06
1.00014e-06
1.0001e-06
)
;

boundaryField
{
    inlet
    {
        type            calculated;
        value           nonuniform 0();
    }
    outlet
    {
        type            calculated;
        value           uniform 1e-06;
    }
    wall
    {
        type            calculated;
        value           nonuniform List<scalar> 
66
(
1.00025e-06
1.00022e-06
1.00023e-06
1.00023e-06
1.00026e-06
1.00022e-06
1.00024e-06
1.00023e-06
1.00027e-06
1.00021e-06
1.00023e-06
1.00021e-06
1.00026e-06
1.0002e-06
1.00022e-06
1.00018e-06
1.00025e-06
1.00018e-06
1.00019e-06
1.00014e-06
1.00024e-06
1.00015e-06
1.00015e-06
1.0001e-06
1.00021e-06
1.00012e-06
1.00009e-06
1.0002e-06
1.00009e-06
1.00004e-06
9.9164e-07
9.99335e-07
9.99021e-07
1.00034e-06
1.00024e-06
1.00025e-06
1.00036e-06
1.00025e-06
1.00026e-06
1.00034e-06
1.00024e-06
1.00027e-06
1.00059e-06
1.00032e-06
1.00023e-06
1.00026e-06
1.0005e-06
1.00024e-06
1.00019e-06
1.00025e-06
1.00043e-06
1.00017e-06
1.00017e-06
1.00024e-06
1.00025e-06
1.00006e-06
1.0001e-06
1.00021e-06
1.00017e-06
9.99985e-07
1.00009e-06
1.0002e-06
9.98827e-07
9.99759e-07
9.98757e-07
9.9164e-07
)
;
    }
    procBoundary5to1
    {
        type            processor;
        value           nonuniform List<scalar> 
32
(
1.00083e-06
1.00067e-06
1.00054e-06
1.0003e-06
1.00018e-06
9.966e-07
9.99878e-07
9.99711e-07
9.99553e-07
9.99497e-07
9.99415e-07
9.99475e-07
9.98876e-07
9.9994e-07
9.99734e-07
9.99561e-07
9.99431e-07
9.99367e-07
9.99356e-07
9.99395e-07
9.99107e-07
1.00056e-06
1.00061e-06
1.00061e-06
1.00061e-06
1.00061e-06
1.00015e-06
9.99999e-07
9.99999e-07
9.99999e-07
1.00006e-06
1.00006e-06
)
;
    }
    procBoundary5to4
    {
        type            processor;
        value           nonuniform List<scalar> 
12
(
1.00031e-06
1.0001e-06
1.00011e-06
1.00013e-06
1.00022e-06
1.00011e-06
1.00013e-06
1.00016e-06
1.00023e-06
1.00021e-06
1.00022e-06
1.00022e-06
)
;
    }
    procBoundary5to7
    {
        type            processor;
        value           nonuniform List<scalar> 
44
(
1.00003e-06
9.99907e-07
9.99776e-07
9.99663e-07
9.99593e-07
9.99621e-07
9.99721e-07
9.99858e-07
1.00017e-06
1.00003e-06
9.99766e-07
9.99638e-07
9.99554e-07
9.99656e-07
9.99826e-07
9.99909e-07
9.99937e-07
9.9994e-07
9.99766e-07
9.99827e-07
9.99766e-07
9.99638e-07
9.9964e-07
9.99593e-07
9.99543e-07
9.99593e-07
9.99417e-07
1.00004e-06
9.99967e-07
9.99872e-07
9.9964e-07
9.99802e-07
9.9964e-07
9.99593e-07
1.00002e-06
9.99954e-07
9.97603e-07
1.00025e-06
1.00023e-06
1.00017e-06
1.00008e-06
9.99971e-07
1.00002e-06
9.99891e-07
)
;
    }
}


// ************************************************************************* //
