/*--------------------------------*- C++ -*----------------------------------*\
| =========                 |                                                 |
| \\      /  F ield         | OpenFOAM: The Open Source CFD Toolbox           |
|  \\    /   O peration     | Version:  4.x                                   |
|   \\  /    A nd           | Web:      www.OpenFOAM.org                      |
|    \\/     M anipulation  |                                                 |
\*---------------------------------------------------------------------------*/
FoamFile
{
    version     2.0;
    format      ascii;
    class       volScalarField;
    location    "8.5";
    object      particleRelTemp;
}
// * * * * * * * * * * * * * * * * * * * * * * * * * * * * * * * * * * * * * //

dimensions      [0 0 0 0 0 0 0];

internalField   nonuniform List<scalar> 
114
(
3.64117e-09
1.57275e-08
3.20289e-08
6.12045e-08
9.22529e-08
1.2228e-07
3.71517e-08
3.91947e-08
6.30187e-08
8.72187e-08
1.2269e-07
1.61083e-07
2.02045e-07
7.45689e-08
7.16541e-08
8.08032e-08
9.56537e-08
1.23233e-07
1.68888e-07
2.1549e-07
2.58451e-07
-7.50099e-09
-1.60572e-08
-7.59155e-09
-1.22718e-08
4.12589e-09
1.76779e-08
4.65144e-08
7.17045e-08
1.05204e-07
2.35174e-08
2.09118e-08
2.33544e-08
2.33341e-08
4.64747e-08
7.14941e-08
9.64461e-08
1.36684e-07
1.66562e-07
6.10456e-08
6.11131e-08
5.61513e-08
6.81191e-08
8.61559e-08
1.1222e-07
1.56186e-07
2.03014e-07
2.25834e-07
7.2374e-08
6.98837e-08
-2.85969e-08
-3.69703e-08
-3.40501e-08
-3.60865e-08
-2.07498e-08
-2.41966e-08
6.44439e-09
2.31617e-08
6.151e-08
-1.93475e-09
-7.34759e-09
-1.0291e-08
1.23357e-09
1.57228e-08
4.15103e-08
5.35744e-08
7.2073e-08
1.13408e-07
2.98788e-08
2.85491e-08
2.4962e-08
3.31265e-08
5.7352e-08
8.36455e-08
1.16211e-07
1.496e-07
1.74211e-07
3.68693e-08
3.5168e-08
3.81779e-08
5.23286e-08
-6.75321e-08
-6.66842e-08
-7.65988e-08
-6.5184e-08
-5.31008e-08
-5.36205e-08
-3.23362e-08
-2.18088e-08
5.89958e-09
-3.5954e-08
-3.98253e-08
-4.35485e-08
-3.21889e-08
-2.10244e-08
-2.47691e-09
2.09589e-08
3.71026e-08
6.46868e-08
-3.94105e-09
-1.25754e-08
-8.13849e-09
1.9988e-09
2.41016e-08
5.38414e-08
7.22004e-08
9.98691e-08
1.20847e-07
3.53115e-09
1.42716e-09
7.6132e-09
2.05319e-08
4.7203e-08
7.59075e-08
)
;

boundaryField
{
    inlet
    {
        type            calculated;
        value           nonuniform 0();
    }
    outlet
    {
        type            calculated;
        value           nonuniform List<scalar> 
12
(
1.2228e-07
2.02045e-07
2.58451e-07
1.05204e-07
1.66562e-07
2.25834e-07
6.151e-08
1.13408e-07
1.74211e-07
5.89958e-09
6.46868e-08
1.20847e-07
)
;
    }
    wall
    {
        type            calculated;
        value           nonuniform List<scalar> 
66
(
-6.75321e-08
-3.5954e-08
-3.94105e-09
3.53115e-09
-6.66842e-08
-3.98253e-08
-1.25754e-08
1.42716e-09
-7.65988e-08
-4.35485e-08
-8.13849e-09
7.6132e-09
-6.5184e-08
-3.21889e-08
1.9988e-09
2.05319e-08
-5.31008e-08
-2.10244e-08
2.41016e-08
4.7203e-08
-5.36205e-08
-2.47691e-09
5.38414e-08
7.59075e-08
-3.23362e-08
2.09589e-08
7.22004e-08
-2.18088e-08
3.71026e-08
9.98691e-08
5.89958e-09
6.46868e-08
1.20847e-07
-7.50099e-09
-2.85969e-08
-6.75321e-08
-1.60572e-08
-3.69703e-08
-6.66842e-08
-7.59155e-09
-3.40501e-08
-7.65988e-08
3.64117e-09
-1.22718e-08
-3.60865e-08
-6.5184e-08
1.57275e-08
4.12589e-09
-2.07498e-08
-5.31008e-08
3.20289e-08
1.76779e-08
-2.41966e-08
-5.36205e-08
6.12045e-08
4.65144e-08
6.44439e-09
-3.23362e-08
9.22529e-08
7.17045e-08
2.31617e-08
-2.18088e-08
1.2228e-07
1.05204e-07
6.151e-08
5.89958e-09
)
;
    }
    procBoundary5to1
    {
        type            processor;
        value           nonuniform List<scalar> 
32
(
-1.25412e-09
1.31268e-08
4.29815e-08
6.95263e-08
9.53745e-08
1.32821e-07
2.74222e-08
3.48193e-08
5.58638e-08
8.25266e-08
1.29055e-07
1.71615e-07
2.12111e-07
6.37472e-08
5.95295e-08
7.43278e-08
9.69339e-08
1.31871e-07
1.78996e-07
2.19934e-07
2.56945e-07
9.50521e-10
-9.47147e-09
-4.70251e-09
-4.70251e-09
-4.70251e-09
3.62505e-08
3.45731e-08
3.45731e-08
3.45731e-08
8.12361e-08
8.12361e-08
)
;
    }
    procBoundary5to4
    {
        type            processor;
        value           nonuniform List<scalar> 
12
(
-9.02171e-09
3.49335e-08
6.26472e-08
8.08127e-08
-3.20708e-08
1.01736e-10
2.80663e-08
4.13433e-08
-6.45038e-08
-3.07011e-08
-7.0737e-09
9.83199e-09
)
;
    }
    procBoundary5to7
    {
        type            processor;
        value           nonuniform List<scalar> 
44
(
8.66932e-08
8.70904e-08
9.81377e-08
1.15575e-07
1.54093e-07
1.96919e-07
2.43061e-07
2.72701e-07
8.85869e-08
8.66932e-08
7.68371e-08
8.39322e-08
1.03606e-07
1.38382e-07
1.7839e-07
2.25224e-07
2.49377e-07
6.01936e-08
7.68371e-08
6.19187e-08
7.68371e-08
8.39322e-08
8.67355e-08
1.0559e-07
1.43655e-07
1.74118e-07
2.16794e-07
2.53152e-08
3.77124e-08
3.52721e-08
8.67355e-08
4.58707e-08
8.67355e-08
1.0559e-07
1.05202e-07
1.37834e-07
1.52521e-07
1.64783e-09
-1.69628e-09
6.87289e-09
1.70294e-08
4.07227e-08
1.05202e-07
6.5066e-08
)
;
    }
}


// ************************************************************************* //
