/*--------------------------------*- C++ -*----------------------------------*\
  =========                 |
  \\      /  F ield         | OpenFOAM: The Open Source CFD Toolbox
   \\    /   O peration     | Website:  https://openfoam.org
    \\  /    A nd           | Version:  4.x
     \\/     M anipulation  |
\*---------------------------------------------------------------------------*/
FoamFile
{
    version     2.0;
    format      ascii;
    class       Cloud<passiveParticle>;
    location    0;
    object      positions;
}
// * * * * * * * * * * * * * * * * * * * * * * * * * * * * * * * * * * * * * //

303
(
( 0.252978 0.0900442 -0.0558172 ) 63
( 0.250459 0.0316231 -0.0549457 ) 45
( 0.250281 0.0300119 -0.0351609 ) 81
( 0.254057 0.0693121 -0.0504317 ) 54
( 0.251021 0.068254 -0.0699702 ) 54
( 0.250548 0.0107814 -0.0752869 ) 0
( 0.250048 0.0882477 -0.0217024 ) 99
( 0.250099 0.0359576 -0.0743613 ) 9
( 0.255998 0.0312883 -0.01507 ) 81
( 0.381182 -0.0139639 -0.0338189 ) 76
( 0.421057 -0.0111275 -0.0808177 ) 6
( 0.473704 -0.00617912 -0.0415314 ) 80
( 0.324533 -0.0104852 -0.0764026 ) 2
( 0.403997 -0.00383526 -0.0735618 ) 5
( 0.490066 -0.010979 -0.0578477 ) 44
( 0.371722 -0.00591283 -0.0492933 ) 40
( 0.468619 -0.0018205 -0.0854634 ) 7
( 0.342636 -0.00282787 -0.0731179 ) 3
( 0.334694 -0.0140227 -0.0328663 ) 75
( 0.439303 -0.00180125 -0.0578327 ) 42
( 0.321648 -0.011791 -0.0474315 ) 38
( 0.36081 -0.000885181 -0.0651466 ) 39
( 0.310647 -0.00595231 -0.0628172 ) 38
( 0.354252 -0.01226 -0.0387157 ) 75
( 0.27214 -0.00316585 -0.0685243 ) 36
( 0.283848 -0.0122196 -0.0389885 ) 73
( 0.436697 0.000610506 -0.0773558 ) 6
( 0.49004 -0.0122163 -0.077726 ) 8
( 0.30242 -0.00847803 -0.0445065 ) 37
( 0.394162 -0.00441011 -0.0448553 ) 41
( 0.4724 -0.0116087 -0.0684732 ) 44
( 0.275382 -0.0100715 -0.0201223 ) 72
( 0.473074 -0.0126265 -0.0212249 ) 80
( 0.387648 0.026519 -0.0548128 ) 49
( 0.303849 0.0719178 -0.0647685 ) 64
( 0.337007 0.0639457 -0.04677 ) 57
( 0.325532 0.0165107 -0.048467 ) 47
( 0.443414 0.0376316 -0.0466895 ) 51
( 0.286621 0.0647052 -0.0582624 ) 55
( 0.33122 0.0508592 -0.0605379 ) 56
( 0.455284 0.0130359 -0.0859089 ) 7
( 0.36967 0.0348462 -0.0532761 ) 49
( 0.490048 0.022766 -0.0532066 ) 53
( 0.324496 0.0376736 -0.0746635 ) 11
( 0.293263 0.0258916 -0.0575244 ) 46
( 0.379218 0.00960752 -0.064272 ) 40
( 0.470483 0.0687522 -0.0577949 ) 61
( 0.431382 0.071112 -0.0625277 ) 60
( 0.456056 0.0710452 -0.0785156 ) 25
( 0.342736 0.0322601 -0.0689381 ) 48
( 0.320122 0.0460959 -0.0446833 ) 56
( 0.300975 0.0614018 -0.0451356 ) 55
( 0.368746 0.0542625 -0.0494164 ) 58
( 0.353741 0.0455278 -0.0592016 ) 57
( 0.324367 0.0854195 -0.0375061 ) 101
( 0.353067 0.0836055 -0.0694696 ) 66
( 0.452522 0.07722 -0.0555919 ) 70
( 0.28636 0.0901524 -0.0309995 ) 100
( 0.417177 0.0203294 -0.0480615 ) 51
( 0.334357 0.0726019 -0.0645101 ) 66
( 0.388221 0.0701316 -0.0536301 ) 58
( 0.47122 0.0901253 -0.0645151 ) 70
( 0.473987 0.0680828 -0.038207 ) 98
( 0.490005 0.0146531 -0.0838759 ) 17
( 0.26536 0.0160724 -0.0366254 ) 81
( 0.399878 0.0666727 -0.0694185 ) 59
( 0.327082 0.0285504 -0.0321342 ) 83
( 0.349228 0.0640742 -0.0204896 ) 93
( 0.395521 0.0137 -0.0779989 ) 5
( 0.306307 0.031806 -0.0402857 ) 83
( 0.302946 0.0349622 -0.0723583 ) 10
( 0.458136 0.0434146 -0.0606005 ) 61
( 0.272515 0.0513547 -0.0543096 ) 54
( 0.410964 0.0510411 -0.0599529 ) 59
( 0.457321 0.0242626 -0.0515127 ) 52
( 0.43048 0.0826181 -0.0787159 ) 33
( 0.365716 0.0410948 -0.0348508 ) 85
( 0.316009 0.0314863 -0.057662 ) 47
( 0.473517 0.0304706 -0.0613182 ) 53
( 0.366635 0.0114885 -0.0796569 ) 4
( 0.29068 0.0899551 -0.0503551 ) 64
( 0.269137 0.01648 -0.0710714 ) 45
( 0.405313 0.0262726 -0.0640932 ) 50
( 0.474268 0.0474008 -0.0500847 ) 62
( 0.441145 0.0386894 -0.0695416 ) 51
( 0.419575 0.0138288 -0.0703918 ) 42
( 0.346452 0.0806652 -0.0509095 ) 66
( 0.438804 0.0558581 -0.0404787 ) 96
( 0.437437 0.0204303 -0.0763503 ) 15
( 0.478471 0.074877 -0.0750683 ) 35
( 0.33457 0.0339099 -0.0507958 ) 48
( 0.380776 0.038082 -0.0694352 ) 49
( 0.460883 0.0406573 -0.0375704 ) 88
( 0.401429 0.0836733 -0.05938 ) 68
( 0.363235 0.0533989 -0.0747418 ) 22
( 0.280329 0.0682355 -0.0394782 ) 91
( 0.422384 0.0628927 -0.0782125 ) 24
( 0.371396 0.0898954 -0.0742383 ) 31
( 0.396969 0.0211252 -0.0382093 ) 86
( 0.347133 0.0156601 -0.0790149 ) 12
( 0.352708 0.0296639 -0.0442913 ) 48
( 0.273361 0.078913 -0.0546338 ) 63
( 0.490003 0.0338793 -0.0785376 ) 17
( 0.383708 0.0741873 -0.083936 ) 31
( 0.458129 0.0291035 -0.0743785 ) 16
( 0.424206 0.0430626 -0.0791958 ) 24
( 0.287298 0.0824928 -0.0684589 ) 64
( 0.43089 0.0736604 -0.0429399 ) 69
( 0.490014 0.0897472 -0.0822943 ) 35
( 0.293524 0.0527085 -0.0725274 ) 19
( 0.326542 0.00586615 -0.0651795 ) 38
( 0.293744 0.0110832 -0.0708883 ) 37
( 0.351026 0.0159501 -0.030078 ) 84
( 0.490039 0.0536713 -0.0821088 ) 26
( 0.413008 0.0679775 -0.0496042 ) 59
( 0.319282 0.0691396 -0.0770347 ) 20
( 0.457894 0.0583035 -0.046329 ) 61
( 0.380873 0.00957842 -0.0399774 ) 76
( 0.473271 0.0107338 -0.0537121 ) 44
( 0.472187 0.013566 -0.0733337 ) 7
( 0.283962 0.0211194 -0.040751 ) 82
( 0.269267 0.0318668 -0.0484865 ) 45
( 0.361787 0.0187431 -0.0617518 ) 49
( 0.472146 0.0230636 -0.0383428 ) 88
( 0.308162 0.049578 -0.0292954 ) 92
( 0.370996 0.0729292 -0.0630188 ) 67
( 0.437706 0.0900974 -0.061656 ) 69
( 0.428939 0.00665115 -0.0395733 ) 78
( 0.488674 0.0765071 -0.0485551 ) 71
( 0.391264 0.050805 -0.0566676 ) 59
( 0.474853 0.0497562 -0.0697817 ) 62
( 0.406163 0.0514694 -0.0805566 ) 23
( 0.398378 0.0717431 -0.036622 ) 104
( 0.392188 0.0901566 -0.0757431 ) 32
( 0.412474 0.0900742 -0.0746506 ) 32
( 0.273977 0.00936249 -0.0531851 ) 36
( 0.436521 0.0198825 -0.0540019 ) 51
( 0.444061 0.0900547 -0.0430252 ) 69
( 0.356175 0.00637155 -0.0471952 ) 39
( 0.329735 0.0900815 -0.0560042 ) 65
( 0.490192 0.0413571 -0.0601299 ) 53
( 0.433033 0.0252994 -0.0351616 ) 87
( 0.342578 0.0155172 -0.0583279 ) 48
( 0.363782 0.0727335 -0.0445142 ) 67
( 0.490253 0.0379954 -0.0405781 ) 89
( 0.469732 0.0900448 -0.0845797 ) 34
( 0.419438 0.0507386 -0.041899 ) 96
( 0.283481 0.0519902 -0.0219289 ) 91
( 0.425759 0.0902831 -0.0339619 ) 105
( 0.363537 0.0902226 -0.0539373 ) 67
( 0.300552 0.0106214 -0.0394445 ) 73
( 0.265806 0.0902367 -0.0402595 ) 99
( 0.300744 0.0440997 -0.0548055 ) 55
( 0.342832 0.0554798 -0.0759744 ) 21
( 0.352712 0.065238 -0.0617501 ) 57
( 0.398317 0.00856229 -0.0590179 ) 41
( 0.382837 0.0900373 -0.0579716 ) 67
( 0.417394 0.00157354 -0.0549106 ) 42
( 0.448727 0.00807364 -0.0435278 ) 43
( 0.295529 0.066894 -0.0270254 ) 91
( 0.385382 0.0566734 -0.0386926 ) 94
( 0.490525 0.0901601 -0.0624038 ) 71
( 0.399013 0.0329436 -0.0817754 ) 14
( 0.308311 0.0129865 -0.0574211 ) 38
( 0.490128 0.0523867 -0.0263937 ) 98
( 0.490049 0.0903471 -0.0346533 ) 107
( 0.270732 0.0663353 -0.0699036 ) 54
( 0.307653 0.0800869 -0.0470023 ) 65
( 0.464299 0.0900765 -0.045955 ) 70
( 0.32195 0.0658372 -0.0339756 ) 92
( 0.490098 0.00456316 -0.0449924 ) 44
( 0.490013 0.0627413 -0.0643544 ) 62
( 0.26635 0.0471758 -0.0727527 ) 18
( 0.430968 0.0512717 -0.0580757 ) 60
( 0.347206 0.0904346 -0.0339088 ) 102
( 0.311517 0.0901803 -0.0638099 ) 65
( 0.40546 0.0902585 -0.0410627 ) 104
( 0.490358 0.0573 -0.0452934 ) 62
( 0.382601 0.0575292 -0.073211 ) 22
( 0.45541 0.0494895 -0.0793355 ) 25
( 0.473214 0.0277146 -0.0873526 ) 17
( 0.267259 0.0901267 -0.069741 ) 63
( 0.381366 0.0824899 -0.0396572 ) 103
( 0.452334 0.0118961 -0.0662575 ) 43
( 0.445192 0.0894014 -0.0903646 ) 34
( 0.375146 0.0248566 -0.0286463 ) 85
( 0.335112 0.0900452 -0.0751055 ) 30
( 0.453639 0.0899783 -0.0727836 ) 34
( 0.318562 0.0647173 -0.0535832 ) 56
( 0.286865 0.0480207 -0.0410623 ) 91
( 0.447788 0.0599681 -0.064182 ) 61
( 0.315741 0.0197937 -0.074548 ) 11
( 0.474015 0.0715876 -0.0148999 ) 107
( 0.393388 0.0606371 -0.0209753 ) 95
( 0.410587 0.0815431 -0.0243014 ) 104
( 0.317415 0.0370058 -0.0168773 ) 83
( 0.45553 0.0776425 -0.0162669 ) 106
( 0.390594 0.0155873 -0.0202774 ) 86
( 0.49 0.0185209 -0.0308288 ) 89
( 0.323617 0.0607036 -0.0149418 ) 92
( 0.363258 0.0817709 -0.0269967 ) 103
( 0.407679 0.0246419 -0.0171494 ) 86
( 0.440577 0.00383101 -0.0235181 ) 78
( 0.466778 0.022968 -0.0192454 ) 88
( 0.348609 0.0851002 -0.0143941 ) 102
( 0.380599 0.0455446 -0.0230138 ) 94
( 0.447747 0.0607651 -0.0235483 ) 97
( 0.431068 0.0440286 -0.0265384 ) 96
( 0.392929 0.0902346 -0.025451 ) 104
( 0.41473 0.0430227 -0.0155165 ) 95
( 0.45824 0.00596994 -0.0147231 ) 79
( 0.490066 0.0721712 -0.027142 ) 107
( 0.439545 0.0251582 -0.0164747 ) 87
( 0.305686 0.0221666 -0.0230509 ) 83
( 0.423835 0.0142635 -0.0212819 ) 78
( 0.269736 0.0900168 -0.0201616 ) 99
( 0.333224 0.0124425 -0.022108 ) 74
( 0.414932 0.0620481 -0.0262598 ) 95
( 0.330883 0.0782994 -0.0202667 ) 101
( 0.270485 0.0348474 -0.0288662 ) 81
( 0.380624 0.0750768 -0.0213235 ) 103
( 0.471455 0.0895431 -0.0275697 ) 106
( 0.490086 0.0899623 -0.0146741 ) 107
( 0.25949 0.0469085 -0.0400015 ) 90
( 0.255894 -0.000337713 -0.0572222 ) 36
( 0.459501 -0.00336092 -0.0558408 ) 43
( 0.321355 -0.00174468 -0.0156999 ) 74
( 0.362226 0.0334728 -0.0751187 ) 13
( 0.419416 0.090049 -0.0548782 ) 69
( 0.318658 0.00540867 -0.0337571 ) 74
( 0.489752 0.0072492 -0.0654005 ) 44
( 0.409321 0.00579843 -0.0368384 ) 77
( 0.280178 0.0330806 -0.070574 ) 46
( 0.265703 0.0564669 -0.0144965 ) 90
( 0.442735 0.0903511 -0.0234681 ) 105
( 0.474693 0.00637554 -0.0261883 ) 80
( 0.262249 0.0723655 -0.0326283 ) 99
( 0.387655 -0.00839907 -0.0631206 ) 40
( 0.42369 0.0331947 -0.0619407 ) 51
( 0.268933 0.0104207 -0.0179875 ) 72
( 0.427994 -0.012801 -0.0421309 ) 78
( 0.266077 -0.00363762 -0.0404345 ) 72
( 0.396508 -0.00297595 -0.0244273 ) 77
( 0.337231 0.000516224 -0.0461715 ) 39
( 0.254332 -0.00877691 -0.0752501 ) 0
( 0.331141 0.0476669 -0.0280605 ) 92
( 0.455437 0.0751337 -0.0359557 ) 106
( 0.376858 -0.0056355 -0.079584 ) 4
( 0.31289 0.0524395 -0.0681197 ) 56
( 0.402839 0.0374023 -0.0478739 ) 50
( 0.253083 0.0510506 -0.0583546 ) 54
( 0.288818 -0.00307388 -0.0577851 ) 37
( 0.348876 0.0496165 -0.0404593 ) 93
( 0.313757 -0.0138248 -0.029178 ) 74
( 0.415405 0.0333693 -0.0331366 ) 86
( 0.34729 -0.00226784 -0.0230031 ) 75
( 0.490138 -0.0098072 -0.0310274 ) 80
( 0.290346 0.0340993 -0.0274132 ) 82
( 0.277424 0.0715865 -0.0197803 ) 99
( 0.367933 0.060623 -0.0266171 ) 94
( 0.365269 0.00206847 -0.03025 ) 76
( 0.45222 0.0238676 -0.0322089 ) 88
( 0.305591 0.0854546 -0.0279927 ) 101
( 0.476994 0.0378448 -0.0261733 ) 89
( 0.250346 0.0141008 -0.0235092 ) 72
( 0.420167 -0.00486117 -0.0242483 ) 78
( 0.350122 0.0418315 -0.022416 ) 84
( 0.468198 0.055279 -0.0242807 ) 97
( 0.295133 -0.0110057 -0.0230162 ) 73
( 0.431856 0.0737069 -0.0229921 ) 105
( 0.286582 0.00673302 -0.0261755 ) 73
( 0.45689 -0.00495487 -0.0310968 ) 79
( 0.399527 0.0436504 -0.0284265 ) 95
( 0.449888 0.0412098 -0.0212584 ) 88
( 0.346268 -0.0137398 -0.0568855 ) 39
( 0.281665 -0.0119607 -0.0836191 ) 1
( 0.4709 0.0601998 -0.0862713 ) 25
( 0.380442 0.0250297 -0.0844793 ) 13
( 0.383901 0.0443575 -0.0881045 ) 22
( 0.30019 0.0677032 -0.0838936 ) 19
( 0.347302 0.0394492 -0.0869416 ) 12
( 0.445082 0.0342641 -0.0885646 ) 16
( 0.275576 0.0792707 -0.0842515 ) 27
( 0.282886 0.0197347 -0.085156 ) 10
( 0.329332 0.00859686 -0.0847022 ) 2
( 0.278713 0.0564952 -0.0852956 ) 19
( 0.363944 0.0721288 -0.081619 ) 31
( 0.301952 0.0874012 -0.0810469 ) 28
( 0.311018 0.0459713 -0.0868746 ) 20
( 0.266299 0.0307912 -0.084697 ) 9
( 0.343023 0.0738569 -0.0836573 ) 30
( 0.356899 0.0900344 -0.0879278 ) 30
( 0.407956 0.0742769 -0.0859678 ) 32
( 0.253326 0.0900636 -0.0839285 ) 27
( 0.41713 0.0257617 -0.0861423 ) 15
( 0.308609 0.00224331 -0.0808483 ) 2
( 0.438036 0.054804 -0.0875387 ) 24
( 0.26077 0.0655776 -0.087156 ) 18
( 0.289902 0.0392807 -0.08683 ) 10
( 0.302163 0.0234858 -0.088662 ) 10
( 0.320441 0.088301 -0.0884776 ) 29
( 0.265778 0.00374999 -0.086095 ) 0
( 0.328045 0.0560826 -0.0893231 ) 20
)
