/*--------------------------------*- C++ -*----------------------------------*\
| =========                 |                                                 |
| \\      /  F ield         | OpenFOAM: The Open Source CFD Toolbox           |
|  \\    /   O peration     | Version:  4.x                                   |
|   \\  /    A nd           | Web:      www.OpenFOAM.org                      |
|    \\/     M anipulation  |                                                 |
\*---------------------------------------------------------------------------*/
FoamFile
{
    version     2.0;
    format      ascii;
    class       volScalarField;
    location    "9";
    object      Cs;
}
// * * * * * * * * * * * * * * * * * * * * * * * * * * * * * * * * * * * * * //

dimensions      [1 -3 0 0 0 0 0];

internalField   nonuniform List<scalar> 
114
(
334.793
334.818
334.84
334.899
334.925
335.347
335.037
335.073
335.119
335.128
335.156
335.137
335.226
335.014
335.064
335.112
335.152
335.178
335.186
335.178
335.198
334.889
334.877
334.88
334.885
334.908
334.928
334.968
334.993
335.069
335.005
335.053
335.106
335.127
335.157
335.14
335.149
335.115
335.156
334.995
335.039
335.082
335.116
335.148
335.16
335.156
335.132
335.144
334.987
335.027
334.923
334.916
334.918
334.92
334.932
334.938
334.961
334.967
335.415
334.987
335.025
335.06
335.07
335.08
335.061
335.075
335.053
335.184
334.977
335.007
335.037
335.057
335.084
335.096
335.125
335.116
335.207
334.97
335.006
335.051
335.076
334.921
334.915
334.912
334.912
334.915
334.917
334.927
334.93
337.915
334.927
334.926
334.928
334.932
334.938
334.944
334.956
334.964
335.211
334.924
334.921
334.921
334.925
334.933
334.943
334.963
334.98
335.309
334.924
334.924
334.928
334.936
334.948
334.962
)
;

boundaryField
{
    inlet
    {
        type            calculated;
        value           nonuniform 0();
    }
    outlet
    {
        type            calculated;
        value           uniform 335;
    }
    wall
    {
        type            calculated;
        value           nonuniform List<scalar> 
66
(
334.921
334.927
334.924
334.924
334.915
334.926
334.921
334.924
334.912
334.928
334.921
334.928
334.912
334.932
334.925
334.936
334.915
334.938
334.933
334.948
334.917
334.944
334.943
334.962
334.927
334.956
334.963
334.93
334.964
334.98
337.915
335.211
335.309
334.889
334.923
334.921
334.877
334.916
334.915
334.88
334.918
334.912
334.793
334.885
334.92
334.912
334.818
334.908
334.932
334.915
334.84
334.928
334.938
334.917
334.899
334.968
334.961
334.927
334.925
334.993
334.967
334.93
335.347
335.069
335.415
337.915
)
;
    }
    procBoundary5to1
    {
        type            processor;
        value           nonuniform List<scalar> 
32
(
334.706
334.751
334.791
334.872
334.913
336.009
335.018
335.077
335.132
335.153
335.185
335.167
335.364
335.001
335.071
335.131
335.179
335.205
335.214
335.204
335.289
334.821
334.797
334.791
334.791
334.791
334.939
334.985
334.985
334.985
334.966
334.966
)
;
    }
    procBoundary5to4
    {
        type            processor;
        value           nonuniform List<scalar> 
12
(
334.903
334.958
334.957
334.95
334.931
334.957
334.952
334.944
334.93
334.932
334.93
334.928
)
;
    }
    procBoundary5to7
    {
        type            processor;
        value           nonuniform List<scalar> 
44
(
334.976
335.019
335.063
335.102
335.13
335.127
335.102
335.059
334.935
334.976
335.069
335.112
335.143
335.121
335.068
335.039
335.029
335.01
335.069
335.048
335.069
335.112
335.113
335.13
335.15
335.136
335.21
334.979
335.003
335.034
335.113
335.057
335.113
335.13
334.988
335.008
335.74
334.919
334.922
334.937
334.964
334.999
334.988
335.028
)
;
    }
}


// ************************************************************************* //
