/*--------------------------------*- C++ -*----------------------------------*\
| =========                 |                                                 |
| \\      /  F ield         | OpenFOAM: The Open Source CFD Toolbox           |
|  \\    /   O peration     | Version:  4.x                                   |
|   \\  /    A nd           | Web:      www.OpenFOAM.org                      |
|    \\/     M anipulation  |                                                 |
\*---------------------------------------------------------------------------*/
FoamFile
{
    version     2.0;
    format      ascii;
    class       volScalarField;
    location    "9";
    object      p;
}
// * * * * * * * * * * * * * * * * * * * * * * * * * * * * * * * * * * * * * //

dimensions      [1 -1 -2 0 0 0 0];

internalField   nonuniform List<scalar> 
114
(
64.7952
-15.987
59.3215
-39.8074
57.289
-72.0794
4.47829
63.9501
-14.7823
57.0121
-34.3856
51.6585
-51.977
71.5491
4.8314
64.433
-14.0828
58.2473
-32.908
53.6812
-50.2024
-1853.58
-1806.11
-1871.52
-1813.16
-1890.5
-1819.4
-1910.27
-1824.58
-1928.29
-1853.34
-1806.35
-1871.19
-1814.15
-1889.16
-1821.67
-1906.49
-1828.42
-1921.36
-1852.45
-1806.3
-1869.75
-1813.84
-1887.13
-1820.88
-1904.15
-1827.78
-1919.71
-1851.32
-1806.37
-3731.67
-3684.08
-3750.52
-3691.23
-3770.96
-3697.2
-3794.36
-3699.61
-3823.74
-3731.31
-3684.24
-3749.75
-3692.29
-3768.63
-3699.78
-3787.79
-3705.66
-3804.76
-3731.18
-3684.05
-3749.39
-3691.58
-3768.09
-3698.54
-3786.99
-3703.38
-3804.58
-3729.81
-3684.01
-3747.18
-3692.65
-5608.95
-5561.85
-5627.52
-5568.97
-5647.79
-5574.9
-5671.87
-5576.83
-5710.44
-5608.77
-5562.2
-5627
-5569.87
-5645.85
-5577.04
-5665.56
-5582.69
-5684.99
-5608.6
-5561.88
-5626.74
-5569.34
-5645.49
-5576.04
-5664.76
-5581.29
-5683.34
-5607.83
-5562
-5625.32
-5569.97
-5642.73
-5577.72
)
;

boundaryField
{
    inlet
    {
        type            calculated;
        value           nonuniform 0();
    }
    outlet
    {
        type            calculated;
        value           nonuniform List<scalar> 
12
(
0
0
0
-1877.91
-1877.91
-1877.91
-3755.83
-3755.83
-3755.83
-5633.74
-5633.74
-5633.74
)
;
    }
    wall
    {
        type            calculated;
        value           nonuniform List<scalar> 
66
(
-6547.69
-6547.52
-6547.35
-6546.57
-6500.57
-6500.95
-6500.62
-6500.74
-6566.23
-6565.75
-6565.48
-6564.08
-6507.68
-6508.63
-6508.09
-6508.75
-6586.51
-6584.64
-6584.26
-6581.54
-6513.62
-6515.84
-6514.84
-6516.57
-6610.62
-6604.4
-6603.61
-6515.59
-6521.54
-6520.19
-6657.57
-6624.54
-6623.16
-1853.58
-3731.67
-5608.95
-1806.11
-3684.08
-5561.85
-1871.52
-3750.52
-5627.52
64.7952
-1813.16
-3691.23
-5568.97
-15.987
-1890.5
-3770.96
-5647.79
59.3215
-1819.4
-3697.2
-5574.9
-39.8074
-1910.27
-3794.36
-5671.87
57.289
-1824.58
-3699.61
-5576.83
-72.0794
-1928.29
-3823.74
-5710.44
)
;
    }
    procBoundary5to1
    {
        type            processor;
        value           nonuniform List<scalar> 
32
(
1942.54
1863.47
1936.71
1841.1
1933.25
1810.41
1883.31
1941.95
1864.61
1934.82
1845.63
1928.85
1828.26
1949.69
1884.23
1942.55
1866.14
1935.96
1848.5
1930.21
1832.46
23.1757
71.4642
4.55676
4.55676
4.55676
23.3042
71.3644
71.3644
71.3644
23.3724
23.3724
)
;
    }
    procBoundary5to4
    {
        type            processor;
        value           nonuniform List<scalar> 
12
(
-1798.71
-1798.34
-1798.34
-1798.12
-3676.5
-3676.08
-3676.13
-3675.81
-5554.33
-5554.2
-5554.1
-5553.93
)
;
    }
    procBoundary5to7
    {
        type            processor;
        value           nonuniform List<scalar> 
44
(
71.3982
6.41292
63.8202
-11.3593
56.6548
-28.5556
50.1087
-43.1424
24.4686
71.3982
-1868.2
-1814.37
-1884.98
-1821.95
-1901.22
-1830
-1916.07
-1852.29
-1868.2
-1806.17
-1868.2
-1814.37
-3764.05
-3700.13
-3780.09
-3707.7
-3794.43
-3730.67
-3683.9
-3748.86
-3764.05
-3691.58
-3764.05
-3700.13
-5659.67
-5585.22
-5675.11
-5607.98
-5561.37
-5625.83
-5569.05
-5643.78
-5659.67
-5576.61
)
;
    }
}


// ************************************************************************* //
