/*--------------------------------*- C++ -*----------------------------------*\
| =========                 |                                                 |
| \\      /  F ield         | OpenFOAM: The Open Source CFD Toolbox           |
|  \\    /   O peration     | Version:  4.x                                   |
|   \\  /    A nd           | Web:      www.OpenFOAM.org                      |
|    \\/     M anipulation  |                                                 |
\*---------------------------------------------------------------------------*/
FoamFile
{
    version     2.0;
    format      ascii;
    class       volScalarField;
    location    "9";
    object      p_rgh;
}
// * * * * * * * * * * * * * * * * * * * * * * * * * * * * * * * * * * * * * //

dimensions      [1 -1 -2 0 0 0 0];

internalField   nonuniform List<scalar> 
114
(
64.7952
-15.987
59.3215
-39.8074
57.289
-72.0794
4.47829
63.9501
-14.7823
57.0121
-34.3856
51.6585
-51.977
71.5491
4.8314
64.433
-14.0828
58.2473
-32.908
53.6812
-50.2024
23.7108
71.1151
5.71475
64.1106
-13.1011
58.1081
-32.5369
53.3015
-49.9896
24.6015
71.8673
7.31878
64.4761
-10.3588
57.0285
-27.7397
50.1422
-42.5706
25.4354
71.8301
8.62227
64.7237
-8.385
57.937
-25.3619
50.8754
-40.9931
26.521
71.6996
23.2945
70.814
4.39002
63.7001
-15.9029
57.9364
-38.977
55.8469
-63.2565
24.3679
71.8743
6.74573
64.3172
-11.9136
56.7313
-31.1165
50.7584
-46.8665
24.3903
71.8525
6.85056
64.8833
-11.311
58.3747
-29.7555
53.7522
-46.4275
25.6819
71.8902
9.22386
64.0396
23.4624
70.4663
4.75192
63.2853
-15.4838
57.4504
-39.3496
55.7481
-27.6679
23.7545
70.3056
5.53569
62.7324
-13.1571
55.7719
-32.5623
50.4478
-47.6961
23.8627
70.5332
5.68292
63.1405
-12.8735
56.749
-31.6431
52.1143
-44.4033
24.6385
70.4585
7.21106
62.6854
-9.85854
55.3913
)
;

boundaryField
{
    inlet
    {
        type            fixedFluxPressure;
        gradient        nonuniform 0();
        value           nonuniform 0();
    }
    outlet
    {
        type            fixedValue;
        value           uniform 0;
    }
    wall
    {
        type            fixedFluxPressure;
        gradient        nonuniform List<scalar> 
66
(
7.42222e-05
5.27554e-05
4.46154e-07
5.9871e-05
5.84846e-06
-3.53713e-05
3.54653e-05
1.66034e-05
3.43813e-05
0.000454051
0.000114764
1.23388e-05
0.000104426
0.000130453
0.000112921
2.95077e-05
-1.77656e-05
7.47726e-05
-2.4289e-05
-2.84827e-05
1.69732e-05
-3.2807e-06
-3.29258e-05
-6.72623e-05
2.61147e-06
1.24366e-05
-7.40318e-05
1.90743e-05
-1.12856e-06
-2.92408e-05
0.000121894
-1.96873e-05
-0.00013921
-8.43318e-05
-4.38378e-05
-9.99521e-05
7.01647e-05
4.36351e-05
-1.05096e-06
9.1137e-05
0.000115342
-9.03331e-05
-6.11545e-05
-2.08013e-05
0.000107106
6.38347e-05
-9.36829e-05
-3.82804e-05
3.56772e-05
-2.60534e-06
-1.99669e-05
-2.17386e-05
-2.55214e-05
-6.80923e-06
-4.39683e-06
-5.40849e-05
-2.27678e-05
-3.15667e-06
-1.05617e-05
-1.63838e-05
-1.22433e-06
1.60763e-05
-0.000203349
-0.000164073
-2.39524e-05
0.000122059
)
;
        value           nonuniform List<scalar> 
66
(
23.4624
23.7545
23.8627
24.6385
70.4663
70.3056
70.5332
70.4585
4.75192
5.53569
5.68292
7.21106
63.2853
62.7324
63.1405
62.6854
-15.4838
-13.1571
-12.8735
-9.85854
57.4504
55.7719
56.749
55.3913
-39.3496
-32.5623
-31.6431
55.7481
50.4478
52.1143
-27.6679
-47.6961
-44.4033
23.7108
23.2945
23.4624
71.1151
70.814
70.4663
5.71475
4.39003
4.75192
64.7952
64.1106
63.7001
63.2853
-15.987
-13.1011
-15.9029
-15.4838
59.3215
58.1081
57.9364
57.4504
-39.8074
-32.5369
-38.977
-39.3496
57.289
53.3015
55.8469
55.7481
-72.0794
-49.9896
-63.2565
-27.6679
)
;
    }
    procBoundary5to1
    {
        type            processor;
        value           nonuniform List<scalar> 
32
(
66.2733
-13.0491
59.9685
-36.0915
55.8285
-73.1572
5.29628
63.6035
-14.0492
56.0523
-33.3196
49.9963
-51.6965
71.7634
5.92168
63.9062
-12.7786
56.8996
-30.6118
51.1527
-47.0713
23.1757
71.4642
4.55676
4.55676
4.55676
23.3042
71.3644
71.3644
71.3644
23.3724
23.3724
)
;
    }
    procBoundary5to4
    {
        type            processor;
        value           nonuniform List<scalar> 
12
(
78.6672
79.3411
79.3307
79.5173
78.557
79.2706
79.1578
79.3941
78.2375
78.4042
78.4627
78.6073
)
;
    }
    procBoundary5to7
    {
        type            processor;
        value           nonuniform List<scalar> 
44
(
71.3982
6.41292
63.8202
-11.3593
56.6548
-28.5556
50.1087
-43.1424
24.4686
71.3982
10.1045
64.1694
-6.2657
56.6425
-22.9235
48.133
-37.9912
25.676
10.1045
72.0145
10.1045
64.1694
-6.96007
57.1585
-22.58
49.6498
-36.2483
24.9219
71.9642
7.34579
-6.96007
64.8948
-6.96007
57.1585
-26.1346
48.6499
-28.9221
24.4112
71.0525
6.857
64.0855
-10.05
-26.1346
57.6097
)
;
    }
}


// ************************************************************************* //
