/*--------------------------------*- C++ -*----------------------------------*\
| =========                 |                                                 |
| \\      /  F ield         | OpenFOAM: The Open Source CFD Toolbox           |
|  \\    /   O peration     | Version:  4.x                                   |
|   \\  /    A nd           | Web:      www.OpenFOAM.org                      |
|    \\/     M anipulation  |                                                 |
\*---------------------------------------------------------------------------*/
FoamFile
{
    version     2.0;
    format      ascii;
    class       volScalarField;
    location    "9";
    object      particleRelTemp;
}
// * * * * * * * * * * * * * * * * * * * * * * * * * * * * * * * * * * * * * //

dimensions      [0 0 0 0 0 0 0];

internalField   nonuniform List<scalar> 
114
(
1.07413e-08
1.99815e-08
3.18794e-08
5.3161e-08
7.59394e-08
9.85323e-08
3.9096e-08
4.10041e-08
6.03008e-08
7.78305e-08
1.04214e-07
1.31426e-07
1.62787e-07
6.76999e-08
6.82184e-08
7.63409e-08
8.77255e-08
1.07932e-07
1.41757e-07
1.75809e-07
2.08202e-07
-2.22587e-09
-7.63934e-09
1.17276e-09
-2.54929e-09
1.05709e-08
2.01128e-08
4.17067e-08
5.95444e-08
8.54147e-08
2.3161e-08
2.34722e-08
2.75163e-08
2.77874e-08
4.64969e-08
6.47339e-08
8.28989e-08
1.12336e-07
1.3475e-07
5.44935e-08
5.82189e-08
5.53893e-08
6.58453e-08
7.95209e-08
9.86154e-08
1.31305e-07
1.65844e-07
1.82319e-07
6.37053e-08
6.5999e-08
-1.97648e-08
-2.49384e-08
-2.14305e-08
-2.29863e-08
-1.06473e-08
-1.51274e-08
8.62962e-09
1.99301e-08
4.95513e-08
2.7647e-09
5.76353e-11
-9.89698e-10
8.89127e-09
2.01586e-08
3.9723e-08
4.70843e-08
5.98668e-08
9.1505e-08
2.8918e-08
3.02289e-08
2.90154e-08
3.61218e-08
5.53214e-08
7.46296e-08
9.84818e-08
1.22621e-07
1.4094e-07
3.507e-08
3.60333e-08
4.02131e-08
5.24341e-08
-5.1658e-08
-5.01599e-08
-5.77371e-08
-4.796e-08
-3.83722e-08
-4.02081e-08
-2.38846e-08
-1.70673e-08
4.2236e-09
-2.57405e-08
-2.74816e-08
-2.93258e-08
-1.97087e-08
-1.12077e-08
2.75513e-09
2.00605e-08
3.10939e-08
5.19467e-08
5.9648e-10
-4.39201e-09
7.31916e-10
9.41774e-09
2.70441e-08
4.94241e-08
6.20173e-08
8.20024e-08
9.73842e-08
6.77909e-09
7.27007e-09
1.39938e-08
2.51571e-08
4.66033e-08
6.75759e-08
)
;

boundaryField
{
    inlet
    {
        type            calculated;
        value           nonuniform 0();
    }
    outlet
    {
        type            calculated;
        value           nonuniform List<scalar> 
12
(
9.85323e-08
1.62787e-07
2.08202e-07
8.54147e-08
1.3475e-07
1.82319e-07
4.95513e-08
9.1505e-08
1.4094e-07
4.2236e-09
5.19467e-08
9.73842e-08
)
;
    }
    wall
    {
        type            calculated;
        value           nonuniform List<scalar> 
66
(
-5.1658e-08
-2.57405e-08
5.9648e-10
6.77909e-09
-5.01599e-08
-2.74816e-08
-4.39201e-09
7.27007e-09
-5.77371e-08
-2.93258e-08
7.31916e-10
1.39938e-08
-4.796e-08
-1.97087e-08
9.41774e-09
2.51571e-08
-3.83722e-08
-1.12077e-08
2.70441e-08
4.66033e-08
-4.02081e-08
2.75513e-09
4.94241e-08
6.75759e-08
-2.38846e-08
2.00605e-08
6.20173e-08
-1.70673e-08
3.10939e-08
8.20024e-08
4.2236e-09
5.19467e-08
9.73842e-08
-2.22587e-09
-1.97648e-08
-5.1658e-08
-7.63934e-09
-2.49384e-08
-5.01599e-08
1.17276e-09
-2.14305e-08
-5.77371e-08
1.07413e-08
-2.54929e-09
-2.29863e-08
-4.796e-08
1.99815e-08
1.05709e-08
-1.06473e-08
-3.83722e-08
3.18794e-08
2.01128e-08
-1.51274e-08
-4.02081e-08
5.3161e-08
4.17067e-08
8.62962e-09
-2.38846e-08
7.59394e-08
5.95444e-08
1.99301e-08
-1.70673e-08
9.85323e-08
8.54147e-08
4.95513e-08
4.2236e-09
)
;
    }
    procBoundary5to1
    {
        type            processor;
        value           nonuniform List<scalar> 
32
(
5.99235e-09
1.71474e-08
3.97042e-08
5.91494e-08
7.71249e-08
1.05571e-07
2.98354e-08
3.67016e-08
5.32401e-08
7.2918e-08
1.07322e-07
1.38934e-07
1.69481e-07
5.89218e-08
5.70104e-08
7.04144e-08
8.80696e-08
1.14057e-07
1.48367e-07
1.79208e-07
2.05949e-07
3.93508e-09
-2.06285e-09
3.24746e-09
3.24746e-09
3.24746e-09
3.34806e-08
3.50936e-08
3.50936e-08
3.50936e-08
6.962e-08
6.962e-08
)
;
    }
    procBoundary5to4
    {
        type            processor;
        value           nonuniform List<scalar> 
12
(
-5.71339e-09
2.96183e-08
5.25034e-08
6.69544e-08
-2.4732e-08
1.53302e-09
2.44607e-08
3.55202e-08
-5.14591e-08
-2.39298e-08
-4.24508e-09
9.03275e-09
)
;
    }
    procBoundary5to7
    {
        type            processor;
        value           nonuniform List<scalar> 
44
(
7.79387e-08
8.06408e-08
9.07168e-08
1.03981e-07
1.32774e-07
1.64096e-07
1.98089e-07
2.20018e-07
7.63286e-08
7.79387e-08
7.29251e-08
7.91931e-08
9.43561e-08
1.20347e-07
1.49538e-07
1.83937e-07
2.01545e-07
5.43487e-08
7.29251e-08
5.81172e-08
7.29251e-08
7.91931e-08
8.04636e-08
9.35832e-08
1.20796e-07
1.42947e-07
1.75167e-07
2.49285e-08
3.80827e-08
3.74401e-08
8.04636e-08
4.66189e-08
8.04636e-08
9.35832e-08
8.89308e-08
1.13025e-07
1.23102e-07
4.5394e-09
4.38412e-09
1.30708e-08
2.17571e-08
4.0432e-08
8.89308e-08
5.8701e-08
)
;
    }
}


// ************************************************************************* //
