/*--------------------------------*- C++ -*----------------------------------*\
| =========                 |                                                 |
| \\      /  F ield         | OpenFOAM: The Open Source CFD Toolbox           |
|  \\    /   O peration     | Version:  4.x                                   |
|   \\  /    A nd           | Web:      www.OpenFOAM.org                      |
|    \\/     M anipulation  |                                                 |
\*---------------------------------------------------------------------------*/
FoamFile
{
    version     2.0;
    format      ascii;
    class       volScalarField;
    location    "9";
    object      QPartFluid;
}
// * * * * * * * * * * * * * * * * * * * * * * * * * * * * * * * * * * * * * //

dimensions      [1 -1 -3 0 0 0 0];

internalField   nonuniform List<scalar> 
114
(
8.61917e+09
8.5327e+09
8.30977e+09
7.15133e+09
9.95308e+09
7.74113e+09
7.83055e+09
7.41727e+09
6.55852e+09
8.80675e+09
9.46616e+09
1.10531e+10
7.52384e+09
1.02294e+10
6.45177e+09
8.91082e+09
6.28455e+09
5.4641e+09
7.36379e+09
6.62492e+09
6.69127e+09
6.64341e+09
5.80415e+09
7.93407e+09
6.46851e+09
6.95533e+09
8.38995e+09
7.68767e+09
6.65394e+09
4.85323e+09
8.13584e+09
8.22423e+09
9.32757e+09
9.00658e+09
9.10946e+09
1.01772e+10
5.40595e+09
1.05306e+10
6.15847e+09
8.52322e+09
5.43967e+09
7.36001e+09
8.99208e+09
6.18224e+09
8.17878e+09
7.18609e+09
7.75782e+09
4.42154e+09
1.02896e+10
5.06362e+09
7.53159e+09
9.67018e+09
7.81162e+09
8.8515e+09
8.19722e+09
8.6139e+09
7.45225e+09
9.6989e+09
6.26253e+09
5.98064e+09
1.08055e+10
7.145e+09
9.14461e+09
8.37793e+09
9.20064e+09
1.10277e+10
8.74816e+09
5.46174e+09
9.01455e+09
7.71349e+09
8.05398e+09
7.25292e+09
1.14244e+10
9.20664e+09
8.81252e+09
1.06056e+10
7.79827e+09
3.82124e+09
1.14136e+10
9.35291e+09
9.51056e+09
2.49398e+09
6.83731e+09
4.57822e+09
7.7801e+09
6.20554e+09
5.96853e+09
7.50343e+09
8.46851e+09
5.87943e+09
6.69327e+09
8.58192e+09
5.00297e+09
6.96224e+09
8.42041e+09
7.71551e+09
5.70811e+09
8.91779e+09
6.34818e+09
6.51999e+09
7.24603e+09
8.8981e+09
7.80672e+09
6.46066e+09
9.35016e+09
6.93806e+09
7.69175e+09
6.32577e+09
7.21324e+09
6.29516e+09
7.64696e+09
6.68283e+09
1.03493e+10
8.09352e+09
)
;

boundaryField
{
    inlet
    {
        type            calculated;
        value           nonuniform 0();
    }
    outlet
    {
        type            calculated;
        value           uniform 0;
    }
    wall
    {
        type            calculated;
        value           uniform 0;
    }
    procBoundary5to1
    {
        type            processor;
        value           nonuniform List<scalar> 
32
(
9.87548e+09
6.68644e+09
1.02906e+10
8.46453e+09
8.39669e+09
3.79358e+09
6.44206e+09
8.01972e+09
8.29992e+09
9.11626e+09
7.83589e+09
9.26721e+09
4.27809e+09
7.81298e+09
5.46851e+09
1.11002e+10
8.75858e+09
1.05228e+10
7.19089e+09
9.28152e+09
3.01215e+09
6.86086e+09
5.83307e+09
8.63565e+09
8.63565e+09
8.63565e+09
8.1516e+09
1.25377e+10
1.25377e+10
1.25377e+10
6.13307e+09
6.13307e+09
)
;
    }
    procBoundary5to4
    {
        type            processor;
        value           nonuniform List<scalar> 
12
(
9.52435e+09
1.09748e+10
6.63024e+09
7.01102e+09
9.53067e+09
1.03412e+10
8.55391e+09
8.05467e+09
8.07248e+09
8.51882e+09
7.06412e+09
7.05994e+09
)
;
    }
    procBoundary5to7
    {
        type            processor;
        value           nonuniform List<scalar> 
44
(
9.32131e+09
6.81623e+09
8.03382e+09
1.13668e+10
1.22896e+10
8.14294e+09
6.19146e+09
6.04133e+09
1.05877e+10
9.32131e+09
6.54323e+09
8.4241e+09
6.87031e+09
7.80139e+09
8.50383e+09
9.16915e+09
5.785e+09
3.91119e+09
6.54323e+09
1.00669e+10
6.54323e+09
8.4241e+09
4.7066e+09
6.75547e+09
7.49487e+09
6.8108e+09
4.08169e+09
8.7273e+09
9.06835e+09
7.13764e+09
4.7066e+09
6.4455e+09
4.7066e+09
6.75547e+09
5.65532e+09
7.12584e+09
4.74369e+09
7.28976e+09
6.8805e+09
7.35158e+09
8.37624e+09
4.75946e+09
5.65532e+09
4.60469e+09
)
;
    }
}


// ************************************************************************* //
