/*--------------------------------*- C++ -*----------------------------------*\
| =========                 |                                                 |
| \\      /  F ield         | OpenFOAM: The Open Source CFD Toolbox           |
|  \\    /   O peration     | Version:  4.x                                   |
|   \\  /    A nd           | Web:      www.OpenFOAM.org                      |
|    \\/     M anipulation  |                                                 |
\*---------------------------------------------------------------------------*/
FoamFile
{
    version     2.0;
    format      ascii;
    class       volScalarField;
    location    "9";
    object      Sm;
}
// * * * * * * * * * * * * * * * * * * * * * * * * * * * * * * * * * * * * * //

dimensions      [1 -3 -1 0 0 0 0];

internalField   nonuniform List<scalar> 
114
(
6.81924e-65
8.05902e-65
6.35418e-65
6.74148e-65
7.5938e-65
8.44596e-65
6.81899e-65
5.65667e-65
5.81157e-65
6.66381e-65
8.21332e-65
8.52313e-65
7.90306e-65
8.44604e-65
6.04397e-65
7.43866e-65
5.8114e-65
4.57156e-65
6.97338e-65
5.73352e-65
8.67747e-65
6.27681e-65
4.88203e-65
6.97422e-65
5.42441e-65
6.43174e-65
6.81916e-65
7.12899e-65
5.65666e-65
5.9664e-65
7.12903e-65
6.8191e-65
8.52381e-65
7.12898e-65
8.36871e-65
8.13611e-65
5.26906e-65
8.6007e-65
6.89592e-65
8.21369e-65
4.57177e-65
7.28382e-65
7.59372e-65
6.19888e-65
7.05112e-65
7.12841e-65
6.8958e-65
5.57854e-65
9.99581e-65
4.41673e-65
6.66438e-65
8.21428e-65
6.74188e-65
7.36183e-65
6.97432e-65
6.89684e-65
6.66423e-65
7.28417e-65
6.58654e-65
5.34688e-65
8.36903e-65
6.19925e-65
7.12915e-65
7.1291e-65
7.05146e-65
9.14362e-65
6.43144e-65
5.50149e-65
8.05884e-65
6.35411e-65
7.05152e-65
5.96667e-65
1.01509e-64
7.36124e-65
8.21339e-65
8.91056e-65
8.67795e-65
3.56446e-65
9.37613e-65
8.98869e-65
7.98127e-65
2.63486e-65
6.8971e-65
4.57226e-65
7.12956e-65
6.04458e-65
4.95963e-65
6.97442e-65
6.27699e-65
6.04441e-65
6.04445e-65
6.89693e-65
4.18463e-65
5.65702e-65
7.43927e-65
6.50928e-65
4.57194e-65
7.05157e-65
6.0441e-65
6.27679e-65
6.27685e-65
8.52405e-65
6.89674e-65
5.88926e-65
8.05885e-65
6.50896e-65
6.74134e-65
6.81871e-65
7.20667e-65
5.50186e-65
7.28411e-65
5.65679e-65
9.68608e-65
7.74879e-65
)
;

boundaryField
{
    inlet
    {
        type            calculated;
        value           nonuniform 0();
    }
    outlet
    {
        type            calculated;
        value           uniform 0;
    }
    wall
    {
        type            calculated;
        value           uniform 0;
    }
    procBoundary5to1
    {
        type            processor;
        value           nonuniform List<scalar> 
32
(
7.90413e-65
5.81181e-65
8.44633e-65
7.05143e-65
5.73409e-65
4.18418e-65
5.65674e-65
6.12163e-65
6.97388e-65
6.97381e-65
6.58615e-65
7.20587e-65
4.41631e-65
6.35395e-65
5.11415e-65
9.06594e-65
8.29094e-65
8.75567e-65
6.81836e-65
7.90292e-65
3.48647e-65
6.58674e-65
5.26945e-65
8.05911e-65
8.05911e-65
8.05911e-65
7.05148e-65
9.99605e-65
9.99605e-65
9.99605e-65
5.73401e-65
5.73401e-65
)
;
    }
    procBoundary5to4
    {
        type            processor;
        value           nonuniform List<scalar> 
12
(
8.91155e-65
9.06622e-65
5.65659e-65
5.96649e-65
8.21428e-65
8.13656e-65
6.81905e-65
6.81902e-65
7.20706e-65
7.59429e-65
6.27684e-65
6.35426e-65
)
;
    }
    procBoundary5to7
    {
        type            processor;
        value           nonuniform List<scalar> 
44
(
7.82608e-65
6.43132e-65
6.74122e-65
1.03054e-64
1.03827e-64
7.98048e-65
5.6559e-65
8.36747e-65
9.91821e-65
7.82608e-65
6.43135e-65
7.36115e-65
6.74117e-65
6.896e-65
8.60042e-65
8.44523e-65
7.36038e-65
3.95184e-65
6.43135e-65
8.5236e-65
6.43135e-65
7.36115e-65
5.03655e-65
5.81134e-65
7.3609e-65
6.04356e-65
5.81093e-65
8.0589e-65
7.36144e-65
6.81901e-65
5.03655e-65
5.19168e-65
5.03655e-65
5.81134e-65
5.50147e-65
6.43124e-65
6.12123e-65
6.89669e-65
5.81186e-65
7.67155e-65
7.43906e-65
5.19175e-65
5.50147e-65
3.87443e-65
)
;
    }
}


// ************************************************************************* //
