/*--------------------------------*- C++ -*----------------------------------*\
| =========                 |                                                 |
| \\      /  F ield         | OpenFOAM: The Open Source CFD Toolbox           |
|  \\    /   O peration     | Version:  4.x                                   |
|   \\  /    A nd           | Web:      www.OpenFOAM.org                      |
|    \\/     M anipulation  |                                                 |
\*---------------------------------------------------------------------------*/
FoamFile
{
    version     2.0;
    format      ascii;
    class       volVectorField;
    location    "9";
    object      Us;
}
// * * * * * * * * * * * * * * * * * * * * * * * * * * * * * * * * * * * * * //

dimensions      [0 1 -1 0 0 0 0];

internalField   nonuniform List<vector> 
114
(
(-7.33959e-08 1.034e-08 1.23046e-08)
(-4.99929e-08 8.85533e-09 4.73e-09)
(-3.93068e-08 3.78801e-09 1.02748e-08)
(-1.61811e-08 3.77236e-10 1.12977e-08)
(-1.55278e-08 2.53277e-09 9.32341e-09)
(-9.0183e-08 2.48488e-08 1.56718e-09)
(-1.16792e-07 5.05695e-09 3.44117e-08)
(-1.03526e-07 1.08665e-08 2.40354e-08)
(-8.30306e-08 7.90521e-09 1.03213e-08)
(-5.15802e-08 5.36679e-09 4.11835e-09)
(-3.59953e-08 1.66696e-09 1.19708e-08)
(-2.14566e-08 7.77487e-09 1.5157e-08)
(-1.84822e-08 2.02074e-08 8.20556e-09)
(-1.42876e-07 -1.23995e-08 4.15186e-08)
(-1.31896e-07 -3.10376e-09 3.25006e-08)
(-1.13588e-07 2.19066e-09 1.97937e-08)
(-9.51165e-08 3.44448e-09 5.17534e-09)
(-7.02208e-08 7.48055e-09 -2.03428e-09)
(-4.83433e-08 4.95383e-09 1.32651e-10)
(-3.18694e-08 1.27802e-08 1.48772e-08)
(-1.83116e-08 5.20352e-09 8.85364e-09)
(-1.04836e-07 5.99343e-09 9.35928e-09)
(-1.01738e-07 -1.00989e-08 5.17342e-09)
(-8.99739e-08 -6.60389e-09 1.17804e-08)
(-8.13724e-08 3.10372e-09 9.61326e-09)
(-5.74321e-08 2.60538e-09 -5.11436e-09)
(-2.81216e-08 3.26987e-09 7.07087e-09)
(-1.80162e-08 2.78309e-09 5.62603e-09)
(-1.37183e-08 2.26699e-09 7.4334e-09)
(-8.5537e-09 4.90516e-09 8.55077e-09)
(-1.5346e-07 -2.80056e-08 1.24564e-08)
(-1.57544e-07 -4.44642e-08 1.6587e-08)
(-1.17584e-07 -1.22732e-08 1.97526e-08)
(-1.05055e-07 3.008e-10 1.5212e-08)
(-7.82326e-08 -8.42801e-09 5.43216e-09)
(-5.02609e-08 9.85312e-11 1.02696e-09)
(-4.11967e-08 6.30793e-09 4.30947e-09)
(-2.64264e-08 1.27203e-08 5.19635e-09)
(-1.9819e-08 6.97689e-09 5.45478e-09)
(-1.63166e-07 -2.14177e-08 1.41286e-08)
(-1.44579e-07 -1.58283e-08 2.50933e-08)
(-1.28656e-07 -1.50225e-08 2.65581e-08)
(-1.09456e-07 -3.49735e-09 1.58533e-08)
(-8.1732e-08 -2.51955e-10 4.37796e-09)
(-5.97336e-08 1.07502e-09 -2.64532e-09)
(-4.19498e-08 5.7251e-09 -1.42337e-09)
(-2.35484e-08 8.61087e-09 -7.94415e-10)
(-9.10008e-09 4.78898e-09 3.29798e-10)
(-1.62298e-07 -1.4675e-08 2.50181e-08)
(-1.52796e-07 -1.10758e-08 3.05674e-08)
(-9.73706e-08 3.59105e-09 1.3886e-08)
(-9.77642e-08 -6.57089e-09 4.52523e-09)
(-9.45938e-08 -9.93426e-09 9.99851e-09)
(-9.90738e-08 -1.74308e-08 3.21303e-08)
(-6.89281e-08 -3.11791e-09 -2.16465e-09)
(-3.23746e-08 4.62899e-09 5.27411e-09)
(-1.42355e-08 1.89977e-09 2.57133e-09)
(-7.48077e-09 2.67871e-10 3.85657e-09)
(-1.37696e-08 2.4204e-09 1.70489e-08)
(-1.32267e-07 -4.61049e-10 1.32983e-09)
(-1.25156e-07 -1.30013e-08 2.08998e-09)
(-1.13591e-07 -1.88138e-08 1.45853e-08)
(-3.38855e-07 -9.81177e-08 1.42691e-08)
(-7.09932e-08 -5.09824e-09 -1.05967e-09)
(-4.43051e-08 -3.0928e-09 2.63677e-09)
(-2.27623e-08 2.30301e-09 1.31122e-09)
(-1.57701e-08 9.84285e-10 8.51242e-10)
(-8.73045e-09 -3.85382e-09 1.61065e-09)
(-1.52448e-07 -1.54033e-08 3.88759e-09)
(-1.52427e-07 -2.23284e-08 7.92169e-09)
(-1.16971e-07 -2.57655e-08 1.92273e-08)
(-1.01969e-07 -1.32763e-08 1.40758e-08)
(-6.72069e-08 -5.13983e-09 1.84504e-09)
(-4.75052e-08 -5.59502e-09 -4.35903e-09)
(-2.67036e-08 -1.61639e-09 -5.31437e-09)
(-1.46224e-08 1.61449e-09 -5.78246e-09)
(-9.46848e-09 -7.49944e-10 -5.45194e-09)
(-1.51117e-07 -9.68513e-09 -2.37925e-09)
(-1.41332e-07 -1.34887e-08 8.32453e-09)
(-1.23702e-07 -1.53002e-08 9.11513e-09)
(-9.62702e-08 -1.25793e-08 7.3572e-09)
(-5.01776e-08 9.72152e-09 7.21899e-09)
(-6.96101e-08 1.69757e-10 9.44677e-10)
(-4.54535e-08 9.36227e-09 3.56333e-09)
(-6.41965e-08 -1.11377e-08 1.82199e-08)
(-4.96464e-08 2.76884e-10 -1.88804e-09)
(-1.77546e-08 1.37033e-09 3.41579e-09)
(-6.92509e-09 3.28067e-10 2.71405e-10)
(-2.87755e-09 -4.39875e-09 5.21905e-09)
(-6.9416e-09 -1.52426e-08 1.52221e-08)
(-1.01909e-07 1.17243e-08 4.55096e-09)
(-1.03328e-07 -3.3315e-09 -5.22548e-09)
(-2.14156e-07 3.81455e-08 4.00738e-08)
(-5.89075e-07 -1.62386e-07 1.99495e-08)
(-6.42177e-08 1.12025e-09 6.32092e-09)
(-2.37084e-08 -7.2845e-10 -5.16847e-10)
(-1.56085e-08 -1.64128e-09 1.03354e-09)
(-5.99603e-09 -8.82759e-09 -1.8245e-10)
(-6.6612e-09 -2.45465e-08 -2.69612e-09)
(-1.09657e-07 -1.10795e-09 3.65061e-11)
(-1.04585e-07 -1.17071e-08 5.20423e-09)
(-7.9673e-08 2.56006e-09 9.46752e-09)
(-1.62989e-07 -1.31786e-08 1.69337e-08)
(-4.70807e-08 -1.14232e-08 -1.87646e-09)
(-3.25507e-08 -5.73083e-09 -4.93051e-09)
(-1.93415e-08 -4.12792e-09 -4.73828e-09)
(-1.05035e-08 -3.19644e-09 -4.23598e-09)
(-3.88402e-09 -6.98029e-09 -6.44238e-09)
(-9.73728e-08 -1.67901e-08 4.62353e-09)
(-8.71257e-08 -2.10508e-08 2.30671e-09)
(-1.03819e-07 -2.52501e-08 9.23177e-10)
(-6.33273e-08 -4.54683e-10 3.97972e-09)
(-4.62804e-08 -9.94433e-09 -1.80644e-09)
(-3.1326e-08 -8.57728e-09 -8.56694e-09)
)
;

boundaryField
{
    inlet
    {
        type            zeroGradient;
    }
    outlet
    {
        type            zeroGradient;
    }
    wall
    {
        type            zeroGradient;
    }
    procBoundary5to1
    {
        type            processor;
        value           nonuniform List<vector> 
32
(
(-4.87314e-08 9.76076e-09 1.34564e-08)
(-2.94835e-08 1.14108e-08 4.41047e-09)
(-2.22802e-08 2.64295e-09 1.12908e-08)
(-1.47977e-08 -3.852e-09 1.49347e-08)
(4.6865e-09 -3.52831e-09 2.2929e-08)
(-1.09591e-08 -1.70571e-08 3.5823e-08)
(-1.09701e-07 4.73362e-10 5.104e-08)
(-9.41765e-08 4.66791e-09 2.00517e-08)
(-5.66331e-08 6.76646e-09 -4.58101e-09)
(-3.00444e-08 7.67317e-09 4.43871e-09)
(-3.03767e-08 -2.70192e-09 2.39228e-08)
(-2.54899e-08 1.38102e-08 3.69314e-08)
(-1.00386e-08 9.31341e-09 2.23753e-08)
(-1.24164e-07 -3.23647e-09 5.24924e-08)
(-1.21001e-07 4.96258e-09 5.34733e-08)
(-1.21928e-07 1.1442e-09 2.17865e-08)
(-9.52008e-08 3.34105e-09 -2.2944e-09)
(-7.38412e-08 1.36709e-08 -6.62216e-09)
(-5.09381e-08 9.63704e-10 1.91181e-08)
(-4.14422e-08 1.2595e-08 2.73815e-08)
(-3.67411e-08 2.24092e-08 2.35409e-08)
(-9.10844e-08 -4.90898e-09 1.187e-08)
(-7.30602e-08 -1.76354e-08 1.38113e-08)
(-6.39465e-08 -2.48259e-09 1.76325e-08)
(-6.39465e-08 -2.48259e-09 1.76325e-08)
(-6.39465e-08 -2.48259e-09 1.76325e-08)
(-1.41089e-07 -6.85227e-09 2.02525e-08)
(-1.29338e-07 -9.26568e-09 3.34778e-08)
(-1.29338e-07 -9.26568e-09 3.34778e-08)
(-1.29338e-07 -9.26568e-09 3.34778e-08)
(-1.59873e-07 -1.99701e-08 2.96497e-08)
(-1.59873e-07 -1.99701e-08 2.96497e-08)
)
;
    }
    procBoundary5to4
    {
        type            processor;
        value           nonuniform List<vector> 
12
(
(-8.65055e-08 2.45516e-09 -2.64686e-09)
(-1.43112e-07 -1.34831e-08 1.11669e-08)
(-1.53628e-07 -1.80053e-08 5.34315e-09)
(-1.60438e-07 -1.2017e-08 1.79115e-08)
(-8.06575e-08 -3.75297e-09 1.13111e-09)
(-1.14157e-07 -1.22756e-08 8.35988e-09)
(-1.41458e-07 -1.84955e-08 -2.47969e-09)
(-1.41182e-07 -1.24679e-08 1.50386e-09)
(-4.78061e-08 -7.4129e-09 1.52455e-09)
(-7.53053e-08 -5.65372e-09 8.77957e-09)
(-9.45283e-08 -1.66352e-08 -4.64538e-09)
(-1.11938e-07 -1.21747e-08 2.23272e-09)
)
;
    }
    procBoundary5to7
    {
        type            processor;
        value           nonuniform List<vector> 
44
(
(-1.53043e-07 -1.31321e-08 4.41615e-08)
(-1.38018e-07 -6.02602e-09 4.1934e-08)
(-1.2621e-07 -4.63051e-09 1.45566e-08)
(-9.81459e-08 3.82819e-09 4.89533e-09)
(-6.25401e-08 8.55144e-09 4.92457e-09)
(-4.64035e-08 4.66362e-09 1.49689e-09)
(-2.77692e-08 8.07598e-09 8.17851e-09)
(-9.37866e-09 8.67511e-09 1.17055e-08)
(-1.57087e-07 -1.56407e-08 4.20042e-08)
(-1.53043e-07 -1.31321e-08 4.41615e-08)
(-1.33901e-07 -1.3991e-08 2.53433e-08)
(-1.17981e-07 -9.5954e-09 1.31689e-08)
(-7.5927e-08 1.02209e-10 9.34862e-10)
(-5.64842e-08 -2.70627e-09 -2.70726e-09)
(-3.76608e-08 -3.3481e-12 -3.72025e-09)
(-2.16643e-08 4.21638e-09 -1.44306e-09)
(-1.05912e-08 1.3011e-09 -2.13294e-09)
(-1.54921e-07 -6.67609e-09 2.91567e-08)
(-1.33901e-07 -1.3991e-08 2.53433e-08)
(-1.49951e-07 -5.1355e-09 3.05128e-08)
(-1.33901e-07 -1.3991e-08 2.53433e-08)
(-1.17981e-07 -9.5954e-09 1.31689e-08)
(-6.89649e-08 -8.99261e-09 -4.84714e-09)
(-4.91234e-08 -7.1646e-09 -7.29208e-09)
(-3.15569e-08 -2.28686e-09 -7.97268e-09)
(-2.12043e-08 -1.17256e-09 -1.06258e-08)
(-9.54311e-09 -1.53606e-09 -9.47641e-09)
(-1.33936e-07 -1.04362e-08 1.70477e-08)
(-1.40067e-07 -4.48103e-09 2.70519e-08)
(-1.21685e-07 5.19436e-09 3.0237e-08)
(-6.89649e-08 -8.99261e-09 -4.84714e-09)
(-8.78847e-08 -3.30225e-09 6.21239e-09)
(-6.89649e-08 -8.99261e-09 -4.84714e-09)
(-4.91234e-08 -7.1646e-09 -7.29208e-09)
(-2.62224e-08 -5.8408e-09 -1.02156e-08)
(-2.46539e-08 -1.46995e-09 -8.5719e-09)
(5.24505e-11 -1.3937e-09 -1.85625e-08)
(-8.73564e-08 -1.38635e-08 1.19341e-08)
(-8.80298e-08 -2.10034e-08 5.60381e-09)
(-7.37207e-08 -9.47431e-09 4.8592e-09)
(-5.43373e-08 -6.8782e-09 -2.66191e-09)
(-4.00881e-08 -7.07837e-09 -6.51773e-09)
(-2.62224e-08 -5.8408e-09 -1.02156e-08)
(-3.64144e-08 -7.24288e-09 -4.46404e-09)
)
;
    }
}


// ************************************************************************* //
