/*--------------------------------*- C++ -*----------------------------------*\
| =========                 |                                                 |
| \\      /  F ield         | OpenFOAM: The Open Source CFD Toolbox           |
|  \\    /   O peration     | Version:  4.x                                   |
|   \\  /    A nd           | Web:      www.OpenFOAM.org                      |
|    \\/     M anipulation  |                                                 |
\*---------------------------------------------------------------------------*/
FoamFile
{
    version     2.0;
    format      ascii;
    class       volScalarField;
    location    "52.5";
    object      thCond;
}
// * * * * * * * * * * * * * * * * * * * * * * * * * * * * * * * * * * * * * //

dimensions      [1 1 -3 -1 0 0 0];

internalField   nonuniform List<scalar> 
108
(
191.728
191.289
190.975
190.951
190.843
190.788
190.576
190.472
190.13
191.312
191.113
190.797
190.523
190.469
190.476
190.456
190.392
190.035
191.241
190.853
190.664
190.365
190.363
190.366
190.273
190.034
190.184
191.294
190.962
190.594
190.472
190.23
190.188
189.935
190.183
190.177
191.687
191.389
190.969
190.677
190.632
190.682
190.622
190.247
189.984
191.447
191.093
190.876
190.619
190.533
190.457
190.328
190.089
189.931
191.365
190.911
190.536
190.313
190.196
190.161
190.125
190.045
190.026
191.006
190.751
190.563
190.138
190.002
190.008
189.804
189.957
190.017
191.69
191.267
191.236
190.8
190.661
190.296
190.287
190.272
190.174
191.434
190.869
190.916
190.746
190.548
190.288
190.286
190.241
190.04
191.243
190.776
190.545
190.35
190.355
190.169
190.183
190.071
190.103
190.921
190.754
190.612
190.196
190.08
189.855
190.201
190.234
190.143
)
;

boundaryField
{
    inlet
    {
        type            zeroGradient;
    }
    outlet
    {
        type            zeroGradient;
    }
    wall
    {
        type            zeroGradient;
    }
    procBoundary4to0
    {
        type            processor;
        value           nonuniform List<scalar> 
36
(
192.074
191.736
191.404
191.301
191.127
190.965
191.086
191.141
190.965
191.751
191.308
191.085
190.979
190.923
190.819
190.612
190.719
190.677
191.702
191.385
190.933
190.801
190.616
190.449
190.508
190.658
190.459
191.546
191.212
190.725
190.493
190.654
190.268
190.344
190.585
190.695
)
;
    }
    procBoundary4to5
    {
        type            processor;
        value           nonuniform List<scalar> 
12
(
190.318
190.112
189.939
189.743
190.207
190.148
189.987
189.995
190.683
190.226
190.083
189.946
)
;
    }
    procBoundary4to6
    {
        type            processor;
        value           nonuniform List<scalar> 
27
(
190.693
190.715
190.717
190.343
190.092
190.231
190.092
190.137
189.977
190.837
190.676
190.486
190.239
190.264
190.118
190.057
190.105
189.935
191.2
191.004
190.676
190.336
190.191
190.076
189.912
189.965
190.297
)
;
    }
}


// ************************************************************************* //
