/*--------------------------------*- C++ -*----------------------------------*\
| =========                 |                                                 |
| \\      /  F ield         | OpenFOAM: The Open Source CFD Toolbox           |
|  \\    /   O peration     | Version:  4.x                                   |
|   \\  /    A nd           | Web:      www.OpenFOAM.org                      |
|    \\/     M anipulation  |                                                 |
\*---------------------------------------------------------------------------*/
FoamFile
{
    version     2.0;
    format      ascii;
    class       volVectorField;
    location    "52.5";
    object      UsNext;
}
// * * * * * * * * * * * * * * * * * * * * * * * * * * * * * * * * * * * * * //

dimensions      [0 1 -1 0 0 0 0];

internalField   nonuniform List<vector> 
108
(
(4.58378e-11 1.90011e-11 1.01124e-10)
(1.00809e-10 3.66234e-11 7.95444e-11)
(1.77155e-10 3.46322e-11 4.17444e-11)
(1.9037e-10 4.23333e-11 1.34993e-11)
(1.94912e-10 1.18281e-10 -3.55366e-11)
(9.79971e-11 9.96808e-11 2.87887e-11)
(4.1375e-11 5.72264e-11 1.72564e-10)
(-1.35269e-10 1.45651e-10 4.46414e-10)
(-3.20778e-10 6.48488e-11 8.08186e-10)
(6.21706e-11 2.64606e-11 9.50062e-11)
(1.69269e-10 3.35827e-11 8.47292e-11)
(2.73865e-10 2.48166e-11 6.66545e-11)
(2.5685e-10 2.17798e-11 9.84042e-12)
(2.91315e-10 4.93078e-11 2.25685e-12)
(2.7846e-10 6.77655e-11 7.10105e-11)
(1.03124e-10 9.969e-11 3.17087e-10)
(-1.04012e-10 3.39494e-10 6.13258e-10)
(-7.16057e-11 3.08952e-10 1.10127e-09)
(7.69612e-11 5.56796e-11 6.90047e-11)
(2.1561e-10 1.0121e-10 8.47823e-11)
(3.51562e-10 8.81884e-11 5.07191e-11)
(4.21893e-10 7.21694e-11 1.19875e-11)
(4.82736e-10 8.25094e-11 1.58582e-11)
(5.43496e-10 1.48864e-10 1.34567e-10)
(4.94266e-10 1.89558e-10 2.93639e-10)
(3.51933e-10 4.56798e-10 6.31297e-10)
(1.05489e-09 1.21236e-10 7.27573e-10)
(7.31054e-11 3.51644e-11 4.1841e-11)
(2.50844e-10 2.77563e-11 4.9722e-11)
(4.58762e-10 -7.2277e-12 -1.54102e-11)
(5.96089e-10 1.15881e-11 -7.57763e-13)
(8.10512e-10 9.67432e-11 8.13496e-11)
(9.60425e-10 1.59286e-10 1.82364e-10)
(1.24733e-09 1.59347e-10 3.20286e-10)
(1.32474e-09 3.63512e-10 3.77382e-10)
(1.35071e-09 4.12921e-10 5.56585e-10)
(3.72075e-11 3.04306e-11 4.073e-11)
(8.88217e-11 3.68942e-11 4.43176e-11)
(1.26796e-10 2.30706e-11 2.60834e-11)
(1.46352e-10 3.29536e-11 1.32497e-12)
(1.79815e-10 5.20531e-11 6.38638e-12)
(1.05197e-10 3.40231e-11 6.33091e-12)
(8.54543e-11 7.58543e-12 7.79591e-11)
(1.57692e-11 5.9223e-11 2.53735e-10)
(1.34786e-10 -1.61256e-11 2.34949e-10)
(5.99994e-11 1.53164e-11 5.92258e-11)
(1.18256e-10 3.67417e-11 4.35434e-11)
(1.78386e-10 1.14228e-11 2.24863e-11)
(2.00825e-10 8.62402e-12 -2.11631e-12)
(2.14603e-10 2.37155e-11 9.87509e-12)
(1.57907e-10 3.59802e-11 6.16181e-11)
(1.30312e-10 2.28713e-11 1.83864e-10)
(9.56033e-11 -3.63925e-11 2.82248e-10)
(2.51235e-10 -5.46402e-11 4.5648e-10)
(4.5574e-11 3.32527e-11 2.79468e-11)
(1.21988e-10 6.68612e-11 4.0172e-11)
(1.92915e-10 7.57661e-11 2.53155e-11)
(1.96723e-10 1.81604e-11 1.76313e-11)
(2.62524e-10 9.42105e-12 -2.41757e-11)
(2.5322e-10 1.20427e-10 1.13729e-10)
(2.16604e-10 1.54002e-10 1.95219e-10)
(5.31454e-10 2.84562e-10 2.51635e-10)
(3.09862e-10 2.8179e-10 4.3738e-10)
(5.62882e-11 2.83003e-11 1.34558e-11)
(1.76038e-10 2.29996e-11 6.18411e-12)
(3.25946e-10 -4.10878e-12 -3.87843e-11)
(3.82138e-10 -6.85396e-12 -3.10317e-11)
(5.26309e-10 -1.09411e-11 -4.01962e-12)
(8.2605e-10 1.04024e-10 5.34503e-11)
(9.3585e-10 2.21745e-10 1.58762e-10)
(1.06118e-09 1.69724e-10 2.23665e-10)
(1.24321e-09 9.6511e-11 4.41141e-10)
(2.31251e-11 2.57172e-11 1.23554e-11)
(4.70365e-11 3.09696e-11 4.03985e-12)
(7.39588e-11 2.80924e-11 2.37527e-12)
(7.79095e-11 1.54102e-11 -4.1537e-12)
(8.20678e-11 2.80188e-11 9.51278e-13)
(5.67838e-11 1.53513e-11 6.99567e-13)
(1.50318e-11 -1.25725e-11 6.67466e-11)
(-4.62343e-12 8.32386e-12 1.33667e-10)
(3.34902e-11 4.07884e-12 6.6126e-11)
(3.42966e-11 -1.83335e-12 5.59509e-12)
(6.32463e-11 1.63072e-11 6.2621e-12)
(1.16566e-10 6.78765e-13 4.68563e-12)
(1.25391e-10 8.26391e-12 -6.52174e-13)
(1.2672e-10 1.67884e-11 1.45728e-12)
(4.39613e-11 -5.309e-11 2.58588e-11)
(1.08765e-11 -1.03287e-10 1.35872e-11)
(3.50718e-11 -2.82606e-11 1.28497e-10)
(9.78022e-12 -6.2117e-11 1.53144e-10)
(3.27406e-11 2.95508e-11 -9.41968e-13)
(6.31714e-11 5.55212e-11 5.31765e-12)
(9.81612e-11 3.22547e-11 2.32729e-12)
(9.93279e-11 2.8147e-11 -1.0353e-11)
(1.26304e-10 1.70928e-11 -6.94186e-12)
(1.28417e-10 -5.07714e-13 3.55232e-11)
(1.74356e-10 8.90675e-11 7.08512e-11)
(1.75099e-10 1.51847e-10 9.6425e-11)
(4.78029e-11 4.47808e-11 1.31444e-10)
(4.39977e-11 5.68113e-13 -9.14889e-12)
(9.59638e-11 6.11604e-12 -1.68376e-11)
(2.0391e-10 3.29613e-11 -2.45637e-11)
(1.95683e-10 -7.64621e-12 -2.00176e-11)
(2.9542e-10 -3.84983e-11 -3.29254e-11)
(2.97029e-10 -2.80565e-11 -3.38039e-11)
(3.10818e-10 4.47806e-11 2.26711e-11)
(1.54919e-09 -5.32844e-10 1.33738e-11)
(6.39059e-10 1.41601e-10 9.14328e-11)
)
;

boundaryField
{
    inlet
    {
        type            calculated;
        value           nonuniform List<vector> 
12
(
(4.58378e-11 1.90011e-11 1.01124e-10)
(6.21706e-11 2.64606e-11 9.50062e-11)
(7.69612e-11 5.56796e-11 6.90047e-11)
(7.31054e-11 3.51644e-11 4.1841e-11)
(3.72075e-11 3.04306e-11 4.073e-11)
(5.99994e-11 1.53164e-11 5.92258e-11)
(4.5574e-11 3.32527e-11 2.79468e-11)
(5.62882e-11 2.83003e-11 1.34558e-11)
(2.31251e-11 2.57172e-11 1.23554e-11)
(3.42966e-11 -1.83335e-12 5.59509e-12)
(3.27406e-11 2.95508e-11 -9.41968e-13)
(4.39977e-11 5.68113e-13 -9.14889e-12)
)
;
    }
    outlet
    {
        type            calculated;
        value           nonuniform 0();
    }
    wall
    {
        type            calculated;
        value           nonuniform List<vector> 
63
(
(2.31251e-11 2.57172e-11 1.23554e-11)
(3.42966e-11 -1.83335e-12 5.59509e-12)
(3.27406e-11 2.95508e-11 -9.41968e-13)
(4.39977e-11 5.68113e-13 -9.14889e-12)
(4.70365e-11 3.09696e-11 4.03985e-12)
(6.32463e-11 1.63072e-11 6.2621e-12)
(6.31714e-11 5.55212e-11 5.31765e-12)
(9.59638e-11 6.11604e-12 -1.68376e-11)
(7.39588e-11 2.80924e-11 2.37527e-12)
(1.16566e-10 6.78765e-13 4.68563e-12)
(9.81612e-11 3.22547e-11 2.32729e-12)
(2.0391e-10 3.29613e-11 -2.45637e-11)
(7.79095e-11 1.54102e-11 -4.1537e-12)
(1.25391e-10 8.26391e-12 -6.52174e-13)
(9.93279e-11 2.8147e-11 -1.0353e-11)
(1.95683e-10 -7.64621e-12 -2.00176e-11)
(8.20678e-11 2.80188e-11 9.51278e-13)
(1.2672e-10 1.67884e-11 1.45728e-12)
(1.26304e-10 1.70928e-11 -6.94186e-12)
(2.9542e-10 -3.84983e-11 -3.29254e-11)
(5.67838e-11 1.53513e-11 6.99567e-13)
(4.39613e-11 -5.309e-11 2.58588e-11)
(1.28417e-10 -5.07714e-13 3.55232e-11)
(2.97029e-10 -2.80565e-11 -3.38039e-11)
(1.50318e-11 -1.25725e-11 6.67466e-11)
(1.08765e-11 -1.03287e-10 1.35872e-11)
(1.74356e-10 8.90675e-11 7.08512e-11)
(3.10818e-10 4.47806e-11 2.26711e-11)
(-4.62343e-12 8.32386e-12 1.33667e-10)
(3.50718e-11 -2.82606e-11 1.28497e-10)
(1.75099e-10 1.51847e-10 9.6425e-11)
(1.54919e-09 -5.32844e-10 1.33738e-11)
(3.34902e-11 4.07884e-12 6.6126e-11)
(9.78022e-12 -6.2117e-11 1.53144e-10)
(4.78029e-11 4.47808e-11 1.31444e-10)
(6.39059e-10 1.41601e-10 9.14328e-11)
(4.58378e-11 1.90011e-11 1.01124e-10)
(3.72075e-11 3.04306e-11 4.073e-11)
(2.31251e-11 2.57172e-11 1.23554e-11)
(1.00809e-10 3.66234e-11 7.95444e-11)
(8.88217e-11 3.68942e-11 4.43176e-11)
(4.70365e-11 3.09696e-11 4.03985e-12)
(1.77155e-10 3.46322e-11 4.17444e-11)
(1.26796e-10 2.30706e-11 2.60834e-11)
(7.39588e-11 2.80924e-11 2.37527e-12)
(1.9037e-10 4.23333e-11 1.34993e-11)
(1.46352e-10 3.29536e-11 1.32497e-12)
(7.79095e-11 1.54102e-11 -4.1537e-12)
(1.94912e-10 1.18281e-10 -3.55366e-11)
(1.79815e-10 5.20531e-11 6.38638e-12)
(8.20678e-11 2.80188e-11 9.51278e-13)
(9.79971e-11 9.96808e-11 2.87887e-11)
(1.05197e-10 3.40231e-11 6.33091e-12)
(5.67838e-11 1.53513e-11 6.99567e-13)
(4.1375e-11 5.72264e-11 1.72564e-10)
(8.54543e-11 7.58543e-12 7.79591e-11)
(1.50318e-11 -1.25725e-11 6.67466e-11)
(-1.35269e-10 1.45651e-10 4.46414e-10)
(1.57692e-11 5.9223e-11 2.53735e-10)
(-4.62343e-12 8.32386e-12 1.33667e-10)
(-3.20778e-10 6.48488e-11 8.08186e-10)
(1.34786e-10 -1.61256e-11 2.34949e-10)
(3.34902e-11 4.07884e-12 6.6126e-11)
)
;
    }
    procBoundary4to0
    {
        type            processor;
        value           nonuniform List<vector> 
36
(
(6.28947e-11 6.16145e-11 2.1518e-10)
(1.98511e-10 5.0805e-11 2.22522e-10)
(3.68988e-10 4.04619e-11 1.76247e-10)
(2.41052e-10 1.81497e-11 -1.10158e-11)
(2.31003e-10 4.78023e-12 -8.98138e-11)
(4.58068e-11 4.1498e-11 4.20404e-11)
(-1.09862e-10 1.13426e-10 2.22262e-10)
(-1.91631e-10 4.78375e-11 9.24281e-10)
(-5.13391e-10 -1.52975e-10 2.6258e-09)
(8.59959e-11 6.51618e-11 2.03142e-10)
(2.47819e-10 8.84019e-11 2.43179e-10)
(4.0009e-10 3.61366e-11 1.56476e-10)
(4.78034e-10 5.23926e-11 2.25828e-11)
(3.95944e-10 7.16941e-11 -6.06181e-11)
(2.08217e-10 9.6004e-11 9.08394e-11)
(1.3302e-11 2.25982e-10 3.45131e-10)
(-3.15558e-10 2.75602e-10 8.34203e-10)
(-8.54449e-10 7.11673e-10 1.68109e-09)
(1.33987e-10 1.50283e-10 1.42397e-10)
(2.69662e-10 1.18174e-10 1.29989e-10)
(4.21035e-10 9.54822e-11 9.15005e-11)
(4.80005e-10 1.07815e-10 1.30208e-11)
(5.672e-10 1.62413e-10 3.2866e-11)
(5.31824e-10 1.742e-10 2.12832e-10)
(4.29554e-10 3.69128e-10 4.13896e-10)
(9.0436e-11 6.78923e-10 1.05023e-09)
(-2.61503e-10 1.14179e-09 1.86103e-09)
(7.50621e-11 7.18224e-11 9.37489e-11)
(2.6128e-10 5.22293e-11 1.24035e-10)
(4.46842e-10 5.3313e-11 8.52383e-11)
(7.20565e-10 7.79655e-11 1.19426e-10)
(8.71528e-10 1.58893e-10 2.29963e-10)
(8.29479e-10 1.49345e-10 2.38725e-10)
(8.05553e-10 4.87598e-10 3.89693e-10)
(6.23453e-10 6.26021e-10 7.2017e-10)
(1.01894e-09 4.31904e-10 8.43749e-10)
)
;
    }
    procBoundary4to5
    {
        type            processor;
        value           nonuniform List<vector> 
12
(
(-7.90421e-11 3.11075e-10 4.02181e-10)
(8.59865e-10 6.20984e-10 7.90245e-10)
(8.46664e-10 6.05991e-10 1.22426e-09)
(1.30266e-09 5.73202e-10 7.51647e-10)
(2.37828e-10 4.83819e-11 1.94833e-10)
(5.13547e-10 1.9835e-11 4.56163e-10)
(7.74907e-10 6.57391e-10 7.30219e-10)
(1.36572e-09 5.09437e-10 2.46046e-10)
(8.75366e-11 2.48521e-11 1.74261e-11)
(2.04747e-10 7.21775e-12 4.62958e-11)
(2.98545e-10 2.76981e-10 2.19825e-11)
(8.97347e-10 2.65928e-10 3.22062e-11)
)
;
    }
    procBoundary4to6
    {
        type            processor;
        value           nonuniform List<vector> 
27
(
(9.34941e-11 -1.73078e-11 2.16534e-11)
(2.07387e-10 -4.91785e-11 3.95232e-11)
(2.80825e-10 -7.6647e-11 2.25626e-12)
(4.01841e-10 -5.99361e-11 2.91021e-11)
(5.98984e-10 -2.54964e-11 1.20551e-10)
(7.27947e-10 4.9688e-11 4.54906e-11)
(8.05967e-10 1.84558e-10 7.55878e-11)
(9.25628e-10 1.83518e-10 1.42406e-10)
(1.25396e-09 3.72458e-10 2.1761e-10)
(4.42049e-11 -2.35159e-11 7.4162e-12)
(1.56103e-10 -5.12778e-11 -3.40354e-13)
(2.62224e-10 -7.32961e-11 -2.86225e-11)
(3.03197e-10 -6.05865e-11 -4.5465e-12)
(4.03843e-10 -4.03455e-11 2.48502e-11)
(5.9671e-10 -3.30577e-11 -1.30723e-12)
(7.34147e-10 1.0897e-10 2.641e-11)
(7.70042e-10 1.06241e-10 7.39439e-11)
(9.64389e-10 3.25018e-10 1.98776e-10)
(4.79312e-11 -2.43284e-11 -1.69018e-12)
(6.43175e-11 -4.37768e-11 -8.46067e-13)
(1.63022e-10 -4.61963e-11 -2.96505e-11)
(1.80259e-10 -4.1336e-11 -2.02201e-11)
(2.60009e-10 -3.73301e-11 -2.93169e-11)
(3.08141e-10 -6.56094e-11 -3.08997e-11)
(4.99556e-10 7.98881e-11 -1.02341e-11)
(3.72812e-10 5.31883e-11 6.06518e-12)
(4.04526e-10 1.71172e-10 3.11614e-11)
)
;
    }
}


// ************************************************************************* //
