/*--------------------------------*- C++ -*----------------------------------*\
| =========                 |                                                 |
| \\      /  F ield         | OpenFOAM: The Open Source CFD Toolbox           |
|  \\    /   O peration     | Version:  4.x                                   |
|   \\  /    A nd           | Web:      www.OpenFOAM.org                      |
|    \\/     M anipulation  |                                                 |
\*---------------------------------------------------------------------------*/
FoamFile
{
    version     2.0;
    format      ascii;
    class       volScalarField;
    location    "43.5";
    object      magGField;
}
// * * * * * * * * * * * * * * * * * * * * * * * * * * * * * * * * * * * * * //

dimensions      [1 -2 -1 0 0 0 0];

internalField   nonuniform List<scalar> 
114
(
91.2203
9.59005
77.9812
3.17852e-05
54.2894
3.66704
0.0440876
88.5305
0.190282
84.942
4.43848
74.5592
24.1919
79.5266
4.39562e-05
78.1164
4.26708e-05
75.2772
3.98154e-05
64.6912
20.1142
45.311
106.505
43.646
110.368
39.6681
115.488
33.3352
126.908
37.303
10.1145
92.3322
4.1948
93.1367
2.49132
92.8887
10.64
89.0941
44.6705
0.317565
87.9575
4.41353e-05
88.3322
2.57661
90.2952
10.0915
86.0482
24.2967
4.00964e-05
84.0416
41.7753
100.991
38.9715
102.607
35.2655
103.931
27.0654
103.296
19.2444
21.4361
94.3941
17.7297
96.54
14.2558
98.5829
13.5846
102.087
26.7394
4.05334
88.7342
4.00799e-05
86.8529
3.81361e-05
82.4923
8.64705
75.3318
41.8524
6.3568
89.0444
3.87899
90.5165
66.3078
117.21
69.1054
125.162
69.4264
140.575
65.3811
175.708
57.1858
52.4335
108.692
53.3641
114.416
51.4534
122.419
44.4118
135.17
30.3596
44.3075
103.176
43.5313
107.324
43.1985
115.214
41.4108
134.922
40.3191
42.3611
102.154
40.5046
104.919
37.1562
110.214
)
;

boundaryField
{
    inlet
    {
        type            calculated;
        value           nonuniform 0();
    }
    outlet
    {
        type            calculated;
        value           nonuniform List<scalar> 
12
(
8.04707
53.191
44.3948
81.9186
98.6325
53.7262
42.3742
58.9567
93.3556
125.439
66.8934
89.4368
)
;
    }
    wall
    {
        type            calculated;
        value           uniform 0;
    }
    procBoundary5to1
    {
        type            processor;
        value           nonuniform List<scalar> 
32
(
117.448
46.7414
122.988
39.7097
130.111
36.5729
27.6162
107.921
27.6194
113.111
29.9835
121.023
41.3832
92.0339
7.40118
92.5252
8.31363
92.0986
15.783
87.601
38.9735
37.7811
98.661
26.0923
26.0923
26.0923
5.38561
89.4956
89.4956
89.4956
3.74719e-05
3.74719e-05
)
;
    }
    procBoundary5to4
    {
        type            processor;
        value           nonuniform List<scalar> 
12
(
102.834
91.615
87.5815
83.9541
100.044
93.0225
88.6855
88.1204
111.332
104.765
100.368
99.7847
)
;
    }
    procBoundary5to7
    {
        type            processor;
        value           nonuniform List<scalar> 
44
(
87.7928
1.2674
87.8989
5.62286e-05
85.0831
3.93953e-05
73.4605
11.8287
1.2708
87.7928
4.30746e-05
84.1474
3.81246e-05
82.8892
3.34005e-05
74.4
19.6087
4.04327e-05
4.30746e-05
82.4415
4.30746e-05
84.1474
6.6648
91.5333
14.2123
86.8373
42.535
0.953264
86.579
4.13517e-05
6.6648
85.8827
6.6648
91.5333
35.2153
124.108
32.8355
36.74
97.8794
33.5417
98.4272
30.9843
35.2153
100.422
)
;
    }
}


// ************************************************************************* //
