/*--------------------------------*- C++ -*----------------------------------*\
| =========                 |                                                 |
| \\      /  F ield         | OpenFOAM: The Open Source CFD Toolbox           |
|  \\    /   O peration     | Version:  4.x                                   |
|   \\  /    A nd           | Web:      www.OpenFOAM.org                      |
|    \\/     M anipulation  |                                                 |
\*---------------------------------------------------------------------------*/
FoamFile
{
    version     2.0;
    format      ascii;
    class       volScalarField;
    location    "22";
    object      QPartFluidCoeff;
}
// * * * * * * * * * * * * * * * * * * * * * * * * * * * * * * * * * * * * * //

dimensions      [1 -1 -3 -1 0 0 0];

internalField   nonuniform List<scalar> 
114
(
-2.73239e+07
-2.64076e+07
-2.56762e+07
-2.14723e+07
-2.96282e+07
-2.09351e+07
-2.52076e+07
-2.38876e+07
-2.09346e+07
-2.81683e+07
-2.98933e+07
-3.44962e+07
-2.26449e+07
-3.32084e+07
-2.04825e+07
-2.90736e+07
-1.95119e+07
-1.76457e+07
-2.45924e+07
-2.05933e+07
-2.19156e+07
-2.20226e+07
-1.87167e+07
-2.49588e+07
-2.07881e+07
-2.18369e+07
-2.67469e+07
-2.39291e+07
-2.11545e+07
-1.69043e+07
-2.68194e+07
-2.725e+07
-3.05397e+07
-2.94195e+07
-2.94411e+07
-3.30453e+07
-1.70322e+07
-3.36683e+07
-1.93922e+07
-2.81965e+07
-1.80848e+07
-2.42539e+07
-2.99334e+07
-2.04283e+07
-2.73431e+07
-2.36914e+07
-2.61413e+07
-1.35434e+07
-3.39789e+07
-1.66878e+07
-2.4684e+07
-3.19022e+07
-2.52844e+07
-2.89987e+07
-2.63535e+07
-2.82007e+07
-2.43743e+07
-3.23093e+07
-2.17148e+07
-2.0532e+07
-3.59414e+07
-2.34303e+07
-3.02462e+07
-2.80729e+07
-3.05604e+07
-3.71184e+07
-2.91958e+07
-1.84502e+07
-2.50869e+07
-2.57326e+07
-2.6166e+07
-2.4438e+07
-3.80958e+07
-3.07832e+07
-3.01411e+07
-3.56001e+07
-2.58773e+07
-1.73327e+07
-3.80609e+07
-3.09173e+07
-3.20486e+07
-8.30189e+06
-2.27681e+07
-1.51363e+07
-2.56867e+07
-2.04007e+07
-1.96175e+07
-2.47042e+07
-2.80095e+07
-1.95912e+07
-2.32389e+07
-2.70685e+07
-1.68634e+07
-2.29123e+07
-2.75881e+07
-2.5423e+07
-1.88739e+07
-2.95753e+07
-2.11841e+07
-2.02283e+07
-2.40779e+07
-2.88546e+07
-2.58653e+07
-2.06367e+07
-3.08146e+07
-2.28222e+07
-2.55252e+07
-2.11628e+07
-2.34206e+07
-2.09731e+07
-2.37166e+07
-2.15406e+07
-3.35245e+07
-2.69605e+07
)
;

boundaryField
{
    inlet
    {
        type            calculated;
        value           nonuniform 0();
    }
    outlet
    {
        type            calculated;
        value           uniform 0;
    }
    wall
    {
        type            calculated;
        value           uniform 0;
    }
    procBoundary5to1
    {
        type            processor;
        value           nonuniform List<scalar> 
32
(
717.913
462.165
733.748
576.751
567.219
255.609
476.987
595.871
607.204
674.874
576.207
691.978
300.954
579.383
403.36
815.094
644.402
775.596
539.099
695.709
243.413
505.199
428.478
615.302
615.302
615.302
607.44
928.562
928.562
928.562
447.933
447.933
)
;
    }
    procBoundary5to4
    {
        type            processor;
        value           nonuniform List<scalar> 
12
(
720.37
834.357
503.461
529.273
722.046
785.305
646.018
604.535
615.024
643.676
528.068
525.484
)
;
    }
    procBoundary5to7
    {
        type            processor;
        value           nonuniform List<scalar> 
44
(
679.852
478.707
589.738
823.51
924.173
598.658
495.757
455.608
755.197
679.852
489.429
645.323
520.311
613.214
665.923
757.153
448.013
289.873
489.429
751.501
489.429
645.323
359.273
522.879
587.178
534.947
320.052
651.776
683.494
534.56
359.273
487.519
359.273
522.879
427.882
548.358
365.743
544.205
519.18
558.463
637.043
384.191
427.882
358.167
)
;
    }
}


// ************************************************************************* //
