/*--------------------------------*- C++ -*----------------------------------*\
| =========                 |                                                 |
| \\      /  F ield         | OpenFOAM: The Open Source CFD Toolbox           |
|  \\    /   O peration     | Version:  4.x                                   |
|   \\  /    A nd           | Web:      www.OpenFOAM.org                      |
|    \\/     M anipulation  |                                                 |
\*---------------------------------------------------------------------------*/
FoamFile
{
    version     2.0;
    format      ascii;
    class       volScalarField;
    location    "22";
    object      rho;
}
// * * * * * * * * * * * * * * * * * * * * * * * * * * * * * * * * * * * * * //

dimensions      [1 -3 0 0 0 0 0];

internalField   nonuniform List<scalar> 
114
(
6699.71
6699.57
6699.39
6699.13
6698.76
6689.06
6699.48
6699.19
6699.05
6698.74
6698.81
6698.58
6699.89
6699.41
6699.22
6699.02
6698.95
6698.97
6699.22
6699.45
6701.86
6699.91
6699.86
6699.79
6699.69
6699.56
6699.37
6699.14
6698.74
6696.03
6699.69
6699.56
6699.46
6699.41
6699.48
6699.55
6699.87
6699.71
6700.3
6699.62
6699.46
6699.34
6699.29
6699.41
6699.64
6700.09
6700.38
6707.33
6699.56
6699.37
6699.95
6699.92
6699.88
6699.82
6699.74
6699.65
6699.52
6699.43
6696.1
6699.83
6699.73
6699.62
6699.53
6699.48
6699.48
6699.56
6699.6
6700.57
6699.78
6699.67
6699.54
6699.44
6699.39
6699.42
6699.58
6699.68
6701.19
6699.7
6699.54
6699.39
6699.3
6699.96
6699.94
6699.91
6699.87
6699.82
6699.76
6699.66
6699.59
6747.55
6699.95
6699.91
6699.86
6699.8
6699.72
6699.63
6699.51
6699.42
6698.55
6699.92
6699.88
6699.81
6699.73
6699.62
6699.51
6699.39
6699.28
6698.59
6699.89
6699.82
6699.73
6699.63
6699.51
6699.4
)
;

boundaryField
{
    inlet
    {
        type            calculated;
        value           nonuniform 0();
    }
    outlet
    {
        type            calculated;
        value           uniform 6700;
    }
    wall
    {
        type            calculated;
        value           nonuniform List<scalar> 
66
(
6699.96
6699.95
6699.92
6699.89
6699.94
6699.91
6699.88
6699.82
6699.91
6699.86
6699.81
6699.73
6699.87
6699.8
6699.73
6699.63
6699.82
6699.72
6699.62
6699.51
6699.76
6699.63
6699.51
6699.4
6699.66
6699.51
6699.39
6699.59
6699.42
6699.28
6747.55
6698.55
6698.59
6699.91
6699.95
6699.96
6699.86
6699.92
6699.94
6699.79
6699.88
6699.91
6699.71
6699.69
6699.82
6699.87
6699.57
6699.56
6699.74
6699.82
6699.39
6699.37
6699.65
6699.76
6699.13
6699.14
6699.52
6699.66
6698.76
6698.74
6699.43
6699.59
6689.06
6696.03
6696.1
6747.55
)
;
    }
    procBoundary5to1
    {
        type            processor;
        value           nonuniform List<scalar> 
32
(
6699.39
6699.12
6698.85
6698.42
6698.1
6687.23
6697.73
6697.05
6696.6
6696.58
6696.92
6697.18
6698.08
6698.93
6698.71
6698.46
6698.43
6698.49
6699.02
6699.14
6701.08
6699.91
6699.86
6699.79
6699.79
6699.79
6699.72
6699.6
6699.6
6699.6
6699.61
6699.61
)
;
    }
    procBoundary5to4
    {
        type            processor;
        value           nonuniform List<scalar> 
12
(
6699.95
6699.82
6699.77
6699.74
6699.97
6699.91
6699.88
6699.83
6699.97
6699.97
6699.95
6699.94
)
;
    }
    procBoundary5to7
    {
        type            processor;
        value           nonuniform List<scalar> 
44
(
6699.24
6698.97
6698.69
6698.63
6698.67
6699.02
6699.4
6704.66
6699.52
6699.24
6699.24
6699.18
6699.33
6699.56
6700
6700.35
6710.83
6699.41
6699.24
6699.25
6699.24
6699.18
6699.35
6699.57
6699.95
6700.3
6702.33
6699.75
6699.62
6699.48
6699.35
6699.39
6699.35
6699.57
6699.29
6699.17
6698.03
6699.91
6699.84
6699.75
6699.64
6699.5
6699.29
6699.33
)
;
    }
}


// ************************************************************************* //
