/*--------------------------------*- C++ -*----------------------------------*\
| =========                 |                                                 |
| \\      /  F ield         | OpenFOAM: The Open Source CFD Toolbox           |
|  \\    /   O peration     | Version:  4.x                                   |
|   \\  /    A nd           | Web:      www.OpenFOAM.org                      |
|    \\/     M anipulation  |                                                 |
\*---------------------------------------------------------------------------*/
FoamFile
{
    version     2.0;
    format      ascii;
    class       volScalarField;
    location    "22";
    object      Sm;
}
// * * * * * * * * * * * * * * * * * * * * * * * * * * * * * * * * * * * * * //

dimensions      [1 -3 -1 0 0 0 0];

internalField   nonuniform List<scalar> 
114
(
6.8199e-65
8.05986e-65
6.3549e-65
6.74238e-65
7.59488e-65
8.44734e-65
6.81984e-65
5.65737e-65
5.81236e-65
6.66484e-65
8.21479e-65
8.5248e-65
7.9048e-65
8.44728e-65
6.04483e-65
7.51728e-65
5.73483e-65
4.57237e-65
7.28479e-65
5.42484e-65
8.67973e-65
6.35492e-65
4.80495e-65
6.97489e-65
5.42492e-65
6.43239e-65
6.8199e-65
7.12988e-65
5.65742e-65
5.9674e-65
7.05237e-65
6.81987e-65
8.52481e-65
7.12984e-65
8.36981e-65
8.13731e-65
5.26988e-65
8.6023e-65
6.89734e-65
8.21481e-65
4.57238e-65
7.28481e-65
7.59479e-65
6.19983e-65
7.05231e-65
7.1298e-65
6.89731e-65
5.57985e-65
9.99725e-65
4.33987e-65
6.66494e-65
8.21492e-65
6.74242e-65
7.36242e-65
6.97492e-65
6.89743e-65
6.66493e-65
7.28494e-65
6.58742e-65
5.42492e-65
8.36987e-65
6.04489e-65
7.12988e-65
7.12987e-65
7.05236e-65
9.14485e-65
6.43239e-65
5.50241e-65
6.89736e-65
6.35487e-65
6.89735e-65
6.04487e-65
1.00748e-64
7.36233e-65
8.21481e-65
8.91229e-65
8.67979e-65
4.8049e-65
9.37729e-65
8.98979e-65
7.98231e-65
2.635e-65
6.89748e-65
4.57249e-65
7.12997e-65
6.04497e-65
4.95998e-65
6.97497e-65
6.27748e-65
6.04497e-65
6.35494e-65
6.58744e-65
4.33995e-65
5.65745e-65
7.43992e-65
6.50992e-65
4.57245e-65
7.05242e-65
6.04493e-65
6.12241e-65
6.43241e-65
8.52486e-65
6.97489e-65
5.8899e-65
8.05986e-65
6.50988e-65
6.74239e-65
6.81988e-65
7.36239e-65
5.65741e-65
7.12987e-65
5.5799e-65
9.6873e-65
7.74985e-65
)
;

boundaryField
{
    inlet
    {
        type            calculated;
        value           nonuniform 0();
    }
    outlet
    {
        type            calculated;
        value           uniform 0;
    }
    wall
    {
        type            calculated;
        value           uniform 0;
    }
    procBoundary5to1
    {
        type            processor;
        value           nonuniform List<scalar> 
32
(
7.98239e-65
5.73491e-65
8.44736e-65
7.05239e-65
5.73492e-65
4.18492e-65
5.65739e-65
6.12238e-65
6.97485e-65
6.97485e-65
6.58735e-65
7.20734e-65
4.41739e-65
6.35485e-65
5.11487e-65
9.06726e-65
8.29228e-65
8.75726e-65
6.81981e-65
7.90478e-65
3.4874e-65
6.58741e-65
5.26993e-65
8.05988e-65
8.05988e-65
8.05988e-65
7.05237e-65
9.99729e-65
9.99729e-65
9.99729e-65
5.73486e-65
5.73486e-65
)
;
    }
    procBoundary5to4
    {
        type            processor;
        value           nonuniform List<scalar> 
12
(
8.91241e-65
9.06735e-65
5.65739e-65
5.96737e-65
8.21495e-65
8.1374e-65
6.81989e-65
6.81988e-65
7.20749e-65
7.59494e-65
6.27744e-65
6.35492e-65
)
;
    }
    procBoundary5to7
    {
        type            processor;
        value           nonuniform List<scalar> 
44
(
7.82728e-65
6.4323e-65
6.74229e-65
1.03072e-64
1.03847e-64
7.98225e-65
5.65732e-65
8.36973e-65
9.91974e-65
7.82728e-65
6.43231e-65
7.36228e-65
6.7423e-65
6.89729e-65
8.60224e-65
8.44725e-65
7.36228e-65
3.9524e-65
6.43231e-65
8.52478e-65
6.43231e-65
7.36228e-65
5.03735e-65
5.81234e-65
7.36231e-65
6.04484e-65
5.81234e-65
8.05985e-65
7.36234e-65
6.81984e-65
5.03735e-65
5.19237e-65
5.03735e-65
5.81234e-65
5.50239e-65
6.43238e-65
6.12239e-65
6.8974e-65
5.81242e-65
7.67236e-65
7.43987e-65
5.1924e-65
5.50239e-65
3.87494e-65
)
;
    }
}


// ************************************************************************* //
