/*--------------------------------*- C++ -*----------------------------------*\
| =========                 |                                                 |
| \\      /  F ield         | OpenFOAM: The Open Source CFD Toolbox           |
|  \\    /   O peration     | Version:  4.x                                   |
|   \\  /    A nd           | Web:      www.OpenFOAM.org                      |
|    \\/     M anipulation  |                                                 |
\*---------------------------------------------------------------------------*/
FoamFile
{
    version     2.0;
    format      ascii;
    class       volVectorField;
    location    "22";
    object      UsNext;
}
// * * * * * * * * * * * * * * * * * * * * * * * * * * * * * * * * * * * * * //

dimensions      [0 1 -1 0 0 0 0];

internalField   nonuniform List<vector> 
114
(
(-3.86598e-09 2.23137e-09 8.46365e-10)
(-5.85894e-09 1.50733e-09 1.30692e-09)
(-9.15748e-09 3.04748e-09 5.32511e-10)
(-7.73444e-09 2.03001e-09 -1.78553e-09)
(-8.40526e-09 2.18837e-09 -1.88825e-09)
(-1.13196e-07 2.83668e-08 -4.19706e-10)
(-4.94441e-09 4.4786e-09 1.02147e-09)
(-4.964e-09 4.42827e-09 1.60812e-10)
(-7.14499e-09 4.20327e-09 1.40197e-09)
(-1.01823e-08 3.35794e-09 -1.34847e-09)
(-9.95399e-09 3.05754e-09 -3.71471e-09)
(-9.29902e-09 2.72378e-09 -2.99311e-09)
(-1.14631e-08 1.82605e-08 -5.57244e-09)
(-7.32324e-09 4.74376e-09 -6.34456e-10)
(-5.47546e-09 4.69172e-09 -2.52329e-10)
(-4.77591e-09 5.32703e-09 -8.90845e-10)
(-5.69443e-09 4.79457e-09 -8.71021e-11)
(-6.78361e-09 2.62709e-09 -3.87001e-11)
(-5.85892e-09 3.82788e-10 6.3809e-10)
(-4.70573e-09 5.56887e-10 -2.26787e-09)
(-1.7943e-09 6.14499e-09 -4.17295e-09)
(-9.16023e-10 9.46047e-10 1.01074e-09)
(-1.51626e-09 9.94163e-10 1.04241e-09)
(-1.31387e-09 1.44526e-09 1.01641e-09)
(-6.87667e-10 3.99413e-10 9.14004e-10)
(-9.39493e-10 9.11909e-12 8.75276e-11)
(-1.53933e-09 -1.0127e-10 -1.0577e-10)
(-2.83359e-09 -3.61518e-10 -1.3669e-09)
(-2.85012e-09 3.43668e-12 -1.86782e-09)
(-2.62179e-09 3.38944e-09 -5.9536e-09)
(-2.82224e-09 1.22733e-09 3.40607e-10)
(-4.00547e-09 4.1537e-10 1.07077e-09)
(-2.54831e-09 3.05612e-09 6.52038e-10)
(-2.71887e-09 1.20533e-09 7.46309e-10)
(-3.71032e-09 8.49926e-10 2.9727e-10)
(-5.30397e-09 8.62552e-10 2.57718e-12)
(-4.89272e-09 4.73932e-12 -1.83764e-09)
(-5.1488e-09 6.60527e-10 -1.93877e-09)
(-3.60335e-09 2.74094e-09 -5.90802e-09)
(-5.10465e-09 2.79774e-09 4.4481e-10)
(-5.26519e-09 3.37308e-09 -1.18833e-10)
(-4.42328e-09 3.54537e-09 7.24472e-10)
(-4.42491e-09 2.83848e-09 8.08767e-11)
(-4.84429e-09 1.62076e-09 7.54492e-10)
(-5.24169e-09 1.03108e-09 3.91924e-10)
(-5.05736e-09 9.85636e-11 -2.09141e-10)
(-4.36644e-09 -1.79471e-10 -1.10904e-09)
(-2.87254e-09 1.74309e-09 -2.09926e-09)
(-5.45512e-09 2.89643e-09 -1.21399e-10)
(-5.17295e-09 3.30908e-09 -8.17248e-10)
(-4.3734e-10 4.82324e-10 5.17616e-10)
(-3.96646e-10 3.27817e-10 3.02917e-10)
(1.69507e-10 4.97662e-10 3.21112e-10)
(1.20974e-09 2.3228e-10 -5.23437e-10)
(3.53949e-10 -3.33359e-10 2.01688e-10)
(-6.27762e-10 -5.4894e-10 -5.76908e-10)
(-2.15527e-09 -8.04736e-10 -1.03245e-09)
(-5.04893e-09 5.27887e-10 -2.63969e-09)
(6.35818e-09 3.21743e-09 -1.22367e-08)
(-7.30617e-10 1.13068e-09 2.75078e-10)
(-9.03072e-10 9.86857e-10 5.9872e-10)
(3.28722e-10 9.40528e-10 4.97928e-10)
(5.86297e-09 2.06294e-09 -1.15435e-10)
(-1.61915e-09 -2.63361e-10 5.24117e-10)
(-2.56468e-09 -5.12571e-10 3.52843e-11)
(-3.23779e-09 1.76038e-10 -1.07909e-09)
(-3.686e-09 1.97192e-09 -2.40516e-09)
(1.11305e-11 6.38438e-09 -4.01169e-09)
(-2.56121e-09 2.37741e-09 2.56966e-10)
(-3.01745e-09 2.24898e-09 3.44244e-10)
(-1.94982e-09 2.01462e-09 6.21119e-10)
(-2.42973e-09 1.51677e-09 -1.0816e-10)
(-3.26558e-09 5.98428e-10 1.12036e-09)
(-3.56845e-09 9.32979e-12 6.73052e-10)
(-3.4425e-09 -3.93297e-10 7.74587e-10)
(-3.73044e-09 1.594e-10 -7.13727e-10)
(-2.5817e-09 1.6821e-09 -1.76338e-09)
(-1.66549e-09 1.91252e-09 -3.62348e-10)
(-3.09605e-09 2.60562e-09 -8.46442e-10)
(-3.06587e-09 2.48012e-09 -9.09579e-10)
(-2.60507e-09 2.23944e-09 -6.77153e-10)
(-8.25938e-11 1.85478e-11 2.69665e-10)
(-4.22137e-11 5.39766e-11 1.2549e-10)
(1.40866e-09 -1.58889e-11 -6.4222e-12)
(1.82902e-09 -1.51041e-11 -3.31223e-10)
(1.44209e-09 -4.46374e-10 3.74124e-10)
(-8.09325e-10 -5.36432e-10 2.60061e-10)
(-3.28467e-09 -1.17387e-10 2.32249e-10)
(-3.99324e-09 4.33865e-09 -4.8932e-09)
(2.66064e-09 1.34648e-08 -1.25673e-08)
(-2.22024e-10 2.94547e-10 2.80981e-10)
(-3.71723e-10 2.33944e-10 2.32502e-10)
(4.15612e-09 -8.78916e-10 -6.36682e-10)
(1.35288e-08 3.47222e-09 -1.89009e-10)
(2.1307e-09 5.58652e-10 4.24908e-10)
(-9.79369e-10 -5.00416e-10 3.22232e-10)
(-2.34091e-09 -1.21184e-10 -2.72613e-10)
(-3.15336e-09 6.64804e-09 -1.08497e-09)
(1.45655e-09 1.75e-08 -8.97821e-10)
(-2.84165e-10 7.99811e-10 -5.71536e-11)
(-9.29043e-10 5.94019e-10 -2.49585e-10)
(-1.20289e-09 7.42658e-10 -1.34992e-10)
(2.38854e-09 4.45562e-10 -4.43257e-11)
(-5.4082e-10 5.42419e-10 7.68043e-10)
(-2.56307e-09 -4.78787e-10 5.48639e-10)
(-2.54382e-09 -2.12971e-10 4.56457e-10)
(-2.74311e-09 5.89411e-10 3.1409e-11)
(-1.55582e-09 1.64569e-09 -3.87175e-10)
(-6.18237e-10 8.54034e-10 -2.64353e-10)
(-1.0047e-09 1.24574e-09 -4.16825e-10)
(5.42166e-09 3.12505e-08 -4.12183e-10)
(-1.25803e-09 1.10554e-09 -1.79166e-10)
(-2.04861e-09 9.52031e-10 5.71877e-10)
(-2.89283e-09 -2.26006e-10 6.73137e-10)
)
;

boundaryField
{
    inlet
    {
        type            calculated;
        value           nonuniform 0();
    }
    outlet
    {
        type            calculated;
        value           nonuniform List<vector> 
12
(
(-1.13196e-07 2.83668e-08 -4.19706e-10)
(-1.14631e-08 1.82605e-08 -5.57244e-09)
(-1.7943e-09 6.14499e-09 -4.17295e-09)
(-2.62179e-09 3.38944e-09 -5.9536e-09)
(-3.60335e-09 2.74094e-09 -5.90802e-09)
(-2.87254e-09 1.74309e-09 -2.09926e-09)
(6.35818e-09 3.21743e-09 -1.22367e-08)
(1.11305e-11 6.38438e-09 -4.01169e-09)
(-2.5817e-09 1.6821e-09 -1.76338e-09)
(2.66064e-09 1.34648e-08 -1.25673e-08)
(1.45655e-09 1.75e-08 -8.97821e-10)
(-1.55582e-09 1.64569e-09 -3.87175e-10)
)
;
    }
    wall
    {
        type            calculated;
        value           nonuniform List<vector> 
66
(
(-8.25938e-11 1.85478e-11 2.69665e-10)
(-2.22024e-10 2.94547e-10 2.80981e-10)
(-2.84165e-10 7.99811e-10 -5.71536e-11)
(-6.18237e-10 8.54034e-10 -2.64353e-10)
(-4.22137e-11 5.39766e-11 1.2549e-10)
(-3.71723e-10 2.33944e-10 2.32502e-10)
(-9.29043e-10 5.94019e-10 -2.49585e-10)
(-1.0047e-09 1.24574e-09 -4.16825e-10)
(1.40866e-09 -1.58889e-11 -6.4222e-12)
(4.15612e-09 -8.78916e-10 -6.36682e-10)
(-1.20289e-09 7.42658e-10 -1.34992e-10)
(5.42166e-09 3.12505e-08 -4.12183e-10)
(1.82902e-09 -1.51041e-11 -3.31223e-10)
(1.35288e-08 3.47222e-09 -1.89009e-10)
(2.38854e-09 4.45562e-10 -4.43257e-11)
(-1.25803e-09 1.10554e-09 -1.79166e-10)
(1.44209e-09 -4.46374e-10 3.74124e-10)
(2.1307e-09 5.58652e-10 4.24908e-10)
(-5.4082e-10 5.42419e-10 7.68043e-10)
(-2.04861e-09 9.52031e-10 5.71877e-10)
(-8.09325e-10 -5.36432e-10 2.60061e-10)
(-9.79369e-10 -5.00416e-10 3.22232e-10)
(-2.56307e-09 -4.78787e-10 5.48639e-10)
(-2.89283e-09 -2.26006e-10 6.73137e-10)
(-3.28467e-09 -1.17387e-10 2.32249e-10)
(-2.34091e-09 -1.21184e-10 -2.72613e-10)
(-2.54382e-09 -2.12971e-10 4.56457e-10)
(-3.99324e-09 4.33865e-09 -4.8932e-09)
(-3.15336e-09 6.64804e-09 -1.08497e-09)
(-2.74311e-09 5.89411e-10 3.1409e-11)
(2.66064e-09 1.34648e-08 -1.25673e-08)
(1.45655e-09 1.75e-08 -8.97821e-10)
(-1.55582e-09 1.64569e-09 -3.87175e-10)
(-9.16023e-10 9.46047e-10 1.01074e-09)
(-4.3734e-10 4.82324e-10 5.17616e-10)
(-8.25938e-11 1.85478e-11 2.69665e-10)
(-1.51626e-09 9.94163e-10 1.04241e-09)
(-3.96646e-10 3.27817e-10 3.02917e-10)
(-4.22137e-11 5.39766e-11 1.2549e-10)
(-1.31387e-09 1.44526e-09 1.01641e-09)
(1.69507e-10 4.97662e-10 3.21112e-10)
(1.40866e-09 -1.58889e-11 -6.4222e-12)
(-3.86598e-09 2.23137e-09 8.46365e-10)
(-6.87667e-10 3.99413e-10 9.14004e-10)
(1.20974e-09 2.3228e-10 -5.23437e-10)
(1.82902e-09 -1.51041e-11 -3.31223e-10)
(-5.85894e-09 1.50733e-09 1.30692e-09)
(-9.39493e-10 9.11909e-12 8.75276e-11)
(3.53949e-10 -3.33359e-10 2.01688e-10)
(1.44209e-09 -4.46374e-10 3.74124e-10)
(-9.15748e-09 3.04748e-09 5.32511e-10)
(-1.53933e-09 -1.0127e-10 -1.0577e-10)
(-6.27762e-10 -5.4894e-10 -5.76908e-10)
(-8.09325e-10 -5.36432e-10 2.60061e-10)
(-7.73444e-09 2.03001e-09 -1.78553e-09)
(-2.83359e-09 -3.61518e-10 -1.3669e-09)
(-2.15527e-09 -8.04736e-10 -1.03245e-09)
(-3.28467e-09 -1.17387e-10 2.32249e-10)
(-8.40526e-09 2.18837e-09 -1.88825e-09)
(-2.85012e-09 3.43668e-12 -1.86782e-09)
(-5.04893e-09 5.27887e-10 -2.63969e-09)
(-3.99324e-09 4.33865e-09 -4.8932e-09)
(-1.13196e-07 2.83668e-08 -4.19706e-10)
(-2.62179e-09 3.38944e-09 -5.9536e-09)
(6.35818e-09 3.21743e-09 -1.22367e-08)
(2.66064e-09 1.34648e-08 -1.25673e-08)
)
;
    }
    procBoundary5to1
    {
        type            processor;
        value           nonuniform List<vector> 
32
(
(-6.70704e-10 1.8134e-09 -8.43312e-10)
(-3.62012e-09 1.84091e-09 -9.15979e-10)
(-6.12976e-09 1.82792e-09 -3.36838e-09)
(-4.70117e-09 3.27658e-09 -4.18211e-09)
(-9.80315e-09 3.51392e-09 -6.56963e-09)
(-3.86128e-09 3.14598e-09 -1.82444e-08)
(-1.63555e-09 4.86452e-09 1.18216e-09)
(-1.32775e-09 3.99288e-09 -1.73269e-09)
(-3.21679e-09 3.39956e-09 -1.33627e-09)
(-3.17476e-09 5.0877e-09 -7.36432e-09)
(1.99274e-09 3.04731e-09 -7.63346e-09)
(3.12259e-09 -3.06721e-10 -8.79525e-09)
(-8.45093e-09 7.69413e-09 -1.14118e-08)
(-3.18087e-09 6.44118e-09 -6.59795e-10)
(-1.25249e-09 6.97694e-09 -1.81444e-09)
(-1.40593e-09 5.6906e-09 -2.20574e-09)
(1.28742e-09 5.40643e-09 -1.0232e-09)
(6.40791e-09 -4.38694e-10 1.38198e-09)
(1.18507e-08 -1.90383e-09 -6.10171e-09)
(3.39951e-09 -2.19139e-09 -8.64333e-10)
(-4.91851e-09 4.11165e-09 -1.08672e-08)
(-2.0293e-09 1.77931e-09 4.05563e-10)
(-3.65102e-09 9.47984e-10 1.41829e-09)
(-2.5505e-09 1.80512e-09 1.2633e-09)
(-2.5505e-09 1.80512e-09 1.2633e-09)
(-2.5505e-09 1.80512e-09 1.2633e-09)
(-5.00082e-09 3.09477e-09 -1.14536e-10)
(-5.26037e-09 4.53905e-09 1.57511e-10)
(-5.26037e-09 4.53905e-09 1.57511e-10)
(-5.26037e-09 4.53905e-09 1.57511e-10)
(-8.52596e-09 3.7611e-09 2.21069e-10)
(-8.52596e-09 3.7611e-09 2.21069e-10)
)
;
    }
    procBoundary5to4
    {
        type            processor;
        value           nonuniform List<vector> 
12
(
(-1.74297e-09 8.57169e-10 1.04782e-09)
(-4.05609e-09 1.88118e-09 1.9459e-09)
(-5.2417e-09 1.7916e-09 1.14748e-09)
(-6.26347e-09 1.88849e-09 3.09228e-10)
(-5.36766e-10 2.7892e-10 4.95066e-10)
(-8.38738e-10 8.21349e-10 5.84037e-10)
(-2.46212e-09 9.64855e-10 5.92341e-10)
(-2.6007e-09 1.82399e-09 -7.27719e-10)
(-2.94294e-10 5.13092e-11 2.03617e-10)
(-9.18172e-11 3.89216e-11 3.08381e-10)
(-3.62564e-10 2.34213e-10 1.8365e-10)
(-5.42005e-11 8.71564e-10 -6.52572e-11)
)
;
    }
    procBoundary5to7
    {
        type            processor;
        value           nonuniform List<vector> 
44
(
(-5.70531e-09 3.70455e-09 -2.26468e-09)
(-4.58067e-09 4.70437e-09 -1.84548e-09)
(-3.2039e-09 4.67925e-09 -1.3331e-09)
(-4.0144e-09 3.5621e-09 2.93376e-10)
(-2.64196e-09 3.50618e-09 -2.43259e-10)
(-2.70596e-09 -6.14654e-10 1.73219e-09)
(-1.89378e-09 -3.19736e-11 1.05984e-09)
(-1.96893e-09 5.68729e-10 -3.23975e-09)
(-6.29793e-09 4.29656e-09 -1.24204e-09)
(-5.70531e-09 3.70455e-09 -2.26468e-09)
(-4.83253e-09 3.68515e-09 -5.06197e-10)
(-4.34079e-09 2.71127e-09 -4.36829e-10)
(-5.56728e-09 6.42514e-10 6.41545e-10)
(-4.72497e-09 1.22014e-09 1.22169e-09)
(-4.15313e-09 4.64933e-10 1.0442e-09)
(-2.8319e-09 -9.55804e-11 7.04354e-10)
(-3.60358e-09 2.15944e-10 -2.67189e-09)
(-3.23967e-09 2.01048e-09 -1.06564e-09)
(-4.83253e-09 3.68515e-09 -5.06197e-10)
(-3.93979e-09 3.02583e-09 -1.39437e-09)
(-4.83253e-09 3.68515e-09 -5.06197e-10)
(-4.34079e-09 2.71127e-09 -4.36829e-10)
(-3.74309e-09 1.17091e-09 6.00602e-10)
(-3.28138e-09 7.05737e-10 1.12716e-09)
(-3.45336e-09 2.72911e-10 1.00452e-09)
(-3.05596e-09 -4.16088e-10 2.56507e-10)
(-1.18005e-09 -2.69192e-10 -8.87011e-10)
(-1.5455e-09 1.76748e-09 -4.84335e-10)
(-2.34486e-09 2.12826e-09 -7.15031e-10)
(-1.50927e-09 2.00246e-09 -5.11732e-10)
(-3.74309e-09 1.17091e-09 6.00602e-10)
(-1.46997e-09 2.2073e-09 -1.40377e-10)
(-3.74309e-09 1.17091e-09 6.00602e-10)
(-3.28138e-09 7.05737e-10 1.12716e-09)
(-3.57882e-09 -2.98864e-10 9.03451e-10)
(-4.51673e-09 7.64488e-10 2.47472e-10)
(-1.01149e-09 -2.05925e-10 -8.50058e-10)
(3.24463e-10 1.53845e-09 -1.5344e-10)
(-3.39236e-10 1.46832e-09 -2.25325e-10)
(-3.80124e-10 1.07662e-09 -3.256e-10)
(-4.25276e-10 1.06406e-09 1.52463e-10)
(-7.78024e-10 1.08846e-09 7.80751e-10)
(-3.57882e-09 -2.98864e-10 9.03451e-10)
(-1.39687e-09 1.81183e-09 1.26712e-09)
)
;
    }
}


// ************************************************************************* //
