/*--------------------------------*- C++ -*----------------------------------*\
  =========                 |
  \\      /  F ield         | OpenFOAM: The Open Source CFD Toolbox
   \\    /   O peration     | Website:  https://openfoam.org
    \\  /    A nd           | Version:  4.x
     \\/     M anipulation  |
\*---------------------------------------------------------------------------*/
FoamFile
{
    version     2.0;
    format      ascii;
    class       Cloud<passiveParticle>;
    location    0;
    object      positions;
}
// * * * * * * * * * * * * * * * * * * * * * * * * * * * * * * * * * * * * * //

258
(
( 0.0238468 0.0373486 0.0154081 ) 6
( 0.248282 0.051612 -0.00685045 ) 2
( 0.0274315 0.0279924 0.032517 ) 6
( 0.0325888 0.0721972 0.0175697 ) 25
( 0.241998 0.071229 0.000379882 ) 2
( 0.196767 0.0712745 0.00282369 ) 1
( 0.225415 0.0399302 -0.0103983 ) 0
( 0.105888 0.0456048 0.0370239 ) 18
( 0.167482 0.0195764 0.0187504 ) 12
( 0.131245 0.0344766 0.015265 ) 10
( 0.068252 0.067534 0.030878 ) 17
( 0.218941 0.0674624 0.00880019 ) 1
( 0.0542899 0.03474 0.0266606 ) 7
( 0.139608 0.0400174 0.0351916 ) 11
( 0.0875219 0.0458995 0.0297855 ) 18
( 0.111026 0.0900266 0.0147684 ) 27
( 0.0346483 0.0152382 0.0196371 ) 7
( 0.0645495 0.0900822 0.0200364 ) 26
( 0.178951 0.0835027 0.0156552 ) 30
( 0.16374 0.0745252 0.0244911 ) 29
( 0.048405 0.0728223 0.0304937 ) 25
( 0.240242 0.0901675 0.0189229 ) 32
( 0.229655 0.022087 -0.00345047 ) 0
( 0.108607 0.0619722 0.022507 ) 18
( 0.0962584 0.0291372 0.0242648 ) 9
( 0.189599 0.0509621 0.0148063 ) 21
( 0.132443 0.014858 0.0178996 ) 10
( 0.214433 0.0717099 -0.00986138 ) 4
( 0.13956 0.052059 0.0197497 ) 20
( 0.0153488 0.0178922 0.0172219 ) 6
( 0.117304 0.0783613 0.029523 ) 28
( 0.131593 0.0202913 0.036642 ) 10
( 0.203263 0.0368158 0.0171607 ) 13
( 0.213569 0.0533525 0.0213625 ) 22
( 0.00975433 0.0744868 0.0216503 ) 24
( 0.205915 0.0518011 0.00322885 ) 1
( 0.0985229 0.0899649 0.0300122 ) 27
( 0.110364 0.0153381 0.0251544 ) 9
( 0.200726 0.0268464 0.0339827 ) 13
( 0.239102 0.0359209 0.016417 ) 14
( 0.145791 0.0730832 0.0167139 ) 29
( 0.091345 0.0633043 0.038316 ) 18
( 0.19092 0.0902207 0.00139271 ) 3
( 0.159391 0.0557222 0.0209395 ) 20
( 0.0195793 0.0901904 0.0281092 ) 24
( 0.215912 0.0868546 0.0211203 ) 31
( 0.231357 0.0529392 0.00300119 ) 2
( 0.224011 0.0278459 0.026148 ) 14
( 0.130279 0.0900908 0.0197399 ) 28
( 0.173124 0.0901655 -0.00753549 ) 3
( 0.00980449 0.0193858 0.0360496 ) 6
( 0.231108 0.0491262 0.0302194 ) 23
( 0.196498 0.0901811 0.0218635 ) 31
( 0.0372318 0.0513268 0.0196007 ) 16
( 0.0681841 0.0502416 0.0210452 ) 17
( 0.079657 0.0838144 0.0312394 ) 26
( 0.240099 0.0166236 0.0122524 ) 0
( 0.194987 0.0703208 0.0223761 ) 22
( 0.149141 0.0902468 0.0258469 ) 29
( 0.150567 0.0258111 0.0271604 ) 11
( 0.20806 0.0902346 -0.00846668 ) 4
( 0.242954 0.0903807 -0.00373121 ) 5
( 0.0919041 0.0724141 0.0206876 ) 27
( 0.0387249 0.0897074 0.024276 ) 25
( 0.0185899 0.0568265 0.0224888 ) 15
( 0.227484 0.0748764 0.031684 ) 32
( 0.00988443 0.0380815 0.0292103 ) 6
( 0.224485 0.0900809 0.00352951 ) 5
( 0.23599 0.0640988 0.0181969 ) 23
( 0.127074 0.067 0.0175035 ) 19
( 0.197584 0.0504685 0.0327132 ) 22
( 0.184953 0.0289139 0.0172601 ) 12
( 0.0761477 0.0319782 0.0213962 ) 8
( 0.24775 0.0753683 0.0296627 ) 32
( 0.0515178 0.0535105 0.0329482 ) 16
( 0.166578 0.0381023 0.0255477 ) 11
( 0.0535337 0.0151316 0.0536981 ) 34
( 0.0882212 0.0318563 0.0573621 ) 36
( 0.167028 0.067597 0.0423128 ) 21
( 0.113045 0.0418029 0.0190798 ) 10
( 0.0489485 0.0320251 0.0627478 ) 34
( 0.208017 0.0547532 0.0520938 ) 49
( 0.0289187 0.0595354 0.0546112 ) 43
( 0.124496 0.0558196 0.0552282 ) 46
( 0.181332 0.0274244 0.0571778 ) 39
( 0.175506 0.0900128 0.0532102 ) 57
( 0.0313947 0.0403559 0.059183 ) 34
( 0.071272 0.0596221 0.0589079 ) 44
( 0.104692 0.0219058 0.0623831 ) 36
( 0.107943 0.080449 0.0593255 ) 54
( 0.105665 0.0594438 0.0601589 ) 45
( 0.0552536 0.0890409 0.0561011 ) 52
( 0.150204 0.0695954 0.0569425 ) 47
( 0.131928 0.0398907 0.0639902 ) 37
( 0.0208389 0.0793698 0.056934 ) 51
( 0.179555 0.0552314 0.0554286 ) 48
( 0.139505 0.0214719 0.0647879 ) 38
( 0.0701202 0.0399046 0.0587101 ) 35
( 0.134359 0.0900949 0.0589253 ) 55
( 0.238045 0.0470078 0.0496591 ) 50
( 0.00988135 0.0170457 0.0644287 ) 33
( 0.228672 0.0874573 0.0565082 ) 59
( 0.207348 0.0760565 0.0524551 ) 58
( 0.0839721 0.08915 0.0658827 ) 54
( 0.148766 0.0490444 0.0575468 ) 47
( 0.158828 0.0901069 0.0674388 ) 56
( 0.00971809 0.0635746 0.0595455 ) 42
( 0.0954355 0.0378812 0.0744067 ) 63
( 0.249193 0.0175588 0.054942 ) 41
( 0.192217 0.0653205 0.0446017 ) 48
( 0.0446565 0.0527131 0.0697244 ) 43
( 0.0842888 0.0736473 0.0535601 ) 54
( 0.225132 0.0609932 0.0449201 ) 50
( 0.112945 0.0906119 0.0436161 ) 55
( 0.196882 0.0513984 0.0680064 ) 49
( 0.129581 0.0724596 0.045857 ) 55
( 0.166206 0.0903881 0.0357048 ) 29
( 0.0614953 0.0167523 0.0732801 ) 62
( 0.038115 0.0831491 0.0468745 ) 52
( 0.229265 0.0180659 0.0603651 ) 41
( 0.199191 0.0202513 0.0523574 ) 40
( 0.21178 0.0351752 0.0549362 ) 40
( 0.164613 0.0372166 0.0612745 ) 38
( 0.10589 0.0260112 0.041283 ) 9
( 0.0215603 0.0251598 0.0509782 ) 33
( 0.0135968 0.0394943 0.0679122 ) 33
( 0.166411 0.0246353 0.0445155 ) 38
( 0.0438791 0.0708461 0.0614509 ) 43
( 0.249444 0.0572961 0.0374541 ) 23
( 0.0569114 0.0665154 0.0471952 ) 44
( 0.110864 0.0641879 0.0419121 ) 18
( 0.00975434 0.0903027 0.0449865 ) 51
( 0.216714 0.0898075 0.040762 ) 31
( 0.0940852 0.0902488 0.0491181 ) 54
( 0.248963 0.0459346 0.0690006 ) 50
( 0.170971 0.0719436 0.0607776 ) 57
( 0.0310809 0.0651451 0.0358829 ) 16
( 0.17871 0.0560363 0.0314274 ) 21
( 0.151922 0.0549237 0.0391096 ) 20
( 0.0737214 0.090135 0.0489931 ) 53
( 0.0637225 0.0297139 0.0431319 ) 35
( 0.0260274 0.0464198 0.0391761 ) 15
( 0.0431269 0.0320751 0.0438951 ) 34
( 0.122831 0.0336743 0.0479457 ) 37
( 0.148301 0.0306286 0.0499767 ) 38
( 0.151556 0.0902382 0.0490121 ) 56
( 0.182484 0.0332998 0.0363324 ) 12
( 0.12582 0.0728892 0.0652854 ) 55
( 0.209294 0.0666625 0.0352498 ) 22
( 0.0886158 0.0514974 0.0540724 ) 45
( 0.196932 0.0900753 0.0417171 ) 31
( 0.10612 0.0403649 0.0559325 ) 36
( 0.116704 0.0472317 0.0742366 ) 73
( 0.246912 0.0787184 0.0563043 ) 59
( 0.0859553 0.0707552 0.0730908 ) 72
( 0.246193 0.0372635 0.0346571 ) 14
( 0.0123003 0.0605724 0.0405547 ) 15
( 0.215146 0.0642047 0.0725985 ) 76
( 0.228513 0.0304467 0.0452671 ) 41
( 0.121465 0.0251771 0.0721722 ) 64
( 0.0831241 0.0277169 0.0390543 ) 8
( 0.193455 0.0707886 0.065717 ) 48
( 0.134373 0.0903003 0.0390227 ) 28
( 0.181993 0.0788555 0.034716 ) 30
( 0.236415 0.0905694 0.0384574 ) 32
( 0.0275051 0.0631452 0.0738445 ) 69
( 0.180169 0.0153055 0.0734084 ) 66
( 0.0533965 0.0474514 0.0514697 ) 43
( 0.0537128 0.0904728 0.0367213 ) 25
( 0.0638047 0.0502687 0.0743234 ) 71
( 0.0725049 0.0512243 0.041258 ) 17
( 0.0490495 0.0166345 0.0330597 ) 7
( 0.241157 0.0174628 0.0370453 ) 14
( 0.0348123 0.0902469 0.065181 ) 52
( 0.214296 0.0411658 0.0367354 ) 13
( 0.158075 0.0589893 0.0717726 ) 74
( 0.127459 0.0556386 0.0353528 ) 19
( 0.148846 0.0743244 0.0376739 ) 29
( 0.210074 0.0837944 0.0703528 ) 58
( 0.134798 0.0571997 0.0734441 ) 73
( 0.010536 0.090033 0.0702571 ) 51
( 0.00967414 0.0408282 0.048715 ) 33
( 0.0274416 0.0229686 0.0734093 ) 60
( 0.193714 0.0900702 0.0611795 ) 57
( 0.23824 0.0743988 0.076091 ) 86
( 0.143166 0.0790951 0.0728661 ) 83
( 0.10087 0.0205618 0.0816367 ) 63
( 0.168245 0.0444588 0.0436816 ) 48
( 0.148929 0.036637 0.0726986 ) 65
( 0.0660052 0.0744969 0.0704626 ) 53
( 0.101866 0.0900202 0.0759431 ) 81
( 0.211682 0.0360612 0.0741737 ) 67
( 0.0864792 0.0310608 0.0905552 ) 63
( 0.193316 0.0417172 0.0506426 ) 39
( 0.175051 0.0488571 0.0730586 ) 75
( 0.072735 0.0192043 0.0572155 ) 35
( 0.00953112 0.0562627 0.0774664 ) 69
( 0.165804 0.0755669 0.0789776 ) 83
( 0.18864 0.0345047 0.0740705 ) 66
( 0.0930378 0.0551972 0.0830196 ) 72
( 0.244365 0.0429097 0.0903154 ) 77
( 0.121605 0.0901486 0.0740383 ) 82
( 0.0771592 0.0291485 0.0735909 ) 62
( 0.0426772 0.073216 0.0810329 ) 79
( 0.0510328 0.0371138 0.08145 ) 61
( 0.109131 0.0703022 0.0756869 ) 72
( 0.229087 0.0402584 0.065847 ) 41
( 0.0226459 0.0734108 0.0901444 ) 78
( 0.169645 0.0309503 0.0794976 ) 66
( 0.0296839 0.0433657 0.0787569 ) 70
( 0.110392 0.0369867 0.0901093 ) 63
( 0.201921 0.0578332 0.086104 ) 76
( 0.235786 0.0627964 0.0609025 ) 50
( 0.0765104 0.0738884 0.0901967 ) 80
( 0.164974 0.0149678 0.090353 ) 65
( 0.198304 0.0771686 0.084626 ) 85
( 0.00973928 0.0260357 0.0818211 ) 60
( 0.227574 0.0905294 0.0760258 ) 86
( 0.183181 0.0647907 0.0815358 ) 75
( 0.147817 0.0528387 0.0877645 ) 74
( 0.233897 0.0546632 0.0785571 ) 77
( 0.0516828 0.090316 0.075164 ) 79
( 0.130581 0.067196 0.0901285 ) 73
( 0.0602747 0.061195 0.090243 ) 71
( 0.233247 0.0279949 0.0808267 ) 68
( 0.0711417 0.0904655 0.0804999 ) 80
( 0.14057 0.0900594 0.0901037 ) 83
( 0.0100382 0.0900248 0.0901332 ) 78
( 0.135376 0.0289859 0.0858703 ) 64
( 0.201295 0.0203975 0.0799028 ) 67
( 0.180609 0.043833 0.0906849 ) 75
( 0.177883 0.0902346 0.0728881 ) 84
( 0.201303 0.0386401 0.0904735 ) 67
( 0.074616 0.0470332 0.0903462 ) 71
( 0.149821 0.0724671 0.0902668 ) 83
( 0.0399129 0.0558609 0.0902353 ) 70
( 0.11504 0.0813837 0.0905281 ) 82
( 0.223866 0.0667738 0.0903239 ) 77
( 0.111393 0.0573565 0.0903325 ) 73
( 0.0373812 0.0900365 0.0901451 ) 79
( 0.0359569 0.0284889 0.0904087 ) 61
( 0.185314 0.0242085 0.0904876 ) 66
( 0.211945 0.090191 0.0902817 ) 85
( 0.153901 0.0342619 0.0908872 ) 65
( 0.118143 0.0186474 0.0905959 ) 64
( 0.249879 0.0705438 0.0908211 ) 77
( 0.16061 0.0901325 0.0905251 ) 83
( 0.128802 0.0472927 0.0901184 ) 73
( 0.0662282 0.0283217 0.0903278 ) 62
( 0.243139 0.0900367 0.0901472 ) 86
( 0.221398 0.0406315 0.0904451 ) 67
( 0.217813 0.0208375 0.0908025 ) 67
( 0.166661 0.0585923 0.0902434 ) 74
( 0.0138258 0.0429227 0.0907363 ) 69
( 0.057801 0.0808351 0.0908217 ) 80
( 0.0881997 0.0902199 0.0902859 ) 81
( 0.180188 0.0821835 0.0905618 ) 84
( 0.0971525 0.0726899 0.0906687 ) 81
)
