/*--------------------------------*- C++ -*----------------------------------*\
| =========                 |                                                 |
| \\      /  F ield         | OpenFOAM: The Open Source CFD Toolbox           |
|  \\    /   O peration     | Version:  4.x                                   |
|   \\  /    A nd           | Web:      www.OpenFOAM.org                      |
|    \\/     M anipulation  |                                                 |
\*---------------------------------------------------------------------------*/
FoamFile
{
    version     2.0;
    format      ascii;
    class       surfaceScalarField;
    location    "41.5";
    object      phi;
}
// * * * * * * * * * * * * * * * * * * * * * * * * * * * * * * * * * * * * * //

dimensions      [0 3 -1 0 0 0 0];

internalField   nonuniform List<scalar> 
192
(
1.42324e-05
-4.34504e-09
-2.05424e-07
1.44943e-05
-4.95806e-08
-2.12276e-07
1.48727e-05
-3.75111e-08
-3.40977e-07
1.49537e-05
3.84141e-08
-1.19383e-07
1.57469e-05
-1.69012e-07
-6.2416e-07
1.53025e-05
2.29434e-07
2.14994e-07
1.73977e-05
-6.43046e-07
-1.45222e-06
1.52996e-05
8.44194e-07
1.25391e-06
-2.50319e-06
-3.51735e-06
1.29943e-05
-8.75839e-08
-1.98107e-07
1.32038e-05
-6.98522e-08
-1.8923e-07
1.35079e-05
-8.47206e-08
-2.56902e-07
1.34868e-05
5.46588e-08
4.80492e-09
1.4048e-05
-2.80634e-07
-4.49496e-07
1.35012e-05
2.40383e-07
5.35806e-07
1.47505e-05
-8.87655e-07
-1.0047e-06
1.3075e-05
8.68772e-07
1.65091e-06
-2.60194e-06
-2.83622e-06
1.13652e-05
-1.78924e-07
1.14092e-05
-1.19783e-07
1.15083e-05
-2.17458e-07
1.14595e-05
1.01331e-07
1.18357e-05
-4.10087e-07
1.16541e-05
5.29341e-07
1.27859e-05
-9.99217e-07
1.17396e-05
1.662e-06
-4.07062e-06
1.05455e-05
1.37312e-08
-2.96364e-07
1.06655e-05
-4.91964e-08
-2.83111e-07
1.07126e-05
4.80185e-08
-4.36109e-07
1.06574e-05
1.47721e-07
-2.11903e-07
1.07533e-05
2.78142e-08
-7.47836e-07
1.03275e-05
4.60064e-07
1.80767e-07
1.05413e-05
-1.79906e-07
-1.48621e-06
9.39102e-06
1.09477e-06
1.30948e-06
-1.16727e-06
-3.06376e-06
8.21628e-06
-3.84971e-08
-1.9598e-07
8.14127e-06
-3.29359e-08
-1.3048e-07
8.21563e-06
-6.29381e-08
-2.20314e-07
8.08014e-06
1.60596e-07
1.27425e-07
8.23879e-06
-1.39689e-07
-4.40639e-07
8.26915e-06
3.79239e-07
5.86272e-07
8.3758e-06
-3.19984e-07
-9.71271e-07
8.47937e-06
9.81576e-07
1.66053e-06
-1.20333e-06
-2.54616e-06
6.25008e-06
-1.44295e-07
5.94301e-06
6.47825e-08
5.78306e-06
-1.52598e-07
5.82788e-06
1.33345e-07
5.47771e-06
-2.19504e-07
5.9476e-06
4.4298e-07
5.19081e-06
-5.81825e-07
6.73782e-06
1.27699e-06
-2.7702e-06
1.01256e-05
-3.08349e-08
-3.64559e-07
1.01176e-05
2.06696e-08
-2.95765e-07
1.02001e-05
-3.77188e-08
-4.80841e-07
1.00396e-05
1.71264e-07
1.02123e-05
-2.13528e-07
9.82142e-06
4.29829e-07
1.00364e-05
-6.31968e-07
9.31922e-06
1.01768e-06
-1.73924e-06
7.8349e-06
-1.31149e-07
-2.09563e-07
7.95258e-06
-3.82571e-08
-1.89239e-07
8.10416e-06
-1.95262e-07
8.2113e-06
1.2949e-07
8.33736e-06
-3.92937e-07
8.4828e-06
3.86496e-07
8.66412e-06
-9.54844e-07
8.58387e-06
1.25673e-06
-2.90141e-06
6.162e-06
-1.21125e-07
6.17792e-06
6.06305e-06
6.24051e-06
6.03359e-06
6.52134e-06
5.98668e-06
7.0652e-06
8.2653e-06
-2.75196e-08
7.68788e-06
1.92573e-07
5.70809e-06
-4.51185e-08
)
;

boundaryField
{
    inlet
    {
        type            calculated;
        value           nonuniform 0();
    }
    outlet
    {
        type            calculated;
        value           nonuniform List<scalar> 9(2.13202e-05 1.601e-05 1.6202e-05 1.01047e-05 8.22537e-06 4.38479e-06 9.8726e-06 9.5304e-06 4.3968e-06);
    }
    wall
    {
        type            calculated;
        value           nonuniform List<scalar> 
57
(
0
0
0
0
0
0
0
0
0
0
0
0
0
0
0
0
0
0
0
0
0
0
0
0
0
0
0
0
0
0
0
0
0
0
0
0
0
0
0
0
0
0
0
-6.16298e-33
2.46519e-32
0
0
0
0
0
-1.2326e-32
0
0
0
0
0
0
)
;
    }
    procBoundary1to0
    {
        type            processor;
        value           nonuniform List<scalar> 
12
(
-1.40226e-05
-1.27129e-05
-1.12583e-05
-1.04683e-05
-8.16617e-06
-6.36494e-06
-1.00266e-05
-7.721e-06
-6.24483e-06
-8.54363e-06
-5.8791e-06
-4.99004e-06
)
;
    }
    procBoundary1to3
    {
        type            processor;
        value           nonuniform List<scalar> 
27
(
-1.5584e-08
5.93794e-09
3.35782e-08
2.15727e-09
-2.46681e-07
-1.07424e-07
-1.0202e-06
2.5308e-07
-2.99374e-06
4.17367e-08
8.95701e-08
3.2147e-08
8.3764e-08
1.98938e-08
-4.29166e-09
1.94168e-08
-1.80422e-07
-1.50722e-07
-7.1493e-08
-2.30585e-08
-8.41753e-08
2.0594e-08
-1.83261e-07
6.03218e-08
-5.33954e-07
6.71789e-07
-2.00118e-06
)
;
    }
    procBoundary1to5
    {
        type            processor;
        value           nonuniform List<scalar> 
32
(
-2.22715e-07
-7.07005e-07
1.41832e-07
-1.06918e-06
1.00894e-06
-1.87789e-06
-2.1435e-07
6.20539e-08
-3.87286e-07
4.84168e-07
-8.29716e-07
1.50173e-06
-2.33052e-06
3.36711e-08
-1.48821e-07
6.47796e-08
-2.2226e-07
2.81406e-07
-4.68056e-07
7.83421e-07
-1.00204e-06
-5.87052e-08
8.90806e-08
7.08698e-06
7.43772e-08
4.5683e-08
-2.09515e-08
5.4968e-06
2.25873e-07
-1.12523e-08
4.82038e-06
3.30584e-09
)
;
    }
    procBoundary1to7
    {
        type            processor;
        value           uniform 1.10297e-10;
    }
}


// ************************************************************************* //
