/*--------------------------------*- C++ -*----------------------------------*\
| =========                 |                                                 |
| \\      /  F ield         | OpenFOAM: The Open Source CFD Toolbox           |
|  \\    /   O peration     | Version:  4.x                                   |
|   \\  /    A nd           | Web:      www.OpenFOAM.org                      |
|    \\/     M anipulation  |                                                 |
\*---------------------------------------------------------------------------*/
FoamFile
{
    version     2.0;
    format      ascii;
    class       volScalarField;
    location    "41.5";
    object      QPartFluid;
}
// * * * * * * * * * * * * * * * * * * * * * * * * * * * * * * * * * * * * * //

dimensions      [1 -1 -3 0 0 0 0];

internalField   nonuniform List<scalar> 
87
(
4.29713e+09
7.06003e+09
4.19787e+09
6.55994e+09
4.37201e+09
4.88521e+09
5.24758e+09
6.59504e+09
4.0136e+09
4.5318e+09
4.43186e+09
5.83891e+09
5.74926e+09
4.39359e+09
6.66406e+09
7.63595e+09
6.71658e+09
3.99505e+09
3.94588e+09
7.09774e+09
6.22394e+09
8.95997e+09
6.29374e+09
5.82431e+09
5.75915e+09
6.30284e+09
4.28705e+09
7.42576e+09
6.59483e+09
6.14208e+09
7.58926e+09
6.37158e+09
7.86375e+09
9.08891e+09
9.0061e+09
5.40154e+09
9.02171e+09
6.72581e+09
7.57305e+09
9.43215e+09
9.21296e+09
7.72843e+09
9.42152e+09
1.05673e+10
4.70886e+09
7.92538e+09
8.49127e+09
7.18653e+09
6.81254e+09
5.79107e+09
9.30227e+09
9.41766e+09
1.31558e+10
4.42239e+09
7.12398e+09
7.01681e+09
8.23523e+09
9.63809e+09
6.10593e+09
9.69039e+09
7.6397e+09
7.47488e+09
3.20277e+09
6.48309e+09
8.86707e+09
6.49266e+09
8.11194e+09
8.18845e+09
9.0921e+09
7.63876e+09
9.45266e+09
3.70348e+09
9.51314e+09
7.89247e+09
5.50835e+09
1.11548e+10
8.88495e+09
1.06968e+10
7.47871e+09
9.66871e+09
3.36758e+09
6.47407e+09
5.53757e+09
7.61083e+09
7.85643e+09
1.22079e+10
5.88984e+09
)
;

boundaryField
{
    inlet
    {
        type            calculated;
        value           nonuniform 0();
    }
    outlet
    {
        type            calculated;
        value           uniform 0;
    }
    wall
    {
        type            calculated;
        value           uniform 0;
    }
    procBoundary1to0
    {
        type            processor;
        value           nonuniform List<scalar> 
12
(
2.01761e+09
5.24394e+09
8.50799e+09
7.26076e+09
8.97685e+09
6.34939e+09
5.41956e+09
1.01518e+10
5.3988e+09
6.04207e+09
6.93512e+09
9.33369e+09
)
;
    }
    procBoundary1to3
    {
        type            processor;
        value           nonuniform List<scalar> 
27
(
8.48371e+09
3.8546e+09
6.72682e+09
3.2353e+09
5.00647e+09
3.79416e+09
5.62221e+09
5.28537e+09
2.90428e+09
8.53941e+09
8.08938e+09
1.02507e+10
1.0642e+10
8.48886e+09
7.97664e+09
6.83145e+09
8.56356e+09
7.63685e+09
8.20861e+09
1.10063e+10
9.20216e+09
1.03484e+10
6.58633e+09
7.82068e+09
9.11664e+09
8.43112e+09
6.95184e+09
)
;
    }
    procBoundary1to5
    {
        type            processor;
        value           nonuniform List<scalar> 
32
(
7.86014e+09
7.25694e+09
7.02402e+09
5.70325e+09
7.8552e+09
5.82032e+09
7.25855e+09
7.04504e+09
5.88061e+09
8.23698e+09
8.45729e+09
1.00976e+10
6.51321e+09
9.95258e+09
6.14355e+09
8.71626e+09
5.88285e+09
5.31451e+09
7.45118e+09
6.2459e+09
6.65777e+09
6.64537e+09
5.69932e+09
7.86014e+09
7.25855e+09
7.56484e+09
8.11142e+09
7.25855e+09
9.95258e+09
8.24275e+09
9.95258e+09
8.51735e+09
)
;
    }
    procBoundary1to7
    {
        type            processor;
        value           uniform 9.99922e+09;
    }
}


// ************************************************************************* //
