/*--------------------------------*- C++ -*----------------------------------*\
| =========                 |                                                 |
| \\      /  F ield         | OpenFOAM: The Open Source CFD Toolbox           |
|  \\    /   O peration     | Version:  4.x                                   |
|   \\  /    A nd           | Web:      www.OpenFOAM.org                      |
|    \\/     M anipulation  |                                                 |
\*---------------------------------------------------------------------------*/
FoamFile
{
    version     2.0;
    format      ascii;
    class       volScalarField;
    location    "21.5";
    object      nu;
}
// * * * * * * * * * * * * * * * * * * * * * * * * * * * * * * * * * * * * * //

dimensions      [0 2 -1 0 0 0 0];

internalField   nonuniform List<scalar> 
132
(
1.00008e-06
1.00012e-06
1.00016e-06
1.0002e-06
1.00021e-06
1.00019e-06
1.00013e-06
1.00007e-06
9.9928e-07
1.00006e-06
1.0001e-06
1.00013e-06
1.00017e-06
1.00019e-06
1.0002e-06
1.00015e-06
1.00014e-06
9.99785e-07
1.00005e-06
1.00008e-06
1.00011e-06
1.00015e-06
1.00018e-06
1.00021e-06
1.00019e-06
1.0002e-06
9.99995e-07
1.00001e-06
1.00002e-06
1.00004e-06
1.00005e-06
1.00008e-06
1.00011e-06
1.00015e-06
1.00019e-06
1.00135e-06
1.00012e-06
1.00012e-06
1.00009e-06
1.00005e-06
9.99982e-07
9.99926e-07
9.984e-07
1.0001e-06
1.00012e-06
1.00012e-06
1.00011e-06
1.00007e-06
1.00003e-06
9.9997e-07
9.99935e-07
9.99367e-07
1.00005e-06
1.00008e-06
1.0001e-06
1.00012e-06
1.00011e-06
1.00009e-06
1.00004e-06
1.00004e-06
9.99908e-07
1.00001e-06
1.00003e-06
1.00004e-06
1.00006e-06
1.00009e-06
1.00012e-06
1.00016e-06
1.00021e-06
1.00061e-06
1.0001e-06
1.00006e-06
9.99995e-07
9.99941e-07
9.99626e-07
1.00004e-06
1.00006e-06
1.00008e-06
1.00009e-06
1.0001e-06
1.00008e-06
1.00006e-06
1.00003e-06
9.99939e-07
1.00003e-06
1.00005e-06
1.00006e-06
1.00008e-06
1.00009e-06
1.00009e-06
1.00008e-06
1.00007e-06
9.99982e-07
1.00001e-06
1.00002e-06
1.00002e-06
1.00003e-06
1.00005e-06
1.00006e-06
1.00007e-06
1.00009e-06
1.00134e-06
1.00011e-06
1.00013e-06
1.00027e-06
1.00002e-06
1.00003e-06
1.00004e-06
1.00006e-06
1.00008e-06
1.00011e-06
1.00013e-06
1.00014e-06
1.00021e-06
1.00001e-06
1.00002e-06
1.00003e-06
1.00004e-06
1.00006e-06
1.00007e-06
1.0001e-06
1.00012e-06
1.0005e-06
1.00001e-06
1.00001e-06
1.00001e-06
1.00002e-06
1.00003e-06
1.00005e-06
1.00006e-06
1.00008e-06
1.00104e-06
)
;

boundaryField
{
    inlet
    {
        type            calculated;
        value           nonuniform 0();
    }
    outlet
    {
        type            calculated;
        value           uniform 1e-06;
    }
    wall
    {
        type            calculated;
        value           nonuniform List<scalar> 
66
(
1.00002e-06
1.00001e-06
1.00001e-06
1.00003e-06
1.00002e-06
1.00001e-06
1.00004e-06
1.00003e-06
1.00001e-06
1.00006e-06
1.00004e-06
1.00002e-06
1.00008e-06
1.00006e-06
1.00003e-06
1.00011e-06
1.00007e-06
1.00005e-06
1.00011e-06
1.00013e-06
1.0001e-06
1.00006e-06
1.00013e-06
1.00014e-06
1.00012e-06
1.00008e-06
1.00027e-06
1.00021e-06
1.0005e-06
1.00104e-06
1.00001e-06
1.00001e-06
1.00001e-06
1.00001e-06
1.00002e-06
1.00003e-06
1.00002e-06
1.00001e-06
1.00004e-06
1.00004e-06
1.00002e-06
1.00001e-06
1.00005e-06
1.00006e-06
1.00003e-06
1.00002e-06
1.00008e-06
1.00009e-06
1.00005e-06
1.00003e-06
1.00011e-06
1.00012e-06
1.00006e-06
1.00005e-06
1.00015e-06
1.00016e-06
1.00007e-06
1.00006e-06
1.00019e-06
1.00021e-06
1.00009e-06
1.00008e-06
1.00135e-06
1.00061e-06
1.00134e-06
1.00104e-06
)
;
    }
    procBoundary7to0
    {
        type            processor;
        value           uniform 1.00005e-06;
    }
    procBoundary7to1
    {
        type            processor;
        value           uniform 1.00007e-06;
    }
    procBoundary7to3
    {
        type            processor;
        value           nonuniform List<scalar> 
36
(
1.00015e-06
1.00022e-06
1.00029e-06
1.00033e-06
1.00034e-06
1.00032e-06
1.00025e-06
1.0002e-06
9.99943e-07
1.00009e-06
1.00016e-06
1.00023e-06
1.0003e-06
1.00033e-06
1.00035e-06
1.00031e-06
1.00032e-06
1.00011e-06
1.00008e-06
1.00014e-06
1.00022e-06
1.00029e-06
1.00034e-06
1.00038e-06
1.00036e-06
1.00038e-06
1.00002e-06
1.00002e-06
1.00003e-06
1.00006e-06
1.00009e-06
1.00014e-06
1.0002e-06
1.00025e-06
1.00031e-06
1.00113e-06
)
;
    }
    procBoundary7to5
    {
        type            processor;
        value           nonuniform List<scalar> 
44
(
1.0001e-06
1.00012e-06
1.00015e-06
1.00016e-06
1.00015e-06
1.00011e-06
1.00007e-06
9.99678e-07
1.00007e-06
1.0001e-06
1.0001e-06
1.00011e-06
1.00008e-06
1.00004e-06
9.9997e-07
9.99927e-07
9.98888e-07
1.00007e-06
1.0001e-06
1.0001e-06
1.0001e-06
1.00011e-06
1.00009e-06
1.00009e-06
1.00006e-06
1.00004e-06
9.99809e-07
1.00005e-06
1.00007e-06
1.0001e-06
1.00011e-06
1.00011e-06
1.00008e-06
1.0001e-06
1.0001e-06
1.00012e-06
1.00021e-06
1.00002e-06
1.00003e-06
1.00004e-06
1.00006e-06
1.00008e-06
1.0001e-06
1.0001e-06
)
;
    }
    procBoundary7to6
    {
        type            processor;
        value           nonuniform List<scalar> 
12
(
1.00003e-06
1.00003e-06
1.00001e-06
1.00007e-06
1.00003e-06
1.00001e-06
1.00002e-06
1.00002e-06
1.00001e-06
1.00001e-06
1.00001e-06
1e-06
)
;
    }
}


// ************************************************************************* //
