/*--------------------------------*- C++ -*----------------------------------*\
| =========                 |                                                 |
| \\      /  F ield         | OpenFOAM: The Open Source CFD Toolbox           |
|  \\    /   O peration     | Version:  4.x                                   |
|   \\  /    A nd           | Web:      www.OpenFOAM.org                      |
|    \\/     M anipulation  |                                                 |
\*---------------------------------------------------------------------------*/
FoamFile
{
    version     2.0;
    format      ascii;
    class       volVectorField;
    location    "21.5";
    object      Us;
}
// * * * * * * * * * * * * * * * * * * * * * * * * * * * * * * * * * * * * * //

dimensions      [0 1 -1 0 0 0 0];

internalField   nonuniform List<vector> 
132
(
(-1.13819e-08 4.4345e-09 -1.85537e-09)
(-1.12517e-08 3.68264e-09 -2.74378e-09)
(-1.04565e-08 4.55406e-09 -1.81259e-09)
(-9.01332e-09 3.55011e-09 -5.72217e-10)
(-8.54999e-09 2.70827e-09 1.46514e-09)
(-5.45055e-09 2.19501e-09 1.74696e-09)
(-4.66836e-09 -9.52422e-10 3.31142e-09)
(-3.23762e-09 1.1858e-10 2.13794e-09)
(-2.62041e-09 8.6748e-10 -2.98047e-09)
(-8.69833e-09 3.09927e-09 -2.51564e-09)
(-8.72541e-09 2.23192e-09 -3.88648e-09)
(-7.51484e-09 3.05108e-09 -3.67584e-09)
(-6.74788e-09 2.36549e-09 -3.08389e-09)
(-7.72155e-09 1.73869e-09 1.32414e-09)
(-7.50018e-09 4.97643e-10 3.71748e-09)
(-6.04859e-09 -5.86334e-10 4.0793e-09)
(-5.25803e-09 1.67123e-09 4.54537e-10)
(-2.57517e-09 1.59548e-09 -5.4722e-09)
(-5.7764e-09 1.90342e-09 -6.46347e-10)
(-6.50958e-09 1.53656e-09 -3.76303e-09)
(-5.36652e-09 1.09982e-09 -5.86702e-09)
(-5.21471e-09 9.84233e-10 -4.21268e-09)
(-6.04041e-09 6.832e-10 -1.86574e-09)
(-5.99489e-09 -9.84169e-10 -7.39381e-10)
(-5.34513e-09 1.73121e-10 3.29755e-10)
(-4.83254e-09 2.16951e-09 -4.81068e-09)
(-8.77649e-09 2.34356e-09 -8.62289e-09)
(-2.24331e-09 2.92838e-11 -2.54084e-10)
(-3.75624e-09 6.20963e-10 -1.57862e-09)
(-2.9568e-09 2.44812e-10 -2.90943e-09)
(-2.72079e-09 4.01516e-10 -2.31572e-09)
(-2.62094e-09 -2.29169e-10 -2.56268e-09)
(-5.05453e-09 -2.88361e-10 -3.18032e-09)
(-4.48947e-09 1.65869e-10 -2.59296e-09)
(-2.36528e-09 -4.04727e-10 -7.20171e-09)
(-4.37734e-09 1.68969e-09 -4.87197e-09)
(-1.00271e-08 3.17144e-09 -4.5675e-10)
(-9.96351e-09 1.49647e-09 -2.91773e-10)
(-1.02957e-08 -7.79603e-10 7.68151e-10)
(-7.61959e-09 6.07715e-10 1.99004e-09)
(-6.17671e-09 1.42703e-10 1.90549e-09)
(-4.01759e-09 -9.48661e-11 1.37493e-09)
(-4.37547e-09 1.83533e-10 -2.62064e-09)
(-7.24431e-09 1.64883e-09 -1.576e-09)
(-8.3652e-09 2.83141e-09 -1.72316e-09)
(-7.8704e-09 2.94757e-09 -1.65195e-09)
(-7.17176e-09 2.3496e-09 -7.95339e-10)
(-6.91246e-09 2.12351e-09 1.11856e-09)
(-6.41003e-09 1.41839e-09 1.92978e-09)
(-5.28557e-09 1.12484e-09 1.50904e-09)
(-5.05115e-09 2.38626e-09 7.5142e-10)
(-3.45284e-09 1.18834e-10 -1.36615e-09)
(-4.99543e-09 1.07556e-09 -5.19265e-10)
(-4.73339e-09 1.1887e-10 -2.51211e-09)
(-4.72276e-09 8.48529e-10 -2.77718e-09)
(-5.54969e-09 1.36177e-09 -2.17719e-09)
(-5.11565e-09 1.22821e-09 -3.02674e-10)
(-5.63598e-09 7.83817e-11 3.00054e-10)
(-3.78239e-09 2.41519e-09 -2.17366e-10)
(-3.48171e-09 1.18089e-09 -1.54641e-09)
(-1.07264e-08 -2.66732e-09 -1.93945e-09)
(-2.01788e-09 1.03773e-10 8.55133e-11)
(-2.10215e-09 -1.66494e-10 -1.08811e-09)
(-1.2923e-09 -8.3476e-10 -2.47804e-09)
(-2.6559e-09 3.41076e-10 -1.47665e-09)
(-3.00795e-09 9.80491e-10 -9.07507e-10)
(-2.04276e-09 4.44902e-10 -1.30141e-09)
(-4.37725e-10 2.63027e-09 -1.34146e-09)
(-3.10671e-09 -4.60718e-10 -2.62755e-09)
(-5.59209e-09 -1.35754e-09 -2.81381e-09)
(-7.53774e-09 2.8499e-10 3.72623e-10)
(-5.85167e-09 2.4347e-10 1.36328e-09)
(-5.2595e-09 1.28458e-10 1.38566e-09)
(-4.23099e-09 -4.96094e-10 4.19872e-10)
(-1.71513e-09 -3.69309e-10 -1.0821e-09)
(-4.74489e-09 1.24632e-09 -8.78424e-10)
(-6.24507e-09 1.80373e-09 -7.80288e-10)
(-5.20757e-09 1.8335e-09 -4.02865e-10)
(-4.97e-09 1.89265e-09 -3.149e-10)
(-5.11474e-09 1.36362e-09 7.60362e-10)
(-4.9162e-09 1.07745e-09 1.53494e-09)
(-4.43455e-09 1.16559e-09 1.97491e-09)
(-3.79816e-09 3.63612e-10 9.53291e-10)
(-1.94431e-09 -8.81336e-10 -3.82525e-10)
(-1.65305e-09 1.02587e-09 -4.56124e-10)
(-1.22767e-09 4.62763e-10 -1.21452e-09)
(-1.54155e-09 8.13525e-10 -6.62282e-10)
(-2.17987e-09 9.005e-10 -5.3551e-10)
(-3.09885e-09 1.2912e-09 5.41006e-10)
(-3.25425e-09 1.38371e-09 4.58241e-10)
(-2.53833e-09 2.35594e-09 9.43051e-10)
(-3.09144e-09 -2.09251e-09 2.39929e-10)
(-1.16122e-09 -3.47706e-09 7.23484e-11)
(7.54005e-10 3.61218e-10 1.43562e-10)
(9.22738e-11 -4.60945e-11 -6.40145e-10)
(6.40682e-10 1.80524e-10 -4.74348e-10)
(-5.46052e-10 2.29927e-10 -4.21297e-10)
(-4.75863e-10 5.81384e-10 -2.80507e-11)
(3.10637e-10 2.15513e-09 9.17556e-12)
(1.14383e-10 2.50924e-09 4.42879e-10)
(-3.46308e-09 -9.8006e-10 -8.90836e-10)
(-5.72584e-10 -3.27247e-09 -5.06362e-10)
(-5.17835e-09 -5.3144e-10 8.23945e-10)
(-5.83048e-09 7.93054e-10 2.57682e-10)
(-1.25281e-09 -3.00347e-10 -1.25762e-09)
(-1.52211e-09 1.08308e-09 -3.13866e-10)
(-2.65354e-09 1.1092e-09 -3.05747e-10)
(-2.75697e-09 8.37122e-10 -3.43491e-10)
(-2.69946e-09 8.65471e-10 -3.38229e-11)
(-2.95821e-09 7.36529e-10 6.85183e-10)
(-3.96404e-09 1.63903e-09 1.55981e-09)
(-3.5978e-09 1.01702e-09 8.55557e-10)
(-4.8547e-09 9.0404e-10 8.33298e-10)
(-7.91579e-10 1.30948e-09 -6.04974e-10)
(2.88681e-10 7.65837e-10 -3.11619e-10)
(-1.99793e-10 9.09707e-10 -1.11158e-10)
(-7.7143e-10 9.36535e-10 -8.33019e-11)
(-1.101e-09 6.948e-10 2.20968e-10)
(-1.14409e-09 7.58791e-10 5.92545e-10)
(-1.44531e-09 1.26634e-09 8.91076e-10)
(-1.63753e-09 1.67706e-09 1.69007e-09)
(-2.76476e-09 5.29318e-10 5.69185e-10)
(-1.40218e-09 1.90017e-09 1.82724e-10)
(7.16476e-10 3.92484e-10 9.41427e-11)
(1.68144e-10 8.16891e-10 -1.43931e-10)
(4.20225e-10 5.98002e-10 9.43516e-12)
(5.2054e-10 4.33905e-10 2.5682e-10)
(2.36422e-09 6.03209e-11 1.37317e-10)
(3.91843e-10 7.33573e-10 4.59476e-10)
(3.16905e-10 8.72829e-10 7.8325e-10)
(-1.00888e-09 -2.5661e-10 -6.02484e-11)
(-3.36625e-09 5.23742e-09 5.65975e-09)
)
;

boundaryField
{
    inlet
    {
        type            zeroGradient;
    }
    outlet
    {
        type            zeroGradient;
    }
    wall
    {
        type            zeroGradient;
    }
    procBoundary7to0
    {
        type            processor;
        value           uniform (-1.08045e-08 1.98442e-09 1.13049e-09);
    }
    procBoundary7to1
    {
        type            processor;
        value           uniform (-1.345e-08 3.65637e-09 -2.66439e-10);
    }
    procBoundary7to3
    {
        type            processor;
        value           nonuniform List<vector> 
36
(
(-8.75622e-09 4.71211e-09 -3.64682e-09)
(-6.48599e-09 4.46764e-09 -5.27559e-09)
(-4.93431e-09 5.13315e-09 -4.56877e-09)
(-3.55308e-09 2.99298e-09 -2.05993e-09)
(1.6812e-09 -2.6731e-09 4.68831e-09)
(-1.03029e-08 -4.84685e-09 7.48949e-09)
(8.32558e-09 -5.38398e-09 8.1589e-09)
(6.64619e-09 -3.93517e-09 1.74972e-10)
(1.94654e-11 4.48811e-09 -3.62592e-09)
(-8.02612e-09 2.16279e-09 -3.16884e-09)
(-5.02786e-09 1.41026e-09 -5.9463e-09)
(-4.63211e-09 7.19589e-10 -7.54072e-09)
(-2.22963e-09 7.08002e-10 -6.19759e-09)
(-1.58804e-09 -1.34347e-09 -6.63044e-10)
(2.4968e-10 -5.91823e-09 6.38143e-09)
(-2.17404e-09 -4.54071e-09 7.23814e-09)
(-3.27735e-09 -3.23359e-09 1.871e-09)
(-6.38186e-09 6.50603e-09 -1.48726e-08)
(-6.56245e-09 7.80825e-10 -2.21673e-09)
(-5.49937e-09 1.29993e-10 -4.4456e-09)
(-3.62791e-09 8.42187e-10 -8.03828e-09)
(-3.83664e-09 -9.17509e-10 -6.2443e-09)
(-5.36821e-10 -3.8916e-09 -3.96704e-09)
(2.44012e-09 -4.70106e-09 -2.24604e-09)
(1.64785e-09 -6.47337e-09 1.17478e-10)
(-3.74261e-10 -1.38657e-09 -1.13636e-08)
(2.82031e-10 -4.91116e-09 -2.389e-08)
(-3.2998e-09 2.8703e-10 -1.1594e-09)
(-2.42495e-09 3.17006e-10 -2.0262e-09)
(-2.81508e-10 -3.8133e-11 -4.45159e-09)
(-2.30518e-09 -8.60417e-10 -3.44993e-09)
(-7.38816e-10 -4.29812e-09 -8.03013e-09)
(9.07005e-10 -4.05832e-09 -5.99228e-09)
(-7.93013e-10 -1.79212e-09 -2.87377e-09)
(1.54752e-09 -3.27929e-09 -1.81993e-08)
(-3.14384e-09 -1.34331e-08 -4.36676e-08)
)
;
    }
    procBoundary7to5
    {
        type            processor;
        value           nonuniform List<vector> 
44
(
(-1.32222e-08 4.67929e-09 -1.11424e-09)
(-1.06972e-08 4.61146e-09 6.81158e-11)
(-9.60399e-09 4.60684e-09 -1.04666e-10)
(-9.43644e-09 3.84568e-09 7.55156e-10)
(-9.21706e-09 2.0386e-09 1.24394e-09)
(-7.49235e-09 -6.15823e-11 1.94906e-09)
(-5.79866e-09 7.11966e-10 -1.43333e-09)
(-2.49342e-09 6.48998e-09 -4.02052e-09)
(-9.8365e-09 2.37181e-09 -4.93856e-10)
(-1.0176e-08 3.0107e-09 -9.05294e-10)
(-9.09095e-09 3.48994e-09 1.14475e-09)
(-9.01828e-09 2.4329e-09 2.36873e-10)
(-8.31986e-09 1.07151e-09 1.1749e-09)
(-7.72162e-09 4.53681e-10 8.62665e-10)
(-6.7106e-09 -2.94718e-10 6.13291e-10)
(-5.39369e-09 -3.63699e-10 -4.98552e-10)
(-3.23604e-09 1.70112e-09 -1.97497e-09)
(-9.8365e-09 2.37181e-09 -4.93856e-10)
(-1.0176e-08 3.0107e-09 -9.05294e-10)
(-1.0176e-08 3.0107e-09 -9.05294e-10)
(-7.33795e-09 2.10777e-09 -7.954e-10)
(-6.58397e-09 1.74281e-09 -7.03104e-10)
(-6.29727e-09 1.24419e-10 1.24254e-09)
(-5.89968e-09 -4.41721e-10 8.27214e-10)
(-5.10751e-09 -7.41858e-10 1.15128e-09)
(-4.67919e-09 -2.04861e-11 -4.9603e-10)
(-3.17379e-09 1.58046e-09 -1.7869e-09)
(-5.10328e-09 1.34558e-09 -9.08535e-10)
(-7.16763e-09 2.29896e-09 -1.09933e-09)
(-7.33795e-09 2.10777e-09 -7.954e-10)
(-6.58397e-09 1.74281e-09 -7.03104e-10)
(-6.58397e-09 1.74281e-09 -7.03104e-10)
(-4.4014e-09 5.90502e-10 4.81288e-10)
(-4.9022e-09 -5.12325e-10 6.52722e-10)
(-3.69408e-09 -4.94644e-10 4.81658e-10)
(-3.432e-09 4.11899e-10 4.55646e-11)
(-1.8803e-09 1.48354e-09 -5.28108e-10)
(-2.98998e-09 2.79922e-10 -3.46698e-10)
(-3.29779e-09 8.91999e-10 -4.85538e-10)
(1.29629e-09 2.3679e-08 -3.67892e-10)
(-3.64779e-09 9.50214e-10 -1.6365e-10)
(-4.4014e-09 5.90502e-10 4.81288e-10)
(-4.9022e-09 -5.12325e-10 6.52722e-10)
(-4.9022e-09 -5.12325e-10 6.52722e-10)
)
;
    }
    procBoundary7to6
    {
        type            processor;
        value           nonuniform List<vector> 
12
(
(-1.03292e-08 1.66852e-09 5.67915e-10)
(-6.9266e-09 1.36277e-09 -1.66358e-10)
(-1.97412e-09 1.72095e-10 -1.82752e-10)
(-8.19962e-09 1.35221e-09 -1.63968e-10)
(-5.25708e-09 8.75844e-10 1.8381e-10)
(-1.87827e-09 4.73741e-10 3.36352e-10)
(-5.34132e-09 1.42928e-09 -3.16e-11)
(-3.23588e-09 1.40455e-09 1.86261e-10)
(-2.81222e-10 1.19506e-10 7.27437e-10)
(-1.45103e-09 9.99198e-10 9.45943e-11)
(-5.50689e-12 1.03575e-09 2.83919e-10)
(2.49395e-10 3.84164e-10 3.94313e-10)
)
;
    }
}


// ************************************************************************* //
