/*--------------------------------*- C++ -*----------------------------------*\
| =========                 |                                                 |
| \\      /  F ield         | OpenFOAM: The Open Source CFD Toolbox           |
|  \\    /   O peration     | Version:  4.x                                   |
|   \\  /    A nd           | Web:      www.OpenFOAM.org                      |
|    \\/     M anipulation  |                                                 |
\*---------------------------------------------------------------------------*/
FoamFile
{
    version     2.0;
    format      ascii;
    class       volVectorField;
    location    "21.5";
    object      UsPrev;
}
// * * * * * * * * * * * * * * * * * * * * * * * * * * * * * * * * * * * * * //

dimensions      [0 1 -1 0 0 0 0];

internalField   nonuniform List<vector> 
132
(
(-1.13805e-08 4.41003e-09 -1.89357e-09)
(-1.12487e-08 3.67542e-09 -2.76456e-09)
(-1.04487e-08 4.56093e-09 -1.81552e-09)
(-8.9967e-09 3.5746e-09 -5.67022e-10)
(-8.5352e-09 2.72893e-09 1.47006e-09)
(-5.44014e-09 2.28629e-09 1.76008e-09)
(-4.66296e-09 -9.2628e-10 3.31237e-09)
(-3.26382e-09 1.86563e-10 2.10876e-09)
(-2.69284e-09 8.74053e-10 -2.99083e-09)
(-8.67175e-09 3.07302e-09 -2.54057e-09)
(-8.69236e-09 2.21864e-09 -3.89846e-09)
(-7.4789e-09 3.05699e-09 -3.67386e-09)
(-6.69698e-09 2.39463e-09 -3.07365e-09)
(-7.6544e-09 1.772e-09 1.32462e-09)
(-7.44427e-09 6.4724e-10 3.69233e-09)
(-6.07313e-09 -4.97459e-10 4.05486e-09)
(-5.392e-09 1.76665e-09 3.93562e-10)
(-2.67171e-09 1.58575e-09 -5.47448e-09)
(-5.72182e-09 1.88434e-09 -6.56995e-10)
(-6.44457e-09 1.52438e-09 -3.75941e-09)
(-5.28729e-09 1.10428e-09 -5.85189e-09)
(-5.09968e-09 1.00946e-09 -4.19475e-09)
(-5.85537e-09 7.25292e-10 -1.87566e-09)
(-5.83169e-09 -7.79051e-10 -9.16987e-10)
(-5.43239e-09 3.45616e-10 1.39099e-10)
(-5.07794e-09 2.32573e-09 -4.97018e-09)
(-8.96045e-09 2.34233e-09 -8.62788e-09)
(-2.18687e-09 1.87564e-11 -2.56081e-10)
(-3.7024e-09 6.17236e-10 -1.57114e-09)
(-2.88436e-09 2.43937e-10 -2.88995e-09)
(-2.64023e-09 4.15148e-10 -2.29957e-09)
(-2.39288e-09 -2.07725e-10 -2.58206e-09)
(-4.89436e-09 -1.81106e-10 -3.43888e-09)
(-4.49741e-09 2.44973e-10 -2.81864e-09)
(-2.69901e-09 -3.1033e-10 -7.55859e-09)
(-4.56737e-09 1.69686e-09 -4.93794e-09)
(-1.00109e-08 3.17918e-09 -4.6122e-10)
(-9.9463e-09 1.51832e-09 -2.94437e-10)
(-1.02804e-08 -7.689e-10 7.66189e-10)
(-7.60974e-09 6.69073e-10 1.98209e-09)
(-6.16757e-09 1.72043e-10 1.89654e-09)
(-4.00151e-09 -3.60417e-11 1.34486e-09)
(-4.45838e-09 2.14542e-10 -2.63508e-09)
(-7.2163e-09 1.63748e-09 -1.59039e-09)
(-8.31636e-09 2.82637e-09 -1.73321e-09)
(-7.83889e-09 2.95356e-09 -1.65541e-09)
(-7.13054e-09 2.37465e-09 -8.02306e-10)
(-6.87464e-09 2.14593e-09 1.10886e-09)
(-6.39677e-09 1.48949e-09 1.88221e-09)
(-5.32385e-09 1.16099e-09 1.48434e-09)
(-5.11841e-09 2.4082e-09 7.20134e-10)
(-3.51102e-09 1.01394e-10 -1.37382e-09)
(-4.9318e-09 1.06434e-09 -5.29899e-10)
(-4.65656e-09 1.14252e-10 -2.51609e-09)
(-4.66339e-09 8.52981e-10 -2.77948e-09)
(-5.48193e-09 1.38293e-09 -2.18922e-09)
(-5.03295e-09 1.24967e-09 -3.34136e-10)
(-5.6068e-09 1.46989e-10 1.67271e-10)
(-3.82497e-09 2.44548e-09 -2.74335e-10)
(-3.60052e-09 1.22646e-09 -1.6497e-09)
(-1.08152e-08 -2.67511e-09 -1.94799e-09)
(-1.96282e-09 1.00671e-10 8.05227e-11)
(-2.04454e-09 -1.68249e-10 -1.088e-09)
(-1.21328e-09 -8.32928e-10 -2.47872e-09)
(-2.60332e-09 3.51632e-10 -1.48899e-09)
(-2.92445e-09 9.85599e-10 -9.36834e-10)
(-2.01685e-09 4.76757e-10 -1.44943e-09)
(-4.72119e-10 2.65266e-09 -1.44505e-09)
(-3.20579e-09 -4.30095e-10 -2.77612e-09)
(-5.68371e-09 -1.3522e-09 -2.85209e-09)
(-7.52593e-09 2.92361e-10 3.69235e-10)
(-5.84423e-09 2.79885e-10 1.35008e-09)
(-5.26538e-09 1.45909e-10 1.37688e-09)
(-4.26785e-09 -4.55322e-10 3.8778e-10)
(-1.74451e-09 -3.61562e-10 -1.10451e-09)
(-4.68242e-09 1.23727e-09 -8.88882e-10)
(-6.18064e-09 1.80227e-09 -7.87892e-10)
(-5.16297e-09 1.84108e-09 -4.08725e-10)
(-4.92488e-09 1.91363e-09 -3.28834e-10)
(-5.08454e-09 1.37808e-09 7.46692e-10)
(-4.90718e-09 1.11926e-09 1.49748e-09)
(-4.44127e-09 1.18209e-09 1.95919e-09)
(-3.85207e-09 3.80029e-10 9.4155e-10)
(-2.00388e-09 -8.81854e-10 -3.90516e-10)
(-1.57145e-09 1.01962e-09 -4.64038e-10)
(-1.13932e-09 4.62765e-10 -1.22038e-09)
(-1.47105e-09 8.20359e-10 -6.70325e-10)
(-2.12095e-09 9.17157e-10 -5.56825e-10)
(-3.04518e-09 1.3047e-09 5.13919e-10)
(-3.24736e-09 1.41265e-09 3.84363e-10)
(-2.58123e-09 2.36908e-09 8.96833e-10)
(-3.17641e-09 -2.09584e-09 1.94154e-10)
(-1.2307e-09 -3.48693e-09 6.22957e-11)
(8.25052e-10 3.60761e-10 1.3876e-10)
(1.59428e-10 -4.67687e-11 -6.43473e-10)
(6.9123e-10 1.83067e-10 -4.81369e-10)
(-5.01298e-10 2.38116e-10 -4.42097e-10)
(-4.25528e-10 5.86884e-10 -5.20979e-11)
(3.18934e-10 2.16874e-09 -8.46632e-11)
(7.49438e-11 2.5136e-09 3.98798e-10)
(-3.51771e-09 -9.7492e-10 -9.45259e-10)
(-6.33773e-10 -3.2769e-09 -5.16152e-10)
(-5.18908e-09 -5.18174e-10 8.17691e-10)
(-5.8544e-09 8.13258e-10 2.44646e-10)
(-1.26966e-09 -2.99424e-10 -1.25861e-09)
(-1.46173e-09 1.0759e-09 -3.19235e-10)
(-2.59465e-09 1.10869e-09 -3.09999e-10)
(-2.72338e-09 8.4251e-10 -3.46022e-10)
(-2.67573e-09 8.78625e-10 -4.02612e-11)
(-2.93699e-09 7.45495e-10 6.78723e-10)
(-3.95824e-09 1.66352e-09 1.54161e-09)
(-3.61038e-09 1.02496e-09 8.46408e-10)
(-4.88305e-09 9.15121e-10 8.12489e-10)
(-8.23403e-10 1.31064e-09 -6.08965e-10)
(3.53178e-10 7.61509e-10 -3.14032e-10)
(-1.41557e-10 9.09541e-10 -1.14481e-10)
(-7.22054e-10 9.40021e-10 -8.73609e-11)
(-1.06221e-09 7.06232e-10 2.12097e-10)
(-1.11462e-09 7.67348e-10 5.82854e-10)
(-1.44129e-09 1.27995e-09 8.66383e-10)
(-1.65731e-09 1.68233e-09 1.67561e-09)
(-2.80271e-09 5.28994e-10 5.51855e-10)
(-1.43683e-09 1.89795e-09 1.80734e-10)
(7.71936e-10 3.90646e-10 9.17254e-11)
(2.2501e-10 8.16815e-10 -1.46541e-10)
(4.70194e-10 5.99864e-10 4.73626e-12)
(5.55661e-10 4.39865e-10 2.4557e-10)
(2.39793e-09 6.49681e-11 1.23017e-10)
(3.94392e-10 7.40032e-10 4.36005e-10)
(2.95132e-10 8.74204e-10 7.72434e-10)
(-1.03868e-09 -2.55492e-10 -7.63683e-11)
(-3.4064e-09 5.23409e-09 5.66173e-09)
)
;

boundaryField
{
    inlet
    {
        type            calculated;
        value           nonuniform 0();
    }
    outlet
    {
        type            calculated;
        value           uniform (0 0 0);
    }
    wall
    {
        type            calculated;
        value           uniform (0 0 0);
    }
    procBoundary7to0
    {
        type            processor;
        value           uniform (0 0 0);
    }
    procBoundary7to1
    {
        type            processor;
        value           uniform (0 0 0);
    }
    procBoundary7to3
    {
        type            processor;
        value           uniform (0 0 0);
    }
    procBoundary7to5
    {
        type            processor;
        value           uniform (0 0 0);
    }
    procBoundary7to6
    {
        type            processor;
        value           uniform (0 0 0);
    }
}


// ************************************************************************* //
