/*--------------------------------*- C++ -*----------------------------------*\
| =========                 |                                                 |
| \\      /  F ield         | OpenFOAM: The Open Source CFD Toolbox           |
|  \\    /   O peration     | Version:  4.x                                   |
|   \\  /    A nd           | Web:      www.OpenFOAM.org                      |
|    \\/     M anipulation  |                                                 |
\*---------------------------------------------------------------------------*/
FoamFile
{
    version     2.0;
    format      ascii;
    class       volVectorField;
    location    "48";
    object      GField;
}
// * * * * * * * * * * * * * * * * * * * * * * * * * * * * * * * * * * * * * //

dimensions      [1 -2 -1 0 0 0 0];

internalField   nonuniform List<vector> 
108
(
(72.5951 -1.02494 -0.858166)
(129.076 -1.06995 -1.58442)
(74.7116 -1.31556 -0.99426)
(137.421 -2.30355 0.18089)
(72.4259 -5.36794 -1.62961)
(147.227 -4.40516 4.44519)
(59.2368 -14.6128 -5.62781)
(160.752 0.628514 10.8173)
(28.892 -37.1096 -17.3398)
(54.6025 -1.36723 -0.521777)
(112.933 -0.813213 -0.557542)
(48.6207 -1.33851 -0.633582)
(112.453 -0.645654 2.8528)
(35.6442 -1.19183 -0.356272)
(103.489 0.187241 7.88086)
(12.5143 -0.193223 -0.255376)
(76.3987 -0.247778 10.1745)
(-3.8103e-05 5.52335e-06 -2.36506e-06)
(71.6552 1.93339 0.323682)
(126.69 2.52391 0.10772)
(72.6318 2.59629 1.86781)
(134.582 2.54846 2.32536)
(69.4175 7.15301 4.32269)
(145.541 2.48493 6.27829)
(57.3503 17.6975 5.67661)
(166.162 -8.24648 8.80167)
(31.0897 46.8858 -0.334353)
(90.9157 -2.02745 0.166007)
(139.136 -1.81997 -0.00294973)
(92.5959 -4.21311 1.42629)
(144.162 -3.42007 1.64133)
(89.6322 -5.73847 3.02722)
(153.697 -3.61979 4.29459)
(79.7037 -7.36162 5.85614)
(172.848 -3.48483 8.7586)
(44.4641 -2.8423 -32.4371)
(21.3414 0.239727 -1.56558)
(102.106 0.579273 -1.17538)
(17.9945 0.388415 -1.97527)
(106.185 0.0903887 1.84508)
(15.4536 0.335671 -3.19733)
(111.808 -1.03375 7.50613)
(14.3816 0.0408814 -7.09185)
(117.663 -3.47358 20.0757)
(17.2984 -2.30132 -32.7383)
(7.20246 -0.0830631 -0.988345)
(94.1983 0.958867 0.790755)
(1.28053 0.0321225 -0.293413)
(93.7799 0.52703 2.82515)
(0.000211093 1.68934e-05 -7.19393e-05)
(88.9033 -1.19417 5.7408)
(2.27083 0.700459 -0.93913)
(74.6418 -8.94763 8.9522)
(11.6958 10.2611 -4.70835)
(31.7266 1.40466 -3.0933)
(106.53 2.3455 -2.43678)
(32.2266 2.57291 -4.49583)
(114.684 -0.0139127 0.893897)
(34.3704 6.39651 -7.83125)
(128.385 -3.74308 6.41504)
(36.4284 17.5146 -15.6979)
(149.71 -14.4241 16.9547)
(24.3822 59.2381 -45.9779)
(63.9786 -1.71639 -4.22179)
(120.391 -1.51333 -3.36783)
(63.4063 -3.82876 -5.65601)
(125.397 -3.31815 -2.30902)
(58.5862 -5.67011 -8.33294)
(135.731 -4.27155 1.31734)
(49.2087 -5.94922 -11.4508)
(162.575 -2.2169 12.1971)
(29.3926 7.41765 -59.6616)
(11.6864 -1.0748 -2.25971)
(93.368 -0.62284 -0.388709)
(9.42064 -1.38284 -2.51997)
(94.3885 -1.53063 0.776686)
(9.88472 -2.67586 -4.28266)
(93.4574 -2.00221 3.82387)
(12.2651 -5.00814 -8.03481)
(85.4051 3.23636 11.8557)
(23.78 -12.6318 -27.211)
(3.65436e-05 -3.61854e-06 -1.30042e-06)
(84.7382 -0.756461 1.50717)
(3.72162e-05 -3.52999e-06 -2.0225e-06)
(84.1893 0.42025 2.34158)
(3.38072e-05 -5.13398e-06 -6.63024e-06)
(81.8636 2.58817 5.94956)
(3.18969e-05 -2.31088e-06 -9.07148e-06)
(70.1335 3.28083 8.15825)
(11.1815 -0.236674 -1.5419)
(3.81847 0.353996 -0.212909)
(92.2061 -0.635653 -0.224781)
(0.171435 0.0265107 -0.0172655)
(94.3406 -0.891995 1.14894)
(4.2878 1.25421 -0.839486)
(96.0215 -0.676012 3.76632)
(15.7694 8.3461 -5.46223)
(92.4744 -6.42868 10.0114)
(31.0849 35.4391 -21.7141)
(43.8894 -0.211074 -2.15238)
(105.297 -0.754563 -0.88517)
(40.4139 -1.02137 -2.42048)
(106.412 -3.40409 0.473344)
(34.3886 -0.667694 -3.77515)
(109.919 -4.16572 2.52699)
(28.0553 1.36914 -6.37496)
(125.327 -3.94337 8.20967)
(18.9625 11.6769 -15.7738)
)
;

boundaryField
{
    inlet
    {
        type            calculated;
        value           nonuniform 0();
    }
    outlet
    {
        type            calculated;
        value           nonuniform List<vector> 
12
(
(60.2168 -77.3438 -36.1396)
(-7.98244e-05 1.15712e-05 -4.95471e-06)
(64.8809 97.8456 -0.69776)
(91.0541 -5.8205 -66.4252)
(37.1652 -4.94432 -70.3373)
(25.093 22.0148 -10.1016)
(52.2735 127.002 -98.5728)
(62.5875 15.7948 -127.041)
(51.8398 -27.5369 -59.3192)
(24.3576 -0.51557 -3.35887)
(67.5167 76.9741 -47.1634)
(41.3378 25.4552 -34.3864)
)
;
    }
    wall
    {
        type            calculated;
        value           uniform (0 0 0);
    }
    procBoundary3to1
    {
        type            processor;
        value           nonuniform List<vector> 
27
(
(66.128 0.593519 -2.31204)
(121.253 0.94913 -2.48083)
(64.4985 1.61979 -3.15586)
(125.131 1.91828 -0.17935)
(60.8687 0.767858 -6.43894)
(134.123 2.15087 3.80526)
(54.5724 -3.12994 -14.2936)
(156.56 3.96284 14.5894)
(33.5018 -13.4026 -37.2753)
(7.99127 0.396608 -0.502606)
(94.9575 1.01607 0.69849)
(0.971276 0.0903269 -0.0980261)
(94.5181 1.30512 2.33499)
(3.91306e-05 -2.32397e-06 -7.33952e-06)
(90.0102 0.456165 5.59081)
(6.26473 0.478293 -2.47572)
(81.1111 -0.804026 13.1011)
(28.8909 0.880731 -33.8245)
(7.11291 -0.386836 -1.52974)
(91.3865 -0.0551075 0.481286)
(5.29539 -0.425071 -1.73738)
(91.8797 1.55559 0.274959)
(6.31565 -1.04998 -2.92927)
(91.674 2.9658 1.9605)
(12.4906 -4.73222 -7.41763)
(86.8015 8.86377 7.84938)
(27.613 -22.0866 -16.7572)
)
;
    }
    procBoundary3to2
    {
        type            processor;
        value           nonuniform List<vector> 
12
(
(122.714 -0.743988 -2.48142)
(112.343 -0.7031 -2.45764)
(121.3 2.42252 -1.22364)
(133.228 -0.404688 -1.10275)
(98.2 0.205797 -2.19084)
(93.8503 0.493639 -0.879784)
(102.357 3.32211 -4.05136)
(116.401 -0.0487149 -4.3007)
(92.56 -0.313462 -2.02571)
(86.1485 -1.53442 0.102066)
(90.9186 -0.0229751 -0.464818)
(103.58 0.704582 -1.57693)
)
;
    }
    procBoundary3to7
    {
        type            processor;
        value           nonuniform List<vector> 
36
(
(3.9567 0.455155 -0.732129)
(88.2775 1.15587 -0.352119)
(3.18439 0.705407 -0.966025)
(88.1043 1.6266 -0.142466)
(0.755118 0.235333 -0.322981)
(85.8614 2.22981 2.30348)
(0.178408 0.0773377 -0.10029)
(74.1563 -3.89804 10.1731)
(10.0418 4.17675 -5.30799)
(0.149029 0.0201757 -0.0176384)
(87.0167 0.447231 -0.268886)
(3.9079e-05 6.53948e-06 -1.71951e-06)
(85.249 0.0527151 0.882814)
(2.22595 0.727324 -0.226684)
(81.7434 -2.02387 2.89677)
(12.6562 6.95084 -0.753399)
(73.0778 -9.01401 4.60869)
(28.7855 31.2697 3.09721)
(27.5695 2.63259 -2.22854)
(99.2647 1.44379 -0.754224)
(27.0376 3.66191 -3.57824)
(103.802 -0.272571 -1.98108)
(26.5688 6.46978 -6.14406)
(109.225 -5.63579 -1.66463)
(24.4475 11.9362 -10.2892)
(116.787 -16.4815 4.96617)
(17.1234 27.4712 -15.2712)
(50.5761 -1.54786 -3.85701)
(109.048 -1.105 -3.42465)
(48.9946 -2.16422 -5.41024)
(112.593 -1.84064 -3.09006)
(45.0811 -2.61568 -8.55414)
(116.125 -1.88004 -0.15153)
(35.2044 -2.52467 -14.3214)
(122.513 -0.175688 7.49275)
(18.2637 -0.979312 -26.7375)
)
;
    }
}


// ************************************************************************* //
