/*--------------------------------*- C++ -*----------------------------------*\
| =========                 |                                                 |
| \\      /  F ield         | OpenFOAM: The Open Source CFD Toolbox           |
|  \\    /   O peration     | Version:  4.x                                   |
|   \\  /    A nd           | Web:      www.OpenFOAM.org                      |
|    \\/     M anipulation  |                                                 |
\*---------------------------------------------------------------------------*/
FoamFile
{
    version     2.0;
    format      ascii;
    class       volScalarField;
    location    "48";
    object      KslNext;
}
// * * * * * * * * * * * * * * * * * * * * * * * * * * * * * * * * * * * * * //

dimensions      [1 -3 -1 0 0 0 0];

internalField   nonuniform List<scalar> 
108
(
4875.68
2747.02
4721.03
2576.05
4834.41
2373.66
5582.84
2083.31
6462.28
6450.68
3128.31
7238.78
3131.51
9789.35
3368.65
27084.9
4309.05
9.8421e+09
4915.95
2793.12
4850.24
2644.03
5058.2
2441.51
5712.41
2038.92
5797.59
3809.88
2514.26
3795.84
2442.06
3906.7
2280.7
4271.91
1927.94
6016.83
16227.4
3440.65
19115.4
3284.77
21784.4
3074.54
20947.7
2791.74
8585.42
47746.1
3724.01
262916
3710.34
1.56901e+09
3864.88
130717
4362.17
19510.8
10953.8
3310.04
10702.5
3089.6
9767.39
2740.19
7883.12
2231.99
4084.28
5360.97
2895.13
5433.37
2801.77
5849.69
2586.76
6661.3
2058.39
4803.95
28067.3
3635.42
33956.6
3575.58
29953
3560.62
20881.8
3718.32
8101.7
1e+10
4005.96
1e+10
3995.11
1e+10
4048.75
1e+10
4536.73
27424.6
88394.6
3712.69
1.93363e+06
3603.57
73784.3
3509.07
17684.3
3497.07
6026.15
7627.14
3220.15
8287.52
3169.86
9710.09
3055.49
11364
2582.83
11394.7
)
;

boundaryField
{
    inlet
    {
        type            zeroGradient;
    }
    outlet
    {
        type            zeroGradient;
    }
    wall
    {
        type            zeroGradient;
    }
    procBoundary3to1
    {
        type            processor;
        value           uniform 0;
    }
    procBoundary3to2
    {
        type            processor;
        value           uniform 0;
    }
    procBoundary3to7
    {
        type            processor;
        value           uniform 0;
    }
}


// ************************************************************************* //
