/*--------------------------------*- C++ -*----------------------------------*\
| =========                 |                                                 |
| \\      /  F ield         | OpenFOAM: The Open Source CFD Toolbox           |
|  \\    /   O peration     | Version:  4.x                                   |
|   \\  /    A nd           | Web:      www.OpenFOAM.org                      |
|    \\/     M anipulation  |                                                 |
\*---------------------------------------------------------------------------*/
FoamFile
{
    version     2.0;
    format      ascii;
    class       volScalarField;
    location    "48";
    object      KslPrev;
}
// * * * * * * * * * * * * * * * * * * * * * * * * * * * * * * * * * * * * * //

dimensions      [1 -3 -1 0 0 0 0];

internalField   nonuniform List<scalar> 
108
(
4875.68
2747
4721.03
2576.06
4834.42
2373.66
5583.09
2083.32
6462.24
6450.67
3128.31
7238.77
3131.51
9789.26
3368.62
27079.9
4309.08
1e+10
4915.94
2793.12
4850.24
2644.03
5058.19
2441.5
5712.38
2038.93
5797.72
3809.87
2514.26
3795.84
2442.06
3906.7
2280.7
4271.91
1927.94
6016.85
16227.4
3440.65
19115.4
3284.78
21783.9
3074.48
20948.4
2791.79
8585.51
47745.1
3724.01
262879
3710.34
1.55209e+09
3864.84
130717
4362.26
19511.1
10953.7
3310.04
10702.5
3089.6
9767.35
2740.19
7883.14
2232
4084.28
5360.97
2895.14
5433.37
2801.77
5849.68
2586.76
6661.31
2058.39
4803.96
28067.5
3635.43
33957.3
3575.59
29952.8
3560.62
20881.2
3718.35
8101.76
1e+10
4005.96
1e+10
3995.11
1e+10
4048.74
1e+10
4536.76
27425.7
88387.2
3712.69
1.93072e+06
3603.57
73778.8
3509.07
17684.3
3497.09
6026.15
7627.11
3220.15
8287.48
3169.86
9710.02
3055.49
11363.9
2582.83
11394.7
)
;

boundaryField
{
    inlet
    {
        type            zeroGradient;
    }
    outlet
    {
        type            zeroGradient;
    }
    wall
    {
        type            zeroGradient;
    }
    procBoundary3to1
    {
        type            processor;
        value           uniform 0;
    }
    procBoundary3to2
    {
        type            processor;
        value           uniform 0;
    }
    procBoundary3to7
    {
        type            processor;
        value           uniform 0;
    }
}


// ************************************************************************* //
