/*--------------------------------*- C++ -*----------------------------------*\
| =========                 |                                                 |
| \\      /  F ield         | OpenFOAM: The Open Source CFD Toolbox           |
|  \\    /   O peration     | Version:  4.x                                   |
|   \\  /    A nd           | Web:      www.OpenFOAM.org                      |
|    \\/     M anipulation  |                                                 |
\*---------------------------------------------------------------------------*/
FoamFile
{
    version     2.0;
    format      ascii;
    class       volScalarField;
    location    "48";
    object      QWallFluid;
}
// * * * * * * * * * * * * * * * * * * * * * * * * * * * * * * * * * * * * * //

dimensions      [1 -1 -3 0 0 0 0];

internalField   nonuniform List<scalar> 
108
(
6.60091e+08
1.04601e+09
6.75482e+08
1.09979e+09
6.60348e+08
1.16284e+09
5.7627e+08
1.24891e+09
4.90754e+08
5.2567e+08
9.39915e+08
4.79112e+08
9.36944e+08
3.73784e+08
8.78498e+08
1.61755e+08
6.92378e+08
6307.44
6.53352e+08
1.03058e+09
6.6078e+08
1.08174e+09
6.40463e+08
1.15234e+09
5.68847e+08
1.28279e+09
5.38227e+08
1.58069e+09
2.22142e+09
1.60518e+09
2.28585e+09
1.56577e+09
2.40665e+09
1.43032e+09
2.64543e+09
1.05887e+09
0
0
0
0
0
0
0
0
0
0
0
0
0
0
0
0
0
0
0
0
0
0
0
0
0
0
0
5.97758e+08
9.89597e+08
5.95016e+08
1.02242e+09
5.62499e+08
1.0893e+09
4.96598e+08
1.26087e+09
6.18401e+08
0
0
0
0
0
0
0
0
0
0
0
0
0
0
0
0
0
0
0
0
0
0
0
0
0
0
0
4.417e+08
8.88734e+08
4.13786e+08
8.96588e+08
3.64834e+08
9.20489e+08
3.15043e+08
1.02369e+09
3.01731e+08
)
;

boundaryField
{
    inlet
    {
        type            calculated;
        value           nonuniform 0();
    }
    outlet
    {
        type            calculated;
        value           uniform 0;
    }
    wall
    {
        type            calculated;
        value           uniform 0;
    }
    procBoundary3to1
    {
        type            processor;
        value           nonuniform List<scalar> 
27
(
6.12849e+08
9.95074e+08
6.0115e+08
1.02036e+09
5.7583e+08
1.07896e+09
5.40079e+08
1.22511e+09
5.04444e+08
0
0
0
0
0
0
0
0
0
0
0
0
0
0
0
0
0
0
)
;
    }
    procBoundary3to2
    {
        type            processor;
        value           nonuniform List<scalar> 
12
(
1.00464e+09
9.36148e+08
9.95393e+08
2.14555e+09
0
0
0
9.63433e+08
0
0
0
8.7718e+08
)
;
    }
    procBoundary3to7
    {
        type            processor;
        value           nonuniform List<scalar> 
36
(
0
0
0
0
0
0
0
0
0
0
0
0
0
0
0
0
0
0
0
0
0
0
0
0
0
0
0
4.95615e+08
9.14327e+08
4.84593e+08
9.38007e+08
4.57849e+08
9.61179e+08
3.93972e+08
1.00465e+09
3.46097e+08
)
;
    }
}


// ************************************************************************* //
