/*--------------------------------*- C++ -*----------------------------------*\
| =========                 |                                                 |
| \\      /  F ield         | OpenFOAM: The Open Source CFD Toolbox           |
|  \\    /   O peration     | Version:  4.x                                   |
|   \\  /    A nd           | Web:      www.OpenFOAM.org                      |
|    \\/     M anipulation  |                                                 |
\*---------------------------------------------------------------------------*/
FoamFile
{
    version     2.0;
    format      ascii;
    class       volVectorField;
    location    "48";
    object      U;
}
// * * * * * * * * * * * * * * * * * * * * * * * * * * * * * * * * * * * * * //

dimensions      [0 1 -1 0 0 0 0];

internalField   nonuniform List<vector> 
108
(
(0.0225616 -0.000318501 -0.00026672)
(0.0399478 -0.000330991 -0.000490406)
(0.023262 -0.000409188 -0.000309782)
(0.0424931 -0.000712096 5.5881e-05)
(0.0224308 -0.0016623 -0.000504704)
(0.0455124 -0.00136142 0.00137423)
(0.018455 -0.00455198 -0.00175274)
(0.0501279 0.000197208 0.0033738)
(0.0089882 -0.0115435 -0.00539391)
(0.0169726 -0.000424973 -0.000162223)
(0.0353497 -0.00025457 -0.000174555)
(0.015134 -0.000416818 -0.00019728)
(0.0349342 -0.000200555 0.000886204)
(0.0110888 -0.000370682 -0.000110842)
(0.0321063 5.82253e-05 0.00244493)
(0.00391536 -6.01697e-05 -7.99016e-05)
(0.0239143 -7.66373e-05 0.00318421)
(-1.40643e-08 1.95562e-09 -1.11755e-09)
(0.0222582 0.000600494 0.000100448)
(0.0394786 0.000786446 3.35427e-05)
(0.0226651 0.000810109 0.000582842)
(0.041789 0.000791309 0.00072203)
(0.0215848 0.00222418 0.00134409)
(0.0451538 0.000770918 0.00194779)
(0.0179167 0.00552857 0.00177333)
(0.0519754 -0.00258025 0.00275298)
(0.00968326 0.0146035 -0.000104162)
(0.0279947 -0.000624372 5.12403e-05)
(0.0428841 -0.000560969 -8.84899e-07)
(0.0286298 -0.00130267 0.000440995)
(0.0448843 -0.00106483 0.000511015)
(0.0278765 -0.00178472 0.000941484)
(0.0476792 -0.00112294 0.00133222)
(0.0246921 -0.00228074 0.0018142)
(0.0539565 -0.00108804 0.00273406)
(0.0135899 -0.000868802 -0.00991413)
(0.00676933 7.60401e-05 -0.000496624)
(0.0323745 0.000183736 -0.000372748)
(0.00575521 0.000124366 -0.000632027)
(0.0339154 2.89894e-05 0.000589203)
(0.00492157 0.000107053 -0.00101828)
(0.035557 -0.000328299 0.00238703)
(0.004592 1.42457e-05 -0.00226435)
(0.0376517 -0.00111102 0.00642486)
(0.00554702 -0.000737966 -0.0104981)
(0.00228325 -2.64009e-05 -0.000313359)
(0.0299124 0.000304484 0.000251032)
(0.0004086 1.02581e-05 -9.3733e-05)
(0.0298744 0.000167947 0.000899895)
(6.77382e-08 6.05974e-09 -2.31716e-08)
(0.0283118 -0.000380268 0.0018281)
(0.000729167 0.000224465 -0.000301752)
(0.0239347 -0.00286906 0.00286989)
(0.00374493 0.00328582 -0.00150795)
(0.0101135 0.000447847 -0.000986109)
(0.0338824 0.000746009 -0.000775074)
(0.0102683 0.000819791 -0.00143253)
(0.0365754 -4.42173e-06 0.000285034)
(0.0109411 0.00203618 -0.00249293)
(0.0409287 -0.00119334 0.002045)
(0.0116327 0.00559268 -0.00501296)
(0.0479183 -0.00461696 0.00542649)
(0.00780179 0.0189555 -0.0147124)
(0.0201883 -0.000541463 -0.00133212)
(0.0378645 -0.000475936 -0.00105923)
(0.0200357 -0.00120985 -0.00178726)
(0.0397306 -0.00105131 -0.000731616)
(0.018654 -0.00180538 -0.00265326)
(0.043041 -0.00135456 0.000417678)
(0.0156501 -0.00189215 -0.00364186)
(0.0518501 -0.000707107 0.00388996)
(0.00934127 0.0023574 -0.0189614)
(0.00377712 -0.000347383 -0.000730376)
(0.0303166 -0.000202219 -0.000126256)
(0.0030651 -0.000449895 -0.000819964)
(0.0307171 -0.000498103 0.00025271)
(0.00320592 -0.00086774 -0.001389)
(0.0304018 -0.000651092 0.00124375)
(0.00401312 -0.00163826 -0.00262961)
(0.0278508 0.00105558 0.00386612)
(0.00773724 -0.00410998 -0.00885365)
(1.18826e-08 -1.19848e-09 -4.69756e-10)
(0.0273136 -0.000243823 0.000485762)
(1.21159e-08 -1.01444e-09 -8.39471e-10)
(0.0270842 0.000135282 0.000753229)
(1.11176e-08 -1.51797e-09 -2.29716e-09)
(0.0266583 0.000842881 0.00193725)
(1.03203e-08 -7.26247e-10 -3.52034e-09)
(0.0229639 0.00107431 0.00267104)
(0.00363537 -7.69632e-05 -0.000501309)
(0.00122269 0.000113377 -6.81297e-05)
(0.0297451 -0.000205041 -7.2534e-05)
(5.54426e-05 8.58922e-06 -5.61567e-06)
(0.0303742 -0.00028715 0.000369866)
(0.00138652 0.000405591 -0.000271516)
(0.0312662 -0.000220128 0.00122627)
(0.00513114 0.00271566 -0.0017775)
(0.0301296 -0.0020946 0.00326172)
(0.010077 0.0114886 -0.00703933)
(0.0140668 -6.76214e-05 -0.000689938)
(0.0334959 -0.00024002 -0.000281615)
(0.0129287 -0.000326748 -0.000774347)
(0.0341288 -0.00109176 0.000151791)
(0.0110674 -0.000214884 -0.00121499)
(0.0355967 -0.00134904 0.000818297)
(0.00909162 0.000443661 -0.00206596)
(0.0407913 -0.00128348 0.00267202)
(0.0061697 0.00379926 -0.00513231)
)
;

boundaryField
{
    inlet
    {
        type            fixedValue;
        value           nonuniform 0();
    }
    outlet
    {
        type            zeroGradient;
    }
    wall
    {
        type            fixedValue;
        value           uniform (0 0 0);
    }
    procBoundary3to1
    {
        type            processor;
        value           nonuniform List<vector> 
27
(
(0.0202669 0.000181946 -0.000708594)
(0.0373919 0.000292849 -0.000764999)
(0.0200011 0.000502726 -0.000978423)
(0.0389573 0.00059743 -5.57813e-05)
(0.0188935 0.000238531 -0.00199861)
(0.041622 0.000667755 0.00118082)
(0.0170294 -0.00097641 -0.00446085)
(0.0487819 0.00123441 0.00454591)
(0.0103845 -0.00415425 -0.0115537)
(0.00251193 0.000124694 -0.000157998)
(0.029878 0.000319779 0.000219838)
(0.00030642 2.86324e-05 -3.06626e-05)
(0.0298733 0.000412612 0.000738107)
(1.20605e-08 -3.70957e-10 -2.29167e-09)
(0.0286755 0.000145703 0.00178123)
(0.00200781 0.000154306 -0.000793347)
(0.0260715 -0.000258209 0.00421119)
(0.0091283 0.000278303 -0.0106868)
(0.00228458 -0.000124238 -0.000491358)
(0.0293234 -1.76522e-05 0.000154458)
(0.00169791 -0.000136264 -0.000556962)
(0.0298016 0.000504586 8.92182e-05)
(0.00205072 -0.000340858 -0.000951204)
(0.0298714 0.000966602 0.000639001)
(0.00406561 -0.00153997 -0.00241361)
(0.0282166 0.00288147 0.0025518)
(0.00884029 -0.00707089 -0.00536476)
)
;
    }
    procBoundary3to2
    {
        type            processor;
        value           nonuniform List<vector> 
12
(
(0.0377592 -0.000228929 -0.000763555)
(0.0345862 -0.000216538 -0.000756651)
(0.0373489 0.000745809 -0.000376758)
(0.040581 -0.00012329 -0.000335853)
(0.0310517 6.50508e-05 -0.000692809)
(0.0294684 0.000154945 -0.000276291)
(0.0321374 0.00104304 -0.00127202)
(0.0361762 -1.5125e-05 -0.00133658)
(0.0296597 -0.000100457 -0.000649155)
(0.0274714 -0.000489334 3.25225e-05)
(0.0291081 -7.37364e-06 -0.000148806)
(0.0328918 0.000223744 -0.00050076)
)
;
    }
    procBoundary3to7
    {
        type            processor;
        value           nonuniform List<vector> 
36
(
(0.00129598 0.000149084 -0.000239825)
(0.0289426 0.000378967 -0.000115474)
(0.00104202 0.000230793 -0.000316139)
(0.0289463 0.000534436 -4.68107e-05)
(0.000250724 7.81959e-05 -0.000107266)
(0.0285601 0.000741799 0.000766123)
(5.91516e-05 2.57269e-05 -3.34006e-05)
(0.0244101 -0.00128306 0.00334861)
(0.00332303 0.00138218 -0.00175654)
(4.85886e-05 6.57692e-06 -5.76452e-06)
(0.0286162 0.000147094 -8.84561e-05)
(1.28284e-08 2.17846e-09 -6.6911e-10)
(0.027949 1.73327e-05 0.000289372)
(0.000734881 0.000240168 -7.49388e-05)
(0.0269318 -0.00066674 0.00095427)
(0.00418479 0.00229837 -0.000249285)
(0.0241029 -0.00297304 0.00151998)
(0.00951956 0.0103412 0.00102424)
(0.00888715 0.000848634 -0.000718392)
(0.0323717 0.000470863 -0.000245986)
(0.00882035 0.00119465 -0.00116734)
(0.0339308 -8.90336e-05 -0.000647625)
(0.008738 0.00212786 -0.00202077)
(0.0360915 -0.0018622 -0.000550122)
(0.0080807 0.00394536 -0.00340097)
(0.0385063 -0.00543417 0.00163734)
(0.00565202 0.00906766 -0.0050407)
(0.0162983 -0.000498796 -0.00124297)
(0.0353393 -0.00035809 -0.00110987)
(0.0159925 -0.000706413 -0.00176599)
(0.0365902 -0.000598132 -0.00100418)
(0.0147582 -0.000856261 -0.0028003)
(0.0381204 -0.000617136 -4.97072e-05)
(0.0115954 -0.000831576 -0.00471715)
(0.0400992 -5.74966e-05 0.00245235)
(0.00593317 -0.000318161 -0.00868606)
)
;
    }
}


// ************************************************************************* //
