/*--------------------------------*- C++ -*----------------------------------*\
| =========                 |                                                 |
| \\      /  F ield         | OpenFOAM: The Open Source CFD Toolbox           |
|  \\    /   O peration     | Version:  4.x                                   |
|   \\  /    A nd           | Web:      www.OpenFOAM.org                      |
|    \\/     M anipulation  |                                                 |
\*---------------------------------------------------------------------------*/
FoamFile
{
    version     2.0;
    format      ascii;
    class       volVectorField;
    location    "48";
    object      UsNext;
}
// * * * * * * * * * * * * * * * * * * * * * * * * * * * * * * * * * * * * * //

dimensions      [0 1 -1 0 0 0 0];

internalField   nonuniform List<vector> 
108
(
(2.33547e-09 -3.45776e-09 1.62086e-09)
(3.0601e-09 -5.33269e-09 2.08481e-09)
(3.50071e-09 -6.77619e-09 6.74812e-10)
(2.08035e-09 -2.4574e-09 3.54752e-10)
(1.34048e-09 -1.40878e-09 -3.17162e-10)
(1.73722e-09 -6.38588e-10 -7.0098e-10)
(1.28607e-09 -6.83607e-10 -7.84913e-10)
(-2.87876e-09 2.09076e-10 -8.1986e-10)
(-1.30343e-08 -8.19988e-10 -2.30076e-10)
(1.7987e-09 -1.58258e-09 9.40161e-10)
(1.73685e-09 -1.86849e-09 6.99317e-10)
(1.84252e-09 -1.87952e-09 3.42132e-10)
(1.5034e-09 -1.09773e-09 1.02249e-10)
(8.7391e-10 -7.81293e-10 -1.90652e-10)
(1.36067e-10 -3.60129e-10 -6.78682e-10)
(-7.50566e-10 -2.46674e-10 -9.35258e-10)
(-3.47685e-09 6.53648e-10 -1.83773e-09)
(-2.2039e-08 7.50841e-10 -1.07001e-09)
(1.76787e-09 -3.6e-10 4.64816e-10)
(2.18228e-09 -1.34536e-09 4.45428e-10)
(1.49848e-09 -6.51053e-10 2.85232e-10)
(1.29552e-09 -4.85397e-10 1.57636e-10)
(7.38779e-10 -4.75264e-10 -2.00257e-11)
(-5.9532e-10 -1.56878e-10 -6.4154e-10)
(-1.54781e-09 1.13675e-10 -8.22895e-10)
(-5.36617e-09 -1.4718e-09 -3.15761e-09)
(-3.57561e-09 1.24302e-08 -5.70099e-09)
(8.80686e-10 -3.81382e-10 2.24362e-10)
(1.4074e-09 -1.03945e-09 -3.84652e-11)
(1.31134e-09 -2.40551e-09 1.31464e-10)
(7.7953e-10 -2.12023e-10 1.53108e-10)
(1.01157e-09 -1.35279e-10 1.1898e-10)
(2.04207e-10 1.65977e-10 -7.32473e-10)
(5.03146e-09 1.59176e-09 -7.42304e-10)
(4.96206e-09 1.69767e-09 -3.18386e-09)
(-3.63748e-09 5.05857e-07 -2.09038e-08)
(2.39313e-09 -2.22868e-09 1.38888e-09)
(2.56023e-09 -1.39146e-09 1.48081e-09)
(2.26478e-09 -1.71799e-09 1.12996e-09)
(2.29375e-09 -1.29238e-09 3.97705e-10)
(2.34745e-09 -1.12799e-09 -3.85654e-10)
(2.05388e-09 -7.71285e-10 -1.00251e-09)
(1.94416e-09 -2.88346e-10 -1.87255e-09)
(1.42392e-09 2.80166e-10 -9.08618e-10)
(-1.03081e-09 -8.00652e-10 -4.71704e-10)
(1.83746e-09 -1.07664e-09 7.40643e-10)
(2.13206e-09 -1.31892e-09 5.39475e-10)
(1.97474e-09 -1.43956e-09 1.55395e-10)
(1.88418e-09 -1.1117e-09 -1.57676e-11)
(1.54676e-09 -6.91565e-10 -1.63994e-10)
(9.52602e-10 -6.77211e-10 -7.59052e-10)
(1.68411e-09 5.99794e-10 -1.38864e-09)
(-5.65932e-11 1.20022e-10 -2.11892e-09)
(3.90251e-10 2.98771e-10 -1.83446e-09)
(1.5693e-09 -6.12999e-10 5.64608e-10)
(1.70614e-09 -7.83105e-10 2.84648e-10)
(1.60645e-09 -8.32001e-10 2.05137e-10)
(1.2787e-09 -5.3108e-10 1.61419e-10)
(9.27508e-10 -3.59171e-10 -7.17686e-13)
(9.72629e-11 -3.90292e-10 -2.03538e-10)
(-1.28778e-09 -4.55478e-10 -1.04386e-09)
(-1.93413e-09 1.07484e-11 -3.17589e-09)
(-1.44713e-09 -1.70946e-11 -3.53075e-09)
(1.00557e-09 -2.11595e-10 3.2667e-10)
(1.34464e-09 -5.78149e-10 5.47837e-11)
(8.18291e-10 -3.75682e-10 5.7864e-11)
(8.40295e-10 -2.71329e-10 1.14665e-10)
(8.5812e-10 -6.39776e-11 -1.62124e-11)
(1.16357e-09 -2.79508e-10 -1.57065e-10)
(8.76672e-10 3.30255e-10 -9.74656e-10)
(1.89664e-10 3.28787e-10 -3.44161e-09)
(-7.9747e-10 1.26513e-10 -1.2446e-08)
(2.33529e-09 -4.3228e-10 1.35953e-09)
(2.5286e-09 -3.21755e-10 1.7342e-09)
(2.48107e-09 6.50028e-10 2.27861e-09)
(2.77352e-09 -7.26209e-10 6.9603e-10)
(2.75873e-09 -8.5399e-10 -1.78962e-10)
(2.57474e-09 -3.02815e-10 -1.15678e-09)
(2.2174e-09 -2.24934e-10 -1.79167e-09)
(1.82312e-09 -1.22901e-10 -1.52097e-09)
(1.30371e-09 -2.36412e-10 -8.41529e-10)
(1.86304e-09 -5.33555e-10 7.55631e-10)
(2.29613e-09 -7.27613e-10 5.21083e-10)
(2.74115e-09 -2.29951e-10 6.01786e-10)
(2.35795e-09 -4.58787e-10 2.02381e-10)
(2.16343e-09 -5.22448e-10 -3.21475e-10)
(1.85787e-09 -2.8695e-10 -7.06305e-10)
(1.3687e-09 -1.44862e-10 -1.31756e-09)
(8.44187e-10 1.03339e-10 -1.74644e-09)
(3.10192e-10 -5.16065e-11 -8.99749e-10)
(1.53583e-09 -4.68365e-10 3.73608e-10)
(1.7547e-09 -6.32703e-10 2.87279e-10)
(1.62535e-09 -1.51858e-10 3.77316e-10)
(9.62816e-10 -4.93821e-10 3.465e-10)
(9.72718e-10 -2.9822e-10 4.6287e-11)
(5.12662e-10 -8.38537e-11 -1.51042e-10)
(-3.33038e-10 -2.16498e-10 -7.80428e-10)
(-1.34005e-10 3.3771e-11 -2.51679e-09)
(-1.11601e-10 -4.4375e-10 -2.62385e-09)
(7.95338e-10 -3.73144e-10 2.34343e-10)
(8.96391e-10 -3.80871e-10 1.26474e-10)
(8.49263e-10 -3.45762e-10 2.20734e-10)
(3.75747e-10 8.30826e-11 1.81736e-10)
(1.77704e-10 -1.44053e-10 4.73844e-11)
(-9.8679e-11 2.83271e-11 5.435e-11)
(-7.86988e-10 1.63169e-11 -6.0947e-10)
(-1.00504e-09 -3.82371e-10 -2.30269e-09)
(-5.64809e-10 -1.38867e-09 -4.36329e-09)
)
;

boundaryField
{
    inlet
    {
        type            calculated;
        value           nonuniform 0();
    }
    outlet
    {
        type            calculated;
        value           nonuniform List<vector> 
12
(
(-1.30343e-08 -8.19988e-10 -2.30076e-10)
(-2.2039e-08 7.50841e-10 -1.07001e-09)
(-3.57561e-09 1.24302e-08 -5.70099e-09)
(-3.63748e-09 5.05857e-07 -2.09038e-08)
(-1.03081e-09 -8.00652e-10 -4.71704e-10)
(3.90251e-10 2.98771e-10 -1.83446e-09)
(-1.44713e-09 -1.70946e-11 -3.53075e-09)
(-7.9747e-10 1.26513e-10 -1.2446e-08)
(1.30371e-09 -2.36412e-10 -8.41529e-10)
(3.10192e-10 -5.16065e-11 -8.99749e-10)
(-1.11601e-10 -4.4375e-10 -2.62385e-09)
(-5.64809e-10 -1.38867e-09 -4.36329e-09)
)
;
    }
    wall
    {
        type            calculated;
        value           nonuniform List<vector> 
63
(
(2.33547e-09 -3.45776e-09 1.62086e-09)
(1.7987e-09 -1.58258e-09 9.40161e-10)
(1.76787e-09 -3.6e-10 4.64816e-10)
(8.80686e-10 -3.81382e-10 2.24362e-10)
(3.0601e-09 -5.33269e-09 2.08481e-09)
(1.73685e-09 -1.86849e-09 6.99317e-10)
(2.18228e-09 -1.34536e-09 4.45428e-10)
(1.4074e-09 -1.03945e-09 -3.84652e-11)
(3.50071e-09 -6.77619e-09 6.74812e-10)
(1.84252e-09 -1.87952e-09 3.42132e-10)
(1.49848e-09 -6.51053e-10 2.85232e-10)
(1.31134e-09 -2.40551e-09 1.31464e-10)
(2.08035e-09 -2.4574e-09 3.54752e-10)
(1.5034e-09 -1.09773e-09 1.02249e-10)
(1.29552e-09 -4.85397e-10 1.57636e-10)
(7.7953e-10 -2.12023e-10 1.53108e-10)
(1.34048e-09 -1.40878e-09 -3.17162e-10)
(8.7391e-10 -7.81293e-10 -1.90652e-10)
(7.38779e-10 -4.75264e-10 -2.00257e-11)
(1.01157e-09 -1.35279e-10 1.1898e-10)
(1.73722e-09 -6.38588e-10 -7.0098e-10)
(1.36067e-10 -3.60129e-10 -6.78682e-10)
(-5.9532e-10 -1.56878e-10 -6.4154e-10)
(2.04207e-10 1.65977e-10 -7.32473e-10)
(1.28607e-09 -6.83607e-10 -7.84913e-10)
(-7.50566e-10 -2.46674e-10 -9.35258e-10)
(-1.54781e-09 1.13675e-10 -8.22895e-10)
(5.03146e-09 1.59176e-09 -7.42304e-10)
(-2.87876e-09 2.09076e-10 -8.1986e-10)
(-3.47685e-09 6.53648e-10 -1.83773e-09)
(-5.36617e-09 -1.4718e-09 -3.15761e-09)
(4.96206e-09 1.69767e-09 -3.18386e-09)
(-1.30343e-08 -8.19988e-10 -2.30076e-10)
(-2.2039e-08 7.50841e-10 -1.07001e-09)
(-3.57561e-09 1.24302e-08 -5.70099e-09)
(-3.63748e-09 5.05857e-07 -2.09038e-08)
(8.80686e-10 -3.81382e-10 2.24362e-10)
(1.00557e-09 -2.11595e-10 3.2667e-10)
(7.95338e-10 -3.73144e-10 2.34343e-10)
(1.4074e-09 -1.03945e-09 -3.84652e-11)
(1.34464e-09 -5.78149e-10 5.47837e-11)
(8.96391e-10 -3.80871e-10 1.26474e-10)
(1.31134e-09 -2.40551e-09 1.31464e-10)
(8.18291e-10 -3.75682e-10 5.7864e-11)
(8.49263e-10 -3.45762e-10 2.20734e-10)
(7.7953e-10 -2.12023e-10 1.53108e-10)
(8.40295e-10 -2.71329e-10 1.14665e-10)
(3.75747e-10 8.30826e-11 1.81736e-10)
(1.01157e-09 -1.35279e-10 1.1898e-10)
(8.5812e-10 -6.39776e-11 -1.62124e-11)
(1.77704e-10 -1.44053e-10 4.73844e-11)
(2.04207e-10 1.65977e-10 -7.32473e-10)
(1.16357e-09 -2.79508e-10 -1.57065e-10)
(-9.8679e-11 2.83271e-11 5.435e-11)
(5.03146e-09 1.59176e-09 -7.42304e-10)
(8.76672e-10 3.30255e-10 -9.74656e-10)
(-7.86988e-10 1.63169e-11 -6.0947e-10)
(4.96206e-09 1.69767e-09 -3.18386e-09)
(1.89664e-10 3.28787e-10 -3.44161e-09)
(-1.00504e-09 -3.82371e-10 -2.30269e-09)
(-3.63748e-09 5.05857e-07 -2.09038e-08)
(-7.9747e-10 1.26513e-10 -1.2446e-08)
(-5.64809e-10 -1.38867e-09 -4.36329e-09)
)
;
    }
    procBoundary3to1
    {
        type            processor;
        value           nonuniform List<vector> 
27
(
(3.71197e-09 -6.36665e-09 4.78486e-09)
(1.82912e-09 -9.64202e-09 7.68267e-09)
(1.80622e-09 -5.64811e-09 4.32656e-09)
(3.66572e-10 -1.74116e-09 1.30079e-09)
(7.93656e-10 -1.50291e-09 1.57431e-12)
(1.56983e-09 -6.91953e-10 -6.49525e-10)
(2.44014e-09 -7.53703e-10 -1.73771e-09)
(1.81574e-09 -3.43601e-09 -4.91669e-09)
(3.3375e-09 -7.76292e-10 -2.77328e-09)
(1.36199e-09 -1.32538e-09 4.00404e-09)
(2.10538e-09 -1.71378e-09 6.91004e-09)
(2.29126e-09 -1.36137e-09 3.61717e-09)
(9.48458e-10 -1.90387e-09 1.64468e-09)
(1.43872e-09 -1.64474e-09 -2.35001e-10)
(1.8603e-09 -9.94524e-10 -9.94119e-10)
(2.78987e-09 -5.55179e-10 -2.42411e-09)
(3.27829e-09 -8.88425e-10 -2.14564e-09)
(1.27623e-09 -2.10776e-09 -3.93525e-09)
(1.12033e-09 6.28117e-10 3.36237e-09)
(2.1467e-09 1.15314e-09 4.51209e-09)
(2.75572e-09 1.27048e-09 5.13909e-09)
(2.54301e-09 4.7016e-12 1.85292e-09)
(2.19428e-09 -4.06331e-10 5.64149e-11)
(2.17654e-09 -2.76258e-10 -8.8969e-10)
(2.12319e-09 -1.41017e-10 -1.76608e-09)
(1.72745e-09 -1.28332e-10 -1.79004e-09)
(1.16744e-09 -1.04765e-09 -1.1342e-09)
)
;
    }
    procBoundary3to2
    {
        type            processor;
        value           nonuniform List<vector> 
12
(
(2.24051e-09 -2.05658e-09 1.52752e-09)
(1.72914e-09 -1.47632e-09 1.01509e-09)
(1.62417e-09 -1.05065e-09 8.1409e-10)
(1.17218e-09 -6.58448e-10 4.90981e-10)
(1.6934e-09 -1.01062e-09 1.45549e-09)
(1.67171e-09 -9.36013e-10 8.04134e-10)
(1.27955e-09 -6.91741e-10 5.11843e-10)
(5.87487e-10 -2.24358e-10 1.62228e-10)
(1.34965e-09 -7.96956e-12 1.51975e-09)
(1.20422e-09 -2.97072e-10 5.95497e-10)
(1.06654e-09 -3.85763e-10 3.39937e-10)
(6.44458e-10 -1.67902e-10 2.21941e-10)
)
;
    }
    procBoundary3to7
    {
        type            processor;
        value           nonuniform List<vector> 
36
(
(2.34887e-09 1.97449e-10 1.45289e-09)
(2.65506e-09 1.99572e-10 1.36775e-09)
(2.92938e-09 5.74905e-10 1.70663e-09)
(2.94383e-09 2.88871e-10 4.6053e-10)
(2.66334e-09 1.53232e-10 -7.68955e-11)
(2.18821e-09 1.20112e-10 -1.0286e-09)
(1.52099e-09 2.43149e-10 -1.28548e-09)
(1.21929e-09 3.31102e-10 -1.44258e-09)
(4.71827e-10 3.89304e-11 -4.62813e-10)
(2.13522e-09 -2.50527e-10 6.51803e-10)
(2.59006e-09 -4.86838e-11 6.7135e-10)
(2.72856e-09 6.7223e-11 6.72314e-10)
(2.96406e-09 2.0791e-10 3.70839e-10)
(2.40517e-09 8.02008e-11 -5.63117e-13)
(1.89656e-09 1.41037e-10 -4.31784e-10)
(1.60309e-09 1.19916e-10 -7.49036e-10)
(1.08667e-09 2.31967e-10 -1.21292e-09)
(3.93793e-10 2.31363e-10 -5.45195e-10)
(1.65982e-09 -1.41402e-11 2.5571e-10)
(2.0187e-09 -2.54071e-10 2.44344e-10)
(1.90043e-09 1.22719e-10 5.91509e-10)
(1.67739e-09 3.15247e-10 4.51318e-10)
(1.48155e-09 1.18921e-10 1.30048e-10)
(9.99798e-10 2.02403e-10 5.03054e-11)
(5.98785e-10 1.36156e-10 -6.45098e-10)
(7.32031e-10 2.59981e-10 -1.43928e-09)
(-4.11767e-10 1.72115e-10 -7.35172e-10)
(6.49211e-10 -1.49919e-10 1.18853e-10)
(9.954e-10 -2.3986e-10 1.81703e-10)
(8.65247e-10 9.04001e-11 3.16284e-10)
(7.35937e-10 1.80123e-10 3.7043e-10)
(5.1367e-10 8.59464e-11 2.94663e-10)
(3.10845e-10 1.5909e-10 3.83622e-10)
(8.1996e-11 1.28959e-11 -3.92463e-10)
(2.22905e-10 8.54007e-11 -1.16708e-09)
(-2.68796e-10 2.17402e-11 -1.32333e-10)
)
;
    }
}


// ************************************************************************* //
