/*--------------------------------*- C++ -*----------------------------------*\
  =========                 |
  \\      /  F ield         | OpenFOAM: The Open Source CFD Toolbox
   \\    /   O peration     | Website:  https://openfoam.org
    \\  /    A nd           | Version:  4.x
     \\/     M anipulation  |
\*---------------------------------------------------------------------------*/
FoamFile
{
    version     2.0;
    format      ascii;
    class       vectorField;
    location    0;
    object      v;
}
// * * * * * * * * * * * * * * * * * * * * * * * * * * * * * * * * * * * * * //

313
(
( -0.000560541 0.000768502 0.00132107 )  
( -0.000150741 0.000404785 0.000642794 )  
( -0.00079494 0.000452813 0.00109554 )  
( -1.1043e-05 0.000417526 0.000775295 )  
( -0.000711217 0.000155795 0.00130043 )  
( -0.000251163 0.000611514 0.000902738 )  
( -0.000307909 0.000487623 0.000693284 )  
( -0.000654786 -8.17533e-05 0.00100735 )  
( -5.54725e-05 0.000514834 0.000826255 )  
( -0.000279817 0.000488126 0.000404402 )  
( -5.60191e-05 -0.00020784 0.000356229 )  
( 0.000134637 0.000560091 0.000433693 )  
( 9.67462e-05 -5.41567e-05 4.29645e-05 )  
( 6.71883e-05 0.000391682 0.000312294 )  
( 9.32828e-05 0.000324947 1.80844e-06 )  
( 0.000104031 2.94406e-05 2.38759e-05 )  
( -1.26856e-06 -4.46059e-06 9.48683e-07 )  
( 5.67992e-05 0.000248904 -1.62178e-05 )  
( 3.11293e-05 0.000546598 0.000498408 )  
( 9.96319e-05 -5.87661e-05 2.55631e-05 )  
( 0.000123784 -4.58965e-05 6.13484e-05 )  
( 7.28463e-05 -4.57737e-05 3.24925e-05 )  
( -9.66173e-07 0.000541685 -2.85101e-05 )  
( 0.000136589 6.07225e-06 -0.000125791 )  
( 3.73728e-05 -3.75713e-05 2.12555e-05 )  
( 3.05424e-07 -6.85005e-06 -1.97324e-06 )  
( 1.20861e-05 -1.90795e-05 1.23454e-05 )  
( 0.00011946 -5.51538e-05 3.29409e-05 )  
( 7.95474e-05 -4.00228e-05 3.95356e-05 )  
( 0.000137679 -4.65085e-05 -5.17217e-05 )  
( 4.56124e-05 0.000185492 -5.73882e-05 )  
( 0.000121106 -3.56405e-05 6.60645e-05 )  
( -0.000154745 0.000705424 0.000546289 )  
( 8.91538e-05 6.33927e-06 2.51415e-05 )  
( 7.00503e-05 -4.60824e-05 1.286e-05 )  
( 0.000184148 2.02963e-05 6.40658e-05 )  
( 0.000147467 -9.24548e-06 -7.49958e-05 )  
( 5.88852e-05 7.64503e-05 -1.38725e-05 )  
( 4.16582e-05 0.000154552 -1.62391e-05 )  
( -3.88138e-05 0.000121343 -4.95343e-05 )  
( 9.75094e-05 -3.92782e-05 7.69239e-05 )  
( 9.80131e-05 7.57547e-06 -7.7853e-05 )  
( 0.000180602 1.45192e-05 -6.64869e-05 )  
( 2.23847e-07 0.000135531 2.61091e-05 )  
( 0.000146006 -3.18353e-06 -1.83662e-05 )  
( 9.97411e-05 9.01365e-05 -6.97364e-05 )  
( 1.18695e-05 -1.85825e-05 7.30585e-06 )  
( 0.00012846 0.000281629 -6.03435e-05 )  
( 1.00398e-05 2.20013e-05 0.000116284 )  
( -1.95664e-05 3.93193e-05 -1.37394e-05 )  
( 0.000124682 -1.08148e-05 -1.71886e-05 )  
( 0.000138617 3.66934e-05 6.7117e-05 )  
( 5.03405e-05 1.45738e-05 -7.33159e-05 )  
( 5.05504e-05 -5.00388e-05 1.67372e-05 )  
( -1.9152e-05 -4.2508e-05 -2.00681e-06 )  
( 2.17955e-05 0.000146282 4.67304e-05 )  
( 0.000177984 0.000185606 -2.47449e-06 )  
( -3.54982e-05 0.000268645 8.51188e-05 )  
( 0.000155709 0.00052671 0.000463214 )  
( 1.09836e-05 -2.55415e-05 1.24904e-05 )  
( 0.000187856 -2.30908e-05 3.60844e-05 )  
( 0.000123609 -2.43435e-05 9.86827e-06 )  
( 0.000234801 -7.44086e-05 -6.25236e-06 )  
( 2.49259e-05 7.63795e-05 6.3862e-06 )  
( 1.01741e-05 -9.61589e-06 -7.98712e-06 )  
( 0.000217402 -8.91739e-05 5.95656e-05 )  
( 2.09036e-05 -2.22575e-05 2.75673e-05 )  
( 0.000149377 6.6686e-06 3.36862e-05 )  
( 4.10226e-05 0.000344731 -0.000137898 )  
( 0.000174928 0.000178927 1.70358e-05 )  
( -0.000160992 0.000398295 0.000103866 )  
( -1.85887e-05 0.000473795 -0.000103051 )  
( 1.66394e-05 0.000437099 0.00049291 )  
( 7.28672e-05 -3.61914e-05 2.21152e-05 )  
( 7.39287e-05 -1.48803e-05 4.77103e-05 )  
( 7.50902e-05 6.26222e-05 -9.99308e-06 )  
( 4.12518e-05 -2.02918e-05 2.04239e-05 )  
( 6.8508e-05 0.000168748 -4.93733e-05 )  
( 0.000123441 0.000204487 2.98452e-05 )  
( 4.80679e-05 -4.18263e-05 3.75423e-05 )  
( 7.50996e-05 -4.44119e-05 -4.87167e-05 )  
( 7.36602e-05 -4.62334e-05 2.42163e-05 )  
( -1.40328e-05 -2.68255e-05 -1.59175e-05 )  
( 7.34711e-05 5.55156e-05 -3.61065e-05 )  
( 1.58557e-05 -1.77992e-05 4.35863e-06 )  
( -0.000175237 0.000739804 0.000221918 )  
( 0.000150007 -4.00991e-05 6.49979e-05 )  
( -2.36403e-05 0.000160827 2.13589e-05 )  
( -3.5997e-07 -7.98484e-06 -2.75053e-07 )  
( 5.27872e-05 -3.12113e-05 7.57847e-07 )  
( -3.50822e-05 0.00034667 -0.0001325 )  
( 4.02011e-05 -2.58265e-05 3.43416e-05 )  
( -4.89461e-06 3.92714e-06 -2.81672e-05 )  
( 7.45236e-05 -4.95841e-05 3.61476e-05 )  
( 9.99952e-05 7.53613e-05 2.1197e-05 )  
( 4.40414e-06 0.000478666 0.000743647 )  
( 9.5766e-05 0.000246906 0.000109131 )  
( -1.39366e-05 -1.37717e-05 -1.57569e-05 )  
( 0.000252623 0.000192065 6.15913e-05 )  
( 3.29945e-05 1.61783e-06 -5.70132e-06 )  
( -4.73334e-05 2.92442e-05 -7.36437e-05 )  
( -2.12861e-05 5.03106e-05 -1.80996e-05 )  
( 0.000194899 2.86113e-05 0.000333898 )  
( -1.28216e-05 0.000174404 0.000588978 )  
( 6.08255e-05 0.000279138 8.91385e-05 )  
( 0.000160485 0.000175126 -0.000239999 )  
( 6.39683e-05 -3.71405e-05 2.21796e-05 )  
( -0.000144324 -0.000163766 0.000500732 )  
( -1.73096e-05 0.00015549 -6.24436e-05 )  
( 0.000167369 -7.04267e-05 5.59176e-05 )  
( -6.62741e-05 9.03758e-05 -1.55535e-05 )  
( 8.63684e-05 0.000239344 -0.000199224 )  
( 0.000133207 0.000107094 -8.39785e-05 )  
( 6.66812e-05 -6.205e-07 -4.6218e-05 )  
( 3.87086e-05 7.13987e-05 3.87528e-05 )  
( -4.30761e-05 0.000535253 -9.80244e-05 )  
( 2.15651e-05 3.56828e-05 -2.93746e-05 )  
( -1.36217e-05 0.00039089 0.000376173 )  
( 2.66205e-05 -4.39083e-05 -3.7168e-05 )  
( 6.9738e-05 -4.29899e-05 3.52655e-05 )  
( 3.31208e-05 -5.64255e-05 -3.62949e-05 )  
( 0.000122802 -4.45982e-05 2.7442e-05 )  
( 2.43398e-05 -2.44829e-05 3.89482e-06 )  
( -0.000138911 0.000378128 0.000884374 )  
( 4.14237e-05 -3.45279e-05 -9.79748e-05 )  
( 6.08827e-05 -5.23143e-05 3.55381e-05 )  
( 1.03951e-05 -2.35796e-05 -9.74271e-05 )  
( -7.49986e-05 0.000216531 -5.98319e-05 )  
( 2.58501e-05 -2.92398e-05 4.59968e-07 )  
( -3.30464e-06 2.68185e-05 1.15908e-05 )  
( 0.000150972 0.000193357 8.82416e-05 )  
( 3.48175e-05 -1.30368e-05 2.42598e-06 )  
( 0.000143671 0.000371376 0.000444761 )  
( 0.000231035 0.000358135 0.000171927 )  
( 6.94813e-05 6.19817e-07 -0.000100737 )  
( -2.74331e-05 -1.53405e-05 -2.08178e-05 )  
( 4.8865e-05 -3.52339e-05 3.16943e-05 )  
( 0.000205339 0.000190679 0.000192675 )  
( -7.58138e-06 -3.23327e-06 4.83837e-06 )  
( -3.47229e-07 4.61403e-05 -4.5141e-06 )  
( -1.63568e-05 2.08599e-05 -1.21004e-05 )  
( 7.70877e-06 -1.66619e-05 -5.18156e-06 )  
( -4.89083e-05 0.000333566 -8.50508e-05 )  
( 0.000138782 0.000122525 -0.000118525 )  
( 4.56121e-05 -4.53447e-05 2.38232e-05 )  
( -1.47885e-05 0.000324313 0.000211788 )  
( -4.92399e-05 -1.47258e-05 -3.1906e-06 )  
( 0.000127633 0.000421798 0.000205119 )  
( -3.55266e-05 2.22797e-05 -1.93448e-05 )  
( 2.78497e-05 -3.70488e-05 -3.24031e-05 )  
( -3.72893e-05 8.33921e-05 2.32311e-05 )  
( 1.38176e-05 -2.05932e-05 1.36738e-07 )  
( 9.51536e-06 -2.78379e-05 -1.20737e-05 )  
( -9.70728e-05 0.000478007 0.000292482 )  
( 5.19153e-05 3.88753e-05 4.59198e-05 )  
( 4.43858e-06 -2.92261e-05 -4.1031e-05 )  
( 3.34726e-05 4.27731e-05 9.26216e-06 )  
( -9.74894e-05 0.000479161 5.52985e-05 )  
( -0.000135417 0.000235751 6.90276e-05 )  
( -8.98206e-05 5.35153e-05 1.90615e-06 )  
( -2.18299e-05 7.05736e-05 3.08906e-05 )  
( -0.000151963 0.000251883 0.000163577 )  
( -9.79173e-06 -1.04083e-05 -1.01792e-05 )  
( 2.99214e-05 0.00015197 4.85472e-05 )  
( 7.50855e-07 -5.92653e-06 -6.52979e-06 )  
( -1.16555e-07 -6.78379e-06 3.18366e-06 )  
( -2.36835e-05 -9.35079e-06 -9.48898e-06 )  
( -8.97664e-05 8.88262e-05 -9.05802e-06 )  
( -7.74338e-05 0.000165467 -3.50017e-05 )  
( -9.00202e-06 -5.19826e-06 -9.61305e-06 )  
( 8.49626e-06 -2.57657e-05 -2.37027e-05 )  
( -1.77882e-05 -7.74814e-06 -1.34623e-05 )  
( 4.15937e-05 -2.93236e-05 -1.57353e-05 )  
( -1.86748e-05 -2.24984e-05 -1.8102e-05 )  
( -0.000151494 0.000503578 0.000293271 )  
( -1.84555e-05 0.000142191 4.23532e-05 )  
( -1.79897e-05 -2.55615e-05 -1.94206e-05 )  
( -2.08943e-06 -2.38146e-06 -3.0407e-07 )  
( -3.23881e-06 3.9139e-05 2.1253e-05 )  
( 3.10183e-05 0.000146531 4.60608e-05 )  
( -9.28772e-05 7.41842e-05 -3.83284e-06 )  
( -0.000226856 0.000382097 0.00016364 )  
( -4.36411e-05 2.62937e-05 -7.96185e-06 )  
( 6.0185e-05 3.99942e-06 3.54715e-06 )  
( 1.48582e-05 -2.97403e-05 -3.22731e-06 )  
( -5.36745e-06 -1.51149e-05 -5.53524e-06 )  
( -6.13662e-06 -8.37001e-06 -4.58768e-06 )  
( 1.50438e-05 -3.09889e-05 -3.86798e-05 )  
( -1.31843e-05 -4.44812e-05 -1.60238e-05 )  
( 6.16563e-06 -3.43838e-05 -2.96777e-05 )  
( 1.9443e-05 1.97199e-06 1.80891e-05 )  
( -1.55473e-05 2.07619e-05 -1.57995e-05 )  
( 1.45834e-06 -2.68927e-05 -2.82264e-05 )  
( -7.45644e-05 0.000207064 0.000180709 )  
( -5.12445e-05 0.000502657 0.000226399 )  
( -3.13271e-05 0.000189319 2.96055e-05 )  
( 3.0961e-05 2.32692e-05 5.5461e-06 )  
( -2.89812e-05 -3.94399e-05 -2.486e-05 )  
( -1.10273e-06 -6.58144e-06 1.39214e-06 )  
( -2.86719e-05 2.94654e-06 -9.4441e-06 )  
( -0.000129255 0.00060409 0.000114075 )  
( -9.40163e-06 1.61018e-05 4.87609e-06 )  
( 3.59424e-05 0.000391249 0.000111293 )  
( 7.66885e-05 6.63427e-05 3.42828e-05 )  
( 5.39527e-05 -3.45235e-05 -1.74611e-05 )  
( 1.01508e-05 -1.24319e-05 -4.19486e-06 )  
( -0.0002683 0.000755175 0.000200385 )  
( 1.40911e-05 -2.9985e-05 -2.75361e-05 )  
( -0.000127039 0.000104938 1.16083e-05 )  
( 1.09606e-06 -6.00402e-06 -8.99801e-06 )  
( 8.13102e-05 -3.92392e-06 4.52071e-05 )  
( 4.46386e-06 -8.6858e-06 3.93837e-06 )  
( 7.21169e-05 0.000304459 8.51617e-05 )  
( -7.53571e-06 0.000146353 1.61165e-05 )  
( 1.20267e-05 -2.79926e-05 -4.82667e-05 )  
( -3.88081e-06 -8.30756e-06 -9.72963e-06 )  
( -2.8543e-06 -1.99355e-06 1.00379e-06 )  
( 7.97618e-05 -3.78737e-05 -1.38817e-05 )  
( 0.000212294 2.00451e-06 0.000142055 )  
( -3.69985e-06 -8.41541e-06 -4.89009e-07 )  
( -0.000152655 0.00040736 0.000410898 )  
( 1.10449e-05 -1.75991e-05 9.74797e-06 )  
( 1.5804e-05 -8.87805e-06 -1.15309e-05 )  
( 0.000120251 -3.44051e-05 3.73583e-05 )  
( -0.000211501 0.000569877 0.00096482 )  
( 3.15641e-05 0.000521352 0.000666939 )  
( 7.56237e-05 0.000366172 0.000126519 )  
( -2.25294e-06 -2.37942e-05 9.47153e-06 )  
( 0.000130403 0.000241558 0.000287086 )  
( 5.32061e-05 6.5848e-06 2.62369e-05 )  
( -0.000328893 0.000383378 0.000180868 )  
( -2.46489e-06 2.38722e-05 -4.1476e-06 )  
( -1.04064e-05 0.000222551 3.49736e-05 )  
( -0.000373441 -0.00048687 0.000692627 )  
( -4.24436e-05 -4.28662e-06 -6.98978e-06 )  
( 7.10417e-05 4.03314e-05 4.91514e-06 )  
( -4.91407e-05 0.000132756 5.6206e-05 )  
( -6.02214e-05 5.70945e-05 -3.3151e-05 )  
( -2.31515e-05 0.000345399 -4.29836e-05 )  
( -1.40182e-05 0.000448748 0.000116483 )  
( -2.26629e-05 7.90459e-06 -4.28341e-06 )  
( 1.28228e-05 -3.9327e-05 -1.0707e-05 )  
( -7.87259e-06 -1.44591e-05 -9.82012e-06 )  
( -0.00014498 0.00058519 9.90413e-05 )  
( -0.000105437 0.000217759 8.2704e-05 )  
( -9.5302e-05 0.000186274 1.2909e-05 )  
( 5.79304e-05 -2.35878e-06 2.3522e-05 )  
( 8.24145e-06 -1.90804e-05 -5.82272e-07 )  
( -5.97069e-05 0.00049872 0.000236967 )  
( -1.38516e-05 0.000254456 -1.98714e-05 )  
( 3.06331e-05 -5.25072e-05 -2.87892e-05 )  
( 1.6546e-05 -4.31782e-05 -3.21301e-05 )  
( -1.19165e-05 -1.50105e-05 -1.23976e-05 )  
( 3.43914e-05 -1.79518e-05 7.4863e-06 )  
( 4.69756e-05 -2.24148e-05 -8.73547e-06 )  
( 0.000291969 0.000152996 -0.000172396 )  
( 0.00012643 -5.69151e-05 4.98886e-05 )  
( 8.70165e-05 -2.43834e-06 -2.69177e-05 )  
( 8.28327e-05 5.03635e-05 -4.67081e-05 )  
( 1.64382e-05 0.00023202 0.000659383 )  
( 0.000171021 -6.0631e-05 5.90642e-05 )  
( 0.000192157 -1.26903e-05 3.57242e-05 )  
( 0.000183947 -1.27216e-06 9.25814e-05 )  
( 0.000128895 -6.46954e-05 1.79708e-05 )  
( 0.000209177 -0.000125069 -6.79827e-05 )  
( 9.68066e-05 -9.76183e-05 -3.16438e-05 )  
( 7.8637e-05 -3.78578e-05 5.50169e-06 )  
( 0.000233147 3.5966e-05 -0.000195143 )  
( 0.000130457 -7.15232e-05 7.24218e-05 )  
( 8.30438e-05 -3.88752e-05 4.39464e-05 )  
( 0.000267239 -8.89069e-05 -0.000157364 )  
( 0.000114304 -4.20095e-05 3.8617e-05 )  
( 1.03373e-05 -2.70672e-05 3.60501e-05 )  
( 0.000196688 -2.08471e-05 0.000106877 )  
( 3.33323e-05 -2.0598e-05 5.70877e-05 )  
( 0.000180393 -3.26988e-05 -8.58411e-06 )  
( 0.00013295 0.000124955 3.94032e-05 )  
( 0.000273802 -0.000151209 -0.000102553 )  
( 0.000104313 0.000193216 0.000315062 )  
( 1.32891e-05 -2.23134e-05 2.23215e-05 )  
( -0.000295434 -0.000587979 0.000839039 )  
( 0.000269691 -8.83049e-06 0.000144236 )  
( 0.000278869 0.000120651 0.000379512 )  
( 0.000136499 -3.90145e-05 2.31089e-05 )  
( 0.000217582 -0.000125828 -2.67526e-05 )  
( 7.06202e-06 -1.77839e-05 7.78447e-06 )  
( 9.19254e-05 -0.000138115 -4.34891e-05 )  
( 0.000190541 -3.31044e-05 6.57749e-05 )  
( 0.00017702 -8.06239e-05 7.06188e-05 )  
( 0.00021007 -9.53161e-05 7.2921e-05 )  
( 9.21657e-05 -4.45242e-05 1.75922e-05 )  
( 0.000103497 9.80703e-05 -2.83872e-05 )  
( 0.000214284 -0.000151162 0.000147389 )  
( 0.000442173 0.000252944 5.52681e-06 )  
( 0.000241139 2.52586e-05 6.42327e-06 )  
( 2.89652e-05 -1.77907e-05 -0.000109031 )  
( 2.35095e-05 -3.01101e-05 6.0395e-05 )  
( 0.000319795 -0.000111289 0.000133638 )  
( 0.000262271 -2.38087e-05 -0.000135088 )  
( -3.79493e-06 -2.86064e-05 9.36346e-06 )  
( 3.12744e-05 -1.76063e-05 -2.46059e-06 )  
( 4.10619e-05 -9.30094e-06 9.12732e-06 )  
( 0.000178827 -7.16783e-05 7.97633e-05 )  
( 0.000333154 0.000107654 0.000185487 )  
( 6.05937e-05 -3.23564e-05 3.22993e-05 )  
( 0.000262302 -0.000156414 9.9721e-05 )  
( 0.000218613 -4.95313e-05 8.29728e-05 )  
( 0.000260552 -0.000106084 -0.000106004 )  
( 0.00026425 -1.67893e-05 4.62261e-05 )  
( 0.000226623 -9.85825e-05 -9.39774e-07 )  
( 8.1272e-05 -3.3583e-05 5.78192e-05 )  
( 0.00038806 0.000199612 -9.42341e-05 )  
( -0.000914747 0.000102854 0.00147343 )  
)
