/*--------------------------------*- C++ -*----------------------------------*\
| =========                 |                                                 |
| \\      /  F ield         | OpenFOAM: The Open Source CFD Toolbox           |
|  \\    /   O peration     | Version:  4.x                                   |
|   \\  /    A nd           | Web:      www.OpenFOAM.org                      |
|    \\/     M anipulation  |                                                 |
\*---------------------------------------------------------------------------*/
FoamFile
{
    version     2.0;
    format      ascii;
    class       volVectorField;
    location    "24.5";
    object      GField;
}
// * * * * * * * * * * * * * * * * * * * * * * * * * * * * * * * * * * * * * //

dimensions      [1 -2 -1 0 0 0 0];

internalField   nonuniform List<vector> 
108
(
(93.3077 -3.19466 -2.29299)
(43.2399 -1.6612 -1.64049)
(94.246 -3.51718 -2.57032)
(45.145 -1.58409 -1.95172)
(95.472 -2.8239 -1.88814)
(46.1016 -1.03196 -1.85229)
(96.1975 -2.16092 -1.91889)
(45.4145 -0.991003 -2.27075)
(96.6217 -2.00528 -0.894359)
(91.5433 -4.78134 -2.02619)
(35.6619 -2.30753 -1.23947)
(88.5905 -4.88833 -2.15569)
(27.2815 -1.6404 -1.29668)
(86.362 -3.57806 -1.81667)
(20.7201 -1.07014 -1.08325)
(85.5294 -2.67026 -1.71142)
(14.2502 -0.960535 -1.08163)
(84.5064 -1.24845 -0.659696)
(91.3503 -2.75474 -2.08968)
(32.6829 -1.66568 -1.19515)
(86.264 -2.94659 -1.86268)
(21.6091 -1.16976 -0.757489)
(83.4707 -2.43738 -0.941494)
(13.307 -0.848046 -0.351142)
(82.0131 -1.41689 -0.399635)
(5.25046 -0.353266 -0.0866946)
(80.879 -0.0271833 0.985845)
(91.4504 -1.33052 -2.4437)
(32.9654 -0.171008 -1.13546)
(85.6803 -0.91083 -2.05258)
(21.4361 -0.413133 -1.08416)
(82.3959 -0.840881 -1.72592)
(11.4819 -0.232014 -0.50745)
(80.4857 -0.0545435 -1.33249)
(3.62095 -0.105294 -0.16682)
(80.28 0.829964 0.0793855)
(92.867 -2.85909 1.03736)
(44.7412 -1.54171 0.572675)
(94.9046 -2.88386 1.40319)
(47.5136 -1.44264 -0.14036)
(96.6272 -2.71383 0.858308)
(50.3339 -1.58806 -0.355399)
(98.9695 -2.48714 1.1546)
(51.2395 -1.44458 -0.211718)
(100.173 -1.94869 1.66188)
(91.9627 -4.07648 1.60506)
(39.4157 -2.27046 0.733523)
(90.8322 -4.14302 2.48608)
(35.8645 -1.5848 0.376732)
(89.7515 -3.15937 1.905)
(31.9157 -1.09312 -0.0668302)
(88.7124 -1.97 1.93523)
(26.639 -0.629353 -0.135968)
(87.8513 -1.54936 2.22932)
(91.4484 -3.4012 2.03122)
(36.4996 -1.7336 0.949608)
(87.8473 -3.48034 2.75348)
(28.9587 -1.37978 0.737365)
(85.8393 -2.55977 2.43189)
(23.235 -0.896167 0.510158)
(85.6075 -1.47101 2.43946)
(19.3816 -0.675146 0.647112)
(86.5434 -1.20861 1.66593)
(90.5371 -1.1154 1.24744)
(34.0398 -0.03454 1.06441)
(86.1806 -0.386765 2.3305)
(23.5025 -0.113571 0.612977)
(82.781 -0.366315 2.39018)
(14.5358 -0.314314 0.52231)
(81.143 -0.567973 2.37063)
(7.31856 -0.228474 0.18714)
(80.9745 -0.894435 1.38453)
(93.5277 -2.59088 0.745488)
(48.2921 -1.5554 0.539999)
(98.7397 -2.48854 0.987289)
(56.0583 -1.16944 0.086196)
(102.022 -1.83628 0.14825)
(60.2022 -0.925248 -0.463442)
(104.211 -1.52029 0.335963)
(63.6542 -1.221 0.00426284)
(107.842 -1.79762 0.7006)
(92.7292 -3.85569 1.01578)
(44.1142 -2.22914 0.582375)
(94.4776 -3.72616 1.46247)
(48.0445 -1.48283 0.535157)
(96.5073 -2.35295 1.14004)
(50.4484 -1.05085 0.397071)
(97.9863 -1.79708 1.42138)
(52.2756 -1.29081 0.460871)
(99.8075 -2.01399 1.05703)
(91.568 -3.0889 0.990048)
(41.8569 -1.57621 0.740204)
(91.6647 -3.20714 1.52054)
(42.4914 -1.56479 0.624547)
(92.795 -2.2064 1.22119)
(43.6582 -1.01657 0.22139)
(94.2789 -1.30739 0.906503)
(44.9799 -1.34255 -0.00473941)
(95.8161 -1.62545 0.63609)
(90.4949 -0.429909 1.28035)
(40.3714 -0.173205 0.907165)
(90.3112 -0.720906 1.85529)
(38.5742 -0.501498 0.822458)
(90.1166 -0.832275 1.74254)
(38.1777 -0.748721 0.865909)
(91.1944 -1.06758 1.90186)
(39.4247 -0.803205 0.480827)
(91.833 -1.12215 1.01751)
)
;

boundaryField
{
    inlet
    {
        type            calculated;
        value           uniform (67 0 0);
    }
    outlet
    {
        type            calculated;
        value           nonuniform 0();
    }
    wall
    {
        type            calculated;
        value           uniform (0 0 0);
    }
    procBoundary4to0
    {
        type            processor;
        value           nonuniform List<vector> 
36
(
(93.7823 -3.11207 -4.12349)
(44.078 -1.68532 -2.8948)
(96.2175 -3.17593 -4.41133)
(48.0282 -1.36656 -2.89508)
(98.6523 -2.4265 -3.59892)
(50.4839 -1.1614 -2.82874)
(101.067 -2.12113 -3.09051)
(52.5686 -0.600322 -3.17798)
(103.482 -1.08972 -2.57752)
(92.6705 -4.25107 -4.73842)
(36.8133 -2.19567 -2.77607)
(90.8344 -4.54885 -4.9139)
(32.5216 -1.74481 -2.29225)
(90.0062 -3.6254 -3.48747)
(29.106 -1.44598 -1.86499)
(89.5971 -2.91493 -2.67344)
(25.5129 -1.49461 -2.00775)
(90.2868 -2.5565 -2.65104)
(91.8047 -2.99025 -4.5634)
(34.7818 -1.68293 -2.61832)
(88.1514 -3.50869 -4.01697)
(25.6582 -1.18743 -1.69714)
(85.653 -2.50512 -2.41453)
(17.739 -0.848536 -1.25704)
(84.2176 -1.59127 -1.95724)
(11.2739 -0.757336 -1.07184)
(83.2494 -1.55601 -0.512863)
(91.8397 -0.832676 -4.29313)
(33.333 -0.12557 -2.72598)
(87.0489 -0.0569724 -4.21095)
(22.2793 0.248634 -1.87577)
(84.7929 0.5477 -3.23742)
(14.5713 0.316192 -1.4616)
(83.3649 0.508725 -2.56605)
(8.62152 0.346454 -1.08066)
(82.2588 1.01826 -1.27204)
)
;
    }
    procBoundary4to5
    {
        type            processor;
        value           nonuniform List<vector> 
12
(
(42.8737 -1.17451 -1.31989)
(5.99111 -0.706565 -0.368132)
(3.33647e-05 2.07493e-06 8.21851e-06)
(3.51323e-05 5.42319e-06 3.48841e-06)
(51.5302 -1.83787 -0.0597557)
(22.6914 -1.03231 -0.11871)
(17.5328 -1.52666 0.99514)
(2.78586 -0.150006 0.113594)
(68.0945 -1.89845 -0.430568)
(53.7453 -2.52297 0.00161015)
(44.8049 -2.78682 -0.600949)
(38.3014 -1.61867 0.559403)
)
;
    }
    procBoundary4to6
    {
        type            processor;
        value           nonuniform List<vector> 
27
(
(89.3434 1.36563 -2.309)
(30.5209 0.939866 -1.02547)
(84.5699 1.73175 -2.17779)
(17.2446 0.500567 -0.897329)
(80.8764 1.21874 -1.75199)
(6.8107 0.224764 -0.485458)
(79.0525 0.467603 -1.2884)
(0.0619888 0.00166742 -0.00547034)
(77.1811 -0.11445 -0.569542)
(89.6103 2.36597 2.82125)
(35.0117 1.17248 0.923774)
(86.5522 2.81271 2.94443)
(26.8745 0.984294 0.830147)
(84.7948 2.2519 2.55291)
(20.2326 0.504234 0.424435)
(83.7004 1.45885 1.64323)
(14.1845 0.262208 0.58142)
(83.5796 0.939359 0.0742628)
(91.6176 2.46479 1.69471)
(42.7938 1.05271 0.63845)
(91.7682 2.19894 1.20962)
(42.1947 0.844957 0.280243)
(91.6131 1.40111 0.760296)
(41.1801 0.355336 0.174278)
(91.2006 0.428061 0.567408)
(38.8265 0.0845908 0.260994)
(91.9845 0.347408 0.757411)
)
;
    }
}


// ************************************************************************* //
