/*--------------------------------*- C++ -*----------------------------------*\
| =========                 |                                                 |
| \\      /  F ield         | OpenFOAM: The Open Source CFD Toolbox           |
|  \\    /   O peration     | Version:  4.x                                   |
|   \\  /    A nd           | Web:      www.OpenFOAM.org                      |
|    \\/     M anipulation  |                                                 |
\*---------------------------------------------------------------------------*/
FoamFile
{
    version     2.0;
    format      ascii;
    class       volScalarField;
    location    "24.5";
    object      KslNext;
}
// * * * * * * * * * * * * * * * * * * * * * * * * * * * * * * * * * * * * * //

dimensions      [1 -3 -1 0 0 0 0];

internalField   nonuniform List<scalar> 
108
(
3464.02
7475.54
3483.89
7291.24
3482.46
7145.76
3441.39
7162.9
3357.38
3562.47
9228.52
3780.31
12184.8
3875.85
15951.9
3892.28
22833.6
3875.36
3598.81
10143.8
3895.02
15350.8
3996.9
24669.2
4016.09
61377
4005.69
3583.36
10068.2
3915.34
15454.5
4029.32
28465.9
4064.84
88639.5
4005.45
3454.96
7195.97
3427.77
6848.72
3408.32
6470.51
3311.33
6303.43
3223.1
3539.79
8277.57
3648.08
9184.42
3698.37
10267.1
3707.11
12174
3702.58
3563.9
8982.1
3784.24
11352.7
3853.62
14021.4
3808.17
16539.5
3722.87
3591.33
9644.33
3850
13941.3
3975.78
22297
3994.95
43450.9
3935.59
3398.38
6546.61
3238.11
5683.31
3165.76
5307.38
3089.6
5015.44
2960.37
3453.36
7239.87
3441.71
6729.46
3378.6
6386.46
3295.21
6120.16
3195.31
3509.67
7660.24
3542.02
7576.89
3509.1
7354.72
3408.14
7051.06
3306.39
3551.07
7957.88
3605.1
8349.47
3597.88
8343.87
3503.56
8015.82
3431.13
)
;

boundaryField
{
    inlet
    {
        type            zeroGradient;
    }
    outlet
    {
        type            zeroGradient;
    }
    wall
    {
        type            zeroGradient;
    }
    procBoundary4to0
    {
        type            processor;
        value           uniform 0;
    }
    procBoundary4to5
    {
        type            processor;
        value           uniform 0;
    }
    procBoundary4to6
    {
        type            processor;
        value           uniform 0;
    }
}


// ************************************************************************* //
