/*--------------------------------*- C++ -*----------------------------------*\
| =========                 |                                                 |
| \\      /  F ield         | OpenFOAM: The Open Source CFD Toolbox           |
|  \\    /   O peration     | Version:  4.x                                   |
|   \\  /    A nd           | Web:      www.OpenFOAM.org                      |
|    \\/     M anipulation  |                                                 |
\*---------------------------------------------------------------------------*/
FoamFile
{
    version     2.0;
    format      ascii;
    class       volScalarField;
    location    "24.5";
    object      p;
}
// * * * * * * * * * * * * * * * * * * * * * * * * * * * * * * * * * * * * * //

dimensions      [1 -1 -2 0 0 0 0];

internalField   nonuniform List<scalar> 
108
(
-1767.61
-1784.6
-1775.01
-1801.6
-1782.64
-1818.93
-1790.31
-1836.59
-1797.9
-1766.93
-1784.26
-1774.36
-1801.34
-1782.14
-1818.83
-1789.92
-1836.44
-1797.53
-1766.47
-1783.96
-1774.03
-1801.07
-1781.93
-1818.46
-1789.79
-1835.86
-1797.7
-1766.23
-1783.64
-1773.76
-1800.76
-1781.67
-1818.13
-1789.68
-1835.66
-1797.57
-3645.54
-3662.45
-3652.99
-3679.39
-3660.76
-3696.82
-3668.42
-3714.34
-3676.07
-3644.94
-3662.15
-3652.48
-3679.15
-3660.27
-3696.54
-3668.01
-3714.1
-3675.76
-3644.6
-3661.87
-3652.22
-3679.04
-3660.15
-3696.56
-3668.06
-3714.16
-3675.77
-3644.13
-3661.67
-3651.78
-3678.69
-3659.77
-3696.18
-3667.75
-3713.72
-3675.56
-5523.57
-5540.46
-5531.06
-5557.23
-5538.7
-5574.58
-5546.49
-5592.24
-5554.16
-5523.03
-5540.17
-5530.66
-5557.11
-5538.41
-5574.49
-5546.23
-5592.03
-5553.88
-5522.7
-5539.97
-5530.41
-5557.06
-5538.3
-5574.45
-5546.18
-5591.98
-5553.83
-5522.31
-5539.82
-5530.04
-5556.79
-5538.04
-5574.31
-5546.04
-5591.66
-5553.65
)
;

boundaryField
{
    inlet
    {
        type            calculated;
        value           nonuniform List<scalar> 
12
(
-1767.61
-1766.93
-1766.47
-1766.23
-3645.54
-3644.94
-3644.6
-3644.13
-5523.57
-5523.03
-5522.7
-5522.31
)
;
    }
    outlet
    {
        type            calculated;
        value           nonuniform 0();
    }
    wall
    {
        type            calculated;
        value           nonuniform List<scalar> 
63
(
-6462.53
-6461.99
-6461.66
-6461.26
-6479.42
-6479.13
-6478.93
-6478.78
-6470.02
-6469.62
-6469.36
-6469
-6496.19
-6496.07
-6496.02
-6495.75
-6477.66
-6477.36
-6477.26
-6476.99
-6513.53
-6513.45
-6513.41
-6513.27
-6485.44
-6485.19
-6485.13
-6484.99
-6531.19
-6530.99
-6530.94
-6530.61
-6493.12
-6492.84
-6492.79
-6492.6
-1767.61
-3645.54
-5523.57
-1784.6
-3662.45
-5540.46
-1775.01
-3652.99
-5531.06
-1801.6
-3679.39
-5557.23
-1782.64
-3660.76
-5538.7
-1818.93
-3696.82
-5574.58
-1790.31
-3668.42
-5546.49
-1836.59
-3714.34
-5592.24
-1797.9
-3676.07
-5554.16
)
;
    }
    procBoundary4to0
    {
        type            processor;
        value           nonuniform List<scalar> 
36
(
109.591
92.8135
102.33
75.9504
94.9025
58.5936
87.2238
40.8563
79.8101
110.272
93.1749
102.884
76.126
95.2957
58.7335
87.567
40.8175
79.9776
110.639
93.4697
103.233
76.4106
95.5662
59.0181
87.754
41.4852
80.2482
111.07
93.7723
103.626
76.5404
95.7496
59.1786
87.8185
41.5691
80.2296
)
;
    }
    procBoundary4to5
    {
        type            processor;
        value           nonuniform List<scalar> 
12
(
-1854.6
-1854.34
-1853.11
-1852.77
-3732.48
-3732.05
-3731.95
-3730.92
-5610.19
-5609.84
-5609.55
-5608.95
)
;
    }
    procBoundary4to6
    {
        type            processor;
        value           nonuniform List<scalar> 
27
(
-1766.1
-1783.94
-1773.8
-1800.85
-1781.78
-1818.26
-1789.83
-1835.5
-1797.91
-3644.31
-3661.93
-3652.11
-3679
-3660.08
-3696.29
-3667.97
-3713.79
-3675.61
-5522.58
-5539.92
-5530.24
-5556.91
-5538.15
-5574.21
-5546.01
-5591.76
-5553.67
)
;
    }
}


// ************************************************************************* //
