/*--------------------------------*- C++ -*----------------------------------*\
| =========                 |                                                 |
| \\      /  F ield         | OpenFOAM: The Open Source CFD Toolbox           |
|  \\    /   O peration     | Version:  4.x                                   |
|   \\  /    A nd           | Web:      www.OpenFOAM.org                      |
|    \\/     M anipulation  |                                                 |
\*---------------------------------------------------------------------------*/
FoamFile
{
    version     2.0;
    format      ascii;
    class       surfaceScalarField;
    location    "24.5";
    object      phi;
}
// * * * * * * * * * * * * * * * * * * * * * * * * * * * * * * * * * * * * * //

dimensions      [0 3 -1 0 0 0 0];

internalField   nonuniform List<scalar> 
249
(
8.3298e-06
-4.72641e-07
-7.42835e-08
8.35935e-06
-2.35164e-07
-6.32268e-08
8.51266e-06
-4.98079e-07
-6.90169e-08
8.54041e-06
-1.9104e-07
-1.23862e-07
8.6554e-06
-3.79358e-07
-6.0788e-08
8.63313e-06
-1.24455e-07
-1.30606e-07
8.66762e-06
-2.86294e-07
-4.50911e-08
8.6073e-06
-1.15512e-07
-1.46974e-07
-1.92927e-07
4.55926e-08
7.76084e-06
-4.4637e-07
-2.48243e-08
7.55291e-06
-2.3533e-07
-2.99282e-08
7.08003e-06
-4.63998e-07
1.97454e-08
6.89718e-06
-1.66438e-07
-5.44419e-08
6.55422e-06
-3.56197e-07
5.41889e-09
6.43693e-06
-1.13676e-07
-6.81158e-08
6.11931e-06
-2.41997e-07
1.33956e-08
5.97073e-06
-7.79968e-08
-7.20723e-08
-7.53391e-08
9.31751e-08
7.56763e-06
-2.41963e-07
-3.24542e-09
7.22972e-06
-1.08959e-07
-1.45035e-08
6.59267e-06
-2.28532e-07
5.29692e-08
6.37563e-06
-9.38597e-08
-1.08387e-09
5.92618e-06
-1.9426e-07
8.84826e-08
5.77155e-06
-6.40565e-08
9.63359e-09
5.35587e-06
-8.71992e-08
1.21044e-07
5.20258e-06
-2.7065e-08
3.35425e-08
4.73726e-08
1.57098e-07
7.59092e-06
-7.08039e-08
7.21143e-06
-4.09e-09
6.54655e-06
1.65376e-08
6.2997e-06
-2.77944e-08
5.74929e-06
3.9477e-08
5.56775e-06
1.04054e-09
5.16327e-06
6.15828e-08
5.06694e-06
1.43039e-09
8.67282e-08
8.39436e-06
-4.11001e-07
1.05619e-07
8.49107e-06
-2.25869e-07
6.59402e-08
8.69679e-06
-4.16368e-07
1.41631e-07
8.75554e-06
-1.79399e-07
-3.21614e-09
8.98321e-06
-3.48056e-07
5.95921e-08
9.0601e-06
-1.58935e-07
-4.85523e-08
9.19087e-06
-2.64188e-07
8.83235e-08
9.1791e-06
-1.22959e-07
-1.22471e-08
-2.07322e-07
1.3996e-07
8.01497e-06
-4.42799e-07
1.55266e-07
7.91838e-06
-2.37177e-07
7.79723e-08
7.73925e-06
-4.51423e-07
2.3393e-07
7.62685e-06
-1.75498e-07
5.4056e-08
7.44239e-06
-3.38581e-07
1.80409e-07
7.31335e-06
-1.17649e-07
1.96365e-08
7.06724e-06
-2.03601e-07
1.98918e-07
6.92995e-06
-7.7066e-08
1.93213e-08
-1.63212e-07
1.94669e-07
7.80598e-06
-2.67718e-07
1.7896e-07
7.55897e-06
-1.04832e-07
1.00158e-07
7.13659e-06
-2.29276e-07
2.532e-07
6.96798e-06
-8.86635e-08
8.06974e-08
6.675e-06
-1.73531e-07
2.16408e-07
6.59561e-06
-7.1902e-08
4.32816e-08
6.43583e-06
-1.20971e-07
1.98194e-07
6.40813e-06
-5.3752e-08
3.7919e-08
-1.24662e-07
1.36379e-07
7.60073e-06
1.49837e-07
7.30741e-06
1.16852e-07
6.70273e-06
2.48057e-07
6.44938e-06
8.50998e-08
5.95854e-06
2.44899e-07
5.794e-06
8.23022e-08
5.42849e-06
2.53198e-07
5.3345e-06
3.95438e-08
1.42335e-07
8.65089e-06
-3.82005e-07
8.94108e-06
-2.24247e-07
9.45092e-06
-3.68215e-07
9.60484e-06
-1.57133e-07
9.91267e-06
-2.48236e-07
9.98119e-06
-1.1707e-07
1.02661e-05
-1.96585e-07
1.04027e-05
-1.4885e-07
-2.25872e-07
8.34778e-06
-4.11256e-07
8.42689e-06
-2.25381e-07
8.70319e-06
-4.10588e-07
8.78055e-06
-1.80438e-07
8.98268e-06
-2.69953e-07
9.00765e-06
-1.22411e-07
9.19379e-06
-1.83799e-07
9.22012e-06
-1.5586e-07
-2.15462e-07
8.13957e-06
-2.08596e-07
8.11801e-06
-1.03672e-07
8.19344e-06
-2.32816e-07
8.21623e-06
-1.22527e-07
8.34279e-06
-1.801e-07
8.36824e-06
-1.04579e-07
8.52333e-06
-1.40703e-07
8.53264e-06
-1.2725e-07
-1.62803e-07
7.98383e-06
7.94486e-06
7.87243e-06
7.81455e-06
7.84557e-06
7.84663e-06
7.997e-06
7.9517e-06
)
;

boundaryField
{
    inlet
    {
        type            calculated;
        value           nonuniform List<scalar> 
12
(
-8.16327e-06
-8.16327e-06
-8.16327e-06
-8.16327e-06
-8.16327e-06
-8.16327e-06
-8.16327e-06
-8.16327e-06
-8.16327e-06
-8.16327e-06
-8.16327e-06
-8.16327e-06
)
;
    }
    outlet
    {
        type            calculated;
        value           nonuniform 0();
    }
    wall
    {
        type            calculated;
        value           nonuniform List<scalar> 
63
(
0
0
0
0
0
0
0
0
0
0
0
0
0
0
-2.46519e-32
0
0
0
0
0
0
0
0
0
0
0
0
0
0
0
0
0
0
0
0
0
0
0
0
0
0
0
0
0
0
0
0
0
-1.2326e-32
0
0
0
0
0
0
0
0
0
0
3.08149e-33
0
0
0
)
;
    }
    procBoundary4to0
    {
        type            processor;
        value           nonuniform List<scalar> 
36
(
3.80394e-07
2.68841e-07
4.13786e-07
2.87146e-07
3.25154e-07
2.7734e-07
2.96889e-07
3.22807e-07
2.05759e-07
4.00983e-07
2.38022e-07
4.1905e-07
2.12689e-07
3.14381e-07
1.74628e-07
2.59925e-07
1.83138e-07
1.96333e-07
3.94469e-07
2.2605e-07
3.48614e-07
1.45543e-07
1.99026e-07
9.53835e-08
1.39834e-07
6.8822e-08
-2.80359e-08
3.99232e-07
2.28888e-07
3.71195e-07
1.75533e-07
2.94218e-07
1.16786e-07
2.31112e-07
7.40356e-08
7.06669e-08
)
;
    }
    procBoundary4to5
    {
        type            processor;
        value           nonuniform List<scalar> 
12
(
8.54888e-06
5.56363e-06
4.9508e-06
4.91425e-06
9.29206e-06
6.78435e-06
6.3903e-06
5.15152e-06
1.07685e-05
9.40438e-06
8.61636e-06
7.97707e-06
)
;
    }
    procBoundary4to6
    {
        type            processor;
        value           nonuniform List<scalar> 
27
(
1.95274e-09
4.57315e-08
4.86193e-08
5.2461e-09
2.24642e-08
-3.43363e-10
2.45835e-08
-6.20559e-09
4.26662e-08
7.41729e-08
6.75519e-08
1.43887e-07
5.179e-08
1.11883e-07
1.13792e-08
5.29263e-08
2.12564e-09
2.70453e-09
1.20672e-07
5.21548e-08
8.76705e-08
2.04573e-08
3.3778e-08
-2.33423e-08
-3.78766e-08
-4.24008e-08
-4.58442e-08
)
;
    }
}


// ************************************************************************* //
