/*--------------------------------*- C++ -*----------------------------------*\
| =========                 |                                                 |
| \\      /  F ield         | OpenFOAM: The Open Source CFD Toolbox           |
|  \\    /   O peration     | Version:  4.x                                   |
|   \\  /    A nd           | Web:      www.OpenFOAM.org                      |
|    \\/     M anipulation  |                                                 |
\*---------------------------------------------------------------------------*/
FoamFile
{
    version     2.0;
    format      ascii;
    class       volScalarField;
    location    "24.5";
    object      Qsource;
}
// * * * * * * * * * * * * * * * * * * * * * * * * * * * * * * * * * * * * * //

dimensions      [1 -1 -3 0 0 0 0];

internalField   nonuniform List<scalar> 
108
(
5.6996e+09
7.58224e+09
9.18991e+09
6.44293e+09
7.91886e+09
6.44905e+09
9.67771e+09
7.30607e+09
1.03658e+10
6.99764e+09
7.3265e+09
9.33539e+09
1.00459e+10
1.00765e+10
8.5625e+09
8.04001e+09
5.71011e+09
1.10375e+10
6.65792e+09
1.03128e+10
8.28158e+09
9.42515e+09
8.0818e+09
6.33082e+09
7.24594e+09
1.03223e+10
6.6478e+09
3.45715e+09
6.75313e+09
9.36014e+09
5.74592e+09
8.77276e+09
6.73603e+09
1.09334e+10
6.00168e+09
6.98273e+09
5.83623e+09
5.96608e+09
8.83157e+09
8.82964e+09
9.31651e+09
6.02047e+09
6.39681e+09
8.13103e+09
1.04073e+10
6.20775e+09
7.63662e+09
7.50923e+09
7.60963e+09
7.68744e+09
6.83604e+09
8.43772e+09
9.25389e+09
1.04075e+10
4.16577e+09
7.36731e+09
9.96821e+09
8.34217e+09
9.6046e+09
8.30073e+09
8.12272e+09
7.27316e+09
8.55516e+09
6.17934e+09
8.59625e+09
7.491e+09
9.65627e+09
1.04174e+10
7.55972e+09
1.1662e+10
8.35505e+09
7.99536e+09
6.14045e+09
7.30717e+09
6.11722e+09
7.16099e+09
8.04957e+09
9.18331e+09
9.72543e+09
7.72439e+09
9.94961e+09
5.65408e+09
9.4971e+09
7.89734e+09
6.35339e+09
8.24769e+09
8.21104e+09
8.16457e+09
6.74104e+09
9.37336e+09
5.99591e+09
7.94863e+09
9.21257e+09
7.63496e+09
7.47518e+09
7.38484e+09
8.12988e+09
8.40034e+09
7.81992e+09
7.99546e+09
7.45823e+09
7.43764e+09
8.37491e+09
9.12371e+09
9.86096e+09
5.69004e+09
5.50576e+09
7.76019e+09
)
;

boundaryField
{
    inlet
    {
        type            calculated;
        value           uniform 0;
    }
    outlet
    {
        type            calculated;
        value           nonuniform 0();
    }
    wall
    {
        type            calculated;
        value           uniform 0;
    }
    procBoundary4to0
    {
        type            processor;
        value           nonuniform List<scalar> 
36
(
5.12956e+09
5.47953e+09
7.56242e+09
5.71803e+09
7.90224e+09
8.37267e+09
6.76336e+09
4.92463e+09
6.94532e+09
5.11076e+09
9.63781e+09
9.07606e+09
8.11044e+09
7.19996e+09
6.77043e+09
1.04406e+10
7.40604e+09
6.94009e+09
5.16603e+09
5.65889e+09
9.0292e+09
6.26101e+09
8.70612e+09
8.68191e+09
8.22792e+09
5.09168e+09
9.32697e+09
4.81384e+09
6.76696e+09
9.62489e+09
1.04462e+10
5.47393e+09
9.86319e+09
8.47258e+09
5.53776e+09
2.59234e+09
)
;
    }
    procBoundary4to5
    {
        type            processor;
        value           nonuniform List<scalar> 
12
(
7.05217e+09
8.05516e+09
8.4434e+09
1.01661e+10
7.90808e+09
6.19707e+09
7.54871e+09
5.19499e+09
3.74873e+09
7.50034e+09
6.53531e+09
7.45513e+09
)
;
    }
    procBoundary4to6
    {
        type            processor;
        value           nonuniform List<scalar> 
27
(
9.93128e+09
8.98614e+09
6.07798e+09
8.10825e+09
1.1081e+10
6.22156e+09
8.68875e+09
6.65697e+09
9.87338e+09
7.31277e+09
9.0477e+09
9.62719e+09
8.7184e+09
6.63876e+09
7.95229e+09
7.8703e+09
6.20795e+09
9.45718e+09
5.67857e+09
5.88839e+09
8.18059e+09
7.47568e+09
7.91233e+09
6.93001e+09
1.09837e+10
9.09741e+09
5.27626e+09
)
;
    }
}


// ************************************************************************* //
