/*--------------------------------*- C++ -*----------------------------------*\
| =========                 |                                                 |
| \\      /  F ield         | OpenFOAM: The Open Source CFD Toolbox           |
|  \\    /   O peration     | Version:  4.x                                   |
|   \\  /    A nd           | Web:      www.OpenFOAM.org                      |
|    \\/     M anipulation  |                                                 |
\*---------------------------------------------------------------------------*/
FoamFile
{
    version     2.0;
    format      ascii;
    class       volVectorField;
    location    "24.5";
    object      Us;
}
// * * * * * * * * * * * * * * * * * * * * * * * * * * * * * * * * * * * * * //

dimensions      [0 1 -1 0 0 0 0];

internalField   nonuniform List<vector> 
108
(
(-8.66491e-11 3.68569e-11 9.29767e-11)
(-3.27214e-11 1.31054e-12 2.88873e-10)
(-1.53318e-10 3.49717e-11 5.98906e-10)
(1.12834e-10 1.81914e-10 1.07359e-09)
(2.55772e-10 5.16349e-10 1.45403e-09)
(2.12819e-10 5.79697e-10 1.40468e-09)
(7.88118e-11 9.81541e-11 2.14336e-09)
(9.20136e-10 3.77024e-10 2.00371e-09)
(1.54381e-10 1.96436e-10 1.37176e-09)
(-1.7795e-10 -2.78152e-11 3.30007e-10)
(-1.27105e-10 -3.35693e-10 5.75886e-10)
(-3.90569e-10 1.13503e-10 1.23568e-09)
(-1.75611e-10 1.99114e-10 1.86151e-09)
(-3.83612e-10 5.02535e-10 2.21967e-09)
(4.89252e-11 7.25661e-10 2.06821e-09)
(2.17899e-10 3.48306e-10 2.84377e-09)
(-1.60545e-10 8.90827e-10 2.72823e-09)
(1.01453e-10 1.00387e-09 2.67822e-09)
(-1.5407e-10 1.30874e-10 5.42766e-10)
(-7.03252e-10 7.58709e-11 1.18816e-09)
(-1.08968e-09 2.96751e-10 1.80948e-09)
(-1.13816e-09 4.93845e-10 2.28759e-09)
(-1.45299e-09 5.69036e-10 2.74458e-09)
(-1.05665e-09 1.12465e-09 2.79105e-09)
(-1.35929e-09 1.43914e-09 3.38205e-09)
(-1.34566e-09 1.55018e-09 3.45434e-09)
(7.08366e-10 1.37772e-09 2.41178e-09)
(-1.75819e-10 2.26537e-10 6.3677e-10)
(-3.92708e-10 3.96643e-10 1.14573e-09)
(-1.00696e-09 7.13218e-10 1.813e-09)
(-1.09057e-09 7.35896e-10 1.94137e-09)
(-1.54697e-09 1.00691e-09 2.3909e-09)
(-1.2551e-09 1.63357e-09 2.96905e-09)
(-8.50795e-10 2.15487e-09 3.07843e-09)
(3.5292e-10 1.80744e-09 2.39423e-09)
(6.73686e-10 1.74881e-09 1.78232e-09)
(-9.43827e-11 -3.68282e-12 1.5637e-10)
(-2.61023e-12 -1.18298e-10 3.14517e-10)
(9.42658e-12 8.47165e-11 4.6856e-10)
(3.37503e-10 1.7854e-10 5.11993e-10)
(2.64478e-10 3.76885e-10 7.79179e-10)
(3.74538e-10 2.81654e-10 7.33606e-10)
(2.43551e-10 3.71531e-11 9.77435e-10)
(6.1819e-10 3.72931e-10 1.10588e-09)
(6.31991e-10 1.34221e-10 7.18152e-10)
(-1.11619e-10 -3.9388e-12 2.72916e-10)
(-4.68724e-11 -1.95003e-10 5.22714e-10)
(-4.37611e-11 -3.90723e-11 7.12743e-10)
(4.63082e-10 9.01021e-11 1.30624e-09)
(5.6132e-10 5.09309e-10 1.41113e-09)
(7.31535e-10 6.73994e-10 1.35612e-09)
(1.05367e-09 1.0009e-09 1.729e-09)
(1.84975e-09 1.27433e-09 1.80582e-09)
(1.45316e-09 4.91264e-10 1.40354e-09)
(-6.41229e-11 1.11904e-10 3.78702e-10)
(-6.13118e-11 3.15059e-11 7.93301e-10)
(-8.31163e-11 1.48267e-10 9.76187e-10)
(2.59659e-10 5.58569e-10 1.27247e-09)
(1.23481e-10 7.83555e-10 1.81734e-09)
(3.83632e-10 9.59131e-10 1.7728e-09)
(4.17569e-10 1.04557e-09 2.05084e-09)
(1.72821e-09 1.37937e-09 1.82283e-09)
(1.47215e-09 1.18788e-09 1.74913e-09)
(-4.22755e-11 2.15683e-10 4.64842e-10)
(-4.65141e-11 3.75939e-10 8.07244e-10)
(-3.20985e-10 6.71348e-10 1.36735e-09)
(-2.85273e-10 6.21157e-10 1.34677e-09)
(-3.98201e-10 6.91494e-10 1.73447e-09)
(1.25072e-10 1.28081e-09 1.94222e-09)
(1.00243e-09 1.65556e-09 2.27289e-09)
(1.57153e-09 1.55777e-09 1.75071e-09)
(2.05259e-09 1.63451e-09 1.17977e-09)
(-1.95604e-11 6.37321e-11 8.63312e-11)
(3.19251e-11 -1.46e-11 1.83829e-10)
(2.39208e-11 2.84421e-11 1.80055e-10)
(3.9748e-10 -1.6474e-11 2.33084e-10)
(7.94486e-11 3.76746e-11 3.0413e-10)
(1.71231e-10 3.58038e-11 3.03937e-10)
(-3.67729e-11 -8.6432e-11 5.60062e-10)
(3.52132e-10 9.17226e-11 5.29527e-10)
(3.54463e-10 -1.19096e-11 2.49335e-10)
(-1.08327e-12 -1.18007e-11 1.10056e-10)
(7.97741e-11 -6.52828e-11 2.14548e-10)
(-4.72753e-11 1.00728e-10 3.44785e-10)
(2.24537e-10 8.04378e-11 3.27709e-10)
(3.65795e-10 1.61347e-10 5.81944e-10)
(8.20181e-10 6.54865e-10 4.66356e-10)
(9.29652e-10 8.32975e-10 3.96995e-10)
(1.12902e-09 5.23896e-11 6.92163e-10)
(1.0163e-09 6.7245e-11 6.15864e-10)
(-2.72637e-11 7.71457e-11 1.87717e-10)
(1.15849e-10 -2.08738e-11 3.02546e-10)
(3.61212e-11 2.58653e-10 4.34253e-10)
(2.36067e-10 2.16316e-10 4.85469e-10)
(3.50626e-10 3.85655e-10 9.86237e-10)
(9.90245e-10 9.30735e-10 8.44318e-10)
(1.41306e-09 8.61422e-10 7.30315e-10)
(1.58346e-09 8.20376e-10 9.23138e-10)
(1.48359e-09 4.49387e-10 7.33116e-10)
(9.41415e-12 6.40068e-11 2.38368e-10)
(2.0688e-10 2.71038e-10 2.9934e-10)
(2.03853e-10 3.72637e-10 6.8295e-10)
(1.87081e-10 4.669e-10 6.80994e-10)
(2.89491e-11 7.15703e-10 8.46108e-10)
(4.34227e-10 8.78047e-10 7.6011e-10)
(1.27348e-09 1.18928e-09 1.13813e-09)
(1.0743e-08 -4.0921e-09 7.14954e-10)
(2.59477e-09 1.15789e-09 5.49426e-10)
)
;

boundaryField
{
    inlet
    {
        type            zeroGradient;
    }
    outlet
    {
        type            zeroGradient;
    }
    wall
    {
        type            zeroGradient;
    }
    procBoundary4to0
    {
        type            processor;
        value           nonuniform List<vector> 
36
(
(-4.38597e-11 -4.9857e-11 -9.95539e-11)
(-3.04796e-10 -2.87491e-11 3.47675e-10)
(-7.87668e-10 -1.75792e-10 6.78934e-10)
(-4.10596e-10 1.47458e-10 1.22605e-09)
(-7.51889e-10 -2.3292e-11 1.64986e-09)
(-6.8623e-10 4.03958e-10 2.29106e-09)
(-8.80463e-10 8.50283e-10 2.8681e-09)
(-7.62374e-10 7.97259e-10 2.88668e-09)
(-1.21985e-09 4.52381e-10 4.10506e-09)
(-1.36373e-10 -1.61352e-10 1.54761e-10)
(-5.62513e-10 -8.54937e-11 6.97524e-10)
(-9.18272e-10 1.01924e-11 1.62194e-09)
(-9.98266e-10 -7.1568e-11 2.44298e-09)
(-1.37165e-09 9.79805e-11 2.99142e-09)
(-1.48993e-09 8.06278e-10 3.13045e-09)
(-1.96318e-09 1.13548e-09 3.63892e-09)
(-1.45056e-09 1.59746e-09 3.46143e-09)
(-2.45402e-09 2.32708e-09 3.74753e-09)
(-3.59947e-10 1.38712e-10 7.98716e-10)
(-9.00948e-10 1.58593e-10 1.29551e-09)
(-1.50671e-09 3.844e-10 1.9363e-09)
(-1.62676e-09 6.74908e-10 2.52214e-09)
(-1.80083e-09 9.19785e-10 3.0169e-09)
(-2.15173e-09 1.7362e-09 3.33578e-09)
(-3.08176e-09 1.98493e-09 4.01705e-09)
(-2.89053e-09 2.81996e-09 4.70732e-09)
(-3.05226e-09 2.95685e-09 5.27773e-09)
(-2.05151e-10 2.50595e-10 7.12453e-10)
(-5.52286e-10 4.57388e-10 1.24848e-09)
(-1.34478e-09 6.35075e-10 2.04616e-09)
(-1.3464e-09 1.09424e-09 2.45791e-09)
(-1.9777e-09 1.20992e-09 2.93912e-09)
(-1.56276e-09 1.70653e-09 3.35956e-09)
(-1.50826e-09 2.77158e-09 3.56221e-09)
(-1.78982e-09 2.75753e-09 4.01624e-09)
(1.34378e-09 2.05733e-09 3.78688e-09)
)
;
    }
    procBoundary4to5
    {
        type            processor;
        value           nonuniform List<vector> 
12
(
(5.75881e-10 7.85437e-10 1.48553e-09)
(1.13786e-09 1.31375e-09 1.54293e-09)
(6.21906e-10 2.01818e-09 2.33865e-09)
(1.39456e-09 2.32485e-09 1.31404e-09)
(8.51629e-10 1.9329e-10 6.62985e-10)
(1.72126e-09 4.86133e-10 8.01159e-10)
(2.27024e-09 1.85934e-09 1.42775e-09)
(3.06302e-09 2.11216e-09 9.06557e-10)
(3.55103e-10 5.54104e-11 3.14157e-10)
(1.03903e-09 2.66511e-10 2.6541e-10)
(1.37947e-09 9.35235e-10 1.39951e-10)
(2.60389e-09 1.39249e-09 1.56668e-10)
)
;
    }
    procBoundary4to6
    {
        type            processor;
        value           nonuniform List<vector> 
27
(
(-2.4597e-10 3.24576e-10 6.11533e-10)
(-4.66361e-10 6.21824e-10 1.16112e-09)
(-6.9616e-10 8.37616e-10 1.68267e-09)
(-6.1222e-10 1.07015e-09 2.02487e-09)
(-1.2024e-09 1.16383e-09 2.35438e-09)
(2.34838e-11 1.4351e-09 2.54645e-09)
(2.24689e-10 1.52392e-09 2.55433e-09)
(1.31239e-09 1.86697e-09 2.10641e-09)
(1.99873e-09 1.66615e-09 1.31402e-09)
(-9.15191e-11 2.90027e-10 3.56444e-10)
(-1.10647e-11 6.20982e-10 7.51041e-10)
(-9.50612e-12 7.60089e-10 1.19207e-09)
(9.60753e-11 7.1953e-10 1.30345e-09)
(3.56957e-10 7.21486e-10 1.54958e-09)
(1.0375e-09 1.20815e-09 1.74045e-09)
(1.70265e-09 1.61321e-09 1.7764e-09)
(2.03416e-09 1.79024e-09 1.48705e-09)
(2.36976e-09 1.71041e-09 1.04787e-09)
(-1.09729e-11 2.33518e-10 1.84552e-10)
(2.2635e-10 2.90926e-10 3.15369e-10)
(3.13836e-10 4.82032e-10 6.86503e-10)
(5.67244e-10 4.67843e-10 5.85654e-10)
(5.44647e-10 4.24997e-10 6.38401e-10)
(1.0805e-09 6.08175e-10 7.06089e-10)
(1.96625e-09 1.18094e-09 1.02923e-09)
(2.62754e-09 1.18439e-09 5.9688e-10)
(3.1213e-09 1.53414e-09 1.0033e-09)
)
;
    }
}


// ************************************************************************* //
