/*--------------------------------*- C++ -*----------------------------------*\
| =========                 |                                                 |
| \\      /  F ield         | OpenFOAM: The Open Source CFD Toolbox           |
|  \\    /   O peration     | Version:  4.x                                   |
|   \\  /    A nd           | Web:      www.OpenFOAM.org                      |
|    \\/     M anipulation  |                                                 |
\*---------------------------------------------------------------------------*/
FoamFile
{
    version     2.0;
    format      ascii;
    class       volScalarField;
    location    "19.5";
    object      Sm;
}
// * * * * * * * * * * * * * * * * * * * * * * * * * * * * * * * * * * * * * //

dimensions      [1 -3 -1 0 0 0 0];

internalField   nonuniform List<scalar> 
108
(
5.19255e-65
7.36254e-65
7.51749e-65
5.57994e-65
5.96737e-65
5.65734e-65
7.5947e-65
6.74216e-65
8.91202e-65
7.75007e-65
6.35502e-65
7.36244e-65
8.60235e-65
8.21475e-65
7.5172e-65
6.35467e-65
5.42464e-65
9.06684e-65
6.97505e-65
8.7575e-65
6.66493e-65
8.44732e-65
6.66475e-65
5.9672e-65
6.1221e-65
9.68677e-65
5.65703e-65
4.34003e-65
5.735e-65
7.59491e-65
5.19237e-65
7.3622e-65
6.35465e-65
9.22186e-65
5.96702e-65
5.96697e-65
5.34755e-65
5.11503e-65
7.0525e-65
7.67245e-65
6.97491e-65
5.26989e-65
4.49488e-65
6.97471e-65
8.21465e-65
5.65755e-65
6.51003e-65
5.81248e-65
6.43241e-65
5.96737e-65
5.9673e-65
6.66472e-65
7.90461e-65
8.13703e-65
4.41754e-65
6.27751e-65
7.82744e-65
7.20738e-65
7.67227e-65
7.28468e-65
6.66464e-65
6.66458e-65
6.81952e-65
6.66505e-65
7.20751e-65
5.96743e-65
8.52484e-65
8.44722e-65
6.7422e-65
9.60944e-65
7.90446e-65
6.81951e-65
4.96006e-65
6.66505e-65
4.41751e-65
6.74248e-65
5.73496e-65
8.05988e-65
7.20737e-65
6.27733e-65
7.20731e-65
5.34756e-65
8.75755e-65
5.81249e-65
5.50246e-65
6.19991e-65
7.20734e-65
6.35482e-65
5.65728e-65
7.59466e-65
5.42506e-65
7.36253e-65
7.43997e-65
7.36241e-65
5.6574e-65
6.58727e-65
6.43226e-65
7.51713e-65
6.27718e-65
7.44007e-65
7.05253e-65
5.81249e-65
7.67238e-65
6.97483e-65
9.22217e-65
4.49481e-65
4.88225e-65
6.35464e-65
)
;

boundaryField
{
    inlet
    {
        type            calculated;
        value           uniform 0;
    }
    outlet
    {
        type            calculated;
        value           nonuniform 0();
    }
    wall
    {
        type            calculated;
        value           uniform 0;
    }
    procBoundary4to0
    {
        type            processor;
        value           nonuniform List<scalar> 
36
(
4.57255e-65
4.88251e-65
5.73498e-65
5.34742e-65
6.12236e-65
7.43975e-65
4.80481e-65
4.10728e-65
4.95973e-65
5.50255e-65
8.13751e-65
7.28494e-65
6.74237e-65
5.81231e-65
5.96721e-65
8.36951e-65
6.58704e-65
5.50207e-65
4.57253e-65
4.95998e-65
7.28492e-65
5.73484e-65
7.28471e-65
8.05952e-65
6.74201e-65
5.11455e-65
8.05927e-65
5.27004e-65
5.88999e-65
7.8274e-65
9.22224e-65
4.49482e-65
9.14445e-65
7.12945e-65
5.42453e-65
2.32475e-65
)
;
    }
    procBoundary4to5
    {
        type            processor;
        value           nonuniform List<scalar> 
12
(
6.35461e-65
7.05197e-65
8.21428e-65
9.99657e-65
6.66466e-65
5.42466e-65
6.89695e-65
4.80462e-65
2.63493e-65
6.3547e-65
6.12213e-65
7.36204e-65
)
;
    }
    procBoundary4to6
    {
        type            processor;
        value           nonuniform List<scalar> 
27
(
1.03851e-64
7.595e-65
4.95995e-65
7.4398e-65
9.37711e-65
6.12216e-65
7.36203e-65
6.5095e-65
8.52429e-65
7.67257e-65
7.67251e-65
7.74994e-65
7.67235e-65
5.34733e-65
7.0522e-65
6.27719e-65
5.88963e-65
7.90444e-65
5.03755e-65
5.27003e-65
6.12248e-65
6.89741e-65
6.50988e-65
6.43228e-65
8.67965e-65
8.75706e-65
3.79732e-65
)
;
    }
}


// ************************************************************************* //
