/*--------------------------------*- C++ -*----------------------------------*\
  =========                 |
  \\      /  F ield         | OpenFOAM: The Open Source CFD Toolbox
   \\    /   O peration     | Website:  https://openfoam.org
    \\  /    A nd           | Version:  4.x
     \\/     M anipulation  |
\*---------------------------------------------------------------------------*/
FoamFile
{
    version     2.0;
    format      ascii;
    class       vectorField;
    location    0;
    object      v;
}
// * * * * * * * * * * * * * * * * * * * * * * * * * * * * * * * * * * * * * //

312
(
( 8.60874e-05 4.01466e-05 -1.91661e-05 )  
( 0.000114555 3.46517e-05 -2.87876e-05 )  
( 7.20315e-05 2.80453e-05 -1.53247e-05 )  
( 8.542e-05 2.1041e-05 -1.99421e-05 )  
( 6.70586e-05 2.8933e-05 -1.52933e-05 )  
( 6.12796e-05 1.839e-05 -1.94379e-05 )  
( 0.000144229 3.30834e-05 -2.23009e-05 )  
( 5.66077e-05 2.20855e-05 -1.70668e-05 )  
( 9.76777e-05 3.02475e-05 -2.19186e-05 )  
( 0.000141351 2.30031e-05 -2.35055e-05 )  
( 6.35193e-05 1.54605e-05 -1.72616e-05 )  
( 6.64317e-05 2.02986e-05 -3.19807e-05 )  
( 4.9125e-05 -3.5156e-05 3.85252e-05 )  
( 6.93038e-05 2.39056e-05 -4.18391e-05 )  
( 0.000120171 6.79618e-05 -3.45421e-05 )  
( 0.000210313 -4.30412e-05 0.000107328 )  
( 2.01293e-05 -1.02671e-05 3.72258e-05 )  
( 9.53431e-05 1.30743e-05 -6.6521e-05 )  
( 7.09447e-05 2.88324e-05 -3.41277e-05 )  
( 8.76094e-05 -3.52395e-05 7.10096e-05 )  
( 7.17215e-05 -4.95423e-05 4.09736e-05 )  
( 1.72674e-05 -2.96584e-05 3.46867e-05 )  
( 0.000171742 5.23895e-05 -3.79313e-05 )  
( 0.000312209 -4.05936e-06 8.57238e-05 )  
( 2.05281e-05 -2.26935e-05 4.19083e-05 )  
( 8.73841e-06 -4.32339e-06 2.47004e-05 )  
( 1.88846e-05 -2.48928e-06 2.50213e-05 )  
( 2.03453e-05 -4.1463e-05 4.5199e-05 )  
( 6.71348e-05 -8.96119e-06 6.35588e-05 )  
( 0.000388901 -1.53705e-05 1.13843e-05 )  
( 0.00014887 3.58534e-05 -0.000110728 )  
( 4.8973e-05 -4.73475e-05 3.40958e-05 )  
( 9.50607e-05 2.17638e-05 -2.95397e-05 )  
( 0.000154371 -1.79275e-05 6.58628e-05 )  
( 9.56411e-05 -2.53297e-05 5.8339e-05 )  
( 2.52433e-05 2.03876e-05 -2.52033e-05 )  
( 0.000369023 1.75699e-05 -0.000102985 )  
( 5.41212e-05 1.00805e-05 -4.39553e-05 )  
( 2.81452e-05 3.67753e-06 -2.85587e-05 )  
( 0.0002152 4.4287e-06 -0.000115227 )  
( 9.54704e-05 -2.80805e-05 8.12039e-05 )  
( 0.000337302 1.97322e-05 -1.66422e-05 )  
( 0.000152143 2.18985e-05 7.76197e-05 )  
( 0.000234287 2.47752e-06 -9.49036e-05 )  
( 0.000319363 -2.32508e-05 2.45906e-05 )  
( 6.01347e-05 1.38772e-05 -5.26917e-05 )  
( 7.53139e-06 -1.15569e-05 3.33964e-05 )  
( 0.000119086 5.14593e-05 -5.58078e-05 )  
( 6.46445e-05 -2.45623e-05 -3.88165e-05 )  
( 9.09084e-05 -2.15767e-05 -4.44129e-05 )  
( 3.72266e-05 2.65046e-05 -3.33833e-05 )  
( 0.000223162 -6.31652e-05 4.14382e-05 )  
( 0.000149416 1.87912e-05 5.34443e-05 )  
( 8.75197e-05 -2.38215e-05 6.57069e-05 )  
( 0.00011445 -6.24514e-06 6.24106e-05 )  
( 0.000220527 -1.71656e-05 5.89402e-06 )  
( 6.25997e-05 4.11393e-05 -5.2525e-05 )  
( 0.000246006 2.5908e-05 -5.26583e-06 )  
( 6.8967e-05 3.25024e-05 -3.09649e-05 )  
( 1.59463e-05 -2.51751e-05 3.41606e-05 )  
( 0.000137347 -6.07571e-05 3.90463e-05 )  
( 0.000111345 -1.66806e-05 3.36694e-05 )  
( 0.000296081 -7.40981e-05 5.37319e-05 )  
( 0.000222187 -1.60873e-05 7.12e-05 )  
( 1.38501e-05 -1.37123e-05 1.97838e-05 )  
( 0.000289149 -4.93848e-05 9.39038e-05 )  
( 3.51216e-05 -4.83206e-06 5.07327e-05 )  
( 0.000169267 -4.54196e-05 5.71715e-05 )  
( 0.000227417 4.89313e-05 -5.48886e-05 )  
( 5.73386e-05 1.83645e-05 -4.26033e-05 )  
( 0.000174605 1.63488e-05 -2.57105e-05 )  
( 0.00013644 4.12869e-05 -5.59348e-05 )  
( 0.000115275 5.2953e-05 -3.24783e-05 )  
( 0.000124109 -3.31863e-05 7.55413e-05 )  
( 9.64151e-05 5.59306e-06 7.92241e-05 )  
( 0.000308049 -2.80142e-05 9.63272e-05 )  
( 0.000113436 -1.85771e-05 6.06608e-05 )  
( 7.98587e-05 1.03698e-05 -6.37694e-05 )  
( 5.47216e-05 1.2494e-05 -3.86669e-05 )  
( 2.11439e-05 -3.07847e-05 4.17808e-05 )  
( 0.000426624 -1.16803e-05 -4.95904e-05 )  
( 5.56756e-05 -2.99677e-05 5.51891e-05 )  
( 6.44187e-05 -4.30921e-06 4.73738e-05 )  
( 0.000321283 2.17683e-05 -8.84163e-05 )  
( -2.6596e-06 -4.54992e-06 2.18903e-05 )  
( 0.000104278 2.90179e-05 -3.32728e-05 )  
( 3.17975e-05 -4.23927e-05 2.59586e-05 )  
( 0.000246995 -1.97499e-05 3.81292e-05 )  
( 3.22096e-06 -1.11555e-06 2.18969e-05 )  
( 1.45461e-07 -1.33395e-05 2.57961e-05 )  
( 0.000165869 1.70259e-05 -6.69586e-05 )  
( 3.24248e-05 -1.02394e-05 4.17696e-05 )  
( 0.000172303 -9.18364e-06 -4.72567e-05 )  
( 1.33849e-05 -3.06475e-05 3.33395e-05 )  
( 0.000195146 -5.08557e-05 5.62415e-05 )  
( 5.9316e-05 2.23857e-05 -2.85269e-05 )  
( 4.98915e-05 1.37327e-05 -3.30917e-05 )  
( 2.43535e-05 -1.86001e-05 4.76427e-05 )  
( 3.87302e-05 1.6272e-05 -3.18014e-05 )  
( 5.8996e-05 2.16669e-05 3.54176e-05 )  
( 0.000354202 -9.97671e-06 -0.000136856 )  
( 6.40463e-05 -9.15765e-06 -4.16328e-05 )  
( 3.4122e-05 3.32003e-05 -1.70716e-05 )  
( 4.82194e-05 2.68378e-05 -1.94622e-05 )  
( 0.000104569 2.77452e-05 -6.7862e-05 )  
( 0.000216724 9.17918e-05 -6.39224e-05 )  
( 5.37569e-05 -1.97986e-05 5.49613e-05 )  
( 4.71151e-05 1.92122e-05 -2.13969e-05 )  
( 0.000136585 8.54931e-06 -8.44605e-05 )  
( 0.000104566 -5.42861e-05 5.08315e-05 )  
( 0.00015612 -4.3636e-06 -5.95725e-05 )  
( 0.000221054 5.40296e-05 -9.39984e-05 )  
( 0.000187323 2.32298e-05 -0.000103249 )  
( 7.69639e-05 1.74774e-05 4.40716e-05 )  
( 2.73016e-05 8.19311e-06 -2.08912e-05 )  
( 0.000174498 2.6884e-05 -3.45594e-05 )  
( 3.24837e-05 5.93393e-06 -2.84736e-05 )  
( 0.000125395 4.75106e-05 -3.85334e-05 )  
( 0.000348489 -8.92615e-06 0.000119908 )  
( 7.0571e-05 -3.55669e-05 4.15397e-05 )  
( 4.28038e-05 -1.96055e-05 4.71608e-05 )  
( 0.000106721 -3.41485e-05 5.45312e-05 )  
( 2.76557e-05 4.61124e-06 -2.70079e-05 )  
( 3.31213e-07 -1.94075e-05 1.19079e-05 )  
( 7.02826e-05 3.93804e-05 -2.03065e-05 )  
( 0.000238746 5.07889e-09 -4.07171e-06 )  
( 3.85226e-05 -2.54827e-05 5.09748e-05 )  
( 0.000259471 -3.95407e-05 -6.41625e-05 )  
( 0.000140991 9.55095e-06 -7.8618e-05 )  
( 7.17541e-07 -1.37965e-05 1.84055e-05 )  
( 4.73041e-05 8.05732e-06 -2.52896e-05 )  
( 6.4276e-05 2.85273e-05 -5.06237e-05 )  
( 4.50746e-05 1.27538e-05 3.9063e-05 )  
( 5.40456e-05 2.29879e-05 -2.85087e-05 )  
( 6.98498e-05 5.11793e-05 -2.61691e-05 )  
( 0.000163823 3.48109e-05 3.7163e-05 )  
( 4.40623e-05 -6.99181e-06 4.60933e-05 )  
( 1.25879e-05 -1.45851e-05 3.26005e-05 )  
( 4.02023e-05 2.34697e-05 -3.26422e-05 )  
( 7.97021e-06 -8.86124e-06 2.33616e-05 )  
( 2.40748e-05 4.58087e-07 -2.81324e-05 )  
( 0.000113185 -4.12763e-05 -4.59293e-05 )  
( 8.51082e-06 -1.73306e-05 2.63416e-05 )  
( 0.000218661 2.349e-05 -3.10019e-05 )  
( 0.000325805 2.75203e-05 -3.16212e-05 )  
( 3.88131e-05 -2.1898e-05 4.94434e-05 )  
( 0.000203469 6.19108e-05 -2.63956e-05 )  
( 0.000105343 -1.26804e-05 -3.08437e-05 )  
( 0.000102331 4.70336e-05 -4.0016e-05 )  
( 0.000106593 -4.48259e-06 9.22692e-06 )  
( 5.33517e-05 -2.46055e-05 3.52127e-05 )  
( 0.000171032 4.86943e-07 4.18102e-06 )  
( 9.49331e-05 -1.88132e-05 4.11929e-05 )  
( 0.000101606 -1.5393e-05 3.41759e-05 )  
( 7.29972e-05 1.36102e-05 -1.58873e-05 )  
( 0.00012064 -9.98497e-06 2.21863e-05 )  
( 4.05818e-05 -1.51065e-05 3.23896e-05 )  
( 0.000138887 -8.79673e-06 3.67374e-05 )  
( 0.000126821 1.81695e-05 -3.33347e-05 )  
( 0.000137572 1.47701e-05 -2.78364e-05 )  
( 0.000107966 1.06115e-06 -4.13011e-05 )  
( 0.000145306 -6.03474e-06 2.465e-05 )  
( 0.00013091 2.8406e-06 -2.12331e-05 )  
( 2.79582e-05 -1.992e-06 2.46782e-05 )  
( 0.000146895 -1.42738e-05 1.04485e-05 )  
( 4.63669e-06 -7.05173e-06 1.87422e-05 )  
( 5.70125e-06 -1.04014e-05 3.12552e-05 )  
( 5.96356e-05 9.67211e-06 2.9707e-05 )  
( 0.000173365 1.4803e-06 -5.71506e-05 )  
( 0.00011447 2.20503e-05 -5.48602e-05 )  
( 2.15699e-05 -1.24084e-06 2.89175e-05 )  
( 2.37393e-05 -1.62572e-05 3.75174e-05 )  
( 4.68605e-05 1.70427e-06 2.06284e-05 )  
( 8.03191e-05 -2.14462e-05 3.09441e-05 )  
( 5.81846e-05 -7.26886e-06 4.19637e-05 )  
( 8.95084e-05 1.65802e-05 -2.15057e-05 )  
( 0.000172824 -1.95718e-05 2.326e-06 )  
( 7.23915e-05 -9.85755e-06 3.99531e-05 )  
( 6.14464e-06 -8.10453e-06 1.94683e-05 )  
( 0.000166435 1.4663e-05 2.90731e-05 )  
( 5.81457e-05 7.6195e-06 -3.06377e-05 )  
( 0.000125121 6.16047e-06 -2.59278e-05 )  
( 0.000136084 1.52189e-05 -1.88548e-05 )  
( 8.70243e-05 -3.42338e-06 4.21397e-06 )  
( 0.000105531 -1.67476e-05 2.42082e-05 )  
( 8.01918e-05 -1.14205e-05 5.02134e-05 )  
( 1.33455e-05 -1.61961e-05 2.92362e-05 )  
( 2.95832e-05 -2.94502e-06 3.27836e-05 )  
( 6.79074e-05 -1.9963e-05 3.50521e-05 )  
( 0.000120577 -1.2559e-05 5.39698e-05 )  
( 6.1219e-05 -1.48026e-05 3.78977e-05 )  
( 0.000153352 -1.52512e-05 4.67143e-05 )  
( 8.0512e-05 6.30298e-06 3.93946e-06 )  
( 2.47689e-05 -1.696e-05 2.84856e-05 )  
( 0.000147728 -1.04519e-05 -1.13754e-06 )  
( 7.3711e-05 1.10927e-05 -2.32134e-05 )  
( 0.000186492 -3.0639e-06 -4.5546e-05 )  
( 0.000200254 -7.39053e-07 5.29206e-05 )  
( 9.08141e-05 -1.32687e-05 5.14876e-05 )  
( 1.70572e-06 -1.52919e-06 2.62327e-05 )  
( 5.32655e-05 -4.39523e-06 3.52574e-05 )  
( 0.000103394 1.48819e-05 -2.92512e-05 )  
( 5.99875e-05 1.58074e-05 1.98376e-05 )  
( 8.57422e-05 1.28371e-05 -3.45947e-05 )  
( 0.000148136 -1.93381e-05 3.17387e-05 )  
( 9.99178e-05 -1.71957e-05 3.26142e-05 )  
( 0.000117412 -1.31972e-05 3.50293e-05 )  
( 0.000118574 1.79096e-05 -2.4545e-05 )  
( 3.45389e-05 -1.03532e-05 4.14361e-05 )  
( 0.00013675 8.11573e-06 -4.67922e-05 )  
( 1.37577e-05 -1.03845e-05 2.03986e-05 )  
( 0.000209023 -3.38642e-05 0.000115867 )  
( -1.49549e-07 -3.14501e-06 7.95692e-06 )  
( 7.04546e-05 1.43425e-05 -4.98127e-05 )  
( 0.000213538 -5.87803e-06 4.3569e-06 )  
( 5.47682e-05 -2.04214e-05 2.83799e-05 )  
( 6.05089e-06 -7.98462e-06 1.5654e-05 )  
( 4.40841e-06 -2.50431e-07 1.16954e-05 )  
( 7.98073e-05 -2.69857e-05 3.99515e-05 )  
( 2.12824e-05 3.12011e-05 -2.50436e-05 )  
( 2.71084e-05 -1.48484e-05 2.94972e-05 )  
( 0.000190306 3.67825e-05 -1.14021e-05 )  
( 6.83723e-06 -1.1025e-05 2.72349e-05 )  
( 1.25176e-05 3.99822e-06 -1.77593e-05 )  
( 0.000141985 -4.11683e-05 7.41464e-05 )  
( 6.85102e-05 2.82036e-05 -2.10269e-05 )  
( 7.39514e-05 1.60943e-05 -2.56485e-05 )  
( 6.29722e-05 1.30087e-05 -3.43881e-05 )  
( 3.18905e-05 -2.8701e-06 4.35389e-05 )  
( 5.18731e-05 1.78412e-05 -3.31818e-05 )  
( 0.000180202 -1.88849e-05 7.35687e-05 )  
( 0.000175756 1.87196e-05 -1.89496e-05 )  
( 4.31428e-05 9.60889e-06 -3.53054e-05 )  
( 0.00019172 -8.3014e-06 9.33365e-07 )  
( 4.36999e-05 1.74539e-05 -1.61408e-05 )  
( 6.5871e-05 -7.50147e-06 3.52899e-05 )  
( 0.000208334 -2.15669e-05 7.32887e-05 )  
( 0.000153911 -1.63071e-06 -3.27874e-05 )  
( 0.000226582 1.06848e-05 -6.65956e-05 )  
( 0.000171435 1.10766e-05 -3.03997e-05 )  
( 0.000104512 2.66103e-05 -5.81925e-05 )  
( 0.000156217 -3.98191e-06 2.75904e-05 )  
( 3.47469e-05 -2.73423e-05 3.93605e-05 )  
( 2.69647e-05 -6.08169e-06 4.0658e-05 )  
( 0.000133802 3.37741e-05 -3.27419e-05 )  
( 0.000127433 5.73015e-06 -2.37048e-05 )  
( 0.000148395 1.08714e-05 -5.39102e-05 )  
( 0.000115109 -1.94922e-05 4.70475e-05 )  
( 8.0276e-05 -6.60901e-06 5.70523e-05 )  
( 0.000100722 2.03511e-05 -2.99381e-05 )  
( 9.59379e-05 4.79579e-06 -5.07649e-05 )  
( 6.84054e-05 -2.45736e-05 4.31623e-05 )  
( 4.38404e-05 -2.00985e-05 3.77876e-05 )  
( 3.71974e-05 -2.93764e-06 3.117e-05 )  
( -4.32539e-06 -9.4307e-06 2.53745e-05 )  
( 0.000130223 6.03207e-06 5.98883e-05 )  
( 0.000136352 8.61529e-05 -6.18327e-05 )  
( 1.35858e-05 -3.92994e-05 1.7681e-05 )  
( 1.57821e-05 6.62957e-06 -1.84479e-05 )  
( 2.10687e-05 9.03063e-06 -4.38186e-05 )  
( 0.000115543 4.24271e-05 -1.73627e-05 )  
( 4.09752e-05 -4.35418e-05 2.34271e-05 )  
( 0.000236355 -0.000117881 3.50555e-05 )  
( 6.32052e-05 -5.23639e-05 2.92668e-05 )  
( -3.92468e-06 -2.20798e-05 5.40484e-05 )  
( 0.000471312 -1.55651e-05 4.22197e-05 )  
( -5.21594e-06 5.23619e-07 -2.39973e-05 )  
( 5.70678e-06 -2.66953e-05 2.03854e-05 )  
( 0.000346325 4.76063e-05 -7.65077e-05 )  
( 5.83517e-05 -5.09395e-05 5.23298e-05 )  
( 1.84521e-05 -2.28384e-05 2.67051e-05 )  
( 0.000229411 0.000110619 -2.43888e-05 )  
( 2.13886e-05 -4.13511e-05 2.95919e-05 )  
( 1.48468e-05 -1.11436e-05 2.18871e-05 )  
( 8.43482e-05 -5.49885e-05 2.32333e-05 )  
( 1.55007e-05 -2.52476e-06 3.09293e-05 )  
( 0.000313657 -8.42905e-05 1.83869e-05 )  
( 0.000201332 -4.10685e-05 -7.06157e-07 )  
( 0.000379167 9.38859e-06 -8.67194e-05 )  
( 0.000135641 4.79617e-05 -3.70558e-05 )  
( 5.0963e-06 -5.33782e-06 6.20382e-06 )  
( 3.36732e-05 2.70894e-05 -7.60567e-06 )  
( 9.14371e-05 -5.10355e-05 1.40275e-05 )  
( 3.31149e-05 4.14176e-05 -2.05396e-05 )  
( 6.86379e-06 -3.06939e-05 1.34344e-05 )  
( 6.45477e-06 2.84626e-05 -3.56907e-05 )  
( -5.83892e-06 -7.29075e-06 1.43744e-05 )  
( 0.000417974 6.01861e-05 3.28829e-05 )  
( 9.05275e-05 -8.15787e-05 3.25813e-05 )  
( 2.86663e-05 -5.4145e-05 1.99143e-05 )  
( 0.000512935 -1.28705e-05 9.87342e-05 )  
( 3.00967e-06 -1.927e-05 1.27798e-05 )  
( 0.000164893 -2.12736e-05 -4.7935e-05 )  
( 0.000137097 -1.81863e-05 4.61241e-05 )  
( 4.82217e-05 4.47455e-05 -1.72993e-05 )  
( 0.000131794 -5.62541e-05 2.85137e-05 )  
( 0.000219009 -4.60419e-05 -2.69997e-05 )  
( 3.58527e-06 -7.25678e-06 1.91629e-05 )  
( 1.88442e-05 2.58458e-05 -9.85187e-06 )  
( 0.000123661 9.12629e-05 -3.72992e-05 )  
( 5.60512e-05 1.65569e-05 2.8534e-05 )  
( -8.48975e-06 -1.44723e-05 1.00498e-05 )  
( 9.89016e-07 -2.968e-05 1.11046e-05 )  
( 1.62824e-05 -2.64205e-05 8.36867e-06 )  
( 5.05399e-05 3.79965e-05 -1.77876e-05 )  
( 1.81068e-06 -5.05984e-06 1.07403e-05 )  
( -7.86748e-06 -4.24454e-05 5.64697e-05 )  
( 4.62853e-05 -6.27266e-05 1.28373e-05 )  
( 0.000299881 -8.92352e-05 3.35183e-05 )  
( 0.000109985 -5.08434e-05 5.86774e-06 )  
( 1.27392e-05 2.00937e-05 -1.178e-05 )  
( 8.56513e-06 -1.77211e-05 2.2671e-05 )  
)
