/*--------------------------------*- C++ -*----------------------------------*\
| =========                 |                                                 |
| \\      /  F ield         | OpenFOAM: The Open Source CFD Toolbox           |
|  \\    /   O peration     | Version:  4.x                                   |
|   \\  /    A nd           | Web:      www.OpenFOAM.org                      |
|    \\/     M anipulation  |                                                 |
\*---------------------------------------------------------------------------*/
FoamFile
{
    version     2.0;
    format      ascii;
    class       volScalarField;
    location    "48.5";
    object      alpha.iron;
}
// * * * * * * * * * * * * * * * * * * * * * * * * * * * * * * * * * * * * * //

dimensions      [0 0 0 0 0 0 0];

internalField   nonuniform List<scalar> 
87
(
1
1
1
1
1
1
1
1
0.995617
1
1
1
1
1
1
1
1
0.999238
1
1
1
1
1
1
1
1
0.999627
1
1
1
1
1
1
1
1
0.999729
1
1
1
1
1
1
0.999999
0.999999
0.999855
1
1
1
1
0.999999
0.999999
0.999997
0.999997
0.999939
1
1
1
1
1
1
1
1
0.999873
1
1
1
1
1
1
0.999999
0.999999
0.9999
1
1
1
1
0.999999
0.999998
0.999996
0.999995
0.999939
1
1
1
1
1
1
)
;

boundaryField
{
    inlet
    {
        type            fixedValue;
        value           nonuniform 0();
    }
    outlet
    {
        type            fixedValue;
        value           uniform 1;
    }
    wall
    {
        type            zeroGradient;
    }
    procBoundary1to0
    {
        type            processor;
        value           nonuniform List<scalar> 
12
(
1
1
1
1
1
1
1
1
1
1
1
1
)
;
    }
    procBoundary1to3
    {
        type            processor;
        value           nonuniform List<scalar> 
27
(
1
1
1
1
1
1
1
1
0.999843
1
1
1
1
1
0.999999
0.999998
0.999998
0.9999
1
1
1
0.999999
0.999999
0.999998
0.999995
0.999993
0.999958
)
;
    }
    procBoundary1to5
    {
        type            processor;
        value           nonuniform List<scalar> 
32
(
1
1
1
1
0.999999
0.999996
1
1
1
0.999999
0.999999
0.999998
0.999973
1
1
0.999999
0.999999
0.999997
0.999995
0.99999
0.999898
1
1
1
1
1
1
1
1
1
1
1
)
;
    }
    procBoundary1to7
    {
        type            processor;
        value           uniform 1;
    }
}


// ************************************************************************* //
