/*--------------------------------*- C++ -*----------------------------------*\
| =========                 |                                                 |
| \\      /  F ield         | OpenFOAM: The Open Source CFD Toolbox           |
|  \\    /   O peration     | Version:  4.x                                   |
|   \\  /    A nd           | Web:      www.OpenFOAM.org                      |
|    \\/     M anipulation  |                                                 |
\*---------------------------------------------------------------------------*/
FoamFile
{
    version     2.0;
    format      ascii;
    class       volVectorField;
    location    "48.5";
    object      DDtUrel;
}
// * * * * * * * * * * * * * * * * * * * * * * * * * * * * * * * * * * * * * //

dimensions      [0 1 -2 0 0 0 0];

internalField   nonuniform List<vector> 
87
(
(0.000261774 3.51144e-05 1.1878e-05)
(0.000186406 1.98657e-05 -2.22052e-05)
(0.000203687 6.09281e-06 -2.98422e-05)
(5.68532e-05 -1.6691e-05 -8.63878e-05)
(8.16052e-05 -4.71901e-05 -9.80024e-05)
(-0.000349361 -0.000121999 -0.000270809)
(-0.000482294 -0.000203678 -0.000331664)
(-0.00230959 -0.000490426 -0.000907393)
(-0.00440022 -0.000681714 -0.00153787)
(0.000228351 2.61062e-05 1.60145e-05)
(0.000153998 7.30695e-06 -1.0567e-05)
(0.000164506 2.64932e-06 -1.61921e-05)
(1.17946e-05 -3.36248e-05 -6.62977e-05)
(9.42047e-06 -3.87963e-05 -7.96676e-05)
(-0.00040244 -0.000133775 -0.000242131)
(-0.000622254 -0.000157366 -0.000336323)
(-0.00214119 -0.000512497 -0.000885724)
(-0.00390594 -0.000857065 -0.00144582)
(0.000171885 1.8457e-05 2.13392e-05)
(0.00010348 8.43957e-06 1.16605e-06)
(9.20564e-05 -4.10556e-06 -1.38683e-06)
(-4.45458e-05 -3.29171e-05 -5.49795e-05)
(-9.31446e-05 -5.09105e-05 -7.64337e-05)
(-0.00043859 -0.000113713 -0.000235964)
(-0.000686614 -0.000151198 -0.000344739)
(-0.00191485 -0.000389875 -0.000877025)
(-0.00333024 -0.000601709 -0.00139745)
(0.000171212 3.0917e-05 1.55618e-05)
(0.000108097 2.03673e-05 -7.76724e-06)
(9.62879e-05 8.41673e-06 -1.62356e-05)
(-2.85715e-05 -1.11769e-05 -5.48339e-05)
(-9.53537e-05 -3.8498e-05 -7.42744e-05)
(-0.000441086 -9.84535e-05 -0.000201202)
(-0.000791739 -0.000178325 -0.00028416)
(-0.00191718 -0.000341644 -0.00068939)
(-0.00321067 -0.000475811 -0.00111376)
(0.000143188 2.34917e-05 1.88262e-05)
(8.4228e-05 1.10725e-05 3.86001e-07)
(7.36321e-05 8.45793e-06 -7.16482e-06)
(-4.99057e-05 -2.09081e-05 -4.48143e-05)
(-0.000122801 -3.02201e-05 -6.72922e-05)
(-0.000449164 -0.000100689 -0.00018936)
(-0.000802525 -0.000141591 -0.000300917)
(-0.00179159 -0.000390949 -0.000721498)
(-0.00294877 -0.000627961 -0.00110667)
(0.000103628 1.23588e-05 2.04614e-05)
(5.37596e-05 3.8141e-06 5.87424e-06)
(1.87945e-05 -3.51794e-06 -3.18338e-06)
(-8.49993e-05 -2.15888e-05 -3.7166e-05)
(-0.000204705 -3.97681e-05 -7.19844e-05)
(-0.000474329 -7.76328e-05 -0.000190003)
(-0.000848733 -0.000128399 -0.000333099)
(-0.00161215 -0.000260957 -0.000765821)
(-0.00246587 -0.000373896 -0.00111157)
(0.000107548 3.02582e-05 9.14812e-06)
(4.13178e-05 1.96505e-05 -8.11383e-06)
(2.682e-05 9.28832e-06 -1.10824e-05)
(-9.54806e-05 -1.75185e-05 -4.41428e-05)
(-0.000170372 -3.80069e-05 -4.25255e-05)
(-0.000476867 -9.56947e-05 -0.000138259)
(-0.000807336 -0.000153076 -0.000182086)
(-0.00161949 -0.000289231 -0.00048211)
(-0.00264122 -0.000397853 -0.000813694)
(9.12209e-05 2.15408e-05 1.48095e-05)
(3.47415e-05 7.8367e-06 7.95306e-07)
(1.77049e-05 4.60214e-06 -1.5715e-06)
(-9.76535e-05 -2.42959e-05 -3.64306e-05)
(-0.000187347 -3.2085e-05 -4.77008e-05)
(-0.000470092 -9.90369e-05 -0.000140672)
(-0.000796262 -0.000129351 -0.000206151)
(-0.00153081 -0.00034888 -0.00051151)
(-0.00246012 -0.000553468 -0.000816715)
(5.46742e-05 1.06676e-05 1.3854e-05)
(1.17775e-05 2.93487e-06 3.43963e-06)
(-2.65413e-05 -1.58653e-06 -5.84643e-06)
(-0.000120184 -1.91385e-05 -3.04934e-05)
(-0.000243664 -3.19517e-05 -5.57446e-05)
(-0.000477371 -7.31696e-05 -0.000142917)
(-0.000830106 -0.000105189 -0.000235859)
(-0.00135432 -0.000264699 -0.000510624)
(-0.00203493 -0.000378041 -0.000762591)
(2.73699e-05 2.72239e-05 1.89287e-05)
(-2.50583e-05 1.69548e-05 9.41424e-06)
(-7.54269e-05 7.79547e-06 6.92374e-06)
(2.8217e-05 1.92612e-05 1.49303e-05)
(-1.25379e-05 1.01899e-05 8.63189e-06)
(1.37959e-05 8.67994e-06 1.10186e-05)
)
;

boundaryField
{
    inlet
    {
        type            calculated;
        value           nonuniform 0();
    }
    outlet
    {
        type            calculated;
        value           nonuniform List<vector> 9((-0.0163307 -0.00139507 -0.0051613) (-0.012806 -0.00399405 -0.00416581) (-0.00969008 -0.00162665 -0.00454482) (-0.00630452 -5.36421e-05 -0.00213064) (-0.00594029 -0.00216647 -0.00216748) (-0.00248386 1.40338e-05 -0.00256025) (-0.00682234 -6.08168e-05 -0.00275233) (-0.00643956 -0.00237207 -0.00262702) (-0.00305543 -0.00144371 -0.0017278));
    }
    wall
    {
        type            calculated;
        value           nonuniform List<vector> 
57
(
(0.000871897 0.000105428 7.59169e-05)
(0.000814686 9.13326e-05 7.99153e-05)
(0.000424232 0.000116738 8.42358e-05)
(0.000225358 5.20162e-05 -0.000187669)
(0.000147936 -9.19981e-05 -0.000112312)
(-5.87374e-05 7.8857e-05 -7.07788e-05)
(0.00118423 3.86367e-05 4.50947e-05)
(0.00107352 9.7362e-05 9.67011e-05)
(0.000525174 7.5614e-05 0.00017556)
(-9.94954e-05 4.32614e-05 -0.000390145)
(-0.000251765 -0.000227477 -0.000224352)
(-0.000288672 -6.54238e-05 -0.000253036)
(0.0023211 4.38731e-05 0.000295356)
(0.00183481 0.000288574 0.000411865)
(0.00102707 2.24323e-05 0.000310709)
(-0.00087085 -0.00013574 -0.000934431)
(-0.00093342 -0.00056386 -0.000555973)
(-0.000589696 -0.000309411 -0.000608072)
(0.00638403 0.000240995 0.00120549)
(0.00390713 0.000991106 0.00104156)
(0.0030039 0.000204639 0.000955665)
(-0.00317494 -0.00118746 -0.00146439)
(-0.00259213 -0.00136186 -0.00131404)
(-0.00195015 -0.000870705 -0.00162348)
(-0.0163307 -0.00139507 -0.0051613)
(-0.012806 -0.00399405 -0.00416581)
(-0.00969008 -0.00162665 -0.00454482)
(0.000871897 0.000105428 7.59169e-05)
(0.000356941 6.91544e-05 8.6922e-05)
(0.000404607 9.78191e-05 -1.62292e-05)
(-0.000183417 0.00012162 6.95628e-05)
(0.000225358 5.20162e-05 -0.000187669)
(-2.0422e-05 5.70125e-05 -3.56446e-05)
(-0.00010716 6.11074e-05 -0.000136466)
(-0.000343811 5.23827e-05 -4.63734e-07)
(0.00118423 3.86367e-05 4.50947e-05)
(0.000415994 3.747e-05 7.95443e-05)
(0.000504464 8.41048e-05 1.79058e-05)
(-0.000548268 9.21718e-05 3.85063e-05)
(-9.94954e-05 4.32614e-05 -0.000390145)
(-0.000208415 7.97936e-05 -8.38129e-05)
(-0.000277695 -2.76777e-05 -0.000272615)
(0.0023211 4.38731e-05 0.000295356)
(0.00058094 6.68901e-05 0.000228157)
(0.00075674 0.000104591 0.000291769)
(-0.00087085 -0.00013574 -0.000934431)
(-0.000572081 3.63888e-05 -0.000359558)
(-0.000521414 -7.39924e-05 -0.000412378)
(0.00638403 0.000240995 0.00120549)
(0.000851547 -1.99613e-05 0.000644101)
(0.000792021 0.000142923 0.000703891)
(-0.00317494 -0.00118746 -0.00146439)
(-0.00146623 9.94312e-06 -0.000495783)
(-0.00109762 -6.85794e-05 -0.000682185)
(-0.0163307 -0.00139507 -0.0051613)
(-0.00630452 -5.36421e-05 -0.00213064)
(-0.00682234 -6.08168e-05 -0.00275233)
)
;
    }
    procBoundary1to0
    {
        type            processor;
        value           nonuniform List<vector> 
12
(
(0.000266101 4.11255e-05 1.88024e-05)
(0.000223939 2.59574e-05 1.90511e-05)
(0.00017258 1.51396e-05 2.21414e-05)
(0.000178029 3.33353e-05 2.33368e-05)
(0.000144675 2.08826e-05 2.24152e-05)
(0.000112919 1.0998e-05 2.17747e-05)
(0.00011305 3.04923e-05 1.35665e-05)
(9.18964e-05 1.67207e-05 1.48615e-05)
(6.71555e-05 8.91405e-06 1.68788e-05)
(5.00636e-05 2.30964e-05 2.11114e-05)
(4.50025e-05 1.67375e-05 1.59495e-05)
(3.52884e-05 8.04041e-06 1.29891e-05)
)
;
    }
    procBoundary1to3
    {
        type            processor;
        value           nonuniform List<vector> 
27
(
(0.000172966 -1.15488e-06 2.73422e-05)
(9.54928e-05 -6.13587e-06 1.29826e-05)
(8.41214e-05 -2.02748e-05 1.14005e-05)
(-7.37057e-05 -4.43823e-05 -3.08112e-05)
(-0.000135765 -5.0593e-05 -5.79368e-05)
(-0.000493011 -9.27406e-05 -0.000208088)
(-0.000756823 -7.13781e-05 -0.000341458)
(-0.00178191 -0.000267799 -0.00074852)
(-0.00303909 -0.000463734 -0.0011577)
(0.000107823 1.32367e-06 2.21695e-05)
(4.58552e-05 -3.1624e-06 9.63901e-06)
(2.04691e-05 -1.08493e-05 7.03742e-06)
(-0.000100066 -1.8619e-05 -3.06064e-05)
(-0.000200448 -2.72195e-05 -5.81016e-05)
(-0.000484461 -3.6614e-05 -0.000184861)
(-0.000809617 -5.16428e-05 -0.000309962)
(-0.00153997 -8.92568e-05 -0.000728519)
(-0.00244671 -0.000134325 -0.00107241)
(4.87116e-05 -3.69538e-08 1.6458e-05)
(4.14314e-06 -3.57255e-06 4.99036e-06)
(-3.69694e-05 -8.3998e-06 -1.94913e-06)
(-0.000129915 -1.42374e-05 -2.90765e-05)
(-0.000258621 -1.61112e-05 -5.32911e-05)
(-0.000482532 -2.47292e-05 -0.000144605)
(-0.000832255 -2.06542e-05 -0.000245107)
(-0.00130105 -6.8549e-05 -0.000538302)
(-0.00191093 -0.000106046 -0.000791224)
)
;
    }
    procBoundary1to5
    {
        type            processor;
        value           nonuniform List<vector> 
32
(
(-0.000150545 -2.06857e-05 -3.22594e-06)
(-0.000286258 -5.0704e-05 -1.18272e-05)
(-0.00047925 -9.70065e-05 -3.83495e-05)
(-0.000847313 -0.000164763 -7.44995e-05)
(-0.00135973 -0.000278498 -0.000146918)
(-0.00196871 -0.000389013 -0.000228428)
(-5.50226e-05 2.5143e-06 6.94348e-06)
(-0.00013879 -2.00932e-05 -7.01536e-06)
(-0.000265753 -4.27177e-05 -1.31285e-05)
(-0.00047698 -8.88402e-05 -5.18855e-05)
(-0.000827505 -0.000143798 -8.49396e-05)
(-0.00129153 -0.000287287 -0.000208327)
(-0.00189917 -0.000432579 -0.000315723)
(-1.67845e-05 1.83927e-06 5.33925e-06)
(-6.39188e-05 -6.56605e-06 1.63453e-06)
(-0.000140646 -1.79031e-05 -9.84821e-06)
(-0.000270597 -3.54454e-05 -2.2169e-05)
(-0.00046786 -6.24659e-05 -5.82891e-05)
(-0.000801406 -0.000105022 -0.000104859)
(-0.00117809 -0.000182137 -0.000200826)
(-0.00168935 -0.000250333 -0.000282448)
(4.65191e-05 1.65828e-05 2.3951e-05)
(-1.84503e-06 8.26973e-06 2.35465e-05)
(-0.000150545 -2.06857e-05 -3.22594e-06)
(-5.50226e-05 2.5143e-06 6.94348e-06)
(-1.68295e-05 4.13519e-06 2.27369e-05)
(2.5481e-05 1.47553e-05 1.23008e-05)
(-5.50226e-05 2.5143e-06 6.94348e-06)
(-1.67845e-05 1.83927e-06 5.33925e-06)
(-1.1731e-05 6.9094e-06 1.15146e-05)
(-1.67845e-05 1.83927e-06 5.33925e-06)
(9.02728e-06 5.11421e-06 7.60639e-06)
)
;
    }
    procBoundary1to7
    {
        type            processor;
        value           uniform (1.55872e-05 1.3407e-06 8.60357e-06);
    }
}


// ************************************************************************* //
