/*--------------------------------*- C++ -*----------------------------------*\
| =========                 |                                                 |
| \\      /  F ield         | OpenFOAM: The Open Source CFD Toolbox           |
|  \\    /   O peration     | Version:  4.x                                   |
|   \\  /    A nd           | Web:      www.OpenFOAM.org                      |
|    \\/     M anipulation  |                                                 |
\*---------------------------------------------------------------------------*/
FoamFile
{
    version     2.0;
    format      ascii;
    class       volScalarField;
    location    "48.5";
    object      QPartFluid;
}
// * * * * * * * * * * * * * * * * * * * * * * * * * * * * * * * * * * * * * //

dimensions      [1 -1 -3 0 0 0 0];

internalField   nonuniform List<scalar> 
87
(
4.29724e+09
7.05858e+09
4.19761e+09
6.55692e+09
4.37115e+09
4.88244e+09
5.24496e+09
6.58935e+09
3.98649e+09
4.53336e+09
4.43217e+09
5.84448e+09
5.75006e+09
4.39976e+09
6.67401e+09
7.65532e+09
6.74181e+09
4.0229e+09
3.94767e+09
7.09685e+09
6.22683e+09
8.96156e+09
6.29978e+09
5.82579e+09
5.77144e+09
6.30847e+09
4.30483e+09
7.42705e+09
6.59285e+09
6.14011e+09
7.58135e+09
6.36195e+09
7.84072e+09
9.05718e+09
8.94281e+09
5.34782e+09
9.01843e+09
6.72136e+09
7.56667e+09
9.42868e+09
9.20635e+09
7.72919e+09
9.41821e+09
1.05774e+10
4.725e+09
7.91275e+09
8.48484e+09
7.1857e+09
6.8081e+09
5.79998e+09
9.319e+09
9.46076e+09
1.31991e+10
4.472e+09
7.1208e+09
7.00979e+09
8.2274e+09
9.62353e+09
6.09753e+09
9.67556e+09
7.59923e+09
7.43588e+09
3.19581e+09
6.48252e+09
8.86239e+09
6.50172e+09
8.11051e+09
8.1983e+09
9.09721e+09
7.64858e+09
9.46774e+09
3.71421e+09
9.45615e+09
7.87284e+09
5.47518e+09
1.11408e+10
8.87161e+09
1.07132e+10
7.50313e+09
9.69736e+09
3.38453e+09
6.46875e+09
5.53287e+09
7.59518e+09
7.85808e+09
1.21995e+10
5.89968e+09
)
;

boundaryField
{
    inlet
    {
        type            calculated;
        value           nonuniform 0();
    }
    outlet
    {
        type            calculated;
        value           uniform 0;
    }
    wall
    {
        type            calculated;
        value           uniform 0;
    }
    procBoundary1to0
    {
        type            processor;
        value           nonuniform List<scalar> 
12
(
2.01749e+09
5.24309e+09
8.50535e+09
7.25942e+09
8.96884e+09
6.34506e+09
5.41751e+09
1.01424e+10
5.39357e+09
6.03844e+09
6.92837e+09
9.33339e+09
)
;
    }
    procBoundary1to3
    {
        type            processor;
        value           nonuniform List<scalar> 
27
(
8.49259e+09
3.85701e+09
6.73719e+09
3.23775e+09
5.02181e+09
3.80324e+09
5.64701e+09
5.30924e+09
2.92363e+09
8.56297e+09
8.09891e+09
1.02898e+10
1.06734e+10
8.55135e+09
8.01957e+09
6.88897e+09
8.64483e+09
7.72117e+09
8.2661e+09
1.10391e+10
9.29481e+09
1.03977e+10
6.64831e+09
7.87792e+09
9.20859e+09
8.48906e+09
7.01961e+09
)
;
    }
    procBoundary1to5
    {
        type            processor;
        value           nonuniform List<scalar> 
32
(
7.85756e+09
7.24655e+09
7.03081e+09
5.7177e+09
7.8886e+09
5.857e+09
7.26809e+09
7.05453e+09
5.91092e+09
8.27662e+09
8.52326e+09
1.01476e+10
6.56149e+09
9.95805e+09
6.15007e+09
8.71849e+09
5.89059e+09
5.3213e+09
7.46942e+09
6.25988e+09
6.64587e+09
6.65057e+09
5.7004e+09
7.85756e+09
7.26809e+09
7.5764e+09
8.11055e+09
7.26809e+09
9.95805e+09
8.24019e+09
9.95805e+09
8.51351e+09
)
;
    }
    procBoundary1to7
    {
        type            processor;
        value           uniform 1.0134e+10;
    }
}


// ************************************************************************* //
