/*--------------------------------*- C++ -*----------------------------------*\
| =========                 |                                                 |
| \\      /  F ield         | OpenFOAM: The Open Source CFD Toolbox           |
|  \\    /   O peration     | Version:  4.x                                   |
|   \\  /    A nd           | Web:      www.OpenFOAM.org                      |
|    \\/     M anipulation  |                                                 |
\*---------------------------------------------------------------------------*/
FoamFile
{
    version     2.0;
    format      ascii;
    class       volScalarField;
    location    "48.5";
    object      QPartFluidCoeff;
}
// * * * * * * * * * * * * * * * * * * * * * * * * * * * * * * * * * * * * * //

dimensions      [1 -1 -3 -1 0 0 0];

internalField   nonuniform List<scalar> 
87
(
-1.43241e+07
-2.35286e+07
-1.3992e+07
-2.18564e+07
-1.45705e+07
-1.62748e+07
-1.74832e+07
-2.19645e+07
-1.32883e+07
-1.51112e+07
-1.47739e+07
-1.94816e+07
-1.91669e+07
-1.46659e+07
-2.22467e+07
-2.55177e+07
-2.24727e+07
-1.34097e+07
-1.31589e+07
-2.36562e+07
-2.07561e+07
-2.98719e+07
-2.09993e+07
-1.94193e+07
-1.92381e+07
-2.10282e+07
-1.43494e+07
-2.47568e+07
-2.19762e+07
-2.0467e+07
-2.52712e+07
-2.12065e+07
-2.61357e+07
-3.01906e+07
-2.98094e+07
-1.78261e+07
-3.00614e+07
-2.24045e+07
-2.52222e+07
-3.14289e+07
-3.06878e+07
-2.5764e+07
-3.1394e+07
-3.52579e+07
-1.575e+07
-2.63758e+07
-2.82828e+07
-2.39523e+07
-2.26937e+07
-1.93333e+07
-3.10633e+07
-3.15359e+07
-4.39971e+07
-1.49067e+07
-2.3736e+07
-2.3366e+07
-2.74247e+07
-3.20784e+07
-2.03251e+07
-3.22519e+07
-2.53308e+07
-2.47863e+07
-1.06527e+07
-2.16084e+07
-2.95413e+07
-2.16724e+07
-2.7035e+07
-2.73277e+07
-3.0324e+07
-2.54953e+07
-3.15591e+07
-1.23807e+07
-3.15205e+07
-2.62428e+07
-1.82506e+07
-3.71361e+07
-2.9572e+07
-3.57108e+07
-2.50104e+07
-3.23245e+07
-1.12818e+07
-2.15625e+07
-1.84429e+07
-2.53173e+07
-2.61936e+07
-4.06649e+07
-1.96656e+07
)
;

boundaryField
{
    inlet
    {
        type            calculated;
        value           nonuniform 0();
    }
    outlet
    {
        type            calculated;
        value           uniform 0;
    }
    wall
    {
        type            calculated;
        value           uniform 0;
    }
    procBoundary1to0
    {
        type            processor;
        value           nonuniform List<scalar> 
12
(
152.494
396.303
642.883
548.709
677.917
479.596
409.487
766.619
407.677
456.42
523.687
705.472
)
;
    }
    procBoundary1to3
    {
        type            processor;
        value           nonuniform List<scalar> 
27
(
641.919
291.535
509.236
244.728
379.577
287.471
426.833
401.303
220.985
647.239
612.162
777.766
806.755
646.361
606.166
520.708
653.426
583.61
624.799
834.4
702.556
785.916
502.518
595.459
696.038
641.652
530.583
)
;
    }
    procBoundary1to5
    {
        type            processor;
        value           nonuniform List<scalar> 
32
(
593.92
547.736
531.429
432.177
596.266
442.706
549.364
533.222
446.782
625.595
644.238
767.016
495.956
752.687
464.858
658.994
445.245
402.215
564.582
473.158
502.333
502.689
430.87
593.92
549.364
572.668
613.042
549.364
752.687
622.841
752.687
643.5
)
;
    }
    procBoundary1to7
    {
        type            processor;
        value           uniform 765.984;
    }
}


// ************************************************************************* //
