/*--------------------------------*- C++ -*----------------------------------*\
| =========                 |                                                 |
| \\      /  F ield         | OpenFOAM: The Open Source CFD Toolbox           |
|  \\    /   O peration     | Version:  4.x                                   |
|   \\  /    A nd           | Web:      www.OpenFOAM.org                      |
|    \\/     M anipulation  |                                                 |
\*---------------------------------------------------------------------------*/
FoamFile
{
    version     2.0;
    format      ascii;
    class       volScalarField;
    location    "48.5";
    object      QWallFluidCoeff;
}
// * * * * * * * * * * * * * * * * * * * * * * * * * * * * * * * * * * * * * //

dimensions      [1 -1 -3 -1 0 0 0];

internalField   nonuniform List<scalar> 
87
(
-5.3735e+06
-7.50448e+06
-5.46189e+06
-7.87296e+06
-5.40354e+06
-8.54463e+06
-4.96551e+06
-1.01072e+07
-3.59316e+06
-2.39008e+06
-3.60476e+06
-2.42098e+06
-3.77155e+06
-2.35775e+06
-4.04358e+06
-2.10952e+06
-4.58175e+06
-1.7971e+06
-2.04304e+06
-3.31689e+06
-2.00415e+06
-3.40095e+06
-1.91984e+06
-3.59618e+06
-1.8005e+06
-4.08371e+06
-1.68294e+06
-1.83724e+06
-3.20352e+06
-1.82606e+06
-3.26897e+06
-1.72551e+06
-3.34844e+06
-1.45652e+06
-3.44511e+06
-1.00906e+06
0
0
0
0
0
0
0
0
0
0
0
0
0
0
0
0
0
0
-1.72044e+06
-3.14361e+06
-1.65791e+06
-3.21997e+06
-1.52488e+06
-3.33152e+06
-1.31945e+06
-3.46627e+06
-1.23111e+06
0
0
0
0
0
0
0
0
0
0
0
0
0
0
0
0
0
0
-1.29533e+06
-2.80745e+06
-951983
0
0
0
)
;

boundaryField
{
    inlet
    {
        type            calculated;
        value           nonuniform 0();
    }
    outlet
    {
        type            calculated;
        value           uniform 0;
    }
    wall
    {
        type            calculated;
        value           uniform 0;
    }
    procBoundary1to0
    {
        type            processor;
        value           uniform 0;
    }
    procBoundary1to3
    {
        type            processor;
        value           uniform 0;
    }
    procBoundary1to5
    {
        type            processor;
        value           uniform 0;
    }
    procBoundary1to7
    {
        type            processor;
        value           uniform 0;
    }
}


// ************************************************************************* //
