/*--------------------------------*- C++ -*----------------------------------*\
| =========                 |                                                 |
| \\      /  F ield         | OpenFOAM: The Open Source CFD Toolbox           |
|  \\    /   O peration     | Version:  4.x                                   |
|   \\  /    A nd           | Web:      www.OpenFOAM.org                      |
|    \\/     M anipulation  |                                                 |
\*---------------------------------------------------------------------------*/
FoamFile
{
    version     2.0;
    format      ascii;
    class       volScalarField;
    location    "48.5";
    object      QWallFluid;
}
// * * * * * * * * * * * * * * * * * * * * * * * * * * * * * * * * * * * * * //

dimensions      [1 -1 -3 0 0 0 0];

internalField   nonuniform List<scalar> 
87
(
1.61205e+09
2.25134e+09
1.63857e+09
2.36189e+09
1.62106e+09
2.56339e+09
1.48965e+09
3.03216e+09
1.07795e+09
7.17024e+08
1.08143e+09
7.26294e+08
1.13146e+09
7.07325e+08
1.21307e+09
6.32857e+08
1.37452e+09
5.39131e+08
6.12911e+08
9.95067e+08
6.01246e+08
1.02029e+09
5.75952e+08
1.07885e+09
5.40151e+08
1.22511e+09
5.04883e+08
5.51172e+08
9.61055e+08
5.47817e+08
9.80692e+08
5.17654e+08
1.00453e+09
4.36956e+08
1.03353e+09
3.02719e+08
0
0
0
0
0
0
0
0
0
0
0
0
0
0
0
0
0
0
5.16131e+08
9.43084e+08
4.97373e+08
9.6599e+08
4.57465e+08
9.99456e+08
3.95836e+08
1.03988e+09
3.69334e+08
0
0
0
0
0
0
0
0
0
0
0
0
0
0
0
0
0
0
3.88599e+08
8.42235e+08
2.85595e+08
0
0
0
)
;

boundaryField
{
    inlet
    {
        type            calculated;
        value           nonuniform 0();
    }
    outlet
    {
        type            calculated;
        value           uniform 0;
    }
    wall
    {
        type            calculated;
        value           uniform 0;
    }
    procBoundary1to0
    {
        type            processor;
        value           nonuniform List<scalar> 
12
(
2.18215e+09
1.03726e+09
9.70923e+08
9.39596e+08
0
0
9.19963e+08
0
0
8.60744e+08
0
0
)
;
    }
    procBoundary1to3
    {
        type            processor;
        value           nonuniform List<scalar> 
27
(
6.60094e+08
1.04608e+09
6.75515e+08
1.0999e+09
6.60437e+08
1.16306e+09
5.76392e+08
1.24925e+09
4.90876e+08
0
0
0
0
0
0
0
0
0
0
0
0
0
0
0
0
0
0
)
;
    }
    procBoundary1to5
    {
        type            processor;
        value           nonuniform List<scalar> 
32
(
7.90749e+08
1.22203e+08
6.99197e+08
5193.95
5.28586e+08
7.55464e+07
0
0
0
0
0
0
0
0
0
0
0
0
0
0
0
4.53925e+08
8.97065e+08
7.90749e+08
0
4.41338e+08
0
0
0
0
0
0
)
;
    }
    procBoundary1to7
    {
        type            processor;
        value           uniform 0;
    }
}


// ************************************************************************* //
