/*--------------------------------*- C++ -*----------------------------------*\
| =========                 |                                                 |
| \\      /  F ield         | OpenFOAM: The Open Source CFD Toolbox           |
|  \\    /   O peration     | Version:  4.x                                   |
|   \\  /    A nd           | Web:      www.OpenFOAM.org                      |
|    \\/     M anipulation  |                                                 |
\*---------------------------------------------------------------------------*/
FoamFile
{
    version     2.0;
    format      ascii;
    class       volScalarField;
    location    "27";
    object      p;
}
// * * * * * * * * * * * * * * * * * * * * * * * * * * * * * * * * * * * * * //

dimensions      [1 -1 -2 0 0 0 0];

internalField   nonuniform List<scalar> 
87
(
82.074
38.8254
81.9404
88.7734
38.7591
81.7824
-1765.65
-1783.86
-1773.05
-1801.48
-1780.78
-1819.65
-1788.33
-1837.66
-1795.94
-1766.07
-1783.92
-1773.23
-1801.77
-1780.75
-1820.09
-1788.27
-1838.46
-1795.7
-1766.79
-1784.3
-1773.9
-1801.97
-1781.24
-1820.27
-1788.73
-1838.62
-1795.82
-3643.83
-3661.84
-3651.24
-3679.64
-3658.82
-3697.7
-3666.27
-3715.95
-3673.34
-3644.27
-3661.97
-3651.55
-3679.77
-3659.05
-3697.97
-3666.47
-3716.43
-3673.69
-3644.88
-3662.29
-3652.05
-3679.93
-3659.46
-3698.13
-3666.8
-3716.47
-3673.9
-5522.15
-5539.87
-5529.43
-5557.58
-5536.95
-5575.66
-5544.4
-5594.11
-5551.65
-5522.47
-5539.98
-5529.66
-5557.68
-5537.11
-5575.96
-5544.52
-5594.26
-5551.72
-5522.95
-5540.19
-5530.07
-5557.84
-5537.41
-5575.97
-5544.78
-5594.18
-5551.79
)
;

boundaryField
{
    inlet
    {
        type            calculated;
        value           nonuniform List<scalar> 9(-1765.65 -1766.07 -1766.79 -3643.83 -3644.27 -3644.88 -5522.15 -5522.47 -5522.95);
    }
    outlet
    {
        type            calculated;
        value           nonuniform 0();
    }
    wall
    {
        type            calculated;
        value           nonuniform List<scalar> 
57
(
-6461.11
-6461.43
-6461.91
-6478.83
-6478.94
-6479.15
-6468.39
-6468.62
-6469.03
-6496.54
-6496.64
-6496.8
-6475.91
-6476.06
-6476.37
-6514.62
-6514.91
-6514.93
-6483.36
-6483.48
-6483.74
-6533.07
-6533.22
-6533.14
-6490.6
-6490.68
-6490.75
-1766.79
-3644.88
-5522.95
-1784.3
-3662.29
-5540.19
-1773.9
-3652.05
-5530.07
-1801.97
-3679.93
-5557.84
-1781.24
-3659.46
-5537.41
-1820.27
-3698.13
-5575.97
88.7734
-1788.73
-3666.8
-5544.78
38.7591
-1838.62
-3716.47
-5594.18
81.7824
-1795.82
-3673.9
-5551.79
)
;
    }
    procBoundary6to0
    {
        type            processor;
        value           uniform 81.9878;
    }
    procBoundary6to2
    {
        type            processor;
        value           nonuniform List<scalar> 
32
(
1959.76
1916.51
1959.85
1966.69
1916.45
1959.71
111.535
93.7787
104.258
75.8012
96.7542
57.704
89.329
39.5974
39.5974
39.5974
111.195
93.556
103.995
75.5718
96.524
57.3347
89.0958
89.0958
89.0958
110.547
93.208
103.438
75.3539
96.0689
57.1504
57.1504
)
;
    }
    procBoundary6to4
    {
        type            processor;
        value           nonuniform List<scalar> 
27
(
-1765.69
-1783.49
-1772.92
-1801.39
-1780.65
-1819.48
-1788.43
-1837.53
-1795.77
-3643.72
-3661.65
-3651.02
-3679.48
-3658.71
-3697.88
-3666.35
-3716.46
-3673.69
-5521.91
-5539.83
-5529.27
-5557.58
-5536.93
-5576.01
-5544.56
-5594.38
-5551.77
)
;
    }
    procBoundary6to7
    {
        type            processor;
        value           nonuniform List<scalar> 
12
(
21.6843
20.1976
20.163
-1855.58
-1856.79
-1857.13
-3734.2
-3735.14
-3735
-5612.16
-5612.77
-5612.59
)
;
    }
}


// ************************************************************************* //
