/*--------------------------------*- C++ -*----------------------------------*\
| =========                 |                                                 |
| \\      /  F ield         | OpenFOAM: The Open Source CFD Toolbox           |
|  \\    /   O peration     | Version:  4.x                                   |
|   \\  /    A nd           | Web:      www.OpenFOAM.org                      |
|    \\/     M anipulation  |                                                 |
\*---------------------------------------------------------------------------*/
FoamFile
{
    version     2.0;
    format      ascii;
    class       volScalarField;
    location    "27";
    object      QPartFluidCoeff;
}
// * * * * * * * * * * * * * * * * * * * * * * * * * * * * * * * * * * * * * //

dimensions      [1 -1 -3 -1 0 0 0];

internalField   nonuniform List<scalar> 
87
(
-2.71902e+07
-2.23365e+07
-2.97637e+07
-1.89745e+07
-2.06692e+07
-1.87163e+07
-3.32124e+07
-2.99296e+07
-2.0375e+07
-2.70337e+07
-3.72657e+07
-2.10491e+07
-2.93315e+07
-2.24009e+07
-3.34712e+07
-2.10254e+07
-3.07366e+07
-2.73013e+07
-3.4149e+07
-2.95729e+07
-2.92283e+07
-2.92538e+07
-3.07639e+07
-3.13751e+07
-1.56045e+07
-2.52722e+07
-1.98785e+07
-2.04621e+07
-2.90438e+07
-3.14697e+07
-2.45111e+07
-2.10914e+07
-2.93269e+07
-2.44997e+07
-3.0068e+07
-3.22505e+07
-2.89695e+07
-2.23011e+07
-2.65664e+07
-2.65566e+07
-2.06686e+07
-3.19351e+07
-1.7918e+07
-2.95833e+07
-2.95012e+07
-2.68036e+07
-2.65003e+07
-2.18821e+07
-3.3471e+07
-2.19351e+07
-3.33149e+07
-1.6036e+07
-2.22594e+07
-2.05979e+07
-2.61287e+07
-2.73934e+07
-2.05725e+07
-2.5457e+07
-2.14709e+07
-2.30012e+07
-1.6377e+07
-1.80207e+07
-2.47764e+07
-2.33911e+07
-2.38883e+07
-2.1581e+07
-3.42593e+07
-2.88074e+07
-1.50788e+07
-1.73305e+07
-1.9418e+07
-2.54317e+07
-2.05793e+07
-3.22366e+07
-2.23078e+07
-2.4006e+07
-2.021e+07
-2.82132e+07
-1.41663e+07
-2.04365e+07
-2.25544e+07
-2.10939e+07
-1.7468e+07
-2.82443e+07
-1.8719e+07
-1.87704e+07
-2.39863e+07
)
;

boundaryField
{
    inlet
    {
        type            calculated;
        value           uniform 0;
    }
    outlet
    {
        type            calculated;
        value           nonuniform 0();
    }
    wall
    {
        type            calculated;
        value           uniform 0;
    }
    procBoundary6to0
    {
        type            processor;
        value           uniform 197.462;
    }
    procBoundary6to2
    {
        type            processor;
        value           nonuniform List<scalar> 
32
(
436.519
639.161
774.332
732.558
403.214
584.052
370.126
718.579
780.173
545.783
625.023
479.661
575.833
584.137
584.137
584.137
443.903
597.444
795.265
499.206
689.13
579.074
778.269
778.269
778.269
321.87
476.357
567.526
547.356
509.844
489.663
489.663
)
;
    }
    procBoundary6to4
    {
        type            processor;
        value           nonuniform List<scalar> 
27
(
261.528
509.22
711.923
433.318
669.706
513.439
841.213
465.579
539.451
469.127
648.726
570.439
728.932
796.323
575.644
896.535
639.109
614.889
548.592
529.006
506.293
599.75
636.732
715.19
374.114
385.26
532.216
)
;
    }
    procBoundary6to7
    {
        type            processor;
        value           nonuniform List<scalar> 
12
(
584.314
395.133
532.302
292.247
454.355
508.698
647.634
618.827
456.626
542.61
474.098
459.728
)
;
    }
}


// ************************************************************************* //
