/*--------------------------------*- C++ -*----------------------------------*\
| =========                 |                                                 |
| \\      /  F ield         | OpenFOAM: The Open Source CFD Toolbox           |
|  \\    /   O peration     | Version:  4.x                                   |
|   \\  /    A nd           | Web:      www.OpenFOAM.org                      |
|    \\/     M anipulation  |                                                 |
\*---------------------------------------------------------------------------*/
FoamFile
{
    version     2.0;
    format      ascii;
    class       volScalarField;
    location    "27";
    object      SPartFluid;
}
// * * * * * * * * * * * * * * * * * * * * * * * * * * * * * * * * * * * * * //

dimensions      [1 -3 -1 0 0 0 0];

internalField   nonuniform List<scalar> 
87
(
6.7424e-65
6.04497e-65
7.12994e-65
5.115e-65
5.81248e-65
4.95999e-65
1.03851e-64
7.59506e-65
4.96003e-65
7.44002e-65
9.37749e-65
6.12248e-65
7.36247e-65
6.50995e-65
8.52493e-65
5.81256e-65
7.90507e-65
6.43254e-65
8.83503e-65
7.05251e-65
7.8275e-65
7.05249e-65
8.60247e-65
7.59497e-65
4.96006e-65
7.20757e-65
5.42504e-65
6.12253e-65
7.59503e-65
8.75752e-65
6.51001e-65
6.665e-65
7.5175e-65
7.67259e-65
7.67257e-65
7.75005e-65
7.67253e-65
5.34752e-65
7.05251e-65
6.2775e-65
5.88999e-65
7.90497e-65
5.65756e-65
7.28507e-65
6.82005e-65
6.89754e-65
5.96753e-65
5.58001e-65
7.75002e-65
5.73501e-65
7.75e-65
5.19256e-65
6.74257e-65
5.58005e-65
7.59505e-65
7.28505e-65
5.96753e-65
6.66503e-65
5.96752e-65
5.65752e-65
5.03756e-65
5.27005e-65
6.12255e-65
6.89754e-65
6.51004e-65
6.43253e-65
8.68003e-65
8.75752e-65
3.79751e-65
6.04507e-65
5.50256e-65
6.82006e-65
5.65754e-65
8.60256e-65
6.35504e-65
6.20003e-65
5.58002e-65
7.82753e-65
4.41756e-65
6.27757e-65
6.12256e-65
6.43256e-65
4.96004e-65
8.21506e-65
4.80504e-65
5.19254e-65
6.04504e-65
)
;

boundaryField
{
    inlet
    {
        type            calculated;
        value           uniform 0;
    }
    outlet
    {
        type            calculated;
        value           nonuniform 0();
    }
    wall
    {
        type            calculated;
        value           uniform 0;
    }
    procBoundary6to0
    {
        type            processor;
        value           uniform 2.32494e-65;
    }
    procBoundary6to2
    {
        type            processor;
        value           nonuniform List<scalar> 
32
(
4.88239e-65
7.43993e-65
8.36989e-65
8.29248e-65
4.95997e-65
6.66496e-65
4.80505e-65
8.13756e-65
8.37003e-65
6.51e-65
6.81998e-65
5.88997e-65
6.27744e-65
7.7499e-65
7.7499e-65
7.7499e-65
6.89758e-65
6.89755e-65
8.37004e-65
5.81251e-65
7.20749e-65
6.89747e-65
8.36996e-65
8.36996e-65
8.36996e-65
5.27006e-65
6.51006e-65
6.27754e-65
7.13003e-65
5.50251e-65
6.355e-65
6.355e-65
)
;
    }
    procBoundary6to4
    {
        type            processor;
        value           nonuniform List<scalar> 
27
(
4.34005e-65
5.73504e-65
7.59503e-65
5.19251e-65
7.36249e-65
6.35498e-65
9.22243e-65
5.96745e-65
5.96742e-65
6.66507e-65
7.20756e-65
5.96753e-65
8.52504e-65
8.44751e-65
6.7425e-65
9.60998e-65
7.90497e-65
6.81997e-65
7.44009e-65
7.05257e-65
5.81255e-65
7.67254e-65
6.97503e-65
9.22253e-65
4.49501e-65
4.8825e-65
6.355e-65
)
;
    }
    procBoundary6to7
    {
        type            processor;
        value           nonuniform List<scalar> 
12
(
7.67238e-65
4.80496e-65
6.50997e-65
3.95246e-65
5.50248e-65
6.74249e-65
8.05998e-65
7.0525e-65
5.58002e-65
6.8975e-65
5.96752e-65
6.04504e-65
)
;
    }
}


// ************************************************************************* //
