/*--------------------------------*- C++ -*----------------------------------*\
| =========                 |                                                 |
| \\      /  F ield         | OpenFOAM: The Open Source CFD Toolbox           |
|  \\    /   O peration     | Version:  4.x                                   |
|   \\  /    A nd           | Web:      www.OpenFOAM.org                      |
|    \\/     M anipulation  |                                                 |
\*---------------------------------------------------------------------------*/
FoamFile
{
    version     2.0;
    format      ascii;
    class       volVectorField;
    location    "27";
    object      Urel;
}
// * * * * * * * * * * * * * * * * * * * * * * * * * * * * * * * * * * * * * //

dimensions      [0 1 -1 0 0 0 0];

internalField   nonuniform List<vector> 
87
(
(-0.0200454 -0.000156218 0.000309707)
(-0.0193353 -0.000240671 0.000417097)
(-0.0209684 -0.00023532 0.000375007)
(-0.022114 -0.000351072 0.000529587)
(-0.020814 -0.000287419 0.000482662)
(-0.0222115 -0.000282759 0.000445695)
(-0.0229309 -0.000234028 0.000484429)
(-0.0206177 -0.000209332 0.0004346)
(-0.0213595 -0.000217288 0.000423902)
(-0.0193012 -0.000168472 0.000367465)
(-0.0205416 -0.000151659 0.000345365)
(-0.0185476 -0.000115084 0.000294671)
(-0.020023 -8.34749e-05 0.000285799)
(-0.0178345 -9.03295e-05 0.000273971)
(-0.0196962 -0.000132251 0.00025129)
(-0.0231278 -0.000506105 0.000476206)
(-0.0209383 -0.000422703 0.000441112)
(-0.0217728 -0.000443926 0.000432303)
(-0.0199045 -0.000346579 0.000391493)
(-0.0211499 -0.00033011 0.000369315)
(-0.0193105 -0.000272276 0.00032524)
(-0.020782 -0.000305454 0.00031255)
(-0.0188578 -0.000209781 0.000277675)
(-0.0205595 -0.000169756 0.000263282)
(-0.0233425 -0.000567498 0.000485889)
(-0.0213683 -0.000501816 0.000458622)
(-0.0222802 -0.000516917 0.00045799)
(-0.0207622 -0.000427041 0.000430078)
(-0.0219411 -0.000415086 0.000408507)
(-0.0204822 -0.000345478 0.000372388)
(-0.0217903 -0.000351047 0.000352735)
(-0.0203721 -0.000280876 0.000335313)
(-0.0217394 -0.000269137 0.000315228)
(-0.0230531 -0.000251844 0.000101403)
(-0.0208739 -0.000214943 0.000128039)
(-0.021658 -0.000231671 8.95169e-05)
(-0.0197895 -0.000173364 0.000115239)
(-0.0209915 -0.000166764 9.09778e-05)
(-0.0191733 -0.000110033 9.70615e-05)
(-0.0205982 -9.31475e-05 3.37033e-05)
(-0.0187077 -6.52965e-05 9.04516e-05)
(-0.0203056 -7.09181e-05 0.000112203)
(-0.0232427 -0.000496317 0.000114788)
(-0.0211943 -0.000419085 0.000138827)
(-0.0220612 -0.000435408 0.00010303)
(-0.02041 -0.000342806 0.000132284)
(-0.0216047 -0.000337705 9.78969e-05)
(-0.0200092 -0.000266295 0.000120232)
(-0.0213411 -0.000263031 8.796e-05)
(-0.0196935 -0.000198777 0.000122736)
(-0.0211807 -0.000201123 0.0001055)
(-0.0234307 -0.000549587 0.000147682)
(-0.0215676 -0.000489119 0.000165803)
(-0.0225205 -0.000495958 0.000139454)
(-0.0211566 -0.000415686 0.00015513)
(-0.0223377 -0.000403578 0.000127664)
(-0.0210557 -0.000336899 0.000149801)
(-0.0222858 -0.000326312 0.00012935)
(-0.021004 -0.000261601 0.000163267)
(-0.0222968 -0.00024878 0.000150892)
(-0.0232178 -0.000255579 1.89906e-06)
(-0.0212245 -0.000210912 3.1767e-05)
(-0.0220585 -0.000218566 1.88946e-05)
(-0.0204754 -0.000165609 4.6619e-05)
(-0.0216111 -0.000150101 3.66447e-05)
(-0.0200983 -9.7816e-05 4.99883e-05)
(-0.0213694 -7.22863e-05 3.11085e-05)
(-0.0198699 -4.09856e-05 5.74092e-05)
(-0.0211893 -3.48487e-05 5.59159e-05)
(-0.0233881 -0.000469812 2.17043e-05)
(-0.0215048 -0.000403786 4.88065e-05)
(-0.0224274 -0.000415182 4.14575e-05)
(-0.0210269 -0.00033904 6.66017e-05)
(-0.022195 -0.000324964 5.99401e-05)
(-0.0208676 -0.000260368 7.22828e-05)
(-0.0220782 -0.000243678 6.90452e-05)
(-0.0207316 -0.000178805 0.000100466)
(-0.0220065 -0.000171876 0.000108271)
(-0.0235432 -0.00052075 5.42954e-05)
(-0.0217863 -0.000466272 7.8105e-05)
(-0.0228012 -0.000470584 7.46514e-05)
(-0.0216035 -0.000404091 9.01453e-05)
(-0.0228173 -0.00038544 9.12741e-05)
(-0.0217133 -0.0003183 0.000107669)
(-0.022898 -0.00030259 0.000109904)
(-0.021785 -0.000237671 0.000147148)
(-0.0229732 -0.000219984 0.00016231)
)
;

boundaryField
{
    inlet
    {
        type            calculated;
        value           nonuniform List<vector> 9((-0.01 -9.70009e-09 -2.97293e-09) (-0.0100001 -1.54902e-08 6.37466e-09) (-0.01 -2.05618e-09 -4.02774e-10) (-0.01 -6.71943e-09 1.53257e-09) (-0.01 -7.94775e-09 8.68821e-09) (-0.01 -1.29606e-10 1.09117e-09) (-0.01 -7.45243e-09 2.35564e-09) (-0.01 -7.8905e-09 6.79224e-09) (-0.01 -3.39309e-09 8.73982e-10));
    }
    outlet
    {
        type            calculated;
        value           nonuniform 0();
    }
    wall
    {
        type            calculated;
        value           nonuniform List<vector> 
57
(
(-7.55425e-09 -7.45243e-09 2.35564e-09)
(-1.40844e-08 -7.8905e-09 6.79224e-09)
(-1.67897e-08 -3.39309e-09 8.73982e-10)
(-2.08711e-08 5.83711e-09 1.23538e-09)
(-2.08239e-08 6.066e-10 4.25978e-09)
(-2.57173e-08 -2.26919e-09 8.94317e-09)
(-7.63941e-08 -1.68894e-08 7.50304e-09)
(-1.52675e-08 7.51331e-09 4.3702e-09)
(-1.88088e-08 6.76951e-09 5.18657e-09)
(-1.16172e-07 -2.15169e-08 5.83044e-09)
(-1.14499e-07 -2.43941e-08 1.10114e-08)
(-9.29952e-08 -1.4895e-08 1.26708e-08)
(-1.78997e-07 -2.98683e-08 1.91098e-08)
(-1.92503e-07 -2.27472e-08 1.31858e-08)
(-1.50301e-07 -1.99611e-08 2.33137e-08)
(-2.03427e-07 -3.71648e-08 4.21809e-08)
(-3.0616e-07 1.638e-08 5.46048e-08)
(-1.76141e-07 9.90953e-09 3.26134e-08)
(-2.80737e-07 -7.52739e-08 6.78129e-08)
(-2.87047e-07 -1.71472e-08 2.53182e-09)
(-2.00101e-07 1.05249e-09 -6.44378e-09)
(-3.26247e-07 -8.52901e-08 5.68013e-08)
(-3.31826e-07 2.09032e-07 1.4362e-07)
(-1.60286e-07 2.32678e-08 1.72546e-08)
(-3.99363e-07 -1.64271e-07 -4.35238e-08)
(-3.92177e-07 -1.57348e-07 9.69386e-08)
(-2.13483e-07 -1.80043e-08 1.28616e-07)
(-1.15837e-08 -2.05618e-09 -4.02774e-10)
(-1.42486e-08 -1.29606e-10 1.09117e-09)
(-1.67897e-08 -3.39309e-09 8.73982e-10)
(-5.90146e-08 1.08632e-08 1.21936e-08)
(-6.31761e-08 7.02128e-09 2.13181e-08)
(-2.57173e-08 -2.26919e-09 8.94317e-09)
(-8.33815e-08 -3.29642e-09 3.9531e-08)
(-5.03704e-08 1.33937e-08 2.38412e-08)
(-1.88088e-08 6.76951e-09 5.18657e-09)
(-2.01067e-07 -8.29823e-09 -4.87077e-09)
(-7.29358e-08 1.53992e-08 4.27128e-09)
(-9.29952e-08 -1.4895e-08 1.26708e-08)
(-3.46966e-07 -2.70713e-08 -3.15884e-09)
(-2.44243e-07 -1.36382e-09 1.85961e-08)
(-1.50301e-07 -1.99611e-08 2.33137e-08)
(-5.43318e-07 -9.11829e-09 5.88494e-08)
(-3.67565e-07 8.60734e-09 5.63595e-08)
(-1.76141e-07 9.90953e-09 3.26134e-08)
(-7.44917e-07 -3.54906e-08 2.75589e-07)
(-5.98755e-07 -7.58861e-08 1.65498e-07)
(-2.58894e-07 2.71569e-08 2.91412e-08)
(-2.00101e-07 1.05249e-09 -6.44378e-09)
(-8.71289e-07 9.09947e-08 4.04663e-07)
(-5.01345e-07 8.3256e-08 2.10132e-07)
(-2.08086e-07 5.89361e-08 6.71266e-08)
(-1.60286e-07 2.32678e-08 1.72546e-08)
(-3.59783e-07 6.72391e-08 4.67531e-07)
(-6.15501e-07 9.36784e-08 2.20399e-07)
(-2.81475e-07 6.07167e-09 2.33478e-07)
(-2.13483e-07 -1.80043e-08 1.28616e-07)
)
;
    }
    procBoundary6to0
    {
        type            processor;
        value           uniform (-0.0196525 -4.25152e-05 0.00027472);
    }
    procBoundary6to2
    {
        type            processor;
        value           nonuniform List<vector> 
32
(
(-0.0207359 -0.000214605 0.000460488)
(-0.0198724 -0.000236171 0.000525037)
(-0.0216335 -0.000247711 0.000475072)
(-0.0227169 -0.00036955 0.000655424)
(-0.0214641 -0.000310094 0.00057949)
(-0.0229425 -0.000315477 0.000528497)
(-0.0229605 -0.000228308 0.00086297)
(-0.0206985 -0.000205371 0.000757927)
(-0.0214678 -0.000224154 0.000748159)
(-0.0194877 -0.000179999 0.000625772)
(-0.0207027 -0.00017478 0.000582061)
(-0.0188029 -0.000137081 0.000491804)
(-0.0202799 -0.00011626 0.000507505)
(-0.0183345 -0.000128833 0.000387266)
(-0.0183345 -0.000128833 0.000387266)
(-0.0183345 -0.000128833 0.000387266)
(-0.0231476 -0.000481847 0.000843858)
(-0.0210087 -0.000416446 0.000755215)
(-0.0218602 -0.000439436 0.000750376)
(-0.0200815 -0.0003567 0.00064851)
(-0.0213147 -0.000358406 0.00061259)
(-0.0196165 -0.000288145 0.000516439)
(-0.0210662 -0.000294598 0.000483028)
(-0.0210662 -0.000294598 0.000483028)
(-0.0210662 -0.000294598 0.000483028)
(-0.0233517 -0.000552278 0.000833851)
(-0.0214116 -0.000495005 0.000766036)
(-0.0223515 -0.00051263 0.000770425)
(-0.020899 -0.000435139 0.00069396)
(-0.0221137 -0.00043053 0.000661898)
(-0.0207901 -0.000357664 0.000567929)
(-0.0207901 -0.000357664 0.000567929)
)
;
    }
    procBoundary6to4
    {
        type            processor;
        value           nonuniform List<vector> 
27
(
(-0.0228867 0.000107733 0.00049258)
(-0.0205662 7.70324e-05 0.000437646)
(-0.0212712 7.57713e-05 0.000422713)
(-0.0191844 6.25156e-05 0.000360579)
(-0.0203879 5.67132e-05 0.000338201)
(-0.0183755 6.03057e-05 0.000274804)
(-0.0198888 0.000101266 0.000268522)
(-0.0178623 4.18557e-05 0.000201593)
(-0.0195495 -2.33655e-05 0.000175338)
(-0.0230017 0.000101478 0.00012947)
(-0.0207754 7.35649e-05 0.000125831)
(-0.0215322 7.38656e-05 8.60556e-05)
(-0.0195829 6.32313e-05 0.00010449)
(-0.0207939 6.66226e-05 7.20312e-05)
(-0.0188948 6.65463e-05 8.09487e-05)
(-0.0203922 8.0762e-05 5.28665e-05)
(-0.01846 6.90322e-05 5.52406e-05)
(-0.0201506 7.92524e-05 1.84653e-06)
(-0.0231459 8.24622e-05 1.84314e-05)
(-0.0210969 7.21913e-05 2.5767e-05)
(-0.0219135 7.99659e-05 2.00882e-07)
(-0.0202581 7.39136e-05 2.23077e-05)
(-0.0214203 8.09378e-05 4.82166e-06)
(-0.019868 8.21944e-05 2.02624e-05)
(-0.0211906 9.95027e-05 3.21944e-06)
(-0.0196531 9.80943e-05 2.67916e-05)
(-0.0210751 0.000123741 7.60842e-06)
)
;
    }
    procBoundary6to7
    {
        type            processor;
        value           nonuniform List<vector> 
12
(
(-0.0181266 -0.00019377 0.000275565)
(-0.0192318 -0.00025412 0.000335121)
(-0.02089 -0.000267152 0.000437273)
(-0.0176392 -0.000113796 0.000196667)
(-0.0186374 -0.000186712 0.000219751)
(-0.0202541 -0.0002475 0.000303979)
(-0.018347 -6.54552e-05 7.77441e-05)
(-0.0194949 -0.000174934 0.000112384)
(-0.0210041 -0.000209457 0.000172931)
(-0.0196035 -2.06653e-05 7.77097e-05)
(-0.0206251 -0.000156534 0.000140958)
(-0.0218315 -0.0001802 0.000206132)
)
;
    }
}


// ************************************************************************* //
