/*--------------------------------*- C++ -*----------------------------------*\
| =========                 |                                                 |
| \\      /  F ield         | OpenFOAM: The Open Source CFD Toolbox           |
|  \\    /   O peration     | Version:  4.x                                   |
|   \\  /    A nd           | Web:      www.OpenFOAM.org                      |
|    \\/     M anipulation  |                                                 |
\*---------------------------------------------------------------------------*/
FoamFile
{
    version     2.0;
    format      ascii;
    class       volVectorField;
    location    "20";
    object      ddtUrel;
}
// * * * * * * * * * * * * * * * * * * * * * * * * * * * * * * * * * * * * * //

dimensions      [0 1 -2 0 0 0 0];

internalField   nonuniform List<vector> 
132
(
(3.45668e-07 -7.25741e-08 -1.54516e-07)
(3.36287e-07 -7.64311e-08 -1.50958e-07)
(2.8416e-07 -7.45701e-08 -1.33755e-07)
(1.90731e-07 -5.81248e-08 -9.80185e-08)
(1.00624e-07 -4.21791e-08 -5.02205e-08)
(1.96878e-08 -2.72104e-08 -2.59518e-08)
(-1.45137e-07 -2.12023e-08 1.04022e-09)
(-2.55352e-07 -1.86793e-08 2.73828e-08)
(-2.43224e-07 -1.48076e-08 4.28714e-08)
(4.79146e-07 -1.15575e-07 -3.05281e-07)
(4.61402e-07 -1.20491e-07 -2.70723e-07)
(3.76038e-07 -1.11962e-07 -2.0558e-07)
(2.55096e-07 -8.04404e-08 -1.31448e-07)
(1.25865e-07 -4.65438e-08 -6.94917e-08)
(7.08681e-09 -3.17014e-08 -2.43566e-08)
(-1.79013e-07 -2.68372e-08 1.87183e-08)
(-3.03564e-07 -2.20952e-08 5.49389e-08)
(-3.1859e-07 -1.91818e-08 8.15057e-08)
(7.35362e-07 -2.21403e-07 -7.13672e-07)
(7.04422e-07 -1.97956e-07 -5.3043e-07)
(5.12301e-07 -1.50145e-07 -3.30588e-07)
(3.30001e-07 -1.01175e-07 -1.86028e-07)
(1.61129e-07 -5.42407e-08 -9.135e-08)
(4.99476e-09 -3.21483e-08 -2.32221e-08)
(-2.04793e-07 -2.9393e-08 4.0131e-08)
(-3.53426e-07 -2.53939e-08 9.61105e-08)
(-3.99079e-07 -2.53659e-08 1.36624e-07)
(1.51116e-06 -4.03591e-07 -1.51654e-06)
(1.1876e-06 -3.06561e-07 -9.75039e-07)
(6.64563e-07 -1.73641e-07 -4.87372e-07)
(3.82947e-07 -1.06639e-07 -2.39273e-07)
(1.82875e-07 -5.88165e-08 -1.08282e-07)
(-3.65476e-11 -3.39688e-08 -1.8558e-08)
(-2.2e-07 -3.00215e-08 5.88013e-08)
(-3.91556e-07 -2.92663e-08 1.32192e-07)
(-4.76601e-07 -3.23506e-08 1.90253e-07)
(2.59146e-07 -7.57055e-08 -1.16597e-07)
(1.67925e-07 -5.56756e-08 -8.08006e-08)
(7.29213e-08 -4.2828e-08 -3.81314e-08)
(-2.3522e-08 -2.74451e-08 -5.82855e-09)
(-1.9087e-07 -2.57578e-08 2.94372e-08)
(-3.0838e-07 -2.77251e-08 6.62852e-08)
(-3.1749e-07 -2.68938e-08 9.10747e-08)
(4.37016e-07 -1.16186e-07 -2.69478e-07)
(4.30068e-07 -1.32336e-07 -2.55137e-07)
(3.44669e-07 -1.15934e-07 -1.90889e-07)
(2.26523e-07 -7.5799e-08 -1.18751e-07)
(9.56752e-08 -4.8023e-08 -5.1384e-08)
(-4.18821e-08 -3.77266e-08 4.77547e-09)
(-2.5311e-07 -3.5697e-08 6.58186e-08)
(-4.13967e-07 -3.83789e-08 1.32171e-07)
(-4.69853e-07 -4.11135e-08 1.81942e-07)
(6.70726e-07 -2.12014e-07 -5.50901e-07)
(6.78527e-07 -2.37882e-07 -5.11736e-07)
(4.64869e-07 -1.59452e-07 -3.37136e-07)
(2.79638e-07 -9.73894e-08 -1.8042e-07)
(9.99258e-08 -5.68178e-08 -6.93684e-08)
(-8.02434e-08 -4.26856e-08 1.92779e-08)
(-3.32519e-07 -4.57226e-08 1.15942e-07)
(-5.67366e-07 -5.17645e-08 2.29249e-07)
(-7.18044e-07 -6.35424e-08 3.30141e-07)
(1.2308e-06 -3.54315e-07 -1.09459e-06)
(1.23356e-06 -3.24528e-07 -1.10508e-06)
(6.09087e-07 -1.81985e-07 -5.42395e-07)
(3.27159e-07 -1.04718e-07 -2.47269e-07)
(1.01279e-07 -6.46119e-08 -8.50868e-08)
(-1.14073e-07 -4.54883e-08 3.3504e-08)
(-4.02601e-07 -5.10777e-08 1.63406e-07)
(-7.24948e-07 -6.79208e-08 3.29057e-07)
(-1.0148e-06 -9.20305e-08 5.02518e-07)
(4.05979e-08 -3.74888e-08 -2.18398e-08)
(-6.84044e-08 -2.83847e-08 1.77779e-08)
(-2.38542e-07 -3.06508e-08 6.40253e-08)
(-3.68414e-07 -3.45366e-08 1.15276e-07)
(-4.08161e-07 -3.89862e-08 1.5353e-07)
(3.53943e-07 -8.63104e-08 -2.34911e-07)
(3.67486e-07 -1.16439e-07 -2.30116e-07)
(2.9592e-07 -1.12558e-07 -1.74785e-07)
(1.76202e-07 -6.99931e-08 -1.05969e-07)
(4.03759e-08 -4.64576e-08 -3.21212e-08)
(-1.15088e-07 -3.84561e-08 3.87405e-08)
(-3.5624e-07 -4.50856e-08 1.26478e-07)
(-5.81145e-07 -5.52724e-08 2.37693e-07)
(-7.23965e-07 -6.81171e-08 3.36533e-07)
(4.61475e-07 -1.50404e-07 -4.64828e-07)
(4.99515e-07 -1.55436e-07 -4.762e-07)
(3.85791e-07 -1.27478e-07 -3.2564e-07)
(2.26819e-07 -8.05816e-08 -1.75368e-07)
(3.61329e-08 -5.45896e-08 -4.78069e-08)
(-1.78153e-07 -4.85429e-08 7.09959e-08)
(-5.14928e-07 -6.14931e-08 2.23695e-07)
(-9.37648e-07 -9.0348e-08 4.49536e-07)
(-1.37356e-06 -1.31043e-07 7.0748e-07)
(5.07309e-07 -1.99707e-07 -8.43908e-07)
(6.24707e-07 -2.00987e-07 -1.03508e-06)
(4.68792e-07 -1.3487e-07 -5.36239e-07)
(2.51275e-07 -8.69432e-08 -2.44588e-07)
(3.09426e-08 -6.06464e-08 -5.94782e-08)
(-2.34487e-07 -5.65923e-08 1.02014e-07)
(-6.83185e-07 -7.79848e-08 3.24793e-07)
(-1.39524e-06 -1.36066e-07 7.16319e-07)
(-2.47584e-06 -2.38249e-07 1.33046e-06)
(-2.82037e-07 -3.13232e-08 9.06792e-08)
(-4.23999e-07 -3.90986e-08 1.55555e-07)
(-4.93597e-07 -4.72311e-08 2.10762e-07)
(3.03601e-07 -5.19892e-08 -2.06616e-07)
(3.21125e-07 -8.26617e-08 -2.13348e-07)
(2.65302e-07 -8.52293e-08 -1.65527e-07)
(1.47826e-07 -6.05119e-08 -9.704e-08)
(1.02536e-08 -4.38832e-08 -1.8624e-08)
(-1.59395e-07 -3.98339e-08 6.57609e-08)
(-4.38709e-07 -5.13465e-08 1.80434e-07)
(-7.45549e-07 -7.22754e-08 3.39513e-07)
(-1.03045e-06 -9.92901e-08 5.11606e-07)
(3.64459e-07 -6.20472e-08 -3.95426e-07)
(4.54739e-07 -9.77526e-08 -4.51868e-07)
(3.69644e-07 -9.04436e-08 -3.32689e-07)
(1.9101e-07 -6.77459e-08 -1.72737e-07)
(-1.35066e-08 -5.24428e-08 -3.12826e-08)
(-2.61047e-07 -5.38201e-08 1.13487e-07)
(-6.95932e-07 -7.8592e-08 3.31031e-07)
(-1.40742e-06 -1.37353e-07 7.20078e-07)
(-2.48173e-06 -2.40456e-07 1.33307e-06)
(2.62069e-07 -1.16121e-07 -6.53821e-07)
(7.57467e-07 -1.27437e-07 -9.96731e-07)
(5.91397e-07 -9.07027e-08 -6.66414e-07)
(2.46101e-07 -7.16017e-08 -2.64767e-07)
(-2.26855e-08 -5.81978e-08 -4.42929e-08)
(-3.57408e-07 -6.53337e-08 1.60723e-07)
(-1.01345e-06 -1.09719e-07 5.11441e-07)
(-2.54582e-06 -2.48759e-07 1.36473e-06)
(-6.97501e-06 -6.77249e-07 3.8632e-06)
)
;

boundaryField
{
    inlet
    {
        type            calculated;
        value           nonuniform 0();
    }
    outlet
    {
        type            calculated;
        value           nonuniform List<vector> 
16
(
(3.1116e-08 1.44349e-09 1.36023e-08)
(5.918e-08 4.5723e-09 1.62124e-08)
(4.23585e-08 2.3132e-09 6.11971e-09)
(2.26445e-08 -1.43306e-09 1.74663e-08)
(2.11817e-08 -8.81522e-09 1.6152e-08)
(2.93077e-08 -7.10983e-09 7.21167e-09)
(2.89863e-08 5.0662e-09 9.43408e-09)
(2.78456e-08 8.33327e-09 1.27728e-08)
(2.71739e-08 -7.96799e-09 8.35238e-09)
(2.59954e-08 -1.43739e-09 3.54952e-09)
(2.68808e-08 3.47607e-09 4.96697e-09)
(2.22727e-08 -5.32194e-09 3.25797e-09)
(1.94991e-08 -5.43251e-10 6.74264e-09)
(1.42284e-08 -7.36106e-09 5.33353e-09)
(2.68406e-08 -1.428e-09 1.44966e-09)
(-4.88535e-05 -4.74916e-06 2.74687e-05)
)
;
    }
    wall
    {
        type            calculated;
        value           nonuniform List<vector> 
66
(
(1.55033e-07 1.23119e-08 4.30673e-08)
(5.84222e-07 3.75427e-07 -1.432e-07)
(-2.0883e-06 -1.70785e-07 -5.6659e-07)
(2.13368e-07 -7.52028e-08 6.09121e-08)
(3.96555e-07 -2.36721e-08 -2.16362e-08)
(9.8636e-06 -1.80225e-07 -4.76434e-06)
(2.17432e-07 -1.37323e-07 7.04164e-08)
(3.44839e-07 -3.52446e-08 2.59534e-08)
(3.66493e-06 9.77033e-08 -2.46428e-06)
(6.59558e-08 -8.13548e-09 3.58611e-09)
(2.42243e-07 -2.62416e-08 -4.89736e-08)
(2.0758e-07 -2.65166e-08 -2.14946e-08)
(4.5353e-09 -7.13468e-10 1.17809e-08)
(6.20876e-09 -3.48112e-09 9.0892e-09)
(-1.70423e-08 -2.51959e-09 1.85405e-08)
(1.85282e-07 -6.32447e-09 -9.82847e-09)
(7.90037e-08 -1.77926e-08 3.6231e-09)
(-6.89158e-08 -6.66819e-09 1.17366e-08)
(-3.67736e-07 -1.65828e-08 6.3077e-10)
(-3.65484e-07 -1.9611e-08 8.11324e-09)
(-2.60155e-07 -5.19796e-09 9.26113e-09)
(-8.84782e-08 9.15637e-10 -1.42187e-09)
(-3.74087e-07 -8.34513e-09 1.66956e-08)
(-2.73478e-07 -4.61888e-09 5.09713e-09)
(-2.44373e-07 2.33344e-09 6.86914e-09)
(-1.73695e-07 6.77985e-09 -4.00939e-09)
(-1.67907e-08 -5.59288e-10 7.44885e-09)
(-1.92591e-08 -7.88588e-09 5.66138e-09)
(-6.56181e-09 2.63661e-10 2.66421e-10)
(-4.88732e-05 -4.74794e-06 2.7466e-05)
(1.1882e-05 -3.09009e-06 -1.19981e-05)
(7.0473e-06 -1.94017e-06 -3.90304e-06)
(-6.35095e-07 -4.18346e-07 -2.10954e-06)
(-2.31492e-06 -1.66974e-07 -5.57392e-07)
(5.91576e-06 -1.09164e-06 -2.81016e-06)
(8.71345e-06 -1.24807e-06 -5.31765e-06)
(1.15833e-07 -4.02612e-07 -4.84138e-06)
(4.20246e-06 -1.33418e-07 -4.71931e-06)
(8.08705e-07 -1.04898e-07 -3.47311e-07)
(2.41903e-07 -2.1351e-07 -5.15875e-07)
(1.21834e-07 -8.63037e-08 -8.7658e-08)
(2.14758e-06 1.07223e-07 -2.31918e-06)
(6.32007e-07 -1.11718e-07 -4.10385e-08)
(3.77036e-07 -5.90075e-08 -5.00999e-08)
(1.51565e-07 -2.8121e-08 -4.13217e-08)
(2.44141e-07 -2.58001e-08 -2.10018e-08)
(2.18143e-07 -1.94602e-08 -4.92963e-08)
(8.86402e-08 -4.12679e-08 9.63796e-10)
(6.01573e-08 -8.76076e-09 1.41638e-08)
(1.56372e-08 -1.91361e-09 1.67819e-08)
(2.34033e-07 3.64476e-08 -2.0444e-08)
(-2.96826e-08 2.94483e-08 -1.41725e-08)
(2.3209e-07 -6.17332e-09 2.57863e-08)
(-3.81246e-09 -6.05909e-09 1.21399e-08)
(-2.54091e-07 -6.52402e-10 7.78366e-10)
(-1.74955e-07 -1.546e-08 2.33544e-08)
(-1.9706e-07 4.57142e-09 1.71073e-08)
(-9.1408e-08 6.04683e-10 -8.14559e-11)
(-3.33172e-07 -3.36403e-09 7.9672e-09)
(-2.51319e-07 6.19941e-10 1.90848e-08)
(-1.79638e-07 4.95396e-09 4.9121e-09)
(-1.9761e-07 6.74459e-09 -4.42006e-09)
(-2.39017e-08 2.01437e-09 1.37467e-08)
(-1.18742e-09 9.88395e-09 1.03572e-08)
(-1.15686e-09 -1.14656e-08 2.51695e-09)
(-0.000121401 -2.07861e-05 9.05319e-05)
)
;
    }
    procBoundary7to0
    {
        type            processor;
        value           uniform (3.18253e-07 -4.4499e-08 -1.25881e-07);
    }
    procBoundary7to1
    {
        type            processor;
        value           uniform (2.70011e-07 -5.08481e-08 -9.79247e-08);
    }
    procBoundary7to3
    {
        type            processor;
        value           nonuniform List<vector> 
36
(
(3.41624e-07 -7.27604e-08 -1.41535e-07)
(3.51644e-07 -7.47657e-08 -1.49284e-07)
(3.03598e-07 -7.96585e-08 -1.35657e-07)
(1.90978e-07 -5.98144e-08 -1.05923e-07)
(1.07342e-07 -3.93382e-08 -7.11993e-08)
(3.92402e-08 -2.00399e-08 -4.69152e-08)
(-1.25388e-07 -1.13662e-08 -2.4927e-08)
(-2.13296e-07 -8.2445e-09 -1.15589e-08)
(-1.90383e-07 -4.01468e-09 -3.08079e-09)
(4.57503e-07 -9.99141e-08 -2.53145e-07)
(4.45456e-07 -1.13571e-07 -2.50788e-07)
(3.79689e-07 -1.18815e-07 -2.01573e-07)
(2.54514e-07 -8.4823e-08 -1.38067e-07)
(1.39499e-07 -3.75237e-08 -8.91984e-08)
(3.7079e-08 -2.06624e-08 -5.24178e-08)
(-1.37492e-07 -1.31479e-08 -2.22785e-08)
(-2.34336e-07 -9.07647e-09 -2.30405e-09)
(-2.20566e-07 -5.27165e-09 1.20084e-08)
(6.07084e-07 -1.47666e-07 -4.52115e-07)
(5.9802e-07 -1.60693e-07 -4.10446e-07)
(4.82648e-07 -1.4543e-07 -2.88207e-07)
(3.39671e-07 -9.43829e-08 -1.86073e-07)
(1.92417e-07 -4.61133e-08 -1.10102e-07)
(5.80403e-08 -2.19377e-08 -5.62159e-08)
(-1.24581e-07 -1.30427e-08 -1.54924e-08)
(-2.34722e-07 -5.93501e-09 1.4782e-08)
(-2.3542e-07 6.63312e-10 3.18662e-08)
(8.04785e-07 -1.60423e-07 -7.7907e-07)
(7.95786e-07 -1.83712e-07 -6.27433e-07)
(5.74008e-07 -1.49773e-07 -3.84837e-07)
(3.75963e-07 -9.32866e-08 -2.25122e-07)
(2.19836e-07 -4.88496e-08 -1.26161e-07)
(5.97578e-08 -2.63513e-08 -5.61201e-08)
(-1.11491e-07 -1.31536e-08 -6.99224e-09)
(-2.24591e-07 1.44393e-11 2.668e-08)
(-2.40725e-07 7.44834e-09 4.66964e-08)
)
;
    }
    procBoundary7to5
    {
        type            processor;
        value           nonuniform List<vector> 
44
(
(2.64845e-07 -4.77986e-08 -9.35458e-08)
(2.34995e-07 -4.63923e-08 -9.29032e-08)
(1.61139e-07 -3.82109e-08 -7.36067e-08)
(8.29829e-08 -3.41968e-08 -4.53489e-08)
(1.91714e-08 -2.34434e-08 -2.57969e-08)
(-1.21054e-07 -1.57246e-08 -7.2781e-09)
(-2.09403e-07 -1.64208e-08 8.35e-09)
(-1.91222e-07 -1.49836e-08 1.74546e-08)
(3.17848e-07 -6.6455e-08 -1.40653e-07)
(3.19289e-07 -7.77393e-08 -1.38739e-07)
(2.08931e-07 -4.71374e-08 -7.5647e-08)
(1.47627e-07 -3.77951e-08 -5.72692e-08)
(6.36223e-08 -2.95753e-08 -3.18277e-08)
(-1.27971e-08 -2.26332e-08 -8.0993e-09)
(-1.51851e-07 -2.10162e-08 9.32323e-09)
(-2.3346e-07 -1.94752e-08 3.01397e-08)
(-2.2542e-07 -1.89861e-08 4.24699e-08)
(3.17848e-07 -6.6455e-08 -1.40653e-07)
(3.19289e-07 -7.77393e-08 -1.38739e-07)
(3.19289e-07 -7.77393e-08 -1.38739e-07)
(2.3746e-07 -7.20934e-08 -9.64558e-08)
(1.53063e-07 -4.80843e-08 -6.52315e-08)
(4.99247e-08 -2.64643e-08 -2.08676e-08)
(-3.3983e-08 -2.2515e-08 4.03931e-09)
(-1.66305e-07 -2.24841e-08 2.77188e-08)
(-2.49483e-07 -2.40378e-08 5.34967e-08)
(-2.5592e-07 -2.49711e-08 6.94296e-08)
(2.76428e-07 -5.48071e-08 -1.24951e-07)
(2.74069e-07 -7.3994e-08 -1.18346e-07)
(2.3746e-07 -7.20934e-08 -9.64558e-08)
(1.53063e-07 -4.80843e-08 -6.52315e-08)
(1.53063e-07 -4.80843e-08 -6.52315e-08)
(2.2126e-08 -3.14009e-08 -1.42431e-08)
(-1.11164e-07 -2.88893e-08 3.23481e-08)
(-1.84889e-07 -2.33163e-08 4.12087e-08)
(-2.63866e-07 -2.52571e-08 7.01998e-08)
(-2.79607e-07 -2.65871e-08 8.95422e-08)
(2.4531e-07 -4.08832e-08 -1.10185e-07)
(2.3312e-07 -6.14557e-08 -1.09397e-07)
(1.9793e-07 -6.78896e-08 -8.75172e-08)
(1.21968e-07 -4.57202e-08 -5.49061e-08)
(2.2126e-08 -3.14009e-08 -1.42431e-08)
(-1.11164e-07 -2.88893e-08 3.23481e-08)
(-1.11164e-07 -2.88893e-08 3.23481e-08)
)
;
    }
    procBoundary7to6
    {
        type            processor;
        value           nonuniform List<vector> 
12
(
(4.16382e-07 -6.19101e-08 -2.25333e-07)
(5.70001e-07 -9.3834e-08 -4.06758e-07)
(7.92392e-07 -1.36391e-07 -6.59087e-07)
(3.69658e-07 -5.70075e-08 -2.07906e-07)
(5.04146e-07 -1.04312e-07 -3.65394e-07)
(7.04413e-07 -1.50903e-07 -5.74728e-07)
(3.02969e-07 -3.59766e-08 -1.82539e-07)
(3.77744e-07 -6.57533e-08 -3.26602e-07)
(3.97929e-07 -1.0579e-07 -5.56238e-07)
(2.65462e-07 -1.45005e-08 -1.59934e-07)
(3.13049e-07 -2.92073e-08 -2.74002e-07)
(2.66867e-07 -6.35253e-08 -3.9846e-07)
)
;
    }
}


// ************************************************************************* //
