/*--------------------------------*- C++ -*----------------------------------*\
| =========                 |                                                 |
| \\      /  F ield         | OpenFOAM: The Open Source CFD Toolbox           |
|  \\    /   O peration     | Version:  4.x                                   |
|   \\  /    A nd           | Web:      www.OpenFOAM.org                      |
|    \\/     M anipulation  |                                                 |
\*---------------------------------------------------------------------------*/
FoamFile
{
    version     2.0;
    format      ascii;
    class       volScalarField;
    location    "20";
    object      KslPrev;
}
// * * * * * * * * * * * * * * * * * * * * * * * * * * * * * * * * * * * * * //

dimensions      [1 -3 -1 0 0 0 0];

internalField   nonuniform List<scalar> 
132
(
87102.6
3923.1
1e+10
3986.39
1e+10
4047.7
1e+10
4135.7
32156
24153.7
3666.02
28217.3
3571.53
30889
3544.22
26284.8
3691.68
13652.5
15145.6
3605.25
15767.6
3503.69
15660.4
3482.98
11745.8
3546.48
4879.55
6324.76
3044.47
6200.09
2838.42
6183.22
2569.25
6314.07
2091.48
5366.56
1e+10
3846.69
1e+10
3735.83
65250.7
3468.86
18335.7
1e+10
4141.95
1e+10
4153.12
1e+10
4186.34
31532.4
4204.1
8023.5
65786.7
3966.22
1e+10
4067.48
1e+10
4348.09
1e+10
5104.84
42010.8
8555.04
3437.89
9535.63
3469.36
10922.8
3587.74
12535.7
3998.32
12396
1e+10
4165.66
1e+10
4758.28
13766.4
33491.9
3719.01
55401.2
3624.69
79211
3574.71
64783.3
3772.26
21351.1
15048.7
3632.84
15535.9
3535.41
13614.9
3423.48
9702.26
3324.16
4440
6189.16
3059.36
5906.74
2885.64
5746.78
2566.34
5643.54
1913.17
4897.31
8353.56
3647.63
7420.51
9647.12
3435
10488.3
3454.61
11584.3
3586.43
13615.6
4101.88
11877.9
6690.76
3234.98
6635.44
3261.93
6847.5
3284.6
6977.08
3517.88
6775.21
4814.33
2893.63
4899.26
2903.97
5024
2797.13
4671.94
2629.68
3581.19
)
;

boundaryField
{
    inlet
    {
        type            zeroGradient;
    }
    outlet
    {
        type            zeroGradient;
    }
    wall
    {
        type            zeroGradient;
    }
    procBoundary7to0
    {
        type            processor;
        value           uniform 0;
    }
    procBoundary7to1
    {
        type            processor;
        value           uniform 0;
    }
    procBoundary7to3
    {
        type            processor;
        value           uniform 0;
    }
    procBoundary7to5
    {
        type            processor;
        value           uniform 0;
    }
    procBoundary7to6
    {
        type            processor;
        value           uniform 0;
    }
}


// ************************************************************************* //
