/*--------------------------------*- C++ -*----------------------------------*\
| =========                 |                                                 |
| \\      /  F ield         | OpenFOAM: The Open Source CFD Toolbox           |
|  \\    /   O peration     | Version:  4.x                                   |
|   \\  /    A nd           | Web:      www.OpenFOAM.org                      |
|    \\/     M anipulation  |                                                 |
\*---------------------------------------------------------------------------*/
FoamFile
{
    version     2.0;
    format      ascii;
    class       volScalarField;
    location    "20";
    object      QPartFluid;
}
// * * * * * * * * * * * * * * * * * * * * * * * * * * * * * * * * * * * * * //

dimensions      [1 -1 -3 0 0 0 0];

internalField   nonuniform List<scalar> 
132
(
1.00756e+10
9.04449e+09
6.37018e+09
7.84105e+09
1.09683e+10
1.22664e+10
7.96367e+09
6.54171e+09
6.02427e+09
7.80267e+09
1.14698e+10
7.56257e+09
8.17575e+09
8.49381e+09
7.04047e+09
7.79827e+09
7.82289e+09
6.73593e+09
5.27154e+09
9.33591e+09
6.89098e+09
8.88715e+09
8.28265e+09
1.03603e+10
8.70093e+09
8.98342e+09
7.48141e+09
7.06579e+09
7.49351e+09
9.00168e+09
5.9907e+09
8.06204e+09
8.20853e+09
8.30602e+09
7.47857e+09
3.97271e+09
6.49734e+09
8.55842e+09
6.89991e+09
8.12714e+09
8.83197e+09
1.00155e+10
5.93149e+09
3.84414e+09
9.9738e+09
7.27514e+09
8.71048e+09
8.54332e+09
8.1679e+09
5.78716e+09
8.92695e+09
4.86219e+09
6.02943e+09
1.00745e+10
7.52373e+09
7.25726e+09
8.2211e+09
1.04929e+10
9.58865e+09
8.35592e+09
6.39194e+09
6.76994e+09
8.61776e+09
6.24976e+09
8.05496e+09
7.38393e+09
6.76993e+09
6.53331e+09
8.76303e+09
4.48169e+09
4.75957e+09
6.92288e+09
7.77137e+09
7.07763e+09
4.23804e+09
8.63447e+09
9.05686e+09
7.08546e+09
6.45883e+09
9.00983e+09
8.71302e+09
7.55169e+09
1.05196e+10
6.46401e+09
8.16454e+09
9.38848e+09
8.60831e+09
8.89435e+09
9.3289e+09
9.79846e+09
9.04916e+09
9.1486e+09
7.40868e+09
6.03972e+09
7.31428e+09
7.26599e+09
8.17456e+09
6.67407e+09
7.04024e+09
8.63099e+09
8.89862e+09
5.97213e+09
5.68906e+09
7.27347e+09
4.84828e+09
7.1646e+09
6.86586e+09
7.3792e+09
8.43875e+09
5.08431e+09
4.74313e+09
6.71631e+09
7.19851e+09
4.41409e+09
6.29147e+09
6.70715e+09
6.32625e+09
7.64053e+09
7.41478e+09
7.09411e+09
7.67857e+09
7.44785e+09
6.5026e+09
6.12323e+09
8.24162e+09
5.94073e+09
7.14754e+09
7.46611e+09
7.07831e+09
6.79194e+09
7.37035e+09
4.22707e+09
)
;

boundaryField
{
    inlet
    {
        type            calculated;
        value           nonuniform 0();
    }
    outlet
    {
        type            calculated;
        value           uniform 0;
    }
    wall
    {
        type            calculated;
        value           uniform 0;
    }
    procBoundary7to0
    {
        type            processor;
        value           uniform 2.60399e+09;
    }
    procBoundary7to1
    {
        type            processor;
        value           uniform 5.98846e+09;
    }
    procBoundary7to3
    {
        type            processor;
        value           nonuniform List<scalar> 
36
(
8.06034e+09
1.0708e+10
8.93725e+09
1.00427e+10
6.40017e+09
7.65013e+09
8.89522e+09
8.34762e+09
6.76159e+09
9.60978e+09
6.14016e+09
8.11565e+09
4.99191e+09
4.34798e+09
9.4732e+09
7.80982e+09
1.11179e+10
5.55482e+09
6.03353e+09
1.02257e+10
9.12373e+09
7.18272e+09
7.25458e+09
9.87267e+09
8.03135e+09
9.33362e+09
4.67762e+09
8.79237e+09
4.84599e+09
5.80311e+09
6.96538e+09
6.45298e+09
8.56983e+09
6.44719e+09
9.5994e+09
7.5104e+09
)
;
    }
    procBoundary7to5
    {
        type            processor;
        value           nonuniform List<scalar> 
44
(
1.00354e+10
6.22956e+09
8.80401e+09
5.95242e+09
5.35134e+09
7.48989e+09
6.22316e+09
6.57897e+09
1.02346e+10
5.01766e+09
7.30328e+09
9.0192e+09
6.15118e+09
8.23489e+09
7.14195e+09
7.87422e+09
4.07319e+09
1.02346e+10
5.01766e+09
5.01766e+09
9.29178e+09
9.63287e+09
1.14318e+10
9.24294e+09
9.02552e+09
1.06902e+10
7.76587e+09
5.21402e+09
1.14265e+10
9.29178e+09
9.63287e+09
9.63287e+09
1.0102e+10
8.10853e+09
6.86687e+09
7.6802e+09
6.37412e+09
6.99815e+09
6.2916e+09
7.12264e+09
6.47658e+09
1.0102e+10
8.10853e+09
8.10853e+09
)
;
    }
    procBoundary7to6
    {
        type            processor;
        value           nonuniform List<scalar> 
12
(
8.13961e+09
8.87027e+09
5.57739e+09
9.92284e+09
9.32924e+09
8.71086e+09
9.46895e+09
9.86445e+09
6.82178e+09
4.45874e+09
8.38142e+09
7.1378e+09
)
;
    }
}


// ************************************************************************* //
