/*--------------------------------*- C++ -*----------------------------------*\
| =========                 |                                                 |
| \\      /  F ield         | OpenFOAM: The Open Source CFD Toolbox           |
|  \\    /   O peration     | Version:  4.x                                   |
|   \\  /    A nd           | Web:      www.OpenFOAM.org                      |
|    \\/     M anipulation  |                                                 |
\*---------------------------------------------------------------------------*/
FoamFile
{
    version     2.0;
    format      ascii;
    class       volScalarField;
    location    "7";
    object      magGField;
}
// * * * * * * * * * * * * * * * * * * * * * * * * * * * * * * * * * * * * * //

dimensions      [1 -2 -1 0 0 0 0];

internalField   nonuniform List<scalar> 
114
(
144.168
87.2035
151.722
71.1532
180.186
92.791
34.6885
109.816
28.1146
104.311
31.7195
96.9805
74.9805
107.794
30.9432
106.555
27.4108
101.94
26.022
91.1704
26.8535
71.9749
123.148
73.285
126.134
65.001
122.213
47.867
108.868
31.3282
20.3183
96.7122
19.5611
94.7648
11.228
87.3329
13.9046
71.3698
23.8221
20.8529
97.2969
25.8788
94.6122
23.7623
85.5536
17.3427
69.5009
24.4229
20.9273
92.4667
80.019
127.868
85.191
136.678
82.5971
146.075
70.0063
167.047
70.1152
22.7297
99.4517
19.4748
102.068
18.0997
102.454
25.18
95.7344
63.9523
31.2763
102.837
29.8867
103.254
20.9892
99.3688
18.9869
89.7755
28.8263
25.2928
89.9048
14.6529
84.9129
87.8641
132.591
95.1939
142.99
95.5652
159.822
88.3438
207.474
88.6971
77.804
121.482
79.6316
124.265
73.6083
123.145
64.1288
118.456
93.8546
79.0984
122.696
78.8016
122.572
67.379
115.228
47.4634
101.938
29.8768
74.1902
116.168
74.1759
111.456
58.7435
99.0476
)
;

boundaryField
{
    inlet
    {
        type            calculated;
        value           nonuniform 0();
    }
    outlet
    {
        type            calculated;
        value           nonuniform List<scalar> 
12
(
203.238
164.752
59.2448
68.7481
52.5704
53.9847
154.131
140.886
64.2449
193.271
206.503
66.1376
)
;
    }
    wall
    {
        type            calculated;
        value           uniform 0;
    }
    procBoundary5to1
    {
        type            processor;
        value           nonuniform List<scalar> 
32
(
138.5
79.0673
140.683
63.1689
168.745
87.357
34.5842
110.236
24.8706
101.454
24.5087
93.9864
71.9828
110.604
30.9922
105.166
19.4613
94.2683
9.86646
86.6595
17.9113
88.3804
138.127
94.4123
94.4123
94.4123
37.0537
109.101
109.101
109.101
32.0488
32.0488
)
;
    }
    procBoundary5to4
    {
        type            processor;
        value           nonuniform List<scalar> 
12
(
113.724
93.3826
93.9599
89.8893
117.883
96.3784
98.4811
90.9179
120.773
114.925
115.881
112.134
)
;
    }
    procBoundary5to7
    {
        type            processor;
        value           nonuniform List<scalar> 
44
(
105.445
40.8834
98.3701
32.7631
79.284
16.8322
51.8122
9.82139
35.4008
105.445
16.4248
82.8959
11.3031
62.5058
5.8175
42.2076
10.4035
22.9279
16.4248
99.1423
16.4248
82.8959
11.0814
76.6165
6.43329
62.5799
20.1211
28.3288
102.706
24.8706
11.0814
102.475
11.0814
76.6165
44.0997
85.7555
39.6525
49.1495
105.936
36.3531
99.8153
19.4043
44.0997
89.2752
)
;
    }
}


// ************************************************************************* //
