/*--------------------------------*- C++ -*----------------------------------*\
| =========                 |                                                 |
| \\      /  F ield         | OpenFOAM: The Open Source CFD Toolbox           |
|  \\    /   O peration     | Version:  4.x                                   |
|   \\  /    A nd           | Web:      www.OpenFOAM.org                      |
|    \\/     M anipulation  |                                                 |
\*---------------------------------------------------------------------------*/
FoamFile
{
    version     2.0;
    format      ascii;
    class       volScalarField;
    location    "7";
    object      QWallFluidCoeff;
}
// * * * * * * * * * * * * * * * * * * * * * * * * * * * * * * * * * * * * * //

dimensions      [1 -1 -3 -1 0 0 0];

internalField   nonuniform List<scalar> 
114
(
-3.80883e+06
-2.54756e+06
-3.96768e+06
-2.16497e+06
-4.55275e+06
-2.67733e+06
0
0
0
0
0
0
0
0
0
0
0
0
0
0
0
-2.18495e+06
-3.35768e+06
-2.21671e+06
-3.42265e+06
-2.01388e+06
-3.33727e+06
-1.57662e+06
-3.04241e+06
-1.12317e+06
0
0
0
0
0
0
0
0
0
0
0
0
0
0
0
0
0
0
0
0
-2.37822e+06
-3.46025e+06
-2.50042e+06
-3.64969e+06
-2.43932e+06
-3.84908e+06
-2.13701e+06
-4.28518e+06
-2.13967e+06
0
0
0
0
0
0
0
0
0
0
0
0
0
0
0
0
0
0
0
0
0
0
-5.12598e+06
-7.12425e+06
-5.46531e+06
-7.56782e+06
-5.48236e+06
-8.27251e+06
-5.14835e+06
-1.01929e+07
-5.16481e+06
-2.32541e+06
-3.3213e+06
-2.369e+06
-3.38202e+06
-2.22453e+06
-3.35762e+06
-1.99223e+06
-3.25495e+06
-2.70185e+06
-2.35631e+06
-3.34781e+06
-2.34923e+06
-3.3451e+06
-2.07261e+06
-3.18379e+06
-1.56597e+06
-2.88647e+06
-1.08135e+06
-2.23859e+06
-3.20455e+06
-2.23825e+06
-3.10013e+06
-1.85723e+06
-2.8208e+06
)
;

boundaryField
{
    inlet
    {
        type            calculated;
        value           nonuniform 0();
    }
    outlet
    {
        type            calculated;
        value           uniform 0;
    }
    wall
    {
        type            calculated;
        value           uniform 0;
    }
    procBoundary5to1
    {
        type            processor;
        value           uniform 0;
    }
    procBoundary5to4
    {
        type            processor;
        value           uniform 0;
    }
    procBoundary5to7
    {
        type            processor;
        value           uniform 0;
    }
}


// ************************************************************************* //
