/*--------------------------------*- C++ -*----------------------------------*\
| =========                 |                                                 |
| \\      /  F ield         | OpenFOAM: The Open Source CFD Toolbox           |
|  \\    /   O peration     | Version:  4.x                                   |
|   \\  /    A nd           | Web:      www.OpenFOAM.org                      |
|    \\/     M anipulation  |                                                 |
\*---------------------------------------------------------------------------*/
FoamFile
{
    version     2.0;
    format      ascii;
    class       volScalarField;
    location    "36";
    object      KslPrev;
}
// * * * * * * * * * * * * * * * * * * * * * * * * * * * * * * * * * * * * * //

dimensions      [1 -3 -1 0 0 0 0];

internalField   nonuniform List<scalar> 
87
(
3815.94
2545.31
3741.88
2392.42
3751.82
2109.37
4110.98
1688.34
5367.68
4494.64
2710.76
4450.12
2580.01
4601.77
2340.99
5283.66
2005.47
6876.98
5251.58
2933.26
5328.26
2816.09
5567.03
2586.56
5986.75
2170.4
6327.24
5975.7
3019.29
6017.47
2929.23
6291.03
2723.94
7272.68
2427.82
9778.96
10845.8
3388.44
11841.9
3282.92
13948.8
3059.78
14558
2816.39
10253.6
29604.9
3693.07
99352.7
3669.52
9.99703e+09
3746.64
76307.6
3986.06
8302.79
6317.92
3010.56
6595.97
2897.18
7120.51
2672.67
7911.56
2447.46
7986.4
13736
3392
14308.5
3244.58
14295
3031.77
11773
2760.72
7871.11
33401.5
3656.64
34910.7
3606.46
28224.2
3561.02
16278.9
3647.85
7586.99
8248.75
3307.54
10916.2
57538.7
3749.48
1e+10
)
;

boundaryField
{
    inlet
    {
        type            zeroGradient;
    }
    outlet
    {
        type            zeroGradient;
    }
    wall
    {
        type            zeroGradient;
    }
    procBoundary1to0
    {
        type            processor;
        value           uniform 0;
    }
    procBoundary1to3
    {
        type            processor;
        value           uniform 0;
    }
    procBoundary1to5
    {
        type            processor;
        value           uniform 0;
    }
    procBoundary1to7
    {
        type            processor;
        value           uniform 0;
    }
}


// ************************************************************************* //
