/*--------------------------------*- C++ -*----------------------------------*\
  =========                 |
  \\      /  F ield         | OpenFOAM: The Open Source CFD Toolbox
   \\    /   O peration     | Website:  https://openfoam.org
    \\  /    A nd           | Version:  4.x
     \\/     M anipulation  |
\*---------------------------------------------------------------------------*/
FoamFile
{
    version     2.0;
    format      ascii;
    class       vectorField;
    location    0;
    object      v;
}
// * * * * * * * * * * * * * * * * * * * * * * * * * * * * * * * * * * * * * //

313
(
( -7.78796e-09 -7.84873e-09 9.83777e-09 )  
( -4.39315e-09 -6.38411e-09 1.14138e-08 )  
( -6.60288e-09 -6.51811e-09 1.03727e-08 )  
( -3.90737e-09 -5.12009e-09 1.08861e-08 )  
( -9.26453e-09 -9.49044e-09 9.30917e-09 )  
( -4.86964e-09 -5.70198e-09 9.91203e-09 )  
( -5.16363e-09 -5.26065e-09 1.06938e-08 )  
( -5.31518e-09 -7.42775e-09 1.0731e-08 )  
( -7.98098e-09 -5.56093e-09 1.06327e-08 )  
( -3.03704e-09 -6.45263e-09 9.64895e-09 )  
( -3.73934e-09 -2.98228e-09 9.84049e-09 )  
( -1.23724e-08 -4.74024e-09 6.60557e-09 )  
( -1.3909e-09 -1.18405e-09 2.98508e-09 )  
( -1.22336e-08 -5.62118e-09 5.52809e-09 )  
( -1.07288e-08 -8.4956e-09 9.15484e-09 )  
( -3.34679e-09 -2.41203e-09 4.3202e-09 )  
( -5.09859e-10 -3.5881e-10 1.32405e-09 )  
( -9.12945e-09 -3.2619e-09 5.13644e-09 )  
( -1.10912e-08 -6.87681e-09 7.56583e-09 )  
( -2.42153e-09 -1.5343e-09 3.86233e-09 )  
( -2.14588e-09 -9.21493e-10 3.78241e-09 )  
( -9.43249e-10 -2.60013e-10 1.43629e-09 )  
( -9.62586e-09 -6.88665e-09 8.3742e-09 )  
( -4.36982e-09 -7.88466e-10 5.31554e-09 )  
( -5.51256e-10 -2.90298e-10 1.35754e-09 )  
( 7.54604e-12 -1.80224e-10 5.34826e-10 )  
( -5.08559e-10 -2.3942e-10 7.19384e-10 )  
( -1.83239e-09 -9.12483e-10 3.03004e-09 )  
( -1.65518e-09 -1.01784e-09 2.01193e-09 )  
( -5.88764e-09 -1.15471e-09 4.28128e-09 )  
( -9.2119e-09 -2.52534e-09 5.31467e-09 )  
( -1.38622e-09 -1.06998e-09 2.93318e-09 )  
( -4.63895e-09 -5.79567e-09 9.37658e-09 )  
( -2.80033e-09 -1.73859e-09 3.71682e-09 )  
( -1.87557e-09 -1.27558e-09 3.04625e-09 )  
( -1.49511e-08 -5.06482e-09 6.04896e-09 )  
( -7.62507e-09 -3.56582e-09 4.66627e-09 )  
( -6.75994e-09 -6.61304e-10 3.13722e-09 )  
( -7.2545e-09 -3.39157e-09 2.8795e-09 )  
( -6.62184e-09 -1.14505e-09 4.16929e-09 )  
( -2.38819e-09 -1.80726e-09 3.20961e-09 )  
( -4.48433e-09 -8.90539e-10 3.54453e-09 )  
( -4.5667e-09 -1.14658e-09 3.72439e-09 )  
( -6.0376e-09 -1.89163e-09 3.65585e-09 )  
( -5.66212e-09 -2.40259e-09 5.63977e-09 )  
( -9.45171e-09 -2.68948e-09 4.35066e-09 )  
( -3.52813e-10 -2.09375e-10 7.00839e-10 )  
( -1.16848e-08 -5.80393e-09 6.46376e-09 )  
( -5.14757e-09 -2.37003e-09 -2.11385e-09 )  
( -1.5906e-09 -3.50688e-10 1.56404e-09 )  
( -1.13441e-08 -2.24198e-09 3.73088e-09 )  
( -3.21637e-09 -3.53358e-09 5.63498e-09 )  
( -1.73252e-09 -1.85758e-09 3.09791e-09 )  
( -1.68146e-09 -9.215e-10 2.77206e-09 )  
( -2.2724e-09 -2.24101e-09 1.83167e-09 )  
( -3.85907e-09 -3.88652e-09 5.83165e-09 )  
( -1.18248e-08 -5.19908e-09 5.38879e-09 )  
( -5.22351e-09 -5.8782e-09 7.89238e-09 )  
( -1.34523e-08 -8.25739e-09 6.05906e-09 )  
( -1.02904e-10 -7.88146e-10 1.52868e-09 )  
( -3.02627e-09 -3.24671e-09 5.08854e-09 )  
( -2.53998e-09 -2.50086e-09 3.66887e-09 )  
( -6.06929e-09 -3.17363e-09 5.11444e-09 )  
( -3.0524e-09 -2.09667e-09 3.6997e-09 )  
( 2.19647e-10 -6.79279e-10 6.88217e-10 )  
( -5.00703e-09 -1.52478e-09 3.36833e-09 )  
( -8.65723e-10 -4.15343e-10 1.42025e-09 )  
( -2.95068e-09 -2.1519e-09 4.68588e-09 )  
( -9.04893e-09 -7.46685e-09 8.5565e-09 )  
( -1.10525e-08 -3.28327e-09 5.18632e-09 )  
( -2.6633e-09 -5.63714e-09 9.28031e-09 )  
( -1.01938e-08 -6.4828e-09 7.29911e-09 )  
( -1.00909e-08 -9.86573e-09 1.08563e-08 )  
( -2.39879e-09 -1.68824e-09 3.40722e-09 )  
( -2.0231e-09 -1.36331e-09 2.00477e-09 )  
( -4.18376e-09 -1.83826e-09 4.46164e-09 )  
( -1.76731e-09 -1.32143e-09 2.99438e-09 )  
( -9.31319e-09 -4.09113e-09 4.46166e-09 )  
( -9.42095e-09 -2.78025e-09 4.6242e-09 )  
( -9.57435e-10 -6.67377e-10 1.58589e-09 )  
( -3.81749e-09 -1.99207e-09 3.09565e-09 )  
( -2.37253e-09 -6.26993e-10 3.01322e-09 )  
( -8.5251e-10 -6.61577e-10 1.01099e-09 )  
( -7.15e-09 -1.7947e-09 4.44324e-09 )  
( 2.04679e-10 -2.71719e-11 4.3678e-10 )  
( -7.50871e-09 -6.00998e-09 6.70832e-09 )  
( -8.25137e-10 -5.67321e-10 2.35669e-09 )  
( -5.34353e-09 -3.30642e-09 5.19507e-09 )  
( 7.0754e-11 -2.69316e-10 4.23774e-10 )  
( -9.88532e-11 -1.30332e-10 1.09249e-09 )  
( -8.21359e-09 -4.23469e-09 5.01283e-09 )  
( -3.50149e-10 -9.06139e-10 1.52661e-09 )  
( -1.77367e-09 -1.16405e-09 1.49398e-09 )  
( -6.68055e-10 -3.49848e-10 1.58667e-09 )  
( -3.55596e-09 -2.92141e-09 4.71442e-09 )  
( -9.53512e-09 -4.72996e-09 8.38559e-09 )  
( -1.11133e-08 -4.50549e-09 4.96701e-09 )  
( -2.41177e-10 -3.3655e-10 1.23095e-09 )  
( -1.44265e-08 -4.42827e-09 6.76144e-09 )  
( -9.9884e-10 -1.27564e-09 1.27919e-09 )  
( -6.06026e-09 -1.9226e-09 3.98402e-09 )  
( -2.4979e-09 1.10477e-10 2.0461e-09 )  
( -1.82025e-08 -7.14682e-09 8.03095e-09 )  
( -1.38611e-08 -7.14517e-09 9.23312e-09 )  
( -1.06017e-08 -3.39768e-09 4.94129e-09 )  
( -1.10065e-08 -5.80553e-09 8.33326e-09 )  
( -1.41614e-09 -6.42493e-10 2.61294e-09 )  
( -1.00636e-08 -8.74163e-09 1.0389e-08 )  
( -6.50812e-09 -1.56802e-09 4.19869e-09 )  
( -2.67734e-09 -2.30327e-09 4.14803e-09 )  
( -4.15126e-09 -8.56224e-10 2.86536e-09 )  
( -1.08358e-08 -4.94397e-09 7.394e-09 )  
( -9.09662e-09 -3.87978e-09 5.14876e-09 )  
( -2.24481e-09 -1.83321e-10 2.53038e-09 )  
( -3.80451e-09 -1.46758e-09 1.97091e-09 )  
( -6.70989e-09 -6.78235e-09 8.0625e-09 )  
( -4.76375e-09 -1.60286e-09 1.38627e-09 )  
( -9.28097e-09 -7.42882e-09 1.06506e-08 )  
( -2.28861e-09 -1.3017e-09 5.06454e-09 )  
( -1.50815e-09 -1.25187e-09 3.16709e-09 )  
( -1.91775e-09 -3.79748e-10 2.56017e-09 )  
( -2.44391e-09 -1.73164e-09 3.8159e-09 )  
( 7.68937e-11 1.92283e-12 5.71352e-10 )  
( -1.05115e-08 -9.08375e-09 8.73384e-09 )  
( -2.38375e-09 -1.21567e-09 2.34792e-09 )  
( -1.1986e-09 -3.99723e-10 1.89775e-09 )  
( -4.91049e-09 -2.80471e-09 3.32403e-09 )  
( -6.75659e-09 -2.48059e-09 4.11299e-09 )  
( -3.31842e-10 -2.44242e-10 6.34686e-10 )  
( -3.08233e-09 1.45175e-10 1.42705e-09 )  
( -1.21225e-08 -3.25993e-09 5.3336e-09 )  
( -8.34541e-10 -2.04199e-10 8.85449e-10 )  
( -1.35722e-08 -6.51548e-09 7.74575e-09 )  
( -1.4969e-08 -1.04496e-08 5.0105e-09 )  
( -1.70128e-09 -6.32976e-10 2.9071e-09 )  
( -1.0512e-09 -5.04471e-10 1.66712e-09 )  
( -3.9844e-10 -3.77654e-10 1.15218e-09 )  
( -1.4412e-08 -4.42271e-09 7.12732e-09 )  
( -4.78621e-10 -9.47349e-11 6.05488e-10 )  
( -4.35799e-09 -1.58403e-09 1.3989e-09 )  
( -1.29463e-09 -2.78556e-10 1.28789e-09 )  
( -2.68275e-10 -1.07179e-09 7.72225e-10 )  
( -7.89359e-09 -6.50044e-09 6.67185e-09 )  
( -6.85319e-09 -6.72807e-09 6.94266e-09 )  
( -9.00701e-10 -3.9665e-10 1.56523e-09 )  
( -8.11685e-09 -6.25762e-09 8.65357e-09 )  
( -1.47353e-09 -1.5053e-09 1.27411e-09 )  
( -1.23601e-08 -7.01239e-09 7.31243e-09 )  
( -1.03127e-09 -2.50027e-10 1.07024e-09 )  
( -6.20071e-10 -1.22418e-09 2.09859e-09 )  
( -2.07897e-09 -1.20375e-09 2.88926e-09 )  
( -1.05424e-09 -5.2433e-10 2.56225e-09 )  
( -1.2903e-09 -1.58017e-09 2.64056e-09 )  
( -3.8636e-09 -4.82326e-09 6.2011e-09 )  
( -2.60243e-09 -1.59708e-09 3.88508e-09 )  
( -8.12829e-10 -1.03783e-09 1.73873e-09 )  
( -3.01854e-09 -1.7661e-09 3.64454e-09 )  
( -5.82386e-09 -3.93454e-09 5.60916e-09 )  
( -3.58071e-09 -2.28837e-09 4.32765e-09 )  
( -2.83571e-09 4.20875e-10 2.78664e-09 )  
( -2.68467e-09 -1.66167e-09 3.31755e-09 )  
( -3.87492e-09 -2.37525e-09 4.25701e-09 )  
( -3.69904e-10 2.78041e-12 8.14975e-10 )  
( -3.34836e-09 -2.66771e-09 4.9897e-09 )  
( 3.40027e-11 9.97446e-11 -3.52722e-11 )  
( -2.50165e-10 -2.94974e-10 3.76154e-10 )  
( -7.75765e-10 -7.30951e-10 7.10337e-10 )  
( -3.68585e-09 -8.54502e-10 3.46371e-09 )  
( -5.77363e-09 -1.62689e-09 3.90732e-09 )  
( -2.01963e-10 -1.53985e-11 6.66879e-10 )  
( -5.93339e-10 -5.85482e-10 1.00881e-09 )  
( -4.6186e-10 -8.72821e-11 7.62982e-10 )  
( -3.15021e-10 -1.69886e-09 2.82156e-09 )  
( -6.98989e-10 -2.42859e-10 1.38109e-09 )  
( -7.38302e-09 -6.56785e-09 7.20171e-09 )  
( -4.13825e-09 -2.93418e-09 4.68009e-09 )  
( -8.95032e-10 -3.59264e-10 1.29151e-09 )  
( 1.40137e-10 1.31701e-10 1.71066e-10 )  
( -1.58536e-09 -7.06146e-10 2.15096e-09 )  
( -5.091e-09 -2.00241e-09 3.81558e-09 )  
( -2.14782e-09 -1.06812e-09 2.25845e-09 )  
( -4.93501e-09 -3.71679e-09 5.47015e-09 )  
( -8.81364e-10 -5.0744e-10 9.75349e-10 )  
( -1.88565e-09 -2.76856e-09 3.41679e-09 )  
( -4.96049e-10 -2.97268e-10 1.86037e-09 )  
( -1.77195e-10 -8.56329e-10 8.97751e-10 )  
( -8.7728e-10 -1.79474e-10 1.09013e-09 )  
( -1.03437e-09 -1.03318e-09 2.52767e-09 )  
( -1.45524e-09 -6.67722e-10 2.07937e-09 )  
( -7.19623e-10 -6.15999e-10 1.73514e-09 )  
( -1.86301e-09 -9.10453e-10 2.79147e-09 )  
( -7.75668e-10 -3.7015e-10 8.0052e-10 )  
( -2.81087e-10 -9.58827e-10 1.10663e-09 )  
( -3.46408e-09 -3.16807e-09 4.56107e-09 )  
( -6.49379e-09 -5.56558e-09 5.68221e-09 )  
( -4.35639e-09 -2.68958e-09 3.78824e-09 )  
( -2.31636e-09 -1.217e-09 3.28148e-09 )  
( -1.07438e-09 -1.70682e-10 1.53115e-09 )  
( -2.03547e-10 -5.81388e-10 4.27535e-10 )  
( -8.445e-10 -1.63603e-10 1.15639e-09 )  
( -5.70941e-09 -4.85249e-09 5.93465e-09 )  
( -2.21594e-10 -1.98986e-10 8.97194e-10 )  
( -7.97346e-09 -3.59325e-09 6.25623e-09 )  
( -2.77839e-09 -2.6877e-09 4.38788e-09 )  
( -1.29972e-09 -1.54534e-09 3.05224e-09 )  
( -1.75772e-09 -1.00397e-09 2.24742e-09 )  
( -4.9982e-09 -3.92495e-09 6.2278e-09 )  
( -9.89143e-10 -3.25181e-10 1.42519e-09 )  
( -3.06391e-09 -7.8542e-10 2.5934e-09 )  
( 2.10733e-11 -4.84212e-10 2.15483e-10 )  
( -2.93391e-09 -2.22666e-09 3.66643e-09 )  
( -5.35662e-11 -1.10902e-10 3.45631e-10 )  
( -9.83915e-09 -3.55736e-09 5.94789e-09 )  
( -3.8558e-09 -2.32662e-09 4.02693e-09 )  
( -4.35562e-11 -2.02427e-09 1.87257e-09 )  
( 1.02212e-10 -3.7973e-10 1.52757e-10 )  
( -1.47522e-11 -9.63099e-11 1.84406e-10 )  
( -5.78126e-10 -1.21873e-09 2.66785e-09 )  
( -1.66211e-08 -3.18638e-09 4.62354e-09 )  
( -8.58852e-10 -8.60066e-11 8.78674e-10 )  
( -5.25679e-09 -4.93864e-09 9.45506e-09 )  
( -4.21467e-10 -2.25591e-10 5.08074e-10 )  
( -6.38594e-09 -4.65154e-10 9.90355e-10 )  
( -3.05277e-09 -2.12944e-09 3.84973e-09 )  
( -8.91712e-09 -7.05645e-09 9.33958e-09 )  
( -5.88174e-09 -4.21731e-09 8.32098e-09 )  
( -8.71781e-09 -3.9346e-09 5.49155e-09 )  
( -1.34294e-10 -4.74148e-10 1.1408e-09 )  
( -1.27904e-08 -6.45316e-09 8.21265e-09 )  
( -2.58054e-09 -1.78203e-09 3.51625e-09 )  
( -1.55296e-09 -4.0126e-09 7.64105e-09 )  
( -3.22046e-09 -7.93143e-10 1.11573e-09 )  
( -4.92143e-09 -3.69319e-09 5.79076e-09 )  
( -7.34785e-09 -9.49386e-09 1.17191e-08 )  
( -1.63775e-09 -6.00246e-10 7.72084e-10 )  
( -3.51327e-09 -1.80665e-09 4.21918e-09 )  
( -3.00518e-09 -2.01626e-09 3.30666e-09 )  
( -2.97776e-09 -8.37293e-10 3.08768e-09 )  
( -5.97363e-09 -4.30347e-09 6.54199e-09 )  
( -8.54107e-09 -3.74997e-09 4.88743e-09 )  
( -5.47582e-10 -3.95178e-10 1.97305e-09 )  
( -7.87102e-10 -8.25667e-10 2.14916e-09 )  
( -1.1076e-09 -2.16917e-10 1.39425e-09 )  
( -5.87219e-09 -5.48193e-09 7.66268e-09 )  
( -2.07895e-09 -1.41721e-09 2.71158e-09 )  
( -5.69479e-09 -1.67378e-09 3.33687e-09 )  
( -2.1088e-09 -1.48101e-09 3.20646e-09 )  
( -1.03296e-09 -6.61567e-10 1.91927e-09 )  
( -9.11657e-09 -5.08552e-09 7.12588e-09 )  
( -6.0373e-09 -1.71355e-09 4.0898e-09 )  
( -1.19798e-09 -1.02014e-09 2.66125e-09 )  
( -8.92106e-10 -6.50775e-10 2.0786e-09 )  
( -6.83784e-10 -4.81203e-10 8.4733e-10 )  
( -4.12367e-10 -2.26355e-10 7.69101e-10 )  
( -1.87869e-09 -2.86666e-09 3.35005e-09 )  
( -1.35583e-08 -5.52053e-09 6.70111e-09 )  
( -4.88914e-10 -2.7502e-10 1.46445e-09 )  
( -9.63814e-09 -2.7842e-09 4.89439e-09 )  
( -7.63736e-09 -9.85409e-09 4.96387e-09 )  
( -6.26161e-09 -6.35938e-09 9.39541e-09 )  
( -1.05387e-09 -9.46156e-10 2.87565e-09 )  
( -4.60121e-09 -4.50498e-09 4.88908e-09 )  
( -1.24612e-09 -1.17864e-09 3.49411e-09 )  
( -2.01953e-09 -1.07562e-09 3.28935e-09 )  
( -6.59579e-09 -2.57751e-09 4.35365e-09 )  
( -9.24467e-09 -6.87003e-09 3.66994e-09 )  
( -5.56344e-10 -3.48065e-10 1.04557e-09 )  
( -9.02039e-09 -5.59928e-09 6.35775e-09 )  
( -2.43538e-09 -1.53569e-09 3.51393e-09 )  
( -7.7292e-10 -8.07897e-10 1.58872e-09 )  
( -9.80317e-09 -5.82514e-09 8.13514e-09 )  
( -1.06705e-09 -5.69185e-10 2.30731e-09 )  
( -1.05272e-10 -5.37449e-10 9.5284e-10 )  
( -2.15062e-09 -2.3813e-09 4.05957e-09 )  
( -8.46441e-10 -1.10036e-09 1.45197e-09 )  
( -5.55482e-09 -4.39605e-09 5.05051e-09 )  
( -2.17278e-09 -4.21479e-09 6.00098e-09 )  
( -8.76382e-09 -2.75217e-09 4.5858e-09 )  
( -8.12724e-09 -7.75841e-09 1.00681e-08 )  
( -6.5225e-11 -4.76285e-10 6.17842e-10 )  
( -1.1499e-08 -1.01396e-08 8.03841e-09 )  
( -1.12647e-09 -2.09711e-09 4.20845e-09 )  
( -1.62337e-08 -1.49833e-08 4.90051e-09 )  
( -1.1884e-10 -1.43836e-10 8.95921e-10 )  
( -1.42348e-08 1.23584e-09 5.69036e-09 )  
( 2.49079e-09 -5.25629e-10 5.8152e-10 )  
( -3.8342e-09 -2.703e-09 3.30254e-09 )  
( -3.13493e-09 -2.70965e-09 4.6661e-09 )  
( -1.70829e-09 -1.19009e-09 2.91014e-09 )  
( -4.87857e-09 -1.82561e-09 2.6489e-09 )  
( -7.68381e-10 -4.55789e-10 1.58416e-09 )  
( -7.27983e-09 -6.0581e-09 3.40294e-09 )  
( -4.01847e-09 -1.02982e-09 2.55678e-09 )  
( -2.01032e-08 -1.27928e-08 6.73304e-09 )  
( -2.12554e-09 -3.45473e-09 5.50504e-09 )  
( -3.08274e-09 -7.32624e-10 1.9608e-09 )  
( -2.8909e-10 -6.32806e-10 5.30397e-10 )  
( -1.6437e-08 -6.85776e-09 7.14923e-09 )  
( -1.09381e-08 -7.3909e-09 8.29707e-09 )  
( 1.8129e-09 -9.3962e-09 5.83497e-10 )  
( 3.57279e-10 -3.25167e-10 6.45988e-10 )  
( 1.02257e-08 -3.79359e-09 -1.45499e-10 )  
( -2.33025e-10 -8.87023e-10 1.90063e-09 )  
( -1.48113e-08 -2.17953e-08 8.88045e-09 )  
( -1.23075e-09 -1.11358e-09 1.11361e-09 )  
( -3.62053e-09 -1.03155e-09 3.29369e-09 )  
( -1.70887e-09 -1.79282e-09 3.75545e-09 )  
( -8.23845e-09 -3.37295e-09 5.23565e-09 )  
( -2.02872e-09 -3.00706e-09 3.65694e-09 )  
( -8.60795e-09 -4.29641e-09 4.69449e-09 )  
( -3.93935e-10 -1.22534e-09 1.86657e-09 )  
( -1.08342e-08 -6.89685e-09 5.66026e-09 )  
( -7.4825e-09 -8.88468e-09 9.71881e-09 )  
)
