/*--------------------------------*- C++ -*----------------------------------*\
| =========                 |                                                 |
| \\      /  F ield         | OpenFOAM: The Open Source CFD Toolbox           |
|  \\    /   O peration     | Version:  4.x                                   |
|   \\  /    A nd           | Web:      www.OpenFOAM.org                      |
|    \\/     M anipulation  |                                                 |
\*---------------------------------------------------------------------------*/
FoamFile
{
    version     2.0;
    format      ascii;
    class       volScalarField;
    location    "31";
    object      QWallFluid;
}
// * * * * * * * * * * * * * * * * * * * * * * * * * * * * * * * * * * * * * //

dimensions      [1 -1 -3 0 0 0 0];

internalField   nonuniform List<scalar> 
114
(
8.31492e+08
2.65688e+08
7.62457e+08
1.40631e+08
6.24204e+08
1.82835e+08
0
0
0
0
0
0
0
0
0
0
0
0
0
0
0
4.38759e+08
8.87463e+08
4.21602e+08
9.13208e+08
3.92693e+08
9.50983e+08
3.48301e+08
1.04454e+09
3.95752e+08
0
0
0
0
0
0
0
0
0
0
0
0
0
0
0
0
0
0
0
0
4.45549e+08
8.64753e+08
4.29361e+08
8.76948e+08
4.00207e+08
8.83781e+08
3.30363e+08
8.70137e+08
1.95852e+08
0
0
0
0
0
0
0
0
0
0
0
0
0
0
0
0
0
0
0
0
0
0
1.21297e+09
1.91667e+09
1.24504e+09
2.00816e+09
1.2346e+09
2.18026e+09
1.15131e+09
2.56772e+09
9.18304e+08
5.02964e+08
9.03025e+08
5.04565e+08
9.34467e+08
4.80807e+08
9.75045e+08
4.14589e+08
1.03513e+09
2.75666e+08
4.12664e+08
8.53513e+08
3.92677e+08
8.7335e+08
3.80139e+08
9.14857e+08
3.66926e+08
1.02842e+09
3.41716e+08
4.07059e+08
8.57394e+08
3.8291e+08
8.74573e+08
3.53596e+08
9.12264e+08
)
;

boundaryField
{
    inlet
    {
        type            calculated;
        value           nonuniform 0();
    }
    outlet
    {
        type            calculated;
        value           uniform 0;
    }
    wall
    {
        type            calculated;
        value           uniform 0;
    }
    procBoundary5to1
    {
        type            processor;
        value           nonuniform List<scalar> 
32
(
9.47338e+08
4.30284e+08
9.79483e+08
3.78408e+08
1.03311e+09
3.46616e+08
0
0
0
0
0
0
0
0
0
0
0
0
0
0
0
4.34069e+08
8.63991e+08
3.72456e+08
3.72456e+08
3.72456e+08
0
0
0
0
0
0
)
;
    }
    procBoundary5to4
    {
        type            processor;
        value           nonuniform List<scalar> 
12
(
8.65206e+08
0
0
0
8.56015e+08
0
0
0
1.84573e+09
8.8002e+08
8.4138e+08
8.44002e+08
)
;
    }
    procBoundary5to7
    {
        type            processor;
        value           nonuniform List<scalar> 
44
(
0
0
0
0
0
0
0
0
0
0
0
0
0
0
0
0
0
0
0
0
0
0
0
0
0
0
0
0
0
0
0
0
0
0
3.56023e+08
1.01719e+09
3.63487e+08
3.32479e+08
8.13229e+08
2.66056e+08
8.01159e+08
1.90142e+08
3.56023e+08
7.84738e+08
)
;
    }
}


// ************************************************************************* //
