/*--------------------------------*- C++ -*----------------------------------*\
| =========                 |                                                 |
| \\      /  F ield         | OpenFOAM: The Open Source CFD Toolbox           |
|  \\    /   O peration     | Version:  4.x                                   |
|   \\  /    A nd           | Web:      www.OpenFOAM.org                      |
|    \\/     M anipulation  |                                                 |
\*---------------------------------------------------------------------------*/
FoamFile
{
    version     2.0;
    format      ascii;
    class       volVectorField;
    location    "11.5";
    object      DDtUrel;
}
// * * * * * * * * * * * * * * * * * * * * * * * * * * * * * * * * * * * * * //

dimensions      [0 1 -2 0 0 0 0];

internalField   nonuniform List<vector> 
114
(
(0.000667309 -4.1318e-06 5.32487e-05)
(0.000506872 -8.99061e-06 0.000113331)
(0.000383012 -1.3331e-05 0.000177255)
(0.000249078 -1.68183e-05 0.000190658)
(0.000179091 -1.49184e-05 0.000184164)
(0.000117084 -1.40308e-05 0.000114927)
(0.00186388 3.00182e-05 -0.000215621)
(0.0012505 1.84992e-05 -0.00011624)
(0.00089255 8.07367e-06 -2.18897e-05)
(0.000689338 -7.15403e-07 5.31894e-05)
(0.000537517 -8.31476e-06 0.000112438)
(0.000428424 -1.24476e-05 0.000175461)
(0.000310603 -1.74017e-05 0.0001986)
(0.000256069 -1.99066e-05 0.000203447)
(0.000204958 -1.77338e-05 0.000142749)
(0.00190488 6.47567e-05 -0.000215838)
(0.00130174 3.29751e-05 -0.000116509)
(0.00095387 1.37227e-05 -2.30524e-05)
(0.000762627 2.75666e-06 4.95073e-05)
(0.000625006 -6.7758e-06 0.000109694)
(0.000530704 -7.74439e-06 0.000176322)
(0.000429336 -8.47137e-06 0.000216185)
(0.000382661 -3.60959e-06 0.000242438)
(0.000348761 -3.25478e-06 0.000208373)
(0.00195132 7.41858e-05 -0.000209834)
(0.00136053 4.1418e-05 -0.000115321)
(0.00102144 1.73766e-05 -2.6471e-05)
(0.000844613 4.60651e-06 4.3553e-05)
(0.000723592 -5.20109e-06 0.000104477)
(0.000654261 -4.25419e-06 0.000172639)
(0.000574872 3.8548e-06 0.00022508)
(0.00053707 1.55414e-05 0.000264812)
(0.000471494 2.7592e-05 0.000250291)
(0.000301069 -1.25114e-05 0.000157335)
(0.000239644 -1.47674e-05 0.000152462)
(0.000222666 -1.28079e-05 0.000143204)
(0.000192566 -9.34841e-06 8.41609e-05)
(0.00177082 3.31097e-05 -0.000256281)
(0.00112457 1.74253e-05 -0.000123619)
(0.000750599 7.60265e-06 -2.15468e-05)
(0.000541615 -8.50297e-07 5.77799e-05)
(0.000411109 -9.39932e-06 0.000104937)
(0.000332281 -1.69358e-05 0.000159923)
(0.000276303 -1.76166e-05 0.000165246)
(0.000268202 -1.80401e-05 0.000165532)
(0.000245601 -1.13203e-05 0.000109837)
(0.00181189 7.16101e-05 -0.00025703)
(0.00117215 3.61971e-05 -0.000126093)
(0.000803496 1.37578e-05 -2.46526e-05)
(0.000602177 1.18863e-06 5.24285e-05)
(0.000476304 -7.97857e-06 0.000103895)
(0.000403516 -1.29752e-05 0.000165203)
(0.000352299 -1.35102e-05 0.000187521)
(0.000350563 -1.19039e-05 0.000208524)
(0.000331755 -5.64895e-06 0.000164393)
(0.00186579 8.39619e-05 -0.000252129)
(0.00124022 4.58695e-05 -0.000126957)
(0.000878357 1.79123e-05 -3.06337e-05)
(0.000687004 4.1578e-06 4.36904e-05)
(0.000566145 -5.64214e-06 9.88075e-05)
(0.000505246 -8.562e-06 0.000166418)
(0.000458218 -5.30856e-06 0.000209127)
(0.000462178 -1.80226e-06 0.000247773)
(0.000434555 5.0078e-06 0.000227541)
(0.000220391 -4.97877e-06 9.33315e-05)
(0.00021032 -3.79236e-06 5.33455e-05)
(0.00168311 4.13213e-05 -0.000237529)
(0.00101092 1.81136e-05 -0.000108441)
(0.000634716 5.60544e-06 -1.92623e-05)
(0.000431016 -3.91068e-06 5.26661e-05)
(0.000320096 -9.22344e-06 8.51801e-05)
(0.000268378 -1.54393e-05 0.000123989)
(0.000245262 -1.33454e-05 0.000119438)
(0.000253832 -9.93365e-06 0.000111718)
(0.000247442 -4.44931e-06 6.93083e-05)
(0.00172405 7.93447e-05 -0.000238457)
(0.00105639 3.88798e-05 -0.000112649)
(0.000679466 1.40493e-05 -2.49904e-05)
(0.000475 -1.19001e-06 4.66222e-05)
(0.000364294 -9.07227e-06 8.60448e-05)
(0.000311978 -1.48243e-05 0.000132862)
(0.00029371 -1.45653e-05 0.000139173)
(0.000311209 -1.33614e-05 0.000145137)
(0.000311479 -7.87285e-06 0.00010496)
(0.00178072 9.34867e-05 -0.000237383)
(0.0011244 5.11569e-05 -0.000117371)
(0.000748241 1.95048e-05 -3.21257e-05)
(0.000546781 2.28636e-06 3.90082e-05)
(0.0004322 -8.29097e-06 8.64238e-05)
(0.000379326 -1.32478e-05 0.00014029)
(0.000359332 -1.33673e-05 0.000163733)
(0.000387909 -1.63247e-05 0.000186685)
(0.000407298 -1.3078e-05 0.000160924)
(0.00163277 4.18464e-05 -0.00018911)
(0.00094976 1.93413e-05 -8.39312e-05)
(0.000573567 4.54369e-06 -1.64475e-05)
(0.000377457 -5.82457e-06 3.93255e-05)
(0.000276322 -8.49797e-06 6.48625e-05)
(0.000238215 -1.25146e-05 9.00234e-05)
(0.000221284 -1.05634e-05 8.22356e-05)
(0.000231665 -6.14078e-06 7.01515e-05)
(0.0016755 8.48778e-05 -0.000189324)
(0.000994738 3.86511e-05 -8.84822e-05)
(0.000613926 1.18531e-05 -2.19956e-05)
(0.000412582 -3.98947e-06 3.40646e-05)
(0.000307632 -9.25758e-06 6.58795e-05)
(0.000268197 -1.47685e-05 9.784e-05)
(0.000254971 -1.49315e-05 9.69963e-05)
(0.00173517 9.93937e-05 -0.000191656)
(0.00106233 5.12225e-05 -9.57099e-05)
(0.00067756 1.85318e-05 -3.03725e-05)
(0.000472472 5.99253e-07 2.70418e-05)
(0.00036093 -8.14778e-06 6.7663e-05)
(0.00031895 -1.51831e-05 0.000106559)
)
;

boundaryField
{
    inlet
    {
        type            calculated;
        value           nonuniform List<vector> 
12
(
(0.00403194 0.000100543 -0.000402271)
(0.00412727 0.000224266 -0.000430692)
(0.00427021 0.000179291 -0.000368173)
(0.00376505 0.000108003 -0.000843593)
(0.00382977 0.000263747 -0.00088169)
(0.00405703 0.000245914 -0.000817483)
(0.00368517 0.0001963 -0.000737912)
(0.00371873 0.000290475 -0.000746029)
(0.00395983 0.000285098 -0.000717827)
(0.0036713 0.000162647 -0.000625403)
(0.00374111 0.000326006 -0.000588293)
(0.00401501 0.000310633 -0.00058498)
)
;
    }
    outlet
    {
        type            calculated;
        value           nonuniform 0();
    }
    wall
    {
        type            calculated;
        value           nonuniform List<vector> 
66
(
(0.00403194 0.000100543 -0.000402271)
(0.00412727 0.000224266 -0.000430692)
(0.00427021 0.000179291 -0.000368173)
(0.000676866 4.93059e-05 -8.49586e-05)
(0.000848782 1.06309e-06 -7.26327e-05)
(0.001094 2.53282e-05 -5.77829e-05)
(0.000671424 2.57797e-05 4.00347e-05)
(0.000888507 -7.21509e-06 5.63396e-05)
(0.00114151 -9.62198e-06 3.68606e-05)
(0.000779622 1.37328e-05 7.99662e-05)
(0.000818513 -4.13747e-06 0.000101621)
(0.00105388 7.7142e-06 8.76767e-05)
(0.00139805 1.94226e-06 5.45295e-05)
(0.000562007 -1.0513e-05 0.000135291)
(0.000612707 -1.89479e-05 0.000128482)
(0.000906422 -3.08613e-05 0.000114659)
(0.00134035 -3.41475e-05 8.2779e-05)
(0.00042578 4.11011e-06 0.000423597)
(0.000577791 -8.02687e-06 0.000344144)
(0.000879114 1.08367e-05 0.000311359)
(0.00152117 -3.63699e-06 0.000231138)
(-0.000189367 8.20608e-06 0.000348145)
(3.65165e-05 -5.3873e-05 0.000331023)
(0.000406156 -2.14691e-05 0.000374131)
(0.00124372 5.76186e-05 0.000343001)
(-0.000224854 5.25911e-05 0.000438066)
(5.73738e-05 -0.00010612 0.000471253)
(0.000355734 2.69752e-05 0.000591835)
(0.00132835 0.000126767 0.00056183)
(-0.000493548 -3.54979e-05 0.000131956)
(-0.000162089 -0.000133325 0.000195479)
(0.000643649 -9.01277e-05 0.000579381)
(0.00108529 0.000232224 0.000575111)
(0.00427021 0.000179291 -0.000368173)
(0.00405703 0.000245914 -0.000817483)
(0.00395983 0.000285098 -0.000717827)
(0.00401501 0.000310633 -0.00058498)
(0.001094 2.53282e-05 -5.77829e-05)
(0.000580689 4.03495e-05 -0.000101181)
(0.000260929 7.03766e-05 -5.61543e-05)
(0.000238185 4.04692e-05 -4.69294e-05)
(0.00114151 -9.62198e-06 3.68606e-05)
(0.000515805 -1.8896e-05 1.44866e-05)
(0.00021116 -2.65587e-06 -1.81959e-05)
(0.000176728 -7.98719e-06 -4.6062e-05)
(0.00139805 1.94226e-06 5.45295e-05)
(0.000665219 4.53107e-06 9.44489e-05)
(0.000283737 -9.25685e-06 0.000114821)
(0.000246174 -1.2152e-05 5.58562e-05)
(0.00134035 -3.41475e-05 8.2779e-05)
(0.000575209 -1.44896e-05 6.28547e-05)
(0.000247771 -3.33334e-05 8.52891e-05)
(0.000205934 -7.61085e-06 9.4671e-05)
(0.00152117 -3.63699e-06 0.000231138)
(0.000701887 -1.36309e-05 0.000311672)
(0.000277363 -3.32741e-05 0.00028483)
(0.000340315 -3.74506e-05 0.000241021)
(0.00124372 5.76186e-05 0.000343001)
(0.000563915 1.46777e-05 0.00037909)
(0.000269681 -9.70899e-06 0.000245875)
(0.00132835 0.000126767 0.00056183)
(0.000904834 1.01292e-05 0.000693691)
(0.00060507 -7.01805e-05 0.000467723)
(0.00108529 0.000232224 0.000575111)
(0.000809579 6.08682e-05 0.000635447)
(0.00112211 -2.43003e-05 0.000353708)
)
;
    }
    procBoundary2to0
    {
        type            processor;
        value           nonuniform List<vector> 
44
(
(0.000698773 -8.25311e-06 5.1511e-05)
(0.000539545 -1.05003e-05 0.000110866)
(0.000416281 -2.14463e-05 0.000171981)
(0.000272366 -3.2134e-05 0.000190325)
(0.000182153 -3.29363e-05 0.000189516)
(9.59651e-05 -2.44866e-05 0.000123601)
(0.00185667 -1.87424e-05 -0.000218948)
(0.00124198 -6.0942e-06 -0.000113512)
(0.000881792 -4.64223e-06 -2.09338e-05)
(0.000881792 -4.64223e-06 -2.09338e-05)
(0.000521058 -3.64328e-06 6.11419e-05)
(0.000387399 -8.35434e-06 0.000105394)
(0.000322012 -1.02884e-05 0.000155764)
(0.000249096 -1.76753e-05 0.000154718)
(0.000218598 -1.82432e-05 0.000146931)
(0.000176261 -1.43566e-05 9.30889e-05)
(0.00175694 -1.83003e-05 -0.000263685)
(0.00111113 -8.3117e-06 -0.000122205)
(0.000736661 -4.86602e-06 -1.87527e-05)
(0.000521058 -3.64328e-06 6.11419e-05)
(0.000387399 -8.35434e-06 0.000105394)
(0.000387399 -8.35434e-06 0.000105394)
(0.0002498 -9.37675e-06 0.000117086)
(0.000223044 -9.68754e-06 0.0001077)
(0.000221826 -9.89705e-06 0.000101032)
(0.000208865 -7.71216e-06 6.34796e-05)
(0.00166279 -1.50342e-05 -0.000239677)
(0.000991256 -7.69644e-06 -0.000108335)
(0.000618331 -5.36935e-06 -1.69943e-05)
(0.000412931 -4.1758e-06 5.58409e-05)
(0.000306652 -6.90944e-06 8.29254e-05)
(0.0002498 -9.37675e-06 0.000117086)
(0.000223044 -9.68754e-06 0.0001077)
(0.000223044 -9.68754e-06 0.0001077)
(0.000205506 -4.25065e-06 5.97211e-05)
(0.000205243 -3.58301e-06 2.8211e-05)
(0.00161654 -1.80021e-05 -0.000185883)
(0.000932979 -6.93412e-06 -8.38735e-05)
(0.000558776 -4.2949e-06 -1.40859e-05)
(0.000363583 -3.04691e-06 4.09901e-05)
(0.000265806 -5.24734e-06 6.34742e-05)
(0.00022495 -6.54784e-06 8.55302e-05)
(0.000205354 -6.98753e-06 7.6012e-05)
(0.000205506 -4.25065e-06 5.97211e-05)
)
;
    }
    procBoundary2to3
    {
        type            processor;
        value           nonuniform List<vector> 
12
(
(0.000111452 2.461e-06 3.48631e-05)
(0.00017586 -2.86262e-06 6.12277e-05)
(0.000260542 1.09549e-05 0.000124423)
(0.000367361 2.69113e-05 0.000197192)
(0.000198444 8.89995e-07 1.86299e-05)
(0.000243114 -2.53547e-06 4.13742e-05)
(0.000303458 -4.04882e-07 9.59538e-05)
(0.00038014 4.61137e-07 0.000182332)
(0.000211566 4.25324e-06 2.06772e-06)
(0.000247358 -2.6398e-06 1.52978e-05)
(0.000295352 -8.799e-06 5.22566e-05)
(0.00034173 -2.12609e-05 0.000125295)
)
;
    }
    procBoundary2to6
    {
        type            processor;
        value           nonuniform List<vector> 
32
(
(0.000229295 -2.50904e-06 3.56179e-05)
(0.000272688 -1.51942e-05 9.25921e-05)
(0.000274009 -1.17155e-05 5.79232e-05)
(0.000304119 -1.86231e-05 0.000116488)
(0.000330001 -2.2954e-05 0.000126803)
(0.000334933 -2.07567e-05 9.75589e-05)
(0.00161304 4.38355e-05 -0.000112929)
(0.000919507 1.97403e-05 -5.33168e-05)
(0.000545322 3.88875e-06 -1.16638e-05)
(0.000349885 -5.81445e-06 2.49488e-05)
(0.00025506 -8.15989e-06 4.34862e-05)
(0.000213848 -1.05872e-05 5.87404e-05)
(0.000203126 -9.1233e-06 5.31596e-05)
(0.000229295 -2.50904e-06 3.56179e-05)
(0.000272688 -1.51942e-05 9.25921e-05)
(0.000203969 -5.35146e-06 4.0282e-05)
(0.00165576 8.92707e-05 -0.000114758)
(0.000965772 3.84292e-05 -5.79787e-05)
(0.000584606 1.1381e-05 -1.63108e-05)
(0.000381531 -6.14614e-06 2.14525e-05)
(0.000279617 -9.65738e-06 4.37248e-05)
(0.000236463 -1.3671e-05 6.26086e-05)
(0.000272688 -1.51942e-05 9.25921e-05)
(0.000304119 -1.86231e-05 0.000116488)
(0.000226287 -1.41927e-05 6.15778e-05)
(0.00171726 0.000102015 -0.000121548)
(0.00103261 5.1135e-05 -6.49895e-05)
(0.000644771 1.72874e-05 -2.36115e-05)
(0.000433299 -2.11463e-06 1.62542e-05)
(0.000320479 -9.02001e-06 4.36068e-05)
(0.000304119 -1.86231e-05 0.000116488)
(0.000273927 -1.44573e-05 6.83429e-05)
)
;
    }
}


// ************************************************************************* //
