/*--------------------------------*- C++ -*----------------------------------*\
| =========                 |                                                 |
| \\      /  F ield         | OpenFOAM: The Open Source CFD Toolbox           |
|  \\    /   O peration     | Version:  4.x                                   |
|   \\  /    A nd           | Web:      www.OpenFOAM.org                      |
|    \\/     M anipulation  |                                                 |
\*---------------------------------------------------------------------------*/
FoamFile
{
    version     2.0;
    format      ascii;
    class       volScalarField;
    location    "11.5";
    object      Deff;
}
// * * * * * * * * * * * * * * * * * * * * * * * * * * * * * * * * * * * * * //

dimensions      [0 2 -1 0 0 0 0];

internalField   nonuniform List<scalar> 
114
(
9.9197e-08
9.91717e-08
9.92556e-08
9.9131e-08
9.92471e-08
9.91335e-08
9.941e-08
9.92856e-08
9.93066e-08
9.92638e-08
9.91203e-08
9.91559e-08
9.90219e-08
9.90156e-08
9.90562e-08
9.95143e-08
9.93658e-08
9.94363e-08
9.92856e-08
9.92951e-08
9.92349e-08
9.9289e-08
9.91382e-08
9.90389e-08
9.95729e-08
9.95183e-08
9.94881e-08
9.94039e-08
9.94491e-08
9.94228e-08
9.94484e-08
9.92811e-08
9.92526e-08
9.85853e-08
9.84896e-08
9.86742e-08
9.85201e-08
9.91128e-08
9.89702e-08
9.8849e-08
9.87677e-08
9.87046e-08
9.86739e-08
9.85044e-08
9.85823e-08
9.86491e-08
9.91464e-08
9.8933e-08
9.88385e-08
9.87839e-08
9.87697e-08
9.87417e-08
9.87017e-08
9.86667e-08
9.86352e-08
9.92308e-08
9.91422e-08
9.89871e-08
9.89608e-08
9.8919e-08
9.89203e-08
9.88819e-08
9.88243e-08
9.88306e-08
9.83121e-08
9.82711e-08
9.87896e-08
9.87694e-08
9.86301e-08
9.85093e-08
9.84659e-08
9.83485e-08
9.8233e-08
9.83115e-08
9.83483e-08
9.89136e-08
9.87567e-08
9.85803e-08
9.84263e-08
9.84607e-08
9.8433e-08
9.83259e-08
9.83316e-08
9.82584e-08
9.89898e-08
9.87754e-08
9.8701e-08
9.85946e-08
9.86669e-08
9.85407e-08
9.84215e-08
9.85178e-08
9.83356e-08
9.86549e-08
9.84358e-08
9.82966e-08
9.82691e-08
9.82306e-08
9.81723e-08
9.81197e-08
9.80982e-08
9.86509e-08
9.84987e-08
9.83307e-08
9.83173e-08
9.82401e-08
9.81911e-08
9.81088e-08
9.88069e-08
9.86045e-08
9.8494e-08
9.83733e-08
9.8383e-08
9.82955e-08
)
;

boundaryField
{
    inlet
    {
        type            calculated;
        value           uniform 0;
    }
    outlet
    {
        type            calculated;
        value           nonuniform 0();
    }
    wall
    {
        type            calculated;
        value           uniform 0;
    }
    procBoundary2to0
    {
        type            processor;
        value           uniform 0;
    }
    procBoundary2to3
    {
        type            processor;
        value           uniform 0;
    }
    procBoundary2to6
    {
        type            processor;
        value           uniform 0;
    }
}


// ************************************************************************* //
