/*--------------------------------*- C++ -*----------------------------------*\
| =========                 |                                                 |
| \\      /  F ield         | OpenFOAM: The Open Source CFD Toolbox           |
|  \\    /   O peration     | Version:  4.x                                   |
|   \\  /    A nd           | Web:      www.OpenFOAM.org                      |
|    \\/     M anipulation  |                                                 |
\*---------------------------------------------------------------------------*/
FoamFile
{
    version     2.0;
    format      ascii;
    class       volScalarField;
    location    "11.5";
    object      KslNext;
}
// * * * * * * * * * * * * * * * * * * * * * * * * * * * * * * * * * * * * * //

dimensions      [1 -3 -1 0 0 0 0];

internalField   nonuniform List<scalar> 
114
(
5700.64
3119.7
4965.41
2999.66
4999.36
3004.2
3435.51
7360.78
3299.24
5923.11
3157.36
5134.87
3020.84
5044.92
2987.99
3369.79
6982.54
3189.41
5403.94
3011.96
4555.93
2822.28
4234.76
2792.99
3321.28
6351.39
3068.48
4785.52
2824.72
3912.63
2568.53
3408.88
2430.44
13255.4
3910.38
18447.7
3803.71
3476.15
8937.06
3600.09
9878.41
3705.43
11705.6
3806.64
15632.8
3735.66
3433.02
8550.16
3537.38
8837.29
3571.51
9475.58
3650.88
11475.1
3649.46
3361.69
7148.49
3298.31
6117
3151.45
5443.25
3055.92
5074.93
2941.28
1.87003e+06
4013.38
3514.02
9976.39
3734.7
14122.7
3874.14
24088.9
3945.91
66122.1
3875.19
3449.79
9595.02
3668.69
12728.2
3794.36
18916.1
3900.83
39478.6
3876.53
3379.01
7810.3
3398.32
7343.4
3329.01
6960.85
3352.69
6845.05
3290.48
3530.62
10318.4
3768.47
14337.1
3823.04
19103.6
3791.35
22621.6
3474.67
9607.65
3695.94
12409.3
3771.37
16534.8
3775.32
3371.15
7621.77
3400.9
7243.33
3347.48
6877.75
)
;

boundaryField
{
    inlet
    {
        type            zeroGradient;
    }
    outlet
    {
        type            zeroGradient;
    }
    wall
    {
        type            zeroGradient;
    }
    procBoundary2to0
    {
        type            processor;
        value           uniform 0;
    }
    procBoundary2to3
    {
        type            processor;
        value           uniform 0;
    }
    procBoundary2to6
    {
        type            processor;
        value           uniform 0;
    }
}


// ************************************************************************* //
