/*--------------------------------*- C++ -*----------------------------------*\
| =========                 |                                                 |
| \\      /  F ield         | OpenFOAM: The Open Source CFD Toolbox           |
|  \\    /   O peration     | Version:  4.x                                   |
|   \\  /    A nd           | Web:      www.OpenFOAM.org                      |
|    \\/     M anipulation  |                                                 |
\*---------------------------------------------------------------------------*/
FoamFile
{
    version     2.0;
    format      ascii;
    class       volScalarField;
    location    "11.5";
    object      particleRelTemp;
}
// * * * * * * * * * * * * * * * * * * * * * * * * * * * * * * * * * * * * * //

dimensions      [0 0 0 0 0 0 0];

internalField   nonuniform List<scalar> 
114
(
-2.93508e-08
-2.13794e-08
-4.52234e-09
1.17324e-08
4.49755e-08
9.6568e-08
-5.39397e-08
-4.70927e-08
-3.8606e-08
-1.88784e-08
-4.26093e-09
9.43208e-09
6.79509e-08
1.39192e-07
2.73719e-07
-5.29048e-08
-4.47677e-08
-3.57551e-08
-2.52834e-08
-1.69572e-09
3.68473e-08
1.20282e-07
3.38108e-07
5.02547e-07
-5.01865e-08
-4.31145e-08
-3.76377e-08
-2.46417e-08
7.45412e-10
4.78516e-08
1.33696e-07
3.08837e-07
4.19262e-07
-1.54998e-08
9.83662e-10
2.51336e-08
3.93795e-08
-5.95142e-08
-4.8053e-08
-3.65809e-08
-1.61004e-08
-8.84107e-09
-1.32536e-08
4.07079e-08
8.7335e-08
1.39946e-07
-5.65418e-08
-4.70946e-08
-4.00401e-08
-2.40478e-08
-1.27101e-08
1.61966e-08
8.92179e-08
1.89312e-07
2.85614e-07
-5.50077e-08
-4.57614e-08
-4.30302e-08
-3.17701e-08
-1.13354e-08
2.56458e-08
9.63508e-08
2.14027e-07
3.17336e-07
7.88672e-10
1.39429e-08
-6.06957e-08
-5.10143e-08
-4.22436e-08
-2.26294e-08
-3.43833e-08
-2.71963e-08
7.97402e-09
4.5902e-08
7.10352e-08
-5.96002e-08
-5.21532e-08
-4.61552e-08
-3.72985e-08
-3.50137e-08
-1.63397e-08
2.69688e-08
1.12273e-07
1.50863e-07
-5.56512e-08
-5.22733e-08
-5.16921e-08
-4.41692e-08
-3.33348e-08
-3.38376e-09
5.48376e-08
1.68137e-07
2.21873e-07
-6.1256e-08
-5.84325e-08
-5.48141e-08
-5.43167e-08
-4.75717e-08
-3.29043e-08
-8.63114e-09
1.55589e-08
-6.4735e-08
-5.73398e-08
-5.86209e-08
-5.51996e-08
-4.62267e-08
-2.76828e-08
6.83373e-09
-6.11224e-08
-5.66035e-08
-5.89075e-08
-5.676e-08
-4.41633e-08
-2.10361e-08
)
;

boundaryField
{
    inlet
    {
        type            calculated;
        value           nonuniform List<scalar> 
12
(
-5.39397e-08
-5.29048e-08
-5.01865e-08
-5.95142e-08
-5.65418e-08
-5.50077e-08
-6.06957e-08
-5.96002e-08
-5.56512e-08
-6.1256e-08
-6.4735e-08
-6.11224e-08
)
;
    }
    outlet
    {
        type            calculated;
        value           nonuniform 0();
    }
    wall
    {
        type            calculated;
        value           nonuniform List<scalar> 
66
(
-5.39397e-08
-5.29048e-08
-5.01865e-08
-4.70927e-08
-4.47677e-08
-4.31145e-08
-3.8606e-08
-3.57551e-08
-3.76377e-08
-2.93508e-08
-1.88784e-08
-2.52834e-08
-2.46417e-08
-2.13794e-08
-4.26093e-09
-1.69572e-09
7.45412e-10
-4.52234e-09
9.43208e-09
3.68473e-08
4.78516e-08
1.17324e-08
6.79509e-08
1.20282e-07
1.33696e-07
4.49755e-08
1.39192e-07
3.38108e-07
3.08837e-07
9.6568e-08
2.73719e-07
5.02547e-07
4.19262e-07
-5.01865e-08
-5.50077e-08
-5.56512e-08
-6.11224e-08
-4.31145e-08
-4.57614e-08
-5.22733e-08
-5.66035e-08
-3.76377e-08
-4.30302e-08
-5.16921e-08
-5.89075e-08
-2.46417e-08
-3.17701e-08
-4.41692e-08
-5.676e-08
7.45412e-10
-1.13354e-08
-3.33348e-08
-4.41633e-08
4.78516e-08
2.56458e-08
-3.38376e-09
-2.10361e-08
1.33696e-07
9.63508e-08
5.48376e-08
3.08837e-07
2.14027e-07
1.68137e-07
4.19262e-07
3.17336e-07
2.21873e-07
)
;
    }
    procBoundary2to0
    {
        type            processor;
        value           nonuniform List<scalar> 
44
(
-4.10215e-08
-3.26872e-08
-2.14245e-08
-1.7975e-08
-3.0962e-09
-4.45289e-09
-5.76568e-08
-5.11162e-08
-4.63084e-08
-4.63084e-08
-2.42573e-08
-2.16472e-08
-2.46363e-08
-1.24021e-08
-9.53271e-09
-1.35216e-09
-5.94803e-08
-5.02279e-08
-4.0935e-08
-2.42573e-08
-2.16472e-08
-2.16472e-08
-2.45341e-08
-4.54853e-09
-2.19861e-08
-9.86055e-09
-6.13081e-08
-5.22364e-08
-4.37626e-08
-3.13014e-08
-2.98872e-08
-2.45341e-08
-4.54853e-09
-4.54853e-09
-6.29345e-09
1.27444e-08
-6.38278e-08
-5.60919e-08
-5.56216e-08
-4.74835e-08
-3.5805e-08
-2.22034e-08
-1.24375e-08
-6.29345e-09
)
;
    }
    procBoundary2to3
    {
        type            processor;
        value           nonuniform List<scalar> 
12
(
5.19318e-08
1.85799e-07
3.05851e-07
2.88444e-07
4.59743e-08
1.13719e-07
2.35967e-07
2.22858e-07
3.10098e-08
6.03771e-08
9.571e-08
1.24986e-07
)
;
    }
    procBoundary2to6
    {
        type            processor;
        value           nonuniform List<scalar> 
32
(
3.1419e-08
4.87878e-08
7.315e-08
2.30915e-08
1.02387e-07
1.22016e-07
-6.58404e-08
-6.15748e-08
-6.37562e-08
-6.19672e-08
-5.02857e-08
-3.36837e-08
-2.16298e-08
3.1419e-08
4.87878e-08
-2.77195e-09
-6.40653e-08
-6.23148e-08
-6.49227e-08
-6.2307e-08
-5.23609e-08
-3.49377e-08
4.87878e-08
2.30915e-08
-1.40629e-08
-6.30314e-08
-6.18385e-08
-6.41391e-08
-5.93827e-08
-4.96484e-08
2.30915e-08
-3.20382e-08
)
;
    }
}


// ************************************************************************* //
