/*--------------------------------*- C++ -*----------------------------------*\
| =========                 |                                                 |
| \\      /  F ield         | OpenFOAM: The Open Source CFD Toolbox           |
|  \\    /   O peration     | Version:  4.x                                   |
|   \\  /    A nd           | Web:      www.OpenFOAM.org                      |
|    \\/     M anipulation  |                                                 |
\*---------------------------------------------------------------------------*/
FoamFile
{
    version     2.0;
    format      ascii;
    class       volScalarField;
    location    "11.5";
    object      QPartFluid;
}
// * * * * * * * * * * * * * * * * * * * * * * * * * * * * * * * * * * * * * //

dimensions      [1 -1 -3 0 0 0 0];

internalField   nonuniform List<scalar> 
114
(
7.22231e+09
5.61003e+09
3.08873e+09
5.97303e+09
2.79227e+09
2.97251e+09
5.78476e+09
6.95448e+09
6.13425e+09
4.48671e+09
7.42636e+09
5.11154e+09
7.51263e+09
6.89057e+09
4.47552e+09
3.85881e+09
6.18929e+09
3.47265e+09
5.81212e+09
5.13804e+09
6.14541e+09
3.48724e+09
6.00762e+09
6.60075e+09
3.95192e+09
4.00557e+09
4.44366e+09
4.62159e+09
3.9939e+09
4.24808e+09
3.10757e+09
5.11447e+09
4.06097e+09
9.78914e+09
1.20404e+10
6.4595e+09
1.11551e+10
4.71261e+09
7.95782e+09
9.59152e+09
9.15922e+09
9.01172e+09
7.11696e+09
1.11354e+10
8.71418e+09
6.36329e+09
5.83719e+09
1.00279e+10
1.06404e+10
9.25401e+09
9.35974e+09
9.01583e+09
9.16377e+09
8.47696e+09
8.09959e+09
5.03755e+09
5.39853e+09
8.33425e+09
6.05692e+09
7.60369e+09
6.62539e+09
6.75433e+09
7.18024e+09
4.81455e+09
7.64433e+09
8.90052e+09
6.83137e+09
5.73782e+09
6.71315e+09
6.85005e+09
6.69481e+09
7.6253e+09
9.67471e+09
7.10715e+09
5.67034e+09
4.9692e+09
6.94524e+09
9.03094e+09
1.04268e+10
9.08724e+09
6.9048e+09
9.32378e+09
8.34263e+09
1.01273e+10
4.97815e+09
7.5928e+09
6.93487e+09
7.47751e+09
4.75e+09
6.79265e+09
9.58819e+09
5.33819e+09
9.74878e+09
4.87455e+09
9.48223e+09
1.02419e+10
7.17855e+09
7.76367e+09
6.70644e+09
7.52844e+09
7.80828e+09
5.85047e+09
7.88327e+09
1.0438e+10
6.5347e+09
8.99438e+09
7.49706e+09
1.01364e+10
4.23836e+09
6.30034e+09
7.4535e+09
7.21904e+09
6.67904e+09
6.44289e+09
)
;

boundaryField
{
    inlet
    {
        type            calculated;
        value           uniform 0;
    }
    outlet
    {
        type            calculated;
        value           nonuniform 0();
    }
    wall
    {
        type            calculated;
        value           uniform 0;
    }
    procBoundary2to0
    {
        type            processor;
        value           nonuniform List<scalar> 
44
(
5.16251e+09
5.61972e+09
5.01024e+09
4.01497e+09
4.80511e+09
8.83678e+09
2.95545e+09
4.53988e+09
3.50555e+09
3.50555e+09
5.31894e+09
1.14467e+10
7.68274e+09
1.04398e+10
6.86372e+09
6.21955e+09
7.92746e+09
7.04547e+09
7.75623e+09
5.31894e+09
1.14467e+10
1.14467e+10
7.8597e+09
8.52335e+09
6.18506e+09
5.29279e+09
6.87128e+09
8.62631e+09
9.47079e+09
8.64117e+09
9.98668e+09
7.8597e+09
8.52335e+09
8.52335e+09
5.63881e+09
2.60779e+09
4.80888e+09
6.72671e+09
9.5996e+09
1.03529e+10
5.38804e+09
9.88947e+09
8.48832e+09
5.63881e+09
)
;
    }
    procBoundary2to3
    {
        type            processor;
        value           nonuniform List<scalar> 
12
(
8.08448e+09
6.0129e+09
6.69005e+09
4.47796e+09
8.29541e+09
7.42481e+09
1.26938e+10
8.52477e+09
8.09186e+09
9.51237e+09
6.72104e+09
6.06374e+09
)
;
    }
    procBoundary2to6
    {
        type            processor;
        value           nonuniform List<scalar> 
32
(
8.08917e+09
6.56658e+09
8.8267e+09
5.62781e+09
6.16564e+09
5.56935e+09
9.91843e+09
8.93777e+09
6.04935e+09
8.01373e+09
1.10076e+10
6.16815e+09
8.65851e+09
8.08917e+09
6.56658e+09
6.65732e+09
6.27357e+09
9.18912e+09
8.10912e+09
9.78059e+09
9.11257e+09
8.63277e+09
6.56658e+09
5.62781e+09
8.63571e+09
4.65401e+09
7.57112e+09
5.91715e+09
6.12501e+09
8.63802e+09
5.62781e+09
9.41822e+09
)
;
    }
}


// ************************************************************************* //
