/*--------------------------------*- C++ -*----------------------------------*\
| =========                 |                                                 |
| \\      /  F ield         | OpenFOAM: The Open Source CFD Toolbox           |
|  \\    /   O peration     | Version:  4.x                                   |
|   \\  /    A nd           | Web:      www.OpenFOAM.org                      |
|    \\/     M anipulation  |                                                 |
\*---------------------------------------------------------------------------*/
FoamFile
{
    version     2.0;
    format      ascii;
    class       volScalarField;
    location    "11.5";
    object      Qsource;
}
// * * * * * * * * * * * * * * * * * * * * * * * * * * * * * * * * * * * * * //

dimensions      [1 -1 -3 0 0 0 0];

internalField   nonuniform List<scalar> 
114
(
7.79435e+09
6.54637e+09
3.73539e+09
6.94432e+09
3.43343e+09
3.93218e+09
6.62124e+09
7.41163e+09
7.01722e+09
5.04272e+09
8.35426e+09
5.73946e+09
8.47639e+09
7.52577e+09
5.4409e+09
4.70395e+09
6.66413e+09
4.37683e+09
6.40731e+09
6.102e+09
6.836e+09
4.5041e+09
6.74354e+09
7.62879e+09
5.64298e+09
5.0184e+09
6.2881e+09
5.91821e+09
5.99764e+09
5.7947e+09
5.28192e+09
6.85163e+09
6.35209e+09
9.78914e+09
1.20404e+10
6.4595e+09
1.11551e+10
4.71261e+09
7.95782e+09
9.59152e+09
9.15922e+09
9.01172e+09
7.11696e+09
1.11354e+10
8.71418e+09
6.36329e+09
5.83719e+09
1.00279e+10
1.06404e+10
9.25401e+09
9.35974e+09
9.01583e+09
9.16377e+09
8.47696e+09
8.09959e+09
5.8709e+09
5.85904e+09
9.20523e+09
6.58747e+09
8.51126e+09
7.21383e+09
7.69208e+09
7.80382e+09
5.78201e+09
7.64433e+09
8.90052e+09
6.83137e+09
5.73782e+09
6.71315e+09
6.85005e+09
6.69481e+09
7.6253e+09
9.67471e+09
7.10715e+09
5.67034e+09
4.9692e+09
6.94524e+09
9.03094e+09
1.04268e+10
9.08724e+09
6.9048e+09
9.32378e+09
8.34263e+09
1.01273e+10
5.8043e+09
8.01752e+09
7.77465e+09
7.92995e+09
5.60468e+09
7.26583e+09
1.04423e+10
5.819e+09
1.06137e+10
4.87455e+09
9.48223e+09
1.02419e+10
7.17855e+09
7.76367e+09
6.70644e+09
7.52844e+09
7.80828e+09
5.85047e+09
7.88327e+09
1.0438e+10
6.5347e+09
8.99438e+09
7.49706e+09
1.01364e+10
5.05707e+09
6.72893e+09
8.28427e+09
7.67004e+09
7.52225e+09
6.91241e+09
)
;

boundaryField
{
    inlet
    {
        type            calculated;
        value           uniform 0;
    }
    outlet
    {
        type            calculated;
        value           nonuniform 0();
    }
    wall
    {
        type            calculated;
        value           uniform 0;
    }
    procBoundary2to0
    {
        type            processor;
        value           nonuniform List<scalar> 
44
(
5.73801e+09
6.56889e+09
5.66096e+09
5.0011e+09
5.4483e+09
9.79894e+09
2.95545e+09
5.00907e+09
4.40268e+09
4.40268e+09
5.31894e+09
1.14467e+10
7.68274e+09
1.04398e+10
6.86372e+09
6.21955e+09
7.92746e+09
7.04547e+09
7.75623e+09
5.31894e+09
1.14467e+10
1.14467e+10
7.8597e+09
8.52335e+09
6.18506e+09
5.29279e+09
6.87128e+09
8.62631e+09
9.47079e+09
8.64117e+09
9.98668e+09
7.8597e+09
8.52335e+09
8.52335e+09
5.63881e+09
2.60779e+09
4.80888e+09
6.72671e+09
9.5996e+09
1.03529e+10
5.38804e+09
9.88947e+09
8.48832e+09
5.63881e+09
)
;
    }
    procBoundary2to3
    {
        type            processor;
        value           nonuniform List<scalar> 
12
(
8.62132e+09
6.56851e+09
7.37745e+09
6.29732e+09
8.29541e+09
7.42481e+09
1.26938e+10
9.17433e+09
8.09186e+09
9.51237e+09
6.72104e+09
6.57918e+09
)
;
    }
    procBoundary2to6
    {
        type            processor;
        value           nonuniform List<scalar> 
32
(
8.08917e+09
6.56658e+09
8.8267e+09
6.48449e+09
6.65788e+09
6.44764e+09
9.91843e+09
8.93777e+09
6.04935e+09
8.01373e+09
1.10076e+10
6.16815e+09
8.65851e+09
8.08917e+09
6.56658e+09
6.65732e+09
6.27357e+09
9.18912e+09
8.10912e+09
9.78059e+09
9.11257e+09
8.63277e+09
6.56658e+09
6.48449e+09
8.63571e+09
5.47242e+09
7.98744e+09
6.7379e+09
6.55232e+09
9.45579e+09
6.48449e+09
9.83777e+09
)
;
    }
}


// ************************************************************************* //
