/*--------------------------------*- C++ -*----------------------------------*\
| =========                 |                                                 |
| \\      /  F ield         | OpenFOAM: The Open Source CFD Toolbox           |
|  \\    /   O peration     | Version:  4.x                                   |
|   \\  /    A nd           | Web:      www.OpenFOAM.org                      |
|    \\/     M anipulation  |                                                 |
\*---------------------------------------------------------------------------*/
FoamFile
{
    version     2.0;
    format      ascii;
    class       volScalarField;
    location    "11.5";
    object      Sm;
}
// * * * * * * * * * * * * * * * * * * * * * * * * * * * * * * * * * * * * * //

dimensions      [1 -3 -1 0 0 0 0];

internalField   nonuniform List<scalar> 
114
(
6.50983e-65
4.88232e-65
2.55739e-65
4.88219e-65
2.24732e-65
2.63476e-65
5.73493e-65
6.50992e-65
5.11491e-65
3.79735e-65
6.19969e-65
4.41729e-65
6.19933e-65
6.1215e-65
3.95145e-65
4.02993e-65
5.65742e-65
2.78994e-65
5.26985e-65
3.87478e-65
5.19212e-65
2.78962e-65
4.7259e-65
5.26681e-65
4.41743e-65
4.26243e-65
3.87492e-65
4.57237e-65
3.33235e-65
3.79715e-65
2.71212e-65
4.49382e-65
3.0988e-65
8.44719e-65
9.76446e-65
5.73466e-65
9.37676e-65
5.42493e-65
6.81991e-65
7.67232e-65
7.7496e-65
7.05211e-65
6.27734e-65
8.98927e-65
7.59426e-65
5.19147e-65
6.04492e-65
8.60239e-65
8.29237e-65
7.59478e-65
7.36219e-65
7.36207e-65
7.05168e-65
7.12842e-65
6.27524e-65
5.88992e-65
5.19242e-65
6.97489e-65
5.81235e-65
6.89724e-65
5.8896e-65
5.88934e-65
6.50864e-65
4.26111e-65
7.59465e-65
7.98202e-65
7.28494e-65
4.95994e-65
5.50237e-65
6.12216e-65
5.57993e-65
7.12988e-65
8.36957e-65
6.58703e-65
4.88202e-65
5.34744e-65
6.04494e-65
7.12992e-65
9.06731e-65
7.28485e-65
6.43226e-65
7.51698e-65
7.43892e-65
8.36842e-65
5.34744e-65
7.51743e-65
6.04494e-65
6.9749e-65
4.6499e-65
6.5097e-65
8.29179e-65
4.95913e-65
8.9096e-65
4.80497e-65
8.13747e-65
8.36995e-65
6.50996e-65
6.43243e-65
6.27735e-65
6.27727e-65
7.74952e-65
6.89745e-65
6.89747e-65
8.36998e-65
5.81248e-65
7.20742e-65
6.89732e-65
8.36958e-65
5.26995e-65
6.50996e-65
6.27748e-65
7.12997e-65
5.50242e-65
6.35481e-65
)
;

boundaryField
{
    inlet
    {
        type            calculated;
        value           uniform 0;
    }
    outlet
    {
        type            calculated;
        value           nonuniform 0();
    }
    wall
    {
        type            calculated;
        value           uniform 0;
    }
    procBoundary2to0
    {
        type            processor;
        value           nonuniform List<scalar> 
44
(
4.72742e-65
4.2624e-65
4.33986e-65
3.25489e-65
4.18482e-65
7.20722e-65
2.86747e-65
4.41746e-65
3.25496e-65
3.25496e-65
4.57232e-65
9.14471e-65
6.5873e-65
8.29217e-65
6.04474e-65
4.9598e-65
8.05994e-65
6.12244e-65
6.12241e-65
4.57232e-65
9.14471e-65
9.14471e-65
7.12979e-65
7.12964e-65
6.19983e-65
4.5723e-65
7.28494e-65
7.59494e-65
7.67238e-65
7.98226e-65
8.36981e-65
7.12979e-65
7.12964e-65
7.12964e-65
5.42474e-65
2.32488e-65
5.26997e-65
5.88997e-65
7.82745e-65
9.22239e-65
4.4174e-65
9.22217e-65
7.12973e-65
5.42474e-65
)
;
    }
    procBoundary2to3
    {
        type            processor;
        value           nonuniform List<scalar> 
12
(
6.97445e-65
5.0366e-65
5.5007e-65
4.64883e-65
7.51675e-65
6.50917e-65
1.03824e-64
7.74844e-65
7.67191e-65
8.98919e-65
5.65674e-65
5.73418e-65
)
;
    }
    procBoundary2to6
    {
        type            processor;
        value           nonuniform List<scalar> 
32
(
6.74202e-65
6.04443e-65
7.12923e-65
5.11467e-65
5.81176e-65
4.95922e-65
1.0385e-64
7.59499e-65
4.96e-65
7.44e-65
9.37744e-65
6.12234e-65
7.36228e-65
6.74202e-65
6.04443e-65
6.50967e-65
5.81249e-65
7.905e-65
6.43251e-65
8.525e-65
7.36244e-65
7.8273e-65
6.04443e-65
5.11467e-65
7.05224e-65
4.95998e-65
7.2075e-65
5.42501e-65
6.12249e-65
7.59493e-65
5.11467e-65
8.75726e-65
)
;
    }
}


// ************************************************************************* //
