/*--------------------------------*- C++ -*----------------------------------*\
| =========                 |                                                 |
| \\      /  F ield         | OpenFOAM: The Open Source CFD Toolbox           |
|  \\    /   O peration     | Version:  4.x                                   |
|   \\  /    A nd           | Web:      www.OpenFOAM.org                      |
|    \\/     M anipulation  |                                                 |
\*---------------------------------------------------------------------------*/
FoamFile
{
    version     2.0;
    format      ascii;
    class       volScalarField;
    location    "11.5";
    object      thCond;
}
// * * * * * * * * * * * * * * * * * * * * * * * * * * * * * * * * * * * * * //

dimensions      [1 1 -3 -1 0 0 0];

internalField   nonuniform List<scalar> 
114
(
192.559
192.51
192.673
192.431
192.656
192.436
192.972
192.731
192.772
192.689
192.41
192.479
192.219
192.207
192.286
193.175
192.887
193.023
192.731
192.749
192.632
192.738
192.445
192.252
193.289
193.183
193.124
192.96
193.048
192.997
193.047
192.722
192.667
191.371
191.186
191.544
191.245
192.395
192.119
191.883
191.726
191.603
191.544
191.214
191.366
191.495
192.461
192.046
191.863
191.757
191.729
191.675
191.597
191.53
191.468
192.625
192.453
192.151
192.1
192.019
192.022
191.947
191.835
191.848
190.841
190.762
191.768
191.729
191.459
191.224
191.14
190.912
190.688
190.84
190.911
192.009
191.704
191.362
191.063
191.129
191.076
190.868
190.879
190.737
192.157
191.741
191.596
191.39
191.53
191.285
191.054
191.24
190.887
191.507
191.081
190.811
190.758
190.683
190.57
190.468
190.426
191.499
191.203
190.877
190.851
190.701
190.606
190.446
191.802
191.409
191.194
190.96
190.979
190.809
)
;

boundaryField
{
    inlet
    {
        type            zeroGradient;
    }
    outlet
    {
        type            zeroGradient;
    }
    wall
    {
        type            zeroGradient;
    }
    procBoundary2to0
    {
        type            processor;
        value           nonuniform List<scalar> 
44
(
192.809
192.759
192.695
192.711
192.627
192.269
193.397
193.074
192.995
192.995
191.95
191.44
191.664
191.501
191.716
191.695
192.265
192.223
192.088
191.95
191.44
191.44
190.811
190.756
191.077
191.141
191.717
191.561
191.302
191.051
190.871
190.811
190.756
190.756
190.659
190.767
191.651
191.32
190.843
190.582
190.745
190.337
190.413
190.659
)
;
    }
    procBoundary2to3
    {
        type            processor;
        value           nonuniform List<scalar> 
12
(
191.872
191.878
191.903
192.248
191.085
191.137
190.942
191.367
190.434
190.44
190.752
191.034
)
;
    }
    procBoundary2to6
    {
        type            processor;
        value           nonuniform List<scalar> 
32
(
190.433
190.572
190.477
190.86
190.847
190.813
190.764
190.796
190.804
190.431
190.16
190.297
190.146
190.433
190.572
190.193
191.273
190.908
190.804
190.434
190.327
190.243
190.572
190.86
190.229
191.63
191.159
191.072
190.726
190.433
190.86
190.256
)
;
    }
}


// ************************************************************************* //
