/*--------------------------------*- C++ -*----------------------------------*\
| =========                 |                                                 |
| \\      /  F ield         | OpenFOAM: The Open Source CFD Toolbox           |
|  \\    /   O peration     | Version:  4.x                                   |
|   \\  /    A nd           | Web:      www.OpenFOAM.org                      |
|    \\/     M anipulation  |                                                 |
\*---------------------------------------------------------------------------*/
FoamFile
{
    version     2.0;
    format      ascii;
    class       volScalarField;
    location    "35";
    object      p_rgh;
}
// * * * * * * * * * * * * * * * * * * * * * * * * * * * * * * * * * * * * * //

dimensions      [1 -1 -2 0 0 0 0];

internalField   nonuniform List<scalar> 
132
(
22.1803
75.0315
3.96415
68.4824
-14.2879
62.6544
-32.6607
56.6695
-49.1649
21.3794
74.9147
2.91369
68.0613
-15.2055
61.4815
-33.0365
55.1265
-48.978
19.7962
74.9233
0.463816
68.3861
-19.2179
62.6518
-39.919
59.0157
-61.3705
20.0305
74.9423
0.739347
68.604
-19.0417
63.037
-39.9103
59.2543
-61.2728
3.90954
68.4144
-14.4332
62.6235
-32.6101
56.3468
-49.4237
22.2183
74.9881
4.0514
68.6042
-14.2121
62.779
-32.5232
57.0617
-50.4156
20.8976
74.9246
2.47829
68.4402
-15.4978
62.5362
-32.9
56.1862
-47.7991
20.7115
75.1884
1.98151
68.901
-16.9008
63.04
-35.7776
57.8638
-54.4285
-17.1364
61.9083
-36.1953
56.5797
-53.9189
21.3877
74.991
3.02153
68.3048
-15.0988
61.5926
-32.6871
54.4314
-48.647
20.8238
74.9817
1.86028
68.3417
-17.7588
62.4461
-38.3663
58.2747
-62.5729
20.8889
75.0016
2.14891
68.5982
-17.0032
62.8133
-36.5835
58.2638
-70.6801
-39.1428
58.7416
-65.0439
21.2519
75.2075
2.55485
68.6313
-16.617
62.3966
-35.9048
56.8861
-57.599
20.926
75.0509
2.33713
68.7078
-16.7955
62.8315
-36.5243
58.1764
-61.7437
21.0875
75.0793
2.47953
68.7766
-16.3116
62.7568
-34.8156
57.3042
-54.42
)
;

boundaryField
{
    inlet
    {
        type            fixedFluxPressure;
        gradient        nonuniform 0();
        value           nonuniform 0();
    }
    outlet
    {
        type            fixedValue;
        value           uniform 0;
    }
    wall
    {
        type            fixedFluxPressure;
        gradient        nonuniform List<scalar> 
66
(
2.31576e-05
8.68694e-06
3.81998e-06
1.11499e-05
2.94378e-06
2.18449e-06
2.96031e-05
1.10752e-05
7.82746e-07
3.09201e-06
1.18064e-06
-1.66236e-07
-2.05689e-05
-1.13216e-05
-4.04418e-06
-9.86276e-06
-6.17161e-06
-6.61878e-06
-3.82855e-05
-4.40058e-05
-1.42557e-05
-6.39064e-06
-1.6334e-05
-1.65065e-05
-6.76636e-06
-4.60667e-06
-3.13462e-05
-7.5797e-05
-2.60089e-05
-5.24397e-06
-4.65304e-05
-3.09675e-05
-1.13696e-05
-8.41168e-06
-8.45438e-06
-1.20335e-05
-7.48049e-06
-5.73963e-06
-2.67574e-05
-5.24321e-05
-1.2388e-05
-8.0151e-06
-9.41952e-06
-4.95903e-06
-4.42956e-06
-2.22898e-06
-2.20434e-05
-2.41889e-05
-1.04891e-05
-0.000190694
-6.30656e-06
-1.19163e-05
-5.48056e-06
-3.02345e-06
-1.37356e-05
-5.0266e-05
-1.74452e-05
-5.29665e-06
5.53521e-06
4.57205e-06
1.52519e-06
-3.30866e-07
8.04035e-06
6.58443e-05
1.24446e-05
2.13034e-05
)
;
        value           nonuniform List<scalar> 
66
(
21.2519
20.926
21.0875
75.2075
75.0509
75.0793
2.55485
2.33713
2.47953
68.6313
68.7078
68.7766
-16.617
-16.7955
-16.3116
62.3966
62.8315
62.7568
-39.1428
-35.9048
-36.5243
-34.8156
58.7416
56.8861
58.1764
57.3042
-65.0439
-57.599
-61.7437
-54.42
20.0305
20.7115
20.8889
21.0875
74.9423
75.1884
75.0016
75.0793
0.739347
1.98151
2.1489
2.47953
68.604
68.901
68.5982
68.7766
-19.0417
-16.9008
-17.0032
-16.3116
63.037
63.04
62.8133
62.7568
-39.9103
-35.7776
-36.5835
-34.8156
59.2543
57.8638
58.2638
57.3042
-61.2728
-54.4285
-70.6801
-54.42
)
;
    }
    procBoundary7to0
    {
        type            processor;
        value           uniform 81.9347;
    }
    procBoundary7to1
    {
        type            processor;
        value           uniform 22.3141;
    }
    procBoundary7to3
    {
        type            processor;
        value           nonuniform List<scalar> 
36
(
19.6485
74.9095
0.826619
68.5662
-17.792
63.2977
-35.8865
58.4686
-51.6424
20.2463
74.9541
1.55588
68.7404
-16.7787
63.555
-35.2946
58.875
-52.2743
19.4912
75.0255
0.188296
68.4198
-19.1407
62.6956
-38.7415
58.3537
-55.4784
19.5106
74.9482
0.226335
68.8919
-20.0229
63.7482
-42.13
60.8479
-67.066
)
;
    }
    procBoundary7to5
    {
        type            processor;
        value           nonuniform List<scalar> 
44
(
75.1867
4.68252
68.6182
-12.7128
62.0888
-29.2995
54.0728
-44.8385
21.9234
74.8997
2.56549
68.5998
-16.2511
62.8439
-35.0845
57.9397
-52.984
21.9234
74.8997
74.8997
1.97
68.1284
-16.049
61.6006
-33.9854
54.6367
-49.9678
20.8665
74.9921
1.97
68.1284
68.1284
-18.1146
62.7603
-39.6712
58.9479
-66.1597
20.6953
74.9856
1.67753
68.5657
-18.1146
62.7603
62.7603
)
;
    }
    procBoundary7to6
    {
        type            processor;
        value           nonuniform List<scalar> 
12
(
82.1223
81.8616
81.768
81.8976
82.1001
81.9438
82.3115
82.016
81.8646
82.0602
81.8612
81.8146
)
;
    }
}


// ************************************************************************* //
