/*--------------------------------*- C++ -*----------------------------------*\
| =========                 |                                                 |
| \\      /  F ield         | OpenFOAM: The Open Source CFD Toolbox           |
|  \\    /   O peration     | Version:  4.x                                   |
|   \\  /    A nd           | Web:      www.OpenFOAM.org                      |
|    \\/     M anipulation  |                                                 |
\*---------------------------------------------------------------------------*/
FoamFile
{
    version     2.0;
    format      ascii;
    class       volScalarField;
    location    "53.5";
    object      KslNext;
}
// * * * * * * * * * * * * * * * * * * * * * * * * * * * * * * * * * * * * * //

dimensions      [1 -3 -1 0 0 0 0];

internalField   nonuniform List<scalar> 
132
(
3317.67
6832.99
3087.77
5255.51
2905.3
4529.1
2790.67
4087.24
2618.47
3336.87
7298.98
3195.72
5887.2
3048.64
5161.47
2929.53
4693.81
2818.48
3347.15
7668.4
3259
6392.38
3187.04
5729.78
3077.07
5385.08
3039.26
3366.07
7556.11
3228.36
3368.62
7932.26
3297.67
7030.85
3260.85
6497.92
3217.62
6157.67
3118.18
3400.29
9079.22
3469.12
9105.84
3535.54
9613.83
3535.36
10379.3
3486.97
3436.12
10097.2
3558.03
11451.9
3673.57
14283.6
3743.91
21041.7
3713.83
3486.56
9704.3
3572.97
10706.6
3664.17
3401.08
8106.7
3378.98
7405.58
3325.71
6885.24
3252.16
6520.06
3122.63
3457.27
9437.54
3552.19
10086.1
3609.1
10976.9
3598.66
11986.2
3484.35
3499.46
10756
3690.33
14993.6
3824.63
22115.7
3843.34
31272
3767.1
3532.05
11093.3
3732.88
15596.8
3801.92
20742.6
3767.23
3385.7
8178
3392.01
7684.9
3369.61
7554.32
3357.85
7736.77
3327.69
3457.69
10201.5
3627.63
12764.4
3703.25
16822.8
3759.84
26700.7
3731.66
3512.51
11731.9
3782.91
22151.4
3934.82
82411.1
4039.75
1e+10
4107.15
3505.58
10984.7
3745.72
16449.5
3781.6
23339.8
3767.8
31591.4
3718.46
)
;

boundaryField
{
    inlet
    {
        type            zeroGradient;
    }
    outlet
    {
        type            zeroGradient;
    }
    wall
    {
        type            zeroGradient;
    }
    procBoundary0to1
    {
        type            processor;
        value           uniform 0;
    }
    procBoundary0to2
    {
        type            processor;
        value           uniform 0;
    }
    procBoundary0to4
    {
        type            processor;
        value           uniform 0;
    }
    procBoundary0to6
    {
        type            processor;
        value           uniform 0;
    }
    procBoundary0to7
    {
        type            processor;
        value           uniform 0;
    }
}


// ************************************************************************* //
