/*--------------------------------*- C++ -*----------------------------------*\
| =========                 |                                                 |
| \\      /  F ield         | OpenFOAM: The Open Source CFD Toolbox           |
|  \\    /   O peration     | Version:  4.x                                   |
|   \\  /    A nd           | Web:      www.OpenFOAM.org                      |
|    \\/     M anipulation  |                                                 |
\*---------------------------------------------------------------------------*/
FoamFile
{
    version     2.0;
    format      ascii;
    class       volScalarField;
    location    "53.5";
    object      QPartFluid;
}
// * * * * * * * * * * * * * * * * * * * * * * * * * * * * * * * * * * * * * //

dimensions      [1 -1 -3 0 0 0 0];

internalField   nonuniform List<scalar> 
132
(
5.18415e+09
4.25723e+09
3.70011e+09
2.9645e+09
4.31972e+09
4.48831e+09
5.88006e+09
3.93885e+09
2.01749e+09
4.64963e+09
5.10189e+09
5.52571e+09
5.59649e+09
3.84056e+09
6.7168e+09
5.31362e+09
5.7909e+09
5.24396e+09
3.11692e+09
5.87423e+09
5.74721e+09
5.06423e+09
5.56522e+09
4.89018e+09
3.98104e+09
5.17245e+09
8.50707e+09
2.97851e+09
4.53323e+09
3.50893e+09
4.26784e+09
6.97445e+09
8.63772e+09
7.57141e+09
7.74648e+09
7.59995e+09
7.1206e+09
6.77131e+09
7.25921e+09
4.98219e+09
9.45805e+09
8.01663e+09
8.49948e+09
9.60438e+09
8.61415e+09
9.20059e+09
9.19229e+09
8.968e+09
5.30177e+09
9.44835e+09
8.40858e+09
7.53144e+09
9.0728e+09
6.73999e+09
1.05157e+10
6.89169e+09
6.34539e+09
7.96331e+09
7.03758e+09
7.79551e+09
5.51097e+09
1.1316e+10
5.58586e+09
6.97049e+09
8.13859e+09
6.96911e+09
7.49145e+09
5.67224e+09
8.05705e+09
7.06551e+09
5.4165e+09
6.24741e+09
8.28122e+09
7.98821e+09
6.92306e+09
9.27841e+09
6.71889e+09
9.45234e+09
1.01833e+10
1.01382e+10
6.70882e+09
7.20501e+09
8.09157e+09
9.29831e+09
9.83113e+09
8.0694e+09
9.19886e+09
6.41815e+09
5.39097e+09
6.90504e+09
8.66977e+09
9.57372e+09
8.9987e+09
9.9743e+09
8.04102e+09
8.77761e+09
4.35434e+09
4.9879e+09
6.76902e+09
5.18528e+09
7.0843e+09
7.77065e+09
5.90164e+09
4.32729e+09
6.03802e+09
5.13646e+09
9.5951e+09
9.09152e+09
8.08411e+09
7.19761e+09
6.62195e+09
1.04272e+10
7.17918e+09
6.92797e+09
5.18856e+09
5.58347e+09
9.0527e+09
6.09888e+09
8.69404e+09
8.39869e+09
8.24375e+09
4.94531e+09
9.33321e+09
4.82823e+09
6.7374e+09
9.83989e+09
1.02481e+10
5.52229e+09
9.8649e+09
8.58375e+09
5.60361e+09
2.62469e+09
)
;

boundaryField
{
    inlet
    {
        type            calculated;
        value           uniform 0;
    }
    outlet
    {
        type            calculated;
        value           nonuniform 0();
    }
    wall
    {
        type            calculated;
        value           uniform 0;
    }
    procBoundary0to1
    {
        type            processor;
        value           nonuniform List<scalar> 
12
(
4.29712e+09
4.53422e+09
3.94943e+09
7.42601e+09
9.01747e+09
7.91401e+09
7.11715e+09
6.47894e+09
9.42804e+09
6.46594e+09
7.86079e+09
5.90225e+09
)
;
    }
    procBoundary0to2
    {
        type            processor;
        value           nonuniform List<scalar> 
44
(
7.13643e+09
5.59374e+09
3.05357e+09
5.97226e+09
3.63768e+09
4.59976e+09
5.81645e+09
6.93178e+09
7.13643e+09
6.13349e+09
7.13643e+09
5.59374e+09
9.84814e+09
1.23013e+10
6.61345e+09
1.12267e+10
4.73255e+09
7.93591e+09
9.59152e+09
9.1709e+09
9.84814e+09
8.8789e+09
9.84814e+09
1.23013e+10
8.07305e+09
9.30132e+09
6.8606e+09
5.73198e+09
6.74258e+09
6.84447e+09
6.74705e+09
7.64105e+09
8.07305e+09
9.80379e+09
8.07305e+09
9.30132e+09
4.89808e+09
9.48634e+09
1.03007e+10
7.15528e+09
8.23867e+09
6.27688e+09
7.58737e+09
7.51257e+09
)
;
    }
    procBoundary0to4
    {
        type            processor;
        value           nonuniform List<scalar> 
36
(
4.92447e+09
7.10873e+09
8.42688e+09
5.98056e+09
7.15796e+09
5.99406e+09
8.94468e+09
6.87602e+09
9.65295e+09
7.01787e+09
7.29861e+09
9.38912e+09
1.00427e+10
1.01158e+10
8.59533e+09
8.14502e+09
5.78239e+09
1.11141e+10
6.68876e+09
1.02797e+10
8.31675e+09
9.37699e+09
8.12917e+09
6.31176e+09
7.31492e+09
1.03019e+10
6.74726e+09
3.45874e+09
6.73631e+09
9.40583e+09
5.72086e+09
8.81917e+09
6.70628e+09
1.10551e+10
6.02167e+09
7.08439e+09
)
;
    }
    procBoundary0to6
    {
        type            processor;
        value           uniform 8.1185e+09;
    }
    procBoundary0to7
    {
        type            processor;
        value           uniform 1.01771e+10;
    }
}


// ************************************************************************* //
