/*--------------------------------*- C++ -*----------------------------------*\
| =========                 |                                                 |
| \\      /  F ield         | OpenFOAM: The Open Source CFD Toolbox           |
|  \\    /   O peration     | Version:  4.x                                   |
|   \\  /    A nd           | Web:      www.OpenFOAM.org                      |
|    \\/     M anipulation  |                                                 |
\*---------------------------------------------------------------------------*/
FoamFile
{
    version     2.0;
    format      ascii;
    class       volScalarField;
    location    "53.5";
    object      QWallFluid;
}
// * * * * * * * * * * * * * * * * * * * * * * * * * * * * * * * * * * * * * //

dimensions      [1 -1 -3 0 0 0 0];

internalField   nonuniform List<scalar> 
132
(
1.71019e+09
9.64211e+08
1.8498e+09
1.21501e+09
1.97377e+09
1.39188e+09
2.07401e+09
1.52181e+09
2.18154e+09
8.57719e+08
4.61802e+08
9.07695e+08
5.58506e+08
9.58009e+08
6.30486e+08
9.98773e+08
6.83901e+08
1.03743e+09
0
4.46038e+08
8.96395e+08
5.24238e+08
9.29307e+08
5.79706e+08
9.58761e+08
6.10847e+08
9.7092e+08
8.59007e+08
4.50183e+08
8.98898e+08
8.48154e+08
4.2803e+08
8.72244e+08
4.79253e+08
8.9679e+08
5.17746e+08
9.19664e+08
5.41898e+08
9.39554e+08
0
0
0
0
0
0
0
0
0
0
0
0
0
0
0
0
0
0
0
0
0
0
0
8.35016e+08
4.1803e+08
8.51943e+08
4.55352e+08
8.73221e+08
4.88243e+08
8.94934e+08
5.0824e+08
9.19246e+08
0
0
0
0
0
0
0
0
0
0
0
0
0
0
0
0
0
0
0
0
0
0
0
0
0
8.33753e+08
4.1304e+08
8.4558e+08
4.3836e+08
8.55064e+08
4.46448e+08
8.61348e+08
4.37409e+08
8.60311e+08
0
0
0
0
0
0
0
0
0
0
0
0
0
0
0
0
0
0
0
0
0
0
0
0
0
0
0
)
;

boundaryField
{
    inlet
    {
        type            calculated;
        value           uniform 0;
    }
    outlet
    {
        type            calculated;
        value           nonuniform 0();
    }
    wall
    {
        type            calculated;
        value           uniform 0;
    }
    procBoundary0to1
    {
        type            processor;
        value           nonuniform List<scalar> 
12
(
1.61128e+09
7.1736e+08
6.1382e+08
5.5099e+08
0
0
5.14755e+08
0
0
3.86276e+08
0
0
)
;
    }
    procBoundary0to2
    {
        type            processor;
        value           nonuniform List<scalar> 
44
(
5.32142e+08
9.32741e+08
5.97592e+08
9.6915e+08
6.39648e+08
1.00482e+09
8.4795e+08
4.24592e+08
5.32142e+08
8.77962e+08
5.32142e+08
9.32741e+08
0
0
0
0
0
0
0
0
0
0
0
0
0
0
0
0
0
0
0
0
0
0
0
0
0
0
0
0
0
0
0
0
)
;
    }
    procBoundary0to4
    {
        type            processor;
        value           nonuniform List<scalar> 
36
(
8.26792e+08
4.17859e+08
8.36161e+08
4.40086e+08
8.48579e+08
4.55097e+08
8.595e+08
4.59021e+08
8.71879e+08
0
0
0
0
0
0
0
0
0
0
0
0
0
0
0
0
0
0
0
0
0
0
0
0
0
0
0
)
;
    }
    procBoundary0to6
    {
        type            processor;
        value           uniform 0;
    }
    procBoundary0to7
    {
        type            processor;
        value           uniform 0;
    }
}


// ************************************************************************* //
