/*--------------------------------*- C++ -*----------------------------------*\
| =========                 |                                                 |
| \\      /  F ield         | OpenFOAM: The Open Source CFD Toolbox           |
|  \\    /   O peration     | Version:  4.x                                   |
|   \\  /    A nd           | Web:      www.OpenFOAM.org                      |
|    \\/     M anipulation  |                                                 |
\*---------------------------------------------------------------------------*/
FoamFile
{
    version     2.0;
    format      ascii;
    class       volScalarField;
    location    "53.5";
    object      QWallFluidCoeff;
}
// * * * * * * * * * * * * * * * * * * * * * * * * * * * * * * * * * * * * * //

dimensions      [1 -1 -3 -1 0 0 0];

internalField   nonuniform List<scalar> 
132
(
-5.70064e+06
-3.21404e+06
-6.166e+06
-4.05004e+06
-6.57924e+06
-4.63959e+06
-6.91338e+06
-5.0727e+06
-7.27181e+06
-2.85906e+06
-1.53934e+06
-3.02565e+06
-1.86169e+06
-3.19336e+06
-2.10162e+06
-3.32924e+06
-2.27967e+06
-3.45809e+06
0
-1.48679e+06
-2.98798e+06
-1.74746e+06
-3.09769e+06
-1.93235e+06
-3.19587e+06
-2.03616e+06
-3.2364e+06
-2.86336e+06
-1.50061e+06
-2.99633e+06
-2.82718e+06
-1.42677e+06
-2.90748e+06
-1.59751e+06
-2.9893e+06
-1.72582e+06
-3.06555e+06
-1.80633e+06
-3.13185e+06
0
0
0
0
0
0
0
0
0
0
0
0
0
0
0
0
0
0
0
0
0
0
0
-2.78339e+06
-1.39343e+06
-2.83981e+06
-1.51784e+06
-2.91074e+06
-1.62748e+06
-2.98311e+06
-1.69413e+06
-3.06415e+06
0
0
0
0
0
0
0
0
0
0
0
0
0
0
0
0
0
0
0
0
0
0
0
0
0
-2.77918e+06
-1.3768e+06
-2.8186e+06
-1.4612e+06
-2.85021e+06
-1.48816e+06
-2.87116e+06
-1.45803e+06
-2.8677e+06
0
0
0
0
0
0
0
0
0
0
0
0
0
0
0
0
0
0
0
0
0
0
0
0
0
0
0
)
;

boundaryField
{
    inlet
    {
        type            calculated;
        value           uniform 0;
    }
    outlet
    {
        type            calculated;
        value           nonuniform 0();
    }
    wall
    {
        type            calculated;
        value           uniform 0;
    }
    procBoundary0to1
    {
        type            processor;
        value           uniform 0;
    }
    procBoundary0to2
    {
        type            processor;
        value           uniform 0;
    }
    procBoundary0to4
    {
        type            processor;
        value           uniform 0;
    }
    procBoundary0to6
    {
        type            processor;
        value           uniform 0;
    }
    procBoundary0to7
    {
        type            processor;
        value           uniform 0;
    }
}


// ************************************************************************* //
