/*--------------------------------*- C++ -*----------------------------------*\
| =========                 |                                                 |
| \\      /  F ield         | OpenFOAM: The Open Source CFD Toolbox           |
|  \\    /   O peration     | Version:  4.x                                   |
|   \\  /    A nd           | Web:      www.OpenFOAM.org                      |
|    \\/     M anipulation  |                                                 |
\*---------------------------------------------------------------------------*/
FoamFile
{
    version     2.0;
    format      ascii;
    class       volVectorField;
    location    "53.5";
    object      Urel;
}
// * * * * * * * * * * * * * * * * * * * * * * * * * * * * * * * * * * * * * //

dimensions      [0 1 -1 0 0 0 0];

internalField   nonuniform List<vector> 
132
(
(-0.0239365 0.000467434 0.00126565)
(-0.0223487 0.000438564 0.00119261)
(-0.0237107 0.000436858 0.00119496)
(-0.0229614 0.000377267 0.00107213)
(-0.0245256 0.000345676 0.00102252)
(-0.0239324 0.000274635 0.000892254)
(-0.0254168 0.000237116 0.000842121)
(-0.024774 0.000162434 0.000739811)
(-0.0261689 0.000100125 0.000687222)
(-0.0238363 0.000492397 0.00129562)
(-0.0221396 0.000457807 0.00120299)
(-0.0234288 0.000477658 0.00120945)
(-0.0225074 0.000408056 0.00107977)
(-0.024019 0.000394613 0.00103655)
(-0.0232462 0.00031656 0.00089143)
(-0.024719 0.000306142 0.000839923)
(-0.0239018 0.000245271 0.000713927)
(-0.0253102 0.000208062 0.000661503)
(-0.0237182 0.00035062 0.00132215)
(-0.0219211 0.00031866 0.00121087)
(-0.0231347 0.000328292 0.00122131)
(-0.0220496 0.000281225 0.00107767)
(-0.0234842 0.000260197 0.00103887)
(-0.0225378 0.000207619 0.000877559)
(-0.0239624 0.000192512 0.000815429)
(-0.0229746 0.000144567 0.000659325)
(-0.0243629 0.000122329 0.00060307)
(-0.0236497 0.000149457 0.00131435)
(-0.0218332 0.000123932 0.00119925)
(-0.0230088 0.000126491 0.00120471)
(-0.0237318 0.000504725 0.00129968)
(-0.0219537 0.000459595 0.00119242)
(-0.0231794 0.000463505 0.00119758)
(-0.0220832 0.000399914 0.00104287)
(-0.0235563 0.000375982 0.000983673)
(-0.0225987 0.000294445 0.000837974)
(-0.0240695 0.000258796 0.000776034)
(-0.0230715 0.000168464 0.000661342)
(-0.0245109 0.000112477 0.000591657)
(-0.0236041 0.000531653 0.00133518)
(-0.0216764 0.000471586 0.00120311)
(-0.0228243 0.000501318 0.00121529)
(-0.0214907 0.000415926 0.00104095)
(-0.022931 0.000416045 0.00099034)
(-0.0216857 0.000317189 0.000820747)
(-0.0232074 0.000309423 0.000762584)
(-0.0218915 0.000215234 0.000622192)
(-0.0234664 0.000190769 0.00055514)
(-0.0234521 0.000367426 0.00136788)
(-0.0213947 0.000319852 0.00121506)
(-0.0224645 0.000332115 0.00123693)
(-0.0209095 0.000272822 0.00103787)
(-0.0223091 0.000259938 0.000990432)
(-0.0208033 0.000197389 0.000796887)
(-0.0223538 0.000175152 0.000723637)
(-0.0207517 0.000124564 0.000572554)
(-0.0224334 9.79745e-05 0.000497223)
(-0.0233747 0.000125806 0.00137689)
(-0.0213083 0.000110165 0.00122275)
(-0.0223238 0.000110169 0.00124324)
(-0.0207343 8.67638e-05 0.00103585)
(-0.0220914 8.1891e-05 0.000991802)
(-0.0235135 0.000551369 0.00115891)
(-0.0216296 0.000497055 0.00106416)
(-0.0227065 0.000503641 0.00107014)
(-0.0214066 0.000428964 0.000934907)
(-0.0227505 0.000406201 0.000885188)
(-0.0215851 0.000315305 0.000762418)
(-0.0229816 0.000277963 0.00070518)
(-0.0217884 0.000181519 0.000622518)
(-0.0231931 0.000121865 0.000562468)
(-0.0233552 0.00058011 0.00118641)
(-0.0212996 0.000508877 0.00107132)
(-0.0222904 0.000546373 0.00107811)
(-0.0207067 0.000443229 0.000913057)
(-0.0220331 0.000442634 0.000864398)
(-0.0205334 0.000329872 0.000720544)
(-0.0220181 0.000309543 0.00066531)
(-0.0204736 0.000219466 0.000556905)
(-0.0220732 0.000182833 0.000498472)
(-0.0231724 0.000404954 0.00120384)
(-0.020963 0.000351219 0.00107692)
(-0.0218566 0.000371522 0.00108388)
(-0.019994 0.000292119 0.000892244)
(-0.0213104 0.000284623 0.000837816)
(-0.0194998 0.000210652 0.000670614)
(-0.021071 0.000190518 0.000588077)
(-0.0192423 0.000138885 0.000485068)
(-0.0209602 0.000116314 0.000392109)
(-0.0230891 0.000132089 0.00120028)
(-0.0208409 0.00011515 0.00107247)
(-0.0216936 0.000122862 0.00107098)
(-0.0197661 9.83305e-05 0.000873835)
(-0.0210683 0.000105968 0.000815095)
(-0.0192104 8.99659e-05 0.000652012)
(-0.020787 9.83126e-05 0.000581126)
(-0.0233808 0.000590455 0.000878139)
(-0.0214322 0.000528441 0.000809469)
(-0.0224177 0.000532605 0.000806406)
(-0.0209759 0.000445071 0.000705317)
(-0.0222191 0.000417729 0.000656375)
(-0.0208851 0.000328714 0.000565094)
(-0.0221994 0.000289436 0.000509727)
(-0.0208204 0.000194798 0.00043971)
(-0.0221703 0.000135726 0.000362429)
(-0.0231958 0.000611042 0.00089168)
(-0.021043 0.000533717 0.000804531)
(-0.0219373 0.000567084 0.00080111)
(-0.0201474 0.000449808 0.00067268)
(-0.0214145 0.000443515 0.000624676)
(-0.0196851 0.00032897 0.000513723)
(-0.0211626 0.000288504 0.000465805)
(-0.0193647 0.000206955 0.000379858)
(-0.0210022 0.000138652 0.000330447)
(-0.0229971 0.000401218 0.000893443)
(-0.0206879 0.000349447 0.00079571)
(-0.0214768 0.00035594 0.000778396)
(-0.0194011 0.000278566 0.000636792)
(-0.0206662 0.00025518 0.000582648)
(-0.0186293 0.000192884 0.000462901)
(-0.0202148 0.000150805 0.000416377)
(-0.0182078 0.000118023 0.000321548)
(-0.0199402 7.34757e-05 0.000265258)
(-0.0229232 0.000114009 0.00089053)
(-0.0205997 9.11277e-05 0.000796465)
(-0.0213488 7.86663e-05 0.000782015)
(-0.01926 6.49573e-05 0.000642421)
(-0.0204924 5.22759e-05 0.000597377)
(-0.0184845 5.01272e-05 0.000472713)
(-0.0200306 5.22691e-05 0.000423967)
(-0.0180366 3.7611e-05 0.000332987)
(-0.0197485 3.55607e-05 0.000274416)
)
;

boundaryField
{
    inlet
    {
        type            calculated;
        value           nonuniform List<vector> 
16
(
(-0.01 1.9017e-11 8.8117e-12)
(-0.01 3.58626e-11 1.84103e-11)
(-0.01 -4.2477e-12 4.03456e-11)
(-0.01 -1.4241e-11 1.03875e-12)
(-0.01 1.78544e-11 -2.15511e-12)
(-0.01 1.4039e-11 -6.7288e-12)
(-0.01 1.20288e-11 -2.13429e-11)
(-0.01 -4.18779e-12 -5.79061e-12)
(-0.01 1.27586e-11 -5.51545e-12)
(-0.01 -6.85912e-12 9.55242e-13)
(-0.01 5.14893e-12 -8.12513e-12)
(-0.01 -1.3287e-11 1.90092e-11)
(-0.01 2.18754e-11 -6.37294e-12)
(-0.01 -3.14918e-12 4.61731e-13)
(-0.01 3.96999e-11 -7.56905e-12)
(-0.01 1.114e-12 2.98853e-11)
)
;
    }
    outlet
    {
        type            calculated;
        value           nonuniform 0();
    }
    wall
    {
        type            calculated;
        value           nonuniform List<vector> 
66
(
(1.94136e-11 1.9017e-11 8.8117e-12)
(5.97715e-11 3.58626e-11 1.84103e-11)
(2.03573e-10 -4.2477e-12 4.03456e-11)
(5.0249e-11 -1.4241e-11 1.03875e-12)
(3.66992e-11 1.54055e-11 1.05138e-11)
(2.04212e-10 -2.96019e-11 3.42086e-11)
(2.62013e-10 -2.61987e-11 3.58292e-11)
(2.31522e-10 -3.81315e-11 2.17407e-11)
(1.18524e-10 7.77925e-10 1.65987e-11)
(2.99061e-10 6.02758e-11 6.0008e-11)
(3.67449e-10 -5.40679e-12 6.47925e-11)
(3.25946e-10 -7.40538e-11 1.50816e-11)
(1.50302e-10 5.47462e-11 6.17772e-11)
(3.29327e-10 4.33916e-11 8.37883e-11)
(4.63961e-10 7.19672e-11 7.67612e-11)
(1.28555e-10 1.16786e-10 9.51864e-11)
(3.90021e-10 9.30027e-11 1.31124e-10)
(5.68367e-10 1.27231e-10 1.89869e-10)
(1.02949e-10 1.01944e-10 1.93405e-10)
(4.88179e-10 1.29571e-10 2.58067e-10)
(9.00722e-10 3.45336e-11 2.236e-10)
(-2.07378e-10 3.09236e-10 6.04684e-10)
(1.19696e-09 1.03962e-10 4.86131e-10)
(1.26399e-09 -1.3202e-13 4.80718e-10)
(-4.16381e-10 4.63589e-10 -5.69462e-11)
(1.89182e-09 7.99546e-11 1.32348e-09)
(1.79521e-09 -7.77297e-10 1.25306e-09)
(-2.63158e-10 1.44542e-10 3.02344e-10)
(2.66355e-09 -2.08584e-09 3.58053e-09)
(1.9736e-09 -1.71768e-09 1.92731e-09)
(1.94136e-11 1.9017e-11 8.8117e-12)
(1.84452e-11 1.78544e-11 -2.15511e-12)
(1.64965e-11 1.27586e-11 -5.51545e-12)
(1.05061e-11 2.18754e-11 -6.37294e-12)
(3.66992e-11 1.54055e-11 1.05138e-11)
(5.68462e-11 2.79165e-11 -3.61922e-12)
(3.78767e-11 2.01553e-11 -1.15859e-11)
(3.12511e-11 3.13156e-11 -1.4978e-12)
(1.18524e-10 7.77925e-10 1.65987e-11)
(7.81688e-11 4.73932e-11 2.41455e-12)
(5.41186e-11 3.02533e-11 6.18334e-12)
(4.25546e-11 2.10206e-11 4.95672e-12)
(1.50302e-10 5.47462e-11 6.17772e-11)
(1.43319e-10 3.4578e-11 5.49353e-11)
(8.98506e-11 2.99922e-11 5.80849e-11)
(5.56639e-11 2.67737e-11 5.28349e-11)
(1.28555e-10 1.16786e-10 9.51864e-11)
(1.42334e-10 4.45588e-11 8.04197e-11)
(8.18516e-11 2.79531e-11 8.57727e-11)
(5.25575e-11 3.29502e-11 9.53473e-11)
(1.02949e-10 1.01944e-10 1.93405e-10)
(6.94545e-11 7.9065e-11 1.77184e-10)
(3.15604e-11 9.61837e-11 2.55716e-10)
(-2.37604e-11 6.34123e-11 2.05565e-10)
(-2.07378e-10 3.09236e-10 6.04684e-10)
(-1.32453e-10 -2.55759e-12 4.66565e-10)
(-1.61033e-10 2.20403e-11 5.36469e-10)
(-1.077e-10 1.3047e-10 3.54864e-10)
(-4.16381e-10 4.63589e-10 -5.69462e-11)
(1.16657e-10 2.53754e-10 -5.70734e-10)
(-1.01498e-10 9.15204e-11 3.91776e-10)
(-1.57989e-10 5.49046e-11 9.88711e-10)
(-2.63158e-10 1.44542e-10 3.02344e-10)
(-1.76081e-09 -1.28619e-09 3.03217e-09)
(-1.76727e-09 -5.7585e-10 3.94086e-09)
(-4.65396e-10 -1.55159e-10 2.66666e-09)
)
;
    }
    procBoundary0to1
    {
        type            processor;
        value           nonuniform List<vector> 
12
(
(-0.0254552 -8.20865e-06 0.000606929)
(-0.0244207 0.000124658 0.000573753)
(-0.0232844 6.53485e-05 0.000502045)
(-0.0234374 9.7084e-06 0.000506867)
(-0.0220615 0.000103134 0.000460588)
(-0.0207065 5.62689e-05 0.000407199)
(-0.0219145 2.07242e-05 0.000509786)
(-0.0204751 0.000117165 0.000432752)
(-0.0190823 7.41734e-05 0.000343256)
(-0.0206364 5.4999e-05 0.000289405)
(-0.0191076 9.21203e-05 0.000251499)
(-0.0179884 5.30275e-05 0.000209422)
)
;
    }
    procBoundary0to2
    {
        type            processor;
        value           nonuniform List<vector> 
44
(
(-0.0218847 0.000106186 0.00105768)
(-0.023282 0.000105818 0.00101588)
(-0.0222983 9.56855e-05 0.000847086)
(-0.0237071 9.92936e-05 0.000769723)
(-0.0227039 8.03401e-05 0.000610022)
(-0.0241087 7.93986e-05 0.000536653)
(-0.0236547 -0.000109136 0.00126581)
(-0.0218121 -0.000101807 0.00116941)
(-0.0218847 0.000106186 0.00105768)
(-0.0229898 -0.000113391 0.00117499)
(-0.0218847 0.000106186 0.00105768)
(-0.023282 0.000105818 0.00101588)
(-0.0205564 7.22316e-05 0.000791417)
(-0.0220957 7.25973e-05 0.000718962)
(-0.0205109 5.64804e-05 0.000563307)
(-0.0221869 4.72831e-05 0.000486321)
(-0.023415 -0.000149224 0.0013405)
(-0.0213432 -0.000126156 0.00120066)
(-0.0223716 -0.000143593 0.00122568)
(-0.0207566 -0.000124091 0.0010258)
(-0.0205564 7.22316e-05 0.000791417)
(-0.0221339 -0.000126804 0.000984047)
(-0.0205564 7.22316e-05 0.000791417)
(-0.0220957 7.25973e-05 0.000718962)
(-0.018936 7.59567e-05 0.000469022)
(-0.0206624 5.78521e-05 0.000399715)
(-0.0231436 -0.000171499 0.0011873)
(-0.020906 -0.000141372 0.00105316)
(-0.0217614 -0.000146641 0.00104732)
(-0.0198374 -0.000117475 0.000862016)
(-0.0211317 -0.000101529 0.000801345)
(-0.019233 -6.45436e-05 0.000635237)
(-0.018936 7.59567e-05 0.000469022)
(-0.0208165 -2.39584e-05 0.000554252)
(-0.018936 7.59567e-05 0.000469022)
(-0.0206624 5.78521e-05 0.000399715)
(-0.0229701 -0.000206037 0.000901031)
(-0.0206499 -0.000180455 0.000788211)
(-0.0214269 -0.00020196 0.000775248)
(-0.0193656 -0.000150809 0.000639762)
(-0.0206122 -0.000154145 0.000581783)
(-0.0186186 -9.91025e-05 0.000463088)
(-0.0201698 -8.71701e-05 0.000386856)
(-0.0181631 -4.51565e-05 0.000325216)
)
;
    }
    procBoundary0to4
    {
        type            processor;
        value           nonuniform List<vector> 
36
(
(-0.023359 0.00060819 0.000514321)
(-0.0214276 0.000542055 0.00047801)
(-0.022371 0.000547513 0.00046253)
(-0.0209186 0.00045576 0.000414589)
(-0.0221243 0.000426548 0.000362669)
(-0.0207932 0.000333066 0.000315806)
(-0.0220895 0.000299436 0.000261932)
(-0.0207434 0.000223917 0.000213182)
(-0.0221073 0.000191261 0.000121541)
(-0.023168 0.000627354 0.000499421)
(-0.0210363 0.000544504 0.000456751)
(-0.021888 0.00057103 0.000430626)
(-0.020102 0.000453302 0.000376741)
(-0.0213447 0.000443543 0.000323217)
(-0.0196372 0.000333008 0.000274199)
(-0.021086 0.000310293 0.000221595)
(-0.0193366 0.000227583 0.000178782)
(-0.0209519 0.000190653 0.00010891)
(-0.0229771 0.000422921 0.000487177)
(-0.0206873 0.00036908 0.000438475)
(-0.0214409 0.000382333 0.000400541)
(-0.0194079 0.000303341 0.000339883)
(-0.0206357 0.000298694 0.000284302)
(-0.0186625 0.000219454 0.000235528)
(-0.020188 0.000195587 0.000202821)
(-0.0181691 0.00013992 0.000152611)
(-0.0199285 0.00010457 0.000120793)
(-0.0228917 0.000144383 0.000498383)
(-0.020557 0.000111123 0.000440471)
(-0.0212617 0.000122767 0.000413109)
(-0.019148 9.91187e-05 0.000348642)
(-0.0203482 0.000103768 0.000303568)
(-0.0182786 7.81533e-05 0.000241627)
(-0.0198225 6.23311e-05 0.000207489)
(-0.0177473 6.07621e-05 0.000159796)
(-0.019518 6.01178e-05 0.000124298)
)
;
    }
    procBoundary0to6
    {
        type            processor;
        value           uniform (-0.0199312 -3.98301e-05 0.000278624);
    }
    procBoundary0to7
    {
        type            processor;
        value           uniform (-0.0177685 2.26193e-05 0.000225721);
    }
}


// ************************************************************************* //
