/*--------------------------------*- C++ -*----------------------------------*\
  =========                 |
  \\      /  F ield         | OpenFOAM: The Open Source CFD Toolbox
   \\    /   O peration     | Website:  https://openfoam.org
    \\  /    A nd           | Version:  4.x
     \\/     M anipulation  |
\*---------------------------------------------------------------------------*/
FoamFile
{
    version     2.0;
    format      ascii;
    class       Cloud<passiveParticle>;
    location    0;
    object      positions;
}
// * * * * * * * * * * * * * * * * * * * * * * * * * * * * * * * * * * * * * //

325
(
( 0.0388637 -0.0811908 0.0295146 ) 1
( 0.0913018 -0.0733741 0.0222728 ) 3
( 0.244189 -0.0297176 0.0296348 ) 26
( 0.104006 -0.0622822 0.0322517 ) 12
( 0.121197 -0.040991 0.0239636 ) 22
( 0.0693472 -0.026557 0.0234733 ) 20
( 0.0144265 -0.0313874 0.0343352 ) 18
( 0.00979452 -0.0204778 0.0185731 ) 18
( 0.229601 -0.0151979 0.0287501 ) 26
( 0.0184308 -0.0623021 0.0160031 ) 9
( 0.241457 -0.00395099 0.0175737 ) 35
( 0.204787 -0.0421117 0.0147071 ) 25
( 0.179654 -0.0292528 0.020993 ) 24
( 0.247166 -0.0513063 0.0183908 ) 17
( 0.238839 -0.0713631 0.0254712 ) 17
( 0.126404 -0.0523799 0.0392801 ) 13
( 0.117986 -0.074461 0.0484062 ) 40
( 0.0664869 -0.0449682 0.0295672 ) 11
( 0.0817083 -0.0413916 0.0177736 ) 20
( 0.138689 -0.00760676 0.0336408 ) 31
( 0.122564 -0.0694279 0.0297631 ) 13
( 0.169673 -0.0152754 0.0307821 ) 24
( 0.210704 -0.0090255 0.0295865 ) 34
( 0.123975 -0.0216665 0.0208805 ) 22
( 0.0608542 -0.0900887 0.0331809 ) 2
( 0.201928 -0.0203275 0.0159659 ) 25
( 0.0345682 -0.0221362 0.0162382 ) 19
( 0.231708 -0.0462018 0.0298233 ) 17
( 0.0976239 -0.0114897 0.0331887 ) 30
( 0.197615 -0.0680052 0.0276084 ) 16
( 0.124016 -0.0284755 0.0393468 ) 22
( 0.0770183 -0.00611078 0.028078 ) 29
( 0.193306 -0.0835911 0.0164893 ) 6
( 0.0536381 -0.0307127 0.0347737 ) 19
( 0.0763818 -0.06021 0.0213588 ) 11
( 0.0506344 -0.0900311 0.0160974 ) 1
( 0.0599162 -0.0674063 0.0300243 ) 11
( 0.153224 -0.0452816 0.0287148 ) 14
( 0.136501 -0.0531366 0.0221536 ) 13
( 0.180511 -0.0681177 0.0175399 ) 15
( 0.0315658 -0.0621058 0.0307012 ) 10
( 0.04848 -0.0108688 0.0249324 ) 28
( 0.0293512 -0.0417898 0.0235008 ) 19
( 0.0874714 -0.0203791 0.0188339 ) 21
( 0.139447 -0.0768748 0.0224068 ) 5
( 0.184104 -0.0540078 0.0308798 ) 15
( 0.140839 -0.0319195 0.0211234 ) 23
( 0.113484 -0.0820733 0.0173029 ) 4
( 0.157476 -0.0838243 0.0271211 ) 5
( 0.0886628 -0.0435649 0.0384354 ) 12
( 0.0678002 -0.0791476 0.0163207 ) 2
( 0.106194 -0.0144833 0.0156063 ) 21
( 0.151114 -0.0227445 0.0355301 ) 23
( 0.189253 -0.00722008 0.0360989 ) 33
( 0.212 -0.090175 0.016187 ) 7
( 0.0962074 -0.0548938 0.0156129 ) 12
( 0.135678 -0.00507881 0.0145068 ) 31
( 0.00980535 -0.0747255 0.028305 ) 0
( 0.184667 -0.0102496 0.0170786 ) 33
( 0.0097382 -0.0568918 0.0369872 ) 9
( 0.0815255 -0.0226475 0.0382767 ) 20
( 0.103531 -0.0901124 0.0325781 ) 3
( 0.0284121 -0.0174504 0.035374 ) 19
( 0.196391 -0.0317074 0.0311051 ) 25
( 0.0475548 -0.0370003 0.0172385 ) 19
( 0.216448 -0.0774668 0.0307476 ) 7
( 0.216727 -0.0300728 0.025131 ) 25
( 0.164423 -0.0590793 0.0369529 ) 14
( 0.225338 -0.0573833 0.014833 ) 17
( 0.0840186 -0.0628231 0.0392912 ) 12
( 0.0477849 -0.0508636 0.031085 ) 10
( 0.118787 -0.00366308 0.0265755 ) 31
( 0.175909 -0.0902569 0.0230204 ) 6
( 0.108648 -0.0442118 0.0386084 ) 12
( 0.0584109 -3.06737e-05 0.038302 ) 29
( 0.153799 -0.0121956 0.0192994 ) 32
( 0.249193 -0.0872256 0.017641 ) 8
( 0.228163 0.00822397 0.0255687 ) 35
( 0.065903 0.0126545 0.0236163 ) 29
( 0.188593 0.0101507 0.0261009 ) 33
( 0.0920803 0.00905618 0.0296258 ) 30
( 0.203695 0.00195498 0.0458791 ) 70
( 0.149344 0.00636407 0.0243437 ) 32
( 0.208513 0.0101838 0.0272006 ) 34
( 0.170227 0.00453314 0.0314636 ) 33
( 0.0353646 0.00424001 0.040511 ) 28
( 0.21171 -0.0541106 0.0288426 ) 16
( 0.0194516 -0.0902648 0.0354853 ) 0
( 0.0992916 -0.0353876 0.0239057 ) 21
( 0.23048 -0.0903358 0.0232608 ) 8
( 0.0283366 -0.0901157 0.0153301 ) 1
( 0.0799493 -0.0877868 0.0289347 ) 2
( 0.158517 -0.0655699 0.0194303 ) 14
( 0.009621 -0.000940285 0.0157377 ) 27
( 0.00989412 -0.045263 0.0212185 ) 9
( 0.115903 -0.0579661 0.0149053 ) 13
( 0.0257993 -0.0467478 0.0422963 ) 9
( 0.028903 -0.00369939 0.0213557 ) 28
( 0.22141 0.0103808 0.044068 ) 70
( 0.131606 -0.0558857 0.0577712 ) 49
( 0.140666 -0.0729344 0.0543225 ) 41
( 0.168677 -0.0901476 0.0422518 ) 6
( 0.154679 -0.00720873 0.0545377 ) 68
( 0.0334956 -0.0272915 0.0518851 ) 55
( 0.127589 -0.0900651 0.0563033 ) 40
( 0.0426108 -0.0770005 0.0597563 ) 37
( 0.167411 -0.0420495 0.0591458 ) 60
( 0.125832 -0.00927213 0.069257 ) 67
( 0.230502 -0.0235321 0.0596191 ) 62
( 0.0466473 -0.0574921 0.0615843 ) 46
( 0.11596 -0.0443907 0.0603524 ) 49
( 0.0858933 -0.0775461 0.0621504 ) 39
( 0.242388 -0.0904173 0.056119 ) 44
( 0.21017 -0.033092 0.0605701 ) 61
( 0.246212 -0.0571014 0.0544984 ) 53
( 0.0741653 0.000130402 0.0625994 ) 65
( 0.0648573 -0.0381072 0.0656017 ) 56
( 0.203209 -0.0901086 0.060156 ) 43
( 0.00990004 -0.082861 0.071517 ) 72
( 0.168202 0.00995706 0.0581977 ) 69
( 0.0718609 -0.0639281 0.0604907 ) 47
( 0.18672 -0.0730217 0.0627602 ) 42
( 0.234066 -0.0727586 0.054098 ) 44
( 0.148205 -0.0904963 0.0575279 ) 41
( 0.0900669 -0.018918 0.0612342 ) 57
( 0.229306 -0.0473602 0.0515084 ) 53
( 0.209091 0.00972974 0.0654903 ) 70
( 0.175509 -0.00697286 0.0676835 ) 69
( 0.00968362 -0.010439 0.0627003 ) 63
( 0.0663349 -0.0174029 0.0680593 ) 56
( 0.0269815 -0.0605301 0.0716263 ) 81
( 0.194736 -0.0145116 0.0546929 ) 61
( 0.149511 -0.0370978 0.0663934 ) 59
( 0.0639212 -0.0902224 0.0565828 ) 38
( 0.166205 -0.0655432 0.0621172 ) 50
( 0.188322 -0.0333971 0.0595233 ) 60
( 0.104862 -0.072677 0.0653809 ) 39
( 0.223063 -0.0906539 0.0613562 ) 44
( 0.249321 -0.00230716 0.0533455 ) 71
( 0.115315 -0.0248162 0.0588283 ) 58
( 0.0308714 0.00965483 0.0591041 ) 64
( 0.190783 0.00376708 0.0612067 ) 69
( 0.0881157 0.0129196 0.0685947 ) 66
( 0.0876913 -0.0529527 0.0558352 ) 48
( 0.102107 -0.00187353 0.0563639 ) 66
( 0.118621 0.00781537 0.0612643 ) 67
( 0.210835 -0.0567973 0.050601 ) 52
( 0.0167715 -0.0267741 0.0716481 ) 90
( 0.0296108 -0.0852148 0.0724964 ) 73
( 0.0266657 -0.00868273 0.0529442 ) 63
( 0.107624 -0.0899813 0.055506 ) 39
( 0.15095 -0.0560726 0.055291 ) 50
( 0.20435 -0.0900431 0.0403183 ) 7
( 0.214791 -0.0757121 0.0525808 ) 43
( 0.142053 -0.0876301 0.0389932 ) 5
( 0.0629571 -0.0214244 0.0492905 ) 56
( 0.0754433 0.00950685 0.0403285 ) 29
( 0.00963148 -0.0454842 0.0630878 ) 45
( 0.0993841 -0.0310148 0.049289 ) 57
( 0.182274 -0.0244181 0.0429989 ) 60
( 0.125228 -0.0733359 0.066845 ) 40
( 0.062844 -0.0553869 0.0455675 ) 47
( 0.0466661 -0.0304815 0.0679892 ) 55
( 0.227517 -0.0893179 0.0425092 ) 8
( 0.0701596 -0.075693 0.0447026 ) 38
( 0.19361 -0.0476087 0.0469768 ) 51
( 0.017956 -0.0611899 0.0543743 ) 45
( 0.215672 -0.00751514 0.0593293 ) 70
( 0.158941 -0.0198097 0.0691533 ) 59
( 0.134434 -0.0120807 0.052077 ) 67
( 0.21083 -0.0395044 0.0419174 ) 25
( 0.0853065 -0.0057237 0.0474088 ) 66
( 0.133566 -0.0315317 0.0562706 ) 58
( 0.105968 -0.0589463 0.0514783 ) 48
( 0.150867 -0.0736473 0.0714395 ) 77
( 0.0456261 -0.090296 0.0457141 ) 37
( 0.228279 -0.0304619 0.0412743 ) 26
( 0.082647 -0.0905447 0.047923 ) 38
( 0.177564 -0.0901371 0.0599503 ) 42
( 0.226237 -0.0625508 0.0393218 ) 17
( 0.143441 -0.0623517 0.0380153 ) 14
( 0.163952 -0.0244652 0.0504998 ) 59
( 0.136433 0.00753344 0.0511926 ) 67
( 0.179673 -0.0613789 0.0487223 ) 51
( 0.0802911 -0.0345882 0.0539604 ) 56
( 0.0102537 0.00459246 0.0491807 ) 63
( 0.0556534 -0.00401908 0.0578856 ) 65
( 0.181343 -0.0761444 0.0357504 ) 6
( 0.04602 -0.0656437 0.0437994 ) 46
( 0.0443518 -0.0688355 0.0774245 ) 82
( 0.0219553 -0.0904697 0.0552337 ) 36
( 0.00982361 -0.0131045 0.0404222 ) 27
( 0.12338 -0.0900004 0.0327292 ) 4
( 0.231332 -0.00786476 0.0471824 ) 71
( 0.231058 -0.00852127 0.0723063 ) 107
( 0.114164 -0.0118652 0.0440332 ) 67
( 0.116821 -0.0901247 0.0731198 ) 76
( 0.145108 -0.00489124 0.0715341 ) 104
( 0.211618 -0.0204749 0.0453895 ) 61
( 0.0289114 -0.0750282 0.0454681 ) 37
( 0.0455153 -0.0137597 0.0441478 ) 64
( 0.106719 -0.0130466 0.0715672 ) 102
( 0.182825 0.0119122 0.0449336 ) 69
( 0.00983626 -0.0283566 0.0532229 ) 54
( 0.172296 -0.04122 0.0401431 ) 24
( 0.246467 -0.0901546 0.0368417 ) 8
( 0.0615993 -0.0554819 0.0746591 ) 83
( 0.0804969 -0.0484148 0.0734355 ) 83
( 0.19707 -0.0705224 0.0466847 ) 52
( 0.226188 -0.0404524 0.0695208 ) 62
( 0.0490622 -0.0901811 0.079124 ) 73
( 0.204161 -0.0738672 0.0716109 ) 79
( 0.173401 -0.00618946 0.0479891 ) 69
( 0.249635 -0.0737933 0.0659213 ) 44
( 0.0291001 -0.0438022 0.0614085 ) 46
( 0.24781 -0.0417558 0.0727439 ) 98
( 0.00944677 -0.0774395 0.0476093 ) 36
( 0.040197 -0.0116497 0.0671594 ) 64
( 0.181802 -0.0238769 0.0757579 ) 96
( 0.0981538 -0.0349225 0.0700396 ) 57
( 0.0868493 -0.0665693 0.0783764 ) 84
( 0.117043 0.00818009 0.0420264 ) 31
( 0.15648 -0.0547959 0.0757564 ) 86
( 0.216871 -0.0590179 0.0692428 ) 52
( 0.080665 -0.0278882 0.076101 ) 92
( 0.236262 -0.0591717 0.0713658 ) 53
( 0.0967962 -0.0766667 0.0455032 ) 39
( 0.149266 -0.038626 0.0467695 ) 59
( 0.0504895 -0.0408471 0.0514941 ) 55
( 0.155844 0.0141404 0.0729787 ) 104
( 0.131625 -0.0428262 0.072341 ) 94
( 0.0408974 0.00845103 0.0760522 ) 100
( 0.09251 0.0137517 0.0493022 ) 66
( 0.1412 -0.0901464 0.0766791 ) 77
( 0.198238 -0.0534043 0.0656373 ) 52
( 0.154664 0.008744 0.043101 ) 68
( 0.198471 -0.0347382 0.0762622 ) 97
( 0.075681 -0.0901028 0.0751107 ) 74
( 0.221811 -0.0803189 0.0776267 ) 79
( 0.193127 0.00251883 0.0814132 ) 105
( 0.120678 -0.0259534 0.0777994 ) 94
( 0.0146859 -0.0712104 0.0874155 ) 81
( 0.20225 -0.0128466 0.072917 ) 106
( 0.174765 -0.0722197 0.0778415 ) 78
( 0.023416 -0.00799589 0.0766362 ) 99
( 0.0663318 -0.0379701 0.085278 ) 92
( 0.10967 -0.0723508 0.0843081 ) 75
( 0.181114 -0.0476308 0.0736647 ) 87
( 0.0657114 -0.00218537 0.0805275 ) 101
( 0.194438 -0.0899162 0.0779875 ) 78
( 0.0402412 -0.046881 0.0769124 ) 82
( 0.00979215 0.00610756 0.0806354 ) 99
( 0.00991682 -0.0523774 0.0831444 ) 81
( 0.163089 -0.00316776 0.0825333 ) 104
( 0.224556 0.00927838 0.0771444 ) 107
( 0.131062 0.00824189 0.0763016 ) 103
( 0.13676 -0.061237 0.0774175 ) 85
( 0.142726 -0.0275453 0.0823667 ) 95
( 0.0613294 -0.0768911 0.0709289 ) 38
( 0.0775353 0.0129486 0.0853011 ) 101
( 0.161701 -0.0902545 0.0716915 ) 77
( 0.247891 -0.032172 0.0562249 ) 62
( 0.160047 -0.0681539 0.0902087 ) 86
( 0.0969667 -0.0902295 0.0722783 ) 75
( 0.245076 -0.0902284 0.0755985 ) 80
( 0.0580394 -0.0763715 0.0903053 ) 74
( 0.231336 -0.017608 0.0901069 ) 98
( 0.106126 -0.0306425 0.0902643 ) 93
( 0.0358437 -0.0808464 0.0905017 ) 73
( 0.0733104 -0.0557103 0.0904272 ) 83
( 0.242562 0.00725109 0.069825 ) 71
( 0.228952 -0.0672265 0.090338 ) 89
( 0.0858031 -0.0403203 0.0904317 ) 93
( 0.0327311 -0.0246336 0.0830439 ) 91
( 0.208692 -0.0703436 0.0903572 ) 88
( 0.111855 0.00430913 0.0790216 ) 103
( 0.225353 -0.0481716 0.0875001 ) 89
( 0.165404 -0.036356 0.0777869 ) 95
( 0.126663 -0.0900298 0.090243 ) 76
( 0.0880775 -0.00569797 0.0753003 ) 102
( 0.111336 -0.0463709 0.0793664 ) 85
( 0.0268811 0.010086 0.090102 ) 99
( 0.184958 -0.0368368 0.0903566 ) 96
( 0.126981 -0.00534227 0.0901526 ) 103
( 0.206103 -0.0516696 0.0840592 ) 88
( 0.052101 -0.0174294 0.0818324 ) 91
( 0.126406 -0.03929 0.090664 ) 94
( 0.0542052 0.0103445 0.0904491 ) 100
( 0.00983864 -0.030608 0.0898273 ) 90
( 0.218764 -0.0233096 0.0757247 ) 97
( 0.21019 -0.0901413 0.0901895 ) 79
( 0.0315494 -0.0614123 0.0905265 ) 82
( 0.146311 -0.00986207 0.0904614 ) 104
( 0.188078 -0.0564845 0.090102 ) 87
( 0.146421 -0.0455169 0.0901527 ) 86
( 0.248469 -0.0573179 0.0865573 ) 89
( 0.176012 -0.0904667 0.0850849 ) 78
( 0.18053 -0.00976879 0.0901447 ) 105
( 0.143806 0.0116287 0.0905136 ) 104
( 0.0506033 -0.0559812 0.0907248 ) 82
( 0.14171 -0.075541 0.0902251 ) 77
( 0.0945918 0.00428683 0.0906018 ) 102
( 0.086067 -0.0824633 0.0901921 ) 75
( 0.122303 -0.0585959 0.0904319 ) 85
( 0.107872 -0.0107436 0.0906853 ) 102
( 0.247178 -0.0768514 0.0901299 ) 80
( 0.232551 -0.0900679 0.0906452 ) 80
( 0.0699325 -0.0189571 0.0902547 ) 92
( 0.169304 -0.0505355 0.090489 ) 87
( 0.0256943 -0.0424541 0.0901316 ) 90
( 0.00982235 -0.0108278 0.0904401 ) 99
( 0.0980898 -0.055849 0.0903661 ) 84
( 0.155677 -0.0897793 0.0903394 ) 77
( 0.1045 -0.0901988 0.0904403 ) 75
( 0.0377913 -0.00686241 0.0903071 ) 100
( 0.216773 -0.00356805 0.0901453 ) 106
( 0.0898106 -0.0181969 0.0904753 ) 93
( 0.187876 -0.0761523 0.0909511 ) 78
( 0.21201 -0.0340411 0.0905466 ) 97
( 0.0476152 -0.0352038 0.0905967 ) 91
( 0.00984668 -0.0901601 0.0900712 ) 72
( 0.242472 -0.0392209 0.0908656 ) 98
( 0.241499 0.0125469 0.0902545 ) 107
( 0.197112 -0.0208608 0.0902877 ) 97
( 0.164625 -0.0214109 0.0903818 ) 95
)
