/*--------------------------------*- C++ -*----------------------------------*\
| =========                 |                                                 |
| \\      /  F ield         | OpenFOAM: The Open Source CFD Toolbox           |
|  \\    /   O peration     | Version:  4.x                                   |
|   \\  /    A nd           | Web:      www.OpenFOAM.org                      |
|    \\/     M anipulation  |                                                 |
\*---------------------------------------------------------------------------*/
FoamFile
{
    version     2.0;
    format      ascii;
    class       volScalarField;
    location    "24.5";
    object      KslPrev;
}
// * * * * * * * * * * * * * * * * * * * * * * * * * * * * * * * * * * * * * //

dimensions      [1 -3 -1 0 0 0 0];

internalField   nonuniform List<scalar> 
132
(
203029
3994.17
1e+10
4000.26
1e+10
3972.05
9.97031e+09
3874.15
28055.8
22453.3
3727.91
28070.7
3654.37
39325.8
3659.27
41004.1
3928.3
21859
14125.7
3618.58
15040.7
3503.91
14790.4
3482.4
11357.6
3577.61
4959.56
6024.53
3021.72
5899.54
2819.61
5926.93
2566.3
6129.55
2113.08
5679.13
1e+10
3834.91
1e+10
3718.62
68179.2
3441.92
18405.5
1e+10
4213.25
1e+10
4243.29
1e+10
4267.31
36007.4
4241.98
8027.77
96825.7
4037.92
1e+10
4149.95
1e+10
4446.92
1e+10
5230.21
33472.5
8143.89
3455.28
9325.28
3518.99
11297.2
3693.73
13450.3
4172.41
11787.4
1e+10
4125.37
9.91884e+09
4716.99
14276.6
38008.2
3750.4
64026.6
3641.65
72332.4
3583.21
44889.2
3751.64
17602.6
13392.8
3638.31
14061
3523.28
12712.2
3396.07
9213.5
3268.86
4186.62
5828.56
3036.22
5626.8
2863.26
5512.44
2530.52
5395.75
1853.45
4515.85
8907.28
3737.96
7550.02
8759.3
3428.13
9898.79
3467.47
11371.4
3606.15
12944.3
4082.92
11079.1
6425.93
3239.07
6594.96
3293.14
7011.41
3344.29
7104.07
3611.83
6825.94
4718.39
2888.15
4693.17
2877.08
4738.22
2773.93
4424.48
2664.35
3529
)
;

boundaryField
{
    inlet
    {
        type            zeroGradient;
    }
    outlet
    {
        type            zeroGradient;
    }
    wall
    {
        type            zeroGradient;
    }
    procBoundary7to0
    {
        type            processor;
        value           uniform 0;
    }
    procBoundary7to1
    {
        type            processor;
        value           uniform 0;
    }
    procBoundary7to3
    {
        type            processor;
        value           uniform 0;
    }
    procBoundary7to5
    {
        type            processor;
        value           uniform 0;
    }
    procBoundary7to6
    {
        type            processor;
        value           uniform 0;
    }
}


// ************************************************************************* //
