/*--------------------------------*- C++ -*----------------------------------*\
| =========                 |                                                 |
| \\      /  F ield         | OpenFOAM: The Open Source CFD Toolbox           |
|  \\    /   O peration     | Version:  4.x                                   |
|   \\  /    A nd           | Web:      www.OpenFOAM.org                      |
|    \\/     M anipulation  |                                                 |
\*---------------------------------------------------------------------------*/
FoamFile
{
    version     2.0;
    format      ascii;
    class       volScalarField;
    location    "24.5";
    object      QPartFluidCoeff;
}
// * * * * * * * * * * * * * * * * * * * * * * * * * * * * * * * * * * * * * //

dimensions      [1 -1 -3 -1 0 0 0];

internalField   nonuniform List<scalar> 
132
(
-3.3158e+07
-2.98911e+07
-2.10217e+07
-2.59493e+07
-3.61919e+07
-4.06941e+07
-2.62968e+07
-2.19014e+07
-2.00658e+07
-2.60249e+07
-3.80476e+07
-2.51057e+07
-2.70566e+07
-2.79608e+07
-2.31808e+07
-2.54276e+07
-2.55085e+07
-2.17216e+07
-1.76303e+07
-3.1107e+07
-2.29883e+07
-2.95812e+07
-2.75599e+07
-3.43511e+07
-2.86871e+07
-2.95226e+07
-2.44825e+07
-2.36923e+07
-2.50451e+07
-3.01828e+07
-1.99991e+07
-2.69768e+07
-2.73057e+07
-2.75843e+07
-2.47045e+07
-1.30664e+07
-2.15307e+07
-2.84085e+07
-2.29156e+07
-2.70128e+07
-2.93073e+07
-3.33876e+07
-1.97222e+07
-1.27642e+07
-3.30659e+07
-2.41665e+07
-2.88686e+07
-2.83418e+07
-2.70715e+07
-1.91372e+07
-2.96275e+07
-1.61896e+07
-2.00831e+07
-3.35191e+07
-2.50842e+07
-2.41158e+07
-2.73584e+07
-3.47962e+07
-3.18421e+07
-2.77265e+07
-2.14436e+07
-2.27047e+07
-2.87542e+07
-2.09222e+07
-2.68166e+07
-2.45309e+07
-2.24471e+07
-2.15821e+07
-2.90031e+07
-1.49747e+07
-1.58325e+07
-2.30587e+07
-2.58919e+07
-2.35888e+07
-1.4091e+07
-2.87257e+07
-3.01114e+07
-2.35558e+07
-2.14848e+07
-3.00029e+07
-2.89915e+07
-2.52652e+07
-3.51285e+07
-2.18042e+07
-2.73929e+07
-3.13764e+07
-2.88847e+07
-2.97019e+07
-3.12086e+07
-3.27188e+07
-3.02969e+07
-3.0642e+07
-2.49569e+07
-2.03718e+07
-2.44838e+07
-2.44053e+07
-2.73441e+07
-2.23949e+07
-2.35718e+07
-2.89775e+07
-2.99147e+07
-2.0228e+07
-1.87773e+07
-2.41197e+07
-1.61053e+07
-2.41383e+07
-2.29285e+07
-2.47142e+07
-2.80886e+07
-1.69619e+07
-1.57829e+07
-2.24517e+07
-2.40171e+07
-1.48272e+07
-2.11488e+07
-2.24281e+07
-2.11424e+07
-2.54482e+07
-2.46693e+07
-2.36395e+07
-2.56032e+07
-2.47868e+07
-2.17283e+07
-2.05444e+07
-2.75878e+07
-1.99815e+07
-2.3935e+07
-2.51758e+07
-2.36866e+07
-2.28584e+07
-2.45525e+07
-1.41549e+07
)
;

boundaryField
{
    inlet
    {
        type            calculated;
        value           nonuniform 0();
    }
    outlet
    {
        type            calculated;
        value           uniform 0;
    }
    wall
    {
        type            calculated;
        value           uniform 0;
    }
    procBoundary7to0
    {
        type            processor;
        value           uniform 195.944;
    }
    procBoundary7to1
    {
        type            processor;
        value           uniform 442.8;
    }
    procBoundary7to3
    {
        type            processor;
        value           nonuniform List<scalar> 
36
(
611.499
811.109
674.852
759.737
484.555
574.606
668.919
622.802
507.594
726.777
464.193
613.61
376.866
327.852
708.072
579.393
819.766
405.718
456.218
772.23
690.106
541.61
547.081
738.965
597.273
689.166
341.567
665.964
366.246
440.344
526.704
488.228
643.447
483.653
711.471
555.276
)
;
    }
    procBoundary7to5
    {
        type            processor;
        value           nonuniform List<scalar> 
44
(
748.268
458.491
653.743
439.334
396.398
552.43
463.83
499.287
768.415
377.764
548.325
676.933
462.2
618.873
535.388
591.596
307.382
768.415
377.764
377.764
701.135
726.239
863.247
697.532
684.351
807.349
587.392
392.667
862.673
701.135
726.239
726.239
757.949
610.161
516.149
577.226
478.702
533.567
475.974
538.435
487.974
757.949
610.161
610.161
)
;
    }
    procBoundary7to6
    {
        type            processor;
        value           nonuniform List<scalar> 
12
(
612.551
670.272
422.345
746.287
704.275
659.673
714.828
746.567
517.662
338.52
636.233
540.561
)
;
    }
}


// ************************************************************************* //
