/*--------------------------------*- C++ -*----------------------------------*\
| =========                 |                                                 |
| \\      /  F ield         | OpenFOAM: The Open Source CFD Toolbox           |
|  \\    /   O peration     | Version:  4.x                                   |
|   \\  /    A nd           | Web:      www.OpenFOAM.org                      |
|    \\/     M anipulation  |                                                 |
\*---------------------------------------------------------------------------*/
FoamFile
{
    version     2.0;
    format      ascii;
    class       volVectorField;
    location    "24.5";
    object      Us;
}
// * * * * * * * * * * * * * * * * * * * * * * * * * * * * * * * * * * * * * //

dimensions      [0 1 -1 0 0 0 0];

internalField   nonuniform List<vector> 
132
(
(1.23406e-09 3.10569e-09 1.34932e-09)
(2.44263e-09 1.73576e-09 6.04569e-10)
(3.78539e-09 2.64037e-09 5.33812e-10)
(4.82151e-09 2.22281e-09 -9.74109e-10)
(3.63402e-09 1.45484e-09 -1.3633e-09)
(2.40976e-09 8.6941e-10 -4.01292e-09)
(1.39115e-09 -8.42426e-10 -3.25665e-09)
(6.21101e-10 3.79854e-10 -3.59663e-09)
(-6.34441e-10 -5.17296e-10 -4.73463e-09)
(2.81751e-09 1.74882e-09 6.73502e-10)
(3.46468e-09 1.19762e-09 -1.09496e-10)
(4.36749e-09 7.56289e-10 -1.54552e-09)
(5.31991e-09 1.24073e-09 -2.16177e-09)
(2.5359e-09 1.04279e-09 -1.13973e-09)
(1.54363e-09 4.29664e-10 -1.25981e-09)
(1.05059e-09 -4.25043e-10 -2.03606e-09)
(1.97477e-10 8.14852e-10 -6.30829e-09)
(2.16686e-10 -5.10555e-10 -8.94952e-09)
(3.03407e-09 1.89254e-09 8.19569e-10)
(3.8384e-09 6.96427e-10 -3.06103e-10)
(4.49928e-09 1.93765e-10 -2.51599e-09)
(4.26497e-09 5.00512e-10 -2.35176e-09)
(2.99551e-09 5.37261e-10 -2.05139e-09)
(2.09136e-09 -6.96952e-10 -2.7731e-09)
(2.21195e-09 -2.15355e-11 -2.28531e-09)
(8.91542e-10 1.30261e-09 -7.7047e-09)
(4.59554e-10 3.03949e-09 -9.3209e-09)
(2.54835e-09 4.06309e-10 5.57926e-10)
(3.14718e-09 7.37634e-11 9.20798e-10)
(2.84961e-09 2.54567e-10 -7.15017e-10)
(3.21942e-09 1.25962e-10 -8.99538e-10)
(2.72206e-09 -1.80812e-11 -1.36273e-09)
(1.05805e-09 -6.54623e-10 -2.52738e-09)
(6.84781e-10 -1.17688e-10 -3.23457e-09)
(1.21224e-09 -5.82578e-10 -6.49731e-09)
(1.16662e-10 2.33026e-09 -4.38444e-09)
(3.04099e-09 1.80327e-09 -9.03347e-11)
(2.97149e-09 1.44847e-09 -4.93072e-10)
(-2.11566e-10 -4.74294e-10 -6.90702e-10)
(5.94933e-10 8.79104e-10 -1.26018e-09)
(-1.94752e-10 7.64874e-10 -1.77816e-09)
(-2.93143e-10 2.23283e-09 -2.05023e-09)
(-9.07917e-10 1.31381e-09 -2.90259e-09)
(2.96503e-09 1.72119e-09 5.95367e-10)
(2.84124e-09 1.68905e-09 5.83742e-11)
(3.40458e-09 1.2009e-09 -6.99966e-10)
(3.95722e-09 1.38654e-09 -6.64039e-10)
(2.52954e-09 1.36685e-09 4.83067e-11)
(4.61743e-10 9.80174e-10 -7.26181e-10)
(-2.70078e-10 5.38168e-10 -1.45155e-09)
(-8.73764e-10 2.01275e-09 -2.97579e-09)
(-7.62652e-10 9.06376e-10 -2.48211e-09)
(3.56234e-09 1.45498e-09 5.92308e-10)
(3.96056e-09 3.31119e-10 -4.41963e-10)
(4.21246e-09 6.14737e-10 -1.14885e-09)
(4.04628e-09 4.54715e-10 -1.17961e-09)
(2.8696e-09 9.81947e-10 -3.67618e-10)
(1.25603e-09 2.0638e-10 -1.11409e-09)
(2.02376e-09 9.54354e-10 -2.08624e-09)
(8.204e-10 3.56677e-10 -3.06055e-09)
(4.31693e-09 3.26997e-09 -1.72779e-09)
(3.25659e-09 1.88743e-10 9.53451e-11)
(3.69999e-09 1.65562e-10 3.84873e-10)
(3.92737e-09 1.98984e-10 -5.97226e-10)
(3.61657e-09 -6.89761e-11 -8.02509e-10)
(2.12848e-09 5.82294e-10 -5.04485e-10)
(1.74492e-09 2.77588e-10 -7.23919e-10)
(1.98746e-09 8.86173e-10 -1.78545e-09)
(1.03523e-10 -1.0193e-09 -2.57209e-09)
(1.70628e-09 9.8818e-10 -2.80746e-09)
(3.86055e-10 5.11192e-10 1.00886e-10)
(-1.90854e-10 8.58901e-10 -1.5327e-10)
(-1.09746e-09 7.03983e-10 -5.82577e-10)
(-1.05736e-09 8.83222e-10 -3.19577e-10)
(3.26121e-10 7.17597e-10 -1.34771e-10)
(3.1934e-09 1.87761e-09 5.89655e-10)
(3.29987e-09 1.48189e-09 -5.79949e-11)
(3.34795e-09 1.1362e-09 -4.75301e-10)
(2.91027e-09 1.34194e-09 -2.90596e-10)
(2.05387e-09 1.225e-09 2.97789e-10)
(7.80073e-10 1.17912e-09 -2.94985e-10)
(1.81531e-10 7.24278e-10 -3.2892e-10)
(-9.25557e-11 2.80218e-10 -6.44399e-10)
(9.43525e-11 -3.51799e-10 -3.93913e-10)
(3.68715e-09 1.30017e-09 1.06239e-10)
(3.68011e-09 4.0152e-10 -7.12798e-11)
(3.94972e-09 9.156e-10 -9.94573e-10)
(3.89188e-09 6.71376e-10 -3.82345e-10)
(2.69572e-09 1.06024e-09 2.52243e-10)
(2.17632e-09 1.22602e-09 -4.49218e-10)
(1.29088e-09 1.02771e-09 -5.6818e-10)
(-5.68673e-10 -2.53168e-09 6.2014e-11)
(1.59191e-10 -3.68696e-09 5.37362e-10)
(2.93265e-09 4.9162e-10 -2.52891e-10)
(3.14878e-09 4.69691e-10 2.00992e-10)
(3.9826e-09 3.27874e-10 -2.39512e-10)
(3.83588e-09 2.19682e-10 -2.42652e-10)
(2.63324e-09 4.03239e-10 3.50775e-11)
(3.93605e-09 7.98621e-10 3.54431e-10)
(1.69051e-09 1.25293e-09 -4.39107e-10)
(-2.79444e-09 -1.21107e-09 -6.17504e-10)
(-1.13463e-10 1.06661e-08 -2.22858e-10)
(-1.43613e-09 5.30171e-10 4.37915e-10)
(-2.17325e-09 1.21771e-09 1.05507e-10)
(-3.74159e-10 5.64237e-10 6.85718e-10)
(2.82727e-09 1.78607e-09 3.60794e-10)
(2.78905e-09 1.38166e-09 7.66856e-11)
(2.47537e-09 9.0505e-10 -1.76932e-10)
(2.12369e-09 9.13642e-10 5.00211e-11)
(1.41966e-09 8.57823e-10 2.7839e-10)
(1.13336e-09 1.47943e-09 1.70526e-10)
(-2.84592e-11 5.47947e-10 5.28818e-10)
(-1.40345e-09 7.74226e-10 4.29498e-10)
(6.11428e-11 9.90234e-10 2.05538e-10)
(2.07402e-09 1.48338e-09 -1.73796e-11)
(2.19322e-09 1.0294e-09 2.53311e-10)
(2.66878e-09 9.74451e-10 -3.27873e-10)
(2.5067e-09 5.99264e-10 8.09974e-11)
(2.02592e-09 7.00119e-10 1.76364e-10)
(1.39027e-09 9.70817e-10 9.24374e-11)
(7.38802e-10 8.54303e-10 6.44078e-10)
(-8.19351e-10 2.65475e-10 3.01247e-10)
(-5.68151e-10 1.5382e-08 7.71534e-10)
(1.44152e-09 5.45545e-10 -4.18668e-11)
(1.69203e-09 5.51712e-10 1.38544e-10)
(2.37161e-09 2.8348e-10 5.38902e-11)
(2.42955e-09 1.39888e-10 1.10877e-10)
(2.51214e-09 4.6351e-11 5.63114e-11)
(1.53166e-09 4.87111e-10 2.30456e-10)
(9.13339e-10 3.72745e-10 1.01654e-10)
(-1.35194e-10 1.46256e-08 -7.86262e-11)
(-5.27451e-09 0.000115611 7.00308e-09)
)
;

boundaryField
{
    inlet
    {
        type            zeroGradient;
    }
    outlet
    {
        type            zeroGradient;
    }
    wall
    {
        type            zeroGradient;
    }
    procBoundary7to0
    {
        type            processor;
        value           uniform (1.34378e-09 2.05733e-09 3.78688e-09);
    }
    procBoundary7to1
    {
        type            processor;
        value           uniform (-1.62503e-09 3.20744e-09 2.37466e-09);
    }
    procBoundary7to3
    {
        type            processor;
        value           nonuniform List<vector> 
36
(
(3.9538e-09 2.14074e-09 1.69576e-09)
(5.8406e-09 1.83319e-09 5.77907e-10)
(7.34032e-09 1.72673e-09 1.01199e-11)
(7.43831e-09 1.61299e-09 -1.25987e-09)
(9.62553e-09 -1.96622e-09 -1.69154e-09)
(1.45075e-09 -3.50205e-09 -3.35168e-09)
(1.03198e-08 -4.02108e-09 -4.50709e-09)
(7.38843e-09 -3.87078e-09 -9.14649e-09)
(2.74339e-09 2.05377e-10 -7.42333e-09)
(3.38233e-09 1.06168e-09 1.46305e-09)
(5.22838e-09 6.45016e-10 -2.88691e-11)
(5.73148e-09 -1.17261e-09 -3.05748e-09)
(7.38236e-09 1.61151e-11 -4.5647e-09)
(6.7276e-09 -8.92071e-10 -3.55125e-09)
(6.93294e-09 -2.70885e-09 -2.82608e-09)
(4.17272e-09 -2.39709e-09 -4.87096e-09)
(2.62992e-09 -3.2037e-09 -1.03549e-08)
(-2.42458e-09 3.3996e-09 -2.25137e-08)
(2.81255e-09 6.11098e-10 1.48891e-09)
(3.46513e-09 3.01761e-10 2.81369e-10)
(4.99208e-09 3.95554e-10 -2.89652e-09)
(4.56228e-09 -5.88798e-10 -3.45633e-09)
(5.71643e-09 -1.42149e-09 -3.78257e-09)
(8.53716e-09 -2.01739e-09 -4.77581e-09)
(7.72039e-09 -3.18047e-09 -7.47406e-09)
(2.28116e-09 -1.76336e-09 -1.53696e-08)
(6.17169e-10 -8.29146e-09 -2.42228e-08)
(1.83247e-09 1.18301e-10 1.32141e-09)
(2.59263e-09 -1.50447e-10 1.24284e-09)
(3.49619e-09 -3.33573e-11 -7.39343e-10)
(3.06899e-09 9.99249e-11 -8.76306e-10)
(4.16371e-09 -1.46571e-09 -4.13474e-09)
(5.1778e-09 -2.65761e-09 -4.65068e-09)
(3.17941e-09 -7.10987e-10 -4.10499e-09)
(2.37056e-09 -2.98517e-09 -1.46507e-08)
(-3.95483e-09 -1.43816e-08 -3.72602e-08)
)
;
    }
    procBoundary7to5
    {
        type            processor;
        value           nonuniform List<vector> 
44
(
(-2.9355e-11 3.13026e-09 2.62977e-09)
(2.3249e-09 3.08267e-09 1.47214e-09)
(3.61084e-09 2.87794e-09 -2.61302e-10)
(2.53849e-09 1.98734e-09 -1.583e-09)
(1.08133e-09 6.07865e-10 -2.81694e-09)
(5.6777e-10 -4.83406e-10 -2.82256e-09)
(3.68618e-10 -2.01456e-10 -6.48733e-09)
(4.21648e-10 -1.7721e-09 -6.30288e-09)
(1.39456e-09 2.32485e-09 1.31404e-09)
(2.1374e-09 1.74811e-09 3.13182e-10)
(2.26324e-09 1.68806e-09 1.87805e-09)
(2.58784e-09 1.55129e-09 -1.57632e-10)
(1.19008e-09 8.20224e-10 -9.35674e-10)
(-3.72808e-10 7.59124e-10 -1.5043e-09)
(-1.63623e-09 6.06975e-11 -2.11518e-09)
(-1.14095e-09 3.5654e-09 -2.33527e-09)
(1.29651e-09 2.9955e-09 -2.26893e-09)
(1.39456e-09 2.32485e-09 1.31404e-09)
(2.1374e-09 1.74811e-09 3.13182e-10)
(2.1374e-09 1.74811e-09 3.13182e-10)
(2.87218e-09 1.62823e-09 -4.47354e-10)
(2.55596e-09 1.53013e-09 -6.42315e-10)
(3.73551e-10 4.58615e-10 -1.3607e-10)
(-8.81093e-10 8.65813e-10 -5.17004e-10)
(-2.18731e-09 8.86585e-10 -5.38718e-10)
(-2.24957e-09 2.08925e-09 6.25222e-10)
(-2.3356e-10 2.83501e-09 -4.79118e-10)
(3.06302e-09 2.11216e-09 9.06557e-10)
(2.66067e-09 1.90439e-09 1.91337e-10)
(2.87218e-09 1.62823e-09 -4.47354e-10)
(2.55596e-09 1.53013e-09 -6.42315e-10)
(2.55596e-09 1.53013e-09 -6.42315e-10)
(4.83866e-10 7.56057e-10 1.74324e-10)
(-5.07052e-10 1.49362e-10 2.27943e-10)
(-1.57111e-09 9.27513e-10 9.75921e-11)
(-1.80873e-09 1.69069e-09 4.40703e-10)
(-5.32191e-10 2.66386e-09 2.81836e-10)
(2.60389e-09 1.39249e-09 1.56668e-10)
(2.01426e-09 1.23012e-09 -1.2414e-11)
(4.98867e-09 1.44988e-08 -1.38905e-10)
(1.55199e-09 6.49704e-10 -1.59394e-10)
(4.83866e-10 7.56057e-10 1.74324e-10)
(-5.07052e-10 1.49362e-10 2.27943e-10)
(-5.07052e-10 1.49362e-10 2.27943e-10)
)
;
    }
    procBoundary7to6
    {
        type            processor;
        value           nonuniform List<vector> 
12
(
(1.09473e-09 2.04388e-09 2.37192e-09)
(2.02473e-09 1.39662e-09 1.85669e-09)
(1.05288e-09 3.11051e-10 1.17298e-09)
(1.99873e-09 1.66615e-09 1.31402e-09)
(2.6237e-09 1.14348e-09 1.20315e-09)
(2.07876e-09 4.26926e-10 1.08253e-09)
(2.36976e-09 1.71041e-09 1.04787e-09)
(3.17029e-09 1.63456e-09 5.18594e-10)
(2.01602e-09 8.68714e-10 2.11109e-10)
(3.1213e-09 1.53414e-09 1.0033e-09)
(2.61248e-09 1.6127e-09 1.47344e-10)
(1.28022e-09 7.10753e-10 7.31493e-11)
)
;
    }
}


// ************************************************************************* //
