/*--------------------------------*- C++ -*----------------------------------*\
| =========                 |                                                 |
| \\      /  F ield         | OpenFOAM: The Open Source CFD Toolbox           |
|  \\    /   O peration     | Version:  4.x                                   |
|   \\  /    A nd           | Web:      www.OpenFOAM.org                      |
|    \\/     M anipulation  |                                                 |
\*---------------------------------------------------------------------------*/
FoamFile
{
    version     2.0;
    format      ascii;
    class       volVectorField;
    location    "50";
    object      ddtUrel;
}
// * * * * * * * * * * * * * * * * * * * * * * * * * * * * * * * * * * * * * //

dimensions      [0 1 -2 0 0 0 0];

internalField   nonuniform List<vector> 
132
(
(-3.06429e-11 1.92547e-10 1.97489e-10)
(3.55043e-11 2.04415e-10 2.12703e-10)
(2.04452e-10 1.69461e-10 1.80318e-10)
(-1.72556e-10 -1.14416e-10 -1.10402e-10)
(-1.1341e-09 -1.88336e-10 -1.57268e-10)
(-2.47159e-09 -1.88952e-10 -1.0721e-10)
(-5.13369e-09 -1.96998e-10 -2.52958e-11)
(-1.09138e-08 -2.44585e-10 1.06045e-10)
(-2.53864e-08 -3.61256e-10 3.98125e-10)
(4.04535e-12 2.07977e-10 1.56963e-10)
(6.61001e-11 2.18238e-10 1.52908e-10)
(1.53175e-10 1.49015e-10 8.81626e-11)
(-1.65258e-10 -1.30479e-10 -6.57054e-11)
(-8.91481e-10 -2.075e-10 -1.22424e-10)
(-2.03395e-09 -2.05545e-10 -9.82029e-11)
(-4.11214e-09 -2.06457e-10 -4.37692e-11)
(-8.16784e-09 -2.51316e-10 4.14253e-11)
(-1.66429e-08 -3.46125e-10 2.02094e-10)
(1.20292e-11 1.92272e-10 1.07195e-10)
(4.79294e-11 1.75158e-10 9.13894e-11)
(3.20601e-11 1.04054e-10 4.46463e-11)
(-2.01686e-10 -7.7152e-11 -2.86112e-11)
(-6.94931e-10 -1.74783e-10 -7.42506e-11)
(-1.48552e-09 -1.94908e-10 -7.96356e-11)
(-2.8683e-09 -2.12402e-10 -6.143e-11)
(-5.19277e-09 -2.65966e-10 -2.7139e-11)
(-9.23361e-09 -3.71634e-10 3.01981e-11)
(-1.04297e-11 1.52416e-10 6.44036e-11)
(3.82029e-13 1.19735e-10 4.93065e-11)
(-5.18906e-11 5.79758e-11 2.14436e-11)
(1.13754e-11 1.51453e-10 2.15588e-10)
(7.07676e-11 1.47965e-10 2.28792e-10)
(1.30165e-10 8.23204e-11 1.59157e-10)
(-1.14627e-10 -7.89497e-11 -1.35199e-10)
(-8.43956e-10 -1.45023e-10 -1.80606e-10)
(-1.94814e-09 -1.638e-10 -1.30551e-10)
(-3.9312e-09 -1.88261e-10 -6.25701e-11)
(-7.83794e-09 -2.43854e-10 3.42248e-11)
(-1.57536e-08 -3.53704e-10 1.94566e-10)
(3.02569e-11 1.66021e-10 1.68619e-10)
(8.77093e-11 1.65315e-10 1.67957e-10)
(1.24715e-10 9.16077e-11 9.77341e-11)
(-1.13541e-10 -7.98819e-11 -7.56632e-11)
(-7.04977e-10 -1.64523e-10 -1.40047e-10)
(-1.63149e-09 -1.80505e-10 -1.19374e-10)
(-3.2035e-09 -2.00392e-10 -7.35891e-11)
(-6.02746e-09 -2.56734e-10 -1.09156e-11)
(-1.11229e-08 -3.6749e-10 8.12958e-11)
(2.90799e-11 1.51185e-10 1.11423e-10)
(6.08714e-11 1.40502e-10 9.84413e-11)
(4.47472e-11 6.8771e-11 4.70529e-11)
(-1.40286e-10 -5.72808e-11 -3.43728e-11)
(-5.47863e-10 -1.4133e-10 -8.5417e-11)
(-1.20295e-09 -1.76487e-10 -9.26933e-11)
(-2.26566e-09 -2.08862e-10 -8.1158e-11)
(-3.97028e-09 -2.75613e-10 -5.91168e-11)
(-6.63131e-09 -4.00489e-10 -3.34823e-11)
(8.89369e-12 1.21963e-10 6.62622e-11)
(1.87895e-11 1.01137e-10 5.21108e-11)
(-1.50088e-11 4.49558e-11 2.12091e-11)
(-1.51276e-10 -3.86017e-11 -2.0576e-11)
(-4.14762e-10 -1.05735e-10 -5.47853e-11)
(4.0662e-11 9.73392e-11 1.79095e-10)
(6.79929e-11 8.29939e-11 1.69625e-10)
(5.77791e-11 3.68807e-11 9.98864e-11)
(-1.45e-10 -4.07195e-11 -6.53559e-11)
(-6.03521e-10 -9.72772e-11 -1.33973e-10)
(-1.35927e-09 -1.32512e-10 -1.22025e-10)
(-2.61697e-09 -1.75598e-10 -8.54427e-11)
(-4.79108e-09 -2.49272e-10 -3.47362e-11)
(-8.43976e-09 -3.74906e-10 2.88049e-11)
(4.58666e-11 1.08191e-10 1.48162e-10)
(7.09242e-11 9.47376e-11 1.36435e-10)
(5.91599e-11 4.30788e-11 7.28121e-11)
(-1.17631e-10 -4.2862e-11 -4.53832e-11)
(-5.10959e-10 -1.07699e-10 -1.15242e-10)
(-1.15504e-09 -1.45355e-10 -1.16079e-10)
(-2.18335e-09 -1.8872e-10 -9.41357e-11)
(-3.84521e-09 -2.65497e-10 -6.15866e-11)
(-6.40766e-09 -4.05946e-10 -2.77741e-11)
(3.49447e-11 1.0206e-10 1.001e-10)
(4.85688e-11 8.76861e-11 8.62133e-11)
(2.56524e-11 3.82668e-11 3.9818e-11)
(-1.15345e-10 -3.86263e-11 -3.02535e-11)
(-4.04714e-10 -1.04155e-10 -8.06068e-11)
(-8.76517e-10 -1.49103e-10 -9.53219e-11)
(-1.59408e-09 -2.02804e-10 -9.55207e-11)
(-2.65601e-09 -2.93287e-10 -8.91503e-11)
(-4.12459e-09 -4.57541e-10 -9.01779e-11)
(1.55667e-11 8.53289e-11 6.01232e-11)
(2.04056e-11 7.02498e-11 4.7232e-11)
(-7.65703e-12 2.84705e-11 1.73536e-11)
(-1.12542e-10 -3.13695e-11 -2.25322e-11)
(-3.08467e-10 -8.98087e-11 -5.76257e-11)
(-6.20205e-10 -1.42983e-10 -7.85137e-11)
(-1.07118e-09 -2.12201e-10 -9.49201e-11)
(3.65633e-11 5.66912e-11 1.27206e-10)
(4.51586e-11 4.25984e-11 1.09545e-10)
(1.35244e-11 1.37894e-11 5.77099e-11)
(-1.31809e-10 -3.00934e-11 -3.02092e-11)
(-4.13556e-10 -7.28152e-11 -8.69518e-11)
(-8.75805e-10 -1.14782e-10 -1.00664e-10)
(-1.60729e-09 -1.72533e-10 -9.39157e-11)
(-2.70959e-09 -2.64467e-10 -7.83278e-11)
(-4.29069e-09 -4.16439e-10 -6.67073e-11)
(3.87335e-11 6.20504e-11 1.10112e-10)
(4.74067e-11 4.83234e-11 9.39358e-11)
(1.92212e-11 1.57896e-11 4.53054e-11)
(-1.02617e-10 -3.19949e-11 -2.77454e-11)
(-3.51045e-10 -7.91715e-11 -8.02746e-11)
(-7.5395e-10 -1.24687e-10 -9.70323e-11)
(-1.36333e-09 -1.86922e-10 -9.76818e-11)
(-2.24611e-09 -2.8748e-10 -9.17708e-11)
(-3.43426e-09 -4.58603e-10 -9.38423e-11)
(2.75319e-11 6.24362e-11 7.97528e-11)
(3.2937e-11 4.80913e-11 6.37808e-11)
(7.15071e-12 1.52692e-11 2.71743e-11)
(-9.16026e-11 -3.26565e-11 -2.44606e-11)
(-2.83228e-10 -8.26458e-11 -6.57159e-11)
(-5.91664e-10 -1.34504e-10 -8.61571e-11)
(-1.03172e-09 -2.08026e-10 -9.76231e-11)
(-1.62492e-09 -3.28031e-10 -1.06928e-10)
(-2.35106e-09 -5.35057e-10 -1.27914e-10)
(1.34323e-11 5.40627e-11 4.86454e-11)
(1.58948e-11 4.34168e-11 3.7896e-11)
(-6.52224e-12 1.35573e-11 1.3149e-11)
(-8.20412e-11 -2.98233e-11 -2.12049e-11)
(-2.17433e-10 -8.01142e-11 -5.30244e-11)
(-4.31079e-10 -1.38502e-10 -7.62095e-11)
(-7.15336e-10 -2.28026e-10 -9.73238e-11)
(-1.06442e-09 -3.75003e-10 -1.21585e-10)
(-1.43045e-09 -6.34348e-10 -1.64013e-10)
)
;

boundaryField
{
    inlet
    {
        type            calculated;
        value           nonuniform List<vector> 
16
(
(-4.93588e-10 2.32965e-10 2.17916e-10)
(-2.56303e-10 3.99181e-10 1.66803e-10)
(-2.61781e-10 4.50376e-10 1.38168e-10)
(-9.33774e-12 3.43869e-10 7.29954e-11)
(-2.04844e-10 1.56874e-10 4.84152e-10)
(-3.85871e-11 3.04195e-10 3.03975e-10)
(-4.88659e-11 2.52583e-10 1.71121e-10)
(-1.54086e-11 2.28701e-10 1.06555e-10)
(2.89415e-11 6.67547e-11 3.53154e-10)
(2.8503e-11 1.66126e-10 2.93776e-10)
(5.85855e-13 1.49908e-10 1.49987e-10)
(1.39703e-11 1.33341e-10 8.28909e-11)
(1.00162e-11 4.20244e-11 2.18414e-10)
(4.35067e-11 6.667e-11 2.02293e-10)
(-6.24738e-11 9.94825e-11 1.53243e-10)
(-3.40718e-11 6.56231e-11 6.18213e-11)
)
;
    }
    outlet
    {
        type            calculated;
        value           nonuniform 0();
    }
    wall
    {
        type            calculated;
        value           nonuniform List<vector> 
66
(
(-5.06071e-10 2.32972e-10 2.17889e-10)
(-2.54624e-10 3.9846e-10 1.65142e-10)
(-1.4976e-10 4.47029e-10 1.27526e-10)
(6.73702e-12 3.43454e-10 7.06704e-11)
(-5.35451e-10 4.85359e-10 5.02984e-10)
(6.25277e-11 8.10836e-10 3.11984e-10)
(2.00577e-10 4.93353e-10 1.13316e-10)
(8.47555e-11 2.2498e-10 2.71e-11)
(2.29706e-09 1.30257e-09 1.36523e-09)
(1.6119e-09 1.07869e-09 2.04041e-10)
(4.03897e-10 5.69645e-10 6.76722e-11)
(-6.49371e-11 1.47346e-10 2.43511e-11)
(1.44966e-09 -8.54682e-10 -9.57511e-10)
(9.92005e-10 -1.15333e-09 -3.22039e-10)
(2.32467e-10 -3.68183e-10 -1.90333e-11)
(-1.74162e-09 -5.05235e-10 -5.00819e-10)
(-2.99356e-10 -7.55758e-10 -3.61902e-10)
(-4.45676e-10 -6.1972e-10 -9.10089e-11)
(-1.39899e-09 -1.98253e-10 -1.59682e-10)
(-9.18197e-10 -3.62125e-10 -1.48547e-10)
(-4.88121e-10 -3.42061e-10 -9.08371e-11)
(-2.8926e-09 -7.51977e-11 1.94245e-11)
(-2.13739e-09 -8.63325e-11 -1.72688e-11)
(-1.89933e-09 -1.49935e-10 -3.21601e-11)
(-6.00212e-10 -1.23643e-11 4.21907e-12)
(-2.67004e-09 -5.19856e-12 2.75958e-11)
(-2.25039e-09 -7.1868e-11 -1.88881e-11)
(-1.42432e-09 -3.16009e-11 3.09009e-11)
(-1.06646e-08 2.44914e-10 2.46979e-10)
(-5.80609e-09 4.47229e-11 7.6469e-11)
(-4.97909e-10 2.32729e-10 2.17851e-10)
(-2.25894e-10 1.56952e-10 4.85453e-10)
(2.55262e-11 6.65818e-11 3.53163e-10)
(-3.46687e-12 4.19869e-11 2.18826e-10)
(-5.19773e-10 4.84925e-10 5.02323e-10)
(1.50046e-10 3.20342e-10 9.137e-10)
(2.15384e-10 7.14361e-11 4.69857e-10)
(1.39416e-10 1.20055e-11 2.19943e-10)
(9.39664e-10 1.30197e-09 1.42728e-09)
(1.10731e-09 2.30125e-10 1.19264e-09)
(5.57004e-10 4.78235e-11 4.39267e-10)
(3.03593e-10 1.69595e-11 1.66114e-10)
(1.48035e-09 -8.55499e-10 -9.58529e-10)
(1.65156e-09 -4.00238e-10 -1.41118e-09)
(4.62723e-10 -2.48211e-11 -3.34029e-10)
(1.61035e-10 -1.43508e-11 -7.28465e-11)
(-1.78455e-09 -5.07201e-10 -4.99502e-10)
(2.00379e-11 -2.62918e-10 -8.27826e-10)
(1.97324e-10 -7.35573e-11 -4.52977e-10)
(1.09212e-10 -2.90606e-11 -1.97458e-10)
(-1.23869e-09 -1.9893e-10 -1.64961e-10)
(-3.10474e-10 -1.2766e-10 -3.20369e-10)
(-8.66935e-11 -4.0092e-11 -2.5574e-10)
(3.69635e-11 -2.06075e-11 -1.88248e-10)
(-2.30485e-09 -7.92398e-11 -1.71988e-12)
(-2.09752e-10 -7.8295e-11 -1.67076e-10)
(-4.69698e-11 -2.21457e-11 -1.49171e-10)
(-2.59812e-10 -1.56304e-11 -1.65023e-10)
(-1.01624e-09 -2.22614e-11 1.82076e-11)
(-4.38067e-10 -2.66761e-11 -3.93735e-11)
(-8.89334e-11 -1.52483e-11 -6.93502e-11)
(4.35264e-11 7.0089e-12 -1.3116e-10)
(-1.00452e-09 -3.22394e-11 1.54781e-11)
(3.47119e-09 4.59091e-11 -9.16745e-11)
(1.66934e-09 4.09006e-11 -1.55264e-10)
(4.75287e-10 3.23417e-11 -1.90538e-10)
)
;
    }
    procBoundary0to1
    {
        type            processor;
        value           nonuniform List<vector> 
12
(
(-6.48588e-08 -6.06167e-10 1.18746e-09)
(-3.26107e-08 -5.27155e-10 5.03071e-10)
(-1.48895e-08 -5.64555e-10 1.0696e-10)
(-3.12245e-08 -5.45339e-10 5.07165e-10)
(-1.89637e-08 -5.56554e-10 2.2188e-10)
(-9.93879e-09 -6.21478e-10 -5.51876e-12)
(-1.38996e-08 -5.83459e-10 1.25859e-10)
(-9.6766e-09 -6.32362e-10 1.23836e-11)
(-5.72106e-09 -7.4079e-10 -1.04025e-10)
(-6.17875e-09 -6.69051e-10 -5.49238e-11)
(-4.67589e-09 -7.47641e-10 -1.07844e-10)
(-3.00424e-09 -8.99197e-10 -1.72593e-10)
)
;
    }
    procBoundary0to2
    {
        type            processor;
        value           nonuniform List<vector> 
44
(
(-2.09002e-10 -4.23414e-11 -1.64898e-11)
(-5.37989e-10 -1.1921e-10 -4.62297e-11)
(-1.02861e-09 -1.67432e-10 -6.48129e-11)
(-1.85569e-09 -2.13222e-10 -7.25058e-11)
(-3.06947e-09 -2.90764e-10 -7.8395e-11)
(-4.86344e-09 -4.24857e-10 -7.94287e-11)
(-8.33276e-11 1.14262e-10 3.32639e-11)
(-4.61489e-11 7.74261e-11 2.52686e-11)
(-2.09002e-10 -4.23414e-11 -1.64898e-11)
(-8.7922e-11 2.96373e-11 9.58514e-12)
(-2.09002e-10 -4.23414e-11 -1.64898e-11)
(-5.37989e-10 -1.1921e-10 -4.62297e-11)
(-8.31459e-10 -1.57761e-10 -7.35898e-11)
(-1.47721e-09 -2.13405e-10 -8.56167e-11)
(-2.39639e-09 -3.05342e-10 -9.67403e-11)
(-3.65099e-09 -4.66103e-10 -1.11303e-10)
(-2.71394e-11 8.52946e-11 3.27615e-11)
(-2.02574e-11 6.68001e-11 2.62377e-11)
(-5.0726e-11 2.45175e-11 9.77391e-12)
(-1.42743e-10 -3.19032e-11 -1.41104e-11)
(-8.31459e-10 -1.57761e-10 -7.35898e-11)
(-3.12151e-10 -8.70184e-11 -3.75339e-11)
(-8.31459e-10 -1.57761e-10 -7.35898e-11)
(-1.47721e-09 -2.13405e-10 -8.56167e-11)
(-1.67562e-09 -3.34359e-10 -1.12883e-10)
(-2.41151e-09 -5.44386e-10 -1.4238e-10)
(-6.65978e-12 6.23253e-11 3.18769e-11)
(-4.59697e-12 4.91919e-11 2.3826e-11)
(-2.93619e-11 1.63157e-11 6.58951e-12)
(-1.00475e-10 -2.99105e-11 -1.76872e-11)
(-2.28824e-10 -8.09291e-11 -4.27128e-11)
(-4.23604e-10 -1.42558e-10 -6.46641e-11)
(-1.67562e-09 -3.34359e-10 -1.12883e-10)
(-6.82527e-10 -2.29995e-10 -9.17155e-11)
(-1.67562e-09 -3.34359e-10 -1.12883e-10)
(-2.41151e-09 -5.44386e-10 -1.4238e-10)
(3.27112e-13 4.25041e-11 2.67988e-11)
(1.99365e-12 3.29258e-11 1.90757e-11)
(-1.5589e-11 8.24725e-12 2.64653e-12)
(-6.75782e-11 -3.00149e-11 -1.96154e-11)
(-1.58931e-10 -7.88248e-11 -4.38518e-11)
(-2.96205e-10 -1.45645e-10 -6.63495e-11)
(-4.62708e-10 -2.53091e-10 -9.42825e-11)
(-6.48435e-10 -4.34218e-10 -1.30311e-10)
)
;
    }
    procBoundary0to4
    {
        type            processor;
        value           nonuniform List<vector> 
36
(
(2.24042e-11 2.92501e-11 8.06494e-11)
(2.29323e-11 1.97914e-11 6.5231e-11)
(-1.01675e-11 3.44839e-13 3.04905e-11)
(-1.01976e-10 -2.86948e-11 -1.6569e-11)
(-2.75986e-10 -6.36577e-11 -5.61805e-11)
(-5.41506e-10 -1.09463e-10 -7.59579e-11)
(-9.39112e-10 -1.79069e-10 -8.43604e-11)
(-1.47955e-09 -2.91486e-10 -8.82007e-11)
(-2.14521e-09 -4.74823e-10 -9.81098e-11)
(2.53e-11 3.27213e-11 7.19595e-11)
(2.61578e-11 2.26004e-11 5.88121e-11)
(3.1111e-13 1.01687e-12 2.62686e-11)
(-8.15582e-11 -3.03393e-11 -1.74587e-11)
(-2.32366e-10 -6.8891e-11 -5.48685e-11)
(-4.71611e-10 -1.18472e-10 -7.59521e-11)
(-8.11094e-10 -1.94583e-10 -8.8944e-11)
(-1.25532e-09 -3.19354e-10 -9.86026e-11)
(-1.77156e-09 -5.27186e-10 -1.18051e-10)
(1.93692e-11 3.4005e-11 5.4201e-11)
(2.10978e-11 2.38728e-11 4.31436e-11)
(-1.25007e-13 1.38537e-12 1.66757e-11)
(-6.90047e-11 -3.18382e-11 -1.79777e-11)
(-1.89036e-10 -7.46919e-11 -4.98752e-11)
(-3.7911e-10 -1.31778e-10 -7.13326e-11)
(-6.28506e-10 -2.21784e-10 -9.04724e-11)
(-9.37152e-10 -3.72242e-10 -1.10754e-10)
(-1.25596e-09 -6.30341e-10 -1.45299e-10)
(1.03198e-11 3.15421e-11 3.45941e-11)
(1.30803e-11 2.33666e-11 2.68865e-11)
(-2.77682e-12 2.1336e-12 8.28285e-12)
(-5.48353e-11 -3.16055e-11 -1.77221e-11)
(-1.43026e-10 -7.76774e-11 -4.47112e-11)
(-2.79599e-10 -1.44241e-10 -6.71754e-11)
(-4.41786e-10 -2.52455e-10 -9.15722e-11)
(-6.24914e-10 -4.37545e-10 -1.2312e-10)
(-7.69772e-10 -7.67878e-10 -1.76138e-10)
)
;
    }
    procBoundary0to6
    {
        type            processor;
        value           uniform (-7.86809e-10 -7.55982e-10 -1.89471e-10);
    }
    procBoundary0to7
    {
        type            processor;
        value           uniform (-1.68243e-09 -1.105e-09 -2.38966e-10);
    }
}


// ************************************************************************* //
