/*--------------------------------*- C++ -*----------------------------------*\
| =========                 |                                                 |
| \\      /  F ield         | OpenFOAM: The Open Source CFD Toolbox           |
|  \\    /   O peration     | Version:  4.x                                   |
|   \\  /    A nd           | Web:      www.OpenFOAM.org                      |
|    \\/     M anipulation  |                                                 |
\*---------------------------------------------------------------------------*/
FoamFile
{
    version     2.0;
    format      ascii;
    class       volScalarField;
    location    "50";
    object      p_rgh;
}
// * * * * * * * * * * * * * * * * * * * * * * * * * * * * * * * * * * * * * //

dimensions      [1 -1 -2 0 0 0 0];

internalField   nonuniform List<scalar> 
132
(
109.045
92.9031
103.648
72.4112
93.7473
55.7557
87.5877
37.5419
81.1206
109.052
92.4513
102.387
73.8271
94.4232
55.799
87.6964
37.3793
81.093
109.261
92.4857
102.447
74.4903
95.1797
56.2071
88.2321
37.9524
81.5352
109.068
92.1682
102.257
109.657
92.9145
102.934
74.1685
94.9453
56.1117
88.2181
37.8477
81.5964
109.852
92.781
102.944
74.497
95.3981
56.1386
88.4322
37.6416
81.658
110.229
92.9384
103.342
74.9136
96.1131
56.533
89.0273
38.0078
82.1491
110.037
92.5772
103.093
74.7668
95.8896
109.984
92.7893
102.867
74.6915
95.3327
56.3528
88.1957
37.785
81.3477
110.342
92.8786
103.204
74.814
95.7091
56.3423
88.4627
37.5963
81.4086
110.866
93.2149
103.823
75.2672
96.3208
56.8032
88.8794
38.3129
81.7815
110.893
93.1588
103.793
75.175
96.2642
56.6542
88.7598
110.502
93.2395
103.487
75.3176
96.2002
57.0727
88.9458
38.822
82.1348
110.99
93.4314
103.901
75.3907
96.519
57.1553
89.2438
38.6725
82.1948
111.57
93.9362
104.59
75.9853
97.1086
57.8728
89.3583
39.9675
82.0405
111.426
93.7113
104.298
75.5777
96.6759
57.2941
89.097
38.7581
81.9761
)
;

boundaryField
{
    inlet
    {
        type            fixedFluxPressure;
        gradient        nonuniform List<scalar> 
16
(
1.46061e-06
3.53522e-07
-8.40128e-07
-3.90022e-07
6.48748e-07
-1.03364e-07
-2.58422e-07
-3.92309e-07
-1.93716e-07
-3.16205e-07
-3.13526e-07
-2.29345e-07
-1.91587e-07
-2.69243e-07
-4.4799e-07
-2.13852e-07
)
;
        value           nonuniform List<scalar> 
16
(
109.045
109.052
109.261
109.068
109.657
109.852
110.229
110.037
109.984
110.342
110.866
110.893
110.502
110.99
111.57
111.426
)
;
    }
    outlet
    {
        type            fixedValue;
        value           nonuniform 0();
    }
    wall
    {
        type            fixedFluxPressure;
        gradient        nonuniform List<scalar> 
66
(
-1.6125e-06
-1.40055e-06
-1.25247e-06
-6.42954e-07
-7.52516e-06
-5.87265e-06
-3.27754e-06
-1.67776e-06
-8.40463e-06
-2.12722e-06
-1.32571e-06
-7.19335e-07
8.94321e-06
1.97004e-06
-2.20303e-06
2.1685e-06
9.67747e-07
-1.28523e-06
-9.63676e-07
-2.34279e-06
-3.19435e-06
-3.82561e-06
-3.73321e-06
-3.81932e-06
-1.57556e-07
-1.42849e-05
-1.6011e-05
-2.0995e-06
-2.13958e-05
-1.32804e-05
-1.68119e-06
-1.21703e-06
-5.46876e-07
-4.38582e-07
-6.93818e-06
-5.68748e-06
-1.54123e-06
-7.86223e-07
-1.54561e-05
-1.92032e-06
-4.95783e-07
-1.57405e-07
8.14348e-06
5.22551e-06
6.28662e-08
-3.56776e-07
1.87104e-06
1.4316e-06
2.99091e-07
-2.68542e-08
6.92088e-07
8.75606e-07
-8.70918e-07
-7.24557e-07
-1.42011e-06
6.75247e-07
1.01715e-07
-7.73251e-07
-3.67821e-06
-2.59862e-06
-8.49563e-07
-2.50237e-07
-5.59709e-07
8.17173e-06
3.8613e-06
1.31184e-06
)
;
        value           nonuniform List<scalar> 
66
(
109.045
109.052
109.261
109.068
92.9031
92.4513
92.4857
92.1682
103.648
102.387
102.447
102.257
72.4112
73.8271
74.4903
93.7473
94.4232
95.1797
55.7557
55.799
56.2071
87.5877
87.6964
88.2321
37.5419
37.3793
37.9524
81.1206
81.093
81.5352
109.045
109.657
109.984
110.502
92.9031
92.9145
92.7893
93.2395
103.648
102.934
102.867
103.487
72.4112
74.1685
74.6915
75.3176
93.7473
94.9453
95.3327
96.2002
55.7557
56.1117
56.3528
57.0727
87.5877
88.2181
88.1957
88.9458
37.5419
37.8477
37.785
38.822
81.1206
81.5964
81.3477
82.1348
)
;
    }
    procBoundary0to1
    {
        type            processor;
        value           nonuniform List<scalar> 
12
(
19.1451
18.5761
19.3142
19.3849
18.9182
19.5951
19.1369
18.5923
20.1154
20.5525
20.3414
22.5433
)
;
    }
    procBoundary0to2
    {
        type            processor;
        value           nonuniform List<scalar> 
44
(
74.432
95.0505
56.0321
87.975
37.3013
81.2201
109.264
92.2791
74.432
102.521
74.432
95.0505
56.2306
88.5683
37.3113
81.616
110.13
92.8143
103.349
74.9093
56.2306
96.2449
56.2306
88.5683
37.9289
81.6281
110.984
93.303
104.061
75.5897
96.7059
57.5539
37.9289
89.2287
37.9289
81.6281
111.584
93.7723
104.426
75.7095
96.9498
57.4925
89.4623
39.2002
)
;
    }
    procBoundary0to4
    {
        type            processor;
        value           nonuniform List<scalar> 
36
(
110.638
93.2435
103.48
75.3536
96.0375
57.1054
88.6766
38.5558
81.5514
111.215
93.4813
104.023
75.5283
96.4304
57.1377
88.9767
38.6424
81.8515
111.824
93.937
104.54
76.0027
96.8414
57.7366
89.2887
39.432
81.879
111.837
94.0285
104.633
76.0974
97.0102
57.8616
89.3126
39.5007
81.7718
)
;
    }
    procBoundary0to6
    {
        type            processor;
        value           uniform 82.1181;
    }
    procBoundary0to7
    {
        type            processor;
        value           uniform 20.778;
    }
}


// ************************************************************************* //
