/*--------------------------------*- C++ -*----------------------------------*\
| =========                 |                                                 |
| \\      /  F ield         | OpenFOAM: The Open Source CFD Toolbox           |
|  \\    /   O peration     | Version:  4.x                                   |
|   \\  /    A nd           | Web:      www.OpenFOAM.org                      |
|    \\/     M anipulation  |                                                 |
\*---------------------------------------------------------------------------*/
FoamFile
{
    version     2.0;
    format      ascii;
    class       volScalarField;
    location    "50";
    object      pSmooth;
}
// * * * * * * * * * * * * * * * * * * * * * * * * * * * * * * * * * * * * * //

dimensions      [1 -1 -2 0 0 0 0];

internalField   nonuniform List<scalar> 
132
(
108.093
91.4972
101.504
74.1764
94.7406
56.1933
87.7949
37.6338
81.1632
108.313
91.6323
101.708
74.1417
94.8523
56.0758
87.8587
37.4595
81.1369
108.745
92.0257
102.154
74.4387
95.2783
56.3216
88.3284
38.0118
81.5784
108.698
91.8754
102.06
108.921
92.0961
102.253
74.485
95.3748
56.3864
88.3757
37.9213
81.6328
109.256
92.1976
102.541
74.5493
95.6146
56.317
88.5551
37.7041
81.6948
109.794
92.5531
103.087
74.8386
96.1597
56.6061
89.0984
38.0521
82.1831
109.732
92.3151
102.908
74.6598
95.8616
109.487
92.3357
102.573
74.639
95.4284
56.4605
88.2775
37.8235
81.3669
109.913
92.496
102.95
74.7383
95.7543
56.4111
88.5259
37.6282
81.4282
110.522
92.9126
103.606
75.1617
96.2983
56.8166
88.9044
38.325
81.7944
110.635
92.9294
103.62
75.0615
96.2121
56.6299
88.7634
110.171
92.9515
103.287
75.2048
96.1746
57.0825
88.9707
38.8297
82.1375
110.69
93.1675
103.712
75.2805
96.4858
57.1532
89.2621
38.6786
82.1992
111.308
93.7025
104.413
75.8685
97.0539
57.8439
89.3585
39.9546
82.0411
111.219
93.5228
104.154
75.4707
96.6202
57.2601
89.0882
38.7564
81.9758
)
;

boundaryField
{
    inlet
    {
        type            zeroGradient;
    }
    outlet
    {
        type            fixedValue;
        value           nonuniform 0();
    }
    wall
    {
        type            zeroGradient;
    }
    procBoundary0to1
    {
        type            processor;
        value           nonuniform List<scalar> 
12
(
19.1291
18.5698
19.315
19.3745
18.9139
19.5996
19.1209
18.5825
20.1021
20.5312
20.3232
22.5199
)
;
    }
    procBoundary0to2
    {
        type            processor;
        value           nonuniform List<scalar> 
44
(
74.3232
95.0309
56.0533
88.0279
37.3609
81.2691
109.075
92.0806
74.3232
102.359
74.3232
95.0309
56.2358
88.6027
37.3416
81.6493
109.92
92.6191
103.193
74.795
56.2358
96.1786
56.2358
88.6027
37.9267
81.6398
110.777
93.1137
103.902
75.47
96.6244
57.4993
37.9267
89.2052
37.9267
81.6398
111.403
93.6051
104.286
75.5946
96.8728
57.4313
89.4329
39.1697
)
;
    }
    procBoundary0to4
    {
        type            processor;
        value           nonuniform List<scalar> 
36
(
110.396
93.0275
103.311
75.2322
95.9675
57.0661
88.6614
38.5387
81.539
110.988
93.2773
103.862
75.4116
96.3615
57.0978
88.9596
38.6279
81.8365
111.61
93.7417
104.379
75.8798
96.7605
57.6789
89.2585
39.3994
81.8649
111.656
93.8626
104.495
75.9922
96.9354
57.8191
89.278
39.4977
81.7472
)
;
    }
    procBoundary0to6
    {
        type            processor;
        value           uniform 82.1148;
    }
    procBoundary0to7
    {
        type            processor;
        value           uniform 20.7924;
    }
}


// ************************************************************************* //
