/*--------------------------------*- C++ -*----------------------------------*\
| =========                 |                                                 |
| \\      /  F ield         | OpenFOAM: The Open Source CFD Toolbox           |
|  \\    /   O peration     | Version:  4.x                                   |
|   \\  /    A nd           | Web:      www.OpenFOAM.org                      |
|    \\/     M anipulation  |                                                 |
\*---------------------------------------------------------------------------*/
FoamFile
{
    version     2.0;
    format      ascii;
    class       volVectorField;
    location    "11";
    object      DDtUrel;
}
// * * * * * * * * * * * * * * * * * * * * * * * * * * * * * * * * * * * * * //

dimensions      [0 1 -2 0 0 0 0];

internalField   nonuniform List<vector> 
132
(
(0.00194754 -8.42932e-05 -0.000218357)
(0.00135857 -4.91655e-05 -0.000116545)
(0.00100945 -2.2615e-05 -2.33283e-05)
(0.000807145 -1.03036e-05 5.37e-05)
(0.000646845 -9.81141e-06 0.000116861)
(0.000513485 -2.30115e-05 0.000174928)
(0.000354671 -4.11709e-05 0.0002115)
(0.00022959 -4.99076e-05 0.000242941)
(8.21489e-05 -4.77376e-05 0.000227682)
(0.00190334 -8.21264e-05 -0.000221054)
(0.00129931 -4.38101e-05 -0.000116309)
(0.000941293 -1.80471e-05 -2.211e-05)
(0.00072868 -7.04226e-06 5.47506e-05)
(0.000552179 -7.81591e-06 0.000118325)
(0.000400889 -2.46719e-05 0.000175444)
(0.000226139 -4.23756e-05 0.000198325)
(8.98595e-05 -4.99232e-05 0.000207426)
(-4.36112e-05 -3.91687e-05 0.000160567)
(0.00186193 -5.85229e-05 -0.000222668)
(0.00124569 -2.96377e-05 -0.000114597)
(0.00087611 -1.24476e-05 -1.87673e-05)
(0.000647012 -2.52742e-06 6.0378e-05)
(0.000453072 -2.92537e-06 0.000120846)
(0.000287909 -1.21679e-05 0.000177931)
(0.000100152 -1.98377e-05 0.000185307)
(-2.54154e-05 -2.08862e-05 0.000171041)
(-0.000127975 -1.67117e-05 0.000100962)
(0.00184365 -1.41215e-05 -0.000225544)
(0.00122373 -1.58986e-06 -0.000115216)
(0.000849888 1.2326e-06 -1.81778e-05)
(0.00184731 -9.00469e-05 -0.000260936)
(0.00122548 -5.16233e-05 -0.000126398)
(0.000852796 -2.42124e-05 -2.54573e-05)
(0.000636867 -1.16385e-05 5.57055e-05)
(0.00048517 -6.79308e-06 0.000111014)
(0.000377161 -1.18432e-05 0.000167071)
(0.000268391 -2.15297e-05 0.000193312)
(0.00020027 -2.48282e-05 0.000225265)
(0.000115839 -2.4965e-05 0.000203941)
(0.00180021 -8.75826e-05 -0.000264369)
(0.00116357 -4.53254e-05 -0.000124779)
(0.000784272 -1.89072e-05 -2.14747e-05)
(0.000559112 -6.86356e-06 5.98743e-05)
(0.000400086 -4.29405e-06 0.000111034)
(0.00028406 -9.15401e-06 0.00016189)
(0.000173702 -1.793e-05 0.000168356)
(0.000103893 -2.23306e-05 0.000175245)
(2.96058e-05 -1.94135e-05 0.000127536)
(0.00175692 -6.23096e-05 -0.000266112)
(0.00111109 -2.98612e-05 -0.000122951)
(0.000725983 -1.18894e-05 -1.78774e-05)
(0.00049374 -1.60412e-06 6.67025e-05)
(0.00033143 -7.96102e-07 0.00011178)
(0.00021233 -1.4346e-06 0.000159251)
(0.000103064 -7.74429e-06 0.000148161)
(4.24168e-05 -8.95538e-06 0.00013479)
(-2.26237e-05 -8.74979e-06 7.44692e-05)
(0.00173917 -1.38445e-05 -0.000269857)
(0.00108764 -3.926e-06 -0.000122858)
(0.000701081 4.86939e-07 -1.592e-05)
(0.00046543 3.51348e-06 6.87013e-05)
(0.000305075 1.19613e-06 0.00011066)
(0.00175687 -9.93772e-05 -0.000243076)
(0.00110473 -5.52743e-05 -0.000117552)
(0.000719213 -2.41332e-05 -2.77637e-05)
(0.00049742 -8.69806e-06 4.71877e-05)
(0.000356892 -1.69266e-06 9.13901e-05)
(0.000272501 -5.75036e-07 0.000138009)
(0.000204635 -4.40946e-06 0.000153224)
(0.000175174 -3.54943e-06 0.000174394)
(0.000138716 -4.38909e-06 0.000158563)
(0.00170576 -9.68263e-05 -0.000245241)
(0.00104163 -4.88591e-05 -0.000113465)
(0.000654506 -1.90821e-05 -2.13001e-05)
(0.000429763 -2.63118e-06 5.38291e-05)
(0.000291836 1.29948e-06 8.86563e-05)
(0.000205913 2.63837e-06 0.000126244)
(0.000141525 -3.52e-06 0.000124505)
(0.000109425 -5.86508e-06 0.000123025)
(7.3186e-05 -6.23188e-06 8.96247e-05)
(0.00166012 -6.84394e-05 -0.000243651)
(0.000987974 -3.14894e-05 -0.00011018)
(0.000601966 -1.09612e-05 -1.71244e-05)
(0.0003787 1.94891e-06 5.82557e-05)
(0.000247284 2.20131e-06 8.62647e-05)
(0.000163511 3.92307e-06 0.000117064)
(0.000101693 -1.39018e-06 0.000103418)
(6.88588e-05 -2.93689e-06 8.83544e-05)
(3.11891e-05 -4.34201e-06 4.86773e-05)
(0.00164158 -1.06492e-05 -0.00024568)
(0.000964967 -3.62711e-06 -0.000109299)
(0.000581598 -6.27175e-07 -1.53075e-05)
(0.000359379 1.61683e-06 5.99402e-05)
(0.000231813 1.32839e-07 8.43284e-05)
(0.000148655 -1.29039e-06 0.000112504)
(8.86967e-05 -1.47438e-06 9.58677e-05)
(0.00170912 -0.000106955 -0.000197247)
(0.00104299 -5.67498e-05 -9.70575e-05)
(0.000649445 -2.22534e-05 -2.47904e-05)
(0.0004277 -3.4478e-06 3.61124e-05)
(0.000294175 2.72083e-06 6.99719e-05)
(0.000224594 5.78533e-06 0.00010467)
(0.000177296 6.37847e-06 0.000114562)
(0.00017009 8.40325e-06 0.00013159)
(0.000150439 5.42322e-06 0.000119406)
(0.00165404 -0.000101873 -0.000196288)
(0.000977212 -4.93982e-05 -9.19681e-05)
(0.000586226 -1.74253e-05 -1.8635e-05)
(0.000367714 1.03663e-06 4.20856e-05)
(0.000241027 4.96253e-06 6.83194e-05)
(0.000174196 8.05605e-06 9.48281e-05)
(0.000127494 4.82165e-06 8.99566e-05)
(0.000113959 4.29343e-06 8.62228e-05)
(9.17429e-05 1.06217e-06 6.06691e-05)
(0.00160993 -7.0607e-05 -0.000191788)
(0.000927264 -3.20797e-05 -8.56012e-05)
(0.000539634 -1.0261e-05 -1.36746e-05)
(0.000327124 3.53013e-06 4.44921e-05)
(0.000206027 4.15924e-06 6.50283e-05)
(0.00014299 6.81619e-06 8.40081e-05)
(9.70092e-05 2.06974e-06 7.27687e-05)
(7.9512e-05 2.06602e-07 6.05592e-05)
(5.34861e-05 -3.69425e-06 2.85075e-05)
(0.00159292 -1.37986e-05 -0.000190704)
(0.000904638 -3.07437e-06 -8.4745e-05)
(0.000521422 -1.74377e-07 -1.31599e-05)
(0.000311454 1.68367e-06 4.35481e-05)
(0.000194524 1.33363e-07 6.30361e-05)
(0.000131168 -9.17436e-07 8.0878e-05)
(8.63311e-05 -1.85899e-06 6.64346e-05)
(6.24681e-05 -2.04643e-06 5.07763e-05)
(3.94732e-05 -4.15108e-06 1.56547e-05)
)
;

boundaryField
{
    inlet
    {
        type            calculated;
        value           nonuniform List<vector> 
16
(
(0.00429775 -0.000187115 -0.000409583)
(0.0041683 -0.000255246 -0.000431118)
(0.00410922 -0.000204197 -0.000435901)
(0.00409153 -7.18719e-05 -0.000465387)
(0.00397678 -0.000211149 -0.000871562)
(0.00382456 -0.000282755 -0.00091316)
(0.00374587 -0.000231292 -0.000925629)
(0.00373042 -6.71566e-05 -0.000988587)
(0.00389549 -0.000255446 -0.000728749)
(0.00370986 -0.000344224 -0.00077508)
(0.00361226 -0.000290367 -0.000755198)
(0.00356414 -1.16275e-05 -0.000792764)
(0.00394588 -0.00029656 -0.000591688)
(0.00371849 -0.000359776 -0.00062088)
(0.00364108 -0.000281112 -0.000595914)
(0.00362717 -6.78294e-05 -0.000581727)
)
;
    }
    outlet
    {
        type            calculated;
        value           nonuniform 0();
    }
    wall
    {
        type            calculated;
        value           nonuniform List<vector> 
66
(
(0.00429775 -0.000187115 -0.000409583)
(0.0041683 -0.000255246 -0.000431118)
(0.00410922 -0.000204197 -0.000435901)
(0.00409153 -7.18719e-05 -0.000465387)
(0.00117028 -3.0224e-05 -5.91903e-05)
(0.000900699 -2.54971e-05 -6.07497e-05)
(0.000761589 -3.35773e-05 -4.21776e-05)
(0.000745855 4.42938e-05 -4.0493e-05)
(0.0012233 1.43559e-05 3.17155e-05)
(0.000941966 2.92448e-05 2.55593e-05)
(0.000761323 -1.53627e-05 4.10016e-05)
(0.00074537 3.37023e-06 3.77072e-05)
(0.00143242 2.21123e-05 8.93622e-05)
(0.00114065 2.67335e-05 6.80714e-05)
(0.000857862 2.1455e-05 0.000115122)
(0.00134472 1.92233e-05 0.000146749)
(0.000950233 2.46099e-05 0.000158202)
(0.000546898 1.71347e-05 0.000164043)
(0.00135845 -3.60961e-05 0.000267003)
(0.000835827 -0.00011285 0.000321746)
(0.000379871 -5.20938e-05 0.000398036)
(0.000903148 -0.000128169 0.000324083)
(0.000254343 -0.000222878 0.00033418)
(-0.000378299 -7.29896e-05 0.000350547)
(0.000819721 -0.000161999 0.000557142)
(-3.68361e-05 -0.000282678 0.000489858)
(-0.000583881 -5.68222e-05 0.000394599)
(0.000157171 -0.000125634 0.000600452)
(-0.000674593 -0.000108202 0.000283186)
(-0.000995133 -2.55248e-05 5.15468e-05)
(0.00429775 -0.000187115 -0.000409583)
(0.00397678 -0.000211149 -0.000871562)
(0.00389549 -0.000255446 -0.000728749)
(0.00394588 -0.00029656 -0.000591688)
(0.00117028 -3.0224e-05 -5.91903e-05)
(0.000570078 -3.15808e-05 -7.97222e-05)
(0.0002534 -3.95855e-05 -5.00463e-05)
(0.000272857 -2.765e-05 -5.35056e-05)
(0.0012233 1.43559e-05 3.17155e-05)
(0.000484169 2.45017e-06 2.69188e-05)
(0.000191553 5.76423e-06 -1.56781e-05)
(0.000186427 2.0397e-05 -1.36135e-05)
(0.00143242 2.21123e-05 8.93622e-05)
(0.000572287 -1.43004e-05 0.000158905)
(0.000227768 -7.02237e-06 0.000134197)
(0.000231172 3.30523e-05 0.000107964)
(0.00134472 1.92233e-05 0.000146749)
(0.000502173 1.12118e-05 0.000150593)
(0.000173729 1.02813e-05 9.73282e-05)
(0.000158861 6.00894e-06 7.17204e-05)
(0.00135845 -3.60961e-05 0.000267003)
(0.000567763 -5.36726e-06 0.000344434)
(0.000248996 2.06272e-05 0.00028877)
(0.000247573 6.43447e-06 0.000215051)
(0.000903148 -0.000128169 0.000324083)
(0.00035763 -4.5523e-05 0.000318188)
(0.000161951 -2.98064e-06 0.000217391)
(0.000173924 2.92957e-05 0.00015952)
(0.000819721 -0.000161999 0.000557142)
(0.000535551 -3.10229e-05 0.000652663)
(0.000338067 3.7633e-05 0.00042679)
(0.0004139 6.44528e-05 0.000363903)
(0.000157171 -0.000125634 0.000600452)
(0.000227189 -4.66992e-05 0.000537741)
(0.000245899 1.23729e-05 0.000377746)
(0.000277073 1.2573e-05 0.000346189)
)
;
    }
    procBoundary0to1
    {
        type            processor;
        value           nonuniform List<vector> 
12
(
(-1.5362e-06 -5.11671e-05 0.000183246)
(-9.0684e-05 -3.8933e-05 9.99734e-05)
(-0.000134354 -9.29669e-06 3.14275e-05)
(8.87823e-05 -2.15788e-05 0.000172317)
(1.62362e-05 -1.70356e-05 7.72318e-05)
(-2.33711e-05 -5.96149e-06 1.38879e-05)
(0.000141627 1.48698e-06 0.000134375)
(7.05696e-05 -4.348e-06 4.76256e-05)
(2.34359e-05 -3.35214e-06 4.93809e-08)
(0.000169142 1.17862e-05 9.67003e-05)
(9.75544e-05 2.31044e-06 2.35296e-05)
(4.8043e-05 -3.69389e-06 -1.10031e-05)
)
;
    }
    procBoundary0to2
    {
        type            processor;
        value           nonuniform List<vector> 
44
(
(0.000612515 4.12049e-06 6.15401e-05)
(0.000414488 2.60047e-06 0.000121859)
(0.000244462 9.29387e-07 0.000179782)
(6.18277e-05 9.11262e-07 0.00017831)
(-5.04063e-05 2.39154e-06 0.000156942)
(-0.000136233 -2.8384e-06 8.34364e-05)
(0.0018518 3.55998e-05 -0.000222505)
(0.00123331 2.40732e-05 -0.00011851)
(0.000612515 4.12049e-06 6.15401e-05)
(0.000862164 1.48687e-05 -1.97906e-05)
(0.000612515 4.12049e-06 6.15401e-05)
(0.000414488 2.60047e-06 0.000121859)
(0.000185602 -8.12436e-07 0.000156637)
(8.24879e-05 -1.42154e-06 0.000139555)
(2.73139e-05 -5.89792e-07 0.000120568)
(-3.02048e-05 -3.08187e-06 5.85824e-05)
(0.00175371 3.86217e-05 -0.000262971)
(0.00110197 2.26085e-05 -0.000125076)
(0.000715687 1.36907e-05 -1.94582e-05)
(0.000485591 7.14098e-06 6.38624e-05)
(0.000185602 -8.12436e-07 0.000156637)
(0.000326947 1.70397e-06 0.000108145)
(0.000185602 -8.12436e-07 0.000156637)
(8.24879e-05 -1.42154e-06 0.000139555)
(5.55783e-05 -1.18653e-06 7.60418e-05)
(2.02893e-05 -2.87188e-06 3.47858e-05)
(0.00166225 4.63809e-05 -0.000244166)
(0.000984792 2.26167e-05 -0.000110145)
(0.000597642 1.06805e-05 -1.83145e-05)
(0.000375984 2.27502e-06 5.55657e-05)
(0.000243902 -1.40257e-06 8.49643e-05)
(0.000162612 -6.36253e-06 0.000116741)
(5.55783e-05 -1.18653e-06 7.60418e-05)
(0.00010061 -3.32411e-06 0.000102594)
(5.55783e-05 -1.18653e-06 7.60418e-05)
(2.02893e-05 -2.87188e-06 3.47858e-05)
(0.00160922 4.65749e-05 -0.00019448)
(0.000921294 2.33981e-05 -8.54231e-05)
(0.000535459 8.78767e-06 -1.61539e-05)
(0.000323833 -1.04092e-06 4.09194e-05)
(0.000203331 -3.125e-06 6.30982e-05)
(0.000140928 -7.03099e-06 8.29963e-05)
(9.43835e-05 -5.73892e-06 6.9311e-05)
(7.74372e-05 -5.01891e-06 5.51662e-05)
)
;
    }
    procBoundary0to4
    {
        type            processor;
        value           nonuniform List<vector> 
36
(
(0.00169097 -0.000110822 -0.000129597)
(0.00100992 -5.84424e-05 -6.6361e-05)
(0.000612533 -2.25465e-05 -1.96711e-05)
(0.000388841 -1.24671e-06 2.41375e-05)
(0.00026107 7.11442e-06 4.86863e-05)
(0.00019601 1.23039e-05 7.12599e-05)
(0.000158559 9.72979e-06 7.81489e-05)
(0.00015472 1.14415e-05 8.90787e-05)
(0.000138729 7.2284e-06 7.58722e-05)
(0.00163343 -0.000104421 -0.000122622)
(0.000943496 -4.85277e-05 -5.99068e-05)
(0.000551355 -1.65871e-05 -1.39565e-05)
(0.000334834 2.87086e-06 2.6754e-05)
(0.000216422 6.90243e-06 4.65596e-05)
(0.000154882 1.0262e-05 6.33373e-05)
(0.000120998 6.92588e-06 6.0654e-05)
(0.000110051 6.99051e-06 5.55601e-05)
(9.51172e-05 1.84478e-06 3.61148e-05)
(0.00159168 -7.03332e-05 -0.000116938)
(0.00089565 -3.07672e-05 -5.38191e-05)
(0.00051115 -1.02735e-05 -8.98464e-06)
(0.000300906 2.38293e-06 2.9305e-05)
(0.000188217 4.33507e-06 4.46579e-05)
(0.000128718 6.68526e-06 5.64958e-05)
(9.48602e-05 3.22786e-06 4.85729e-05)
(7.74986e-05 1.67204e-06 3.5613e-05)
(6.1437e-05 -3.83145e-06 1.33758e-05)
(0.00157478 -1.42026e-05 -0.000115368)
(0.000874219 -3.27353e-06 -5.17707e-05)
(0.000494329 -2.00128e-06 -9.09182e-06)
(0.000284408 1.12442e-07 2.79401e-05)
(0.000176045 -1.15762e-07 4.31452e-05)
(0.000113803 -1.85405e-07 5.27743e-05)
(8.27603e-05 -2.56711e-06 4.30304e-05)
(6.01523e-05 -4.63544e-06 2.80739e-05)
(4.53783e-05 -7.1294e-06 4.17823e-06)
)
;
    }
    procBoundary0to6
    {
        type            processor;
        value           uniform (5.26965e-05 -4.88324e-06 2.09254e-05);
    }
    procBoundary0to7
    {
        type            processor;
        value           uniform (2.72618e-05 -6.13806e-06 -2.4816e-05);
    }
}


// ************************************************************************* //
