/*--------------------------------*- C++ -*----------------------------------*\
| =========                 |                                                 |
| \\      /  F ield         | OpenFOAM: The Open Source CFD Toolbox           |
|  \\    /   O peration     | Version:  4.x                                   |
|   \\  /    A nd           | Web:      www.OpenFOAM.org                      |
|    \\/     M anipulation  |                                                 |
\*---------------------------------------------------------------------------*/
FoamFile
{
    version     2.0;
    format      ascii;
    class       volVectorField;
    location    "11";
    object      GField;
}
// * * * * * * * * * * * * * * * * * * * * * * * * * * * * * * * * * * * * * //

dimensions      [1 -2 -1 0 0 0 0];

internalField   nonuniform List<vector> 
132
(
(98.4145 -2.26228 -4.53072)
(55.002 -1.34287 -3.33022)
(110.646 -2.43922 -5.3541)
(75.6319 -1.24634 -3.6648)
(123.289 -1.9122 -4.76784)
(92.6434 -0.970112 -3.03942)
(134.746 -1.86547 -3.10272)
(105.25 -1.97975 -0.934286)
(144.933 -3.10084 1.47873)
(97.9281 -3.10343 -4.9527)
(51.5732 -1.90675 -3.32515)
(106.834 -3.20873 -5.85268)
(68.1277 -1.54194 -3.88239)
(117.673 -2.53006 -5.58393)
(82.0193 -1.10291 -3.05011)
(125.729 -3.29559 -2.99047)
(88.4731 -3.47073 0.0962665)
(127.546 -6.50261 2.76708)
(98.0712 -2.32385 -5.26204)
(49.9105 -1.45615 -3.11014)
(105.135 -2.59374 -5.9141)
(63.9919 -1.63223 -3.58781)
(113.4 -2.03103 -5.20926)
(74.228 -1.25409 -2.59986)
(118.706 -2.46658 -1.24027)
(72.1219 -2.23149 1.96534)
(113.734 -3.53013 5.23552)
(97.6214 -1.16614 -5.69991)
(49.5501 -0.235028 -3.25011)
(105.143 -0.399045 -6.44953)
(95.8281 -2.63175 -9.59301)
(46.9289 -1.3394 -6.29284)
(100.609 -2.91761 -10.6885)
(55.4964 -1.48358 -6.51162)
(105.487 -2.995 -9.16914)
(62.5434 -1.43848 -5.54483)
(109.902 -2.95972 -6.0745)
(67.3232 -2.04292 -2.60362)
(114.89 -3.21487 1.33652)
(95.3682 -3.69354 -10.3252)
(41.7185 -1.63577 -6.14122)
(96.992 -3.78962 -11.5908)
(43.6388 -1.47208 -5.89588)
(97.1787 -3.58778 -9.52266)
(41.8072 -1.34325 -3.8105)
(96.3893 -3.54567 -4.41152)
(36.6226 -1.59283 -0.237675)
(96.3632 -4.41471 3.48305)
(94.2953 -2.89565 -10.6283)
(39.0611 -1.17399 -5.84186)
(94.7667 -2.99256 -11.9928)
(37.5228 -1.23661 -5.46835)
(93.2024 -2.66651 -8.77724)
(31.7137 -1.00122 -2.74959)
(90.8993 -1.65001 -1.44064)
(24.1282 -0.823639 0.485695)
(92.4269 -1.39535 5.51147)
(93.3854 -0.731135 -11.1677)
(38.4857 -0.350207 -6.39538)
(93.4917 -0.646814 -12.6404)
(35.0816 -0.148173 -5.48001)
(90.2384 -0.0844242 -8.87459)
(93.9834 -3.02878 -7.39243)
(43.1736 -1.62763 -4.85451)
(95.8534 -3.58977 -8.03344)
(46.7422 -1.70649 -4.87488)
(97.8363 -3.65689 -6.35744)
(49.5205 -1.59411 -3.66311)
(99.5069 -3.25733 -2.8437)
(51.0327 -1.61749 -0.956248)
(102.386 -2.59871 2.67716)
(93.3609 -4.25857 -8.10325)
(36.7845 -1.97329 -4.72115)
(91.5774 -4.89758 -8.37585)
(31.5605 -1.79104 -3.49617)
(88.9924 -4.18105 -4.98843)
(23.9301 -1.11404 -1.54248)
(86.7417 -3.06557 -0.301962)
(16.1707 -0.900023 0.374742)
(86.8562 -3.3196 3.56117)
(91.9944 -3.32895 -7.75312)
(33.4328 -1.65166 -4.41872)
(88.3743 -3.68177 -8.10004)
(21.8756 -1.14878 -2.49738)
(84.281 -2.37497 -3.70677)
(10.5466 -0.553524 -0.400767)
(82.5212 -0.899336 1.83592)
(4.19977 -0.310128 0.235588)
(83.6494 -0.738333 4.26341)
(91.5148 -0.220451 -8.07609)
(31.4558 0.0111943 -4.64469)
(86.647 0.0790955 -8.33169)
(18.1809 0.0143183 -2.11407)
(82.2097 0.247248 -3.04126)
(7.13647 -0.0877061 -0.317238)
(80.6717 0.0281689 2.21122)
(93.4021 -3.41064 -5.737)
(44.1247 -1.92589 -4.17836)
(95.6311 -3.73801 -6.51011)
(47.7674 -1.71252 -4.29227)
(97.6661 -3.13742 -5.15701)
(49.9653 -1.64073 -3.44311)
(99.9335 -2.99318 -2.62266)
(52.9552 -1.27945 -1.6085)
(103.524 -2.05151 1.96144)
(92.3782 -4.18604 -6.2859)
(36.3762 -2.08196 -3.8213)
(90.0199 -4.46479 -6.78149)
(30.7681 -1.486 -3.01023)
(88.4042 -3.32804 -3.94521)
(26.015 -0.866911 -1.42462)
(87.7138 -2.35163 -0.110357)
(22.4703 -0.381021 -0.219391)
(89.0377 -1.75195 2.19138)
(91.5558 -3.0027 -6.04579)
(34.7879 -1.67631 -3.64329)
(87.8329 -3.34797 -5.73312)
(25.3741 -1.10387 -2.28024)
(85.7947 -2.00535 -2.52086)
(18.7781 -0.666111 -0.868984)
(86.0076 -0.756293 0.700291)
(16.4373 -0.550607 -0.117337)
(87.4653 -0.753447 3.02413)
(91.5046 -0.982626 -5.72938)
(33.389 -0.213812 -3.68962)
(86.5647 -0.365676 -5.73629)
(22.5123 0.0940484 -2.31867)
(84.7165 0.0158303 -2.84568)
(17.1728 0.0168672 -1.10953)
(84.565 -0.184488 0.7535)
(16.6187 -0.088337 -0.330296)
(85.1719 0.0932744 3.17904)
)
;

boundaryField
{
    inlet
    {
        type            calculated;
        value           uniform (67 0 0);
    }
    outlet
    {
        type            calculated;
        value           nonuniform 0();
    }
    wall
    {
        type            calculated;
        value           uniform (0 0 0);
    }
    procBoundary0to1
    {
        type            processor;
        value           nonuniform List<vector> 
12
(
(110.128 -3.14003 4.7083)
(81.1128 -5.03103 4.52956)
(52.2523 -2.71559 3.89641)
(71.918 -2.90665 3.968)
(32.4504 -2.25253 2.26389)
(18.6877 -0.864538 0.63605)
(54.5556 -1.71424 4.20903)
(14.0192 -1.22198 1.02259)
(1.40384 -0.142224 0.113294)
(56.2051 -1.263 3.16648)
(21.7826 -0.33459 0.399531)
(15.5523 -1.16277 -0.115309)
)
;
    }
    procBoundary0to2
    {
        type            processor;
        value           nonuniform List<vector> 
44
(
(63.2617 -0.208228 -3.87314)
(112.171 -0.0623182 -5.93818)
(73.061 -0.0707907 -2.78987)
(115.955 0.177723 -1.01366)
(69.2749 0.660482 1.81152)
(111.972 1.43717 5.59811)
(95.6645 1.01037 -4.64428)
(48.1492 0.839421 -3.15633)
(63.2617 -0.208228 -3.87314)
(103.012 1.7463 -6.12773)
(63.2617 -0.208228 -3.87314)
(112.171 -0.0623182 -5.93818)
(26.6302 -0.0486738 -2.57845)
(87.0359 -0.140619 -0.793352)
(19.766 0.0598311 0.0715071)
(88.7828 0.48345 5.86614)
(93.8303 1.47409 -9.6683)
(39.3666 0.589172 -5.68601)
(93.6696 1.74356 -11.4282)
(36.3917 1.1426 -5.16137)
(26.6302 -0.0486738 -2.57845)
(92.0068 2.14254 -8.54483)
(26.6302 -0.0486738 -2.57845)
(87.0359 -0.140619 -0.793352)
(2.99457 -0.0183595 0.148931)
(81.6094 0.426465 3.74073)
(92.0717 2.36217 -7.99553)
(35.2238 1.10456 -4.52596)
(88.8305 2.40574 -7.9705)
(25.6013 1.02151 -2.75394)
(85.5878 1.98061 -4.09354)
(16.1977 0.628099 -0.696264)
(2.99457 -0.0183595 0.148931)
(83.6301 0.535864 1.32159)
(2.99457 -0.0183595 0.148931)
(81.6094 0.426465 3.74073)
(91.1322 1.66754 -6.84989)
(33.4823 1.08097 -3.48385)
(86.8734 2.06592 -6.19837)
(24.2128 0.804568 -2.47483)
(85.1248 1.15164 -3.30293)
(17.9926 0.58068 -0.909321)
(85.3151 0.395057 0.459972)
(15.271 0.454577 -0.323707)
)
;
    }
    procBoundary0to4
    {
        type            processor;
        value           nonuniform List<vector> 
36
(
(92.9493 -3.7009 -3.5807)
(43.1112 -2.06213 -2.67283)
(93.4779 -4.44456 -4.19164)
(44.6596 -2.09827 -2.99146)
(94.2091 -3.83939 -3.09266)
(45.4789 -1.53943 -2.37112)
(94.6011 -2.77369 -1.84955)
(45.3403 -1.33809 -1.52955)
(95.4958 -1.88992 1.50205)
(91.3427 -4.64581 -3.30167)
(34.3332 -2.16668 -2.07941)
(87.3776 -4.71786 -3.62152)
(23.393 -1.42525 -1.65679)
(84.1451 -3.31784 -2.17963)
(14.5589 -0.713348 -0.699648)
(82.8615 -2.40766 -0.171865)
(8.12825 -0.471715 -0.259288)
(82.3677 -1.32998 1.34971)
(90.859 -2.81649 -3.25291)
(32.2513 -1.73695 -1.98286)
(85.2013 -2.86123 -3.12436)
(19.8937 -1.22754 -1.18664)
(82.027 -2.11556 -1.19484)
(11.2229 -0.90182 -0.383997)
(80.8414 -1.15558 0.816977)
(4.37884 -0.434923 -0.0778941)
(80.1916 0.131523 1.71835)
(90.9658 -1.11211 -3.56795)
(31.8646 -0.0090874 -1.85374)
(84.0065 -0.48975 -3.18172)
(18.3931 -0.208839 -1.33582)
(79.7733 -0.37514 -1.64022)
(7.93147 -0.0856275 -0.313002)
(77.1363 0.155035 0.374845)
(1.14639 -0.0158731 -0.024926)
(76.2267 0.221738 1.62271)
)
;
    }
    procBoundary0to6
    {
        type            processor;
        value           uniform (86.8869 0.86026 2.66023);
    }
    procBoundary0to7
    {
        type            processor;
        value           uniform (15.5566 -0.0880904 -0.844489);
    }
}


// ************************************************************************* //
