/*--------------------------------*- C++ -*----------------------------------*\
| =========                 |                                                 |
| \\      /  F ield         | OpenFOAM: The Open Source CFD Toolbox           |
|  \\    /   O peration     | Version:  4.x                                   |
|   \\  /    A nd           | Web:      www.OpenFOAM.org                      |
|    \\/     M anipulation  |                                                 |
\*---------------------------------------------------------------------------*/
FoamFile
{
    version     2.0;
    format      ascii;
    class       volScalarField;
    location    "11";
    object      KslNext;
}
// * * * * * * * * * * * * * * * * * * * * * * * * * * * * * * * * * * * * * //

dimensions      [1 -3 -1 0 0 0 0];

internalField   nonuniform List<scalar> 
132
(
3356.67
6034.75
3058.3
4508.2
2806.66
3771.76
2628.32
3337.8
2424.09
3392.19
6499.6
3200.2
5046.14
2970.74
4284.59
2808.77
3973.27
2770.22
3418.59
6752.67
3263.34
5387.03
3099.89
4719.77
2961.26
4833.39
3068.01
3432.1
6779.65
3243.67
3431.39
6999.13
3313.62
6060.34
3241.46
5485.27
3175.54
5118.31
3018.02
3461.36
7979.59
3505.54
7807.57
3582.96
8298.91
3634.01
9461.96
3617.08
3510.89
8548.17
3595.58
9087.6
3719.59
10884.4
3834.15
14236
3722.35
3548.89
8648.82
3644.01
9680.2
3832.8
3455.93
7531.61
3448.3
7066.95
3427.21
6772.85
3398.5
6560.03
3291.23
3510.83
8968.06
3669.32
10613.4
3824.01
14121.7
3931.12
20744.6
3889.28
3568.19
9892.35
3815.7
15295.3
4033.72
31808.4
4098
78912.7
3992.11
3594.43
10497.7
3894.3
18360.8
4113.25
46853
4161.88
3446.79
7308
3426.84
6821.66
3375.83
6561.41
3321.76
6212.83
3197.13
3518.77
8991.79
3693.18
10739.8
3767.9
12685.1
3798.13
14637.6
3723.53
3578.25
9440.76
3799.33
12988.2
3869.99
17440.3
3844.5
19805.3
3739.03
3565.73
9830.87
3850.63
14589.2
3909.93
18955.1
3881.19
19493
3816.43
)
;

boundaryField
{
    inlet
    {
        type            zeroGradient;
    }
    outlet
    {
        type            zeroGradient;
    }
    wall
    {
        type            zeroGradient;
    }
    procBoundary0to1
    {
        type            processor;
        value           uniform 0;
    }
    procBoundary0to2
    {
        type            processor;
        value           uniform 0;
    }
    procBoundary0to4
    {
        type            processor;
        value           uniform 0;
    }
    procBoundary0to6
    {
        type            processor;
        value           uniform 0;
    }
    procBoundary0to7
    {
        type            processor;
        value           uniform 0;
    }
}


// ************************************************************************* //
