/*--------------------------------*- C++ -*----------------------------------*\
| =========                 |                                                 |
| \\      /  F ield         | OpenFOAM: The Open Source CFD Toolbox           |
|  \\    /   O peration     | Version:  4.x                                   |
|   \\  /    A nd           | Web:      www.OpenFOAM.org                      |
|    \\/     M anipulation  |                                                 |
\*---------------------------------------------------------------------------*/
FoamFile
{
    version     2.0;
    format      ascii;
    class       volScalarField;
    location    "11";
    object      Qsource;
}
// * * * * * * * * * * * * * * * * * * * * * * * * * * * * * * * * * * * * * //

dimensions      [1 -1 -3 0 0 0 0];

internalField   nonuniform List<scalar> 
132
(
3.76691e+09
3.54553e+09
3.6901e+09
3.02349e+09
6.38456e+09
6.2954e+09
8.37615e+09
5.89292e+09
2.0655e+09
4.61204e+09
5.04825e+09
6.5239e+09
6.33672e+09
4.87145e+09
7.63858e+09
6.20219e+09
6.3177e+09
6.65002e+09
3.08722e+09
6.38923e+09
6.63843e+09
5.79728e+09
6.56026e+09
5.70869e+09
4.98784e+09
5.46896e+09
9.72904e+09
2.93863e+09
5.03827e+09
4.39082e+09
5.045e+09
7.46734e+09
9.45707e+09
8.26638e+09
8.61761e+09
8.25014e+09
8.80142e+09
7.52761e+09
8.22519e+09
4.93983e+09
9.45743e+09
7.96254e+09
8.59211e+09
9.59935e+09
8.67865e+09
8.4041e+09
9.20297e+09
8.61663e+09
5.25985e+09
9.49279e+09
8.38409e+09
7.55952e+09
8.18962e+09
7.69524e+09
1.04079e+10
6.86917e+09
6.21434e+09
7.90466e+09
7.06646e+09
7.72978e+09
5.32407e+09
1.14022e+10
6.34288e+09
7.40951e+09
8.88188e+09
7.50101e+09
8.22935e+09
6.11402e+09
8.76502e+09
7.46846e+09
6.19957e+09
6.20047e+09
8.26281e+09
8.30718e+09
6.37725e+09
9.12924e+09
6.59405e+09
9.18614e+09
9.80709e+09
7.54162e+09
6.66293e+09
7.19576e+09
8.00307e+09
9.19737e+09
9.61139e+09
7.86624e+09
8.96069e+09
6.17542e+09
5.28408e+09
6.84834e+09
8.64576e+09
9.43039e+09
8.65411e+09
9.93231e+09
7.84103e+09
8.48692e+09
5.10929e+09
5.46083e+09
7.52399e+09
5.68474e+09
7.83948e+09
8.66808e+09
6.69978e+09
4.88898e+09
6.90536e+09
5.09967e+09
9.58535e+09
9.01488e+09
8.03348e+09
7.11832e+09
6.28339e+09
1.03135e+10
7.29105e+09
6.89219e+09
5.14914e+09
5.63281e+09
8.96967e+09
6.20075e+09
8.61614e+09
8.61994e+09
8.21119e+09
5.14561e+09
9.38422e+09
4.79706e+09
6.73733e+09
9.56214e+09
1.03454e+10
5.35838e+09
9.88528e+09
8.45811e+09
5.65537e+09
2.61797e+09
)
;

boundaryField
{
    inlet
    {
        type            calculated;
        value           uniform 0;
    }
    outlet
    {
        type            calculated;
        value           nonuniform 0();
    }
    wall
    {
        type            calculated;
        value           uniform 0;
    }
    procBoundary0to1
    {
        type            processor;
        value           nonuniform List<scalar> 
12
(
6.2316e+09
5.2487e+09
4.29863e+09
7.94866e+09
9.41865e+09
8.96873e+09
7.70575e+09
8.86049e+09
8.05434e+09
7.27014e+09
8.06268e+09
6.07232e+09
)
;
    }
    procBoundary0to2
    {
        type            processor;
        value           nonuniform List<scalar> 
44
(
7.84538e+09
6.54676e+09
3.75445e+09
6.91229e+09
3.418e+09
3.88366e+09
6.5935e+09
7.44925e+09
7.84538e+09
6.99635e+09
7.84538e+09
6.54676e+09
9.78219e+09
1.19857e+10
6.45813e+09
1.11425e+10
4.70064e+09
7.97629e+09
9.58032e+09
9.17697e+09
9.78219e+09
8.9859e+09
9.78219e+09
1.19857e+10
7.7039e+09
8.93007e+09
6.81324e+09
5.74913e+09
6.69612e+09
6.85735e+09
6.66572e+09
7.64254e+09
7.7039e+09
9.66133e+09
7.7039e+09
8.93007e+09
4.85807e+09
9.48707e+09
1.02063e+10
7.18227e+09
7.72729e+09
6.70382e+09
7.49981e+09
7.83579e+09
)
;
    }
    procBoundary0to4
    {
        type            processor;
        value           nonuniform List<scalar> 
36
(
5.67935e+09
7.55205e+09
9.13364e+09
6.3932e+09
7.8517e+09
6.3814e+09
9.56148e+09
7.24097e+09
1.02949e+10
6.97107e+09
7.26869e+09
9.16256e+09
9.80318e+09
9.93776e+09
8.35478e+09
7.91034e+09
5.53115e+09
1.09516e+10
6.63603e+09
1.02523e+10
7.92977e+09
9.40059e+09
8.36818e+09
6.2292e+09
7.18111e+09
1.02584e+10
6.61956e+09
3.44211e+09
6.71108e+09
9.27969e+09
5.67297e+09
8.67985e+09
6.26962e+09
1.12218e+10
5.96598e+09
6.97324e+09
)
;
    }
    procBoundary0to6
    {
        type            processor;
        value           uniform 8.09488e+09;
    }
    procBoundary0to7
    {
        type            processor;
        value           uniform 1.0448e+10;
    }
}


// ************************************************************************* //
