/*--------------------------------*- C++ -*----------------------------------*\
| =========                 |                                                 |
| \\      /  F ield         | OpenFOAM: The Open Source CFD Toolbox           |
|  \\    /   O peration     | Version:  4.x                                   |
|   \\  /    A nd           | Web:      www.OpenFOAM.org                      |
|    \\/     M anipulation  |                                                 |
\*---------------------------------------------------------------------------*/
FoamFile
{
    version     2.0;
    format      ascii;
    class       volScalarField;
    location    "11";
    object      SPartFluid;
}
// * * * * * * * * * * * * * * * * * * * * * * * * * * * * * * * * * * * * * //

dimensions      [1 -3 -1 0 0 0 0];

internalField   nonuniform List<scalar> 
132
(
4.03004e-65
3.64251e-65
3.09999e-65
2.86747e-65
3.79748e-65
4.02995e-65
4.88245e-65
3.48744e-65
1.70495e-65
4.88254e-65
4.65001e-65
4.64998e-65
5.11495e-65
3.17745e-65
5.81239e-65
4.26241e-65
4.64988e-65
4.26235e-65
2.71252e-65
5.34751e-65
4.72749e-65
4.72745e-65
4.26243e-65
4.3399e-65
3.2549e-65
4.18486e-65
7.20723e-65
2.86753e-65
4.41752e-65
3.25501e-65
4.18504e-65
6.66502e-65
8.05997e-65
7.05242e-65
6.8199e-65
7.12986e-65
6.27736e-65
6.43231e-65
6.1998e-65
5.42504e-65
7.98251e-65
6.27746e-65
7.20739e-65
7.28484e-65
7.12981e-65
6.50977e-65
7.74968e-65
6.74219e-65
5.89005e-65
8.13751e-65
6.81995e-65
6.27739e-65
6.66483e-65
6.5873e-65
8.29217e-65
6.04472e-65
4.95975e-65
8.06007e-65
6.12252e-65
6.12245e-65
4.57242e-65
9.14478e-65
5.96755e-65
6.82003e-65
7.28497e-65
6.81991e-65
6.58739e-65
5.19236e-65
7.05227e-65
6.89724e-65
4.72731e-65
6.43255e-65
7.05252e-65
6.74245e-65
5.5799e-65
7.36231e-65
5.7348e-65
7.36218e-65
8.83458e-65
6.27717e-65
7.67256e-65
6.27751e-65
6.58744e-65
8.21483e-65
7.82727e-65
7.36219e-65
7.43961e-65
6.19961e-65
4.57222e-65
7.28506e-65
7.595e-65
7.67242e-65
7.98235e-65
8.36974e-65
7.12971e-65
7.12961e-65
4.57255e-65
4.88251e-65
5.73499e-65
5.34743e-65
6.12238e-65
7.74979e-65
4.80485e-65
4.10734e-65
4.9598e-65
5.50255e-65
8.13752e-65
7.28496e-65
6.74239e-65
5.81234e-65
5.65727e-65
8.36961e-65
6.58715e-65
5.50218e-65
4.57253e-65
4.95999e-65
7.28494e-65
5.73487e-65
7.28477e-65
8.05962e-65
6.74212e-65
5.11467e-65
8.05945e-65
5.27004e-65
5.89e-65
7.82743e-65
9.22231e-65
4.41736e-65
9.22208e-65
7.12959e-65
5.42465e-65
2.32482e-65
)
;

boundaryField
{
    inlet
    {
        type            calculated;
        value           uniform 0;
    }
    outlet
    {
        type            calculated;
        value           nonuniform 0();
    }
    wall
    {
        type            calculated;
        value           uniform 0;
    }
    procBoundary0to1
    {
        type            processor;
        value           nonuniform List<scalar> 
12
(
3.71992e-65
3.64237e-65
3.48734e-65
6.43228e-65
7.51717e-65
8.13701e-65
7.0522e-65
7.67206e-65
7.90446e-65
6.58719e-65
7.05207e-65
5.73458e-65
)
;
    }
    procBoundary0to2
    {
        type            processor;
        value           nonuniform List<scalar> 
44
(
6.50995e-65
4.88244e-65
2.55742e-65
4.88236e-65
2.24741e-65
2.63489e-65
5.73506e-65
6.51003e-65
6.50995e-65
5.115e-65
6.50995e-65
4.88244e-65
8.44722e-65
9.76459e-65
5.73472e-65
9.37699e-65
5.42505e-65
6.82003e-65
7.67246e-65
7.7499e-65
8.44722e-65
7.05235e-65
8.44722e-65
9.76459e-65
7.59453e-65
7.98199e-65
7.28506e-65
4.96001e-65
5.50245e-65
6.1224e-65
5.57985e-65
7.12973e-65
7.59453e-65
8.36962e-65
7.59453e-65
7.98199e-65
4.80504e-65
8.1375e-65
8.36993e-65
6.50989e-65
6.43232e-65
6.27724e-65
6.27718e-65
7.74952e-65
)
;
    }
    procBoundary0to4
    {
        type            processor;
        value           nonuniform List<scalar> 
36
(
5.19255e-65
7.36254e-65
7.51749e-65
5.57995e-65
5.96739e-65
5.65736e-65
7.59476e-65
6.74224e-65
8.91213e-65
7.75007e-65
6.35502e-65
7.28495e-65
8.52487e-65
8.21479e-65
7.51725e-65
6.35473e-65
5.42471e-65
9.06699e-65
6.97505e-65
8.75751e-65
6.43245e-65
8.52485e-65
6.97478e-65
5.96725e-65
6.12218e-65
9.68692e-65
5.65713e-65
4.34003e-65
5.73501e-65
7.59493e-65
5.1924e-65
7.36226e-65
6.04474e-65
9.53198e-65
5.96713e-65
5.96709e-65
)
;
    }
    procBoundary0to6
    {
        type            processor;
        value           uniform 6.74205e-65;
    }
    procBoundary0to7
    {
        type            processor;
        value           uniform 9.91924e-65;
    }
}


// ************************************************************************* //
