/*--------------------------------*- C++ -*----------------------------------*\
| =========                 |                                                 |
| \\      /  F ield         | OpenFOAM: The Open Source CFD Toolbox           |
|  \\    /   O peration     | Version:  4.x                                   |
|   \\  /    A nd           | Web:      www.OpenFOAM.org                      |
|    \\/     M anipulation  |                                                 |
\*---------------------------------------------------------------------------*/
FoamFile
{
    version     2.0;
    format      ascii;
    class       volScalarField;
    location    "54.5";
    object      Ksl;
}
// * * * * * * * * * * * * * * * * * * * * * * * * * * * * * * * * * * * * * //

dimensions      [1 -3 -1 0 0 0 0];

internalField   nonuniform List<scalar> 
114
(
3739.17
31714.4
4235.46
89387.8
5698.78
55946
152353
3790.07
128167
3873
66787.9
4200.2
12531.5
4257.94
324883
4314.98
174048
4368.59
99372.9
4861.85
15210.6
7047.13
3157.03
7165.27
3016.56
7925.85
2805.58
9250.74
2486.27
8051.97
25404.9
3619.08
44924.9
3559.33
65882.7
3480.45
26292.2
3513.19
6580.9
57891.4
3794.44
97250.5
3753.06
273495
3621.79
37528.1
3745.98
13369.8
75343
3903.65
7747.49
3281.02
7815.19
3177.05
8602.69
3060.55
11205.4
2933.36
14446.8
14497.3
3511.92
16595.6
3396.39
20709.8
3262.9
22099.6
3038.32
10737.6
238041
3755.68
21265
3759.05
23080.3
3894.14
106255
4220.96
8109.27
48462.7
3652.48
70013.3
3539.07
4888.7
2795.48
4606.37
2591.76
4587.25
2303.1
4916.15
1836.95
5466.33
6095.83
3029.06
5917.58
2840.83
6122.95
2615.34
7157.63
2338.63
9826.51
7229.35
3194.88
7095.69
3030.78
7479.64
2794.47
8036.66
2380.01
8273.26
7172.14
3139.34
7299.4
3010.69
7965.22
2788.82
)
;

boundaryField
{
    inlet
    {
        type            zeroGradient;
    }
    outlet
    {
        type            zeroGradient;
    }
    wall
    {
        type            zeroGradient;
    }
    procBoundary5to1
    {
        type            processor;
        value           nonuniform List<scalar> 
32
(
3070.33
7237.06
2864.19
8885.23
2618.27
9435.76
10640.3
3259.03
11406.6
3079.46
11302.4
2751.18
7888.82
3796.96
36962.1
3815.97
42914.2
3794.97
22183.9
3739.6
8200.87
8579.3
3469.4
12040.2
12040.2
12040.2
41519.6
3776.83
3776.83
3776.83
105204
105204
)
;
    }
    procBoundary5to4
    {
        type            processor;
        value           nonuniform List<scalar> 
12
(
3260.41
3636.92
3807.28
3875.53
3324.6
3575.29
3748.98
3688.59
2961.75
3126.01
3269.06
3232.76
)
;
    }
    procBoundary5to7
    {
        type            processor;
        value           nonuniform List<scalar> 
44
(
3795.92
63093.9
3796.33
219528
3791.56
349991
4130.17
24523.6
51575.3
3795.92
80427.9
3897.36
134443
3879.97
258050
4172.41
17053.9
34463.7
80427.9
4021.45
80427.9
3897.36
42530.2
3382.65
21665.4
3491.91
6776.5
206546
3789.54
27842.7
42530.2
3733.16
42530.2
3382.65
8425.51
2429.45
8027.01
8823.76
3350.7
9353.52
3342.59
12090.3
8425.51
3372.64
)
;
    }
}


// ************************************************************************* //
