/*--------------------------------*- C++ -*----------------------------------*\
| =========                 |                                                 |
| \\      /  F ield         | OpenFOAM: The Open Source CFD Toolbox           |
|  \\    /   O peration     | Version:  4.x                                   |
|   \\  /    A nd           | Web:      www.OpenFOAM.org                      |
|    \\/     M anipulation  |                                                 |
\*---------------------------------------------------------------------------*/
FoamFile
{
    version     2.0;
    format      ascii;
    class       volScalarField;
    location    "54.5";
    object      KslPrev;
}
// * * * * * * * * * * * * * * * * * * * * * * * * * * * * * * * * * * * * * //

dimensions      [1 -3 -1 0 0 0 0];

internalField   nonuniform List<scalar> 
114
(
3637.33
31853
4146.37
86737.2
5584.24
54482.1
219514
3688.17
150155
3793.06
66583.1
4120.93
12311
4120.67
531797
4201.39
154863
4280.36
94790.2
4767.98
14913.4
6819.6
3034.09
6986.59
2929.53
7766.48
2743.83
9077.85
2440.52
7908.31
26668.1
3485.19
48727.8
3461.3
69291.5
3406.77
25966.6
3447.69
6468.07
42143.6
3656.13
72690.3
3649.14
312099
3544.71
37176.8
3675.03
13113
52607.2
3757.23
7553.43
3154.73
7626.79
3085.42
8434.4
2993.35
10984.9
2879.33
14144.5
14596.9
3380.21
16521.6
3300.16
20563.8
3192.61
21720.2
2982.84
10547.5
236379
3616.24
19276.7
3651.7
21803.4
3810.36
104803
4140.36
7964.48
57996.6
3513.44
78859.3
3436.31
4711.16
2683.98
4464.38
2514.93
4479.62
2252.24
4820.23
1804.32
5367.8
5902.58
2910.13
5750.93
2756.95
5984.44
2557.82
7017.28
2296.76
9641.93
7030.37
3069.22
6914.46
2941.04
7320.69
2733.1
7878.25
2336.6
8122.92
6973.06
3015.12
7116.8
2922.33
7797
2726.89
)
;

boundaryField
{
    inlet
    {
        type            zeroGradient;
    }
    outlet
    {
        type            zeroGradient;
    }
    wall
    {
        type            zeroGradient;
    }
    procBoundary5to1
    {
        type            processor;
        value           uniform 0;
    }
    procBoundary5to4
    {
        type            processor;
        value           uniform 0;
    }
    procBoundary5to7
    {
        type            processor;
        value           uniform 0;
    }
}


// ************************************************************************* //
