/*--------------------------------*- C++ -*----------------------------------*\
| =========                 |                                                 |
| \\      /  F ield         | OpenFOAM: The Open Source CFD Toolbox           |
|  \\    /   O peration     | Version:  4.x                                   |
|   \\  /    A nd           | Web:      www.OpenFOAM.org                      |
|    \\/     M anipulation  |                                                 |
\*---------------------------------------------------------------------------*/
FoamFile
{
    version     2.0;
    format      ascii;
    class       surfaceScalarField;
    location    "54.5";
    object      phi;
}
// * * * * * * * * * * * * * * * * * * * * * * * * * * * * * * * * * * * * * //

dimensions      [0 3 -1 0 0 0 0];

internalField   nonuniform List<scalar> 
259
(
6.16197e-06
4.98609e-07
3.60982e-07
5.21405e-06
2.26939e-08
2.51975e-07
4.8581e-06
3.29601e-07
3.1498e-07
3.31311e-06
-6.01719e-08
4.37882e-07
3.75814e-06
4.06329e-07
1.53152e-07
-6.6923e-08
1.44621e-06
5.36752e-06
-2.51871e-08
9.97215e-09
5.60932e-06
3.19955e-07
1.62543e-07
5.21003e-06
-1.843e-08
3.77064e-08
5.56918e-06
2.32125e-07
3.12274e-07
4.69917e-06
-1.03305e-07
1.08151e-07
5.78342e-06
2.5861e-07
5.17075e-07
-1.27292e-07
2.90319e-07
4.86349e-06
-4.54314e-08
4.62909e-06
2.98187e-08
4.74391e-06
2.82962e-07
4.44439e-06
8.45829e-08
4.67918e-06
3.74772e-07
3.89162e-06
1.50451e-08
5.2511e-06
9.91469e-08
3.78259e-07
9.30876e-06
-1.64054e-07
-1.44906e-07
9.35158e-06
1.72144e-08
2.0538e-07
9.42879e-06
-1.33072e-07
-4.19111e-09
9.27671e-06
2.41707e-07
2.71352e-07
9.45754e-06
-2.13728e-07
2.84875e-07
9.11866e-06
5.4118e-07
1.12675e-07
9.52099e-06
-7.52479e-07
7.88032e-07
9.10222e-06
1.10284e-06
-5.30917e-07
-2.9831e-06
2.30621e-06
6.32049e-06
-1.18067e-07
-1.0035e-07
6.1296e-06
1.56917e-07
1.92131e-07
6.0326e-06
-1.27283e-08
-1.33796e-08
6.0711e-06
3.57114e-07
8.64071e-09
5.88634e-06
-8.53512e-08
9.40843e-08
6.42047e-06
5.03265e-07
-1.83939e-07
5.94009e-06
-5.62222e-07
3.98278e-07
7.23074e-06
1.07955e-06
-7.50295e-07
-2.40613e-06
2.2879e-06
4.89284e-06
-4.06958e-09
-3.51739e-08
5.2107e-06
5.57731e-08
-2.62151e-07
5.05287e-06
1.01689e-07
5.45044e-06
5.76094e-08
5.36209e-06
1.27967e-07
5.92162e-06
1.398e-07
5.37393e-06
2.70574e-07
6.28402e-06
-4.25076e-07
2.0325e-06
4.82993e-06
-3.82573e-08
3.21586e-08
8.70579e-06
-6.51463e-08
1.22954e-09
8.81439e-06
-1.39629e-07
2.36412e-07
8.77389e-06
-3.3804e-08
7.01049e-08
8.67406e-06
2.46191e-07
1.24995e-07
8.64038e-06
-2.57905e-08
3.44347e-07
8.239e-06
5.58722e-07
-4.46715e-08
8.15765e-06
-1.18381e-07
9.87767e-07
7.51405e-06
9.07658e-07
-7.94977e-07
-8.01053e-07
3.21801e-06
7.10788e-06
-1.21062e-07
-3.2915e-09
7.08896e-06
-1.34613e-07
2.06039e-07
7.03466e-06
-8.39164e-09
1.55085e-08
6.95824e-06
3.27729e-07
3.52197e-09
6.90294e-06
-3.09204e-08
1.54516e-07
6.97895e-06
6.07177e-07
-3.08407e-07
7.01549e-06
-2.81099e-07
5.2446e-07
7.35958e-06
9.2339e-07
-1.11012e-06
-1.3656e-06
1.87583e-06
5.31448e-06
-3.52563e-08
5.02842e-08
4.52829e-06
1.65927e-07
2.23498e-07
4.3014e-06
1.33715e-07
1.86473e-07
4.54648e-06
2.54794e-07
-1.14539e-07
4.14014e-06
3.66184e-07
5.26573e-06
-3.89877e-07
4.57698e-06
7.24921e-07
6.07578e-06
-1.05033e-06
3.18942e-06
5.81489e-06
3.85205e-08
5.83337e-06
5.35986e-08
5.78955e-06
6.66025e-08
-1.53237e-07
1.11805e-05
-1.98272e-07
1.15436e-05
-1.26709e-07
1.18581e-05
-2.44378e-07
1.19718e-05
1.13447e-08
1.27112e-05
-3.95074e-07
1.24696e-05
1.96969e-07
1.42689e-05
-8.11607e-07
1.27047e-05
7.69278e-07
-2.37912e-06
9.86843e-06
-2.98384e-07
1.01054e-05
-1.57648e-07
1.02882e-05
-4.11706e-07
1.02873e-05
1.58065e-08
1.05914e-05
-5.44634e-07
1.02318e-05
2.48155e-07
1.07458e-05
-8.01194e-07
9.53145e-06
8.73542e-07
-1.49508e-06
8.88528e-06
-2.37133e-07
9.05677e-06
-1.05644e-07
9.15527e-06
-3.23733e-07
9.13443e-06
-7.78934e-08
9.43568e-06
-4.79697e-07
9.29869e-06
-4.73292e-09
1.01297e-05
9.45303e-06
8.96264e-06
9.03271e-06
9.08238e-06
8.97528e-06
9.19902e-06
)
;

boundaryField
{
    inlet
    {
        type            calculated;
        value           nonuniform 0();
    }
    outlet
    {
        type            calculated;
        value           nonuniform List<scalar> 
12
(
7.48986e-07
3.07626e-06
3.28765e-06
1.12253e-05
4.65619e-06
3.03065e-06
7.40331e-06
8.33619e-06
4.14102e-06
1.83018e-05
1.05232e-05
1.27979e-05
)
;
    }
    wall
    {
        type            calculated;
        value           nonuniform List<scalar> 
66
(
0
0
-8.07794e-28
0
0
0
0
0
0
0
0
0
0
0
0
0
0
0
0
0
0
0
0
0
0
0
0
0
0
0
0
0
0
0
0
0
0
0
-5.04871e-29
0
0
0
0
0
0
0
0
0
-5.04871e-29
0
0
0
0
0
0
0
0
0
0
0
0
0
0
0
0
0
)
;
    }
    procBoundary5to1
    {
        type            processor;
        value           nonuniform List<scalar> 
32
(
4.44211e-08
6.73252e-07
-2.88629e-07
1.16728e-06
-1.00451e-06
1.62987e-06
2.70942e-07
-2.25696e-07
4.02716e-07
-5.73947e-07
8.04987e-07
-1.45361e-06
2.47721e-06
-2.38778e-07
1.43533e-07
-2.48081e-07
1.2507e-07
-3.73947e-07
6.32583e-07
-6.7635e-07
1.13912e-06
2.09588e-07
-2.6541e-07
-7.06598e-06
-6.93161e-08
6.00508e-08
1.43178e-07
-5.55393e-06
-2.87579e-07
-1.40939e-07
-4.51789e-06
4.20248e-08
)
;
    }
    procBoundary5to4
    {
        type            processor;
        value           nonuniform List<scalar> 
12
(
-9.20939e-06
-6.4093e-06
-5.01369e-06
-5.0072e-06
-8.78678e-06
-7.14903e-06
-5.48575e-06
-5.90523e-06
-1.0981e-05
-9.77161e-06
-8.89624e-06
-8.94022e-06
)
;
    }
    procBoundary5to7
    {
        type            processor;
        value           nonuniform List<scalar> 
44
(
2.26184e-07
3.58631e-08
1.70253e-07
7.14398e-08
-3.49366e-09
3.6623e-08
-5.23664e-07
3.18774e-07
1.53258e-07
-6.25929e-08
7.32358e-08
1.84895e-07
-4.0389e-08
1.78714e-07
-2.70068e-07
6.9369e-07
-8.07005e-07
5.81914e-08
5.00977e-06
-9.36299e-08
-3.62133e-08
-2.2213e-08
1.37205e-07
1.12704e-08
-4.66963e-08
4.98367e-08
-5.87753e-07
-2.16867e-08
1.26002e-07
1.47142e-07
6.10405e-06
1.1575e-07
-2.41315e-07
2.33703e-07
-9.0724e-07
4.99845e-07
-1.65057e-06
-2.21031e-07
-1.2211e-07
-3.06799e-07
-1.24038e-07
-4.62124e-07
9.10493e-06
-1.44344e-07
)
;
    }
}


// ************************************************************************* //
