/*--------------------------------*- C++ -*----------------------------------*\
| =========                 |                                                 |
| \\      /  F ield         | OpenFOAM: The Open Source CFD Toolbox           |
|  \\    /   O peration     | Version:  4.x                                   |
|   \\  /    A nd           | Web:      www.OpenFOAM.org                      |
|    \\/     M anipulation  |                                                 |
\*---------------------------------------------------------------------------*/
FoamFile
{
    version     2.0;
    format      ascii;
    class       volScalarField;
    location    "54.5";
    object      QPartFluidCoeff;
}
// * * * * * * * * * * * * * * * * * * * * * * * * * * * * * * * * * * * * * //

dimensions      [1 -1 -3 -1 0 0 0];

internalField   nonuniform List<scalar> 
114
(
-2.66038e+07
-2.4595e+07
-2.35859e+07
-1.91717e+07
-2.63161e+07
-1.95451e+07
-2.49728e+07
-2.3937e+07
-2.00544e+07
-2.7663e+07
-2.83467e+07
-3.37984e+07
-2.18095e+07
-3.36718e+07
-2.08918e+07
-2.92798e+07
-1.97684e+07
-1.77638e+07
-2.48612e+07
-2.08479e+07
-2.21403e+07
-2.2552e+07
-1.92102e+07
-2.57191e+07
-2.14404e+07
-2.2176e+07
-2.80513e+07
-2.42713e+07
-2.26872e+07
-1.63362e+07
-2.74854e+07
-2.77164e+07
-3.12171e+07
-3.02216e+07
-2.97495e+07
-3.39814e+07
-1.81077e+07
-3.55997e+07
-2.12514e+07
-2.82783e+07
-1.83257e+07
-2.38817e+07
-3.0259e+07
-2.04206e+07
-2.80689e+07
-2.42696e+07
-2.69918e+07
-1.49372e+07
-3.37617e+07
-1.66554e+07
-2.44712e+07
-3.2081e+07
-2.48605e+07
-2.87541e+07
-2.55471e+07
-2.6926e+07
-2.24314e+07
-2.93583e+07
-1.72821e+07
-2.09032e+07
-3.65683e+07
-2.35229e+07
-3.04251e+07
-2.77753e+07
-3.0684e+07
-3.59402e+07
-2.91887e+07
-1.60314e+07
-2.45961e+07
-2.58204e+07
-2.54986e+07
-2.43811e+07
-3.69046e+07
-3.07592e+07
-2.9762e+07
-3.65066e+07
-2.72974e+07
-1.76626e+07
-3.89252e+07
-3.15384e+07
-3.3022e+07
-8.34894e+06
-2.30428e+07
-1.52113e+07
-2.58439e+07
-2.03022e+07
-1.95608e+07
-2.3885e+07
-2.6437e+07
-1.66617e+07
-2.34149e+07
-2.75302e+07
-1.69314e+07
-2.31433e+07
-2.73395e+07
-2.56808e+07
-1.82414e+07
-3.01087e+07
-1.78021e+07
-2.03563e+07
-2.44089e+07
-2.90639e+07
-2.61213e+07
-2.08217e+07
-3.14929e+07
-2.33352e+07
-2.72954e+07
-2.13399e+07
-2.41282e+07
-2.16235e+07
-2.45527e+07
-2.24929e+07
-3.47963e+07
-2.85612e+07
)
;

boundaryField
{
    inlet
    {
        type            calculated;
        value           nonuniform 0();
    }
    outlet
    {
        type            calculated;
        value           uniform 0;
    }
    wall
    {
        type            calculated;
        value           uniform 0;
    }
    procBoundary5to1
    {
        type            processor;
        value           nonuniform List<scalar> 
32
(
739.511
470.043
731.782
572.867
560.407
240.808
512.962
635.419
633.083
687.899
577.084
715.037
280.048
614.848
431.815
861.219
683.793
810.821
566.945
734.544
256.075
509.255
426.744
589.875
589.875
589.875
614.674
946.642
946.642
946.642
450.865
450.865
)
;
    }
    procBoundary5to4
    {
        type            processor;
        value           nonuniform List<scalar> 
12
(
736.709
855.7
512.863
535.429
730.45
802.837
657.533
615.175
623.833
654.57
536.232
537.577
)
;
    }
    procBoundary5to7
    {
        type            processor;
        value           nonuniform List<scalar> 
44
(
693.367
492.61
602.401
840.347
948.171
605.145
495.797
465.986
767.85
693.367
482.275
647.284
523.715
620.653
666.817
747.596
457.732
276.255
482.275
752.79
482.275
647.284
379.206
552.324
622.213
580.048
352.065
640.475
684.707
512.208
379.206
492.747
379.206
552.324
445.87
614.016
369.793
554.849
529.682
571.48
653.638
389.873
445.87
371.737
)
;
    }
}


// ************************************************************************* //
