/*--------------------------------*- C++ -*----------------------------------*\
| =========                 |                                                 |
| \\      /  F ield         | OpenFOAM: The Open Source CFD Toolbox           |
|  \\    /   O peration     | Version:  4.x                                   |
|   \\  /    A nd           | Web:      www.OpenFOAM.org                      |
|    \\/     M anipulation  |                                                 |
\*---------------------------------------------------------------------------*/
FoamFile
{
    version     2.0;
    format      ascii;
    class       volScalarField;
    location    "54.5";
    object      SPartFluid;
}
// * * * * * * * * * * * * * * * * * * * * * * * * * * * * * * * * * * * * * //

dimensions      [1 -3 -1 0 0 0 0];

internalField   nonuniform List<scalar> 
114
(
6.82079e-65
8.06072e-65
6.35544e-65
6.74284e-65
7.59539e-65
8.44786e-65
6.82065e-65
5.65797e-65
5.8129e-65
6.66541e-65
8.21547e-65
8.52545e-65
7.90534e-65
8.44812e-65
6.0454e-65
7.51808e-65
5.73533e-65
4.57271e-65
7.28536e-65
5.42522e-65
8.68036e-65
6.35522e-65
4.80528e-65
6.9755e-65
5.42538e-65
6.43291e-65
6.82042e-65
7.13034e-65
5.65774e-65
5.96771e-65
7.05271e-65
6.82038e-65
8.52558e-65
7.13047e-65
8.37052e-65
8.13799e-65
5.27025e-65
8.60291e-65
6.89776e-65
8.21512e-65
4.57265e-65
7.28538e-65
7.59544e-65
6.2003e-65
7.05285e-65
7.13031e-65
6.89778e-65
5.5802e-65
9.9976e-65
4.3401e-65
6.66515e-65
8.21537e-65
6.74283e-65
7.36292e-65
6.97536e-65
6.89785e-65
6.66528e-65
7.28533e-65
6.58773e-65
5.4251e-65
8.37033e-65
6.04525e-65
7.13035e-65
7.13035e-65
7.05283e-65
9.14543e-65
6.43276e-65
5.50268e-65
6.89759e-65
6.35517e-65
6.89777e-65
6.04526e-65
1.00755e-64
7.36285e-65
8.21536e-65
8.91289e-65
8.68033e-65
4.80506e-65
9.37773e-65
8.99031e-65
7.98281e-65
2.63506e-65
6.89774e-65
4.57267e-65
7.13038e-65
6.04528e-65
4.96023e-65
6.9753e-65
6.27778e-65
6.04521e-65
6.3551e-65
6.58769e-65
4.34015e-65
5.65775e-65
7.44033e-65
6.51029e-65
4.57266e-65
7.05279e-65
6.0452e-65
6.12258e-65
6.43267e-65
8.52531e-65
6.97527e-65
5.89023e-65
8.06037e-65
6.51026e-65
6.74277e-65
6.82023e-65
7.36259e-65
5.65763e-65
7.13021e-65
5.58019e-65
9.68791e-65
7.75032e-65
)
;

boundaryField
{
    inlet
    {
        type            calculated;
        value           nonuniform 0();
    }
    outlet
    {
        type            calculated;
        value           uniform 0;
    }
    wall
    {
        type            calculated;
        value           uniform 0;
    }
    procBoundary5to1
    {
        type            processor;
        value           nonuniform List<scalar> 
32
(
7.98411e-65
5.73561e-65
8.4484e-65
7.05301e-65
5.73533e-65
4.18515e-65
5.65841e-65
6.1233e-65
6.97571e-65
6.97558e-65
6.5879e-65
7.2079e-65
4.41765e-65
6.35601e-65
5.11545e-65
9.06861e-65
8.29327e-65
8.75823e-65
6.82039e-65
7.90543e-65
3.48761e-65
6.58802e-65
5.27065e-65
8.06104e-65
8.06104e-65
8.06104e-65
7.05277e-65
9.99858e-65
9.99858e-65
9.99858e-65
5.73476e-65
5.73476e-65
)
;
    }
    procBoundary5to4
    {
        type            processor;
        value           nonuniform List<scalar> 
12
(
8.9122e-65
9.06724e-65
5.65743e-65
5.96747e-65
8.21487e-65
8.13739e-65
6.81995e-65
6.81998e-65
7.20745e-65
7.59497e-65
6.2775e-65
6.35501e-65
)
;
    }
    procBoundary5to7
    {
        type            processor;
        value           nonuniform List<scalar> 
44
(
7.8278e-65
6.43278e-65
6.74286e-65
1.03082e-64
1.03857e-64
7.98289e-65
5.65772e-65
8.37031e-65
9.92005e-65
7.8278e-65
6.43275e-65
7.36283e-65
6.74283e-65
6.89782e-65
8.60289e-65
8.44785e-65
7.36275e-65
3.95256e-65
6.43275e-65
8.52521e-65
6.43275e-65
7.36283e-65
5.03767e-65
5.81271e-65
7.36278e-65
6.04521e-65
5.81266e-65
8.0601e-65
7.36265e-65
6.82019e-65
5.03767e-65
5.19265e-65
5.03767e-65
5.81271e-65
5.50268e-65
6.43273e-65
6.12268e-65
6.8976e-65
5.81262e-65
7.6727e-65
7.44023e-65
5.19265e-65
5.50268e-65
3.87511e-65
)
;
    }
}


// ************************************************************************* //
