/*--------------------------------*- C++ -*----------------------------------*\
| =========                 |                                                 |
| \\      /  F ield         | OpenFOAM: The Open Source CFD Toolbox           |
|  \\    /   O peration     | Version:  4.x                                   |
|   \\  /    A nd           | Web:      www.OpenFOAM.org                      |
|    \\/     M anipulation  |                                                 |
\*---------------------------------------------------------------------------*/
FoamFile
{
    version     2.0;
    format      ascii;
    class       volScalarField;
    location    "54.5";
    object      thCond;
}
// * * * * * * * * * * * * * * * * * * * * * * * * * * * * * * * * * * * * * //

dimensions      [1 1 -3 -1 0 0 0];

internalField   nonuniform List<scalar> 
114
(
190.188
189.998
189.993
189.914
189.884
189.901
190.192
190.21
190.085
189.926
189.735
189.704
189.837
190.029
190.126
189.919
189.937
189.926
189.713
189.847
189.713
190.32
190.373
190.06
190.054
189.839
189.733
189.706
189.822
189.883
190.113
190.04
189.816
189.797
189.593
189.534
189.66
189.499
189.696
189.94
190.106
189.801
189.64
189.608
189.513
189.448
189.487
189.647
189.744
189.967
190.208
189.981
190.007
189.815
189.715
189.677
189.631
189.652
189.795
190.149
189.872
189.931
189.727
189.529
189.486
189.365
189.547
189.746
189.987
189.884
189.693
189.612
189.248
189.337
189.259
189.257
189.359
189.995
189.584
189.425
189.458
190.683
190.238
190.333
189.925
189.874
189.94
189.745
189.776
189.877
190.227
190.096
190.198
189.913
189.62
189.653
189.786
189.644
189.779
190.083
189.931
189.626
189.619
189.497
189.352
189.514
189.506
189.561
189.946
189.884
189.588
189.605
189.255
189.398
)
;

boundaryField
{
    inlet
    {
        type            zeroGradient;
    }
    outlet
    {
        type            zeroGradient;
    }
    wall
    {
        type            zeroGradient;
    }
    procBoundary5to1
    {
        type            processor;
        value           nonuniform List<scalar> 
32
(
190.585
190.608
190.275
190.314
190.565
190.924
190.834
190.635
190.46
190.31
190.263
190.341
190.821
190.612
190.636
190.236
190.195
190.077
190.113
190.157
190.688
190.696
190.619
190.222
190.222
190.222
190.43
190.079
190.079
190.079
190.288
190.288
)
;
    }
    procBoundary5to4
    {
        type            processor;
        value           nonuniform List<scalar> 
12
(
190.128
190.034
190.183
190.176
189.984
189.93
190.025
190.016
190.173
190.039
190.102
190.143
)
;
    }
    procBoundary5to7
    {
        type            processor;
        value           nonuniform List<scalar> 
44
(
189.867
189.933
189.797
189.451
189.387
189.498
189.733
189.557
189.9
189.867
189.738
189.561
189.486
189.411
189.264
189.32
189.462
190.121
189.738
189.67
189.738
189.561
189.521
189.484
189.353
189.444
189.559
189.83
189.672
189.605
189.521
189.665
189.521
189.484
189.595
189.581
189.675
189.997
189.908
189.616
189.596
189.685
189.595
189.819
)
;
    }
}


// ************************************************************************* //
