/*--------------------------------*- C++ -*----------------------------------*\
| =========                 |                                                 |
| \\      /  F ield         | OpenFOAM: The Open Source CFD Toolbox           |
|  \\    /   O peration     | Version:  4.x                                   |
|   \\  /    A nd           | Web:      www.OpenFOAM.org                      |
|    \\/     M anipulation  |                                                 |
\*---------------------------------------------------------------------------*/
FoamFile
{
    version     2.0;
    format      ascii;
    class       volVectorField;
    location    "54.5";
    object      UsPrev;
}
// * * * * * * * * * * * * * * * * * * * * * * * * * * * * * * * * * * * * * //

dimensions      [0 1 -1 0 0 0 0];

internalField   nonuniform List<vector> 
114
(
(-0.000338615 2.20546e-05 -0.000190441)
(-0.000172337 3.60878e-05 -0.000109804)
(-0.000124833 5.55951e-06 -7.14763e-05)
(-1.46269e-05 2.0663e-06 -9.85732e-06)
(7.60259e-06 -6.80287e-06 1.48928e-06)
(4.16585e-06 -4.96936e-06 6.45527e-06)
(-0.000541026 -0.000201934 -8.75034e-06)
(-0.000435008 -0.000110489 -0.000157739)
(-0.000202947 -0.000174831 -0.000209658)
(-3.27257e-05 -4.0681e-05 -7.28406e-05)
(1.93145e-05 -2.23249e-05 -9.4779e-06)
(2.58283e-05 -1.65803e-05 9.04354e-06)
(1.7423e-05 -1.41657e-05 5.8614e-06)
(-0.000273941 2.50277e-05 0.000380883)
(-0.000233525 -0.000161547 -1.72092e-05)
(-0.000131123 -0.000190251 -0.000151849)
(-8.69521e-05 -0.000180575 -0.000182476)
(7.51226e-06 -7.96134e-05 -6.55939e-05)
(4.53331e-05 -3.06189e-05 -1.5632e-06)
(4.14738e-05 -1.76605e-05 6.40634e-06)
(1.86743e-05 -1.09548e-05 2.78051e-06)
(-0.000257982 0.000101809 9.45077e-05)
(-0.000179204 2.84739e-05 -4.29138e-05)
(-0.000164388 -3.45872e-05 -3.08913e-05)
(-0.00010048 1.3849e-05 -7.60393e-05)
(-4.83973e-05 1.54017e-05 -7.09881e-05)
(-1.4014e-05 -3.30073e-06 -2.18921e-05)
(1.37186e-06 -1.54637e-06 -2.81971e-06)
(3.17123e-06 -4.16501e-06 2.73985e-06)
(3.90427e-06 -6.54718e-06 5.58148e-06)
(-0.000309039 0.000160163 0.000156634)
(-0.000169777 0.000113873 -1.14743e-05)
(-0.000127292 -6.60484e-05 -6.80144e-05)
(-6.57042e-05 -6.73565e-05 -5.65069e-05)
(-4.92047e-05 -3.97465e-05 -6.31308e-05)
(-1.48571e-05 -1.90995e-05 -2.35253e-05)
(2.05994e-05 -1.74359e-05 1.14593e-05)
(2.26336e-05 -1.74454e-05 1.65927e-05)
(1.0126e-05 -8.11362e-06 9.58227e-06)
(-0.000161455 0.000148201 0.000285126)
(5.18857e-05 8.12383e-05 0.000172409)
(4.06482e-05 -3.76245e-05 -7.84595e-06)
(5.00163e-05 -0.000110856 -4.11317e-05)
(2.58559e-05 -6.26051e-05 -5.67559e-05)
(2.32761e-05 -2.66235e-05 -1.05952e-05)
(3.45762e-05 -1.38722e-05 1.69816e-05)
(2.61196e-05 -7.77763e-06 1.59082e-05)
(7.30629e-06 -5.16201e-06 6.08539e-06)
(-2.0256e-06 0.000187017 0.000120605)
(0.000171524 7.52956e-05 6.16403e-05)
(-0.000137648 5.65698e-05 2.39506e-05)
(-9.43817e-05 2.55963e-05 -5.12536e-05)
(-6.77863e-05 -6.30134e-07 -2.11636e-05)
(-3.6253e-05 -7.79097e-06 -3.29386e-05)
(-1.56636e-05 1.45982e-06 -1.32529e-05)
(-5.25691e-06 -2.82422e-06 3.04452e-06)
(3.11441e-06 -5.85189e-06 9.3805e-06)
(3.29662e-06 -3.01183e-06 6.92549e-06)
(-3.42985e-06 -3.37447e-06 4.88196e-06)
(-0.000163049 6.91735e-05 0.000110913)
(-9.65717e-05 2.93235e-05 -1.20575e-05)
(-3.89985e-05 -1.42944e-05 -7.00793e-07)
(-3.56366e-06 -3.49639e-05 -3.38753e-06)
(1.65948e-05 -2.1819e-05 1.10908e-05)
(1.37909e-05 -1.79279e-05 4.76883e-06)
(1.20199e-05 -1.42031e-05 1.68324e-05)
(1.28484e-05 -9.29032e-06 1.63372e-05)
(5.27374e-06 -1.49482e-06 7.17817e-06)
(-5.61177e-05 0.000128255 0.000189891)
(1.56962e-05 8.13757e-05 3.72028e-05)
(4.61856e-05 1.50309e-05 8.13607e-06)
(7.54227e-05 -1.40496e-05 1.60418e-05)
(3.92939e-05 -2.19627e-05 1.17068e-05)
(1.80752e-05 -1.71861e-06 1.36772e-05)
(1.75501e-05 9.3537e-07 2.38577e-05)
(1.1066e-05 2.08635e-07 1.67724e-05)
(5.98557e-06 1.86652e-06 9.09832e-06)
(3.96341e-05 8.49144e-05 5.83342e-05)
(6.91575e-05 7.81496e-05 5.85676e-05)
(8.57857e-05 3.32961e-05 1.58976e-05)
(7.03504e-05 1.60833e-05 -7.92529e-06)
(-3.99476e-05 8.13247e-07 -5.42431e-06)
(-6.42823e-05 -1.26371e-06 -1.71685e-05)
(-1.89534e-05 3.7036e-05 -4.42401e-06)
(-1.86392e-05 -8.0478e-06 -4.56798e-06)
(-2.03e-05 8.12054e-06 -3.49975e-06)
(-4.37519e-06 8.14665e-07 6.02615e-06)
(2.95278e-06 -2.42963e-06 5.8627e-06)
(5.21737e-06 -3.61328e-06 5.35586e-06)
(2.31065e-06 -3.01927e-06 3.21748e-06)
(-7.7296e-05 1.21091e-05 2.22406e-05)
(-6.6101e-05 -2.68171e-06 -1.42452e-05)
(-4.74163e-05 -2.04224e-05 1.24057e-05)
(-2.3183e-07 1.43338e-05 -8.27116e-06)
(9.83333e-06 1.9474e-05 6.65631e-06)
(1.32548e-05 -1.70927e-06 1.18402e-05)
(1.18252e-05 -7.36446e-06 1.68493e-05)
(7.90282e-06 -3.34142e-06 7.69601e-06)
(3.00407e-06 -1.66752e-06 3.46604e-06)
(-1.37985e-05 3.23809e-05 2.38132e-05)
(-2.80596e-06 5.7023e-06 8.41166e-06)
(-1.09458e-05 1.24125e-05 5.05912e-06)
(8.22074e-06 5.09389e-06 4.07065e-06)
(2.03429e-05 5.26126e-06 1.33171e-05)
(2.10911e-05 7.77396e-06 1.60734e-05)
(1.63145e-05 2.30068e-06 1.04341e-05)
(9.20658e-06 2.01004e-06 7.52523e-06)
(4.30115e-06 8.10704e-07 4.19627e-06)
(3.96872e-05 4.75942e-05 1.50611e-05)
(4.39911e-05 3.18205e-05 1.18066e-05)
(2.09961e-05 3.57235e-05 1.07104e-05)
(2.32062e-05 3.10348e-06 1.56424e-06)
(1.89732e-05 1.3908e-05 1.40047e-05)
(8.72227e-06 8.78659e-06 1.32998e-05)
)
;

boundaryField
{
    inlet
    {
        type            calculated;
        value           nonuniform 0();
    }
    outlet
    {
        type            calculated;
        value           uniform (0 0 0);
    }
    wall
    {
        type            calculated;
        value           uniform (0 0 0);
    }
    procBoundary5to1
    {
        type            processor;
        value           uniform (0 0 0);
    }
    procBoundary5to4
    {
        type            processor;
        value           uniform (0 0 0);
    }
    procBoundary5to7
    {
        type            processor;
        value           uniform (0 0 0);
    }
}


// ************************************************************************* //
