/*--------------------------------*- C++ -*----------------------------------*\
| =========                 |                                                 |
| \\      /  F ield         | OpenFOAM: The Open Source CFD Toolbox           |
|  \\    /   O peration     | Version:  4.x                                   |
|   \\  /    A nd           | Web:      www.OpenFOAM.org                      |
|    \\/     M anipulation  |                                                 |
\*---------------------------------------------------------------------------*/
FoamFile
{
    version     2.0;
    format      ascii;
    class       volScalarField;
    location    "54.5";
    object      KslNext;
}
// * * * * * * * * * * * * * * * * * * * * * * * * * * * * * * * * * * * * * //

dimensions      [1 -3 -1 0 0 0 0];

internalField   nonuniform List<scalar> 
132
(
51575.3
3795.92
63093.9
3796.33
219528
3791.56
349991
4130.17
24523.6
111140
3861.03
123514
3882.72
307600
3991.81
24183.7
4261.9
7121.29
11303
3381.02
11187
3193.25
11260
3003.82
11126.8
2648.8
8391.02
6379.72
3038.99
6406.72
2911.57
7040.4
2828.5
8532.41
2568.3
9536.88
80427.9
3897.36
134443
3879.97
258050
4172.41
17053.9
34463.7
4021.45
39031
3954.38
186500
3820.91
119599
3736.66
27981.5
28111.7
3882.75
22915.5
3949.64
75757.5
4311.39
189470
5303.49
28143.8
11998.3
3563.57
21670.6
3684.67
263107
4054.4
135619
4976.73
34846.8
42530.2
3382.65
21665.4
3491.91
6776.5
206546
3789.54
27842.7
3733.16
185784
3766.93
41214.2
4024.12
8130.17
13832.8
3443.98
13458.6
3173.66
12410
2819.21
10272.5
2333.62
6783.72
6283.34
3069.11
6180.81
2964.45
6792.08
2736.07
7695.36
2315.77
9089.21
8425.51
2429.45
8027.01
8823.76
3350.7
9353.52
3342.59
12090.3
3372.64
17354.1
3500.83
25106.5
6501.06
3105.96
6689.43
3071.67
7754.04
2944.43
9594.79
2765.81
14508.9
5123.82
2923.12
5189.88
2939.25
5615.46
2915.53
5871.81
3058.11
5253.01
)
;

boundaryField
{
    inlet
    {
        type            zeroGradient;
    }
    outlet
    {
        type            zeroGradient;
    }
    wall
    {
        type            zeroGradient;
    }
    procBoundary7to0
    {
        type            processor;
        value           uniform 0;
    }
    procBoundary7to1
    {
        type            processor;
        value           uniform 0;
    }
    procBoundary7to3
    {
        type            processor;
        value           uniform 0;
    }
    procBoundary7to5
    {
        type            processor;
        value           uniform 0;
    }
    procBoundary7to6
    {
        type            processor;
        value           uniform 0;
    }
}


// ************************************************************************* //
