/*--------------------------------*- C++ -*----------------------------------*\
| =========                 |                                                 |
| \\      /  F ield         | OpenFOAM: The Open Source CFD Toolbox           |
|  \\    /   O peration     | Version:  4.x                                   |
|   \\  /    A nd           | Web:      www.OpenFOAM.org                      |
|    \\/     M anipulation  |                                                 |
\*---------------------------------------------------------------------------*/
FoamFile
{
    version     2.0;
    format      ascii;
    class       volScalarField;
    location    "54.5";
    object      magGField;
}
// * * * * * * * * * * * * * * * * * * * * * * * * * * * * * * * * * * * * * //

dimensions      [1 -2 -1 0 0 0 0];

internalField   nonuniform List<scalar> 
132
(
6.04778
88.6208
5.0708
88.0037
1.04243
86.5138
0.830475
76.2974
12.3716
2.78244
87.1325
2.32294
85.8234
1.0118
82.3538
13.2565
74.2294
42.7472
29.7455
100.031
29.9245
104.933
29.3674
110.565
29.027
120.717
36.3725
52.1816
109.748
51.4542
113.542
46.6611
116.13
37.4814
124.175
32.2078
3.72476
83.7835
2.37443
82.7304
1.19261
74.2588
17.5777
9.37957
81.7404
8.00984
82.3401
1.55477
83.9317
2.5669
82.9351
10.7134
11.6013
84.8892
14.0469
82.6602
4.21991
74.7179
1.62769
58.5293
10.616
27.1587
91.2488
14.8077
87.5613
1.2575
78.5435
2.27758
61.6882
8.58404
7.54155
94.5799
14.4663
89.067
44.1728
1.50293
86.3087
11.4494
86.7593
1.72086
84.9012
7.59255
76.9011
36.6994
23.5445
95.1012
23.9521
102.7
25.8458
114.224
30.5059
133.688
43.9697
51.5689
105.436
51.6843
108.765
46.9411
117.164
40.3558
132.842
32.6898
36.9671
127.898
37.082
36.5466
96.6209
33.9893
95.847
26.135
94.0115
17.78
87.5734
11.8004
49.616
103.814
47.7671
105.265
40.8749
107.158
32.1585
111.177
20.3634
62.6078
109.63
61.4251
109.771
56.4961
107.573
52.2243
99.665
56.6917
)
;

boundaryField
{
    inlet
    {
        type            calculated;
        value           nonuniform 0();
    }
    outlet
    {
        type            calculated;
        value           nonuniform List<scalar> 
16
(
27.4277
94.7082
80.4282
70.0917
39.0829
23.7531
23.5875
18.8167
97.925
81.6547
97.7104
71.9639
81.9656
26.0304
45.0375
123.365
)
;
    }
    wall
    {
        type            calculated;
        value           uniform 0;
    }
    procBoundary7to0
    {
        type            processor;
        value           uniform 89.841;
    }
    procBoundary7to1
    {
        type            processor;
        value           uniform 3.84327;
    }
    procBoundary7to3
    {
        type            processor;
        value           nonuniform List<scalar> 
36
(
13.7898
94.0033
12.6758
94.8933
13.1434
93.9288
16.15
87.1185
39.4524
3.06069
85.1035
2.63651
84.0686
1.63593
81.4669
3.83324
70.7597
11.6581
2.91959
92.2113
1.81494
94.6357
3.25456
96.2763
17.3167
93.0633
51.316
44.7962
105.114
41.7748
106.553
34.1774
109.469
26.7817
123.995
26.7201
)
;
    }
    procBoundary7to5
    {
        type            processor;
        value           nonuniform List<scalar> 
44
(
79.0412
0.320223
77.6479
1.41229
75.3409
3.27811
65.2281
20.1009
4.42072
84.7521
3.51923
87.7581
1.03713
89.1856
8.42063
83.2748
22.6243
4.42072
84.7521
84.7521
4.77383
91.7309
13.8061
82.6641
3.00294
74.0018
37.1562
6.73416
89.9358
4.77383
91.7309
91.7309
39.6657
113.12
39.0978
131.17
36.2928
44.9472
103.476
43.764
106.759
39.6657
113.12
113.12
)
;
    }
    procBoundary7to6
    {
        type            processor;
        value           nonuniform List<scalar> 
12
(
88.0745
96.1533
106.544
81.4969
85.8554
94.0148
86.5011
93.0578
103.543
96.9094
101.888
109.072
)
;
    }
}


// ************************************************************************* //
