/*--------------------------------*- C++ -*----------------------------------*\
| =========                 |                                                 |
| \\      /  F ield         | OpenFOAM: The Open Source CFD Toolbox           |
|  \\    /   O peration     | Version:  4.x                                   |
|   \\  /    A nd           | Web:      www.OpenFOAM.org                      |
|    \\/     M anipulation  |                                                 |
\*---------------------------------------------------------------------------*/
FoamFile
{
    version     2.0;
    format      ascii;
    class       volScalarField;
    location    "2";
    object      Deff;
}
// * * * * * * * * * * * * * * * * * * * * * * * * * * * * * * * * * * * * * //

dimensions      [0 2 -1 0 0 0 0];

internalField   nonuniform List<scalar> 
114
(
9.80042e-08
9.78999e-08
9.78897e-08
9.78443e-08
9.78241e-08
9.78299e-08
9.80153e-08
9.80188e-08
9.7948e-08
9.78558e-08
9.77535e-08
9.77297e-08
9.77955e-08
9.79474e-08
9.79907e-08
9.78745e-08
9.78696e-08
9.78602e-08
9.77511e-08
9.77926e-08
9.77281e-08
9.80871e-08
9.81026e-08
9.79335e-08
9.79269e-08
9.78134e-08
9.77544e-08
9.77366e-08
9.77927e-08
9.78222e-08
9.79736e-08
9.7933e-08
9.78105e-08
9.77979e-08
9.76882e-08
9.76525e-08
9.77132e-08
9.76254e-08
9.77249e-08
9.78878e-08
9.79724e-08
9.78084e-08
9.77218e-08
9.76995e-08
9.76439e-08
9.76049e-08
9.76174e-08
9.7698e-08
9.7808e-08
9.79091e-08
9.80233e-08
9.79111e-08
9.78922e-08
9.77941e-08
9.77454e-08
9.77239e-08
9.76972e-08
9.77059e-08
9.77777e-08
9.79886e-08
9.78437e-08
9.78546e-08
9.77547e-08
9.76509e-08
9.76258e-08
9.75601e-08
9.76514e-08
9.7752e-08
9.78676e-08
9.78501e-08
9.77376e-08
9.7702e-08
9.75054e-08
9.75495e-08
9.75061e-08
9.75015e-08
9.75518e-08
9.79751e-08
9.77157e-08
9.76163e-08
9.76239e-08
9.82646e-08
9.80294e-08
9.80701e-08
9.78555e-08
9.78268e-08
9.78584e-08
9.7756e-08
9.77698e-08
9.78204e-08
9.80402e-08
9.79463e-08
9.80074e-08
9.78526e-08
9.76973e-08
9.77109e-08
9.77771e-08
9.77017e-08
9.77698e-08
9.79494e-08
9.7882e-08
9.77138e-08
9.77035e-08
9.76339e-08
9.75563e-08
9.7637e-08
9.76305e-08
9.7657e-08
9.79138e-08
9.78736e-08
9.77045e-08
9.76795e-08
9.75075e-08
9.75803e-08
)
;

boundaryField
{
    inlet
    {
        type            calculated;
        value           nonuniform 0();
    }
    outlet
    {
        type            calculated;
        value           uniform 0;
    }
    wall
    {
        type            calculated;
        value           uniform 0;
    }
    procBoundary5to1
    {
        type            processor;
        value           uniform 0;
    }
    procBoundary5to4
    {
        type            processor;
        value           uniform 0;
    }
    procBoundary5to7
    {
        type            processor;
        value           uniform 0;
    }
}


// ************************************************************************* //
