/*--------------------------------*- C++ -*----------------------------------*\
| =========                 |                                                 |
| \\      /  F ield         | OpenFOAM: The Open Source CFD Toolbox           |
|  \\    /   O peration     | Version:  4.x                                   |
|   \\  /    A nd           | Web:      www.OpenFOAM.org                      |
|    \\/     M anipulation  |                                                 |
\*---------------------------------------------------------------------------*/
FoamFile
{
    version     2.0;
    format      ascii;
    class       volScalarField;
    location    "2";
    object      QWallFluid;
}
// * * * * * * * * * * * * * * * * * * * * * * * * * * * * * * * * * * * * * //

dimensions      [1 -1 -3 0 0 0 0];

internalField   nonuniform List<scalar> 
114
(
1.32106e+09
1.04662e+09
1.50989e+09
1.17545e+09
2.07969e+09
1.24773e+09
0
0
0
0
0
0
0
0
0
0
0
0
0
0
0
9.05262e+08
1.24946e+09
1.01424e+09
1.3534e+09
1.11977e+09
1.51167e+09
1.31752e+09
1.80855e+09
1.39361e+09
0
0
0
0
0
0
0
0
0
0
0
0
0
0
0
0
0
0
0
0
9.07107e+08
1.26948e+09
1.01774e+09
1.36832e+09
1.13374e+09
1.49417e+09
1.10096e+09
1.71588e+09
1.07556e+09
0
0
0
0
0
0
0
0
0
0
0
0
0
0
0
0
0
0
0
0
0
0
2.25068e+09
2.88449e+09
2.61778e+09
3.21371e+09
2.86597e+09
3.57978e+09
2.82356e+09
4.22153e+09
2.44229e+09
6.77764e+08
1.1252e+09
7.36804e+08
1.14614e+09
5.92628e+08
1.08743e+09
3.38142e+08
9.76111e+08
1.25992e+09
7.06611e+08
1.11979e+09
7.26977e+08
1.18264e+09
9.07844e+08
1.28701e+09
9.73977e+08
1.36969e+09
9.85176e+08
8.37856e+08
1.21725e+09
9.92371e+08
1.2958e+09
1.01087e+09
1.41788e+09
)
;

boundaryField
{
    inlet
    {
        type            calculated;
        value           nonuniform 0();
    }
    outlet
    {
        type            calculated;
        value           uniform 0;
    }
    wall
    {
        type            calculated;
        value           uniform 0;
    }
    procBoundary5to1
    {
        type            processor;
        value           nonuniform List<scalar> 
32
(
1.16971e+09
8.58971e+08
1.31819e+09
1.12731e+09
1.6451e+09
1.27544e+09
0
0
0
0
0
0
0
0
0
0
0
0
0
0
0
8.73686e+08
1.23843e+09
9.50886e+08
9.50886e+08
9.50886e+08
0
0
0
0
0
0
)
;
    }
    procBoundary5to4
    {
        type            processor;
        value           nonuniform List<scalar> 
12
(
1.17882e+09
0
0
0
1.19312e+09
0
0
0
2.54531e+09
1.08342e+09
1.10241e+09
1.1596e+09
)
;
    }
    procBoundary5to7
    {
        type            processor;
        value           nonuniform List<scalar> 
44
(
0
0
0
0
0
0
0
0
0
0
0
0
0
0
0
0
0
0
0
0
0
0
0
0
0
0
0
0
0
0
0
0
0
0
1.15874e+09
1.75175e+09
9.6276e+08
3.85232e+08
9.77461e+08
4.18472e+06
9.1562e+08
8.61009e+08
1.15874e+09
8.19965e+08
)
;
    }
}


// ************************************************************************* //
