/*--------------------------------*- C++ -*----------------------------------*\
| =========                 |                                                 |
| \\      /  F ield         | OpenFOAM: The Open Source CFD Toolbox           |
|  \\    /   O peration     | Version:  4.x                                   |
|   \\  /    A nd           | Web:      www.OpenFOAM.org                      |
|    \\/     M anipulation  |                                                 |
\*---------------------------------------------------------------------------*/
FoamFile
{
    version     2.0;
    format      ascii;
    class       volScalarField;
    location    "2";
    object      SPartFluid;
}
// * * * * * * * * * * * * * * * * * * * * * * * * * * * * * * * * * * * * * //

dimensions      [1 -3 -1 0 0 0 0];

internalField   nonuniform List<scalar> 
114
(
6.82952e-65
8.06378e-65
6.34829e-65
6.72368e-65
7.56112e-65
8.39173e-65
6.83579e-65
5.66757e-65
5.81551e-65
6.64798e-65
8.17194e-65
8.45569e-65
7.8183e-65
8.47372e-65
6.06339e-65
7.4523e-65
5.81101e-65
4.55734e-65
6.92172e-65
5.67183e-65
8.55052e-65
6.28158e-65
4.88654e-65
6.9848e-65
5.43142e-65
6.43554e-65
6.81588e-65
7.11674e-65
5.63755e-65
5.93557e-65
7.13655e-65
6.82985e-65
8.54031e-65
7.13917e-65
8.37365e-65
8.12176e-65
5.25088e-65
8.54112e-65
6.83355e-65
8.22324e-65
4.58253e-65
7.3034e-65
7.6078e-65
6.1989e-65
7.03085e-65
7.08352e-65
6.82971e-65
5.51316e-65
1.00075e-64
4.42898e-65
6.66717e-65
7.91013e-65
6.98132e-65
7.44599e-65
6.97784e-65
6.89592e-65
6.65652e-65
7.26753e-65
6.55861e-65
5.35015e-65
8.30103e-65
6.28524e-65
7.13677e-65
7.13208e-65
7.04392e-65
9.11686e-65
6.40283e-65
5.46563e-65
8.06382e-65
6.28496e-65
7.14095e-65
5.97343e-65
1.01523e-64
7.34868e-65
8.17824e-65
8.8466e-65
8.5961e-65
3.56673e-65
9.38839e-65
9.00372e-65
7.9929e-65
2.63531e-65
6.8998e-65
4.57424e-65
7.13334e-65
6.0465e-65
4.9587e-65
6.96855e-65
6.26696e-65
6.02809e-65
6.04555e-65
6.90069e-65
4.18836e-65
5.66056e-65
7.44127e-65
6.50529e-65
4.56314e-65
7.02857e-65
6.01693e-65
6.27705e-65
6.28083e-65
8.53301e-65
6.90276e-65
5.89019e-65
8.04947e-65
6.49331e-65
6.71232e-65
6.78139e-65
7.20552e-65
5.50563e-65
6.98196e-65
5.97183e-65
9.68942e-65
7.74073e-65
)
;

boundaryField
{
    inlet
    {
        type            calculated;
        value           nonuniform 0();
    }
    outlet
    {
        type            calculated;
        value           uniform 0;
    }
    wall
    {
        type            calculated;
        value           uniform 0;
    }
    procBoundary5to1
    {
        type            processor;
        value           nonuniform List<scalar> 
32
(
7.91535e-65
5.81255e-65
8.43038e-65
7.02732e-65
5.70304e-65
4.15221e-65
5.6727e-65
6.13255e-65
6.66058e-65
7.26183e-65
6.5406e-65
7.14002e-65
4.36127e-65
6.37687e-65
5.13261e-65
9.084e-65
8.20631e-65
8.7882e-65
6.75098e-65
7.80627e-65
3.43702e-65
6.59604e-65
5.27799e-65
8.07403e-65
8.07403e-65
8.07403e-65
7.06546e-65
1.00213e-64
1.00213e-64
1.00213e-64
5.74719e-65
5.74719e-65
)
;
    }
    procBoundary5to4
    {
        type            processor;
        value           nonuniform List<scalar> 
12
(
8.91239e-65
9.06749e-65
5.65624e-65
5.96506e-65
8.21261e-65
8.21107e-65
6.81539e-65
6.81351e-65
7.20399e-65
7.58965e-65
6.27216e-65
6.34828e-65
)
;
    }
    procBoundary5to7
    {
        type            processor;
        value           nonuniform List<scalar> 
44
(
7.85231e-65
6.45324e-65
6.75788e-65
1.05356e-64
1.0259e-64
8.06108e-65
5.5809e-65
8.23222e-65
9.94029e-65
7.85231e-65
6.45111e-65
7.37636e-65
6.35393e-65
6.94991e-65
8.53627e-65
8.34762e-65
7.25465e-65
3.95751e-65
6.45111e-65
8.46393e-65
6.45111e-65
7.37636e-65
5.03765e-65
5.7974e-65
7.32061e-65
5.99496e-65
5.73974e-65
8.05955e-65
7.37071e-65
6.83075e-65
5.03765e-65
5.04346e-65
5.03765e-65
5.7974e-65
5.4832e-65
6.39855e-65
6.0811e-65
6.89406e-65
5.81476e-65
7.68074e-65
7.44613e-65
5.19262e-65
5.4832e-65
3.86935e-65
)
;
    }
}


// ************************************************************************* //
