/*--------------------------------*- C++ -*----------------------------------*\
| =========                 |                                                 |
| \\      /  F ield         | OpenFOAM: The Open Source CFD Toolbox           |
|  \\    /   O peration     | Version:  4.x                                   |
|   \\  /    A nd           | Web:      www.OpenFOAM.org                      |
|    \\/     M anipulation  |                                                 |
\*---------------------------------------------------------------------------*/
FoamFile
{
    version     2.0;
    format      ascii;
    class       volScalarField;
    location    "2";
    object      thCond;
}
// * * * * * * * * * * * * * * * * * * * * * * * * * * * * * * * * * * * * * //

dimensions      [1 1 -3 -1 0 0 0];

internalField   nonuniform List<scalar> 
114
(
190.243
190.041
190.021
189.933
189.894
189.905
190.265
190.272
190.134
189.955
189.757
189.711
189.838
190.133
190.217
189.992
189.982
189.964
189.752
189.833
189.707
190.404
190.434
190.106
190.093
189.873
189.758
189.724
189.833
189.89
190.184
190.105
189.867
189.843
189.63
189.561
189.679
189.508
189.701
190.018
190.182
189.863
189.695
189.652
189.544
189.468
189.493
189.649
189.863
190.059
190.281
190.063
190.026
189.836
189.741
189.699
189.647
189.664
189.804
190.213
189.932
189.953
189.759
189.558
189.509
189.381
189.559
189.754
189.978
189.944
189.726
189.657
189.275
189.361
189.277
189.268
189.365
190.187
189.683
189.49
189.505
190.749
190.292
190.371
189.955
189.899
189.96
189.762
189.788
189.887
190.313
190.131
190.25
189.949
189.648
189.674
189.803
189.656
189.788
190.137
190.006
189.68
189.66
189.525
189.374
189.531
189.518
189.569
190.068
189.99
189.662
189.613
189.279
189.421
)
;

boundaryField
{
    inlet
    {
        type            zeroGradient;
    }
    outlet
    {
        type            zeroGradient;
    }
    wall
    {
        type            zeroGradient;
    }
    procBoundary5to1
    {
        type            processor;
        value           nonuniform List<scalar> 
32
(
190.657
190.658
190.302
190.332
190.575
190.92
190.932
190.714
190.543
190.323
190.281
190.351
190.816
190.761
190.773
190.318
190.265
190.115
190.135
190.169
190.678
190.786
190.691
190.288
190.288
190.288
190.512
190.156
190.156
190.156
190.41
190.41
)
;
    }
    procBoundary5to4
    {
        type            processor;
        value           nonuniform List<scalar> 
12
(
190.222
190.13
190.279
190.288
190.055
189.999
190.093
190.122
190.227
190.109
190.175
190.238
)
;
    }
    procBoundary5to7
    {
        type            processor;
        value           nonuniform List<scalar> 
44
(
189.988
190.039
189.867
189.488
189.43
189.503
189.736
189.548
190.04
189.988
189.815
189.627
189.56
189.446
189.277
189.326
189.46
190.238
189.815
189.77
189.815
189.627
189.558
189.511
189.37
189.455
189.563
189.948
189.765
189.677
189.558
189.729
189.558
189.511
189.612
189.593
189.682
190.098
189.997
189.683
189.638
189.713
189.612
189.843
)
;
    }
}


// ************************************************************************* //
