/*--------------------------------*- C++ -*----------------------------------*\
| =========                 |                                                 |
| \\      /  F ield         | OpenFOAM: The Open Source CFD Toolbox           |
|  \\    /   O peration     | Version:  4.x                                   |
|   \\  /    A nd           | Web:      www.OpenFOAM.org                      |
|    \\/     M anipulation  |                                                 |
\*---------------------------------------------------------------------------*/
FoamFile
{
    version     2.0;
    format      ascii;
    class       volScalarField;
    location    "58";
    object      QPartFluid;
}
// * * * * * * * * * * * * * * * * * * * * * * * * * * * * * * * * * * * * * //

dimensions      [1 -1 -3 0 0 0 0];

internalField   nonuniform List<scalar> 
114
(
7.13705e+09
5.59545e+09
3.05438e+09
5.97524e+09
3.6376e+09
4.59597e+09
5.81677e+09
6.93247e+09
6.13429e+09
4.37809e+09
7.34047e+09
4.99373e+09
6.99819e+09
6.71374e+09
4.4704e+09
3.87904e+09
6.16779e+09
5.09716e+09
5.39471e+09
5.81389e+09
5.24874e+09
6.80413e+09
5.40463e+09
6.51357e+09
3.98693e+09
4.00634e+09
5.16143e+09
4.54317e+09
3.95979e+09
4.09746e+09
3.06202e+09
5.34399e+09
3.98224e+09
9.84952e+09
1.23064e+10
6.61536e+09
1.12339e+10
4.73272e+09
7.93668e+09
9.59228e+09
9.17218e+09
8.87981e+09
6.9798e+09
1.11427e+10
8.68581e+09
6.40392e+09
5.86035e+09
1.00173e+10
1.06633e+10
9.18836e+09
9.42236e+09
8.8756e+09
9.17314e+09
8.90708e+09
7.69146e+09
5.06484e+09
5.3826e+09
8.36008e+09
6.02946e+09
7.60121e+09
6.53539e+09
6.72075e+09
7.10399e+09
4.82071e+09
8.07568e+09
9.30809e+09
6.8609e+09
5.73209e+09
6.74289e+09
6.84433e+09
6.74712e+09
7.64044e+09
9.80533e+09
7.17875e+09
5.72961e+09
4.99199e+09
6.9494e+09
9.08599e+09
1.04534e+10
9.17189e+09
6.97545e+09
9.45884e+09
8.44694e+09
1.02212e+10
5.01012e+09
7.59955e+09
6.98251e+09
7.48237e+09
4.77958e+09
6.83225e+09
9.69176e+09
5.3311e+09
7.73249e+09
4.89828e+09
9.48781e+09
1.03025e+10
7.15703e+09
8.24031e+09
6.27966e+09
7.58977e+09
7.52783e+09
5.87126e+09
7.91785e+09
1.05294e+10
6.62729e+09
9.1273e+09
7.73865e+09
1.03142e+10
4.25893e+09
6.30654e+09
7.51475e+09
7.25769e+09
6.75839e+09
6.51091e+09
)
;

boundaryField
{
    inlet
    {
        type            calculated;
        value           uniform 0;
    }
    outlet
    {
        type            calculated;
        value           nonuniform 0();
    }
    wall
    {
        type            calculated;
        value           uniform 0;
    }
    procBoundary2to0
    {
        type            processor;
        value           nonuniform List<scalar> 
44
(
5.06432e+09
5.56586e+09
4.89143e+09
3.98198e+09
5.17327e+09
8.51185e+09
2.97863e+09
4.53355e+09
3.5091e+09
3.5091e+09
5.51101e+09
1.13172e+10
6.74216e+09
1.05211e+10
6.89765e+09
6.35217e+09
7.96354e+09
7.03801e+09
7.79597e+09
5.51101e+09
1.13172e+10
1.13172e+10
8.04353e+09
8.78055e+09
6.42058e+09
5.39534e+09
6.90533e+09
8.66969e+09
9.57422e+09
8.99763e+09
9.97575e+09
8.04353e+09
8.78055e+09
8.78055e+09
5.62147e+09
2.62588e+09
4.82866e+09
6.73954e+09
9.84363e+09
1.02567e+10
5.52673e+09
9.88396e+09
8.59327e+09
5.62147e+09
)
;
    }
    procBoundary2to3
    {
        type            processor;
        value           nonuniform List<scalar> 
12
(
8.49015e+09
6.1795e+09
6.64143e+09
4.33781e+09
8.57927e+09
7.60085e+09
1.2746e+10
8.42886e+09
8.28094e+09
9.55842e+09
6.02589e+09
8.73653e+09
)
;
    }
    procBoundary2to6
    {
        type            processor;
        value           nonuniform List<scalar> 
32
(
8.1228e+09
6.83492e+09
8.97774e+09
5.7062e+09
6.23947e+09
5.62975e+09
9.95463e+09
8.95578e+09
6.08357e+09
7.98363e+09
1.10804e+10
6.07458e+09
8.71127e+09
8.1228e+09
6.83492e+09
6.67677e+09
6.30392e+09
9.21372e+09
8.17631e+09
1.02075e+10
8.84991e+09
8.71722e+09
6.83492e+09
5.7062e+09
8.74925e+09
4.68011e+09
7.57962e+09
5.96064e+09
6.13585e+09
8.70229e+09
5.7062e+09
9.43147e+09
)
;
    }
}


// ************************************************************************* //
