/*--------------------------------*- C++ -*----------------------------------*\
  =========                 |
  \\      /  F ield         | OpenFOAM: The Open Source CFD Toolbox
   \\    /   O peration     | Website:  https://openfoam.org
    \\  /    A nd           | Version:  4.x
     \\/     M anipulation  |
\*---------------------------------------------------------------------------*/
FoamFile
{
    version     2.0;
    format      ascii;
    class       vectorField;
    location    0;
    object      v;
}
// * * * * * * * * * * * * * * * * * * * * * * * * * * * * * * * * * * * * * //

356
(
( -5.89932e-09 9.68364e-11 3.54351e-09 )  
( -2.65508e-09 1.63371e-09 5.42566e-09 )  
( -1.3833e-08 1.4488e-08 2.29887e-08 )  
( -2.65402e-09 -1.40109e-10 2.45467e-09 )  
( -4.04237e-09 7.78404e-10 8.77634e-09 )  
( -2.01601e-09 -5.13028e-10 -5.33046e-10 )  
( -2.91058e-09 6.81962e-09 1.33929e-08 )  
( -6.28598e-10 2.10092e-09 5.53621e-09 )  
( -2.22278e-09 -6.02601e-10 1.31306e-09 )  
( -2.30572e-09 -8.49814e-11 3.06519e-09 )  
( -4.38978e-10 4.15338e-11 5.86493e-10 )  
( -7.4189e-09 5.46238e-09 1.50809e-09 )  
( -4.48e-09 7.68917e-09 1.03881e-08 )  
( -3.04175e-09 6.4249e-09 1.32272e-08 )  
( -3.08493e-09 1.52704e-09 5.27033e-09 )  
( -5.55153e-09 3.90202e-09 1.04529e-08 )  
( -4.37294e-09 5.41706e-09 1.13443e-08 )  
( -2.85781e-09 7.00831e-09 1.444e-08 )  
( -3.07589e-09 3.86995e-09 6.7902e-09 )  
( -8.60511e-09 6.90598e-09 1.55746e-08 )  
( -2.3498e-10 5.43881e-09 9.78664e-09 )  
( -1.01213e-08 8.30447e-09 1.45201e-08 )  
( -3.03779e-09 6.72889e-10 4.63143e-09 )  
( -3.2144e-09 2.61996e-09 9.47349e-09 )  
( -6.69204e-09 7.97772e-09 1.269e-08 )  
( -2.53404e-09 1.13359e-09 5.44758e-09 )  
( -2.45825e-09 2.03186e-10 3.68772e-09 )  
( -4.43638e-09 6.54013e-09 9.56638e-09 )  
( -7.00088e-10 3.92426e-11 1.7221e-09 )  
( -6.42318e-09 1.75722e-10 -1.46734e-10 )  
( -4.09254e-09 4.08416e-09 7.73904e-09 )  
( -2.97055e-09 3.51903e-09 7.39303e-09 )  
( -8.69492e-09 1.37838e-08 1.73626e-08 )  
( -8.90266e-10 2.00131e-10 1.72537e-09 )  
( -4.01001e-09 8.21674e-10 7.72282e-09 )  
( -5.09565e-11 1.12495e-10 -2.16722e-10 )  
( -2.2631e-09 4.59919e-09 1.05354e-08 )  
( -5.91763e-10 -7.27528e-10 -9.8666e-10 )  
( -3.35887e-09 3.54937e-10 5.67835e-09 )  
( -3.45036e-09 -6.79423e-11 1.33768e-09 )  
( -2.3354e-09 9.09383e-11 4.6825e-09 )  
( -4.40038e-09 5.58873e-09 1.15646e-08 )  
( -3.03483e-09 3.64253e-09 9.88162e-09 )  
( -5.88218e-09 3.87829e-09 1.44649e-08 )  
( -3.79413e-09 5.26767e-09 1.2151e-08 )  
( -9.9866e-10 6.56427e-11 3.09429e-09 )  
( -1.26859e-08 -1.34812e-09 1.17041e-08 )  
( -6.43955e-10 -4.06362e-10 3.03997e-10 )  
( -4.11858e-09 4.30067e-09 9.44448e-09 )  
( -7.19523e-09 3.42475e-09 9.60465e-09 )  
( -3.12577e-09 2.85338e-09 6.37625e-09 )  
( -2.49854e-09 1.67978e-09 5.71185e-09 )  
( -3.74796e-09 5.98915e-09 9.81549e-09 )  
( -2.52551e-09 4.13144e-09 8.3428e-09 )  
( -4.33526e-09 2.60269e-09 5.79515e-09 )  
( -2.67872e-09 2.97291e-09 7.04332e-09 )  
( -7.02604e-09 3.14127e-09 6.90798e-09 )  
( -2.17353e-09 4.45973e-09 8.53324e-09 )  
( -1.22537e-09 3.34985e-10 2.32123e-09 )  
( -2.38402e-09 1.00256e-09 4.2252e-09 )  
( -1.19587e-09 8.8216e-11 1.96335e-09 )  
( -2.52409e-09 2.33146e-09 6.11031e-09 )  
( -4.8628e-10 -6.97193e-11 6.93994e-10 )  
( -4.29215e-09 1.97305e-09 6.09583e-09 )  
( -3.15385e-09 1.14767e-09 6.51326e-09 )  
( -5.98617e-10 1.00501e-11 9.40533e-10 )  
( -2.4388e-09 1.74539e-08 1.46398e-08 )  
( -3.34262e-09 1.71627e-09 8.40128e-09 )  
( -2.11045e-09 1.71774e-09 7.69066e-09 )  
( -2.34463e-09 2.49293e-09 6.14426e-09 )  
( -3.57401e-09 5.02807e-09 8.90888e-09 )  
( -4.43814e-09 7.33329e-09 1.42006e-08 )  
( -2.83868e-09 3.65128e-09 7.93673e-09 )  
( -2.99944e-09 3.08915e-09 8.35766e-09 )  
( -5.80152e-10 -1.89947e-10 1.12668e-09 )  
( -2.40246e-09 -1.04944e-09 1.90876e-09 )  
( 1.29504e-10 1.53637e-10 -1.03264e-09 )  
( -4.08887e-09 5.93475e-10 4.75312e-09 )  
( -2.68719e-09 5.01909e-09 1.02977e-08 )  
( -2.53268e-09 4.61654e-09 1.04605e-08 )  
( -1.60446e-09 7.1409e-11 2.06114e-09 )  
( -6.8547e-10 -1.31798e-10 2.32491e-09 )  
( -1.34195e-09 7.49187e-10 3.16998e-09 )  
( -2.60376e-09 1.55948e-09 4.77908e-09 )  
( -1.89198e-10 -1.58823e-10 1.3192e-09 )  
( -3.23385e-09 9.64481e-11 2.93665e-09 )  
( -1.71612e-09 1.27943e-10 3.22595e-09 )  
( -3.07935e-09 6.12462e-09 1.17375e-08 )  
( 4.61525e-11 -3.64381e-10 4.03986e-11 )  
( -2.29516e-10 -2.07455e-10 -7.03605e-10 )  
( -3.2808e-09 5.26454e-09 9.03463e-09 )  
( -6.0237e-09 4.33746e-09 1.00753e-08 )  
( -4.34572e-09 2.08899e-09 7.29396e-09 )  
( -4.24086e-09 -4.39213e-10 8.58737e-09 )  
( -5.88054e-09 4.75093e-10 8.10705e-09 )  
( -2.29449e-09 1.10114e-09 4.41593e-09 )  
( -3.65308e-10 -6.53528e-10 -1.10173e-10 )  
( -2.75852e-09 1.77473e-09 6.01568e-09 )  
( -6.60843e-09 2.39428e-09 1.07937e-08 )  
( -3.66813e-09 3.14951e-09 8.79848e-09 )  
( -6.36524e-09 9.37852e-09 1.42081e-08 )  
( -4.15397e-09 7.33173e-09 1.36687e-08 )  
( -1.25635e-09 -2.32461e-10 3.40835e-10 )  
( -1.83101e-10 1.7681e-09 3.0896e-09 )  
( -1.68761e-08 -4.16468e-09 1.23143e-08 )  
( -4.77507e-10 -2.96814e-10 3.83454e-10 )  
( -2.46133e-09 2.42829e-09 6.45236e-09 )  
( -8.26107e-09 5.69673e-09 9.17657e-09 )  
( -4.86952e-09 4.97044e-09 8.53034e-09 )  
( -2.54496e-10 7.26718e-10 5.27946e-09 )  
( -1.74028e-09 3.89825e-10 5.14679e-09 )  
( -1.53234e-09 1.51413e-09 5.21559e-09 )  
( -1.15649e-09 4.91424e-09 7.63985e-09 )  
( -6.81127e-09 5.02283e-09 1.09202e-08 )  
( -3.23534e-09 2.94792e-11 4.17347e-09 )  
( -1.08039e-08 4.40486e-09 1.46243e-08 )  
( -4.08356e-09 2.68819e-09 8.37622e-09 )  
( -5.04915e-09 7.0144e-09 1.26183e-08 )  
( -3.99223e-09 1.45777e-08 1.60945e-08 )  
( -5.21236e-09 2.30631e-09 8.93451e-09 )  
( -3.72773e-09 -2.38051e-11 -2.47938e-09 )  
( -9.90728e-11 7.92955e-10 2.13782e-09 )  
( -1.5586e-09 2.01112e-09 5.30608e-09 )  
( -3.50636e-09 3.77501e-09 6.80907e-09 )  
( -1.38773e-09 -2.66979e-10 1.80394e-09 )  
( -3.2698e-12 -1.54473e-10 7.86184e-10 )  
( -3.73693e-09 4.10338e-09 9.02556e-09 )  
( -2.70942e-09 4.58503e-09 8.19725e-09 )  
( -3.18111e-09 3.23136e-09 7.01616e-09 )  
( -4.11985e-09 2.59079e-09 7.16324e-09 )  
( -4.4302e-09 6.31523e-09 1.08911e-08 )  
( -2.87968e-10 8.03785e-11 -2.11049e-10 )  
( -4.70034e-09 4.90874e-09 8.29965e-09 )  
( -1.01632e-10 -2.44146e-10 3.50737e-10 )  
( -1.82286e-09 -3.87004e-10 2.99959e-09 )  
( 2.81464e-10 -6.95039e-10 5.08389e-10 )  
( -4.70026e-09 3.72381e-10 -2.46546e-09 )  
( -1.9222e-09 9.32037e-10 4.34882e-09 )  
( -2.7487e-09 -4.33029e-10 -1.41143e-09 )  
( -3.77262e-09 4.72801e-10 7.29604e-09 )  
( -3.79889e-10 -1.46947e-11 8.13994e-10 )  
( -2.74557e-09 2.81901e-09 7.41468e-09 )  
( 1.52517e-11 -1.93685e-10 -1.01529e-09 )  
( -3.16831e-09 1.10601e-08 8.28973e-09 )  
( -3.16271e-10 -6.28802e-11 8.90647e-10 )  
( -3.41193e-09 1.57268e-09 5.60337e-09 )  
( -3.68451e-09 6.03494e-10 6.33654e-09 )  
( -4.1115e-09 2.21371e-09 6.45775e-09 )  
( -2.31648e-09 1.80776e-09 6.94256e-09 )  
( -2.30664e-09 -2.32614e-10 1.89423e-09 )  
( -1.06175e-09 5.4884e-10 2.62899e-09 )  
( -6.30046e-09 5.58311e-09 1.01934e-08 )  
( -2.30791e-09 -1.7208e-10 6.27913e-09 )  
( -3.29295e-10 7.91032e-10 1.87532e-09 )  
( -3.32055e-09 6.27027e-09 1.01157e-08 )  
( -4.03918e-09 2.37578e-09 5.69933e-09 )  
( -6.20146e-09 3.40785e-09 9.19887e-09 )  
( -2.98196e-09 1.31755e-09 3.83991e-09 )  
( -7.42716e-10 1.93075e-10 1.65834e-09 )  
( -2.621e-09 3.88723e-09 7.54482e-09 )  
( -3.24023e-09 1.15903e-09 4.95709e-09 )  
( -3.6619e-09 2.40827e-09 6.88726e-09 )  
( -1.55606e-09 1.54006e-11 2.80805e-09 )  
( -3.04569e-09 1.47019e-09 5.1408e-09 )  
( -4.30468e-09 3.31875e-09 6.21821e-09 )  
( -5.33929e-09 3.45934e-09 6.13617e-09 )  
( -1.66804e-09 8.63943e-10 4.60795e-09 )  
( -1.61418e-09 2.3825e-09 6.28641e-09 )  
( -3.95881e-09 4.16676e-09 8.32878e-09 )  
( -4.05767e-09 3.24734e-09 6.45433e-09 )  
( -2.17616e-09 6.91743e-10 5.80722e-09 )  
( -9.06548e-10 7.28903e-10 3.47323e-09 )  
( -3.6599e-09 1.30625e-09 7.36376e-09 )  
( -3.32974e-09 2.32237e-09 7.37897e-09 )  
( -3.55999e-10 8.26588e-11 5.52397e-10 )  
( -4.17526e-09 4.00566e-09 8.85772e-09 )  
( -4.20047e-09 5.37134e-09 7.57032e-09 )  
( -1.52934e-09 7.02038e-11 2.30459e-09 )  
( -3.08068e-09 3.16448e-09 6.00427e-09 )  
( -2.6646e-09 7.05206e-10 3.42461e-09 )  
( 5.31131e-10 1.42992e-09 2.62937e-09 )  
( -5.93877e-10 -2.97778e-10 4.02421e-10 )  
( -4.55934e-09 6.46965e-09 1.00402e-08 )  
( -4.13615e-09 1.26722e-09 4.94108e-09 )  
( -5.08916e-09 4.9091e-09 7.32692e-09 )  
( -1.33415e-09 -7.25063e-10 4.56889e-09 )  
( -2.7884e-09 1.63854e-09 5.86865e-09 )  
( -2.63275e-09 3.51764e-10 3.27571e-09 )  
( -3.22327e-09 -4.49561e-10 1.08291e-08 )  
( -3.85742e-09 3.46309e-09 6.56506e-09 )  
( -1.36178e-09 -2.33147e-10 3.75497e-10 )  
( -6.5515e-09 5.49785e-09 1.02571e-08 )  
( -1.28201e-09 -2.71096e-10 7.2952e-10 )  
( -5.60747e-09 6.20832e-09 7.80769e-09 )  
( -3.43293e-09 1.65788e-09 5.95416e-09 )  
( -2.77041e-09 1.60336e-09 7.95706e-09 )  
( -1.48025e-09 3.376e-09 7.12751e-09 )  
( -3.32889e-10 7.34839e-10 2.12177e-09 )  
( -2.03294e-09 -8.42013e-10 3.07185e-09 )  
( -9.33532e-10 4.15248e-10 3.65487e-09 )  
( -1.29196e-09 -4.79568e-10 2.08044e-09 )  
( -3.57113e-09 2.24464e-09 7.3417e-09 )  
( -1.72437e-10 -2.13835e-10 -3.66163e-10 )  
( 1.46805e-11 2.12424e-11 -5.27949e-11 )  
( -3.28673e-09 2.71899e-09 6.21599e-09 )  
( -8.60409e-09 2.4301e-09 8.69879e-09 )  
( -6.71527e-09 7.34171e-09 7.76704e-09 )  
( -3.46331e-09 3.02364e-09 6.88096e-09 )  
( -8.01608e-11 -3.37094e-10 1.82599e-10 )  
( -4.29586e-09 2.422e-09 5.68968e-09 )  
( -1.24111e-09 3.42824e-10 2.56784e-09 )  
( -3.0369e-09 1.14333e-09 4.03712e-09 )  
( -5.99265e-10 -1.39489e-10 6.59121e-10 )  
( -2.11574e-09 6.46436e-10 3.88262e-09 )  
( -6.35144e-10 -2.74196e-10 7.84994e-10 )  
( -7.09043e-10 5.78004e-10 1.52202e-09 )  
( -3.24867e-09 9.46225e-09 7.43729e-09 )  
( -3.19367e-09 8.22519e-10 4.23597e-09 )  
( -5.49683e-09 3.11806e-09 7.97972e-09 )  
( -6.83854e-09 5.16328e-09 8.87207e-09 )  
( -1.67888e-09 2.40998e-09 6.79375e-09 )  
( -3.72482e-09 1.60116e-09 6.22602e-09 )  
( -1.55144e-09 7.13342e-10 2.64668e-09 )  
( -1.38057e-09 9.8694e-10 4.63916e-09 )  
( -1.09592e-09 3.16713e-09 8.01004e-09 )  
( -2.21344e-09 1.6239e-09 5.53973e-09 )  
( -3.33272e-09 3.67507e-09 8.10135e-09 )  
( -1.56299e-09 1.2639e-09 3.64465e-09 )  
( -2.67877e-10 7.34418e-11 8.7527e-10 )  
( -2.10771e-09 1.39041e-09 5.25406e-09 )  
( -2.91878e-09 3.17101e-09 8.29794e-09 )  
( -2.30558e-09 3.28774e-09 7.62602e-09 )  
( -7.48795e-10 4.91082e-10 2.75409e-09 )  
( -2.87372e-09 2.7012e-09 7.36635e-09 )  
( -1.46176e-09 7.76254e-10 4.00418e-09 )  
( -2.45484e-09 2.61855e-09 6.99032e-09 )  
( -2.7508e-09 5.08496e-09 7.34145e-09 )  
( -2.57049e-10 2.70613e-10 1.07601e-09 )  
( -2.12904e-09 2.21337e-09 4.90519e-09 )  
( -1.10488e-09 1.15184e-09 2.76552e-09 )  
( -1.90351e-09 4.98596e-09 7.42883e-09 )  
( -1.81956e-09 1.38411e-09 3.76919e-09 )  
( -1.92705e-09 2.27813e-09 4.16005e-09 )  
( -3.33953e-09 3.10717e-09 6.08538e-09 )  
( -2.81727e-09 2.47354e-09 4.9242e-09 )  
( -2.39309e-09 3.371e-09 6.9829e-09 )  
( -2.9391e-09 3.64319e-09 6.88002e-09 )  
( -7.70551e-10 9.42372e-10 2.13988e-09 )  
( -2.54049e-09 3.85996e-09 7.80439e-09 )  
( -2.48268e-09 1.10438e-09 4.23888e-09 )  
( -2.24296e-10 -1.2954e-10 -6.02795e-10 )  
( -5.29047e-10 2.42151e-10 2.01047e-09 )  
( -2.06796e-09 1.39031e-09 5.12822e-09 )  
( -1.17489e-09 -5.69475e-10 3.26897e-09 )  
( -1.72452e-10 2.85532e-12 6.91732e-10 )  
( 3.04296e-09 4.05455e-09 7.36528e-09 )  
( -3.90519e-09 5.59627e-09 1.06263e-08 )  
( -2.62213e-09 1.20278e-09 4.89218e-09 )  
( -1.00598e-09 5.40119e-10 2.8865e-09 )  
( -1.82867e-09 7.94767e-10 3.52865e-09 )  
( -5.87938e-10 -2.13501e-10 1.67005e-09 )  
( -3.17567e-09 3.22027e-10 4.59071e-09 )  
( -3.51352e-09 9.61655e-10 4.30769e-09 )  
( -2.37951e-09 2.08075e-09 6.28746e-09 )  
( -7.778e-10 1.49085e-10 2.00352e-09 )  
( -1.94063e-09 -1.08411e-10 1.94732e-09 )  
( -6.83561e-09 1.24897e-08 1.96072e-08 )  
( -1.88186e-09 1.8261e-09 6.17824e-09 )  
( -5.40177e-09 1.47988e-09 7.59946e-09 )  
( -4.90356e-09 2.99456e-09 6.60093e-09 )  
( -1.3687e-09 4.58981e-09 8.68804e-09 )  
( -5.80654e-09 8.53488e-09 1.29278e-08 )  
( -3.19159e-09 6.84229e-09 6.32742e-09 )  
( -7.56039e-09 5.83465e-09 1.36196e-08 )  
( -2.46831e-09 3.68159e-09 7.91013e-09 )  
( -1.67672e-09 -1.17749e-09 4.86811e-09 )  
( -1.55093e-09 -6.89006e-11 4.30378e-10 )  
( -5.21139e-09 3.67952e-09 8.01641e-09 )  
( -1.38696e-09 5.92925e-09 8.53856e-09 )  
( -3.18909e-09 1.41333e-09 6.59169e-09 )  
( -2.11612e-09 9.98295e-10 5.0808e-09 )  
( -1.35952e-10 -9.35389e-11 -1.67079e-10 )  
( -2.00695e-09 3.80853e-09 7.88115e-09 )  
( -2.3709e-09 2.65799e-09 7.06822e-09 )  
( -2.85616e-09 1.02931e-09 5.7755e-09 )  
( -3.02818e-09 1.70268e-09 5.6743e-09 )  
( -3.39254e-09 4.29512e-09 7.49455e-09 )  
( -2.45775e-09 2.32706e-09 7.57588e-09 )  
( -1.75811e-10 -3.70581e-10 3.25267e-10 )  
( -2.38619e-09 7.31777e-11 3.72516e-09 )  
( -1.11391e-09 3.15989e-10 1.83001e-09 )  
( -3.9912e-09 3.47978e-09 7.23742e-09 )  
( -2.87308e-09 3.2646e-09 7.32879e-09 )  
( -1.47349e-10 -1.29631e-09 1.16464e-08 )  
( -2.23104e-09 -7.21371e-10 5.44772e-09 )  
( -2.47493e-09 1.74041e-09 5.60262e-09 )  
( -6.09601e-09 9.37477e-09 1.30918e-08 )  
( -1.14392e-09 7.36761e-11 1.39082e-09 )  
( -4.6385e-10 -2.05024e-10 4.66546e-10 )  
( -1.98583e-09 5.85301e-10 5.80946e-09 )  
( -9.17522e-10 5.2299e-09 6.97202e-09 )  
( -1.0719e-09 2.39021e-10 1.97185e-09 )  
( -1.00912e-09 -2.62074e-10 1.55409e-09 )  
( -3.15129e-09 5.36692e-09 8.56411e-09 )  
( -3.47805e-09 6.20923e-09 1.109e-08 )  
( -1.05867e-08 1.85935e-09 7.34662e-09 )  
( -1.18457e-10 -4.32171e-10 4.42551e-10 )  
( -5.49813e-10 -2.18076e-09 8.17987e-10 )  
( -9.79294e-09 -3.11062e-09 -8.32364e-10 )  
( -5.57096e-09 -1.58664e-09 2.60571e-09 )  
( 2.24109e-09 -7.75605e-10 1.89864e-11 )  
( -5.69618e-09 2.95166e-09 5.44066e-09 )  
( -6.68158e-09 3.67542e-09 1.90095e-08 )  
( -3.49815e-09 5.9272e-09 1.51484e-08 )  
( -3.29722e-09 5.55566e-10 5.2464e-09 )  
( -1.02144e-08 9.0161e-09 4.45076e-09 )  
( 1.32391e-09 -3.76406e-10 8.26722e-11 )  
( -5.46757e-09 5.87475e-09 5.99613e-09 )  
( -2.55326e-09 4.43465e-09 6.78309e-09 )  
( -7.37104e-09 7.56662e-09 1.2994e-08 )  
( -5.86917e-09 5.75055e-09 1.20249e-08 )  
( -3.37726e-09 5.4722e-09 6.1509e-09 )  
( -2.4665e-09 5.61138e-09 9.39495e-09 )  
( -1.23518e-09 -2.05194e-10 3.14882e-09 )  
( 7.27958e-10 4.1959e-09 4.99546e-09 )  
( -1.65205e-09 -7.11999e-10 1.60729e-09 )  
( -4.03968e-09 5.50679e-09 6.9097e-09 )  
( -1.4189e-08 1.52321e-09 -2.23042e-09 )  
( -8.29395e-10 -1.54323e-10 8.17356e-10 )  
( -8.84861e-09 4.24361e-09 5.25767e-09 )  
( -4.18813e-09 5.12329e-09 1.01458e-08 )  
( -3.15327e-09 4.48108e-09 7.57571e-09 )  
( -5.8148e-09 8.20615e-09 1.45623e-08 )  
( -3.65258e-09 7.28794e-09 1.18429e-08 )  
( -8.98047e-09 -2.47647e-09 3.2526e-09 )  
( 2.44114e-10 -8.39803e-10 7.92592e-10 )  
( -1.88307e-09 6.32413e-10 3.4936e-09 )  
( -4.63325e-10 7.17597e-11 2.32044e-09 )  
( -8.61301e-10 9.75737e-10 3.66195e-09 )  
( -1.07535e-08 1.15242e-08 1.21088e-08 )  
( -5.10777e-10 4.71558e-09 4.86479e-09 )  
( -5.27405e-09 6.04049e-09 1.04681e-08 )  
( -2.48771e-09 6.90784e-09 1.79994e-08 )  
( 1.34007e-09 -3.91457e-10 -2.62297e-10 )  
( -6.0194e-09 7.20756e-09 5.32374e-09 )  
( -7.55752e-09 5.69861e-09 1.48353e-08 )  
( -1.17874e-09 1.08609e-09 4.08558e-09 )  
( 2.59571e-09 -9.2617e-10 1.62169e-10 )  
( 5.84096e-11 2.90561e-09 3.85493e-09 )  
( -1.25262e-09 -2.3299e-10 2.09614e-09 )  
( 1.70002e-10 -6.28243e-10 7.2513e-10 )  
( -9.04681e-09 7.30923e-09 1.44502e-08 )  
( 1.05231e-09 2.68888e-10 2.59628e-09 )  
( 5.38459e-10 -4.2501e-10 2.37375e-10 )  
( -1.67052e-09 3.52334e-09 6.05274e-09 )  
( 1.33615e-09 -4.09252e-11 3.23805e-10 )  
)
