/*--------------------------------*- C++ -*----------------------------------*\
| =========                 |                                                 |
| \\      /  F ield         | OpenFOAM: The Open Source CFD Toolbox           |
|  \\    /   O peration     | Version:  4.x                                   |
|   \\  /    A nd           | Web:      www.OpenFOAM.org                      |
|    \\/     M anipulation  |                                                 |
\*---------------------------------------------------------------------------*/
FoamFile
{
    version     2.0;
    format      ascii;
    class       volScalarField;
    location    "25";
    object      Deff;
}
// * * * * * * * * * * * * * * * * * * * * * * * * * * * * * * * * * * * * * //

dimensions      [0 2 -1 0 0 0 0];

internalField   nonuniform List<scalar> 
114
(
9.91098e-08
9.90916e-08
9.91792e-08
9.90385e-08
9.91015e-08
9.89716e-08
9.93121e-08
9.91781e-08
9.91827e-08
9.9161e-08
9.90266e-08
9.90691e-08
9.89212e-08
9.89133e-08
9.89633e-08
9.94065e-08
9.92305e-08
9.92042e-08
9.91642e-08
9.91604e-08
9.9139e-08
9.90483e-08
9.90306e-08
9.89618e-08
9.94628e-08
9.93828e-08
9.92863e-08
9.92715e-08
9.93354e-08
9.93163e-08
9.93132e-08
9.9164e-08
9.91742e-08
9.85263e-08
9.84223e-08
9.85986e-08
9.84539e-08
9.90289e-08
9.88814e-08
9.87551e-08
9.86795e-08
9.8631e-08
9.86043e-08
9.84284e-08
9.85085e-08
9.85872e-08
9.90571e-08
9.88334e-08
9.87221e-08
9.86873e-08
9.8679e-08
9.86629e-08
9.86003e-08
9.85803e-08
9.85892e-08
9.91383e-08
9.90397e-08
9.88705e-08
9.88608e-08
9.883e-08
9.88371e-08
9.87943e-08
9.87518e-08
9.87826e-08
9.82596e-08
9.8217e-08
9.87222e-08
9.86998e-08
9.85584e-08
9.84406e-08
9.84049e-08
9.82972e-08
9.81806e-08
9.82613e-08
9.83034e-08
9.88441e-08
9.86841e-08
9.85045e-08
9.83564e-08
9.83967e-08
9.83757e-08
9.82684e-08
9.82836e-08
9.82307e-08
9.89175e-08
9.87006e-08
9.86238e-08
9.85234e-08
9.86016e-08
9.84804e-08
9.83661e-08
9.84855e-08
9.83797e-08
9.86015e-08
9.83818e-08
9.8241e-08
9.82165e-08
9.81697e-08
9.81456e-08
9.80846e-08
9.80608e-08
9.85972e-08
9.84439e-08
9.82759e-08
9.82639e-08
9.81921e-08
9.81501e-08
9.80695e-08
9.87513e-08
9.85472e-08
9.84385e-08
9.83204e-08
9.83344e-08
9.82505e-08
)
;

boundaryField
{
    inlet
    {
        type            calculated;
        value           uniform 0;
    }
    outlet
    {
        type            calculated;
        value           nonuniform 0();
    }
    wall
    {
        type            calculated;
        value           uniform 0;
    }
    procBoundary2to0
    {
        type            processor;
        value           uniform 0;
    }
    procBoundary2to3
    {
        type            processor;
        value           uniform 0;
    }
    procBoundary2to6
    {
        type            processor;
        value           uniform 0;
    }
}


// ************************************************************************* //
