/*--------------------------------*- C++ -*----------------------------------*\
| =========                 |                                                 |
| \\      /  F ield         | OpenFOAM: The Open Source CFD Toolbox           |
|  \\    /   O peration     | Version:  4.x                                   |
|   \\  /    A nd           | Web:      www.OpenFOAM.org                      |
|    \\/     M anipulation  |                                                 |
\*---------------------------------------------------------------------------*/
FoamFile
{
    version     2.0;
    format      ascii;
    class       volScalarField;
    location    "25";
    object      KslPrev;
}
// * * * * * * * * * * * * * * * * * * * * * * * * * * * * * * * * * * * * * //

dimensions      [1 -3 -1 0 0 0 0];

internalField   nonuniform List<scalar> 
114
(
6965.1
3229.92
6044.93
3167.55
5507.69
2987.75
3406.97
9106.77
3341.87
7644.1
3312.34
6656.28
3231.35
5643.96
3068.9
3361.29
8494.92
3250.83
6820.27
3199.64
5945.66
3123.2
5390.2
3028.17
3305.36
7572.79
3117.05
5822.78
2956.83
4825.18
2811.25
4103.64
2717.87
12560.9
3763.38
12483.9
3426.66
3465.51
10619.2
3588.86
11498.6
3694.38
11596.8
3716.09
11068.8
3549.27
3433.12
10074.2
3541.05
10235.1
3591.46
10168.6
3618.51
9929.09
3504.95
3360.9
8292.88
3315.22
6981.31
3207.34
6037.87
3141.78
5274.22
3019.93
19702.2
3944.36
3474.11
12606.7
3702.97
20463.9
3814.01
53054.5
3832.55
35317.9
3517.24
3433.34
11599.4
3641.06
15703.6
3760.25
25005.7
3831.45
285878
3839.22
3358.12
9418.25
3393.92
8904.32
3340.2
8424.96
3354.41
7314.47
3235.05
3522.68
11932.9
3741.67
15094.3
3828.94
16706.8
3865.51
17984.3
3484.44
10883
3654.86
12448.3
3730.51
13804.7
3704.23
3380.57
8656.29
3396.68
7884.74
3358.07
7073.11
)
;

boundaryField
{
    inlet
    {
        type            zeroGradient;
    }
    outlet
    {
        type            zeroGradient;
    }
    wall
    {
        type            zeroGradient;
    }
    procBoundary2to0
    {
        type            processor;
        value           uniform 0;
    }
    procBoundary2to3
    {
        type            processor;
        value           uniform 0;
    }
    procBoundary2to6
    {
        type            processor;
        value           uniform 0;
    }
}


// ************************************************************************* //
