/*--------------------------------*- C++ -*----------------------------------*\
| =========                 |                                                 |
| \\      /  F ield         | OpenFOAM: The Open Source CFD Toolbox           |
|  \\    /   O peration     | Version:  4.x                                   |
|   \\  /    A nd           | Web:      www.OpenFOAM.org                      |
|    \\/     M anipulation  |                                                 |
\*---------------------------------------------------------------------------*/
FoamFile
{
    version     2.0;
    format      ascii;
    class       volScalarField;
    location    "25";
    object      QWallFluid;
}
// * * * * * * * * * * * * * * * * * * * * * * * * * * * * * * * * * * * * * //

dimensions      [1 -1 -3 0 0 0 0];

internalField   nonuniform List<scalar> 
114
(
4.96782e+08
9.37225e+08
5.61107e+08
9.62089e+08
6.05603e+08
1.00309e+09
8.68789e+08
3.95132e+08
8.98009e+08
4.61237e+08
9.19454e+08
5.16597e+08
9.43126e+08
5.92634e+08
9.89032e+08
8.73771e+08
4.16042e+08
9.13023e+08
5.03504e+08
9.45448e+08
5.69462e+08
9.73162e+08
6.22114e+08
1.01008e+09
1.75242e+09
9.0416e+08
1.87446e+09
1.14117e+09
1.9953e+09
1.35164e+09
2.10798e+09
1.55889e+09
2.20475e+09
0
0
0
0
0
0
0
0
0
0
0
0
0
0
0
0
0
0
0
0
0
0
8.61051e+08
4.21055e+08
8.94747e+08
4.90857e+08
9.26336e+08
5.6012e+08
9.56929e+08
6.29975e+08
9.98415e+08
0
0
0
0
0
0
0
0
0
0
0
0
0
0
0
0
0
0
0
0
8.5909e+08
3.76982e+08
8.69963e+08
3.98741e+08
8.84957e+08
4.20793e+08
8.92373e+08
4.74521e+08
9.20515e+08
0
0
0
0
0
0
0
0
0
0
0
0
0
0
0
8.46545e+08
4.00193e+08
8.62139e+08
4.36368e+08
8.75814e+08
4.78133e+08
)
;

boundaryField
{
    inlet
    {
        type            calculated;
        value           uniform 0;
    }
    outlet
    {
        type            calculated;
        value           nonuniform 0();
    }
    wall
    {
        type            calculated;
        value           uniform 0;
    }
    procBoundary2to0
    {
        type            processor;
        value           nonuniform List<scalar> 
44
(
4.83659e+08
9.43036e+08
5.4024e+08
9.68746e+08
5.95729e+08
1.00052e+09
8.81697e+08
4.14754e+08
9.16359e+08
9.16359e+08
0
0
0
0
0
0
0
0
0
0
0
0
0
0
0
0
0
0
0
0
0
0
0
0
0
0
0
0
0
0
0
0
0
0
)
;
    }
    procBoundary2to3
    {
        type            processor;
        value           nonuniform List<scalar> 
12
(
6.65421e+08
7.3886e+08
7.1452e+08
1.80785e+09
0
0
0
7.15499e+08
0
0
0
5.50571e+08
)
;
    }
    procBoundary2to6
    {
        type            processor;
        value           nonuniform List<scalar> 
32
(
0
0
0
8.92566e+08
5.35045e+08
9.27701e+08
0
0
0
0
0
0
0
0
0
0
0
0
0
0
0
0
0
8.92566e+08
0
8.53396e+08
3.72117e+08
8.56302e+08
3.7028e+08
8.54269e+08
8.92566e+08
3.43663e+08
)
;
    }
}


// ************************************************************************* //
