/*--------------------------------*- C++ -*----------------------------------*\
| =========                 |                                                 |
| \\      /  F ield         | OpenFOAM: The Open Source CFD Toolbox           |
|  \\    /   O peration     | Version:  4.x                                   |
|   \\  /    A nd           | Web:      www.OpenFOAM.org                      |
|    \\/     M anipulation  |                                                 |
\*---------------------------------------------------------------------------*/
FoamFile
{
    version     2.0;
    format      ascii;
    class       volVectorField;
    location    "25";
    object      Urel;
}
// * * * * * * * * * * * * * * * * * * * * * * * * * * * * * * * * * * * * * //

dimensions      [0 1 -1 0 0 0 0];

internalField   nonuniform List<vector> 
114
(
(-0.0219614 8.74832e-05 0.00105243)
(-0.0233014 7.52668e-05 0.00101549)
(-0.0224681 6.79856e-05 0.000873912)
(-0.0238182 5.79985e-05 0.00081386)
(-0.0229775 5.32538e-05 0.000702184)
(-0.0243354 2.54943e-05 0.000642102)
(-0.0234453 -0.000128639 0.00123253)
(-0.0218113 -0.000123449 0.00115135)
(-0.0229344 -0.000141669 0.00115102)
(-0.0219435 -0.000134066 0.00102334)
(-0.0232987 -0.000132565 0.000972661)
(-0.0224504 -0.000103607 0.000841728)
(-0.0238372 -9.47416e-05 0.000774617)
(-0.0229987 -7.44387e-05 0.000652045)
(-0.024401 -9.50137e-05 0.000585295)
(-0.023567 -0.000361823 0.00121424)
(-0.0220173 -0.000325839 0.00113614)
(-0.0232152 -0.000350707 0.00113562)
(-0.0223586 -0.000317075 0.00101167)
(-0.0237668 -0.000321459 0.000959575)
(-0.0230619 -0.0002652 0.000831792)
(-0.0244729 -0.000258752 0.000764403)
(-0.0237668 -0.000203237 0.00064728)
(-0.0251738 -0.000215798 0.000584294)
(-0.0236954 -0.000427372 0.00117913)
(-0.0222825 -0.000396818 0.00111116)
(-0.0235564 -0.00041335 0.00110299)
(-0.0229016 -0.000378553 0.000996453)
(-0.0243718 -0.000377266 0.00093809)
(-0.0238902 -0.000322202 0.000824142)
(-0.0253334 -0.000312592 0.000747957)
(-0.0248601 -0.000255743 0.000641358)
(-0.026249 -0.000264457 0.00057686)
(-0.0207125 5.26973e-05 0.000889849)
(-0.0221331 3.65096e-05 0.000870753)
(-0.0207002 2.03288e-05 0.000725157)
(-0.0222287 -2.52163e-05 0.000732411)
(-0.0232073 -0.000161792 0.00133672)
(-0.0213659 -0.000142818 0.00121664)
(-0.0223231 -0.000164266 0.00124942)
(-0.0209264 -0.000152378 0.00107183)
(-0.0222053 -0.000164299 0.00105293)
(-0.0208856 -0.000126739 0.000884265)
(-0.0223218 -0.000126186 0.000862263)
(-0.0209564 -0.000107685 0.000710793)
(-0.0225079 -0.000132779 0.000693314)
(-0.0233469 -0.000395367 0.00131257)
(-0.0215959 -0.000352946 0.00120428)
(-0.0226317 -0.000384667 0.00123709)
(-0.0213918 -0.000335788 0.00107319)
(-0.022726 -0.000350209 0.00105108)
(-0.0215861 -0.000284062 0.000894542)
(-0.0230243 -0.000291042 0.000866024)
(-0.0218358 -0.000230804 0.000725654)
(-0.0233587 -0.000252055 0.00070793)
(-0.0234982 -0.000468924 0.00128041)
(-0.0219245 -0.000431938 0.00118828)
(-0.0230485 -0.000456527 0.00121188)
(-0.0221035 -0.000407445 0.00108101)
(-0.0234659 -0.000414491 0.00104933)
(-0.0226703 -0.000350466 0.000923862)
(-0.0240596 -0.000354846 0.000874092)
(-0.0232666 -0.000296637 0.000760778)
(-0.0246666 -0.000317446 0.000726129)
(-0.0187087 -9.92084e-07 0.000553265)
(-0.0202977 -9.7749e-05 0.000511879)
(-0.0229446 -0.000201364 0.00118617)
(-0.0209261 -0.000174211 0.00107225)
(-0.021709 -0.000195491 0.00106988)
(-0.0199886 -0.000166999 0.000909211)
(-0.0211686 -0.000178222 0.000861871)
(-0.0194762 -0.000140517 0.000722691)
(-0.0209082 -0.000145992 0.000673871)
(-0.0191376 -0.000147076 0.000562875)
(-0.0207366 -0.000198652 0.000488079)
(-0.0231059 -0.000437087 0.00116553)
(-0.0211914 -0.000385136 0.00106304)
(-0.0220639 -0.000422593 0.00106749)
(-0.0205157 -0.000357957 0.000927094)
(-0.0217404 -0.000380119 0.000882754)
(-0.0202464 -0.000305197 0.00075123)
(-0.0216616 -0.000332536 0.000692196)
(-0.0200806 -0.000271803 0.000587681)
(-0.0216647 -0.000312826 0.00051702)
(-0.0232817 -0.000507043 0.00114332)
(-0.0215541 -0.000467751 0.00105949)
(-0.0225263 -0.000498591 0.00106761)
(-0.0213117 -0.000438785 0.000957319)
(-0.0225447 -0.000448979 0.000910716)
(-0.021466 -0.00037926 0.000799762)
(-0.0227692 -0.000398677 0.000734303)
(-0.0216908 -0.000344288 0.000657729)
(-0.0230511 -0.000383797 0.00059156)
(-0.0227689 -0.000217597 0.000919406)
(-0.0206893 -0.00019914 0.000823494)
(-0.0213787 -0.000223253 0.000820143)
(-0.0195448 -0.000185162 0.000702024)
(-0.0206417 -0.000198272 0.000665543)
(-0.0188686 -0.000164854 0.000555987)
(-0.0202042 -0.000180405 0.000535659)
(-0.0183923 -0.00017127 0.000417762)
(-0.0229448 -0.000470361 0.000897995)
(-0.0209879 -0.000412749 0.000818274)
(-0.0217584 -0.000439622 0.000817424)
(-0.020125 -0.000366108 0.0007228)
(-0.0212471 -0.000381291 0.000686882)
(-0.0196892 -0.000317903 0.000587656)
(-0.0210128 -0.000341998 0.000541216)
(-0.0231448 -0.000544326 0.000885461)
(-0.021385 -0.000495057 0.000826292)
(-0.0222534 -0.000517149 0.000835174)
(-0.0209427 -0.000450714 0.000766716)
(-0.0220665 -0.000457693 0.000734798)
(-0.0208833 -0.000397324 0.000644233)
)
;

boundaryField
{
    inlet
    {
        type            calculated;
        value           nonuniform List<vector> 
12
(
(-0.0100005 -3.75377e-07 -5.34861e-07)
(-0.0100004 3.83448e-07 -8.27346e-07)
(-0.00999918 3.46596e-07 -3.19482e-07)
(-0.0100003 -2.81322e-08 -3.88319e-07)
(-0.0100005 5.20318e-08 -4.63746e-07)
(-0.0100001 3.34873e-08 -2.33438e-07)
(-0.0100002 -7.24696e-08 -3.09357e-07)
(-0.0100001 5.20417e-08 -1.67744e-07)
(-0.01 -4.64948e-08 -1.87068e-07)
(-0.0100002 -8.0555e-08 -1.5361e-07)
(-0.0100001 -4.40543e-08 -9.52425e-08)
(-0.0100001 1.24531e-08 -1.18867e-07)
)
;
    }
    outlet
    {
        type            calculated;
        value           nonuniform 0();
    }
    wall
    {
        type            calculated;
        value           nonuniform List<vector> 
66
(
(-4.83729e-07 -3.75377e-07 -5.34861e-07)
(-3.72801e-07 3.83448e-07 -8.27346e-07)
(8.16617e-07 3.46596e-07 -3.19482e-07)
(-1.1603e-06 -1.46621e-07 -1.17804e-06)
(-1.15742e-06 1.87198e-07 -1.09291e-06)
(-6.24688e-07 2.11872e-07 -6.8211e-07)
(-1.10877e-06 -4.47425e-07 -1.26226e-06)
(-1.03101e-06 -7.44346e-08 -1.35446e-06)
(-6.39059e-07 -6.50437e-08 -1.0372e-06)
(-1.09255e-06 -5.23538e-07 -8.13926e-07)
(-1.17428e-06 -5.17319e-07 -7.88565e-07)
(-1.40861e-06 3.57949e-07 -1.18158e-06)
(-8.05842e-07 4.69641e-07 -1.81219e-07)
(-1.36401e-06 -4.65296e-07 -7.61379e-08)
(-1.80336e-06 -9.2173e-07 -2.06005e-07)
(-2.2489e-06 3.86203e-07 -2.23429e-07)
(-2.61414e-06 4.61527e-07 9.10493e-08)
(-2.77227e-06 -2.76695e-07 1.52684e-06)
(-3.32977e-06 -3.11603e-07 1.3182e-06)
(-3.71856e-06 -4.64166e-07 1.27594e-06)
(-3.85344e-06 -1.13485e-07 4.09915e-07)
(-2.05191e-06 -1.69352e-06 3.35507e-06)
(-3.53765e-06 6.96957e-07 2.03764e-06)
(-5.59835e-06 2.51493e-07 1.88178e-06)
(-5.42531e-06 2.08967e-07 1.03522e-06)
(0.000262779 0.000258365 0.000300668)
(-3.69212e-06 -1.77174e-06 4.31183e-06)
(-6.67251e-06 -8.33244e-07 2.92242e-06)
(-6.52281e-06 1.27704e-06 1.3585e-06)
(0.000368665 0.000377145 0.000410832)
(-5.83942e-06 -2.93415e-06 5.19383e-06)
(-7.92553e-06 -2.23122e-06 3.43547e-06)
(-6.91604e-06 -2.74335e-06 1.05298e-06)
(8.16617e-07 3.46596e-07 -3.19482e-07)
(-1.20407e-07 3.34873e-08 -2.33438e-07)
(-2.18511e-08 -4.64948e-08 -1.87068e-07)
(-7.99846e-08 1.24531e-08 -1.18867e-07)
(-6.24688e-07 2.11872e-07 -6.8211e-07)
(-3.2738e-07 5.53731e-08 -5.51682e-07)
(-8.03342e-08 -8.10867e-08 -3.39425e-07)
(-2.61761e-07 3.38735e-09 -1.7952e-07)
(-6.39059e-07 -6.50437e-08 -1.0372e-06)
(-9.79221e-07 7.6961e-09 -5.9706e-07)
(-6.75206e-07 -9.79087e-08 -2.46531e-07)
(-8.7718e-07 -3.13142e-07 -2.05243e-07)
(-8.05842e-07 4.69641e-07 -1.81219e-07)
(-1.64103e-06 7.87865e-09 -2.48472e-07)
(-1.7229e-06 -2.65103e-07 -4.23525e-07)
(-1.44806e-06 -1.40533e-07 -2.35894e-07)
(-2.61414e-06 4.61527e-07 9.10493e-08)
(-2.2505e-06 3.2262e-07 1.1148e-07)
(-3.08826e-06 4.28217e-08 2.61571e-07)
(-2.75809e-06 -2.53717e-07 -1.30131e-08)
(-3.85344e-06 -1.13485e-07 4.09915e-07)
(-3.93117e-06 -2.78932e-07 5.83262e-07)
(-5.29084e-06 -4.67731e-07 7.31191e-07)
(-4.49537e-06 -6.82485e-07 1.65278e-07)
(-5.42531e-06 2.08967e-07 1.03522e-06)
(-5.01094e-06 1.43416e-07 9.35404e-07)
(-6.62596e-06 2.38796e-07 1.69969e-06)
(-6.52281e-06 1.27704e-06 1.3585e-06)
(-7.29973e-06 5.89598e-07 8.29715e-07)
(-6.86803e-06 1.8894e-06 2.06728e-06)
(-6.91604e-06 -2.74335e-06 1.05298e-06)
(-2.64077e-06 2.43771e-07 1.52892e-06)
(-6.94767e-06 1.90214e-06 3.38978e-06)
)
;
    }
    procBoundary2to0
    {
        type            processor;
        value           nonuniform List<vector> 
44
(
(-0.0221374 0.000295188 0.00104697)
(-0.0235183 0.000279991 0.00100176)
(-0.0227277 0.000234335 0.000868205)
(-0.0241041 0.000234817 0.000806785)
(-0.0232946 0.000203188 0.000682325)
(-0.024652 0.000207903 0.000628284)
(-0.0234422 0.000134934 0.00127758)
(-0.0218128 0.000110818 0.00117699)
(-0.0229363 0.000106489 0.00117996)
(-0.0229363 0.000106489 0.00117996)
(-0.0208296 7.5404e-05 0.00109005)
(-0.02209 5.96248e-05 0.00107401)
(-0.0210355 0.000234876 0.00089324)
(-0.0224599 0.000237173 0.000880584)
(-0.0210625 0.000193006 0.000729704)
(-0.0225747 0.000203902 0.000775839)
(-0.0231681 0.000118179 0.0013817)
(-0.0213061 0.000102808 0.00124611)
(-0.0222512 9.86032e-05 0.00128139)
(-0.0208296 7.5404e-05 0.00109005)
(-0.02209 5.96248e-05 0.00107401)
(-0.02209 5.96248e-05 0.00107401)
(-0.0191458 4.65688e-05 0.000719779)
(-0.0206158 2.53946e-05 0.000676718)
(-0.0190296 0.000206621 0.000552195)
(-0.020622 0.000230388 0.000514716)
(-0.0228811 0.000105857 0.00120614)
(-0.0208073 9.15586e-05 0.0010942)
(-0.0215776 8.48231e-05 0.00109862)
(-0.0197591 6.70561e-05 0.000915808)
(-0.0209578 5.36767e-05 0.000870713)
(-0.0191458 4.65688e-05 0.000719779)
(-0.0206158 2.53946e-05 0.000676718)
(-0.0206158 2.53946e-05 0.000676718)
(-0.0179376 1.27743e-05 0.000376139)
(-0.0194471 -4.70841e-05 0.000283738)
(-0.0227152 0.000112094 0.000907927)
(-0.0205953 8.8364e-05 0.000828514)
(-0.0212522 7.88468e-05 0.000815363)
(-0.0193257 5.97985e-05 0.000692601)
(-0.0204171 4.66315e-05 0.000648986)
(-0.0185305 4.02823e-05 0.000536933)
(-0.0198952 2.75548e-05 0.000492248)
(-0.0179376 1.27743e-05 0.000376139)
)
;
    }
    procBoundary2to3
    {
        type            processor;
        value           nonuniform List<vector> 
12
(
(-0.0235332 1.66675e-06 0.000500713)
(-0.0235831 -8.63785e-05 0.000464305)
(-0.0244624 -0.000184693 0.000478921)
(-0.0257662 -0.000216642 0.000484719)
(-0.0207172 -2.63237e-05 0.000603255)
(-0.0211013 -0.000125473 0.000555918)
(-0.0221036 -0.000216903 0.000583353)
(-0.0238586 -0.000273864 0.000637861)
(-0.0181474 -8.08274e-06 0.000412136)
(-0.0188425 -0.000205357 0.000396858)
(-0.0199681 -0.000271143 0.00044044)
(-0.0219612 -0.000346191 0.000544341)
)
;
    }
    procBoundary2to6
    {
        type            processor;
        value           nonuniform List<vector> 
32
(
(-0.0199346 -0.000227775 0.000282355)
(-0.0194389 -0.000293893 0.000462471)
(-0.0209241 -0.000312102 0.000383935)
(-0.0221087 -0.000407642 0.000597899)
(-0.0209596 -0.000355669 0.000546597)
(-0.0222588 -0.000372809 0.00048224)
(-0.0227155 -0.000223798 0.000536944)
(-0.0205751 -0.000204756 0.000489638)
(-0.0212193 -0.000219291 0.000480708)
(-0.0192658 -0.000177969 0.000420181)
(-0.0203704 -0.000183212 0.000391082)
(-0.0183933 -0.00014885 0.00032056)
(-0.0197909 -0.000156225 0.000299871)
(-0.0199346 -0.000227775 0.000282355)
(-0.0194389 -0.000293893 0.000462471)
(-0.0176423 -0.000129229 0.000277132)
(-0.0229055 -0.000500724 0.000524499)
(-0.0209015 -0.000426841 0.000492781)
(-0.0216407 -0.000459189 0.000485444)
(-0.0199164 -0.000371647 0.000445482)
(-0.0210285 -0.000388655 0.000416622)
(-0.0193245 -0.00032114 0.000367475)
(-0.0194389 -0.000293893 0.000462471)
(-0.0221087 -0.000407642 0.000597899)
(-0.0206548 -0.000370967 0.000339607)
(-0.0231187 -0.000560947 0.000533046)
(-0.0213265 -0.000505185 0.000509958)
(-0.022158 -0.000524703 0.000512439)
(-0.0207825 -0.000449774 0.000487828)
(-0.0218591 -0.000450614 0.000463514)
(-0.0221087 -0.000407642 0.000597899)
(-0.0205548 -0.000394319 0.000426804)
)
;
    }
}


// ************************************************************************* //
