/*--------------------------------*- C++ -*----------------------------------*\
| =========                 |                                                 |
| \\      /  F ield         | OpenFOAM: The Open Source CFD Toolbox           |
|  \\    /   O peration     | Version:  4.x                                   |
|   \\  /    A nd           | Web:      www.OpenFOAM.org                      |
|    \\/     M anipulation  |                                                 |
\*---------------------------------------------------------------------------*/
FoamFile
{
    version     2.0;
    format      ascii;
    class       volScalarField;
    location    "13.5";
    object      Cs;
}
// * * * * * * * * * * * * * * * * * * * * * * * * * * * * * * * * * * * * * //

dimensions      [1 -3 0 0 0 0 0];

internalField   nonuniform List<scalar> 
132
(
334.905
334.914
334.935
334.968
335.005
335.046
335.079
335.107
335.184
334.92
334.924
334.946
334.975
335.009
335.043
335.076
335.098
335.239
334.917
334.917
334.932
334.953
334.985
335.002
335.039
335.037
335.192
334.941
334.916
334.89
334.859
334.84
334.818
334.837
334.831
335.006
334.996
335.034
335.074
335.102
335.107
335.102
335.164
334.96
334.977
335.007
335.038
335.07
335.093
335.114
335.121
335.268
334.949
334.958
334.981
335.004
335.036
335.05
335.079
335.07
335.154
334.953
334.936
334.921
334.902
334.894
334.881
334.89
334.893
334.98
335.048
335.075
335.107
335.092
335.213
334.954
334.96
334.974
334.991
335.015
335.035
335.063
335.077
335.167
334.957
334.962
334.975
334.989
335.003
335.009
335.022
335.016
335.146
334.967
334.957
334.948
334.937
334.931
334.923
334.93
334.93
335.375
334.945
334.957
335.281
334.955
334.945
334.937
334.933
334.938
334.954
334.98
335.004
335.125
334.964
334.956
334.947
334.938
334.931
334.928
334.931
334.936
334.99
334.971
334.962
334.952
334.941
334.933
334.925
334.921
334.919
334.808
)
;

boundaryField
{
    inlet
    {
        type            calculated;
        value           nonuniform 0();
    }
    outlet
    {
        type            calculated;
        value           uniform 335;
    }
    wall
    {
        type            calculated;
        value           nonuniform List<scalar> 
66
(
334.955
334.964
334.971
334.945
334.956
334.962
334.937
334.947
334.952
334.933
334.938
334.941
334.938
334.931
334.933
334.954
334.928
334.925
334.945
334.98
334.931
334.921
334.957
335.004
334.936
334.919
335.281
335.125
334.99
334.808
334.941
334.953
334.967
334.971
334.916
334.936
334.957
334.962
334.89
334.921
334.948
334.952
334.859
334.902
334.937
334.941
334.84
334.894
334.931
334.933
334.818
334.881
334.923
334.925
334.837
334.89
334.93
334.921
334.831
334.893
334.93
334.919
335.006
334.98
335.375
334.808
)
;
    }
    procBoundary7to0
    {
        type            processor;
        value           uniform 334.912;
    }
    procBoundary7to1
    {
        type            processor;
        value           uniform 334.918;
    }
    procBoundary7to3
    {
        type            processor;
        value           nonuniform List<scalar> 
36
(
334.851
334.868
334.905
334.946
334.992
335.039
335.081
335.117
335.199
334.858
334.861
334.892
334.927
334.981
335.028
335.073
335.103
335.236
334.853
334.844
334.869
334.9
334.954
334.981
335.029
335.027
335.536
334.891
334.854
334.818
334.783
334.757
334.736
334.737
334.742
334.971
)
;
    }
    procBoundary7to5
    {
        type            processor;
        value           nonuniform List<scalar> 
44
(
334.925
334.954
334.992
335.031
335.072
335.111
335.129
335.269
334.943
334.965
334.999
335.036
335.076
335.098
335.124
335.117
335.281
334.943
334.965
334.965
334.98
335.01
335.014
335.027
335.055
335.054
335.18
334.944
334.956
334.98
335.01
335.01
334.935
334.935
334.934
334.938
335.103
334.958
334.949
334.943
334.938
334.935
334.935
334.935
)
;
    }
    procBoundary7to6
    {
        type            processor;
        value           nonuniform List<scalar> 
12
(
334.922
334.927
334.959
334.944
334.949
334.967
334.956
334.959
334.975
334.968
334.973
334.979
)
;
    }
}


// ************************************************************************* //
