/*--------------------------------*- C++ -*----------------------------------*\
| =========                 |                                                 |
| \\      /  F ield         | OpenFOAM: The Open Source CFD Toolbox           |
|  \\    /   O peration     | Version:  4.x                                   |
|   \\  /    A nd           | Web:      www.OpenFOAM.org                      |
|    \\/     M anipulation  |                                                 |
\*---------------------------------------------------------------------------*/
FoamFile
{
    version     2.0;
    format      ascii;
    class       volScalarField;
    location    "13.5";
    object      nu;
}
// * * * * * * * * * * * * * * * * * * * * * * * * * * * * * * * * * * * * * //

dimensions      [0 2 -1 0 0 0 0];

internalField   nonuniform List<scalar> 
132
(
1.00028e-06
1.00026e-06
1.00019e-06
1.00009e-06
9.99986e-07
9.99864e-07
9.99765e-07
9.99682e-07
9.9945e-07
1.00024e-06
1.00023e-06
1.00016e-06
1.00007e-06
9.99972e-07
9.99871e-07
9.99772e-07
9.99706e-07
9.99287e-07
1.00025e-06
1.00025e-06
1.0002e-06
1.00014e-06
1.00005e-06
9.99995e-07
9.99882e-07
9.99891e-07
9.99426e-07
1.00018e-06
1.00025e-06
1.00033e-06
1.00042e-06
1.00048e-06
1.00054e-06
1.00049e-06
1.00051e-06
9.99981e-07
1.00001e-06
9.99899e-07
9.9978e-07
9.99697e-07
9.99682e-07
9.99696e-07
9.99509e-07
1.00012e-06
1.00007e-06
9.99978e-07
9.99888e-07
9.99792e-07
9.99723e-07
9.99659e-07
9.99638e-07
9.99201e-07
1.00015e-06
1.00012e-06
1.00006e-06
9.99989e-07
9.99893e-07
9.9985e-07
9.99766e-07
9.9979e-07
9.99542e-07
1.00014e-06
1.00019e-06
1.00024e-06
1.00029e-06
1.00032e-06
1.00035e-06
1.00033e-06
1.00032e-06
1.00006e-06
9.99857e-07
9.99777e-07
9.99682e-07
9.99726e-07
9.99364e-07
1.00014e-06
1.00012e-06
1.00008e-06
1.00003e-06
9.99955e-07
9.99896e-07
9.99812e-07
9.99772e-07
9.99502e-07
1.00013e-06
1.00011e-06
1.00008e-06
1.00003e-06
9.9999e-07
9.99974e-07
9.99935e-07
9.99952e-07
9.99566e-07
1.0001e-06
1.00013e-06
1.00016e-06
1.00019e-06
1.00021e-06
1.00023e-06
1.00021e-06
1.00021e-06
9.98883e-07
1.00016e-06
1.00013e-06
9.99163e-07
1.00014e-06
1.00016e-06
1.00019e-06
1.0002e-06
1.00018e-06
1.00014e-06
1.00006e-06
9.99988e-07
9.99626e-07
1.00011e-06
1.00013e-06
1.00016e-06
1.00019e-06
1.00021e-06
1.00022e-06
1.0002e-06
1.00019e-06
1.00003e-06
1.00009e-06
1.00011e-06
1.00014e-06
1.00017e-06
1.0002e-06
1.00022e-06
1.00023e-06
1.00024e-06
1.00057e-06
)
;

boundaryField
{
    inlet
    {
        type            calculated;
        value           nonuniform 0();
    }
    outlet
    {
        type            calculated;
        value           uniform 1e-06;
    }
    wall
    {
        type            calculated;
        value           nonuniform List<scalar> 
66
(
1.00014e-06
1.00011e-06
1.00009e-06
1.00016e-06
1.00013e-06
1.00011e-06
1.00019e-06
1.00016e-06
1.00014e-06
1.0002e-06
1.00019e-06
1.00017e-06
1.00018e-06
1.00021e-06
1.0002e-06
1.00014e-06
1.00022e-06
1.00022e-06
1.00016e-06
1.00006e-06
1.0002e-06
1.00023e-06
1.00013e-06
9.99988e-07
1.00019e-06
1.00024e-06
9.99163e-07
9.99626e-07
1.00003e-06
1.00057e-06
1.00018e-06
1.00014e-06
1.0001e-06
1.00009e-06
1.00025e-06
1.00019e-06
1.00013e-06
1.00011e-06
1.00033e-06
1.00024e-06
1.00016e-06
1.00014e-06
1.00042e-06
1.00029e-06
1.00019e-06
1.00017e-06
1.00048e-06
1.00032e-06
1.00021e-06
1.0002e-06
1.00054e-06
1.00035e-06
1.00023e-06
1.00022e-06
1.00049e-06
1.00033e-06
1.00021e-06
1.00023e-06
1.00051e-06
1.00032e-06
1.00021e-06
1.00024e-06
9.99981e-07
1.00006e-06
9.98883e-07
1.00057e-06
)
;
    }
    procBoundary7to0
    {
        type            processor;
        value           uniform 1.00026e-06;
    }
    procBoundary7to1
    {
        type            processor;
        value           uniform 1.00024e-06;
    }
    procBoundary7to3
    {
        type            processor;
        value           nonuniform List<scalar> 
36
(
1.00044e-06
1.00039e-06
1.00028e-06
1.00016e-06
1.00002e-06
9.99885e-07
9.99759e-07
9.99649e-07
9.99406e-07
1.00042e-06
1.00041e-06
1.00032e-06
1.00022e-06
1.00006e-06
9.99916e-07
9.99782e-07
9.99694e-07
9.99296e-07
1.00044e-06
1.00047e-06
1.00039e-06
1.0003e-06
1.00014e-06
1.00006e-06
9.99915e-07
9.9992e-07
9.98402e-07
1.00032e-06
1.00044e-06
1.00054e-06
1.00065e-06
1.00073e-06
1.00079e-06
1.00079e-06
1.00077e-06
1.00009e-06
)
;
    }
    procBoundary7to5
    {
        type            processor;
        value           nonuniform List<scalar> 
44
(
1.00022e-06
1.00014e-06
1.00002e-06
9.99906e-07
9.99785e-07
9.99668e-07
9.99614e-07
9.99199e-07
1.00017e-06
1.00011e-06
1e-06
9.99891e-07
9.99775e-07
9.99706e-07
9.99629e-07
9.9965e-07
9.99163e-07
1.00017e-06
1.00011e-06
1.00011e-06
1.00006e-06
9.99969e-07
9.99959e-07
9.99919e-07
9.99836e-07
9.99838e-07
9.99463e-07
1.00017e-06
1.00013e-06
1.00006e-06
9.99969e-07
9.99969e-07
1.00019e-06
1.00019e-06
1.0002e-06
1.00018e-06
9.99693e-07
1.00013e-06
1.00015e-06
1.00017e-06
1.00019e-06
1.00019e-06
1.00019e-06
1.00019e-06
)
;
    }
    procBoundary7to6
    {
        type            processor;
        value           nonuniform List<scalar> 
12
(
1.00023e-06
1.00022e-06
1.00012e-06
1.00017e-06
1.00015e-06
1.0001e-06
1.00013e-06
1.00012e-06
1.00007e-06
1.00009e-06
1.00008e-06
1.00006e-06
)
;
    }
}


// ************************************************************************* //
