/*--------------------------------*- C++ -*----------------------------------*\
| =========                 |                                                 |
| \\      /  F ield         | OpenFOAM: The Open Source CFD Toolbox           |
|  \\    /   O peration     | Version:  4.x                                   |
|   \\  /    A nd           | Web:      www.OpenFOAM.org                      |
|    \\/     M anipulation  |                                                 |
\*---------------------------------------------------------------------------*/
FoamFile
{
    version     2.0;
    format      ascii;
    class       volScalarField;
    location    "13.5";
    object      QWallFluid;
}
// * * * * * * * * * * * * * * * * * * * * * * * * * * * * * * * * * * * * * //

dimensions      [1 -1 -3 0 0 0 0];

internalField   nonuniform List<scalar> 
132
(
0
0
0
0
0
0
0
0
0
0
0
0
0
0
0
0
0
0
0
0
0
0
0
0
0
0
0
5.2954e+08
8.80127e+08
5.35911e+08
9.31893e+08
5.32958e+08
1.02799e+09
4.96927e+08
1.2307e+09
5.39346e+08
0
0
0
0
0
0
0
0
0
0
0
0
0
0
0
0
0
0
0
0
0
0
0
0
0
4.45568e+08
7.9075e+08
4.16722e+08
7.95003e+08
3.89482e+08
7.96164e+08
3.75195e+08
7.60648e+08
3.74451e+08
0
0
0
0
0
0
0
0
0
0
0
0
0
0
0
0
0
0
0
0
0
0
0
5.50575e+08
8.69351e+08
5.59981e+08
9.07224e+08
5.56577e+08
9.92213e+08
5.35008e+08
1.19881e+09
5.22745e+08
4.2575e+08
7.14419e+08
4.0247e+08
3.99607e+08
7.73215e+08
3.54721e+08
7.60646e+08
2.8286e+08
7.23557e+08
1.87739e+08
6.19186e+08
2.29765e+08
5.27441e+08
8.32186e+08
5.29491e+08
8.29895e+08
4.9517e+08
8.14202e+08
4.48031e+08
7.58297e+08
4.12575e+08
1.17945e+09
1.74684e+09
1.20507e+09
1.7922e+09
1.21329e+09
1.85659e+09
1.24578e+09
1.96506e+09
1.45315e+09
)
;

boundaryField
{
    inlet
    {
        type            calculated;
        value           nonuniform 0();
    }
    outlet
    {
        type            calculated;
        value           uniform 0;
    }
    wall
    {
        type            calculated;
        value           uniform 0;
    }
    procBoundary7to0
    {
        type            processor;
        value           uniform 0;
    }
    procBoundary7to1
    {
        type            processor;
        value           uniform 0;
    }
    procBoundary7to3
    {
        type            processor;
        value           nonuniform List<scalar> 
36
(
0
0
0
0
0
0
0
0
0
0
0
0
0
0
0
0
0
0
0
0
0
0
0
0
0
0
0
5.31683e+08
8.65224e+08
5.44536e+08
8.96311e+08
5.35691e+08
9.43208e+08
5.01475e+08
1.02831e+09
4.14017e+08
)
;
    }
    procBoundary7to5
    {
        type            processor;
        value           nonuniform List<scalar> 
44
(
0
0
0
0
0
0
0
0
0
0
0
0
0
0
0
0
0
0
0
0
0
0
0
0
0
0
0
0
0
0
0
0
4.61236e+08
7.71963e+08
4.64405e+08
8.57541e+08
3.72057e+08
4.83024e+08
8.0371e+08
4.82977e+08
7.99206e+08
4.61236e+08
7.71963e+08
7.71963e+08
)
;
    }
    procBoundary7to6
    {
        type            processor;
        value           nonuniform List<scalar> 
12
(
0
0
8.50955e+08
0
0
8.11001e+08
0
0
8.44862e+08
7.9759e+08
8.17529e+08
1.73508e+09
)
;
    }
}


// ************************************************************************* //
