/*--------------------------------*- C++ -*----------------------------------*\
| =========                 |                                                 |
| \\      /  F ield         | OpenFOAM: The Open Source CFD Toolbox           |
|  \\    /   O peration     | Version:  4.x                                   |
|   \\  /    A nd           | Web:      www.OpenFOAM.org                      |
|    \\/     M anipulation  |                                                 |
\*---------------------------------------------------------------------------*/
FoamFile
{
    version     2.0;
    format      ascii;
    class       volScalarField;
    location    "13.5";
    object      thCond;
}
// * * * * * * * * * * * * * * * * * * * * * * * * * * * * * * * * * * * * * //

dimensions      [1 1 -3 -1 0 0 0];

internalField   nonuniform List<scalar> 
132
(
189.947
189.895
189.951
189.811
189.455
189.39
189.502
189.725
189.548
190.11
189.793
189.883
189.896
189.633
189.705
189.584
189.661
189.571
190.467
190.077
190.056
189.991
189.772
189.607
189.593
189.672
189.638
190.726
190.288
190.039
190.187
189.933
189.821
189.708
189.918
190.178
189.751
189.571
189.489
189.414
189.266
189.315
189.455
190.155
189.689
189.657
189.593
189.391
189.43
189.465
189.367
189.552
190.209
189.761
189.792
189.798
189.507
189.33
189.276
189.434
189.479
190.381
189.901
189.948
189.808
189.66
189.664
189.551
189.562
189.931
189.522
189.485
189.352
189.441
189.555
189.862
189.694
189.619
189.673
189.38
189.453
189.37
189.269
189.435
190.031
189.808
189.701
189.665
189.427
189.416
189.34
189.427
189.479
190.336
190.011
189.851
189.772
189.725
189.737
189.492
189.601
189.897
189.594
189.579
189.672
190.026
189.933
189.628
189.603
189.686
189.818
189.552
189.554
189.734
190.152
190.009
189.888
189.79
189.643
189.651
189.514
189.619
189.678
190.258
189.988
190.032
189.939
189.766
189.719
189.655
189.806
190.195
)
;

boundaryField
{
    inlet
    {
        type            zeroGradient;
    }
    outlet
    {
        type            zeroGradient;
    }
    wall
    {
        type            zeroGradient;
    }
    procBoundary7to0
    {
        type            processor;
        value           uniform 190.758;
    }
    procBoundary7to1
    {
        type            processor;
        value           uniform 190.333;
    }
    procBoundary7to3
    {
        type            processor;
        value           nonuniform List<scalar> 
36
(
190.423
190.24
190.146
190.135
190.245
190.139
189.939
190.046
190.111
190.425
190.487
190.279
190.538
190.452
190.102
189.983
189.906
190.138
190.739
190.471
190.364
190.515
190.351
190.106
190.12
190.072
190.241
191.021
191.055
190.778
190.655
190.515
190.292
190.258
190.106
190.121
)
;
    }
    procBoundary7to5
    {
        type            processor;
        value           nonuniform List<scalar> 
44
(
190.053
190.14
189.933
189.936
189.932
189.736
189.82
189.701
189.784
189.985
189.809
189.648
189.609
189.515
189.451
189.48
189.64
189.784
189.985
189.985
189.433
189.465
189.244
189.336
189.259
189.254
189.355
190.027
189.606
189.433
189.465
189.465
189.257
189.398
189.513
189.504
189.558
189.979
189.921
189.588
189.609
189.257
189.398
189.398
)
;
    }
    procBoundary7to6
    {
        type            processor;
        value           nonuniform List<scalar> 
12
(
190.422
190.464
190.797
190.02
190.118
190.326
189.971
190.066
190.412
190.327
190.14
190.422
)
;
    }
}


// ************************************************************************* //
