/*--------------------------------*- C++ -*----------------------------------*\
| =========                 |                                                 |
| \\      /  F ield         | OpenFOAM: The Open Source CFD Toolbox           |
|  \\    /   O peration     | Version:  4.x                                   |
|   \\  /    A nd           | Web:      www.OpenFOAM.org                      |
|    \\/     M anipulation  |                                                 |
\*---------------------------------------------------------------------------*/
FoamFile
{
    version     2.0;
    format      ascii;
    class       volScalarField;
    location    "16";
    object      KslNext;
}
// * * * * * * * * * * * * * * * * * * * * * * * * * * * * * * * * * * * * * //

dimensions      [1 -3 -1 0 0 0 0];

internalField   nonuniform List<scalar> 
108
(
3422.72
7982.77
3443.4
7886.89
3443.07
8154.3
3407.17
8281.86
3306.39
3533.43
9989.78
3748.99
14288
3848.3
16862.9
3811.77
24070.1
3758.82
3582.59
10456
3845.72
14665.7
3919.49
16035.4
3902.59
23721.1
3887.49
3580.58
10099.6
3878.43
13114.7
3979.81
17727.9
4047.58
26877.3
4026.11
3395.38
7625.77
3362.85
6958.35
3326.63
6836.96
3247.79
6867.42
3174.58
3465.96
9553.43
3598.56
13716.3
3707.16
15291.5
3675.05
19054.8
3632.22
3512.56
9957.46
3732.79
14367.8
3801.11
15673.9
3714.37
18449.2
3619.2
3550.25
10284.9
3788.75
13635.4
3882.39
16494.7
3874.65
20668.8
3809.55
3345.9
6972.08
3203.61
6015.96
3146.2
5682.19
3097.65
5444.42
2986.72
3396.44
7785.08
3394.75
7005.65
3324.82
7156.14
3275.47
6974.89
3193.25
3451.4
8323.1
3484.37
8407.63
3462.13
9370.65
3404.53
8447.28
3282.93
3485.04
9212.28
3575.6
12775
3632.43
13333.2
3542.91
13346.7
3466.85
)
;

boundaryField
{
    inlet
    {
        type            zeroGradient;
    }
    outlet
    {
        type            zeroGradient;
    }
    wall
    {
        type            zeroGradient;
    }
    procBoundary4to0
    {
        type            processor;
        value           uniform 0;
    }
    procBoundary4to5
    {
        type            processor;
        value           uniform 0;
    }
    procBoundary4to6
    {
        type            processor;
        value           uniform 0;
    }
}


// ************************************************************************* //
