/*--------------------------------*- C++ -*----------------------------------*\
| =========                 |                                                 |
| \\      /  F ield         | OpenFOAM: The Open Source CFD Toolbox           |
|  \\    /   O peration     | Version:  4.x                                   |
|   \\  /    A nd           | Web:      www.OpenFOAM.org                      |
|    \\/     M anipulation  |                                                 |
\*---------------------------------------------------------------------------*/
FoamFile
{
    version     2.0;
    format      ascii;
    class       volScalarField;
    location    "16";
    object      particleRelTemp;
}
// * * * * * * * * * * * * * * * * * * * * * * * * * * * * * * * * * * * * * //

dimensions      [0 0 0 0 0 0 0];

internalField   nonuniform List<scalar> 
108
(
-2.23926e-07
-1.94324e-07
-1.72389e-07
-1.48901e-07
-1.20957e-07
-8.09495e-08
7.41142e-09
9.85306e-08
1.6085e-07
-2.23416e-07
-1.93124e-07
-1.62031e-07
-1.33888e-07
-9.52186e-08
-4.97658e-08
2.29514e-08
1.13992e-07
2.08962e-07
-2.22125e-07
-1.8318e-07
-1.48292e-07
-1.14511e-07
-7.88955e-08
-4.39686e-08
2.42756e-08
1.24053e-07
1.56995e-07
-2.22861e-07
-1.8604e-07
-1.52453e-07
-1.19602e-07
-6.67854e-08
-2.6392e-08
2.14986e-08
5.63702e-08
1.30853e-07
-2.24726e-07
-2.03321e-07
-1.85843e-07
-1.66939e-07
-1.47284e-07
-1.14077e-07
-7.03671e-08
-1.07859e-08
3.03345e-08
-2.21892e-07
-1.98541e-07
-1.80072e-07
-1.54651e-07
-1.30586e-07
-9.42082e-08
-3.98088e-08
-7.35465e-09
5.71911e-08
-2.29739e-07
-1.95807e-07
-1.73729e-07
-1.53377e-07
-1.23389e-07
-8.61535e-08
-3.70258e-08
1.39853e-09
5.78961e-08
-2.25945e-07
-1.97016e-07
-1.70244e-07
-1.50636e-07
-1.21747e-07
-9.37168e-08
-6.73591e-08
-2.93493e-08
1.7475e-08
-2.35068e-07
-2.09699e-07
-1.96284e-07
-1.79312e-07
-1.61323e-07
-1.28592e-07
-9.96802e-08
-9.4416e-08
-6.41675e-08
-2.29867e-07
-2.07039e-07
-1.8581e-07
-1.73614e-07
-1.5494e-07
-1.22168e-07
-9.56167e-08
-6.80489e-08
-3.04109e-08
-2.27923e-07
-2.02068e-07
-1.82155e-07
-1.65783e-07
-1.5114e-07
-1.18105e-07
-9.45428e-08
-6.11536e-08
-9.47164e-09
-2.25831e-07
-2.02625e-07
-1.85034e-07
-1.63333e-07
-1.49853e-07
-1.31553e-07
-1.08483e-07
-7.79504e-08
-5.9443e-08
)
;

boundaryField
{
    inlet
    {
        type            calculated;
        value           nonuniform List<scalar> 
12
(
-2.23926e-07
-2.23416e-07
-2.22125e-07
-2.22861e-07
-2.24726e-07
-2.21892e-07
-2.29739e-07
-2.25945e-07
-2.35068e-07
-2.29867e-07
-2.27923e-07
-2.25831e-07
)
;
    }
    outlet
    {
        type            calculated;
        value           nonuniform 0();
    }
    wall
    {
        type            calculated;
        value           nonuniform List<scalar> 
63
(
-2.35068e-07
-2.29867e-07
-2.27923e-07
-2.25831e-07
-2.09699e-07
-2.07039e-07
-2.02068e-07
-2.02625e-07
-1.96284e-07
-1.8581e-07
-1.82155e-07
-1.85034e-07
-1.79312e-07
-1.73614e-07
-1.65783e-07
-1.63333e-07
-1.61323e-07
-1.5494e-07
-1.5114e-07
-1.49853e-07
-1.28592e-07
-1.22168e-07
-1.18105e-07
-1.31553e-07
-9.96802e-08
-9.56167e-08
-9.45428e-08
-1.08483e-07
-9.4416e-08
-6.80489e-08
-6.11536e-08
-7.79504e-08
-6.41675e-08
-3.04109e-08
-9.47164e-09
-5.9443e-08
-2.23926e-07
-2.24726e-07
-2.35068e-07
-1.94324e-07
-2.03321e-07
-2.09699e-07
-1.72389e-07
-1.85843e-07
-1.96284e-07
-1.48901e-07
-1.66939e-07
-1.79312e-07
-1.20957e-07
-1.47284e-07
-1.61323e-07
-8.09495e-08
-1.14077e-07
-1.28592e-07
7.41142e-09
-7.03671e-08
-9.96802e-08
9.85306e-08
-1.07859e-08
-9.4416e-08
1.6085e-07
3.03345e-08
-6.41675e-08
)
;
    }
    procBoundary4to0
    {
        type            processor;
        value           nonuniform List<scalar> 
36
(
-2.21315e-07
-1.76391e-07
-1.50232e-07
-1.24877e-07
-8.00259e-08
-1.59306e-08
4.70506e-08
2.2112e-07
2.75593e-07
-2.18705e-07
-1.78165e-07
-1.4582e-07
-9.71147e-08
-5.18884e-08
1.03674e-08
1.04435e-07
2.25155e-07
3.5747e-07
-2.00428e-07
-1.65668e-07
-1.27779e-07
-6.71845e-08
-1.09138e-08
5.10385e-08
1.39349e-07
2.57619e-07
3.20198e-07
-2.14118e-07
-1.65261e-07
-1.21724e-07
-3.53427e-08
6.79781e-09
9.40249e-08
1.6571e-07
2.01508e-07
2.62175e-07
)
;
    }
    procBoundary4to5
    {
        type            processor;
        value           nonuniform List<scalar> 
12
(
1.94276e-07
2.09257e-07
1.90901e-07
1.14793e-07
8.94733e-08
1.07667e-07
1.03929e-07
3.12132e-08
-1.38506e-08
1.26221e-08
9.49483e-09
-2.63705e-08
)
;
    }
    procBoundary4to6
    {
        type            processor;
        value           nonuniform List<scalar> 
27
(
-2.16999e-07
-1.81933e-07
-1.43881e-07
-9.88348e-08
-4.2959e-08
-3.97231e-08
-3.91684e-09
4.79053e-09
2.89656e-08
-2.25536e-07
-1.92687e-07
-1.71705e-07
-1.44268e-07
-1.25201e-07
-1.07997e-07
-1.07295e-07
-8.40657e-08
-4.43552e-08
-2.27258e-07
-2.02836e-07
-1.85577e-07
-1.65319e-07
-1.49144e-07
-1.34239e-07
-1.37268e-07
-1.35545e-07
-1.28238e-07
)
;
    }
}


// ************************************************************************* //
