/*--------------------------------*- C++ -*----------------------------------*\
| =========                 |                                                 |
| \\      /  F ield         | OpenFOAM: The Open Source CFD Toolbox           |
|  \\    /   O peration     | Version:  4.x                                   |
|   \\  /    A nd           | Web:      www.OpenFOAM.org                      |
|    \\/     M anipulation  |                                                 |
\*---------------------------------------------------------------------------*/
FoamFile
{
    version     2.0;
    format      ascii;
    class       volScalarField;
    location    "16";
    object      Qsource;
}
// * * * * * * * * * * * * * * * * * * * * * * * * * * * * * * * * * * * * * //

dimensions      [1 -1 -3 0 0 0 0];

internalField   nonuniform List<scalar> 
108
(
5.73505e+09
7.51652e+09
9.21047e+09
6.3582e+09
7.93216e+09
6.29369e+09
9.68976e+09
7.16024e+09
1.04046e+10
7.00636e+09
7.28252e+09
9.33683e+09
9.95275e+09
1.00735e+10
8.54075e+09
8.07078e+09
5.71469e+09
1.11096e+10
6.67843e+09
1.03305e+10
8.32993e+09
9.52007e+09
8.19386e+09
6.53362e+09
7.41858e+09
1.06928e+10
6.78919e+09
3.46646e+09
6.77721e+09
9.44559e+09
5.85321e+09
8.95114e+09
6.99814e+09
1.1211e+10
6.30233e+09
7.15431e+09
5.87423e+09
5.91864e+09
8.86081e+09
8.77988e+09
9.34471e+09
5.93689e+09
6.42511e+09
7.98388e+09
1.03978e+10
6.23423e+09
7.55412e+09
7.50216e+09
7.4194e+09
7.63988e+09
6.59444e+09
8.40584e+09
9.03702e+09
1.03922e+10
4.18266e+09
7.31636e+09
9.96863e+09
8.21057e+09
9.60824e+09
8.25363e+09
8.18221e+09
7.27724e+09
8.60982e+09
6.19337e+09
8.57522e+09
7.50944e+09
9.63218e+09
1.04703e+10
7.66812e+09
1.18073e+10
8.58546e+09
8.11445e+09
6.19274e+09
7.20221e+09
6.14021e+09
7.05892e+09
8.0568e+09
9.01633e+09
9.70693e+09
7.54884e+09
9.92199e+09
5.68605e+09
9.40458e+09
7.91438e+09
6.28859e+09
8.25053e+09
8.05444e+09
8.14653e+09
6.56498e+09
9.33925e+09
6.03352e+09
7.8405e+09
9.22161e+09
7.48092e+09
7.45127e+09
7.15167e+09
8.07737e+09
8.12626e+09
7.81602e+09
8.04353e+09
7.30577e+09
7.42631e+09
7.88923e+09
9.0497e+09
9.43734e+09
5.65288e+09
5.19538e+09
7.74757e+09
)
;

boundaryField
{
    inlet
    {
        type            calculated;
        value           uniform 0;
    }
    outlet
    {
        type            calculated;
        value           nonuniform 0();
    }
    wall
    {
        type            calculated;
        value           uniform 0;
    }
    procBoundary4to0
    {
        type            processor;
        value           nonuniform List<scalar> 
36
(
5.16692e+09
5.41657e+09
7.58111e+09
5.61645e+09
7.90325e+09
8.10198e+09
6.75168e+09
4.78676e+09
6.9512e+09
5.1249e+09
9.60368e+09
9.08009e+09
8.07885e+09
7.19409e+09
6.72073e+09
1.0489e+10
7.30123e+09
6.98282e+09
5.18788e+09
5.67477e+09
9.11928e+09
6.35592e+09
8.85556e+09
8.9618e+09
8.45115e+09
5.27851e+09
9.55553e+09
4.8337e+09
6.8204e+09
9.75016e+09
1.07205e+10
5.60423e+09
1.02641e+10
8.70404e+09
5.81001e+09
2.65628e+09
)
;
    }
    procBoundary4to5
    {
        type            processor;
        value           nonuniform List<scalar> 
12
(
7.03647e+09
8.0127e+09
8.55562e+09
1.03778e+10
7.7965e+09
6.02136e+09
7.53366e+09
5.31816e+09
3.574e+09
7.39611e+09
6.4849e+09
7.40602e+09
)
;
    }
    procBoundary4to6
    {
        type            processor;
        value           nonuniform List<scalar> 
27
(
9.95959e+09
9.01448e+09
6.12493e+09
8.22058e+09
1.12564e+10
6.1783e+09
8.80701e+09
6.77687e+09
1.00404e+10
7.32849e+09
9.00735e+09
9.61275e+09
8.64023e+09
6.61638e+09
7.9624e+09
7.9323e+09
6.29283e+09
9.55319e+09
5.71377e+09
5.72929e+09
8.15305e+09
7.08125e+09
7.83594e+09
6.51532e+09
1.08931e+10
8.52372e+09
5.2549e+09
)
;
    }
}


// ************************************************************************* //
