/*--------------------------------*- C++ -*----------------------------------*\
| =========                 |                                                 |
| \\      /  F ield         | OpenFOAM: The Open Source CFD Toolbox           |
|  \\    /   O peration     | Version:  4.x                                   |
|   \\  /    A nd           | Web:      www.OpenFOAM.org                      |
|    \\/     M anipulation  |                                                 |
\*---------------------------------------------------------------------------*/
FoamFile
{
    version     2.0;
    format      ascii;
    class       volScalarField;
    location    "16";
    object      Sm;
}
// * * * * * * * * * * * * * * * * * * * * * * * * * * * * * * * * * * * * * //

dimensions      [1 -3 -1 0 0 0 0];

internalField   nonuniform List<scalar> 
108
(
5.1924e-65
7.36221e-65
7.51711e-65
5.57961e-65
5.96691e-65
5.65677e-65
7.59356e-65
6.74073e-65
8.90969e-65
7.74984e-65
6.35473e-65
7.36201e-65
8.60176e-65
8.21403e-65
7.51637e-65
6.35367e-65
5.4234e-65
9.06409e-65
6.97482e-65
8.75706e-65
6.66452e-65
8.44669e-65
6.66414e-65
5.96655e-65
6.12117e-65
9.68469e-65
5.65557e-65
4.33987e-65
5.73472e-65
7.59446e-65
5.192e-65
7.36151e-65
6.35397e-65
9.22061e-65
5.96615e-65
5.96571e-65
5.34741e-65
5.11483e-65
7.0522e-65
7.67206e-65
6.9745e-65
5.26945e-65
4.49437e-65
6.97373e-65
8.21328e-65
5.65738e-65
6.50976e-65
5.8122e-65
6.43204e-65
5.96698e-65
5.96678e-65
6.66397e-65
7.90352e-65
8.1355e-65
4.41741e-65
6.27725e-65
7.82705e-65
7.20698e-65
7.67177e-65
7.28408e-65
6.66391e-65
6.66369e-65
6.81829e-65
6.66486e-65
7.2072e-65
5.96713e-65
8.52437e-65
8.44668e-65
6.74175e-65
9.60863e-65
7.90369e-65
6.81864e-65
4.95995e-65
6.66482e-65
4.41735e-65
6.74218e-65
5.73464e-65
8.05929e-65
7.20672e-65
6.27691e-65
7.20672e-65
5.34743e-65
8.75724e-65
5.81224e-65
5.50219e-65
6.19961e-65
7.20684e-65
6.35428e-65
5.65673e-65
7.59372e-65
5.42492e-65
7.36225e-65
7.43964e-65
7.36202e-65
5.65714e-65
6.58686e-65
6.43181e-65
7.51646e-65
6.27639e-65
7.43989e-65
7.05228e-65
5.81225e-65
7.67201e-65
6.97451e-65
9.22171e-65
4.49457e-65
4.88191e-65
6.35407e-65
)
;

boundaryField
{
    inlet
    {
        type            calculated;
        value           uniform 0;
    }
    outlet
    {
        type            calculated;
        value           nonuniform 0();
    }
    wall
    {
        type            calculated;
        value           uniform 0;
    }
    procBoundary4to0
    {
        type            processor;
        value           nonuniform List<scalar> 
36
(
4.57241e-65
4.88223e-65
5.7346e-65
5.34699e-65
6.12175e-65
7.43872e-65
4.80393e-65
4.10604e-65
4.95803e-65
5.50235e-65
8.13706e-65
7.28442e-65
6.74174e-65
5.81161e-65
5.96627e-65
8.36769e-65
6.58493e-65
5.49975e-65
4.57234e-65
4.95965e-65
7.28433e-65
5.73417e-65
7.28363e-65
8.05799e-65
6.74042e-65
5.11284e-65
8.05607e-65
5.26985e-65
5.88961e-65
7.82675e-65
9.22098e-65
4.4941e-65
9.14264e-65
7.12774e-65
5.42312e-65
2.32398e-65
)
;
    }
    procBoundary4to5
    {
        type            processor;
        value           nonuniform List<scalar> 
12
(
6.35279e-65
7.04983e-65
8.21211e-65
9.99448e-65
6.66322e-65
5.42345e-65
6.89546e-65
4.80384e-65
2.63462e-65
6.3537e-65
6.12121e-65
7.3612e-65
)
;
    }
    procBoundary4to6
    {
        type            processor;
        value           nonuniform List<scalar> 
27
(
1.03848e-64
7.59465e-65
4.95966e-65
7.43917e-65
9.3761e-65
6.12159e-65
7.36122e-65
6.50873e-65
8.52317e-65
7.67235e-65
7.67219e-65
7.74957e-65
7.67186e-65
5.34702e-65
7.05178e-65
6.27689e-65
5.88933e-65
7.90376e-65
5.03742e-65
5.26983e-65
6.12223e-65
6.89708e-65
6.50955e-65
6.43196e-65
8.67938e-65
8.75683e-65
3.79721e-65
)
;
    }
}


// ************************************************************************* //
