/*--------------------------------*- C++ -*----------------------------------*\
| =========                 |                                                 |
| \\      /  F ield         | OpenFOAM: The Open Source CFD Toolbox           |
|  \\    /   O peration     | Version:  4.x                                   |
|   \\  /    A nd           | Web:      www.OpenFOAM.org                      |
|    \\/     M anipulation  |                                                 |
\*---------------------------------------------------------------------------*/
FoamFile
{
    version     2.0;
    format      ascii;
    class       volScalarField;
    location    "20.5";
    object      KslNext;
}
// * * * * * * * * * * * * * * * * * * * * * * * * * * * * * * * * * * * * * //

dimensions      [1 -3 -1 0 0 0 0];

internalField   nonuniform List<scalar> 
87
(
3619.77
2546.58
3536.21
2433.78
3555.06
2224.07
3981.3
1946.16
6237.9
4090.76
2696.62
3972.55
2573.35
4071.27
2359.04
4690.9
2058.83
5802.06
5012.47
3011.66
5327.56
3039.92
6601.13
3244.51
11063.5
4062.57
22357.1
5345.2
2962.42
5312.8
2829.63
5548.85
2552.87
6587.08
2120.35
6575.67
8428.76
3345.69
8658.38
3180.79
9426.56
2869.15
9461.39
2479.76
5079.94
18866.5
3720.86
45010.1
3656.18
5.44874e+06
3608.15
561094
3785.33
15486.5
7032.39
3266.64
7790.27
3209.6
8699.83
2971.57
9559.92
2486.38
11210.8
17455
3733.14
22690.2
3648.28
23159.4
3531.92
12552.6
3483.1
4746.05
1e+10
4072.31
1e+10
4088.72
1e+10
4109.91
1e+10
4506.27
16853.1
6250.17
3058.68
6386.33
16640.1
3612.93
30683.9
)
;

boundaryField
{
    inlet
    {
        type            zeroGradient;
    }
    outlet
    {
        type            zeroGradient;
    }
    wall
    {
        type            zeroGradient;
    }
    procBoundary1to0
    {
        type            processor;
        value           uniform 0;
    }
    procBoundary1to3
    {
        type            processor;
        value           uniform 0;
    }
    procBoundary1to5
    {
        type            processor;
        value           uniform 0;
    }
    procBoundary1to7
    {
        type            processor;
        value           uniform 0;
    }
}


// ************************************************************************* //
