/*--------------------------------*- C++ -*----------------------------------*\
| =========                 |                                                 |
| \\      /  F ield         | OpenFOAM: The Open Source CFD Toolbox           |
|  \\    /   O peration     | Version:  4.x                                   |
|   \\  /    A nd           | Web:      www.OpenFOAM.org                      |
|    \\/     M anipulation  |                                                 |
\*---------------------------------------------------------------------------*/
FoamFile
{
    version     2.0;
    format      ascii;
    class       volScalarField;
    location    "20.5";
    object      magGField;
}
// * * * * * * * * * * * * * * * * * * * * * * * * * * * * * * * * * * * * * //

dimensions      [1 -2 -1 0 0 0 0];

internalField   nonuniform List<scalar> 
87
(
98.7601
141.476
101.322
148.308
99.533
157.859
86.9375
175.852
53.2838
88.1192
134.543
90.8618
140.938
87.5195
149.623
73.4891
167.255
56.2921
71.1277
119.162
66.4385
116.919
52.863
106.969
30.4619
81.8401
14.3308
65.6396
119.052
66.2556
124.991
62.6494
135.513
51.6347
159.838
48.9418
42.0841
106.438
40.8278
112.152
37.1761
121.646
36.1044
137.336
63.4714
18.4778
94.7144
7.72456
95.4378
0.0627792
94.5185
0.592629
87.1331
20.4851
48.0343
104.465
43.437
106.195
38.555
112.466
34.4331
132.485
28.0775
19.511
91.7819
14.9566
93.7292
14.5017
95.094
26.1657
93.7532
66.2606
6.06331e-05
83.14
5.37674e-05
82.0111
3.3898e-05
79.9803
4.98045e-05
70.6861
18.3839
52.6453
107.762
51.1381
19.8752
91.8799
10.6266
)
;

boundaryField
{
    inlet
    {
        type            calculated;
        value           nonuniform 0();
    }
    outlet
    {
        type            calculated;
        value           nonuniform List<scalar> 9(108.536 116.6 29.768 103.455 133.854 43.3634 59.9395 141.591 39.416);
    }
    wall
    {
        type            calculated;
        value           uniform 0;
    }
    procBoundary1to0
    {
        type            processor;
        value           nonuniform List<scalar> 
12
(
135.757
127.237
116.56
114.072
102.164
94.7332
102.94
90.9874
84.7466
104.532
90.6755
86.0663
)
;
    }
    procBoundary1to3
    {
        type            processor;
        value           nonuniform List<scalar> 
27
(
77.1434
125.059
78.6445
129.703
74.7882
133.904
61.5949
146.265
55.7755
20.4688
93.1907
13.3458
94.3143
9.87705
96.9114
16.7859
97.842
70.1011
0.0236558
84.237
5.97781e-05
84.0684
2.68141e-05
83.8425
4.12585e-05
79.3522
15.8496
)
;
    }
    procBoundary1to5
    {
        type            processor;
        value           nonuniform List<scalar> 
32
(
111.193
46.7436
117.768
38.8779
132.188
29.2444
18.9747
94.6548
21.0123
95.3499
27.0857
89.0575
50.5431
86.1301
6.32599
85.9741
3.26635
83.8246
3.95686
75.8422
21.7969
42.0937
98.2995
111.193
18.9747
36.7773
5.38488
18.9747
86.1301
83.6381
86.1301
0.285669
)
;
    }
    procBoundary1to7
    {
        type            processor;
        value           uniform 3.174;
    }
}


// ************************************************************************* //
