/*--------------------------------*- C++ -*----------------------------------*\
| =========                 |                                                 |
| \\      /  F ield         | OpenFOAM: The Open Source CFD Toolbox           |
|  \\    /   O peration     | Version:  4.x                                   |
|   \\  /    A nd           | Web:      www.OpenFOAM.org                      |
|    \\/     M anipulation  |                                                 |
\*---------------------------------------------------------------------------*/
FoamFile
{
    version     2.0;
    format      ascii;
    class       volScalarField;
    location    "20.5";
    object      particleRelTemp;
}
// * * * * * * * * * * * * * * * * * * * * * * * * * * * * * * * * * * * * * //

dimensions      [0 0 0 0 0 0 0];

internalField   nonuniform List<scalar> 
87
(
-8.9485e-09
-1.12536e-08
-7.5817e-09
-9.25351e-09
-1.32132e-08
-8.74068e-09
-1.17696e-08
-1.15037e-08
-8.44981e-09
2.54758e-09
2.27254e-09
1.02124e-09
2.74185e-09
-5.80797e-11
-1.18343e-09
-2.01703e-09
-3.86132e-09
-2.64137e-09
1.18155e-08
1.12381e-08
1.14436e-08
1.24381e-08
1.01554e-08
7.98093e-09
7.67209e-09
4.91122e-09
7.78416e-09
1.63015e-10
1.36779e-09
1.89699e-09
2.10639e-09
2.31947e-09
1.09786e-09
-8.87308e-10
-6.48879e-10
-4.53571e-10
6.34901e-09
1.15906e-08
1.34906e-08
1.02915e-08
1.18287e-08
1.28342e-08
8.13351e-09
9.40652e-09
1.27129e-08
2.43539e-08
2.08995e-08
2.2078e-08
2.02227e-08
2.07617e-08
1.95091e-08
1.72562e-08
1.8165e-08
1.89382e-08
9.50469e-09
9.67729e-09
1.42663e-08
1.47419e-08
1.36981e-08
1.27633e-08
1.14719e-08
8.00927e-09
9.33e-09
2.19289e-08
2.30524e-08
2.44605e-08
2.42184e-08
2.38103e-08
2.14577e-08
1.95359e-08
1.90592e-08
2.04163e-08
3.15715e-08
3.53307e-08
3.40553e-08
3.66993e-08
3.44695e-08
3.15879e-08
2.78569e-08
2.85106e-08
2.6572e-08
1.34174e-08
1.42743e-08
1.71195e-08
2.47228e-08
2.81626e-08
3.71877e-08
)
;

boundaryField
{
    inlet
    {
        type            calculated;
        value           nonuniform 0();
    }
    outlet
    {
        type            calculated;
        value           nonuniform List<scalar> 9(-8.44981e-09 -2.64137e-09 7.78416e-09 -4.53571e-10 1.27129e-08 1.89382e-08 9.33e-09 2.04163e-08 2.6572e-08);
    }
    wall
    {
        type            calculated;
        value           nonuniform List<scalar> 
57
(
-8.9485e-09
2.54758e-09
1.18155e-08
-1.12536e-08
2.27254e-09
1.12381e-08
-7.5817e-09
1.02124e-09
1.14436e-08
-9.25351e-09
2.74185e-09
1.24381e-08
-1.32132e-08
-5.80797e-11
1.01554e-08
-8.74068e-09
-1.18343e-09
7.98093e-09
-1.17696e-08
-2.01703e-09
7.67209e-09
-1.15037e-08
-3.86132e-09
4.91122e-09
-8.44981e-09
-2.64137e-09
7.78416e-09
-8.9485e-09
1.63015e-10
9.50469e-09
1.34174e-08
-1.12536e-08
1.36779e-09
9.67729e-09
1.42743e-08
-7.5817e-09
1.89699e-09
1.42663e-08
1.71195e-08
-9.25351e-09
2.10639e-09
1.47419e-08
-1.32132e-08
2.31947e-09
1.36981e-08
-8.74068e-09
1.09786e-09
1.27633e-08
-1.17696e-08
-8.87308e-10
1.14719e-08
-1.15037e-08
-6.48879e-10
8.00927e-09
-8.44981e-09
-4.53571e-10
9.33e-09
)
;
    }
    procBoundary1to0
    {
        type            processor;
        value           nonuniform List<scalar> 
12
(
-1.40226e-08
-3.73319e-10
5.74565e-09
-3.78478e-09
8.43084e-09
1.75122e-08
6.0792e-09
1.68668e-08
2.63066e-08
1.00212e-08
2.23678e-08
3.03196e-08
)
;
    }
    procBoundary1to3
    {
        type            processor;
        value           nonuniform List<scalar> 
27
(
1.33737e-08
1.47991e-08
1.5495e-08
1.58706e-08
1.28284e-08
1.21087e-08
1.04578e-08
7.15473e-09
1.04184e-08
2.36681e-08
2.97263e-08
2.66476e-08
2.65769e-08
2.46303e-08
2.14086e-08
2.11496e-08
1.88347e-08
1.8343e-08
3.71452e-08
3.87557e-08
4.02829e-08
3.7361e-08
3.47885e-08
3.36082e-08
3.02548e-08
2.92603e-08
2.84023e-08
)
;
    }
    procBoundary1to5
    {
        type            processor;
        value           nonuniform List<scalar> 
32
(
1.80061e-08
1.64726e-08
1.44082e-08
1.25816e-08
1.12218e-08
1.21795e-08
2.98503e-08
2.80298e-08
2.96105e-08
2.64204e-08
2.49704e-08
2.08823e-08
2.26378e-08
3.99067e-08
4.05297e-08
3.92422e-08
3.74266e-08
3.41737e-08
3.18472e-08
2.9271e-08
3.0017e-08
1.20733e-08
1.20929e-08
1.80061e-08
2.98503e-08
1.65923e-08
2.09386e-08
2.98503e-08
3.99067e-08
2.38765e-08
3.99067e-08
3.28833e-08
)
;
    }
    procBoundary1to7
    {
        type            processor;
        value           uniform 4.12049e-08;
    }
}


// ************************************************************************* //
