/*--------------------------------*- C++ -*----------------------------------*\
| =========                 |                                                 |
| \\      /  F ield         | OpenFOAM: The Open Source CFD Toolbox           |
|  \\    /   O peration     | Version:  4.x                                   |
|   \\  /    A nd           | Web:      www.OpenFOAM.org                      |
|    \\/     M anipulation  |                                                 |
\*---------------------------------------------------------------------------*/
FoamFile
{
    version     2.0;
    format      ascii;
    class       volScalarField;
    location    "20.5";
    object      pSmooth;
}
// * * * * * * * * * * * * * * * * * * * * * * * * * * * * * * * * * * * * * //

dimensions      [1 -1 -2 0 0 0 0];

internalField   nonuniform List<scalar> 
87
(
21.6826
72.1833
2.62452
66.0063
0.1
61.617
0.1
60.8558
0.1
21.3361
72.0397
2.49054
65.765
0.1
61.3933
0.1
60.2874
0.1
21.8427
72.6478
3.60902
66.8731
0.1
62.5329
0.1
57.6923
0.1
21.4318
72.534
2.48703
66.3657
0.1
61.7534
0.1
60.0843
0.1
21.4046
72.6856
2.70038
66.3964
0.1
61.187
0.1
58.0549
0.1
22.1827
73.7995
4.09619
67.5277
0.1
61.3219
0.1
55.3683
0.1
22.3587
72.8118
3.84576
66.2202
0.1
60.6138
0.1
56.73
0.1
22.5578
73.4304
4.62863
66.6274
0.1
59.9526
0.1
54.3979
0.1
23.4744
72.8686
5.84053
66.3518
0.1
60.0649
0.1
52.8047
0.1
22.1574
72.71
3.26269
22.3444
72.6912
23.1284
)
;

boundaryField
{
    inlet
    {
        type            zeroGradient;
    }
    outlet
    {
        type            fixedValue;
        value           uniform 0;
    }
    wall
    {
        type            zeroGradient;
    }
    procBoundary1to0
    {
        type            processor;
        value           nonuniform List<scalar> 
12
(
79.1544
79.0666
79.4683
79.4402
79.6651
80.3436
79.8856
80.2912
80.4453
79.822
80.1143
80.2413
)
;
    }
    procBoundary1to3
    {
        type            processor;
        value           nonuniform List<scalar> 
27
(
21.5455
72.0622
3.06393
65.8873
0.1
61.3691
0.1
58.5136
0.1
22.1183
73.3951
4.2303
66.821
0.1
60.4378
0.1
54.6893
0.1
23.3325
72.9869
5.34359
66.0773
0.1
59.6346
0.1
53.0464
0.1
)
;
    }
    procBoundary1to5
    {
        type            processor;
        value           nonuniform List<scalar> 
32
(
66.0932
0.1
60.5302
0.1
57.3388
0.1
3.40944
65.6402
0.1
59.3094
0.1
54.3194
0.1
73.0125
4.88409
66.1416
0.1
59.7901
0.1
54.0318
0.1
22.8865
72.961
66.0932
3.40944
4.62231
23.2081
3.40944
73.0125
72.9494
73.0125
24.2011
)
;
    }
    procBoundary1to7
    {
        type            processor;
        value           uniform 24.0789;
    }
}


// ************************************************************************* //
