/*--------------------------------*- C++ -*----------------------------------*\
| =========                 |                                                 |
| \\      /  F ield         | OpenFOAM: The Open Source CFD Toolbox           |
|  \\    /   O peration     | Version:  4.x                                   |
|   \\  /    A nd           | Web:      www.OpenFOAM.org                      |
|    \\/     M anipulation  |                                                 |
\*---------------------------------------------------------------------------*/
FoamFile
{
    version     2.0;
    format      ascii;
    class       volVectorField;
    location    "20.5";
    object      U;
}
// * * * * * * * * * * * * * * * * * * * * * * * * * * * * * * * * * * * * * //

dimensions      [0 1 -1 0 0 0 0];

internalField   nonuniform List<vector> 
87
(
(0.029774 0.000475836 -3.62173e-05)
(0.0431002 0.000602567 -0.000310473)
(0.030871 0.00070194 0.000166267)
(0.0455021 0.00103882 3.11113e-05)
(0.0305267 0.000936006 0.000691508)
(0.0487095 0.00147471 0.00098502)
(0.0269323 0.00112935 0.00169977)
(0.054497 0.00221276 0.00312133)
(0.0130583 -0.000449557 -0.0095757)
(0.0267046 -0.000432648 -9.40412e-05)
(0.0409229 -0.000535159 -0.000250378)
(0.0278333 -0.000831809 0.000349782)
(0.0433443 -0.000678512 0.000413643)
(0.0268186 -0.00223443 0.00102765)
(0.0463523 -0.000714086 0.00199639)
(0.0222018 -0.00582598 0.00118639)
(0.0518004 0.00194838 0.00417493)
(0.00949594 -0.0145621 -0.000801176)
(0.0217718 -0.000345053 -0.000100804)
(0.0367108 -8.21946e-05 -0.000510412)
(0.0205928 -0.000296459 0.000336762)
(0.036388 0.000194302 0.000570467)
(0.0163607 -0.00093128 0.000819011)
(0.0331381 0.000504233 0.00192917)
(0.00925632 -0.00184275 0.00115018)
(0.02531 0.00252878 0.0018901)
(0.00374042 -0.00215885 0.00104403)
(0.0202829 0.000259322 -0.00121838)
(0.0368736 0.000403271 -0.00124197)
(0.0205558 0.000468176 -0.00147888)
(0.0391515 0.000947909 -0.000642536)
(0.0196125 0.000633292 -0.00154366)
(0.0428488 0.00184902 0.00134285)
(0.0164041 0.000131206 -0.00161207)
(0.0503624 0.00284758 0.0057959)
(0.00833673 -0.00402904 -0.0123572)
(0.0130838 -0.000398506 -0.00079805)
(0.0330889 -0.000929326 -0.000588127)
(0.0127429 -0.000646761 -0.000640489)
(0.0352924 -0.000491251 0.000805099)
(0.0116036 -0.00154026 -0.000988072)
(0.0384015 0.000513578 0.00321249)
(0.0105676 -0.00379357 -0.00263766)
(0.0430154 0.00356179 0.00728365)
(0.00753588 -0.0147828 -0.0111271)
(0.0057835 -0.000193858 -0.00057527)
(0.0297876 -0.000445868 0.00039278)
(0.00241521 -0.000150893 -0.000285821)
(0.0301286 0.000256694 0.00144275)
(1.94237e-05 -3.29793e-06 -3.53626e-06)
(0.0299664 0.0014819 0.00262411)
(0.000170734 -7.15654e-05 -4.3423e-05)
(0.0272702 0.00439428 0.00464035)
(0.00412067 -0.00479979 -0.00137023)
(0.0151347 5.89372e-05 -0.000911586)
(0.0330241 7.55663e-05 -0.000652542)
(0.0138446 8.36242e-05 -0.0008425)
(0.0340906 0.00062001 -7.63088e-05)
(0.012337 -0.000324083 -0.000862611)
(0.0363902 0.00135148 0.0012645)
(0.0109997 -0.00138006 -0.00113345)
(0.0423486 0.00229089 0.00369763)
(0.00709743 -0.00544045 0.000206041)
(0.00615229 -0.000451469 -0.000442498)
(0.029243 0.000103304 0.000335432)
(0.00473266 -0.000577898 -0.000121872)
(0.0300172 -0.000110968 0.00163334)
(0.00451278 -0.00116323 -0.000368146)
(0.0306702 -1.70504e-05 0.0026783)
(0.00735843 -0.00371379 -0.00200117)
(0.0298226 0.00294702 0.00462312)
(0.0122224 -0.0137911 -0.0103443)
(-1.72201e-08 7.42915e-09 -4.48049e-09)
(0.02664 0.000279726 0.000754534)
(-1.47374e-08 8.30767e-09 -3.10494e-09)
(0.0265669 0.000141658 0.00125129)
(-9.66422e-09 4.83222e-09 5.29127e-10)
(0.0260219 -0.000206359 0.00139506)
(1.443e-08 -5.48733e-09 -4.6377e-09)
(0.0228875 0.00127227 0.0015501)
(0.00527109 -0.00120056 -0.00232085)
(0.0168191 -0.000312383 -0.000779225)
(0.0345478 -0.000126812 -0.000619732)
(0.0165632 -0.00013489 -0.000894784)
(0.00636841 -0.000520735 -0.000446281)
(0.0299159 -0.000594747 3.01971e-05)
(0.00339744 -0.000473196 -0.000216844)
)
;

boundaryField
{
    inlet
    {
        type            fixedValue;
        value           nonuniform 0();
    }
    outlet
    {
        type            zeroGradient;
    }
    wall
    {
        type            fixedValue;
        value           uniform (0 0 0);
    }
    procBoundary1to0
    {
        type            processor;
        value           nonuniform List<vector> 
12
(
(0.0405573 4.54362e-05 -0.000636631)
(0.0384969 -0.000784247 -0.000751119)
(0.0357212 -0.000490503 -0.000810595)
(0.0351098 -0.000108537 -0.00159633)
(0.0317139 -0.000966329 -0.0015044)
(0.0294996 -0.0006384 -0.00103669)
(0.0322173 -0.000320036 -0.00099265)
(0.0288526 -0.00065967 -0.000774467)
(0.0268334 -0.000324992 4.62707e-05)
(0.0331625 -0.000516559 -0.000943934)
(0.0289963 -0.000714109 -0.000728721)
(0.0277002 -0.000591766 -0.000167091)
)
;
    }
    procBoundary1to3
    {
        type            processor;
        value           nonuniform List<vector> 
27
(
(0.0239141 -1.48289e-05 -0.000320452)
(0.0386518 0.000401925 -0.000686745)
(0.0244664 0.000540835 -0.000223484)
(0.0400847 0.000895953 0.000266864)
(0.023138 0.00101029 1.15264e-05)
(0.0413239 0.00120561 0.0020807)
(0.0190425 0.00223912 -0.00080288)
(0.0454074 0.000153379 0.00410199)
(0.0108616 0.00640923 -0.0118101)
(0.00645332 8.54973e-05 -0.000638645)
(0.0295218 0.000597432 -0.000165659)
(0.00424062 0.000216154 -0.000425328)
(0.0301023 0.000633165 0.000965401)
(0.00308302 0.00037827 -0.000499716)
(0.0307265 0.000154007 0.00247655)
(0.00489346 0.00137702 -0.00170185)
(0.0307842 -0.00119019 0.00561988)
(0.0101847 0.0104208 -0.0171239)
(7.56525e-06 4.44355e-08 -1.33676e-06)
(0.0273272 -5.45814e-05 0.000589343)
(-1.64826e-08 7.67722e-09 -7.03937e-09)
(0.0273248 0.000221206 0.00131082)
(-6.50388e-09 -2.8877e-09 5.1503e-09)
(0.027224 0.000965301 0.00137967)
(9.08389e-09 -4.82939e-09 8.88617e-09)
(0.0257517 0.000208978 0.00253517)
(0.00404177 0.00124609 -0.00294857)
)
;
    }
    procBoundary1to5
    {
        type            processor;
        value           nonuniform List<vector> 
32
(
(0.0361016 0.000523018 -0.000347812)
(0.015196 -0.000626537 -0.00129888)
(0.0384393 0.00131485 0.000577973)
(0.012413 -0.00194151 -0.00204191)
(0.043077 0.00305598 0.0034351)
(0.00716505 -0.00584384 -0.00255619)
(0.00609479 -0.000766401 -0.000463846)
(0.0307063 -0.000319568 0.000804575)
(0.00660214 -0.00157552 -0.000882166)
(0.0311854 0.000521546 0.00104276)
(0.00773186 -0.00380511 -0.00228487)
(0.0290662 0.00332938 0.00223445)
(0.00959495 -0.0120355 -0.0061629)
(0.0280821 -0.000373688 0.000246014)
(0.00200337 -0.000444922 -0.000145323)
(0.0281286 7.45478e-05 0.000771712)
(0.00100734 -0.000345462 -8.54268e-05)
(0.0273988 0.000528534 0.0012537)
(0.00116493 -0.000563457 -0.000152302)
(0.0247077 0.00263136 0.00121054)
(0.00633953 -0.00298953 -0.00153444)
(0.0135914 -0.000465764 -0.00057384)
(0.0317402 -0.000297015 -0.000108464)
(0.0361016 0.000523018 -0.000347812)
(0.00609479 -0.000766401 -0.000463846)
(0.0119667 -0.000575056 -0.000363904)
(0.00173708 -0.000200547 -0.000104337)
(0.00609479 -0.000766401 -0.000463846)
(0.0280821 -0.000373688 0.000246014)
(0.0272679 0.000309942 0.000261733)
(0.0280821 -0.000373688 0.000246014)
(9.26274e-05 -1.13584e-05 5.22045e-07)
)
;
    }
    procBoundary1to7
    {
        type            processor;
        value           uniform (0.00103037 4.63797e-05 -0.000121265);
    }
}


// ************************************************************************* //
