/*--------------------------------*- C++ -*----------------------------------*\
| =========                 |                                                 |
| \\      /  F ield         | OpenFOAM: The Open Source CFD Toolbox           |
|  \\    /   O peration     | Version:  4.x                                   |
|   \\  /    A nd           | Web:      www.OpenFOAM.org                      |
|    \\/     M anipulation  |                                                 |
\*---------------------------------------------------------------------------*/
FoamFile
{
    version     2.0;
    format      ascii;
    class       volVectorField;
    location    "20.5";
    object      UsNext;
}
// * * * * * * * * * * * * * * * * * * * * * * * * * * * * * * * * * * * * * //

dimensions      [0 1 -1 0 0 0 0];

internalField   nonuniform List<vector> 
87
(
(-6.73595e-09 1.13258e-08 2.61168e-08)
(-2.01644e-07 1.0685e-06 8.69426e-08)
(-2.57853e-08 5.82178e-09 7.24006e-09)
(-1.74785e-08 4.12073e-09 -1.82736e-09)
(-5.12443e-09 6.06117e-09 3.86537e-09)
(8.89992e-09 1.05066e-08 -4.82587e-09)
(4.16609e-08 -6.06449e-10 -9.71384e-09)
(1.42216e-06 1.1171e-08 -9.06388e-08)
(7.29316e-07 -4.04208e-08 -1.30626e-07)
(-2.54305e-08 4.56502e-09 6.36612e-09)
(-2.30249e-08 3.33208e-09 1.37759e-08)
(-2.02079e-08 4.96671e-09 1.91339e-09)
(-1.01359e-08 9.59416e-10 8.34235e-10)
(9.73091e-09 -1.02536e-08 1.73148e-08)
(3.1426e-08 1.21447e-08 6.72276e-09)
(5.09807e-08 -3.07979e-10 -3.06857e-09)
(5.99531e-08 -3.10204e-08 -1.91733e-08)
(-1.52065e-09 -6.81331e-08 -6.10017e-08)
(-2.16265e-08 5.1686e-09 -3.08457e-09)
(-2.08205e-08 2.67805e-09 -1.67955e-09)
(-1.15824e-08 6.91501e-09 -3.87383e-09)
(-1.88388e-09 3.60346e-10 -1.10534e-10)
(9.49271e-09 -5.13637e-09 1.7409e-08)
(3.27545e-08 -2.6059e-10 3.81797e-08)
(4.55055e-08 -7.49616e-09 2.95799e-08)
(4.50701e-08 -2.33218e-08 -1.72359e-08)
(3.06677e-08 -8.62186e-09 -2.44431e-08)
(-2.20655e-08 1.0385e-08 1.48646e-08)
(-1.24971e-08 8.92713e-09 2.87854e-08)
(-9.64382e-09 6.13514e-09 7.38983e-09)
(-1.10108e-08 3.65196e-09 -4.65392e-10)
(-4.445e-10 2.88784e-09 3.14243e-09)
(4.74255e-09 3.7363e-09 -4.74883e-09)
(1.89214e-08 7.05953e-10 -7.40641e-09)
(2.76972e-08 -9.02609e-09 -1.92136e-08)
(7.21266e-09 -1.72579e-08 -4.03665e-08)
(-2.6645e-08 9.22349e-09 7.49433e-09)
(-2.45941e-08 7.11018e-09 1.1233e-08)
(-1.31968e-08 1.02557e-08 2.84193e-09)
(-1.4368e-08 5.61358e-09 -3.99367e-10)
(7.88828e-09 -1.91054e-09 9.50538e-09)
(1.62447e-08 2.76692e-09 4.3321e-09)
(2.75157e-08 -1.72818e-09 4.21434e-10)
(3.5991e-08 -1.1046e-08 -1.02697e-08)
(2.87865e-08 -2.15301e-08 -4.69115e-08)
(-2.52896e-08 8.95147e-09 -4.50073e-09)
(-2.26977e-08 9.44603e-09 -2.61244e-09)
(-1.55998e-08 1.03799e-08 -5.49256e-09)
(-1.27599e-08 3.92342e-09 -7.10843e-10)
(2.26893e-09 -5.83719e-09 1.49847e-08)
(1.52209e-08 -6.43268e-09 1.80014e-08)
(2.86862e-08 -2.52118e-09 1.13917e-08)
(3.66054e-08 -1.09033e-08 2.7896e-09)
(3.76676e-09 -1.202e-08 -2.73682e-08)
(-1.31251e-08 2.54191e-09 6.37275e-10)
(-1.30858e-08 4.72786e-09 2.47008e-09)
(-1.08213e-08 2.46585e-09 2.525e-09)
(-1.09515e-08 3.61479e-09 2.08294e-10)
(-1.07165e-08 3.79166e-09 4.64846e-10)
(-9.8312e-09 2.63549e-09 -1.9672e-09)
(-6.14034e-09 3.4078e-09 -2.78607e-09)
(-9.28918e-09 3.13493e-09 -4.99342e-09)
(-5.39528e-09 2.05828e-09 -1.63156e-08)
(-2.41276e-08 5.43551e-09 -1.77312e-11)
(-2.14913e-08 6.96906e-09 1.19215e-10)
(-1.95371e-08 5.56933e-09 1.09083e-09)
(-1.99079e-08 5.79852e-09 8.18465e-11)
(-1.62066e-08 6.39294e-09 6.69062e-10)
(-9.35745e-09 5.95502e-09 -4.77006e-09)
(-1.32337e-09 2.80243e-09 -4.45219e-09)
(9.45595e-10 -5.82016e-10 -5.39008e-09)
(-1.06439e-08 7.52842e-09 -9.92215e-09)
(-2.78682e-08 8.17488e-09 -3.47759e-09)
(-2.72157e-08 8.51965e-09 -2.07552e-09)
(-2.42964e-08 9.18072e-09 -2.11509e-09)
(-2.45171e-08 6.39613e-09 -4.6718e-10)
(-1.86923e-08 6.39441e-09 2.07179e-09)
(-5.54482e-09 6.76711e-10 8.51169e-09)
(4.85456e-09 -2.97397e-09 -1.88201e-09)
(-2.50474e-09 -2.07096e-09 1.22841e-09)
(-9.04474e-09 5.14963e-09 -1.00826e-08)
(-1.04319e-08 1.44821e-09 -1.89698e-10)
(-1.12743e-08 -9.90011e-10 2.7604e-09)
(-1.02202e-08 1.34527e-09 1.88127e-09)
(-2.04718e-08 3.01041e-09 -1.14181e-09)
(-2.24914e-08 4.67027e-09 -2.12131e-11)
(-2.85024e-08 3.36971e-09 -1.77727e-09)
)
;

boundaryField
{
    inlet
    {
        type            calculated;
        value           nonuniform 0();
    }
    outlet
    {
        type            calculated;
        value           nonuniform List<vector> 9((7.29316e-07 -4.04208e-08 -1.30626e-07) (-1.52065e-09 -6.81331e-08 -6.10017e-08) (3.06677e-08 -8.62186e-09 -2.44431e-08) (7.21266e-09 -1.72579e-08 -4.03665e-08) (2.87865e-08 -2.15301e-08 -4.69115e-08) (3.76676e-09 -1.202e-08 -2.73682e-08) (-5.39528e-09 2.05828e-09 -1.63156e-08) (-1.06439e-08 7.52842e-09 -9.92215e-09) (-9.04474e-09 5.14963e-09 -1.00826e-08));
    }
    wall
    {
        type            calculated;
        value           nonuniform List<vector> 
57
(
(-6.73595e-09 1.13258e-08 2.61168e-08)
(-2.54305e-08 4.56502e-09 6.36612e-09)
(-2.16265e-08 5.1686e-09 -3.08457e-09)
(-2.01644e-07 1.0685e-06 8.69426e-08)
(-2.30249e-08 3.33208e-09 1.37759e-08)
(-2.08205e-08 2.67805e-09 -1.67955e-09)
(-2.57853e-08 5.82178e-09 7.24006e-09)
(-2.02079e-08 4.96671e-09 1.91339e-09)
(-1.15824e-08 6.91501e-09 -3.87383e-09)
(-1.74785e-08 4.12073e-09 -1.82736e-09)
(-1.01359e-08 9.59416e-10 8.34235e-10)
(-1.88388e-09 3.60346e-10 -1.10534e-10)
(-5.12443e-09 6.06117e-09 3.86537e-09)
(9.73091e-09 -1.02536e-08 1.73148e-08)
(9.49271e-09 -5.13637e-09 1.7409e-08)
(8.89992e-09 1.05066e-08 -4.82587e-09)
(3.1426e-08 1.21447e-08 6.72276e-09)
(3.27545e-08 -2.6059e-10 3.81797e-08)
(4.16609e-08 -6.06449e-10 -9.71384e-09)
(5.09807e-08 -3.07979e-10 -3.06857e-09)
(4.55055e-08 -7.49616e-09 2.95799e-08)
(1.42216e-06 1.1171e-08 -9.06388e-08)
(5.99531e-08 -3.10204e-08 -1.91733e-08)
(4.50701e-08 -2.33218e-08 -1.72359e-08)
(7.29316e-07 -4.04208e-08 -1.30626e-07)
(-1.52065e-09 -6.81331e-08 -6.10017e-08)
(3.06677e-08 -8.62186e-09 -2.44431e-08)
(-6.73595e-09 1.13258e-08 2.61168e-08)
(-2.20655e-08 1.0385e-08 1.48646e-08)
(-1.31251e-08 2.54191e-09 6.37275e-10)
(-1.04319e-08 1.44821e-09 -1.89698e-10)
(-2.01644e-07 1.0685e-06 8.69426e-08)
(-1.24971e-08 8.92713e-09 2.87854e-08)
(-1.30858e-08 4.72786e-09 2.47008e-09)
(-1.12743e-08 -9.90011e-10 2.7604e-09)
(-2.57853e-08 5.82178e-09 7.24006e-09)
(-9.64382e-09 6.13514e-09 7.38983e-09)
(-1.08213e-08 2.46585e-09 2.525e-09)
(-1.02202e-08 1.34527e-09 1.88127e-09)
(-1.74785e-08 4.12073e-09 -1.82736e-09)
(-1.10108e-08 3.65196e-09 -4.65392e-10)
(-1.09515e-08 3.61479e-09 2.08294e-10)
(-5.12443e-09 6.06117e-09 3.86537e-09)
(-4.445e-10 2.88784e-09 3.14243e-09)
(-1.07165e-08 3.79166e-09 4.64846e-10)
(8.89992e-09 1.05066e-08 -4.82587e-09)
(4.74255e-09 3.7363e-09 -4.74883e-09)
(-9.8312e-09 2.63549e-09 -1.9672e-09)
(4.16609e-08 -6.06449e-10 -9.71384e-09)
(1.89214e-08 7.05953e-10 -7.40641e-09)
(-6.14034e-09 3.4078e-09 -2.78607e-09)
(1.42216e-06 1.1171e-08 -9.06388e-08)
(2.76972e-08 -9.02609e-09 -1.92136e-08)
(-9.28918e-09 3.13493e-09 -4.99342e-09)
(7.29316e-07 -4.04208e-08 -1.30626e-07)
(7.21266e-09 -1.72579e-08 -4.03665e-08)
(-5.39528e-09 2.05828e-09 -1.63156e-08)
)
;
    }
    procBoundary1to0
    {
        type            processor;
        value           nonuniform List<vector> 
12
(
(-2.08297e-08 7.16184e-09 -9.02249e-10)
(-2.75159e-08 3.8594e-09 4.31273e-09)
(-3.30062e-08 3.81107e-09 2.74861e-09)
(-1.56718e-08 -2.14132e-09 3.00915e-09)
(-2.62666e-08 6.52641e-09 3.95957e-09)
(-2.98803e-08 6.17859e-09 8.57771e-10)
(-1.39607e-08 4.61492e-10 2.83797e-09)
(-2.34518e-08 6.5081e-09 2.79592e-09)
(-2.92818e-08 5.16631e-09 2.59064e-09)
(-1.28379e-08 7.82883e-10 1.50517e-09)
(-2.09288e-08 1.70762e-09 1.32424e-10)
(-2.79308e-08 1.01199e-09 1.25916e-09)
)
;
    }
    procBoundary1to3
    {
        type            processor;
        value           nonuniform List<vector> 
27
(
(-2.79625e-08 6.91194e-09 -4.57243e-09)
(-2.11519e-08 4.15241e-09 -7.8796e-09)
(-1.31238e-08 1.10455e-08 -9.30106e-09)
(-8.58414e-09 1.83373e-09 -3.76466e-09)
(1.37298e-08 -9.43033e-09 1.4365e-08)
(3.92565e-08 -1.5616e-08 3.46632e-08)
(6.12258e-08 -1.2779e-08 2.71908e-08)
(3.61999e-07 7.1496e-08 -2.05667e-08)
(5.41029e-08 -4.17634e-09 -3.92758e-08)
(-2.53132e-08 5.75755e-09 -6.90107e-09)
(-2.39574e-08 4.73711e-09 -7.36687e-09)
(-1.89996e-08 6.95975e-09 -8.61985e-09)
(-1.85014e-08 1.18585e-10 -8.71114e-10)
(2.88892e-10 -6.87187e-09 1.18452e-08)
(1.96224e-08 -1.20768e-08 2.54771e-08)
(2.40442e-08 -1.00162e-08 2.0577e-08)
(5.2314e-08 -8.51787e-09 -1.23907e-08)
(-1.59239e-09 -1.21246e-09 -3.49091e-08)
(-2.76268e-08 5.7021e-09 -5.62693e-09)
(-2.63331e-08 5.89668e-09 -6.2334e-09)
(-2.643e-08 7.19751e-09 -5.0642e-09)
(-2.46769e-08 3.18997e-09 -8.57698e-10)
(-1.58684e-08 -3.47153e-09 8.04209e-09)
(-2.39889e-08 -6.1848e-09 1.2642e-08)
(-1.27172e-10 -6.10068e-09 1.29408e-08)
(2.24004e-09 -3.77432e-09 2.54818e-09)
(-2.89739e-09 5.64262e-09 -2.8608e-09)
)
;
    }
    procBoundary1to5
    {
        type            processor;
        value           nonuniform List<vector> 
32
(
(-1.3318e-08 3.26948e-09 1.1198e-09)
(-1.23006e-08 2.34341e-09 1.50435e-09)
(-1.3779e-08 2.96747e-09 9.68196e-10)
(-9.17183e-09 1.78501e-09 -1.121e-09)
(-9.4554e-09 1.87723e-09 -1.14027e-09)
(-1.41178e-07 3.05218e-08 -3.35581e-10)
(-2.2612e-08 5.25074e-09 1.08398e-09)
(-2.0903e-08 5.91041e-09 1.34323e-09)
(-2.0234e-08 5.20329e-09 1.78886e-09)
(-1.8011e-08 3.46432e-09 -2.21841e-10)
(-1.4924e-08 2.02518e-09 -1.8424e-09)
(-1.18741e-08 2.49775e-09 -9.09697e-10)
(-1.40888e-08 1.92912e-08 -4.42982e-09)
(-2.94135e-08 5.1858e-09 -1.90683e-09)
(-2.6664e-08 5.67016e-09 -4.46451e-11)
(-2.51407e-08 4.84475e-09 2.96968e-10)
(-2.25261e-08 3.89024e-09 8.7397e-10)
(-1.89066e-08 2.27235e-09 1.5511e-09)
(-1.36407e-08 -6.52269e-10 2.75083e-09)
(-9.30931e-09 5.8096e-10 -6.97874e-11)
(-4.9699e-09 5.37311e-09 -3.37833e-09)
(-6.59554e-09 8.2753e-10 1.99083e-09)
(-8.60914e-09 1.87594e-10 1.90608e-09)
(-1.3318e-08 3.26948e-09 1.1198e-09)
(-2.2612e-08 5.25074e-09 1.08398e-09)
(-9.78078e-09 1.43273e-09 1.44239e-09)
(-1.60007e-08 -3.98799e-10 -3.24227e-10)
(-2.2612e-08 5.25074e-09 1.08398e-09)
(-2.94135e-08 5.1858e-09 -1.90683e-09)
(-1.99592e-08 -2.34584e-09 2.0367e-09)
(-2.94135e-08 5.1858e-09 -1.90683e-09)
(-2.26001e-08 1.51583e-09 -1.6221e-09)
)
;
    }
    procBoundary1to7
    {
        type            processor;
        value           uniform (-2.79023e-08 4.38516e-09 -3.28765e-09);
    }
}


// ************************************************************************* //
