/*--------------------------------*- C++ -*----------------------------------*\
| =========                 |                                                 |
| \\      /  F ield         | OpenFOAM: The Open Source CFD Toolbox           |
|  \\    /   O peration     | Version:  4.x                                   |
|   \\  /    A nd           | Web:      www.OpenFOAM.org                      |
|    \\/     M anipulation  |                                                 |
\*---------------------------------------------------------------------------*/
FoamFile
{
    version     2.0;
    format      ascii;
    class       volScalarField;
    location    "57.5";
    object      KslNext;
}
// * * * * * * * * * * * * * * * * * * * * * * * * * * * * * * * * * * * * * //

dimensions      [1 -3 -1 0 0 0 0];

internalField   nonuniform List<scalar> 
114
(
3624.92
39976.5
4120.91
1e+10
5601.15
54849.6
264066
3701.72
199327
3770.19
69766.3
4140.77
12716.1
4183.22
1e+10
4227.97
1e+10
4298.94
1e+10
4769.27
14419.1
7209.06
3080.81
7425.15
2946.23
7991.1
2770.74
9155.37
2426.08
7881.76
29215.2
3543.89
55308
3478.86
64278.2
3426.19
23551.4
3453.53
6327.17
1e+10
3745.08
1e+10
3706.57
210233
3601.38
36599
3675.47
13267.7
1e+10
3835.01
7710.47
3211.42
8156.37
3116.07
8751.1
3012.32
10772.5
2884.29
13977.8
14925.1
3467.48
17709
3332.7
21001.8
3199.16
20653.2
2979.05
10345.8
108883
3693.08
1e+10
3732.54
1e+10
3897.92
51760.2
4199.55
8163.69
48122.4
3586.67
71060.2
3478.32
4857.97
2741.3
4629.21
2551.29
4575.08
2281.47
4860.16
1822.97
5425.38
6089.13
2976.68
5958.81
2794.12
6096.61
2583.51
7028.02
2313.03
9609.19
7354.95
3149.85
7545.83
3015.8
7632.63
2806.82
7902.5
2377.47
8401.93
7215.1
3094.62
7416.86
2974.01
7903.62
2763.31
)
;

boundaryField
{
    inlet
    {
        type            zeroGradient;
    }
    outlet
    {
        type            zeroGradient;
    }
    wall
    {
        type            zeroGradient;
    }
    procBoundary5to1
    {
        type            processor;
        value           uniform 0;
    }
    procBoundary5to4
    {
        type            processor;
        value           uniform 0;
    }
    procBoundary5to7
    {
        type            processor;
        value           uniform 0;
    }
}


// ************************************************************************* //
