/*--------------------------------*- C++ -*----------------------------------*\
| =========                 |                                                 |
| \\      /  F ield         | OpenFOAM: The Open Source CFD Toolbox           |
|  \\    /   O peration     | Version:  4.x                                   |
|   \\  /    A nd           | Web:      www.OpenFOAM.org                      |
|    \\/     M anipulation  |                                                 |
\*---------------------------------------------------------------------------*/
FoamFile
{
    version     2.0;
    format      ascii;
    class       volScalarField;
    location    "57.5";
    object      pSmooth;
}
// * * * * * * * * * * * * * * * * * * * * * * * * * * * * * * * * * * * * * //

dimensions      [1 -1 -2 0 0 0 0];

internalField   nonuniform List<scalar> 
114
(
69.2339
0.1
62.4847
0.1
55.7971
0.1
1.66203
68.5641
0.1
62.3246
0.1
56.4792
0.1
75.1375
5.05674
68.4489
0.1
61.6423
0.1
53.6663
0.1
19.6193
74.9081
0.640963
68.7071
0.1
63.488
0.1
60.3681
0.1
19.7448
75.0094
0.918014
68.4675
0.1
62.6158
0.1
58.265
0.1
21.2091
74.8691
3.06099
68.3152
0.1
62.1958
0.1
57.1285
0.1
21.4946
74.8212
20.3737
75.1463
1.57947
68.6568
0.1
62.6607
0.1
57.7488
0.1
20.1363
75.1074
1.07135
68.5099
0.1
62.4248
0.1
57.5778
0.1
21.0202
75.0805
2.62551
68.2529
0.1
61.3396
0.1
54.3755
0.1
20.5439
74.9084
1.65384
68.0773
20.0698
74.7736
1.08058
68.6059
0.1
63.597
0.1
61.9768
0.1
19.9937
74.8088
0.993685
68.5871
0.1
63.2957
0.1
60.5087
0.1
20.8121
74.9235
2.15601
68.3523
0.1
62.4466
0.1
58.4026
0.1
20.4634
74.8518
1.58943
68.4396
0.1
62.7296
)
;

boundaryField
{
    inlet
    {
        type            zeroGradient;
    }
    outlet
    {
        type            fixedValue;
        value           uniform 0;
    }
    wall
    {
        type            zeroGradient;
    }
    procBoundary5to1
    {
        type            processor;
        value           nonuniform List<scalar> 
32
(
68.9752
0.1
64.2314
0.1
61.9165
0.1
0.1
68.7296
0.1
63.7477
0.1
61.249
0.1
74.9203
1.64224
68.4777
0.1
62.6894
0.1
57.965
0.1
20.5781
75.6357
2.33638
2.33638
2.33638
20.3341
75.2677
75.2677
75.2677
22.605
22.605
)
;
    }
    procBoundary5to4
    {
        type            processor;
        value           nonuniform List<scalar> 
12
(
81.5936
81.8722
81.9105
81.8749
81.933
82.0004
82.2312
81.9451
81.4012
81.5619
81.7623
81.6717
)
;
    }
    procBoundary5to7
    {
        type            processor;
        value           nonuniform List<scalar> 
44
(
74.9048
2.06869
68.4477
0.1
62.5939
0.1
57.8168
0.1
20.7398
74.9048
3.55988
68.3074
0.1
62.4898
0.1
56.7636
0.1
23.0776
3.55988
75.0783
3.55988
68.3074
0.1
62.0272
0.1
57.2661
0.1
21.4991
74.9491
3.13663
0.1
68.1429
0.1
62.0272
0.1
59.0137
0.1
21.4772
75.1094
3.11232
68.501
0.1
0.1
62.1729
)
;
    }
}


// ************************************************************************* //
