/*--------------------------------*- C++ -*----------------------------------*\
| =========                 |                                                 |
| \\      /  F ield         | OpenFOAM: The Open Source CFD Toolbox           |
|  \\    /   O peration     | Version:  4.x                                   |
|   \\  /    A nd           | Web:      www.OpenFOAM.org                      |
|    \\/     M anipulation  |                                                 |
\*---------------------------------------------------------------------------*/
FoamFile
{
    version     2.0;
    format      ascii;
    class       volScalarField;
    location    "59";
    object      QPartFluid;
}
// * * * * * * * * * * * * * * * * * * * * * * * * * * * * * * * * * * * * * //

dimensions      [1 -1 -3 0 0 0 0];

internalField   nonuniform List<scalar> 
114
(
7.86388e+09
7.23733e+09
7.04406e+09
5.72643e+09
7.895e+09
5.86068e+09
7.27543e+09
7.05425e+09
5.91671e+09
8.28286e+09
8.48847e+09
1.01356e+10
6.52855e+09
9.96092e+09
6.15479e+09
8.72328e+09
5.89175e+09
5.31982e+09
7.14774e+09
6.26266e+09
6.66057e+09
6.65156e+09
5.7008e+09
7.57557e+09
6.38638e+09
6.60265e+09
8.39654e+09
7.28789e+09
6.83398e+09
4.91936e+09
8.21426e+09
8.25271e+09
9.35669e+09
8.95242e+09
8.90774e+09
1.01959e+10
5.47733e+09
1.07205e+10
6.41078e+09
8.52142e+09
5.5137e+09
7.29968e+09
9.11859e+09
6.18971e+09
8.42954e+09
7.61565e+09
8.11406e+09
4.48152e+09
1.03772e+10
5.08009e+09
7.26202e+09
9.5529e+09
7.35883e+09
8.59252e+09
7.61935e+09
8.07677e+09
6.75814e+09
8.83356e+09
5.21091e+09
6.1153e+09
1.09151e+10
7.22022e+09
9.14102e+09
8.3515e+09
9.23609e+09
1.08362e+10
8.79398e+09
4.83411e+09
7.3955e+09
7.78275e+09
8.01544e+09
7.39431e+09
1.13731e+10
9.26044e+09
9.00899e+09
1.09655e+10
8.17243e+09
5.22809e+09
1.17573e+10
9.58151e+09
1.00025e+10
2.48903e+09
6.87277e+09
4.52688e+09
7.72718e+09
6.06387e+09
5.85597e+09
7.16539e+09
7.92814e+09
4.99855e+09
6.97396e+09
8.22931e+09
4.85645e+09
6.94124e+09
8.20377e+09
7.71288e+09
5.48534e+09
9.04665e+09
5.35006e+09
6.06639e+09
7.31643e+09
8.52137e+09
7.85939e+09
6.24737e+09
9.45875e+09
7.00888e+09
8.17322e+09
6.37708e+09
7.22486e+09
6.50166e+09
7.37092e+09
6.76792e+09
1.04588e+10
8.56658e+09
)
;

boundaryField
{
    inlet
    {
        type            calculated;
        value           nonuniform 0();
    }
    outlet
    {
        type            calculated;
        value           uniform 0;
    }
    wall
    {
        type            calculated;
        value           uniform 0;
    }
    procBoundary5to1
    {
        type            processor;
        value           nonuniform List<scalar> 
32
(
9.60083e+09
6.07883e+09
9.98626e+09
7.20743e+09
7.38262e+09
3.18155e+09
6.48968e+09
8.09917e+09
8.17908e+09
9.08416e+09
7.62468e+09
9.45422e+09
3.70157e+09
7.7717e+09
5.4628e+09
1.11332e+10
8.86927e+09
1.08996e+10
7.69457e+09
9.71082e+09
3.39229e+09
6.46487e+09
5.53117e+09
7.57675e+09
7.57675e+09
7.57675e+09
7.85675e+09
1.22052e+10
1.22052e+10
1.22052e+10
5.90278e+09
5.90278e+09
)
;
    }
    procBoundary5to4
    {
        type            processor;
        value           nonuniform List<scalar> 
12
(
9.65703e+09
1.11171e+10
6.75008e+09
7.09138e+09
9.58669e+09
1.0505e+10
8.62759e+09
8.14677e+09
8.20882e+09
8.58688e+09
7.0446e+09
7.09518e+09
)
;
    }
    procBoundary5to7
    {
        type            processor;
        value           nonuniform List<scalar> 
44
(
9.19852e+09
6.50309e+09
8.00338e+09
1.14407e+10
1.25744e+10
8.02555e+09
6.55518e+09
6.16757e+09
1.02025e+10
9.19852e+09
6.56306e+09
8.6471e+09
6.68649e+09
8.21479e+09
8.8219e+09
9.88128e+09
6.04787e+09
3.8593e+09
6.56306e+09
1.01063e+10
6.56306e+09
8.6471e+09
5.04023e+09
7.30249e+09
8.23153e+09
7.67705e+09
4.65152e+09
8.5731e+09
9.15969e+09
7.08649e+09
5.04023e+09
6.53194e+09
5.04023e+09
7.30249e+09
5.91303e+09
8.11891e+09
4.89187e+09
7.2864e+09
6.99601e+09
7.48358e+09
8.60901e+09
5.08855e+09
5.91303e+09
4.87998e+09
)
;
    }
}


// ************************************************************************* //
