/*--------------------------------*- C++ -*----------------------------------*\
| =========                 |                                                 |
| \\      /  F ield         | OpenFOAM: The Open Source CFD Toolbox           |
|  \\    /   O peration     | Version:  4.x                                   |
|   \\  /    A nd           | Web:      www.OpenFOAM.org                      |
|    \\/     M anipulation  |                                                 |
\*---------------------------------------------------------------------------*/
FoamFile
{
    version     2.0;
    format      ascii;
    class       volVectorField;
    location    "59";
    object      U;
}
// * * * * * * * * * * * * * * * * * * * * * * * * * * * * * * * * * * * * * //

dimensions      [0 1 -1 0 0 0 0];

internalField   nonuniform List<vector> 
114
(
(0.0294833 0.00110229 0.000233877)
(0.00257126 0.000244163 -0.000240557)
(0.0255072 0.000279551 0.000988693)
(8.96405e-09 1.83339e-09 -1.3238e-09)
(0.0180263 -0.000740254 0.0019576)
(0.00164223 0.000569393 -5.91083e-06)
(0.000378485 -8.0676e-05 -5.47041e-05)
(0.0291257 0.00113682 0.000382383)
(0.000441644 -0.000126615 -0.000105391)
(0.02824 0.00118954 0.00163942)
(0.00121451 -0.00037278 -0.000506084)
(0.0244347 0.00302259 0.00406362)
(0.00592521 -0.000918891 -0.00476614)
(0.0258379 0.000524998 5.57817e-05)
(9.05025e-09 -6.87252e-10 -4.01373e-10)
(0.0254544 0.000189045 0.000187012)
(8.7438e-09 -2.76753e-10 -1.45087e-09)
(0.0246261 -0.000345021 0.000720734)
(9.77083e-09 3.56162e-10 -1.89989e-09)
(0.0214017 -0.00156511 0.00131504)
(0.00684204 0.000353743 -0.000945326)
(0.0146029 -0.000217003 0.000207789)
(0.0343312 -0.000222302 0.000782948)
(0.0141421 -0.000276076 0.000831975)
(0.035908 0.000222717 0.0012112)
(0.0129364 -0.000706491 0.00176186)
(0.038061 0.000865572 0.000641447)
(0.0104895 -0.00196345 0.00345397)
(0.0420109 0.00197038 -0.00105886)
(0.00708846 -0.00645736 0.00793931)
(0.00366258 -0.000452828 6.57072e-05)
(0.0302896 -0.000105131 0.000274817)
(0.00195652 -0.000370698 9.56221e-05)
(0.030895 0.000434213 0.00015415)
(0.00165649 -0.000507551 0.000221034)
(0.0310777 0.00176408 -1.80615e-05)
(0.00381355 -0.00209994 0.00122308)
(0.0296948 0.00405336 -0.00118451)
(0.00949891 -0.0106068 0.00694842)
(1.07301e-08 -1.55789e-09 1.27175e-09)
(0.0283681 0.000276132 0.000107916)
(9.95782e-09 -2.68952e-09 2.78913e-09)
(0.0287703 0.000236178 0.000297355)
(0.000369033 -0.000118969 0.000108917)
(0.0292453 0.000166532 0.000494801)
(0.00233743 -0.00106817 0.000921373)
(0.0276415 0.00196905 -0.000781918)
(0.00614693 -0.0032639 0.00246178)
(1.04141e-08 -1.78078e-09 3.29173e-10)
(0.0276542 -0.000319793 3.8304e-06)
(0.0136292 0.00017263 -0.000317133)
(0.0330747 0.000134363 4.99549e-05)
(0.0128495 0.000419591 -0.000249346)
(0.0339228 0.000399314 4.31919e-05)
(0.0119533 0.000605221 9.52381e-05)
(0.0348973 0.00060334 -0.000110687)
(0.00949857 0.000636999 0.00106901)
(0.0357351 0.000505006 -0.0018963)
(0.00489322 0.000245897 0.00508769)
(0.00710518 -0.000380849 -6.77334e-05)
(0.0311186 -3.07758e-05 0.000254593)
(0.0060014 -0.000480202 5.77301e-05)
(0.032131 0.000383156 -0.000156056)
(0.00505678 -0.00074617 0.000319586)
(0.0333533 0.00162207 -0.000879095)
(0.00486192 -0.00141442 0.00115034)
(0.0347018 0.00442854 -0.00295791)
(0.00544457 -0.0050467 0.00622944)
(0.000926418 -2.62319e-05 2.96592e-05)
(0.0288194 0.000290033 -7.63286e-05)
(1.02659e-08 -1.11523e-09 1.55982e-09)
(0.028433 0.000630578 -3.36985e-05)
(9.45025e-09 -8.2608e-10 1.70986e-09)
(0.0271251 0.000586802 -0.000380921)
(0.00178921 -0.000253168 0.000617664)
(0.0243961 0.000600488 -0.00175803)
(0.00822137 -0.00298764 0.00812989)
(0.00225809 -8.0491e-05 0.000182488)
(0.0298723 0.000173441 1.36401e-05)
(0.00155862 -5.3035e-05 0.000246474)
(0.0306111 0.000119431 -0.000119705)
(0.0211776 -1.90715e-06 0.000670306)
(0.0379392 -4.21357e-05 0.000853627)
(0.022249 0.000128423 0.000951074)
(0.040831 0.00010163 0.000615998)
(0.0225411 -0.000142991 0.00194251)
(0.0456605 0.00028808 -1.67327e-05)
(0.020623 -0.00126519 0.0044123)
(0.0566744 0.000953992 -0.00240812)
(0.0109659 -0.00637082 0.0127521)
(0.0171534 -0.00091859 0.000371534)
(0.0355586 -0.000657177 0.000587875)
(0.0174866 -0.00122657 0.000403056)
(0.0376913 -0.000296134 0.000106778)
(0.0170825 -0.00186401 0.000752937)
(0.0406303 0.00058481 -0.000776036)
(0.0143018 -0.0031616 0.00176554)
(0.0446157 0.00327118 -0.00311252)
(0.00663063 -0.006712 0.00411565)
(0.0140388 -0.00042606 0.000364988)
(0.0333407 -0.00025319 0.000352234)
(0.0137219 -0.000606167 0.000583734)
(0.0347457 -8.32942e-05 0.000148778)
(0.0134629 -0.000829644 0.0014851)
(0.0372537 0.000380964 -0.00078114)
(0.0123924 -0.00128544 0.00346566)
(0.0426555 0.00153784 -0.00388351)
(0.00756578 -0.00177446 0.00849679)
(0.014376 -0.000663765 0.000178177)
(0.0339142 -0.00057561 0.000159712)
(0.0140435 -0.00102363 0.000139482)
(0.0353152 -0.000698753 -0.00042781)
(0.0131043 -0.00176173 0.000436732)
(0.0375953 -0.000476667 -0.000779939)
)
;

boundaryField
{
    inlet
    {
        type            fixedValue;
        value           nonuniform 0();
    }
    outlet
    {
        type            zeroGradient;
    }
    wall
    {
        type            fixedValue;
        value           uniform (0 0 0);
    }
    procBoundary5to1
    {
        type            processor;
        value           nonuniform List<vector> 
32
(
(0.0372743 0.000731424 -0.00124137)
(0.0139815 0.000721166 -0.00319689)
(0.0390629 0.00104236 0.000151353)
(0.0106477 0.000448955 -0.00510261)
(0.0400844 0.00114476 0.00357228)
(0.00608617 0.000116682 -0.0087732)
(0.00879809 -0.0010261 -0.00115171)
(0.0346432 0.000298917 0.00012736)
(0.00845957 -0.00179967 -0.00204995)
(0.0366923 0.00145952 0.00109623)
(0.00799149 -0.00333565 -0.00383539)
(0.0388526 0.00430306 0.00388145)
(0.00618959 -0.00744129 -0.00859302)
(0.0291816 9.76271e-06 0.000184455)
(0.00127459 -9.87791e-05 -0.000432255)
(0.0296598 0.000517531 0.000122125)
(0.0018565 -0.000291208 -0.000881926)
(0.0298162 0.00097658 0.000500252)
(0.00409813 -0.00147742 -0.00245992)
(0.0281992 0.00282234 0.00255654)
(0.0088291 -0.00681175 -0.00562024)
(0.0118293 0.000165018 -0.000461093)
(0.0315239 0.00058912 -0.000150229)
(0.00794123 0.000457867 -0.000403752)
(0.00794123 0.000457867 -0.000403752)
(0.00794123 0.000457867 -0.000403752)
(0.00185828 -0.000283041 -0.000176174)
(0.0292835 0.000652568 -0.000309841)
(0.0292835 0.000652568 -0.000309841)
(0.0292835 0.000652568 -0.000309841)
(9.97614e-09 -5.43176e-10 -6.55045e-10)
(9.97614e-09 -5.43176e-10 -6.55045e-10)
)
;
    }
    procBoundary5to4
    {
        type            processor;
        value           nonuniform List<vector> 
12
(
(0.0334281 -0.000449689 0.00020276)
(0.0299726 -0.000602452 0.000279856)
(0.0284649 -4.04364e-05 -0.000206393)
(0.0276859 -5.87375e-05 0.000116506)
(0.0327083 -7.37094e-05 0.000146197)
(0.0305353 -0.000520038 0.000404662)
(0.0287407 9.41107e-05 0.000218733)
(0.0290569 -6.01368e-05 0.00035269)
(0.0361349 -0.000213651 0.000947083)
(0.0342798 -0.000752939 0.000775413)
(0.032436 -0.000207167 0.000780299)
(0.0327308 -0.000473262 0.000442699)
)
;
    }
    procBoundary5to7
    {
        type            processor;
        value           nonuniform List<vector> 
44
(
(0.0291872 0.000391957 -0.000133023)
(0.00142831 0.000320957 -0.000400306)
(0.0291921 0.000577351 -4.35745e-05)
(0.000399173 0.000127564 -0.000163894)
(0.0287977 0.000775398 0.000744162)
(0.000127027 5.63365e-05 -7.11236e-05)
(0.024711 -0.00133846 0.00307749)
(0.00335453 0.00139048 -0.00187323)
(0.00203303 0.000235097 -0.000341362)
(0.0291872 0.000391957 -0.000133023)
(9.41888e-09 -2.38722e-09 1.04528e-09)
(0.0277235 -0.000349248 0.000549023)
(8.32523e-09 -2.37306e-09 1.03052e-09)
(0.0273136 -0.000104267 0.000835023)
(8.4716e-09 -2.31531e-09 1.53659e-09)
(0.0244275 0.00204804 0.000720723)
(0.00542841 -0.00120049 0.0014363)
(9.63601e-09 -1.48159e-11 -4.15681e-10)
(9.41888e-09 -2.38722e-09 1.04528e-09)
(0.0267749 -0.000213395 -1.52323e-05)
(9.41888e-09 -2.38722e-09 1.04528e-09)
(0.0277235 -0.000349248 0.000549023)
(0.00243777 -0.000110947 0.000711698)
(0.0310734 0.000360028 -0.000125925)
(0.00429463 -0.000174174 0.0024151)
(0.0295738 -5.05326e-05 -0.00246828)
(0.008744 -0.000373037 0.0117162)
(0.000337071 -2.35831e-06 4.13268e-05)
(0.0284611 0.000186369 -4.77559e-05)
(9.65595e-09 1.25462e-10 2.20953e-09)
(0.00243777 -0.000110947 0.000711698)
(0.0282675 -0.00013525 8.88014e-05)
(0.00243777 -0.000110947 0.000711698)
(0.0310734 0.000360028 -0.000125925)
(0.0118193 -0.00374098 0.00166471)
(0.0422952 0.00139222 -0.00172304)
(0.00760761 -0.0076312 0.00617512)
(0.0111282 -0.00037941 9.5953e-05)
(0.0313048 -0.000288569 -0.000233739)
(0.00954072 -0.000580693 -2.46199e-05)
(0.0310131 -0.000380088 -0.000483461)
(0.00764147 -0.00083948 0.000132181)
(0.0118193 -0.00374098 0.00166471)
(0.0298079 -0.000357167 -0.00149331)
)
;
    }
}


// ************************************************************************* //
