/*--------------------------------*- C++ -*----------------------------------*\
| =========                 |                                                 |
| \\      /  F ield         | OpenFOAM: The Open Source CFD Toolbox           |
|  \\    /   O peration     | Version:  4.x                                   |
|   \\  /    A nd           | Web:      www.OpenFOAM.org                      |
|    \\/     M anipulation  |                                                 |
\*---------------------------------------------------------------------------*/
FoamFile
{
    version     2.0;
    format      ascii;
    class       volScalarField;
    location    "41";
    object      alpha.iron;
}
// * * * * * * * * * * * * * * * * * * * * * * * * * * * * * * * * * * * * * //

dimensions      [0 0 0 0 0 0 0];

internalField   nonuniform List<scalar> 
87
(
1
1
1
1
1
1
1
0.999999
0.99815
1
1
1
1
1
1
0.999999
0.999999
0.999036
1
1
1
1
0.999999
0.999999
0.999997
0.999997
0.999602
1
1
1
1
1
1
0.999999
0.999999
0.999315
1
1
1
0.999999
0.999999
0.999998
0.999996
0.999995
0.999581
1
0.999999
0.999998
0.999997
0.999994
0.999991
0.999982
0.999982
0.999817
1
1
1
1
1
1
0.999999
0.999998
0.999653
1
1
0.999999
0.999999
0.999997
0.999996
0.99999
0.999989
0.999674
1
0.999999
0.999997
0.999994
0.999989
0.999982
0.99997
0.999966
0.999797
1
1
1
1
1
1
)
;

boundaryField
{
    inlet
    {
        type            fixedValue;
        value           nonuniform 0();
    }
    outlet
    {
        type            fixedValue;
        value           uniform 1;
    }
    wall
    {
        type            zeroGradient;
    }
    procBoundary1to0
    {
        type            processor;
        value           nonuniform List<scalar> 
12
(
1
1
1
1
1
1
1
1
1
1
1
1
)
;
    }
    procBoundary1to3
    {
        type            processor;
        value           nonuniform List<scalar> 
27
(
1
1
1
1
1
0.999999
0.999998
0.999997
0.999832
1
1
0.999999
0.999998
0.999996
0.999994
0.999986
0.999984
0.999709
1
0.999999
0.999997
0.999992
0.999984
0.999973
0.999957
0.99995
0.99982
)
;
    }
    procBoundary1to5
    {
        type            processor;
        value           nonuniform List<scalar> 
32
(
1
1
0.999999
0.999999
0.999997
0.99998
0.999999
0.999999
0.999998
0.999995
0.999991
0.999985
0.999911
0.999999
0.999998
0.999996
0.999992
0.999985
0.999974
0.999958
0.99974
1
1
1
0.999999
1
1
0.999999
0.999999
1
0.999999
1
)
;
    }
    procBoundary1to7
    {
        type            processor;
        value           uniform 1;
    }
}


// ************************************************************************* //
