/*--------------------------------*- C++ -*----------------------------------*\
| =========                 |                                                 |
| \\      /  F ield         | OpenFOAM: The Open Source CFD Toolbox           |
|  \\    /   O peration     | Version:  4.x                                   |
|   \\  /    A nd           | Web:      www.OpenFOAM.org                      |
|    \\/     M anipulation  |                                                 |
\*---------------------------------------------------------------------------*/
FoamFile
{
    version     2.0;
    format      ascii;
    class       volScalarField;
    location    "41";
    object      Ksl;
}
// * * * * * * * * * * * * * * * * * * * * * * * * * * * * * * * * * * * * * //

dimensions      [1 -3 -1 0 0 0 0];

internalField   nonuniform List<scalar> 
87
(
3829.35
2548.47
3756.66
2393.19
3763.76
2108.29
4112.15
1681.55
5516.86
4482.28
2695.14
4429.2
2557.63
4558.23
2308.15
5157.77
1958.48
6159.45
5378.38
2951.05
5484.43
2844.27
5742.04
2617.52
6089.73
2181.17
6326.92
6055.9
3029.28
6102.58
2950.35
6415.51
2773.37
7620.64
2549.77
10823.1
11416.6
3391.99
12836
3286.55
15478.3
3058.73
16338.1
2815.7
10236.8
40598.3
3713.26
271855
3700.28
1e+10
3807.44
60066.9
4079.05
7799.71
6320.67
3005.01
6583.29
2896.42
7113.45
2686.39
8069.94
2481.14
8322.5
12726.8
3350.55
12792.7
3196.49
12648.9
2986.81
11117.6
2718.96
7629.52
33757.7
3688.36
40722.4
3647.79
36304
3602.85
19938.7
3682.01
8049.54
8692.96
3339.92
12333.5
65966.4
3718.12
1e+10
)
;

boundaryField
{
    inlet
    {
        type            zeroGradient;
    }
    outlet
    {
        type            zeroGradient;
    }
    wall
    {
        type            zeroGradient;
    }
    procBoundary1to0
    {
        type            processor;
        value           nonuniform List<scalar> 
12
(
2612.48
2817.66
3030.59
3110.78
3478.26
3704.24
3105.77
3482.77
3706.9
3310.63
3722.88
4077.96
)
;
    }
    procBoundary1to3
    {
        type            processor;
        value           nonuniform List<scalar> 
27
(
4913.35
2752.48
4767.71
2586.98
4898.12
2393.08
5680.03
2111.11
6467.43
17349.3
3444.89
21098.9
3307
25490.4
3129.37
24495.2
2880.86
9354.03
38382.8
3655.6
53907.8
3626.17
47326
3623.29
27858.4
3786.06
8939.31
)
;
    }
    procBoundary1to5
    {
        type            processor;
        value           nonuniform List<scalar> 
32
(
3590.12
31859.8
4107.1
1e+10
5738.59
94876.1
9.99781e+09
3745.98
1e+10
3865.96
91381.1
4262.55
13514.9
4146.76
1e+10
4183
1e+10
4274.51
1e+10
4776.71
14377.2
7205.18
3064.62
3590.12
9.99781e+09
7431.32
32250.8
9.99781e+09
4146.76
3543.39
4146.76
732074
)
;
    }
    procBoundary1to7
    {
        type            processor;
        value           uniform 6.08813e+09;
    }
}


// ************************************************************************* //
