/*--------------------------------*- C++ -*----------------------------------*\
| =========                 |                                                 |
| \\      /  F ield         | OpenFOAM: The Open Source CFD Toolbox           |
|  \\    /   O peration     | Version:  4.x                                   |
|   \\  /    A nd           | Web:      www.OpenFOAM.org                      |
|    \\/     M anipulation  |                                                 |
\*---------------------------------------------------------------------------*/
FoamFile
{
    version     2.0;
    format      ascii;
    class       volScalarField;
    location    "41";
    object      KslPrev;
}
// * * * * * * * * * * * * * * * * * * * * * * * * * * * * * * * * * * * * * //

dimensions      [1 -3 -1 0 0 0 0];

internalField   nonuniform List<scalar> 
87
(
3829.36
2548.48
3756.67
2393.2
3763.76
2108.29
4112.14
1681.55
5516.84
4482.29
2695.14
4429.21
2557.63
4558.24
2308.15
5157.79
1958.49
6159.49
5378.37
2951.07
5484.45
2844.26
5742.03
2617.51
6089.73
2181.17
6326.91
6055.92
3029.29
6102.61
2950.37
6415.5
2773.35
7620.59
2549.76
10823
11416.6
3391.99
12835.9
3286.54
15478.3
3058.74
16338.1
2815.7
10236.9
40597.7
3713.27
271826
3700.28
1e+10
3807.44
60069.3
4079.05
7799.76
6320.69
3005.02
6583.31
2896.42
7113.47
2686.38
8069.91
2481.13
8322.45
12726.9
3350.56
12792.8
3196.49
12648.9
2986.82
11117.6
2718.96
7629.52
33757.3
3688.36
40721.6
3647.79
36303.2
3602.85
19938.6
3682.01
8049.54
8692.96
3339.93
12333.5
65967.3
3718.13
1e+10
)
;

boundaryField
{
    inlet
    {
        type            zeroGradient;
    }
    outlet
    {
        type            zeroGradient;
    }
    wall
    {
        type            zeroGradient;
    }
    procBoundary1to0
    {
        type            processor;
        value           uniform 0;
    }
    procBoundary1to3
    {
        type            processor;
        value           uniform 0;
    }
    procBoundary1to5
    {
        type            processor;
        value           uniform 0;
    }
    procBoundary1to7
    {
        type            processor;
        value           uniform 0;
    }
}


// ************************************************************************* //
