/*--------------------------------*- C++ -*----------------------------------*\
| =========                 |                                                 |
| \\      /  F ield         | OpenFOAM: The Open Source CFD Toolbox           |
|  \\    /   O peration     | Version:  4.x                                   |
|   \\  /    A nd           | Web:      www.OpenFOAM.org                      |
|    \\/     M anipulation  |                                                 |
\*---------------------------------------------------------------------------*/
FoamFile
{
    version     2.0;
    format      ascii;
    class       surfaceScalarField;
    location    "41";
    object      phi;
}
// * * * * * * * * * * * * * * * * * * * * * * * * * * * * * * * * * * * * * //

dimensions      [0 3 -1 0 0 0 0];

internalField   nonuniform List<scalar> 
192
(
1.42321e-05
-5.1234e-09
-2.04991e-07
1.44946e-05
-5.01701e-08
-2.12318e-07
1.48732e-05
-3.87886e-08
-3.39801e-07
1.49545e-05
3.76941e-08
-1.18994e-07
1.5747e-05
-1.71266e-07
-6.21194e-07
1.53026e-05
2.28075e-07
2.16281e-07
1.73946e-05
-6.47436e-07
-1.44457e-06
1.53005e-05
8.41566e-07
1.25252e-06
-2.50947e-06
-3.53831e-06
1.29893e-05
-8.71781e-08
-1.98007e-07
1.31982e-05
-6.97675e-08
-1.89322e-07
1.35001e-05
-8.39984e-08
-2.56682e-07
1.34775e-05
5.50734e-08
5.2666e-09
1.40341e-05
-2.79306e-07
-4.48615e-07
1.34843e-05
2.41352e-07
5.36492e-07
1.47235e-05
-8.85242e-07
-1.00139e-06
1.30473e-05
8.69246e-07
1.64852e-06
-2.59534e-06
-2.80243e-06
1.137e-05
-1.79927e-07
1.14151e-05
-1.2169e-07
1.15166e-05
-2.19713e-07
1.14687e-05
9.78634e-08
1.18461e-05
-4.11939e-07
1.16612e-05
5.28855e-07
1.27909e-05
-9.97139e-07
1.17446e-05
1.66698e-06
-4.05868e-06
1.05469e-05
1.31413e-08
-2.95838e-07
1.06678e-05
-5.05471e-08
-2.827e-07
1.07168e-05
4.66821e-08
-4.35484e-07
1.06646e-05
1.453e-07
-2.12018e-07
1.07664e-05
2.48344e-08
-7.4786e-07
1.03452e-05
4.59567e-07
1.77874e-07
1.05785e-05
-1.88348e-07
-1.48954e-06
9.42729e-06
1.09805e-06
1.30573e-06
-1.19273e-06
-3.08584e-06
8.21942e-06
-3.75869e-08
-1.96687e-07
8.14567e-06
-3.49995e-08
-1.31124e-07
8.21917e-06
-6.2902e-08
-2.20591e-07
8.08375e-06
1.58716e-07
1.27267e-07
8.24037e-06
-1.40208e-07
-4.40196e-07
8.27128e-06
3.81774e-07
5.83383e-07
8.37634e-06
-3.22779e-07
-9.72019e-07
8.47531e-06
9.89887e-07
1.65771e-06
-1.22282e-06
-2.52239e-06
6.26115e-06
-1.45697e-07
5.95049e-06
6.435e-08
5.79166e-06
-1.55864e-07
5.83016e-06
1.33758e-07
5.48178e-06
-2.23888e-07
5.94437e-06
4.4303e-07
5.18749e-06
-5.82466e-07
6.73496e-06
1.28257e-06
-2.75013e-06
1.01277e-05
-2.96791e-08
-3.65796e-07
1.01208e-05
2.08049e-08
-2.96554e-07
1.02048e-05
-3.62048e-08
-4.83277e-07
1.00463e-05
1.72007e-07
1.02224e-05
-2.12443e-07
9.83454e-06
4.30289e-07
1.00562e-05
-6.34843e-07
9.33572e-06
1.01746e-06
-1.7566e-06
7.82308e-06
-1.29191e-07
-2.09816e-07
7.93837e-06
-3.67642e-08
-1.88847e-07
8.08912e-06
-1.92848e-07
8.19675e-06
1.30715e-07
8.32299e-06
-3.91498e-07
8.47441e-06
3.84406e-07
8.65136e-06
-9.58493e-07
8.57362e-06
1.25267e-06
-2.91195e-06
6.17648e-06
-1.22871e-07
6.19256e-06
6.07731e-06
6.25467e-06
6.04632e-06
6.53065e-06
5.99296e-06
7.06493e-06
8.27278e-06
-2.82174e-08
7.69857e-06
1.90373e-07
5.70026e-06
-4.45134e-08
)
;

boundaryField
{
    inlet
    {
        type            calculated;
        value           nonuniform 0();
    }
    outlet
    {
        type            calculated;
        value           nonuniform List<scalar> 9(2.13483e-05 1.59356e-05 1.62048e-05 1.01675e-05 8.22536e-06 4.36258e-06 9.8959e-06 9.50828e-06 4.3927e-06);
    }
    wall
    {
        type            calculated;
        value           uniform 0;
    }
    procBoundary1to0
    {
        type            processor;
        value           nonuniform List<scalar> 
12
(
-1.4022e-05
-1.27092e-05
-1.1262e-05
-1.04692e-05
-8.17001e-06
-6.37587e-06
-1.00281e-05
-7.71043e-06
-6.25861e-06
-8.55033e-06
-5.87336e-06
-4.99179e-06
)
;
    }
    procBoundary1to3
    {
        type            processor;
        value           nonuniform List<scalar> 
27
(
-1.53226e-08
6.90676e-09
3.41355e-08
5.10361e-09
-2.44715e-07
-1.02558e-07
-1.0178e-06
2.48489e-07
-2.99686e-06
4.29032e-08
8.96186e-08
3.20826e-08
8.43153e-08
2.01269e-08
5.00456e-09
1.94263e-08
-1.73168e-07
-1.58981e-07
-6.98863e-08
-2.11101e-08
-8.17494e-08
2.37166e-08
-1.80365e-07
6.08196e-08
-5.31116e-07
6.6802e-07
-1.99487e-06
)
;
    }
    procBoundary1to5
    {
        type            processor;
        value           nonuniform List<scalar> 
32
(
-2.25555e-07
-7.11526e-07
1.35461e-07
-1.07631e-06
1.0087e-06
-1.88942e-06
-2.14703e-07
6.09289e-08
-3.87376e-07
4.77842e-07
-8.25316e-07
1.50023e-06
-2.3017e-06
3.26162e-08
-1.51713e-07
6.34006e-08
-2.26674e-07
2.8229e-07
-4.7216e-07
7.9526e-07
-9.94993e-07
-6.00275e-08
8.72828e-08
7.09847e-06
7.32892e-08
4.3534e-08
-2.04203e-08
5.4929e-06
2.18617e-07
-9.73529e-09
4.82092e-06
3.48583e-09
)
;
    }
    procBoundary1to7
    {
        type            processor;
        value           uniform 1.2313e-12;
    }
}


// ************************************************************************* //
