/*--------------------------------*- C++ -*----------------------------------*\
| =========                 |                                                 |
| \\      /  F ield         | OpenFOAM: The Open Source CFD Toolbox           |
|  \\    /   O peration     | Version:  4.x                                   |
|   \\  /    A nd           | Web:      www.OpenFOAM.org                      |
|    \\/     M anipulation  |                                                 |
\*---------------------------------------------------------------------------*/
FoamFile
{
    version     2.0;
    format      ascii;
    class       volVectorField;
    location    "41";
    object      Urel;
}
// * * * * * * * * * * * * * * * * * * * * * * * * * * * * * * * * * * * * * //

dimensions      [0 1 -1 0 0 0 0];

internalField   nonuniform List<vector> 
87
(
(-0.0254622 1.76945e-05 0.000624499)
(-0.0268493 -2.33758e-05 0.00059369)
(-0.0259519 -7.54722e-05 0.000614527)
(-0.0273767 -7.61328e-05 0.000584571)
(-0.026116 -5.03511e-05 0.000741931)
(-0.0276597 2.14456e-05 0.000679858)
(-0.0254729 0.00025053 0.00124674)
(-0.0270684 0.000445288 0.00115881)
(-0.0217103 0.00127283 0.00292926)
(-0.0244144 0.000130144 0.000591889)
(-0.0258562 8.90929e-05 0.000547815)
(-0.0247816 7.39935e-05 0.000540814)
(-0.0262766 4.54387e-05 0.00048641)
(-0.0248258 0.000151719 0.000602436)
(-0.0264124 0.000124198 0.000501135)
(-0.0241111 0.000505934 0.00101485)
(-0.0256132 0.000435882 0.000913465)
(-0.020747 0.00166648 0.00256925)
(-0.0232878 6.14509e-05 0.000532091)
(-0.0247374 2.29986e-05 0.000476358)
(-0.0234827 8.44062e-07 0.000441995)
(-0.0249789 2.81096e-06 0.000355267)
(-0.0233927 8.51981e-05 0.000461749)
(-0.0249064 0.000131766 0.000324218)
(-0.0226676 0.000403448 0.000838083)
(-0.0240483 0.000465748 0.000696575)
(-0.0198111 0.00127896 0.00248717)
(-0.023453 3.16379e-05 0.000513548)
(-0.0249235 -1.55003e-05 0.00047021)
(-0.023682 -7.74848e-05 0.000459657)
(-0.0251741 -8.97322e-05 0.000417293)
(-0.0236004 -8.11629e-05 0.000503079)
(-0.0250829 -3.2434e-05 0.000435997)
(-0.0227685 0.000153432 0.000852413)
(-0.0239445 0.000323308 0.000760289)
(-0.0196739 0.000877867 0.00219112)
(-0.0220733 0.000111214 0.000471477)
(-0.0237523 6.88416e-05 0.000410225)
(-0.0221753 3.52993e-05 0.000377808)
(-0.0239447 -1.4469e-05 0.00030394)
(-0.0220548 7.12551e-05 0.000372863)
(-0.023841 5.79385e-06 0.00025484)
(-0.0213999 0.000326476 0.000643717)
(-0.0228002 0.000206158 0.00055093)
(-0.0190117 0.00128933 0.00197487)
(-0.0207291 5.37663e-05 0.000419223)
(-0.0225668 1.6192e-05 0.000335977)
(-0.0206659 1.08634e-05 0.000301968)
(-0.0226068 -1.12063e-05 0.000206229)
(-0.020509 5.65576e-05 0.000248984)
(-0.0223138 7.89155e-05 0.000134379)
(-0.0199592 0.000248535 0.000470357)
(-0.021198 0.000343082 0.000464212)
(-0.0183769 0.000834669 0.0020657)
(-0.0219376 4.50965e-05 0.000523743)
(-0.0233936 -1.68893e-05 0.00047682)
(-0.0219062 -7.61461e-05 0.00048744)
(-0.0234079 -0.000107598 0.000423383)
(-0.0215556 -5.8974e-05 0.000534203)
(-0.023067 -4.66466e-05 0.000363095)
(-0.020574 0.000182019 0.000755794)
(-0.0217798 0.000263653 0.000426268)
(-0.0180022 0.000823098 0.00170696)
(-0.0204586 0.000113371 0.000445741)
(-0.022192 4.52661e-05 0.000378211)
(-0.0204371 4.06364e-05 0.000362503)
(-0.0222399 -2.58617e-05 0.000266199)
(-0.0202453 9.23491e-05 0.000360174)
(-0.0220029 1.08787e-05 0.000186933)
(-0.0195912 0.000364429 0.000542072)
(-0.0209571 0.000209186 0.00026652)
(-0.017634 0.00128982 0.00149181)
(-0.0191388 7.2944e-05 0.000363128)
(-0.0209994 2.98709e-05 0.000271391)
(-0.0190604 2.88301e-05 0.000269861)
(-0.0209738 -1.00343e-05 0.000174794)
(-0.0189026 7.30058e-05 0.000224845)
(-0.020669 5.27208e-05 8.8163e-05)
(-0.0184056 0.00028579 0.000361746)
(-0.0196228 0.000221131 0.000204032)
(-0.0172015 0.0010561 0.00123737)
(-0.0206624 7.97519e-05 0.000307967)
(-0.0220503 -4.62409e-06 0.000234825)
(-0.0202625 -4.86624e-05 0.000199363)
(-0.019085 9.56641e-05 0.000258357)
(-0.0208737 8.14491e-07 0.000204049)
(-0.0179599 5.3192e-05 0.000208984)
)
;

boundaryField
{
    inlet
    {
        type            calculated;
        value           nonuniform 0();
    }
    outlet
    {
        type            calculated;
        value           nonuniform List<vector> 9((-0.01355 0.00395616 0.0120276) (-0.0101984 0.00919956 0.00890426) (-0.0103409 0.00425544 0.0115479) (-0.00672853 0.00037495 0.00671347) (-0.0055465 0.00629392 0.0053074) (-0.0085344 0.000448855 0.00962974) (-0.00648938 0.00128912 0.0100918) (-0.00618285 0.00835747 0.00793142) (-0.00873721 0.0074754 0.00489268));
    }
    wall
    {
        type            calculated;
        value           nonuniform List<vector> 
57
(
(9.37237e-09 7.73468e-09 2.75101e-08)
(2.17327e-09 -5.28604e-09 1.2257e-08)
(2.60526e-09 -6.44929e-09 6.28824e-09)
(-6.45046e-08 1.10932e-06 1.0655e-07)
(-3.68852e-10 -8.80851e-09 2.34563e-08)
(-2.30239e-10 -1.00577e-08 9.64138e-09)
(-1.35702e-08 9.9316e-10 1.73393e-08)
(-1.45897e-08 -7.56818e-09 8.49055e-09)
(-3.14779e-09 -3.32841e-09 6.00716e-09)
(-7.59824e-09 -7.44746e-10 1.5442e-09)
(-3.76806e-09 -2.79998e-09 1.04967e-09)
(-7.36477e-10 -2.5165e-09 2.50491e-09)
(-3.06367e-09 2.5954e-10 -1.2831e-11)
(-1.65469e-10 -4.38541e-09 -4.40558e-10)
(5.91781e-10 -2.77374e-09 -5.21169e-10)
(4.05276e-10 -3.44306e-09 -1.84502e-09)
(1.98966e-09 -1.41616e-09 -3.12884e-09)
(3.15105e-09 -2.57742e-09 -1.39448e-09)
(6.72156e-09 -4.09699e-09 -5.00853e-09)
(3.6293e-09 -3.97916e-09 -9.06419e-09)
(5.7501e-09 -3.19192e-09 -6.74408e-09)
(4.11514e-07 4.7809e-09 -2.91337e-08)
(5.20851e-09 -1.03611e-08 -1.38224e-08)
(5.61489e-09 -6.6981e-09 -1.67035e-08)
(2.13439e-07 -1.35777e-08 -4.41364e-08)
(-3.15704e-09 -2.40931e-08 -2.71154e-08)
(6.37363e-09 -1.20149e-09 -1.47508e-08)
(9.37237e-09 7.73468e-09 2.75101e-08)
(-6.90659e-09 5.11173e-09 1.84608e-08)
(-1.40035e-09 9.48638e-11 3.7229e-09)
(-1.19999e-10 7.89848e-11 2.36551e-09)
(-6.45046e-08 1.10932e-06 1.0655e-07)
(-2.38955e-10 3.28316e-09 4.28687e-08)
(-1.03039e-10 1.67756e-09 5.41933e-09)
(4.32091e-10 8.08815e-10 9.52635e-10)
(-1.35702e-08 9.9316e-10 1.73393e-08)
(2.25227e-09 1.60051e-09 1.56217e-08)
(2.14885e-10 1.41582e-09 7.39165e-09)
(6.32873e-10 5.30065e-10 2.04785e-09)
(-7.59824e-09 -7.44746e-10 1.5442e-09)
(1.78261e-09 -1.39319e-09 9.45191e-10)
(1.86965e-09 -4.41637e-10 1.35834e-09)
(-3.06367e-09 2.5954e-10 -1.2831e-11)
(6.34062e-10 -6.78185e-11 3.96868e-10)
(1.76788e-09 -4.1337e-10 1.6504e-10)
(4.05276e-10 -3.44306e-09 -1.84502e-09)
(1.24535e-09 -1.17794e-10 -1.50947e-09)
(1.94129e-09 -4.39428e-10 -1.21612e-09)
(6.72156e-09 -4.09699e-09 -5.00853e-09)
(3.11176e-09 -8.55027e-10 -3.78332e-09)
(1.99562e-09 2.55899e-10 -2.15592e-09)
(4.11514e-07 4.7809e-09 -2.91337e-08)
(3.70956e-09 -2.51636e-09 -8.96446e-09)
(3.44047e-10 -2.88785e-10 -2.97734e-09)
(2.13439e-07 -1.35777e-08 -4.41364e-08)
(1.52016e-09 -5.38049e-09 -1.53912e-08)
(1.66334e-09 -9.65287e-10 -6.33687e-09)
)
;
    }
    procBoundary1to0
    {
        type            processor;
        value           nonuniform List<vector> 
12
(
(-0.0261773 0.00012326 0.000703467)
(-0.0253108 0.000209788 0.0006787)
(-0.024372 0.000120968 0.000627568)
(-0.0245262 0.000134004 0.000599826)
(-0.0234783 0.000195036 0.000566656)
(-0.0224512 0.000100144 0.000505992)
(-0.0232146 0.000146472 0.000575904)
(-0.0220751 0.00018058 0.000513306)
(-0.0209913 0.0001162 0.00040471)
(-0.0221886 0.000163045 0.000378666)
(-0.0209967 0.000143826 0.000337705)
(-0.0199223 6.89635e-05 0.000268235)
)
;
    }
    procBoundary1to3
    {
        type            processor;
        value           nonuniform List<vector> 
27
(
(-0.0230184 5.55045e-05 0.000450533)
(-0.0244787 4.16601e-05 0.000389705)
(-0.0232016 5.29253e-05 0.000314508)
(-0.0246709 8.70202e-05 0.000217124)
(-0.0229969 0.000182089 0.000234711)
(-0.0243979 0.000236287 0.000103786)
(-0.0219293 0.000472521 0.000484139)
(-0.0231165 0.000431451 0.000439824)
(-0.0189166 0.00122496 0.001762)
(-0.020495 2.45256e-05 0.000403184)
(-0.0223254 4.84407e-06 0.000321956)
(-0.0204622 1.48809e-05 0.000270957)
(-0.022376 2.78814e-05 0.00014161)
(-0.0202512 6.3187e-05 0.000185375)
(-0.022077 0.000105197 4.80284e-07)
(-0.0195484 0.000166474 0.000362984)
(-0.0209582 0.000248627 0.000223937)
(-0.0177151 0.000360994 0.0017873)
(-0.0186869 4.43837e-05 0.000330201)
(-0.02061 2.38689e-05 0.000244498)
(-0.0185984 3.32364e-05 0.000215698)
(-0.0205575 3.59029e-05 0.000107163)
(-0.0184366 6.55717e-05 0.000141583)
(-0.0202293 7.31266e-05 -1.56705e-05)
(-0.0178994 0.000131144 0.000236032)
(-0.0191329 8.20705e-05 7.00196e-05)
(-0.0167349 0.000332842 0.00121372)
)
;
    }
    procBoundary1to5
    {
        type            processor;
        value           nonuniform List<vector> 
32
(
(-0.0216486 -0.000109286 0.000104129)
(-0.0195013 -2.77978e-05 7.99864e-05)
(-0.0207942 2.35747e-06 -7.37237e-05)
(-0.0183262 0.00020922 -5.17278e-05)
(-0.0190583 0.00035856 -0.000235454)
(-0.0164531 0.00074073 5.51757e-05)
(-0.0188283 -4.02791e-06 0.000143892)
(-0.0206593 -8.26861e-05 5.96837e-05)
(-0.0184908 9.53425e-06 2.82409e-05)
(-0.0201471 -1.79417e-05 -0.000134036)
(-0.0177972 0.000209116 -6.8409e-05)
(-0.0188814 0.000198076 -0.000312227)
(-0.0165349 0.000826506 0.000240383)
(-0.0198033 -7.61492e-06 0.000153348)
(-0.017837 9.15652e-06 0.000112552)
(-0.0196714 -2.44197e-05 3.56712e-05)
(-0.0176301 3.79861e-05 3.30211e-06)
(-0.0192841 6.87872e-05 -0.000127336)
(-0.0170734 0.000188239 -9.14285e-05)
(-0.0182274 0.000302463 -0.000228939)
(-0.0162586 0.00055576 7.84208e-05)
(-0.020639 0.00014704 7.57636e-05)
(-0.0220741 9.28426e-05 -1.51641e-05)
(-0.0216486 -0.000109286 0.000104129)
(-0.0188283 -4.02791e-06 0.000143892)
(-0.0204619 6.21895e-05 -7.93635e-05)
(-0.0190481 0.000140242 7.50299e-05)
(-0.0188283 -4.02791e-06 0.000143892)
(-0.0198033 -7.61492e-06 0.000153348)
(-0.0208257 7.32696e-05 1.37282e-05)
(-0.0198033 -7.61492e-06 0.000153348)
(-0.0178738 8.1938e-05 7.87773e-05)
)
;
    }
    procBoundary1to7
    {
        type            processor;
        value           uniform (-0.0176039 2.84793e-05 0.000200529);
    }
}


// ************************************************************************* //
