/*--------------------------------*- C++ -*----------------------------------*\
| =========                 |                                                 |
| \\      /  F ield         | OpenFOAM: The Open Source CFD Toolbox           |
|  \\    /   O peration     | Version:  4.x                                   |
|   \\  /    A nd           | Web:      www.OpenFOAM.org                      |
|    \\/     M anipulation  |                                                 |
\*---------------------------------------------------------------------------*/
FoamFile
{
    version     2.0;
    format      ascii;
    class       volScalarField;
    location    "0.5";
    object      nu;
}
// * * * * * * * * * * * * * * * * * * * * * * * * * * * * * * * * * * * * * //

dimensions      [0 2 -1 0 0 0 0];

internalField   nonuniform List<scalar> 
87
(
1.00079e-06
1.00058e-06
1.00046e-06
1.00026e-06
9.99846e-07
9.99269e-07
9.9925e-07
9.99342e-07
9.99512e-07
9.99858e-07
9.99551e-07
9.99239e-07
9.99146e-07
9.99196e-07
9.99231e-07
9.99369e-07
9.99503e-07
9.99766e-07
9.99748e-07
9.99451e-07
9.99186e-07
9.99111e-07
9.99126e-07
9.99154e-07
9.99187e-07
9.99307e-07
9.99672e-07
1.00019e-06
1.00002e-06
9.99868e-07
9.99707e-07
9.99542e-07
9.9932e-07
9.99202e-07
9.99236e-07
9.98812e-07
9.99547e-07
9.9924e-07
9.99055e-07
9.98939e-07
9.99079e-07
9.99173e-07
9.99265e-07
9.9932e-07
9.99338e-07
9.99422e-07
9.99235e-07
9.99146e-07
9.99201e-07
9.99163e-07
9.99198e-07
9.99246e-07
9.99286e-07
9.99401e-07
1.00001e-06
9.99873e-07
9.99725e-07
9.9954e-07
9.99566e-07
9.99507e-07
9.99407e-07
9.99353e-07
9.95987e-07
9.99471e-07
9.99239e-07
9.99022e-07
9.98375e-07
9.98969e-07
9.99139e-07
9.99301e-07
9.99483e-07
9.9898e-07
9.99391e-07
9.99224e-07
9.99257e-07
9.99871e-07
9.99359e-07
9.99366e-07
9.99498e-07
9.99582e-07
9.99338e-07
9.99958e-07
9.99857e-07
9.99756e-07
9.99491e-07
9.99389e-07
9.9951e-07
)
;

boundaryField
{
    inlet
    {
        type            calculated;
        value           nonuniform 0();
    }
    outlet
    {
        type            calculated;
        value           uniform 1e-06;
    }
    wall
    {
        type            calculated;
        value           nonuniform List<scalar> 
57
(
1.00079e-06
9.99858e-07
9.99748e-07
1.00058e-06
9.99551e-07
9.99451e-07
1.00046e-06
9.99239e-07
9.99186e-07
1.00026e-06
9.99146e-07
9.99111e-07
9.99846e-07
9.99196e-07
9.99126e-07
9.99269e-07
9.99231e-07
9.99154e-07
9.9925e-07
9.99369e-07
9.99187e-07
9.99342e-07
9.99503e-07
9.99307e-07
9.99512e-07
9.99766e-07
9.99672e-07
1.00079e-06
1.00019e-06
1.00001e-06
9.99958e-07
1.00058e-06
1.00002e-06
9.99873e-07
9.99857e-07
1.00046e-06
9.99868e-07
9.99725e-07
9.99756e-07
1.00026e-06
9.99707e-07
9.9954e-07
9.99846e-07
9.99542e-07
9.99566e-07
9.99269e-07
9.9932e-07
9.99507e-07
9.9925e-07
9.99202e-07
9.99407e-07
9.99342e-07
9.99236e-07
9.99353e-07
9.99512e-07
9.98812e-07
9.95987e-07
)
;
    }
    procBoundary1to0
    {
        type            processor;
        value           nonuniform List<scalar> 
12
(
1.00105e-06
1.00012e-06
1.00004e-06
1.00038e-06
9.99757e-07
9.99655e-07
1.00014e-06
9.99633e-07
9.99567e-07
1.00005e-06
9.99661e-07
9.9961e-07
)
;
    }
    procBoundary1to3
    {
        type            processor;
        value           nonuniform List<scalar> 
27
(
9.99733e-07
9.99456e-07
9.99188e-07
9.99101e-07
9.99149e-07
9.99245e-07
9.99372e-07
9.99528e-07
9.99856e-07
9.99663e-07
9.99408e-07
9.99193e-07
9.99129e-07
9.99133e-07
9.9917e-07
9.99223e-07
9.99299e-07
9.99542e-07
9.99798e-07
9.99601e-07
9.99375e-07
9.99294e-07
9.99121e-07
9.99095e-07
9.9918e-07
9.9949e-07
9.97868e-07
)
;
    }
    procBoundary1to5
    {
        type            processor;
        value           nonuniform List<scalar> 
32
(
9.99661e-07
9.99654e-07
9.99621e-07
9.99555e-07
9.99493e-07
9.98737e-07
9.99314e-07
9.99062e-07
9.99197e-07
9.99268e-07
9.99406e-07
9.99613e-07
9.99017e-07
9.99361e-07
9.9923e-07
9.99214e-07
9.99237e-07
9.9938e-07
9.9956e-07
9.99757e-07
9.99666e-07
9.99976e-07
9.99915e-07
9.99661e-07
9.99314e-07
9.99867e-07
9.99497e-07
9.99314e-07
9.99361e-07
9.99359e-07
9.99361e-07
9.99527e-07
)
;
    }
    procBoundary1to7
    {
        type            processor;
        value           uniform 9.99674e-07;
    }
}


// ************************************************************************* //
