/*--------------------------------*- C++ -*----------------------------------*\
| =========                 |                                                 |
| \\      /  F ield         | OpenFOAM: The Open Source CFD Toolbox           |
|  \\    /   O peration     | Version:  4.x                                   |
|   \\  /    A nd           | Web:      www.OpenFOAM.org                      |
|    \\/     M anipulation  |                                                 |
\*---------------------------------------------------------------------------*/
FoamFile
{
    version     2.0;
    format      ascii;
    class       volScalarField;
    location    "0.5";
    object      partTemp;
}
// * * * * * * * * * * * * * * * * * * * * * * * * * * * * * * * * * * * * * //

dimensions      [0 0 0 1 0 0 0];

internalField   nonuniform List<scalar> 
87
(
300.012
300.01
300.012
300.011
300.009
300.005
299.989
299.966
299.955
300.016
300.018
300.019
300.019
300.013
300.002
299.978
299.955
299.945
300.019
300.021
300.023
300.023
300.014
300.001
299.972
299.949
299.939
300.01
300.013
300.013
300.014
300.013
300.006
299.993
299.971
299.955
300.015
300.02
300.023
300.022
300.017
300.004
299.983
299.954
299.926
300.02
300.025
300.029
300.027
300.018
300.003
299.979
299.948
299.922
300.006
300.009
300.013
300.014
300.014
300.008
299.998
299.976
299.949
300.013
300.018
300.024
300.024
300.021
300.008
299.982
299.953
299.921
300.017
300.027
300.031
300.035
300.028
300.007
299.973
299.947
299.913
300.003
300.005
300.009
300.008
300.016
300.011
)
;

boundaryField
{
    inlet
    {
        type            zeroGradient;
    }
    outlet
    {
        type            zeroGradient;
    }
    wall
    {
        type            zeroGradient;
    }
    procBoundary1to0
    {
        type            processor;
        value           nonuniform List<scalar> 
12
(
300.01
300.014
300.014
300.008
300.013
300.015
300.003
300.007
300.01
299.999
300.003
300.005
)
;
    }
    procBoundary1to3
    {
        type            processor;
        value           nonuniform List<scalar> 
27
(
300.016
300.021
300.025
300.025
300.018
300.002
299.979
299.95
299.938
300.019
300.027
300.031
300.032
300.023
300.008
299.981
299.947
299.93
300.016
300.026
300.034
300.036
300.03
300.018
299.986
299.947
299.923
)
;
    }
    procBoundary1to5
    {
        type            processor;
        value           nonuniform List<scalar> 
32
(
300.012
300.012
300.008
299.998
299.978
299.953
300.022
300.022
300.021
300.009
299.992
299.955
299.924
300.02
300.028
300.03
300.026
300.01
299.982
299.944
299.905
300
300.001
300.012
300.022
300.007
300.002
300.022
300.02
300.008
300.02
300.005
)
;
    }
    procBoundary1to7
    {
        type            processor;
        value           uniform 300.011;
    }
}


// ************************************************************************* //
