/*--------------------------------*- C++ -*----------------------------------*\
| =========                 |                                                 |
| \\      /  F ield         | OpenFOAM: The Open Source CFD Toolbox           |
|  \\    /   O peration     | Version:  4.x                                   |
|   \\  /    A nd           | Web:      www.OpenFOAM.org                      |
|    \\/     M anipulation  |                                                 |
\*---------------------------------------------------------------------------*/
FoamFile
{
    version     2.0;
    format      ascii;
    class       volScalarField;
    location    "0.5";
    object      QPartFluid;
}
// * * * * * * * * * * * * * * * * * * * * * * * * * * * * * * * * * * * * * //

dimensions      [1 -1 -3 0 0 0 0];

internalField   nonuniform List<scalar> 
87
(
5.02462e+09
9.2341e+09
5.19276e+09
9.8979e+09
5.36901e+09
5.29624e+09
7.20645e+09
6.16163e+09
5.32543e+09
6.16754e+09
6.82756e+09
8.87685e+09
7.25155e+09
6.96439e+09
1.00781e+10
1.27833e+10
9.48309e+09
6.98853e+09
6.7302e+09
1.16047e+10
8.03536e+09
1.78274e+10
1.18519e+10
1.14874e+10
1.14901e+10
1.05333e+10
7.51627e+09
1.02032e+10
7.53292e+09
9.43353e+09
1.14199e+10
9.61059e+09
1.07085e+10
1.20688e+10
9.87919e+09
9.02351e+09
1.14383e+10
9.24733e+09
1.20532e+10
1.21816e+10
1.1936e+10
1.06212e+10
1.36214e+10
1.38442e+10
6.53503e+09
1.66815e+10
1.5632e+10
1.53838e+10
1.54936e+10
1.51776e+10
1.93409e+10
1.95135e+10
2.02414e+10
7.08713e+09
1.18266e+10
1.14728e+10
1.41473e+10
1.74041e+10
1.12788e+10
1.90196e+10
1.68505e+10
1.48462e+10
5.0616e+09
1.21404e+10
1.14966e+10
1.18924e+10
1.14655e+10
1.11839e+10
1.14033e+10
1.10688e+10
1.15697e+10
5.96379e+09
1.58734e+10
1.29893e+10
1.28501e+10
1.95517e+10
1.91779e+10
1.90023e+10
1.39253e+10
1.28816e+10
4.15333e+09
1.1731e+10
1.01112e+10
1.70423e+10
1.10694e+10
1.62775e+10
1.01524e+10
)
;

boundaryField
{
    inlet
    {
        type            calculated;
        value           nonuniform 0();
    }
    outlet
    {
        type            calculated;
        value           uniform 0;
    }
    wall
    {
        type            calculated;
        value           uniform 0;
    }
    procBoundary1to0
    {
        type            processor;
        value           nonuniform List<scalar> 
12
(
2.43044e+09
7.50919e+09
1.19583e+10
9.32931e+09
1.15861e+10
1.00581e+10
8.12641e+09
1.00566e+10
8.43347e+09
1.0058e+10
8.5415e+09
1.31414e+10
)
;
    }
    procBoundary1to3
    {
        type            processor;
        value           nonuniform List<scalar> 
27
(
9.35381e+09
5.81436e+09
1.43879e+10
6.98363e+09
1.10752e+10
7.77677e+09
1.14915e+10
6.20175e+09
6.62884e+09
1.39424e+10
1.34658e+10
2.17383e+10
2.02722e+10
2.22468e+10
1.62431e+10
1.41462e+10
1.27715e+10
1.26054e+10
1.54762e+10
1.41601e+10
1.61629e+10
1.77536e+10
1.34915e+10
1.07493e+10
1.67899e+10
9.85168e+09
7.64643e+09
)
;
    }
    procBoundary1to5
    {
        type            processor;
        value           nonuniform List<scalar> 
32
(
1.66954e+10
1.71745e+10
1.7419e+10
1.56931e+10
1.798e+10
1.19886e+10
9.25402e+09
8.93129e+09
1.08303e+10
1.23466e+10
1.34105e+10
1.62579e+10
9.54107e+09
1.51746e+10
1.31967e+10
1.52051e+10
1.16832e+10
9.20378e+09
1.34323e+10
8.5176e+09
8.24257e+09
1.18398e+10
1.05483e+10
1.66954e+10
9.25402e+09
1.66824e+10
1.10032e+10
9.25402e+09
1.51746e+10
1.00138e+10
1.51746e+10
1.46967e+10
)
;
    }
    procBoundary1to7
    {
        type            processor;
        value           uniform 1.39263e+10;
    }
}


// ************************************************************************* //
