/*--------------------------------*- C++ -*----------------------------------*\
| =========                 |                                                 |
| \\      /  F ield         | OpenFOAM: The Open Source CFD Toolbox           |
|  \\    /   O peration     | Version:  4.x                                   |
|   \\  /    A nd           | Web:      www.OpenFOAM.org                      |
|    \\/     M anipulation  |                                                 |
\*---------------------------------------------------------------------------*/
FoamFile
{
    version     2.0;
    format      ascii;
    class       volScalarField;
    location    "0.5";
    object      rho;
}
// * * * * * * * * * * * * * * * * * * * * * * * * * * * * * * * * * * * * * //

dimensions      [1 -3 0 0 0 0 0];

internalField   nonuniform List<scalar> 
87
(
6694.74
6696.11
6696.92
6698.27
6701.03
6704.9
6705.03
6704.41
6703.27
6700.95
6703.01
6705.1
6705.73
6705.39
6705.16
6704.23
6703.33
6701.57
6701.69
6703.68
6705.45
6705.96
6705.86
6705.67
6705.45
6704.65
6702.2
6698.72
6699.89
6700.89
6701.97
6703.07
6704.56
6705.35
6705.13
6707.97
6703.04
6705.1
6706.34
6707.12
6706.17
6705.54
6704.93
6704.56
6704.44
6703.88
6705.13
6705.73
6705.36
6705.61
6705.38
6705.05
6704.79
6704.01
6699.91
6700.85
6701.84
6703.08
6702.91
6703.3
6703.98
6704.34
6726.99
6703.54
6705.11
6706.56
6710.9
6706.92
6705.77
6704.69
6703.47
6706.84
6704.08
6705.2
6704.98
6700.86
6704.3
6704.25
6703.37
6702.8
6704.44
6700.28
6700.96
6701.64
6703.41
6704.09
6703.28
)
;

boundaryField
{
    inlet
    {
        type            calculated;
        value           nonuniform 0();
    }
    outlet
    {
        type            calculated;
        value           uniform 6700;
    }
    wall
    {
        type            calculated;
        value           nonuniform List<scalar> 
57
(
6694.74
6700.95
6701.69
6696.11
6703.01
6703.68
6696.92
6705.1
6705.45
6698.27
6705.73
6705.96
6701.03
6705.39
6705.86
6704.9
6705.16
6705.67
6705.03
6704.23
6705.45
6704.41
6703.33
6704.65
6703.27
6701.57
6702.2
6694.74
6698.72
6699.91
6700.28
6696.11
6699.89
6700.85
6700.96
6696.92
6700.89
6701.84
6701.64
6698.27
6701.97
6703.08
6701.03
6703.07
6702.91
6704.9
6704.56
6703.3
6705.03
6705.35
6703.98
6704.41
6705.13
6704.34
6703.27
6707.97
6726.99
)
;
    }
    procBoundary1to0
    {
        type            processor;
        value           nonuniform List<scalar> 
12
(
6692.95
6699.22
6699.76
6697.45
6701.63
6702.31
6699.04
6702.46
6702.9
6699.64
6702.27
6702.61
)
;
    }
    procBoundary1to3
    {
        type            processor;
        value           nonuniform List<scalar> 
27
(
6701.79
6703.64
6705.44
6706.03
6705.71
6705.06
6704.21
6703.17
6700.97
6702.26
6703.97
6705.41
6705.84
6705.81
6705.56
6705.21
6704.7
6703.07
6701.35
6702.67
6704.19
6704.73
6705.89
6706.07
6705.5
6703.42
6714.32
)
;
    }
    procBoundary1to5
    {
        type            processor;
        value           nonuniform List<scalar> 
32
(
6702.28
6702.32
6702.54
6702.98
6703.4
6708.48
6704.6
6706.29
6705.38
6704.91
6703.99
6702.59
6706.59
6704.28
6705.16
6705.27
6705.11
6704.16
6702.95
6701.63
6702.24
6700.16
6700.57
6702.28
6704.6
6700.89
6703.37
6704.6
6704.28
6704.29
6704.28
6703.17
)
;
    }
    procBoundary1to7
    {
        type            processor;
        value           uniform 6702.19;
    }
}


// ************************************************************************* //
