/*--------------------------------*- C++ -*----------------------------------*\
| =========                 |                                                 |
| \\      /  F ield         | OpenFOAM: The Open Source CFD Toolbox           |
|  \\    /   O peration     | Version:  4.x                                   |
|   \\  /    A nd           | Web:      www.OpenFOAM.org                      |
|    \\/     M anipulation  |                                                 |
\*---------------------------------------------------------------------------*/
FoamFile
{
    version     2.0;
    format      ascii;
    class       volScalarField;
    location    "38";
    object      KslNext;
}
// * * * * * * * * * * * * * * * * * * * * * * * * * * * * * * * * * * * * * //

dimensions      [1 -3 -1 0 0 0 0];

internalField   nonuniform List<scalar> 
108
(
3382.75
7941.73
3388.25
7586.21
3369.55
7284.38
3305.06
7124.39
3180.11
3474.54
9911.23
3653.02
12705.6
3704.17
15470.9
3681.15
19378.7
3607.36
3510.9
11128.6
3761.71
17102.9
3817.2
27208.5
3789.73
65754.4
3729.68
3493.47
11288.1
3796.48
19240.1
3887.94
47529.1
3904.06
2.99138e+06
3844.98
3364.37
7846.37
3354.78
7540.16
3360.25
7268.14
3297.92
7353.24
3256.24
3446.47
8976.81
3538.7
9881.99
3574.36
10921.8
3564.5
12804.3
3534.97
3461.51
10209
3680.27
14019.8
3757.51
19996.3
3731
32203.6
3684.74
3494.99
10485.2
3705.43
14708.8
3777.95
20860.6
3753.43
29854.8
3663.51
3319.11
6962.53
3167.9
5968.8
3103.3
5545.99
3029.38
5231.89
2901.12
3371.67
7714.08
3353.8
7073.59
3287.61
6662.17
3195.25
6354.16
3078.09
3422.95
8293.27
3453.17
8188.84
3424.21
7927.75
3322.54
7553.54
3209.53
3465.8
8468.46
3494.14
8589.79
3457.59
8222.48
3325.82
7580.89
3202.83
)
;

boundaryField
{
    inlet
    {
        type            zeroGradient;
    }
    outlet
    {
        type            zeroGradient;
    }
    wall
    {
        type            zeroGradient;
    }
    procBoundary4to0
    {
        type            processor;
        value           uniform 0;
    }
    procBoundary4to5
    {
        type            processor;
        value           uniform 0;
    }
    procBoundary4to6
    {
        type            processor;
        value           uniform 0;
    }
}


// ************************************************************************* //
