/*--------------------------------*- C++ -*----------------------------------*\
| =========                 |                                                 |
| \\      /  F ield         | OpenFOAM: The Open Source CFD Toolbox           |
|  \\    /   O peration     | Version:  4.x                                   |
|   \\  /    A nd           | Web:      www.OpenFOAM.org                      |
|    \\/     M anipulation  |                                                 |
\*---------------------------------------------------------------------------*/
FoamFile
{
    version     2.0;
    format      ascii;
    class       volScalarField;
    location    "38";
    object      particleRelTemp;
}
// * * * * * * * * * * * * * * * * * * * * * * * * * * * * * * * * * * * * * //

dimensions      [0 0 0 0 0 0 0];

internalField   nonuniform List<scalar> 
108
(
-2.7926e-10
-2.66671e-10
-2.4668e-10
-2.21779e-10
-1.98839e-10
-1.70825e-10
-1.27534e-10
-8.67972e-11
-5.37722e-11
-2.77369e-10
-2.62151e-10
-2.3707e-10
-2.1e-10
-1.75623e-10
-1.40079e-10
-9.91902e-11
-5.48028e-11
-1.33027e-11
-2.76541e-10
-2.56659e-10
-2.25948e-10
-1.97652e-10
-1.58101e-10
-1.18132e-10
-6.74848e-11
-2.14998e-11
2.36092e-11
-2.76356e-10
-2.57095e-10
-2.26598e-10
-1.95615e-10
-1.4847e-10
-1.05367e-10
-5.08298e-11
-4.26006e-12
4.28284e-11
-2.78901e-10
-2.67954e-10
-2.50293e-10
-2.29631e-10
-2.10401e-10
-1.87183e-10
-1.57767e-10
-1.09288e-10
-7.96034e-11
-2.76943e-10
-2.63148e-10
-2.44553e-10
-2.1785e-10
-1.88339e-10
-1.58748e-10
-1.19008e-10
-8.9995e-11
-4.34534e-11
-2.80098e-10
-2.60324e-10
-2.36887e-10
-2.11155e-10
-1.73441e-10
-1.30191e-10
-8.97976e-11
-4.93618e-11
-1.10336e-11
-2.76969e-10
-2.60797e-10
-2.32471e-10
-2.0745e-10
-1.66518e-10
-1.22931e-10
-8.34726e-11
-3.56213e-11
7.36771e-12
-2.83255e-10
-2.70421e-10
-2.57074e-10
-2.38639e-10
-2.23438e-10
-1.98937e-10
-1.70883e-10
-1.39754e-10
-1.17737e-10
-2.80399e-10
-2.67688e-10
-2.46021e-10
-2.31702e-10
-2.06272e-10
-1.76003e-10
-1.47155e-10
-1.14348e-10
-8.11655e-11
-2.79331e-10
-2.6269e-10
-2.41187e-10
-2.18918e-10
-1.93771e-10
-1.49313e-10
-1.21857e-10
-8.45219e-11
-4.85815e-11
-2.77445e-10
-2.63157e-10
-2.4261e-10
-2.12884e-10
-1.84506e-10
-1.49818e-10
-1.1059e-10
-6.91e-11
-3.76999e-11
)
;

boundaryField
{
    inlet
    {
        type            calculated;
        value           nonuniform List<scalar> 
12
(
-2.7926e-10
-2.77369e-10
-2.76541e-10
-2.76356e-10
-2.78901e-10
-2.76943e-10
-2.80098e-10
-2.76969e-10
-2.83255e-10
-2.80399e-10
-2.79331e-10
-2.77445e-10
)
;
    }
    outlet
    {
        type            calculated;
        value           nonuniform 0();
    }
    wall
    {
        type            calculated;
        value           nonuniform List<scalar> 
63
(
-2.83255e-10
-2.80399e-10
-2.79331e-10
-2.77445e-10
-2.70421e-10
-2.67688e-10
-2.6269e-10
-2.63157e-10
-2.57074e-10
-2.46021e-10
-2.41187e-10
-2.4261e-10
-2.38639e-10
-2.31702e-10
-2.18918e-10
-2.12884e-10
-2.23438e-10
-2.06272e-10
-1.93771e-10
-1.84506e-10
-1.98937e-10
-1.76003e-10
-1.49313e-10
-1.49818e-10
-1.70883e-10
-1.47155e-10
-1.21857e-10
-1.1059e-10
-1.39754e-10
-1.14348e-10
-8.45219e-11
-6.91e-11
-1.17737e-10
-8.11655e-11
-4.85815e-11
-3.76999e-11
-2.7926e-10
-2.78901e-10
-2.83255e-10
-2.66671e-10
-2.67954e-10
-2.70421e-10
-2.4668e-10
-2.50293e-10
-2.57074e-10
-2.21779e-10
-2.29631e-10
-2.38639e-10
-1.98839e-10
-2.10401e-10
-2.23438e-10
-1.70825e-10
-1.87183e-10
-1.98937e-10
-1.27534e-10
-1.57767e-10
-1.70883e-10
-8.67972e-11
-1.09288e-10
-1.39754e-10
-5.37722e-11
-7.96034e-11
-1.17737e-10
)
;
    }
    procBoundary4to0
    {
        type            processor;
        value           nonuniform List<scalar> 
36
(
-2.80969e-10
-2.61731e-10
-2.44246e-10
-2.17654e-10
-1.88466e-10
-1.53821e-10
-1.28777e-10
-8.20637e-11
-5.40117e-11
-2.77923e-10
-2.60384e-10
-2.37409e-10
-2.0448e-10
-1.69156e-10
-1.2767e-10
-8.3815e-11
-4.87406e-11
-4.64036e-12
-2.70327e-10
-2.53077e-10
-2.31109e-10
-1.88428e-10
-1.54744e-10
-9.82807e-11
-5.28051e-11
-6.63123e-12
2.64717e-11
-2.74861e-10
-2.55842e-10
-2.26897e-10
-1.88056e-10
-1.52805e-10
-1.01845e-10
-3.74054e-11
-1.94392e-12
4.37344e-11
)
;
    }
    procBoundary4to5
    {
        type            processor;
        value           nonuniform List<scalar> 
12
(
-1.32382e-11
2.1948e-11
7.51491e-11
8.94556e-11
-3.99837e-11
2.62958e-12
4.7497e-11
3.66655e-11
-8.35385e-11
-4.44604e-11
-8.06339e-12
8.74841e-13
)
;
    }
    procBoundary4to6
    {
        type            processor;
        value           nonuniform List<scalar> 
27
(
-2.7402e-10
-2.54426e-10
-2.25675e-10
-1.89568e-10
-1.50283e-10
-1.10548e-10
-7.58261e-11
-3.00946e-11
2.9966e-11
-2.77146e-10
-2.57541e-10
-2.36105e-10
-2.05324e-10
-1.72751e-10
-1.35273e-10
-9.70172e-11
-5.44473e-11
-9.17053e-12
-2.78853e-10
-2.6545e-10
-2.44645e-10
-2.18329e-10
-1.92218e-10
-1.5197e-10
-1.18498e-10
-8.53812e-11
-6.80445e-11
)
;
    }
}


// ************************************************************************* //
