/*--------------------------------*- C++ -*----------------------------------*\
| =========                 |                                                 |
| \\      /  F ield         | OpenFOAM: The Open Source CFD Toolbox           |
|  \\    /   O peration     | Version:  4.x                                   |
|   \\  /    A nd           | Web:      www.OpenFOAM.org                      |
|    \\/     M anipulation  |                                                 |
\*---------------------------------------------------------------------------*/
FoamFile
{
    version     2.0;
    format      ascii;
    class       volScalarField;
    location    "59";
    object      Qsource;
}
// * * * * * * * * * * * * * * * * * * * * * * * * * * * * * * * * * * * * * //

dimensions      [1 -1 -3 0 0 0 0];

internalField   nonuniform List<scalar> 
132
(
1.02025e+10
9.19852e+09
6.50309e+09
8.00338e+09
1.14407e+10
1.25744e+10
8.02555e+09
6.55518e+09
6.16757e+09
7.51052e+09
1.14728e+10
7.46728e+09
8.19483e+09
8.39982e+09
6.96765e+09
7.88581e+09
7.77453e+09
6.75989e+09
5.35826e+09
9.47961e+09
7.00377e+09
9.03958e+09
8.44587e+09
1.05829e+10
8.67511e+09
9.20247e+09
6.9405e+09
7.57948e+09
8.46237e+09
9.48979e+09
6.92799e+09
8.41185e+09
9.02956e+09
8.4134e+09
8.06089e+09
3.98587e+09
6.56306e+09
8.6471e+09
6.68649e+09
8.21479e+09
8.8219e+09
9.88128e+09
6.04787e+09
3.8593e+09
1.01063e+10
7.35001e+09
8.88497e+09
8.67805e+09
8.33578e+09
5.71676e+09
9.07833e+09
4.60126e+09
6.02325e+09
1.01414e+10
7.5197e+09
7.31522e+09
8.21504e+09
1.05187e+10
9.54531e+09
8.35781e+09
6.17771e+09
6.8446e+09
9.38333e+09
5.8565e+09
8.71734e+09
6.5639e+09
7.25073e+09
5.3907e+09
8.90996e+09
4.12314e+09
5.04023e+09
7.30249e+09
8.23153e+09
7.67705e+09
4.65152e+09
8.5731e+09
9.15969e+09
7.08649e+09
6.53194e+09
9.16337e+09
8.85785e+09
7.86326e+09
1.07896e+10
6.91082e+09
8.2261e+09
9.53873e+09
8.73036e+09
9.09471e+09
9.42288e+09
1.0076e+10
9.08364e+09
9.54012e+09
6.98536e+09
6.54675e+09
8.22971e+09
7.71525e+09
9.06272e+09
6.98139e+09
7.89936e+09
8.74231e+09
9.55088e+09
5.62557e+09
6.30497e+09
9.15841e+09
5.28219e+09
7.64699e+09
7.81876e+09
7.79983e+09
9.41962e+09
5.35469e+09
5.67017e+09
6.99786e+09
8.31604e+09
4.38393e+09
6.82892e+09
7.69002e+09
6.82361e+09
8.70578e+09
7.79279e+09
8.11771e+09
7.95591e+09
8.72501e+09
6.24916e+09
7.24166e+09
1.01353e+10
7.04279e+09
9.01019e+09
8.45272e+09
8.86185e+09
7.621e+09
8.88279e+09
4.82606e+09
)
;

boundaryField
{
    inlet
    {
        type            calculated;
        value           nonuniform 0();
    }
    outlet
    {
        type            calculated;
        value           uniform 0;
    }
    wall
    {
        type            calculated;
        value           uniform 0;
    }
    procBoundary7to0
    {
        type            processor;
        value           uniform 2.6259e+09;
    }
    procBoundary7to1
    {
        type            processor;
        value           uniform 5.90278e+09;
    }
    procBoundary7to3
    {
        type            processor;
        value           nonuniform List<scalar> 
36
(
8.28083e+09
1.10451e+10
9.3052e+09
1.04165e+10
6.66601e+09
7.90109e+09
9.22745e+09
8.51151e+09
7.05866e+09
9.55817e+09
6.1361e+09
8.16975e+09
5.02583e+09
4.38585e+09
9.43284e+09
7.63349e+09
1.0576e+10
5.1365e+09
6.0256e+09
1.03083e+10
9.18094e+09
7.26831e+09
7.38129e+09
9.97592e+09
8.09227e+09
9.30078e+09
5.11123e+09
9.17192e+09
5.74549e+09
6.16024e+09
7.84433e+09
6.75656e+09
9.44748e+09
6.55139e+09
1.05109e+10
7.80518e+09
)
;
    }
    procBoundary7to5
    {
        type            processor;
        value           nonuniform List<scalar> 
44
(
9.96092e+09
6.15479e+09
8.72328e+09
5.89175e+09
5.31982e+09
7.14774e+09
6.26266e+09
6.66057e+09
1.03772e+10
5.08009e+09
7.29968e+09
9.11859e+09
6.18971e+09
8.42954e+09
7.61565e+09
8.11406e+09
4.48152e+09
1.03772e+10
5.08009e+09
5.08009e+09
9.58151e+09
1.00025e+10
1.13731e+10
9.26044e+09
9.00899e+09
1.09655e+10
8.17243e+09
5.22809e+09
1.17573e+10
9.58151e+09
1.00025e+10
1.00025e+10
1.08654e+10
9.50764e+09
7.41061e+09
9.22074e+09
6.7434e+09
7.6671e+09
7.37843e+09
7.80183e+09
7.66758e+09
1.08654e+10
9.50764e+09
9.50764e+09
)
;
    }
    procBoundary7to6
    {
        type            processor;
        value           nonuniform List<scalar> 
12
(
8.12295e+09
8.97796e+09
6.52542e+09
9.9708e+09
9.38943e+09
9.54587e+09
9.57419e+09
9.99729e+09
7.75365e+09
5.36119e+09
9.35638e+09
9.01446e+09
)
;
    }
}


// ************************************************************************* //
