/*--------------------------------*- C++ -*----------------------------------*\
| =========                 |                                                 |
| \\      /  F ield         | OpenFOAM: The Open Source CFD Toolbox           |
|  \\    /   O peration     | Version:  4.x                                   |
|   \\  /    A nd           | Web:      www.OpenFOAM.org                      |
|    \\/     M anipulation  |                                                 |
\*---------------------------------------------------------------------------*/
FoamFile
{
    version     2.0;
    format      ascii;
    class       volScalarField;
    location    "59";
    object      QWallFluid;
}
// * * * * * * * * * * * * * * * * * * * * * * * * * * * * * * * * * * * * * //

dimensions      [1 -1 -3 0 0 0 0];

internalField   nonuniform List<scalar> 
132
(
0
0
0
0
0
0
0
0
0
0
0
0
0
0
0
0
0
0
0
0
0
0
0
0
0
0
0
4.98267e+08
9.17126e+08
4.87159e+08
9.39964e+08
4.58174e+08
9.61599e+08
3.878e+08
1.00619e+09
3.46456e+08
0
0
0
0
0
0
0
0
0
0
0
0
0
0
0
0
0
0
0
0
0
0
0
0
0
2.76636e+08
7.9161e+08
1.49881e+08
7.60888e+08
5216.83
6.94868e+08
4875.83
5.69913e+08
1.1331e+08
0
0
0
0
0
0
0
0
0
0
0
0
0
0
0
0
0
0
0
0
0
0
0
4.95813e+08
8.88422e+08
4.8487e+08
9.09351e+08
4.66316e+08
9.60728e+08
4.19521e+08
1.07611e+09
3.53476e+08
3.9194e+08
1.03949e+09
3.90317e+08
3.60594e+08
8.22749e+08
3.1625e+08
8.10613e+08
2.66145e+08
7.90191e+08
1.93229e+08
7.34902e+08
1.443e+08
4.75118e+08
8.77511e+08
4.56088e+08
8.85203e+08
4.14507e+08
8.99242e+08
3.50369e+08
9.34382e+08
2.45603e+08
1.15094e+09
1.82983e+09
1.12431e+09
1.82788e+09
1.07396e+09
1.8e+09
1.02862e+09
1.70602e+09
1.0987e+09
)
;

boundaryField
{
    inlet
    {
        type            calculated;
        value           nonuniform 0();
    }
    outlet
    {
        type            calculated;
        value           uniform 0;
    }
    wall
    {
        type            calculated;
        value           uniform 0;
    }
    procBoundary7to0
    {
        type            processor;
        value           uniform 0;
    }
    procBoundary7to1
    {
        type            processor;
        value           uniform 0;
    }
    procBoundary7to3
    {
        type            processor;
        value           nonuniform List<scalar> 
36
(
0
0
0
0
0
0
0
0
0
0
0
0
0
0
0
0
0
0
0
0
0
0
0
0
0
0
0
4.35867e+08
8.86232e+08
4.04767e+08
8.91877e+08
3.53542e+08
9.11664e+08
2.97396e+08
1.00587e+09
2.98797e+08
)
;
    }
    procBoundary7to5
    {
        type            processor;
        value           nonuniform List<scalar> 
44
(
0
0
0
0
0
0
0
0
0
0
0
0
0
0
0
0
0
0
0
0
0
0
0
0
0
0
0
0
0
0
0
0
4.06584e+08
9.41064e+08
4.01729e+08
1.04751e+09
3.66322e+08
4.42246e+08
8.76768e+08
4.30908e+08
8.99666e+08
4.06584e+08
9.41064e+08
9.41064e+08
)
;
    }
    procBoundary7to6
    {
        type            processor;
        value           nonuniform List<scalar> 
12
(
0
0
8.95473e+08
0
0
8.1118e+08
0
0
8.74758e+08
8.26162e+08
8.64276e+08
1.82318e+09
)
;
    }
}


// ************************************************************************* //
