/*--------------------------------*- C++ -*----------------------------------*\
| =========                 |                                                 |
| \\      /  F ield         | OpenFOAM: The Open Source CFD Toolbox           |
|  \\    /   O peration     | Version:  4.x                                   |
|   \\  /    A nd           | Web:      www.OpenFOAM.org                      |
|    \\/     M anipulation  |                                                 |
\*---------------------------------------------------------------------------*/
FoamFile
{
    version     2.0;
    format      ascii;
    class       volVectorField;
    location    "59";
    object      Us;
}
// * * * * * * * * * * * * * * * * * * * * * * * * * * * * * * * * * * * * * //

dimensions      [0 1 -1 0 0 0 0];

internalField   nonuniform List<vector> 
132
(
(2.95544e-10 -1.89056e-10 2.1374e-10)
(1.96696e-10 -1.60321e-10 4.45816e-10)
(-2.92681e-10 -2.93539e-10 7.92999e-10)
(-7.73607e-10 -3.04045e-10 3.71945e-10)
(-5.72798e-10 -2.70226e-11 3.13054e-10)
(-1.3658e-10 1.41001e-10 2.66938e-10)
(-1.31425e-10 1.39222e-10 1.21067e-10)
(2.82408e-11 1.84633e-10 9.78221e-11)
(2.42616e-10 9.88842e-11 2.09512e-10)
(1.72537e-10 -1.37389e-10 6.97553e-11)
(3.33741e-10 -8.3345e-11 3.52194e-10)
(-3.35283e-10 -3.36263e-10 8.7589e-11)
(-8.03576e-10 -1.26338e-10 4.07098e-10)
(-3.64623e-10 -1.23447e-11 3.74098e-10)
(-1.99169e-10 6.96167e-11 3.91738e-10)
(1.83218e-11 8.75687e-11 3.27677e-10)
(8.64456e-11 1.07665e-10 3.97656e-10)
(1.99197e-10 1.47697e-10 2.42016e-10)
(1.82889e-10 -8.23393e-11 8.40571e-11)
(6.18694e-11 8.60472e-11 3.92212e-10)
(-3.72381e-10 1.3173e-10 4.88945e-10)
(-6.45866e-10 1.73747e-10 4.63103e-10)
(-5.20388e-10 6.05382e-12 3.70965e-10)
(-2.68325e-10 2.27749e-11 3.68747e-10)
(-1.77124e-10 6.47914e-11 2.01372e-10)
(6.65615e-11 8.42151e-11 9.85817e-11)
(9.06422e-10 4.78365e-10 2.50198e-11)
(2.0981e-10 2.20934e-11 1.33984e-11)
(3.74161e-10 9.74733e-11 1.20281e-10)
(-2.32698e-10 4.64636e-10 2.38833e-10)
(-7.20141e-10 4.33022e-10 2.6289e-10)
(-6.4529e-10 3.90473e-12 2.58746e-10)
(-2.91114e-10 2.31142e-11 2.21035e-10)
(-1.06859e-10 -2.95464e-11 6.20684e-11)
(4.40384e-11 2.54798e-11 -1.1122e-10)
(5.5804e-10 2.09555e-10 1.16758e-11)
(-1.38714e-10 -5.35303e-10 6.95358e-10)
(-7.4692e-10 -2.60597e-10 3.40659e-10)
(-6.00032e-10 -1.39667e-11 1.36773e-10)
(-3.29422e-10 1.54247e-10 1.65437e-10)
(-1.88583e-10 3.4726e-10 1.90764e-10)
(4.00521e-11 3.67958e-10 2.52103e-10)
(2.73763e-10 4.17883e-10 6.67069e-10)
(1.65623e-10 -2.22956e-10 7.59892e-13)
(2.4447e-10 -2.7983e-10 2.09776e-10)
(-1.48796e-10 -1.17891e-10 3.11543e-10)
(-5.00911e-10 1.53627e-10 8.13344e-11)
(-2.78995e-10 9.82813e-11 1.95641e-10)
(6.1671e-11 2.17152e-10 3.13497e-10)
(1.79014e-10 2.84353e-10 2.74454e-10)
(1.93658e-10 1.81021e-10 5.08435e-10)
(-3.55389e-11 1.36145e-10 4.01397e-10)
(3.20833e-10 -1.07319e-10 -2.01847e-11)
(4.27167e-10 -6.11338e-11 1.67492e-10)
(-8.03988e-11 2.333e-10 4.30495e-10)
(-5.34135e-10 3.34886e-10 2.56273e-10)
(-1.40186e-10 1.61882e-10 1.71701e-10)
(3.03239e-10 2.14962e-10 2.3739e-10)
(2.83474e-10 1.46783e-10 2.74813e-10)
(1.74638e-10 2.39398e-11 2.08695e-10)
(1.73911e-09 7.11155e-10 2.35737e-10)
(5.18596e-10 -4.9162e-11 -8.05892e-11)
(6.6052e-10 5.54104e-11 -1.96961e-11)
(6.53234e-11 2.86166e-10 -1.19227e-11)
(-6.44147e-10 2.926e-10 2.74995e-10)
(-1.80544e-10 3.79318e-11 8.97332e-11)
(8.93155e-11 7.12757e-11 1.38498e-10)
(2.04015e-10 3.11456e-11 2.08121e-10)
(1.02992e-10 -5.35338e-11 3.14129e-11)
(7.03564e-10 2.88002e-10 8.14727e-12)
(-7.17143e-10 1.40897e-11 2.25756e-11)
(-5.82514e-10 1.94801e-10 5.61107e-11)
(-3.72288e-10 4.05493e-10 2.20364e-10)
(-1.41642e-10 4.68171e-10 4.92792e-10)
(1.00973e-10 4.30001e-10 8.21926e-10)
(2.55873e-10 -1.09237e-10 -5.17557e-12)
(1.6776e-10 -1.62251e-10 1.57257e-10)
(-2.70194e-10 4.85727e-11 4.89817e-10)
(-6.57596e-10 2.41019e-10 -1.94487e-11)
(-5.55144e-10 1.20129e-10 1.46477e-11)
(-3.4068e-10 2.35429e-10 5.77347e-11)
(-4.4183e-11 4.23205e-10 2.18728e-10)
(3.10802e-11 2.70329e-10 4.80406e-10)
(9.01307e-11 6.88198e-11 5.3174e-10)
(5.61785e-10 2.51409e-11 -1.09364e-10)
(8.72929e-10 -3.80995e-11 2.14565e-10)
(1.31434e-10 2.22494e-10 3.79554e-10)
(-3.2824e-10 3.50183e-10 1.3223e-10)
(-4.8105e-11 2.15835e-10 6.4752e-11)
(4.33873e-10 2.15427e-10 -1.38299e-10)
(5.34208e-10 1.97088e-10 -9.23033e-12)
(6.58227e-10 -1.31374e-12 1.9204e-10)
(5.75121e-10 -1.31852e-10 6.44972e-11)
(4.86317e-10 -1.19359e-10 -1.5038e-10)
(5.89077e-10 5.65388e-11 -4.9118e-12)
(-4.59707e-11 9.5338e-11 1.27571e-10)
(-3.83844e-10 1.36052e-10 1.3842e-10)
(2.48755e-11 7.21897e-11 4.84609e-11)
(6.94175e-10 2.27455e-11 1.53849e-10)
(7.59347e-10 -5.92754e-11 1.89875e-10)
(5.12217e-10 7.21918e-12 1.04477e-10)
(3.92054e-10 1.16159e-10 7.92812e-11)
(-2.59128e-10 2.115e-10 9.73855e-11)
(5.82771e-11 3.26064e-10 4.46396e-10)
(-5.05215e-10 3.50273e-10 1.32341e-09)
(-1.21354e-10 -3.59352e-11 -3.79509e-11)
(-9.94946e-11 2.71746e-11 4.73915e-12)
(-3.5759e-10 -1.42478e-10 1.59563e-10)
(-7.73155e-10 3.25338e-11 1.40537e-11)
(-8.15199e-10 6.45664e-12 6.23581e-11)
(-8.89641e-10 -6.2658e-11 -7.82807e-12)
(-3.09791e-10 1.75225e-10 7.80666e-11)
(1.17193e-10 -2.50006e-10 3.18517e-10)
(-2.77662e-10 -5.34502e-10 7.26159e-10)
(3.38459e-10 2.33687e-10 -7.49217e-11)
(3.5997e-10 1.04292e-10 1.69873e-11)
(-6.45398e-11 7.45831e-11 1.13983e-10)
(-4.03604e-10 1.73916e-10 7.89548e-11)
(-3.73894e-10 1.07696e-10 3.44533e-11)
(-2.37589e-10 7.83826e-12 -1.25012e-10)
(1.10554e-10 -2.57868e-11 -2.75894e-10)
(1.0106e-09 -2.07554e-10 -6.99101e-11)
(8.13439e-10 -9.56487e-11 -1.68658e-10)
(2.0569e-10 -1.00557e-10 -7.01476e-11)
(3.88566e-10 2.09018e-11 2.5551e-12)
(3.65837e-11 5.24023e-11 9.14798e-11)
(-2.73913e-10 1.03712e-10 5.58069e-11)
(2.02391e-12 -7.08213e-09 7.06858e-12)
(1.65571e-10 8.62331e-11 2.37112e-11)
(4.86868e-10 4.29321e-11 1.81287e-11)
(1.46504e-09 2.05146e-10 -1.74634e-11)
(-9.07282e-10 2.84235e-09 6.45792e-10)
)
;

boundaryField
{
    inlet
    {
        type            zeroGradient;
    }
    outlet
    {
        type            zeroGradient;
    }
    wall
    {
        type            zeroGradient;
    }
    procBoundary7to0
    {
        type            processor;
        value           uniform (2.04868e-10 -2.15814e-10 -5.39653e-11);
    }
    procBoundary7to1
    {
        type            processor;
        value           uniform (3.74806e-10 -2.28478e-10 2.01254e-10);
    }
    procBoundary7to3
    {
        type            processor;
        value           nonuniform List<vector> 
36
(
(7.00309e-11 -2.97312e-10 3.75086e-10)
(-2.49262e-10 -3.25413e-10 8.55053e-10)
(-5.9396e-10 -5.14188e-10 1.2675e-09)
(-7.16402e-10 -5.09415e-10 6.7314e-10)
(-6.68577e-10 -1.95162e-10 4.37451e-10)
(-4.21589e-10 -2.12866e-10 2.59091e-10)
(-1.53636e-10 -1.77985e-10 9.3446e-11)
(1.82522e-10 -1.06983e-10 1.33145e-10)
(3.44958e-10 -1.0824e-10 2.75505e-10)
(5.93851e-14 -2.8183e-10 1.64255e-10)
(-9.44258e-11 -1.44486e-11 5.19298e-10)
(-3.7847e-10 3.34669e-10 3.11105e-10)
(-1.11257e-09 -2.44424e-10 9.33994e-10)
(-8.46951e-10 -8.34666e-11 5.55655e-10)
(-6.28512e-10 -6.47965e-11 4.12001e-10)
(-2.41274e-10 2.52045e-11 2.47131e-10)
(9.69305e-11 1.64484e-12 4.93046e-10)
(2.67259e-10 -1.1277e-10 3.48845e-10)
(-5.84643e-12 -1.15663e-10 1.48764e-10)
(-7.30984e-11 3.33195e-11 4.83399e-10)
(-8.28672e-10 1.89045e-10 9.34378e-10)
(-1.26342e-09 -1.64285e-10 8.92132e-10)
(-1.04293e-09 -1.58301e-10 4.69934e-10)
(-7.17779e-10 -2.93127e-11 3.84312e-10)
(-6.38053e-10 2.40797e-13 1.99489e-10)
(7.5283e-11 1.1632e-10 -1.67389e-11)
(2.08922e-10 -9.82931e-11 -3.62406e-10)
(2.96068e-11 -6.9949e-11 1.9875e-11)
(-3.87763e-11 1.59036e-11 3.9485e-10)
(-7.10689e-10 1.17673e-10 9.97569e-10)
(-8.49039e-10 1.50378e-10 4.18344e-10)
(-8.74443e-10 -3.84166e-11 3.28315e-10)
(-4.8477e-10 -1.06189e-11 2.3302e-10)
(-3.3694e-10 1.28851e-11 -9.89838e-12)
(-6.39532e-11 -2.56822e-11 -3.14514e-10)
(1.00644e-10 -2.9464e-10 -9.68807e-10)
)
;
    }
    procBoundary7to5
    {
        type            processor;
        value           nonuniform List<vector> 
44
(
(1.57641e-10 -2.60025e-10 5.55034e-10)
(-1.69198e-10 -3.715e-10 8.19242e-10)
(-5.70518e-10 -2.5487e-10 4.3375e-10)
(-4.39839e-10 -6.6031e-11 1.59199e-10)
(-2.7379e-10 1.872e-11 4.11935e-12)
(-1.28793e-10 1.454e-10 3.61191e-12)
(4.81837e-11 2.20339e-10 -5.13887e-11)
(1.45704e-10 1.73477e-10 1.73565e-10)
(3.77142e-10 -2.39329e-10 1.55959e-10)
(3.76708e-10 -4.0024e-10 4.77684e-10)
(1.31472e-10 -5.28659e-10 7.9002e-10)
(-4.56822e-10 -3.94668e-10 4.21526e-10)
(-4.1483e-10 -8.08729e-11 1.30281e-10)
(-3.50451e-10 8.29223e-11 1.03303e-11)
(-1.52168e-10 2.90281e-10 6.62275e-11)
(-5.98945e-11 4.56205e-10 1.49007e-10)
(1.19981e-11 3.99475e-10 3.26946e-10)
(3.77142e-10 -2.39329e-10 1.55959e-10)
(3.76708e-10 -4.0024e-10 4.77684e-10)
(3.76708e-10 -4.0024e-10 4.77684e-10)
(-4.42026e-11 -4.85719e-10 6.92284e-10)
(-9.49977e-10 -2.40467e-10 1.45332e-10)
(-5.54254e-10 -1.80581e-10 5.79815e-11)
(-5.27895e-10 1.14628e-10 3.25534e-11)
(-4.26985e-10 3.42477e-10 -7.5529e-12)
(-3.35964e-10 7.16405e-10 1.65587e-10)
(-1.60691e-10 9.90443e-10 3.90883e-10)
(4.92174e-10 -1.08245e-10 -6.3209e-11)
(5.91897e-10 -3.2497e-10 2.6038e-10)
(-4.42026e-11 -4.85719e-10 6.92284e-10)
(-9.49977e-10 -2.40467e-10 1.45332e-10)
(-9.49977e-10 -2.40467e-10 1.45332e-10)
(-7.71251e-10 -4.58594e-11 -1.92767e-11)
(-4.17924e-10 8.15725e-11 9.05111e-12)
(-3.00644e-10 2.40633e-10 4.15564e-11)
(-2.42029e-10 6.01939e-10 2.3837e-10)
(-2.88353e-10 1.20193e-09 4.83505e-10)
(2.21168e-10 -1.06869e-10 -4.09445e-11)
(5.95714e-10 -1.50943e-10 1.51982e-10)
(2.3899e-11 -8.38658e-10 3.39636e-10)
(-6.958e-10 -2.2658e-10 2.13119e-10)
(-7.71251e-10 -4.58594e-11 -1.92767e-11)
(-4.17924e-10 8.15725e-11 9.05111e-12)
(-4.17924e-10 8.15725e-11 9.05111e-12)
)
;
    }
    procBoundary7to6
    {
        type            processor;
        value           nonuniform List<vector> 
12
(
(1.88298e-10 -1.60989e-10 -1.13912e-10)
(7.37749e-11 -1.32343e-10 -1.00789e-10)
(4.98101e-11 -5.18573e-11 -1.12462e-10)
(1.72772e-10 -1.07799e-10 -6.16376e-11)
(1.80797e-10 -8.86055e-11 -8.40287e-11)
(1.95592e-10 -7.72752e-11 -8.94295e-11)
(1.25978e-10 -4.70467e-11 -7.587e-11)
(2.80419e-10 2.1869e-11 -9.50512e-11)
(1.90775e-10 -7.41477e-11 -1.38023e-10)
(-2.39545e-10 -1.0067e-10 -1.53591e-10)
(6.944e-11 1.84088e-10 -6.6749e-11)
(1.4922e-10 8.63414e-12 -1.1335e-10)
)
;
    }
}


// ************************************************************************* //
