/*--------------------------------*- C++ -*----------------------------------*\
| =========                 |                                                 |
| \\      /  F ield         | OpenFOAM: The Open Source CFD Toolbox           |
|  \\    /   O peration     | Version:  4.x                                   |
|   \\  /    A nd           | Web:      www.OpenFOAM.org                      |
|    \\/     M anipulation  |                                                 |
\*---------------------------------------------------------------------------*/
FoamFile
{
    version     2.0;
    format      ascii;
    class       volVectorField;
    location    "59";
    object      UsPrev;
}
// * * * * * * * * * * * * * * * * * * * * * * * * * * * * * * * * * * * * * //

dimensions      [0 1 -1 0 0 0 0];

internalField   nonuniform List<vector> 
132
(
(3.47899e-10 -1.44969e-10 2.27586e-10)
(2.52257e-10 -1.01294e-10 4.54725e-10)
(-2.49446e-10 -2.20082e-10 7.72094e-10)
(-6.72431e-10 -2.02256e-10 3.77092e-10)
(-5.0784e-10 3.65362e-11 2.99428e-10)
(-7.73551e-11 2.82237e-10 1.38848e-10)
(-8.54068e-11 1.957e-10 4.15775e-11)
(6.71262e-11 2.21875e-10 3.92494e-11)
(2.48163e-10 1.02585e-10 2.05179e-10)
(2.3282e-10 -1.10238e-10 7.30833e-11)
(4.15944e-10 -3.22529e-11 3.62457e-10)
(-2.81754e-10 -2.65418e-10 1.01991e-10)
(-6.96297e-10 -4.62897e-11 4.11923e-10)
(-3.2239e-10 2.31315e-11 3.53026e-10)
(-1.79793e-10 1.06725e-10 1.83481e-10)
(3.55147e-11 9.03936e-11 1.45841e-10)
(8.32601e-11 9.08149e-11 1.73416e-10)
(2.11609e-10 1.49508e-10 2.22617e-10)
(2.80825e-10 -6.66583e-11 9.08755e-11)
(2.07768e-10 1.15672e-10 3.91483e-10)
(-2.84184e-10 1.57637e-10 4.8261e-10)
(-5.70725e-10 2.12682e-10 4.47503e-10)
(-4.97087e-10 2.14696e-11 3.34166e-10)
(-3.26926e-10 2.17428e-11 8.46655e-11)
(-1.51827e-10 5.19688e-11 -7.72573e-11)
(1.31675e-10 6.77747e-11 -1.70195e-10)
(9.38746e-10 4.84043e-10 3.21571e-12)
(3.00783e-10 2.82187e-11 2.71306e-11)
(4.63759e-10 1.06184e-10 1.20205e-10)
(-1.54677e-10 4.44447e-10 2.29703e-10)
(-6.65519e-10 4.41145e-10 2.43391e-10)
(-6.28382e-10 1.11751e-11 2.24746e-10)
(-3.01429e-10 3.12198e-11 6.34276e-11)
(-9.63183e-11 -2.57149e-11 -4.49252e-11)
(9.10778e-11 3.84784e-11 -2.5793e-10)
(5.86711e-10 2.09256e-10 -2.4682e-11)
(-1.05923e-10 -4.96047e-10 7.12959e-10)
(-6.85933e-10 -1.73765e-10 3.50677e-10)
(-5.75665e-10 1.76891e-11 1.4711e-10)
(-2.91844e-10 1.70389e-10 1.60949e-10)
(-1.40977e-10 3.25872e-10 1.86182e-10)
(1.0157e-10 3.33627e-10 2.48706e-10)
(3.15085e-10 4.11565e-10 6.71124e-10)
(2.04898e-10 -1.99979e-10 1.53815e-11)
(3.20079e-10 -2.38378e-10 2.27292e-10)
(-9.8279e-11 -8.15216e-11 3.19621e-10)
(-4.06056e-10 2.21881e-10 1.09553e-10)
(-3.38972e-10 1.13765e-10 2.00539e-10)
(-1.14838e-10 1.64084e-10 3.4312e-10)
(2.25612e-10 2.32931e-10 2.73619e-10)
(3.57859e-10 9.12622e-11 5.02201e-10)
(6.65961e-11 1.23677e-10 4.03385e-10)
(3.9315e-10 -9.10944e-11 -6.04079e-12)
(5.29538e-10 -3.56241e-11 1.79812e-10)
(-1.18941e-11 2.55143e-10 4.17426e-10)
(-4.63197e-10 3.63001e-10 2.84672e-10)
(-2.5405e-10 1.6709e-10 1.77018e-10)
(-6.46086e-11 2.39772e-10 2.31019e-10)
(2.81143e-10 1.41078e-10 3.2247e-10)
(4.91719e-10 2.67306e-11 1.69438e-10)
(1.92379e-09 7.17832e-10 2.44391e-10)
(5.81593e-10 -4.36875e-11 -6.53285e-11)
(7.33296e-10 6.31385e-11 -1.11939e-11)
(1.33416e-10 2.91095e-10 -6.95419e-12)
(-5.97184e-10 2.96242e-10 2.88498e-10)
(-2.29071e-10 3.34716e-11 9.84764e-11)
(-2.44182e-11 1.30047e-10 1.45468e-10)
(1.87691e-10 4.99155e-11 1.88078e-10)
(2.18137e-10 1.09247e-11 1.48441e-11)
(7.74282e-10 2.99544e-10 -2.3612e-12)
(-6.77073e-10 8.78838e-11 4.69809e-11)
(-4.79445e-10 2.62033e-10 1.69156e-10)
(-3.19222e-10 4.11359e-10 3.21058e-10)
(-1.15246e-10 4.62751e-10 5.89795e-10)
(1.17628e-10 4.2751e-10 8.2766e-10)
(2.87152e-10 -8.44157e-11 2.26148e-11)
(2.43464e-10 -1.25145e-10 1.75124e-10)
(-2.0132e-10 8.44594e-11 4.99542e-10)
(-4.60636e-10 3.45597e-10 1.14935e-11)
(-5.60757e-10 2.00083e-10 6.2162e-11)
(-5.02641e-10 2.30317e-10 4.10724e-10)
(-5.90546e-11 2.57787e-10 5.2603e-10)
(1.63084e-10 1.65242e-10 7.86875e-10)
(1.46595e-10 7.11705e-11 5.61644e-10)
(6.14399e-10 3.99032e-11 -8.99486e-11)
(9.80155e-10 -1.10797e-11 2.28855e-10)
(2.56121e-10 2.53669e-10 3.90654e-10)
(-1.90855e-10 3.73251e-10 1.73221e-10)
(-1.26115e-10 2.1424e-10 1.57312e-10)
(-7.68195e-11 2.42887e-10 5.64265e-10)
(5.1921e-10 2.25633e-10 6.68208e-10)
(1.1349e-09 1.38959e-11 7.23879e-10)
(6.99699e-10 -1.19042e-10 1.20488e-10)
(5.3756e-10 -1.12459e-10 -1.36438e-10)
(6.69788e-10 6.58867e-11 5.3011e-12)
(3.27476e-11 1.02827e-10 1.39972e-10)
(-3.11625e-10 1.36235e-10 1.73775e-10)
(2.97556e-11 6.80426e-11 1.10487e-10)
(5.48149e-10 1.21243e-10 5.9449e-10)
(6.90417e-10 1.0824e-10 5.60603e-10)
(5.97482e-10 9.74958e-11 4.08738e-10)
(4.0953e-10 1.20458e-10 1.24351e-10)
(-2.25062e-10 3.29256e-10 1.55053e-10)
(2.2349e-11 4.76438e-10 5.31882e-10)
(-5.41861e-10 3.59408e-10 1.32932e-09)
(-1.08996e-10 -1.44106e-11 -2.09769e-11)
(-3.61775e-11 6.04404e-11 1.43632e-11)
(-2.8922e-10 -1.05146e-10 1.68086e-10)
(-6.5455e-10 1.09023e-10 1.50759e-11)
(-6.03607e-10 7.97726e-11 6.69227e-11)
(-6.77626e-10 2.83986e-10 3.71634e-10)
(-3.26687e-10 3.92588e-10 3.38808e-10)
(-5.02323e-11 -2.97553e-11 5.32448e-10)
(-4.17722e-10 -5.2605e-10 7.47519e-10)
(3.81625e-10 2.40991e-10 -6.6649e-11)
(4.26566e-10 1.21572e-10 2.24821e-11)
(2.79489e-11 9.8306e-11 1.19831e-10)
(-2.31909e-10 2.17238e-10 8.54065e-11)
(-1.72701e-11 1.28517e-10 6.6817e-11)
(-9.56591e-12 6.28981e-11 3.02192e-10)
(3.02748e-11 -4.75898e-13 3.84819e-10)
(3.25332e-10 -1.49311e-10 5.09168e-10)
(5.36639e-10 -9.26094e-11 -8.41173e-11)
(2.40059e-10 -9.61345e-11 -6.53674e-11)
(4.56562e-10 2.79422e-11 7.131e-12)
(1.23305e-10 5.93696e-11 9.49312e-11)
(-1.3667e-10 1.1724e-10 7.79147e-11)
(2.28718e-10 -7.088e-09 6.49601e-11)
(2.52085e-10 1.27159e-11 2.56796e-10)
(4.61168e-10 -1.07658e-10 2.58575e-10)
(1.21223e-09 9.89099e-11 3.27628e-10)
(-1.17392e-09 2.84892e-09 6.89564e-10)
)
;

boundaryField
{
    inlet
    {
        type            calculated;
        value           nonuniform 0();
    }
    outlet
    {
        type            calculated;
        value           uniform (0 0 0);
    }
    wall
    {
        type            calculated;
        value           uniform (0 0 0);
    }
    procBoundary7to0
    {
        type            processor;
        value           uniform (0 0 0);
    }
    procBoundary7to1
    {
        type            processor;
        value           uniform (0 0 0);
    }
    procBoundary7to3
    {
        type            processor;
        value           uniform (0 0 0);
    }
    procBoundary7to5
    {
        type            processor;
        value           uniform (0 0 0);
    }
    procBoundary7to6
    {
        type            processor;
        value           uniform (0 0 0);
    }
}


// ************************************************************************* //
