/*--------------------------------*- C++ -*----------------------------------*\
  =========                 |
  \\      /  F ield         | OpenFOAM: The Open Source CFD Toolbox
   \\    /   O peration     | Website:  https://openfoam.org
    \\  /    A nd           | Version:  4.x
     \\/     M anipulation  |
\*---------------------------------------------------------------------------*/
FoamFile
{
    version     2.0;
    format      ascii;
    class       vectorField;
    location    0;
    object      v;
}
// * * * * * * * * * * * * * * * * * * * * * * * * * * * * * * * * * * * * * //

310
(
( 6.72269e-08 -2.17067e-08 -3.85357e-08 )  
( -9.65772e-09 -2.18148e-09 -8.44892e-08 )  
( 2.02999e-08 -2.10796e-08 -2.18964e-09 )  
( -3.73568e-08 -7.92789e-09 -4.34572e-08 )  
( 1.01974e-07 -1.70904e-08 6.1415e-08 )  
( -4.45443e-08 -8.51958e-09 -9.43377e-09 )  
( 2.11513e-08 -8.57845e-09 -1.08583e-07 )  
( -2.22138e-08 -1.42351e-08 2.86263e-08 )  
( 1.60245e-09 -1.03361e-08 -4.35598e-08 )  
( -2.19624e-09 6.22194e-10 -9.01804e-08 )  
( -6.94341e-08 -6.91106e-09 -4.5885e-09 )  
( -4.50859e-08 -9.46662e-09 -1.71842e-09 )  
( 1.2888e-08 1.3449e-10 3.11444e-08 )  
( -1.77567e-08 -6.56362e-09 -1.98991e-08 )  
( 3.60144e-08 2.64746e-10 -8.44279e-08 )  
( 9.57903e-09 -1.2168e-09 -2.17628e-08 )  
( 3.69726e-09 4.11794e-09 2.24746e-08 )  
( -6.48215e-09 -2.44214e-10 -4.27687e-08 )  
( -2.16658e-08 -8.20215e-09 -2.30225e-08 )  
( 1.11359e-08 -2.11795e-09 1.60619e-08 )  
( 1.87543e-08 -2.60806e-09 2.07135e-08 )  
( 7.28933e-09 1.69549e-09 2.97507e-08 )  
( 1.11923e-08 -5.89343e-09 -8.89522e-08 )  
( 9.32462e-09 1.50029e-09 -2.42684e-08 )  
( 7.90238e-09 1.30732e-09 2.73095e-08 )  
( 1.68152e-09 5.17504e-11 1.30413e-08 )  
( 1.68325e-09 -1.67934e-09 1.64698e-08 )  
( 2.13752e-09 -3.47816e-09 3.15594e-08 )  
( 5.96125e-09 -1.5338e-09 1.83741e-08 )  
( 2.09029e-09 1.44957e-09 -3.97327e-08 )  
( 2.3675e-09 -1.48308e-10 -6.50041e-08 )  
( 1.23489e-08 -3.18881e-09 2.96113e-08 )  
( -4.02703e-08 -8.84195e-09 -3.06822e-08 )  
( 1.83993e-08 -2.39425e-09 -3.66417e-09 )  
( 2.18939e-08 -1.259e-09 9.04066e-09 )  
( 6.79575e-08 -8.28119e-09 2.04351e-08 )  
( 8.89734e-10 2.60964e-09 -5.87942e-08 )  
( -1.84927e-08 -2.07604e-09 -2.43227e-08 )  
( -2.77049e-08 2.9601e-09 -1.4156e-08 )  
( 2.9057e-09 -3.97137e-09 -4.8752e-08 )  
( -6.05291e-09 -9.69293e-10 1.0888e-08 )  
( 9.93706e-09 -9.29517e-10 -3.88439e-08 )  
( 1.28705e-08 1.15831e-09 -6.75072e-09 )  
( 8.86868e-09 -2.41433e-09 -3.97163e-08 )  
( 7.83709e-09 -4.18473e-09 -5.28734e-08 )  
( 1.20214e-08 -5.69483e-09 -3.94275e-08 )  
( 1.13618e-09 -1.86971e-09 1.84562e-08 )  
( 1.33745e-08 -1.23727e-09 -7.01678e-08 )  
( 1.39282e-09 8.74818e-09 -2.81689e-08 )  
( -1.04616e-09 -1.26008e-09 -2.41172e-08 )  
( 4.94936e-08 -1.19022e-08 -6.432e-09 )  
( 9.99024e-09 -2.56056e-09 -3.52636e-08 )  
( -1.0025e-09 1.53403e-09 -6.11954e-09 )  
( 1.78434e-08 -1.48964e-09 1.61006e-08 )  
( 7.44854e-09 -1.31626e-09 1.64995e-09 )  
( 1.27757e-08 -4.20959e-09 -4.93521e-08 )  
( 3.24545e-08 -2.49387e-10 -5.85068e-08 )  
( 1.3429e-08 -1.31596e-09 -7.58942e-08 )  
( 1.29878e-08 -1.15921e-08 -1.4803e-08 )  
( 8.43463e-09 3.9289e-09 2.31777e-08 )  
( 7.76003e-09 -3.01962e-09 -1.04064e-08 )  
( 2.34404e-08 1.75059e-09 -2.00744e-09 )  
( -8.62459e-09 6.66e-10 -4.11203e-08 )  
( 1.59688e-08 5.90927e-09 -2.28633e-08 )  
( 6.76416e-09 3.10776e-09 1.19021e-08 )  
( -1.34538e-08 -4.36258e-09 -1.01981e-08 )  
( 5.51761e-09 -5.28606e-10 2.14718e-08 )  
( 1.77959e-08 -4.11225e-09 -1.00353e-08 )  
( 5.05439e-09 7.43185e-09 -7.4984e-08 )  
( -1.87845e-09 -4.71919e-09 -1.25499e-08 )  
( -3.64504e-09 9.20678e-10 -7.54718e-08 )  
( 1.08197e-09 2.06272e-09 -6.97978e-08 )  
( 4.78872e-08 -9.63865e-09 -6.49361e-08 )  
( 1.30273e-08 -3.3379e-09 6.91386e-09 )  
( 5.30594e-09 -1.24302e-09 6.3774e-09 )  
( 1.04417e-08 3.2284e-09 -2.8156e-08 )  
( 1.91915e-08 -1.19228e-09 4.0581e-09 )  
( 6.56285e-09 1.48798e-09 -5.75585e-08 )  
( -3.02654e-08 -2.247e-09 -4.89561e-09 )  
( 1.11859e-08 9.16701e-10 2.9523e-08 )  
( -9.63243e-09 9.20376e-09 -3.15964e-08 )  
( 1.83129e-08 -5.87083e-10 2.26705e-08 )  
( 5.63347e-09 6.15495e-10 8.36769e-09 )  
( 5.30628e-09 2.4274e-10 -5.32933e-08 )  
( 6.95265e-09 4.81261e-10 1.34328e-08 )  
( -2.25648e-08 -4.05649e-09 -4.70475e-08 )  
( 1.36645e-08 6.8624e-09 3.47889e-08 )  
( 1.43829e-08 3.69005e-09 -3.85208e-08 )  
( 9.36102e-10 4.84741e-10 1.16888e-08 )  
( 6.86831e-09 1.6474e-10 2.21695e-08 )  
( 7.06149e-09 3.82532e-09 -5.66109e-08 )  
( 7.57864e-09 -2.12906e-09 2.30691e-08 )  
( -5.34237e-09 6.27955e-09 -1.64821e-08 )  
( 1.06672e-08 4.54556e-09 3.01013e-08 )  
( 2.26788e-08 -3.11099e-09 -2.74745e-08 )  
( -3.54782e-08 -1.11035e-08 8.39774e-09 )  
( -5.30816e-08 1.50512e-10 1.83377e-08 )  
( 1.45501e-08 4.2788e-09 1.55926e-08 )  
( -1.04488e-08 -1.57581e-09 1.61656e-08 )  
( -3.73835e-09 -2.51498e-09 6.47966e-09 )  
( 4.44387e-10 -7.97652e-11 -4.67717e-08 )  
( -6.70764e-09 -2.04489e-09 -2.27521e-08 )  
( 7.88914e-08 -1.32308e-08 1.75787e-08 )  
( 4.51782e-08 -1.33759e-08 3.0061e-08 )  
( -1.13082e-08 -1.36719e-09 -4.79635e-08 )  
( 1.7767e-08 -2.85692e-10 -8.39013e-08 )  
( 1.02041e-08 -2.02955e-10 2.38133e-08 )  
( -1.3302e-08 -7.05608e-09 4.35382e-08 )  
( 1.14591e-09 2.40969e-09 -5.19952e-08 )  
( 9.74957e-09 -7.12464e-09 9.55784e-09 )  
( -3.23553e-09 -3.90555e-10 -3.38081e-08 )  
( 8.37048e-09 2.0974e-09 -7.56732e-08 )  
( 6.23834e-09 5.77479e-09 -6.54907e-08 )  
( 8.71474e-09 8.20632e-10 -7.23948e-09 )  
( -1.96563e-08 -1.08261e-09 -8.04979e-09 )  
( 4.62665e-09 -1.58648e-09 -7.24561e-08 )  
( 5.41476e-09 1.67856e-09 -2.78127e-08 )  
( 1.80657e-08 -6.68138e-09 -8.55425e-08 )  
( -4.57356e-09 1.07766e-09 -1.72289e-08 )  
( 2.09619e-08 4.41959e-10 2.40417e-08 )  
( 1.77472e-08 -1.48887e-09 1.79804e-08 )  
( 1.80537e-08 -3.87866e-09 5.56005e-09 )  
( -4.24727e-08 1.6557e-08 -1.63827e-08 )  
( 6.26204e-09 3.07093e-09 1.27762e-08 )  
( 6.80054e-08 -1.93138e-08 -4.52289e-09 )  
( -7.04644e-09 7.57993e-09 -1.07867e-08 )  
( 1.03238e-08 -4.05949e-10 2.86711e-08 )  
( -9.46044e-09 1.74109e-09 -3.43512e-08 )  
( -2.79325e-09 8.92421e-09 -4.21782e-08 )  
( 1.01126e-09 1.20976e-09 1.46084e-08 )  
( -1.5148e-08 -8.53309e-11 -1.66104e-08 )  
( 9.02341e-09 -4.15802e-09 -2.83893e-08 )  
( 4.6091e-09 1.08115e-09 9.33876e-09 )  
( -1.57519e-08 -1.06306e-08 1.16404e-08 )  
( 3.61163e-08 -7.96798e-09 -4.46443e-08 )  
( 5.36261e-09 2.79244e-10 -1.09634e-08 )  
( 1.00611e-08 3.49848e-10 1.36215e-08 )  
( 7.21141e-09 -1.76795e-09 2.48634e-08 )  
( 3.48104e-09 -8.41805e-09 7.86888e-09 )  
( 5.49166e-09 -1.90502e-09 1.1311e-08 )  
( -2.05791e-08 -8.53376e-10 -1.0741e-08 )  
( 4.5846e-10 7.51308e-10 -1.41541e-08 )  
( 2.49715e-09 2.8514e-10 1.58578e-08 )  
( 7.01464e-09 6.49216e-09 -5.80212e-08 )  
( -4.86687e-09 2.65402e-09 -7.01267e-08 )  
( 8.23744e-09 -1.21598e-09 2.50387e-08 )  
( 2.11202e-08 -4.54722e-09 -1.06394e-07 )  
( -4.32376e-09 2.75901e-09 -2.48533e-08 )  
( 1.11364e-09 -5.97643e-09 -5.52692e-08 )  
( -1.17279e-10 1.48963e-09 -1.28382e-08 )  
( 2.03788e-08 1.24552e-09 1.39893e-08 )  
( 1.21664e-08 5.29232e-10 -2.35177e-08 )  
( 2.18753e-08 1.79671e-09 7.22599e-09 )  
( 2.22904e-08 -1.83056e-09 1.38983e-09 )  
( -7.66691e-08 -9.07484e-09 8.62421e-10 )  
( 3.16566e-08 -7.61808e-09 -1.43775e-08 )  
( 1.54079e-08 1.76343e-09 1.18478e-08 )  
( 2.7082e-08 -2.1577e-09 -1.39082e-08 )  
( -1.7336e-08 6.23588e-09 -4.18618e-08 )  
( -1.80387e-08 7.66018e-10 -3.51571e-08 )  
( -1.99342e-08 -4.94267e-09 -2.80204e-08 )  
( 1.87988e-08 -1.62829e-09 -1.913e-08 )  
( -1.05333e-08 -1.79943e-10 -2.61731e-08 )  
( 7.07992e-09 -1.49276e-09 8.91495e-09 )  
( 1.97811e-08 -6.04506e-09 -3.31116e-08 )  
( 2.20456e-09 1.21923e-09 7.55763e-09 )  
( 2.42371e-09 -2.13769e-09 1.05855e-08 )  
( 6.77565e-09 5.64295e-10 -9.14946e-10 )  
( -3.09994e-09 -4.91098e-09 -3.12188e-08 )  
( -3.51076e-08 4.69141e-10 -2.96045e-08 )  
( 5.82429e-09 -2.35075e-09 1.04305e-08 )  
( 1.19668e-08 2.22523e-09 1.25005e-08 )  
( 8.58053e-09 -1.21578e-09 9.36424e-10 )  
( 2.76831e-08 -1.66093e-10 7.65135e-09 )  
( 1.39128e-08 -8.78015e-12 1.02754e-08 )  
( -6.27033e-08 -8.97846e-09 -1.06336e-08 )  
( 1.17444e-08 -3.57345e-10 -3.18623e-08 )  
( 1.88504e-08 -1.23907e-09 9.86996e-09 )  
( 4.90043e-09 1.86205e-09 7.69808e-09 )  
( 1.26838e-08 2.66345e-09 -1.36317e-08 )  
( -4.8074e-08 -2.63354e-09 -5.12282e-09 )  
( -6.10858e-09 -4.02381e-09 -2.14739e-08 )  
( -2.33795e-08 -3.03147e-09 -3.12537e-08 )  
( -3.74864e-09 1.39989e-09 -8.83543e-09 )  
( 2.8311e-08 3.47337e-09 -2.67077e-09 )  
( 2.084e-08 -6.89398e-10 1.29457e-08 )  
( 5.44081e-09 2.2541e-09 1.5224e-08 )  
( 6.81847e-09 2.90991e-10 1.34774e-08 )  
( 2.48649e-08 5.82275e-11 8.92648e-09 )  
( 1.91012e-08 -6.37725e-09 -5.3895e-10 )  
( 1.94141e-08 -1.19232e-09 1.32687e-08 )  
( 1.72258e-08 -5.90498e-10 -6.23173e-09 )  
( -1.9513e-09 1.94124e-09 -1.117e-08 )  
( 1.32519e-08 2.43692e-09 1.3251e-08 )  
( 5.6651e-09 -2.53128e-09 -3.14409e-08 )  
( -7.06223e-08 -9.20236e-09 -1.76444e-09 )  
( 5.94373e-09 -5.09974e-09 -3.88442e-08 )  
( 2.45785e-08 -6.2982e-10 -1.82063e-08 )  
( 1.84277e-08 -2.92162e-09 4.47273e-09 )  
( 3.64932e-09 -4.48966e-09 1.1293e-08 )  
( 1.01927e-08 -8.64442e-10 5.16668e-09 )  
( -4.20098e-08 -1.41485e-09 -2.23999e-08 )  
( 6.80336e-09 -3.41921e-10 -5.47704e-09 )  
( -4.60342e-08 -6.76854e-09 -1.45779e-08 )  
( 2.34194e-08 2.92215e-10 -1.89473e-08 )  
( 2.65281e-08 7.1989e-10 2.6572e-09 )  
( 2.22537e-08 -5.36497e-09 1.45863e-10 )  
( -3.4652e-08 -4.95095e-09 -2.88412e-08 )  
( 1.83192e-08 -9.83538e-10 1.30421e-08 )  
( -2.24824e-08 3.61069e-09 -2.85988e-08 )  
( 5.40871e-09 2.59429e-09 8.1625e-09 )  
( 5.06942e-09 -1.85008e-09 -8.33362e-09 )  
( 9.5307e-10 1.44281e-11 9.53911e-09 )  
( -2.79915e-08 -5.07209e-09 -1.81785e-08 )  
( 1.63041e-08 3.49514e-09 -3.14792e-08 )  
( 1.93809e-08 3.82185e-09 1.18439e-08 )  
( 3.13655e-09 3.96343e-09 9.19005e-09 )  
( 3.35858e-09 4.79755e-10 7.22079e-09 )  
( 2.90752e-08 -6.50899e-10 1.12115e-08 )  
( 6.0309e-08 -1.40626e-08 1.28722e-09 )  
( 1.17335e-09 -6.92918e-10 1.29025e-08 )  
( 1.23454e-08 -9.46134e-09 -9.69972e-08 )  
( 1.32907e-09 -7.03015e-10 1.32185e-08 )  
( -3.42601e-09 -4.08563e-09 -7.92876e-10 )  
( 7.00734e-09 -3.38049e-09 2.70063e-09 )  
( 8.86447e-09 -1.68235e-08 -5.7578e-09 )  
( -5.43445e-08 -8.835e-09 -1.06885e-08 )  
( -5.4615e-08 -3.28552e-09 -1.00122e-09 )  
( 2.90556e-09 -4.48812e-09 1.51088e-08 )  
( -5.88686e-08 -3.58061e-09 1.66273e-08 )  
( 1.30715e-08 4.91779e-10 -7.07965e-09 )  
( -3.71905e-09 -5.15943e-09 -6.28409e-08 )  
( -8.68753e-09 6.87973e-09 -1.60488e-08 )  
( 8.76172e-09 -1.76103e-09 -4.76816e-08 )  
( -4.49377e-08 -7.26697e-09 4.74707e-08 )  
( 7.10857e-09 -8.89969e-10 1.24964e-09 )  
( 2.65147e-08 3.57325e-10 -2.08475e-08 )  
( 2.71191e-09 -3.14333e-09 -2.81766e-08 )  
( -2.64656e-10 -3.5821e-09 -3.01934e-08 )  
( 9.94062e-10 -3.5805e-09 -5.61076e-08 )  
( -1.74329e-08 6.77317e-09 -3.99046e-08 )  
( 1.32735e-08 -3.04214e-09 -1.21578e-08 )  
( 1.29109e-08 1.0535e-09 1.89982e-08 )  
( 1.04997e-08 2.04173e-09 1.79893e-08 )  
( -3.68148e-09 2.48418e-09 -4.92639e-08 )  
( -1.72759e-08 3.91219e-09 -2.66014e-08 )  
( -8.96989e-09 3.05153e-09 -4.11794e-08 )  
( 2.35292e-08 -2.13872e-09 -6.3346e-10 )  
( 1.53863e-08 -1.5155e-10 1.04996e-08 )  
( -3.43513e-08 -1.046e-08 -2.0109e-08 )  
( -2.45595e-08 -4.66688e-09 -3.39244e-08 )  
( 2.25526e-08 -1.4219e-09 1.24837e-08 )  
( 1.74842e-08 -9.45229e-10 1.37557e-08 )  
( 5.68703e-09 -3.47562e-10 7.05759e-09 )  
( 2.31339e-09 -5.98109e-10 1.95093e-08 )  
( -1.71583e-08 -2.50771e-09 -7.11173e-09 )  
( 2.74621e-08 2.74161e-09 -7.27565e-08 )  
( 1.01438e-08 5.29042e-09 2.88836e-08 )  
( 2.65484e-08 -2.08834e-08 3.16953e-08 )  
( 6.75984e-09 1.33632e-08 -4.73099e-08 )  
( 3.5094e-08 -6.34621e-09 -1.00668e-07 )  
( 5.86263e-09 3.57733e-09 3.26199e-08 )  
( -1.43442e-08 -3.66707e-09 -2.40345e-08 )  
( 1.34505e-08 4.31934e-10 2.28789e-08 )  
( -1.5091e-08 7.71561e-09 3.63405e-08 )  
( -1.55311e-08 -1.11086e-08 -3.69378e-08 )  
( 2.37847e-08 -3.08103e-08 -3.75603e-09 )  
( 4.46586e-09 2.1887e-09 2.33141e-08 )  
( -8.49428e-09 -6.43621e-11 -6.04853e-08 )  
( -2.26676e-09 -2.12416e-09 1.93002e-08 )  
( 7.40263e-09 -5.0291e-09 3.10537e-08 )  
( 1.70783e-08 2.13965e-09 -8.39035e-08 )  
( 6.34339e-09 1.44943e-09 3.44859e-08 )  
( 1.73645e-09 8.0567e-10 2.39175e-08 )  
( 3.91335e-09 -4.6984e-09 6.16041e-09 )  
( -8.99231e-09 3.06203e-09 3.56645e-08 )  
( -1.3349e-08 -9.26114e-09 -4.98615e-08 )  
( -5.1422e-09 -5.69394e-09 -5.79667e-08 )  
( -3.20664e-09 1.22521e-08 -5.3084e-08 )  
( 4.52996e-08 -4.15763e-09 -9.10425e-08 )  
( 2.85627e-09 -5.14123e-09 1.70604e-08 )  
( 1.31113e-07 -3.59352e-08 4.38032e-08 )  
( -4.97657e-09 -3.86845e-09 2.49009e-09 )  
( 8.65464e-08 -1.11787e-09 -1.24103e-08 )  
( 1.07106e-08 7.22491e-09 2.06777e-08 )  
( 8.55183e-08 -2.4631e-08 -3.23696e-08 )  
( 2.08976e-08 -3.83371e-09 1.48914e-08 )  
( -2.45042e-08 1.53864e-08 -1.65499e-08 )  
( -9.09598e-09 -3.94137e-10 5.25905e-09 )  
( -3.66161e-09 -3.01423e-10 2.90421e-08 )  
( -2.43818e-08 -9.8306e-09 -1.77535e-08 )  
( 8.37547e-09 -3.22107e-09 2.83089e-08 )  
( -1.79695e-09 2.00789e-08 -5.05468e-08 )  
( -2.4892e-08 -5.52063e-10 3.39646e-09 )  
( 3.94082e-08 -2.59612e-09 -5.26925e-08 )  
( -1.31393e-09 -1.51009e-09 -2.36238e-08 )  
( -1.53485e-08 2.82544e-09 -1.48029e-08 )  
( -1.55472e-09 -1.7089e-09 2.36104e-08 )  
( 5.38541e-08 -1.5077e-09 2.55721e-08 )  
( 2.15931e-08 5.89352e-10 -8.96755e-08 )  
( -3.99442e-08 2.12117e-10 1.42393e-08 )  
( 5.92668e-09 6.87185e-10 1.5985e-08 )  
( 5.67005e-08 -3.44518e-09 1.36615e-08 )  
( 1.13747e-08 2.12793e-09 3.11028e-08 )  
( 7.87668e-08 3.15924e-08 -6.37586e-08 )  
( 1.31034e-08 -6.87658e-09 2.43597e-08 )  
( -3.6855e-10 -3.51059e-08 1.3675e-08 )  
( -9.48845e-09 2.69958e-09 1.74778e-08 )  
( -1.52361e-08 -6.73908e-09 -3.9463e-08 )  
( -1.48397e-08 -3.34531e-09 -2.93763e-08 )  
)
