/*--------------------------------*- C++ -*----------------------------------*\
| =========                 |                                                 |
| \\      /  F ield         | OpenFOAM: The Open Source CFD Toolbox           |
|  \\    /   O peration     | Version:  4.x                                   |
|   \\  /    A nd           | Web:      www.OpenFOAM.org                      |
|    \\/     M anipulation  |                                                 |
\*---------------------------------------------------------------------------*/
FoamFile
{
    version     2.0;
    format      ascii;
    class       volVectorField;
    location    "34";
    object      impParticleForces;
}
// * * * * * * * * * * * * * * * * * * * * * * * * * * * * * * * * * * * * * //

dimensions      [1 1 -2 0 0 0 0];

internalField   nonuniform List<vector> 
114
(
(0.002403 -6.44621e-07 -8.67119e-05)
(0.00243983 1.21336e-06 -8.09996e-05)
(0.00243758 3.9293e-06 -7.22899e-05)
(0.00247203 7.32102e-06 -6.45279e-05)
(0.00244839 1.20275e-05 -5.45345e-05)
(0.00246037 1.75529e-05 -4.5877e-05)
(0.00231163 6.22317e-06 -9.09312e-05)
(0.00233866 7.10634e-06 -9.19326e-05)
(0.00238285 8.23882e-06 -9.09089e-05)
(0.00240007 9.05613e-06 -8.59996e-05)
(0.00244488 1.01008e-05 -8.07471e-05)
(0.00243841 1.07685e-05 -7.20561e-05)
(0.00247387 1.2197e-05 -6.44813e-05)
(0.00245619 1.39297e-05 -5.49138e-05)
(0.00245699 1.63574e-05 -4.61458e-05)
(0.00228574 1.39219e-05 -8.83781e-05)
(0.00231795 1.49454e-05 -8.9684e-05)
(0.00236158 1.60138e-05 -8.87631e-05)
(0.00238146 1.62468e-05 -8.4088e-05)
(0.00242724 1.68347e-05 -7.90113e-05)
(0.00242456 1.61778e-05 -7.09172e-05)
(0.00246178 1.64767e-05 -6.36292e-05)
(0.00245292 1.6187e-05 -5.4728e-05)
(0.00246922 1.67784e-05 -4.68225e-05)
(0.00224832 1.67607e-05 -8.54072e-05)
(0.00226948 1.75367e-05 -8.58525e-05)
(0.00232282 1.86969e-05 -8.54193e-05)
(0.00233493 1.85374e-05 -8.08393e-05)
(0.00236831 1.85708e-05 -7.5687e-05)
(0.00237512 1.77604e-05 -6.84565e-05)
(0.00239221 1.72801e-05 -6.11673e-05)
(0.00240999 1.66787e-05 -5.35707e-05)
(0.0024263 1.64071e-05 -4.60338e-05)
(0.00250031 3.11091e-06 -7.32286e-05)
(0.00253611 6.26734e-06 -6.52932e-05)
(0.0024799 1.05792e-05 -5.39129e-05)
(0.00250074 1.53546e-05 -4.5286e-05)
(0.0023386 7.00747e-06 -9.03164e-05)
(0.00238604 8.02881e-06 -9.27941e-05)
(0.00245119 9.46827e-06 -9.357e-05)
(0.00246113 1.01909e-05 -8.76438e-05)
(0.00249683 1.1124e-05 -8.17054e-05)
(0.00247937 1.11948e-05 -7.21093e-05)
(0.00252384 1.23786e-05 -6.48709e-05)
(0.00248526 1.35423e-05 -5.45726e-05)
(0.0024834 1.54361e-05 -4.55936e-05)
(0.00232314 1.5502e-05 -8.86681e-05)
(0.00237603 1.71607e-05 -9.14336e-05)
(0.00244782 1.91586e-05 -9.25875e-05)
(0.00244957 1.85523e-05 -8.6252e-05)
(0.00247848 1.86255e-05 -8.01584e-05)
(0.00247398 1.75865e-05 -7.16387e-05)
(0.002505 1.74777e-05 -6.42404e-05)
(0.00248419 1.65881e-05 -5.50591e-05)
(0.0024954 1.66571e-05 -4.68872e-05)
(0.00227431 1.81408e-05 -8.47747e-05)
(0.00231253 1.94416e-05 -8.62749e-05)
(0.00238496 2.13216e-05 -8.74523e-05)
(0.00238073 2.04832e-05 -8.15772e-05)
(0.0024045 2.00909e-05 -7.58561e-05)
(0.00241484 1.90722e-05 -6.87824e-05)
(0.00243599 1.84228e-05 -6.15514e-05)
(0.00243193 1.71554e-05 -5.35985e-05)
(0.00243466 1.64009e-05 -4.58168e-05)
(0.00244377 8.35015e-06 -4.85318e-05)
(0.00244912 1.19871e-05 -4.01771e-05)
(0.00236367 7.95045e-06 -8.44886e-05)
(0.00239412 8.83958e-06 -8.55169e-05)
(0.00245022 1.02071e-05 -8.56447e-05)
(0.00245385 1.0592e-05 -8.01427e-05)
(0.00247615 1.10506e-05 -7.41e-05)
(0.00246221 1.10288e-05 -6.57097e-05)
(0.00248875 1.17583e-05 -5.847e-05)
(0.00245027 1.23719e-05 -4.93412e-05)
(0.00244927 1.35706e-05 -4.11664e-05)
(0.00233324 1.64552e-05 -8.18851e-05)
(0.00237788 1.80879e-05 -8.38882e-05)
(0.00245169 2.0362e-05 -8.51622e-05)
(0.00245654 1.97829e-05 -8.01119e-05)
(0.00247502 1.94521e-05 -7.379e-05)
(0.00245336 1.7714e-05 -6.54163e-05)
(0.002491 1.75647e-05 -5.88764e-05)
(0.00245984 1.61934e-05 -5.0573e-05)
(0.00247708 1.58561e-05 -4.33691e-05)
(0.00229309 1.94647e-05 -7.91115e-05)
(0.00233212 2.10524e-05 -8.06596e-05)
(0.00238995 2.26451e-05 -8.08821e-05)
(0.00239704 2.19747e-05 -7.65236e-05)
(0.00239871 2.0784e-05 -6.99604e-05)
(0.00241203 1.97313e-05 -6.37534e-05)
(0.00244761 1.92255e-05 -5.77133e-05)
(0.00241764 1.71423e-05 -4.99786e-05)
(0.00243425 1.61517e-05 -4.33106e-05)
(0.00236672 8.64972e-06 -7.20049e-05)
(0.00241447 9.83226e-06 -7.31722e-05)
(0.00246543 1.13237e-05 -7.29259e-05)
(0.00244483 1.09454e-05 -6.73373e-05)
(0.00246276 1.12809e-05 -6.22304e-05)
(0.00243219 1.07576e-05 -5.49429e-05)
(0.00244946 1.10774e-05 -4.87333e-05)
(0.00240877 1.10468e-05 -4.13379e-05)
(0.00233961 1.74461e-05 -7.02677e-05)
(0.00238535 1.92616e-05 -7.17289e-05)
(0.00245324 2.15122e-05 -7.21199e-05)
(0.00243465 1.98013e-05 -6.71156e-05)
(0.00246492 1.98297e-05 -6.26683e-05)
(0.00243562 1.77315e-05 -5.57617e-05)
(0.00246039 1.71012e-05 -5.00752e-05)
(0.0022873 2.00364e-05 -6.78483e-05)
(0.00232773 2.1652e-05 -6.91444e-05)
(0.00239212 2.3495e-05 -6.95981e-05)
(0.00239054 2.23188e-05 -6.56738e-05)
(0.00241607 2.17155e-05 -6.12171e-05)
(0.0023984 1.9699e-05 -5.497e-05)
)
;

boundaryField
{
    inlet
    {
        type            zeroGradient;
    }
    outlet
    {
        type            zeroGradient;
    }
    wall
    {
        type            zeroGradient;
    }
    procBoundary2to0
    {
        type            processor;
        value           nonuniform List<vector> 
44
(
(0.00239474 -9.75026e-06 -8.5934e-05)
(0.00244477 -7.01491e-06 -8.09459e-05)
(0.00243941 -2.24367e-06 -7.21134e-05)
(0.00245707 3.53803e-06 -6.3791e-05)
(0.00245418 1.17078e-05 -5.45393e-05)
(0.0024878 2.20339e-05 -4.65311e-05)
(0.00230446 -3.68144e-06 -9.13303e-05)
(0.00232548 -3.20812e-06 -9.16887e-05)
(0.00236321 -2.21178e-06 -9.03262e-05)
(0.00236321 -2.21178e-06 -9.03262e-05)
(0.00244886 -1.12387e-06 -8.72756e-05)
(0.00251314 7.78829e-07 -8.3108e-05)
(0.00248642 -4.07242e-06 -7.21232e-05)
(0.00252586 1.14026e-06 -6.44526e-05)
(0.0024791 8.86878e-06 -5.36688e-05)
(0.00249057 1.75745e-05 -4.48318e-05)
(0.00236112 -3.9662e-06 -9.29586e-05)
(0.00238559 -3.59993e-06 -9.35901e-05)
(0.00244105 -2.83397e-06 -9.37865e-05)
(0.00244886 -1.12387e-06 -8.72756e-05)
(0.00251314 7.78829e-07 -8.3108e-05)
(0.00251314 7.78829e-07 -8.3108e-05)
(0.00247621 2.37328e-06 -6.62926e-05)
(0.00249379 4.88466e-06 -5.82706e-05)
(0.00244493 5.38031e-06 -4.86183e-05)
(0.00244713 1.19967e-05 -4.02233e-05)
(0.00237506 -3.99787e-06 -8.59355e-05)
(0.00240878 -3.79378e-06 -8.74861e-05)
(0.00246816 -3.09293e-06 -8.76678e-05)
(0.00246546 -1.53077e-06 -8.12715e-05)
(0.00249862 9.7997e-08 -7.55056e-05)
(0.00247621 2.37328e-06 -6.62926e-05)
(0.00249379 4.88466e-06 -5.82706e-05)
(0.00249379 4.88466e-06 -5.82706e-05)
(0.0023973 6.37481e-06 -4.02967e-05)
(0.00239099 8.94797e-06 -3.32498e-05)
(0.00236012 -4.09304e-06 -7.19899e-05)
(0.0024044 -3.86578e-06 -7.32655e-05)
(0.00246925 -3.26491e-06 -7.31109e-05)
(0.00245776 -1.75744e-06 -6.78745e-05)
(0.00245917 -2.13409e-07 -6.17793e-05)
(0.0024448 1.67638e-06 -5.49149e-05)
(0.00245444 3.87812e-06 -4.82208e-05)
(0.0023973 6.37481e-06 -4.02967e-05)
)
;
    }
    procBoundary2to3
    {
        type            processor;
        value           nonuniform List<vector> 
12
(
(0.00248974 2.34782e-05 -3.78394e-05)
(0.00248551 1.88834e-05 -3.82625e-05)
(0.0024819 1.72359e-05 -3.9058e-05)
(0.00241845 1.58495e-05 -3.84173e-05)
(0.00249051 2.0283e-05 -3.6509e-05)
(0.00249592 1.7501e-05 -3.75257e-05)
(0.00252536 1.6875e-05 -3.97826e-05)
(0.00245933 1.56511e-05 -3.92736e-05)
(0.00244584 1.55105e-05 -3.21573e-05)
(0.00245289 1.48401e-05 -3.37041e-05)
(0.00246219 1.51759e-05 -3.60725e-05)
(0.00243453 1.49549e-05 -3.71978e-05)
)
;
    }
    procBoundary2to6
    {
        type            processor;
        value           nonuniform List<vector> 
32
(
(0.00242236 1.15386e-05 -3.47051e-05)
(0.00242144 1.52806e-05 -4.31374e-05)
(0.00244187 1.44593e-05 -3.71323e-05)
(0.00240656 1.82779e-05 -4.91623e-05)
(0.00239097 1.63551e-05 -4.33394e-05)
(0.00240055 1.4812e-05 -3.77589e-05)
(0.0023876 9.2437e-06 -5.71034e-05)
(0.00241257 9.67163e-06 -5.65904e-05)
(0.00243629 1.03902e-05 -5.48516e-05)
(0.00243174 1.01696e-05 -5.15371e-05)
(0.00245736 1.04198e-05 -4.79077e-05)
(0.00241698 9.72788e-06 -4.2778e-05)
(0.00243492 9.69441e-06 -3.81373e-05)
(0.00242236 1.15386e-05 -3.47051e-05)
(0.00242144 1.52806e-05 -4.31374e-05)
(0.00239005 9.3467e-06 -3.30005e-05)
(0.00235341 1.85316e-05 -5.61775e-05)
(0.00238911 1.97414e-05 -5.62065e-05)
(0.00242904 2.08276e-05 -5.49408e-05)
(0.00243137 1.96389e-05 -5.21328e-05)
(0.0024536 1.90717e-05 -4.86596e-05)
(0.00242716 1.70864e-05 -4.41131e-05)
(0.00242144 1.52806e-05 -4.31374e-05)
(0.00240656 1.82779e-05 -4.91623e-05)
(0.00244285 1.59984e-05 -3.94962e-05)
(0.00229781 2.08273e-05 -5.52391e-05)
(0.00233052 2.21497e-05 -5.55332e-05)
(0.00236121 2.25608e-05 -5.44464e-05)
(0.00237315 2.17108e-05 -5.2055e-05)
(0.00241367 2.14187e-05 -4.88092e-05)
(0.00240656 1.82779e-05 -4.91623e-05)
(0.00240581 1.96574e-05 -4.47978e-05)
)
;
    }
}


// ************************************************************************* //
