/*--------------------------------*- C++ -*----------------------------------*\
| =========                 |                                                 |
| \\      /  F ield         | OpenFOAM: The Open Source CFD Toolbox           |
|  \\    /   O peration     | Version:  4.x                                   |
|   \\  /    A nd           | Web:      www.OpenFOAM.org                      |
|    \\/     M anipulation  |                                                 |
\*---------------------------------------------------------------------------*/
FoamFile
{
    version     2.0;
    format      ascii;
    class       volScalarField;
    location    "34";
    object      Ksl;
}
// * * * * * * * * * * * * * * * * * * * * * * * * * * * * * * * * * * * * * //

dimensions      [1 -3 -1 0 0 0 0];

internalField   nonuniform List<scalar> 
114
(
6344.55
3158.42
5619.74
3057.72
5221.14
2921.83
3397.66
8048.81
3323.05
6913.18
3264.38
6323.61
3182.87
6013.58
3070.81
3344.18
7578.76
3224.89
6219.02
3139.56
5559.81
3038.96
5200.38
2926.55
3290.75
6771.02
3088.35
5279.37
2902.73
4498.25
2727.82
4047.01
2615.01
13241.8
3700.54
15924.3
3599.16
3441.96
9866.42
3586.64
11505.4
3674.74
13744.5
3697.02
17160.5
3613.45
3408.19
9238.99
3523.83
9776.87
3544.68
10350.1
3538.93
11413.5
3467.89
3333.85
7602.62
3294.54
6581.33
3168.48
5939.18
3078.57
5563.27
2965.19
56030.7
3784.03
3490.44
10400
3674.08
13845.8
3750.54
19367.7
3757.71
30804
3704.57
3433.12
9981.57
3622.24
12585
3696.65
16305.4
3726.37
25094.2
3690.47
3363.13
8127.35
3375.37
7523.72
3291.7
6985.42
3268.75
6794.07
3169.46
3508.07
11433.5
3755.06
17275
3832.55
27697.8
3857.03
53894.9
3462.01
9989.41
3657.24
12182.4
3702.05
14533.1
3675.63
3357.24
8006.32
3392.89
7581.84
3344.87
7180.39
)
;

boundaryField
{
    inlet
    {
        type            zeroGradient;
    }
    outlet
    {
        type            zeroGradient;
    }
    wall
    {
        type            zeroGradient;
    }
    procBoundary2to0
    {
        type            processor;
        value           nonuniform List<scalar> 
44
(
6363.75
3175.93
5679.75
3056.7
5304.71
3004.93
3359.94
7636.48
3231.01
3231.01
10889
3670.39
12939.3
3695.96
16896.8
3648.31
3479.19
9796.79
3569.87
10889
3670.39
3670.39
32894.4
3844.88
31600.7
3686.89
3518.31
11536.6
3737.39
18385.8
3838.15
32894.4
3844.88
3844.88
2.92876e+06
3916.39
3512.76
11694.9
3812.94
22105.4
3920.02
61101.2
3955.1
2.92876e+06
)
;
    }
    procBoundary2to3
    {
        type            processor;
        value           nonuniform List<scalar> 
12
(
5110.19
5945.88
5004.69
3758.14
20251
20966.3
13108.2
5389.92
147415
76187.5
48842.2
6729.76
)
;
    }
    procBoundary2to6
    {
        type            processor;
        value           nonuniform List<scalar> 
32
(
3864.3
16879.8
3613.44
3254.13
6900.22
3179.35
3564.01
12210.3
3817.03
23544.7
3916.48
73558.3
3931.08
3864.3
16879.8
1e+10
3479.93
10715.2
3669.54
15172.2
3756.96
23624.5
16879.8
3254.13
3782.37
3366.17
8104.04
3379.01
7848.31
3398.13
3254.13
8015.21
)
;
    }
}


// ************************************************************************* //
