/*--------------------------------*- C++ -*----------------------------------*\
| =========                 |                                                 |
| \\      /  F ield         | OpenFOAM: The Open Source CFD Toolbox           |
|  \\    /   O peration     | Version:  4.x                                   |
|   \\  /    A nd           | Web:      www.OpenFOAM.org                      |
|    \\/     M anipulation  |                                                 |
\*---------------------------------------------------------------------------*/
FoamFile
{
    version     2.0;
    format      ascii;
    class       volVectorField;
    location    "29.5";
    object      DDtUrel;
}
// * * * * * * * * * * * * * * * * * * * * * * * * * * * * * * * * * * * * * //

dimensions      [0 1 -2 0 0 0 0];

internalField   nonuniform List<vector> 
87
(
(3.86369e-05 -1.30313e-06 1.22488e-05)
(8.37673e-05 -1.51464e-05 1.22011e-05)
(5.66068e-05 -8.39943e-06 7.00614e-06)
(0.000136438 -1.79401e-05 7.65987e-06)
(0.000114623 -2.13667e-05 8.23189e-06)
(7.87678e-05 -1.63313e-05 5.57404e-07)
(0.00161577 4.24994e-05 -6.86377e-05)
(0.000912599 1.91804e-05 -3.66157e-05)
(0.00052094 5.19934e-06 -1.8978e-05)
(0.000302179 -4.0679e-06 -5.48393e-06)
(0.000178358 -5.14727e-06 4.73287e-07)
(0.000107211 -8.61022e-06 3.50772e-06)
(6.78097e-05 -6.76826e-06 4.05344e-06)
(3.88205e-05 -6.02823e-06 3.34837e-06)
(1.92102e-05 -4.11474e-06 3.00158e-06)
(0.00165794 8.63339e-05 -6.84789e-05)
(0.000959603 3.47371e-05 -3.91436e-05)
(0.000559457 9.65188e-06 -2.18383e-05)
(0.000334921 -7.18867e-06 -8.16286e-06)
(0.00020137 -8.66088e-06 -1.27446e-06)
(0.000127951 -1.20331e-05 1.96901e-06)
(8.02799e-05 -1.28076e-05 2.03764e-06)
(5.38782e-05 -1.8294e-05 1.61507e-06)
(2.93577e-05 -1.14078e-05 4.62154e-09)
(0.00171386 8.99664e-05 -7.27444e-05)
(0.00102003 4.23286e-05 -4.29837e-05)
(0.000612337 1.17754e-05 -2.62052e-05)
(0.000379541 -5.90716e-06 -1.11738e-05)
(0.000234865 -1.03271e-05 -3.39882e-06)
(0.000157017 -1.39849e-05 9.51781e-07)
(0.000101561 -1.66422e-05 -9.63357e-07)
(7.54741e-05 -2.22808e-05 -5.89539e-07)
(3.92131e-05 -1.68657e-05 -3.99822e-06)
(0.00164669 4.55127e-05 -5.03183e-07)
(0.00094335 1.91924e-05 -1.14404e-05)
(0.000541336 4.54661e-06 -1.13287e-05)
(0.000318271 -5.14835e-06 -9.8368e-06)
(0.000184141 -7.01803e-06 -5.74232e-06)
(0.000111076 -1.03262e-05 -4.78362e-06)
(6.24986e-05 -8.30493e-06 -3.94341e-06)
(3.64212e-05 -8.43987e-06 -9.89388e-06)
(1.12853e-05 -5.62895e-06 -6.73634e-06)
(0.00169043 8.45784e-05 -4.17889e-06)
(0.000991077 3.41549e-05 -1.29492e-05)
(0.000584381 8.40955e-06 -1.40549e-05)
(0.000354806 -6.34119e-06 -1.08287e-05)
(0.000212241 -8.61365e-06 -7.57273e-06)
(0.000133308 -1.27785e-05 -7.12414e-06)
(7.80429e-05 -1.31998e-05 -7.72021e-06)
(5.45917e-05 -1.47325e-05 -1.13941e-05)
(2.42815e-05 -1.10409e-05 -1.02271e-05)
(0.0017407 8.51079e-05 -1.32034e-05)
(0.00104892 3.98316e-05 -1.64715e-05)
(0.000636985 1.09016e-05 -1.51645e-05)
(0.000400418 -5.3566e-06 -1.12834e-05)
(0.000249944 -1.03441e-05 -1.04592e-05)
(0.000165401 -1.46494e-05 -9.89207e-06)
(0.000103903 -1.7565e-05 -1.14928e-05)
(7.65415e-05 -2.07212e-05 -1.32481e-05)
(4.30659e-05 -1.94332e-05 -1.471e-05)
(0.00169249 4.39698e-05 1.79754e-05)
(0.000990011 1.61548e-05 -1.75434e-06)
(0.000579955 3.00385e-06 -8.52521e-06)
(0.000349814 -6.79404e-06 -9.51724e-06)
(0.000205592 -8.83308e-06 -6.88957e-06)
(0.000126739 -1.23562e-05 -6.30618e-06)
(6.99582e-05 -1.0317e-05 -6.53653e-06)
(4.31086e-05 -9.43154e-06 -1.00002e-05)
(7.43426e-06 -7.05138e-06 -1.26245e-05)
(0.00173271 7.7614e-05 1.15682e-05)
(0.00103624 3.30507e-05 -4.83239e-06)
(0.000624737 8.99368e-06 -1.07835e-05)
(0.000390511 -6.39401e-06 -1.11772e-05)
(0.000239303 -9.67385e-06 -8.46907e-06)
(0.000152274 -1.36745e-05 -8.47331e-06)
(8.95427e-05 -1.5805e-05 -1.16184e-05)
(6.15546e-05 -1.65246e-05 -1.49574e-05)
(2.44797e-05 -9.10714e-06 -1.75456e-05)
(0.0017724 7.81838e-05 3.32809e-06)
(0.00108496 3.80654e-05 -7.76246e-06)
(0.000672939 1.19327e-05 -1.08514e-05)
(0.000437691 -4.98449e-06 -1.18813e-05)
(0.000280723 -1.24062e-05 -1.14901e-05)
(0.000186371 -1.60279e-05 -1.08747e-05)
(0.000116963 -1.87102e-05 -1.44679e-05)
(8.22823e-05 -2.16988e-05 -1.81268e-05)
(4.3646e-05 -1.91081e-05 -2.03386e-05)
)
;

boundaryField
{
    inlet
    {
        type            calculated;
        value           nonuniform List<vector> 9((0.00369312 0.000153276 -0.000171769) (0.00376134 0.000390248 -0.000147866) (0.00403868 0.000276749 -0.000177812) (0.00379108 0.000208152 0.000204266) (0.00390609 0.000381926 0.000189221) (0.00412104 0.000239798 0.000101415) (0.00403726 0.000197874 0.000157894) (0.00412039 0.000301991 0.000118506) (0.00421888 0.000188686 6.46298e-05));
    }
    outlet
    {
        type            calculated;
        value           nonuniform 0();
    }
    wall
    {
        type            calculated;
        value           nonuniform List<vector> 
57
(
(0.00403726 0.000197874 0.000157894)
(0.00412039 0.000301991 0.000118506)
(0.00421888 0.000188686 6.46298e-05)
(9.22854e-05 -2.12344e-05 -2.02703e-05)
(0.000243878 -4.13076e-07 -1.43076e-05)
(0.000452542 2.68684e-06 -1.60158e-05)
(1.96053e-05 -8.32004e-06 -2.15024e-05)
(0.000163945 -8.00513e-06 -2.55309e-05)
(0.00035789 -5.78579e-06 -4.57083e-06)
(6.36501e-05 -5.27987e-05 -2.28835e-05)
(0.000211146 -4.88986e-05 -2.5313e-05)
(0.000442731 -3.02932e-05 -2.05141e-05)
(-4.03451e-05 -2.82751e-05 -4.41522e-06)
(9.06823e-05 -4.81753e-06 1.90227e-06)
(0.000298924 -3.94158e-05 -2.46663e-05)
(1.92209e-06 -6.23282e-05 -7.47836e-06)
(0.000105407 -1.93526e-05 -1.79418e-06)
(0.000274197 -3.0527e-05 -7.64559e-06)
(-9.30387e-05 -1.89089e-05 1.10353e-05)
(-1.18312e-05 -3.63228e-05 -2.98218e-05)
(0.000128383 -3.01532e-05 -3.21323e-05)
(-9.1787e-06 -8.7117e-06 -4.73102e-07)
(0.000105389 -5.43198e-05 -3.3818e-05)
(0.00017612 -5.8657e-05 -4.74767e-05)
(-0.000165504 1.23796e-07 -2.30051e-05)
(-5.53524e-05 4.24684e-05 -3.84871e-05)
(4.11663e-05 -4.54024e-05 -4.00197e-05)
(0.00403868 0.000276749 -0.000177812)
(0.00412104 0.000239798 0.000101415)
(0.00421888 0.000188686 6.46298e-05)
(0.000144517 1.75913e-05 -1.24906e-05)
(0.00029782 1.99711e-06 1.23976e-05)
(0.000452542 2.68684e-06 -1.60158e-05)
(7.44301e-05 -2.54643e-05 -4.26958e-05)
(0.000195699 -2.83977e-05 -6.35141e-06)
(0.00035789 -5.78579e-06 -4.57083e-06)
(8.59437e-05 -5.44217e-05 -6.54968e-06)
(0.000211056 -3.83323e-05 -1.34324e-06)
(0.000442731 -3.02932e-05 -2.05141e-05)
(-2.15509e-05 -1.8502e-05 -5.87912e-06)
(0.000103717 -1.16212e-05 -3.69979e-05)
(0.000298924 -3.94158e-05 -2.46663e-05)
(3.24633e-05 -1.53367e-05 9.65142e-06)
(0.000150431 -2.27258e-05 -4.16172e-05)
(0.000274197 -3.0527e-05 -7.64559e-06)
(8.47109e-05 -3.43602e-05 -3.42668e-05)
(-4.24402e-05 -1.20147e-05 -1.17626e-05)
(3.9587e-05 -2.95526e-05 -4.57561e-05)
(0.000128383 -3.01532e-05 -3.21323e-05)
(0.000230011 -6.13959e-05 1.32363e-05)
(5.13027e-05 -7.79786e-05 1.66697e-05)
(0.000149167 -4.57718e-05 -4.37566e-05)
(0.00017612 -5.8657e-05 -4.74767e-05)
(2.01766e-05 -2.59289e-05 -5.63059e-05)
(-0.000147576 -4.94441e-06 -3.47145e-06)
(3.89843e-05 -4.88877e-05 -4.1438e-05)
(4.11663e-05 -4.54024e-05 -4.00197e-05)
)
;
    }
    procBoundary6to0
    {
        type            processor;
        value           uniform (3.42677e-05 4.48822e-06 1.53869e-05);
    }
    procBoundary6to2
    {
        type            processor;
        value           nonuniform List<vector> 
32
(
(7.20259e-05 -7.68123e-09 2.00552e-05)
(0.000121249 -1.49454e-05 2.35788e-05)
(9.28963e-05 -8.82091e-06 1.71852e-05)
(0.000181829 -1.83481e-05 1.87387e-05)
(0.00016169 -2.26353e-05 2.0155e-05)
(0.000124036 -1.65586e-05 1.16756e-05)
(0.00162062 4.26691e-05 -0.000137168)
(0.000927186 2.02876e-05 -6.34192e-05)
(0.000535931 6.73817e-06 -2.62968e-05)
(0.000318155 -2.37118e-06 -2.86145e-07)
(0.00019443 -3.89559e-06 7.45162e-06)
(0.000125992 -8.14411e-06 1.29866e-05)
(8.31739e-05 -5.35142e-06 1.28833e-05)
(5.75167e-05 -3.59065e-06 1.77234e-05)
(5.75167e-05 -3.59065e-06 1.77234e-05)
(5.75167e-05 -3.59065e-06 1.77234e-05)
(0.00166379 8.36284e-05 -0.000133475)
(0.000974049 3.6073e-05 -6.5187e-05)
(0.000575971 1.06592e-05 -2.93807e-05)
(0.000354912 -3.91443e-06 -3.84367e-06)
(0.000223084 -7.91876e-06 6.28574e-06)
(0.000155265 -1.29254e-05 1.39595e-05)
(0.000104187 -1.2071e-05 1.09667e-05)
(0.000104187 -1.2071e-05 1.09667e-05)
(0.000104187 -1.2071e-05 1.09667e-05)
(0.00171787 8.7865e-05 -0.000133751)
(0.00103474 4.2434e-05 -6.95469e-05)
(0.000631218 1.33232e-05 -3.4414e-05)
(0.000406056 -3.40063e-06 -7.9434e-06)
(0.000266341 -1.01395e-05 5.93458e-06)
(0.000194682 -1.59237e-05 1.45407e-05)
(0.000194682 -1.59237e-05 1.45407e-05)
)
;
    }
    procBoundary6to4
    {
        type            processor;
        value           nonuniform List<vector> 
27
(
(0.00160332 -1.60435e-05 -6.86162e-05)
(0.000898299 -4.21838e-06 -3.52319e-05)
(0.000508438 -2.37696e-06 -1.7175e-05)
(0.000289753 3.56834e-07 -3.79444e-06)
(0.000169804 9.97431e-07 2.61301e-06)
(0.000100291 8.55971e-07 5.15312e-06)
(6.2091e-05 1.6426e-06 5.98913e-06)
(3.64253e-05 3.63268e-06 7.97657e-06)
(1.90796e-05 2.08648e-06 5.68587e-06)
(0.00163211 -1.42781e-05 -2.48765e-06)
(0.00092705 -4.06332e-06 -7.16259e-06)
(0.000527468 -2.68365e-06 -9.73248e-06)
(0.000307417 -7.9468e-07 -7.12521e-06)
(0.000178407 -7.52392e-07 -3.18183e-06)
(0.000111499 -9.23571e-07 -2.64194e-06)
(6.46458e-05 -8.25341e-07 -1.99771e-06)
(4.38203e-05 -2.14281e-06 -4.50159e-06)
(1.64827e-05 -2.06276e-06 -2.35876e-06)
(0.0016757 -1.20573e-05 1.79973e-05)
(0.000974263 -7.12652e-06 3.32749e-06)
(0.000566521 -4.36618e-06 -5.35456e-06)
(0.000343384 -2.04305e-06 -7.04544e-06)
(0.00020458 -1.89035e-06 -5.17927e-06)
(0.000134323 -2.66283e-06 -4.50066e-06)
(7.93599e-05 -2.83995e-06 -6.4314e-06)
(5.76964e-05 -5.1731e-06 -9.18348e-06)
(2.19554e-05 -7.96595e-06 -6.71375e-06)
)
;
    }
    procBoundary6to7
    {
        type            processor;
        value           nonuniform List<vector> 
12
(
(2.28487e-05 4.70614e-08 1.21611e-05)
(5.15583e-05 -8.20384e-06 7.34393e-06)
(7.66197e-05 -1.52408e-05 -1.96279e-06)
(3.35607e-06 -2.50448e-06 4.73437e-06)
(1.39104e-05 -8.99377e-06 -5.13769e-07)
(2.8892e-05 -1.83631e-05 -5.56782e-06)
(-3.75533e-06 -3.73913e-06 -6.99196e-06)
(1.75079e-05 -1.25066e-05 -1.44431e-05)
(3.16835e-05 -1.97086e-05 -1.69992e-05)
(-8.43525e-06 -5.4014e-06 -1.85838e-05)
(1.01563e-05 -8.25384e-06 -2.26164e-05)
(2.43341e-05 -1.75362e-05 -2.44448e-05)
)
;
    }
}


// ************************************************************************* //
