/*--------------------------------*- C++ -*----------------------------------*\
| =========                 |                                                 |
| \\      /  F ield         | OpenFOAM: The Open Source CFD Toolbox           |
|  \\    /   O peration     | Version:  4.x                                   |
|   \\  /    A nd           | Web:      www.OpenFOAM.org                      |
|    \\/     M anipulation  |                                                 |
\*---------------------------------------------------------------------------*/
FoamFile
{
    version     2.0;
    format      ascii;
    class       volScalarField;
    location    "29.5";
    object      Ksl;
}
// * * * * * * * * * * * * * * * * * * * * * * * * * * * * * * * * * * * * * //

dimensions      [1 -3 -1 0 0 0 0];

internalField   nonuniform List<scalar> 
87
(
3869.65
16652.1
3637.15
3258.13
6789.06
3179.46
3575.51
11939.7
3826.92
21698.8
3924.55
54638.5
3935.73
1e+10
3923.5
3487.22
10659.4
3680.37
15185.1
3768.71
24016.6
3788.96
52513.7
3778.08
3373.23
8063.14
3387.17
7851.71
3408.55
8085.61
3379.23
8158.94
3341.9
3534.04
10381.7
3720.42
14262.3
3765.91
20823.9
3796.43
37547.2
3764.06
3447.76
9076.17
3573.22
10053.1
3598.24
11130.1
3612.65
12841.9
3557.32
3368.82
7489.61
3308.35
6906.54
3271.56
6611.49
3225.35
6434.22
3156.3
3435.05
8072.15
3470.11
8197.67
3437.43
8440.85
3445.55
9026.87
3388.58
3372.72
7533.43
3345.84
7039.66
3291.89
6773.13
3258.36
6733.86
3182.98
3321.13
6934.25
3200.79
5987.46
3065.68
5449.68
3008.77
5180.02
2948.75
)
;

boundaryField
{
    inlet
    {
        type            zeroGradient;
    }
    outlet
    {
        type            zeroGradient;
    }
    wall
    {
        type            zeroGradient;
    }
    procBoundary6to0
    {
        type            processor;
        value           uniform 3901.39;
    }
    procBoundary6to2
    {
        type            processor;
        value           nonuniform List<scalar> 
32
(
3738.25
27633.5
3719.47
3282.24
6834.76
3186.84
3530.21
11134.8
3777.87
16341.4
3850.83
24839.8
3866.18
41746
41746
41746
3479.22
9836.88
3675.48
11942.7
3720.3
14247.7
3695.41
3695.41
3695.41
3372.02
7916.56
3405.08
7501.27
3353.22
7096.44
7096.44
)
;
    }
    procBoundary6to4
    {
        type            processor;
        value           nonuniform List<scalar> 
27
(
3501.31
11111.2
3809.85
17861.5
3915.36
34618.8
3958.19
115758
3916.6
3506.8
10467.7
3725.45
15215.1
3801.63
23410.3
3769.85
37454.7
3664.93
3471.26
8483.74
3506.6
8749.69
3478.26
8582.41
3358.11
8132.4
3248.46
)
;
    }
    procBoundary6to7
    {
        type            processor;
        value           nonuniform List<scalar> 
12
(
73969.2
17907.8
6753.85
1e+10
373190
8910.46
245872
14690.8
6254.45
10213.8
6801.76
5064.34
)
;
    }
}


// ************************************************************************* //
