/*--------------------------------*- C++ -*----------------------------------*\
| =========                 |                                                 |
| \\      /  F ield         | OpenFOAM: The Open Source CFD Toolbox           |
|  \\    /   O peration     | Version:  4.x                                   |
|   \\  /    A nd           | Web:      www.OpenFOAM.org                      |
|    \\/     M anipulation  |                                                 |
\*---------------------------------------------------------------------------*/
FoamFile
{
    version     2.0;
    format      ascii;
    class       volScalarField;
    location    "29.5";
    object      QWallFluid;
}
// * * * * * * * * * * * * * * * * * * * * * * * * * * * * * * * * * * * * * //

dimensions      [1 -1 -3 0 0 0 0];

internalField   nonuniform List<scalar> 
87
(
0
0
0
8.67021e+08
4.79553e+08
8.81893e+08
0
0
0
0
0
0
0
0
0
0
0
0
0
0
0
0
0
0
8.26169e+08
4.11865e+08
8.31349e+08
4.22747e+08
8.29961e+08
4.13077e+08
8.33734e+08
4.07394e+08
8.37305e+08
0
0
0
0
0
0
0
0
0
0
0
0
0
0
0
0
0
0
8.22856e+08
4.33083e+08
8.39564e+08
4.63582e+08
8.48268e+08
4.81326e+08
8.60761e+08
4.92362e+08
8.73641e+08
8.1405e+08
4.10821e+08
8.15013e+08
4.05294e+08
8.13958e+08
3.94165e+08
8.11402e+08
3.70283e+08
8.16822e+08
8.19573e+08
4.32147e+08
8.32395e+08
4.57435e+08
8.41209e+08
4.7073e+08
8.51614e+08
4.72452e+08
8.59517e+08
1.65354e+09
9.13688e+08
1.7085e+09
1.02958e+09
1.76615e+09
1.11187e+09
1.80941e+09
1.16583e+09
1.83193e+09
)
;

boundaryField
{
    inlet
    {
        type            calculated;
        value           uniform 0;
    }
    outlet
    {
        type            calculated;
        value           nonuniform 0();
    }
    wall
    {
        type            calculated;
        value           uniform 0;
    }
    procBoundary6to0
    {
        type            processor;
        value           uniform 0;
    }
    procBoundary6to2
    {
        type            processor;
        value           nonuniform List<scalar> 
32
(
0
0
0
8.77202e+08
4.85671e+08
8.95245e+08
0
0
0
0
0
0
0
0
0
0
0
0
0
0
0
0
0
0
0
8.26156e+08
4.19689e+08
8.38479e+08
4.43283e+08
8.51885e+08
4.63283e+08
4.63283e+08
)
;
    }
    procBoundary6to4
    {
        type            processor;
        value           nonuniform List<scalar> 
27
(
0
0
0
0
0
0
0
0
0
0
0
0
0
0
0
0
0
0
8.06118e+08
3.94038e+08
8.08171e+08
3.85477e+08
8.11735e+08
3.88682e+08
8.26121e+08
4.03688e+08
8.40083e+08
)
;
    }
    procBoundary6to7
    {
        type            processor;
        value           nonuniform List<scalar> 
12
(
0
0
4.79359e+08
0
0
3.77913e+08
0
0
4.99603e+08
3.33649e+08
4.63656e+08
1.17104e+09
)
;
    }
}


// ************************************************************************* //
