/*--------------------------------*- C++ -*----------------------------------*\
| =========                 |                                                 |
| \\      /  F ield         | OpenFOAM: The Open Source CFD Toolbox           |
|  \\    /   O peration     | Version:  4.x                                   |
|   \\  /    A nd           | Web:      www.OpenFOAM.org                      |
|    \\/     M anipulation  |                                                 |
\*---------------------------------------------------------------------------*/
FoamFile
{
    version     2.0;
    format      ascii;
    class       volVectorField;
    location    "29.5";
    object      Us;
}
// * * * * * * * * * * * * * * * * * * * * * * * * * * * * * * * * * * * * * //

dimensions      [0 1 -1 0 0 0 0];

internalField   nonuniform List<vector> 
87
(
(-7.61094e-10 -9.99686e-10 -1.4126e-09)
(1.90929e-09 -3.04071e-10 -1.80862e-09)
(1.05851e-09 -6.04851e-10 -1.46164e-09)
(1.29159e-09 -2.07214e-10 -9.20744e-10)
(1.40721e-09 -3.06131e-10 -1.04849e-09)
(7.43296e-10 -1.58693e-11 -6.62486e-10)
(-2.7631e-10 3.10507e-10 -6.52796e-10)
(-8.88987e-10 5.56246e-10 -1.21897e-09)
(-1.76245e-09 7.41236e-10 -1.18901e-09)
(-2.57483e-09 5.86775e-10 -1.95209e-09)
(-2.91855e-09 4.19502e-10 -3.09215e-09)
(-2.20952e-09 3.48079e-10 -1.88362e-09)
(-2.02161e-09 7.92427e-11 -1.58034e-09)
(-1.37717e-09 2.57063e-10 -1.72135e-09)
(-1.24142e-09 -8.43164e-10 -1.24596e-09)
(1.1901e-10 1.9268e-10 -1.91947e-10)
(1.26009e-10 4.45418e-10 -1.02676e-09)
(-4.98779e-10 7.7203e-10 -1.00408e-09)
(-3.37623e-10 5.19926e-10 -1.51137e-09)
(2.3122e-10 9.23477e-10 -1.67231e-09)
(3.40505e-10 3.13409e-10 -1.67249e-09)
(3.98993e-10 1.52135e-10 -9.38166e-10)
(6.47119e-10 -8.53236e-11 -1.56007e-09)
(1.13254e-09 -4.59478e-10 -1.21245e-09)
(-2.27513e-11 1.16684e-11 -1.947e-10)
(-2.48243e-10 -2.30141e-11 -7.70236e-10)
(1.56449e-10 1.12127e-10 -4.49081e-10)
(3.31498e-10 8.34185e-12 -8.28054e-10)
(3.80189e-10 -1.3971e-11 -6.47607e-10)
(7.77688e-10 8.69659e-11 -8.76427e-10)
(1.14147e-09 4.03407e-11 -9.75048e-10)
(1.24417e-09 -5.76146e-11 -7.53336e-10)
(2.1567e-09 -1.67554e-10 -3.59006e-10)
(-3.75457e-11 2.44308e-10 -2.55016e-10)
(-1.04061e-09 7.05356e-10 -5.35178e-10)
(-1.78382e-09 7.00509e-10 -2.56572e-10)
(-1.8708e-09 5.66714e-10 -9.53036e-10)
(-2.19667e-09 2.4366e-10 -1.20755e-09)
(-2.41694e-09 8.009e-10 -1.12163e-09)
(-1.87807e-09 3.63061e-10 -1.09317e-09)
(-1.48934e-09 6.14902e-10 -1.11532e-09)
(-6.72496e-10 -4.23879e-11 -1.03384e-09)
(-4.64767e-11 3.5389e-10 -1.29284e-10)
(-4.82373e-10 8.55716e-10 -5.13157e-10)
(-7.02495e-10 8.64132e-10 -7.60861e-10)
(-7.93511e-10 7.15291e-10 -1.0381e-09)
(-8.24305e-10 3.77049e-10 -7.59163e-10)
(-5.55052e-11 5.80215e-10 -9.71072e-10)
(2.83957e-11 2.47176e-10 -9.92254e-10)
(9.27679e-10 -7.35445e-10 -1.44489e-09)
(6.87678e-10 -3.08873e-10 -1.04445e-09)
(2.75704e-10 -3.75904e-11 -3.12472e-10)
(-5.46561e-10 -2.83447e-10 -6.83601e-10)
(-3.1944e-11 2.70556e-10 -7.82003e-10)
(-3.33813e-11 1.83595e-12 -5.35859e-10)
(7.49198e-11 -1.55651e-12 -3.40366e-10)
(4.35115e-10 -4.06055e-11 -4.1745e-10)
(4.31602e-10 -2.89898e-11 -5.04934e-10)
(1.02937e-09 -2.50202e-10 -8.1492e-10)
(8.72985e-10 -4.56506e-10 -4.90135e-10)
(-7.5908e-11 1.82404e-10 -4.33063e-11)
(-1.75647e-10 4.02271e-10 -1.01626e-10)
(-7.49517e-10 2.3026e-10 2.45266e-11)
(-8.59073e-10 2.96972e-10 -2.36268e-10)
(-1.18172e-09 3.60655e-10 -8.80374e-11)
(-1.48666e-09 6.20299e-10 -2.39626e-10)
(-8.77932e-10 3.88882e-10 -1.68802e-10)
(-8.06277e-11 2.01738e-10 -3.97839e-10)
(7.21053e-10 1.9853e-10 -2.31833e-10)
(-4.46675e-10 -1.64843e-11 -2.26395e-11)
(-1.65061e-10 3.64611e-10 -1.01131e-10)
(-9.60506e-11 4.75624e-10 -6.82747e-11)
(-1.12343e-10 2.22183e-10 -2.35823e-10)
(-4.591e-10 3.63614e-10 -1.31784e-10)
(-2.59198e-12 2.29177e-10 -3.82484e-10)
(3.69872e-10 3.82595e-10 -3.78945e-10)
(2.09265e-09 -5.67762e-10 -7.05413e-10)
(1.09452e-09 4.26456e-10 -4.20872e-10)
(-5.89296e-10 -5.6304e-10 5.4263e-11)
(4.67205e-11 3.09093e-11 -6.28604e-11)
(-1.25556e-11 1.66619e-10 -1.99745e-10)
(6.78058e-11 1.10061e-11 1.79935e-12)
(1.10626e-10 -2.31146e-11 -6.09757e-11)
(3.83536e-10 -2.80357e-11 -1.54723e-10)
(5.88684e-10 -2.17254e-10 -1.56075e-10)
(9.35664e-10 -1.30368e-10 -3.94477e-10)
(7.90543e-10 -1.59023e-10 -4.41482e-10)
)
;

boundaryField
{
    inlet
    {
        type            zeroGradient;
    }
    outlet
    {
        type            zeroGradient;
    }
    wall
    {
        type            zeroGradient;
    }
    procBoundary6to0
    {
        type            processor;
        value           uniform (-5.42927e-10 -1.54749e-09 -1.00314e-09);
    }
    procBoundary6to2
    {
        type            processor;
        value           nonuniform List<vector> 
32
(
(1.77807e-09 -1.88289e-09 -1.69445e-09)
(2.96965e-09 -1.22013e-09 -1.65789e-09)
(2.31503e-09 -3.46602e-10 -1.19087e-09)
(2.24811e-09 -2.8789e-10 -1.24688e-09)
(2.03463e-09 -3.89587e-10 -1.01675e-09)
(1.97497e-09 4.87145e-11 -8.17175e-10)
(-4.67195e-11 2.95265e-10 -8.51291e-10)
(-3.98353e-10 8.78882e-10 -1.95248e-09)
(-2.39839e-10 9.60083e-10 -2.58143e-09)
(-3.34517e-10 7.57799e-10 -2.68079e-09)
(3.56475e-10 1.38536e-10 -3.16912e-09)
(-3.04122e-11 2.06655e-10 -2.69599e-09)
(8.58671e-10 3.74354e-10 -1.94265e-09)
(-8.58395e-10 -7.35891e-10 -2.11779e-09)
(-8.58395e-10 -7.35891e-10 -2.11779e-09)
(-8.58395e-10 -7.35891e-10 -2.11779e-09)
(9.6988e-11 1.69495e-10 -4.62129e-10)
(2.45273e-11 6.7918e-10 -1.6742e-09)
(4.3498e-10 8.20453e-10 -1.78021e-09)
(4.91086e-10 3.55319e-10 -1.99947e-09)
(1.30372e-09 6.2007e-10 -2.49766e-09)
(1.50838e-09 -5.62869e-11 -2.07254e-09)
(1.93989e-09 9.1356e-11 -1.49181e-09)
(1.93989e-09 9.1356e-11 -1.49181e-09)
(1.93989e-09 9.1356e-11 -1.49181e-09)
(1.16857e-10 2.69953e-11 -2.93659e-10)
(3.30146e-10 4.03287e-11 -8.71866e-10)
(8.04867e-10 2.98809e-10 -1.29513e-09)
(7.60833e-10 1.85635e-10 -1.05145e-09)
(9.53986e-10 1.73606e-10 -1.28949e-09)
(9.88637e-10 -1.11387e-10 -9.14373e-10)
(9.88637e-10 -1.11387e-10 -9.14373e-10)
)
;
    }
    procBoundary6to4
    {
        type            processor;
        value           nonuniform List<vector> 
27
(
(-2.50388e-10 4.61987e-11 -7.00303e-10)
(-9.76654e-10 6.34201e-11 -9.57962e-10)
(-2.18833e-09 7.79589e-11 -9.47202e-10)
(-3.6747e-09 2.1109e-10 -1.5907e-09)
(-4.50096e-09 -3.97784e-10 -2.57895e-09)
(-4.91581e-09 -1.4745e-10 -3.15637e-09)
(-5.11741e-09 1.46782e-09 -1.43521e-09)
(-4.51842e-09 -3.79637e-10 -2.62081e-09)
(-2.85797e-09 8.68454e-11 -2.31437e-09)
(-2.00262e-10 1.5441e-10 -2.3891e-10)
(-6.16834e-10 1.63037e-10 -3.67564e-10)
(-1.63541e-09 2.29369e-10 -3.5214e-10)
(-2.10838e-09 1.56618e-10 -7.16912e-10)
(-2.81592e-09 8.05177e-11 -1.27299e-09)
(-3.45157e-09 5.67104e-10 -1.12593e-09)
(-2.83025e-09 3.38033e-10 -3.69328e-10)
(-2.26135e-09 4.45549e-13 -1.17957e-09)
(-7.61422e-10 9.9994e-10 -1.45214e-09)
(-1.93784e-10 1.74506e-10 7.39458e-11)
(-3.03351e-10 1.3398e-10 1.39952e-10)
(-8.29261e-10 -2.09773e-10 6.25137e-11)
(-7.30101e-10 1.03658e-10 -3.09791e-10)
(-1.09337e-09 3.10632e-10 -2.59042e-10)
(-1.14413e-09 6.62419e-10 -9.87984e-11)
(-4.44506e-10 2.84332e-10 -4.61216e-11)
(1.61475e-08 -9.57806e-09 -4.4771e-10)
(1.03966e-09 5.38498e-10 -3.61171e-10)
)
;
    }
    procBoundary6to7
    {
        type            processor;
        value           nonuniform List<vector> 
12
(
(-7.28339e-10 -1.19122e-09 -2.71993e-09)
(5.47463e-10 -1.19082e-09 -2.27079e-09)
(2.5385e-09 -1.11071e-09 -1.52331e-09)
(2.23873e-10 -6.86979e-10 -2.35509e-09)
(1.53278e-09 -8.06706e-10 -2.01407e-09)
(2.98444e-09 -8.15127e-10 -1.36577e-09)
(1.36918e-09 9.49597e-10 -1.44381e-09)
(2.21765e-09 -3.04036e-10 -1.63743e-09)
(2.15796e-09 -5.59672e-10 -1.19252e-09)
(1.64794e-09 1.06571e-09 -5.19553e-10)
(1.43267e-09 2.05919e-10 -5.94345e-10)
(8.95319e-10 -6.91168e-10 -1.29671e-10)
)
;
    }
}


// ************************************************************************* //
