/*--------------------------------*- C++ -*----------------------------------*\
| =========                 |                                                 |
| \\      /  F ield         | OpenFOAM: The Open Source CFD Toolbox           |
|  \\    /   O peration     | Version:  4.x                                   |
|   \\  /    A nd           | Web:      www.OpenFOAM.org                      |
|    \\/     M anipulation  |                                                 |
\*---------------------------------------------------------------------------*/
FoamFile
{
    version     2.0;
    format      ascii;
    class       volScalarField;
    location    "32.5";
    object      Ksl;
}
// * * * * * * * * * * * * * * * * * * * * * * * * * * * * * * * * * * * * * //

dimensions      [1 -3 -1 0 0 0 0];

internalField   nonuniform List<scalar> 
108
(
3379.33
7964.89
3387.59
7629.44
3371.65
7350.9
3310.11
7231.47
3189.61
3470.47
9988.13
3653.19
13049.1
3708.37
16447.8
3688.92
21772.4
3620.12
3506.34
11241.3
3762.7
17799.8
3823.95
30176.6
3797.93
85531.8
3725.77
3494.81
11272.9
3802.29
18950.5
3900.11
44098.6
3921.56
650934
3851.83
3367.69
7804.58
3354.95
7477.01
3355.72
7166.25
3286.68
7182.55
3236.5
3449.42
8944.61
3540.62
9839.51
3573.47
10854
3560.89
12700.4
3528.43
3467.89
10113.3
3685.03
13737.5
3760.55
19092.6
3734.84
28335.4
3690.34
3496.98
10519.2
3710.53
15071
3781.1
22202.9
3748.61
32824
3652.25
3318.68
6963.18
3168.11
5975.69
3103.98
5560.25
3031.25
5254.52
2904.85
3370.6
7718.99
3353.55
7085.74
3287.35
6680.87
3195.73
6384.42
3080.57
3423.35
8309.79
3456.76
8255.28
3431.78
8064.84
3336.51
7791.89
3233.61
3464.64
8493.2
3494.65
8670
3459.43
8366.64
3330.05
7781.97
3209.54
)
;

boundaryField
{
    inlet
    {
        type            zeroGradient;
    }
    outlet
    {
        type            zeroGradient;
    }
    wall
    {
        type            zeroGradient;
    }
    procBoundary4to0
    {
        type            processor;
        value           nonuniform List<scalar> 
36
(
3391.12
8109.47
3391.76
7594.25
3360.99
7392.57
3334.03
7325.31
3273.36
3463.27
10047.9
3625.96
12082.5
3686.22
14616.3
3729.32
19802.1
3705.85
3521.14
11255.7
3773.56
18983.8
3907.93
47043
3994.03
973069
4005.81
3519.29
11536.8
3817.89
20922.6
3924.87
49329.1
3962.22
264304
3912.69
)
;
    }
    procBoundary4to5
    {
        type            processor;
        value           nonuniform List<scalar> 
12
(
7341.12
40787.1
1e+10
1e+10
7427.55
14746.3
59791.9
47317.1
4889.48
6172.92
7779.92
7730.14
)
;
    }
    procBoundary4to6
    {
        type            processor;
        value           nonuniform List<scalar> 
27
(
3566.14
12129.8
3817.81
22982.6
3915.75
67501.2
3929.27
1e+10
3909.85
3519.09
10603
3708.38
15023.6
3757.1
23564.2
3788.64
50949.2
3754.01
3425.12
8130.5
3459.32
8240.47
3424.36
8452.32
3427.1
9064.6
3363.41
)
;
    }
}


// ************************************************************************* //
