/*--------------------------------*- C++ -*----------------------------------*\
| =========                 |                                                 |
| \\      /  F ield         | OpenFOAM: The Open Source CFD Toolbox           |
|  \\    /   O peration     | Version:  4.x                                   |
|   \\  /    A nd           | Web:      www.OpenFOAM.org                      |
|    \\/     M anipulation  |                                                 |
\*---------------------------------------------------------------------------*/
FoamFile
{
    version     2.0;
    format      ascii;
    class       volScalarField;
    location    "32.5";
    object      p;
}
// * * * * * * * * * * * * * * * * * * * * * * * * * * * * * * * * * * * * * //

dimensions      [1 -1 -2 0 0 0 0];

internalField   nonuniform List<scalar> 
108
(
-1767.27
-1784.7
-1774.38
-1802.62
-1781.78
-1820.91
-1789.1
-1839.49
-1796.21
-1766.63
-1784.4
-1773.76
-1802.4
-1781.31
-1820.82
-1788.73
-1839.34
-1795.87
-1766.16
-1784.08
-1773.39
-1802.07
-1781.04
-1820.37
-1788.53
-1838.65
-1795.92
-1765.98
-1783.8
-1773.15
-1801.68
-1780.76
-1819.82
-1788.45
-1838.04
-1796
-3645.08
-3662.43
-3652.11
-3680.19
-3659.49
-3698.45
-3666.72
-3716.74
-3673.86
-3644.58
-3662.23
-3651.73
-3680.07
-3659.17
-3698.34
-3666.49
-3716.77
-3673.73
-3644.09
-3661.81
-3651.23
-3679.8
-3658.76
-3698.14
-3666.25
-3716.47
-3673.51
-3643.85
-3661.82
-3651.12
-3679.68
-3658.79
-3698.11
-3666.41
-3716.69
-3673.75
-5523.29
-5540.6
-5530.37
-5558.15
-5537.64
-5576.35
-5545.01
-5594.89
-5552.21
-5522.82
-5540.37
-5530.05
-5558.11
-5537.43
-5576.37
-5544.86
-5594.85
-5552.02
-5522.39
-5540.08
-5529.66
-5557.95
-5537.16
-5576.17
-5544.62
-5594.57
-5551.82
-5522.15
-5540.08
-5529.5
-5557.85
-5537.14
-5576.28
-5544.75
-5594.63
-5551.9
)
;

boundaryField
{
    inlet
    {
        type            calculated;
        value           nonuniform List<scalar> 
12
(
-1767.27
-1766.63
-1766.16
-1765.98
-3645.08
-3644.58
-3644.09
-3643.85
-5523.29
-5522.82
-5522.39
-5522.15
)
;
    }
    outlet
    {
        type            calculated;
        value           nonuniform 0();
    }
    wall
    {
        type            calculated;
        value           nonuniform List<scalar> 
63
(
-6462.25
-6461.78
-6461.34
-6461.11
-6479.55
-6479.33
-6479.04
-6479.04
-6469.33
-6469.01
-6468.61
-6468.45
-6497.1
-6497.07
-6496.91
-6496.8
-6476.6
-6476.39
-6476.11
-6476.09
-6515.31
-6515.32
-6515.13
-6515.24
-6483.97
-6483.81
-6483.58
-6483.71
-6533.85
-6533.81
-6533.53
-6533.59
-6491.17
-6490.97
-6490.77
-6490.85
-1767.27
-3645.08
-5523.29
-1784.7
-3662.43
-5540.6
-1774.38
-3652.11
-5530.37
-1802.62
-3680.19
-5558.15
-1781.78
-3659.49
-5537.64
-1820.91
-3698.45
-5576.35
-1789.1
-3666.72
-5545.01
-1839.49
-3716.74
-5594.89
-1796.21
-3673.86
-5552.21
)
;
    }
    procBoundary4to0
    {
        type            processor;
        value           nonuniform List<scalar> 
36
(
110.474
93.1995
103.45
75.2681
96.1596
56.9977
88.9049
38.6905
82.0498
111.043
93.4673
103.937
75.4046
96.5354
57.145
89.2677
38.6592
82.2659
111.47
93.8367
104.462
75.8907
97.0275
57.7702
89.4703
39.8463
82.0381
111.655
93.9519
104.591
75.9725
96.9956
58.0114
89.3562
39.9883
81.9887
)
;
    }
    procBoundary4to5
    {
        type            processor;
        value           nonuniform List<scalar> 
12
(
-1858.52
-1858.28
-1857.04
-1855.91
-3735.56
-3735.68
-3734.95
-3735.04
-5613.77
-5613.73
-5613.09
-5613.12
)
;
    }
    procBoundary4to6
    {
        type            processor;
        value           nonuniform List<scalar> 
27
(
-1765.89
-1784.14
-1773.2
-1801.8
-1780.85
-1820.01
-1788.53
-1838.07
-1795.95
-3643.88
-3661.95
-3651.18
-3679.82
-3658.7
-3697.92
-3666.17
-3716.23
-3673.45
-5522.31
-5540.07
-5529.52
-5557.82
-5537.01
-5575.94
-5544.42
-5594.37
-5551.57
)
;
    }
}


// ************************************************************************* //
