/*--------------------------------*- C++ -*----------------------------------*\
| =========                 |                                                 |
| \\      /  F ield         | OpenFOAM: The Open Source CFD Toolbox           |
|  \\    /   O peration     | Version:  4.x                                   |
|   \\  /    A nd           | Web:      www.OpenFOAM.org                      |
|    \\/     M anipulation  |                                                 |
\*---------------------------------------------------------------------------*/
FoamFile
{
    version     2.0;
    format      ascii;
    class       surfaceScalarField;
    location    "32.5";
    object      phi;
}
// * * * * * * * * * * * * * * * * * * * * * * * * * * * * * * * * * * * * * //

dimensions      [0 3 -1 0 0 0 0];

internalField   nonuniform List<scalar> 
249
(
8.36025e-06
-4.86749e-07
-7.97818e-08
8.40903e-06
-2.25498e-07
-6.31071e-08
8.60685e-06
-5.07277e-07
-7.40442e-08
8.66253e-06
-1.82143e-07
-1.20317e-07
8.82825e-06
-3.78284e-07
-6.91667e-08
8.84744e-06
-1.17961e-07
-1.2138e-07
8.94389e-06
-2.7442e-07
-6.08728e-08
8.9501e-06
-1.099e-07
-1.32355e-07
-1.88348e-07
1.53682e-08
7.78776e-06
-4.7747e-07
-9.50156e-09
7.61757e-06
-2.36382e-07
-1.67454e-08
7.20086e-06
-5.00447e-07
4.84667e-08
7.06466e-06
-1.70444e-07
-3.72883e-08
6.79833e-06
-3.84899e-07
4.21369e-08
6.73358e-06
-1.21263e-07
-4.43267e-08
6.50382e-06
-2.49208e-07
5.46716e-08
6.42282e-06
-8.41949e-08
-4.45168e-08
-5.56058e-08
1.14263e-07
7.56236e-06
-2.6132e-07
-3.45168e-09
7.25664e-06
-1.11716e-07
-1.20201e-08
6.63174e-06
-2.50748e-07
5.66523e-08
6.45632e-06
-9.68788e-08
3.48008e-09
6.04271e-06
-2.14654e-07
7.5701e-08
5.9457e-06
-6.8155e-08
1.13565e-08
5.59298e-06
-9.20212e-08
5.19046e-08
5.525e-06
-2.44919e-08
1.42883e-08
3.81455e-08
-4.61354e-08
7.55963e-06
-2.40731e-08
7.18915e-06
3.49525e-08
6.49693e-06
9.74516e-08
6.25787e-06
2.72007e-08
5.70164e-06
1.34544e-07
5.53497e-06
5.98206e-08
5.19002e-06
1.27015e-07
5.11792e-06
4.08041e-08
1.92103e-08
8.3823e-06
-4.15535e-07
1.16719e-07
8.45644e-06
-2.08426e-07
7.11804e-08
8.63549e-06
-4.11517e-07
1.58417e-07
8.6618e-06
-1.53641e-07
7.02145e-09
8.84235e-06
-3.27701e-07
7.7977e-08
8.87029e-06
-1.19049e-07
-3.02674e-08
8.92447e-06
-2.22409e-07
1.07351e-07
8.83218e-06
-6.00783e-08
2.00166e-08
-1.41121e-07
1.65022e-07
8.03213e-06
-4.63137e-07
1.69238e-07
7.95367e-06
-2.29449e-07
8.27303e-08
7.81087e-06
-4.68881e-07
2.48633e-07
7.72168e-06
-1.62866e-07
6.11321e-08
7.58315e-06
-3.39065e-07
1.92028e-07
7.48538e-06
-9.97727e-08
3.41652e-08
7.28438e-06
-1.74045e-07
2.07308e-07
7.18488e-06
-5.14094e-08
4.63202e-08
-9.84296e-08
1.96077e-07
7.76102e-06
-2.57424e-07
1.93082e-07
7.50122e-06
-8.46852e-08
1.0302e-07
7.02185e-06
-2.05215e-07
2.72351e-07
6.8386e-06
-6.23729e-08
8.62398e-08
6.47995e-06
-1.34971e-07
2.30257e-07
6.3735e-06
-3.94393e-08
5.74748e-08
6.1042e-06
-5.63164e-08
2.03468e-07
6.01872e-06
-1.62261e-08
6.45881e-08
-1.83651e-08
1.39049e-07
7.62388e-06
1.79055e-07
7.37643e-06
1.32713e-07
6.83671e-06
2.92081e-07
6.64845e-06
1.09085e-07
6.27228e-06
2.85693e-07
6.17882e-06
1.14396e-07
5.96019e-06
2.71859e-07
5.92542e-06
7.30357e-08
1.0062e-07
8.6676e-06
-3.8762e-07
8.95116e-06
-2.12378e-07
9.4771e-06
-3.67525e-07
9.62614e-06
-1.4201e-07
9.94341e-06
-2.39298e-07
1.00103e-05
-9.71088e-08
1.02957e-05
-1.78125e-07
1.04295e-05
-1.13752e-07
-1.96139e-07
8.37204e-06
-4.27154e-07
8.46235e-06
-2.19958e-07
8.76413e-06
-4.20673e-07
8.85598e-06
-1.72727e-07
9.0789e-06
-2.70187e-07
9.12663e-06
-1.10681e-07
9.32643e-06
-1.70612e-07
9.38885e-06
-1.29852e-07
-1.85342e-07
8.13282e-06
-2.03627e-07
8.10598e-06
-9.01026e-08
8.17274e-06
-2.15074e-07
8.18787e-06
-1.01623e-07
8.30133e-06
-1.53394e-07
8.32345e-06
-7.5324e-08
8.46246e-06
-1.06151e-07
8.47871e-06
-8.15134e-08
-1.2529e-07
8.01967e-06
8.01602e-06
8.01599e-06
8.00983e-06
8.13123e-06
8.2051e-06
8.44707e-06
8.50186e-06
)
;

boundaryField
{
    inlet
    {
        type            calculated;
        value           nonuniform List<scalar> 
12
(
-8.16327e-06
-8.16327e-06
-8.16327e-06
-8.16327e-06
-8.16327e-06
-8.16327e-06
-8.16327e-06
-8.16327e-06
-8.16327e-06
-8.16327e-06
-8.16327e-06
-8.16327e-06
)
;
    }
    outlet
    {
        type            calculated;
        value           nonuniform 0();
    }
    wall
    {
        type            calculated;
        value           nonuniform List<scalar> 
63
(
0
0
0
0
0
0
0
0
0
0
0
0
0
0
0
0
0
0
0
2.46519e-32
0
0
0
0
0
0
0
-2.46519e-32
0
0
0
0
0
0
0
0
0
0
0
0
0
0
0
0
0
0
0
0
0
0
0
0
0
0
0
0
0
0
0
0
0
0
0
)
;
    }
    procBoundary4to0
    {
        type            processor;
        value           nonuniform List<scalar> 
36
(
3.6955e-07
2.39827e-07
3.83501e-07
2.46775e-07
2.81727e-07
2.20157e-07
2.38839e-07
2.36045e-07
1.33795e-07
3.75724e-07
1.97823e-07
3.61414e-07
1.61784e-07
2.30814e-07
1.12383e-07
1.49872e-07
9.98102e-08
8.14843e-08
3.88204e-07
1.93078e-07
3.18551e-07
9.83687e-08
1.67669e-07
3.25395e-08
1.43633e-07
-6.00865e-09
1.07376e-07
3.63013e-07
1.77882e-07
2.96193e-07
1.06085e-07
1.95011e-07
3.62347e-08
1.31005e-07
8.07671e-09
3.43881e-08
)
;
    }
    procBoundary4to5
    {
        type            processor;
        value           nonuniform List<scalar> 
12
(
8.98929e-06
6.09433e-06
5.37001e-06
5.15994e-06
8.82365e-06
7.06037e-06
5.75347e-06
5.84246e-06
1.07907e-05
9.57413e-06
8.5577e-06
8.58194e-06
)
;
    }
    procBoundary4to6
    {
        type            processor;
        value           nonuniform List<scalar> 
27
(
3.37129e-09
4.5931e-08
4.7828e-08
8.89817e-09
1.20236e-08
2.45181e-09
-5.08591e-09
-1.27981e-09
-5.74684e-08
7.88337e-08
6.50004e-08
1.39875e-07
4.4004e-08
9.00576e-08
-5.62117e-10
1.74724e-08
-1.36906e-08
-1.6807e-08
1.19023e-07
4.62644e-08
7.70387e-08
1.36207e-08
1.08995e-08
-3.48061e-08
-7.62623e-08
-6.3264e-08
-1.0475e-07
)
;
    }
}


// ************************************************************************* //
