/*--------------------------------*- C++ -*----------------------------------*\
| =========                 |                                                 |
| \\      /  F ield         | OpenFOAM: The Open Source CFD Toolbox           |
|  \\    /   O peration     | Version:  4.x                                   |
|   \\  /    A nd           | Web:      www.OpenFOAM.org                      |
|    \\/     M anipulation  |                                                 |
\*---------------------------------------------------------------------------*/
FoamFile
{
    version     2.0;
    format      ascii;
    class       volScalarField;
    location    "32.5";
    object      Qsource;
}
// * * * * * * * * * * * * * * * * * * * * * * * * * * * * * * * * * * * * * //

dimensions      [1 -1 -3 0 0 0 0];

internalField   nonuniform List<scalar> 
108
(
5.75282e+09
7.52338e+09
9.2631e+09
6.41446e+09
8.00512e+09
6.43755e+09
9.80131e+09
7.32138e+09
1.05172e+10
7.01917e+09
7.29253e+09
9.38921e+09
1.00333e+10
1.01174e+10
8.57517e+09
8.13886e+09
5.73963e+09
1.11189e+10
6.68919e+09
1.02738e+10
8.31543e+09
9.34707e+09
8.11496e+09
6.28593e+09
7.29542e+09
1.02784e+10
6.73899e+09
3.4567e+09
6.727e+09
9.38967e+09
5.69639e+09
8.77639e+09
6.64972e+09
1.09857e+10
5.97528e+09
7.04321e+09
5.88726e+09
5.9128e+09
8.89006e+09
8.77716e+09
9.37224e+09
5.92589e+09
6.43559e+09
8.0005e+09
1.04388e+10
6.24543e+09
7.60272e+09
7.55454e+09
7.59503e+09
7.739e+09
6.81683e+09
8.50137e+09
9.27035e+09
1.04912e+10
4.19369e+09
7.32517e+09
1.00226e+10
8.28702e+09
9.66837e+09
8.24954e+09
8.17383e+09
7.16634e+09
8.61824e+09
6.20349e+09
8.58106e+09
7.53861e+09
9.64234e+09
1.05143e+10
7.60532e+09
1.18256e+10
8.47038e+09
8.11896e+09
6.20976e+09
7.2096e+09
6.17157e+09
7.08732e+09
8.11927e+09
9.10778e+09
9.81839e+09
7.66071e+09
1.00506e+10
5.69904e+09
9.43185e+09
7.9632e+09
6.30268e+09
8.32144e+09
8.1869e+09
8.24669e+09
6.71442e+09
9.4578e+09
6.04856e+09
7.85621e+09
9.27311e+09
7.56061e+09
7.52804e+09
7.3242e+09
8.18608e+09
8.29467e+09
7.87457e+09
8.06001e+09
7.40205e+09
7.50707e+09
8.35206e+09
9.24557e+09
9.90605e+09
5.79369e+09
5.57336e+09
7.90937e+09
)
;

boundaryField
{
    inlet
    {
        type            calculated;
        value           uniform 0;
    }
    outlet
    {
        type            calculated;
        value           nonuniform 0();
    }
    wall
    {
        type            calculated;
        value           uniform 0;
    }
    procBoundary4to0
    {
        type            processor;
        value           nonuniform List<scalar> 
36
(
5.18456e+09
5.40784e+09
7.61422e+09
5.63517e+09
7.9452e+09
8.24584e+09
6.77744e+09
4.80923e+09
6.9264e+09
5.13531e+09
9.60255e+09
9.0964e+09
8.09585e+09
7.20868e+09
6.67416e+09
1.04492e+10
7.25938e+09
6.93945e+09
5.18444e+09
5.59348e+09
9.03752e+09
6.12378e+09
8.67962e+09
8.43181e+09
8.20699e+09
4.8987e+09
9.32171e+09
4.82237e+09
6.71275e+09
9.79148e+09
1.01583e+10
5.45603e+09
9.65963e+09
8.44172e+09
5.3899e+09
2.58418e+09
)
;
    }
    procBoundary4to5
    {
        type            processor;
        value           nonuniform List<scalar> 
12
(
7.08482e+09
8.10193e+09
8.50494e+09
1.0259e+10
7.71589e+09
6.19932e+09
7.42121e+09
5.28635e+09
3.69844e+09
7.45778e+09
6.43125e+09
7.55572e+09
)
;
    }
    procBoundary4to6
    {
        type            processor;
        value           nonuniform List<scalar> 
27
(
9.95741e+09
8.96192e+09
6.09751e+09
8.04533e+09
1.10894e+10
6.16201e+09
8.72264e+09
6.6631e+09
9.96983e+09
7.34868e+09
9.00552e+09
9.66051e+09
8.64042e+09
6.67107e+09
7.89389e+09
7.92928e+09
6.08911e+09
9.55027e+09
5.72839e+09
5.81304e+09
8.24658e+09
7.4176e+09
7.97995e+09
6.8746e+09
1.10914e+10
9.00118e+09
5.33972e+09
)
;
    }
}


// ************************************************************************* //
