/*--------------------------------*- C++ -*----------------------------------*\
| =========                 |                                                 |
| \\      /  F ield         | OpenFOAM: The Open Source CFD Toolbox           |
|  \\    /   O peration     | Version:  4.x                                   |
|   \\  /    A nd           | Web:      www.OpenFOAM.org                      |
|    \\/     M anipulation  |                                                 |
\*---------------------------------------------------------------------------*/
FoamFile
{
    version     2.0;
    format      ascii;
    class       volVectorField;
    location    "32.5";
    object      U;
}
// * * * * * * * * * * * * * * * * * * * * * * * * * * * * * * * * * * * * * //

dimensions      [0 1 -1 0 0 0 0];

internalField   nonuniform List<vector> 
108
(
(0.0299325 -0.000986762 -0.000607208)
(0.0128421 -0.000477529 -0.000397326)
(0.0309641 -0.00108019 -0.00063092)
(0.0137883 -0.000452651 -0.000456704)
(0.0316349 -0.00083739 -0.000377963)
(0.0143973 -0.000279054 -0.000360225)
(0.0323601 -0.00060766 -0.000362393)
(0.014595 -0.000265947 -0.000395354)
(0.0333205 -0.000557357 -3.61312e-05)
(0.029736 -0.00158607 -0.000481205)
(0.0104728 -0.000724051 -0.000249916)
(0.0294292 -0.00164651 -0.000408806)
(0.00823723 -0.000530752 -0.00024935)
(0.0292537 -0.00121016 -0.000220401)
(0.00651512 -0.000360249 -0.000154086)
(0.0293057 -0.000882595 -0.000108163)
(0.00486892 -0.000332983 -0.000134109)
(0.029742 -0.00047752 0.000213692)
(0.029726 -0.000951558 -0.000510321)
(0.00943937 -0.000542238 -0.000241455)
(0.0287579 -0.00105404 -0.000340416)
(0.00604555 -0.000396545 -9.17186e-05)
(0.0283445 -0.000886139 -5.74714e-05)
(0.0035281 -0.000299731 2.48481e-05)
(0.0282847 -0.000475832 -0.000108467)
(0.00123305 -0.000126453 4.24497e-05)
(0.0284901 0.000170067 -0.00035625)
(0.0296791 -0.000438672 -0.000548047)
(0.00939978 -5.77818e-05 -0.000158671)
(0.0284701 -0.000302485 -0.000285661)
(0.00566112 -0.000130807 -0.000100517)
(0.0277653 -0.000285477 -0.000105948)
(0.00242078 -7.13154e-05 4.99545e-05)
(0.0274905 -2.76923e-05 -6.08145e-05)
(0.000160987 -7.76361e-06 1.05955e-05)
(0.0273788 3.88904e-05 -6.10013e-05)
(0.0298629 -0.000780454 0.000188916)
(0.0130246 -0.000356706 6.25452e-05)
(0.0309957 -0.000704065 0.000234832)
(0.01402 -0.000282599 -0.000189306)
(0.031694 -0.000576795 6.67918e-06)
(0.0146468 -0.00024718 -0.000293887)
(0.03223 -0.00042676 3.367e-05)
(0.0146772 -7.71056e-05 -0.000324141)
(0.0328402 -0.000209391 0.000122783)
(0.029771 -0.00141255 0.000429175)
(0.0116019 -0.000754091 0.000161022)
(0.0299889 -0.00150609 0.000668568)
(0.0107972 -0.000548981 4.73906e-05)
(0.030077 -0.00120024 0.000449257)
(0.0097915 -0.000398874 -8.57205e-05)
(0.030119 -0.000783886 0.000408233)
(0.00837903 -0.000253399 -0.00010793)
(0.0304404 -0.000569889 0.000417854)
(0.0297167 -0.00104017 0.000490377)
(0.0103684 -0.000473523 0.000177452)
(0.0291986 -0.00102382 0.000649956)
(0.00779 -0.000335587 0.00011169)
(0.028778 -0.000646018 0.00047404)
(0.00558667 -0.000144854 3.81572e-05)
(0.0286522 -0.000166991 0.000395297)
(0.00372289 -2.82262e-05 3.74616e-05)
(0.0287775 2.6756e-05 0.000105159)
(0.0296862 -0.000328281 0.000423743)
(0.0100257 1.83839e-05 0.00034813)
(0.0289105 -9.03424e-05 0.00081471)
(0.00711088 -5.02589e-06 0.000250651)
(0.0286439 -9.51416e-05 0.00084845)
(0.00479893 -7.23123e-05 0.000278754)
(0.0286909 -0.000144794 0.000765712)
(0.00319409 -6.28478e-05 0.000212926)
(0.0288222 -0.000129298 0.00016797)
(0.0300215 -0.000738019 0.000423724)
(0.0143805 -0.000398781 0.000314868)
(0.0320122 -0.000654206 0.000608884)
(0.0171189 -0.000244959 0.000225919)
(0.0335782 -0.000408488 0.000414211)
(0.0187336 -0.000122681 0.000131278)
(0.0346739 -0.000267448 0.000551558)
(0.0198284 -0.000128921 0.000431905)
(0.0360003 -0.000320334 0.000781619)
(0.029984 -0.00130793 0.000465693)
(0.0132467 -0.000738529 0.000282102)
(0.0310399 -0.0013132 0.000666349)
(0.0146698 -0.000521043 0.00028199)
(0.032114 -0.000888534 0.000591963)
(0.0157265 -0.000408498 0.000272092)
(0.0329906 -0.000706368 0.000723358)
(0.0163736 -0.00049399 0.000359994)
(0.0340634 -0.000758306 0.000662226)
(0.0297873 -0.00095795 0.000534424)
(0.0123869 -0.000444893 0.000376105)
(0.0303889 -0.000955423 0.000826788)
(0.0126846 -0.000415416 0.000358234)
(0.0309002 -0.000580402 0.000783073)
(0.0130347 -0.000196625 0.000276668)
(0.0315516 -0.000226547 0.00071972)
(0.013377 -0.000217232 0.000317328)
(0.0322106 -0.000261508 0.000657946)
(0.0297029 -0.000126467 0.000535582)
(0.0121559 -4.12857e-05 0.000367087)
(0.0300977 -0.000211394 0.000767346)
(0.0121419 -0.000139777 0.000347199)
(0.0307971 -0.000259153 0.000723984)
(0.0125951 -0.00021962 0.000353235)
(0.0314587 -0.000356472 0.000732216)
(0.0133072 -0.000231006 0.000189618)
(0.0323026 -0.000427565 0.000384285)
)
;

boundaryField
{
    inlet
    {
        type            fixedValue;
        value           uniform (0.01 0 0);
    }
    outlet
    {
        type            zeroGradient;
    }
    wall
    {
        type            fixedValue;
        value           uniform (0 0 0);
    }
    procBoundary4to0
    {
        type            processor;
        value           nonuniform List<vector> 
36
(
(0.0298536 -0.000907521 -0.0013214)
(0.0126271 -0.000442894 -0.000867355)
(0.0309857 -0.000902479 -0.00140894)
(0.0138174 -0.000341121 -0.000860017)
(0.0317494 -0.000663662 -0.00113029)
(0.0144096 -0.000280122 -0.000823645)
(0.0322115 -0.000595946 -0.000920679)
(0.0144321 -0.000111395 -0.000874635)
(0.032546 -0.000325693 -0.000684239)
(0.0297553 -0.00150318 -0.00149641)
(0.0104488 -0.000746248 -0.00080289)
(0.0296502 -0.00170586 -0.00152625)
(0.00887754 -0.000620234 -0.0006219)
(0.0293936 -0.00138365 -0.00102236)
(0.00734386 -0.000533881 -0.000454301)
(0.0292946 -0.000920079 -0.000705269)
(0.005374 -0.000490046 -0.000408335)
(0.0290622 -0.000140987 -0.000651772)
(0.0295325 -0.000969651 -0.00153619)
(0.00934378 -0.000501463 -0.000786723)
(0.0287051 -0.00111504 -0.00137277)
(0.00565433 -0.000325238 -0.000440819)
(0.0278521 -0.000702252 -0.000852581)
(0.00227908 -0.000162772 -0.000204374)
(0.0271772 -0.000147945 -0.000673808)
(0.000107621 -1.12016e-05 -1.30589e-05)
(0.0266615 0.000365027 -0.000231577)
(0.0295524 -0.000215217 -0.00137154)
(0.00916055 -2.20352e-06 -0.000790138)
(0.0285019 5.81896e-05 -0.00131473)
(0.00515959 8.79965e-05 -0.000476333)
(0.0276212 0.000226743 -0.00095033)
(0.0021711 5.99495e-05 -0.000249044)
(0.0273119 9.18053e-05 -0.000655053)
(0.000395607 1.68627e-05 -5.59907e-05)
(0.0269498 -0.000117509 -0.000126338)
)
;
    }
    procBoundary4to5
    {
        type            processor;
        value           nonuniform List<vector> 
12
(
(0.0143017 -0.000335188 4.05378e-05)
(0.00258594 -0.000292149 4.93177e-05)
(3.94588e-09 -3.68373e-09 9.54395e-09)
(1.17283e-09 -3.82619e-09 9.57672e-09)
(0.0140886 5.17637e-05 -0.000423636)
(0.00713828 -0.000366975 -0.000120062)
(0.00174743 -8.31674e-05 3.40177e-05)
(0.00218738 -8.23541e-05 0.000233439)
(0.0209389 -0.000161792 0.000604482)
(0.0168069 -0.0008503 0.000328137)
(0.0132358 -0.000520463 0.000358002)
(0.0132893 -0.000536647 0.000221707)
)
;
    }
    procBoundary4to6
    {
        type            processor;
        value           nonuniform List<vector> 
27
(
(0.0295219 0.000464949 -0.000613812)
(0.00876583 0.000305093 -0.000203403)
(0.0281388 0.000559652 -0.000486725)
(0.00466146 0.000179456 -0.00015464)
(0.0276778 0.000352293 -0.000370026)
(0.00157616 8.40067e-05 -5.70486e-05)
(0.0273307 -8.77318e-07 -0.000330269)
(2.30524e-09 -2.90729e-09 4.64803e-09)
(0.0271715 -0.000356192 -0.000342886)
(0.0295986 0.000754473 0.000784267)
(0.00994247 0.000332943 0.000192063)
(0.0288939 0.000851254 0.000741953)
(0.00708789 0.000245621 0.000174083)
(0.0285043 0.000587998 0.000533099)
(0.00451041 6.94199e-05 7.08663e-05)
(0.0282806 0.000241235 0.000135037)
(0.00205676 -1.07354e-05 7.72574e-05)
(0.0281872 3.82974e-05 -0.000274761)
(0.0298498 0.000759369 0.000740734)
(0.0126371 0.000289064 0.00032443)
(0.0303456 0.000627695 0.000709541)
(0.0126911 0.000213669 0.000223928)
(0.0307477 0.00031877 0.000615272)
(0.0123989 2.80993e-05 0.000205204)
(0.0309293 -6.06621e-05 0.000533736)
(0.0114683 -0.000115433 0.00026417)
(0.0308965 -0.000145642 0.000406202)
)
;
    }
}


// ************************************************************************* //
