/*--------------------------------*- C++ -*----------------------------------*\
| =========                 |                                                 |
| \\      /  F ield         | OpenFOAM: The Open Source CFD Toolbox           |
|  \\    /   O peration     | Version:  4.x                                   |
|   \\  /    A nd           | Web:      www.OpenFOAM.org                      |
|    \\/     M anipulation  |                                                 |
\*---------------------------------------------------------------------------*/
FoamFile
{
    version     2.0;
    format      ascii;
    class       volVectorField;
    location    "32.5";
    object      UsPrev;
}
// * * * * * * * * * * * * * * * * * * * * * * * * * * * * * * * * * * * * * //

dimensions      [0 1 -1 0 0 0 0];

internalField   nonuniform List<vector> 
108
(
(3.60142e-11 -1.17643e-10 1.54346e-10)
(-5.57713e-10 -2.08332e-10 3.86603e-10)
(5.55518e-10 -3.49039e-10 6.23532e-10)
(2.8247e-10 -2.94809e-10 1.12981e-09)
(6.34875e-10 -5.63206e-10 1.78948e-09)
(-3.25941e-10 -8.05214e-10 2.0744e-09)
(-4.28733e-10 -8.54058e-10 2.86357e-09)
(-1.93164e-09 -1.93717e-10 3.39182e-09)
(-1.46401e-09 -7.70913e-10 3.34823e-09)
(-3.48668e-11 -2.48818e-10 3.85038e-10)
(-2.5657e-10 -7.95566e-10 5.22758e-10)
(8.3877e-11 -8.17923e-10 1.09984e-09)
(-1.1586e-10 -8.03122e-10 2.01335e-09)
(-2.08816e-10 -7.62134e-10 2.73138e-09)
(-1.19997e-09 -1.2126e-09 2.95117e-09)
(-1.33015e-09 -1.4219e-09 4.36935e-09)
(-2.86447e-09 -7.9792e-10 5.07994e-09)
(-4.51009e-09 -1.21008e-09 5.95685e-09)
(-6.06332e-12 -3.86537e-10 4.23363e-10)
(-4.755e-10 -7.09106e-10 8.92584e-10)
(-3.1938e-10 -9.93337e-10 1.48804e-09)
(-9.65043e-10 -1.13953e-09 2.47519e-09)
(-1.0512e-09 -1.18479e-09 2.98735e-09)
(-2.58683e-09 -1.98476e-09 3.31952e-09)
(-2.42765e-09 -1.77537e-09 4.63403e-09)
(-3.95094e-09 -1.82684e-09 5.66873e-09)
(-3.71994e-09 -2.07722e-09 5.24114e-09)
(-1.20785e-10 -3.54699e-10 4.37398e-10)
(-8.15706e-10 -8.10697e-10 9.78316e-10)
(-1.26346e-09 -9.5785e-10 1.87545e-09)
(-1.93913e-09 -1.46329e-09 2.39193e-09)
(-2.858e-09 -1.9386e-09 2.85042e-09)
(-4.92369e-09 -2.3215e-09 3.76791e-09)
(-3.64107e-09 -1.88127e-09 4.51953e-09)
(-6.20001e-09 -3.5662e-09 6.20347e-09)
(-6.95022e-09 -2.2809e-09 5.78467e-09)
(-1.52207e-10 -1.86723e-10 1.65785e-10)
(-5.39332e-10 -3.55134e-10 2.81931e-10)
(4.64471e-10 -2.82756e-10 4.62486e-10)
(1.49372e-11 -9.9496e-11 8.55319e-10)
(5.21583e-10 -1.69113e-10 1.14134e-09)
(-3.5337e-10 -5.14405e-10 1.31821e-09)
(-9.06306e-12 -5.79503e-10 1.61916e-09)
(-1.16769e-09 -5.60464e-10 2.02665e-09)
(-6.35532e-10 -7.59009e-10 2.10151e-09)
(-5.39375e-11 -3.90917e-10 3.57301e-10)
(-5.44197e-10 -6.72818e-10 4.25021e-10)
(1.09394e-10 -5.97404e-10 6.52528e-10)
(-6.95328e-11 -5.85126e-10 1.60539e-09)
(2.6515e-10 -7.57753e-10 1.90773e-09)
(-4.12448e-10 -9.76996e-10 2.01891e-09)
(-1.58461e-10 -4.70556e-10 2.85072e-09)
(-3.59911e-10 -1.93911e-10 3.38937e-09)
(-1.08729e-09 -1.25218e-09 4.41615e-09)
(1.17116e-10 -3.22627e-10 3.57301e-10)
(-6.63895e-10 -8.0015e-10 6.58188e-10)
(4.60537e-10 -5.04826e-10 6.73716e-10)
(1.80372e-10 -5.66063e-10 1.37431e-09)
(6.21666e-10 -4.90805e-10 2.22651e-09)
(-1.09269e-09 -1.54142e-09 2.37256e-09)
(-3.95691e-10 -1.01457e-09 3.01804e-09)
(-6.79642e-10 -1.60795e-09 3.44903e-09)
(-9.93383e-10 -2.72509e-09 4.57626e-09)
(4.27717e-11 -4.93137e-10 3.7199e-10)
(-5.22772e-10 -9.35921e-10 7.3614e-10)
(-5.24197e-10 -7.13321e-10 1.24597e-09)
(-9.70504e-10 -7.46767e-10 1.38046e-09)
(-1.0123e-09 -9.82651e-10 2.15175e-09)
(-2.38217e-09 -2.11502e-09 2.42895e-09)
(-1.25387e-09 -1.7863e-09 3.42206e-09)
(-1.72764e-09 -2.45206e-09 3.612e-09)
(-1.03447e-09 -2.32133e-09 2.15066e-09)
(4.60903e-11 -7.93688e-11 1.85535e-10)
(-2.77845e-10 -1.50638e-10 1.81178e-10)
(1.26415e-10 -1.98334e-10 3.37074e-10)
(-2.20105e-10 -9.88127e-11 5.37521e-10)
(1.82191e-10 -2.34413e-10 5.61867e-10)
(-1.21318e-10 -4.10394e-10 5.52909e-10)
(7.80694e-11 -4.61002e-10 1.07494e-09)
(-5.6996e-11 -2.8151e-10 1.0696e-09)
(5.07934e-10 -5.94195e-10 9.20864e-10)
(2.70262e-10 -2.21993e-10 3.4481e-10)
(-1.27223e-10 -3.75804e-10 2.58889e-10)
(9.0205e-11 -3.42121e-10 4.7346e-10)
(-3.91922e-10 -5.02942e-10 5.71169e-10)
(3.56772e-10 -5.4469e-10 9.83678e-10)
(-6.02229e-10 -9.13424e-11 6.8488e-10)
(4.46966e-10 4.07161e-10 1.10811e-09)
(-1.83861e-10 -3.55401e-10 1.757e-09)
(2.93222e-10 -1.00336e-09 2.16265e-09)
(2.05214e-10 -1.51603e-10 2.51474e-10)
(-1.60939e-10 -5.8331e-10 2.95808e-10)
(2.00864e-10 -4.20597e-10 4.42857e-10)
(2.02988e-11 -5.5743e-10 5.67388e-10)
(3.80454e-10 -5.51632e-10 1.24181e-09)
(-1.43151e-09 -6.39882e-10 1.09138e-09)
(7.9397e-10 -3.64628e-10 1.60499e-09)
(2.25415e-10 -1.05846e-09 1.59538e-09)
(8.70509e-10 -2.22764e-09 2.14589e-09)
(1.18344e-10 -2.52811e-10 2.50098e-10)
(-1.96777e-10 -9.07502e-10 3.35349e-10)
(-3.50818e-11 -8.22303e-10 7.50019e-10)
(-3.3259e-10 -4.77044e-10 7.44976e-10)
(-5.67284e-10 -2.165e-10 1.08349e-09)
(-1.24017e-09 -9.50714e-10 1.08348e-09)
(-1.82593e-10 -1.72593e-09 1.06451e-09)
(1.60578e-09 -4.183e-09 1.32866e-09)
(-9.8998e-10 -2.44448e-09 2.18487e-09)
)
;

boundaryField
{
    inlet
    {
        type            calculated;
        value           uniform (0 0 0);
    }
    outlet
    {
        type            calculated;
        value           nonuniform 0();
    }
    wall
    {
        type            calculated;
        value           uniform (0 0 0);
    }
    procBoundary4to0
    {
        type            processor;
        value           uniform (0 0 0);
    }
    procBoundary4to5
    {
        type            processor;
        value           uniform (0 0 0);
    }
    procBoundary4to6
    {
        type            processor;
        value           uniform (0 0 0);
    }
}


// ************************************************************************* //
