/*--------------------------------*- C++ -*----------------------------------*\
| =========                 |                                                 |
| \\      /  F ield         | OpenFOAM: The Open Source CFD Toolbox           |
|  \\    /   O peration     | Version:  4.x                                   |
|   \\  /    A nd           | Web:      www.OpenFOAM.org                      |
|    \\/     M anipulation  |                                                 |
\*---------------------------------------------------------------------------*/
FoamFile
{
    version     2.0;
    format      ascii;
    class       volVectorField;
    location    "33.5";
    object      impParticleForces;
}
// * * * * * * * * * * * * * * * * * * * * * * * * * * * * * * * * * * * * * //

dimensions      [1 1 -2 0 0 0 0];

internalField   nonuniform List<vector> 
114
(
(0.00241191 1.84419e-05 -5.62591e-06)
(0.00236872 1.3609e-05 2.1095e-06)
(0.00236859 8.90862e-06 1.05877e-05)
(0.00231147 1.51062e-06 1.74044e-05)
(0.00228972 -5.73918e-06 2.48385e-05)
(0.00220649 -1.58241e-05 2.53058e-05)
(0.00241207 1.83482e-05 -1.27512e-05)
(0.00242703 1.69531e-05 -4.99494e-06)
(0.00238519 1.29784e-05 3.11749e-06)
(0.00239689 9.82293e-06 1.26021e-05)
(0.00233945 2.63818e-06 1.88739e-05)
(0.00232263 -3.60615e-06 2.70454e-05)
(0.00223242 -1.45137e-05 2.51466e-05)
(0.00243482 1.52294e-05 -1.95237e-05)
(0.00239694 1.54954e-05 -1.20674e-05)
(0.00241974 1.45735e-05 -4.23955e-06)
(0.00238016 1.17729e-05 3.65972e-06)
(0.00237736 8.85689e-06 1.25354e-05)
(0.00232937 4.59445e-06 1.90398e-05)
(0.00230066 3.01136e-07 2.49188e-05)
(0.00223002 -6.05315e-06 2.27745e-05)
(0.00238138 5.78489e-06 -1.9646e-05)
(0.00238678 9.48057e-06 -1.28985e-05)
(0.00237808 1.08093e-05 -5.92894e-06)
(0.00238478 1.05208e-05 1.85322e-06)
(0.002356 8.09158e-06 1.01458e-05)
(0.00237165 5.53821e-06 1.96725e-05)
(0.00230996 -2.1008e-06 2.92071e-05)
(0.00229037 -8.15123e-06 3.74225e-05)
(0.00219722 -2.19327e-05 4.8368e-05)
(0.00240739 5.45077e-06 -1.98193e-05)
(0.00241748 8.81126e-06 -1.32963e-05)
(0.00239575 1.00994e-05 -6.34429e-06)
(0.00241564 9.98589e-06 1.57019e-06)
(0.0023756 7.8348e-06 9.99087e-06)
(0.00239224 5.69683e-06 2.00504e-05)
(0.00232415 -1.11235e-06 2.92306e-05)
(0.00232042 -6.44028e-06 3.99965e-05)
(0.00222666 -2.14257e-05 5.08579e-05)
(0.0023852 6.46952e-06 -2.01633e-05)
(0.00239287 8.77785e-06 -1.40826e-05)
(0.0023742 9.35876e-06 -7.27898e-06)
(0.00239983 8.9867e-06 5.02497e-07)
(0.00235865 7.13119e-06 8.63646e-06)
(0.00237009 4.62144e-06 1.86222e-05)
(0.00231388 7.3605e-07 2.7378e-05)
(0.00229655 -3.51493e-06 3.81725e-05)
(0.00221672 -1.16845e-05 4.55986e-05)
(0.00237731 7.74457e-06 -2.12595e-05)
(0.00238575 8.74448e-06 -1.55457e-05)
(0.00237455 8.14222e-07 -1.41385e-05)
(0.00239358 3.51187e-06 -8.07408e-06)
(0.00236654 5.16702e-06 -1.92556e-06)
(0.00237741 5.32597e-06 5.714e-06)
(0.0023561 4.06778e-06 1.42023e-05)
(0.00235871 1.69856e-06 2.36553e-05)
(0.00231395 -4.39748e-06 3.52401e-05)
(0.00230846 -1.1129e-05 4.5025e-05)
(0.00220003 -2.25555e-05 6.05538e-05)
(0.00239127 7.13933e-07 -1.40938e-05)
(0.0024284 2.83285e-06 -8.16991e-06)
(0.00238592 4.19918e-06 -2.1646e-06)
(0.00240396 4.44333e-06 5.29761e-06)
(0.00237916 3.16211e-06 1.37582e-05)
(0.00239281 1.79288e-06 2.32911e-05)
(0.00235217 -4.00929e-06 3.50563e-05)
(0.00233588 -8.13081e-06 4.56798e-05)
(0.00222141 -2.16982e-05 6.24464e-05)
(0.00237352 2.37806e-06 -1.49517e-05)
(0.00239721 3.91326e-06 -9.77774e-06)
(0.00237557 4.24984e-06 -3.62379e-06)
(0.0023863 3.93867e-06 3.55211e-06)
(0.00237314 2.34375e-06 1.21591e-05)
(0.00237948 4.94509e-07 2.21554e-05)
(0.00233121 -3.68682e-06 3.32454e-05)
(0.00232038 -8.36654e-06 4.75169e-05)
(0.00223143 -1.82592e-05 6.61903e-05)
(0.00236284 4.5179e-06 -1.65193e-05)
(0.00240723 5.09467e-06 -1.19481e-05)
(0.00236996 4.43006e-06 -6.20708e-06)
(0.00238775 3.41499e-06 2.69547e-07)
(0.00232362 -1.16039e-06 -1.0758e-05)
(0.00234426 8.66697e-07 -5.14191e-06)
(0.00232323 2.11226e-06 1.00192e-06)
(0.00234342 2.18669e-06 8.22675e-06)
(0.00232844 8.58653e-07 1.70589e-05)
(0.0023408 -1.56714e-06 2.66184e-05)
(0.00231016 -8.04567e-06 4.10807e-05)
(0.00232622 -1.29556e-05 4.84853e-05)
(0.00219768 -2.65985e-05 6.86422e-05)
(0.00235732 -1.61369e-06 -1.08078e-05)
(0.00238307 -1.04233e-07 -5.41419e-06)
(0.00234968 7.87006e-07 2.86242e-07)
(0.00236507 1.11713e-06 7.26526e-06)
(0.00235171 -3.25774e-07 1.58856e-05)
(0.00235448 -1.76386e-06 2.49825e-05)
(0.00232317 -6.97778e-06 3.71488e-05)
(0.00232522 -9.6898e-06 4.64076e-05)
(0.00221079 -2.34546e-05 6.57474e-05)
(0.00233918 1.4335e-07 -1.20402e-05)
(0.00236644 9.63891e-07 -7.16862e-06)
(0.00234979 1.09776e-06 -1.5906e-06)
(0.00235812 6.61728e-07 5.10735e-06)
(0.0023405 -1.05805e-06 1.37669e-05)
(0.0023544 -2.71769e-06 2.27955e-05)
(0.00231007 -6.48266e-06 3.46676e-05)
(0.00230125 -9.50735e-06 4.53761e-05)
(0.00221124 -1.90199e-05 6.74711e-05)
(0.00233312 2.52407e-06 -1.39872e-05)
(0.00235757 2.49099e-06 -9.98175e-06)
(0.00233957 1.6593e-06 -4.86894e-06)
(0.00235377 2.59796e-07 1.06405e-06)
(0.00233573 -2.31012e-06 9.40591e-06)
(0.00232569 -3.90459e-06 1.7816e-05)
)
;

boundaryField
{
    inlet
    {
        type            zeroGradient;
    }
    outlet
    {
        type            zeroGradient;
    }
    wall
    {
        type            zeroGradient;
    }
    procBoundary5to1
    {
        type            processor;
        value           nonuniform List<vector> 
32
(
(0.00247576 2.82489e-05 -1.37876e-05)
(0.00242446 1.94567e-05 -6.59796e-06)
(0.00243003 1.23073e-05 -5.58187e-07)
(0.00238398 4.01846e-06 2.89495e-06)
(0.00236394 -2.14516e-06 1.08995e-05)
(0.0022429 -1.31577e-05 2.76026e-06)
(0.00245809 2.94414e-05 -1.88066e-05)
(0.00249303 2.44535e-05 -1.13883e-05)
(0.00245381 1.75778e-05 -4.69359e-06)
(0.00246121 1.21968e-05 3.01896e-06)
(0.00240379 4.28918e-06 6.96772e-06)
(0.0023883 -9.25387e-07 1.31981e-05)
(0.00225871 -1.35953e-05 2.79723e-06)
(0.0024773 2.2856e-05 -2.43786e-05)
(0.00244583 2.254e-05 -1.68073e-05)
(0.00248666 1.99939e-05 -8.65506e-06)
(0.00243864 1.53259e-05 -1.66928e-06)
(0.0024486 1.12996e-05 7.12464e-06)
(0.00238678 6.31147e-06 1.13211e-05)
(0.00236829 3.49828e-06 1.64584e-05)
(0.00225892 -6.21879e-06 4.22506e-06)
(0.00239036 1.50615e-05 -2.7141e-05)
(0.00239689 2.0651e-05 -1.99268e-05)
(0.00239322 2.07594e-05 -1.32395e-05)
(0.00239322 2.07594e-05 -1.32395e-05)
(0.00239322 2.07594e-05 -1.32395e-05)
(0.00242274 1.30644e-05 -2.73255e-05)
(0.00245485 1.79087e-05 -2.04609e-05)
(0.00245485 1.79087e-05 -2.04609e-05)
(0.00245485 1.79087e-05 -2.04609e-05)
(0.00240272 1.18674e-05 -2.65052e-05)
(0.00240272 1.18674e-05 -2.65052e-05)
)
;
    }
    procBoundary5to4
    {
        type            processor;
        value           nonuniform List<vector> 
12
(
(0.00241047 3.94473e-07 -2.58284e-05)
(0.00244208 6.78244e-07 -2.60012e-05)
(0.00240762 3.31525e-06 -2.60408e-05)
(0.00239162 6.19861e-06 -2.67129e-05)
(0.00241083 -3.25231e-06 -1.88075e-05)
(0.00243702 -2.98445e-06 -1.8629e-05)
(0.00240915 8.40532e-08 -1.93176e-05)
(0.00238795 3.59054e-06 -2.06153e-05)
(0.00237295 -4.46741e-06 -1.46365e-05)
(0.00238164 -4.08904e-06 -1.49719e-05)
(0.00236368 -1.43708e-06 -1.58317e-05)
(0.00235255 2.14296e-06 -1.73925e-05)
)
;
    }
    procBoundary5to7
    {
        type            processor;
        value           nonuniform List<vector> 
44
(
(0.00242785 1.34074e-05 -1.9928e-05)
(0.00239296 1.35583e-05 -1.28629e-05)
(0.00241486 1.328e-05 -5.13001e-06)
(0.00239659 1.19847e-05 2.85475e-06)
(0.00240708 1.11109e-05 1.1804e-05)
(0.00233214 9.22557e-06 1.65513e-05)
(0.00230058 8.17281e-06 2.14662e-05)
(0.00223015 1.01368e-05 1.72698e-05)
(0.00239985 1.15965e-05 -2.67564e-05)
(0.00242785 1.34074e-05 -1.9928e-05)
(0.00236534 8.77944e-06 -9.2341e-06)
(0.00238954 8.19847e-06 -1.85552e-06)
(0.00235577 6.93487e-06 5.79175e-06)
(0.00236469 5.44464e-06 1.52076e-05)
(0.00231211 3.77942e-06 2.25617e-05)
(0.00229576 2.9793e-06 3.14593e-05)
(0.00221324 1.24375e-06 3.74797e-05)
(0.00236995 9.50283e-06 -2.3391e-05)
(0.00236534 8.77944e-06 -9.2341e-06)
(0.00241135 9.39448e-06 -1.84765e-05)
(0.00236534 8.77944e-06 -9.2341e-06)
(0.00238954 8.19847e-06 -1.85552e-06)
(0.00234012 1.81966e-06 8.21225e-06)
(0.00235244 -3.62415e-07 1.74676e-05)
(0.00231129 -2.88833e-06 2.75154e-05)
(0.00229586 -4.70756e-06 3.7533e-05)
(0.00220353 -7.7257e-06 5.37095e-05)
(0.00237204 7.25827e-06 -1.90959e-05)
(0.0024001 6.68918e-06 -1.54712e-05)
(0.00235739 5.54838e-06 -1.04986e-05)
(0.00234012 1.81966e-06 8.21225e-06)
(0.0023722 3.92683e-06 -5.05419e-06)
(0.00234012 1.81966e-06 8.21225e-06)
(0.00235244 -3.62415e-07 1.74676e-05)
(0.00228443 -7.13648e-06 2.86891e-05)
(0.00228523 -8.33837e-06 3.97605e-05)
(0.00218416 -1.40415e-05 5.49274e-05)
(0.00234083 5.71854e-06 -1.65505e-05)
(0.00235486 4.86112e-06 -1.35156e-05)
(0.00232885 3.43053e-06 -9.10422e-06)
(0.0023482 1.53713e-06 -4.37274e-06)
(0.00230586 -4.31163e-07 2.49593e-06)
(0.00228443 -7.13648e-06 2.86891e-05)
(0.00230468 -2.75717e-06 9.42364e-06)
)
;
    }
}


// ************************************************************************* //
