/*--------------------------------*- C++ -*----------------------------------*\
| =========                 |                                                 |
| \\      /  F ield         | OpenFOAM: The Open Source CFD Toolbox           |
|  \\    /   O peration     | Version:  4.x                                   |
|   \\  /    A nd           | Web:      www.OpenFOAM.org                      |
|    \\/     M anipulation  |                                                 |
\*---------------------------------------------------------------------------*/
FoamFile
{
    version     2.0;
    format      ascii;
    class       surfaceScalarField;
    location    "33.5";
    object      phi;
}
// * * * * * * * * * * * * * * * * * * * * * * * * * * * * * * * * * * * * * //

dimensions      [0 3 -1 0 0 0 0];

internalField   nonuniform List<scalar> 
259
(
6.97695e-06
3.21661e-07
1.60762e-07
6.11592e-06
1.53236e-09
1.23632e-07
5.47196e-06
4.25839e-07
2.63893e-07
3.92084e-06
-5.23494e-09
4.24761e-07
4.26194e-06
5.3526e-07
1.89135e-07
-5.94824e-08
1.34204e-06
5.3381e-06
-1.36115e-08
5.42091e-09
5.37452e-06
2.47203e-07
1.22894e-07
4.98681e-06
-2.14644e-12
3.55233e-08
5.14824e-06
3.55051e-07
3.70057e-07
4.15279e-06
-2.9415e-08
2.91871e-07
5.15522e-06
5.18743e-07
5.19368e-07
-6.00896e-08
1.24148e-06
4.97066e-06
-3.0962e-08
4.82682e-06
4.2366e-12
4.89962e-06
6.51232e-08
4.6525e-06
2.03936e-12
4.96904e-06
2.86907e-07
4.32045e-06
4.55063e-08
5.86661e-06
3.6819e-07
2.10551e-07
9.13004e-06
-1.1748e-07
-6.22551e-08
9.14951e-06
-5.8411e-08
7.20767e-08
9.24582e-06
-1.18412e-07
2.61887e-08
9.17417e-06
9.74548e-08
1.34951e-07
9.32524e-06
-2.32613e-07
2.05173e-07
9.04757e-06
4.29111e-07
1.12455e-07
9.61978e-06
-7.73459e-07
6.26011e-07
9.30623e-06
1.038e-06
-5.35319e-07
-3.20993e-06
1.92019e-06
6.05886e-06
-5.49477e-08
-1.00788e-08
5.86652e-06
4.69934e-08
1.07175e-07
5.77428e-06
-3.20648e-08
1.13193e-08
5.93304e-06
6.35953e-08
-2.00636e-09
5.70826e-06
-5.38891e-08
8.15795e-08
6.4306e-06
1.78704e-07
-1.01884e-07
5.91389e-06
-4.7344e-07
5.08565e-07
7.19062e-06
9.80674e-07
-7.00028e-07
-2.40189e-06
2.71114e-06
5.33066e-06
-5.3786e-12
4.00766e-09
5.39444e-06
1.18117e-08
-5.95615e-08
5.36238e-06
2.29037e-12
5.43724e-06
6.35637e-08
5.38335e-06
1.82909e-14
5.74163e-06
1.65129e-07
5.16267e-06
2.5399e-07
6.16221e-06
-2.20851e-07
1.95736e-06
5.13776e-06
4.12894e-08
2.93938e-08
8.7389e-06
-5.19049e-08
4.49158e-08
8.70552e-06
-2.66573e-08
1.3211e-07
8.64721e-06
-2.29707e-08
1.07477e-07
8.54821e-06
1.40759e-07
9.31923e-08
8.40337e-06
-2.4298e-08
3.74309e-07
8.07496e-06
4.46631e-07
-5.76289e-09
7.68556e-06
-9.2301e-08
1.1077e-06
6.99766e-06
8.78035e-07
-7.25454e-07
-5.02688e-07
2.79149e-06
7.02969e-06
-7.45684e-08
4.48415e-08
6.96835e-06
1.0414e-08
1.31436e-07
6.95964e-06
-7.852e-08
7.55857e-08
6.93563e-06
1.96007e-07
-3.32462e-08
6.90398e-06
-1.14341e-07
2.03268e-07
7.07913e-06
4.67151e-07
-2.97551e-07
7.19948e-06
-2.87275e-07
5.83195e-07
7.50137e-06
9.2153e-07
-1.04542e-06
-1.25925e-06
1.83741e-06
5.60571e-06
-2.6773e-08
7.25454e-08
5.41341e-06
1.07428e-07
3.57236e-08
5.23137e-06
-1.45184e-08
1.18045e-07
5.30586e-06
1.49936e-07
3.51415e-08
4.94724e-06
2.88214e-07
5.5969e-06
-1.29951e-07
4.91932e-06
8.38826e-07
6.28383e-06
-8.6295e-07
3.19956e-06
5.80779e-06
8.46993e-08
5.86523e-06
1.81645e-08
5.82162e-06
1.04086e-07
-7.97887e-08
1.10378e-05
-1.8144e-07
1.13197e-05
-1.49875e-07
1.16404e-05
-2.13168e-07
1.17843e-05
-5.06679e-08
1.25214e-05
-3.62882e-07
1.23591e-05
1.56568e-07
1.42656e-05
-7.98764e-07
1.27453e-05
7.94862e-07
-2.43675e-06
9.7078e-06
-2.47024e-07
9.87051e-06
-1.81146e-07
1.00556e-05
-3.22652e-07
1.00502e-05
-7.85663e-08
1.03365e-05
-4.45843e-07
1.00198e-05
1.75667e-07
1.05344e-05
-7.30118e-07
9.40701e-06
8.76799e-07
-1.40264e-06
8.62697e-06
-1.9648e-07
8.63493e-06
-1.53382e-07
8.7102e-06
-2.79882e-07
8.80221e-06
-1.35431e-07
9.05914e-06
-4.14558e-07
9.08863e-06
1.62202e-08
9.9693e-06
9.416e-06
8.65511e-06
8.64627e-06
8.68639e-06
8.64919e-06
8.86779e-06
)
;

boundaryField
{
    inlet
    {
        type            calculated;
        value           nonuniform 0();
    }
    outlet
    {
        type            calculated;
        value           nonuniform List<scalar> 
12
(
1.11479e-06
2.20328e-06
4.2276e-06
1.1938e-05
4.91292e-06
2.70301e-06
6.62906e-06
9.13167e-06
4.64976e-06
1.79735e-05
1.02103e-05
1.25612e-05
)
;
    }
    wall
    {
        type            calculated;
        value           nonuniform List<scalar> 
66
(
0
0
0
0
0
0
0
0
0
0
0
0
0
0
0
0
0
0
0
0
0
0
0
0
0
0
0
0
0
0
0
0
0
0
-1.2326e-32
-1.2326e-32
0
0
0
0
0
0
0
0
0
0
0
0
0
0
0
0
0
0
0
0
0
0
0
0
0
0
0
0
0
0
)
;
    }
    procBoundary5to1
    {
        type            processor;
        value           nonuniform List<scalar> 
32
(
2.16982e-07
7.35864e-07
-4.57701e-08
1.1316e-06
-1.0655e-06
1.8646e-06
2.18772e-07
-8.48532e-08
3.53717e-07
-4.60694e-07
7.27757e-07
-1.50528e-06
1.71107e-06
-2.88249e-08
1.30223e-07
-9.06747e-08
2.47115e-07
-3.78161e-07
5.90945e-07
-1.10348e-06
1.04579e-06
7.91947e-08
-3.31314e-08
-7.67635e-06
-3.07182e-09
-4.0834e-09
2.34356e-08
-5.54561e-06
-1.59471e-07
-2.02397e-08
-4.90868e-06
-8.05368e-12
)
;
    }
    procBoundary5to4
    {
        type            processor;
        value           nonuniform List<scalar> 
12
(
-9.0295e-06
-6.13475e-06
-5.38961e-06
-5.17905e-06
-8.79417e-06
-7.06194e-06
-5.72204e-06
-5.86303e-06
-1.08114e-05
-9.59738e-06
-8.60497e-06
-8.63355e-06
)
;
    }
    procBoundary5to7
    {
        type            processor;
        value           nonuniform List<scalar> 
44
(
1.57277e-07
-3.78869e-13
1.99953e-07
-6.99542e-14
1.2977e-07
-1.72795e-08
-2.92127e-07
3.22572e-07
-2.74972e-12
-3.5911e-08
-1.88042e-12
-9.70058e-09
-1.4018e-12
-5.7797e-08
-1.02958e-07
5.70171e-07
-6.89497e-07
-1.07701e-12
5.19978e-06
-4.36968e-08
-5.97425e-08
-1.27278e-07
-4.39346e-08
1.12573e-07
-1.94535e-07
1.99124e-07
-8.67386e-07
-1.49407e-08
6.12129e-08
-1.52527e-08
6.21924e-06
-4.06176e-08
-2.77928e-07
6.02297e-08
-7.71964e-07
5.67151e-07
-1.34832e-06
-1.33342e-07
-1.26377e-07
-2.15915e-07
-1.78016e-07
-3.5523e-07
8.97581e-06
-1.52027e-07
)
;
    }
}


// ************************************************************************* //
