/*--------------------------------*- C++ -*----------------------------------*\
| =========                 |                                                 |
| \\      /  F ield         | OpenFOAM: The Open Source CFD Toolbox           |
|  \\    /   O peration     | Version:  4.x                                   |
|   \\  /    A nd           | Web:      www.OpenFOAM.org                      |
|    \\/     M anipulation  |                                                 |
\*---------------------------------------------------------------------------*/
FoamFile
{
    version     2.0;
    format      ascii;
    class       volScalarField;
    location    "33.5";
    object      QPartFluid;
}
// * * * * * * * * * * * * * * * * * * * * * * * * * * * * * * * * * * * * * //

dimensions      [1 -1 -3 0 0 0 0];

internalField   nonuniform List<scalar> 
114
(
7.92267e+09
7.41248e+09
7.12722e+09
5.81644e+09
7.98107e+09
5.91772e+09
7.27062e+09
7.03706e+09
5.88813e+09
8.22545e+09
8.39142e+09
1.00719e+10
6.46132e+09
9.9379e+09
6.12267e+09
8.71223e+09
5.86285e+09
5.30886e+09
7.47536e+09
6.26162e+09
6.77426e+09
6.64522e+09
5.70022e+09
7.57175e+09
6.38576e+09
6.60959e+09
8.38077e+09
7.26073e+09
6.81979e+09
4.93374e+09
8.10419e+09
8.24348e+09
9.22207e+09
9.0065e+09
8.86495e+09
1.01534e+10
5.47976e+09
1.06512e+10
6.44073e+09
8.50681e+09
5.51803e+09
7.28891e+09
9.13437e+09
6.15591e+09
8.42494e+09
7.26319e+09
8.1204e+09
4.48483e+09
1.02629e+10
5.07707e+09
7.27507e+09
9.54736e+09
7.36942e+09
8.57164e+09
7.59675e+09
8.01577e+09
6.71654e+09
8.68583e+09
5.0827e+09
6.20122e+09
1.08939e+10
7.02366e+09
9.11132e+09
8.32893e+09
9.1934e+09
1.08212e+10
8.75395e+09
4.7981e+09
7.41559e+09
7.77797e+09
7.80984e+09
7.38023e+09
1.1341e+10
9.26445e+09
9.09322e+09
1.10012e+10
8.28205e+09
5.29456e+09
1.17129e+10
9.57839e+09
9.9653e+09
2.48533e+09
6.86544e+09
4.51593e+09
7.71383e+09
6.04159e+09
5.84226e+09
7.15315e+09
7.91668e+09
4.96966e+09
6.95826e+09
8.21071e+09
5.02162e+09
6.91771e+09
8.15575e+09
7.67301e+09
5.45022e+09
9.0055e+09
5.32236e+09
6.02712e+09
7.29507e+09
8.65731e+09
7.8339e+09
6.1918e+09
9.44144e+09
6.99363e+09
8.19064e+09
6.41149e+09
7.15729e+09
6.46333e+09
7.28417e+09
6.71862e+09
1.03432e+10
8.5303e+09
)
;

boundaryField
{
    inlet
    {
        type            calculated;
        value           nonuniform 0();
    }
    outlet
    {
        type            calculated;
        value           uniform 0;
    }
    wall
    {
        type            calculated;
        value           uniform 0;
    }
    procBoundary5to1
    {
        type            processor;
        value           nonuniform List<scalar> 
32
(
9.60764e+09
6.08683e+09
9.6716e+09
7.62771e+09
7.49337e+09
3.20794e+09
6.4166e+09
8.05367e+09
8.10681e+09
9.03777e+09
7.59441e+09
9.40662e+09
3.67126e+09
7.87127e+09
5.47788e+09
1.11172e+10
8.83997e+09
1.06352e+10
7.45018e+09
9.67107e+09
3.37401e+09
6.51858e+09
5.56507e+09
7.74051e+09
7.74051e+09
7.74051e+09
7.88103e+09
1.21888e+10
1.21888e+10
1.21888e+10
5.85579e+09
5.85579e+09
)
;
    }
    procBoundary5to4
    {
        type            processor;
        value           nonuniform List<scalar> 
12
(
9.65125e+09
1.1119e+10
6.74258e+09
7.04625e+09
9.58246e+09
1.04949e+10
8.62429e+09
8.12571e+09
8.20139e+09
8.57723e+09
7.03366e+09
7.06786e+09
)
;
    }
    procBoundary5to7
    {
        type            processor;
        value           nonuniform List<scalar> 
44
(
9.04465e+09
6.38254e+09
7.92178e+09
1.10544e+10
1.24713e+10
8.00226e+09
6.60445e+09
6.39455e+09
9.95191e+09
9.04465e+09
6.55088e+09
8.66631e+09
7.00659e+09
8.22995e+09
8.83637e+09
9.94866e+09
6.19177e+09
3.84236e+09
6.55088e+09
1.0121e+10
6.55088e+09
8.66631e+09
5.08998e+09
7.27414e+09
8.29134e+09
7.66888e+09
4.72605e+09
8.51915e+09
9.13156e+09
7.04849e+09
5.08998e+09
6.48346e+09
5.08998e+09
7.27414e+09
5.89774e+09
8.15481e+09
4.92755e+09
7.20123e+09
6.95964e+09
7.35738e+09
8.58917e+09
4.95746e+09
5.89774e+09
4.87058e+09
)
;
    }
}


// ************************************************************************* //
