/*--------------------------------*- C++ -*----------------------------------*\
| =========                 |                                                 |
| \\      /  F ield         | OpenFOAM: The Open Source CFD Toolbox           |
|  \\    /   O peration     | Version:  4.x                                   |
|   \\  /    A nd           | Web:      www.OpenFOAM.org                      |
|    \\/     M anipulation  |                                                 |
\*---------------------------------------------------------------------------*/
FoamFile
{
    version     2.0;
    format      ascii;
    class       volScalarField;
    location    "27.5";
    object      nu;
}
// * * * * * * * * * * * * * * * * * * * * * * * * * * * * * * * * * * * * * //

dimensions      [0 2 -1 0 0 0 0];

internalField   nonuniform List<scalar> 
132
(
1.00002e-06
1.00004e-06
1.00006e-06
1.00009e-06
1.00013e-06
1.00017e-06
1.00018e-06
1.00021e-06
9.99919e-07
1.00001e-06
1.00002e-06
1.00004e-06
1.00006e-06
1.00009e-06
1.00013e-06
1.00015e-06
1.00019e-06
1.00013e-06
1.00001e-06
1.00001e-06
1.00003e-06
1.00004e-06
1.00006e-06
1.00009e-06
1.00012e-06
1.00014e-06
1.00039e-06
1e-06
1e-06
1.00001e-06
1.00001e-06
1.00001e-06
1.00002e-06
1.00004e-06
1.00005e-06
1.00114e-06
1.00005e-06
1.00008e-06
1.00009e-06
1.00011e-06
1.0001e-06
1.00009e-06
9.99151e-07
1.00003e-06
1.00005e-06
1.00007e-06
1.00009e-06
1.0001e-06
1.0001e-06
1.00009e-06
1.00008e-06
9.99771e-07
1.00001e-06
1.00002e-06
1.00004e-06
1.00006e-06
1.00008e-06
1.00009e-06
1.00009e-06
1.0001e-06
1.00007e-06
1e-06
1e-06
1.00001e-06
1.00001e-06
1.00002e-06
1.00003e-06
1.00005e-06
1.00007e-06
1.00053e-06
1.00007e-06
1.00008e-06
1.00008e-06
1.00006e-06
9.99826e-07
1.00001e-06
1.00002e-06
1.00003e-06
1.00004e-06
1.00006e-06
1.00007e-06
1.00008e-06
1.00008e-06
1.00005e-06
1e-06
1.00001e-06
1.00002e-06
1.00002e-06
1.00004e-06
1.00005e-06
1.00006e-06
1.00006e-06
1.00019e-06
1e-06
1e-06
1e-06
1.00001e-06
1.00001e-06
1.00001e-06
1.00002e-06
1.00002e-06
1.00318e-06
1.00004e-06
1.00006e-06
1.00034e-06
1e-06
1e-06
1.00001e-06
1.00001e-06
1.00002e-06
1.00003e-06
1.00005e-06
1.00007e-06
1.00031e-06
1e-06
1e-06
1e-06
1.00001e-06
1.00001e-06
1.00002e-06
1.00003e-06
1.00004e-06
1.00065e-06
1e-06
1e-06
1e-06
1e-06
1e-06
1.00001e-06
1.00001e-06
1.00001e-06
1.00082e-06
)
;

boundaryField
{
    inlet
    {
        type            calculated;
        value           nonuniform 0();
    }
    outlet
    {
        type            calculated;
        value           uniform 1e-06;
    }
    wall
    {
        type            calculated;
        value           nonuniform List<scalar> 
66
(
1e-06
1e-06
1e-06
1e-06
1e-06
1e-06
1.00001e-06
1e-06
1e-06
1.00001e-06
1.00001e-06
1e-06
1.00002e-06
1.00001e-06
1e-06
1.00003e-06
1.00002e-06
1.00001e-06
1.00004e-06
1.00005e-06
1.00003e-06
1.00001e-06
1.00006e-06
1.00007e-06
1.00004e-06
1.00001e-06
1.00034e-06
1.00031e-06
1.00065e-06
1.00082e-06
1e-06
1e-06
1e-06
1e-06
1e-06
1e-06
1e-06
1e-06
1.00001e-06
1.00001e-06
1e-06
1e-06
1.00001e-06
1.00001e-06
1.00001e-06
1e-06
1.00001e-06
1.00002e-06
1.00001e-06
1e-06
1.00002e-06
1.00003e-06
1.00001e-06
1.00001e-06
1.00004e-06
1.00005e-06
1.00002e-06
1.00001e-06
1.00005e-06
1.00007e-06
1.00002e-06
1.00001e-06
1.00114e-06
1.00053e-06
1.00318e-06
1.00082e-06
)
;
    }
    procBoundary7to0
    {
        type            processor;
        value           uniform 1.00001e-06;
    }
    procBoundary7to1
    {
        type            processor;
        value           uniform 1.00002e-06;
    }
    procBoundary7to3
    {
        type            processor;
        value           nonuniform List<scalar> 
36
(
1.00006e-06
1.00012e-06
1.00015e-06
1.00017e-06
1.00022e-06
1.00026e-06
1.00028e-06
1.00029e-06
1.00031e-06
1.00002e-06
1.00004e-06
1.00007e-06
1.00012e-06
1.00017e-06
1.00021e-06
1.00026e-06
1.00027e-06
1.00063e-06
1.00001e-06
1.00003e-06
1.00005e-06
1.00009e-06
1.00015e-06
1.00019e-06
1.00023e-06
1.00024e-06
1.00058e-06
1e-06
1.00001e-06
1.00001e-06
1.00001e-06
1.00002e-06
1.00003e-06
1.00005e-06
1.00007e-06
1.00094e-06
)
;
    }
    procBoundary7to5
    {
        type            processor;
        value           nonuniform List<scalar> 
44
(
1.00003e-06
1.00005e-06
1.00008e-06
1.00011e-06
1.00013e-06
1.00014e-06
1.00017e-06
1.00018e-06
1.00002e-06
1.00004e-06
1.00005e-06
1.00007e-06
1.00008e-06
1.00009e-06
1.00008e-06
1.00007e-06
9.99607e-07
1.00002e-06
1.00004e-06
1.00004e-06
1.00004e-06
1.00006e-06
1.00005e-06
1.00006e-06
1.00007e-06
1.00007e-06
9.99867e-07
1.00001e-06
1.00002e-06
1.00004e-06
1.00006e-06
1.00006e-06
1.00002e-06
1.00003e-06
1.00003e-06
1.00004e-06
1.00024e-06
1e-06
1.00001e-06
1.00001e-06
1.00001e-06
1.00002e-06
1.00003e-06
1.00003e-06
)
;
    }
    procBoundary7to6
    {
        type            processor;
        value           nonuniform List<scalar> 
12
(
1.00001e-06
1e-06
1e-06
1.00002e-06
1.00001e-06
1e-06
1e-06
1e-06
1e-06
1e-06
1e-06
1e-06
)
;
    }
}


// ************************************************************************* //
