/*--------------------------------*- C++ -*----------------------------------*\
| =========                 |                                                 |
| \\      /  F ield         | OpenFOAM: The Open Source CFD Toolbox           |
|  \\    /   O peration     | Version:  4.x                                   |
|   \\  /    A nd           | Web:      www.OpenFOAM.org                      |
|    \\/     M anipulation  |                                                 |
\*---------------------------------------------------------------------------*/
FoamFile
{
    version     2.0;
    format      ascii;
    class       volScalarField;
    location    "53.5";
    object      alpha.iron;
}
// * * * * * * * * * * * * * * * * * * * * * * * * * * * * * * * * * * * * * //

dimensions      [0 0 0 0 0 0 0];

internalField   nonuniform List<scalar> 
132
(
1
1
1
1
1
0.999999
0.999999
0.999998
0.999986
1
1
1
1
1
1
0.999999
0.999999
0.999976
1
1
1
1
1
1
1
1
0.999948
1
1
1
1
1
1
1
1
0.999904
1
1
1
0.999999
0.999999
0.999997
0.99997
1
1
1
1
0.999999
0.999999
0.999998
0.999997
0.999873
1
1
1
1
1
0.999999
0.999999
0.999998
0.999987
1
1
1
1
1
1
1
1
0.999995
1
1
1
0.999999
0.999979
1
1
1
1
1
1
0.999999
0.999999
0.99996
1
1
1
1
1
1
1
1
0.999876
1
1
1
1
1
1
1
1
0.996784
1
1
0.999403
1
1
1
1
1
1
1
1
0.999578
1
1
1
1
1
1
1
1
0.998669
1
1
1
1
1
1
1
1
0.999594
)
;

boundaryField
{
    inlet
    {
        type            fixedValue;
        value           nonuniform 0();
    }
    outlet
    {
        type            fixedValue;
        value           uniform 1;
    }
    wall
    {
        type            zeroGradient;
    }
    procBoundary7to0
    {
        type            processor;
        value           uniform 1;
    }
    procBoundary7to1
    {
        type            processor;
        value           uniform 1;
    }
    procBoundary7to3
    {
        type            processor;
        value           nonuniform List<scalar> 
36
(
1
1
1
1
1
1
0.999999
0.999999
0.999986
1
1
1
1
1
1
0.999999
0.999998
0.999991
1
1
1
1
1
1
1
1
0.999972
1
1
1
1
1
1
1
1
0.999892
)
;
    }
    procBoundary7to5
    {
        type            processor;
        value           nonuniform List<scalar> 
44
(
1
1
1
1
0.999999
0.999998
0.999997
0.999952
1
1
1
1
1
1
0.999999
0.999999
0.999982
1
1
1
1
1
1
1
1
1
0.999982
1
1
1
1
1
1
1
1
1
0.999248
1
1
1
1
1
1
1
)
;
    }
    procBoundary7to6
    {
        type            processor;
        value           nonuniform List<scalar> 
12
(
1
1
1
1
1
1
1
1
1
1
1
1
)
;
    }
}


// ************************************************************************* //
