/*--------------------------------*- C++ -*----------------------------------*\
| =========                 |                                                 |
| \\      /  F ield         | OpenFOAM: The Open Source CFD Toolbox           |
|  \\    /   O peration     | Version:  4.x                                   |
|   \\  /    A nd           | Web:      www.OpenFOAM.org                      |
|    \\/     M anipulation  |                                                 |
\*---------------------------------------------------------------------------*/
FoamFile
{
    version     2.0;
    format      ascii;
    class       volVectorField;
    location    "53.5";
    object      U;
}
// * * * * * * * * * * * * * * * * * * * * * * * * * * * * * * * * * * * * * //

dimensions      [0 1 -1 0 0 0 0];

internalField   nonuniform List<vector> 
132
(
(0.00180802 0.000211317 -0.000309402)
(0.0291091 0.000402576 -0.000132453)
(0.0013476 0.000302188 -0.000384666)
(0.0291099 0.000558002 -5.26601e-05)
(0.000414119 0.000130994 -0.000171166)
(0.0287162 0.000767746 0.000751819)
(0.000151628 6.66522e-05 -8.47891e-05)
(0.0246385 -0.00129895 0.0031634)
(0.00336747 0.00140326 -0.00185651)
(7.02218e-05 9.22413e-06 -8.66157e-06)
(0.0286423 0.000191304 -0.00011652)
(1.17423e-08 2.43113e-09 -9.41656e-10)
(0.027977 2.24308e-05 0.000260776)
(0.000671722 0.000213206 -7.31297e-05)
(0.0269494 -0.000703805 0.000975919)
(0.0041196 0.00222118 -0.00027026)
(0.0241476 -0.00301839 0.00150735)
(0.00952804 0.0103481 0.000851183)
(0.0092013 0.000901609 -0.000729376)
(0.0325294 0.000496539 -0.000283847)
(0.00914337 0.00126313 -0.00119081)
(0.0341135 -6.52862e-05 -0.000572234)
(0.00894584 0.00218909 -0.00200715)
(0.0363369 -0.0019181 -0.000479581)
(0.0081447 0.00395562 -0.00333257)
(0.0388928 -0.00559113 0.00145193)
(0.00570984 0.00916604 -0.00513885)
(0.0164092 -0.000519864 -0.00125965)
(0.0354404 -0.000359795 -0.00116446)
(0.0161159 -0.000728592 -0.00176269)
(0.0366749 -0.000572855 -0.000950591)
(0.014836 -0.000895623 -0.00274901)
(0.0381426 -0.000578624 0.000202461)
(0.0114948 -0.000921397 -0.0045695)
(0.0401727 3.86412e-05 0.0023279)
(0.00592074 -0.000466498 -0.00865464)
(1.11822e-08 -1.35082e-09 1.17143e-09)
(0.0277305 -0.000365311 0.000517211)
(1.02329e-08 -1.98931e-09 1.0325e-09)
(0.0273328 -9.71126e-05 0.00084841)
(9.38399e-09 -2.10944e-09 1.14993e-09)
(0.0244626 0.00201633 0.000830709)
(0.00551042 -0.00125538 0.00142145)
(1.07477e-08 5.862e-10 -1.29296e-10)
(0.0268545 -0.000194319 -2.54785e-05)
(1.08042e-08 8.31603e-10 -2.63271e-10)
(0.0272904 -8.44422e-05 -1.35104e-05)
(1.06581e-08 6.40713e-10 -4.43248e-10)
(0.0277272 0.000549049 8.78478e-05)
(1.05092e-08 1.51132e-10 -4.27247e-10)
(0.0273466 0.00111532 0.000405025)
(0.00351015 -0.000617074 7.89117e-05)
(1.14672e-08 1.59362e-09 -1.14329e-09)
(0.0278688 -0.000755047 -6.03542e-05)
(1.09384e-08 2.04469e-09 -1.31018e-09)
(0.0268584 -0.000637643 0.00034635)
(1.05602e-08 2.19829e-09 -1.50575e-09)
(0.0246042 0.000306745 0.000881674)
(9.45027e-09 1.1858e-09 -9.74759e-10)
(0.0191195 -2.08546e-05 0.00137413)
(0.00348385 -0.000570615 0.000340101)
(0.00825352 -0.000113713 -0.000686348)
(0.0298579 -0.000908742 -0.000327921)
(0.00410422 -9.15495e-05 -0.000561611)
(0.0284403 -0.000938282 1.68863e-05)
(0.000152686 2.30398e-07 -2.80697e-05)
(0.025734 5.81973e-05 0.000794506)
(9.48228e-09 1.09476e-10 -1.97301e-09)
(0.0200826 0.000428287 0.00155228)
(0.00272915 6.54514e-05 0.000538014)
(0.00221241 -0.000110798 0.000643003)
(0.0308796 0.000278838 -0.000106916)
(0.00416129 -0.000205809 0.0022996)
(0.0293527 -0.00010881 -0.00244016)
(0.00876016 -0.000539508 0.0115961)
(0.000404223 -1.29386e-06 4.9499e-05)
(0.0284959 0.000174558 -4.04324e-06)
(1.11625e-08 5.27266e-10 1.86281e-09)
(0.0283018 -0.000151006 0.000131393)
(0.000125832 9.86522e-06 2.88161e-05)
(0.0277983 -0.000710711 0.000103036)
(0.00269044 0.000760814 0.00065419)
(0.0256506 -0.00274495 -0.000895557)
(0.00914908 0.00766465 0.00286564)
(0.00731343 0.000380471 0.000169895)
(0.0313147 0.00023436 8.56338e-05)
(0.00728548 0.000494806 0.000307806)
(0.0335019 -0.0001908 -0.000129351)
(0.00815207 0.0011482 0.00106768)
(0.0373485 -0.00167912 -0.000457302)
(0.0092596 0.00285493 0.00267845)
(0.0439143 -0.00468099 -0.0022071)
(0.00725852 0.00913388 0.00848036)
(0.0164363 -0.000146152 0.000206093)
(0.0343553 -0.000189713 0.000787335)
(0.0161444 -0.000571502 0.000432975)
(0.0355245 -0.000621284 0.000733266)
(0.0152573 -0.00116953 0.000944104)
(0.0380051 -0.000821102 5.49143e-05)
(0.0131742 -0.00185788 0.00177652)
(0.0438321 -0.00040928 -0.000838093)
(0.00754937 -0.00173146 0.00740989)
(0.0116494 -0.00357615 0.00166063)
(0.0419975 0.00131496 -0.00177359)
(0.00756235 -0.00735324 0.00617467)
(0.0115882 -0.000359875 0.00013366)
(0.0315893 -0.000267615 -0.00012157)
(0.010313 -0.000581745 3.66101e-05)
(0.0315286 -0.000383502 -0.000419789)
(0.00870354 -0.000896694 0.000253136)
(0.0307525 -0.000419132 -0.00146599)
(0.00624701 -0.00131734 0.000249602)
(0.0291365 0.000270606 -0.00267062)
(0.003648 -0.00170294 0.000721017)
(0.0156299 0.000187712 -0.00020341)
(0.0338041 9.90658e-05 -0.000298015)
(0.0149443 0.000170001 -0.00075558)
(0.0343397 -0.000117574 -0.000855539)
(0.0132705 8.20209e-05 -0.0015485)
(0.0350355 -0.000210549 -0.00113259)
(0.0103909 0.000228218 -0.00293689)
(0.0364311 -0.000671295 -0.000225494)
(0.00586191 0.000109575 -0.00331526)
(0.0198848 -0.000392847 -0.000468116)
(0.0357209 -0.000356766 -0.000474828)
(0.0193931 -0.000594308 -0.000844105)
(0.0356676 -0.000386042 -0.000668884)
(0.0182902 -0.00104342 -0.00164358)
(0.035137 4.68472e-07 -0.000460869)
(0.0168091 -0.001901 -0.00373308)
(0.0325037 0.00127754 0.000915619)
(0.0161522 -0.00492458 -0.00715294)
)
;

boundaryField
{
    inlet
    {
        type            fixedValue;
        value           nonuniform 0();
    }
    outlet
    {
        type            zeroGradient;
    }
    wall
    {
        type            fixedValue;
        value           uniform (0 0 0);
    }
    procBoundary7to0
    {
        type            processor;
        value           uniform (0.0285119 -3.72531e-05 -0.000346846);
    }
    procBoundary7to1
    {
        type            processor;
        value           uniform (1.00066e-08 4.20965e-10 8.73871e-10);
    }
    procBoundary7to3
    {
        type            processor;
        value           nonuniform List<vector> 
36
(
(0.003868 -0.000357249 -0.000726578)
(0.0303725 -0.000240775 -0.000171617)
(0.00318854 -0.000472151 -0.000828046)
(0.0308499 -0.000549025 0.000200641)
(0.00342373 -0.000923717 -0.00144029)
(0.0306018 -0.000686559 0.00117582)
(0.00420053 -0.00171243 -0.00269577)
(0.0280803 0.00109536 0.00374746)
(0.00787253 -0.00421526 -0.00915482)
(1.12107e-08 -7.92781e-10 -7.75322e-10)
(0.0272451 -0.000237475 0.000468461)
(1.10202e-08 -6.61043e-10 -9.79572e-10)
(0.026994 4.48657e-05 0.00066203)
(1.032e-08 -1.1882e-09 -2.00629e-09)
(0.0265212 0.000878401 0.00184137)
(9.84724e-09 -7.54003e-10 -2.53232e-09)
(0.022868 0.00120814 0.00264638)
(0.00379786 -0.000165193 -0.000522397)
(0.000889369 8.50123e-05 -4.69961e-05)
(0.0297787 -0.000234582 -6.23876e-05)
(1.18113e-08 1.71452e-09 -9.38e-10)
(0.0302128 -0.000316084 0.000337951)
(0.00118256 0.000351779 -0.000225954)
(0.0310907 -0.000260696 0.0011797)
(0.00484084 0.00258068 -0.00165313)
(0.0299101 -0.00216051 0.00322674)
(0.00998506 0.0111496 -0.00705244)
(0.013891 -0.000100288 -0.000653185)
(0.0333849 -0.000313392 -0.000257782)
(0.0126638 -0.000380603 -0.000713567)
(0.0339398 -0.00102687 0.000158102)
(0.0107643 -0.000237352 -0.00114104)
(0.0352723 -0.00128507 0.000788015)
(0.00860685 0.000384782 -0.00193716)
(0.0401086 -0.00113423 0.0026943)
(0.00603229 0.0035783 -0.00524227)
)
;
    }
    procBoundary7to5
    {
        type            processor;
        value           nonuniform List<vector> 
44
(
(0.0258782 0.000546623 5.47553e-05)
(1.11501e-08 7.56831e-10 1.26304e-09)
(0.0254992 0.000191962 0.000225096)
(1.07827e-08 2.71359e-10 -9.27351e-10)
(0.0246015 -0.000364191 0.000723156)
(1.0715e-08 5.75726e-10 -1.79247e-09)
(0.0212045 -0.00154487 0.00122682)
(0.00660713 0.000292567 -0.000786128)
(1.11729e-08 -9.00063e-10 8.81118e-10)
(0.0276104 -0.000301356 -4.08409e-05)
(1.16509e-08 -1.57504e-09 3.83779e-09)
(0.0288279 0.00025949 0.000305625)
(0.000504831 -0.000164095 0.000153189)
(0.0294239 0.000171593 0.000567128)
(0.0025333 -0.00114706 0.00103627)
(0.0279552 0.00197 -0.000761396)
(0.00631068 -0.00326156 0.00271818)
(1.11729e-08 -9.00063e-10 8.81118e-10)
(0.0276104 -0.000301356 -4.08409e-05)
(0.0276104 -0.000301356 -4.08409e-05)
(0.00132012 -4.79117e-05 0.000211824)
(0.0304542 0.000134114 -0.000116721)
(1.11912e-08 -5.93551e-10 1.92146e-09)
(0.0272675 0.000632488 -0.000397567)
(0.0020623 -0.000290317 0.000747494)
(0.0247134 0.000607857 -0.00180674)
(0.00851775 -0.00292882 0.00891001)
(0.00206188 -7.6433e-05 0.000169499)
(0.0297471 0.000219545 1.01e-05)
(0.00132012 -4.79117e-05 0.000211824)
(0.0304542 0.000134114 -0.000116721)
(0.0304542 0.000134114 -0.000116721)
(0.0128784 -0.00168489 0.000464167)
(0.0373227 -0.00043359 -0.000791139)
(0.0126878 -0.0013845 0.00362098)
(0.0433967 0.00154113 -0.00391012)
(0.00782125 -0.00189553 0.00918706)
(0.014198 -0.000643292 0.000196484)
(0.0337713 -0.0005152 0.000165317)
(0.0138323 -0.000985878 0.00016768)
(0.035113 -0.000638055 -0.000424563)
(0.0128784 -0.00168489 0.000464167)
(0.0373227 -0.00043359 -0.000791139)
(0.0373227 -0.00043359 -0.000791139)
)
;
    }
    procBoundary7to6
    {
        type            processor;
        value           nonuniform List<vector> 
12
(
(0.0282657 0.000601969 -0.000211569)
(0.0310596 0.0009598 -0.000332853)
(0.0339497 -0.000116991 -0.000945458)
(0.026373 -0.000406859 -0.000140666)
(0.0280851 -0.000489701 -0.000382028)
(0.0304892 -0.000208554 -0.000452253)
(0.0282519 0.000125852 -8.75683e-06)
(0.0301253 0.000804184 0.000498623)
(0.0333341 0.000170761 0.000643193)
(0.031255 -0.000286693 0.000508266)
(0.0330556 0.000248261 8.94353e-05)
(0.0351134 -0.00011756 -0.000209115)
)
;
    }
}


// ************************************************************************* //
