/*--------------------------------*- C++ -*----------------------------------*\
| =========                 |                                                 |
| \\      /  F ield         | OpenFOAM: The Open Source CFD Toolbox           |
|  \\    /   O peration     | Version:  4.x                                   |
|   \\  /    A nd           | Web:      www.OpenFOAM.org                      |
|    \\/     M anipulation  |                                                 |
\*---------------------------------------------------------------------------*/
FoamFile
{
    version     2.0;
    format      ascii;
    class       volVectorField;
    location    "53.5";
    object      Us;
}
// * * * * * * * * * * * * * * * * * * * * * * * * * * * * * * * * * * * * * //

dimensions      [0 1 -1 0 0 0 0];

internalField   nonuniform List<vector> 
132
(
(1.3062e-09 4.95373e-10 1.09889e-09)
(1.46546e-09 5.17483e-10 1.18458e-09)
(1.78099e-09 8.52537e-10 1.59685e-09)
(1.79664e-09 4.90857e-10 5.73714e-10)
(1.60956e-09 3.497e-10 2.44455e-10)
(1.26202e-09 3.16835e-10 -3.20386e-10)
(7.78726e-10 3.11926e-10 -3.63701e-10)
(6.00634e-10 2.66367e-10 -3.87508e-10)
(2.98411e-10 6.45356e-11 6.63909e-11)
(1.27185e-09 1.52232e-10 3.46617e-10)
(1.51818e-09 2.92711e-10 4.83493e-10)
(1.63028e-09 3.83439e-10 4.56446e-10)
(1.76032e-09 4.43531e-10 2.53192e-10)
(1.46664e-09 2.61707e-10 9.25531e-11)
(1.18829e-09 2.7424e-10 -1.0778e-10)
(9.99111e-10 2.07177e-10 -1.53425e-10)
(6.06444e-10 2.41081e-10 -1.75906e-10)
(2.85145e-10 1.98255e-10 7.10499e-11)
(1.02428e-09 2.239e-10 1.33476e-10)
(1.25301e-09 7.28487e-11 4.96946e-11)
(1.24496e-09 2.78121e-10 2.5388e-10)
(1.1771e-09 3.47695e-10 1.46494e-10)
(1.07158e-09 2.12007e-10 3.56923e-11)
(8.26618e-10 1.63423e-10 4.80776e-11)
(6.0294e-10 1.77385e-10 -1.58591e-10)
(5.54893e-10 2.6127e-10 -5.21973e-10)
(3.08645e-10 3.33227e-10 -1.90106e-10)
(5.7694e-10 -1.52037e-11 5.5201e-11)
(7.66396e-10 -4.67804e-11 7.0472e-11)
(6.56724e-10 1.70591e-10 1.02854e-10)
(6.31948e-10 1.86886e-10 1.04493e-10)
(5.73899e-10 1.22037e-10 1.08962e-10)
(4.25968e-10 8.24485e-11 1.21082e-10)
(2.96337e-10 6.89179e-11 -1.26528e-10)
(2.69161e-10 1.08383e-10 -5.59662e-10)
(1.91885e-10 1.22706e-10 -2.03558e-11)
(1.60593e-09 3.86803e-10 8.65805e-10)
(1.63113e-09 4.61452e-10 5.78414e-10)
(1.273e-09 2.70176e-10 2.07098e-10)
(1.08528e-09 4.70903e-10 2.18085e-11)
(6.51247e-10 5.2014e-10 -9.58698e-11)
(4.56269e-10 4.66433e-10 -1.0501e-10)
(2.52107e-10 3.95572e-10 4.14635e-10)
(1.2043e-09 3.2437e-10 2.66087e-10)
(1.36317e-09 4.36607e-10 3.97531e-10)
(1.52043e-09 2.93107e-10 3.3969e-10)
(1.59202e-09 4.99031e-10 1.59012e-10)
(1.46333e-09 4.26142e-10 2.13931e-10)
(1.14109e-09 5.64282e-10 7.66594e-11)
(9.53071e-10 4.1305e-10 2.66678e-11)
(7.26128e-10 3.15012e-10 1.84529e-10)
(-2.38352e-11 1.94097e-10 3.3488e-10)
(1.11094e-09 2.66688e-10 1.25697e-10)
(1.13117e-09 1.62969e-10 1.03419e-10)
(1.23017e-09 4.35138e-10 2.84788e-10)
(1.38295e-09 3.95863e-10 1.69279e-10)
(1.44707e-09 5.31274e-10 1.49416e-10)
(1.40652e-09 7.93213e-10 1.3274e-10)
(1.18681e-09 2.90378e-10 1.03491e-10)
(6.8887e-10 1.03722e-10 -5.37342e-11)
(5.0741e-10 2.00956e-10 2.5005e-10)
(5.26281e-10 -4.08061e-11 -1.60882e-11)
(6.53777e-10 6.59301e-13 9.14549e-11)
(6.57094e-10 3.36276e-10 1.88833e-10)
(9.00477e-10 1.48716e-10 1.16498e-10)
(8.74981e-10 2.12906e-10 6.04057e-11)
(8.13768e-10 3.88551e-10 1.78499e-10)
(6.20376e-10 1.82555e-10 7.47819e-11)
(4.19805e-10 -2.52594e-11 -2.47224e-10)
(2.20587e-10 1.43344e-10 -8.72791e-12)
(9.51102e-10 3.88155e-10 1.75e-10)
(6.49845e-10 4.7374e-10 8.18395e-11)
(3.10981e-10 5.25192e-10 8.56033e-11)
(2.28291e-10 5.83282e-10 3.34869e-10)
(1.74462e-10 4.9583e-10 5.96735e-10)
(1.05535e-09 3.6583e-10 2.10372e-10)
(1.23202e-09 5.26055e-10 1.63523e-10)
(1.15871e-09 3.86354e-10 1.24609e-10)
(1.01852e-09 4.93331e-10 3.81964e-11)
(9.51264e-10 4.79462e-10 9.66037e-11)
(7.68645e-10 6.27894e-10 5.764e-12)
(6.96502e-10 5.15976e-10 1.07489e-10)
(4.72007e-10 2.69209e-10 4.39348e-10)
(1.42353e-10 2.09205e-10 5.16751e-10)
(1.03068e-09 2.38423e-10 1.90888e-11)
(1.17406e-09 1.91908e-10 9.14716e-11)
(1.32834e-09 3.76312e-10 -1.9314e-11)
(1.30742e-09 5.31944e-10 4.7739e-11)
(1.32828e-09 5.21335e-10 1.80686e-10)
(1.5182e-09 6.3128e-10 -1.57638e-11)
(1.32239e-09 3.55879e-10 8.69729e-11)
(1.23829e-09 -6.46458e-11 4.68004e-10)
(7.86531e-10 -2.28939e-11 9.88082e-11)
(6.04957e-10 -6.35199e-12 -7.28055e-11)
(6.52832e-10 5.7332e-11 1.10963e-11)
(8.01732e-10 7.69174e-11 5.56301e-13)
(1.11936e-09 1.64836e-10 8.77567e-11)
(1.02194e-09 2.0224e-10 1.1068e-10)
(1.51622e-09 2.34808e-10 3.14648e-10)
(1.20125e-09 1.65997e-10 3.02544e-10)
(8.23891e-10 -6.50262e-12 4.40299e-10)
(6.37038e-10 1.84569e-10 1.54169e-10)
(2.83877e-10 3.86416e-10 1.53976e-10)
(3.61627e-10 5.14456e-10 3.49912e-10)
(-3.55499e-10 9.98862e-10 1.09308e-09)
(3.42339e-10 2.09418e-10 6.48739e-11)
(4.23233e-10 3.21088e-10 -3.70894e-11)
(4.81237e-10 2.18934e-10 -1.92993e-11)
(4.33502e-10 2.65899e-10 5.14494e-12)
(2.94723e-10 3.39781e-10 9.39924e-11)
(1.91135e-10 3.81474e-10 5.93999e-12)
(2.74587e-10 3.44399e-10 1.7772e-10)
(2.04237e-10 -3.10999e-12 3.50472e-10)
(-3.70498e-10 -1.95642e-10 6.7968e-10)
(4.93582e-10 4.20908e-10 3.48722e-12)
(5.22549e-10 2.51997e-10 1.03821e-12)
(5.86645e-10 3.17981e-10 -8.38105e-11)
(6.39609e-10 3.09564e-10 7.19798e-12)
(6.5421e-10 3.38753e-10 8.39377e-11)
(5.34479e-10 2.80581e-10 -4.74154e-11)
(5.9643e-10 1.98943e-10 -7.90657e-11)
(1.03622e-09 1.69962e-10 2.87885e-10)
(7.25716e-10 1.60078e-10 -1.68426e-10)
(3.30165e-10 -2.56116e-12 -2.37164e-11)
(4.3536e-10 4.91315e-11 -2.25641e-11)
(5.09089e-10 7.09069e-11 -4.54087e-14)
(6.67675e-10 1.22903e-10 6.4198e-11)
(9.09583e-10 -6.08757e-09 3.95713e-11)
(7.27189e-10 2.01117e-10 1.74604e-10)
(1.00815e-09 1.20815e-10 7.83029e-11)
(1.7437e-09 4.55248e-10 4.93483e-10)
(-1.66205e-09 3.69575e-09 8.04344e-10)
)
;

boundaryField
{
    inlet
    {
        type            zeroGradient;
    }
    outlet
    {
        type            zeroGradient;
    }
    wall
    {
        type            zeroGradient;
    }
    procBoundary7to0
    {
        type            processor;
        value           uniform (9.13439e-10 4.51969e-10 8.09053e-10);
    }
    procBoundary7to1
    {
        type            processor;
        value           uniform (3.98197e-10 7.05179e-10 1.72047e-09);
    }
    procBoundary7to3
    {
        type            processor;
        value           nonuniform List<vector> 
36
(
(1.36589e-09 8.87983e-12 1.02577e-09)
(1.46272e-09 2.38649e-10 1.50402e-09)
(1.30794e-09 1.15829e-09 2.14325e-09)
(1.52039e-09 -2.04999e-10 8.09795e-10)
(1.45383e-09 -3.32144e-10 8.7221e-11)
(1.3268e-09 4.20402e-11 -5.41752e-10)
(1.09942e-09 1.14881e-11 -6.64758e-10)
(7.42237e-10 9.76741e-11 -2.00452e-10)
(5.84597e-10 -2.07081e-11 4.54682e-11)
(1.24848e-09 -1.71317e-10 4.42598e-10)
(1.42592e-09 -2.33176e-10 3.67752e-10)
(1.63256e-09 1.04742e-10 4.15612e-10)
(1.44372e-09 -3.27669e-11 1.22675e-10)
(1.34356e-09 -1.45635e-10 -1.38519e-10)
(1.17252e-09 -3.19874e-11 -3.2271e-10)
(8.33331e-10 -4.04929e-11 -4.14736e-10)
(4.6806e-10 6.60275e-11 -4.03262e-10)
(2.75454e-10 -1.97818e-11 -5.20812e-12)
(1.12812e-09 -1.76306e-10 1.68462e-10)
(1.17431e-09 -2.28188e-10 9.46711e-11)
(1.17349e-09 1.04608e-11 1.24101e-10)
(1.06753e-09 1.37675e-11 1.74214e-13)
(9.7403e-10 -1.68426e-11 -3.42806e-11)
(6.73402e-10 1.0808e-11 -9.83098e-11)
(2.70666e-10 -9.57004e-11 -3.29154e-10)
(2.206e-10 5.40587e-11 -1.13288e-09)
(8.88001e-11 -1.8684e-10 -1.15195e-09)
(6.83951e-10 -1.95563e-10 6.81279e-11)
(7.61488e-10 -1.50199e-10 4.07538e-11)
(6.84546e-10 1.64881e-12 7.6951e-11)
(5.36468e-10 1.43262e-10 2.17653e-11)
(5.40703e-10 6.393e-12 -2.78798e-11)
(2.99105e-10 4.84241e-11 -2.79481e-11)
(-4.48469e-11 2.25105e-11 -2.3584e-10)
(-2.24334e-10 -9.84881e-11 -1.11398e-09)
(-1.2893e-10 -6.70896e-10 -2.17701e-09)
)
;
    }
    procBoundary7to5
    {
        type            processor;
        value           nonuniform List<vector> 
44
(
(1.32653e-09 7.49676e-10 2.68939e-09)
(1.90013e-09 1.05588e-09 2.50114e-09)
(2.11787e-09 6.24192e-10 1.42075e-09)
(1.59707e-09 3.18485e-10 5.88656e-10)
(1.2494e-09 2.11634e-10 8.65412e-11)
(8.30311e-10 2.82843e-10 -2.21906e-10)
(5.78538e-10 1.8233e-10 -4.01665e-10)
(2.52862e-10 5.62484e-11 -6.52866e-11)
(1.17162e-09 5.738e-10 7.36193e-10)
(1.42727e-09 4.77329e-10 9.84029e-10)
(1.78015e-09 5.79124e-10 1.77972e-09)
(1.83589e-09 5.06597e-10 9.80902e-10)
(1.49791e-09 2.0126e-10 3.08618e-10)
(1.04768e-09 2.41568e-10 8.62532e-11)
(7.93525e-10 3.53973e-10 -1.82123e-10)
(3.80725e-10 4.63622e-10 -2.76288e-10)
(5.95217e-11 3.36767e-10 -3.95592e-11)
(1.17162e-09 5.738e-10 7.36193e-10)
(1.42727e-09 4.77329e-10 9.84029e-10)
(1.42727e-09 4.77329e-10 9.84029e-10)
(1.36381e-09 3.66802e-10 3.78489e-10)
(1.10905e-09 3.39777e-10 2.4248e-10)
(1.11632e-09 1.0642e-10 1.61945e-10)
(6.63504e-10 2.84219e-10 1.15021e-10)
(2.59271e-10 4.78455e-10 -1.52368e-10)
(-5.5507e-11 8.02354e-10 -1.93054e-10)
(-1.03217e-10 1.04863e-09 -2.14655e-10)
(1.25367e-09 4.97978e-10 2.36362e-10)
(1.27241e-09 4.84369e-10 3.91611e-10)
(1.36381e-09 3.66802e-10 3.78489e-10)
(1.10905e-09 3.39777e-10 2.4248e-10)
(1.10905e-09 3.39777e-10 2.4248e-10)
(5.43072e-10 2.64002e-10 5.04947e-11)
(3.59757e-10 3.02294e-10 1.14712e-10)
(1.77502e-10 3.97348e-10 9.36175e-12)
(-1.00075e-10 7.56567e-10 2.15113e-11)
(-1.42895e-10 1.44566e-09 4.76281e-11)
(8.16121e-10 2.53072e-10 3.32185e-11)
(8.96075e-10 2.667e-10 7.84205e-11)
(8.17333e-10 -2.33135e-10 3.99003e-11)
(6.67956e-10 6.38229e-11 9.19385e-11)
(5.43072e-10 2.64002e-10 5.04947e-11)
(3.59757e-10 3.02294e-10 1.14712e-10)
(3.59757e-10 3.02294e-10 1.14712e-10)
)
;
    }
    procBoundary7to6
    {
        type            processor;
        value           nonuniform List<vector> 
12
(
(1.11565e-09 3.96586e-10 2.70622e-10)
(9.47212e-10 9.4413e-11 8.57389e-11)
(2.98967e-10 -4.38305e-11 -6.53426e-12)
(1.14922e-09 3.86414e-10 2.08859e-10)
(9.20526e-10 1.19404e-10 1.30976e-10)
(3.23928e-10 -3.61652e-11 3.17502e-11)
(8.7455e-10 3.38739e-10 1.889e-10)
(9.5225e-10 2.99079e-10 2.74624e-11)
(4.92967e-10 7.72699e-11 -9.21704e-11)
(3.37438e-10 1.80041e-10 2.04094e-11)
(4.82631e-10 4.32137e-10 -3.68037e-11)
(3.16244e-10 1.1866e-10 -9.52068e-11)
)
;
    }
}


// ************************************************************************* //
