/*--------------------------------*- C++ -*----------------------------------*\
| =========                 |                                                 |
| \\      /  F ield         | OpenFOAM: The Open Source CFD Toolbox           |
|  \\    /   O peration     | Version:  4.x                                   |
|   \\  /    A nd           | Web:      www.OpenFOAM.org                      |
|    \\/     M anipulation  |                                                 |
\*---------------------------------------------------------------------------*/
FoamFile
{
    version     2.0;
    format      ascii;
    class       volVectorField;
    location    "27.5";
    object      DDtUrel;
}
// * * * * * * * * * * * * * * * * * * * * * * * * * * * * * * * * * * * * * //

dimensions      [0 1 -2 0 0 0 0];

internalField   nonuniform List<vector> 
87
(
(0.000293646 6.36846e-05 4.30407e-05)
(0.000182213 5.73242e-05 3.65224e-05)
(0.000137648 4.21002e-05 4.33358e-05)
(-4.11545e-05 1.53293e-05 3.0488e-05)
(-0.000101124 -1.21083e-05 3.00842e-05)
(-0.000526422 -6.6833e-05 -5.95221e-05)
(-0.000795223 -0.000128917 -0.000155223)
(-0.00224835 -0.000303381 -0.000621841)
(-0.00399015 -0.000394322 -0.000995168)
(0.000296169 4.98881e-05 4.29237e-05)
(0.000179767 3.61787e-05 4.2345e-05)
(0.000115569 2.64404e-05 5.31777e-05)
(-7.78443e-05 -1.39675e-05 4.21225e-05)
(-0.000149759 -2.21929e-05 4.3212e-05)
(-0.000567084 -0.00010551 -5.14758e-05)
(-0.000822285 -9.88944e-05 -0.000128386)
(-0.00213602 -0.000393486 -0.000460842)
(-0.00367146 -0.000672296 -0.000794869)
(0.000262907 3.03152e-05 4.95276e-05)
(0.000144329 4.40999e-05 5.76766e-05)
(4.42764e-05 4.2647e-05 6.79336e-05)
(-0.000156082 4.12712e-07 4.55569e-05)
(-0.000311108 -1.73237e-05 3.52212e-05)
(-0.000656286 -6.50067e-05 -5.86689e-05)
(-0.00104373 -8.10983e-05 -0.000152435)
(-0.00188007 -0.000234145 -0.000433751)
(-0.00288033 -0.000411066 -0.0007205)
(0.000229539 5.69703e-05 4.24207e-05)
(0.000125412 5.17729e-05 3.31802e-05)
(7.58376e-05 3.82005e-05 3.84098e-05)
(-8.01281e-05 1.25024e-05 2.07978e-05)
(-0.000147956 -1.11869e-05 3.23778e-05)
(-0.000506236 -7.29439e-05 -5.99032e-05)
(-0.000787148 -0.000140659 -0.00011674)
(-0.0019697 -0.000316261 -0.000560368)
(-0.00335318 -0.000407906 -0.000968299)
(0.000225038 5.29058e-05 5.64788e-05)
(0.000130605 3.95788e-05 4.70489e-05)
(6.33172e-05 2.82839e-05 4.63734e-05)
(-0.000107494 -7.0434e-06 2.75701e-05)
(-0.000185546 -1.69719e-05 4.04272e-05)
(-0.000534193 -9.33911e-05 -5.83578e-05)
(-0.000834667 -0.000112351 -0.000116186)
(-0.00187656 -0.00041238 -0.000476094)
(-0.00304773 -0.00067953 -0.00084653)
(0.000209754 2.48276e-05 6.24151e-05)
(0.000119792 3.01026e-05 5.19842e-05)
(7.43472e-06 3.32366e-05 5.05357e-05)
(-0.000162784 4.33809e-06 3.2951e-05)
(-0.000308907 -1.29944e-05 2.39643e-05)
(-0.000589989 -4.49264e-05 -6.2457e-05)
(-0.000982295 -7.60908e-05 -0.000162075)
(-0.00165505 -0.000212737 -0.000447157)
(-0.0024221 -0.000357139 -0.000723654)
(0.000164575 6.63397e-05 2.31516e-05)
(5.71624e-05 5.95004e-05 2.3179e-05)
(-2.27749e-05 3.42507e-05 3.30434e-05)
(-0.000154929 3.60783e-07 1.741e-05)
(-0.00025482 -2.03627e-05 2.13891e-05)
(-0.000533824 -7.88515e-05 -3.50452e-05)
(-0.000881876 -0.000145682 -5.50319e-05)
(-0.00165375 -0.000284884 -0.000286452)
(-0.00259728 -0.00041082 -0.000548626)
(0.000179475 6.02975e-05 2.64716e-05)
(8.8669e-05 4.692e-05 2.80647e-05)
(-3.89543e-05 2.82097e-05 4.10782e-05)
(-0.000171772 -2.57545e-06 2.59367e-05)
(-0.000259558 -2.27122e-05 2.18981e-05)
(-0.000525009 -8.59804e-05 -4.86048e-05)
(-0.000862134 -0.000122407 -8.33253e-05)
(-0.00156995 -0.000330696 -0.000332271)
(-0.00240916 -0.000547343 -0.000583114)
(0.000149225 3.25048e-05 2.56378e-05)
(7.91781e-05 2.29664e-05 2.29218e-05)
(-7.04379e-05 1.20601e-05 3.0314e-05)
(-0.000224287 -7.01419e-06 1.9377e-05)
(-0.000317334 -2.52142e-05 7.17751e-06)
(-0.000552573 -5.19179e-05 -5.47872e-05)
(-0.000895676 -7.81522e-05 -0.00012208)
(-0.0013921 -0.000230606 -0.000350942)
(-0.00202659 -0.000347082 -0.000545328)
(9.806e-05 3.09232e-05 1.7545e-05)
(2.53077e-05 3.33046e-05 2.44849e-05)
(-4.94522e-05 2.74337e-05 4.09042e-05)
(8.87653e-05 2.30205e-05 -4.80195e-07)
(3.23207e-05 2.305e-05 1.72763e-05)
(5.21169e-05 6.13739e-06 -4.04104e-06)
)
;

boundaryField
{
    inlet
    {
        type            calculated;
        value           nonuniform 0();
    }
    outlet
    {
        type            calculated;
        value           nonuniform List<vector> 9((-0.0125608 0.000203913 -0.00290043) (-0.0120037 -0.00320495 -0.00133314) (-0.00507053 -0.00177344 -0.00129514) (-0.00913481 9.34841e-05 -0.00386632) (-0.00786803 -0.00379128 -0.00301476) (-0.00265891 -0.00125557 -0.00141772) (-0.00524873 -0.000191425 -0.00182681) (-0.00496448 -0.00197164 -0.00223392) (-0.00267782 -0.00152532 -0.00125936));
    }
    wall
    {
        type            calculated;
        value           nonuniform List<vector> 
57
(
(0.000669216 0.000182603 8.75367e-05)
(0.000937359 0.000143255 1.018e-05)
(0.000554672 4.9745e-05 0.000208042)
(0.000147086 0.00016786 -1.4169e-05)
(0.000262662 -7.59249e-05 -3.82108e-05)
(-0.000228831 0.000216545 0.000141792)
(0.000829235 0.000139532 9.19311e-05)
(0.000844958 2.25441e-05 0.000130022)
(7.56516e-05 0.000294059 0.00020188)
(-0.000194436 0.000115853 -1.57494e-05)
(-0.000253786 -0.000273066 7.24586e-05)
(-0.00054893 -0.000109366 -3.63739e-05)
(0.00137499 0.000104292 0.000271824)
(0.00142422 0.000159391 0.00042682)
(-0.000196388 -2.0878e-05 0.000261514)
(-0.000970813 9.43413e-05 -6.32387e-05)
(-0.00104408 -0.000676473 -4.12267e-05)
(-0.000914632 -0.000355129 -7.38599e-05)
(0.00310095 0.000178773 0.000846694)
(0.00324092 0.000955548 0.000818363)
(-0.000426419 0.000132183 0.000452847)
(-0.00251176 -0.000258241 -0.00160567)
(-0.00265252 -0.00115029 1.07375e-06)
(-0.00135091 -0.000544101 -0.000181657)
(-0.0125608 0.000203913 -0.00290043)
(-0.0120037 -0.00320495 -0.00133314)
(-0.00507053 -0.00177344 -0.00129514)
(0.000669216 0.000182603 8.75367e-05)
(0.000485847 7.51533e-05 0.000106597)
(0.000377397 0.000339508 -2.24548e-05)
(0.000137304 3.4872e-05 1.29768e-05)
(0.000147086 0.00016786 -1.4169e-05)
(-3.24126e-05 7.56993e-05 -3.57589e-05)
(-0.000239832 0.000261703 -5.81786e-05)
(-0.000118942 6.86397e-05 1.48854e-05)
(0.000829235 0.000139532 9.19311e-05)
(0.00057196 0.000108201 8.95057e-05)
(-2.44611e-05 8.95009e-05 5.05397e-05)
(-9.52615e-05 0.000104096 0.000130818)
(-0.000194436 0.000115853 -1.57494e-05)
(-0.000172246 9.42847e-05 -0.000113906)
(-0.000384014 -5.27176e-05 -0.000133826)
(0.00137499 0.000104292 0.000271824)
(0.00109243 0.000160785 0.000385081)
(0.000144438 0.00012635 0.000135425)
(-0.000970813 9.43413e-05 -6.32387e-05)
(-0.000524236 8.08945e-06 -0.000256831)
(-0.000464415 -1.19401e-05 -0.000244254)
(0.00310095 0.000178773 0.000846694)
(0.00259497 0.000101843 0.00106369)
(0.000198828 7.58743e-05 0.000619691)
(-0.00251176 -0.000258241 -0.00160567)
(-0.00171774 -0.000428974 -0.00158459)
(-0.00105022 -8.52905e-06 -0.00022012)
(-0.0125608 0.000203913 -0.00290043)
(-0.00913481 9.34841e-05 -0.00386632)
(-0.00524873 -0.000191425 -0.00182681)
)
;
    }
    procBoundary1to0
    {
        type            processor;
        value           nonuniform List<vector> 
12
(
(0.000347471 5.27567e-05 3.65382e-05)
(0.000315494 3.73742e-05 3.44373e-05)
(0.000282047 1.78225e-05 2.55183e-05)
(0.000259481 4.52705e-05 3.62095e-05)
(0.000235937 3.0268e-05 3.47584e-05)
(0.00021792 1.83291e-05 3.44514e-05)
(0.000193788 3.70099e-05 2.12083e-05)
(0.000180535 3.07731e-05 2.33596e-05)
(0.000223897 1.97351e-05 2.65161e-05)
(0.000117988 2.16406e-05 2.02804e-05)
(0.000102731 1.56905e-05 1.47079e-05)
(9.64767e-05 1.02819e-05 1.3157e-05)
)
;
    }
    procBoundary1to3
    {
        type            processor;
        value           nonuniform List<vector> 
27
(
(0.000292872 8.499e-06 8.25258e-06)
(0.000235929 2.59269e-05 4.90438e-05)
(0.000105922 2.93863e-05 9.09179e-05)
(-0.000147269 2.08663e-05 7.5573e-05)
(-0.000311081 1.61661e-05 5.30629e-05)
(-0.000682842 1.65568e-05 -5.72347e-05)
(-0.00105294 6.99411e-06 -0.000166061)
(-0.00184849 3.02773e-05 -0.00046991)
(-0.00289005 5.4008e-05 -0.00075867)
(0.000221929 2.38784e-06 1.69675e-05)
(0.000201345 1.25435e-05 5.95163e-05)
(4.36951e-05 1.40376e-05 8.89402e-05)
(-0.000183321 1.25372e-05 4.206e-05)
(-0.000303526 1.17899e-05 2.02988e-05)
(-0.000595291 1.95616e-05 -8.07644e-05)
(-0.000922049 1.49938e-05 -0.000169974)
(-0.00161308 9.22628e-05 -0.000537001)
(-0.00246804 0.000149599 -0.000848276)
(0.000162517 1.17583e-05 2.16683e-05)
(0.000337397 -9.71397e-06 1.43957e-05)
(-7.579e-05 -1.96169e-05 1.45728e-05)
(-0.000385324 1.01045e-06 9.78516e-06)
(-0.000336785 3.36385e-06 1.20724e-06)
(-0.000556317 8.6957e-06 -7.57585e-05)
(-0.000863976 1.27544e-05 -0.000161384)
(-0.00136842 5.69255e-05 -0.000447519)
(-0.00196938 9.28552e-05 -0.000649644)
)
;
    }
    procBoundary1to5
    {
        type            processor;
        value           nonuniform List<vector> 
32
(
(-0.000171758 -5.56761e-06 3.41626e-05)
(-0.000297868 -3.51253e-05 3.65366e-05)
(-0.000519606 -9.06109e-05 3.30394e-05)
(-0.00090101 -0.000169733 3.80988e-05)
(-0.00143714 -0.000312189 4.38819e-05)
(-0.00216194 -0.000482085 4.55102e-05)
(-5.55285e-05 2.22604e-05 5.08688e-05)
(-0.000169616 -7.33715e-06 3.03291e-05)
(-0.000280843 -3.12323e-05 2.0693e-05)
(-0.000497215 -8.22537e-05 7.4501e-06)
(-0.00084553 -0.000131794 1.00017e-05)
(-0.00136397 -0.000316399 -5.66986e-05)
(-0.00201847 -0.00051599 -0.00011837)
(2.95461e-05 2.11312e-06 1.66081e-06)
(-9.1702e-05 5.83424e-06 2.14753e-05)
(-0.000193992 -9.9465e-06 1.80386e-05)
(-0.000307646 -2.60191e-05 1.06407e-05)
(-0.000488942 -5.42895e-05 -1.42439e-05)
(-0.000833029 -9.49007e-05 -5.22884e-05)
(-0.00124563 -0.00022076 -0.000140221)
(-0.00176449 -0.000315347 -0.000197512)
(8.37665e-05 9.37413e-06 2.12389e-05)
(3.59622e-05 1.46108e-05 2.61599e-05)
(-0.000171758 -5.56761e-06 3.41626e-05)
(-5.55285e-05 2.22604e-05 5.08688e-05)
(-3.83486e-06 2.93122e-05 3.39867e-05)
(6.16037e-05 1.30795e-05 1.223e-05)
(-5.55285e-05 2.22604e-05 5.08688e-05)
(2.95461e-05 2.11312e-06 1.66081e-06)
(3.60787e-05 6.12276e-06 1.41117e-05)
(2.95461e-05 2.11312e-06 1.66081e-06)
(3.51724e-05 5.89789e-06 5.94706e-06)
)
;
    }
    procBoundary1to7
    {
        type            processor;
        value           uniform (8.44239e-05 8.26518e-06 2.19064e-05);
    }
}


// ************************************************************************* //
