/*--------------------------------*- C++ -*----------------------------------*\
| =========                 |                                                 |
| \\      /  F ield         | OpenFOAM: The Open Source CFD Toolbox           |
|  \\    /   O peration     | Version:  4.x                                   |
|   \\  /    A nd           | Web:      www.OpenFOAM.org                      |
|    \\/     M anipulation  |                                                 |
\*---------------------------------------------------------------------------*/
FoamFile
{
    version     2.0;
    format      ascii;
    class       volScalarField;
    location    "27.5";
    object      pSmooth;
}
// * * * * * * * * * * * * * * * * * * * * * * * * * * * * * * * * * * * * * //

dimensions      [1 -1 -2 0 0 0 0];

internalField   nonuniform List<scalar> 
87
(
19.6352
74.6897
1.18681
69.1533
0.1
65.1093
0.1
64.4694
0.1
19.0116
74.2593
0.352407
68.7194
0.1
64.7718
0.1
64.2351
0.1
19.3444
74.6533
1.22838
68.9167
0.1
64.1324
0.1
60.5699
0.1
19.4559
74.7382
1.15795
68.9916
0.1
64.3609
0.1
61.8539
0.1
18.9966
74.7389
0.555065
68.9329
0.1
64.2094
0.1
61.8684
0.1
19.513
74.9835
1.65929
69.0918
0.1
63.8278
0.1
58.1702
0.1
19.4992
74.7357
1.302
68.9582
0.1
63.8448
0.1
60.4406
0.1
19.4127
74.235
0.662047
68.802
0.1
63.3947
0.1
59.8236
0.1
19.8255
74.4408
2.11643
68.8565
0.1
62.9979
0.1
57.4599
0.1
20.2707
75.0986
2.27564
20.2808
75.0629
21.8487
)
;

boundaryField
{
    inlet
    {
        type            zeroGradient;
    }
    outlet
    {
        type            fixedValue;
        value           uniform 0;
    }
    wall
    {
        type            zeroGradient;
    }
    procBoundary1to0
    {
        type            processor;
        value           nonuniform List<scalar> 
12
(
80.9293
80.7874
81.1515
81.1821
81.205
82.0298
81.2
81.5787
81.8927
81.5688
81.7067
81.9242
)
;
    }
    procBoundary1to3
    {
        type            processor;
        value           nonuniform List<scalar> 
27
(
18.9393
74.2924
0.1
68.3749
0.1
64.2705
0.1
62.5761
0.1
18.7409
75.3202
0.1
68.7832
0.1
63.9749
0.1
60.5355
0.1
22.1185
75.3286
1.31066
68.1978
0.1
63.1644
0.1
57.481
0.1
)
;
    }
    procBoundary1to5
    {
        type            processor;
        value           nonuniform List<scalar> 
32
(
69.1123
0.1
63.7099
0.1
58.3659
0.1
1.96322
68.8968
0.1
63.3187
0.1
58.5729
0.1
75.2376
4.6112
68.6217
0.1
62.6771
0.1
55.0148
0.1
19.6451
74.8619
69.1123
1.96322
1.31156
19.8293
1.96322
75.2376
75.1213
75.2376
21.3816
)
;
    }
    procBoundary1to7
    {
        type            processor;
        value           uniform 21.6277;
    }
}


// ************************************************************************* //
