/*--------------------------------*- C++ -*----------------------------------*\
| =========                 |                                                 |
| \\      /  F ield         | OpenFOAM: The Open Source CFD Toolbox           |
|  \\    /   O peration     | Version:  4.x                                   |
|   \\  /    A nd           | Web:      www.OpenFOAM.org                      |
|    \\/     M anipulation  |                                                 |
\*---------------------------------------------------------------------------*/
FoamFile
{
    version     2.0;
    format      ascii;
    class       volScalarField;
    location    "45.5";
    object      alpha.iron;
}
// * * * * * * * * * * * * * * * * * * * * * * * * * * * * * * * * * * * * * //

dimensions      [0 0 0 0 0 0 0];

internalField   nonuniform List<scalar> 
87
(
1
1
1
1
1
1
1
1
0.996459
1
1
1
1
1
1
1
1
0.999137
1
1
1
1
1
1
0.999999
0.999999
0.999576
1
1
1
1
1
1
1
1
0.999602
1
1
1
1
1
1
0.999999
0.999999
0.999774
1
1
1
0.999999
0.999998
0.999997
0.999994
0.999994
0.999901
1
1
1
1
1
1
1
1
0.999806
1
1
1
1
0.999999
0.999999
0.999997
0.999997
0.999836
1
1
0.999999
0.999999
0.999997
0.999995
0.999991
0.999988
0.999897
1
1
1
1
1
1
)
;

boundaryField
{
    inlet
    {
        type            fixedValue;
        value           nonuniform 0();
    }
    outlet
    {
        type            fixedValue;
        value           uniform 1;
    }
    wall
    {
        type            zeroGradient;
    }
    procBoundary1to0
    {
        type            processor;
        value           nonuniform List<scalar> 
12
(
1
1
1
1
1
1
1
1
1
1
1
1
)
;
    }
    procBoundary1to3
    {
        type            processor;
        value           nonuniform List<scalar> 
27
(
1
1
1
1
1
1
1
0.999999
0.999806
1
1
1
1
0.999999
0.999998
0.999996
0.999995
0.999836
1
1
0.999999
0.999998
0.999996
0.999993
0.999987
0.999984
0.999921
)
;
    }
    procBoundary1to5
    {
        type            processor;
        value           nonuniform List<scalar> 
32
(
1
1
1
1
0.999999
0.999992
1
1
0.999999
0.999999
0.999997
0.999995
0.999956
1
0.999999
0.999999
0.999997
0.999994
0.999989
0.999982
0.999847
1
1
1
1
1
1
1
1
1
1
1
)
;
    }
    procBoundary1to7
    {
        type            processor;
        value           uniform 1;
    }
}


// ************************************************************************* //
