/*--------------------------------*- C++ -*----------------------------------*\
| =========                 |                                                 |
| \\      /  F ield         | OpenFOAM: The Open Source CFD Toolbox           |
|  \\    /   O peration     | Version:  4.x                                   |
|   \\  /    A nd           | Web:      www.OpenFOAM.org                      |
|    \\/     M anipulation  |                                                 |
\*---------------------------------------------------------------------------*/
FoamFile
{
    version     2.0;
    format      ascii;
    class       volVectorField;
    location    "45.5";
    object      impParticleForces;
}
// * * * * * * * * * * * * * * * * * * * * * * * * * * * * * * * * * * * * * //

dimensions      [1 1 -2 0 0 0 0];

internalField   nonuniform List<vector> 
87
(
(0.0024362 0.000140237 -3.56662e-05)
(0.00247872 0.000344378 -2.25318e-05)
(0.00246959 0.000145596 -2.68085e-05)
(0.0025096 7.26083e-05 -2.75526e-05)
(0.00246351 4.02715e-05 -2.75677e-05)
(0.0024646 2.31543e-05 -2.79751e-05)
(0.00245125 1.20331e-05 -3.38987e-05)
(0.00243532 2.94184e-06 -3.71732e-05)
(0.00231066 -8.81355e-06 -5.36615e-05)
(0.00246999 7.94725e-05 -3.86621e-05)
(0.00249822 0.000123999 -3.16623e-05)
(0.00250437 8.38071e-05 -2.9302e-05)
(0.00253407 5.2244e-05 -2.7174e-05)
(0.00249691 3.15409e-05 -2.63145e-05)
(0.00250753 1.96265e-05 -2.57147e-05)
(0.00248023 8.96382e-06 -3.15761e-05)
(0.00247967 4.88664e-06 -3.41613e-05)
(0.0023284 -1.26311e-05 -5.6695e-05)
(0.00247382 4.43634e-05 -3.94257e-05)
(0.00251185 5.69647e-05 -3.35606e-05)
(0.00249678 4.79297e-05 -2.87594e-05)
(0.00252987 3.52994e-05 -2.51528e-05)
(0.00248665 2.40421e-05 -2.33237e-05)
(0.00249395 1.59983e-05 -2.26365e-05)
(0.00245076 8.42264e-06 -2.94702e-05)
(0.00244224 4.78534e-06 -3.27793e-05)
(0.00231357 -4.43205e-06 -5.61583e-05)
(0.0024607 7.94833e-05 -3.72528e-05)
(0.00247763 0.000124551 -3.01776e-05)
(0.00248102 8.53306e-05 -2.75428e-05)
(0.00251185 5.37657e-05 -2.55158e-05)
(0.00247474 3.38985e-05 -2.40847e-05)
(0.00248031 2.11837e-05 -2.36102e-05)
(0.00245702 1.1708e-05 -2.74284e-05)
(0.00243056 2.98849e-06 -3.022e-05)
(0.00230078 -7.26407e-06 -4.56303e-05)
(0.00250403 5.36539e-05 -3.87179e-05)
(0.00251419 7.2385e-05 -3.20671e-05)
(0.00251043 5.87659e-05 -2.79112e-05)
(0.0025542 4.18423e-05 -2.4928e-05)
(0.00252139 2.79923e-05 -2.26103e-05)
(0.00252262 1.90695e-05 -2.06865e-05)
(0.00249177 9.83906e-06 -2.50502e-05)
(0.00248065 5.65992e-06 -2.78869e-05)
(0.00231944 -9.94882e-06 -4.79553e-05)
(0.00249028 3.41898e-05 -3.83593e-05)
(0.00252558 4.20342e-05 -3.19707e-05)
(0.00250272 3.78384e-05 -2.70091e-05)
(0.00252518 2.98065e-05 -2.2704e-05)
(0.00248609 2.14475e-05 -1.99159e-05)
(0.00250688 1.47412e-05 -1.82891e-05)
(0.00246738 8.65779e-06 -2.23344e-05)
(0.00246216 3.66384e-06 -2.61072e-05)
(0.00231781 -2.7561e-06 -4.96399e-05)
(0.00242757 4.22473e-05 -3.52238e-05)
(0.0024584 5.59868e-05 -2.98843e-05)
(0.0024577 4.83623e-05 -2.58594e-05)
(0.00248798 3.67552e-05 -2.25841e-05)
(0.00243789 2.54824e-05 -1.87439e-05)
(0.00244431 1.71269e-05 -1.65196e-05)
(0.00239858 9.0249e-06 -1.76585e-05)
(0.00237727 2.56997e-06 -1.4321e-05)
(0.00225821 -7.38888e-06 -2.43744e-05)
(0.00246199 3.20748e-05 -3.56092e-05)
(0.0024925 4.07919e-05 -2.99921e-05)
(0.00247061 3.72926e-05 -2.50182e-05)
(0.00250836 3.01947e-05 -2.07261e-05)
(0.00247107 2.15279e-05 -1.77465e-05)
(0.00248029 1.56428e-05 -1.43056e-05)
(0.0024233 7.63195e-06 -1.56521e-05)
(0.00240838 3.774e-06 -1.51968e-05)
(0.00227758 -9.11996e-06 -2.8131e-05)
(0.00245874 2.29727e-05 -3.49075e-05)
(0.00248851 2.792e-05 -2.86498e-05)
(0.002459 2.67953e-05 -2.36301e-05)
(0.00250273 2.3041e-05 -1.91111e-05)
(0.00245704 1.73435e-05 -1.57873e-05)
(0.00247019 1.31283e-05 -1.23834e-05)
(0.00240871 8.0928e-06 -1.34498e-05)
(0.00238981 5.64933e-06 -1.52177e-05)
(0.00227869 -3.28425e-06 -2.94353e-05)
(0.00239685 2.17818e-05 -2.85393e-05)
(0.00240478 2.83456e-05 -2.28305e-05)
(0.0024011 2.77988e-05 -1.81358e-05)
(0.00243067 1.81837e-05 -2.89083e-05)
(0.00246508 2.37961e-05 -2.36736e-05)
(0.00241374 1.47683e-05 -2.84113e-05)
)
;

boundaryField
{
    inlet
    {
        type            zeroGradient;
    }
    outlet
    {
        type            zeroGradient;
    }
    wall
    {
        type            zeroGradient;
    }
    procBoundary1to0
    {
        type            processor;
        value           nonuniform List<vector> 
12
(
(0.00241261 6.228e-05 -4.46227e-05)
(0.00247235 4.29389e-05 -4.6865e-05)
(0.00248894 2.8334e-05 -4.75097e-05)
(0.00245893 4.24381e-05 -4.48264e-05)
(0.00250811 3.11946e-05 -4.63457e-05)
(0.00249333 2.26146e-05 -4.5731e-05)
(0.00243528 2.46068e-05 -4.16572e-05)
(0.00248435 1.91784e-05 -4.27982e-05)
(0.00245406 1.54496e-05 -4.12129e-05)
(0.00242099 1.22106e-05 -3.46756e-05)
(0.00244875 1.04544e-05 -3.51455e-05)
(0.00243073 9.68382e-06 -3.42169e-05)
)
;
    }
    procBoundary1to3
    {
        type            processor;
        value           nonuniform List<vector> 
27
(
(0.00249361 2.6881e-05 -3.98123e-05)
(0.00248725 3.14088e-05 -3.31263e-05)
(0.00248928 2.89687e-05 -2.77949e-05)
(0.00248082 2.38594e-05 -2.32962e-05)
(0.00246435 1.78588e-05 -2.09602e-05)
(0.00244964 1.43138e-05 -2.02026e-05)
(0.0024139 1.02199e-05 -2.62772e-05)
(0.00237029 1.08401e-05 -3.4226e-05)
(0.00228146 9.7521e-06 -5.17668e-05)
(0.00249644 2.29383e-05 -3.86393e-05)
(0.00252453 2.63657e-05 -3.21984e-05)
(0.00250833 2.49602e-05 -2.68841e-05)
(0.00252447 2.11401e-05 -2.17644e-05)
(0.0024807 1.69535e-05 -1.86781e-05)
(0.00248179 1.36595e-05 -1.61859e-05)
(0.00242879 1.15991e-05 -2.10614e-05)
(0.0024151 1.01332e-05 -2.54539e-05)
(0.00231201 9.7706e-06 -5.13361e-05)
(0.00245682 1.72899e-05 -3.47305e-05)
(0.00249746 1.95852e-05 -2.88986e-05)
(0.00246542 1.91036e-05 -2.38492e-05)
(0.0024886 1.68982e-05 -1.88191e-05)
(0.00244253 1.43669e-05 -1.52571e-05)
(0.00245422 1.23804e-05 -1.16533e-05)
(0.00239719 1.1223e-05 -1.43451e-05)
(0.00236878 1.21442e-05 -1.76481e-05)
(0.00228464 1.02121e-05 -3.47372e-05)
)
;
    }
    procBoundary1to5
    {
        type            processor;
        value           nonuniform List<vector> 
32
(
(0.00242099 2.41873e-05 -1.29844e-05)
(0.00237893 1.77904e-05 -8.31356e-06)
(0.00237974 1.20717e-05 -3.30795e-06)
(0.00232414 4.60623e-06 -3.48668e-07)
(0.00230191 -2.48543e-06 3.0606e-06)
(0.00221996 -1.15801e-05 1.29663e-06)
(0.00242355 2.35622e-05 -1.80728e-05)
(0.00244033 2.11885e-05 -1.30244e-05)
(0.00239961 1.59598e-05 -8.1378e-06)
(0.00241346 1.18886e-05 -2.45456e-06)
(0.00235662 4.7612e-06 -5.86889e-07)
(0.00233966 -7.90288e-07 3.07672e-06)
(0.00224818 -1.12485e-05 -1.87356e-06)
(0.00244733 1.85011e-05 -2.3129e-05)
(0.00241028 1.82705e-05 -1.79531e-05)
(0.00243497 1.65399e-05 -1.28868e-05)
(0.00239674 1.30705e-05 -8.38481e-06)
(0.0023954 9.82497e-06 -3.53021e-06)
(0.00234629 5.65798e-06 -1.18836e-06)
(0.00231628 1.72776e-06 -5.72231e-08)
(0.00224226 -4.12941e-06 -4.19637e-06)
(0.00238915 9.92975e-06 -2.04412e-05)
(0.00239569 1.40129e-05 -1.49687e-05)
(0.00242099 2.41873e-05 -1.29844e-05)
(0.00242355 2.35622e-05 -1.80728e-05)
(0.0023879 1.5185e-05 -9.74232e-06)
(0.00241647 8.70998e-06 -2.07703e-05)
(0.00242355 2.35622e-05 -1.80728e-05)
(0.00244733 1.85011e-05 -2.3129e-05)
(0.00242781 1.24487e-05 -1.56824e-05)
(0.00244733 1.85011e-05 -2.3129e-05)
(0.00239558 8.26517e-06 -2.1311e-05)
)
;
    }
    procBoundary1to7
    {
        type            processor;
        value           uniform (0.00241303 1.24728e-05 -2.88296e-05);
    }
}


// ************************************************************************* //
