/*--------------------------------*- C++ -*----------------------------------*\
| =========                 |                                                 |
| \\      /  F ield         | OpenFOAM: The Open Source CFD Toolbox           |
|  \\    /   O peration     | Version:  4.x                                   |
|   \\  /    A nd           | Web:      www.OpenFOAM.org                      |
|    \\/     M anipulation  |                                                 |
\*---------------------------------------------------------------------------*/
FoamFile
{
    version     2.0;
    format      ascii;
    class       volScalarField;
    location    "45.5";
    object      QWallFluidCoeff;
}
// * * * * * * * * * * * * * * * * * * * * * * * * * * * * * * * * * * * * * //

dimensions      [1 -1 -3 -1 0 0 0];

internalField   nonuniform List<scalar> 
87
(
-5.37355e+06
-7.5085e+06
-5.46442e+06
-7.87802e+06
-5.40611e+06
-8.54953e+06
-4.96741e+06
-1.01084e+07
-3.64908e+06
-2.38807e+06
-3.60351e+06
-2.41804e+06
-3.76879e+06
-2.35313e+06
-4.03773e+06
-2.10225e+06
-4.56955e+06
-1.78063e+06
-2.04161e+06
-3.31809e+06
-2.0025e+06
-3.40373e+06
-1.91833e+06
-3.60002e+06
-1.80033e+06
-4.08565e+06
-1.67622e+06
-1.83713e+06
-3.20483e+06
-1.8273e+06
-3.27293e+06
-1.7291e+06
-3.36003e+06
-1.46459e+06
-3.48004e+06
-1.03135e+06
0
0
0
0
0
0
0
0
0
0
0
0
0
0
0
0
0
0
-1.72403e+06
-3.14795e+06
-1.66473e+06
-3.22744e+06
-1.53749e+06
-3.34475e+06
-1.34147e+06
-3.49126e+06
-1.25441e+06
0
0
0
0
0
0
0
0
0
0
0
0
0
0
0
0
0
0
-1.3006e+06
-2.81023e+06
-962703
0
0
0
)
;

boundaryField
{
    inlet
    {
        type            calculated;
        value           nonuniform 0();
    }
    outlet
    {
        type            calculated;
        value           uniform 0;
    }
    wall
    {
        type            calculated;
        value           uniform 0;
    }
    procBoundary1to0
    {
        type            processor;
        value           uniform 0;
    }
    procBoundary1to3
    {
        type            processor;
        value           uniform 0;
    }
    procBoundary1to5
    {
        type            processor;
        value           uniform 0;
    }
    procBoundary1to7
    {
        type            processor;
        value           uniform 0;
    }
}


// ************************************************************************* //
