/*--------------------------------*- C++ -*----------------------------------*\
| =========                 |                                                 |
| \\      /  F ield         | OpenFOAM: The Open Source CFD Toolbox           |
|  \\    /   O peration     | Version:  4.x                                   |
|   \\  /    A nd           | Web:      www.OpenFOAM.org                      |
|    \\/     M anipulation  |                                                 |
\*---------------------------------------------------------------------------*/
FoamFile
{
    version     2.0;
    format      ascii;
    class       volVectorField;
    location    "45.5";
    object      U;
}
// * * * * * * * * * * * * * * * * * * * * * * * * * * * * * * * * * * * * * //

dimensions      [0 1 -1 0 0 0 0];

internalField   nonuniform List<vector> 
87
(
(0.0280998 0.000633118 -0.000879497)
(0.0431525 0.000425082 -0.000915616)
(0.0289705 0.000780072 -0.00145556)
(0.0461457 0.000548137 -0.000760564)
(0.0286943 0.000894985 -0.00262178)
(0.0514237 0.000675325 8.20967e-05)
(0.025668 0.000468395 -0.00546149)
(0.0637082 0.00119485 0.00286446)
(0.0133258 -0.00328535 -0.0113796)
(0.024373 -0.000642507 -0.000916314)
(0.0409296 -0.000659117 -0.000924502)
(0.0249974 -0.000950321 -0.00128956)
(0.0437696 -0.000325083 -0.000581427)
(0.0241559 -0.00170984 -0.00204386)
(0.0480859 0.000574452 0.000745758)
(0.0207285 -0.00372415 -0.00406577)
(0.056053 0.00331785 0.00371171)
(0.010601 -0.00950097 -0.0096808)
(0.0202509 0.00018222 -0.000735568)
(0.0374081 0.000290299 -0.000788716)
(0.0199827 0.000501716 -0.00101377)
(0.0389936 0.000598895 -7.53653e-05)
(0.0188761 0.000233945 -0.00203407)
(0.041673 0.000677177 0.00115649)
(0.01702 -0.00098711 -0.00449753)
(0.0488082 0.00125925 0.00456942)
(0.010346 -0.00416837 -0.0114962)
(0.0179464 0.000395959 -0.000173612)
(0.0360239 0.00023493 -0.000171605)
(0.0179022 0.000625704 -0.000332546)
(0.0373837 0.000402287 0.000134089)
(0.0168388 0.000953601 -0.000707161)
(0.0390097 0.000694491 0.00103318)
(0.0136839 0.00102471 -0.00242401)
(0.0407158 0.000578377 0.00386039)
(0.00638519 0.000458149 -0.00613663)
(0.00961252 -0.000303735 -0.000103922)
(0.0326307 -0.00044499 -3.59874e-05)
(0.00854256 -0.000328111 -5.65678e-05)
(0.0342432 0.000454586 0.000615813)
(0.00704101 -0.000701325 -0.000332886)
(0.0363322 0.00182286 0.00207271)
(0.00623394 -0.00171411 -0.00133545)
(0.0383179 0.00518174 0.00510645)
(0.0055683 -0.00579617 -0.00615953)
(0.00252069 0.000125315 -0.000150315)
(0.0298888 0.000316555 0.000228531)
(0.000315637 2.95299e-05 -3.02251e-05)
(0.0299126 0.000416715 0.000724047)
(1.22732e-08 -8.82344e-10 -2.45129e-09)
(0.0287343 0.000169739 0.00175683)
(0.00192052 0.000139525 -0.000750075)
(0.0260847 -0.000180273 0.00420815)
(0.00897247 0.00013036 -0.0103999)
(0.0168417 0.0004264 -0.00142328)
(0.0359145 0.000332529 -0.00134212)
(0.0162224 0.000708049 -0.00204499)
(0.0376127 0.000701168 -0.00126868)
(0.0144917 0.000593198 -0.00335121)
(0.0396911 0.00108266 2.85602e-05)
(0.0113724 0.000179943 -0.00555622)
(0.0413771 0.00140406 0.00340287)
(0.00634332 -0.000585533 -0.00949436)
(0.00877646 -0.00064313 -0.000966942)
(0.0328253 -0.000227512 -0.000631792)
(0.00879485 -0.000969731 -0.00119504)
(0.0346396 0.000235928 0.000136553)
(0.0085562 -0.00179707 -0.00215083)
(0.0366317 0.00130361 0.00116409)
(0.00816932 -0.00351718 -0.00399808)
(0.0388516 0.00414927 0.00396631)
(0.00629851 -0.00811753 -0.00831574)
(0.00259476 -0.000136219 -0.000550261)
(0.0294287 -3.58914e-05 0.000126867)
(0.00197526 -0.000158694 -0.000641487)
(0.0299054 0.000478513 6.43283e-05)
(0.00222205 -0.000377615 -0.00102621)
(0.0299306 0.000940671 0.000658913)
(0.00411399 -0.00159858 -0.00244449)
(0.0282041 0.00290357 0.00261121)
(0.00880819 -0.0071644 -0.00524446)
(0.0120359 9.95984e-05 -0.000459818)
(0.0316221 0.000509337 -0.00017809)
(0.00836255 0.000394088 -0.000453239)
(0.0017378 -0.00025366 -0.000172752)
(0.0291338 0.000600445 -0.000374007)
(1.10144e-08 -1.04156e-10 1.31006e-09)
)
;

boundaryField
{
    inlet
    {
        type            fixedValue;
        value           nonuniform 0();
    }
    outlet
    {
        type            zeroGradient;
    }
    wall
    {
        type            fixedValue;
        value           uniform (0 0 0);
    }
    procBoundary1to0
    {
        type            processor;
        value           nonuniform List<vector> 
12
(
(0.0406862 8.63069e-05 -0.00117121)
(0.0386742 -0.000992167 -0.00122371)
(0.036135 -0.00018391 -0.00113667)
(0.0348099 -6.27212e-05 -0.000526341)
(0.0317183 -0.000897788 -0.00055113)
(0.0296064 9.46617e-05 -0.000352994)
(0.0344657 -9.77157e-05 -0.00126565)
(0.0314352 -0.000738536 -0.00102743)
(0.0289271 -0.000337394 4.23937e-06)
(0.0321497 -0.000131488 -0.000599581)
(0.0289222 1.09948e-05 -0.000704497)
(0.0262016 0.000344549 -0.000113965)
)
;
    }
    procBoundary1to3
    {
        type            processor;
        value           nonuniform List<vector> 
27
(
(0.0225363 -0.000304922 -0.000276571)
(0.0399291 -0.000310177 -0.000501271)
(0.0232288 -0.000387469 -0.000317833)
(0.0424514 -0.000681232 5.20127e-05)
(0.022393 -0.00163016 -0.000517473)
(0.045425 -0.00133797 0.00138517)
(0.0184126 -0.00451667 -0.00178614)
(0.049971 0.000165078 0.00340559)
(0.00893806 -0.0115251 -0.00542551)
(0.00669023 8.3908e-05 -0.000478866)
(0.032351 0.000178091 -0.000371525)
(0.00562439 0.000130689 -0.000614431)
(0.0338427 3.03405e-05 0.000587313)
(0.00473741 0.00011048 -0.000988966)
(0.0353783 -0.000321118 0.00239365)
(0.00439826 2.01264e-05 -0.0021973)
(0.0372931 -0.00108241 0.00647886)
(0.00543418 -0.000677677 -0.0102475)
(0.00360348 -0.000329833 -0.000717805)
(0.0302658 -0.000173172 -9.16382e-05)
(0.00281507 -0.000409979 -0.000776663)
(0.0305907 -0.000457047 0.000291983)
(0.00290531 -0.000789889 -0.00129076)
(0.0301965 -0.00062641 0.00126911)
(0.00373671 -0.00153335 -0.00246979)
(0.0276201 0.00103205 0.00390966)
(0.00760203 -0.00401139 -0.00853561)
)
;
    }
    procBoundary1to5
    {
        type            processor;
        value           nonuniform List<vector> 
32
(
(0.0295797 0.00111786 0.0001771)
(0.00299147 0.000236915 -0.000313671)
(0.0254583 0.000531642 0.000928505)
(1.26222e-08 1.38141e-09 -2.28495e-09)
(0.0177762 -0.000458133 0.00208891)
(0.00129901 0.000428072 -0.000100828)
(9.35026e-05 -1.93118e-05 -1.46723e-05)
(0.0288533 0.00115415 0.000311181)
(0.000233564 -6.4593e-05 -6.13067e-05)
(0.0279569 0.00122322 0.00165194)
(0.0014947 -0.000439972 -0.000672277)
(0.0243022 0.00280954 0.00426745)
(0.00637558 -0.000920627 -0.00518489)
(0.0259327 0.000641884 0.000104968)
(1.24448e-08 4.1696e-10 1.50398e-09)
(0.0255432 0.000259409 0.000363256)
(1.20717e-08 -4.51406e-10 -1.51163e-09)
(0.0246032 -0.000370594 0.0007932)
(1.15402e-08 -4.20703e-10 -3.04495e-09)
(0.0210835 -0.00147524 0.00126076)
(0.00652169 0.000187697 -0.000494826)
(0.014673 -0.000314697 0.000216728)
(0.0344038 -0.000344708 0.000733048)
(0.0295797 0.00111786 0.0001771)
(9.35026e-05 -1.93118e-05 -1.46723e-05)
(0.0142291 -0.000442915 0.000808815)
(0.00325352 -0.00039784 5.89878e-05)
(9.35026e-05 -1.93118e-05 -1.46723e-05)
(0.0259327 0.000641884 0.000104968)
(0.0301316 -1.72001e-05 0.000256069)
(0.0259327 0.000641884 0.000104968)
(2.17876e-05 -3.34857e-06 2.70967e-06)
)
;
    }
    procBoundary1to7
    {
        type            processor;
        value           uniform (0.000884597 0.000104438 -0.000173928);
    }
}


// ************************************************************************* //
