/*--------------------------------*- C++ -*----------------------------------*\
  =========                 |
  \\      /  F ield         | OpenFOAM: The Open Source CFD Toolbox
   \\    /   O peration     | Website:  https://openfoam.org
    \\  /    A nd           | Version:  4.x
     \\/     M anipulation  |
\*---------------------------------------------------------------------------*/
FoamFile
{
    version     2.0;
    format      ascii;
    class       vectorField;
    location    0;
    object      v;
}
// * * * * * * * * * * * * * * * * * * * * * * * * * * * * * * * * * * * * * //

258
(
( 2.23142e-10 -4.69305e-11 2.1623e-11 )  
( 2.19141e-09 7.7759e-11 1.01362e-10 )  
( 2.94015e-10 -4.14405e-11 6.75667e-11 )  
( 1.9176e-10 -8.95595e-11 -3.49576e-11 )  
( 1.3846e-09 -1.54459e-10 2.33899e-10 )  
( 8.25774e-10 1.65866e-10 2.01061e-10 )  
( 1.85192e-09 4.95713e-10 3.61043e-10 )  
( 4.0445e-10 -4.39669e-11 -1.13875e-11 )  
( 1.79909e-09 4.14934e-10 3.3048e-10 )  
( 9.38555e-10 -3.11626e-11 1.76568e-10 )  
( 2.97889e-10 -8.10314e-12 -3.29192e-11 )  
( 1.86702e-09 3.15573e-10 1.98355e-10 )  
( 3.03971e-10 -1.06513e-10 3.66154e-11 )  
( 1.06756e-09 -2.58699e-10 1.15299e-12 )  
( 4.37869e-10 -7.92772e-11 -1.12171e-11 )  
( 1.3126e-10 -1.21805e-10 -4.86616e-11 )  
( 4.16146e-10 -3.26424e-11 8.29484e-11 )  
( 1.04795e-10 -5.80847e-11 -2.8609e-11 )  
( 2.53168e-10 -1.45325e-11 -2.12992e-11 )  
( 4.10627e-10 -2.32741e-11 4.04297e-11 )  
( 2.17481e-10 -8.87451e-11 -3.17067e-11 )  
( 8.0183e-10 -1.83055e-10 1.4809e-10 )  
( 2.50153e-09 9.35794e-10 5.2879e-10 )  
( 4.09276e-10 -5.49213e-11 3.00834e-11 )  
( 6.41917e-10 -1.87543e-10 5.50199e-11 )  
( 1.32689e-09 3.26065e-10 4.95412e-10 )  
( 1.65795e-09 4.38924e-11 3.66061e-10 )  
( 1.32455e-09 1.75017e-10 3.05412e-10 )  
( 6.22094e-10 4.88991e-11 1.56294e-10 )  
( 2.06297e-10 3.66157e-11 4.40686e-11 )  
( 3.54265e-10 -7.3611e-11 -3.58527e-11 )  
( 1.32681e-09 1.05134e-11 2.83908e-10 )  
( 1.79269e-09 4.58522e-10 2.5186e-10 )  
( 1.64233e-09 5.04743e-10 4.14468e-10 )  
( 4.53187e-11 -4.13833e-12 -1.29672e-11 )  
( 1.71257e-09 4.27704e-10 4.0386e-10 )  
( 1.11576e-10 -1.00822e-10 -2.8358e-11 )  
( 1.19952e-09 3.2e-11 5.97227e-11 )  
( 1.58077e-09 3.05986e-10 2.13854e-10 )  
( 2.31651e-09 7.66021e-10 3.55017e-10 )  
( 3.86998e-10 -8.78009e-11 3.17543e-11 )  
( 3.72384e-10 -4.41448e-11 3.81694e-11 )  
( 3.22381e-10 -2.18273e-11 6.96284e-11 )  
( 6.7916e-10 5.49853e-11 1.21963e-10 )  
( 4.27121e-11 -1.8621e-11 -8.45599e-12 )  
( -4.65981e-11 -4.71e-10 -3.76851e-10 )  
( 2.16654e-09 3.74176e-10 1.72836e-10 )  
( 2.30951e-09 6.98722e-10 3.51583e-10 )  
( 1.48424e-10 -9.54481e-11 -1.4768e-11 )  
( 3.90483e-10 -8.24034e-11 5.34029e-12 )  
( 1.04781e-10 -2.3904e-11 2.59401e-11 )  
( 1.88548e-09 2.16066e-10 2.95983e-10 )  
( 3.11928e-11 -2.79765e-12 -5.56197e-11 )  
( 2.29445e-10 1.53582e-11 -2.81466e-11 )  
( 3.76037e-10 -5.55054e-11 1.82863e-11 )  
( 1.71016e-10 -6.90027e-11 -3.49735e-11 )  
( 2.59333e-09 9.09063e-10 8.71176e-10 )  
( 1.1384e-09 2.20456e-10 2.75337e-10 )  
( 1.49938e-10 -7.02946e-11 9.22343e-12 )  
( 1.55207e-09 1.69157e-10 2.08536e-11 )  
( 5.78996e-10 6.86185e-11 2.28236e-10 )  
( 6.12939e-10 1.14904e-11 1.67449e-10 )  
( 3.15477e-10 -6.83968e-11 -1.75549e-13 )  
( 5.01333e-11 -9.26089e-11 -5.17032e-11 )  
( 2.142e-10 1.02062e-10 -5.48742e-11 )  
( 4.38328e-10 -1.95252e-10 -2.13436e-10 )  
( 1.2533e-10 -6.10361e-11 1.86957e-11 )  
( 1.08832e-10 -2.24186e-10 -4.4677e-10 )  
( 1.76102e-09 1.29294e-10 2.98516e-10 )  
( 4.89212e-10 -5.68327e-11 1.13279e-11 )  
( 1.55911e-09 3.6137e-10 4.6078e-10 )  
( 1.58661e-09 5.28455e-10 1.24487e-10 )  
( 5.91534e-10 -1.33395e-10 -6.56789e-12 )  
( 1.38186e-09 1.20717e-11 3.69727e-10 )  
( 2.15695e-10 -1.81429e-11 1.93594e-11 )  
( 1.19953e-09 2.26925e-10 4.64703e-11 )  
( 4.65443e-10 -2.82634e-11 -6.55995e-11 )  
( 5.19263e-10 -1.19507e-10 -3.4492e-11 )  
( 7.52033e-10 -1.6929e-10 -6.40154e-11 )  
( 5.79325e-10 -7.06745e-11 1.23578e-11 )  
( 2.66809e-10 -1.0912e-10 1.22475e-11 )  
( 1.9218e-09 7.79524e-11 6.35617e-10 )  
( 2.42044e-10 2.24313e-12 -5.08338e-11 )  
( 6.62926e-10 -3.80667e-11 1.73172e-10 )  
( 1.58703e-09 2.94611e-10 3.10268e-11 )  
( 2.8589e-10 -1.81869e-10 4.37992e-11 )  
( 1.77359e-10 -7.66612e-11 -2.76035e-11 )  
( 5.24771e-10 -7.4801e-11 2.38467e-11 )  
( 6.42213e-10 -7.546e-11 -3.50566e-11 )  
( 2.80691e-10 -7.65068e-11 -2.07102e-11 )  
( 5.3549e-10 -8.54882e-11 1.2368e-11 )  
( 6.69232e-11 -3.70188e-11 -1.97948e-11 )  
( 5.78224e-10 -8.17329e-11 1.62561e-11 )  
( 7.49342e-10 -1.79028e-11 3.22729e-11 )  
( 6.48181e-11 -3.55084e-11 -1.5889e-11 )  
( 1.27758e-09 1.93223e-10 2.05117e-10 )  
( 8.82739e-10 -9.56139e-11 -7.52607e-11 )  
( 4.45306e-10 -1.2064e-10 -6.01476e-11 )  
( 1.8965e-10 -9.99285e-11 5.20378e-11 )  
( 2.16965e-09 5.08207e-10 2.36806e-10 )  
( 3.52375e-11 -2.77856e-11 1.30944e-12 )  
( -2.59213e-10 6.37176e-11 -5.80213e-11 )  
( 1.00911e-09 8.46864e-11 4.36603e-10 )  
( 1.38408e-10 -6.06249e-11 1.27603e-11 )  
( 9.27785e-10 -7.78196e-11 -6.36995e-11 )  
( 2.0609e-10 -9.93714e-11 -8.68618e-12 )  
( -1.1288e-11 -7.4215e-13 -4.35558e-11 )  
( 3.92214e-10 -1.05253e-10 -1.92184e-11 )  
( 2.14038e-09 5.39011e-10 5.22274e-10 )  
( 1.12876e-09 4.22849e-10 2.79705e-10 )  
( 2.39602e-10 -1.92471e-11 -6.71908e-11 )  
( 3.59554e-10 -8.75198e-11 6.45736e-11 )  
( 1.77179e-09 1.71274e-10 1.75561e-10 )  
( 1.27388e-10 -5.44305e-11 -1.95935e-11 )  
( 1.45927e-09 1.48595e-10 3.93761e-10 )  
( 4.00527e-10 -1.25277e-10 1.00431e-10 )  
( 1.44109e-10 -9.11233e-11 3.4187e-12 )  
( 4.05656e-10 -8.597e-11 -9.95945e-11 )  
( -3.30788e-10 -3.94006e-10 2.15689e-12 )  
( 1.84493e-09 7.16088e-10 4.74128e-10 )  
( 1.71516e-09 1.29951e-10 1.52017e-10 )  
( 1.39225e-09 2.79803e-10 1.34561e-10 )  
( 1.11877e-09 3.55805e-11 -9.40503e-11 )  
( 8.30177e-10 -1.41352e-10 2.49429e-11 )  
( 1.26512e-10 -3.12762e-11 3.50374e-11 )  
( 9.4508e-11 -4.83919e-11 7.4718e-13 )  
( 1.55127e-09 2.12979e-10 1.49816e-10 )  
( 2.80023e-10 7.68409e-12 2.23517e-11 )  
( 2.38853e-09 3.19924e-10 3.34261e-10 )  
( 3.87869e-10 4.23636e-12 2.95817e-11 )  
( 5.1698e-10 -1.09162e-10 -5.2281e-13 )  
( 1.76937e-11 -1.65978e-11 5.49784e-12 )  
( -6.6749e-11 -5.04645e-11 -2.87546e-10 )  
( 1.3613e-10 -5.97936e-11 6.66832e-12 )  
( 1.60397e-09 6.69372e-10 3.05813e-10 )  
( 6.42031e-10 -1.21069e-10 4.63996e-11 )  
( 1.91953e-10 -3.13017e-11 -5.76703e-11 )  
( 1.38211e-09 -4.74473e-11 7.13472e-11 )  
( 7.89267e-10 -3.09596e-11 4.34957e-11 )  
( 1.36089e-10 -8.06794e-11 -9.98408e-12 )  
( 5.15227e-10 -1.85868e-10 -6.48614e-11 )  
( 1.82182e-10 -1.17643e-11 1.28869e-11 )  
( 3.212e-10 -1.45723e-10 3.40277e-11 )  
( 7.65564e-10 -9.93527e-11 1.03879e-10 )  
( 1.2147e-09 -1.46801e-10 4.06633e-11 )  
( 1.42226e-10 -7.31648e-11 1.0923e-11 )  
( 1.46635e-09 3.32715e-10 1.47137e-11 )  
( 4.4487e-10 -6.81155e-11 9.67282e-11 )  
( 1.31389e-09 3.44868e-10 5.05175e-10 )  
( 4.9517e-10 -7.85772e-11 1.7256e-11 )  
( 4.56208e-11 -8.75743e-11 -6.1955e-11 )  
( 5.5535e-10 -1.02907e-10 -1.33481e-11 )  
( 7.09506e-10 5.08581e-11 -1.72965e-11 )  
( 2.51527e-09 2.08001e-10 -3.18531e-10 )  
( 2.96461e-10 -4.84929e-11 3.70762e-11 )  
( 2.36812e-09 6.57959e-10 4.01074e-10 )  
( 1.38424e-10 6.54371e-11 -5.84439e-11 )  
( -3.30572e-10 4.63836e-09 2.8349e-11 )  
( 2.04248e-09 6.47971e-10 4.29371e-10 )  
( 7.23384e-10 -6.69613e-11 -3.39766e-11 )  
( 6.71656e-10 -1.0391e-10 -3.93969e-11 )  
( 1.05412e-09 3.78754e-11 2.98614e-10 )  
( 1.18195e-10 -9.58028e-11 7.17303e-13 )  
( 4.52759e-10 -1.3938e-10 3.43667e-11 )  
( -1.7356e-10 -4.17856e-11 -7.06769e-11 )  
( 1.16372e-10 -3.91872e-11 -3.34523e-11 )  
( 1.34617e-09 2.02445e-10 -1.40999e-10 )  
( 3.20125e-10 -3.45795e-11 1.79742e-11 )  
( 6.12462e-11 -6.6249e-11 -2.63675e-11 )  
( 2.9787e-10 -8.6545e-11 -5.5647e-11 )  
( 3.69725e-10 4.98265e-12 -3.36595e-11 )  
( 5.57802e-10 -1.02885e-10 6.70943e-11 )  
( 2.66032e-09 9.26703e-10 4.57109e-10 )  
( 7.30324e-11 -2.18714e-11 -1.87809e-11 )  
( 1.74614e-09 2.88782e-10 3.10312e-10 )  
( 7.01321e-10 -6.89902e-11 1.00415e-11 )  
( 7.20744e-10 -3.34778e-10 2.29997e-10 )  
( 4.28475e-10 -1.47549e-10 4.72373e-11 )  
( 3.95448e-10 -1.6954e-11 3.57291e-10 )  
( 5.70999e-10 -1.99331e-11 9.64424e-12 )  
( 1.09948e-10 -8.82123e-11 4.32257e-11 )  
( 7.37947e-11 -4.98239e-11 -4.31405e-12 )  
( 1.4212e-10 -8.71135e-11 3.58027e-12 )  
( 3.2275e-10 -1.27143e-11 6.73119e-11 )  
( 1.43945e-09 7.75889e-10 -4.36125e-10 )  
( 3.64989e-10 -1.38401e-10 2.24805e-11 )  
( 4.85006e-10 -9.67789e-11 -5.41838e-11 )  
( 1.29454e-09 2.18384e-10 1.64336e-11 )  
( 8.81342e-10 -1.32758e-10 -1.62858e-10 )  
( 5.45583e-10 -8.95759e-10 1.12753e-09 )  
( 8.76376e-11 -9.05692e-11 -4.95951e-11 )  
( 8.60729e-10 1.95417e-10 1.00026e-11 )  
( 2.05989e-10 -6.8393e-11 -1.94861e-11 )  
( 1.45111e-09 4.08198e-10 9.65456e-11 )  
( 8.84434e-10 4.46251e-11 4.98485e-11 )  
( 5.898e-10 -1.33209e-10 -7.25688e-11 )  
( 4.56114e-11 -1.97965e-11 -4.7964e-11 )  
( 3.61541e-10 -7.26505e-11 1.47866e-11 )  
( 1.01724e-09 8.80359e-11 1.25339e-10 )  
( 3.14012e-10 -7.29232e-11 -1.82204e-11 )  
( 5.12692e-10 4.08147e-10 1.6954e-11 )  
( 1.66755e-10 -6.97292e-11 3.2241e-11 )  
( 4.34507e-10 -1.29651e-10 -7.16226e-11 )  
( 8.53186e-11 -3.03318e-11 1.31339e-11 )  
( 1.55212e-10 -1.14985e-10 -1.28118e-11 )  
( 3.45871e-10 -3.52757e-11 1.8535e-12 )  
( 1.20124e-09 7.77202e-10 7.5962e-11 )  
( -6.96252e-10 -4.06245e-10 -3.743e-11 )  
( 8.25482e-10 -1.18393e-10 -3.28954e-11 )  
( 1.50646e-10 -1.71994e-11 -9.48607e-12 )  
( 2.39794e-10 -9.77665e-12 -8.06142e-11 )  
( 1.37862e-09 3.85168e-10 3.18579e-10 )  
( 2.37575e-09 7.38742e-10 -3.24611e-10 )  
( 7.61786e-11 -6.13899e-11 -1.27947e-11 )  
( 3.9669e-10 -1.22009e-10 1.87117e-11 )  
( 2.99763e-10 5.61561e-11 1.75951e-10 )  
( 8.05512e-11 -3.73572e-11 -5.58087e-12 )  
( 4.22648e-10 4.8226e-11 -5.8647e-11 )  
( 6.41859e-10 -9.83804e-12 1.3205e-10 )  
( 4.6846e-10 -5.40989e-11 -6.66594e-11 )  
( 1.62451e-09 1.22279e-09 -1.48409e-10 )  
( 6.05842e-11 -2.04602e-11 -1.22847e-11 )  
( 2.72855e-10 -3.03233e-11 -7.47442e-11 )  
( 1.15055e-10 -3.06237e-12 -5.27623e-11 )  
( 8.48922e-10 3.71767e-10 4.04276e-11 )  
( 1.26132e-10 -4.90407e-11 -1.67221e-11 )  
( 9.9448e-11 -5.9482e-11 -2.93321e-11 )  
( 1.58925e-10 -4.43282e-11 6.26486e-12 )  
( 5.98307e-10 -1.29096e-10 -1.52203e-10 )  
( 8.79859e-10 -7.21474e-11 -1.79018e-11 )  
( 2.0485e-09 1.83532e-09 4.89627e-11 )  
( 2.28153e-10 -6.89234e-11 -8.44234e-12 )  
( 5.54019e-10 3.1406e-10 -7.62834e-11 )  
( 1.39629e-10 -3.51593e-12 -3.2984e-11 )  
( 2.39447e-10 -5.8137e-11 1.6905e-11 )  
( 1.20577e-10 2.43867e-12 2.34499e-11 )  
( 1.35374e-10 -1.59832e-11 -2.96568e-12 )  
( 8.91773e-10 8.60788e-10 -8.27235e-11 )  
( 2.37562e-10 2.57267e-11 -2.2878e-11 )  
( 3.33356e-11 -3.38891e-11 -5.89405e-12 )  
( 7.90542e-11 -5.18945e-11 4.95315e-12 )  
( 4.67389e-10 -6.16663e-11 -6.66233e-11 )  
( 7.71921e-11 4.79473e-11 5.22818e-12 )  
( 4.72484e-10 -8.90829e-11 -6.14618e-11 )  
( 3.47435e-10 -3.24629e-11 1.90038e-12 )  
( 7.2444e-10 8.32652e-10 -1.41614e-10 )  
( 1.76121e-10 -3.29024e-11 -2.48632e-11 )  
( 3.59998e-10 -5.6021e-11 -4.9808e-11 )  
( 2.21587e-10 -5.57642e-11 -4.13117e-11 )  
( 2.84996e-10 -1.39007e-10 -1.69333e-10 )  
( 4.37565e-10 1.02953e-10 1.1419e-10 )  
( 5.9477e-10 1.03165e-10 5.58528e-11 )  
( 2.90401e-10 2.18344e-12 -9.62134e-11 )  
( 5.63485e-11 -9.06197e-12 -2.1333e-11 )  
( 7.48438e-11 -2.04698e-11 -1.25273e-11 )  
( 8.01526e-11 -3.53003e-11 -2.06042e-11 )  
( 2.42926e-10 -3.10427e-11 2.22581e-12 )  
( 1.3424e-10 -4.35965e-11 -3.09045e-11 )  
)
