/*--------------------------------*- C++ -*----------------------------------*\
| =========                 |                                                 |
| \\      /  F ield         | OpenFOAM: The Open Source CFD Toolbox           |
|  \\    /   O peration     | Version:  4.x                                   |
|   \\  /    A nd           | Web:      www.OpenFOAM.org                      |
|    \\/     M anipulation  |                                                 |
\*---------------------------------------------------------------------------*/
FoamFile
{
    version     2.0;
    format      ascii;
    class       volVectorField;
    location    "29";
    object      DDtUrel;
}
// * * * * * * * * * * * * * * * * * * * * * * * * * * * * * * * * * * * * * //

dimensions      [0 1 -2 0 0 0 0];

internalField   nonuniform List<vector> 
87
(
(4.27484e-05 -3.11793e-08 1.24144e-05)
(8.63615e-05 -1.4647e-05 1.21962e-05)
(5.98747e-05 -7.41999e-06 7.27473e-06)
(0.000138103 -1.75553e-05 7.95169e-06)
(0.000117276 -2.0806e-05 8.47308e-06)
(8.19819e-05 -1.53625e-05 9.31281e-07)
(0.00161638 4.22309e-05 -6.83615e-05)
(0.000913239 1.89248e-05 -3.64406e-05)
(0.000521649 4.97263e-06 -1.88449e-05)
(0.000302939 -4.36181e-06 -5.44812e-06)
(0.000179328 -5.26265e-06 4.85344e-07)
(0.000108647 -8.71739e-06 3.5381e-06)
(7.03231e-05 -6.47186e-06 4.14564e-06)
(4.08085e-05 -5.07031e-06 3.33993e-06)
(2.07616e-05 -3.56996e-06 3.23564e-06)
(0.00165816 8.5903e-05 -6.82451e-05)
(0.000959782 3.43668e-05 -3.89539e-05)
(0.000559692 9.43654e-06 -2.16503e-05)
(0.000335177 -7.47575e-06 -8.09043e-06)
(0.00020184 -8.58537e-06 -1.15189e-06)
(0.000128857 -1.12784e-05 2.05325e-06)
(8.1825e-05 -1.24701e-05 2.2402e-06)
(5.55518e-05 -1.82825e-05 1.85838e-06)
(3.15935e-05 -1.07119e-05 4.23179e-07)
(0.00171384 8.99741e-05 -7.24253e-05)
(0.00101997 4.22321e-05 -4.27238e-05)
(0.000612227 1.16986e-05 -2.59378e-05)
(0.0003795 -5.9893e-06 -1.09968e-05)
(0.000234849 -1.02081e-05 -3.15835e-06)
(0.000157589 -1.36354e-05 1.13206e-06)
(0.000103091 -1.62503e-05 -6.49611e-07)
(7.73596e-05 -2.17693e-05 -2.7598e-07)
(4.14501e-05 -1.6044e-05 -3.43715e-06)
(0.00164739 4.51456e-05 -2.27002e-07)
(0.000944177 1.89674e-05 -1.15069e-05)
(0.000542065 4.356e-06 -1.14457e-05)
(0.0003192 -5.33021e-06 -1.00972e-05)
(0.000184941 -7.15922e-06 -5.70256e-06)
(0.000112409 -1.04531e-05 -4.05678e-06)
(6.38983e-05 -8.24784e-06 -3.71704e-06)
(3.76356e-05 -8.13998e-06 -1.02564e-05)
(1.2707e-05 -5.23269e-06 -6.42746e-06)
(0.00169066 8.39908e-05 -3.89193e-06)
(0.00099132 3.37872e-05 -1.2916e-05)
(0.000584594 8.21974e-06 -1.40347e-05)
(0.000355133 -6.50132e-06 -1.08692e-05)
(0.000212576 -8.62468e-06 -7.44645e-06)
(0.000134089 -1.26217e-05 -6.89848e-06)
(7.90273e-05 -1.29846e-05 -7.44377e-06)
(5.61012e-05 -1.42312e-05 -1.10567e-05)
(2.61279e-05 -1.04079e-05 -9.63813e-06)
(0.00174078 8.51762e-05 -1.27949e-05)
(0.00104906 3.98163e-05 -1.63103e-05)
(0.000637068 1.08871e-05 -1.50154e-05)
(0.000400696 -5.32672e-06 -1.11484e-05)
(0.000250237 -1.02162e-05 -1.02108e-05)
(0.000166259 -1.44242e-05 -9.63672e-06)
(0.000105016 -1.72388e-05 -1.11349e-05)
(7.84821e-05 -2.02552e-05 -1.28279e-05)
(4.5503e-05 -1.87317e-05 -1.39805e-05)
(0.00169293 4.36858e-05 1.69482e-05)
(0.000990486 1.59538e-05 -2.34208e-06)
(0.000580321 2.81098e-06 -8.81939e-06)
(0.000350266 -6.95729e-06 -9.70878e-06)
(0.000205857 -8.99009e-06 -6.8755e-06)
(0.000127474 -1.24688e-05 -5.96811e-06)
(7.12693e-05 -1.03636e-05 -6.33357e-06)
(4.45078e-05 -9.31153e-06 -9.53483e-06)
(8.88633e-06 -6.87334e-06 -1.21862e-05)
(0.00173279 7.7133e-05 1.07495e-05)
(0.00103627 3.27343e-05 -5.27791e-06)
(0.000624697 8.81175e-06 -1.09668e-05)
(0.000390527 -6.51697e-06 -1.12422e-05)
(0.000239284 -9.72521e-06 -8.39544e-06)
(0.000152593 -1.36647e-05 -8.24772e-06)
(9.01199e-05 -1.57166e-05 -1.13805e-05)
(6.25422e-05 -1.62136e-05 -1.45119e-05)
(2.6037e-05 -8.61766e-06 -1.71367e-05)
(0.00177238 7.8287e-05 2.57365e-06)
(0.00108495 3.80794e-05 -8.15198e-06)
(0.00067287 1.19325e-05 -1.09892e-05)
(0.000437775 -4.90676e-06 -1.18789e-05)
(0.0002809 -1.22715e-05 -1.13777e-05)
(0.000187016 -1.58049e-05 -1.06213e-05)
(0.000117899 -1.84138e-05 -1.42391e-05)
(8.38286e-05 -2.13392e-05 -1.77661e-05)
(4.58575e-05 -1.85703e-05 -2.01162e-05)
)
;

boundaryField
{
    inlet
    {
        type            calculated;
        value           nonuniform List<vector> 9((0.00369436 0.000153453 -0.000173097) (0.00376113 0.000388519 -0.000150331) (0.00403764 0.000278278 -0.00017917) (0.00379393 0.000206964 0.000209882) (0.00390585 0.000377132 0.000193539) (0.00412112 0.000242221 0.000106831) (0.00403791 0.00019784 0.000150836) (0.00411929 0.000298908 0.000113535) (0.00421825 0.000190977 5.93279e-05));
    }
    outlet
    {
        type            calculated;
        value           nonuniform 0();
    }
    wall
    {
        type            calculated;
        value           nonuniform List<vector> 
57
(
(0.00403791 0.00019784 0.000150836)
(0.00411929 0.000298908 0.000113535)
(0.00421825 0.000190977 5.93279e-05)
(9.36426e-05 -2.09973e-05 -2.24152e-05)
(0.000242185 -1.83978e-06 -1.55964e-05)
(0.000452189 3.56046e-06 -1.75544e-05)
(1.96102e-05 -8.81885e-06 -2.19446e-05)
(0.000161541 -8.43872e-06 -2.56712e-05)
(0.000356564 -5.48337e-06 -5.08544e-06)
(6.52299e-05 -5.30589e-05 -2.33962e-05)
(0.00020896 -4.94378e-05 -2.53392e-05)
(0.000442638 -2.93854e-05 -2.06166e-05)
(-4.26669e-05 -2.89056e-05 -4.66548e-06)
(8.69078e-05 -5.20218e-06 1.83228e-06)
(0.000298124 -3.87888e-05 -2.49522e-05)
(2.77095e-06 -6.2587e-05 -5.47459e-06)
(0.000102313 -2.01239e-05 -1.54894e-06)
(0.000275774 -2.96095e-05 -6.77695e-06)
(-8.54929e-05 -1.96119e-05 9.7566e-06)
(-1.63295e-05 -3.73066e-05 -3.0208e-05)
(0.000128862 -2.92763e-05 -3.28362e-05)
(-4.43262e-06 -8.39726e-06 3.17427e-06)
(0.000101287 -5.39935e-05 -3.20608e-05)
(0.000177985 -5.88371e-05 -4.66851e-05)
(-0.00016572 -6.18809e-07 -2.38188e-05)
(-5.6769e-05 4.30001e-05 -3.92012e-05)
(4.29135e-05 -4.52174e-05 -4.26575e-05)
(0.00403764 0.000278278 -0.00017917)
(0.00412112 0.000242221 0.000106831)
(0.00421825 0.000190977 5.93279e-05)
(0.0001427 1.75714e-05 -1.29579e-05)
(0.000298976 2.94719e-06 1.35724e-05)
(0.000452189 3.56046e-06 -1.75544e-05)
(7.17378e-05 -2.53175e-05 -4.19747e-05)
(0.000195635 -2.78671e-05 -5.28558e-06)
(0.000356564 -5.48337e-06 -5.08544e-06)
(8.315e-05 -5.50245e-05 -6.6264e-06)
(0.000213341 -3.76961e-05 -8.05614e-07)
(0.000442638 -2.93854e-05 -2.06166e-05)
(-2.70954e-05 -1.83304e-05 -4.87361e-06)
(0.000103405 -1.10568e-05 -3.55884e-05)
(0.000298124 -3.87888e-05 -2.49522e-05)
(2.841e-05 -1.48581e-05 9.42806e-06)
(0.000154062 -2.26726e-05 -4.13462e-05)
(0.000275774 -2.96095e-05 -6.77695e-06)
(8.8284e-05 -3.40133e-05 -3.24851e-05)
(-3.81202e-05 -1.14779e-05 -1.07462e-05)
(3.85046e-05 -2.91174e-05 -4.44895e-05)
(0.000128862 -2.92763e-05 -3.28362e-05)
(0.000239745 -6.04324e-05 1.36805e-05)
(5.13113e-05 -7.65461e-05 1.6289e-05)
(0.000154886 -4.55258e-05 -4.33778e-05)
(0.000177985 -5.88371e-05 -4.66851e-05)
(2.52639e-05 -2.41874e-05 -5.61998e-05)
(-0.000151143 -4.54668e-06 -2.0508e-06)
(4.10225e-05 -4.79916e-05 -3.75626e-05)
(4.29135e-05 -4.52174e-05 -4.26575e-05)
)
;
    }
    procBoundary6to0
    {
        type            processor;
        value           uniform (3.93549e-05 5.33645e-06 1.55657e-05);
    }
    procBoundary6to2
    {
        type            processor;
        value           nonuniform List<vector> 
32
(
(7.81886e-05 1.35582e-06 1.96623e-05)
(0.000123793 -1.43344e-05 2.34853e-05)
(9.6965e-05 -7.8047e-06 1.7057e-05)
(0.000182604 -1.80002e-05 1.89639e-05)
(0.000163318 -2.23379e-05 2.03103e-05)
(0.000126383 -1.56728e-05 1.19687e-05)
(0.0016212 4.22412e-05 -0.000136019)
(0.000927889 2.0031e-05 -6.27659e-05)
(0.000536537 6.55071e-06 -2.5932e-05)
(0.00031897 -2.60674e-06 -8.31666e-08)
(0.000195262 -3.97376e-06 7.38395e-06)
(0.000127524 -8.2393e-06 1.21288e-05)
(8.52986e-05 -4.95643e-06 1.27915e-05)
(6.11324e-05 -2.71163e-06 1.83217e-05)
(6.11324e-05 -2.71163e-06 1.83217e-05)
(6.11324e-05 -2.71163e-06 1.83217e-05)
(0.00166401 8.31142e-05 -0.000132493)
(0.00097432 3.5751e-05 -6.45935e-05)
(0.000576233 1.05372e-05 -2.90053e-05)
(0.000355336 -4.01013e-06 -3.62348e-06)
(0.000223649 -7.81236e-06 6.3801e-06)
(0.000156392 -1.25931e-05 1.38765e-05)
(0.000105852 -1.16672e-05 1.10499e-05)
(0.000105852 -1.16672e-05 1.10499e-05)
(0.000105852 -1.16672e-05 1.10499e-05)
(0.00171791 8.78639e-05 -0.000132824)
(0.00103484 4.23733e-05 -6.89527e-05)
(0.00063129 1.32772e-05 -3.39927e-05)
(0.000406354 -3.43504e-06 -7.6991e-06)
(0.000266748 -1.00318e-05 6.16506e-06)
(0.000195754 -1.56991e-05 1.46679e-05)
(0.000195754 -1.56991e-05 1.46679e-05)
)
;
    }
    procBoundary6to4
    {
        type            processor;
        value           nonuniform List<vector> 
27
(
(0.00160401 -1.60516e-05 -6.8539e-05)
(0.000899142 -4.22779e-06 -3.5169e-05)
(0.000509333 -2.43927e-06 -1.71221e-05)
(0.000290975 3.54963e-07 -3.92479e-06)
(0.000171069 8.17496e-07 2.57341e-06)
(0.000102133 1.37933e-07 5.05179e-06)
(6.41679e-05 1.65623e-06 6.22799e-06)
(3.90246e-05 4.53185e-06 8.35114e-06)
(2.2059e-05 2.46996e-06 6.01909e-06)
(0.00163279 -1.44871e-05 -2.29834e-06)
(0.000927792 -4.17265e-06 -7.3032e-06)
(0.000528182 -2.78092e-06 -9.93426e-06)
(0.000308244 -8.76963e-07 -7.49926e-06)
(0.000179243 -8.93479e-07 -3.35192e-06)
(0.000112698 -1.15978e-06 -2.71478e-06)
(6.60283e-05 -9.34637e-07 -1.74392e-06)
(4.57884e-05 -2.2427e-06 -3.53637e-06)
(1.85323e-05 -2.19162e-06 -1.86685e-06)
(0.00167615 -1.22335e-05 1.69628e-05)
(0.000974687 -7.24851e-06 2.73999e-06)
(0.000566847 -4.49391e-06 -5.68523e-06)
(0.000343723 -2.16976e-06 -7.29893e-06)
(0.000204751 -2.05313e-06 -5.28965e-06)
(0.000134735 -2.8564e-06 -4.49928e-06)
(7.98039e-05 -3.01332e-06 -6.22448e-06)
(5.86394e-05 -5.36832e-06 -8.59971e-06)
(2.35842e-05 -8.1884e-06 -6.21667e-06)
)
;
    }
    procBoundary6to7
    {
        type            processor;
        value           nonuniform List<vector> 
12
(
(2.82491e-05 1.9707e-06 1.31503e-05)
(5.63597e-05 -6.53618e-06 8.09806e-06)
(8.15047e-05 -1.39165e-05 -1.36257e-06)
(5.79206e-06 -1.94399e-06 5.52659e-06)
(1.66641e-05 -7.53045e-06 2.18128e-07)
(3.21753e-05 -1.70111e-05 -4.87109e-06)
(-1.74665e-06 -2.8999e-06 -5.91093e-06)
(2.02902e-05 -1.14087e-05 -1.34157e-05)
(3.57129e-05 -1.87266e-05 -1.61634e-05)
(-6.63939e-06 -5.02617e-06 -1.76778e-05)
(1.24175e-05 -7.48957e-06 -2.19181e-05)
(2.77684e-05 -1.68244e-05 -2.41344e-05)
)
;
    }
}


// ************************************************************************* //
