/*--------------------------------*- C++ -*----------------------------------*\
| =========                 |                                                 |
| \\      /  F ield         | OpenFOAM: The Open Source CFD Toolbox           |
|  \\    /   O peration     | Version:  4.x                                   |
|   \\  /    A nd           | Web:      www.OpenFOAM.org                      |
|    \\/     M anipulation  |                                                 |
\*---------------------------------------------------------------------------*/
FoamFile
{
    version     2.0;
    format      ascii;
    class       volScalarField;
    location    "29";
    object      particleRelTemp;
}
// * * * * * * * * * * * * * * * * * * * * * * * * * * * * * * * * * * * * * //

dimensions      [0 0 0 0 0 0 0];

internalField   nonuniform List<scalar> 
87
(
6.31322e-09
1.91945e-09
3.87127e-09
-8.51476e-10
6.6904e-10
1.18097e-09
-7.98067e-09
-6.67355e-09
-4.91491e-09
-2.87846e-09
-8.10965e-10
8.21743e-10
2.27082e-09
3.50483e-09
4.99104e-09
-8.07627e-09
-7.17845e-09
-5.70342e-09
-3.91181e-09
-2.39225e-09
-7.66197e-10
8.00372e-10
1.50668e-09
2.67117e-09
-8.42073e-09
-7.40128e-09
-6.34858e-09
-4.59522e-09
-3.53328e-09
-1.93723e-09
-1.00531e-09
-3.32116e-10
8.60088e-10
-8.22662e-09
-6.94683e-09
-5.666e-09
-4.01261e-09
-2.48152e-09
-8.0778e-10
5.56342e-10
1.94777e-09
2.95223e-09
-8.33134e-09
-7.37196e-09
-6.28582e-09
-4.70156e-09
-3.67234e-09
-1.93058e-09
-7.75827e-10
-1.1323e-10
1.26724e-09
-8.50139e-09
-7.65095e-09
-6.56429e-09
-5.56224e-09
-4.30005e-09
-3.39044e-09
-2.55501e-09
-1.56566e-09
-1.06186e-09
-8.35294e-09
-7.48776e-09
-6.24018e-09
-4.8402e-09
-3.58303e-09
-1.88032e-09
-6.49041e-10
1.81062e-10
2.43939e-10
-8.41487e-09
-7.80659e-09
-6.77828e-09
-5.61053e-09
-4.35117e-09
-3.16386e-09
-2.0556e-09
-1.39888e-09
-8.19914e-10
-8.6936e-09
-7.81561e-09
-7.11262e-09
-6.19397e-09
-5.36841e-09
-4.19903e-09
-3.8501e-09
-3.43109e-09
-2.56173e-09
)
;

boundaryField
{
    inlet
    {
        type            calculated;
        value           nonuniform List<scalar> 9(-7.98067e-09 -8.07627e-09 -8.42073e-09 -8.22662e-09 -8.33134e-09 -8.50139e-09 -8.35294e-09 -8.41487e-09 -8.6936e-09);
    }
    outlet
    {
        type            calculated;
        value           nonuniform 0();
    }
    wall
    {
        type            calculated;
        value           nonuniform List<scalar> 
57
(
-8.35294e-09
-8.41487e-09
-8.6936e-09
-7.48776e-09
-7.80659e-09
-7.81561e-09
-6.24018e-09
-6.77828e-09
-7.11262e-09
-4.8402e-09
-5.61053e-09
-6.19397e-09
-3.58303e-09
-4.35117e-09
-5.36841e-09
-1.88032e-09
-3.16386e-09
-4.19903e-09
-6.49041e-10
-2.0556e-09
-3.8501e-09
1.81062e-10
-1.39888e-09
-3.43109e-09
2.43939e-10
-8.19914e-10
-2.56173e-09
-8.42073e-09
-8.50139e-09
-8.6936e-09
-7.40128e-09
-7.65095e-09
-7.81561e-09
-6.34858e-09
-6.56429e-09
-7.11262e-09
-4.59522e-09
-5.56224e-09
-6.19397e-09
-3.53328e-09
-4.30005e-09
-5.36841e-09
-1.93723e-09
-3.39044e-09
-4.19903e-09
-8.51476e-10
-1.00531e-09
-2.55501e-09
-3.8501e-09
6.6904e-10
-3.32116e-10
-1.56566e-09
-3.43109e-09
1.18097e-09
8.60088e-10
-1.06186e-09
-2.56173e-09
)
;
    }
    procBoundary6to0
    {
        type            processor;
        value           uniform 7.85151e-09;
    }
    procBoundary6to2
    {
        type            processor;
        value           nonuniform List<scalar> 
32
(
5.52415e-09
2.26518e-09
3.43145e-09
-8.20393e-10
2.2476e-10
1.19195e-09
-8.01164e-09
-6.39119e-09
-4.72841e-09
-3.07002e-09
-9.44983e-10
1.23026e-09
3.35968e-09
5.39842e-09
5.39842e-09
5.39842e-09
-8.32905e-09
-6.8895e-09
-5.65105e-09
-3.69682e-09
-1.90652e-09
-6.44033e-11
7.31239e-10
7.31239e-10
7.31239e-10
-8.4873e-09
-7.35802e-09
-5.95401e-09
-4.66231e-09
-3.17768e-09
-1.65594e-09
-1.65594e-09
)
;
    }
    procBoundary6to4
    {
        type            processor;
        value           nonuniform List<scalar> 
27
(
-8.12617e-09
-6.81595e-09
-4.92291e-09
-3.10121e-09
-5.88681e-10
1.42163e-09
3.57847e-09
4.96242e-09
6.56803e-09
-8.20476e-09
-7.1312e-09
-5.39956e-09
-4.01975e-09
-1.94358e-09
3.52909e-12
1.50687e-09
2.97929e-09
3.89702e-09
-8.25527e-09
-7.32987e-09
-6.10389e-09
-4.45072e-09
-3.08252e-09
-1.56727e-09
-1.44287e-10
1.13251e-09
1.78063e-09
)
;
    }
    procBoundary6to7
    {
        type            processor;
        value           nonuniform List<scalar> 
12
(
7.11328e-09
4.77814e-09
2.5997e-09
6.02798e-09
4.05592e-09
1.59994e-09
3.26176e-09
1.56377e-09
-7.07306e-10
1.61304e-09
-5.03161e-10
-2.31968e-09
)
;
    }
}


// ************************************************************************* //
