/*--------------------------------*- C++ -*----------------------------------*\
| =========                 |                                                 |
| \\      /  F ield         | OpenFOAM: The Open Source CFD Toolbox           |
|  \\    /   O peration     | Version:  4.x                                   |
|   \\  /    A nd           | Web:      www.OpenFOAM.org                      |
|    \\/     M anipulation  |                                                 |
\*---------------------------------------------------------------------------*/
FoamFile
{
    version     2.0;
    format      ascii;
    class       volScalarField;
    location    "29";
    object      Qsource;
}
// * * * * * * * * * * * * * * * * * * * * * * * * * * * * * * * * * * * * * //

dimensions      [1 -1 -3 0 0 0 0];

internalField   nonuniform List<scalar> 
87
(
8.09013e+09
6.70132e+09
8.91022e+09
6.55395e+09
6.6869e+09
6.48998e+09
9.95786e+09
8.9709e+09
6.10231e+09
8.07768e+09
1.11232e+10
6.21804e+09
8.75137e+09
6.67853e+09
9.98689e+09
6.30467e+09
9.22443e+09
8.18608e+09
1.02442e+10
8.86716e+09
8.767e+09
8.77317e+09
9.25066e+09
9.41958e+09
5.50465e+09
8.00023e+09
6.7941e+09
6.57148e+09
9.54653e+09
9.89137e+09
8.1992e+09
6.75826e+09
9.65135e+09
7.345e+09
9.0153e+09
9.66192e+09
8.66768e+09
6.67443e+09
7.92955e+09
7.93604e+09
6.14426e+09
9.54706e+09
5.3727e+09
8.87586e+09
8.84551e+09
8.04602e+09
7.94567e+09
6.57044e+09
1.00392e+10
6.60549e+09
9.98976e+09
5.63114e+09
7.11554e+09
7.01802e+09
8.30933e+09
9.06882e+09
6.66407e+09
8.49933e+09
6.95211e+09
7.77536e+09
5.72402e+09
5.8196e+09
8.24074e+09
7.42044e+09
7.97275e+09
6.87173e+09
1.1076e+10
9.00284e+09
5.32876e+09
6.01707e+09
6.26423e+09
8.45828e+09
6.64007e+09
1.05096e+10
7.17711e+09
8.05496e+09
6.55662e+09
9.32966e+09
5.90025e+09
7.05094e+09
8.47245e+09
7.36475e+09
7.00757e+09
9.59837e+09
7.42484e+09
6.81609e+09
9.03038e+09
)
;

boundaryField
{
    inlet
    {
        type            calculated;
        value           uniform 0;
    }
    outlet
    {
        type            calculated;
        value           nonuniform 0();
    }
    wall
    {
        type            calculated;
        value           uniform 0;
    }
    procBoundary6to0
    {
        type            processor;
        value           uniform 2.58972e+09;
    }
    procBoundary6to2
    {
        type            processor;
        value           nonuniform List<scalar> 
32
(
5.77764e+09
8.50437e+09
1.02617e+10
1.05877e+10
5.86278e+09
8.64715e+09
4.89342e+09
9.49714e+09
1.03023e+10
7.19469e+09
8.24183e+09
6.30667e+09
7.58035e+09
7.63658e+09
7.63658e+09
7.63658e+09
5.8697e+09
7.90729e+09
1.05154e+10
6.60083e+09
9.10472e+09
7.65317e+09
1.02942e+10
1.02942e+10
1.02942e+10
5.08218e+09
6.72561e+09
8.34328e+09
7.68811e+09
7.59264e+09
6.94528e+09
6.94528e+09
)
;
    }
    procBoundary6to4
    {
        type            processor;
        value           nonuniform List<scalar> 
27
(
3.45826e+09
6.73351e+09
9.39978e+09
5.71952e+09
8.80755e+09
6.72093e+09
1.1021e+10
6.03965e+09
7.05076e+09
6.20188e+09
8.58229e+09
7.5362e+09
9.64032e+09
1.05116e+10
7.60017e+09
1.1822e+10
8.44178e+09
8.11093e+09
8.05694e+09
7.4002e+09
7.50063e+09
8.33385e+09
9.22927e+09
9.86693e+09
5.77564e+09
5.52392e+09
7.87979e+09
)
;
    }
    procBoundary6to7
    {
        type            processor;
        value           nonuniform List<scalar> 
12
(
7.5859e+09
5.22653e+09
7.53514e+09
3.85015e+09
6.01904e+09
7.15087e+09
8.54026e+09
8.22737e+09
6.56953e+09
7.51448e+09
6.77695e+09
7.27715e+09
)
;
    }
}


// ************************************************************************* //
