/*--------------------------------*- C++ -*----------------------------------*\
| =========                 |                                                 |
| \\      /  F ield         | OpenFOAM: The Open Source CFD Toolbox           |
|  \\    /   O peration     | Version:  4.x                                   |
|   \\  /    A nd           | Web:      www.OpenFOAM.org                      |
|    \\/     M anipulation  |                                                 |
\*---------------------------------------------------------------------------*/
FoamFile
{
    version     2.0;
    format      ascii;
    class       volScalarField;
    location    "29";
    object      SPartFluid;
}
// * * * * * * * * * * * * * * * * * * * * * * * * * * * * * * * * * * * * * //

dimensions      [1 -3 -1 0 0 0 0];

internalField   nonuniform List<scalar> 
87
(
6.74251e-65
6.04503e-65
7.13002e-65
5.11504e-65
5.81253e-65
4.96003e-65
1.03851e-64
7.59509e-65
4.96005e-65
7.44006e-65
9.37756e-65
6.12253e-65
7.36253e-65
6.51002e-65
8.52502e-65
5.81257e-65
7.9051e-65
6.43257e-65
8.83508e-65
7.05256e-65
7.82755e-65
7.05254e-65
8.60254e-65
7.59503e-65
4.96006e-65
7.20759e-65
5.42506e-65
6.12256e-65
7.59507e-65
8.75757e-65
6.51005e-65
6.66504e-65
7.51755e-65
7.6726e-65
7.67259e-65
7.75008e-65
7.67257e-65
5.34754e-65
7.05255e-65
6.27754e-65
5.89003e-65
7.90503e-65
5.65757e-65
7.28509e-65
6.82008e-65
6.89757e-65
5.96756e-65
5.58004e-65
7.75005e-65
5.73504e-65
7.75004e-65
5.19257e-65
6.74258e-65
5.58006e-65
7.59508e-65
7.28507e-65
5.96755e-65
6.66506e-65
5.96755e-65
5.65754e-65
5.03757e-65
5.27007e-65
6.12257e-65
6.89757e-65
6.51006e-65
6.43255e-65
8.68006e-65
8.75755e-65
3.79753e-65
6.04508e-65
5.50257e-65
6.82008e-65
5.65756e-65
8.60259e-65
6.35506e-65
6.20005e-65
5.58004e-65
7.82756e-65
4.41756e-65
6.27758e-65
6.12257e-65
6.43257e-65
4.96005e-65
8.21508e-65
4.80505e-65
5.19255e-65
6.04505e-65
)
;

boundaryField
{
    inlet
    {
        type            calculated;
        value           uniform 0;
    }
    outlet
    {
        type            calculated;
        value           nonuniform 0();
    }
    wall
    {
        type            calculated;
        value           uniform 0;
    }
    procBoundary6to0
    {
        type            processor;
        value           uniform 2.325e-65;
    }
    procBoundary6to2
    {
        type            processor;
        value           nonuniform List<scalar> 
32
(
4.8825e-65
7.44003e-65
8.37003e-65
8.29256e-65
4.96003e-65
6.66504e-65
4.80506e-65
8.13759e-65
8.37008e-65
6.51006e-65
6.82005e-65
5.89003e-65
6.27752e-65
7.75001e-65
7.75001e-65
7.75001e-65
6.89759e-65
6.89758e-65
8.37009e-65
5.81255e-65
7.20756e-65
6.89754e-65
8.37004e-65
8.37004e-65
8.37004e-65
5.27007e-65
6.51008e-65
6.27757e-65
7.13007e-65
5.50255e-65
6.35505e-65
6.35505e-65
)
;
    }
    procBoundary6to4
    {
        type            processor;
        value           nonuniform List<scalar> 
27
(
4.34005e-65
5.73507e-65
7.59508e-65
5.19254e-65
7.36255e-65
6.35503e-65
9.22253e-65
5.96751e-65
5.9675e-65
6.66508e-65
7.20759e-65
5.96756e-65
8.52508e-65
8.44756e-65
6.74254e-65
9.61005e-65
7.90503e-65
6.82002e-65
7.4401e-65
7.05259e-65
5.81257e-65
7.67257e-65
6.97506e-65
9.22257e-65
4.49503e-65
4.88253e-65
6.35503e-65
)
;
    }
    procBoundary6to7
    {
        type            processor;
        value           nonuniform List<scalar> 
12
(
7.6725e-65
4.80501e-65
6.51003e-65
3.9525e-65
5.50252e-65
6.74253e-65
8.06003e-65
7.05254e-65
5.58004e-65
6.89753e-65
5.96754e-65
6.04505e-65
)
;
    }
}


// ************************************************************************* //
