/*--------------------------------*- C++ -*----------------------------------*\
| =========                 |                                                 |
| \\      /  F ield         | OpenFOAM: The Open Source CFD Toolbox           |
|  \\    /   O peration     | Version:  4.x                                   |
|   \\  /    A nd           | Web:      www.OpenFOAM.org                      |
|    \\/     M anipulation  |                                                 |
\*---------------------------------------------------------------------------*/
FoamFile
{
    version     2.0;
    format      ascii;
    class       volScalarField;
    location    "19.5";
    object      nu;
}
// * * * * * * * * * * * * * * * * * * * * * * * * * * * * * * * * * * * * * //

dimensions      [0 2 -1 0 0 0 0];

internalField   nonuniform List<scalar> 
87
(
1.00003e-06
1.00004e-06
1.00006e-06
1.00007e-06
1.0001e-06
1.00014e-06
1.0002e-06
1.00027e-06
9.81779e-07
1.00004e-06
1.00006e-06
1.00008e-06
1.00011e-06
1.00017e-06
1.00023e-06
1.00033e-06
1.00041e-06
1.00155e-06
1.00005e-06
1.00008e-06
1.00013e-06
1.00019e-06
1.00029e-06
1.0004e-06
1.0005e-06
1.00049e-06
1.00034e-06
1.00005e-06
1.00007e-06
1.0001e-06
1.00014e-06
1.0002e-06
1.00026e-06
1.00034e-06
1.0004e-06
1.00217e-06
1.00012e-06
1.00017e-06
1.00023e-06
1.00029e-06
1.00037e-06
1.00043e-06
1.00045e-06
1.00046e-06
1.00044e-06
1.00018e-06
1.00026e-06
1.00036e-06
1.00042e-06
1.00043e-06
1.00039e-06
1.00024e-06
1.00015e-06
9.99956e-07
1.00007e-06
1.00009e-06
1.00012e-06
1.00015e-06
1.00022e-06
1.0003e-06
1.00038e-06
1.00044e-06
1.00199e-06
1.00027e-06
1.00043e-06
1.00056e-06
1.00061e-06
1.0006e-06
1.00054e-06
1.00041e-06
1.00038e-06
9.99999e-07
1.00017e-06
1.0002e-06
1.00023e-06
1.00025e-06
1.00022e-06
1.00015e-06
1.00002e-06
9.99959e-07
9.99617e-07
1.00003e-06
1.00004e-06
1.00006e-06
1.00007e-06
1.00009e-06
1.0001e-06
)
;

boundaryField
{
    inlet
    {
        type            calculated;
        value           nonuniform 0();
    }
    outlet
    {
        type            calculated;
        value           uniform 1e-06;
    }
    wall
    {
        type            calculated;
        value           nonuniform List<scalar> 
57
(
1.00003e-06
1.00004e-06
1.00005e-06
1.00004e-06
1.00006e-06
1.00008e-06
1.00006e-06
1.00008e-06
1.00013e-06
1.00007e-06
1.00011e-06
1.00019e-06
1.0001e-06
1.00017e-06
1.00029e-06
1.00014e-06
1.00023e-06
1.0004e-06
1.0002e-06
1.00033e-06
1.0005e-06
1.00027e-06
1.00041e-06
1.00049e-06
9.81779e-07
1.00155e-06
1.00034e-06
1.00003e-06
1.00005e-06
1.00007e-06
1.00003e-06
1.00004e-06
1.00007e-06
1.00009e-06
1.00004e-06
1.00006e-06
1.0001e-06
1.00012e-06
1.00006e-06
1.00007e-06
1.00014e-06
1.00015e-06
1.0001e-06
1.0002e-06
1.00022e-06
1.00014e-06
1.00026e-06
1.0003e-06
1.0002e-06
1.00034e-06
1.00038e-06
1.00027e-06
1.0004e-06
1.00044e-06
9.81779e-07
1.00217e-06
1.00199e-06
)
;
    }
    procBoundary1to0
    {
        type            processor;
        value           nonuniform List<scalar> 
12
(
1.00003e-06
1.00003e-06
1.00003e-06
1.00003e-06
1.00007e-06
1.0001e-06
1.00004e-06
1.00013e-06
1.00013e-06
1.00002e-06
1.00005e-06
1.00007e-06
)
;
    }
    procBoundary1to3
    {
        type            processor;
        value           nonuniform List<scalar> 
27
(
1.00004e-06
1.00008e-06
1.00012e-06
1.00018e-06
1.00026e-06
1.00036e-06
1.00045e-06
1.00051e-06
9.94411e-07
1.00019e-06
1.00029e-06
1.0004e-06
1.00047e-06
1.00052e-06
1.0005e-06
1.00043e-06
1.00035e-06
1.00006e-06
1.00023e-06
1.0003e-06
1.00034e-06
1.00036e-06
1.00032e-06
1.00027e-06
1.00016e-06
1.00007e-06
9.99767e-07
)
;
    }
    procBoundary1to5
    {
        type            processor;
        value           nonuniform List<scalar> 
32
(
1.00008e-06
1.00012e-06
1.00018e-06
1.00024e-06
1.00032e-06
1.00166e-06
1.0001e-06
1.00016e-06
1.00018e-06
1.00021e-06
1.00016e-06
1.00018e-06
9.99816e-07
1.00013e-06
1.00015e-06
1.00017e-06
1.00016e-06
1.00012e-06
1.00005e-06
9.99982e-07
9.99498e-07
1.00003e-06
1.00004e-06
1.00008e-06
1.0001e-06
1.00006e-06
1.00007e-06
1.0001e-06
1.00013e-06
1.00009e-06
1.00013e-06
1.00009e-06
)
;
    }
    procBoundary1to7
    {
        type            processor;
        value           uniform 1.00012e-06;
    }
}


// ************************************************************************* //
