/*--------------------------------*- C++ -*----------------------------------*\
| =========                 |                                                 |
| \\      /  F ield         | OpenFOAM: The Open Source CFD Toolbox           |
|  \\    /   O peration     | Version:  4.x                                   |
|   \\  /    A nd           | Web:      www.OpenFOAM.org                      |
|    \\/     M anipulation  |                                                 |
\*---------------------------------------------------------------------------*/
FoamFile
{
    version     2.0;
    format      ascii;
    class       volScalarField;
    location    "19.5";
    object      p;
}
// * * * * * * * * * * * * * * * * * * * * * * * * * * * * * * * * * * * * * //

dimensions      [1 -1 -2 0 0 0 0];

internalField   nonuniform List<scalar> 
87
(
5654.56
5705.41
5635.54
5699.02
5615.19
5694.25
5593.24
5692.95
5566.35
5654.41
5705.23
5635.24
5698.47
5614.58
5693.41
5592.75
5691.63
5566.41
5654.81
5705.74
5636.09
5699.22
5617.1
5693.76
5599.07
5688.69
5584.43
3776.53
3827.86
3757.46
3821.47
3737.07
3816.41
3714.48
3814.31
3687.04
3776.29
3827.68
3757.2
3820.97
3737.14
3815.29
3715.18
3812.1
3692.08
3776.83
3828.47
3758.15
3821.65
3739.22
3815.67
3720.47
3810.55
3704.01
1899.66
1950.36
1881.12
1943.67
1861.51
1937.77
1840.61
1933.67
1817.03
1899.51
1950.33
1881.1
1943.27
1862.34
1936.71
1843.33
1931.48
1826.8
1900.59
1950.2
1882.93
1943.64
1865.15
1937.56
1847.66
1930.7
1832.19
21.6433
72.4956
2.81353
21.8389
72.473
22.603
)
;

boundaryField
{
    inlet
    {
        type            calculated;
        value           nonuniform 0();
    }
    outlet
    {
        type            calculated;
        value           nonuniform List<scalar> 9(5633.74 5633.74 5633.74 3755.83 3755.83 3755.83 1877.91 1877.91 1877.91);
    }
    wall
    {
        type            calculated;
        value           nonuniform List<scalar> 
57
(
6593.48
6593.32
6593.72
6644.33
6644.13
6644.62
6574.44
6574.12
6574.93
6637.9
6637.32
6638
6554.06
6553.38
6555.79
6633.08
6632.15
6632.34
6532.01
6531.4
6537.56
6631.66
6630.2
6627.19
6522.73
6503.92
6523.07
5654.56
3776.53
1899.66
21.6433
5705.41
3827.86
1950.36
72.4956
5635.54
3757.46
1881.12
2.81353
5699.02
3821.47
1943.67
5615.19
3737.07
1861.51
5694.25
3816.41
1937.77
5593.24
3714.48
1840.61
5692.95
3814.31
1933.67
5566.35
3687.04
1817.03
)
;
    }
    procBoundary1to0
    {
        type            processor;
        value           nonuniform List<scalar> 
12
(
5712.49
5712.48
5712.87
3834.94
3835
3835.58
1957.5
1957.68
1957.89
79.5962
79.8739
79.9887
)
;
    }
    procBoundary1to3
    {
        type            processor;
        value           nonuniform List<scalar> 
27
(
5654.51
5705.27
5635.73
5698.4
5616.31
5692.97
5596.26
5689.5
5572.6
3776.69
3827.93
3758.06
3820.7
3739.27
3814.28
3720.76
3809.17
3703.22
1900.26
1950.12
1882.1
1943.13
1864.15
1936.91
1846.45
1930.77
1829.84
)
;
    }
    procBoundary1to5
    {
        type            processor;
        value           nonuniform List<scalar> 
32
(
65.8995
-17.1254
60.2839
-38.6247
57.1217
-62.5192
2.96358
65.4436
-16.0999
59.0663
-35.4321
53.8284
-52.0386
72.7909
4.43143
65.9597
-13.8034
59.5719
-31.662
53.6897
-47.5091
-1855.5
-1805.09
65.8995
2.96358
-1873.64
-1855.1
2.96358
72.7909
-1805.02
72.7909
-1854.08
)
;
    }
    procBoundary1to7
    {
        type            processor;
        value           uniform 23.5684;
    }
}


// ************************************************************************* //
