/*--------------------------------*- C++ -*----------------------------------*\
| =========                 |                                                 |
| \\      /  F ield         | OpenFOAM: The Open Source CFD Toolbox           |
|  \\    /   O peration     | Version:  4.x                                   |
|   \\  /    A nd           | Web:      www.OpenFOAM.org                      |
|    \\/     M anipulation  |                                                 |
\*---------------------------------------------------------------------------*/
FoamFile
{
    version     2.0;
    format      ascii;
    class       surfaceScalarField;
    location    "19.5";
    object      phi;
}
// * * * * * * * * * * * * * * * * * * * * * * * * * * * * * * * * * * * * * //

dimensions      [0 3 -1 0 0 0 0];

internalField   nonuniform List<scalar> 
192
(
1.46556e-05
8.99148e-09
-2.36625e-07
1.49354e-05
1.23619e-08
-2.92149e-07
1.51998e-05
-4.29954e-08
-2.21476e-07
1.52455e-05
3.56023e-08
-8.12559e-08
1.56154e-05
-3.07426e-07
-6.25349e-08
1.49992e-05
7.65017e-08
5.39751e-07
1.57185e-05
-9.76005e-07
2.56723e-07
1.32278e-05
7.24502e-07
1.76613e-06
-2.94216e-06
-4.12073e-06
1.35558e-05
-1.59271e-07
-1.46729e-07
1.38174e-05
-1.27384e-07
-1.21839e-07
1.40203e-05
-2.37233e-07
-8.74465e-09
1.38952e-05
-1.25972e-07
2.86696e-07
1.41499e-05
-6.47799e-07
8.57152e-08
1.32972e-05
-1.06814e-07
1.03596e-06
1.39211e-05
-1.46665e-06
-1.33268e-07
1.17289e-05
7.87888e-07
2.12887e-06
-3.10432e-06
-2.04091e-06
1.15334e-05
-1.21769e-07
1.1361e-05
-6.04469e-09
1.1066e-05
3.35252e-08
1.03118e-05
4.27269e-07
9.48473e-06
1.87999e-07
8.21314e-06
8.33251e-07
6.44232e-06
2.28237e-07
5.67849e-06
1.0193e-06
-1.52297e-08
1.11871e-05
-4.00244e-08
-3.87582e-07
1.13565e-05
-1.16209e-07
-3.45336e-07
1.15929e-05
-5.55525e-08
-4.02363e-07
1.15395e-05
6.11832e-08
-8.90137e-08
1.20225e-05
-1.99629e-07
-3.45876e-07
1.15767e-05
3.61336e-07
6.2421e-07
1.28194e-05
-7.19466e-07
-2.66567e-07
1.15035e-05
1.15483e-06
1.92719e-06
-3.77202e-06
-2.06266e-06
8.91295e-06
-1.25123e-07
-1.98086e-07
8.92487e-06
-2.77536e-07
2.75687e-08
9.11213e-06
-1.58058e-07
-9.35013e-08
8.98857e-06
-5.38536e-08
5.253e-07
9.34788e-06
-2.82397e-07
-1.90828e-07
9.30332e-06
3.10164e-07
1.13169e-06
9.86969e-06
-6.8688e-07
-7.32219e-07
9.60852e-06
1.4013e-06
2.14357e-06
-3.6048e-06
-3.82464e-06
6.81106e-06
-1.01048e-07
6.26081e-06
2.42083e-07
6.17473e-06
-4.43175e-08
5.86553e-06
5.15445e-07
5.70575e-06
4.26299e-12
5.79426e-06
7.1457e-07
5.07047e-06
-9.85805e-12
5.87921e-06
9.87405e-07
-6.11215e-07
9.18023e-06
-8.36774e-08
-3.05318e-07
9.06773e-06
2.56981e-09
-2.35413e-07
9.08072e-06
-1.09792e-07
-3.0556e-07
8.99505e-06
5.13309e-08
9.30413e-06
-3.05798e-07
9.28914e-06
2.07018e-07
1.0551e-05
-1.02099e-06
1.01036e-05
9.56088e-07
-4.19705e-06
6.70264e-06
-8.57861e-08
-1.38436e-07
6.55519e-06
4.61421e-08
1.31451e-07
6.53803e-06
-1.08768e-07
6.6367e-06
-2.48805e-08
6.559e-06
-2.16239e-07
7.27012e-06
-5.4517e-08
6.97046e-06
-7.01664e-07
8.10855e-06
7.8368e-07
-3.04899e-06
5.06573e-06
-4.12201e-08
5.12542e-06
5.00367e-06
5.07394e-06
4.8815e-06
4.96304e-06
4.30276e-06
5.36981e-06
9.71501e-06
-1.55214e-07
9.76702e-06
-1.43551e-07
6.69627e-06
-1.82205e-07
)
;

boundaryField
{
    inlet
    {
        type            calculated;
        value           nonuniform 0();
    }
    outlet
    {
        type            calculated;
        value           nonuniform List<scalar> 9(2.02907e-05 1.3932e-05 1.7077e-06 1.32175e-05 1.1225e-05 1.60724e-06 1.28837e-05 6.24225e-06 2.39483e-06);
    }
    wall
    {
        type            calculated;
        value           uniform 0;
    }
    procBoundary1to0
    {
        type            processor;
        value           nonuniform List<scalar> 
12
(
-1.44279e-05
-1.32408e-05
-1.14861e-05
-1.09961e-05
-8.7765e-06
-6.92762e-06
-9.17881e-06
-6.76018e-06
-5.21135e-06
-9.61009e-06
-6.71676e-06
-6.06997e-06
)
;
    }
    procBoundary1to3
    {
        type            processor;
        value           nonuniform List<scalar> 
27
(
-8.48178e-08
5.09922e-08
2.42617e-08
2.00994e-07
-8.7493e-09
3.31529e-07
7.59262e-08
5.32419e-07
8.817e-07
-2.92841e-08
2.45841e-08
5.86651e-09
1.67174e-07
6.53709e-08
3.40342e-07
2.65147e-07
6.24456e-07
1.26315e-06
3.90324e-12
2.75176e-08
5.53353e-12
5.52023e-08
2.56364e-12
1.47712e-07
-9.87601e-13
2.98511e-07
2.48663e-08
)
;
    }
    procBoundary1to5
    {
        type            processor;
        value           nonuniform List<scalar> 
32
(
-5.46748e-08
-3.49156e-07
4.32186e-07
-5.07467e-07
1.41854e-06
-6.45765e-07
-7.73629e-08
5.02833e-07
-2.02689e-07
6.82113e-07
-7.51882e-07
1.17789e-06
-3.1064e-06
2.01023e-07
-3.13466e-08
3.65094e-07
-2.3796e-08
4.308e-07
-4.13913e-08
4.05525e-07
-7.10086e-07
-2.55025e-07
-1.43868e-07
9.87339e-06
-1.69792e-07
-2.4214e-07
-9.09451e-08
6.78853e-06
-1.86661e-07
8.2294e-08
5.97623e-06
-4.24252e-08
)
;
    }
    procBoundary1to7
    {
        type            processor;
        value           uniform -8.72612e-08;
    }
}


// ************************************************************************* //
