/*--------------------------------*- C++ -*----------------------------------*\
| =========                 |                                                 |
| \\      /  F ield         | OpenFOAM: The Open Source CFD Toolbox           |
|  \\    /   O peration     | Version:  4.x                                   |
|   \\  /    A nd           | Web:      www.OpenFOAM.org                      |
|    \\/     M anipulation  |                                                 |
\*---------------------------------------------------------------------------*/
FoamFile
{
    version     2.0;
    format      ascii;
    class       volScalarField;
    location    "19.5";
    object      SPartFluid;
}
// * * * * * * * * * * * * * * * * * * * * * * * * * * * * * * * * * * * * * //

dimensions      [1 -3 -1 0 0 0 0];

internalField   nonuniform List<scalar> 
87
(
3.71991e-65
5.88984e-65
3.79739e-65
5.11487e-65
3.95242e-65
4.18491e-65
4.4174e-65
5.0374e-65
4.80489e-65
3.64232e-65
3.25487e-65
4.64979e-65
4.18481e-65
3.40985e-65
5.03733e-65
6.58727e-65
4.57235e-65
3.95238e-65
3.48729e-65
5.50218e-65
5.81216e-65
7.12957e-65
5.50219e-65
4.3398e-65
4.95977e-65
4.57231e-65
4.4948e-65
6.66469e-65
5.65723e-65
5.34724e-65
6.19972e-65
5.81223e-65
6.58723e-65
8.36969e-65
7.28475e-65
6.35477e-65
7.20707e-65
5.11465e-65
6.3546e-65
6.97457e-65
7.28458e-65
5.65718e-65
7.51714e-65
7.59463e-65
5.50222e-65
8.13684e-65
6.587e-65
6.19953e-65
5.26961e-65
5.26963e-65
7.36202e-65
8.05952e-65
1.03069e-64
4.88222e-65
7.05208e-65
5.73466e-65
7.67202e-65
7.98203e-65
5.73467e-65
8.44705e-65
7.05215e-65
5.73476e-65
4.1848e-65
5.57954e-65
7.05195e-65
5.65707e-65
6.12204e-65
6.97449e-65
6.97454e-65
6.58709e-65
7.20708e-65
4.41723e-65
7.90427e-65
6.3544e-65
5.11453e-65
9.06668e-65
8.29179e-65
8.75682e-65
6.81952e-65
7.90446e-65
3.48727e-65
6.58707e-65
5.26968e-65
8.05948e-65
7.05193e-65
9.99667e-65
5.73445e-65
)
;

boundaryField
{
    inlet
    {
        type            calculated;
        value           nonuniform 0();
    }
    outlet
    {
        type            calculated;
        value           uniform 0;
    }
    wall
    {
        type            calculated;
        value           uniform 0;
    }
    procBoundary1to0
    {
        type            processor;
        value           nonuniform List<scalar> 
12
(
1.70497e-65
3.9523e-65
6.89713e-65
6.19974e-65
6.97456e-65
4.95964e-65
4.72725e-65
8.29191e-65
4.57211e-65
4.95973e-65
5.50207e-65
8.05927e-65
)
;
    }
    procBoundary1to3
    {
        type            processor;
        value           nonuniform List<scalar> 
27
(
6.97454e-65
3.25479e-65
5.73464e-65
2.55736e-65
4.10727e-65
3.02236e-65
4.72727e-65
4.26233e-65
4.18482e-65
7.51688e-65
6.27693e-65
9.06676e-65
8.52434e-65
7.59442e-65
6.27709e-65
6.0446e-65
6.58712e-65
8.91199e-65
7.67174e-65
9.06661e-65
8.75665e-65
8.52423e-65
6.12197e-65
6.27701e-65
8.52437e-65
7.12952e-65
7.43951e-65
)
;
    }
    procBoundary1to5
    {
        type            processor;
        value           nonuniform List<scalar> 
32
(
6.81959e-65
8.05951e-65
6.35466e-65
6.74214e-65
7.59466e-65
8.4471e-65
6.81943e-65
5.65705e-65
5.81205e-65
6.66453e-65
8.21443e-65
8.5245e-65
7.90453e-65
8.44667e-65
6.04442e-65
7.5168e-65
5.73449e-65
4.57213e-65
7.28446e-65
5.42463e-65
8.67941e-65
6.35461e-65
4.80474e-65
6.81959e-65
6.81943e-65
6.97455e-65
7.05197e-65
6.81943e-65
8.44667e-65
6.81949e-65
8.44667e-65
8.21428e-65
)
;
    }
    procBoundary1to7
    {
        type            processor;
        value           uniform 9.91899e-65;
    }
}


// ************************************************************************* //
