/*--------------------------------*- C++ -*----------------------------------*\
| =========                 |                                                 |
| \\      /  F ield         | OpenFOAM: The Open Source CFD Toolbox           |
|  \\    /   O peration     | Version:  4.x                                   |
|   \\  /    A nd           | Web:      www.OpenFOAM.org                      |
|    \\/     M anipulation  |                                                 |
\*---------------------------------------------------------------------------*/
FoamFile
{
    version     2.0;
    format      ascii;
    class       volScalarField;
    location    "41.5";
    object      QWallFluid;
}
// * * * * * * * * * * * * * * * * * * * * * * * * * * * * * * * * * * * * * //

dimensions      [1 -1 -3 0 0 0 0];

internalField   nonuniform List<scalar> 
132
(
0
0
0
0
0
0
0
0
0
0
0
0
0
0
0
0
0
0
0
0
0
0
0
0
0
0
0
4.79781e+08
9.03076e+08
4.62754e+08
9.21648e+08
4.32537e+08
9.41469e+08
3.72937e+08
9.77607e+08
3.24502e+08
0
0
0
0
0
0
0
0
0
0
0
0
0
0
0
0
0
0
0
0
0
0
0
0
0
3.53121e+08
8.18518e+08
2.74561e+08
8.00423e+08
1.7502e+08
7.63592e+08
9.82384e+07
6.85536e+08
1.17269e+08
0
0
0
0
0
0
0
0
0
0
0
0
0
0
0
0
0
0
0
0
0
0
0
4.85129e+08
8.8116e+08
4.64861e+08
8.89572e+08
4.30685e+08
9.11316e+08
3.59862e+08
9.70218e+08
2.73666e+08
3.68799e+08
1.01681e+09
3.43666e+08
3.77106e+08
8.39114e+08
3.47435e+08
8.44739e+08
3.28267e+08
8.63707e+08
3.00774e+08
8.96656e+08
2.34933e+08
4.69824e+08
8.74423e+08
4.48245e+08
8.81195e+08
4.06369e+08
8.93767e+08
3.46994e+08
9.22139e+08
2.33939e+08
1.15988e+09
1.83904e+09
1.1235e+09
1.83216e+09
1.04715e+09
1.78345e+09
9.61198e+08
1.63567e+09
9.68696e+08
)
;

boundaryField
{
    inlet
    {
        type            calculated;
        value           nonuniform 0();
    }
    outlet
    {
        type            calculated;
        value           uniform 0;
    }
    wall
    {
        type            calculated;
        value           uniform 0;
    }
    procBoundary7to0
    {
        type            processor;
        value           uniform 0;
    }
    procBoundary7to1
    {
        type            processor;
        value           uniform 0;
    }
    procBoundary7to3
    {
        type            processor;
        value           nonuniform List<scalar> 
36
(
0
0
0
0
0
0
0
0
0
0
0
0
0
0
0
0
0
0
0
0
0
0
0
0
0
0
0
4.63782e+08
9.03958e+08
4.44313e+08
9.20065e+08
4.02328e+08
9.55884e+08
3.59889e+08
1.08366e+09
3.47014e+08
)
;
    }
    procBoundary7to5
    {
        type            processor;
        value           nonuniform List<scalar> 
44
(
0
0
0
0
0
0
0
0
0
0
0
0
0
0
0
0
0
0
0
0
0
0
0
0
0
0
0
0
0
0
0
0
3.847e+08
9.22745e+08
4.19865e+08
1.08424e+09
4.15037e+08
4.27934e+08
8.67895e+08
4.12405e+08
8.86705e+08
3.847e+08
9.22745e+08
9.22745e+08
)
;
    }
    procBoundary7to6
    {
        type            processor;
        value           nonuniform List<scalar> 
12
(
0
0
8.86874e+08
0
0
8.28225e+08
0
0
8.71796e+08
8.34225e+08
8.62525e+08
1.83135e+09
)
;
    }
}


// ************************************************************************* //
