/*--------------------------------*- C++ -*----------------------------------*\
| =========                 |                                                 |
| \\      /  F ield         | OpenFOAM: The Open Source CFD Toolbox           |
|  \\    /   O peration     | Version:  4.x                                   |
|   \\  /    A nd           | Web:      www.OpenFOAM.org                      |
|    \\/     M anipulation  |                                                 |
\*---------------------------------------------------------------------------*/
FoamFile
{
    version     2.0;
    format      ascii;
    class       volVectorField;
    location    "41.5";
    object      U;
}
// * * * * * * * * * * * * * * * * * * * * * * * * * * * * * * * * * * * * * //

dimensions      [0 1 -1 0 0 0 0];

internalField   nonuniform List<vector> 
132
(
(3.33205e-06 3.69606e-07 -7.29195e-07)
(0.0285534 0.000304388 -3.76004e-05)
(1.95614e-05 4.10229e-06 -6.67278e-06)
(0.0285664 0.000442281 3.08406e-05)
(1.62144e-08 2.29682e-09 -4.77905e-09)
(0.0281075 0.000795588 0.000756209)
(1.19799e-08 4.04498e-09 -7.10715e-09)
(0.0238224 -0.00118432 0.00345117)
(0.00339746 0.00125089 -0.00146966)
(1.44594e-08 1.04902e-09 -1.0416e-09)
(0.0282745 0.00014187 -7.38086e-05)
(1.65131e-08 1.53941e-09 -1.40368e-09)
(0.0275818 3.2673e-05 0.000301287)
(0.00074862 0.000254349 -8.01321e-05)
(0.0267317 -0.000339313 0.000940439)
(0.00459113 0.00250399 -0.000288508)
(0.0241262 -0.00256038 0.00166516)
(0.00996488 0.010124 0.00130731)
(0.00754053 0.000693169 -0.000678848)
(0.0318146 0.000353941 -0.000200665)
(0.00744606 0.000998558 -0.00109357)
(0.0332251 -0.000128938 -0.000601034)
(0.00765805 0.00187769 -0.00198188)
(0.0351854 -0.00185104 -0.000590222)
(0.00764183 0.00369026 -0.00358206)
(0.0373465 -0.0050885 0.00177816)
(0.00548981 0.00805874 -0.00495231)
(0.015652 -0.000425908 -0.00118851)
(0.0348006 -0.000337213 -0.000959042)
(0.0150981 -0.000672142 -0.00165185)
(0.0357953 -0.000684111 -0.000878141)
(0.0137443 -0.000870198 -0.0025916)
(0.0371428 -0.000717962 -0.000282301)
(0.0108182 -0.000821933 -0.00441795)
(0.0387533 -3.48551e-05 0.0023958)
(0.00559723 -0.000424821 -0.00792603)
(1.51669e-08 -1.92342e-09 5.72225e-10)
(0.0280132 -0.00033067 0.000376922)
(1.39226e-08 -1.85926e-09 6.41309e-10)
(0.0277102 -0.000270657 0.000957849)
(1.19615e-08 -1.0256e-09 -3.19196e-10)
(0.0248799 0.00150343 0.00107796)
(0.00630306 -0.00129912 0.00178654)
(1.31661e-08 -2.04112e-10 -2.07148e-10)
(0.0274253 -7.8408e-05 7.82691e-05)
(1.45945e-08 -1.38033e-10 -5.3006e-10)
(0.027867 -4.89604e-05 -4.6904e-05)
(1.39922e-08 8.30814e-10 -1.0371e-10)
(0.0283388 0.000243612 -6.60163e-05)
(1.18718e-08 1.51739e-09 -1.31689e-09)
(0.0279163 0.000451053 0.000388934)
(0.00333159 -0.000543601 0.000244195)
(1.29054e-08 2.53018e-10 -1.33094e-09)
(0.0279763 -0.000520317 -0.00017732)
(1.24078e-08 3.85538e-10 -1.78909e-09)
(0.0270653 -0.000630154 8.94288e-05)
(1.18121e-08 1.9383e-09 -1.51512e-09)
(0.0249385 -0.00028515 0.00065792)
(1.07705e-08 2.44685e-09 -2.12646e-09)
(0.019563 -0.000375615 0.00167944)
(0.00406144 -0.000206122 0.000102451)
(0.010763 4.16536e-05 -0.000752151)
(0.0311138 -0.000535953 -0.000387882)
(0.00788608 4.17672e-05 -0.000902527)
(0.0303413 -0.000825664 -0.00029546)
(0.00448766 0.000217252 -0.000766684)
(0.0287257 -0.000564052 0.000179036)
(0.00213627 0.000237459 -0.000559476)
(0.0251231 -0.00071048 0.00155518)
(0.00268293 0.000531312 0.000181441)
(0.00230443 -0.000142312 0.000664869)
(0.0303195 -2.36645e-05 8.13145e-05)
(0.00444082 -0.000358632 0.00229515)
(0.0287075 -6.8825e-05 -0.00222736)
(0.00926642 -0.00101448 0.010852)
(0.000143533 1.02049e-06 1.50008e-05)
(0.0285652 5.25226e-05 -8.3218e-05)
(1.35085e-08 4.38545e-11 1.80336e-09)
(0.0283397 -0.000244061 0.000195576)
(1.37942e-08 1.18276e-09 2.64621e-09)
(0.0273621 -0.00066594 0.000471166)
(0.0021539 0.000516524 0.000697112)
(0.025082 -0.00230485 -0.000742216)
(0.00914231 0.00622027 0.00547033)
(0.00646565 0.000281012 8.0208e-05)
(0.0307918 3.63893e-05 -9.00682e-05)
(0.00586477 0.000308515 0.000172226)
(0.0324686 -0.000286968 -0.00023823)
(0.00613883 0.000688643 0.000752101)
(0.0354571 -0.00180471 -0.000252268)
(0.00712723 0.00167395 0.00208286)
(0.0406166 -0.00456493 -0.00200003)
(0.00654038 0.00578951 0.00766868)
(0.0160192 1.089e-05 -5.00599e-05)
(0.034052 -5.07809e-05 0.000312889)
(0.0153711 -0.000317681 3.06557e-05)
(0.0346663 -0.000542652 0.000361799)
(0.0139896 -0.000836929 0.000273876)
(0.035747 -0.000892659 0.000327103)
(0.0111479 -0.00160159 0.000566569)
(0.0388233 -0.000523554 -0.00031665)
(0.00607683 -0.00192176 0.00473281)
(0.0111222 -0.00275349 0.00176005)
(0.0411347 0.00121095 -0.00200382)
(0.00726587 -0.00520864 0.00568521)
(0.0117723 -0.000243266 0.000240043)
(0.0320904 -0.000204641 -9.10276e-06)
(0.0107401 -0.000449226 0.000249819)
(0.0326621 -0.000348406 -0.00011636)
(0.00993288 -0.000786054 0.00079033)
(0.0333359 -0.000480678 -0.00118859)
(0.0087683 -0.00143273 0.00140876)
(0.0350787 -2.04714e-05 -0.00330594)
(0.00538033 -0.002063 0.00316291)
(0.0154435 7.83617e-05 -7.22223e-05)
(0.0337118 -1.58235e-05 -0.000100523)
(0.0146628 -9.33584e-05 -0.00049617)
(0.0342339 -0.000432143 -0.000686934)
(0.013014 -0.000544497 -0.00103653)
(0.034965 -0.000742188 -0.00110566)
(0.0105154 -0.00112556 -0.00202432)
(0.036407 -0.000520293 -0.000763558)
(0.00587783 -0.00212008 -0.0019734)
(0.0200234 -0.000185173 -0.000284129)
(0.0359313 -0.000176816 -0.000237344)
(0.0193636 -0.000327065 -0.000550069)
(0.0357854 -0.000320135 -0.000495269)
(0.0178232 -0.000775183 -0.00107935)
(0.0348159 -0.000221549 -0.000493467)
(0.0158336 -0.00175979 -0.00239582)
(0.0311576 0.000775758 0.000413467)
(0.0148695 -0.00494612 -0.00332201)
)
;

boundaryField
{
    inlet
    {
        type            fixedValue;
        value           nonuniform 0();
    }
    outlet
    {
        type            zeroGradient;
    }
    wall
    {
        type            fixedValue;
        value           uniform (0 0 0);
    }
    procBoundary7to0
    {
        type            processor;
        value           uniform (0.0281343 -9.34129e-05 -0.000150497);
    }
    procBoundary7to1
    {
        type            processor;
        value           uniform (1.27821e-08 -8.77175e-10 2.85672e-10);
    }
    procBoundary7to3
    {
        type            processor;
        value           nonuniform List<vector> 
36
(
(0.00287851 -0.000250128 -0.000638362)
(0.0301197 -9.71379e-05 -8.08953e-05)
(0.00204286 -0.000276341 -0.000634204)
(0.0302392 -0.000347119 0.000435975)
(0.00210547 -0.000547881 -0.00101445)
(0.0298052 -0.000546027 0.00132933)
(0.00306171 -0.0011987 -0.00213249)
(0.027248 0.000826024 0.00410209)
(0.00738656 -0.00357541 -0.00788517)
(1.41716e-08 -2.59671e-09 -1.07656e-09)
(0.0278048 -0.00017455 0.000473159)
(1.59996e-08 -2.99078e-09 -1.80063e-09)
(0.0275678 0.000128832 0.000760173)
(1.49173e-08 -1.77562e-09 -3.95508e-09)
(0.0272446 0.000641936 0.00212738)
(1.24434e-08 9.54263e-10 -6.0429e-09)
(0.0236231 0.000409932 0.00297386)
(0.00314896 0.000281797 -0.000454506)
(0.00222102 0.000189572 -0.000153093)
(0.0300813 -0.000104836 -0.00012295)
(0.00101069 0.00014252 -0.000118584)
(0.0308415 -0.000227067 0.000387135)
(0.00224356 0.000641109 -0.000484097)
(0.0319004 -0.000234967 0.00124923)
(0.00592197 0.00326934 -0.00221083)
(0.0310396 -0.00211424 0.00325533)
(0.0103074 0.0135187 -0.00722107)
(0.0149441 -1.12343e-05 -0.000868712)
(0.0342136 -9.84545e-05 -0.000447143)
(0.0141184 -0.000244621 -0.00107712)
(0.0352532 -0.00101172 -4.72795e-05)
(0.0124714 -8.43242e-05 -0.00167992)
(0.0373183 -0.00144723 0.000669385)
(0.0106449 0.000827295 -0.0027418)
(0.0438064 -0.00167972 0.00259778)
(0.00699473 0.0054547 -0.00576249)
)
;
    }
    procBoundary7to5
    {
        type            processor;
        value           nonuniform List<vector> 
44
(
(0.025985 0.000634657 8.34535e-05)
(1.56665e-08 -5.1361e-10 4.67052e-10)
(0.0256253 0.00046597 0.00035017)
(1.54304e-08 -1.10032e-09 -1.88106e-09)
(0.0246463 -0.000243607 0.000853815)
(1.3723e-08 2.64683e-11 -3.44442e-09)
(0.0212181 -0.00127526 0.00147523)
(0.00680134 8.48527e-05 -0.00038582)
(1.32379e-08 -1.34756e-09 9.5977e-10)
(0.0275598 -0.000187888 -8.03442e-05)
(1.4827e-08 -2.63683e-09 3.43683e-09)
(0.02927 0.000237867 0.000313681)
(0.000623211 -0.000214943 0.000198873)
(0.030005 4.97816e-05 0.000775293)
(0.00260175 -0.0011944 0.00114717)
(0.0284797 0.0020385 -0.000748761)
(0.00649582 -0.00324892 0.00324267)
(1.32379e-08 -1.34756e-09 9.5977e-10)
(0.0275598 -0.000187888 -8.03442e-05)
(0.0275598 -0.000187888 -8.03442e-05)
(0.00144279 -5.78849e-05 0.00025014)
(0.0300412 5.64243e-05 -9.02353e-05)
(1.37013e-08 -9.41658e-10 1.7256e-09)
(0.0274611 0.000714993 -0.0002063)
(0.00276943 -0.000497642 0.00107763)
(0.0249997 0.000782307 -0.00159213)
(0.0090406 -0.00355188 0.010154)
(0.00214731 -8.20195e-05 0.00020303)
(0.0294604 0.000291839 -2.02398e-05)
(0.00144279 -5.78849e-05 0.00025014)
(0.0300412 5.64243e-05 -9.02353e-05)
(0.0300412 5.64243e-05 -9.02353e-05)
(0.0122596 -0.00133612 0.000609642)
(0.0366859 -0.000267378 -0.000826085)
(0.0129279 -0.0018051 0.00404523)
(0.0445363 0.00148397 -0.0040639)
(0.00806695 -0.00267693 0.0104348)
(0.0138004 -0.000562339 0.000283036)
(0.0334938 -0.000415282 0.000207082)
(0.0133038 -0.00083165 0.000290281)
(0.0346902 -0.000486148 -0.000400691)
(0.0122596 -0.00133612 0.000609642)
(0.0366859 -0.000267378 -0.000826085)
(0.0366859 -0.000267378 -0.000826085)
)
;
    }
    procBoundary7to6
    {
        type            processor;
        value           nonuniform List<vector> 
12
(
(0.0281466 0.000492005 4.61689e-05)
(0.0305612 0.000788026 -0.000382706)
(0.033577 -5.55455e-06 -0.000767076)
(0.0268914 -0.000443052 -0.000140889)
(0.0282046 -0.000185731 -0.000381755)
(0.0312578 0.000152309 -0.000423897)
(0.0283484 5.39839e-05 -3.31203e-05)
(0.0298869 0.000697237 0.000375051)
(0.0332183 0.000300222 0.000279129)
(0.0314896 -0.000231072 0.000614188)
(0.0330126 0.000225242 0.000267049)
(0.0352917 5.74998e-05 1.1262e-05)
)
;
    }
}


// ************************************************************************* //
