/*--------------------------------*- C++ -*----------------------------------*\
| =========                 |                                                 |
| \\      /  F ield         | OpenFOAM: The Open Source CFD Toolbox           |
|  \\    /   O peration     | Version:  4.x                                   |
|   \\  /    A nd           | Web:      www.OpenFOAM.org                      |
|    \\/     M anipulation  |                                                 |
\*---------------------------------------------------------------------------*/
FoamFile
{
    version     2.0;
    format      ascii;
    class       volVectorField;
    location    "38";
    object      ddtUrel;
}
// * * * * * * * * * * * * * * * * * * * * * * * * * * * * * * * * * * * * * //

dimensions      [0 1 -2 0 0 0 0];

internalField   nonuniform List<vector> 
87
(
(-7.13231e-08 -4.13156e-11 1.3774e-09)
(-1.94753e-07 -3.65903e-10 4.11938e-09)
(-6.89756e-08 -4.19138e-11 1.92252e-09)
(-2.57875e-08 6.49415e-11 1.47804e-09)
(-8.51921e-09 2.0944e-10 1.74628e-09)
(1.64835e-09 5.9801e-10 2.6264e-09)
(1.03988e-08 1.53455e-09 4.79878e-09)
(2.84075e-08 4.79588e-09 1.16816e-08)
(4.32419e-08 3.81595e-09 1.17118e-08)
(-3.6237e-08 2.36757e-10 6.57008e-10)
(-6.13416e-08 1.0327e-10 1.38716e-09)
(-3.49067e-08 6.27065e-11 1.27212e-09)
(-1.65365e-08 2.4554e-11 1.37368e-09)
(-6.0861e-09 8.85729e-11 1.75249e-09)
(9.7043e-10 2.34828e-10 2.39011e-09)
(6.80958e-09 4.5518e-10 3.37362e-09)
(1.49907e-08 1.10766e-09 5.2312e-09)
(1.83987e-08 8.61519e-11 4.60884e-09)
(-1.72211e-08 4.05906e-10 2.938e-10)
(-2.32857e-08 2.24873e-10 6.11538e-10)
(-1.64279e-08 6.52608e-12 8.65648e-10)
(-9.4028e-09 -1.21156e-11 1.23665e-09)
(-3.78671e-09 -2.79317e-11 1.7162e-09)
(6.68895e-10 -8.4349e-11 2.16548e-09)
(4.2954e-09 -2.73811e-10 2.49026e-09)
(9.26887e-09 -7.37511e-10 2.79609e-09)
(8.93474e-09 -2.09758e-09 9.02493e-10)
(-3.45036e-08 8.22807e-11 6.3609e-10)
(-5.8237e-08 -6.32452e-12 1.34562e-09)
(-3.35287e-08 2.4825e-11 1.16167e-09)
(-1.6078e-08 4.28355e-11 1.18816e-09)
(-6.32007e-09 1.00346e-10 1.47807e-09)
(-2.45463e-11 2.79947e-10 2.08708e-09)
(5.23105e-09 6.60236e-10 3.18988e-09)
(1.18566e-08 1.43343e-09 5.12557e-09)
(1.68963e-08 1.4221e-09 5.53854e-09)
(-2.11896e-08 2.19056e-10 3.5797e-10)
(-2.96396e-08 1.23649e-10 7.55154e-10)
(-2.05855e-08 6.74873e-11 9.24853e-10)
(-1.13927e-08 1.56911e-11 1.17296e-09)
(-4.91223e-09 1.05004e-11 1.5492e-09)
(-2.46603e-10 6.43942e-11 2.04995e-09)
(3.55233e-09 1.62114e-10 2.69528e-09)
(7.50239e-09 4.02747e-10 3.52298e-09)
(1.05292e-08 4.23002e-10 3.64321e-09)
(-1.14667e-08 3.99059e-10 1.71542e-10)
(-1.42442e-08 2.64332e-10 4.29771e-10)
(-1.11329e-08 1.18488e-10 7.14981e-10)
(-6.94116e-09 1.5606e-11 1.11237e-09)
(-3.29068e-09 -7.1559e-11 1.5675e-09)
(-2.93535e-10 -1.39026e-10 1.96674e-09)
(2.1695e-09 -2.5706e-10 2.29034e-09)
(4.35915e-09 -3.91763e-10 2.4608e-09)
(5.81329e-09 -6.73833e-10 1.89323e-09)
(-1.5584e-08 1.10378e-10 2.37666e-10)
(-2.08871e-08 4.5824e-11 5.58002e-10)
(-1.51156e-08 1.86357e-11 7.13328e-10)
(-8.67492e-09 -2.36718e-12 8.86456e-10)
(-3.90252e-09 1.44961e-12 1.14458e-09)
(-3.86974e-10 4.35046e-11 1.54368e-09)
(2.44124e-09 1.31226e-10 2.06995e-09)
(5.23838e-09 3.07979e-10 2.68013e-09)
(7.54744e-09 3.80096e-10 3.03889e-09)
(-1.10561e-08 2.00903e-10 1.54551e-10)
(-1.36575e-08 1.05267e-10 4.26295e-10)
(-1.06915e-08 3.53745e-11 6.46005e-10)
(-6.66923e-09 -1.31809e-11 9.13294e-10)
(-3.20063e-09 -5.05053e-11 1.21891e-09)
(-4.24623e-10 -8.61863e-11 1.58497e-09)
(1.87069e-09 -9.86533e-11 1.9562e-09)
(3.84864e-09 -6.11635e-12 2.2956e-09)
(5.51378e-09 1.0456e-10 2.44442e-09)
(-6.81057e-09 3.69065e-10 8.91774e-11)
(-7.93405e-09 2.63817e-10 3.38083e-10)
(-6.6239e-09 1.20357e-10 5.97325e-10)
(-4.40907e-09 -7.38419e-12 9.11431e-10)
(-2.22134e-09 -1.08427e-10 1.27375e-09)
(-3.18052e-10 -2.0842e-10 1.60721e-09)
(1.35626e-09 -3.05142e-10 1.81862e-09)
(2.67668e-09 -2.59675e-10 1.8991e-09)
(3.69401e-09 -1.7946e-10 1.87131e-09)
(-7.15617e-09 9.47141e-11 6.55958e-11)
(-8.52278e-09 2.71797e-11 2.75569e-10)
(-6.87493e-09 -1.14125e-11 4.33584e-10)
(-5.5984e-09 1.54e-10 5.35462e-11)
(-6.41345e-09 7.47821e-11 2.54127e-10)
(-3.79291e-09 3.04741e-10 4.11831e-11)
)
;

boundaryField
{
    inlet
    {
        type            calculated;
        value           nonuniform 0();
    }
    outlet
    {
        type            calculated;
        value           nonuniform List<vector> 9((6.74628e-09 -8.56737e-09 -2.04952e-08) (8.43289e-09 -8.46433e-09 -4.35107e-09) (6.26408e-09 -6.38566e-09 -5.40134e-09) (-6.308e-10 2.32334e-10 1.04184e-09) (-1.31183e-09 -6.95581e-11 2.00214e-09) (-5.68997e-10 -1.65362e-09 4.57288e-09) (-2.76106e-10 -4.77477e-10 1.8516e-09) (7.02636e-10 -2.17566e-10 1.17691e-09) (1.04488e-09 -6.48974e-10 2.74276e-09));
    }
    wall
    {
        type            calculated;
        value           nonuniform List<vector> 
57
(
(-6.57184e-08 -1.42414e-09 1.73973e-09)
(-2.36003e-08 1.15171e-09 4.29181e-10)
(-1.34553e-08 7.93293e-10 5.10839e-10)
(-2.0076e-06 -6.22065e-09 4.19943e-08)
(-7.19777e-08 1.26761e-09 1.1657e-09)
(-3.21029e-08 -5.56348e-11 5.62291e-10)
(-3.51168e-08 -2.11369e-10 1.80974e-09)
(-1.45353e-08 8.41512e-10 1.40213e-09)
(-8.90193e-09 -2.37917e-09 1.00229e-09)
(-1.2212e-09 1.20687e-10 4.08951e-10)
(1.51955e-10 -2.8803e-10 1.18686e-09)
(-5.74063e-09 -6.94539e-10 1.3078e-09)
(5.26554e-10 1.19839e-10 5.39932e-10)
(5.2053e-09 -1.40649e-10 1.38581e-09)
(3.98683e-09 -2.13031e-10 1.85984e-09)
(1.8863e-08 9.47438e-10 7.6832e-10)
(1.76863e-08 4.15563e-10 2.2943e-09)
(1.29374e-08 -1.54153e-10 3.06122e-09)
(1.49884e-08 -1.73249e-10 -2.76292e-09)
(1.86659e-08 -3.05735e-09 -1.39098e-09)
(1.16267e-08 -2.13162e-09 -8.78975e-10)
(2.27291e-07 4.18208e-08 7.70327e-08)
(7.2235e-08 4.59468e-09 8.37581e-09)
(8.01938e-08 -2.32449e-10 1.18068e-08)
(2.81156e-07 6.95636e-09 2.38735e-08)
(2.1177e-08 -2.10096e-08 -1.66042e-08)
(2.15175e-08 -9.88425e-09 -1.17834e-08)
(-4.08835e-08 -1.16389e-09 7.18999e-10)
(-3.34824e-09 -1.76756e-10 -6.09257e-11)
(-1.92245e-10 -8.04026e-13 -2.63296e-10)
(-2.33301e-10 4.32881e-11 -3.03803e-10)
(-3.59648e-06 -3.09924e-08 7.51965e-08)
(-3.68579e-09 8.68436e-11 -3.05435e-13)
(-4.84152e-09 -5.7608e-11 5.3666e-11)
(-2.59038e-09 -2.14639e-10 1.17154e-11)
(-1.5005e-08 9.79747e-11 6.15102e-10)
(1.28252e-09 9.9072e-11 2.67501e-10)
(-7.91268e-10 -3.47292e-11 4.86949e-10)
(-4.55445e-10 -1.21369e-10 -1.63987e-11)
(1.3636e-09 1.5041e-10 3.51177e-10)
(3.36651e-09 8.50907e-11 4.16707e-10)
(4.29514e-10 -3.75791e-11 4.27066e-10)
(-1.66343e-10 9.78638e-11 6.11563e-10)
(-9.42375e-11 -5.28451e-11 4.27195e-10)
(2.54479e-10 -3.76301e-11 3.88806e-10)
(2.3355e-08 9.94376e-10 7.53403e-10)
(4.67418e-10 3.99388e-11 6.25972e-10)
(1.17881e-09 -2.83274e-11 7.82369e-10)
(1.27278e-08 2.35704e-10 -2.25816e-09)
(-7.62045e-10 -9.6025e-11 4.26522e-10)
(-1.2525e-09 -4.79376e-10 1.13748e-09)
(1.15537e-07 4.01061e-08 7.31737e-08)
(4.33677e-09 1.61871e-10 2.68028e-09)
(-2.45598e-09 -7.85067e-10 6.23755e-10)
(2.57391e-07 1.78521e-08 4.39077e-08)
(2.48038e-09 6.88741e-10 -5.25866e-10)
(1.24086e-09 -3.02661e-10 2.03548e-09)
)
;
    }
    procBoundary1to0
    {
        type            processor;
        value           nonuniform List<vector> 
12
(
(-2.79868e-08 1.65137e-10 3.06144e-10)
(-1.85626e-08 3.12941e-10 1.16107e-10)
(-1.05904e-08 4.2372e-10 -2.49981e-11)
(-1.73869e-08 1.67445e-10 9.28898e-11)
(-1.24295e-08 2.79938e-10 -2.09994e-11)
(-7.5177e-09 4.2444e-10 -1.01783e-10)
(-9.43296e-09 1.63146e-10 -6.2688e-11)
(-7.27852e-09 2.34821e-10 -1.11908e-10)
(-4.73813e-09 3.62805e-10 -1.37453e-10)
(-4.93381e-09 1.42023e-10 -1.30703e-10)
(-4.0443e-09 1.9184e-10 -1.40391e-10)
(-2.81497e-09 2.88098e-10 -1.30538e-10)
)
;
    }
    procBoundary1to3
    {
        type            processor;
        value           nonuniform List<vector> 
27
(
(-8.50391e-09 6.27049e-10 9.47279e-11)
(-1.04943e-08 4.10668e-10 2.98691e-10)
(-8.26846e-09 3.58607e-10 5.76968e-10)
(-5.3628e-09 1.29627e-10 1.10569e-09)
(-2.12554e-09 3.4232e-12 1.68251e-09)
(8.54355e-10 -1.41e-10 2.0108e-09)
(3.44541e-09 -3.81553e-10 2.03491e-09)
(7.12168e-09 -1.60085e-09 1.4342e-09)
(8.09517e-10 -6.10258e-09 -4.6934e-09)
(-5.9408e-09 5.99995e-10 7.02208e-11)
(-7.08021e-09 3.93592e-10 2.50576e-10)
(-5.85517e-09 2.60681e-10 5.18353e-10)
(-3.98048e-09 9.89542e-11 1.04226e-09)
(-1.94093e-09 -3.61619e-11 1.54567e-09)
(-3.91306e-12 -1.51358e-10 1.87339e-09)
(1.62314e-09 -2.2979e-10 1.99823e-09)
(2.96671e-09 -4.99398e-10 1.68704e-09)
(3.18044e-09 -8.70567e-10 -7.0963e-10)
(-3.87094e-09 6.09653e-10 8.00518e-11)
(-4.47411e-09 4.40657e-10 2.79802e-10)
(-3.85318e-09 3.44368e-10 5.28961e-10)
(-2.62428e-09 9.80558e-11 8.82468e-10)
(-1.32015e-09 -4.60341e-11 1.29295e-09)
(-3.90709e-11 -1.7031e-10 1.58998e-09)
(1.12665e-09 -1.98768e-10 1.74376e-09)
(1.96506e-09 -1.35827e-10 1.61491e-09)
(2.69372e-09 -3.50714e-11 1.23272e-09)
)
;
    }
    procBoundary1to5
    {
        type            processor;
        value           nonuniform List<vector> 
32
(
(-4.40887e-09 -5.25955e-11 6.11773e-10)
(-2.1487e-09 -7.07462e-11 8.17164e-10)
(-2.6545e-10 -8.30026e-11 1.06952e-09)
(1.32171e-09 -7.24573e-11 1.34797e-09)
(2.86168e-09 -3.90493e-11 1.54649e-09)
(4.79214e-09 -6.89134e-11 1.7318e-09)
(-5.34342e-09 7.41996e-12 4.37058e-10)
(-3.59129e-09 -5.85022e-11 6.5904e-10)
(-1.81672e-09 -1.06431e-10 8.83244e-10)
(-2.38855e-10 -1.50276e-10 1.12836e-09)
(1.12092e-09 -1.75551e-10 1.37291e-09)
(2.2633e-09 -1.51182e-10 1.48107e-09)
(3.22909e-09 -1.30467e-10 1.65135e-09)
(-4.24849e-09 2.24423e-10 2.55314e-10)
(-3.65988e-09 1.0626e-10 4.53641e-10)
(-2.54576e-09 -3.06848e-11 6.99891e-10)
(-1.29843e-09 -1.27055e-10 9.44894e-10)
(-1.13567e-10 -2.14334e-10 1.17495e-09)
(9.44133e-10 -2.45846e-10 1.34771e-09)
(1.78475e-09 -2.00429e-10 1.38482e-09)
(2.34125e-09 -6.31785e-11 1.45519e-09)
(-3.45036e-09 6.0604e-11 1.79357e-11)
(-3.8213e-09 4.74396e-12 1.58947e-10)
(-4.40887e-09 -5.25955e-11 6.11773e-10)
(-5.34342e-09 7.41996e-12 4.37058e-10)
(-3.24017e-09 -2.87748e-11 2.81201e-10)
(-2.93164e-09 8.42038e-11 2.47019e-11)
(-5.34342e-09 7.41996e-12 4.37058e-10)
(-4.24849e-09 2.24423e-10 2.55314e-10)
(-3.19454e-09 3.30814e-12 1.77616e-10)
(-4.24849e-09 2.24423e-10 2.55314e-10)
(-2.15537e-09 2.05893e-10 4.69098e-11)
)
;
    }
    procBoundary1to7
    {
        type            processor;
        value           uniform (-2.3081e-09 4.654e-10 7.59272e-11);
    }
}


// ************************************************************************* //
