/*--------------------------------*- C++ -*----------------------------------*\
| =========                 |                                                 |
| \\      /  F ield         | OpenFOAM: The Open Source CFD Toolbox           |
|  \\    /   O peration     | Version:  4.x                                   |
|   \\  /    A nd           | Web:      www.OpenFOAM.org                      |
|    \\/     M anipulation  |                                                 |
\*---------------------------------------------------------------------------*/
FoamFile
{
    version     2.0;
    format      ascii;
    class       volScalarField;
    location    "38";
    object      magGField;
}
// * * * * * * * * * * * * * * * * * * * * * * * * * * * * * * * * * * * * * //

dimensions      [1 -2 -1 0 0 0 0];

internalField   nonuniform List<scalar> 
87
(
93.1375
141.669
95.1851
150.421
93.8802
166.424
84.2894
204.435
60.5823
79.8871
133.867
80.9032
141.065
77.7198
152.736
66.5031
176.253
50.8714
66.9074
121.955
65.5231
126.35
62.2756
135.733
57.0803
158.121
51.6923
58.1197
116.461
57.8476
119.971
54.4849
125.383
45.4611
135.585
31.2976
31.7416
104.955
28.4579
108.587
23.6041
114.229
21.998
121.097
31.2501
10.2741
95.3696
2.38107
95.2704
3.59268e-05
91.4018
4.89989
83.1519
39.5568
53.6612
113.895
51.5103
117.843
47.1523
123.995
41.1094
132.292
38.7236
25.7928
102.151
25.1328
106.901
25.0614
112.008
28.7796
119.276
40.4884
10.7161
92.9839
9.30932
93.5328
10.6474
92.8838
17.975
87.8652
39.5276
38.9496
99.2395
27.952
5.11471
89.0934
3.3667e-05
)
;

boundaryField
{
    inlet
    {
        type            calculated;
        value           nonuniform 0();
    }
    outlet
    {
        type            calculated;
        value           nonuniform List<scalar> 9(125.557 105.303 107.341 66.0771 65.9088 83.7516 82.5457 86.5592 84.8052);
    }
    wall
    {
        type            calculated;
        value           uniform 0;
    }
    procBoundary1to0
    {
        type            processor;
        value           nonuniform List<scalar> 
12
(
136.113
127.363
117.987
113.06
102.143
95.2344
110.217
98.527
92.2731
101.624
90.244
81.7788
)
;
    }
    procBoundary1to3
    {
        type            processor;
        value           nonuniform List<scalar> 
27
(
71.0417
127.647
72.489
134.988
69.6651
143.194
57.8968
154.052
48.3683
18.6991
101.154
14.7894
104.044
11.6681
107.325
11.7686
110.295
30.8984
6.08834
91.2541
3.65923
91.1538
4.27143
89.5995
8.0729
82.0658
30.2878
)
;
    }
    procBoundary1to5
    {
        type            processor;
        value           nonuniform List<scalar> 
32
(
92.0328
11.5367
78.7147
3.3435e-05
53.6663
2.49507
3.94881e-05
87.5809
3.72999e-05
82.9351
1.51613
71.3392
18.8741
79.8388
3.48776e-05
78.2465
3.55212e-05
75.179
4.02979e-05
65.535
21.9614
45.3607
106.562
92.0328
3.94881e-05
43.5248
10.3145
3.94881e-05
79.8388
92.5249
79.8388
0.607336
)
;
    }
    procBoundary1to7
    {
        type            processor;
        value           uniform 3.68318e-05;
    }
}


// ************************************************************************* //
