/*--------------------------------*- C++ -*----------------------------------*\
| =========                 |                                                 |
| \\      /  F ield         | OpenFOAM: The Open Source CFD Toolbox           |
|  \\    /   O peration     | Version:  4.x                                   |
|   \\  /    A nd           | Web:      www.OpenFOAM.org                      |
|    \\/     M anipulation  |                                                 |
\*---------------------------------------------------------------------------*/
FoamFile
{
    version     2.0;
    format      ascii;
    class       volScalarField;
    location    "38";
    object      Qsource;
}
// * * * * * * * * * * * * * * * * * * * * * * * * * * * * * * * * * * * * * //

dimensions      [1 -1 -3 0 0 0 0];

internalField   nonuniform List<scalar> 
87
(
5.90909e+09
9.31264e+09
5.83766e+09
8.92338e+09
5.99327e+09
7.44943e+09
6.7342e+09
9.61334e+09
5.16423e+09
5.24611e+09
5.50861e+09
6.55602e+09
6.87099e+09
5.085e+09
7.84713e+09
8.23113e+09
8.02334e+09
4.44848e+09
4.56581e+09
8.10046e+09
6.83899e+09
9.98586e+09
6.8773e+09
6.91028e+09
6.29066e+09
7.52147e+09
4.76895e+09
7.98024e+09
7.55749e+09
6.69562e+09
8.57853e+09
6.90255e+09
8.90082e+09
9.56837e+09
1.01427e+10
5.77658e+09
9.0293e+09
6.72818e+09
7.58904e+09
9.43184e+09
9.22024e+09
7.7278e+09
9.4327e+09
1.05601e+10
4.69513e+09
7.95121e+09
8.49622e+09
7.19334e+09
6.8144e+09
5.7796e+09
9.28189e+09
9.37347e+09
1.31141e+10
4.38257e+09
7.64106e+09
7.96034e+09
8.73402e+09
1.06079e+10
6.5728e+09
1.07028e+10
8.06989e+09
8.55378e+09
3.60304e+09
6.47382e+09
8.85687e+09
6.47092e+09
8.09739e+09
8.16554e+09
9.07862e+09
7.62047e+09
9.43442e+09
3.68938e+09
9.52033e+09
7.89325e+09
5.51687e+09
1.1149e+10
8.89024e+09
1.06754e+10
7.46705e+09
9.64803e+09
3.36059e+09
6.88843e+09
6.39232e+09
7.95341e+09
7.85477e+09
1.21982e+10
5.88191e+09
)
;

boundaryField
{
    inlet
    {
        type            calculated;
        value           nonuniform 0();
    }
    outlet
    {
        type            calculated;
        value           uniform 0;
    }
    wall
    {
        type            calculated;
        value           uniform 0;
    }
    procBoundary1to0
    {
        type            processor;
        value           nonuniform List<scalar> 
12
(
4.20036e+09
6.28096e+09
9.48731e+09
8.20112e+09
8.98412e+09
6.35151e+09
6.33916e+09
1.01498e+10
5.3946e+09
6.90861e+09
6.93168e+09
9.33036e+09
)
;
    }
    procBoundary1to3
    {
        type            processor;
        value           nonuniform List<scalar> 
27
(
9.11891e+09
4.88832e+09
7.37254e+09
4.31922e+09
5.62239e+09
4.92672e+09
6.14194e+09
6.46881e+09
3.36356e+09
8.51265e+09
8.07444e+09
1.0216e+10
1.06131e+10
8.44019e+09
7.93964e+09
6.78263e+09
8.47685e+09
7.55829e+09
8.1533e+09
1.09574e+10
9.12238e+09
1.02981e+10
6.53783e+09
7.76684e+09
9.03578e+09
8.38178e+09
6.88936e+09
)
;
    }
    procBoundary1to5
    {
        type            processor;
        value           nonuniform List<scalar> 
32
(
8.67032e+09
7.43753e+09
7.73816e+09
5.69483e+09
8.35356e+09
5.84347e+09
7.25741e+09
7.03451e+09
5.88119e+09
8.21461e+09
8.3889e+09
1.00455e+10
6.45622e+09
9.9459e+09
6.13652e+09
8.706e+09
5.87378e+09
5.3025e+09
7.42481e+09
6.23029e+09
6.67232e+09
7.10455e+09
6.59846e+09
8.67032e+09
7.25741e+09
8.01188e+09
8.11726e+09
7.25741e+09
9.9459e+09
8.24746e+09
9.9459e+09
8.52371e+09
)
;
    }
    procBoundary1to7
    {
        type            processor;
        value           uniform 9.97635e+09;
    }
}


// ************************************************************************* //
