/*--------------------------------*- C++ -*----------------------------------*\
| =========                 |                                                 |
| \\      /  F ield         | OpenFOAM: The Open Source CFD Toolbox           |
|  \\    /   O peration     | Version:  4.x                                   |
|   \\  /    A nd           | Web:      www.OpenFOAM.org                      |
|    \\/     M anipulation  |                                                 |
\*---------------------------------------------------------------------------*/
FoamFile
{
    version     2.0;
    format      ascii;
    class       volScalarField;
    location    "21.5";
    object      Cs;
}
// * * * * * * * * * * * * * * * * * * * * * * * * * * * * * * * * * * * * * //

dimensions      [1 -3 0 0 0 0 0];

internalField   nonuniform List<scalar> 
87
(
334.989
334.988
334.987
334.985
334.982
334.977
334.967
334.957
340.185
334.993
334.99
334.985
334.98
334.972
334.962
334.94
334.924
334.385
334.992
334.988
334.98
334.969
334.95
334.923
334.888
334.862
334.831
334.992
334.988
334.982
334.974
334.963
334.951
334.931
334.919
334.218
334.979
334.965
334.949
334.935
334.912
334.9
334.88
334.876
334.764
334.967
334.945
334.916
334.892
334.871
334.87
334.884
334.897
334.95
334.989
334.983
334.975
334.966
334.951
334.936
334.913
334.896
334.335
334.955
334.916
334.872
334.839
334.821
334.824
334.846
334.858
334.921
334.958
334.943
334.933
334.921
334.921
334.927
334.958
334.967
335.07
334.995
334.992
334.988
334.984
334.978
334.978
)
;

boundaryField
{
    inlet
    {
        type            calculated;
        value           nonuniform 0();
    }
    outlet
    {
        type            calculated;
        value           uniform 335;
    }
    wall
    {
        type            calculated;
        value           nonuniform List<scalar> 
57
(
334.989
334.993
334.992
334.988
334.99
334.988
334.987
334.985
334.98
334.985
334.98
334.969
334.982
334.972
334.95
334.977
334.962
334.923
334.967
334.94
334.888
334.957
334.924
334.862
340.185
334.385
334.831
334.989
334.992
334.989
334.995
334.988
334.988
334.983
334.992
334.987
334.982
334.975
334.988
334.985
334.974
334.966
334.982
334.963
334.951
334.977
334.951
334.936
334.967
334.931
334.913
334.957
334.919
334.896
340.185
334.218
334.335
)
;
    }
    procBoundary1to0
    {
        type            processor;
        value           nonuniform List<scalar> 
12
(
334.989
334.996
334.996
334.996
334.989
334.982
334.994
334.98
334.973
334.997
334.99
334.987
)
;
    }
    procBoundary1to3
    {
        type            processor;
        value           nonuniform List<scalar> 
27
(
334.994
334.989
334.982
334.972
334.957
334.938
334.911
334.886
336.472
334.966
334.941
334.909
334.88
334.854
334.848
334.848
334.86
334.9
334.948
334.925
334.904
334.89
334.888
334.892
334.915
334.932
335.019
)
;
    }
    procBoundary1to5
    {
        type            processor;
        value           nonuniform List<scalar> 
32
(
334.983
334.976
334.965
334.951
334.931
334.428
334.972
334.957
334.95
334.935
334.941
334.93
335.007
334.968
334.958
334.949
334.947
334.95
334.965
334.978
335.108
334.995
334.992
334.983
334.972
334.988
334.983
334.972
334.968
334.976
334.968
334.979
)
;
    }
    procBoundary1to7
    {
        type            processor;
        value           uniform 334.973;
    }
}


// ************************************************************************* //
