/*--------------------------------*- C++ -*----------------------------------*\
| =========                 |                                                 |
| \\      /  F ield         | OpenFOAM: The Open Source CFD Toolbox           |
|  \\    /   O peration     | Version:  4.x                                   |
|   \\  /    A nd           | Web:      www.OpenFOAM.org                      |
|    \\/     M anipulation  |                                                 |
\*---------------------------------------------------------------------------*/
FoamFile
{
    version     2.0;
    format      ascii;
    class       volScalarField;
    location    "21.5";
    object      p_rgh;
}
// * * * * * * * * * * * * * * * * * * * * * * * * * * * * * * * * * * * * * //

dimensions      [1 -1 -2 0 0 0 0];

internalField   nonuniform List<scalar> 
87
(
21.4895
71.9024
2.61628
65.6115
-17.4708
60.9489
-39.4574
59.9373
-155.081
21.237
71.7302
2.25958
65.2084
-17.8399
60.4973
-39.9387
59.4721
-58.7569
21.6692
72.2657
3.26359
65.9631
-15.2484
61.0983
-32.4981
56.8594
-46.4754
21.2509
72.1345
2.40745
65.8474
-17.7353
60.9594
-39.8432
58.9398
-59.2847
21.1103
72.1855
2.36453
65.7497
-17.6408
60.4077
-39.0888
57.5717
-61.6016
21.7506
73.1073
3.63894
66.8388
-14.7402
60.7935
-33.4973
55.1
-50.6747
22.2545
72.4443
3.9392
65.7702
-15.2677
59.9516
-35.1272
55.6457
-52.7085
22.2191
72.7507
4.31529
65.9937
-14.1525
59.4748
-32.9608
53.947
-49.5704
23.2871
72.4289
5.85557
65.8593
-11.6581
59.6914
-28.9891
52.2468
-44.9724
22.1047
72.3551
3.47385
22.1985
72.2672
23.2289
)
;

boundaryField
{
    inlet
    {
        type            fixedFluxPressure;
        gradient        nonuniform 0();
        value           nonuniform 0();
    }
    outlet
    {
        type            fixedValue;
        value           uniform 0;
    }
    wall
    {
        type            fixedFluxPressure;
        gradient        nonuniform List<scalar> 
57
(
-0.000197423
-7.76292e-05
1.26949e-05
-0.000450454
-9.08822e-05
-1.97503e-06
-6.59718e-05
-1.86876e-05
1.99132e-05
3.09121e-06
9.42756e-07
5.00745e-06
-3.31073e-06
-9.34736e-05
-0.000135023
2.88879e-05
2.79482e-06
-0.00017692
9.80507e-05
9.7777e-05
-0.00039
0.000372557
9.97544e-05
0.000190892
0.00175066
0.000750185
0.00106487
-8.67337e-05
-0.000102998
-3.47885e-05
-2.21575e-05
-0.00552864
-5.28778e-05
-3.11808e-05
-2.61522e-06
-4.71285e-05
-7.40722e-05
-4.98085e-05
-2.23597e-05
-1.49156e-05
-1.19995e-05
-1.52709e-05
-2.66063e-05
-1.90072e-05
-4.16943e-05
-3.45262e-05
-1.7475e-05
-1.27759e-05
2.84189e-05
6.14373e-06
-7.57027e-05
-3.79398e-05
4.12371e-05
-2.15112e-05
0.000557971
0.000225887
-9.7777e-05
)
;
        value           nonuniform List<scalar> 
57
(
21.4895
21.237
21.6692
71.9024
71.7302
72.2657
2.61628
2.25958
3.26359
65.6115
65.2084
65.9631
-17.4708
-17.8399
-15.2484
60.9489
60.4973
61.0983
-39.4574
-39.9387
-32.4981
59.9373
59.4721
56.8594
-155.081
-58.7569
-46.4754
21.4895
21.2509
22.2545
22.1047
71.9023
72.1345
72.4443
72.3551
2.61628
2.40745
3.9392
3.47385
65.6115
65.8474
65.7702
-17.4708
-17.7353
-15.2677
60.9489
60.9594
59.9516
-39.4574
-39.8432
-35.1272
59.9373
58.9398
55.6457
-155.081
-59.2847
-52.7085
)
;
    }
    procBoundary1to0
    {
        type            processor;
        value           nonuniform List<scalar> 
12
(
78.9598
78.8442
79.223
79.1277
79.2625
79.8877
79.5367
79.7684
80.0038
79.4901
79.7106
79.9216
)
;
    }
    procBoundary1to3
    {
        type            processor;
        value           nonuniform List<scalar> 
27
(
21.2117
71.6611
2.47859
65.0506
-16.5676
60.2372
-36.2091
57.8643
-86.6452
21.4595
72.6776
3.40652
66.1491
-15.028
60.0259
-33.6387
54.7203
-51.4658
22.9852
72.5007
5.13639
65.5721
-12.698
59.2996
-30.4043
52.9272
-47.1907
)
;
    }
    procBoundary1to5
    {
        type            processor;
        value           nonuniform List<scalar> 
32
(
65.7336
-16.0726
60.1167
-36.6368
56.5699
-58.5967
3.46832
65.2706
-15.3013
58.9597
-33.9742
53.8131
-50.5397
72.6399
5.31427
65.728
-12.5493
59.2788
-29.8513
53.1673
-45.7753
22.7523
72.5609
65.7336
3.46832
4.68077
23.0252
3.46832
72.6399
72.5164
72.6399
24.0397
)
;
    }
    procBoundary1to7
    {
        type            processor;
        value           uniform 24.0005;
    }
}


// ************************************************************************* //
