/*--------------------------------*- C++ -*----------------------------------*\
| =========                 |                                                 |
| \\      /  F ield         | OpenFOAM: The Open Source CFD Toolbox           |
|  \\    /   O peration     | Version:  4.x                                   |
|   \\  /    A nd           | Web:      www.OpenFOAM.org                      |
|    \\/     M anipulation  |                                                 |
\*---------------------------------------------------------------------------*/
FoamFile
{
    version     2.0;
    format      ascii;
    class       volVectorField;
    location    "21.5";
    object      Us;
}
// * * * * * * * * * * * * * * * * * * * * * * * * * * * * * * * * * * * * * //

dimensions      [0 1 -1 0 0 0 0];

internalField   nonuniform List<vector> 
87
(
(1.02718e-09 1.17796e-08 2.68126e-08)
(-1.50649e-07 1.05891e-06 8.6276e-08)
(-1.40244e-08 6.4786e-09 9.06893e-09)
(-6.20778e-09 2.96962e-09 -6.15445e-10)
(5.82003e-10 3.60941e-09 4.49134e-10)
(1.11732e-08 7.4935e-09 -6.26979e-09)
(4.07142e-08 -3.40651e-09 -1.17531e-08)
(1.39242e-06 9.44037e-09 -9.27014e-08)
(7.14587e-07 -4.22337e-08 -1.3251e-07)
(-1.17075e-08 4.15967e-09 9.27762e-09)
(-7.589e-09 1.0302e-09 1.64916e-08)
(-6.06056e-09 5.35049e-09 2.28219e-09)
(7.12338e-09 8.91693e-10 -1.77899e-10)
(2.06882e-08 -1.1236e-08 1.11689e-08)
(3.49345e-08 9.45438e-09 -5.74556e-10)
(5.02277e-08 -5.64179e-09 -1.00574e-08)
(5.47311e-08 -3.24128e-08 -2.37955e-08)
(-2.30133e-09 -6.96554e-08 -6.34254e-08)
(-2.85174e-09 4.04926e-09 -1.23554e-09)
(2.93377e-10 6.64196e-10 3.17491e-10)
(9.52873e-09 6.48182e-09 -1.80773e-09)
(1.99412e-08 8.52879e-10 -7.91274e-10)
(2.7077e-08 -3.84465e-09 1.00617e-08)
(4.37383e-08 3.0265e-10 2.64484e-08)
(5.19088e-08 -8.8494e-09 1.81096e-08)
(4.69838e-08 -2.5378e-08 -2.29836e-08)
(3.37975e-08 -7.82088e-09 -2.57682e-08)
(-1.35347e-08 9.28862e-09 1.59368e-08)
(-3.78505e-09 8.58491e-09 2.91616e-08)
(-8.3535e-10 6.68662e-09 8.22169e-09)
(-1.62447e-09 2.01638e-09 -4.81292e-10)
(4.95664e-09 1.62471e-09 8.53485e-10)
(6.81945e-09 3.21882e-09 -5.73982e-09)
(1.95546e-08 -4.35331e-10 -9.16021e-09)
(2.68567e-08 -9.12343e-09 -2.13365e-08)
(7.56024e-09 -1.7204e-08 -4.28085e-08)
(-1.41261e-08 8.71706e-09 9.24356e-09)
(-1.06211e-08 5.31351e-09 1.24148e-08)
(2.44805e-09 9.70257e-09 3.10996e-09)
(2.9697e-09 3.95928e-09 -5.97551e-10)
(1.80011e-08 -2.88651e-09 4.59121e-09)
(2.10963e-08 5.56458e-10 -1.12812e-09)
(3.05005e-08 -3.78554e-09 -6.01452e-09)
(3.56618e-08 -1.19739e-08 -1.40858e-08)
(2.99646e-08 -2.17148e-08 -4.89774e-08)
(-6.69021e-09 7.69459e-09 -2.82222e-09)
(-2.70198e-09 7.67829e-09 -1.26672e-09)
(5.25687e-09 9.51576e-09 -4.26605e-09)
(8.39189e-09 3.14286e-09 -9.4221e-10)
(1.89732e-08 -5.57137e-09 8.79432e-09)
(2.65726e-08 -6.87663e-09 1.08925e-08)
(3.52234e-08 -3.75717e-09 3.25097e-09)
(4.03446e-08 -1.1648e-08 -1.42519e-09)
(6.43144e-09 -1.20064e-08 -2.77789e-08)
(-6.06369e-09 2.37634e-09 7.43483e-10)
(-5.24781e-09 4.50427e-09 2.33878e-09)
(-3.32815e-09 3.01477e-09 1.88598e-09)
(-2.74381e-09 2.19893e-09 -5.74928e-10)
(-4.96644e-09 2.19978e-09 -5.03611e-10)
(-6.84028e-09 1.94134e-09 -2.90181e-09)
(-5.14568e-09 3.46164e-09 -3.80472e-09)
(-1.00644e-08 3.80331e-09 -6.38892e-09)
(-4.49088e-09 3.21224e-09 -1.81477e-08)
(-1.109e-08 5.95219e-09 6.998e-10)
(-7.69133e-09 6.21841e-09 4.58466e-10)
(-5.34474e-09 5.03244e-09 8.98881e-10)
(-5.17456e-09 4.44618e-09 -8.92009e-10)
(-5.73608e-09 3.86759e-09 -3.07661e-10)
(-4.43783e-09 4.72724e-09 -6.06724e-09)
(8.88243e-10 3.26842e-09 -6.55924e-09)
(2.142e-09 -5.63304e-11 -8.01614e-09)
(-9.30709e-09 8.1536e-09 -1.13036e-08)
(-1.06851e-08 7.63981e-09 -2.31745e-09)
(-8.55465e-09 6.65483e-09 -1.15083e-09)
(-6.24279e-09 7.31551e-09 -1.97514e-09)
(-6.5634e-09 5.6334e-09 -1.02967e-09)
(-2.91915e-09 5.28449e-09 8.94776e-10)
(4.21374e-09 -3.75102e-10 4.58863e-09)
(1.0099e-08 -1.93162e-09 -4.34742e-09)
(1.30142e-09 -1.83568e-09 1.39038e-10)
(-6.38513e-09 4.59642e-09 -1.08835e-08)
(-3.93668e-09 1.66033e-09 9.35576e-12)
(-5.67273e-09 3.96756e-10 1.82841e-09)
(-4.31437e-09 1.60598e-09 1.39832e-09)
(-8.6857e-09 2.84075e-09 -6.09447e-10)
(-9.50247e-09 4.4272e-09 -2.7797e-11)
(-1.345e-08 3.65637e-09 -2.66439e-10)
)
;

boundaryField
{
    inlet
    {
        type            zeroGradient;
    }
    outlet
    {
        type            zeroGradient;
    }
    wall
    {
        type            zeroGradient;
    }
    procBoundary1to0
    {
        type            processor;
        value           nonuniform List<vector> 
12
(
(-1.17177e-08 6.29845e-09 1.45233e-09)
(-1.36169e-08 4.3762e-09 6.37987e-09)
(-1.56082e-08 4.42223e-09 5.6368e-09)
(-8.87118e-09 -5.02547e-10 4.08677e-09)
(-1.32008e-08 6.8978e-09 5.75967e-09)
(-1.37541e-08 6.23422e-09 3.18977e-09)
(-7.09718e-09 1.21174e-09 4.13006e-09)
(-1.12972e-08 7.39369e-09 4.52141e-09)
(-1.43326e-08 6.30677e-09 4.55658e-09)
(-5.23546e-09 1.00866e-09 2.52388e-09)
(-9.47003e-09 2.52665e-09 1.65146e-09)
(-1.38867e-08 2.33781e-09 3.16588e-09)
)
;
    }
    procBoundary1to3
    {
        type            processor;
        value           nonuniform List<vector> 
27
(
(-8.75076e-09 4.52364e-09 -1.95045e-10)
(-1.73243e-10 2.95184e-09 -4.95929e-09)
(1.00055e-08 5.61211e-09 -7.63565e-09)
(1.44445e-08 6.89211e-10 -5.52097e-09)
(3.218e-08 -8.19151e-09 4.94533e-09)
(5.02784e-08 -1.30675e-08 2.17434e-08)
(7.16155e-08 -1.10271e-08 1.18396e-08)
(3.5275e-07 6.7225e-08 -2.71164e-08)
(5.27804e-08 -5.99954e-09 -4.51163e-08)
(-4.90358e-09 4.17528e-09 -3.1919e-09)
(-2.15467e-09 3.71475e-09 -5.84476e-09)
(3.35273e-09 5.63759e-09 -6.8692e-09)
(5.38056e-09 -3.2695e-11 -3.6209e-09)
(1.92892e-08 -5.50933e-09 4.61745e-09)
(3.33981e-08 -9.72904e-09 1.50628e-08)
(3.40664e-08 -7.51593e-09 1.03453e-08)
(5.56277e-08 -7.7137e-09 -1.79719e-08)
(6.27189e-10 -3.68555e-09 -3.85354e-08)
(-8.75622e-09 4.71211e-09 -3.64682e-09)
(-6.48599e-09 4.46764e-09 -5.27559e-09)
(-4.93431e-09 5.13315e-09 -4.56877e-09)
(-3.55308e-09 2.99298e-09 -2.05993e-09)
(1.6812e-09 -2.6731e-09 4.68831e-09)
(-1.03029e-08 -4.84685e-09 7.48949e-09)
(8.32558e-09 -5.38398e-09 8.1589e-09)
(6.64619e-09 -3.93517e-09 1.74972e-10)
(1.94654e-11 4.48811e-09 -3.62592e-09)
)
;
    }
    procBoundary1to5
    {
        type            processor;
        value           nonuniform List<vector> 
32
(
(-5.78285e-09 2.27986e-09 9.55233e-10)
(-7.07449e-09 1.49411e-09 1.40375e-09)
(-9.93632e-09 2.81499e-09 8.1965e-10)
(-8.07444e-09 1.97532e-09 -1.53132e-09)
(-8.69982e-09 2.19907e-09 -1.69584e-09)
(-1.23151e-07 3.04624e-08 -4.41998e-10)
(-9.15472e-09 4.16672e-09 1.10775e-09)
(-8.5207e-09 4.45256e-09 7.03042e-10)
(-9.7706e-09 3.76619e-09 1.82266e-09)
(-1.16352e-08 3.11482e-09 -5.65226e-10)
(-1.09166e-08 2.57111e-09 -2.72535e-09)
(-9.92905e-09 2.77675e-09 -2.48022e-09)
(-1.23161e-08 1.94665e-08 -5.51485e-09)
(-1.32222e-08 4.67929e-09 -1.11424e-09)
(-1.06972e-08 4.61146e-09 6.81158e-11)
(-9.60399e-09 4.60684e-09 -1.04666e-10)
(-9.43644e-09 3.84568e-09 7.55156e-10)
(-9.21706e-09 2.0386e-09 1.24394e-09)
(-7.49235e-09 -6.15823e-11 1.94906e-09)
(-5.79866e-09 7.11966e-10 -1.43333e-09)
(-2.49342e-09 6.48998e-09 -4.02052e-09)
(-2.24583e-09 9.48359e-10 1.36042e-09)
(-3.21531e-09 7.8449e-10 1.33436e-09)
(-5.78285e-09 2.27986e-09 9.55233e-10)
(-9.15472e-09 4.16672e-09 1.10775e-09)
(-3.34267e-09 1.41435e-09 1.23571e-09)
(-6.1896e-09 6.7092e-10 2.56409e-10)
(-9.15472e-09 4.16672e-09 1.10775e-09)
(-1.32222e-08 4.67929e-09 -1.11424e-09)
(-8.37682e-09 -9.27348e-10 1.48338e-09)
(-1.32222e-08 4.67929e-09 -1.11424e-09)
(-9.19781e-09 2.3753e-09 1.40695e-11)
)
;
    }
    procBoundary1to7
    {
        type            processor;
        value           uniform (-1.13819e-08 4.4345e-09 -1.85537e-09);
    }
}


// ************************************************************************* //
