/*--------------------------------*- C++ -*----------------------------------*\
| =========                 |                                                 |
| \\      /  F ield         | OpenFOAM: The Open Source CFD Toolbox           |
|  \\    /   O peration     | Version:  4.x                                   |
|   \\  /    A nd           | Web:      www.OpenFOAM.org                      |
|    \\/     M anipulation  |                                                 |
\*---------------------------------------------------------------------------*/
FoamFile
{
    version     2.0;
    format      ascii;
    class       volScalarField;
    location    "8";
    object      QPartFluidCoeff;
}
// * * * * * * * * * * * * * * * * * * * * * * * * * * * * * * * * * * * * * //

dimensions      [1 -1 -3 -1 0 0 0];

internalField   nonuniform List<scalar> 
108
(
-2.3987e+07
-1.16678e+07
-1.93949e+07
-9.91844e+06
-1.41181e+07
-1.19446e+07
-1.72633e+07
-1.48525e+07
-1.26922e+07
-1.8267e+07
-2.96187e+07
-1.51972e+07
-1.75278e+07
-1.88243e+07
-1.63993e+07
-1.98147e+07
-1.84614e+07
-1.4573e+07
-2.08963e+07
-2.04599e+07
-2.13791e+07
-1.53402e+07
-1.90166e+07
-1.67113e+07
-2.01482e+07
-2.12802e+07
-1.15294e+07
-1.43899e+07
-1.28175e+07
-1.57381e+07
-2.12397e+07
-1.51027e+07
-1.82917e+07
-1.11801e+07
-1.6417e+07
-1.70292e+07
-2.72438e+07
-2.60686e+07
-3.28194e+07
-3.41748e+07
-2.81461e+07
-2.57399e+07
-2.27624e+07
-2.70004e+07
-2.69754e+07
-2.4523e+07
-2.69136e+07
-2.75046e+07
-2.95556e+07
-2.55553e+07
-2.68896e+07
-3.26016e+07
-3.04859e+07
-2.19212e+07
-4.14912e+07
-3.2538e+07
-2.92241e+07
-3.68371e+07
-2.74231e+07
-3.20127e+07
-2.70201e+07
-3.20149e+07
-2.58691e+07
-2.82975e+07
-2.38466e+07
-2.3392e+07
-2.65271e+07
-3.06261e+07
-2.49884e+07
-2.47122e+07
-2.84138e+07
-2.02526e+07
-2.80933e+07
-3.62573e+07
-3.18292e+07
-3.45205e+07
-2.24697e+07
-2.60542e+07
-3.06496e+07
-2.6379e+07
-2.30737e+07
-3.31219e+07
-2.12454e+07
-2.87963e+07
-1.73464e+07
-1.61834e+07
-3.2812e+07
-2.73439e+07
-3.79719e+07
-1.88031e+07
-2.29741e+07
-3.55782e+07
-3.21133e+07
-2.49734e+07
-2.60948e+07
-3.48075e+07
-2.84027e+07
-3.34131e+07
-1.8103e+07
-2.09525e+07
-1.61079e+07
-2.05301e+07
-2.45174e+07
-2.30534e+07
-3.01262e+07
-2.32394e+07
-3.39765e+07
-2.86001e+07
)
;

boundaryField
{
    inlet
    {
        type            calculated;
        value           nonuniform 0();
    }
    outlet
    {
        type            calculated;
        value           uniform 0;
    }
    wall
    {
        type            calculated;
        value           uniform 0;
    }
    procBoundary3to1
    {
        type            processor;
        value           nonuniform List<scalar> 
27
(
270.452
483.647
388.174
637.094
409.795
390.885
356.076
400.183
286.402
672.411
617.739
518.751
493.109
426.54
665.001
655.925
932.975
290.357
633.005
591.792
414.901
839.066
662.859
796.632
543.21
706.258
231.181
)
;
    }
    procBoundary3to2
    {
        type            processor;
        value           nonuniform List<scalar> 
12
(
213.643
322.86
281.906
300.135
834.631
475.059
606.176
365.168
690.542
436.86
779.749
749.252
)
;
    }
    procBoundary3to7
    {
        type            processor;
        value           nonuniform List<scalar> 
36
(
804.004
706.12
516.769
607.437
861.082
926.482
613.606
463.685
449.979
609.712
887.201
599.834
626.029
696.509
548.521
624.223
603.969
531.296
469.439
713.597
548.06
696.652
657.519
820.289
701.262
715.425
628.689
428.018
628.829
727.589
474.231
643.319
660.396
671.606
602.414
340.166
)
;
    }
}


// ************************************************************************* //
