/*--------------------------------*- C++ -*----------------------------------*\
| =========                 |                                                 |
| \\      /  F ield         | OpenFOAM: The Open Source CFD Toolbox           |
|  \\    /   O peration     | Version:  4.x                                   |
|   \\  /    A nd           | Web:      www.OpenFOAM.org                      |
|    \\/     M anipulation  |                                                 |
\*---------------------------------------------------------------------------*/
FoamFile
{
    version     2.0;
    format      ascii;
    class       volScalarField;
    location    "8";
    object      Sm;
}
// * * * * * * * * * * * * * * * * * * * * * * * * * * * * * * * * * * * * * //

dimensions      [1 -3 -1 0 0 0 0];

internalField   nonuniform List<scalar> 
108
(
6.97356e-65
3.25438e-65
5.81135e-65
2.55706e-65
4.10664e-65
3.02188e-65
4.72625e-65
3.87394e-65
4.57106e-65
5.03657e-65
7.90361e-65
4.10677e-65
4.64917e-65
5.42396e-65
3.87423e-65
5.50116e-65
4.95874e-65
5.42342e-65
5.50171e-65
5.19183e-65
6.19908e-65
3.71952e-65
5.11428e-65
3.7969e-65
5.73387e-65
5.26892e-65
4.029e-65
4.6496e-65
3.5647e-65
4.10714e-65
5.88947e-65
4.26207e-65
4.88203e-65
3.17716e-65
5.34682e-65
4.41693e-65
7.51577e-65
6.27601e-65
8.98798e-65
8.52307e-65
7.59309e-65
6.27581e-65
6.04302e-65
6.43009e-65
9.0639e-65
6.50861e-65
6.35366e-65
7.51592e-65
7.28342e-65
6.81845e-65
6.2758e-65
8.59996e-65
7.05023e-65
6.97239e-65
1.03833e-64
7.51624e-65
7.43872e-65
8.44603e-65
6.81876e-65
7.20597e-65
6.74083e-65
7.20551e-65
7.90258e-65
7.74897e-65
5.65684e-65
6.35425e-65
6.19923e-65
8.2138e-65
5.65667e-65
6.89621e-65
6.81876e-65
5.65633e-65
7.67054e-65
8.98776e-65
8.83281e-65
8.52288e-65
6.1208e-65
6.27552e-65
8.52199e-65
6.81715e-65
7.74653e-65
8.98784e-65
5.11377e-65
7.74817e-65
4.33894e-65
4.64875e-65
7.90271e-65
7.28263e-65
8.83171e-65
6.12e-65
5.65642e-65
8.29092e-65
8.21336e-65
5.81127e-65
6.81842e-65
7.98054e-65
6.66325e-65
7.2052e-65
5.42323e-65
5.73413e-65
3.87445e-65
5.42424e-65
6.1216e-65
5.57907e-65
7.12877e-65
6.19875e-65
7.90328e-65
8.52278e-65
)
;

boundaryField
{
    inlet
    {
        type            calculated;
        value           nonuniform 0();
    }
    outlet
    {
        type            calculated;
        value           uniform 0;
    }
    wall
    {
        type            calculated;
        value           uniform 0;
    }
    procBoundary3to1
    {
        type            processor;
        value           nonuniform List<scalar> 
27
(
3.48686e-65
5.50156e-65
5.50149e-65
7.43862e-65
5.50135e-65
4.33913e-65
4.95867e-65
4.57117e-65
4.49354e-65
8.1357e-65
6.58616e-65
6.19873e-65
5.26888e-65
5.26875e-65
7.36045e-65
8.05755e-65
1.03038e-64
4.88044e-65
7.90308e-65
6.35352e-65
5.11383e-65
9.06536e-65
8.29032e-65
8.75484e-65
6.81754e-65
7.90182e-65
3.48588e-65
)
;
    }
    procBoundary3to2
    {
        type            processor;
        value           nonuniform List<scalar> 
12
(
2.63449e-65
3.95187e-65
3.09955e-65
3.09976e-65
9.37536e-65
5.19146e-65
6.27642e-65
4.262e-65
7.98047e-65
4.88133e-65
8.36832e-65
8.91115e-65
)
;
    }
    procBoundary3to7
    {
        type            processor;
        value           nonuniform List<scalar> 
36
(
9.91739e-65
7.82549e-65
6.43088e-65
6.74075e-65
1.03046e-64
1.03816e-64
7.9795e-65
5.65506e-65
8.36606e-65
7.6706e-65
9.4527e-65
7.28322e-65
6.7408e-65
8.44521e-65
5.6558e-65
7.51495e-65
6.35256e-65
8.05657e-65
5.50135e-65
7.36102e-65
6.19876e-65
7.12848e-65
7.43831e-65
8.05802e-65
7.51539e-65
7.20518e-65
8.59942e-65
5.11416e-65
7.2839e-65
8.7561e-65
5.50159e-65
7.20626e-65
6.81871e-65
7.90326e-65
5.88869e-65
4.33896e-65
)
;
    }
}


// ************************************************************************* //
