/*--------------------------------*- C++ -*----------------------------------*\
| =========                 |                                                 |
| \\      /  F ield         | OpenFOAM: The Open Source CFD Toolbox           |
|  \\    /   O peration     | Version:  4.x                                   |
|   \\  /    A nd           | Web:      www.OpenFOAM.org                      |
|    \\/     M anipulation  |                                                 |
\*---------------------------------------------------------------------------*/
FoamFile
{
    version     2.0;
    format      ascii;
    class       volVectorField;
    location    "8";
    object      Us;
}
// * * * * * * * * * * * * * * * * * * * * * * * * * * * * * * * * * * * * * //

dimensions      [0 1 -1 0 0 0 0];

internalField   nonuniform List<vector> 
108
(
(-4.14825e-07 -5.15039e-08 4.38496e-08)
(-4.73468e-07 -2.1515e-08 4.63708e-08)
(-5.34694e-07 -1.29048e-08 2.64828e-08)
(-5.5483e-07 -1.35498e-08 1.88363e-08)
(-5.01541e-07 -9.2118e-09 1.32758e-08)
(-3.60932e-07 1.58266e-09 4.56546e-09)
(-2.48238e-07 6.12433e-10 9.87787e-08)
(-4.51327e-07 -2.68637e-07 1.83972e-07)
(2.97553e-06 -7.61534e-08 1.22067e-07)
(-3.91242e-07 -6.59379e-08 3.22769e-08)
(-4.39796e-07 -6.42915e-08 2.94892e-08)
(-4.64251e-07 -5.06906e-08 3.08806e-08)
(-5.29192e-07 -4.23733e-08 3.81136e-08)
(-4.3889e-07 -2.062e-08 1.03818e-08)
(-3.78171e-07 4.51068e-09 -2.68842e-08)
(-2.69278e-07 4.76386e-09 6.55841e-08)
(-1.12042e-07 -1.24156e-07 2.28012e-07)
(5.25149e-06 2.00605e-07 3.5191e-07)
(-3.35169e-07 -2.79485e-07 4.99584e-08)
(-3.20762e-07 -7.08548e-08 4.63984e-08)
(-4.09087e-07 -6.88422e-08 3.65939e-08)
(-4.2446e-07 -5.82672e-08 4.07625e-08)
(-4.02014e-07 -8.32147e-09 3.60189e-08)
(-3.2615e-07 -6.81243e-09 -4.61665e-08)
(-2.83447e-07 6.04009e-09 -1.24599e-08)
(-1.26148e-07 -6.72766e-08 9.01851e-08)
(1.96567e-08 -2.02292e-07 1.27261e-07)
(-1.66934e-07 -5.0875e-08 4.42853e-08)
(-2.20459e-07 -8.62555e-08 3.88802e-08)
(-2.01485e-07 -2.04281e-07 3.99421e-08)
(-2.69075e-07 -3.70209e-08 1.02848e-08)
(-3.05317e-07 -5.34343e-08 1.3325e-08)
(-2.33837e-07 -1.23643e-08 -2.16671e-08)
(-2.55291e-07 -9.76246e-08 -7.15915e-08)
(-1.92963e-07 -5.88566e-08 6.3034e-08)
(-1.94663e-08 -1.20206e-05 5.73337e-07)
(-4.50132e-07 -4.63703e-08 5.819e-08)
(-4.73927e-07 -3.87038e-08 4.90525e-08)
(-5.05834e-07 -2.64572e-08 3.16747e-08)
(-5.38164e-07 -1.84186e-08 1.92649e-08)
(-4.36932e-07 -8.33528e-09 4.62071e-09)
(-3.35429e-07 -2.55605e-09 -8.88637e-09)
(-2.13436e-07 -7.21762e-09 2.68132e-08)
(-1.17539e-07 -5.08048e-08 1.09474e-07)
(7.17634e-07 -1.12604e-09 7.1457e-08)
(-4.09625e-07 -5.4638e-08 5.04186e-08)
(-4.4719e-07 -4.6553e-08 3.62567e-08)
(-4.75167e-07 -4.42003e-08 3.28349e-08)
(-4.79869e-07 -2.39036e-08 4.29382e-08)
(-4.02163e-07 -4.38444e-08 1.59335e-08)
(-3.01087e-07 -6.76131e-09 -1.54709e-08)
(-1.93681e-07 2.02082e-08 2.26899e-08)
(-1.05639e-07 6.25967e-09 1.1921e-07)
(1.2231e-09 1.78062e-08 1.70856e-07)
(-3.36857e-07 -6.65236e-08 2.74518e-08)
(-3.64869e-07 -4.38205e-08 4.52217e-08)
(-3.93035e-07 -4.205e-08 3.33697e-08)
(-3.73928e-07 -3.94767e-08 3.46051e-08)
(-3.08337e-07 -2.42484e-08 -7.21238e-10)
(-2.43089e-07 -7.16322e-09 -1.17885e-08)
(-1.92919e-07 2.073e-08 1.09449e-08)
(-1.0273e-07 1.36912e-08 1.02533e-07)
(-1.17715e-08 1.52401e-08 1.15855e-07)
(-2.33858e-07 -3.22683e-08 -3.09205e-10)
(-2.34247e-07 -2.18118e-08 2.86721e-08)
(-2.0525e-07 -2.60145e-08 1.78883e-08)
(-2.34048e-07 -3.33826e-08 9.62679e-09)
(-1.7694e-07 -3.34216e-08 -1.66886e-08)
(-1.54176e-07 -1.01833e-08 -2.08055e-08)
(-1.09102e-07 -2.00484e-08 2.61475e-08)
(-7.62529e-08 -7.50628e-09 8.78322e-08)
(-1.7825e-08 2.16929e-10 3.24512e-07)
(-4.50483e-07 -1.99259e-08 5.61869e-08)
(-4.6593e-07 -1.96293e-08 5.01863e-08)
(-4.78467e-07 -9.89245e-09 3.89224e-08)
(-4.89933e-07 -1.64862e-08 1.76503e-08)
(-3.90739e-07 -1.27395e-08 -1.12634e-08)
(-2.45214e-07 -1.17733e-08 -1.33317e-09)
(-1.84725e-07 -6.79857e-09 1.38484e-08)
(-1.06656e-07 7.89968e-09 3.7804e-08)
(-5.46388e-08 -4.65578e-09 5.47624e-08)
(-4.33189e-07 -2.42087e-08 5.01744e-08)
(-4.4473e-07 -2.89363e-08 4.62619e-08)
(-4.75295e-07 -3.16178e-08 3.15031e-08)
(-4.27432e-07 -9.54745e-09 3.90181e-08)
(-3.30612e-07 -1.76126e-08 9.21378e-09)
(-2.49905e-07 -3.74815e-08 -1.19183e-08)
(-1.64389e-07 -1.62764e-08 5.37606e-09)
(-1.053e-07 -2.88269e-09 3.13733e-08)
(-4.16501e-08 -6.50704e-10 6.66194e-08)
(-3.83804e-07 -6.77924e-09 4.09479e-08)
(-3.88564e-07 -2.31677e-08 3.96756e-08)
(-4.28959e-07 -3.75956e-08 2.10236e-08)
(-3.77044e-07 -3.04255e-08 3.7463e-08)
(-2.74993e-07 -2.40219e-08 -5.74112e-09)
(-2.07828e-07 -4.17953e-08 -1.79522e-08)
(-1.53671e-07 -2.18282e-08 -6.76935e-11)
(-9.28186e-08 -4.82479e-09 5.8102e-08)
(-3.49469e-08 1.8834e-08 8.81417e-08)
(-2.61971e-07 2.78949e-08 1.32688e-08)
(-2.3142e-07 -9.34638e-09 -9.83843e-10)
(-2.44668e-07 -3.70583e-08 7.22229e-09)
(-2.18817e-07 -4.29275e-08 2.81809e-09)
(-1.91478e-07 -1.81731e-08 -3.34223e-09)
(-1.23336e-07 -2.52837e-08 -1.95865e-08)
(-6.4957e-08 -3.37079e-09 6.9744e-09)
(-4.36051e-08 3.23294e-09 6.46627e-08)
(-2.19374e-08 3.6043e-08 1.12657e-07)
)
;

boundaryField
{
    inlet
    {
        type            zeroGradient;
    }
    outlet
    {
        type            zeroGradient;
    }
    wall
    {
        type            zeroGradient;
    }
    procBoundary3to1
    {
        type            processor;
        value           nonuniform List<vector> 
27
(
(-4.13896e-07 -1.45673e-08 5.39991e-08)
(-4.68111e-07 -1.69129e-09 3.4829e-08)
(-6.23403e-07 6.19511e-08 1.6337e-08)
(-5.90935e-07 3.29559e-08 -1.27984e-08)
(-4.83716e-07 -1.77684e-08 -1.7287e-08)
(-3.26565e-07 -2.97056e-09 2.39563e-08)
(-2.02841e-07 -4.46918e-09 9.2807e-08)
(-1.1607e-07 -2.23938e-08 1.2615e-07)
(-9.37485e-08 -8.09343e-08 1.11317e-07)
(-4.2104e-07 -3.11689e-09 7.14252e-08)
(-4.38469e-07 8.26299e-09 5.25415e-08)
(-4.99637e-07 -8.27825e-09 2.83176e-08)
(-5.21109e-07 1.13278e-08 -1.60211e-08)
(-4.24209e-07 4.49432e-09 -1.97871e-08)
(-3.09421e-07 1.11044e-08 -7.32449e-09)
(-1.87183e-07 -1.29585e-08 5.70489e-08)
(-1.32325e-07 -1.67876e-09 6.50178e-08)
(-6.11333e-08 2.54361e-08 1.32929e-07)
(-4.25915e-07 -3.89265e-09 6.84957e-08)
(-4.39989e-07 -9.00569e-09 4.67106e-08)
(-4.43065e-07 1.51888e-08 3.79906e-08)
(-4.50892e-07 3.3342e-09 1.12054e-08)
(-3.69393e-07 1.04918e-08 -1.73703e-08)
(-2.59302e-07 2.46475e-08 1.8703e-09)
(-1.45357e-07 -8.05643e-09 3.34101e-08)
(-1.08429e-07 1.30561e-08 3.46532e-08)
(-6.51796e-08 2.41329e-08 3.13972e-08)
)
;
    }
    procBoundary3to2
    {
        type            processor;
        value           nonuniform List<vector> 
12
(
(-3.6522e-07 -4.48372e-08 5.12559e-08)
(-3.36981e-07 -6.39742e-08 6.20871e-08)
(-3.12608e-07 -5.8797e-08 3.85088e-08)
(-1.85683e-07 2.79386e-08 5.17527e-09)
(-3.70155e-07 -3.22357e-08 5.68021e-08)
(-3.67294e-07 -4.47452e-08 6.38769e-08)
(-3.09106e-07 -4.32538e-08 3.86358e-08)
(-1.60164e-07 -7.49058e-09 -7.28147e-09)
(-4.0555e-07 -2.28924e-08 6.36527e-08)
(-3.78572e-07 -3.13925e-08 5.29148e-08)
(-3.37552e-07 -2.58016e-08 3.16704e-08)
(-2.14893e-07 -5.19758e-09 -1.07604e-08)
)
;
    }
    procBoundary3to7
    {
        type            processor;
        value           nonuniform List<vector> 
36
(
(-4.3453e-07 -2.01119e-08 4.55945e-08)
(-4.48557e-07 -2.14447e-08 4.12434e-08)
(-4.47291e-07 -1.59337e-08 3.38266e-08)
(-4.34574e-07 -2.57412e-08 4.85338e-09)
(-3.46122e-07 -1.8226e-10 -1.56175e-10)
(-2.14329e-07 1.11219e-08 2.6021e-08)
(-1.52838e-07 -7.53951e-09 8.02757e-09)
(-9.0472e-08 4.7549e-09 1.23201e-08)
(-2.62809e-08 1.04886e-08 9.28506e-09)
(-4.20137e-07 -6.98121e-09 4.28903e-08)
(-4.3297e-07 -1.74323e-08 4.01106e-08)
(-4.30573e-07 -2.1245e-08 2.66127e-08)
(-4.23134e-07 -2.48091e-08 1.46353e-08)
(-2.89465e-07 -1.59033e-08 -8.81599e-09)
(-2.14437e-07 -2.54789e-08 -9.89269e-09)
(-1.57865e-07 -2.17551e-08 -3.49706e-09)
(-1.06649e-07 -1.93345e-08 1.63213e-08)
(-5.2757e-08 2.93937e-09 1.94352e-08)
(-3.83363e-07 -2.24674e-08 3.30124e-08)
(-3.90414e-07 -1.08223e-08 3.67128e-08)
(-3.80442e-07 -1.40557e-08 2.30924e-08)
(-3.45402e-07 -2.40537e-08 1.3983e-08)
(-2.60791e-07 -2.24195e-08 -4.96876e-09)
(-1.86373e-07 -3.5029e-08 -1.79941e-08)
(-1.4328e-07 -2.23321e-08 -1.07061e-08)
(-1.03128e-07 -3.33734e-08 2.82105e-08)
(-7.49317e-08 -3.33522e-08 2.18564e-08)
(-3.17213e-07 1.52583e-08 4.97229e-09)
(-2.77058e-07 -1.81639e-09 -9.33612e-09)
(-2.38689e-07 -2.76568e-08 2.85155e-09)
(-2.34774e-07 -1.7956e-08 3.96663e-09)
(-1.81996e-07 -1.74157e-08 -2.26462e-09)
(-1.31393e-07 -1.23819e-08 -1.17363e-08)
(-9.02308e-08 -2.44312e-08 -3.55846e-10)
(-5.81287e-08 -1.20887e-08 2.04178e-08)
(-4.12487e-08 -1.81757e-08 5.67332e-09)
)
;
    }
}


// ************************************************************************* //
