/*--------------------------------*- C++ -*----------------------------------*\
| =========                 |                                                 |
| \\      /  F ield         | OpenFOAM: The Open Source CFD Toolbox           |
|  \\    /   O peration     | Version:  4.x                                   |
|   \\  /    A nd           | Web:      www.OpenFOAM.org                      |
|    \\/     M anipulation  |                                                 |
\*---------------------------------------------------------------------------*/
FoamFile
{
    version     2.0;
    format      ascii;
    class       volVectorField;
    location    "56.5";
    object      GField;
}
// * * * * * * * * * * * * * * * * * * * * * * * * * * * * * * * * * * * * * //

dimensions      [1 -2 -1 0 0 0 0];

internalField   nonuniform List<vector> 
114
(
(55.3784 -0.629196 -2.67779)
(111.705 -1.06433 -5.03268)
(64.0272 -0.725119 -2.40477)
(117.256 -1.14915 -3.70929)
(69.7275 -0.388652 -1.39104)
(122.741 -0.849578 -2.37381)
(99.1616 0.174221 -4.3193)
(41.7844 0.0504172 -2.44445)
(103.544 0.461628 -5.09518)
(49.6186 0.267429 -2.19972)
(106.94 0.0551317 -4.29851)
(54.4668 -0.395472 -1.77081)
(109.792 -0.587526 -3.56616)
(56.3069 -1.0753 -0.893974)
(112.221 -0.770676 -2.32403)
(99.8087 3.4412 -4.19402)
(44.5721 1.74357 -2.2515)
(105.953 3.66526 -4.31089)
(55.7043 2.08853 -1.79411)
(111.781 3.59929 -3.15351)
(63.5731 1.78194 -1.09365)
(116.695 2.98213 -2.03469)
(68.7116 1.26727 -0.269205)
(121.343 2.43095 -1.10704)
(100.227 1.54038 -3.53102)
(48.9912 0.720367 -2.04743)
(109.287 1.37629 -3.60182)
(64.2111 0.636196 -1.74764)
(118.712 1.09592 -2.76441)
(76.705 0.112611 -1.12812)
(127.212 0.431025 -1.81148)
(85.5569 -0.938697 -0.194366)
(133.195 -0.479049 -0.953713)
(27.3576 0.0330001 -1.97022)
(95.9643 -0.194338 -3.9654)
(23.8938 0.205332 -1.44893)
(98.3002 0.162034 -2.24724)
(97.4907 1.20035 -8.05371)
(34.0344 0.264692 -3.85833)
(96.4255 1.26164 -8.51148)
(28.926 0.662273 -3.13548)
(94.9052 1.60342 -6.43925)
(22.4819 0.277977 -2.40329)
(93.6118 0.730601 -3.94531)
(14.6923 -0.109972 -1.59315)
(93.6173 0.449883 -0.815573)
(97.5639 4.11902 -8.04187)
(37.0625 2.0501 -4.24216)
(97.9688 4.84138 -8.73316)
(36.6033 1.99935 -3.68688)
(98.864 4.76142 -7.05453)
(35.9018 1.66685 -3.18538)
(100.153 4.29168 -5.74834)
(34.0772 1.11265 -2.95422)
(102.492 3.29193 -4.13731)
(98.2852 2.16559 -7.33604)
(43.7749 1.02198 -4.31642)
(102.966 2.09253 -7.69295)
(51.7205 0.781709 -4.34424)
(107.864 1.57446 -6.47265)
(58.1353 0.24933 -4.44049)
(112.337 0.818758 -5.37102)
(62.3119 -0.600071 -3.94282)
(116.473 -0.0942094 -4.47379)
(14.3229 -1.04306 -1.56563)
(92.5215 -0.255681 -2.04259)
(95.4174 1.19199 -6.69182)
(30.9067 0.155227 -3.16679)
(92.0916 0.405783 -5.99058)
(20.4126 -0.0277911 -1.76764)
(89.2639 -0.437534 -3.65037)
(10.1037 -0.284024 -0.809435)
(87.0474 -1.77007 -1.52719)
(1.33111 -0.0722535 -0.138803)
(85.8991 -1.61599 0.165714)
(96.2923 4.10452 -6.00198)
(33.1815 1.74593 -2.92631)
(93.8514 4.58253 -5.34368)
(25.691 1.55268 -1.94857)
(91.9623 3.9052 -3.45951)
(18.1923 0.971852 -1.10702)
(90.8238 2.2862 -1.69471)
(9.5562 0.544226 -0.485322)
(90.8418 -0.301172 -0.368526)
(97.1791 2.32252 -5.73243)
(39.9648 1.21703 -3.29752)
(98.9369 2.84786 -5.51739)
(43.3405 1.13935 -3.12831)
(101.2 2.40093 -4.0916)
(46.1331 0.508215 -2.5378)
(101.926 1.79242 -2.46223)
(46.2189 0.244267 -2.25226)
(103.399 0.57032 -1.49305)
(94.6965 1.82756 -5.60279)
(29.0219 0.976485 -2.27346)
(90.3464 2.51701 -4.456)
(18.9559 0.662525 -1.55278)
(88.3042 2.00362 -2.37633)
(11.24 0.459357 -0.813294)
(87.4078 1.53697 -0.181419)
(4.69681 0.253228 -0.484251)
(94.6386 5.06028 -4.72421)
(34.4165 2.49666 -2.30424)
(93.0888 5.51713 -4.16312)
(30.5497 2.0146 -2.05357)
(92.9398 4.90011 -3.24395)
(28.1703 1.89065 -1.57189)
(93.9412 4.12429 -1.87458)
(96.3142 2.4689 -4.34591)
(41.0311 1.12943 -2.67443)
(98.3065 2.22077 -4.41488)
(44.4318 0.762509 -3.12748)
(100.603 1.5326 -4.09467)
(47.6017 0.342569 -2.49033)
)
;

boundaryField
{
    inlet
    {
        type            calculated;
        value           uniform (67 0 0);
    }
    outlet
    {
        type            calculated;
        value           nonuniform 0();
    }
    wall
    {
        type            calculated;
        value           uniform (0 0 0);
    }
    procBoundary2to0
    {
        type            processor;
        value           nonuniform List<vector> 
44
(
(54.305 -1.17741 -2.9967)
(111.11 -1.35373 -5.41981)
(61.5925 -0.355044 -2.78599)
(115.566 -0.925171 -4.75792)
(65.7776 0.0041598 -1.90479)
(117.547 -0.683985 -3.5401)
(100.728 -1.58332 -5.37961)
(44.9309 -0.545815 -2.60508)
(106.634 -1.18881 -5.31463)
(106.634 -1.18881 -5.31463)
(32.3825 -0.00995626 -3.09654)
(95.9559 -0.128793 -6.33307)
(24.6672 -0.0111462 -1.56319)
(94.6978 -0.196547 -3.21314)
(16.9142 0.419778 -0.655489)
(94.8503 0.3101 -1.31247)
(96.5779 -0.587961 -8.90867)
(34.9816 -0.256383 -4.15173)
(96.9964 -0.606191 -8.71517)
(32.3825 -0.00995626 -3.09654)
(95.9559 -0.128793 -6.33307)
(95.9559 -0.128793 -6.33307)
(16.3572 -0.907568 -1.4321)
(91.2805 -1.58115 -2.52446)
(10.8362 -0.314006 -1.59522)
(90.7102 -1.10574 0.05423)
(94.7739 -1.12775 -6.50289)
(30.3782 -0.588763 -3.44921)
(92.1307 -1.45954 -6.52913)
(21.8336 -0.62066 -1.90166)
(90.7591 -1.57975 -3.80032)
(16.3572 -0.907568 -1.4321)
(91.2805 -1.58115 -2.52446)
(91.2805 -1.58115 -2.52446)
(11.1134 0.616573 -1.31385)
(89.2559 -0.0800581 -1.30245)
(94.9602 -0.429361 -4.40832)
(30.6681 0.127024 -2.52582)
(91.0013 0.578209 -4.45362)
(20.7545 0.439602 -1.6926)
(89.7953 0.94013 -3.57817)
(14.7947 0.484378 -1.39045)
(89.3894 -0.0839007 -2.71324)
(11.1134 0.616573 -1.31385)
)
;
    }
    procBoundary2to3
    {
        type            processor;
        value           nonuniform List<vector> 
12
(
(72.4583 -1.21679 -0.765164)
(54.3237 -1.4503 -0.49137)
(71.6839 2.02804 0.38765)
(90.8775 -2.14149 0.273161)
(21.6179 0.16508 -1.66234)
(7.38634 -0.107498 -1.02647)
(32.0788 1.48968 -3.0956)
(64.1212 -1.79275 -4.2798)
(12.1384 -1.13479 -2.27447)
(4.79962e-05 -3.67222e-06 3.76278e-06)
(2.66465 0.25584 -0.140736)
(43.2745 -0.343251 -2.02008)
)
;
    }
    procBoundary2to6
    {
        type            processor;
        value           nonuniform List<vector> 
32
(
(87.395 1.86318 -0.663135)
(27.4655 2.06511 -1.67773)
(96.3132 2.90926 -1.05955)
(103.354 0.746755 -2.81474)
(50.2886 -0.623009 -3.06394)
(106.211 -0.370402 -3.0073)
(92.0805 0.794301 -1.81189)
(26.1877 0.509026 -0.574263)
(86.962 0.736894 -1.25832)
(11.4793 0.140095 -0.379919)
(83.1874 0.0426466 -0.726255)
(1.71578 0.0183621 -0.0676311)
(81.519 -0.747858 -0.426276)
(87.395 1.86318 -0.663135)
(27.4655 2.06511 -1.67773)
(3.69858e-05 5.89432e-07 -2.38044e-06)
(94.2661 5.32309 -1.74574)
(30.5162 1.94319 -0.983315)
(90.7619 4.95801 -1.72339)
(20.7039 1.4008 -1.0226)
(88.1376 2.8032 -1.55619)
(11.8958 0.845421 -0.77107)
(27.4655 2.06511 -1.67773)
(103.354 0.746755 -2.81474)
(86.7152 0.360823 -1.56731)
(96.2051 2.82231 -1.83336)
(39.6565 1.27124 -1.22846)
(96.5802 2.90266 -1.93647)
(40.402 0.878064 -1.85262)
(95.825 1.91725 -1.94522)
(103.354 0.746755 -2.81474)
(37.9377 0.486892 -1.89635)
)
;
    }
}


// ************************************************************************* //
