/*--------------------------------*- C++ -*----------------------------------*\
| =========                 |                                                 |
| \\      /  F ield         | OpenFOAM: The Open Source CFD Toolbox           |
|  \\    /   O peration     | Version:  4.x                                   |
|   \\  /    A nd           | Web:      www.OpenFOAM.org                      |
|    \\/     M anipulation  |                                                 |
\*---------------------------------------------------------------------------*/
FoamFile
{
    version     2.0;
    format      ascii;
    class       volVectorField;
    location    "56.5";
    object      impParticleForces;
}
// * * * * * * * * * * * * * * * * * * * * * * * * * * * * * * * * * * * * * //

dimensions      [1 1 -2 0 0 0 0];

internalField   nonuniform List<vector> 
114
(
(0.00240259 -6.72001e-06 -8.52224e-05)
(0.00243895 -6.45702e-06 -7.97434e-05)
(0.00243715 -5.9661e-06 -7.15416e-05)
(0.00247252 -5.69087e-06 -6.44568e-05)
(0.00244991 -4.92874e-06 -5.54939e-05)
(0.00246332 -4.26567e-06 -4.8177e-05)
(0.0023111 2.15853e-06 -8.93189e-05)
(0.00233801 2.75527e-06 -9.03662e-05)
(0.0023818 3.20481e-06 -8.93671e-05)
(0.00239849 3.10138e-06 -8.45656e-05)
(0.00244291 2.80165e-06 -7.95502e-05)
(0.00243633 1.76935e-06 -7.12442e-05)
(0.00247167 9.39555e-07 -6.41765e-05)
(0.00245473 3.28313e-08 -5.53453e-05)
(0.00245667 -3.71407e-07 -4.77276e-05)
(0.00228497 9.93882e-06 -8.67751e-05)
(0.00231723 1.06768e-05 -8.81504e-05)
(0.00236053 1.11899e-05 -8.728e-05)
(0.00238048 1.06266e-05 -8.26854e-05)
(0.00242583 1.01647e-05 -7.77398e-05)
(0.00242334 8.00891e-06 -7.00416e-05)
(0.00246063 6.72862e-06 -6.30954e-05)
(0.00245256 4.48119e-06 -5.48523e-05)
(0.00246943 3.06294e-06 -4.79769e-05)
(0.00224762 1.25054e-05 -8.38561e-05)
(0.00226867 1.30378e-05 -8.43698e-05)
(0.00232182 1.35509e-05 -8.39336e-05)
(0.00233391 1.26745e-05 -7.94717e-05)
(0.00236731 1.16591e-05 -7.45191e-05)
(0.0023742 9.56353e-06 -6.75702e-05)
(0.00239166 7.64224e-06 -6.07685e-05)
(0.00240988 5.27019e-06 -5.37561e-05)
(0.00242673 3.25877e-06 -4.71811e-05)
(0.00250129 -6.45703e-06 -7.22368e-05)
(0.0025386 -6.12056e-06 -6.49907e-05)
(0.00248364 -5.12348e-06 -5.48026e-05)
(0.00250646 -4.34703e-06 -4.76249e-05)
(0.00233834 2.94052e-06 -8.87723e-05)
(0.0023855 3.62323e-06 -9.12315e-05)
(0.00245015 4.41194e-06 -9.20374e-05)
(0.0024595 4.2019e-06 -8.61676e-05)
(0.00249466 3.86031e-06 -8.04544e-05)
(0.00247685 2.33592e-06 -7.11437e-05)
(0.00252135 1.45022e-06 -6.43501e-05)
(0.00248349 3.01918e-07 -5.48996e-05)
(0.00248387 -2.4661e-07 -4.70941e-05)
(0.00232254 1.15272e-05 -8.72198e-05)
(0.00237547 1.29143e-05 -9.00206e-05)
(0.0024467 1.44614e-05 -9.1234e-05)
(0.00244827 1.29251e-05 -8.49182e-05)
(0.0024768 1.19128e-05 -7.90001e-05)
(0.00247277 9.4562e-06 -7.08079e-05)
(0.00250353 7.81472e-06 -6.38756e-05)
(0.00248379 5.05983e-06 -5.54483e-05)
(0.00249565 3.27763e-06 -4.82465e-05)
(0.0022737 1.38707e-05 -8.33396e-05)
(0.00231193 1.4875e-05 -8.48972e-05)
(0.00238407 1.60914e-05 -8.61619e-05)
(0.00237978 1.45826e-05 -8.03166e-05)
(0.00240356 1.31058e-05 -7.48356e-05)
(0.00241412 1.08324e-05 -6.80357e-05)
(0.00243544 8.68998e-06 -6.1235e-05)
(0.00243191 5.79122e-06 -5.40262e-05)
(0.0024354 3.39702e-06 -4.72563e-05)
(0.00245399 -5.36376e-06 -4.95999e-05)
(0.00246058 -4.40262e-06 -4.28593e-05)
(0.00236406 3.69456e-06 -8.27351e-05)
(0.0023943 4.27513e-06 -8.37043e-05)
(0.00245008 4.9701e-06 -8.37e-05)
(0.00245329 4.50486e-06 -7.82173e-05)
(0.00247559 3.74351e-06 -7.22694e-05)
(0.00246165 2.37855e-06 -6.42013e-05)
(0.00248963 1.34217e-06 -5.74618e-05)
(0.00245242 2.43292e-07 -4.94494e-05)
(0.00245403 -3.56951e-07 -4.27061e-05)
(0.0023333 1.23584e-05 -8.02448e-05)
(0.00237777 1.37096e-05 -8.21833e-05)
(0.00245091 1.55425e-05 -8.32884e-05)
(0.00245537 1.40688e-05 -7.8267e-05)
(0.002474 1.27666e-05 -7.20063e-05)
(0.00245274 9.63301e-06 -6.39748e-05)
(0.00249043 7.89597e-06 -5.77967e-05)
(0.00246046 4.92545e-06 -5.04262e-05)
(0.00247952 2.82968e-06 -4.43774e-05)
(0.00229279 1.50732e-05 -7.75504e-05)
(0.00233194 1.63995e-05 -7.90647e-05)
(0.00238936 1.73667e-05 -7.92093e-05)
(0.00239636 1.599e-05 -7.49027e-05)
(0.00239837 1.38329e-05 -6.85434e-05)
(0.00241192 1.14881e-05 -6.25302e-05)
(0.00244743 9.40006e-06 -5.67798e-05)
(0.00241802 5.94143e-06 -4.9839e-05)
(0.00243613 3.37334e-06 -4.42337e-05)
(0.00236799 4.44405e-06 -7.03967e-05)
(0.00241606 5.23704e-06 -7.15397e-05)
(0.00246739 6.1322e-06 -7.11852e-05)
(0.00244748 5.04226e-06 -6.56919e-05)
(0.00246684 4.32005e-06 -6.06259e-05)
(0.00243748 2.64606e-06 -5.37936e-05)
(0.00245691 1.62474e-06 -4.79381e-05)
(0.00241808 3.32698e-07 -4.17899e-05)
(0.00234034 1.33074e-05 -6.87817e-05)
(0.00238644 1.48501e-05 -7.02019e-05)
(0.00245442 1.66027e-05 -7.05503e-05)
(0.00243654 1.40611e-05 -6.55802e-05)
(0.00246777 1.31765e-05 -6.12051e-05)
(0.00244004 9.8276e-06 -5.45772e-05)
(0.00246543 7.67406e-06 -4.92773e-05)
(0.00228777 1.56287e-05 -6.64326e-05)
(0.00232822 1.69532e-05 -6.76806e-05)
(0.0023929 1.81293e-05 -6.81028e-05)
(0.00239184 1.62391e-05 -6.42467e-05)
(0.00241807 1.45514e-05 -5.99351e-05)
(0.00240139 1.13974e-05 -5.39574e-05)
)
;

boundaryField
{
    inlet
    {
        type            zeroGradient;
    }
    outlet
    {
        type            zeroGradient;
    }
    wall
    {
        type            zeroGradient;
    }
    procBoundary2to0
    {
        type            processor;
        value           nonuniform List<vector> 
44
(
(0.00239423 -1.57654e-05 -8.45047e-05)
(0.00244431 -1.48718e-05 -7.98446e-05)
(0.00243939 -1.30501e-05 -7.15389e-05)
(0.00245803 -1.15672e-05 -6.40352e-05)
(0.00245673 -9.58927e-06 -5.60178e-05)
(0.00249183 -7.95895e-06 -4.96398e-05)
(0.00230404 -7.59242e-06 -8.96683e-05)
(0.00232506 -7.4423e-06 -9.00545e-05)
(0.00236258 -7.16933e-06 -8.87159e-05)
(0.00236258 -7.16933e-06 -8.87159e-05)
(0.00244898 -7.17461e-06 -8.55784e-05)
(0.00251346 -6.8722e-06 -8.15871e-05)
(0.00248726 -1.42409e-05 -7.13086e-05)
(0.00252795 -1.2695e-05 -6.43816e-05)
(0.0024827 -1.01453e-05 -5.49717e-05)
(0.00249646 -8.02311e-06 -4.77646e-05)
(0.00236103 -7.86625e-06 -9.12064e-05)
(0.00238569 -7.88584e-06 -9.18075e-05)
(0.002441 -7.82287e-06 -9.19075e-05)
(0.00244898 -7.17461e-06 -8.55784e-05)
(0.00251346 -6.8722e-06 -8.15871e-05)
(0.00251346 -6.8722e-06 -8.15871e-05)
(0.00248218 -6.67137e-06 -6.5228e-05)
(0.00250153 -6.41076e-06 -5.79913e-05)
(0.0024527 -1.03873e-05 -4.97914e-05)
(0.00245546 -8.15202e-06 -4.29651e-05)
(0.00237593 -8.03246e-06 -8.40192e-05)
(0.00241046 -8.1982e-06 -8.55098e-05)
(0.00247033 -8.27484e-06 -8.55347e-05)
(0.00246893 -7.59889e-06 -7.93762e-05)
(0.00250296 -7.36216e-06 -7.37723e-05)
(0.00248218 -6.67137e-06 -6.5228e-05)
(0.00250153 -6.41076e-06 -5.79913e-05)
(0.00250153 -6.41076e-06 -5.79913e-05)
(0.00241068 -5.04555e-06 -4.1471e-05)
(0.00240467 -4.3136e-06 -3.56974e-05)
(0.00236241 -7.88187e-06 -7.03827e-05)
(0.00240748 -7.97946e-06 -7.1644e-05)
(0.0024741 -7.90423e-06 -7.15739e-05)
(0.0024645 -7.30057e-06 -6.64593e-05)
(0.00246768 -6.75955e-06 -6.06859e-05)
(0.0024561 -6.27671e-06 -5.43368e-05)
(0.0024673 -5.77932e-06 -4.8373e-05)
(0.00241068 -5.04555e-06 -4.1471e-05)
)
;
    }
    procBoundary2to3
    {
        type            processor;
        value           nonuniform List<vector> 
12
(
(0.00249551 -3.54662e-06 -4.18164e-05)
(0.00248428 -6.60236e-07 -4.12292e-05)
(0.00248306 1.83047e-06 -4.16707e-05)
(0.00242005 1.46333e-06 -4.10172e-05)
(0.00249964 -3.28036e-06 -4.0721e-05)
(0.00249669 -4.27355e-07 -4.06008e-05)
(0.00252766 2.03728e-06 -4.27501e-05)
(0.00246149 1.3687e-06 -4.22578e-05)
(0.0024596 -3.42231e-06 -3.68064e-05)
(0.00245947 -7.12911e-07 -3.70307e-05)
(0.00246669 1.06094e-06 -3.87565e-05)
(0.00243709 1.07906e-06 -3.94943e-05)
)
;
    }
    procBoundary2to6
    {
        type            processor;
        value           nonuniform List<vector> 
32
(
(0.00243347 -2.0257e-07 -3.65729e-05)
(0.00242879 4.67762e-06 -4.3316e-05)
(0.00245124 2.74194e-06 -3.842e-05)
(0.00240955 8.60838e-06 -4.85306e-05)
(0.0023955 5.46893e-06 -4.33803e-05)
(0.0024063 2.64968e-06 -3.88355e-05)
(0.00238969 4.97178e-06 -5.57478e-05)
(0.0024146 5.08082e-06 -5.52369e-05)
(0.00243847 5.24927e-06 -5.35006e-05)
(0.00243468 4.36368e-06 -5.02771e-05)
(0.00246239 3.62606e-06 -4.68178e-05)
(0.00242248 2.08288e-06 -4.19752e-05)
(0.00244218 8.36454e-07 -3.77338e-05)
(0.00243347 -2.0257e-07 -3.65729e-05)
(0.00242879 4.67762e-06 -4.3316e-05)
(0.00239905 -4.36882e-07 -3.33445e-05)
(0.00235462 1.43576e-05 -5.49786e-05)
(0.00239036 1.52652e-05 -5.49718e-05)
(0.00243012 1.58568e-05 -5.3756e-05)
(0.00243276 1.38236e-05 -5.09205e-05)
(0.00245578 1.22334e-05 -4.76688e-05)
(0.00243018 9.11654e-06 -4.32517e-05)
(0.00242879 4.67762e-06 -4.3316e-05)
(0.00240955 8.60838e-06 -4.85306e-05)
(0.00244699 6.54155e-06 -3.90658e-05)
(0.0022987 1.63927e-05 -5.40404e-05)
(0.00233157 1.74474e-05 -5.43362e-05)
(0.00236216 1.73081e-05 -5.32611e-05)
(0.00237444 1.56982e-05 -5.09199e-05)
(0.00241484 1.42868e-05 -4.78153e-05)
(0.00240955 8.60838e-06 -4.85306e-05)
(0.00240718 1.13679e-05 -4.39897e-05)
)
;
    }
}


// ************************************************************************* //
