/*--------------------------------*- C++ -*----------------------------------*\
| =========                 |                                                 |
| \\      /  F ield         | OpenFOAM: The Open Source CFD Toolbox           |
|  \\    /   O peration     | Version:  4.x                                   |
|   \\  /    A nd           | Web:      www.OpenFOAM.org                      |
|    \\/     M anipulation  |                                                 |
\*---------------------------------------------------------------------------*/
FoamFile
{
    version     2.0;
    format      ascii;
    class       volScalarField;
    location    "56.5";
    object      particleRelTemp;
}
// * * * * * * * * * * * * * * * * * * * * * * * * * * * * * * * * * * * * * //

dimensions      [0 0 0 0 0 0 0];

internalField   nonuniform List<scalar> 
114
(
1.45914e-09
2.37966e-09
3.27051e-09
4.54117e-09
5.11949e-09
4.72281e-09
-4.17282e-10
1.32916e-10
6.11183e-10
1.10163e-09
1.59879e-09
2.25845e-09
2.81924e-09
3.36329e-09
3.08196e-09
-6.16088e-10
-1.61786e-10
2.67385e-10
6.33011e-10
9.60465e-10
1.14419e-09
1.5772e-09
1.96378e-09
1.7766e-09
-6.1305e-10
-3.40636e-10
-2.93055e-11
2.05628e-10
4.39064e-10
4.27035e-10
7.83974e-10
8.57568e-10
6.79361e-10
3.60567e-09
4.63768e-09
5.02004e-09
4.6459e-09
-4.99435e-10
1.10457e-10
7.59614e-10
1.26885e-09
1.61868e-09
2.37264e-09
2.88667e-09
3.36605e-09
3.2292e-09
-5.38229e-10
-5.93554e-11
4.0576e-10
8.07947e-10
9.87099e-10
1.16534e-09
1.50774e-09
1.78402e-09
1.74016e-09
-5.63416e-10
-1.88698e-10
1.3458e-10
3.79225e-10
4.95415e-10
6.41666e-10
7.83805e-10
8.50558e-10
5.77054e-10
4.43456e-09
3.93286e-09
-3.82761e-10
1.17486e-10
7.19774e-10
1.15921e-09
1.72299e-09
2.17278e-09
2.45615e-09
2.79036e-09
2.45147e-09
-5.51646e-10
-4.89835e-11
5.06502e-10
7.79551e-10
1.11485e-09
1.20751e-09
1.36146e-09
1.24034e-09
8.95353e-10
-5.59022e-10
-1.8101e-10
1.60375e-10
4.75209e-10
5.16689e-10
6.45587e-10
6.81513e-10
6.69666e-10
4.3079e-10
-4.05371e-10
1.65167e-10
6.11224e-10
8.80907e-10
1.33846e-09
1.42712e-09
1.77973e-09
1.19808e-09
-5.56972e-10
-3.67657e-11
2.37366e-10
6.02185e-10
8.14212e-10
9.58251e-10
7.58571e-10
-6.29461e-10
-2.19322e-10
1.30735e-10
2.89654e-10
4.366e-10
3.65433e-10
)
;

boundaryField
{
    inlet
    {
        type            calculated;
        value           nonuniform List<scalar> 
12
(
-4.17282e-10
-6.16088e-10
-6.1305e-10
-4.99435e-10
-5.38229e-10
-5.63416e-10
-3.82761e-10
-5.51646e-10
-5.59022e-10
-4.05371e-10
-5.56972e-10
-6.29461e-10
)
;
    }
    outlet
    {
        type            calculated;
        value           nonuniform 0();
    }
    wall
    {
        type            calculated;
        value           nonuniform List<scalar> 
66
(
-4.17282e-10
-6.16088e-10
-6.1305e-10
1.32916e-10
-1.61786e-10
-3.40636e-10
6.11183e-10
2.67385e-10
-2.93055e-11
1.45914e-09
1.10163e-09
6.33011e-10
2.05628e-10
2.37966e-09
1.59879e-09
9.60465e-10
4.39064e-10
3.27051e-09
2.25845e-09
1.14419e-09
4.27035e-10
4.54117e-09
2.81924e-09
1.5772e-09
7.83974e-10
5.11949e-09
3.36329e-09
1.96378e-09
8.57568e-10
4.72281e-09
3.08196e-09
1.7766e-09
6.79361e-10
-6.1305e-10
-5.63416e-10
-5.59022e-10
-6.29461e-10
-3.40636e-10
-1.88698e-10
-1.8101e-10
-2.19322e-10
-2.93055e-11
1.3458e-10
1.60375e-10
1.30735e-10
2.05628e-10
3.79225e-10
4.75209e-10
2.89654e-10
4.39064e-10
4.95415e-10
5.16689e-10
4.366e-10
4.27035e-10
6.41666e-10
6.45587e-10
3.65433e-10
7.83974e-10
7.83805e-10
6.81513e-10
8.57568e-10
8.50558e-10
6.69666e-10
6.79361e-10
5.77054e-10
4.3079e-10
)
;
    }
    procBoundary2to0
    {
        type            processor;
        value           nonuniform List<scalar> 
44
(
1.99051e-09
2.85503e-09
4.20994e-09
5.68366e-09
6.2496e-09
5.77874e-09
-5.44846e-10
3.66674e-10
6.24973e-10
6.24973e-10
1.98556e-09
2.41668e-09
4.29534e-09
5.777e-09
6.36984e-09
5.73072e-09
-2.74786e-10
4.49392e-10
1.17869e-09
1.98556e-09
2.41668e-09
2.41668e-09
2.95166e-09
4.04233e-09
5.48889e-09
5.1937e-09
-3.09272e-10
4.97804e-10
1.14565e-09
1.67635e-09
2.41198e-09
2.95166e-09
4.04233e-09
4.04233e-09
2.96943e-09
2.83694e-09
-3.5218e-10
2.46228e-10
8.3969e-10
1.39013e-09
1.92608e-09
2.37612e-09
2.97282e-09
2.96943e-09
)
;
    }
    procBoundary2to3
    {
        type            processor;
        value           nonuniform List<scalar> 
12
(
3.59122e-09
2.32632e-09
9.71682e-10
3.15798e-10
3.07153e-09
2.22544e-09
1.1197e-09
3.65162e-10
1.95346e-09
1.61269e-09
4.20245e-10
-5.51283e-11
)
;
    }
    procBoundary2to6
    {
        type            processor;
        value           nonuniform List<scalar> 
32
(
1.11624e-09
2.90638e-10
1.45854e-10
2.36659e-10
2.12614e-10
-3.07051e-10
-4.32028e-10
6.28528e-12
3.5908e-10
6.73405e-10
9.53081e-10
8.04922e-10
8.73868e-10
1.11624e-09
2.90638e-10
2.80016e-10
-4.88391e-10
-2.04563e-10
1.06707e-10
2.97893e-10
3.95337e-10
3.94557e-10
2.90638e-10
2.36659e-10
1.76837e-10
-6.19061e-10
-2.91202e-10
-8.7149e-11
1.37119e-10
1.08817e-10
2.36659e-10
1.04935e-10
)
;
    }
}


// ************************************************************************* //
