/*--------------------------------*- C++ -*----------------------------------*\
| =========                 |                                                 |
| \\      /  F ield         | OpenFOAM: The Open Source CFD Toolbox           |
|  \\    /   O peration     | Version:  4.x                                   |
|   \\  /    A nd           | Web:      www.OpenFOAM.org                      |
|    \\/     M anipulation  |                                                 |
\*---------------------------------------------------------------------------*/
FoamFile
{
    version     2.0;
    format      ascii;
    class       volScalarField;
    location    "56.5";
    object      QPartFluidCoeff;
}
// * * * * * * * * * * * * * * * * * * * * * * * * * * * * * * * * * * * * * //

dimensions      [1 -1 -3 -1 0 0 0];

internalField   nonuniform List<scalar> 
114
(
-2.37892e+07
-1.86495e+07
-1.01803e+07
-1.99149e+07
-1.21239e+07
-1.53185e+07
-1.93877e+07
-2.31082e+07
-2.04456e+07
-1.45937e+07
-2.44657e+07
-1.66447e+07
-2.33247e+07
-2.23778e+07
-1.49005e+07
-1.2929e+07
-2.05598e+07
-1.69896e+07
-1.79824e+07
-1.93779e+07
-1.74951e+07
-2.26784e+07
-1.80145e+07
-2.17107e+07
-1.32887e+07
-1.33545e+07
-1.72034e+07
-1.51442e+07
-1.31985e+07
-1.36582e+07
-1.02062e+07
-1.78129e+07
-1.32735e+07
-3.28313e+07
-4.10176e+07
-2.20518e+07
-3.74457e+07
-1.57746e+07
-2.64563e+07
-3.19723e+07
-3.05741e+07
-2.95964e+07
-2.32676e+07
-3.71409e+07
-2.89569e+07
-2.13465e+07
-1.95331e+07
-3.33919e+07
-3.55419e+07
-3.06275e+07
-3.14065e+07
-2.95852e+07
-3.05757e+07
-2.96914e+07
-2.56379e+07
-1.68818e+07
-1.79429e+07
-2.7865e+07
-2.00981e+07
-2.53356e+07
-2.17849e+07
-2.24014e+07
-2.368e+07
-1.60682e+07
-2.69271e+07
-3.10303e+07
-2.28687e+07
-1.91087e+07
-2.24763e+07
-2.28189e+07
-2.24913e+07
-2.54775e+07
-3.26894e+07
-2.39422e+07
-1.91023e+07
-1.66387e+07
-2.31668e+07
-3.02848e+07
-3.4849e+07
-3.05718e+07
-2.32589e+07
-3.15291e+07
-2.81633e+07
-3.40719e+07
-1.66989e+07
-2.53331e+07
-2.32731e+07
-2.49425e+07
-1.59312e+07
-2.27745e+07
-3.23036e+07
-1.77711e+07
-2.57735e+07
-1.63267e+07
-3.16283e+07
-3.43409e+07
-2.38613e+07
-2.7468e+07
-2.09389e+07
-2.53e+07
-2.51176e+07
-1.95703e+07
-2.63946e+07
-3.50971e+07
-2.20929e+07
-3.04234e+07
-2.57972e+07
-3.43815e+07
-1.41956e+07
-2.10231e+07
-2.50476e+07
-2.41936e+07
-2.25265e+07
-2.17044e+07
)
;

boundaryField
{
    inlet
    {
        type            calculated;
        value           uniform 0;
    }
    outlet
    {
        type            calculated;
        value           nonuniform 0();
    }
    wall
    {
        type            calculated;
        value           uniform 0;
    }
    procBoundary2to0
    {
        type            processor;
        value           nonuniform List<scalar> 
44
(
382.778
420.645
369.682
300.936
390.964
643.258
225.118
342.669
265.221
265.221
416.561
855.353
509.594
795.134
521.403
480.067
601.893
531.993
589.219
416.561
855.353
855.353
608.044
663.659
485.404
407.822
521.919
655.368
723.647
680.224
754.013
608.044
663.659
663.659
424.849
198.5
364.974
509.423
744.002
775.219
417.7
747.029
649.493
424.849
)
;
    }
    procBoundary2to3
    {
        type            processor;
        value           nonuniform List<scalar> 
12
(
641.69
467.142
501.994
327.882
648.518
574.622
963.473
637.121
626.05
722.573
455.524
660.438
)
;
    }
    procBoundary2to6
    {
        type            processor;
        value           nonuniform List<scalar> 
32
(
613.965
516.614
678.556
431.278
471.622
425.501
752.424
676.98
459.866
603.695
837.638
459.74
658.586
613.965
516.614
504.68
476.462
696.494
617.988
771.661
668.908
659.047
516.614
431.278
661.272
353.714
572.978
450.513
463.858
657.729
431.278
713.005
)
;
    }
}


// ************************************************************************* //
