/*--------------------------------*- C++ -*----------------------------------*\
| =========                 |                                                 |
| \\      /  F ield         | OpenFOAM: The Open Source CFD Toolbox           |
|  \\    /   O peration     | Version:  4.x                                   |
|   \\  /    A nd           | Web:      www.OpenFOAM.org                      |
|    \\/     M anipulation  |                                                 |
\*---------------------------------------------------------------------------*/
FoamFile
{
    version     2.0;
    format      ascii;
    class       volScalarField;
    location    "56.5";
    object      Qsource;
}
// * * * * * * * * * * * * * * * * * * * * * * * * * * * * * * * * * * * * * //

dimensions      [1 -1 -3 0 0 0 0];

internalField   nonuniform List<scalar> 
114
(
7.66877e+09
6.52735e+09
3.65136e+09
6.94345e+09
4.27634e+09
5.60035e+09
6.66398e+09
7.35729e+09
7.01136e+09
4.86527e+09
8.24006e+09
5.51812e+09
7.91673e+09
7.25209e+09
5.40547e+09
4.73115e+09
6.61543e+09
5.99101e+09
5.92924e+09
6.74625e+09
5.84231e+09
7.76875e+09
6.03606e+09
7.50889e+09
5.69619e+09
4.97081e+09
6.993e+09
5.74023e+09
5.91637e+09
5.47703e+09
5.12968e+09
6.84934e+09
6.12715e+09
9.84939e+09
1.23053e+10
6.61555e+09
1.12337e+10
4.73239e+09
7.93689e+09
9.59168e+09
9.17224e+09
8.87891e+09
6.98029e+09
1.11423e+10
8.68707e+09
6.40394e+09
5.85994e+09
1.00176e+10
1.06626e+10
9.18825e+09
9.42194e+09
8.87556e+09
9.17271e+09
8.90741e+09
7.69137e+09
5.9076e+09
5.82503e+09
9.2345e+09
6.53409e+09
8.50805e+09
7.08931e+09
7.65721e+09
7.68905e+09
5.78442e+09
8.07813e+09
9.3091e+09
6.86062e+09
5.73261e+09
6.74288e+09
6.84568e+09
6.7474e+09
7.64324e+09
9.80682e+09
7.18265e+09
5.73069e+09
4.99162e+09
6.95004e+09
9.08543e+09
1.04547e+10
9.17153e+09
6.97767e+09
9.45873e+09
8.44899e+09
1.02216e+10
5.84447e+09
8.01061e+09
7.82875e+09
7.92063e+09
5.64103e+09
7.29214e+09
1.05573e+10
5.79169e+09
8.60799e+09
4.89802e+09
9.48849e+09
1.03023e+10
7.1584e+09
8.2404e+09
6.28168e+09
7.59001e+09
7.53529e+09
5.87109e+09
7.91838e+09
1.05291e+10
6.62787e+09
9.12703e+09
7.73916e+09
1.03145e+10
5.08707e+09
6.72589e+09
8.3563e+09
7.70463e+09
7.61545e+09
6.98273e+09
)
;

boundaryField
{
    inlet
    {
        type            calculated;
        value           uniform 0;
    }
    outlet
    {
        type            calculated;
        value           nonuniform 0();
    }
    wall
    {
        type            calculated;
        value           uniform 0;
    }
    procBoundary2to0
    {
        type            processor;
        value           nonuniform List<scalar> 
44
(
5.58811e+09
6.4938e+09
5.47006e+09
4.93944e+09
5.78259e+09
9.48115e+09
3.83708e+09
4.98377e+09
4.40751e+09
4.40751e+09
5.5111e+09
1.13163e+10
6.74193e+09
1.05196e+10
6.89816e+09
6.35129e+09
7.96305e+09
7.03826e+09
7.79537e+09
5.5111e+09
1.13163e+10
1.13163e+10
8.04442e+09
8.7802e+09
6.4219e+09
5.39549e+09
6.90499e+09
8.67051e+09
9.57385e+09
8.99936e+09
9.97559e+09
8.04442e+09
8.7802e+09
8.7802e+09
5.62075e+09
2.62615e+09
4.8286e+09
6.73966e+09
9.84315e+09
1.02561e+10
5.52618e+09
9.88319e+09
8.59279e+09
5.62075e+09
)
;
    }
    procBoundary2to3
    {
        type            processor;
        value           nonuniform List<scalar> 
12
(
9.14866e+09
6.70382e+09
7.29496e+09
5.91808e+09
8.57989e+09
7.60225e+09
1.27467e+10
9.02797e+09
8.28264e+09
9.55964e+09
6.02658e+09
9.17431e+09
)
;
    }
    procBoundary2to6
    {
        type            processor;
        value           nonuniform List<scalar> 
32
(
8.12275e+09
6.8348e+09
8.9773e+09
6.58164e+09
6.73235e+09
6.52453e+09
9.95456e+09
8.95644e+09
6.08402e+09
7.98688e+09
1.1082e+10
6.08236e+09
8.71309e+09
8.12275e+09
6.8348e+09
6.67691e+09
6.30359e+09
9.21462e+09
8.17598e+09
1.02091e+10
8.84965e+09
8.7192e+09
6.8348e+09
6.58164e+09
8.74863e+09
5.5068e+09
7.9877e+09
6.79006e+09
6.55025e+09
9.52616e+09
6.58164e+09
9.82618e+09
)
;
    }
}


// ************************************************************************* //
