/*--------------------------------*- C++ -*----------------------------------*\
| =========                 |                                                 |
| \\      /  F ield         | OpenFOAM: The Open Source CFD Toolbox           |
|  \\    /   O peration     | Version:  4.x                                   |
|   \\  /    A nd           | Web:      www.OpenFOAM.org                      |
|    \\/     M anipulation  |                                                 |
\*---------------------------------------------------------------------------*/
FoamFile
{
    version     2.0;
    format      ascii;
    class       volVectorField;
    location    "56.5";
    object      U;
}
// * * * * * * * * * * * * * * * * * * * * * * * * * * * * * * * * * * * * * //

dimensions      [0 1 -1 0 0 0 0];

internalField   nonuniform List<vector> 
114
(
(0.0169259 -0.000192379 -0.000818433)
(0.0341742 -0.000325796 -0.00153967)
(0.0195021 -0.000221043 -0.000732513)
(0.0359721 -0.000352681 -0.00113795)
(0.0213228 -0.000119031 -0.000425363)
(0.0377804 -0.000261573 -0.000730669)
(0.0299999 5.29512e-05 -0.00130677)
(0.0127263 1.55051e-05 -0.000744504)
(0.0315295 0.000140632 -0.00155149)
(0.0151258 8.1521e-05 -0.000670561)
(0.0328235 1.6869e-05 -0.00131936)
(0.0166816 -0.000121176 -0.000542356)
(0.0338821 -0.000181323 -0.00110052)
(0.0173833 -0.000331868 -0.000275907)
(0.0345544 -0.00023727 -0.000715602)
(0.0300546 0.00103625 -0.00126292)
(0.0135396 0.000529693 -0.000683931)
(0.0322279 0.0011149 -0.00131124)
(0.0169779 0.000636561 -0.000546815)
(0.0340759 0.00109722 -0.000961329)
(0.019401 0.0005438 -0.000333757)
(0.0357768 0.000914303 -0.000623818)
(0.0210844 0.000388996 -8.26984e-05)
(0.0373648 0.000748512 -0.000340941)
(0.0300969 0.000462562 -0.00106032)
(0.0147695 0.000217183 -0.000617242)
(0.0331053 0.000416916 -0.00109106)
(0.0194653 0.000192863 -0.000529787)
(0.0358729 0.000331168 -0.00083536)
(0.023201 3.40615e-05 -0.000341226)
(0.0384837 0.000130384 -0.000548014)
(0.0260758 -0.000286171 -5.92624e-05)
(0.0405726 -0.000146019 -0.000290463)
(0.00862025 1.0221e-05 -0.000620835)
(0.0304085 -6.16947e-05 -0.00125654)
(0.00749987 6.43646e-05 -0.000454775)
(0.0310921 5.11909e-05 -0.000710792)
(0.0299184 0.000368524 -0.00247157)
(0.0105242 8.19641e-05 -0.00119306)
(0.0300142 0.000392765 -0.00264933)
(0.00903974 0.000206965 -0.000979865)
(0.0297356 0.000502344 -0.00201754)
(0.00705412 8.72073e-05 -0.000754084)
(0.029651 0.000231388 -0.00124964)
(0.00463352 -3.46853e-05 -0.000502336)
(0.0293985 0.000141254 -0.000256098)
(0.0298975 0.00126229 -0.00246435)
(0.0114891 0.000635565 -0.00131503)
(0.030547 0.00150959 -0.00272302)
(0.0114341 0.000624561 -0.00115169)
(0.0308967 0.00148802 -0.00220466)
(0.0112295 0.000521361 -0.000996338)
(0.0314303 0.00134683 -0.00180399)
(0.0107053 0.000349563 -0.000928184)
(0.0321815 0.00103365 -0.00129913)
(0.0299946 0.000660905 -0.0022388)
(0.0134263 0.000313465 -0.00132389)
(0.031857 0.000647424 -0.00238014)
(0.0160102 0.000241981 -0.00134476)
(0.0334431 0.000488156 -0.00200683)
(0.018018 7.72742e-05 -0.00137626)
(0.0348944 0.000254321 -0.00166838)
(0.0193982 -0.000186816 -0.00122747)
(0.0361997 -2.92712e-05 -0.0013904)
(0.00457869 -0.000333499 -0.000500505)
(0.0296444 -8.19584e-05 -0.000654459)
(0.0297512 0.00037176 -0.00208646)
(0.00964815 4.85332e-05 -0.000988515)
(0.0289652 0.000127668 -0.00188415)
(0.00646111 -8.79575e-06 -0.000559488)
(0.0283093 -0.000138787 -0.00115768)
(0.0032232 -9.06374e-05 -0.000258218)
(0.0279483 -0.000568347 -0.000490334)
(0.000425411 -2.3116e-05 -4.43459e-05)
(0.0273916 -0.000515334 5.28513e-05)
(0.0298331 0.0012717 -0.0018595)
(0.0103668 0.000545512 -0.000914226)
(0.0296037 0.0014455 -0.00168554)
(0.00816901 0.000493713 -0.000619577)
(0.0291775 0.00123902 -0.00109762)
(0.00577858 0.00030869 -0.000351638)
(0.0290189 0.000730453 -0.000541481)
(0.00305064 0.000173731 -0.000154941)
(0.0290836 -9.64335e-05 -0.000117978)
(0.0299934 0.000716838 -0.00176924)
(0.0124752 0.000379907 -0.00102931)
(0.0310093 0.000892597 -0.00172927)
(0.013657 0.00035902 -0.000985755)
(0.0317562 0.000753398 -0.00128393)
(0.0145706 0.00016051 -0.000801543)
(0.0323921 0.000569626 -0.000782511)
(0.0145934 7.71244e-05 -0.000711156)
(0.0328343 0.000181108 -0.000474127)
(0.0297155 0.000573535 -0.00175807)
(0.00921534 0.000310101 -0.00072179)
(0.0289099 0.000805435 -0.00142583)
(0.00607395 0.000212291 -0.000497537)
(0.0283685 0.000643662 -0.000763425)
(0.0036158 0.000147748 -0.000261639)
(0.0282141 0.000496096 -5.85603e-05)
(0.00151803 8.18385e-05 -0.000156515)
(0.029704 0.00158828 -0.00148274)
(0.0108915 0.000790101 -0.000729152)
(0.02973 0.00176202 -0.00132956)
(0.00976323 0.000643837 -0.000656281)
(0.0298202 0.00157222 -0.00104084)
(0.00905971 0.000608033 -0.000505535)
(0.0303481 0.00133236 -0.000605593)
(0.0299846 0.000768623 -0.00135295)
(0.0129128 0.000355438 -0.000841641)
(0.0311192 0.000702989 -0.00139753)
(0.0141557 0.00024293 -0.000996391)
(0.0320269 0.000487899 -0.00130354)
(0.015224 0.000109556 -0.000796466)
)
;

boundaryField
{
    inlet
    {
        type            fixedValue;
        value           uniform (0.01 0 0);
    }
    outlet
    {
        type            zeroGradient;
    }
    wall
    {
        type            fixedValue;
        value           uniform (0 0 0);
    }
    procBoundary2to0
    {
        type            processor;
        value           nonuniform List<vector> 
44
(
(0.016487 -0.000357903 -0.000909799)
(0.0337665 -0.000411887 -0.00164712)
(0.0187401 -0.000108335 -0.000847673)
(0.0351738 -0.000281772 -0.00144814)
(0.0200867 1.12735e-06 -0.000581683)
(0.0361541 -0.000210483 -0.00108885)
(0.0301484 -0.000473529 -0.00161006)
(0.0135575 -0.000164411 -0.000786013)
(0.0322384 -0.00035927 -0.00160674)
(0.0322384 -0.00035927 -0.00160674)
(0.0100572 -3.13658e-06 -0.000961689)
(0.0301859 -4.06528e-05 -0.00199229)
(0.0076996 -3.73591e-06 -0.000488028)
(0.0297365 -6.18697e-05 -0.00100903)
(0.0052821 0.00013099 -0.000204729)
(0.0296171 9.67455e-05 -0.000409835)
(0.0297422 -0.000180824 -0.00274337)
(0.0107847 -7.8836e-05 -0.00127986)
(0.0300119 -0.000187457 -0.00269654)
(0.0100572 -3.13658e-06 -0.000961689)
(0.0301859 -4.06528e-05 -0.00199229)
(0.0301859 -4.06528e-05 -0.00199229)
(0.00523209 -0.000290386 -0.000458071)
(0.0292475 -0.000506698 -0.000808885)
(0.00344113 -9.97856e-05 -0.000506617)
(0.028753 -0.000350561 1.7176e-05)
(0.0295942 -0.000352002 -0.00203047)
(0.00952635 -0.000184504 -0.00108153)
(0.0290995 -0.00046093 -0.00206216)
(0.00694486 -0.000197433 -0.000604867)
(0.0289851 -0.000504584 -0.0012137)
(0.00523209 -0.000290386 -0.000458071)
(0.0292475 -0.000506698 -0.000808885)
(0.0292475 -0.000506698 -0.000808885)
(0.00356807 0.000197927 -0.000421846)
(0.0285631 -2.56586e-05 -0.000416812)
(0.0296819 -0.000134111 -0.0013778)
(0.00967442 4.01548e-05 -0.000796644)
(0.0291015 0.000184952 -0.00142417)
(0.00668141 0.000141521 -0.000544879)
(0.0287745 0.000301232 -0.00114663)
(0.00479394 0.000156913 -0.00045057)
(0.0288998 -2.71711e-05 -0.000877228)
(0.00356807 0.000197927 -0.000421846)
)
;
    }
    procBoundary2to3
    {
        type            processor;
        value           nonuniform List<vector> 
12
(
(0.0225241 -0.000378285 -0.00023786)
(0.0168875 -0.000450732 -0.000152801)
(0.0222678 0.000629735 0.000120208)
(0.0279833 -0.000659777 8.43958e-05)
(0.00685915 5.2328e-05 -0.000527441)
(0.00234159 -3.41622e-05 -0.000325454)
(0.0102258 0.000474949 -0.000986943)
(0.0202332 -0.000565562 -0.00135026)
(0.00392115 -0.000366636 -0.000734733)
(1.53483e-08 -1.25643e-09 1.27465e-09)
(0.000853155 8.19266e-05 -4.49854e-05)
(0.0138694 -0.000110002 -0.000647498)
)
;
    }
    procBoundary2to6
    {
        type            processor;
        value           nonuniform List<vector> 
32
(
(0.0282328 0.000601882 -0.000214233)
(0.00883899 0.00066459 -0.00053989)
(0.0310712 0.000938546 -0.000341808)
(0.0330064 0.000238469 -0.000898909)
(0.0160584 -0.000198956 -0.000978405)
(0.0339637 -0.000118455 -0.000961681)
(0.0294727 0.000254255 -0.00057991)
(0.00837694 0.000162816 -0.000183671)
(0.0278154 0.000235702 -0.000402468)
(0.00371134 4.52954e-05 -0.000122826)
(0.0270929 1.3878e-05 -0.000236537)
(0.000556504 5.9418e-06 -2.19505e-05)
(0.0265489 -0.000243567 -0.000138853)
(0.0282328 0.000601882 -0.000214233)
(0.00883899 0.00066459 -0.00053989)
(1.19907e-08 2.53526e-10 -8.71613e-10)
(0.0297513 0.00168002 -0.000550958)
(0.00973097 0.000619596 -0.000313554)
(0.0290301 0.00158581 -0.000551218)
(0.00669558 0.000453015 -0.000330701)
(0.0285495 0.000908011 -0.000504085)
(0.00386455 0.000274643 -0.000250507)
(0.00883899 0.00066459 -0.00053989)
(0.0330064 0.000238469 -0.000898909)
(0.0281807 0.000117243 -0.000509378)
(0.0300709 0.000882163 -0.000573045)
(0.0125571 0.000402516 -0.00038898)
(0.0306568 0.000921366 -0.000614677)
(0.0129505 0.000281452 -0.000593842)
(0.0309663 0.000619565 -0.000628612)
(0.0330064 0.000238469 -0.000898909)
(0.0123244 0.000158166 -0.000616059)
)
;
    }
}


// ************************************************************************* //
