/*--------------------------------*- C++ -*----------------------------------*\
| =========                 |                                                 |
| \\      /  F ield         | OpenFOAM: The Open Source CFD Toolbox           |
|  \\    /   O peration     | Version:  4.x                                   |
|   \\  /    A nd           | Web:      www.OpenFOAM.org                      |
|    \\/     M anipulation  |                                                 |
\*---------------------------------------------------------------------------*/
FoamFile
{
    version     2.0;
    format      ascii;
    class       volScalarField;
    location    "31.5";
    object      Cs;
}
// * * * * * * * * * * * * * * * * * * * * * * * * * * * * * * * * * * * * * //

dimensions      [1 -3 0 0 0 0 0];

internalField   nonuniform List<scalar> 
108
(
334.999
334.998
334.997
334.996
334.994
334.993
334.992
334.992
335.177
334.999
334.999
334.999
334.998
334.998
334.997
334.996
334.995
335.714
334.999
334.999
334.998
334.997
334.995
334.993
334.99
334.987
335.63
335
334.999
334.999
334.999
334.998
334.998
334.997
334.996
342.053
334.999
334.997
334.993
334.988
334.98
334.974
334.961
334.961
334.764
334.999
334.998
334.996
334.994
334.989
334.984
334.973
334.97
334.795
334.999
334.999
334.998
334.996
334.993
334.99
334.982
334.979
334.729
335
334.999
334.999
334.999
334.998
334.998
334.996
334.995
334.544
334.995
334.988
334.976
334.965
334.952
334.943
334.93
334.931
334.85
334.998
334.996
334.992
334.985
334.975
334.964
334.95
334.944
334.807
334.999
334.997
334.994
334.989
334.981
334.973
334.962
334.959
334.836
335
334.999
334.999
334.999
334.998
334.997
334.993
334.991
334.691
)
;

boundaryField
{
    inlet
    {
        type            calculated;
        value           nonuniform 0();
    }
    outlet
    {
        type            calculated;
        value           uniform 335;
    }
    wall
    {
        type            calculated;
        value           nonuniform List<scalar> 
63
(
334.999
334.999
334.999
335
334.998
334.999
334.999
334.999
334.997
334.999
334.998
334.999
334.996
334.998
334.997
334.999
334.994
334.998
334.995
334.998
334.993
334.997
334.993
334.998
334.992
334.996
334.99
334.997
334.992
334.995
334.987
334.996
335.177
335.714
335.63
342.053
335
335
335
334.999
334.999
334.999
334.999
334.999
334.999
334.999
334.999
334.999
334.998
334.998
334.998
334.998
334.998
334.997
334.997
334.996
334.993
334.996
334.995
334.991
342.053
334.544
334.691
)
;
    }
    procBoundary3to1
    {
        type            processor;
        value           nonuniform List<scalar> 
27
(
334.999
334.999
334.999
334.998
334.997
334.997
334.994
334.993
334.982
334.998
334.996
334.993
334.988
334.98
334.974
334.96
334.962
334.86
334.995
334.989
334.981
334.974
334.965
334.957
334.947
334.944
334.844
)
;
    }
    procBoundary3to2
    {
        type            processor;
        value           nonuniform List<scalar> 
12
(
335
335
334.999
335
334.999
334.999
335
335
334.998
334.999
334.999
335
)
;
    }
    procBoundary3to7
    {
        type            processor;
        value           nonuniform List<scalar> 
36
(
334.998
334.996
334.991
334.984
334.977
334.965
334.955
334.943
334.915
334.999
334.997
334.994
334.99
334.985
334.976
334.967
334.958
334.892
334.999
334.998
334.997
334.995
334.992
334.987
334.98
334.974
334.823
335
335
334.999
334.999
334.998
334.998
334.995
334.993
334.779
)
;
    }
}


// ************************************************************************* //
