/*--------------------------------*- C++ -*----------------------------------*\
| =========                 |                                                 |
| \\      /  F ield         | OpenFOAM: The Open Source CFD Toolbox           |
|  \\    /   O peration     | Version:  4.x                                   |
|   \\  /    A nd           | Web:      www.OpenFOAM.org                      |
|    \\/     M anipulation  |                                                 |
\*---------------------------------------------------------------------------*/
FoamFile
{
    version     2.0;
    format      ascii;
    class       volVectorField;
    location    "31.5";
    object      GField;
}
// * * * * * * * * * * * * * * * * * * * * * * * * * * * * * * * * * * * * * //

dimensions      [1 -2 -1 0 0 0 0];

internalField   nonuniform List<vector> 
108
(
(69.5441 -0.0918309 -0.694627)
(124.801 0.380424 -1.87222)
(69.7996 0.744065 -0.919021)
(129.39 0.364736 -0.01782)
(65.1069 -0.791162 -1.12179)
(131.037 -1.02837 4.88796)
(48.9785 -4.87407 -3.03296)
(126.434 -1.19561 12.1074)
(17.6899 -11.5358 -6.09857)
(60.1752 0.0776597 -0.790543)
(117.694 0.142989 -1.06771)
(59.1398 1.11716 -0.873284)
(122.41 0.721415 1.07445)
(53.724 2.97262 -0.780768)
(123.765 1.84968 5.83162)
(38.0301 6.63942 -1.38273)
(115.394 -0.790902 13.4473)
(13.8443 8.67312 -3.73663)
(70.8677 1.09719 -0.651412)
(125.545 1.22469 -1.10688)
(71.4675 1.08496 0.330507)
(132.153 0.383649 0.79745)
(68.1111 4.12631 1.99669)
(139.861 -0.131109 5.27541)
(55.456 11.6527 2.96821)
(151.006 -6.81609 10.5507)
(25.8594 31.5158 -3.21214)
(92.6765 -0.296464 -1.31221)
(141.295 0.0732144 -1.37647)
(95.2041 -1.18215 -0.863819)
(147.821 -1.20398 -0.200359)
(92.5111 -0.231755 -0.295329)
(159.48 -1.79454 2.56285)
(81.9584 3.29346 1.18207)
(182.105 -4.56369 8.56882)
(48.2859 18.0028 -50.3374)
(18.666 0.358176 -1.9628)
(98.598 1.63819 -0.719552)
(12.6806 0.679184 -1.97869)
(99.5447 1.11415 2.25126)
(7.49342 0.736097 -2.00452)
(99.556 -1.24042 7.63886)
(5.77899 1.07529 -2.85601)
(95.3893 -7.4056 21.7585)
(11.4432 4.96535 -11.5332)
(17.8691 0.0404061 -1.3253)
(98.8719 0.967952 -1.03347)
(15.3014 0.803314 -1.76598)
(100.859 0.712717 1.64436)
(13.1158 1.89329 -2.45361)
(101.596 -0.149486 6.02394)
(11.0231 4.24997 -2.90371)
(97.8725 -6.96051 13.1132)
(10.875 14.0156 -5.77595)
(26.7075 0.377174 -1.78964)
(103.545 0.917074 -1.77777)
(24.4748 0.630004 -2.24424)
(109.135 -1.12301 1.72413)
(23.1496 2.35227 -3.57212)
(118.592 -4.61471 7.91221)
(23.9517 8.26343 -7.26456)
(133.614 -14.3263 19.4562)
(19.8877 41.3459 -29.285)
(64.1183 -0.632005 -2.82885)
(120.729 0.140282 -2.27472)
(63.8742 -1.79493 -3.35367)
(126.431 -1.61215 -0.712402)
(59.7501 -1.78038 -4.64763)
(138.099 -3.68217 2.83758)
(50.7075 1.24409 -5.5818)
(166.267 -6.32293 11.2515)
(28.5371 21.6411 -51.655)
(1.08445 -0.0297261 -0.348929)
(87.5908 -0.826748 0.745867)
(-1.63369e-05 -1.55267e-06 1.68324e-05)
(86.1053 -0.683958 2.65512)
(-1.20735e-05 -7.71166e-06 -2.07341e-05)
(83.4871 -0.937849 5.49204)
(3.14938e-06 -1.92687e-06 -5.80932e-05)
(73.8485 -1.12307 15.0233)
(20.4953 0.899501 -9.18227)
(5.74339 0.240132 -1.07039)
(92.0907 -0.72937 0.0157965)
(1.40623 0.138149 -0.384744)
(92.7724 0.550069 2.8365)
(0.500233 0.0967622 -0.208086)
(93.7241 2.5848 8.18092)
(2.43536 0.93111 -1.35792)
(92.8948 -2.60897 16.9034)
(10.2873 5.29997 -6.14741)
(6.53525 0.309436 -0.723683)
(93.7565 0.581998 -0.283339)
(1.39814 0.108145 -0.243781)
(95.7544 -0.990174 1.68657)
(3.22793 0.644666 -0.913638)
(96.0729 -2.56455 4.61223)
(13.8733 6.36402 -5.66383)
(90.4895 -8.40311 9.95714)
(26.577 35.4788 -15.7702)
(49.9054 0.686464 -3.87305)
(110.643 0.921222 -2.37071)
(49.8842 0.622394 -5.35657)
(115.567 -1.30027 -1.49201)
(47.0032 2.67674 -8.64557)
(124.64 -3.09493 0.156628)
(41.7595 9.00615 -14.4855)
(149.241 -8.2035 6.37982)
(24.1127 32.8575 -26.0688)
)
;

boundaryField
{
    inlet
    {
        type            calculated;
        value           nonuniform 0();
    }
    outlet
    {
        type            calculated;
        value           nonuniform List<vector> 
12
(
(36.8438 -24.0264 -12.7019)
(28.9415 18.1312 -7.81145)
(53.8589 65.6399 -6.69012)
(98.3944 36.6851 -102.575)
(24.6001 10.6743 -24.7934)
(23.3456 30.0876 -12.3993)
(42.6685 88.7067 -62.8304)
(60.8287 46.1294 -110.106)
(44.6972 1.96168 -20.0251)
(22.4222 11.5518 -13.3988)
(57.7496 77.0927 -34.2674)
(52.6014 71.6781 -56.8685)
)
;
    }
    wall
    {
        type            calculated;
        value           uniform (0 0 0);
    }
    procBoundary3to1
    {
        type            processor;
        value           nonuniform List<vector> 
27
(
(67.7416 -0.15262 -2.04282)
(122.691 0.149901 -2.69547)
(66.2337 0.353551 -2.86032)
(126.868 0.974969 -0.817321)
(61.3642 -1.58349 -5.86525)
(134.42 1.22464 3.80341)
(51.3075 -7.70344 -12.5766)
(149.507 4.97259 15.4208)
(29.0251 -23.7232 -32.1851)
(13.1147 0.276598 -0.690177)
(96.9474 -0.267913 0.654227)
(4.45122 0.150834 -0.373189)
(96.9227 0.801796 3.20602)
(-2.10106e-05 -1.20861e-05 -2.07502e-05)
(93.1279 1.93094 7.46797)
(3.4152 -0.53995 -1.24341)
(84.309 5.542 15.0175)
(25.0899 -14.5708 -25.6835)
(4.04731 -0.356974 -0.96314)
(91.5433 0.330892 0.987923)
(4.00546 -0.591098 -1.36575)
(92.2742 0.730755 1.83881)
(6.7796 -1.97933 -3.19444)
(92.1768 0.61189 4.67745)
(13.4234 -7.71404 -8.14032)
(87.7561 9.05662 11.9891)
(28.8392 -26.6832 -13.5528)
)
;
    }
    procBoundary3to2
    {
        type            processor;
        value           nonuniform List<vector> 
12
(
(120.383 -0.000480403 -2.48925)
(114.762 0.0420173 -2.21868)
(120.749 1.59214 -2.14322)
(134.433 0.983833 -1.96228)
(96.6571 0.939553 -2.1652)
(96.6181 0.355803 -2.54039)
(100.782 1.80191 -3.42207)
(116.469 1.33945 -3.63739)
(88.192 -0.69102 -0.928204)
(91.3452 -0.979103 -1.52806)
(92.2509 1.24999 -0.827666)
(106.63 1.73459 -2.6525)
)
;
    }
    procBoundary3to7
    {
        type            processor;
        value           nonuniform List<vector> 
36
(
(3.46525e-06 -1.97203e-06 1.61236e-05)
(84.2585 0.911102 -0.0977683)
(-2.2054e-06 4.63191e-06 1.52608e-05)
(85.0996 1.95238 1.14457)
(-5.93884e-07 7.42994e-06 -7.50317e-06)
(84.4612 1.42133 4.14611)
(6.85385e-06 9.12666e-06 -2.84158e-05)
(76.8858 -4.5201 9.79317)
(20.8268 4.20359 -0.784476)
(2.63233 0.551683 -0.432734)
(84.4753 0.608943 -0.159417)
(0.896977 0.265038 -0.207236)
(83.8797 0.446626 0.318592)
(5.07598 1.98412 -1.35423)
(82.3824 0.260309 2.62814)
(16.2477 8.59617 -5.10625)
(76.4041 -7.26237 8.65619)
(34.5819 24.9883 -10.2412)
(17.6344 1.82302 -1.76399)
(93.6496 0.702434 -0.352737)
(15.5468 2.435 -2.39603)
(96.0047 -1.44584 -0.928322)
(14.8567 3.93061 -3.66467)
(99.5481 -5.62854 -0.430139)
(16.2194 7.71046 -6.39741)
(104.98 -14.6316 8.50555)
(14.8118 15.6816 -7.95455)
(47.6828 0.0929998 -3.92364)
(106.052 0.181492 -3.00166)
(45.0407 0.0164342 -5.21232)
(108.189 -0.662313 -2.76193)
(39.6724 0.306499 -7.68327)
(109.544 -1.38258 -0.701697)
(29.6739 0.795066 -11.8856)
(110.494 -1.82837 8.69546)
(14.1083 0.527616 -15.5332)
)
;
    }
}


// ************************************************************************* //
