/*--------------------------------*- C++ -*----------------------------------*\
| =========                 |                                                 |
| \\      /  F ield         | OpenFOAM: The Open Source CFD Toolbox           |
|  \\    /   O peration     | Version:  4.x                                   |
|   \\  /    A nd           | Web:      www.OpenFOAM.org                      |
|    \\/     M anipulation  |                                                 |
\*---------------------------------------------------------------------------*/
FoamFile
{
    version     2.0;
    format      ascii;
    class       volScalarField;
    location    "31.5";
    object      p;
}
// * * * * * * * * * * * * * * * * * * * * * * * * * * * * * * * * * * * * * //

dimensions      [1 -1 -2 0 0 0 0];

internalField   nonuniform List<scalar> 
108
(
5652.51
5708.46
5632.92
5702.57
5612.8
5698.14
5592.12
5695.47
5571.14
5652.87
5708.51
5633.09
5702.59
5613.04
5697.92
5592.58
5694.95
5573.25
5652.52
5708.44
5632.51
5702.54
5611.84
5698.09
5589.46
5696.35
5564.35
5652.76
5708.45
5633.13
5702.73
5611.76
5698.51
5588.26
5698.06
5558.77
3774.53
3830.91
3755.1
3824.58
3735.35
3819.06
3716.17
3814.77
3698.58
3774.97
3830.76
3755.39
3824.34
3735.58
3818.65
3715.99
3814.13
3697.91
3774.54
3830.72
3754.44
3824.51
3733.41
3819.27
3711.21
3816.59
3687.5
3774.93
3830.64
3755.13
3824.7
3733.9
3819.91
3710.42
3818.25
3680.95
1898.09
1952.71
1879.4
1946.29
1860.97
1940.91
1843.21
1935.29
1827.73
1897.95
1952.84
1878.96
1946.37
1860.13
1940.85
1840.92
1936.66
1822.19
1897.47
1952.88
1878.11
1946.21
1858.72
1940.36
1839.2
1935.72
1822.3
1897.41
1952.75
1877.99
1946.61
1857.49
1941.43
1834.94
1938.85
1807.72
)
;

boundaryField
{
    inlet
    {
        type            calculated;
        value           nonuniform 0();
    }
    outlet
    {
        type            calculated;
        value           nonuniform List<scalar> 
12
(
5633.74
5633.74
5633.74
5633.74
3755.83
3755.83
3755.83
3755.83
1877.91
1877.91
1877.91
1877.91
)
;
    }
    wall
    {
        type            calculated;
        value           nonuniform List<scalar> 
63
(
6591.47
6591.83
6591.47
6591.72
6647.41
6647.46
6647.39
6647.4
6571.87
6572.04
6571.46
6572.08
6641.52
6641.54
6641.49
6641.68
6551.74
6551.99
6550.79
6550.71
6637.08
6636.87
6637.03
6637.46
6531.06
6531.53
6528.39
6527.21
6634.4
6633.89
6635.27
6637.01
6510.59
6514.21
6505.08
6517.5
5652.76
3774.93
1897.41
5708.45
3830.64
1952.75
5633.13
3755.13
1877.99
5702.73
3824.7
1946.61
5611.76
3733.9
1857.49
5698.51
3819.91
1941.43
5588.26
3710.42
1834.94
5698.06
3818.25
1938.85
5558.77
3680.95
1807.72
)
;
    }
    procBoundary3to1
    {
        type            processor;
        value           nonuniform List<scalar> 
27
(
5652.82
5708.59
5633.26
5702.55
5612.67
5697.75
5590.7
5695.28
5565.43
3775.21
3831.09
3756
3824.52
3736.78
3818.3
3718.28
3812.41
3702.5
1897.63
1952.63
1878.73
1946.19
1859.45
1940.65
1840.31
1936.59
1822.7
)
;
    }
    procBoundary3to2
    {
        type            processor;
        value           nonuniform List<scalar> 
12
(
5715.14
5715.2
5715.14
5714.94
3837.65
3837.65
3837.59
3837.31
1959.66
1959.82
1959.89
1959.58
)
;
    }
    procBoundary3to7
    {
        type            processor;
        value           nonuniform List<scalar> 
36
(
22.809
75.0097
4.62136
68.4615
-13.6531
62.5422
-32.0851
56.3996
-48.6835
21.5846
74.8904
3.19275
68.0174
-14.856
61.3841
-32.6218
55.0897
-48.4397
20.1818
74.9275
0.987382
68.4207
-18.4764
62.6316
-38.765
58.6825
-59.364
20.2587
74.9034
1.02104
68.5727
-18.6495
63.0022
-39.2437
59.0962
-59.6922
)
;
    }
}


// ************************************************************************* //
