/*--------------------------------*- C++ -*----------------------------------*\
| =========                 |                                                 |
| \\      /  F ield         | OpenFOAM: The Open Source CFD Toolbox           |
|  \\    /   O peration     | Version:  4.x                                   |
|   \\  /    A nd           | Web:      www.OpenFOAM.org                      |
|    \\/     M anipulation  |                                                 |
\*---------------------------------------------------------------------------*/
FoamFile
{
    version     2.0;
    format      ascii;
    class       volScalarField;
    location    "31.5";
    object      QPartFluidCoeff;
}
// * * * * * * * * * * * * * * * * * * * * * * * * * * * * * * * * * * * * * //

dimensions      [1 -1 -3 -1 0 0 0];

internalField   nonuniform List<scalar> 
108
(
-2.82194e+07
-1.28303e+07
-2.23197e+07
-1.0795e+07
-1.64376e+07
-1.25477e+07
-1.82183e+07
-1.70649e+07
-9.09949e+06
-2.0992e+07
-2.97768e+07
-1.67968e+07
-1.8684e+07
-2.06876e+07
-1.70675e+07
-2.03335e+07
-1.89369e+07
-1.23733e+07
-2.2125e+07
-2.26982e+07
-2.36334e+07
-1.65093e+07
-1.96968e+07
-1.79185e+07
-2.24894e+07
-2.33998e+07
-1.30729e+07
-1.44927e+07
-1.43741e+07
-1.56333e+07
-2.23094e+07
-1.84043e+07
-1.84581e+07
-1.20968e+07
-1.85947e+07
-1.51405e+07
-2.84276e+07
-2.67829e+07
-3.39229e+07
-3.51565e+07
-2.78318e+07
-2.61537e+07
-2.22935e+07
-2.76997e+07
-2.41975e+07
-2.59107e+07
-2.71197e+07
-2.7974e+07
-3.0351e+07
-2.58952e+07
-2.69584e+07
-3.19787e+07
-2.99495e+07
-1.91785e+07
-4.24867e+07
-3.31265e+07
-3.01316e+07
-3.80368e+07
-2.83091e+07
-3.39613e+07
-2.72422e+07
-3.29024e+07
-2.57189e+07
-2.81152e+07
-2.38935e+07
-2.43798e+07
-2.68309e+07
-3.06435e+07
-2.55667e+07
-2.43219e+07
-2.89903e+07
-1.84292e+07
-2.69841e+07
-3.61247e+07
-3.00115e+07
-3.38859e+07
-2.15387e+07
-2.55036e+07
-2.97267e+07
-2.78207e+07
-2.28303e+07
-3.22296e+07
-2.0777e+07
-2.722e+07
-1.67927e+07
-1.46512e+07
-3.18443e+07
-2.57136e+07
-3.696e+07
-1.71222e+07
-2.02036e+07
-3.45603e+07
-3.07055e+07
-2.43422e+07
-2.46587e+07
-3.33529e+07
-2.72081e+07
-3.12212e+07
-1.64984e+07
-2.94242e+07
-1.64042e+07
-1.9545e+07
-2.35604e+07
-2.17983e+07
-2.92427e+07
-2.19965e+07
-3.23882e+07
-2.59044e+07
)
;

boundaryField
{
    inlet
    {
        type            calculated;
        value           nonuniform 0();
    }
    outlet
    {
        type            calculated;
        value           uniform 0;
    }
    wall
    {
        type            calculated;
        value           uniform 0;
    }
    procBoundary3to1
    {
        type            processor;
        value           nonuniform List<scalar> 
27
(
298.959
537.763
471.821
676.291
473.959
436.981
424.524
466.035
314.565
602.13
643.949
543.913
516.243
433.978
696.755
699.179
983.503
325.874
705.29
592.595
410.884
836.862
663.887
801.19
561.659
731.131
255.025
)
;
    }
    procBoundary3to2
    {
        type            processor;
        value           nonuniform List<scalar> 
12
(
348.197
340.031
492.93
301.158
848.741
488.232
583.822
364.857
693.758
436.965
776.441
586.924
)
;
    }
    procBoundary3to7
    {
        type            processor;
        value           nonuniform List<scalar> 
36
(
751.265
683.149
481.515
597.996
834.791
943.759
605.546
502.059
488.834
567.731
857.559
558.543
613.553
635.354
525.295
600.279
587.224
526.586
393.979
708.551
516.495
673.571
620.03
789.584
647.298
689.663
518.174
532.674
567.455
674.711
450.984
595.892
604.031
606.137
527.796
270.553
)
;
    }
}


// ************************************************************************* //
