/*--------------------------------*- C++ -*----------------------------------*\
| =========                 |                                                 |
| \\      /  F ield         | OpenFOAM: The Open Source CFD Toolbox           |
|  \\    /   O peration     | Version:  4.x                                   |
|   \\  /    A nd           | Web:      www.OpenFOAM.org                      |
|    \\/     M anipulation  |                                                 |
\*---------------------------------------------------------------------------*/
FoamFile
{
    version     2.0;
    format      ascii;
    class       volScalarField;
    location    "49.5";
    object      KslNext;
}
// * * * * * * * * * * * * * * * * * * * * * * * * * * * * * * * * * * * * * //

dimensions      [1 -3 -1 0 0 0 0];

internalField   nonuniform List<scalar> 
132
(
3317.18
6833.32
3087.31
5255.71
2904.76
4528.97
2789.85
4086.2
2616.89
3336.21
7300.34
3195.17
5887.95
3048.14
5162
2929.03
4694.21
2817.92
3346.87
7668.5
3258.7
6394.53
3186.66
5733.58
3076.48
5389.96
3038.19
3365.28
7556.74
3227.6
3368.04
7934.99
3297.26
7033.66
3260.48
6500.04
3217.09
6157.69
3117.1
3399.45
9083.11
3468.4
9109.03
3534.97
9616.77
3535
10382.2
3486.95
3435.87
10109.4
3558.46
11486.4
3674.4
14366.1
3744.82
21264.3
3714.28
3485.47
9716.03
3572.39
10721.8
3664.07
3400.79
8105.06
3378.42
7403.21
3324.66
6881.43
3250.29
6511.95
3119.39
3456.74
9441.78
3551.85
10094.4
3608.75
10991.1
3598.03
12008.7
3483.38
3499.97
10732
3689.51
14870.9
3821.51
21597.9
3837.2
29595.3
3758.44
3530.94
11078.3
3730.39
15527.7
3798.73
20591
3763.84
3384.98
8179.01
3391.24
7685.23
3368.69
7551.04
3356.35
7718.57
3324.75
3456.61
10206.2
3626.52
12754.7
3702.13
16776.1
3759.3
26656.6
3732.84
3511.58
11712.2
3780.16
21975.6
3930.17
79770.9
4033.28
1e+10
4099.48
3503.42
11062
3747.2
16920.6
3787.29
24984.6
3776.51
35443.2
3729.41
)
;

boundaryField
{
    inlet
    {
        type            zeroGradient;
    }
    outlet
    {
        type            zeroGradient;
    }
    wall
    {
        type            zeroGradient;
    }
    procBoundary0to1
    {
        type            processor;
        value           uniform 0;
    }
    procBoundary0to2
    {
        type            processor;
        value           uniform 0;
    }
    procBoundary0to4
    {
        type            processor;
        value           uniform 0;
    }
    procBoundary0to6
    {
        type            processor;
        value           uniform 0;
    }
    procBoundary0to7
    {
        type            processor;
        value           uniform 0;
    }
}


// ************************************************************************* //
