/*--------------------------------*- C++ -*----------------------------------*\
| =========                 |                                                 |
| \\      /  F ield         | OpenFOAM: The Open Source CFD Toolbox           |
|  \\    /   O peration     | Version:  4.x                                   |
|   \\  /    A nd           | Web:      www.OpenFOAM.org                      |
|    \\/     M anipulation  |                                                 |
\*---------------------------------------------------------------------------*/
FoamFile
{
    version     2.0;
    format      ascii;
    class       volScalarField;
    location    "49.5";
    object      QPartFluidCoeff;
}
// * * * * * * * * * * * * * * * * * * * * * * * * * * * * * * * * * * * * * //

dimensions      [1 -1 -3 -1 0 0 0];

internalField   nonuniform List<scalar> 
132
(
-1.72807e+07
-1.41906e+07
-1.23338e+07
-9.8814e+06
-1.4399e+07
-1.49604e+07
-1.96005e+07
-1.31295e+07
-6.72496e+06
-1.54989e+07
-1.70057e+07
-1.84186e+07
-1.86538e+07
-1.2801e+07
-2.23874e+07
-1.77103e+07
-1.93007e+07
-1.74775e+07
-1.03896e+07
-1.95799e+07
-1.91565e+07
-1.68785e+07
-1.8549e+07
-1.62969e+07
-1.32677e+07
-1.72363e+07
-2.83522e+07
-9.92883e+06
-1.51101e+07
-1.16963e+07
-1.42264e+07
-2.32475e+07
-2.87922e+07
-2.52363e+07
-2.58213e+07
-2.53322e+07
-2.3735e+07
-2.25706e+07
-2.4198e+07
-1.66077e+07
-3.1526e+07
-2.67224e+07
-2.83304e+07
-3.20141e+07
-2.87127e+07
-3.06692e+07
-3.06403e+07
-2.98949e+07
-1.76727e+07
-3.14929e+07
-2.80283e+07
-2.51042e+07
-3.0243e+07
-2.24591e+07
-3.50499e+07
-2.29671e+07
-2.11501e+07
-2.65455e+07
-2.34574e+07
-2.59867e+07
-1.83705e+07
-3.77235e+07
-1.86196e+07
-2.32352e+07
-2.71291e+07
-2.3231e+07
-2.49725e+07
-1.89088e+07
-2.68595e+07
-2.35548e+07
-1.80576e+07
-2.08251e+07
-2.76043e+07
-2.66293e+07
-2.30773e+07
-3.0932e+07
-2.24001e+07
-3.15114e+07
-3.3949e+07
-3.3804e+07
-2.23626e+07
-2.40197e+07
-2.69743e+07
-3.10056e+07
-3.27781e+07
-2.69184e+07
-3.06765e+07
-2.14351e+07
-1.79761e+07
-2.3018e+07
-2.89019e+07
-3.19167e+07
-3.00047e+07
-3.32532e+07
-2.68058e+07
-2.92628e+07
-1.45149e+07
-1.66259e+07
-2.2564e+07
-1.72839e+07
-2.36152e+07
-2.59034e+07
-1.96734e+07
-1.44272e+07
-2.01277e+07
-1.71224e+07
-3.19841e+07
-3.03077e+07
-2.6951e+07
-2.39958e+07
-2.20802e+07
-3.47619e+07
-2.39342e+07
-2.30941e+07
-1.72956e+07
-1.86128e+07
-3.01755e+07
-2.03366e+07
-2.89826e+07
-2.80007e+07
-2.74784e+07
-1.64828e+07
-3.1111e+07
-1.6094e+07
-2.24501e+07
-3.27897e+07
-3.41308e+07
-1.83934e+07
-3.28135e+07
-2.85841e+07
-1.86051e+07
-8.74167e+06
)
;

boundaryField
{
    inlet
    {
        type            calculated;
        value           uniform 0;
    }
    outlet
    {
        type            calculated;
        value           nonuniform 0();
    }
    wall
    {
        type            calculated;
        value           uniform 0;
    }
    procBoundary0to1
    {
        type            processor;
        value           nonuniform List<scalar> 
12
(
324.808
342.667
298.411
561.356
681.634
598.051
538.155
489.916
714.168
488.89
593.993
445.982
)
;
    }
    procBoundary0to2
    {
        type            processor;
        value           nonuniform List<scalar> 
44
(
539.37
422.789
230.77
451.362
274.918
347.652
439.633
523.915
539.37
463.586
539.37
422.789
744.392
929.892
499.868
848.634
357.712
599.821
724.998
693.185
744.392
671.176
744.392
929.892
610.324
702.993
518.572
433.363
509.751
517.743
510.236
578.43
610.324
741.417
610.324
702.993
370.245
717.017
778.617
540.933
622.819
474.519
573.529
567.651
)
;
    }
    procBoundary0to4
    {
        type            processor;
        value           nonuniform List<scalar> 
36
(
372.222
537.311
636.947
452.025
541.037
453.021
676.063
519.64
729.539
530.465
551.643
709.701
759.087
764.682
649.627
615.613
436.745
839.848
505.573
776.996
628.672
708.725
614.416
477.091
552.78
778.592
509.83
261.402
509.002
710.647
431.808
665.958
505.447
834.526
453.807
534.757
)
;
    }
    procBoundary0to6
    {
        type            processor;
        value           uniform 613.45;
    }
    procBoundary0to7
    {
        type            processor;
        value           uniform 766.852;
    }
}


// ************************************************************************* //
