/*--------------------------------*- C++ -*----------------------------------*\
| =========                 |                                                 |
| \\      /  F ield         | OpenFOAM: The Open Source CFD Toolbox           |
|  \\    /   O peration     | Version:  4.x                                   |
|   \\  /    A nd           | Web:      www.OpenFOAM.org                      |
|    \\/     M anipulation  |                                                 |
\*---------------------------------------------------------------------------*/
FoamFile
{
    version     2.0;
    format      ascii;
    class       volVectorField;
    location    "49.5";
    object      UsPrev;
}
// * * * * * * * * * * * * * * * * * * * * * * * * * * * * * * * * * * * * * //

dimensions      [0 1 -1 0 0 0 0];

internalField   nonuniform List<vector> 
132
(
(4.19142e-10 -2.11926e-10 -1.87248e-10)
(5.06541e-10 -4.69141e-10 -4.56467e-10)
(-3.89923e-09 -2.38679e-10 -1.22861e-09)
(-1.5216e-09 9.14003e-10 1.075e-09)
(1.23703e-09 6.80665e-10 6.59197e-10)
(1.0106e-09 2.98736e-10 4.58331e-10)
(2.8153e-10 3.91646e-10 7.95658e-10)
(-1.81971e-10 4.74804e-10 5.39165e-11)
(-6.62059e-11 1.48223e-10 4.2656e-10)
(1.64129e-10 -3.63347e-10 -1.06689e-10)
(4.9882e-11 -8.52046e-10 -2.33931e-10)
(-1.67498e-09 -1.03278e-09 -5.47015e-11)
(-8.58858e-10 1.16005e-09 4.78857e-10)
(1.10546e-10 8.32294e-10 5.83479e-10)
(9.05039e-10 4.52014e-10 5.43536e-10)
(1.45805e-09 1.88287e-10 7.67802e-10)
(2.12813e-09 4.12822e-11 1.57315e-09)
(2.96625e-09 -2.1585e-09 3.81696e-09)
(5.43818e-11 -4.72327e-10 -4.17453e-11)
(-5.43871e-11 -5.47433e-10 -2.3772e-11)
(-4.27458e-10 -5.88364e-10 7.12903e-11)
(-4.26615e-11 4.02827e-10 2.13739e-10)
(1.38291e-10 7.04763e-10 4.30408e-10)
(9.95864e-10 2.64649e-10 4.41465e-10)
(1.39558e-09 7.51574e-11 7.66994e-10)
(1.97222e-09 -8.33061e-10 1.54005e-09)
(2.01811e-09 -1.82075e-09 2.21277e-09)
(-7.8935e-11 -3.67688e-10 -5.38774e-11)
(3.594e-11 -3.09258e-10 3.65131e-11)
(7.60628e-11 -2.50464e-10 5.8246e-11)
(1.49522e-10 -1.36985e-10 -4.79242e-10)
(-1.10752e-10 -2.95245e-10 -8.86843e-10)
(-1.17687e-09 -1.8005e-10 -1.14842e-09)
(-1.53146e-09 4.28538e-10 1.513e-09)
(8.03127e-12 3.06884e-10 9.61177e-10)
(3.62859e-10 1.82834e-10 5.90321e-10)
(2.07162e-10 4.87035e-11 7.62658e-10)
(3.47401e-10 2.43698e-10 -4.20205e-10)
(-1.55103e-09 -1.28645e-09 3.17157e-09)
(9.7702e-12 -2.9939e-10 -2.83894e-10)
(-2.55948e-10 -5.72368e-10 -5.11334e-10)
(-1.20485e-09 -4.55719e-10 -4.20441e-10)
(-1.00312e-09 4.04275e-10 6.41486e-10)
(2.93223e-11 6.24343e-10 7.83815e-10)
(5.02477e-10 3.15457e-10 6.71112e-10)
(4.18719e-10 2.8397e-10 8.16605e-10)
(3.63648e-10 1.35953e-10 1.48833e-09)
(-5.79241e-10 5.37238e-10 4.63966e-09)
(-1.48988e-11 -2.48177e-10 -1.65355e-10)
(-1.70552e-10 -4.56699e-10 -1.65803e-10)
(-3.98481e-10 -2.21159e-10 -2.26276e-11)
(-2.95159e-10 1.96579e-10 2.18019e-10)
(1.31215e-10 3.75936e-10 4.29409e-10)
(6.04844e-10 2.81304e-10 5.04486e-10)
(8.4426e-10 9.87101e-11 8.39828e-10)
(7.26055e-10 -8.37168e-11 1.63606e-09)
(1.05885e-09 -1.43731e-10 2.84759e-09)
(-3.10678e-11 -2.38097e-10 -9.20536e-11)
(-6.12225e-11 -2.76673e-10 -2.90372e-11)
(-2.03664e-10 -1.38219e-10 1.04903e-10)
(3.84777e-11 5.13953e-11 1.99529e-10)
(1.63539e-10 9.90793e-11 3.68248e-10)
(-5.69712e-11 -5.4274e-11 -3.53834e-10)
(-1.87458e-10 -6.09273e-11 -4.56498e-10)
(-5.77816e-10 -2.57927e-11 -3.97591e-10)
(-3.74256e-10 3.7627e-11 4.42879e-10)
(-1.90055e-10 9.8325e-11 5.89704e-10)
(3.82087e-11 1.40726e-10 6.18443e-10)
(-1.16321e-10 4.20109e-11 8.10218e-10)
(1.84467e-11 9.01134e-11 5.70101e-10)
(-1.58262e-09 -5.99881e-10 4.1268e-09)
(-5.54285e-11 -1.83958e-10 -2.68889e-10)
(-2.43605e-10 -2.15473e-10 -3.39856e-10)
(-5.35762e-10 -1.31699e-10 -1.84711e-10)
(-3.95767e-10 8.95025e-11 3.48799e-10)
(-2.42155e-10 2.06767e-10 6.26648e-10)
(6.73768e-11 1.56256e-10 6.73469e-10)
(7.69266e-11 1.29511e-10 8.70604e-10)
(-1.79317e-10 9.08295e-11 1.36579e-09)
(-2.13209e-09 1.99166e-09 4.67394e-09)
(-3.00213e-11 -1.50251e-10 -1.29723e-10)
(-1.29223e-10 -1.86262e-10 -1.40326e-10)
(-2.75096e-10 -1.23298e-10 -2.7721e-11)
(-1.73757e-10 8.75757e-11 2.36601e-10)
(5.82233e-11 2.30013e-10 4.34786e-10)
(3.59015e-10 2.57378e-10 5.94358e-10)
(1.63789e-10 2.13765e-10 7.60314e-10)
(-9.41859e-11 6.67627e-10 1.58135e-09)
(-5.77846e-10 2.07761e-09 3.1577e-09)
(-3.84504e-11 -1.60138e-10 -3.31691e-11)
(-3.81936e-11 -2.28789e-10 4.30705e-11)
(-1.30653e-10 -1.44009e-10 1.54071e-10)
(2.20615e-11 -5.14082e-11 2.62375e-10)
(1.84554e-10 1.29783e-11 4.42898e-10)
(4.30518e-10 1.1764e-10 5.07756e-10)
(6.69562e-10 3.88614e-10 7.46032e-10)
(-4.69466e-11 -1.5896e-11 -2.20614e-10)
(-1.30713e-10 1.23621e-11 -1.95418e-10)
(-2.98518e-10 -1.20099e-11 -1.27921e-10)
(-1.07455e-10 4.09472e-11 1.75832e-10)
(-1.13502e-10 6.26599e-11 3.43565e-10)
(-8.53675e-11 8.97682e-11 4.75024e-10)
(-9.60692e-11 1.47454e-10 6.0214e-10)
(-3.90934e-11 3.1021e-11 1.19748e-09)
(-2.66074e-10 -1.79981e-10 2.86992e-09)
(-5.87518e-11 -8.05754e-11 -1.84209e-10)
(-1.50986e-10 -4.69122e-11 -1.68392e-10)
(-2.65047e-10 -2.21698e-11 -1.71264e-11)
(-1.45041e-10 5.54596e-11 2.42735e-10)
(-6.6314e-11 1.71543e-10 3.91742e-10)
(6.81899e-11 1.72234e-10 5.35668e-10)
(6.15108e-11 2.64563e-10 7.3537e-10)
(-1.18594e-10 2.31692e-10 1.16132e-09)
(-5.76299e-10 6.48662e-10 1.95922e-09)
(2.76191e-12 -6.60907e-11 -1.06404e-10)
(-1.86325e-11 -4.83594e-11 -4.73896e-11)
(-5.05048e-11 -2.00406e-12 2.64209e-11)
(1.30231e-10 1.39458e-10 2.05593e-10)
(2.58427e-10 2.61403e-10 3.75508e-10)
(5.5453e-10 2.52286e-10 5.73978e-10)
(5.27265e-10 4.30918e-10 7.6037e-10)
(3.18125e-10 6.59351e-10 1.34845e-09)
(4.71974e-11 1.09158e-09 2.13168e-09)
(-4.5363e-12 -7.34687e-11 9.0733e-12)
(8.78404e-11 -1.64953e-10 5.43946e-11)
(1.55375e-10 -8.97156e-11 7.26038e-11)
(5.98324e-10 4.08389e-11 2.76688e-10)
(7.86406e-10 2.12612e-10 5.22572e-10)
(9.23161e-10 1.7995e-10 5.59443e-10)
(1.0469e-09 5.15184e-10 7.10538e-10)
(9.51311e-10 5.92077e-10 9.93376e-10)
(1.40987e-09 3.7078e-10 1.11112e-09)
)
;

boundaryField
{
    inlet
    {
        type            calculated;
        value           uniform (0 0 0);
    }
    outlet
    {
        type            calculated;
        value           nonuniform 0();
    }
    wall
    {
        type            calculated;
        value           uniform (0 0 0);
    }
    procBoundary0to1
    {
        type            processor;
        value           uniform (0 0 0);
    }
    procBoundary0to2
    {
        type            processor;
        value           uniform (0 0 0);
    }
    procBoundary0to4
    {
        type            processor;
        value           uniform (0 0 0);
    }
    procBoundary0to6
    {
        type            processor;
        value           uniform (0 0 0);
    }
    procBoundary0to7
    {
        type            processor;
        value           uniform (0 0 0);
    }
}


// ************************************************************************* //
