/*--------------------------------*- C++ -*----------------------------------*\
| =========                 |                                                 |
| \\      /  F ield         | OpenFOAM: The Open Source CFD Toolbox           |
|  \\    /   O peration     | Version:  4.x                                   |
|   \\  /    A nd           | Web:      www.OpenFOAM.org                      |
|    \\/     M anipulation  |                                                 |
\*---------------------------------------------------------------------------*/
FoamFile
{
    version     2.0;
    format      ascii;
    class       volVectorField;
    location    "40.5";
    object      ddtUrel;
}
// * * * * * * * * * * * * * * * * * * * * * * * * * * * * * * * * * * * * * //

dimensions      [0 1 -2 0 0 0 0];

internalField   nonuniform List<vector> 
114
(
(-3.22e-10 6.95149e-11 -2.70171e-10)
(-6.48259e-10 2.76526e-11 -3.54245e-10)
(-1.05555e-09 3.26522e-11 -4.42805e-10)
(-1.91054e-09 5.4951e-11 -4.85496e-10)
(-3.00877e-09 5.81786e-11 -5.10045e-10)
(-4.86255e-09 5.54112e-11 -5.19964e-10)
(-5.14515e-10 2.29137e-10 -7.24334e-11)
(-2.50192e-10 1.65241e-10 -1.25952e-10)
(-2.53016e-10 1.27292e-10 -1.89535e-10)
(-2.77343e-10 9.04778e-11 -2.64222e-10)
(-4.54422e-10 6.817e-11 -3.36198e-10)
(-6.4769e-10 7.92823e-11 -4.18095e-10)
(-1.11075e-09 1.05302e-10 -4.71961e-10)
(-1.55631e-09 1.18503e-10 -5.12864e-10)
(-2.37239e-09 9.6172e-11 -5.64874e-10)
(-3.11753e-10 1.36536e-10 -9.93358e-11)
(-2.19788e-10 1.16242e-10 -1.29264e-10)
(-2.57315e-10 9.41136e-11 -1.79851e-10)
(-2.48713e-10 7.3494e-11 -2.35827e-10)
(-3.66547e-10 6.32457e-11 -2.96079e-10)
(-4.43361e-10 7.67809e-11 -3.62755e-10)
(-7.20687e-10 8.97752e-11 -4.14315e-10)
(-8.91517e-10 6.69903e-11 -4.65311e-10)
(-1.28715e-09 6.57941e-11 -5.28668e-10)
(-3.2799e-10 9.89924e-11 -1.00156e-10)
(-2.32329e-10 9.15781e-11 -1.21849e-10)
(-2.89359e-10 7.46471e-11 -1.62304e-10)
(-2.62877e-10 5.0787e-11 -2.11697e-10)
(-4.07679e-10 6.98684e-11 -2.62603e-10)
(-4.28025e-10 7.66332e-11 -3.1085e-10)
(-6.74643e-10 9.67219e-11 -3.52179e-10)
(-8.40706e-10 1.11926e-10 -4.08328e-10)
(-1.06654e-09 1.08649e-10 -4.78376e-10)
(-7.27151e-10 3.65621e-11 -4.4744e-10)
(-1.33202e-09 5.51538e-11 -4.95599e-10)
(-2.17223e-09 6.18199e-11 -5.21855e-10)
(-3.43065e-09 6.87653e-11 -5.41247e-10)
(-1.95023e-10 1.59719e-10 -9.1265e-11)
(-1.21126e-10 1.43978e-10 -1.30793e-10)
(-1.11544e-10 1.14726e-10 -1.90804e-10)
(-1.42705e-10 8.51579e-11 -2.64176e-10)
(-2.54012e-10 6.67843e-11 -3.39481e-10)
(-4.03127e-10 7.89777e-11 -4.20958e-10)
(-7.08845e-10 9.17835e-11 -4.75152e-10)
(-1.07828e-09 9.99593e-11 -5.17353e-10)
(-1.60377e-09 1.02901e-10 -5.71966e-10)
(-1.76163e-10 1.13076e-10 -1.05237e-10)
(-1.29823e-10 1.03772e-10 -1.33175e-10)
(-1.25944e-10 9.00569e-11 -1.81221e-10)
(-1.30763e-10 7.5827e-11 -2.38133e-10)
(-1.93729e-10 6.44144e-11 -2.99444e-10)
(-2.61085e-10 6.84805e-11 -3.59565e-10)
(-4.15737e-10 7.7084e-11 -4.1173e-10)
(-5.5624e-10 8.06661e-11 -4.62884e-10)
(-7.76469e-10 9.32547e-11 -5.28029e-10)
(-1.87007e-10 8.62657e-11 -1.01968e-10)
(-1.50881e-10 8.19891e-11 -1.22142e-10)
(-1.64758e-10 7.28153e-11 -1.60831e-10)
(-1.61611e-10 6.43108e-11 -2.09914e-10)
(-2.31707e-10 6.29252e-11 -2.61671e-10)
(-2.74032e-10 6.56009e-11 -3.07726e-10)
(-4.05506e-10 7.34167e-11 -3.47532e-10)
(-4.89e-10 8.46011e-11 -4.02549e-10)
(-6.34461e-10 1.06224e-10 -4.56505e-10)
(-1.48866e-09 6.47661e-11 -4.96376e-10)
(-2.2081e-09 7.78351e-11 -5.21157e-10)
(-8.86616e-11 1.20895e-10 -8.85846e-11)
(-5.3933e-11 1.14554e-10 -1.25311e-10)
(-4.83647e-11 9.58058e-11 -1.79546e-10)
(-7.44579e-11 7.78065e-11 -2.46371e-10)
(-1.5251e-10 6.66047e-11 -3.19418e-10)
(-2.72537e-10 7.5628e-11 -3.90222e-10)
(-4.84042e-10 8.46831e-11 -4.42868e-10)
(-7.37099e-10 9.71986e-11 -4.87776e-10)
(-1.04641e-09 1.13828e-10 -5.37267e-10)
(-9.42824e-11 9.20425e-11 -9.81114e-11)
(-6.36584e-11 8.93043e-11 -1.27421e-10)
(-5.84668e-11 7.85908e-11 -1.71626e-10)
(-6.68764e-11 7.01053e-11 -2.24323e-10)
(-1.06417e-10 6.30096e-11 -2.81726e-10)
(-1.62357e-10 6.40927e-11 -3.3593e-10)
(-2.65126e-10 7.13452e-11 -3.85514e-10)
(-3.63656e-10 8.93354e-11 -4.38362e-10)
(-4.85249e-10 1.14987e-10 -4.96878e-10)
(-1.16428e-10 7.32085e-11 -9.62257e-11)
(-8.54042e-11 7.12732e-11 -1.17753e-10)
(-8.9561e-11 6.5987e-11 -1.52027e-10)
(-8.74413e-11 6.26419e-11 -1.97123e-10)
(-1.33703e-10 5.5481e-11 -2.44289e-10)
(-1.66725e-10 5.51927e-11 -2.89783e-10)
(-2.39771e-10 5.89032e-11 -3.34924e-10)
(-2.94821e-10 7.48558e-11 -3.80757e-10)
(-3.87702e-10 1.07531e-10 -4.338e-10)
(-5.05585e-11 8.8684e-11 -7.97948e-11)
(-2.7284e-11 8.83889e-11 -1.09939e-10)
(-2.28324e-11 7.77453e-11 -1.57741e-10)
(-4.13601e-11 6.82698e-11 -2.15907e-10)
(-9.29237e-11 6.19364e-11 -2.79601e-10)
(-1.85851e-10 6.82617e-11 -3.36738e-10)
(-3.21413e-10 8.22604e-11 -3.86907e-10)
(-4.80592e-10 1.03599e-10 -4.22113e-10)
(-5.69559e-11 7.14803e-11 -8.69698e-11)
(-3.19234e-11 7.16824e-11 -1.13338e-10)
(-2.73719e-11 6.54034e-11 -1.49718e-10)
(-3.18515e-11 5.96841e-11 -1.95892e-10)
(-5.9526e-11 5.68639e-11 -2.47211e-10)
(-1.02066e-10 6.1456e-11 -2.94655e-10)
(-1.72934e-10 7.11175e-11 -3.36009e-10)
(-7.46808e-11 5.95026e-11 -8.55987e-11)
(-4.76338e-11 6.00311e-11 -1.06e-10)
(-4.49575e-11 5.5868e-11 -1.36266e-10)
(-4.94489e-11 5.21311e-11 -1.72159e-10)
(-8.06199e-11 4.83432e-11 -2.15072e-10)
(-1.02966e-10 5.15842e-11 -2.54898e-10)
)
;

boundaryField
{
    inlet
    {
        type            calculated;
        value           nonuniform List<vector> 
12
(
(-8.80639e-09 9.21069e-10 4.85919e-10)
(-6.38626e-10 9.26018e-11 -4.75387e-11)
(-1.86023e-09 2.97117e-11 1.01287e-11)
(-2.36904e-10 1.80865e-10 -6.51578e-11)
(-2.52277e-10 6.52563e-11 -9.00381e-11)
(-2.30755e-10 1.55897e-11 -4.08673e-11)
(-2.07874e-10 1.54859e-10 -3.45637e-11)
(-7.33542e-11 6.49526e-11 -4.55629e-11)
(-3.09039e-10 1.99321e-11 -2.76869e-11)
(-1.75766e-10 8.96771e-11 -1.49519e-11)
(-8.69506e-11 3.63823e-11 -2.06813e-11)
(-1.74577e-10 1.59205e-11 -1.44473e-11)
)
;
    }
    outlet
    {
        type            calculated;
        value           nonuniform 0();
    }
    wall
    {
        type            calculated;
        value           nonuniform List<vector> 
66
(
(-3.72377e-09 9.41745e-10 1.89972e-10)
(-5.24039e-10 1.00044e-10 -5.94929e-11)
(-1.31917e-09 4.42915e-11 -2.24274e-11)
(-3.36861e-10 2.15375e-10 -1.23836e-10)
(-7.9182e-11 8.20581e-11 -7.90659e-11)
(-1.19763e-10 7.47022e-11 -3.50622e-11)
(-1.51818e-09 2.04832e-10 -1.94183e-10)
(-1.58063e-09 3.78108e-11 -1.58148e-10)
(-1.91338e-09 3.2996e-11 -6.48152e-11)
(-8.26269e-10 8.91056e-11 -2.97031e-10)
(-7.83589e-10 1.73153e-10 -3.1839e-10)
(-6.05943e-10 3.41704e-11 -1.89237e-10)
(-4.08097e-10 -2.03116e-10 -1.32741e-10)
(-2.64115e-09 2.32242e-12 -2.69694e-10)
(-1.87514e-09 1.06058e-10 -3.2017e-10)
(-1.68998e-09 -7.80721e-11 -2.22789e-10)
(-1.88556e-09 1.46677e-10 -1.65308e-10)
(-2.00544e-09 9.18423e-11 -6.27537e-10)
(-9.56e-10 1.89751e-10 -5.64554e-10)
(-5.47817e-10 7.93949e-11 -4.024e-10)
(-3.06856e-10 6.59002e-11 -1.83193e-10)
(-5.11384e-09 2.26281e-10 -5.74935e-10)
(-3.52434e-09 4.03941e-10 -5.67026e-10)
(-2.83615e-09 1.40959e-10 -4.15053e-10)
(-2.6348e-09 2.00157e-10 -1.18468e-10)
(-3.45732e-09 1.08545e-10 -7.17896e-10)
(-9.03944e-10 6.56089e-10 -5.98266e-10)
(-7.44828e-10 -3.62385e-10 -4.62504e-10)
(-2.7153e-09 4.01212e-10 -2.11201e-10)
(-6.62351e-09 6.15776e-12 -6.0258e-10)
(-4.41816e-09 1.18115e-10 -6.28967e-10)
(-3.7344e-09 -7.49826e-11 -4.71539e-10)
(-4.11285e-09 2.53299e-11 -3.41601e-10)
(-1.31628e-09 4.51419e-11 -1.9979e-11)
(-1.97634e-10 1.76952e-11 -4.55451e-11)
(-3.35721e-10 2.09187e-11 -2.80756e-11)
(-2.68208e-10 1.48268e-11 -1.09284e-11)
(-1.65854e-10 7.46256e-11 -3.17178e-11)
(-8.61073e-11 3.29948e-11 -3.64592e-11)
(-8.96859e-12 2.69639e-11 -6.49618e-11)
(-3.62711e-11 2.09232e-11 -5.39559e-11)
(-1.24714e-09 4.13542e-11 -7.70824e-11)
(-4.27284e-10 2.96631e-11 -7.24629e-11)
(-3.04744e-10 2.58692e-11 -6.75394e-11)
(-8.78775e-11 2.10748e-11 -8.52007e-11)
(-2.99528e-10 -2.00978e-10 -1.30927e-10)
(-4.66421e-11 5.13172e-11 -1.41121e-10)
(-3.79485e-11 7.53047e-11 -1.33414e-10)
(-9.0787e-11 2.56974e-11 -7.53483e-11)
(-2.73198e-09 1.45001e-10 -1.40392e-10)
(-6.10082e-10 4.30628e-11 -1.95051e-10)
(-3.75675e-10 3.70776e-12 -1.60197e-10)
(-3.25728e-10 -1.80264e-12 -1.39878e-10)
(-5.2641e-10 6.80843e-11 -1.76141e-10)
(-1.78896e-10 3.8259e-11 -1.94998e-10)
(-7.31971e-11 -7.51226e-12 -1.92407e-10)
(-8.58661e-11 1.08579e-11 -1.45964e-10)
(-2.91771e-09 2.05679e-10 -1.0577e-10)
(-9.06478e-10 2.2922e-11 -1.00489e-10)
(-2.07268e-10 -6.79133e-11 -2.56136e-10)
(-3.24142e-09 4.19695e-10 -1.90874e-10)
(3.99246e-11 1.31946e-11 -2.53139e-10)
(8.42854e-11 -7.427e-11 -2.49063e-10)
(-4.03294e-09 3.7173e-11 -3.30749e-10)
(-8.32637e-10 6.47871e-12 -1.15434e-10)
(-7.70381e-10 -7.66399e-13 -3.4831e-10)
)
;
    }
    procBoundary2to0
    {
        type            processor;
        value           nonuniform List<vector> 
44
(
(-3.19982e-10 9.39085e-12 -2.66124e-10)
(-8.1195e-10 -5.53271e-11 -3.66469e-10)
(-1.53473e-09 -4.8957e-11 -4.32187e-10)
(-2.95128e-09 -1.98316e-11 -4.46515e-10)
(-5.21691e-09 -1.07145e-11 -4.28134e-10)
(-9.42308e-09 -1.86794e-11 -3.71978e-10)
(-2.52716e-10 2.26109e-10 -5.48806e-11)
(-1.73696e-10 1.92219e-10 -1.04153e-10)
(-2.11954e-10 1.44796e-10 -1.74035e-10)
(-2.11954e-10 1.44796e-10 -1.74035e-10)
(-1.67651e-10 6.98084e-11 -2.74395e-10)
(-3.86959e-10 3.47052e-11 -3.63993e-10)
(-1.15453e-09 -2.46294e-11 -4.3824e-10)
(-2.20385e-09 -8.09192e-12 -4.62905e-10)
(-3.88818e-09 1.47134e-12 -4.53609e-10)
(-6.62888e-09 -1.10601e-12 -4.2784e-10)
(-1.35681e-10 1.84638e-10 -5.87571e-11)
(-8.28194e-11 1.70469e-10 -1.0377e-10)
(-8.35719e-11 1.2775e-10 -1.75395e-10)
(-1.67651e-10 6.98084e-11 -2.74395e-10)
(-3.86959e-10 3.47052e-11 -3.63993e-10)
(-3.86959e-10 3.47052e-11 -3.63993e-10)
(-5.17929e-10 4.45667e-11 -4.15608e-10)
(-9.41354e-10 5.87416e-11 -4.62707e-10)
(-2.58631e-09 1.8258e-11 -4.44334e-10)
(-4.08075e-09 1.45688e-11 -4.37982e-10)
(-6.82045e-11 1.37798e-10 -5.90507e-11)
(-3.97876e-11 1.3204e-10 -9.83958e-11)
(-4.44948e-11 1.05921e-10 -1.66154e-10)
(-1.11716e-10 6.88575e-11 -2.54734e-10)
(-2.6422e-10 4.65166e-11 -3.42439e-10)
(-5.17929e-10 4.45667e-11 -4.15608e-10)
(-9.41354e-10 5.87416e-11 -4.62707e-10)
(-9.41354e-10 5.87416e-11 -4.62707e-10)
(-9.62956e-10 6.75184e-11 -4.27901e-10)
(-1.32085e-09 7.68997e-11 -4.52311e-10)
(-4.64067e-11 9.60533e-11 -5.75942e-11)
(-2.45121e-11 9.3991e-11 -8.91691e-11)
(-3.421e-11 7.82551e-11 -1.46892e-10)
(-8.27559e-11 6.05414e-11 -2.1933e-10)
(-1.87054e-10 4.84996e-11 -2.94688e-10)
(-3.6694e-10 4.78801e-11 -3.59037e-10)
(-6.36175e-10 5.80746e-11 -4.03139e-10)
(-9.62956e-10 6.75184e-11 -4.27901e-10)
)
;
    }
    procBoundary2to3
    {
        type            processor;
        value           nonuniform List<vector> 
12
(
(-6.77318e-09 9.31904e-11 -5.65338e-10)
(-2.88822e-09 1.34196e-10 -6.45789e-10)
(-1.37818e-09 4.96649e-13 -6.17986e-10)
(-1.09199e-09 1.7428e-10 -5.618e-10)
(-4.64092e-09 1.02722e-10 -5.93449e-10)
(-1.95244e-09 1.42341e-10 -6.47682e-10)
(-8.20581e-10 1.29392e-10 -6.17712e-10)
(-6.34554e-10 1.68524e-10 -5.42433e-10)
(-2.87259e-09 1.05184e-10 -5.5497e-10)
(-1.25662e-09 1.53025e-10 -5.94991e-10)
(-5.09918e-10 1.5138e-10 -5.66221e-10)
(-3.70643e-10 1.57804e-10 -4.92397e-10)
)
;
    }
    procBoundary2to6
    {
        type            processor;
        value           nonuniform List<vector> 
32
(
(-6.51799e-10 1.18729e-10 -4.54254e-10)
(-2.38544e-10 9.78252e-11 -3.79159e-10)
(-3.01043e-10 1.30892e-10 -4.19295e-10)
(-1.52726e-10 5.91738e-11 -2.94225e-10)
(-1.94039e-10 8.14192e-11 -3.3274e-10)
(-2.64861e-10 1.16281e-10 -3.65786e-10)
(-4.14901e-11 6.56827e-11 -7.18287e-11)
(-2.07837e-11 6.79053e-11 -9.47197e-11)
(-1.86183e-11 6.19095e-11 -1.32124e-10)
(-3.51595e-11 5.6262e-11 -1.7867e-10)
(-7.04972e-11 5.26398e-11 -2.31138e-10)
(-1.34806e-10 6.02594e-11 -2.72871e-10)
(-2.2214e-10 7.29103e-11 -3.11029e-10)
(-6.51799e-10 1.18729e-10 -4.54254e-10)
(-2.38544e-10 9.78252e-11 -3.79159e-10)
(-3.12424e-10 9.78308e-11 -3.37411e-10)
(-4.49415e-11 5.53995e-11 -7.67284e-11)
(-2.06872e-11 5.70141e-11 -9.70933e-11)
(-1.71425e-11 5.22952e-11 -1.26424e-10)
(-1.83111e-11 4.88569e-11 -1.62141e-10)
(-3.72874e-11 4.88859e-11 -2.04217e-10)
(-6.58468e-11 5.59781e-11 -2.41897e-10)
(-2.38544e-10 9.78252e-11 -3.79159e-10)
(-1.52726e-10 5.91738e-11 -2.94225e-10)
(-1.11746e-10 7.11106e-11 -2.76134e-10)
(-5.74709e-11 4.73442e-11 -7.47158e-11)
(-2.40564e-11 5.44929e-11 -9.23795e-11)
(-2.93474e-11 4.66399e-11 -1.1678e-10)
(-2.88438e-11 4.20921e-11 -1.44964e-10)
(-4.88527e-11 4.07073e-11 -1.78603e-10)
(-1.52726e-10 5.91738e-11 -2.94225e-10)
(-6.49429e-11 4.66806e-11 -2.13533e-10)
)
;
    }
}


// ************************************************************************* //
