/*--------------------------------*- C++ -*----------------------------------*\
| =========                 |                                                 |
| \\      /  F ield         | OpenFOAM: The Open Source CFD Toolbox           |
|  \\    /   O peration     | Version:  4.x                                   |
|   \\  /    A nd           | Web:      www.OpenFOAM.org                      |
|    \\/     M anipulation  |                                                 |
\*---------------------------------------------------------------------------*/
FoamFile
{
    version     2.0;
    format      ascii;
    class       volScalarField;
    location    "40.5";
    object      Qsource;
}
// * * * * * * * * * * * * * * * * * * * * * * * * * * * * * * * * * * * * * //

dimensions      [1 -1 -3 0 0 0 0];

internalField   nonuniform List<scalar> 
114
(
7.66295e+09
6.52798e+09
3.64748e+09
6.94068e+09
4.27237e+09
5.6032e+09
6.66487e+09
7.35464e+09
7.01229e+09
4.86204e+09
8.24018e+09
5.51546e+09
7.92166e+09
7.25475e+09
5.41288e+09
4.7346e+09
6.61056e+09
5.99102e+09
5.92295e+09
6.74628e+09
5.83392e+09
7.76819e+09
6.027e+09
7.50886e+09
5.69945e+09
4.96831e+09
6.99612e+09
5.73671e+09
5.91714e+09
5.47477e+09
5.13015e+09
6.84609e+09
6.13158e+09
9.84573e+09
1.23083e+10
6.60599e+09
1.12292e+10
4.73294e+09
7.93662e+09
9.59588e+09
9.17958e+09
8.8896e+09
7.00197e+09
1.11684e+10
8.7232e+09
6.41438e+09
5.86276e+09
1.00094e+10
1.06652e+10
9.18398e+09
9.42758e+09
8.8712e+09
9.17803e+09
8.89822e+09
7.7007e+09
5.90968e+09
5.81718e+09
9.23476e+09
6.52735e+09
8.50711e+09
7.07862e+09
7.65526e+09
7.68053e+09
5.78442e+09
8.01296e+09
9.27299e+09
6.86271e+09
5.74117e+09
6.75225e+09
6.87765e+09
6.77014e+09
7.71686e+09
9.83405e+09
7.22795e+09
5.74746e+09
4.99356e+09
6.9542e+09
9.09844e+09
1.0486e+10
9.19458e+09
7.03502e+09
9.49008e+09
8.50663e+09
1.02495e+10
5.84639e+09
8.01401e+09
7.83557e+09
7.93725e+09
5.65043e+09
7.31216e+09
1.05851e+10
5.84693e+09
8.6436e+09
4.89939e+09
9.48134e+09
1.02994e+10
7.15263e+09
8.23646e+09
6.26409e+09
7.57697e+09
7.46176e+09
5.87375e+09
7.90344e+09
1.05274e+10
6.60399e+09
9.12096e+09
7.67975e+09
1.03098e+10
5.09024e+09
6.71579e+09
8.35599e+09
7.68395e+09
7.60772e+09
6.94717e+09
)
;

boundaryField
{
    inlet
    {
        type            calculated;
        value           uniform 0;
    }
    outlet
    {
        type            calculated;
        value           nonuniform 0();
    }
    wall
    {
        type            calculated;
        value           uniform 0;
    }
    procBoundary2to0
    {
        type            processor;
        value           nonuniform List<scalar> 
44
(
5.58657e+09
6.49665e+09
5.46807e+09
4.94163e+09
5.7815e+09
9.48139e+09
3.84189e+09
4.98005e+09
4.41003e+09
4.41003e+09
5.51045e+09
1.1326e+10
6.74771e+09
1.05216e+10
6.90448e+09
6.34972e+09
7.96796e+09
7.03407e+09
7.80127e+09
5.51045e+09
1.1326e+10
1.1326e+10
8.0184e+09
8.76787e+09
6.4649e+09
5.39845e+09
6.90884e+09
8.66442e+09
9.57768e+09
8.98224e+09
9.97166e+09
8.0184e+09
8.76787e+09
8.76787e+09
5.45671e+09
2.60542e+09
4.82753e+09
6.71808e+09
9.8184e+09
1.01834e+10
5.49234e+09
9.71847e+09
8.52666e+09
5.45671e+09
)
;
    }
    procBoundary2to3
    {
        type            processor;
        value           nonuniform List<scalar> 
12
(
9.13489e+09
6.7366e+09
7.28435e+09
5.92346e+09
8.53168e+09
7.63678e+09
1.27344e+10
9.02022e+09
8.19542e+09
9.54334e+09
6.04852e+09
9.26854e+09
)
;
    }
    procBoundary2to6
    {
        type            processor;
        value           nonuniform List<scalar> 
32
(
8.09148e+09
6.75627e+09
8.94643e+09
6.56768e+09
6.6977e+09
6.50309e+09
9.95453e+09
8.9543e+09
6.08801e+09
8.00393e+09
1.10682e+10
6.1021e+09
8.70375e+09
8.09148e+09
6.75627e+09
6.65945e+09
6.30515e+09
9.21834e+09
8.18294e+09
1.02276e+10
8.86056e+09
8.74724e+09
6.75627e+09
6.56768e+09
8.75994e+09
5.50809e+09
7.99295e+09
6.79621e+09
6.5696e+09
9.54685e+09
6.56768e+09
9.89468e+09
)
;
    }
}


// ************************************************************************* //
