/*--------------------------------*- C++ -*----------------------------------*\
| =========                 |                                                 |
| \\      /  F ield         | OpenFOAM: The Open Source CFD Toolbox           |
|  \\    /   O peration     | Version:  4.x                                   |
|   \\  /    A nd           | Web:      www.OpenFOAM.org                      |
|    \\/     M anipulation  |                                                 |
\*---------------------------------------------------------------------------*/
FoamFile
{
    version     2.0;
    format      ascii;
    class       volScalarField;
    location    "22";
    object      Deff;
}
// * * * * * * * * * * * * * * * * * * * * * * * * * * * * * * * * * * * * * //

dimensions      [0 2 -1 0 0 0 0];

internalField   nonuniform List<scalar> 
108
(
9.87747e-08
9.85483e-08
9.8387e-08
9.83749e-08
9.832e-08
9.82924e-08
9.81835e-08
9.81308e-08
9.79551e-08
9.85603e-08
9.84576e-08
9.82952e-08
9.81543e-08
9.81271e-08
9.81313e-08
9.81223e-08
9.80901e-08
9.7907e-08
9.85238e-08
9.83238e-08
9.82273e-08
9.80728e-08
9.80728e-08
9.8075e-08
9.80284e-08
9.79065e-08
9.79849e-08
9.85512e-08
9.83803e-08
9.81918e-08
9.81269e-08
9.80037e-08
9.79833e-08
9.78543e-08
9.79834e-08
9.79808e-08
9.87529e-08
9.85992e-08
9.83834e-08
9.82332e-08
9.82106e-08
9.82367e-08
9.82064e-08
9.80136e-08
9.78786e-08
9.86291e-08
9.84472e-08
9.83353e-08
9.8203e-08
9.81596e-08
9.81209e-08
9.80549e-08
9.79322e-08
9.78511e-08
9.8587e-08
9.83532e-08
9.81603e-08
9.80456e-08
9.79858e-08
9.79684e-08
9.79503e-08
9.791e-08
9.79004e-08
9.84021e-08
9.82707e-08
9.81742e-08
9.7955e-08
9.78856e-08
9.78898e-08
9.77851e-08
9.78645e-08
9.78958e-08
9.87544e-08
9.85362e-08
9.85207e-08
9.8296e-08
9.8225e-08
9.80371e-08
9.80332e-08
9.80257e-08
9.79753e-08
9.86225e-08
9.83314e-08
9.83557e-08
9.82682e-08
9.81666e-08
9.80335e-08
9.80325e-08
9.80098e-08
9.79065e-08
9.85239e-08
9.82836e-08
9.81645e-08
9.80644e-08
9.80672e-08
9.79719e-08
9.798e-08
9.79225e-08
9.79392e-08
9.83577e-08
9.82718e-08
9.8199e-08
9.79848e-08
9.79257e-08
9.781e-08
9.79894e-08
9.80067e-08
9.79601e-08
)
;

boundaryField
{
    inlet
    {
        type            calculated;
        value           uniform 0;
    }
    outlet
    {
        type            calculated;
        value           nonuniform 0();
    }
    wall
    {
        type            calculated;
        value           uniform 0;
    }
    procBoundary4to0
    {
        type            processor;
        value           uniform 0;
    }
    procBoundary4to5
    {
        type            processor;
        value           uniform 0;
    }
    procBoundary4to6
    {
        type            processor;
        value           uniform 0;
    }
}


// ************************************************************************* //
