/*--------------------------------*- C++ -*----------------------------------*\
| =========                 |                                                 |
| \\      /  F ield         | OpenFOAM: The Open Source CFD Toolbox           |
|  \\    /   O peration     | Version:  4.x                                   |
|   \\  /    A nd           | Web:      www.OpenFOAM.org                      |
|    \\/     M anipulation  |                                                 |
\*---------------------------------------------------------------------------*/
FoamFile
{
    version     2.0;
    format      ascii;
    class       volVectorField;
    location    "22";
    object      GField;
}
// * * * * * * * * * * * * * * * * * * * * * * * * * * * * * * * * * * * * * //

dimensions      [1 -2 -1 0 0 0 0];

internalField   nonuniform List<vector> 
108
(
(93.5077 -3.26145 -2.36113)
(43.0426 -1.70562 -1.69195)
(94.436 -3.60132 -2.68777)
(44.9104 -1.63974 -2.02318)
(95.6405 -2.89991 -2.06038)
(45.7816 -1.10412 -1.96946)
(96.323 -2.21187 -2.16694)
(44.974 -1.09401 -2.46512)
(96.6437 -1.98951 -1.21722)
(91.7366 -4.73347 -2.1027)
(35.3538 -2.25118 -1.28535)
(88.7395 -4.77612 -2.30487)
(26.805 -1.567 -1.33602)
(86.4741 -3.45183 -2.00088)
(20.0846 -0.985813 -1.109)
(85.5808 -2.62014 -1.86165)
(13.5056 -0.859124 -1.06598)
(84.4565 -1.3521 -0.615714)
(91.5263 -2.73921 -2.22752)
(32.633 -1.65849 -1.28712)
(86.5572 -2.88755 -2.13553)
(21.8421 -1.17826 -0.870209)
(83.8916 -2.39772 -1.318)
(13.8337 -0.880657 -0.473811)
(82.5414 -1.44794 -0.815502)
(5.79875 -0.384273 -0.164482)
(81.4613 -0.126486 0.795788)
(91.6143 -1.37555 -2.51891)
(32.894 -0.192226 -1.18571)
(85.9126 -1.0008 -2.17235)
(21.6088 -0.427117 -1.13845)
(82.6631 -0.931883 -1.84596)
(11.8319 -0.232737 -0.54928)
(80.7124 -0.0716544 -1.38748)
(3.91065 -0.101553 -0.179731)
(80.4421 0.936528 0.262341)
(93.0927 -2.971 1.02197)
(44.6109 -1.62086 0.554729)
(95.1826 -3.09106 1.36353)
(47.5457 -1.55943 -0.160517)
(96.996 -2.96727 0.804996)
(50.5414 -1.72936 -0.372748)
(99.4472 -2.72542 1.09486)
(51.5816 -1.57943 -0.207316)
(100.766 -2.07841 1.64546)
(92.2203 -4.09955 1.59471)
(38.9487 -2.26061 0.715894)
(90.9604 -4.16263 2.44974)
(34.8837 -1.56659 0.360248)
(89.7113 -3.1638 1.85149)
(30.2685 -1.07072 -0.0564998)
(88.5329 -1.96318 1.90591)
(24.4805 -0.623187 -0.0655556)
(87.6644 -1.55954 2.31067)
(91.6536 -3.39091 1.96311)
(36.1881 -1.72472 0.891093)
(88.0209 -3.36949 2.60376)
(28.4223 -1.36163 0.665616)
(85.9819 -2.38822 2.25251)
(22.4265 -0.891068 0.434214)
(85.7413 -1.35721 2.35338)
(18.3564 -0.693893 0.579006)
(86.7113 -1.32611 1.88529)
(90.7078 -1.15233 1.1526)
(33.905 -0.0648844 1.00097)
(86.3994 -0.408788 2.12678)
(23.6257 -0.145351 0.56234)
(83.0902 -0.379403 2.19764)
(15.061 -0.356641 0.517877)
(81.5455 -0.60959 2.31931)
(8.17932 -0.281526 0.222568)
(81.416 -0.986555 1.63484)
(93.7368 -2.65494 0.714473)
(48.1062 -1.60284 0.505528)
(98.9367 -2.58111 0.928409)
(55.8769 -1.2323 0.0236645)
(102.202 -1.92716 0.050358)
(59.9828 -0.997614 -0.567148)
(104.357 -1.59235 0.175638)
(63.3188 -1.29661 -0.169454)
(107.905 -1.81883 0.455682)
(92.9493 -3.86214 1.03156)
(43.9047 -2.22069 0.582445)
(94.6831 -3.73861 1.52018)
(47.8739 -1.48275 0.537637)
(96.715 -2.37839 1.21016)
(50.3234 -1.05942 0.374461)
(98.2032 -1.83254 1.43686)
(52.1462 -1.29175 0.377015)
(99.9979 -2.02928 0.97101)
(91.7798 -3.15906 0.975787)
(41.6244 -1.62559 0.722453)
(91.8633 -3.32083 1.48035)
(42.1787 -1.64141 0.59723)
(92.9631 -2.33188 1.13044)
(43.1776 -1.10643 0.178059)
(94.3823 -1.39488 0.757796)
(44.3117 -1.39869 -0.05099)
(95.8589 -1.61688 0.492435)
(90.7051 -0.497132 1.21531)
(39.9063 -0.225765 0.849446)
(90.3477 -0.842167 1.6787)
(37.5769 -0.565403 0.729366)
(89.935 -0.959052 1.51118)
(36.6027 -0.804079 0.758306)
(90.82 -1.15169 1.72974)
(37.5382 -0.847801 0.42626)
(91.4076 -1.14328 1.1216)
)
;

boundaryField
{
    inlet
    {
        type            calculated;
        value           uniform (67 0 0);
    }
    outlet
    {
        type            calculated;
        value           nonuniform 0();
    }
    wall
    {
        type            calculated;
        value           uniform (0 0 0);
    }
    procBoundary4to0
    {
        type            processor;
        value           nonuniform List<vector> 
36
(
(93.993 -3.21146 -4.15453)
(43.9282 -1.7512 -2.9117)
(96.4698 -3.33647 -4.45911)
(47.9268 -1.45631 -2.92187)
(98.9628 -2.6321 -3.68529)
(50.428 -1.2844 -2.88164)
(101.491 -2.37537 -3.2678)
(52.6251 -0.785963 -3.28572)
(104.183 -1.37815 -2.85838)
(92.9 -4.19614 -4.78347)
(36.4686 -2.13287 -2.78772)
(91.024 -4.40264 -4.97763)
(31.9507 -1.64265 -2.30092)
(90.1651 -3.39871 -3.58466)
(28.2457 -1.2974 -1.87897)
(89.7559 -2.6514 -2.78968)
(24.3341 -1.29135 -1.96891)
(90.5588 -2.39227 -2.51812)
(91.9998 -2.97738 -4.59495)
(34.844 -1.68609 -2.63516)
(88.5672 -3.42426 -4.07655)
(26.2787 -1.22099 -1.72789)
(86.3797 -2.41157 -2.50495)
(19.2318 -0.944666 -1.31295)
(85.3451 -1.5794 -2.07934)
(13.9391 -0.992143 -1.19041)
(84.8264 -1.80439 -0.635896)
(91.9975 -0.904136 -4.29243)
(33.2835 -0.176691 -2.72484)
(87.3006 -0.192404 -4.19282)
(22.5073 0.185664 -1.88296)
(85.1474 0.313732 -3.21653)
(15.093 0.242653 -1.47883)
(83.8193 0.169747 -2.54567)
(9.30628 0.27505 -1.08282)
(82.8237 0.679336 -1.14797)
)
;
    }
    procBoundary4to5
    {
        type            processor;
        value           nonuniform List<vector> 
12
(
(42.2514 -1.32075 -1.63811)
(5.40358 -0.607077 -0.350377)
(1.57941e-05 4.72277e-06 1.75467e-06)
(1.4313e-05 7.42937e-06 -7.31404e-07)
(51.9248 -1.96065 0.0343546)
(20.639 -1.01152 0.0632388)
(16.536 -1.53774 0.971964)
(3.62368 -0.212658 0.178011)
(67.5311 -1.95832 -0.717763)
(53.5745 -2.48128 -0.142783)
(44.2059 -2.75874 -0.601442)
(36.8038 -1.63786 0.644996)
)
;
    }
    procBoundary4to6
    {
        type            processor;
        value           nonuniform List<vector> 
27
(
(89.5616 1.38045 -2.41312)
(30.3106 0.941151 -1.08728)
(84.8615 1.7592 -2.33451)
(17.0359 0.500337 -0.941492)
(81.2813 1.2849 -1.89126)
(6.5869 0.222351 -0.497145)
(79.6243 0.563906 -1.34824)
(6.43116e-05 7.05076e-06 -2.3183e-06)
(77.614 -0.0466895 -0.428833)
(89.7846 2.32872 2.73743)
(34.7988 1.13962 0.846427)
(86.7373 2.71368 2.77365)
(26.7482 0.950042 0.733723)
(85.0448 2.11853 2.35005)
(20.3277 0.482678 0.322566)
(84.0466 1.33948 1.51612)
(14.5196 0.251548 0.506978)
(83.9801 0.91362 0.238772)
(91.8337 2.49594 1.64955)
(42.3832 1.06118 0.597823)
(91.8358 2.24947 1.07093)
(41.3355 0.851137 0.218998)
(91.4783 1.4413 0.555305)
(39.7487 0.355554 0.113164)
(90.8719 0.431439 0.378589)
(36.967 0.0672621 0.237196)
(91.5632 0.303281 0.696428)
)
;
    }
}


// ************************************************************************* //
