/*--------------------------------*- C++ -*----------------------------------*\
| =========                 |                                                 |
| \\      /  F ield         | OpenFOAM: The Open Source CFD Toolbox           |
|  \\    /   O peration     | Version:  4.x                                   |
|   \\  /    A nd           | Web:      www.OpenFOAM.org                      |
|    \\/     M anipulation  |                                                 |
\*---------------------------------------------------------------------------*/
FoamFile
{
    version     2.0;
    format      ascii;
    class       surfaceScalarField;
    location    "22";
    object      phi;
}
// * * * * * * * * * * * * * * * * * * * * * * * * * * * * * * * * * * * * * //

dimensions      [0 3 -1 0 0 0 0];

internalField   nonuniform List<scalar> 
249
(
8.32997e-06
-4.73775e-07
-7.92188e-08
8.35886e-06
-2.34471e-07
-6.73247e-08
8.51001e-06
-4.96434e-07
-7.8306e-08
8.53628e-06
-1.90004e-07
-1.29266e-07
8.6463e-06
-3.764e-07
-7.41227e-08
8.62113e-06
-1.23758e-07
-1.38532e-07
8.64863e-06
-2.8635e-07
-6.32827e-08
8.58162e-06
-1.15647e-07
-1.5815e-07
-1.98115e-07
2.5558e-08
7.75386e-06
-4.42593e-07
-2.99637e-08
7.54317e-06
-2.31545e-07
-3.36822e-08
7.06015e-06
-4.5383e-07
8.75558e-09
6.87488e-06
-1.62566e-07
-5.77316e-08
6.52244e-06
-3.46348e-07
-8.66418e-09
6.40122e-06
-1.10571e-07
-6.89913e-08
6.07725e-06
-2.40862e-07
2.76647e-09
5.92225e-06
-7.3764e-08
-6.68946e-08
-8.73898e-08
1.00622e-07
7.57533e-06
-2.43731e-07
-1.54381e-08
7.2445e-06
-1.09815e-07
-2.34109e-08
6.62478e-06
-2.30387e-07
2.79473e-08
6.41537e-06
-9.52241e-08
-1.2001e-08
5.98405e-06
-1.97322e-07
5.55765e-08
5.83565e-06
-6.60828e-08
-2.11262e-09
5.42173e-06
-9.00619e-08
9.13591e-08
5.27122e-06
-2.87674e-08
2.49372e-08
4.78232e-08
1.58903e-07
7.59657e-06
-8.08656e-08
7.22121e-06
-1.08381e-08
6.57127e-06
-2.60558e-09
6.32642e-06
-3.39988e-08
5.78699e-06
2.09876e-08
5.60276e-06
-1.68588e-09
5.19493e-06
5.5312e-08
5.09434e-06
2.79435e-09
1.12391e-07
8.40019e-06
-4.1901e-07
1.02865e-07
8.50002e-06
-2.29987e-07
6.28294e-08
8.71576e-06
-4.29826e-07
1.35788e-07
8.77987e-06
-1.85251e-07
-8.12492e-09
9.01848e-06
-3.63359e-07
5.06254e-08
9.10168e-06
-1.65989e-07
-5.57423e-08
9.24105e-06
-2.77925e-07
7.52716e-08
9.2358e-06
-1.30593e-07
-2.23101e-08
-2.15621e-07
1.24455e-07
8.00224e-06
-4.43537e-07
1.55589e-07
7.89769e-06
-2.36051e-07
7.69311e-08
7.68741e-06
-4.45994e-07
2.35203e-07
7.56454e-06
-1.73329e-07
5.32209e-08
7.33977e-06
-3.28655e-07
1.81403e-07
7.2019e-06
-1.16006e-07
1.88928e-08
6.92507e-06
-1.96433e-07
1.98104e-07
6.78689e-06
-7.78024e-08
1.84894e-08
-1.70769e-07
1.94382e-07
7.79952e-06
-2.69311e-07
1.74082e-07
7.55053e-06
-1.06117e-07
9.56406e-08
7.11456e-06
-2.2403e-07
2.41953e-07
6.94389e-06
-8.94882e-08
7.48295e-08
6.63457e-06
-1.64161e-07
2.00405e-07
6.55436e-06
-7.41279e-08
3.6216e-08
6.38173e-06
-1.16712e-07
1.84272e-07
6.35574e-06
-5.80221e-08
3.11446e-08
-1.37102e-07
1.40833e-07
7.60293e-06
1.40363e-07
7.31249e-06
1.0967e-07
6.72361e-06
2.2552e-07
6.47565e-06
7.65816e-08
6.00948e-06
2.19775e-07
5.8504e-06
7.56609e-08
5.50565e-06
2.39947e-07
5.41366e-06
3.84014e-08
1.63328e-07
8.65232e-06
-3.8619e-07
8.94171e-06
-2.26564e-07
9.45195e-06
-3.74445e-07
9.60468e-06
-1.60859e-07
9.91044e-06
-2.55133e-07
9.97657e-06
-1.21873e-07
1.02548e-05
-2.02956e-07
1.03859e-05
-1.53397e-07
-2.2803e-07
8.34844e-06
-4.15776e-07
8.4266e-06
-2.27788e-07
8.70539e-06
-4.1804e-07
8.78271e-06
-1.84955e-07
8.98786e-06
-2.78878e-07
9.0131e-06
-1.28223e-07
9.19933e-06
-1.91079e-07
9.22364e-06
-1.59222e-07
-2.15877e-07
8.13832e-06
-2.16752e-07
8.1159e-06
-1.09728e-07
8.18657e-06
-2.46751e-07
8.20731e-06
-1.30871e-07
8.3239e-06
-1.95057e-07
8.3451e-06
-1.13205e-07
8.48916e-06
-1.50872e-07
8.49433e-06
-1.33242e-07
-1.63539e-07
7.96833e-06
7.91871e-06
7.81398e-06
7.74264e-06
7.7387e-06
7.72774e-06
7.85948e-06
7.81069e-06
)
;

boundaryField
{
    inlet
    {
        type            calculated;
        value           nonuniform List<scalar> 
12
(
-8.16327e-06
-8.16327e-06
-8.16327e-06
-8.16327e-06
-8.16327e-06
-8.16327e-06
-8.16327e-06
-8.16327e-06
-8.16327e-06
-8.16327e-06
-8.16327e-06
-8.16327e-06
)
;
    }
    outlet
    {
        type            calculated;
        value           nonuniform 0();
    }
    wall
    {
        type            calculated;
        value           nonuniform List<scalar> 
63
(
0
0
0
0
0
0
0
0
0
0
0
0
0
0
0
0
0
0
0
0
0
2.46519e-32
0
0
0
0
0
0
0
0
0
0
0
0
0
0
0
0
0
0
0
0
0
0
0
6.16298e-33
0
0
0
0
0
0
0
0
0
0
0
0
0
0
0
0
0
)
;
    }
    procBoundary4to0
    {
        type            processor;
        value           nonuniform List<scalar> 
36
(
3.86285e-07
2.72908e-07
4.23594e-07
2.92994e-07
3.40503e-07
2.87467e-07
3.22129e-07
3.40806e-07
2.41586e-07
4.08191e-07
2.41441e-07
4.31665e-07
2.15556e-07
3.31052e-07
1.77028e-07
2.7572e-07
1.80014e-07
1.85893e-07
4.04515e-07
2.32509e-07
3.68324e-07
1.54069e-07
2.26722e-07
1.06019e-07
1.7177e-07
8.05746e-08
-9.4087e-09
4.03654e-07
2.31807e-07
3.77228e-07
1.79189e-07
3.00112e-07
1.20309e-07
2.33186e-07
7.49764e-08
5.24807e-08
)
;
    }
    procBoundary4to5
    {
        type            processor;
        value           nonuniform List<scalar> 
12
(
8.51259e-06
5.525e-06
4.98651e-06
4.92432e-06
9.35252e-06
6.64828e-06
6.34015e-06
5.22988e-06
1.07384e-05
9.40587e-06
8.58282e-06
7.86022e-06
)
;
    }
    procBoundary4to6
    {
        type            processor;
        value           nonuniform List<scalar> 
27
(
1.80549e-10
4.45742e-08
4.49282e-08
4.4383e-09
2.10011e-08
-4.70694e-10
2.92732e-08
-5.9539e-09
5.29707e-08
6.97916e-08
6.38194e-08
1.36728e-07
4.78924e-08
1.03218e-07
7.60894e-09
4.34024e-08
-1.643e-09
-4.26395e-09
1.1855e-07
4.95585e-08
8.3496e-08
1.70556e-08
2.8659e-08
-2.65901e-08
-4.26615e-08
-4.60555e-08
-4.97336e-08
)
;
    }
}


// ************************************************************************* //
