/*--------------------------------*- C++ -*----------------------------------*\
| =========                 |                                                 |
| \\      /  F ield         | OpenFOAM: The Open Source CFD Toolbox           |
|  \\    /   O peration     | Version:  4.x                                   |
|   \\  /    A nd           | Web:      www.OpenFOAM.org                      |
|    \\/     M anipulation  |                                                 |
\*---------------------------------------------------------------------------*/
FoamFile
{
    version     2.0;
    format      ascii;
    class       volScalarField;
    location    "22";
    object      Sm;
}
// * * * * * * * * * * * * * * * * * * * * * * * * * * * * * * * * * * * * * //

dimensions      [1 -3 -1 0 0 0 0];

internalField   nonuniform List<scalar> 
108
(
5.19256e-65
7.36258e-65
7.51757e-65
5.58003e-65
5.96751e-65
5.6575e-65
7.59497e-65
6.74245e-65
8.91241e-65
7.75009e-65
6.35506e-65
7.36255e-65
8.60253e-65
8.215e-65
7.51747e-65
6.35495e-65
5.42493e-65
9.06735e-65
6.97508e-65
8.75758e-65
6.66504e-65
8.44752e-65
6.66498e-65
5.96746e-65
6.12242e-65
9.68734e-65
5.65739e-65
4.34005e-65
5.73505e-65
7.59504e-65
5.19251e-65
7.36247e-65
6.35495e-65
9.22237e-65
5.96739e-65
5.96737e-65
5.34757e-65
5.11506e-65
7.05256e-65
7.67255e-65
6.97503e-65
5.27001e-65
4.495e-65
6.97496e-65
8.21495e-65
5.65757e-65
6.51007e-65
5.81255e-65
6.43253e-65
5.96751e-65
5.96749e-65
6.66497e-65
7.90493e-65
8.1374e-65
4.41755e-65
6.27756e-65
7.82755e-65
7.20753e-65
7.6725e-65
7.28496e-65
6.66494e-65
6.66491e-65
6.81989e-65
6.66508e-65
7.20757e-65
5.96753e-65
8.52503e-65
8.44749e-65
6.74246e-65
9.6099e-65
7.90488e-65
6.81988e-65
4.96006e-65
6.66508e-65
4.41754e-65
6.74255e-65
5.73504e-65
8.06003e-65
7.20752e-65
6.2775e-65
7.20749e-65
5.34757e-65
8.7576e-65
5.81255e-65
5.50254e-65
6.20003e-65
7.20751e-65
6.35499e-65
5.65747e-65
7.59494e-65
5.42507e-65
7.36258e-65
7.44006e-65
7.36254e-65
5.65752e-65
6.58748e-65
6.43247e-65
7.51744e-65
6.27744e-65
7.44009e-65
7.05257e-65
5.81255e-65
7.67253e-65
6.97501e-65
9.22247e-65
4.49498e-65
4.88245e-65
6.35492e-65
)
;

boundaryField
{
    inlet
    {
        type            calculated;
        value           uniform 0;
    }
    outlet
    {
        type            calculated;
        value           nonuniform 0();
    }
    wall
    {
        type            calculated;
        value           uniform 0;
    }
    procBoundary4to0
    {
        type            processor;
        value           nonuniform List<scalar> 
36
(
4.57256e-65
4.88255e-65
5.73505e-65
5.34753e-65
6.12251e-65
7.43999e-65
4.80498e-65
4.10747e-65
4.95996e-65
5.50257e-65
8.13758e-65
7.28505e-65
6.74252e-65
5.81249e-65
5.96746e-65
8.36992e-65
6.58741e-65
5.50241e-65
4.57255e-65
4.96004e-65
7.28504e-65
5.73501e-65
7.28498e-65
8.05992e-65
6.74241e-65
5.1149e-65
8.05983e-65
5.27006e-65
5.89005e-65
7.82754e-65
9.22251e-65
4.49499e-65
9.14491e-65
7.12989e-65
5.4249e-65
2.32494e-65
)
;
    }
    procBoundary4to5
    {
        type            processor;
        value           nonuniform List<scalar> 
12
(
6.35492e-65
7.05237e-65
8.21481e-65
9.99725e-65
6.66494e-65
5.42492e-65
6.89736e-65
4.8049e-65
2.635e-65
6.35494e-65
6.12241e-65
7.36239e-65
)
;
    }
    procBoundary4to6
    {
        type            processor;
        value           nonuniform List<scalar> 
27
(
1.03851e-64
7.59507e-65
4.96003e-65
7.44001e-65
9.37747e-65
6.12245e-65
7.36242e-65
6.50989e-65
8.52483e-65
7.67259e-65
7.67257e-65
7.75005e-65
7.67252e-65
5.34749e-65
7.05247e-65
6.27745e-65
5.88992e-65
7.90487e-65
5.03756e-65
5.27006e-65
6.12255e-65
6.89753e-65
6.51002e-65
6.43249e-65
8.67996e-65
8.75742e-65
3.79747e-65
)
;
    }
}


// ************************************************************************* //
