/*--------------------------------*- C++ -*----------------------------------*\
| =========                 |                                                 |
| \\      /  F ield         | OpenFOAM: The Open Source CFD Toolbox           |
|  \\    /   O peration     | Version:  4.x                                   |
|   \\  /    A nd           | Web:      www.OpenFOAM.org                      |
|    \\/     M anipulation  |                                                 |
\*---------------------------------------------------------------------------*/
FoamFile
{
    version     2.0;
    format      ascii;
    class       volScalarField;
    location    "15.5";
    object      Cs;
}
// * * * * * * * * * * * * * * * * * * * * * * * * * * * * * * * * * * * * * //

dimensions      [1 -3 0 0 0 0 0];

internalField   nonuniform List<scalar> 
108
(
334.927
334.884
334.835
334.791
334.771
334.783
334.837
334.896
337.403
334.931
334.885
334.832
334.782
334.749
334.747
334.78
334.842
339.757
334.947
334.908
334.859
334.806
334.757
334.731
334.749
334.833
335.068
334.98
334.953
334.922
334.887
334.845
334.803
334.765
334.735
347.925
334.851
334.816
334.802
334.811
334.853
334.904
334.972
335.027
335.17
334.863
334.822
334.798
334.796
334.824
334.862
334.927
334.978
335.238
334.885
334.837
334.799
334.779
334.784
334.804
334.855
334.896
335.229
334.96
334.926
334.887
334.849
334.812
334.78
334.765
334.744
334.767
334.888
334.876
334.888
334.91
334.949
334.992
335.035
335.079
335.182
334.9
334.877
334.88
334.895
334.934
334.973
335.021
335.053
335.213
334.901
334.871
334.866
334.87
334.905
334.927
334.973
334.979
335.512
334.952
334.921
334.887
334.851
334.818
334.785
334.769
334.75
334.736
)
;

boundaryField
{
    inlet
    {
        type            calculated;
        value           nonuniform 0();
    }
    outlet
    {
        type            calculated;
        value           uniform 335;
    }
    wall
    {
        type            calculated;
        value           nonuniform List<scalar> 
63
(
334.927
334.931
334.947
334.98
334.884
334.885
334.908
334.953
334.835
334.832
334.859
334.922
334.791
334.782
334.806
334.887
334.771
334.749
334.757
334.845
334.783
334.747
334.731
334.803
334.837
334.78
334.749
334.765
334.896
334.842
334.833
334.735
337.403
339.757
335.068
347.925
334.98
334.96
334.952
334.953
334.926
334.921
334.922
334.887
334.887
334.887
334.849
334.851
334.845
334.812
334.818
334.803
334.78
334.785
334.765
334.765
334.769
334.735
334.744
334.75
347.925
334.767
334.736
)
;
    }
    procBoundary3to1
    {
        type            processor;
        value           nonuniform List<scalar> 
27
(
334.929
334.889
334.837
334.789
334.768
334.795
334.872
334.972
335.135
334.875
334.835
334.82
334.85
334.931
335.001
335.073
335.091
335.077
334.956
334.913
334.917
334.944
334.997
335.047
335.095
335.116
335.242
)
;
    }
    procBoundary3to2
    {
        type            processor;
        value           nonuniform List<scalar> 
12
(
334.962
334.973
334.98
335.009
334.896
334.916
334.939
334.992
334.903
334.932
334.938
334.981
)
;
    }
    procBoundary3to7
    {
        type            processor;
        value           nonuniform List<scalar> 
36
(
334.935
334.924
334.927
334.944
334.972
335.007
335.045
335.079
335.264
334.942
334.932
334.936
334.948
334.974
335.002
335.037
335.062
335.216
334.947
334.933
334.931
334.935
334.955
334.969
335
334.998
335.158
334.979
334.961
334.94
334.912
334.89
334.858
334.86
334.835
334.817
)
;
    }
}


// ************************************************************************* //
