/*--------------------------------*- C++ -*----------------------------------*\
| =========                 |                                                 |
| \\      /  F ield         | OpenFOAM: The Open Source CFD Toolbox           |
|  \\    /   O peration     | Version:  4.x                                   |
|   \\  /    A nd           | Web:      www.OpenFOAM.org                      |
|    \\/     M anipulation  |                                                 |
\*---------------------------------------------------------------------------*/
FoamFile
{
    version     2.0;
    format      ascii;
    class       surfaceScalarField;
    location    "15.5";
    object      phi;
}
// * * * * * * * * * * * * * * * * * * * * * * * * * * * * * * * * * * * * * //

dimensions      [0 3 -1 0 0 0 0];

internalField   nonuniform List<scalar> 
249
(
1.07434e-05
-1.30233e-06
3.7449e-07
1.082e-05
-9.74569e-07
5.89755e-07
1.08705e-05
-4.93156e-07
3.18369e-07
1.04229e-05
-2.89487e-07
7.70837e-07
1.04484e-05
-1.84612e-07
1.14779e-07
1.0044e-05
4.43279e-08
6.94814e-07
1.10141e-05
-1.25147e-07
-5.87017e-07
1.07358e-05
9.19338e-08
7.15227e-07
-7.47995e-08
-6.25929e-06
1.08447e-05
-1.04374e-06
6.01134e-07
1.07607e-05
-7.71385e-07
6.98822e-07
1.07945e-05
-4.72455e-07
4.89485e-07
1.03078e-05
-2.37971e-07
8.14416e-07
1.00964e-05
-1.75743e-07
4.76518e-07
9.47819e-06
-4.05979e-08
9.07702e-07
9.28177e-06
-2.89191e-07
5.22784e-07
8.91691e-06
-1.98204e-07
7.91218e-07
-1.30348e-06
-4.44756e-06
1.17545e-05
-5.04677e-07
6.33825e-07
1.15788e-05
-2.97475e-07
6.54515e-07
1.13596e-05
-1.42506e-07
5.08261e-07
1.05194e-05
9.92558e-08
9.22815e-07
9.57147e-06
4.54815e-07
6.15011e-07
8.00523e-06
4.24046e-07
1.3209e-06
5.96054e-06
1.27408e-06
6.51834e-07
4.85721e-06
-3.64043e-10
1.04798e-06
2.97674e-06
-1.96454e-07
1.34716e-05
5.27703e-07
1.38641e-05
3.26571e-07
1.41263e-05
2.52308e-07
1.4211e-05
4.58401e-07
1.44026e-05
5.73564e-07
1.39108e-05
1.14276e-06
1.37227e-05
1.63667e-06
1.19617e-05
1.90635e-06
-8.97306e-06
5.4821e-06
-1.12229e-06
7.11161e-07
5.70325e-06
-8.70176e-07
9.087e-07
6.03308e-06
-4.81545e-07
3.57965e-07
6.44569e-06
-3.70189e-07
7.46224e-07
6.68287e-06
-6.0805e-08
1.18226e-08
7.29318e-06
-1.30753e-07
4.99202e-07
7.21396e-06
4.50369e-07
-5.06981e-07
7.98438e-06
-1.02697e-07
5.17114e-07
2.61297e-06
-4.02779e-06
6.39907e-06
-8.89608e-07
9.23614e-07
6.47653e-06
-6.46282e-07
1.12284e-06
6.97092e-06
-4.0551e-07
4.21177e-07
7.1769e-06
-2.50443e-07
8.46434e-07
7.87001e-06
-6.07786e-08
4.51303e-08
8.1387e-06
-9.32518e-08
7.99519e-07
9.37182e-06
3.61569e-07
-4.62539e-07
9.84739e-06
-5.98394e-07
9.45658e-07
2.54904e-06
-5.91743e-06
7.0832e-06
-3.61388e-07
1.05257e-06
6.96767e-06
-2.05854e-07
1.17288e-06
7.16471e-06
-6.47234e-08
5.37725e-07
7.17092e-06
1.00386e-08
1.05131e-06
7.33521e-06
4.2289e-07
2.48889e-07
7.59934e-06
5.94457e-08
1.11541e-06
7.16615e-06
1.49425e-06
1.17983e-07
7.57684e-06
-8.45226e-07
1.02423e-06
6.50114e-06
-8.69573e-07
1.05833e-05
8.89073e-07
1.08172e-05
7.88588e-07
1.12771e-05
3.30148e-07
1.14053e-05
7.53025e-07
1.25223e-05
1.73466e-07
1.26132e-05
1.32784e-06
1.57797e-05
1.35282e-07
1.4541e-05
2.4416e-06
-6.77052e-06
3.25697e-06
-9.13044e-07
3.81233e-06
-9.5485e-07
4.09124e-06
-4.89159e-07
4.63686e-06
-5.44453e-07
4.69344e-06
-2.15119e-07
5.00111e-06
4.56639e-08
4.64849e-06
-8.47225e-09
5.34127e-06
-3.39625e-08
6.78116e-07
4.52772e-06
-6.59028e-07
4.57991e-06
-6.59544e-07
4.81397e-06
-3.51019e-07
5.01878e-06
-3.13514e-07
5.18562e-06
-1.42271e-07
6.02704e-06
-1.8292e-07
6.17082e-06
9.54394e-08
7.37929e-06
-5.41351e-07
7.89082e-07
4.69904e-06
-2.15983e-07
4.71707e-06
-1.6373e-07
4.97578e-06
-1.21552e-07
5.1744e-06
-3.53598e-08
5.3753e-06
8.75457e-08
6.0543e-06
-1.66842e-07
6.52265e-06
3.28932e-07
7.03875e-06
-6.36006e-07
7.59863e-07
8.21566e-06
8.4916e-06
8.70477e-06
8.83108e-06
9.0914e-06
9.12361e-06
9.84413e-06
9.59563e-06
)
;

boundaryField
{
    inlet
    {
        type            calculated;
        value           nonuniform 0();
    }
    outlet
    {
        type            calculated;
        value           nonuniform List<scalar> 
12
(
1.84395e-05
1.47181e-05
9.01637e-07
2.40432e-05
5.49079e-06
1.15028e-05
4.42466e-06
1.89675e-05
1.54222e-06
4.84315e-06
8.75365e-06
5.76068e-06
)
;
    }
    wall
    {
        type            calculated;
        value           nonuniform List<scalar> 
63
(
0
0
0
0
0
0
0
0
0
0
0
0
0
0
0
0
0
0
0
0
0
0
0
0
0
0
0
0
0
0
1.26218e-29
0
0
3.15544e-30
0
0
0
0
0
0
0
0
0
0
0
0
0
0
0
0
0
0
0
0
0
0
0
0
0
0
0
0
0
)
;
    }
    procBoundary3to1
    {
        type            processor;
        value           nonuniform List<scalar> 
27
(
1.24673e-06
9.56531e-07
5.84619e-07
2.98185e-07
2.87837e-07
-1.47484e-07
-1.0665e-07
-3.9802e-07
-1.24875e-06
1.08507e-06
9.1237e-07
5.36262e-07
2.93783e-07
1.60299e-07
-1.02561e-07
-3.03885e-07
-3.44084e-07
-2.23521e-06
9.30772e-07
8.15181e-07
5.28222e-07
3.71805e-07
2.57017e-07
-7.58912e-08
1.17099e-07
-4.45399e-07
7.47308e-08
)
;
    }
    procBoundary3to2
    {
        type            processor;
        value           nonuniform List<scalar> 
12
(
-1.01362e-05
-1.04398e-05
-1.1376e-05
-1.28681e-05
-4.9753e-06
-5.87593e-06
-6.72961e-06
-9.92318e-06
-2.69486e-06
-4.0781e-06
-4.27779e-06
-7.50732e-06
)
;
    }
    procBoundary3to7
    {
        type            processor;
        value           nonuniform List<scalar> 
36
(
7.64957e-07
9.79084e-07
4.0845e-07
6.52902e-07
1.30835e-07
3.95542e-07
-1.20038e-07
4.26699e-07
-8.7145e-07
1.04328e-06
1.36936e-06
4.79828e-07
7.2789e-07
4.37822e-08
3.71719e-07
-5.59509e-07
3.73477e-07
-3.37516e-06
1.16253e-06
1.34309e-06
5.33144e-07
9.20759e-07
7.15135e-08
6.14842e-07
-4.27047e-07
7.36259e-07
-2.4333e-06
1.00758e-06
1.07805e-06
5.04746e-07
9.53272e-07
2.63647e-07
1.32929e-06
-9.65002e-08
2.19065e-06
-2.05154e-06
)
;
    }
}


// ************************************************************************* //
