/*--------------------------------*- C++ -*----------------------------------*\
| =========                 |                                                 |
| \\      /  F ield         | OpenFOAM: The Open Source CFD Toolbox           |
|  \\    /   O peration     | Version:  4.x                                   |
|   \\  /    A nd           | Web:      www.OpenFOAM.org                      |
|    \\/     M anipulation  |                                                 |
\*---------------------------------------------------------------------------*/
FoamFile
{
    version     2.0;
    format      ascii;
    class       volScalarField;
    location    "15.5";
    object      Qsource;
}
// * * * * * * * * * * * * * * * * * * * * * * * * * * * * * * * * * * * * * //

dimensions      [1 -1 -3 0 0 0 0];

internalField   nonuniform List<scalar> 
108
(
9.32415e+09
4.82019e+09
7.43377e+09
4.18597e+09
5.36889e+09
4.70656e+09
5.86222e+09
6.10909e+09
3.95566e+09
7.18813e+09
1.02573e+10
5.6906e+09
6.5215e+09
6.68859e+09
5.9622e+09
6.46745e+09
6.60541e+09
4.50267e+09
7.42185e+09
7.37668e+09
7.75052e+09
5.80299e+09
6.22042e+09
5.9169e+09
6.46486e+09
6.77821e+09
3.38885e+09
5.9416e+09
6.0367e+09
6.64925e+09
8.786e+09
6.9752e+09
7.74608e+09
5.13947e+09
7.24088e+09
6.66745e+09
8.59899e+09
7.86875e+09
1.01143e+10
1.04235e+10
8.50302e+09
7.83306e+09
6.8984e+09
8.52181e+09
8.23565e+09
7.88466e+09
8.06944e+09
8.49862e+09
9.06973e+09
7.809e+09
8.26348e+09
9.84978e+09
9.48694e+09
6.59433e+09
1.28619e+10
9.75727e+09
8.99158e+09
1.1124e+10
8.33147e+09
9.81649e+09
7.97869e+09
9.39765e+09
7.63643e+09
9.06125e+09
8.03349e+09
7.59994e+09
9.27765e+09
9.74165e+09
8.76148e+09
7.95522e+09
1.02411e+10
7.32528e+09
8.15123e+09
1.05661e+10
9.09753e+09
1.00839e+10
6.52986e+09
7.70942e+09
9.09978e+09
8.39077e+09
6.73455e+09
9.86866e+09
6.12227e+09
8.2871e+09
5.0437e+09
4.50862e+09
9.60693e+09
8.05596e+09
1.12558e+10
5.7133e+09
6.75055e+09
1.03439e+10
9.24793e+09
7.1832e+09
7.41944e+09
9.96849e+09
8.19223e+09
9.44418e+09
4.72715e+09
6.54476e+09
5.46058e+09
6.28456e+09
7.7911e+09
6.94358e+09
9.41967e+09
7.00229e+09
1.06134e+10
8.29375e+09
)
;

boundaryField
{
    inlet
    {
        type            calculated;
        value           nonuniform 0();
    }
    outlet
    {
        type            calculated;
        value           uniform 0;
    }
    wall
    {
        type            calculated;
        value           uniform 0;
    }
    procBoundary3to1
    {
        type            processor;
        value           nonuniform List<scalar> 
27
(
4.64809e+09
7.9696e+09
6.83804e+09
9.63149e+09
6.37203e+09
6.21285e+09
5.07508e+09
5.87507e+09
3.66893e+09
9.05709e+09
8.40531e+09
7.12214e+09
6.71095e+09
5.66246e+09
8.99247e+09
8.80414e+09
1.25167e+10
3.75385e+09
8.01945e+09
7.6747e+09
5.34024e+09
1.09379e+10
8.72543e+09
1.04785e+10
7.25813e+09
9.31715e+09
3.08932e+09
)
;
    }
    procBoundary3to2
    {
        type            processor;
        value           nonuniform List<scalar> 
12
(
4.02266e+09
5.50227e+09
7.46138e+09
5.97849e+09
1.13603e+10
6.50854e+09
7.7513e+09
5.68187e+09
8.98188e+09
5.82081e+09
1.02471e+10
1.05705e+10
)
;
    }
    procBoundary3to7
    {
        type            processor;
        value           nonuniform List<scalar> 
36
(
1.04622e+10
9.1906e+09
6.58652e+09
7.94158e+09
1.1186e+10
1.24434e+10
8.19628e+09
6.6164e+09
6.16423e+09
8.08106e+09
1.15916e+10
7.78384e+09
8.29174e+09
8.74466e+09
7.15008e+09
8.33518e+09
7.94092e+09
6.87447e+09
6.20512e+09
9.25292e+09
7.0834e+09
8.95054e+09
8.43809e+09
1.04576e+10
8.49544e+09
9.10334e+09
7.55059e+09
6.13589e+09
8.755e+09
9.56249e+09
6.92509e+09
8.52798e+09
9.24255e+09
8.76179e+09
8.71425e+09
4.43965e+09
)
;
    }
}


// ************************************************************************* //
