/*--------------------------------*- C++ -*----------------------------------*\
| =========                 |                                                 |
| \\      /  F ield         | OpenFOAM: The Open Source CFD Toolbox           |
|  \\    /   O peration     | Version:  4.x                                   |
|   \\  /    A nd           | Web:      www.OpenFOAM.org                      |
|    \\/     M anipulation  |                                                 |
\*---------------------------------------------------------------------------*/
FoamFile
{
    version     2.0;
    format      ascii;
    class       volVectorField;
    location    "15.5";
    object      Urel;
}
// * * * * * * * * * * * * * * * * * * * * * * * * * * * * * * * * * * * * * //

dimensions      [0 1 -1 0 0 0 0];

internalField   nonuniform List<vector> 
108
(
(-0.0232898 3.26681e-05 -3.11876e-05)
(-0.0241899 -1.81121e-05 -0.000334795)
(-0.022695 -5.75484e-05 -0.000471315)
(-0.0235799 -9.60174e-05 -0.000559906)
(-0.0217006 -9.68517e-05 -0.000413024)
(-0.022722 -0.00014269 -0.00018188)
(-0.0205067 -0.000216572 0.000481471)
(-0.0216709 -0.000285547 0.00134062)
(-0.0184115 -0.000735116 0.00320108)
(-0.0235089 -9.64997e-05 -3.5062e-05)
(-0.0244545 -0.000128447 -0.000332583)
(-0.0230086 -0.000190416 -0.000519165)
(-0.0239499 -0.000233822 -0.00063704)
(-0.0220865 -0.000281745 -0.000579424)
(-0.0230903 -0.000343226 -0.00032186)
(-0.0207785 -0.000402527 0.00022193)
(-0.0217905 -0.000588762 0.00137223)
(-0.0186186 -0.000522694 0.00313001)
(-0.024421 -0.000244308 2.32903e-05)
(-0.0253467 -0.000292682 -0.00028432)
(-0.0241054 -0.000358616 -0.000532792)
(-0.0249351 -0.000491195 -0.000738633)
(-0.0231514 -0.000619174 -0.000783077)
(-0.0238271 -0.000789969 -0.000642939)
(-0.0213681 -0.00104629 -9.65058e-05)
(-0.0216662 -0.00127065 0.00106068)
(-0.0186569 -0.00196832 0.00253078)
(-0.0255245 -0.000299348 0.000111967)
(-0.0265663 -0.000359691 -0.000172513)
(-0.0256828 -0.000472719 -0.000487125)
(-0.0266139 -0.000633674 -0.000724328)
(-0.0252591 -0.000913296 -0.000934866)
(-0.0260004 -0.00114919 -0.000860795)
(-0.0238329 -0.00175943 -0.000556681)
(-0.0242362 -0.00208315 0.00115846)
(-0.0205549 -0.00380482 0.00434359)
(-0.020602 3.78229e-05 -2.47886e-05)
(-0.0220244 7.7653e-07 -0.000329127)
(-0.0203294 -3.41749e-05 -0.000356578)
(-0.0218251 -7.7244e-05 -0.00048389)
(-0.0199407 -7.40937e-05 -0.000221227)
(-0.0213945 -7.67739e-05 -5.5105e-05)
(-0.0192719 -0.000215698 0.000648065)
(-0.0203495 -0.000278314 0.00128747)
(-0.0176535 -0.000921062 0.00338271)
(-0.0209814 -9.07304e-05 -1.20108e-05)
(-0.022425 -0.000100354 -0.000334719)
(-0.0207566 -0.000161724 -0.000368931)
(-0.0223457 -0.000201553 -0.00052028)
(-0.0204642 -0.000282784 -0.000295325)
(-0.0221047 -0.000338216 -0.000185928)
(-0.0198316 -0.00054395 0.000540001)
(-0.021365 -0.000699035 0.0013342)
(-0.0181494 -0.00133423 0.00376335)
(-0.0220225 -0.0002331 6.00482e-05)
(-0.0233434 -0.000254252 -0.000270137)
(-0.0218711 -0.000306811 -0.000384974)
(-0.023322 -0.000401692 -0.000614225)
(-0.0216045 -0.000527048 -0.000492432)
(-0.0230758 -0.00066708 -0.000475998)
(-0.0209409 -0.00104441 0.000185902)
(-0.0220371 -0.00124789 0.00103682)
(-0.0189296 -0.00283874 0.00281339)
(-0.0236372 -0.000319077 0.000183416)
(-0.0247996 -0.000336319 -0.0001179)
(-0.0237513 -0.00043094 -0.000315803)
(-0.0250548 -0.000516857 -0.000599348)
(-0.0237015 -0.000767533 -0.000604948)
(-0.0251836 -0.000902725 -0.000701129)
(-0.0231676 -0.0015863 -5.11854e-05)
(-0.02495 -0.00183395 0.00102593)
(-0.0203454 -0.00412924 0.00472871)
(-0.0185257 6.23313e-05 -7.67407e-05)
(-0.020309 3.47723e-06 -0.000272133)
(-0.0184562 2.7839e-05 -0.000265795)
(-0.0203013 5.09993e-05 -0.000284391)
(-0.0184326 1.94544e-05 -8.81961e-05)
(-0.0200882 -1.53815e-05 0.000113362)
(-0.0179664 -3.24196e-05 0.000565626)
(-0.0191397 -9.06939e-05 0.00106707)
(-0.0166478 -0.000208762 0.00207087)
(-0.0190481 -7.97605e-05 -7.66386e-05)
(-0.0207096 -8.38449e-05 -0.000276719)
(-0.0189975 -0.000109004 -0.000262775)
(-0.0207435 -0.000108147 -0.000310762)
(-0.0189322 -0.000193588 -0.000118918)
(-0.0206719 -0.000254128 6.8266e-05)
(-0.0186564 -0.000433026 0.00062775)
(-0.0200124 -0.000544365 0.00125024)
(-0.0174246 -0.0011567 0.00279319)
(-0.0200023 -0.000214207 -6.59975e-06)
(-0.0215849 -0.000188079 -0.000242388)
(-0.0200158 -0.000223295 -0.000276977)
(-0.0217245 -0.000275295 -0.000412261)
(-0.0200626 -0.000373634 -0.000265736)
(-0.0218157 -0.000458959 -0.000176476)
(-0.0199004 -0.000783412 0.000390619)
(-0.0213261 -0.000951461 0.00100574)
(-0.0182914 -0.00200069 0.00244104)
(-0.0218287 -0.000329411 0.000102475)
(-0.0230473 -0.00028576 -0.000148884)
(-0.0219171 -0.000314798 -0.000286902)
(-0.0233021 -0.000351571 -0.000511007)
(-0.0220052 -0.000503468 -0.000464898)
(-0.0235089 -0.000592213 -0.000516427)
(-0.0217433 -0.00102926 8.37587e-05)
(-0.0231622 -0.00127654 0.000648009)
(-0.019559 -0.00245081 0.00271954)
)
;

boundaryField
{
    inlet
    {
        type            calculated;
        value           nonuniform 0();
    }
    outlet
    {
        type            calculated;
        value           nonuniform List<vector> 
12
(
(-0.011458 -0.00744906 0.0133429)
(-0.0102966 0.00725508 0.00850349)
(-0.00236906 -0.00036475 -0.000958095)
(-0.0150863 -0.0140139 0.0190372)
(-0.0101817 -0.010711 0.0185596)
(-0.00764209 -0.00307732 0.0206195)
(-0.00971263 -0.0138794 0.00180031)
(-0.0115286 -0.0216516 0.0299222)
(-0.00375658 -0.00118768 0.00243775)
(-0.0082788 -0.00336446 0.0101236)
(-0.00629194 -0.00289614 0.00415173)
(-0.0111146 -0.00165677 0.00624084)
)
;
    }
    wall
    {
        type            calculated;
        value           nonuniform List<vector> 
63
(
(-7.79739e-06 -4.84132e-07 8.12033e-07)
(-8.0563e-06 -4.70559e-07 9.26921e-07)
(-9.17189e-06 -1.71884e-06 1.7326e-06)
(-9.28885e-06 -4.82198e-07 1.67224e-06)
(-7.56462e-06 -9.818e-07 1.46296e-06)
(-8.05991e-06 -2.14941e-07 1.08081e-06)
(-9.35646e-06 1.65248e-07 1.6314e-06)
(-1.10284e-05 -3.63681e-07 2.30196e-06)
(-8.15018e-06 1.25294e-07 1.23635e-06)
(-7.89862e-06 -1.45453e-08 1.35959e-06)
(-8.43518e-06 3.51837e-07 1.94396e-06)
(-1.0391e-05 7.8035e-07 3.85374e-06)
(-7.98006e-06 -5.94344e-07 1.29462e-06)
(-8.0378e-06 -5.96796e-07 1.63663e-06)
(-8.2897e-06 -3.07572e-07 1.957e-06)
(-9.94166e-06 1.33211e-07 2.89773e-06)
(-7.67344e-06 -1.5155e-06 1.34661e-06)
(-7.87506e-06 -2.03228e-06 1.10876e-06)
(-1.97348e-05 1.27871e-06 5.06387e-06)
(-4.21566e-05 9.3721e-06 1.3166e-05)
(-6.64735e-06 -1.79491e-06 1.20394e-06)
(-7.81352e-06 -1.5442e-06 1.55152e-06)
(-6.74934e-06 -2.47889e-06 3.45688e-06)
(-1.49974e-05 9.43409e-07 5.73985e-06)
(-5.05264e-06 -1.19868e-06 2.60841e-06)
(-5.46889e-06 -1.56581e-07 3.98543e-06)
(-5.76662e-06 -4.68221e-07 4.08402e-06)
(-7.41741e-07 8.72516e-06 5.63737e-06)
(-1.28217e-05 -6.08949e-07 2.92042e-06)
(-6.6694e-06 5.09709e-07 3.47955e-06)
(-3.89984e-06 -1.05128e-06 2.50716e-06)
(-2.6172e-06 4.35393e-07 1.68655e-06)
(-3.0561e-06 -2.26692e-07 2.07505e-06)
(-1.69817e-06 9.64451e-09 1.70602e-06)
(-1.02345e-06 -1.66372e-06 1.16075e-06)
(-1.05545e-06 1.58184e-06 5.14659e-07)
(-9.28885e-06 -4.82198e-07 1.67224e-06)
(-7.73513e-06 -5.73415e-07 1.69147e-06)
(-6.91056e-06 3.92574e-07 2.87593e-06)
(-1.10284e-05 -3.63681e-07 2.30196e-06)
(-1.02921e-05 -7.7015e-07 1.59718e-06)
(-7.88885e-06 3.16215e-07 2.2298e-06)
(-1.0391e-05 7.8035e-07 3.85374e-06)
(-8.94721e-06 3.62446e-07 2.48757e-06)
(-7.66686e-06 2.07267e-07 2.65377e-06)
(-9.94166e-06 1.33211e-07 2.89773e-06)
(-9.19493e-06 -1.06579e-07 2.71252e-06)
(-4.95095e-06 -1.5533e-07 1.79372e-06)
(-4.21566e-05 9.3721e-06 1.3166e-05)
(-9.28711e-06 -3.66235e-07 2.12026e-06)
(-6.35911e-06 -1.58723e-06 1.77256e-06)
(-1.49974e-05 9.43409e-07 5.73985e-06)
(-8.35229e-06 -3.89858e-07 1.08525e-06)
(-5.4151e-06 4.342e-07 5.55443e-07)
(-7.41741e-07 8.72516e-06 5.63737e-06)
(-6.84022e-06 -2.5909e-07 -1.31723e-06)
(-4.04269e-06 -1.65725e-07 2.1604e-07)
(-2.6172e-06 4.35393e-07 1.68655e-06)
(-4.46148e-06 4.64503e-07 2.99475e-07)
(-3.07479e-06 -5.35785e-07 -5.0729e-07)
(-1.05545e-06 1.58184e-06 5.14659e-07)
(-1.20562e-06 1.02563e-07 1.67835e-07)
(-5.16301e-07 6.2925e-08 -1.10488e-07)
)
;
    }
    procBoundary3to1
    {
        type            processor;
        value           nonuniform List<vector> 
27
(
(-0.0235943 0.000262763 -1.44732e-06)
(-0.0245266 0.000235316 -0.000318828)
(-0.0229518 0.000259485 -0.000474676)
(-0.0238214 0.000284794 -0.000554589)
(-0.021717 0.000383012 -0.000483121)
(-0.0226042 0.000403341 -0.00029096)
(-0.0200486 0.000575857 0.000221936)
(-0.0206888 0.000629483 0.00097801)
(-0.0177759 0.000955234 0.00174702)
(-0.0208317 0.00023772 -2.19751e-05)
(-0.022313 0.000197175 -0.000338776)
(-0.0204327 0.000201996 -0.00040147)
(-0.0219679 0.000207076 -0.000559067)
(-0.019736 0.000292521 -0.000338356)
(-0.0213407 0.000316337 -0.000198773)
(-0.018873 0.000519251 0.00030794)
(-0.0198534 0.000612667 0.000809206)
(-0.0169918 0.00111013 0.0017568)
(-0.0189685 0.000236033 -7.64814e-05)
(-0.0206735 0.000150846 -0.00031104)
(-0.0187358 0.000188765 -0.000329177)
(-0.0206419 0.00016887 -0.000398208)
(-0.0187151 0.000276167 -0.000190808)
(-0.0204136 0.000308781 4.55522e-05)
(-0.0182216 0.000542825 0.000347014)
(-0.019301 0.000648563 0.000790888)
(-0.0168275 0.00135347 0.00141046)
)
;
    }
    procBoundary3to2
    {
        type            processor;
        value           nonuniform List<vector> 
12
(
(-0.0243453 8.647e-05 0.000285566)
(-0.0245006 -3.48245e-05 0.000283888)
(-0.0252038 -0.000201173 0.000317881)
(-0.0260606 -0.000265608 0.000369163)
(-0.0221745 7.19122e-05 0.000217063)
(-0.0224886 -6.1435e-05 0.000242164)
(-0.0232852 -0.000252642 0.000320576)
(-0.0244634 -0.000329483 0.000409358)
(-0.0204109 0.00012933 6.24805e-05)
(-0.0208319 -4.13995e-05 3.60665e-05)
(-0.0216051 -0.000273541 0.000126178)
(-0.0228411 -0.000391728 0.000256721)
)
;
    }
    procBoundary3to7
    {
        type            processor;
        value           nonuniform List<vector> 
36
(
(-0.0180906 5.36886e-05 -6.99152e-05)
(-0.0197284 6.5043e-05 -0.000217768)
(-0.0179748 6.2901e-05 -0.000140225)
(-0.0196777 7.74102e-05 -0.000127017)
(-0.0178528 6.30625e-05 5.76747e-05)
(-0.0193945 3.75666e-05 0.000179907)
(-0.0173826 5.64829e-05 0.000558961)
(-0.0184714 4.84343e-05 0.000793427)
(-0.0162522 8.43078e-05 0.0016396)
(-0.0184946 -0.000104701 -0.000123194)
(-0.0201126 -7.60946e-05 -0.000250228)
(-0.0184847 -0.000105232 -0.00013984)
(-0.0201645 -0.000103205 -0.000136521)
(-0.0184187 -0.000185976 7.29282e-05)
(-0.02004 -0.000199063 0.00020282)
(-0.018057 -0.000411138 0.000684865)
(-0.0192202 -0.000431878 0.00100048)
(-0.0168561 -0.00101027 0.00213627)
(-0.0194139 -0.000192178 -1.24231e-05)
(-0.0209557 -0.000171544 -0.000147436)
(-0.0194749 -0.000186409 -0.000120604)
(-0.0211205 -0.000213337 -0.00019872)
(-0.0195638 -0.000317027 -1.2383e-05)
(-0.02119 -0.000367212 4.72892e-05)
(-0.0193551 -0.000780477 0.000592967)
(-0.0205155 -0.000878894 0.0008661)
(-0.0179561 -0.00237361 0.00239807)
(-0.0209181 -0.000292808 0.000103568)
(-0.0222391 -0.000245075 -9.32068e-05)
(-0.0210697 -0.000270158 -0.000135323)
(-0.022563 -0.000253707 -0.000325914)
(-0.0212294 -0.000416125 -0.000212291)
(-0.0229055 -0.000419754 -0.000312686)
(-0.0210294 -0.000967752 0.000264425)
(-0.0227201 -0.00104875 0.000435352)
(-0.0189891 -0.00272445 0.00203106)
)
;
    }
}


// ************************************************************************* //
