/*--------------------------------*- C++ -*----------------------------------*\
| =========                 |                                                 |
| \\      /  F ield         | OpenFOAM: The Open Source CFD Toolbox           |
|  \\    /   O peration     | Version:  4.x                                   |
|   \\  /    A nd           | Web:      www.OpenFOAM.org                      |
|    \\/     M anipulation  |                                                 |
\*---------------------------------------------------------------------------*/
FoamFile
{
    version     2.0;
    format      ascii;
    class       volVectorField;
    location    "19";
    object      DDtUrel;
}
// * * * * * * * * * * * * * * * * * * * * * * * * * * * * * * * * * * * * * //

dimensions      [0 1 -2 0 0 0 0];

internalField   nonuniform List<vector> 
114
(
(0.000567164 1.03306e-06 -5.14025e-06)
(0.000429852 1.90736e-06 1.42259e-05)
(0.000352109 -2.48694e-06 2.75108e-05)
(0.000294101 -2.27073e-06 4.30034e-05)
(0.000258594 1.46371e-06 5.8661e-05)
(0.0001954 3.59487e-06 7.01001e-05)
(0.00178939 1.19197e-05 -0.000168053)
(0.0011538 7.62991e-06 -9.29149e-05)
(0.000777581 1.93712e-06 -3.47983e-05)
(0.000571393 -2.67092e-06 -2.14133e-06)
(0.000438414 -4.88097e-06 1.23672e-05)
(0.000349936 -1.24355e-05 2.30995e-05)
(0.000290456 -1.69627e-05 4.1887e-05)
(0.00026028 -1.04229e-05 5.6968e-05)
(0.000201049 -2.01072e-06 7.14137e-05)
(0.00181642 4.40872e-05 -0.000163744)
(0.00118532 1.71233e-05 -8.88575e-05)
(0.000810821 3.52807e-06 -3.11796e-05)
(0.000607483 -4.60972e-06 1.41451e-06)
(0.000488009 -1.04855e-05 1.32078e-05)
(0.000362193 -1.53117e-05 2.39237e-05)
(0.000316461 -2.03981e-05 4.09041e-05)
(0.00029084 -1.33928e-05 5.15531e-05)
(0.000235161 -8.47959e-07 6.46712e-05)
(0.00185183 5.21565e-05 -0.000155924)
(0.00122723 2.27032e-05 -8.51441e-05)
(0.000850275 5.39401e-06 -3.08925e-05)
(0.000646267 -4.42563e-06 -5.34207e-07)
(0.000513467 -1.28189e-05 9.44391e-06)
(0.000418308 -1.43806e-05 1.87765e-05)
(0.000365038 -1.5512e-05 3.51417e-05)
(0.000344202 -1.12224e-05 4.52853e-05)
(0.00029926 1.51314e-07 5.93708e-05)
(0.000250692 -1.47082e-06 2.94076e-05)
(0.000192942 -9.63462e-07 4.07873e-05)
(0.000161415 2.65946e-06 6.08389e-05)
(0.000115447 3.81993e-06 6.24048e-05)
(0.00172621 1.83956e-05 -0.000202432)
(0.00106828 8.58738e-06 -0.000101556)
(0.000682981 3.42255e-06 -3.74925e-05)
(0.000470873 -5.64469e-07 -7.45943e-07)
(0.00033627 -4.38781e-06 1.10949e-05)
(0.000256561 -9.8873e-06 2.50094e-05)
(0.000194488 -1.04195e-05 3.92445e-05)
(0.000168251 -7.08501e-06 5.78508e-05)
(0.000122686 -1.43715e-07 6.21608e-05)
(0.00175675 5.21463e-05 -0.000197611)
(0.00110217 2.15647e-05 -9.95659e-05)
(0.000718502 5.26066e-06 -3.60178e-05)
(0.000509795 -3.26286e-06 -1.24737e-07)
(0.000376222 -8.05314e-06 8.78819e-06)
(0.000282487 -1.02477e-05 2.1302e-05)
(0.000221394 -1.31011e-05 3.77628e-05)
(0.000195026 -9.3219e-06 5.4805e-05)
(0.000150765 -2.8776e-07 6.03512e-05)
(0.00179964 6.17169e-05 -0.00019077)
(0.00115419 2.75943e-05 -9.68027e-05)
(0.000770207 6.97651e-06 -3.70487e-05)
(0.000561867 -3.05149e-06 -3.65673e-06)
(0.000422942 -9.11501e-06 3.68288e-06)
(0.000336977 -8.97767e-06 1.63808e-05)
(0.000274652 -9.63185e-06 3.18779e-05)
(0.00025422 -7.02818e-06 4.50836e-05)
(0.000213233 1.57566e-06 5.37972e-05)
(9.62846e-05 1.01322e-06 4.82155e-05)
(6.86778e-05 1.96401e-06 4.65487e-05)
(0.00166541 2.80996e-05 -0.000189229)
(0.000986421 1.07137e-05 -9.31328e-05)
(0.000597323 2.8166e-06 -3.61219e-05)
(0.000382198 -2.1089e-06 -7.2798e-07)
(0.00025084 -4.07035e-06 1.06818e-05)
(0.00017652 -7.68925e-06 2.58949e-05)
(0.000123097 -5.28612e-06 3.33474e-05)
(9.68345e-05 -4.14358e-06 4.92837e-05)
(6.98758e-05 1.99738e-07 4.7237e-05)
(0.00169862 6.11972e-05 -0.000185786)
(0.00102269 2.56373e-05 -9.35069e-05)
(0.00063145 7.3088e-06 -3.85364e-05)
(0.00041439 -2.80498e-06 -3.7347e-06)
(0.000279205 -6.27634e-06 7.22185e-06)
(0.000199128 -7.54713e-06 2.2863e-05)
(0.000143549 -7.0465e-06 3.16741e-05)
(0.000118962 -7.12295e-06 4.68457e-05)
(9.21116e-05 -4.85361e-07 4.60619e-05)
(0.00174523 7.03467e-05 -0.00018217)
(0.00107729 3.35279e-05 -9.48071e-05)
(0.000684281 1.00009e-05 -4.15429e-05)
(0.000467149 -1.57867e-06 -7.67369e-06)
(0.000326771 -6.98281e-06 4.45144e-06)
(0.000244001 -5.40481e-06 2.00742e-05)
(0.000184475 -5.59233e-06 2.69963e-05)
(0.00016325 -8.0669e-06 4.01614e-05)
(0.000131041 -7.82777e-07 4.3542e-05)
(0.00163016 3.22036e-05 -0.000154976)
(0.00094105 1.41596e-05 -7.70852e-05)
(0.000548995 2.97779e-06 -3.3625e-05)
(0.000334288 -3.20614e-06 -3.6905e-06)
(0.000204202 -3.11927e-06 9.31599e-06)
(0.000136047 -4.63949e-06 2.53803e-05)
(8.61495e-05 -2.54957e-06 2.7531e-05)
(6.512e-05 -7.94416e-08 3.90172e-05)
(0.00166679 6.78383e-05 -0.000150273)
(0.000978958 2.65475e-05 -7.78415e-05)
(0.000582016 6.00525e-06 -3.67505e-05)
(0.000361579 -4.16549e-06 -7.53089e-06)
(0.000226602 -5.15353e-06 5.49567e-06)
(0.000155014 -4.4667e-06 2.01844e-05)
(0.000103018 -4.56444e-06 2.32974e-05)
(0.00171657 7.71611e-05 -0.000150173)
(0.0010338 3.4111e-05 -8.22451e-05)
(0.000630578 9.76747e-06 -4.20889e-05)
(0.00040609 -2.3975e-06 -1.29582e-05)
(0.000263904 -4.39956e-06 3.23282e-06)
(0.000189637 -3.5296e-06 1.85943e-05)
)
;

boundaryField
{
    inlet
    {
        type            calculated;
        value           nonuniform List<vector> 
12
(
(0.00396041 1.92933e-05 -0.000295906)
(0.00401802 0.000180558 -0.000313459)
(0.00414415 0.000143028 -0.00025465)
(0.00378149 5.8861e-05 -0.000659027)
(0.00383519 0.000222204 -0.000661498)
(0.00402932 0.000204417 -0.000607453)
(0.00373522 0.00013993 -0.000557459)
(0.00376686 0.000257116 -0.000557876)
(0.00397325 0.00022318 -0.000525874)
(0.00373791 0.000145284 -0.000511634)
(0.00380096 0.000281236 -0.000439396)
(0.00403095 0.0002586 -0.000440121)
)
;
    }
    outlet
    {
        type            calculated;
        value           nonuniform 0();
    }
    wall
    {
        type            calculated;
        value           nonuniform List<vector> 
66
(
(0.00396041 1.92933e-05 -0.000295906)
(0.00401802 0.000180558 -0.000313459)
(0.00414415 0.000143028 -0.00025465)
(0.000473288 2.88506e-05 -2.13259e-05)
(0.0005768 -2.77978e-05 6.58568e-07)
(0.000777219 -1.45748e-05 1.54639e-05)
(0.000411407 6.38894e-06 5.213e-05)
(0.000520522 -2.03075e-05 7.49454e-05)
(0.000656031 -1.80339e-05 6.62034e-05)
(0.000585924 2.24799e-05 5.50619e-06)
(0.000544575 -2.23167e-05 5.06584e-05)
(0.000626639 -2.25939e-05 9.04183e-05)
(0.000792786 -1.26543e-05 6.90527e-05)
(0.000479231 2.53263e-05 2.92919e-05)
(0.000481369 7.28973e-06 2.02416e-05)
(0.000924973 -3.1377e-05 4.42793e-05)
(0.000746848 -5.35435e-05 1.76311e-05)
(0.000545351 -1.66606e-05 2.3519e-05)
(0.000497986 -5.17687e-05 -2.50221e-05)
(0.00021278 -4.17633e-05 2.99153e-05)
(0.000703703 -2.95873e-05 -1.24693e-05)
(0.000487086 5.02499e-06 4.36824e-05)
(0.000398951 -0.0001074 6.14937e-05)
(0.000473254 -0.000107471 8.56265e-05)
(0.000685218 -3.62345e-05 4.77033e-05)
(0.000612347 2.80887e-05 7.29082e-05)
(0.000548011 -5.40901e-05 6.75162e-05)
(0.000611759 -5.9688e-05 3.61862e-05)
(0.00086126 -4.046e-05 1.38919e-05)
(0.00037422 -2.57633e-05 8.50297e-05)
(0.000310981 -2.72784e-05 0.000118391)
(0.000368909 1.16332e-05 5.35041e-05)
(0.000704762 4.99094e-06 4.26914e-05)
(0.00414415 0.000143028 -0.00025465)
(0.00402932 0.000204417 -0.000607453)
(0.00397325 0.00022318 -0.000525874)
(0.00403095 0.0002586 -0.000440121)
(0.000777219 -1.45748e-05 1.54639e-05)
(0.000477983 -9.11606e-07 -1.93137e-05)
(0.000251477 3.09844e-05 -2.06776e-05)
(0.00023857 -3.05493e-06 -3.86481e-05)
(0.000656031 -1.80339e-05 6.62034e-05)
(0.00037749 -2.64839e-05 4.01006e-05)
(0.000177537 -1.04819e-05 -4.78693e-08)
(0.000128231 -1.60651e-05 -4.56859e-05)
(0.000792786 -1.26543e-05 6.90527e-05)
(0.000527927 -1.55555e-05 7.25852e-05)
(0.000276987 -1.08545e-05 5.44625e-05)
(0.000209472 -2.57278e-05 1.50206e-06)
(0.000746848 -5.35435e-05 1.76311e-05)
(0.000411916 -2.76787e-05 -4.94151e-05)
(0.000183923 -3.32851e-05 -9.34552e-06)
(9.03852e-05 -2.89816e-06 1.49646e-05)
(0.000703703 -2.95873e-05 -1.24693e-05)
(0.000462905 2.93302e-06 -2.64778e-05)
(0.00018784 1.19663e-05 5.54764e-05)
(0.000200226 3.24593e-06 9.31091e-05)
(0.000685218 -3.62345e-05 4.77033e-05)
(0.000301388 -4.1328e-06 2.6187e-05)
(5.87888e-05 1.4464e-05 4.93909e-06)
(0.00086126 -4.046e-05 1.38919e-05)
(0.000504953 -3.54972e-06 4.42744e-05)
(0.000192645 -5.27135e-05 7.32311e-05)
(0.000704762 4.99094e-06 4.26914e-05)
(0.000304741 2.7252e-05 2.12518e-05)
(4.00351e-05 -4.24577e-06 3.64258e-05)
)
;
    }
    procBoundary2to0
    {
        type            processor;
        value           nonuniform List<vector> 
44
(
(0.000583759 1.70701e-06 -3.13697e-06)
(0.000445658 7.44885e-06 1.69738e-05)
(0.000371719 6.13608e-06 2.89568e-05)
(0.000312166 4.97254e-06 4.58658e-05)
(0.000267821 5.09265e-06 5.79778e-05)
(0.000199228 5.74106e-06 6.86341e-05)
(0.00178901 -2.45852e-05 -0.000175737)
(0.00115551 -8.27755e-06 -9.37027e-05)
(0.000778424 -3.7419e-06 -3.71703e-05)
(0.000778424 -3.7419e-06 -3.71703e-05)
(0.000461926 1.15372e-06 -2.3816e-07)
(0.000326344 1.00928e-06 1.48869e-05)
(0.00027018 4.18943e-06 3.09064e-05)
(0.000211646 4.24896e-06 4.24194e-05)
(0.000178472 4.348e-06 6.13631e-05)
(0.000127525 4.50568e-06 6.28019e-05)
(0.00171834 -2.14363e-05 -0.000212548)
(0.00106252 -8.96578e-06 -0.000103193)
(0.000677035 -3.09585e-06 -3.75575e-05)
(0.000461926 1.15372e-06 -2.3816e-07)
(0.000326344 1.00928e-06 1.48869e-05)
(0.000326344 1.00928e-06 1.48869e-05)
(0.000171766 -4.63709e-07 2.79516e-05)
(0.000124277 1.26693e-07 3.43789e-05)
(0.000112857 5.94482e-06 4.97546e-05)
(8.40141e-05 4.16648e-06 4.77471e-05)
(0.00164946 -1.75171e-05 -0.000195199)
(0.000971983 -7.84766e-06 -9.62643e-05)
(0.000584656 -3.38814e-06 -3.57527e-05)
(0.000369782 -2.39088e-07 1.96521e-06)
(0.000242618 -1.88081e-08 1.27026e-05)
(0.000171766 -4.63709e-07 2.79516e-05)
(0.000124277 1.26693e-07 3.43789e-05)
(0.000124277 1.26693e-07 3.43789e-05)
(5.87102e-05 3.30852e-06 3.52158e-05)
(3.73284e-05 1.00188e-06 3.34517e-05)
(0.00161627 -1.86183e-05 -0.000151982)
(0.000925722 -6.37219e-06 -7.7555e-05)
(0.000535398 -2.46991e-06 -3.20225e-05)
(0.000320582 -4.87332e-07 -1.59633e-06)
(0.000195885 3.01836e-07 9.97966e-06)
(0.00012873 -1.35916e-07 2.38021e-05)
(8.37492e-05 9.53406e-07 2.76397e-05)
(5.87102e-05 3.30852e-06 3.52158e-05)
)
;
    }
    procBoundary2to3
    {
        type            processor;
        value           nonuniform List<vector> 
12
(
(0.000143889 1.76763e-05 8.44201e-05)
(0.000155151 6.01547e-06 8.77001e-05)
(0.000189664 7.43871e-06 8.3922e-05)
(0.000271155 9.6145e-06 7.88478e-05)
(8.06725e-05 1.12709e-05 7.52423e-05)
(9.99923e-05 6.58007e-06 7.65964e-05)
(0.000124537 6.60294e-06 7.4882e-05)
(0.000199456 7.56272e-06 7.07852e-05)
(4.24682e-05 3.62755e-06 5.11923e-05)
(5.36882e-05 2.14374e-06 5.17766e-05)
(7.84005e-05 3.5302e-06 5.31337e-05)
(0.000123455 4.31566e-06 5.31269e-05)
)
;
    }
    procBoundary2to6
    {
        type            processor;
        value           nonuniform List<vector> 
32
(
(4.17804e-05 1.88335e-06 3.25453e-05)
(8.40495e-05 -5.4875e-06 3.34326e-05)
(6.11894e-05 -1.96081e-07 3.03759e-05)
(0.000135695 -4.38532e-06 1.8006e-05)
(0.000118672 -5.93951e-06 2.80931e-05)
(9.16666e-05 -2.18955e-07 2.65487e-05)
(0.0016129 3.3649e-05 -9.43896e-05)
(0.000911435 1.40838e-05 -5.36204e-05)
(0.000519775 2.11285e-06 -2.74323e-05)
(0.000301521 -4.25668e-06 -6.21743e-06)
(0.000177637 -3.88417e-06 4.52815e-06)
(0.000106438 -4.63699e-06 1.53881e-05)
(7.07888e-05 -2.79066e-06 1.87655e-05)
(4.17804e-05 1.88335e-06 3.25453e-05)
(8.40495e-05 -5.4875e-06 3.34326e-05)
(4.10065e-05 -1.14742e-06 2.41381e-05)
(0.00165273 7.47546e-05 -9.24344e-05)
(0.000954958 2.79273e-05 -5.57386e-05)
(0.000555291 6.25369e-06 -3.06561e-05)
(0.000329974 -6.09362e-06 -1.02126e-05)
(0.000196208 -5.77341e-06 5.41264e-07)
(0.000121067 -6.23678e-06 1.10843e-05)
(8.40495e-05 -5.4875e-06 3.34326e-05)
(0.000135695 -4.38532e-06 1.8006e-05)
(7.59221e-05 -5.31495e-06 1.47809e-05)
(0.00170447 7.95862e-05 -9.52829e-05)
(0.00100899 3.46178e-05 -5.89802e-05)
(0.00060068 8.84294e-06 -3.5214e-05)
(0.000366806 -4.60823e-06 -1.47595e-05)
(0.000223179 -4.64946e-06 -3.27439e-06)
(0.000135695 -4.38532e-06 1.8006e-05)
(0.000144856 -1.31713e-06 8.02118e-06)
)
;
    }
}


// ************************************************************************* //
