/*--------------------------------*- C++ -*----------------------------------*\
| =========                 |                                                 |
| \\      /  F ield         | OpenFOAM: The Open Source CFD Toolbox           |
|  \\    /   O peration     | Version:  4.x                                   |
|   \\  /    A nd           | Web:      www.OpenFOAM.org                      |
|    \\/     M anipulation  |                                                 |
\*---------------------------------------------------------------------------*/
FoamFile
{
    version     2.0;
    format      ascii;
    class       volScalarField;
    location    "19";
    object      Ksl;
}
// * * * * * * * * * * * * * * * * * * * * * * * * * * * * * * * * * * * * * //

dimensions      [1 -3 -1 0 0 0 0];

internalField   nonuniform List<scalar> 
114
(
6094.74
3229.78
5381.36
3113.02
4871.25
2948.62
3491.21
7528.44
3401.27
6466.49
3320.78
5803.05
3202.23
5269.3
3035.4
3432.96
7173.57
3304.94
5959.99
3208.36
5319.66
3096.84
4875.46
2965.32
3370.36
6510.22
3163.8
5228.48
2988.59
4554.54
2825.64
4105.51
2698.54
11338.7
3828.31
13320.1
3788.75
3541.03
8852.19
3673.57
9749.58
3746.44
10709.3
3752.7
12198.2
3664.83
3504.31
8488.19
3620.99
8799.33
3639.86
9005.03
3630.98
9598.19
3599.81
3419.48
7177.76
3372.45
6314.41
3239.29
5725.51
3135.07
5323.33
3002.82
73468.4
3977.08
3587.08
9589.97
3797.71
12413.6
3899.05
16697.9
3941.77
26868.2
3916
3526.35
9221.03
3737.41
11463
3833.43
14509.4
3886.05
22306
3890.07
3444.43
7715.98
3466.68
7294.95
3390.15
6848.68
3371.46
6704.7
3286.21
3601.82
9837.45
3823.71
12426
3852.95
15154.1
3816.31
19327.6
3554.25
9153.45
3761.79
10845.9
3807.73
12610.1
3779.86
3436.52
7528.28
3467.87
7227.65
3412.06
6916.21
)
;

boundaryField
{
    inlet
    {
        type            zeroGradient;
    }
    outlet
    {
        type            zeroGradient;
    }
    wall
    {
        type            zeroGradient;
    }
    procBoundary2to0
    {
        type            processor;
        value           nonuniform List<scalar> 
44
(
6171.09
3254.9
5553.18
3132.51
5135.64
3074.6
3449.25
7234.22
3310.72
3310.72
9684.36
3775.37
10764.5
3757.49
12980.8
3716.3
3577.97
8930.15
3666.94
9684.36
3775.37
3775.37
29261.5
4047.24
53836.9
3987.47
3621.3
10545.2
3878.97
16153.9
4018.86
29261.5
4047.24
4047.24
27906.9
3900.25
3598.26
10007.3
3872.38
14267.9
3939.46
19673.5
3946.67
27906.9
)
;
    }
    procBoundary2to3
    {
        type            processor;
        value           nonuniform List<scalar> 
12
(
4628.67
4934.42
4578.19
3732.62
17305.3
14489.8
11365
5074.62
1e+10
80948.5
48958.3
6773.53
)
;
    }
    procBoundary2to6
    {
        type            processor;
        value           nonuniform List<scalar> 
32
(
3744.35
14530.5
3713.91
3306.89
6617.33
3204.07
3642.63
11065.8
3920.92
19657.3
4049.64
52465
4082.91
3744.35
14530.5
1e+10
3568.66
9704.75
3775.21
12768.5
3875.39
17250.8
14530.5
3306.89
3912.99
3437.95
7722.12
3466.47
7693.67
3504.62
3306.89
8066.94
)
;
    }
}


// ************************************************************************* //
