/*--------------------------------*- C++ -*----------------------------------*\
| =========                 |                                                 |
| \\      /  F ield         | OpenFOAM: The Open Source CFD Toolbox           |
|  \\    /   O peration     | Version:  4.x                                   |
|   \\  /    A nd           | Web:      www.OpenFOAM.org                      |
|    \\/     M anipulation  |                                                 |
\*---------------------------------------------------------------------------*/
FoamFile
{
    version     2.0;
    format      ascii;
    class       volScalarField;
    location    "19";
    object      pSmooth;
}
// * * * * * * * * * * * * * * * * * * * * * * * * * * * * * * * * * * * * * //

dimensions      [1 -1 -2 0 0 0 0];

internalField   nonuniform List<scalar> 
114
(
76.787
95.1773
59.2802
87.463
41.2399
79.8331
109.609
93.3958
102.549
76.762
95.1792
59.2606
87.3666
41.1485
79.7493
109.43
93.3912
102.46
76.8146
95.52
60.0199
88.2371
42.3211
80.6754
109.076
93.2243
102.195
76.6614
94.9465
59.3724
87.1961
41.4092
79.5104
59.522
88.2167
41.6268
80.8901
110.303
93.8162
103.166
76.9342
95.6782
59.4453
88.0654
41.3903
80.7636
110.185
93.7873
103.047
76.8655
95.5699
59.3835
87.8279
41.4817
80.5802
109.674
93.5216
102.613
76.6985
95.1604
59.3317
87.4792
41.3685
79.9507
42.5305
81.1037
111.257
94.3825
104.054
77.5831
96.4239
60.2709
88.6747
42.4475
81.0164
111.06
94.423
103.942
77.4825
96.3248
60.1095
88.6622
42.3101
81.0495
110.52
94.0716
103.361
77.2246
95.7873
60.027
88.0645
42.1132
80.485
111.647
94.6762
104.153
77.5359
96.3662
60.0168
88.5361
42.0802
111.496
94.6527
104.088
77.6065
96.3245
60.1592
88.4184
110.855
94.2956
103.549
77.3467
95.848
59.8976
)
;

boundaryField
{
    inlet
    {
        type            zeroGradient;
    }
    outlet
    {
        type            fixedValue;
        value           nonuniform 0();
    }
    wall
    {
        type            zeroGradient;
    }
    procBoundary2to0
    {
        type            processor;
        value           nonuniform List<scalar> 
44
(
76.7015
95.2076
59.3384
87.6424
41.5433
80.0286
109.528
93.4503
102.622
102.622
77.0742
95.9021
59.5452
88.3055
41.7063
81.0705
110.43
93.8073
103.311
77.0742
95.9021
95.9021
60.2177
88.8528
42.561
81.1083
111.496
94.5795
104.303
77.6873
96.6753
60.2177
88.8528
88.8528
42.7996
80.968
111.868
94.9884
104.536
77.9192
96.6946
60.5879
88.7258
42.7996
)
;
    }
    procBoundary2to3
    {
        type            processor;
        value           nonuniform List<scalar> 
12
(
23.102
23.2561
23.9749
23.1263
23.8505
23.6567
23.763
23.1528
24.7138
24.7664
24.3999
24.0038
)
;
    }
    procBoundary2to6
    {
        type            processor;
        value           nonuniform List<scalar> 
32
(
80.702
42.2278
80.6433
87.9951
42.0177
80.3155
112.53
95.0983
105.006
78.3527
97.0851
60.9024
88.8736
80.702
42.2278
43.2775
112.106
95.0775
104.684
78.2231
96.8901
60.8201
42.2278
87.9951
88.9718
111.467
94.7458
104.157
78.0265
96.4956
87.9951
60.6036
)
;
    }
}


// ************************************************************************* //
