/*--------------------------------*- C++ -*----------------------------------*\
| =========                 |                                                 |
| \\      /  F ield         | OpenFOAM: The Open Source CFD Toolbox           |
|  \\    /   O peration     | Version:  4.x                                   |
|   \\  /    A nd           | Web:      www.OpenFOAM.org                      |
|    \\/     M anipulation  |                                                 |
\*---------------------------------------------------------------------------*/
FoamFile
{
    version     2.0;
    format      ascii;
    class       volScalarField;
    location    "19";
    object      QWallFluid;
}
// * * * * * * * * * * * * * * * * * * * * * * * * * * * * * * * * * * * * * //

dimensions      [1 -1 -3 0 0 0 0];

internalField   nonuniform List<scalar> 
114
(
5.44004e+08
9.14807e+08
6.10548e+08
9.51714e+08
6.62638e+08
9.88857e+08
8.27955e+08
4.50013e+08
8.62958e+08
5.19404e+08
8.9381e+08
5.72402e+08
9.26546e+08
6.19026e+08
9.63656e+08
8.34459e+08
4.65224e+08
8.77067e+08
5.50631e+08
9.17423e+08
6.11762e+08
9.51098e+08
6.59801e+08
9.83379e+08
1.67476e+09
9.9417e+08
1.7972e+09
1.20781e+09
1.91607e+09
1.3707e+09
2.01966e+09
1.49776e+09
2.10514e+09
0
0
0
0
0
0
0
0
0
0
0
0
0
0
0
0
0
0
0
0
0
0
8.24628e+08
4.60282e+08
8.57108e+08
5.18503e+08
8.9035e+08
5.66978e+08
9.22359e+08
6.02038e+08
9.52672e+08
0
0
0
0
0
0
0
0
0
0
0
0
0
0
0
0
0
0
0
0
8.17445e+08
4.31033e+08
8.30734e+08
4.57602e+08
8.47896e+08
4.82806e+08
8.56111e+08
4.91634e+08
8.69398e+08
0
0
0
0
0
0
0
0
0
0
0
0
0
0
0
8.11283e+08
4.35815e+08
8.23854e+08
4.55457e+08
8.37364e+08
4.7138e+08
)
;

boundaryField
{
    inlet
    {
        type            calculated;
        value           uniform 0;
    }
    outlet
    {
        type            calculated;
        value           nonuniform 0();
    }
    wall
    {
        type            calculated;
        value           uniform 0;
    }
    procBoundary2to0
    {
        type            processor;
        value           nonuniform List<scalar> 
44
(
5.39917e+08
9.15378e+08
5.96281e+08
9.48454e+08
6.3688e+08
9.64693e+08
8.41182e+08
4.66007e+08
8.812e+08
8.812e+08
0
0
0
0
0
0
0
0
0
0
0
0
0
0
0
0
0
0
0
0
0
0
0
0
0
0
0
0
0
0
0
0
0
0
)
;
    }
    procBoundary2to3
    {
        type            processor;
        value           nonuniform List<scalar> 
12
(
6.90042e+08
6.54454e+08
6.92286e+08
1.6048e+09
0
0
0
6.23102e+08
0
0
0
4.83451e+08
)
;
    }
    procBoundary2to6
    {
        type            processor;
        value           nonuniform List<scalar> 
32
(
0
0
0
8.52948e+08
4.87002e+08
8.70891e+08
0
0
0
0
0
0
0
0
0
0
0
0
0
0
0
0
0
8.52948e+08
0
8.10626e+08
4.24982e+08
8.12843e+08
4.27908e+08
8.07362e+08
8.52948e+08
4.115e+08
)
;
    }
}


// ************************************************************************* //
