/*--------------------------------*- C++ -*----------------------------------*\
| =========                 |                                                 |
| \\      /  F ield         | OpenFOAM: The Open Source CFD Toolbox           |
|  \\    /   O peration     | Version:  4.x                                   |
|   \\  /    A nd           | Web:      www.OpenFOAM.org                      |
|    \\/     M anipulation  |                                                 |
\*---------------------------------------------------------------------------*/
FoamFile
{
    version     2.0;
    format      ascii;
    class       volScalarField;
    location    "29";
    object      Sm;
}
// * * * * * * * * * * * * * * * * * * * * * * * * * * * * * * * * * * * * * //

dimensions      [1 -3 -1 0 0 0 0];

internalField   nonuniform List<scalar> 
87
(
3.72003e-65
5.89004e-65
3.79753e-65
5.11504e-65
3.95253e-65
4.18504e-65
4.41754e-65
5.03755e-65
4.80504e-65
3.64252e-65
3.25502e-65
4.65002e-65
4.18502e-65
3.41002e-65
5.03754e-65
6.58755e-65
4.57254e-65
3.95253e-65
3.48751e-65
5.58002e-65
5.73502e-65
7.13002e-65
5.50252e-65
4.34002e-65
4.96003e-65
4.57253e-65
4.49503e-65
6.66503e-65
5.65753e-65
5.34752e-65
6.20003e-65
5.81253e-65
6.58754e-65
8.37006e-65
7.28505e-65
6.35505e-65
7.20752e-65
5.11501e-65
6.35502e-65
6.97502e-65
7.28503e-65
5.65752e-65
7.51754e-65
7.59504e-65
5.50253e-65
7.13e-65
6.58751e-65
6.20001e-65
5.27001e-65
5.27001e-65
7.36252e-65
8.06003e-65
1.03075e-64
4.88252e-65
7.05252e-65
5.73502e-65
7.67252e-65
7.98253e-65
5.73502e-65
8.44754e-65
7.05254e-65
5.73504e-65
4.18502e-65
5.58e-65
7.05251e-65
5.65751e-65
6.12251e-65
6.97501e-65
6.97502e-65
6.58753e-65
7.20753e-65
4.41752e-65
8.91249e-65
6.35499e-65
5.11499e-65
9.0675e-65
8.2925e-65
8.75752e-65
6.82002e-65
7.90503e-65
3.48751e-65
6.58752e-65
5.27002e-65
8.06002e-65
7.0525e-65
9.99751e-65
5.73499e-65
)
;

boundaryField
{
    inlet
    {
        type            calculated;
        value           nonuniform 0();
    }
    outlet
    {
        type            calculated;
        value           uniform 0;
    }
    wall
    {
        type            calculated;
        value           uniform 0;
    }
    procBoundary1to0
    {
        type            processor;
        value           nonuniform List<scalar> 
12
(
1.70501e-65
3.95252e-65
6.89753e-65
6.20004e-65
6.97502e-65
4.96001e-65
4.72752e-65
8.29252e-65
4.5725e-65
4.96002e-65
5.50251e-65
8.06e-65
)
;
    }
    procBoundary1to3
    {
        type            processor;
        value           nonuniform List<scalar> 
27
(
6.97502e-65
3.25501e-65
5.73502e-65
2.55751e-65
4.10752e-65
3.02252e-65
4.72753e-65
4.57253e-65
3.87502e-65
7.51751e-65
6.2775e-65
9.06751e-65
8.52501e-65
7.59501e-65
6.27752e-65
6.04502e-65
6.58753e-65
8.91254e-65
7.67249e-65
9.06749e-65
8.75749e-65
8.525e-65
6.1225e-65
6.27751e-65
8.52502e-65
7.13003e-65
7.44003e-65
)
;
    }
    procBoundary1to5
    {
        type            processor;
        value           nonuniform List<scalar> 
32
(
6.82002e-65
8.06003e-65
6.35503e-65
6.74253e-65
7.59505e-65
8.44755e-65
6.82e-65
5.65751e-65
5.81251e-65
6.66502e-65
8.21503e-65
8.52504e-65
7.90504e-65
8.44749e-65
6.045e-65
7.5175e-65
5.735e-65
4.57251e-65
7.28502e-65
5.42502e-65
8.68003e-65
6.35502e-65
4.80502e-65
6.82002e-65
6.82e-65
6.97502e-65
7.05251e-65
6.82e-65
8.44749e-65
6.82001e-65
8.44749e-65
8.21501e-65
)
;
    }
    procBoundary1to7
    {
        type            processor;
        value           uniform 9.91999e-65;
    }
}


// ************************************************************************* //
