/*--------------------------------*- C++ -*----------------------------------*\
| =========                 |                                                 |
| \\      /  F ield         | OpenFOAM: The Open Source CFD Toolbox           |
|  \\    /   O peration     | Version:  4.x                                   |
|   \\  /    A nd           | Web:      www.OpenFOAM.org                      |
|    \\/     M anipulation  |                                                 |
\*---------------------------------------------------------------------------*/
FoamFile
{
    version     2.0;
    format      ascii;
    class       volScalarField;
    location    "2.5";
    object      Sm;
}
// * * * * * * * * * * * * * * * * * * * * * * * * * * * * * * * * * * * * * //

dimensions      [1 -3 -1 0 0 0 0];

internalField   nonuniform List<scalar> 
87
(
6.74022e-65
6.03731e-65
7.12759e-65
5.10611e-65
5.80706e-65
4.95802e-65
1.03733e-64
7.57896e-65
4.94409e-65
7.41125e-65
9.3413e-65
5.56132e-65
7.88268e-65
6.49964e-65
8.5206e-65
5.8061e-65
7.89074e-65
6.41392e-65
8.49685e-65
7.33826e-65
7.57286e-65
7.26819e-65
8.58755e-65
7.58969e-65
4.95675e-65
7.19602e-65
5.41392e-65
6.10636e-65
7.5755e-65
8.73611e-65
6.34294e-65
6.8107e-65
7.5126e-65
7.97469e-65
7.65668e-65
7.88258e-65
7.25923e-65
5.40618e-65
7.02971e-65
6.26034e-65
5.87811e-65
7.89739e-65
5.65168e-65
7.27163e-65
6.80311e-65
7.1849e-65
5.95037e-65
5.56426e-65
7.57761e-65
5.87867e-65
7.74296e-65
5.18923e-65
6.73242e-65
5.56844e-65
7.57658e-65
7.26785e-65
5.95386e-65
6.49818e-65
6.11316e-65
5.65317e-65
4.72379e-65
5.26165e-65
5.95338e-65
6.87735e-65
6.49124e-65
6.41482e-65
8.66023e-65
8.7422e-65
3.79312e-65
6.04067e-65
5.49469e-65
6.80651e-65
5.64364e-65
8.58073e-65
5.64458e-65
6.72862e-65
5.80354e-65
7.82022e-65
4.41579e-65
6.26922e-65
6.11257e-65
6.4193e-65
4.95068e-65
8.19939e-65
4.79764e-65
5.10878e-65
6.04077e-65
)
;

boundaryField
{
    inlet
    {
        type            calculated;
        value           uniform 0;
    }
    outlet
    {
        type            calculated;
        value           nonuniform 0();
    }
    wall
    {
        type            calculated;
        value           uniform 0;
    }
    procBoundary6to0
    {
        type            processor;
        value           uniform 2.32578e-65;
    }
    procBoundary6to2
    {
        type            processor;
        value           nonuniform List<scalar> 
32
(
4.88432e-65
7.43335e-65
8.37031e-65
8.28037e-65
4.87828e-65
6.74042e-65
4.79942e-65
8.1188e-65
8.34346e-65
6.56337e-65
6.40788e-65
6.2561e-65
6.26259e-65
7.74128e-65
7.74128e-65
7.74128e-65
6.89221e-65
6.88455e-65
7.65172e-65
6.48848e-65
7.18411e-65
6.87803e-65
8.35224e-65
8.35224e-65
8.35224e-65
5.26651e-65
6.5004e-65
6.26395e-65
7.11205e-65
5.48836e-65
6.34032e-65
6.34032e-65
)
;
    }
    procBoundary6to4
    {
        type            processor;
        value           nonuniform List<scalar> 
27
(
4.33466e-65
5.72221e-65
7.56932e-65
5.17127e-65
7.33253e-65
6.02243e-65
9.42988e-65
6.03463e-65
5.96383e-65
6.65811e-65
7.19293e-65
5.94814e-65
8.49463e-65
8.41597e-65
6.79739e-65
9.58299e-65
7.89131e-65
6.81397e-65
7.74351e-65
7.04091e-65
5.79898e-65
7.80335e-65
7.1079e-65
9.19591e-65
4.48451e-65
4.87478e-65
6.34884e-65
)
;
    }
    procBoundary6to7
    {
        type            processor;
        value           nonuniform List<scalar> 
12
(
7.67935e-65
5.50519e-65
5.1162e-65
3.95519e-65
5.81357e-65
5.57958e-65
8.05882e-65
7.05102e-65
5.34568e-65
6.89484e-65
5.96535e-65
6.2752e-65
)
;
    }
}


// ************************************************************************* //
