/*--------------------------------*- C++ -*----------------------------------*\
| =========                 |                                                 |
| \\      /  F ield         | OpenFOAM: The Open Source CFD Toolbox           |
|  \\    /   O peration     | Version:  4.x                                   |
|   \\  /    A nd           | Web:      www.OpenFOAM.org                      |
|    \\/     M anipulation  |                                                 |
\*---------------------------------------------------------------------------*/
FoamFile
{
    version     2.0;
    format      ascii;
    class       volVectorField;
    location    "30.5";
    object      DDtUrel;
}
// * * * * * * * * * * * * * * * * * * * * * * * * * * * * * * * * * * * * * //

dimensions      [0 1 -2 0 0 0 0];

internalField   nonuniform List<vector> 
114
(
(-0.000174629 -8.5038e-06 1.07514e-05)
(-0.0003062 -3.20632e-05 9.77149e-06)
(-0.000510078 -8.0342e-05 -7.8953e-06)
(-0.00087253 -0.000152548 -3.00915e-05)
(-0.00138579 -0.000267847 -7.59028e-05)
(-0.00207289 -0.000388813 -0.00014959)
(-6.67323e-05 1.19557e-05 2.0945e-05)
(-0.000157764 -6.45276e-06 1.13016e-05)
(-0.000280228 -2.26739e-05 1.06928e-05)
(-0.000492882 -7.09783e-05 -1.68918e-05)
(-0.000830667 -0.000124051 -3.56937e-05)
(-0.00130483 -0.000271124 -0.000115626)
(-0.00193662 -0.00042402 -0.000194188)
(-2.37562e-05 7.49952e-06 1.28889e-05)
(-7.52178e-05 3.46332e-06 1.57446e-05)
(-0.000157216 -6.898e-06 7.14229e-06)
(-0.00028337 -2.07802e-05 7.1141e-07)
(-0.000480593 -4.7664e-05 -3.20541e-05)
(-0.000798856 -7.96259e-05 -6.71527e-05)
(-0.00117104 -0.000180937 -0.000156235)
(-0.001713 -0.000264113 -0.000226745)
(3.78254e-05 1.8808e-05 1.93242e-05)
(-1.21921e-05 1.26087e-05 1.95189e-05)
(-3.23368e-05 1.20654e-05 2.20433e-05)
(-0.000134382 -1.45235e-05 2.52341e-05)
(-0.000209527 -2.78345e-05 2.45087e-05)
(-0.000444151 -9.33257e-05 4.29499e-05)
(-0.000691748 -0.000145096 3.65944e-05)
(-0.00138455 -0.000361876 0.000188689)
(-0.00236942 -0.000529516 0.000290574)
(1.73146e-05 1.5697e-05 1.27598e-05)
(-2.02809e-05 1.04181e-05 1.25401e-05)
(-5.65709e-05 7.24103e-06 1.58515e-05)
(-0.000140439 -1.08693e-05 1.72699e-05)
(-0.000245053 -2.57036e-05 2.10953e-05)
(-0.000448484 -8.55274e-05 3.38554e-05)
(-0.000756299 -0.000136865 4.22092e-05)
(-0.00126287 -0.0003687 0.000161949)
(-0.00196414 -0.000537563 0.000246641)
(2.99366e-06 8.53256e-06 7.67286e-06)
(-2.86218e-05 3.76054e-06 9.0074e-06)
(-6.86029e-05 -2.18127e-06 1.40792e-05)
(-0.000145967 -1.17678e-05 1.37833e-05)
(-0.000256079 -2.52696e-05 1.74768e-05)
(-0.000445181 -5.4824e-05 1.78985e-05)
(-0.000758741 -8.00201e-05 1.49807e-05)
(-0.00114387 -0.000211996 7.42973e-05)
(-0.00170939 -0.000337826 0.000140515)
(4.67382e-07 4.93252e-07 5.77625e-06)
(-3.32539e-05 -4.9313e-07 5.31118e-06)
(5.116e-05 1.53044e-05 4.95801e-06)
(1.24044e-05 1.26692e-05 8.98252e-06)
(-3.08783e-07 9.15182e-06 1.07755e-05)
(-9.3249e-05 -7.5393e-06 2.44197e-05)
(-0.000167369 -2.35206e-05 2.86691e-05)
(-0.000414646 -7.26332e-05 6.76603e-05)
(-0.00070549 -0.000136438 8.36023e-05)
(-0.00148332 -0.000287811 0.000249486)
(-0.00252021 -0.000412863 0.000404462)
(3.42188e-05 9.20262e-06 2.39069e-06)
(-3.24242e-06 4.35963e-06 6.64977e-06)
(-1.94322e-05 5.95739e-06 5.13826e-06)
(-0.000107038 -1.12991e-05 1.95774e-05)
(-0.000182959 -1.44098e-05 2.25907e-05)
(-0.000411605 -6.91734e-05 6.15169e-05)
(-0.000681568 -0.000103518 8.01613e-05)
(-0.00137129 -0.000299628 0.000260265)
(-0.00230677 -0.000462977 0.00039562)
(8.77193e-06 3.38682e-06 -1.476e-06)
(-2.50904e-05 4.10023e-07 4.12245e-06)
(-5.77545e-05 -4.50826e-07 7.50783e-06)
(-0.000130154 -1.13362e-05 1.7044e-05)
(-0.000230774 -2.05119e-05 2.59166e-05)
(-0.000418229 -5.47768e-05 5.56513e-05)
(-0.000716296 -8.72603e-05 8.32657e-05)
(-0.00121635 -0.000232192 0.000251822)
(-0.00189854 -0.000338569 0.000365877)
(2.4734e-06 7.65754e-07 -4.85392e-06)
(-3.60723e-05 -3.17801e-06 -3.79411e-07)
(-6.89763e-05 -7.07634e-06 3.29669e-06)
(-0.000143249 -9.88169e-06 1.26749e-05)
(9.57733e-05 1.09496e-05 2.58961e-06)
(5.6595e-05 7.80441e-06 8.6441e-06)
(6.51498e-05 4.04697e-06 1.08992e-05)
(-3.93891e-05 -1.671e-05 3.6737e-05)
(-5.7719e-05 -2.7138e-05 3.83891e-05)
(-0.000357691 -8.90653e-05 0.000104567)
(-0.000516174 -0.000131713 0.000102067)
(-0.00167674 -0.000355372 0.000325632)
(-0.00311834 -0.000562802 0.000597372)
(6.39941e-05 2.38249e-06 -1.79537e-06)
(2.40928e-05 -2.08868e-06 2.45157e-06)
(2.41456e-05 1.77958e-06 3.35639e-06)
(-7.38939e-05 -1.70476e-05 2.16972e-05)
(-0.000121996 -1.44879e-05 2.56935e-05)
(-0.000390264 -6.80969e-05 7.25529e-05)
(-0.000640111 -8.5219e-05 9.51674e-05)
(-0.00150878 -0.00028347 0.000264803)
(-0.00265405 -0.000502898 0.000446253)
(2.94166e-05 -2.98784e-06 -5.12988e-06)
(-1.16716e-05 -5.18787e-06 2.49584e-06)
(-2.23231e-05 -4.06681e-06 3.28285e-06)
(-0.000106386 -1.40045e-05 2.19714e-05)
(-0.000161196 -1.52137e-05 2.13377e-05)
(-0.000383201 -4.92778e-05 7.19187e-05)
(-0.000603473 -6.47378e-05 8.49453e-05)
(-0.00134478 -0.00020132 0.000286839)
(-0.0023539 -0.0003325 0.000467993)
(1.14517e-05 -5.87378e-06 -1.02391e-05)
(-3.56522e-05 -9.23361e-06 -5.00231e-06)
(-5.58639e-05 -1.13916e-05 -4.77614e-06)
(-0.000137349 -1.76723e-05 1.14953e-05)
(-0.000200528 -1.72978e-05 1.9634e-05)
(-0.000395353 -4.35041e-05 5.48924e-05)
)
;

boundaryField
{
    inlet
    {
        type            calculated;
        value           nonuniform 0();
    }
    outlet
    {
        type            calculated;
        value           nonuniform List<vector> 
12
(
(-0.00210627 -0.000165195 -4.79838e-05)
(-0.0027415 -0.000937976 -0.000593896)
(-0.00199276 -0.000478707 -0.000402022)
(-0.00724709 -0.00183637 0.00175419)
(-0.00281093 -0.00229648 0.00160531)
(-0.0024829 -0.00119491 0.000782592)
(-0.00516475 0.000151686 0.000691674)
(-0.00591925 -0.001176 0.00119913)
(-0.00243747 -0.000939985 0.00124953)
(-0.011043 -0.00187762 0.00253153)
(-0.00692545 -0.00167443 0.000660194)
(-0.0068201 -0.0003582 0.00180655)
)
;
    }
    wall
    {
        type            calculated;
        value           nonuniform List<vector> 
66
(
(0.000476236 4.78024e-05 -2.34345e-05)
(0.000292208 2.27679e-06 -3.95291e-05)
(0.000153815 -1.45914e-05 -4.39614e-05)
(0.000168647 -1.56208e-05 -4.08569e-05)
(0.00013689 2.51645e-05 3.89605e-05)
(-1.17287e-05 -6.96801e-05 -1.85284e-05)
(-0.000105356 -3.0213e-05 4.29676e-05)
(-0.000133013 -4.72092e-05 4.31478e-07)
(0.000757706 5.03927e-05 -4.19046e-05)
(0.000492269 7.34156e-05 -8.14048e-05)
(0.000284317 2.51794e-05 -4.30362e-05)
(0.000197891 -3.78588e-05 -8.59106e-05)
(-4.82511e-05 -7.72828e-05 0.000198951)
(-0.000141035 -0.000114188 2.78304e-05)
(-0.000133327 -2.9807e-05 0.000132514)
(-0.00017968 -9.61953e-05 4.69094e-05)
(0.00138717 8.99294e-05 -0.000102097)
(0.000701698 0.000208088 -0.000129733)
(0.000594634 0.000111525 -0.000166965)
(0.000438553 3.50426e-05 -1.26028e-05)
(-0.000541345 -0.000266329 0.000537964)
(-0.000506817 -0.000175822 8.89761e-05)
(-0.000222771 -5.25199e-05 0.000293315)
(-0.000153464 -0.000291841 0.000188341)
(0.00368964 0.000327087 -0.000552603)
(0.000999643 0.000637553 -0.000325349)
(0.00157559 0.000365875 -0.000537398)
(-0.00187369 -0.000834365 0.000589374)
(-0.00102095 -0.000197034 -1.35178e-05)
(-0.000689372 -1.19922e-05 0.000709671)
(-0.011043 -0.00187762 0.00253153)
(-0.00692545 -0.00167443 0.000660194)
(-0.0068201 -0.0003582 0.00180655)
(0.000197218 4.42923e-05 7.71081e-05)
(0.000115506 5.36398e-05 -4.34481e-05)
(0.000476236 4.78024e-05 -2.34345e-05)
(-0.000119838 -2.80661e-05 7.78394e-05)
(-8.39334e-05 5.60722e-05 -7.76174e-06)
(0.00013689 2.51645e-05 3.89605e-05)
(0.000347758 0.000108716 8.47722e-05)
(0.000216101 6.82033e-05 -4.51909e-05)
(0.000757706 5.03927e-05 -4.19046e-05)
(-0.000366733 3.61383e-06 4.63838e-06)
(-0.00020563 -0.000108682 0.000109195)
(-0.000151376 5.11887e-05 2.95593e-05)
(-4.82511e-05 -7.72828e-05 0.000198951)
(-0.000718722 -6.96257e-06 5.54859e-05)
(0.000582546 0.000134571 5.1716e-06)
(0.000234627 8.00684e-05 -8.24723e-05)
(0.00138717 8.99294e-05 -0.000102097)
(-0.000270974 2.71261e-05 6.62192e-05)
(-0.000277382 -0.000264841 0.000230919)
(-0.000367632 7.82217e-05 0.000123865)
(-0.000541345 -0.000266329 0.000537964)
(-0.00120402 -0.000154632 2.73063e-05)
(0.00154414 0.000360644 -0.000433757)
(0.000178347 5.80419e-05 -0.000304803)
(0.00368964 0.000327087 -0.000552603)
(-0.000327058 0.00010071 0.000157485)
(-0.000504754 -0.00101466 0.00105738)
(-0.000697166 9.65871e-05 0.000204698)
(-0.00187369 -0.000834365 0.000589374)
(-0.00210627 -0.000165195 -4.79838e-05)
(-0.00724709 -0.00183637 0.00175419)
(-0.00516475 0.000151686 0.000691674)
(-0.011043 -0.00187762 0.00253153)
)
;
    }
    procBoundary5to1
    {
        type            processor;
        value           nonuniform List<vector> 
32
(
(-0.000132492 -9.38727e-06 -9.28255e-06)
(-0.000217581 -2.78031e-05 -3.16741e-06)
(-0.000503892 -8.6423e-05 -6.93045e-05)
(-0.000827236 -0.000142293 -8.48094e-05)
(-0.00162945 -0.000284872 -0.000347345)
(-0.0026284 -0.000413858 -0.000656363)
(-1.62441e-05 1.3572e-05 1.93231e-05)
(-0.000131636 -1.16887e-05 -9.98623e-07)
(-0.00023226 -2.3119e-05 -1.52396e-06)
(-0.000499829 -8.56181e-05 -7.14817e-05)
(-0.000824143 -0.000121385 -0.000105145)
(-0.0015299 -0.000317235 -0.000343716)
(-0.00240215 -0.000499283 -0.000599684)
(-1.0592e-06 1.08812e-05 1.75788e-05)
(-5.32759e-05 6.21611e-06 1.66984e-05)
(-0.000153564 -7.55569e-06 5.91306e-07)
(-0.000282239 -2.02397e-05 -1.0431e-05)
(-0.000512115 -5.83838e-05 -8.05532e-05)
(-0.000854002 -7.93919e-05 -0.000141336)
(-0.00134997 -0.000244379 -0.000361123)
(-0.00202093 -0.000368236 -0.000568194)
(3.66494e-05 2.71765e-05 2.12881e-05)
(-2.51661e-05 2.20524e-05 1.55839e-05)
(-7.74167e-05 1.57412e-05 1.83914e-05)
(-7.74167e-05 1.57412e-05 1.83914e-05)
(-7.74167e-05 1.57412e-05 1.83914e-05)
(2.58135e-05 2.2387e-05 1.711e-05)
(-2.06464e-05 1.59603e-05 1.53073e-05)
(-2.06464e-05 1.59603e-05 1.53073e-05)
(-2.06464e-05 1.59603e-05 1.53073e-05)
(1.00481e-05 1.25097e-05 1.51929e-05)
(1.00481e-05 1.25097e-05 1.51929e-05)
)
;
    }
    procBoundary5to4
    {
        type            processor;
        value           nonuniform List<vector> 
12
(
(4.63751e-05 1.56386e-05 1.92699e-05)
(3.21417e-05 1.27464e-05 1.2914e-05)
(2.1722e-05 8.13017e-06 7.73393e-06)
(1.6818e-05 1.4522e-06 5.36048e-06)
(5.64697e-05 1.27148e-05 6.96647e-06)
(3.95208e-05 5.81701e-06 4.3285e-06)
(2.31145e-05 1.59981e-06 7.16268e-07)
(1.49959e-05 -2.08349e-06 -2.79609e-06)
(8.97579e-05 6.7175e-06 6.47062e-06)
(6.43083e-05 -2.56215e-06 6.64246e-07)
(3.60026e-05 -5.5792e-06 -2.52408e-06)
(2.13688e-05 -7.98725e-06 -7.11972e-06)
)
;
    }
    procBoundary5to7
    {
        type            processor;
        value           nonuniform List<vector> 
44
(
(-2.19109e-05 3.14452e-06 1.04955e-05)
(-7.49496e-05 3.05438e-06 1.16865e-05)
(-0.00015786 4.79865e-07 3.02485e-06)
(-0.000277819 -8.23781e-07 -4.82318e-06)
(-0.000473086 -1.36067e-06 -4.45952e-05)
(-0.000785387 -6.45462e-06 -8.81975e-05)
(-0.00113294 2.89864e-05 -0.000207466)
(-0.00166702 5.58828e-05 -0.000302737)
(1.50148e-05 4.3209e-06 1.55868e-05)
(-2.19109e-05 3.14452e-06 1.04955e-05)
(-7.63019e-05 -3.21214e-06 9.51221e-06)
(-0.000150658 -4.92328e-06 6.78018e-06)
(-0.000267138 -7.84489e-06 8.85252e-06)
(-0.000445638 -1.33169e-05 -2.18887e-06)
(-0.000749087 -1.55341e-05 -1.27405e-05)
(-0.00108834 -4.01084e-05 1.28288e-05)
(-0.00160772 -6.43261e-05 3.66295e-05)
(1.23476e-06 -3.26183e-06 3.70803e-06)
(-7.63019e-05 -3.21214e-06 9.51221e-06)
(-3.37254e-05 -3.08969e-06 7.97711e-07)
(-7.63019e-05 -3.21214e-06 9.51221e-06)
(-0.000150658 -4.92328e-06 6.78018e-06)
(-0.00024085 -1.36514e-05 2.07604e-05)
(-0.000419282 -2.5956e-05 4.27338e-05)
(-0.000710642 -3.57233e-05 4.88948e-05)
(-0.00113729 -8.1858e-05 0.00019466)
(-0.00176993 -0.000137395 0.000291524)
(-5.68537e-06 -5.06329e-06 -8.07782e-06)
(-4.2105e-05 -5.67741e-06 -6.08635e-06)
(-8.2695e-05 -7.8917e-06 -3.65013e-06)
(-0.00024085 -1.36514e-05 2.07604e-05)
(-0.000152795 -5.02286e-06 1.89222e-07)
(-0.00024085 -1.36514e-05 2.07604e-05)
(-0.000419282 -2.5956e-05 4.27338e-05)
(-0.000614248 -3.4043e-05 7.98248e-05)
(-0.00123981 -0.00015594 0.000227715)
(-0.00211833 -0.000286507 0.000346355)
(-9.58633e-06 -6.35501e-06 -1.96063e-05)
(-5.58718e-05 -8.15722e-06 -1.35419e-05)
(-9.4456e-05 -9.91618e-06 -1.13848e-05)
(-0.000167797 -1.0542e-05 -3.19549e-06)
(-0.000268753 -1.18619e-05 -1.64203e-06)
(-0.000614248 -3.4043e-05 7.98248e-05)
(-0.000436915 -1.18731e-05 1.72564e-05)
)
;
    }
}


// ************************************************************************* //
