/*--------------------------------*- C++ -*----------------------------------*\
  =========                 |
  \\      /  F ield         | OpenFOAM: The Open Source CFD Toolbox
   \\    /   O peration     | Website:  https://openfoam.org
    \\  /    A nd           | Version:  4.x
     \\/     M anipulation  |
\*---------------------------------------------------------------------------*/
FoamFile
{
    version     2.0;
    format      ascii;
    class       Cloud<passiveParticle>;
    location    0;
    object      positions;
}
// * * * * * * * * * * * * * * * * * * * * * * * * * * * * * * * * * * * * * //

303
(
( 0.252961 0.0900485 -0.0558051 ) 63
( 0.250443 0.0316246 -0.0549343 ) 45
( 0.250267 0.0300147 -0.0351504 ) 81
( 0.25404 0.0693105 -0.0504232 ) 54
( 0.250999 0.0682511 -0.0699613 ) 54
( 0.250535 0.010781 -0.0752707 ) 0
( 0.25004 0.0882437 -0.0216935 ) 99
( 0.250081 0.0359565 -0.0743503 ) 9
( 0.255984 0.0312911 -0.015064 ) 81
( 0.381173 -0.0139626 -0.0338148 ) 76
( 0.421053 -0.0111329 -0.0808093 ) 6
( 0.473704 -0.00618169 -0.0415273 ) 80
( 0.324522 -0.0104754 -0.0763999 ) 2
( 0.403992 -0.00384243 -0.0735526 ) 5
( 0.490068 -0.0109806 -0.057844 ) 44
( 0.371713 -0.00591054 -0.0492873 ) 40
( 0.468608 -0.0018209 -0.0854537 ) 7
( 0.342623 -0.00281643 -0.0730977 ) 3
( 0.33468 -0.0140194 -0.0328635 ) 75
( 0.439292 -0.00180441 -0.0578269 ) 42
( 0.321635 -0.0117828 -0.0474274 ) 38
( 0.360804 -0.00089052 -0.0651449 ) 39
( 0.310634 -0.00594423 -0.0628125 ) 38
( 0.35424 -0.0122621 -0.0387088 ) 75
( 0.272134 -0.00316023 -0.0685194 ) 36
( 0.283838 -0.0122162 -0.0389823 ) 73
( 0.436692 0.000608039 -0.0773502 ) 6
( 0.490039 -0.0122099 -0.0777207 ) 8
( 0.302408 -0.00847289 -0.0445016 ) 37
( 0.394153 -0.00440751 -0.0448503 ) 41
( 0.472398 -0.0116096 -0.0684665 ) 44
( 0.275369 -0.0100671 -0.0201185 ) 72
( 0.47307 -0.0126255 -0.0212213 ) 80
( 0.387641 0.0265092 -0.0548108 ) 49
( 0.303823 0.0719246 -0.0647571 ) 64
( 0.336982 0.0639505 -0.0467564 ) 57
( 0.325517 0.0165138 -0.0484599 ) 47
( 0.443406 0.0376289 -0.0466838 ) 51
( 0.286599 0.0647074 -0.0582551 ) 55
( 0.331197 0.0508638 -0.0605253 ) 56
( 0.455283 0.0130427 -0.0858995 ) 7
( 0.369661 0.0348415 -0.0532768 ) 49
( 0.490049 0.0227641 -0.0532069 ) 53
( 0.324477 0.0376842 -0.0746518 ) 11
( 0.293246 0.025899 -0.0575165 ) 46
( 0.379206 0.00960403 -0.0642719 ) 40
( 0.470473 0.0687672 -0.0577922 ) 61
( 0.43137 0.0711146 -0.0625274 ) 60
( 0.456052 0.0710418 -0.0785076 ) 25
( 0.342717 0.0322689 -0.0689292 ) 48
( 0.3201 0.0460944 -0.044674 ) 56
( 0.300952 0.0614081 -0.0451272 ) 55
( 0.36874 0.0542609 -0.0494213 ) 58
( 0.353718 0.0455376 -0.059191 ) 57
( 0.324339 0.0854188 -0.0374921 ) 101
( 0.353035 0.0836151 -0.0694602 ) 66
( 0.452508 0.0772229 -0.0555907 ) 70
( 0.286345 0.0901514 -0.0309876 ) 100
( 0.417165 0.0203238 -0.0480537 ) 51
( 0.334331 0.0725999 -0.0645034 ) 66
( 0.388196 0.0701276 -0.0536243 ) 58
( 0.471217 0.0901259 -0.0645133 ) 70
( 0.47398 0.0680922 -0.0382048 ) 98
( 0.489958 0.0146461 -0.0838783 ) 17
( 0.265348 0.0160768 -0.0366172 ) 81
( 0.399857 0.0666633 -0.069405 ) 59
( 0.327072 0.0285553 -0.0321224 ) 83
( 0.349201 0.064048 -0.0204727 ) 93
( 0.395506 0.0136883 -0.0780008 ) 5
( 0.306283 0.0318132 -0.040278 ) 83
( 0.302929 0.034969 -0.0723496 ) 10
( 0.458126 0.0434132 -0.0605831 ) 61
( 0.272494 0.051358 -0.0543028 ) 54
( 0.410949 0.0510394 -0.0599483 ) 59
( 0.457313 0.0242586 -0.0515042 ) 52
( 0.430471 0.0826263 -0.0787153 ) 33
( 0.365704 0.0410988 -0.034853 ) 85
( 0.315991 0.0314858 -0.0576529 ) 47
( 0.473511 0.0304716 -0.0612994 ) 53
( 0.366627 0.0114748 -0.0796594 ) 4
( 0.290646 0.0899561 -0.0503423 ) 64
( 0.269123 0.0164854 -0.0710614 ) 45
( 0.405307 0.0262721 -0.0640911 ) 50
( 0.474267 0.0473979 -0.0500789 ) 62
( 0.441137 0.0386864 -0.069527 ) 51
( 0.419568 0.0138261 -0.0703848 ) 42
( 0.346425 0.0806699 -0.0509006 ) 66
( 0.438794 0.055857 -0.0404746 ) 96
( 0.437432 0.0204281 -0.0763405 ) 15
( 0.478468 0.0748777 -0.0750669 ) 35
( 0.334552 0.0339131 -0.0507873 ) 48
( 0.380769 0.0380696 -0.069436 ) 49
( 0.460877 0.0406558 -0.0375663 ) 88
( 0.401406 0.0836706 -0.0593744 ) 68
( 0.363213 0.0534083 -0.0747312 ) 22
( 0.280311 0.0682377 -0.039472 ) 91
( 0.422364 0.062888 -0.0782016 ) 24
( 0.37137 0.0898858 -0.0742343 ) 31
( 0.396956 0.0211221 -0.0382019 ) 86
( 0.347137 0.0156709 -0.0789867 ) 12
( 0.352695 0.0296694 -0.0442878 ) 48
( 0.273332 0.0789094 -0.0546293 ) 63
( 0.490005 0.0338744 -0.0785413 ) 17
( 0.383656 0.0741922 -0.0839165 ) 31
( 0.458124 0.0291023 -0.0743608 ) 16
( 0.4242 0.0430605 -0.0791785 ) 24
( 0.287264 0.0825084 -0.0684498 ) 64
( 0.430874 0.0736571 -0.0429383 ) 69
( 0.490014 0.089906 -0.0823012 ) 35
( 0.293504 0.0527135 -0.0725225 ) 19
( 0.326525 0.00587544 -0.065175 ) 38
( 0.293729 0.0110911 -0.0708808 ) 37
( 0.351013 0.0159536 -0.0300718 ) 84
( 0.490039 0.0536558 -0.0821005 ) 26
( 0.41299 0.0679792 -0.0496024 ) 59
( 0.319248 0.069154 -0.0770278 ) 20
( 0.457896 0.058302 -0.0463288 ) 61
( 0.38086 0.00957965 -0.0399725 ) 76
( 0.473272 0.0107261 -0.0537077 ) 44
( 0.47219 0.013565 -0.0733284 ) 7
( 0.283948 0.021125 -0.0407434 ) 82
( 0.269251 0.0318699 -0.0484779 ) 45
( 0.361773 0.0187398 -0.0617537 ) 49
( 0.472147 0.0230621 -0.0383428 ) 88
( 0.30814 0.0495789 -0.029288 ) 92
( 0.370974 0.0729387 -0.0630192 ) 67
( 0.43769 0.0900984 -0.061659 ) 69
( 0.428929 0.00664775 -0.0395664 ) 78
( 0.48867 0.076505 -0.0485591 ) 71
( 0.391248 0.0508005 -0.0566632 ) 59
( 0.474847 0.049755 -0.0697758 ) 62
( 0.406152 0.0514574 -0.0805366 ) 23
( 0.398362 0.0717537 -0.0366186 ) 104
( 0.392161 0.0901555 -0.0757337 ) 32
( 0.412459 0.0900721 -0.074641 ) 32
( 0.273965 0.00936672 -0.0531766 ) 36
( 0.436497 0.0198677 -0.053994 ) 51
( 0.444039 0.0900553 -0.0430263 ) 69
( 0.356161 0.00637005 -0.0471969 ) 39
( 0.329698 0.0900758 -0.0559892 ) 65
( 0.49019 0.0413549 -0.0601312 ) 53
( 0.43302 0.0252984 -0.0351563 ) 87
( 0.342562 0.0155202 -0.0583245 ) 48
( 0.363761 0.0727282 -0.0445143 ) 67
( 0.490253 0.0379941 -0.0405777 ) 89
( 0.469727 0.0900457 -0.0845718 ) 34
( 0.419423 0.0507398 -0.0418949 ) 96
( 0.283461 0.0519962 -0.021921 ) 91
( 0.425746 0.0902818 -0.0339606 ) 105
( 0.363513 0.0902214 -0.0539316 ) 67
( 0.300538 0.0106268 -0.0394386 ) 73
( 0.265796 0.0902362 -0.040251 ) 99
( 0.300723 0.0441082 -0.0547979 ) 55
( 0.342809 0.055488 -0.0759624 ) 21
( 0.352688 0.0652481 -0.0617423 ) 57
( 0.398304 0.00856371 -0.0590161 ) 41
( 0.38281 0.0900329 -0.0579668 ) 67
( 0.417386 0.00156989 -0.0549049 ) 42
( 0.448717 0.00807062 -0.0435238 ) 43
( 0.295511 0.066899 -0.0270167 ) 91
( 0.385369 0.0566737 -0.0386904 ) 94
( 0.490524 0.0901608 -0.0624077 ) 71
( 0.398999 0.0329338 -0.0817726 ) 14
( 0.308296 0.012995 -0.0574158 ) 38
( 0.490128 0.0523852 -0.0263928 ) 98
( 0.490048 0.0903459 -0.0346559 ) 107
( 0.27071 0.0663366 -0.0698976 ) 54
( 0.307621 0.0800948 -0.0469894 ) 65
( 0.464289 0.0900756 -0.0459549 ) 70
( 0.321927 0.0658488 -0.0339645 ) 92
( 0.490099 0.00455871 -0.0449889 ) 44
( 0.490013 0.0627409 -0.0643542 ) 62
( 0.26633 0.0471776 -0.0727455 ) 18
( 0.430954 0.0512731 -0.0580706 ) 60
( 0.34719 0.090436 -0.033903 ) 102
( 0.311493 0.0901797 -0.0638047 ) 65
( 0.40545 0.0902602 -0.0410601 ) 104
( 0.490358 0.0572977 -0.0452932 ) 62
( 0.382587 0.057517 -0.0732115 ) 22
( 0.455418 0.0494872 -0.0793198 ) 25
( 0.473203 0.0277208 -0.0873409 ) 17
( 0.267233 0.0901273 -0.0697391 ) 63
( 0.381344 0.0824856 -0.0396516 ) 103
( 0.452329 0.0118914 -0.066249 ) 43
( 0.445189 0.0893991 -0.0903628 ) 34
( 0.375132 0.0248607 -0.0286438 ) 85
( 0.335073 0.0900473 -0.0750893 ) 30
( 0.453632 0.0899748 -0.0727769 ) 34
( 0.318538 0.0647259 -0.0535732 ) 56
( 0.286845 0.0480262 -0.0410542 ) 91
( 0.447778 0.0599669 -0.0641754 ) 61
( 0.315725 0.0198023 -0.0745439 ) 11
( 0.474013 0.0715906 -0.014902 ) 107
( 0.393377 0.0606382 -0.0209734 ) 95
( 0.410574 0.0815487 -0.024297 ) 104
( 0.317396 0.0370092 -0.016873 ) 83
( 0.455525 0.0776415 -0.016268 ) 106
( 0.390578 0.0155909 -0.0202741 ) 86
( 0.49 0.0185199 -0.03083 ) 89
( 0.323601 0.060711 -0.0149327 ) 92
( 0.363237 0.0817604 -0.0269932 ) 103
( 0.407666 0.0246402 -0.0171457 ) 86
( 0.440569 0.00382941 -0.0235069 ) 78
( 0.466771 0.0229699 -0.0192458 ) 88
( 0.348596 0.0851099 -0.0143848 ) 102
( 0.380587 0.0455467 -0.0230133 ) 94
( 0.44774 0.0607651 -0.0235464 ) 97
( 0.431059 0.044027 -0.0265351 ) 96
( 0.392909 0.090232 -0.0254482 ) 104
( 0.41472 0.043021 -0.0155151 ) 95
( 0.458236 0.0059695 -0.014722 ) 79
( 0.490066 0.0721695 -0.0271446 ) 107
( 0.439535 0.0251594 -0.0164708 ) 87
( 0.305667 0.0221711 -0.0230433 ) 83
( 0.423826 0.0142636 -0.0212755 ) 78
( 0.269725 0.0900196 -0.0201486 ) 99
( 0.333211 0.0124413 -0.0221084 ) 74
( 0.414918 0.0620514 -0.0262577 ) 95
( 0.330872 0.0783033 -0.0202587 ) 101
( 0.270468 0.0348526 -0.0288577 ) 81
( 0.380606 0.0750726 -0.0213199 ) 103
( 0.471453 0.0895421 -0.0275723 ) 106
( 0.490086 0.089964 -0.0146742 ) 107
( 0.259473 0.0469114 -0.0399936 ) 90
( 0.255894 -0.000332011 -0.0572082 ) 36
( 0.459498 -0.00336485 -0.0558321 ) 43
( 0.321342 -0.00174342 -0.0156965 ) 74
( 0.362214 0.0334792 -0.0751087 ) 13
( 0.419397 0.0900479 -0.0548844 ) 69
( 0.318642 0.00540921 -0.0337533 ) 74
( 0.489744 0.00724638 -0.0653996 ) 44
( 0.409309 0.00579624 -0.0368223 ) 77
( 0.28016 0.033086 -0.0705656 ) 46
( 0.265683 0.0564735 -0.0144928 ) 90
( 0.442726 0.0903511 -0.0234679 ) 105
( 0.474687 0.00637689 -0.0261861 ) 80
( 0.262233 0.0723637 -0.0326199 ) 99
( 0.387648 -0.00840176 -0.0631147 ) 40
( 0.423683 0.033192 -0.0619221 ) 51
( 0.268922 0.0104239 -0.0179807 ) 72
( 0.427988 -0.0128028 -0.0421283 ) 78
( 0.266068 -0.00363507 -0.0404235 ) 72
( 0.396458 -0.00297743 -0.0244336 ) 77
( 0.337219 0.000522137 -0.0461666 ) 39
( 0.254323 -0.0087715 -0.075224 ) 0
( 0.331116 0.047676 -0.0280559 ) 92
( 0.455425 0.0751312 -0.0359563 ) 106
( 0.376857 -0.00564253 -0.0795805 ) 4
( 0.312869 0.0524488 -0.0681115 ) 56
( 0.402827 0.0373984 -0.0478699 ) 50
( 0.253064 0.0510501 -0.0583461 ) 54
( 0.288807 -0.00306803 -0.0577782 ) 37
( 0.34886 0.0496221 -0.0404483 ) 93
( 0.313746 -0.0138226 -0.0291745 ) 74
( 0.415393 0.033368 -0.0331326 ) 86
( 0.347277 -0.00226602 -0.0230004 ) 75
( 0.490138 -0.00980757 -0.0310232 ) 80
( 0.290331 0.0341058 -0.0274075 ) 82
( 0.277414 0.0715881 -0.0197776 ) 99
( 0.367908 0.0606254 -0.0266073 ) 94
( 0.365255 0.00207022 -0.0302487 ) 76
( 0.452209 0.0238665 -0.0322064 ) 88
( 0.30556 0.0854563 -0.0279769 ) 101
( 0.476991 0.0378458 -0.0261751 ) 89
( 0.250334 0.0141027 -0.0235008 ) 72
( 0.420165 -0.00486085 -0.0242432 ) 78
( 0.350116 0.0418292 -0.0224051 ) 84
( 0.468194 0.0552816 -0.0242825 ) 97
( 0.295122 -0.0110025 -0.0230112 ) 73
( 0.431844 0.0737087 -0.0229909 ) 105
( 0.286569 0.00673639 -0.0261713 ) 73
( 0.456887 -0.00495524 -0.0310959 ) 79
( 0.399515 0.0436505 -0.0284255 ) 95
( 0.449879 0.0412098 -0.021256 ) 88
( 0.346248 -0.0137401 -0.056873 ) 39
( 0.281658 -0.0119548 -0.0836139 ) 1
( 0.470896 0.0601984 -0.0862657 ) 25
( 0.380429 0.0250192 -0.0844831 ) 13
( 0.38389 0.0443463 -0.0881058 ) 22
( 0.300213 0.0677002 -0.083883 ) 19
( 0.347293 0.0394636 -0.0869284 ) 12
( 0.445084 0.0342655 -0.0885494 ) 16
( 0.275554 0.0792701 -0.0842494 ) 27
( 0.282869 0.0197408 -0.085148 ) 10
( 0.329342 0.00860849 -0.0846935 ) 2
( 0.278691 0.0564965 -0.0852896 ) 19
( 0.363904 0.072137 -0.0816138 ) 31
( 0.301912 0.0874136 -0.0810418 ) 28
( 0.310999 0.0459835 -0.0868654 ) 20
( 0.26628 0.0307938 -0.0846877 ) 9
( 0.342991 0.0738655 -0.0836452 ) 30
( 0.356869 0.0900352 -0.0879207 ) 30
( 0.407934 0.0742727 -0.0859518 ) 32
( 0.253297 0.0900608 -0.0839328 ) 27
( 0.417121 0.0257636 -0.086131 ) 15
( 0.308594 0.00225178 -0.0808434 ) 2
( 0.438038 0.0548112 -0.0875004 ) 24
( 0.260745 0.0655701 -0.0871476 ) 18
( 0.289884 0.039283 -0.0868236 ) 10
( 0.302146 0.0234955 -0.0886559 ) 10
( 0.320408 0.0882426 -0.088457 ) 29
( 0.265765 0.00376009 -0.0860849 ) 0
( 0.328024 0.0561016 -0.0893077 ) 20
)
