/*--------------------------------*- C++ -*----------------------------------*\
| =========                 |                                                 |
| \\      /  F ield         | OpenFOAM: The Open Source CFD Toolbox           |
|  \\    /   O peration     | Version:  4.x                                   |
|   \\  /    A nd           | Web:      www.OpenFOAM.org                      |
|    \\/     M anipulation  |                                                 |
\*---------------------------------------------------------------------------*/
FoamFile
{
    version     2.0;
    format      ascii;
    class       volScalarField;
    location    "19.5";
    object      alpha.iron;
}
// * * * * * * * * * * * * * * * * * * * * * * * * * * * * * * * * * * * * * //

dimensions      [0 0 0 0 0 0 0];

internalField   nonuniform List<scalar> 
132
(
0.999881
0.999833
0.999799
0.99978
0.999801
0.999849
0.999935
1.00003
1.0008
0.999904
0.999859
0.999825
0.999798
0.99981
0.999831
0.999904
0.999951
1.00038
0.99992
0.999878
0.999841
0.999801
0.999796
0.99979
0.999841
0.999832
1.00015
0.999975
0.999957
0.999934
0.999904
0.999866
0.999816
0.999782
0.999714
0.998775
0.999871
0.999891
0.999948
1.00002
1.0001
1.00016
1.00146
0.999878
0.999868
0.999881
0.999912
0.999971
1.00003
1.0001
1.00015
1.00075
0.999921
0.999895
0.999881
0.999881
0.999912
0.999946
1.00002
1.00002
1.00018
0.999972
0.999955
0.999933
0.999904
0.999872
0.999826
0.999789
0.99973
0.999353
0.999925
0.999989
1.00007
1.00012
1.00047
0.999936
0.999914
0.999899
0.999897
0.999909
0.999936
0.999974
1.00001
1.00015
0.999952
0.999929
0.999912
0.999903
0.999906
0.999919
0.999939
0.999948
1.00011
0.999982
0.999972
0.999959
0.999943
0.999927
0.999905
0.999893
0.999868
0.999404
0.999862
0.999848
0.999877
0.99997
0.999953
0.999934
0.99991
0.999884
0.99986
0.999846
0.99985
0.999894
0.999979
0.999967
0.999953
0.999936
0.999916
0.999893
0.999869
0.999847
0.99955
0.99999
0.999983
0.999973
0.999959
0.999941
0.999921
0.999898
0.999876
0.998974
)
;

boundaryField
{
    inlet
    {
        type            fixedValue;
        value           nonuniform 0();
    }
    outlet
    {
        type            fixedValue;
        value           uniform 1;
    }
    wall
    {
        type            zeroGradient;
    }
    procBoundary7to0
    {
        type            processor;
        value           uniform 0.999923;
    }
    procBoundary7to1
    {
        type            processor;
        value           uniform 0.999902;
    }
    procBoundary7to3
    {
        type            processor;
        value           nonuniform List<scalar> 
36
(
0.999772
0.999704
0.999662
0.999643
0.999678
0.999729
0.999837
0.999927
1.00023
0.999845
0.999765
0.999698
0.999648
0.999658
0.99967
0.999764
0.99978
1.00016
0.99986
0.999777
0.999698
0.999631
0.999619
0.999602
0.999669
0.999651
1.00051
0.999962
0.999925
0.999877
0.999817
0.999752
0.99968
0.999623
0.999556
0.998822
)
;
    }
    procBoundary7to5
    {
        type            processor;
        value           nonuniform List<scalar> 
44
(
0.999871
0.999847
0.999831
0.999843
0.999882
0.999955
1.00002
1.0005
0.999899
0.999873
0.999886
0.999901
0.999951
1.00002
1.00011
1.00015
1.00116
0.999899
0.999873
0.999873
0.999885
0.999891
0.999908
0.999929
0.999973
0.999994
1.00025
0.999926
0.9999
0.999885
0.999891
0.999891
0.999894
0.999876
0.999872
0.999854
0.999833
0.999966
0.999949
0.999932
0.999913
0.999894
0.999876
0.999876
)
;
    }
    procBoundary7to6
    {
        type            processor;
        value           nonuniform List<scalar> 
12
(
0.999941
0.999953
0.999986
0.999904
0.999949
0.999984
0.999958
0.999971
0.999989
0.999982
0.999987
0.999994
)
;
    }
}


// ************************************************************************* //
