/*--------------------------------*- C++ -*----------------------------------*\
| =========                 |                                                 |
| \\      /  F ield         | OpenFOAM: The Open Source CFD Toolbox           |
|  \\    /   O peration     | Version:  4.x                                   |
|   \\  /    A nd           | Web:      www.OpenFOAM.org                      |
|    \\/     M anipulation  |                                                 |
\*---------------------------------------------------------------------------*/
FoamFile
{
    version     2.0;
    format      ascii;
    class       volVectorField;
    location    "19.5";
    object      impParticleForces;
}
// * * * * * * * * * * * * * * * * * * * * * * * * * * * * * * * * * * * * * //

dimensions      [1 1 -2 0 0 0 0];

internalField   nonuniform List<vector> 
132
(
(0.00239107 1.73517e-06 -2.17463e-05)
(0.0024151 3.1183e-06 -1.06573e-05)
(0.00237892 3.61577e-06 -1.46382e-06)
(0.00239783 4.04699e-06 7.33158e-06)
(0.00238096 4.21207e-06 1.2155e-05)
(0.00239163 4.45375e-06 1.47145e-05)
(0.00232264 3.71904e-06 8.50053e-06)
(0.00229264 3.53678e-06 -7.3668e-07)
(0.00222055 3.6677e-06 -1.46366e-05)
(0.00239256 7.74308e-06 -2.38731e-05)
(0.00243485 9.24218e-06 -1.30102e-05)
(0.00238729 1.04643e-05 -4.49816e-06)
(0.00239846 1.25278e-05 3.62619e-06)
(0.00237484 1.56974e-05 7.36092e-06)
(0.00239 1.96469e-05 9.44148e-06)
(0.00233671 2.53111e-05 1.98271e-06)
(0.00232073 3.21048e-05 -7.52765e-06)
(0.00223913 4.29794e-05 -2.66897e-05)
(0.00239364 1.21866e-05 -2.70975e-05)
(0.00243294 1.39864e-05 -1.73262e-05)
(0.00239722 1.5855e-05 -8.86692e-06)
(0.00241315 1.95359e-05 -1.00889e-06)
(0.00239642 2.4786e-05 2.30605e-06)
(0.00242672 3.19313e-05 4.37269e-06)
(0.0023721 4.29758e-05 -3.36328e-06)
(0.00234776 5.5823e-05 -1.31731e-05)
(0.00225586 8.12678e-05 -3.64106e-05)
(0.00237894 1.45274e-05 -2.94327e-05)
(0.00239164 1.60463e-05 -2.03058e-05)
(0.00237966 1.86791e-05 -1.25397e-05)
(0.00237966 2.25977e-05 -5.1373e-06)
(0.00238835 2.95324e-05 -2.147e-06)
(0.00240368 3.70734e-05 3.07123e-07)
(0.00236042 5.12208e-05 -6.96904e-06)
(0.00235756 6.40826e-05 -1.26271e-05)
(0.00224579 8.85966e-05 -3.37852e-05)
(0.00234399 -1.55069e-07 -2.58822e-07)
(0.00236618 -3.16656e-07 6.99837e-06)
(0.00233569 -8.85983e-07 1.04883e-05)
(0.00234495 -1.34598e-06 1.25365e-05)
(0.00229756 -3.80311e-06 9.18124e-06)
(0.0022836 -4.85575e-06 4.14606e-06)
(0.00220053 -9.0601e-06 -4.19939e-06)
(0.00234984 5.73916e-06 -1.87919e-05)
(0.00238656 6.64361e-06 -1.01757e-05)
(0.00234806 7.85264e-06 -3.39247e-06)
(0.00236552 9.61293e-06 3.09134e-06)
(0.00234386 1.19023e-05 6.04159e-06)
(0.00234802 1.50329e-05 6.88308e-06)
(0.00229649 1.86648e-05 1.99069e-06)
(0.00228461 2.44209e-05 -4.61611e-06)
(0.00220751 3.00863e-05 -1.43707e-05)
(0.00236252 1.12346e-05 -2.19401e-05)
(0.00239665 1.25547e-05 -1.40765e-05)
(0.00235949 1.43095e-05 -7.55664e-06)
(0.00237205 1.74694e-05 -1.37269e-06)
(0.0023621 2.21648e-05 1.37789e-06)
(0.00238085 2.84661e-05 2.90784e-06)
(0.00232904 3.80232e-05 -2.08596e-06)
(0.00230079 5.07092e-05 -8.66075e-06)
(0.00222171 6.70605e-05 -1.87324e-05)
(0.00234422 1.38477e-05 -2.44029e-05)
(0.00236063 1.52365e-05 -1.70895e-05)
(0.00234119 1.74869e-05 -1.11122e-05)
(0.00235469 2.11171e-05 -5.18722e-06)
(0.00234328 2.71664e-05 -2.64185e-06)
(0.00234918 3.45145e-05 -7.85181e-07)
(0.00231277 4.70708e-05 -5.27987e-06)
(0.00229451 6.18794e-05 -9.30697e-06)
(0.00221178 7.91327e-05 -1.91965e-05)
(0.00231319 -6.48646e-06 9.10694e-06)
(0.00232083 -8.69122e-06 1.07897e-05)
(0.00228009 -1.2734e-05 9.47568e-06)
(0.00225833 -1.62767e-05 6.08026e-06)
(0.0021834 -2.2438e-05 3.68911e-06)
(0.00234489 4.30179e-06 -1.47737e-05)
(0.00236957 5.14042e-06 -8.13365e-06)
(0.00233045 5.67014e-06 -2.91261e-06)
(0.00234591 6.9001e-06 1.7884e-06)
(0.00232316 8.65674e-06 3.976e-06)
(0.00233197 1.10776e-05 3.85279e-06)
(0.00228234 1.39399e-05 9.92625e-07)
(0.00227423 1.78972e-05 -4.91285e-06)
(0.00219306 2.55348e-05 -8.13162e-06)
(0.00235267 1.06013e-05 -1.77183e-05)
(0.00237379 1.18875e-05 -1.14279e-05)
(0.00234633 1.34038e-05 -6.73806e-06)
(0.00236851 1.64372e-05 -2.42686e-06)
(0.00235102 2.1035e-05 -5.00445e-07)
(0.00236403 2.71452e-05 -7.6202e-08)
(0.0023188 3.74567e-05 -3.26862e-06)
(0.00230096 5.00118e-05 -8.42249e-06)
(0.00222146 7.26312e-05 -1.37466e-05)
(0.00232405 1.32094e-05 -2.00079e-05)
(0.00233761 1.44606e-05 -1.42006e-05)
(0.00232219 1.65782e-05 -9.54549e-06)
(0.00234976 2.01627e-05 -5.49793e-06)
(0.00233534 2.63385e-05 -3.66961e-06)
(0.00235626 3.30139e-05 -2.56166e-06)
(0.0023167 4.77487e-05 -5.86647e-06)
(0.00230059 6.15786e-05 -1.05547e-05)
(0.00221762 8.95021e-05 -1.67312e-05)
(0.00225132 -1.95395e-05 9.31441e-06)
(0.00223507 -2.36795e-05 7.33987e-06)
(0.00216745 -3.31069e-05 7.41315e-06)
(0.00230922 3.00527e-06 -1.33884e-05)
(0.00232142 3.50354e-06 -7.90873e-06)
(0.0022994 3.85644e-06 -3.52315e-06)
(0.00231871 4.67548e-06 1.13391e-07)
(0.00228531 5.89176e-06 1.72307e-06)
(0.00228224 7.64611e-06 1.9753e-06)
(0.00224508 1.00115e-05 -5.02057e-07)
(0.00222564 1.37665e-05 -3.38282e-06)
(0.00216246 1.7636e-05 -7.5695e-06)
(0.00230935 9.27378e-06 -1.62294e-05)
(0.00231522 1.02393e-05 -1.12219e-05)
(0.00230473 1.18224e-05 -7.50335e-06)
(0.00233556 1.47037e-05 -4.7865e-06)
(0.00230889 1.90639e-05 -4.08356e-06)
(0.00229959 2.47198e-05 -4.19114e-06)
(0.00227006 3.3809e-05 -8.53019e-06)
(0.00225292 4.4086e-05 -1.30947e-05)
(0.00219227 6.03796e-05 -2.23507e-05)
(0.0022948 1.20686e-05 -1.84922e-05)
(0.00230911 1.33326e-05 -1.37695e-05)
(0.00229736 1.54221e-05 -1.03189e-05)
(0.00233263 1.89088e-05 -7.95309e-06)
(0.00231657 2.51128e-05 -7.97351e-06)
(0.0022994 3.19593e-05 -7.41486e-06)
(0.00226866 4.43037e-05 -1.3438e-05)
(0.00225922 5.71514e-05 -1.84036e-05)
(0.00219903 7.89936e-05 -3.92206e-05)
)
;

boundaryField
{
    inlet
    {
        type            zeroGradient;
    }
    outlet
    {
        type            zeroGradient;
    }
    wall
    {
        type            zeroGradient;
    }
    procBoundary7to0
    {
        type            processor;
        value           uniform (0.00238279 -3.61618e-08 -3.26809e-05);
    }
    procBoundary7to1
    {
        type            processor;
        value           uniform (0.00239577 -3.90998e-06 -2.15234e-05);
    }
    procBoundary7to3
    {
        type            processor;
        value           nonuniform List<vector> 
36
(
(0.00243589 4.21774e-06 -2.67746e-05)
(0.00246744 6.11738e-06 -1.34299e-05)
(0.00243387 7.17362e-06 -2.29727e-06)
(0.00244915 7.85241e-06 8.38584e-06)
(0.00240568 8.24858e-06 1.32722e-05)
(0.00241643 9.83645e-06 1.59126e-05)
(0.00236417 1.06974e-05 9.04651e-06)
(0.0023407 1.33991e-05 -4.49911e-06)
(0.00225998 1.59467e-05 -2.6182e-05)
(0.00244285 8.51542e-06 -2.8999e-05)
(0.00245992 9.885e-06 -1.61743e-05)
(0.0024305 1.19486e-05 -5.32715e-06)
(0.00242325 1.43396e-05 4.29034e-06)
(0.00239691 1.77377e-05 9.64672e-06)
(0.00242825 2.31888e-05 1.29949e-05)
(0.00238084 2.95886e-05 4.63176e-06)
(0.00237772 3.97314e-05 -9.9815e-06)
(0.00227333 5.12374e-05 -3.68517e-05)
(0.00244805 1.26029e-05 -3.18768e-05)
(0.00247948 1.43184e-05 -2.00474e-05)
(0.00244474 1.65059e-05 -9.15881e-06)
(0.0024487 2.03511e-05 7.57065e-07)
(0.00242547 2.6016e-05 5.94475e-06)
(0.00245622 3.44898e-05 8.67802e-06)
(0.00240829 4.572e-05 5.45954e-07)
(0.00238986 6.19292e-05 -1.53246e-05)
(0.00228041 8.43687e-05 -4.09555e-05)
(0.00241843 1.46732e-05 -3.34659e-05)
(0.00242347 1.62461e-05 -2.24393e-05)
(0.00241072 1.8896e-05 -1.24387e-05)
(0.00242789 2.33918e-05 -3.55e-06)
(0.00242661 3.08616e-05 1.53909e-06)
(0.00244603 4.03308e-05 3.81256e-06)
(0.0023893 5.56056e-05 -5.49386e-06)
(0.00238706 7.53572e-05 -2.07045e-05)
(0.00228341 0.000104948 -5.10617e-05)
)
;
    }
    procBoundary7to5
    {
        type            processor;
        value           nonuniform List<vector> 
44
(
(0.0024284 -2.65784e-06 -1.0023e-05)
(0.00239138 -2.84293e-06 -3.67967e-07)
(0.00241439 -4.67107e-06 8.99524e-06)
(0.00237693 -7.99257e-06 1.37925e-05)
(0.00237625 -1.22795e-05 1.6602e-05)
(0.00233094 -1.91024e-05 1.30983e-05)
(0.00230094 -2.67996e-05 6.16695e-06)
(0.00222811 -3.84902e-05 -4.55256e-06)
(0.00235872 -9.72984e-07 -1.65351e-05)
(0.00236381 -3.75703e-07 -7.7727e-06)
(0.00236084 -7.74766e-06 1.44221e-06)
(0.00238537 -9.96187e-06 9.63379e-06)
(0.00234958 -1.40029e-05 1.41054e-05)
(0.00235945 -1.94762e-05 1.78341e-05)
(0.00230802 -2.83359e-05 1.67562e-05)
(0.00228732 -3.77853e-05 1.37374e-05)
(0.00220965 -5.04368e-05 1.04948e-05)
(0.00235872 -9.72984e-07 -1.65351e-05)
(0.00236381 -3.75703e-07 -7.7727e-06)
(0.00236381 -3.75703e-07 -7.7727e-06)
(0.00233884 -4.14661e-06 5.98059e-07)
(0.00235417 -4.97524e-06 6.32317e-06)
(0.00236202 -2.24486e-05 1.4595e-05)
(0.00236824 -3.01119e-05 1.83867e-05)
(0.00232121 -4.28444e-05 2.06117e-05)
(0.00230525 -5.64564e-05 2.00636e-05)
(0.00222369 -7.6832e-05 2.31314e-05)
(0.00233498 -3.72259e-06 -1.26638e-05)
(0.00237312 -3.80378e-06 -5.14304e-06)
(0.00233884 -4.14661e-06 5.98059e-07)
(0.00235417 -4.97524e-06 6.32317e-06)
(0.00235417 -4.97524e-06 6.32317e-06)
(0.00230524 -1.11312e-05 7.9954e-06)
(0.00229097 -1.38467e-05 9.47961e-06)
(0.00229634 -4.99812e-05 1.91966e-05)
(0.00228012 -6.59334e-05 2.13925e-05)
(0.0022144 -9.21718e-05 2.52536e-05)
(0.00230062 -5.07278e-06 -1.1294e-05)
(0.00232154 -5.38191e-06 -5.09579e-06)
(0.00230666 -6.43652e-06 7.86722e-08)
(0.00231902 -7.94415e-06 4.68846e-06)
(0.00230524 -1.11312e-05 7.9954e-06)
(0.00229097 -1.38467e-05 9.47961e-06)
(0.00229097 -1.38467e-05 9.47961e-06)
)
;
    }
    procBoundary7to6
    {
        type            processor;
        value           nonuniform List<vector> 
12
(
(0.00241335 6.84217e-06 -3.42066e-05)
(0.00242607 1.19786e-05 -3.71586e-05)
(0.00238244 1.38766e-05 -3.80577e-05)
(0.00238982 5.40217e-06 -2.72577e-05)
(0.00240184 1.11999e-05 -3.01582e-05)
(0.00237207 1.38298e-05 -3.19099e-05)
(0.00237166 3.97146e-06 -2.13361e-05)
(0.00238692 1.06739e-05 -2.3532e-05)
(0.00235004 1.31622e-05 -2.57826e-05)
(0.00232424 2.80508e-06 -1.90568e-05)
(0.00233715 9.17265e-06 -2.1261e-05)
(0.00232596 1.20414e-05 -2.33188e-05)
)
;
    }
}


// ************************************************************************* //
