/*--------------------------------*- C++ -*----------------------------------*\
| =========                 |                                                 |
| \\      /  F ield         | OpenFOAM: The Open Source CFD Toolbox           |
|  \\    /   O peration     | Version:  4.x                                   |
|   \\  /    A nd           | Web:      www.OpenFOAM.org                      |
|    \\/     M anipulation  |                                                 |
\*---------------------------------------------------------------------------*/
FoamFile
{
    version     2.0;
    format      ascii;
    class       volScalarField;
    location    "19.5";
    object      KslPrev;
}
// * * * * * * * * * * * * * * * * * * * * * * * * * * * * * * * * * * * * * //

dimensions      [1 -3 -1 0 0 0 0];

internalField   nonuniform List<scalar> 
132
(
71845
3926.98
913044
3964.59
1e+10
4044.83
1e+10
4154.46
32310.7
24262.8
3659.94
27977.6
3561.33
30038.4
3530.8
25152.6
3666.69
13089.5
15270.2
3604.91
15883.7
3502.19
15714.6
3480.66
11768
3539.24
4858.58
6386.51
3049.69
6257.54
2841.96
6237.59
2570.42
6358.97
2089.01
5313.9
1e+10
3854.17
1e+10
3743.56
65048.6
3478.07
18399
1e+10
4133.62
1e+10
4143.74
1e+10
4179.28
31436
4206.22
8052.69
62076.1
3956.28
1e+10
4054.8
1e+10
4334.94
1e+10
5090.14
43244.2
8631.25
3434.67
9550.53
3459.66
10834.8
3566.42
12343.5
3956.32
12323.2
1e+10
4175.61
1e+10
4769.26
13769.9
32882.6
3715.79
54008.8
3623.76
79560
3573.41
67578.5
3774.23
21725
15466.9
3633.82
15963.9
3538.96
13807.3
3428.36
9785.43
3332.36
4474.16
6252.43
3062.4
5947.52
2888.27
5781.53
2571.16
5679.26
1921.07
4948.58
8283.29
3639.49
7408.28
9754.71
3435.09
10503.3
3452.63
11581.4
3587.03
13773.8
4113.71
12053.4
6731.88
3233.65
6630.41
3257.23
6826.35
3278.63
6976.5
3511.78
6792.38
4853.3
2900.09
4961.95
2913.19
5088.52
2802.65
4712.53
2626.37
3590.42
)
;

boundaryField
{
    inlet
    {
        type            zeroGradient;
    }
    outlet
    {
        type            zeroGradient;
    }
    wall
    {
        type            zeroGradient;
    }
    procBoundary7to0
    {
        type            processor;
        value           uniform 0;
    }
    procBoundary7to1
    {
        type            processor;
        value           uniform 0;
    }
    procBoundary7to3
    {
        type            processor;
        value           uniform 0;
    }
    procBoundary7to5
    {
        type            processor;
        value           uniform 0;
    }
    procBoundary7to6
    {
        type            processor;
        value           uniform 0;
    }
}


// ************************************************************************* //
