/*--------------------------------*- C++ -*----------------------------------*\
| =========                 |                                                 |
| \\      /  F ield         | OpenFOAM: The Open Source CFD Toolbox           |
|  \\    /   O peration     | Version:  4.x                                   |
|   \\  /    A nd           | Web:      www.OpenFOAM.org                      |
|    \\/     M anipulation  |                                                 |
\*---------------------------------------------------------------------------*/
FoamFile
{
    version     2.0;
    format      ascii;
    class       volScalarField;
    location    "19.5";
    object      particleRelTemp;
}
// * * * * * * * * * * * * * * * * * * * * * * * * * * * * * * * * * * * * * //

dimensions      [0 0 0 0 0 0 0];

internalField   nonuniform List<scalar> 
132
(
6.63097e-08
6.84138e-08
6.70052e-08
6.17376e-08
5.35552e-08
4.5363e-08
3.71697e-08
3.17538e-08
2.88832e-08
5.98527e-08
6.31954e-08
6.26101e-08
5.82972e-08
5.15339e-08
4.2116e-08
3.27942e-08
2.46277e-08
2.28501e-08
4.42661e-08
4.50638e-08
4.52166e-08
4.21767e-08
3.75865e-08
2.49249e-08
1.79177e-08
1.35601e-08
1.00517e-08
2.67598e-08
2.65292e-08
2.74048e-08
2.48671e-08
2.14513e-08
1.09467e-08
4.24263e-09
-3.4656e-09
-4.12028e-09
6.02789e-08
5.47189e-08
4.77884e-08
4.15845e-08
3.38981e-08
2.81781e-08
2.44374e-08
5.38372e-08
5.49654e-08
5.52464e-08
4.89217e-08
4.35531e-08
3.48706e-08
2.74229e-08
2.20998e-08
1.94706e-08
3.91863e-08
3.89626e-08
3.82235e-08
3.66009e-08
2.89148e-08
2.20603e-08
1.52799e-08
9.97013e-09
5.65782e-09
1.98436e-08
2.1571e-08
2.45045e-08
2.07032e-08
1.50838e-08
7.24691e-09
2.59707e-09
-3.88087e-09
-7.5344e-09
4.08168e-08
3.18632e-08
2.23727e-08
1.74233e-08
1.66612e-08
3.26605e-08
4.18416e-08
3.78679e-08
3.29986e-08
3.00163e-08
2.49273e-08
1.74971e-08
1.25881e-08
1.08781e-08
1.98391e-08
2.05768e-08
2.2162e-08
2.11326e-08
1.67868e-08
1.06071e-08
4.73348e-09
-2.04794e-09
-2.72107e-09
1.33646e-09
7.39282e-09
6.9095e-09
6.67277e-09
1.48915e-10
-7.65609e-09
-8.82684e-09
-1.54999e-08
-1.76089e-08
1.09976e-08
6.91187e-09
2.6192e-09
1.94922e-08
2.08863e-08
2.30877e-08
1.91567e-08
1.63949e-08
1.2228e-08
7.61175e-09
7.72088e-10
-3.75397e-10
2.98064e-09
7.04503e-09
8.56485e-09
6.85752e-09
3.98797e-09
9.28424e-10
-4.62618e-09
-1.33066e-08
-1.41134e-08
-1.24112e-08
-7.32022e-09
-7.1533e-09
-9.20004e-09
-9.49217e-09
-1.31155e-08
-1.8318e-08
-2.50903e-08
-3.32288e-08
)
;

boundaryField
{
    inlet
    {
        type            calculated;
        value           nonuniform 0();
    }
    outlet
    {
        type            calculated;
        value           nonuniform List<scalar> 
16
(
2.88832e-08
2.28501e-08
1.00517e-08
-4.12028e-09
2.44374e-08
1.94706e-08
5.65782e-09
-7.5344e-09
1.66612e-08
1.08781e-08
-2.72107e-09
-1.76089e-08
2.6192e-09
-3.75397e-10
-1.41134e-08
-3.32288e-08
)
;
    }
    wall
    {
        type            calculated;
        value           nonuniform List<scalar> 
66
(
1.94922e-08
2.98064e-09
-1.24112e-08
2.08863e-08
7.04503e-09
-7.32022e-09
2.30877e-08
8.56485e-09
-7.1533e-09
1.91567e-08
6.85752e-09
-9.20004e-09
1.63949e-08
3.98797e-09
-9.49217e-09
1.2228e-08
9.28424e-10
-1.31155e-08
1.09976e-08
7.61175e-09
-4.62618e-09
-1.8318e-08
6.91187e-09
7.72088e-10
-1.33066e-08
-2.50903e-08
2.6192e-09
-3.75397e-10
-1.41134e-08
-3.32288e-08
2.67598e-08
1.98436e-08
1.33646e-09
-1.24112e-08
2.65292e-08
2.1571e-08
7.39282e-09
-7.32022e-09
2.74048e-08
2.45045e-08
6.9095e-09
-7.1533e-09
2.48671e-08
2.07032e-08
6.67277e-09
-9.20004e-09
2.14513e-08
1.50838e-08
1.48915e-10
-9.49217e-09
1.09467e-08
7.24691e-09
-7.65609e-09
-1.31155e-08
4.24263e-09
2.59707e-09
-8.82684e-09
-1.8318e-08
-3.4656e-09
-3.88087e-09
-1.54999e-08
-2.50903e-08
-4.12028e-09
-7.5344e-09
-1.76089e-08
-3.32288e-08
)
;
    }
    procBoundary7to0
    {
        type            processor;
        value           uniform 6.15179e-08;
    }
    procBoundary7to1
    {
        type            processor;
        value           uniform 6.12496e-08;
    }
    procBoundary7to3
    {
        type            processor;
        value           nonuniform List<scalar> 
36
(
6.25001e-08
6.32343e-08
6.21572e-08
5.53421e-08
4.76707e-08
4.18038e-08
3.3432e-08
2.80891e-08
2.57948e-08
5.43343e-08
5.68087e-08
5.6755e-08
5.025e-08
4.60404e-08
3.60749e-08
2.78331e-08
2.05647e-08
1.73371e-08
3.75221e-08
3.66118e-08
3.9961e-08
3.76551e-08
3.21172e-08
2.34555e-08
1.37581e-08
8.4205e-09
4.09496e-09
2.07639e-08
1.72889e-08
1.89192e-08
1.78269e-08
1.5305e-08
5.00115e-09
-1.53279e-09
-4.74911e-09
-4.03844e-09
)
;
    }
    procBoundary7to5
    {
        type            processor;
        value           nonuniform List<scalar> 
44
(
6.29744e-08
6.06141e-08
5.55602e-08
5.05096e-08
4.21719e-08
3.50889e-08
2.86395e-08
2.74504e-08
5.63671e-08
5.95487e-08
5.30888e-08
4.95691e-08
4.24648e-08
3.59506e-08
3.06034e-08
2.54174e-08
2.2092e-08
5.63671e-08
5.95487e-08
5.95487e-08
4.06159e-08
4.00534e-08
3.10555e-08
2.44827e-08
1.87803e-08
1.35107e-08
1.20066e-08
3.517e-08
4.05053e-08
4.06159e-08
4.00534e-08
4.00534e-08
2.4058e-08
1.59043e-08
6.36484e-09
1.19519e-09
-5.95927e-10
2.25173e-08
2.41166e-08
2.65735e-08
2.46491e-08
2.4058e-08
1.59043e-08
1.59043e-08
)
;
    }
    procBoundary7to6
    {
        type            processor;
        value           nonuniform List<scalar> 
12
(
5.40526e-08
3.70156e-08
1.62344e-08
4.55378e-08
2.87847e-08
1.44316e-08
2.97444e-08
1.7545e-08
-1.44307e-09
8.694e-09
3.04307e-10
-1.43722e-08
)
;
    }
}


// ************************************************************************* //
