/*--------------------------------*- C++ -*----------------------------------*\
| =========                 |                                                 |
| \\      /  F ield         | OpenFOAM: The Open Source CFD Toolbox           |
|  \\    /   O peration     | Version:  4.x                                   |
|   \\  /    A nd           | Web:      www.OpenFOAM.org                      |
|    \\/     M anipulation  |                                                 |
\*---------------------------------------------------------------------------*/
FoamFile
{
    version     2.0;
    format      ascii;
    class       volScalarField;
    location    "19.5";
    object      rho;
}
// * * * * * * * * * * * * * * * * * * * * * * * * * * * * * * * * * * * * * //

dimensions      [1 -3 0 0 0 0 0];

internalField   nonuniform List<scalar> 
132
(
6699.2
6698.88
6698.66
6698.52
6698.66
6698.99
6699.56
6700.19
6705.39
6699.35
6699.05
6698.83
6698.65
6698.72
6698.87
6699.36
6699.67
6702.55
6699.47
6699.18
6698.93
6698.67
6698.64
6698.59
6698.93
6698.88
6701
6699.83
6699.71
6699.56
6699.36
6699.1
6698.77
6698.54
6698.08
6691.79
6699.14
6699.27
6699.65
6700.11
6700.68
6701.1
6709.77
6699.19
6699.12
6699.2
6699.41
6699.8
6700.2
6700.68
6700.97
6705.02
6699.47
6699.3
6699.2
6699.2
6699.41
6699.64
6700.1
6700.1
6701.21
6699.81
6699.7
6699.55
6699.36
6699.14
6698.84
6698.59
6698.19
6695.67
6699.5
6699.92
6700.46
6700.78
6703.16
6699.57
6699.42
6699.32
6699.31
6699.39
6699.57
6699.82
6700.09
6701
6699.68
6699.53
6699.41
6699.35
6699.37
6699.46
6699.59
6699.65
6700.75
6699.88
6699.81
6699.72
6699.62
6699.51
6699.36
6699.28
6699.12
6696
6699.08
6698.98
6699.18
6699.8
6699.69
6699.56
6699.4
6699.22
6699.06
6698.97
6699
6699.29
6699.86
6699.78
6699.69
6699.57
6699.43
6699.28
6699.13
6698.98
6696.99
6699.93
6699.88
6699.82
6699.72
6699.61
6699.47
6699.32
6699.17
6693.13
)
;

boundaryField
{
    inlet
    {
        type            calculated;
        value           nonuniform 0();
    }
    outlet
    {
        type            calculated;
        value           uniform 6700;
    }
    wall
    {
        type            calculated;
        value           nonuniform List<scalar> 
66
(
6699.8
6699.86
6699.93
6699.69
6699.78
6699.88
6699.56
6699.69
6699.82
6699.4
6699.57
6699.72
6699.22
6699.43
6699.61
6699.06
6699.28
6699.47
6699.08
6698.97
6699.13
6699.32
6698.98
6699
6698.98
6699.17
6699.18
6699.29
6696.99
6693.13
6699.83
6699.81
6699.88
6699.93
6699.71
6699.7
6699.81
6699.88
6699.56
6699.55
6699.72
6699.82
6699.36
6699.36
6699.62
6699.72
6699.1
6699.14
6699.51
6699.61
6698.77
6698.84
6699.36
6699.47
6698.54
6698.59
6699.28
6699.32
6698.08
6698.19
6699.12
6699.17
6691.79
6695.67
6696
6693.13
)
;
    }
    procBoundary7to0
    {
        type            processor;
        value           uniform 6699.48;
    }
    procBoundary7to1
    {
        type            processor;
        value           uniform 6699.34;
    }
    procBoundary7to3
    {
        type            processor;
        value           nonuniform List<scalar> 
36
(
6698.48
6698.02
6697.73
6697.61
6697.84
6698.19
6698.91
6699.51
6701.56
6698.96
6698.42
6697.98
6697.64
6697.71
6697.79
6698.42
6698.53
6701.07
6699.06
6698.5
6697.98
6697.53
6697.44
6697.33
6697.78
6697.66
6703.41
6699.75
6699.5
6699.18
6698.77
6698.34
6697.86
6697.47
6697.03
6692.11
)
;
    }
    procBoundary7to5
    {
        type            processor;
        value           nonuniform List<scalar> 
44
(
6699.14
6698.98
6698.87
6698.95
6699.21
6699.7
6700.12
6703.37
6699.32
6699.15
6699.24
6699.34
6699.67
6700.11
6700.71
6700.97
6707.76
6699.32
6699.15
6699.15
6699.23
6699.27
6699.39
6699.53
6699.82
6699.96
6701.68
6699.51
6699.33
6699.23
6699.27
6699.27
6699.29
6699.17
6699.14
6699.02
6698.88
6699.78
6699.66
6699.54
6699.41
6699.29
6699.17
6699.17
)
;
    }
    procBoundary7to6
    {
        type            processor;
        value           nonuniform List<scalar> 
12
(
6699.6
6699.69
6699.91
6699.36
6699.66
6699.89
6699.72
6699.81
6699.93
6699.88
6699.91
6699.96
)
;
    }
}


// ************************************************************************* //
