/*--------------------------------*- C++ -*----------------------------------*\
  =========                 |
  \\      /  F ield         | OpenFOAM: The Open Source CFD Toolbox
   \\    /   O peration     | Website:  https://openfoam.org
    \\  /    A nd           | Version:  4.x
     \\/     M anipulation  |
\*---------------------------------------------------------------------------*/
FoamFile
{
    version     2.0;
    format      ascii;
    class       Cloud<passiveParticle>;
    location    0;
    object      positions;
}
// * * * * * * * * * * * * * * * * * * * * * * * * * * * * * * * * * * * * * //

258
(
( 0.023851 0.0373494 0.015408 ) 6
( 0.24832 0.0516132 -0.0068527 ) 2
( 0.0274344 0.0279916 0.0325169 ) 6
( 0.0325937 0.0721952 0.0175679 ) 25
( 0.242049 0.0712251 0.000367935 ) 2
( 0.196798 0.0712785 0.00282344 ) 1
( 0.225449 0.0399301 -0.0103995 ) 0
( 0.1059 0.0456048 0.0370222 ) 18
( 0.167508 0.0195783 0.0187482 ) 12
( 0.13127 0.0344811 0.0152626 ) 10
( 0.06826 0.067532 0.0308772 ) 17
( 0.218982 0.0674671 0.00879393 ) 1
( 0.0542928 0.034739 0.0266617 ) 7
( 0.139632 0.0400214 0.0351864 ) 11
( 0.0875332 0.0458993 0.029785 ) 18
( 0.111035 0.0900225 0.0147684 ) 27
( 0.0346536 0.0152377 0.0196362 ) 7
( 0.0645528 0.0900816 0.0200354 ) 26
( 0.178975 0.0835068 0.0156445 ) 30
( 0.163766 0.0745256 0.0244862 ) 29
( 0.0484123 0.0728208 0.0304919 ) 25
( 0.240274 0.0901653 0.0189226 ) 32
( 0.229687 0.0220873 -0.00345016 ) 0
( 0.108621 0.061974 0.0225064 ) 18
( 0.0962706 0.0291381 0.0242628 ) 9
( 0.189628 0.0509663 0.0148 ) 21
( 0.132465 0.0148626 0.0178954 ) 10
( 0.214484 0.0717154 -0.00987124 ) 4
( 0.139579 0.0520632 0.0197457 ) 20
( 0.0153526 0.0178917 0.017221 ) 6
( 0.117317 0.0783625 0.0295235 ) 28
( 0.131605 0.0202926 0.0366398 ) 10
( 0.203293 0.0368219 0.0171574 ) 13
( 0.213599 0.0533581 0.0213573 ) 22
( 0.00975539 0.0744872 0.0216491 ) 24
( 0.205947 0.051806 0.00322413 ) 1
( 0.0985291 0.0899646 0.0300117 ) 27
( 0.110375 0.0153382 0.0251504 ) 9
( 0.200753 0.0268559 0.0339808 ) 13
( 0.239134 0.0359201 0.0164171 ) 14
( 0.145813 0.073082 0.0167127 ) 29
( 0.0913565 0.0633039 0.0383158 ) 18
( 0.190947 0.0902224 0.00137983 ) 3
( 0.159416 0.0557242 0.0209314 ) 20
( 0.0195807 0.0901905 0.0281089 ) 24
( 0.215937 0.0868502 0.0211096 ) 31
( 0.231395 0.0529389 0.00299888 ) 2
( 0.224041 0.0278486 0.0261486 ) 14
( 0.130291 0.0900915 0.0197389 ) 28
( 0.173145 0.0901654 -0.00753911 ) 3
( 0.00980575 0.0193851 0.0360473 ) 6
( 0.231142 0.0491288 0.0302179 ) 23
( 0.196523 0.0901812 0.0218584 ) 31
( 0.0372373 0.0513285 0.0195977 ) 16
( 0.0681926 0.0502402 0.0210445 ) 17
( 0.0796624 0.0838149 0.0312374 ) 26
( 0.24013 0.0166229 0.0122523 ) 0
( 0.195016 0.0703226 0.0223754 ) 22
( 0.149154 0.0902472 0.0258458 ) 29
( 0.150589 0.0258151 0.0271536 ) 11
( 0.208088 0.090232 -0.00847771 ) 4
( 0.242975 0.0903811 -0.00373918 ) 5
( 0.0919146 0.0724152 0.0206883 ) 27
( 0.0387268 0.0897059 0.0242753 ) 25
( 0.018594 0.056828 0.0224865 ) 15
( 0.22751 0.0748731 0.0316745 ) 32
( 0.00988597 0.0380815 0.0292094 ) 6
( 0.224506 0.0900812 0.00351565 ) 5
( 0.236029 0.0640999 0.0181945 ) 23
( 0.127092 0.0670033 0.0175015 ) 19
( 0.197611 0.0504693 0.0327075 ) 22
( 0.18498 0.0289174 0.0172572 ) 12
( 0.0761563 0.0319776 0.0213949 ) 8
( 0.247795 0.0753706 0.0296624 ) 32
( 0.0515233 0.0535094 0.0329469 ) 16
( 0.166603 0.0381048 0.0255433 ) 11
( 0.0535405 0.0151315 0.0536951 ) 34
( 0.0882287 0.0318558 0.0573604 ) 36
( 0.167055 0.0675979 0.0423088 ) 21
( 0.113061 0.0418043 0.019077 ) 10
( 0.0489517 0.0320238 0.0627467 ) 34
( 0.208043 0.0547561 0.0520939 ) 49
( 0.028923 0.0595354 0.0546106 ) 43
( 0.124505 0.0558213 0.0552291 ) 46
( 0.181353 0.0274283 0.0571737 ) 39
( 0.175518 0.0900132 0.0532087 ) 57
( 0.0313967 0.0403549 0.059182 ) 34
( 0.0712781 0.0596204 0.0589076 ) 44
( 0.1047 0.0219063 0.0623823 ) 36
( 0.107946 0.0804493 0.0593259 ) 54
( 0.105673 0.0594438 0.0601581 ) 45
( 0.0552555 0.0890407 0.0561002 ) 52
( 0.150224 0.0695957 0.0569389 ) 47
( 0.13194 0.039892 0.0639877 ) 37
( 0.0208388 0.0793697 0.0569339 ) 51
( 0.179576 0.0552337 0.0554261 ) 48
( 0.139518 0.0214732 0.0647845 ) 38
( 0.0701259 0.0399031 0.0587089 ) 35
( 0.134369 0.0900938 0.0589243 ) 55
( 0.238073 0.0470105 0.0496585 ) 50
( 0.00988121 0.0170462 0.0644282 ) 33
( 0.228677 0.0874585 0.0565029 ) 59
( 0.207362 0.0760527 0.0524542 ) 58
( 0.0839733 0.0891494 0.0658817 ) 54
( 0.148789 0.0490452 0.0575389 ) 47
( 0.158841 0.0901082 0.0674377 ) 56
( 0.00971859 0.0635741 0.059544 ) 42
( 0.0954412 0.0378813 0.0744061 ) 63
( 0.249216 0.0175622 0.0549437 ) 41
( 0.192236 0.0653221 0.0445927 ) 48
( 0.0446586 0.0527119 0.0697223 ) 43
( 0.0842949 0.0736449 0.0535602 ) 54
( 0.225158 0.0609944 0.0449172 ) 50
( 0.112948 0.0906118 0.0436173 ) 55
( 0.196901 0.0514 0.0680008 ) 49
( 0.129598 0.0724594 0.0458589 ) 55
( 0.166221 0.0903874 0.0357012 ) 29
( 0.0615006 0.0167534 0.0732791 ) 62
( 0.0381176 0.0831493 0.0468734 ) 52
( 0.22928 0.0180705 0.0603665 ) 41
( 0.199214 0.0202586 0.0523534 ) 40
( 0.211802 0.0351847 0.0549336 ) 40
( 0.164631 0.0372182 0.061272 ) 38
( 0.1059 0.026011 0.0412812 ) 9
( 0.0215607 0.0251597 0.0509778 ) 33
( 0.013598 0.0394945 0.0679115 ) 33
( 0.166431 0.024638 0.0445119 ) 38
( 0.0438841 0.0708461 0.0614494 ) 43
( 0.249477 0.0572959 0.0374535 ) 23
( 0.0569185 0.0665147 0.0471943 ) 44
( 0.110877 0.0641868 0.0419119 ) 18
( 0.00975471 0.0903028 0.0449862 ) 51
( 0.216726 0.0898075 0.0407492 ) 31
( 0.0940879 0.0902477 0.0491177 ) 54
( 0.248989 0.0459409 0.0689998 ) 50
( 0.170985 0.0719426 0.0607769 ) 57
( 0.031088 0.0651429 0.0358817 ) 16
( 0.178737 0.0560353 0.0314239 ) 21
( 0.151949 0.0549238 0.0391027 ) 20
( 0.0737237 0.0901344 0.0489914 ) 53
( 0.0637287 0.0297117 0.043131 ) 35
( 0.0260304 0.0464187 0.0391766 ) 15
( 0.0431322 0.0320726 0.0438934 ) 34
( 0.12284 0.033675 0.0479441 ) 37
( 0.14832 0.0306289 0.049973 ) 38
( 0.15157 0.090239 0.0490091 ) 56
( 0.182509 0.0333031 0.0363292 ) 12
( 0.125827 0.0728911 0.0652871 ) 55
( 0.209319 0.0666626 0.0352481 ) 22
( 0.0886229 0.0514969 0.0540713 ) 45
( 0.196947 0.0900754 0.0417158 ) 31
( 0.106129 0.0403647 0.0559313 ) 36
( 0.116716 0.0472326 0.0742374 ) 73
( 0.24695 0.078721 0.0562911 ) 59
( 0.0859572 0.0707546 0.0730912 ) 72
( 0.246223 0.0372633 0.0346575 ) 14
( 0.012306 0.0605736 0.0405533 ) 15
( 0.215166 0.0641861 0.0725931 ) 76
( 0.228537 0.0304517 0.0452694 ) 41
( 0.121475 0.0251784 0.0721706 ) 64
( 0.0831325 0.0277152 0.039052 ) 8
( 0.193467 0.0707893 0.0657164 ) 48
( 0.134386 0.0903011 0.039022 ) 28
( 0.182014 0.0788598 0.0347037 ) 30
( 0.236426 0.0905707 0.0384544 ) 32
( 0.0275054 0.0631453 0.0738436 ) 69
( 0.180184 0.0153101 0.0734058 ) 66
( 0.0534013 0.0474505 0.0514689 ) 43
( 0.0537149 0.0904726 0.0367205 ) 25
( 0.0638071 0.0502675 0.0743223 ) 71
( 0.0725154 0.051223 0.0412579 ) 17
( 0.0490563 0.0166317 0.0330583 ) 7
( 0.241185 0.0174706 0.0370458 ) 14
( 0.0348132 0.0902463 0.0651804 ) 52
( 0.214325 0.0411728 0.0367321 ) 13
( 0.158092 0.0589883 0.0717677 ) 74
( 0.127477 0.0556402 0.0353527 ) 19
( 0.148871 0.0743234 0.0376707 ) 29
( 0.210084 0.0837933 0.0703509 ) 58
( 0.134814 0.0572027 0.0734394 ) 73
( 0.0105362 0.0900331 0.070257 ) 51
( 0.009675 0.0408284 0.0487142 ) 33
( 0.0274421 0.0229685 0.0734093 ) 60
( 0.193725 0.09007 0.0611757 ) 57
( 0.238263 0.0744097 0.0760834 ) 86
( 0.143179 0.079093 0.0728619 ) 83
( 0.100876 0.0205619 0.0816355 ) 63
( 0.168269 0.0444605 0.0436786 ) 48
( 0.148944 0.0366397 0.0726942 ) 65
( 0.0660082 0.0744958 0.0704609 ) 53
( 0.101869 0.0900201 0.075942 ) 81
( 0.2117 0.0360667 0.074172 ) 67
( 0.0864823 0.0310608 0.0905546 ) 63
( 0.193339 0.0417214 0.0506408 ) 39
( 0.17507 0.0488581 0.0730564 ) 75
( 0.0727426 0.0192028 0.0572143 ) 35
( 0.00953127 0.0562632 0.0774656 ) 69
( 0.165815 0.0755668 0.0789769 ) 83
( 0.18866 0.034507 0.0740667 ) 66
( 0.0930427 0.0551969 0.0830189 ) 72
( 0.244377 0.0429155 0.090315 ) 77
( 0.12161 0.0901497 0.0740376 ) 82
( 0.0771655 0.0291479 0.0735891 ) 62
( 0.042678 0.0732157 0.0810322 ) 79
( 0.0510345 0.0371126 0.081449 ) 61
( 0.109136 0.0703029 0.0756867 ) 72
( 0.229109 0.0402657 0.0658481 ) 41
( 0.0226442 0.0734102 0.090144 ) 78
( 0.169658 0.0309542 0.0794993 ) 66
( 0.0296856 0.0433656 0.0787564 ) 70
( 0.1104 0.0369886 0.0901087 ) 63
( 0.201933 0.057833 0.0861004 ) 76
( 0.235815 0.0628035 0.0608969 ) 50
( 0.0765107 0.0738877 0.0901965 ) 80
( 0.164982 0.0149703 0.0903528 ) 65
( 0.198314 0.0771683 0.0846251 ) 85
( 0.00973965 0.0260359 0.0818207 ) 60
( 0.227582 0.0905302 0.0760217 ) 86
( 0.183194 0.0647912 0.0815363 ) 75
( 0.147835 0.0528412 0.087758 ) 74
( 0.233921 0.0546754 0.0785546 ) 77
( 0.0516841 0.0903161 0.0751632 ) 79
( 0.130595 0.0671954 0.0901279 ) 73
( 0.0602748 0.0611946 0.0902423 ) 71
( 0.233265 0.0280012 0.0808302 ) 68
( 0.0711423 0.0904651 0.0804992 ) 80
( 0.140576 0.0900595 0.0901032 ) 83
( 0.0100381 0.0900248 0.0901331 ) 78
( 0.135387 0.028985 0.0858643 ) 64
( 0.201311 0.0204011 0.0799026 ) 67
( 0.180623 0.0438396 0.0906855 ) 75
( 0.177897 0.0902343 0.0728874 ) 84
( 0.201313 0.0386401 0.0904714 ) 67
( 0.0746167 0.0470331 0.0903459 ) 71
( 0.14983 0.0724684 0.090266 ) 83
( 0.0399136 0.0558611 0.0902352 ) 70
( 0.115042 0.0813847 0.0905282 ) 82
( 0.223874 0.0667759 0.090322 ) 77
( 0.111398 0.0573577 0.0903322 ) 73
( 0.0373814 0.0900367 0.0901445 ) 79
( 0.0359574 0.0284892 0.0904085 ) 61
( 0.185327 0.0242108 0.0904856 ) 66
( 0.211951 0.0901916 0.0902824 ) 85
( 0.153909 0.0342636 0.0908863 ) 65
( 0.118148 0.0186478 0.0905959 ) 64
( 0.24989 0.0705501 0.0908209 ) 77
( 0.160616 0.0901322 0.0905241 ) 83
( 0.128817 0.0472893 0.0901178 ) 73
( 0.0662306 0.028322 0.0903275 ) 62
( 0.243147 0.0900367 0.0901487 ) 86
( 0.221408 0.0406324 0.0904469 ) 67
( 0.217825 0.0208398 0.0908018 ) 67
( 0.166679 0.0585894 0.0902446 ) 75
( 0.0138264 0.0429232 0.090736 ) 69
( 0.0578015 0.0808348 0.0908213 ) 80
( 0.0882008 0.0902198 0.0902851 ) 81
( 0.180197 0.0821836 0.0905617 ) 84
( 0.0971549 0.0726899 0.090668 ) 81
)
