/*--------------------------------*- C++ -*----------------------------------*\
  =========                 |
  \\      /  F ield         | OpenFOAM: The Open Source CFD Toolbox
   \\    /   O peration     | Website:  https://openfoam.org
    \\  /    A nd           | Version:  4.x
     \\/     M anipulation  |
\*---------------------------------------------------------------------------*/
FoamFile
{
    version     2.0;
    format      ascii;
    class       Cloud<passiveParticle>;
    location    0;
    object      positions;
}
// * * * * * * * * * * * * * * * * * * * * * * * * * * * * * * * * * * * * * //

325
(
( 0.0388653 -0.081182 0.0295064 ) 1
( 0.0913108 -0.07336 0.0223473 ) 3
( 0.244276 -0.0297088 0.0296453 ) 26
( 0.104058 -0.0622527 0.0322831 ) 12
( 0.121274 -0.0409381 0.0239766 ) 22
( 0.0693549 -0.0265409 0.0234482 ) 20
( 0.0144378 -0.0313828 0.0342942 ) 18
( 0.00978935 -0.0204788 0.0185371 ) 18
( 0.229642 -0.0151768 0.0288032 ) 26
( 0.0184081 -0.06241 0.0159926 ) 9
( 0.241525 -0.00397321 0.0176458 ) 35
( 0.204862 -0.0421471 0.0146941 ) 25
( 0.17973 -0.0292834 0.0209614 ) 24
( 0.247278 -0.0512869 0.0183785 ) 17
( 0.238986 -0.0713451 0.0254767 ) 17
( 0.126464 -0.0523445 0.0392991 ) 13
( 0.118015 -0.074428 0.0484092 ) 40
( 0.0664884 -0.0449498 0.0295883 ) 11
( 0.0817362 -0.0414127 0.0178229 ) 20
( 0.138697 -0.00767205 0.0335507 ) 31
( 0.122615 -0.0693887 0.0297648 ) 13
( 0.169718 -0.0153847 0.0308701 ) 24
( 0.210712 -0.00892193 0.0297704 ) 34
( 0.124063 -0.0216169 0.0208629 ) 22
( 0.0608565 -0.0900887 0.0331749 ) 2
( 0.202086 -0.0201946 0.0159759 ) 25
( 0.0345588 -0.0220885 0.016238 ) 19
( 0.231814 -0.0461801 0.0298137 ) 17
( 0.0976438 -0.0115417 0.0332087 ) 30
( 0.197745 -0.0680317 0.0276024 ) 16
( 0.124112 -0.0284559 0.0393296 ) 22
( 0.0770887 -0.00603496 0.0280485 ) 29
( 0.193407 -0.0835751 0.0163932 ) 6
( 0.0536614 -0.030696 0.0347764 ) 19
( 0.0763971 -0.0602128 0.021444 ) 11
( 0.0506452 -0.0900272 0.016089 ) 1
( 0.0599195 -0.0673918 0.0300387 ) 11
( 0.153258 -0.0453032 0.0287506 ) 14
( 0.136558 -0.0531311 0.0221853 ) 13
( 0.180714 -0.0681621 0.0174754 ) 15
( 0.0315784 -0.062152 0.0306695 ) 10
( 0.048498 -0.0108279 0.0249381 ) 28
( 0.0293311 -0.0417762 0.0234994 ) 19
( 0.0874946 -0.0203871 0.0188337 ) 21
( 0.13949 -0.0768764 0.0224012 ) 5
( 0.184202 -0.0540453 0.0308583 ) 15
( 0.140915 -0.0319099 0.0211053 ) 23
( 0.113523 -0.0820342 0.0173023 ) 4
( 0.15754 -0.0838241 0.0270977 ) 5
( 0.0887083 -0.0435225 0.0384708 ) 12
( 0.0678382 -0.0791267 0.0163414 ) 2
( 0.106237 -0.0144843 0.015626 ) 21
( 0.15112 -0.0227797 0.0355376 ) 23
( 0.189407 -0.00732049 0.0363665 ) 33
( 0.212094 -0.0901749 0.0161803 ) 7
( 0.0962796 -0.0548571 0.015636 ) 12
( 0.135792 -0.00516587 0.0144165 ) 31
( 0.00979343 -0.0747444 0.0283303 ) 0
( 0.184903 -0.0101206 0.0172385 ) 33
( 0.00973833 -0.0568981 0.0369948 ) 9
( 0.081508 -0.0225744 0.0382677 ) 20
( 0.103565 -0.0901044 0.0325706 ) 3
( 0.0284142 -0.0173947 0.0353789 ) 19
( 0.196499 -0.0316667 0.0310739 ) 25
( 0.0475265 -0.0369728 0.0172577 ) 19
( 0.216583 -0.0774635 0.030737 ) 7
( 0.216803 -0.0301049 0.0251232 ) 25
( 0.164462 -0.0591068 0.0369849 ) 14
( 0.225497 -0.0573507 0.0148165 ) 17
( 0.0840414 -0.0627825 0.0393428 ) 12
( 0.0477752 -0.0508656 0.0310775 ) 10
( 0.118793 -0.00367618 0.0266913 ) 31
( 0.176008 -0.0902567 0.0229681 ) 6
( 0.10871 -0.0441673 0.0386485 ) 12
( 0.0584711 -2.20491e-06 0.0382949 ) 29
( 0.153925 -0.0122323 0.0193576 ) 32
( 0.249269 -0.0872316 0.0176671 ) 8
( 0.22823 0.00821737 0.0256251 ) 35
( 0.065943 0.0126432 0.0236103 ) 29
( 0.188672 0.0101694 0.0260738 ) 33
( 0.0921132 0.00913893 0.029611 ) 30
( 0.203812 0.0019274 0.0461288 ) 70
( 0.149411 0.0063439 0.0242942 ) 32
( 0.208588 0.0102941 0.0273552 ) 34
( 0.170288 0.00446812 0.0314488 ) 33
( 0.0353135 0.00431024 0.0404954 ) 28
( 0.21184 -0.0541203 0.0288393 ) 16
( 0.0194382 -0.0902701 0.0354992 ) 0
( 0.0993271 -0.0353904 0.0239349 ) 21
( 0.230544 -0.0903331 0.0233085 ) 8
( 0.0283229 -0.0901056 0.0153124 ) 1
( 0.0799588 -0.0877572 0.0289783 ) 2
( 0.15858 -0.065563 0.0194678 ) 14
( 0.00959815 -0.000938635 0.0156815 ) 27
( 0.00991057 -0.0453009 0.0211996 ) 9
( 0.115967 -0.057906 0.0149124 ) 13
( 0.0257863 -0.0467261 0.0422949 ) 9
( 0.0289022 -0.00366842 0.021336 ) 28
( 0.221468 0.0104193 0.0440921 ) 70
( 0.131665 -0.0558601 0.0577889 ) 49
( 0.140707 -0.0729245 0.0543249 ) 41
( 0.168724 -0.0901482 0.0422328 ) 6
( 0.154747 -0.00709123 0.0546055 ) 68
( 0.0334878 -0.0272336 0.0518906 ) 55
( 0.127604 -0.0900617 0.0562852 ) 40
( 0.0426113 -0.0769884 0.0597573 ) 37
( 0.167507 -0.0420943 0.0591628 ) 60
( 0.125854 -0.00919533 0.0692116 ) 67
( 0.230587 -0.0234944 0.0596117 ) 62
( 0.0466414 -0.0574607 0.0615783 ) 46
( 0.116036 -0.0443551 0.0603935 ) 49
( 0.0859164 -0.0775284 0.062155 ) 39
( 0.242442 -0.0904386 0.0561128 ) 44
( 0.210214 -0.0331396 0.0605846 ) 61
( 0.246299 -0.0571018 0.0544581 ) 53
( 0.0741985 0.000230055 0.0625805 ) 65
( 0.0648588 -0.038067 0.0655936 ) 56
( 0.203261 -0.0901139 0.0601541 ) 43
( 0.00989605 -0.0828578 0.0715179 ) 72
( 0.168248 0.0100077 0.058147 ) 69
( 0.0718746 -0.0639084 0.0605039 ) 47
( 0.186776 -0.0730468 0.0627502 ) 42
( 0.234154 -0.0727678 0.0540609 ) 44
( 0.148226 -0.0904971 0.057523 ) 41
( 0.0900652 -0.0188638 0.0612364 ) 57
( 0.22939 -0.0473599 0.0515338 ) 53
( 0.209083 0.00975984 0.0654765 ) 70
( 0.175511 -0.00697448 0.0677173 ) 69
( 0.00967696 -0.0104049 0.0627316 ) 63
( 0.0663455 -0.0173369 0.0680587 ) 56
( 0.0269929 -0.0604951 0.0716195 ) 81
( 0.19475 -0.0145119 0.0547651 ) 61
( 0.149581 -0.0370884 0.066392 ) 59
( 0.0639188 -0.0902106 0.0565853 ) 38
( 0.16626 -0.0655521 0.062104 ) 50
( 0.188389 -0.0334767 0.0595449 ) 60
( 0.104887 -0.0726518 0.0653857 ) 39
( 0.223106 -0.0906662 0.0613682 ) 44
( 0.249321 -0.00224041 0.0534615 ) 71
( 0.115353 -0.0247639 0.0589253 ) 58
( 0.0308584 0.00970624 0.0591165 ) 64
( 0.19075 0.00379463 0.0612127 ) 69
( 0.0881449 0.0130165 0.0685868 ) 66
( 0.0877223 -0.0529096 0.0558643 ) 48
( 0.102148 -0.00180877 0.0563459 ) 66
( 0.118646 0.00796603 0.061277 ) 67
( 0.210904 -0.0568304 0.050582 ) 52
( 0.0168541 -0.0267497 0.0715616 ) 90
( 0.0296042 -0.0851887 0.0724964 ) 73
( 0.02663 -0.00861785 0.052944 ) 63
( 0.107641 -0.0899695 0.0555019 ) 39
( 0.151003 -0.0560697 0.0553019 ) 50
( 0.204518 -0.0900423 0.0403306 ) 7
( 0.214875 -0.0757314 0.0525754 ) 43
( 0.142103 -0.0876325 0.0389754 ) 5
( 0.062974 -0.0213871 0.0492872 ) 56
( 0.0754991 0.00958105 0.040326 ) 29
( 0.00963168 -0.0454721 0.0630855 ) 45
( 0.099431 -0.0309745 0.0493471 ) 57
( 0.182357 -0.0245156 0.0430338 ) 60
( 0.125268 -0.0733416 0.0668462 ) 40
( 0.0628344 -0.0553653 0.0455859 ) 47
( 0.0466815 -0.0304121 0.0679598 ) 55
( 0.22761 -0.0893464 0.0425466 ) 8
( 0.070176 -0.0756661 0.0447272 ) 38
( 0.193684 -0.0476583 0.0469637 ) 51
( 0.0179601 -0.061183 0.0543724 ) 45
( 0.215623 -0.00747218 0.0592523 ) 70
( 0.159078 -0.0198305 0.0690829 ) 59
( 0.134328 -0.0120394 0.051968 ) 67
( 0.210901 -0.0395391 0.0419205 ) 25
( 0.0853624 -0.00566208 0.0474111 ) 66
( 0.133616 -0.0314883 0.0562994 ) 58
( 0.106015 -0.0588977 0.0515105 ) 48
( 0.150903 -0.0736378 0.0714386 ) 77
( 0.0456277 -0.0902922 0.0457085 ) 37
( 0.228338 -0.030462 0.0412861 ) 26
( 0.0826477 -0.0905417 0.0479409 ) 38
( 0.17759 -0.0901449 0.0599496 ) 42
( 0.226362 -0.0625284 0.0393115 ) 17
( 0.143485 -0.0623324 0.0380361 ) 14
( 0.164014 -0.0245629 0.0504353 ) 59
( 0.136361 0.00760597 0.0511307 ) 67
( 0.179744 -0.0614252 0.0486998 ) 51
( 0.080301 -0.0345372 0.0539679 ) 56
( 0.0102566 0.00459641 0.0491909 ) 63
( 0.0556938 -0.00394922 0.0578472 ) 65
( 0.181448 -0.0761651 0.0356982 ) 6
( 0.0460175 -0.0656431 0.0438013 ) 46
( 0.0443515 -0.0687998 0.0774203 ) 82
( 0.0219526 -0.090472 0.0552401 ) 36
( 0.00982776 -0.0130993 0.0404112 ) 27
( 0.123418 -0.0899812 0.0327243 ) 4
( 0.231357 -0.00782191 0.0472102 ) 71
( 0.231073 -0.00848799 0.0722968 ) 107
( 0.114171 -0.0119381 0.0440673 ) 67
( 0.116845 -0.0901244 0.0731116 ) 76
( 0.145198 -0.00477354 0.071585 ) 104
( 0.211643 -0.0205393 0.0454074 ) 61
( 0.0289078 -0.0750311 0.0454701 ) 37
( 0.0455355 -0.013722 0.0441528 ) 64
( 0.106729 -0.0129081 0.0716016 ) 102
( 0.182877 0.0119495 0.0448964 ) 69
( 0.00984221 -0.028362 0.0531799 ) 54
( 0.172382 -0.0412927 0.0401534 ) 24
( 0.246551 -0.0901668 0.0368626 ) 8
( 0.0616059 -0.0554409 0.0746576 ) 83
( 0.0805074 -0.0483713 0.0734421 ) 83
( 0.197147 -0.0705666 0.0466791 ) 52
( 0.226241 -0.0404613 0.0695373 ) 62
( 0.0490596 -0.0901677 0.079119 ) 73
( 0.204211 -0.0738802 0.0716131 ) 79
( 0.173443 -0.00619469 0.0480237 ) 69
( 0.249698 -0.0737717 0.0658889 ) 44
( 0.0290936 -0.0437574 0.0614039 ) 46
( 0.247853 -0.041672 0.0727562 ) 98
( 0.00944118 -0.0774415 0.0476199 ) 36
( 0.0401993 -0.0115379 0.0671246 ) 64
( 0.181871 -0.0238877 0.075727 ) 96
( 0.0981721 -0.0348643 0.0700648 ) 57
( 0.0868784 -0.0665386 0.0783747 ) 84
( 0.117029 0.00827531 0.0420527 ) 31
( 0.156556 -0.0547988 0.0757323 ) 86
( 0.216939 -0.0590394 0.0692265 ) 52
( 0.0806805 -0.027821 0.0760972 ) 92
( 0.236336 -0.0591497 0.0713339 ) 53
( 0.0968184 -0.0766573 0.0454945 ) 39
( 0.149289 -0.038628 0.0467844 ) 59
( 0.0505158 -0.0408195 0.0514978 ) 55
( 0.155918 0.0141624 0.0729643 ) 104
( 0.131715 -0.0428103 0.0723609 ) 94
( 0.0409004 0.00853864 0.0760575 ) 100
( 0.0925194 0.013827 0.0493048 ) 66
( 0.141218 -0.090137 0.0766781 ) 77
( 0.198308 -0.0534233 0.0656165 ) 52
( 0.154697 0.00876441 0.0430452 ) 68
( 0.198525 -0.0347485 0.076284 ) 97
( 0.0756878 -0.0900931 0.075104 ) 74
( 0.221849 -0.0803379 0.0776308 ) 79
( 0.193174 0.00257218 0.0814073 ) 105
( 0.120815 -0.0259007 0.0778366 ) 94
( 0.0146863 -0.0711935 0.0874252 ) 81
( 0.202347 -0.0128057 0.0729506 ) 106
( 0.174818 -0.0722198 0.0778312 ) 78
( 0.0234486 -0.00782709 0.0766419 ) 99
( 0.0663383 -0.037921 0.085278 ) 92
( 0.109693 -0.0723601 0.0843091 ) 75
( 0.181186 -0.0476444 0.073648 ) 87
( 0.0657128 -0.00208299 0.0804982 ) 101
( 0.194462 -0.0899198 0.0779736 ) 79
( 0.0402398 -0.0468207 0.0769057 ) 82
( 0.00977654 0.00628714 0.0807322 ) 99
( 0.00990988 -0.0523549 0.083145 ) 81
( 0.163134 -0.00315749 0.0825717 ) 104
( 0.224547 0.009307 0.0771493 ) 107
( 0.131106 0.00828167 0.0762906 ) 103
( 0.136784 -0.0612345 0.0774219 ) 85
( 0.142932 -0.0274955 0.0823686 ) 95
( 0.0613346 -0.0768723 0.0709362 ) 38
( 0.0775667 0.0130205 0.0852922 ) 101
( 0.161721 -0.0902543 0.0716923 ) 77
( 0.248007 -0.032116 0.0562304 ) 62
( 0.160089 -0.0681511 0.0901982 ) 86
( 0.0969914 -0.0902211 0.072279 ) 75
( 0.245112 -0.0902174 0.075597 ) 80
( 0.0580378 -0.0763637 0.0903075 ) 74
( 0.231457 -0.0176778 0.0901215 ) 98
( 0.106218 -0.0305965 0.0902684 ) 93
( 0.0358429 -0.0808208 0.0905003 ) 73
( 0.0733115 -0.0556734 0.0904253 ) 83
( 0.24255 0.00728064 0.0698215 ) 71
( 0.228975 -0.067242 0.090341 ) 89
( 0.0858089 -0.040287 0.0904388 ) 93
( 0.0327796 -0.0245624 0.0829864 ) 91
( 0.208717 -0.0703454 0.0903587 ) 88
( 0.111888 0.00443615 0.0790197 ) 103
( 0.22539 -0.0481958 0.0875015 ) 89
( 0.165482 -0.0363628 0.0777839 ) 95
( 0.126677 -0.0900267 0.090242 ) 76
( 0.0881104 -0.00556901 0.0752613 ) 102
( 0.111342 -0.0463449 0.0793688 ) 85
( 0.026909 0.0101799 0.0901037 ) 99
( 0.184997 -0.0368263 0.0903603 ) 96
( 0.126963 -0.0053075 0.0901386 ) 103
( 0.206153 -0.0516742 0.08404 ) 88
( 0.0521059 -0.0173453 0.0818037 ) 91
( 0.126478 -0.0392824 0.0906756 ) 94
( 0.0542087 0.0104368 0.0904375 ) 100
( 0.00984422 -0.0304823 0.0897085 ) 90
( 0.218848 -0.0233155 0.0757492 ) 97
( 0.210208 -0.0901438 0.0901872 ) 79
( 0.0315447 -0.0613868 0.0905226 ) 82
( 0.146323 -0.00981071 0.090478 ) 104
( 0.18813 -0.0564823 0.0901023 ) 87
( 0.146596 -0.045479 0.0901538 ) 86
( 0.248563 -0.057283 0.0865038 ) 89
( 0.176036 -0.0904646 0.0850785 ) 78
( 0.180576 -0.0097384 0.0901325 ) 105
( 0.143813 0.0116466 0.0905232 ) 104
( 0.050602 -0.0559476 0.0907211 ) 82
( 0.14175 -0.0755241 0.0902306 ) 77
( 0.094625 0.00435695 0.0905904 ) 102
( 0.0860911 -0.0824524 0.0901853 ) 75
( 0.122312 -0.0585917 0.0904253 ) 85
( 0.107826 -0.0106151 0.0907073 ) 102
( 0.247222 -0.0768443 0.0901322 ) 80
( 0.232589 -0.0900652 0.0906494 ) 80
( 0.0699266 -0.0188998 0.0902456 ) 92
( 0.169352 -0.0505379 0.0904913 ) 87
( 0.0256746 -0.0424096 0.0901431 ) 90
( 0.00986967 -0.010659 0.0904692 ) 99
( 0.098105 -0.0558171 0.0903703 ) 84
( 0.155693 -0.0897811 0.090339 ) 77
( 0.104514 -0.0902021 0.090442 ) 75
( 0.0378223 -0.00679238 0.0903064 ) 100
( 0.216741 -0.00347235 0.0901619 ) 106
( 0.0898058 -0.0181309 0.0904705 ) 93
( 0.187908 -0.0761571 0.0909543 ) 78
( 0.212046 -0.0340405 0.0905504 ) 97
( 0.0476188 -0.0351604 0.0905993 ) 91
( 0.00984552 -0.0901543 0.0900716 ) 72
( 0.242486 -0.0392095 0.0908711 ) 98
( 0.241529 0.0125756 0.0902518 ) 107
( 0.197174 -0.0208304 0.0902961 ) 97
( 0.164683 -0.0214137 0.0903794 ) 95
)
