/*--------------------------------*- C++ -*----------------------------------*\
  =========                 |
  \\      /  F ield         | OpenFOAM: The Open Source CFD Toolbox
   \\    /   O peration     | Website:  https://openfoam.org
    \\  /    A nd           | Version:  4.x
     \\/     M anipulation  |
\*---------------------------------------------------------------------------*/
FoamFile
{
    version     2.0;
    format      ascii;
    class       vectorField;
    location    0;
    object      v;
}
// * * * * * * * * * * * * * * * * * * * * * * * * * * * * * * * * * * * * * //

325
(
( -9.24196e-08 -4.7473e-08 1.29015e-07 )  
( -1.08982e-06 -4.9068e-08 1.15225e-07 )  
( -7.6698e-06 -4.84185e-07 -5.61046e-07 )  
( -1.49868e-06 1.11247e-07 1.29066e-07 )  
( -2.70635e-06 -5.44508e-08 5.43458e-07 )  
( -1.06386e-06 1.40751e-07 2.36705e-07 )  
( 3.95762e-08 3.06805e-08 2.64255e-08 )  
( 7.8041e-09 6.24302e-08 5.3939e-08 )  
( -7.82363e-06 -3.16216e-07 -6.36784e-07 )  
( 1.27828e-08 -8.36824e-08 6.8212e-08 )  
( -8.20587e-06 3.81155e-08 -3.36533e-07 )  
( -6.16103e-06 -5.94453e-09 -9.26974e-08 )  
( -5.89208e-06 -2.65324e-07 2.23441e-07 )  
( -7.48526e-06 -3.21732e-07 -2.43852e-07 )  
( -4.56111e-06 -1.32719e-06 -7.75027e-07 )  
( -2.50357e-06 -2.54816e-07 4.01118e-07 )  
( -1.4759e-06 -1.24098e-07 1.14467e-07 )  
( -7.60064e-07 9.13913e-08 2.69183e-07 )  
( -1.28329e-06 2.16012e-07 1.53572e-07 )  
( -5.26241e-06 -5.13786e-07 4.3437e-09 )  
( -1.90758e-06 3.23049e-08 1.15633e-07 )  
( -5.4295e-06 -2.76068e-07 1.09831e-07 )  
( -7.78419e-06 -7.08264e-07 -1.72496e-08 )  
( -3.07453e-06 -1.39539e-07 2.06423e-07 )  
( -1.15257e-07 -1.19976e-07 1.4302e-07 )  
( -7.35093e-06 -6.61672e-07 -9.28534e-08 )  
( -3.99641e-07 3.2609e-08 1.66068e-07 )  
( -6.58608e-06 -2.01764e-07 -2.62193e-07 )  
( -1.85985e-06 2.48131e-07 4.21389e-07 )  
( -4.34155e-06 1.16612e-07 2.96719e-07 )  
( -2.24898e-06 1.69143e-07 3.29349e-07 )  
( -1.1857e-06 3.2151e-07 3.48166e-07 )  
( -2.72025e-06 1.30299e-07 4.70872e-07 )  
( -6.91226e-07 9.14345e-08 3.40184e-07 )  
( -9.57978e-07 4.47197e-08 2.81823e-07 )  
( -1.81201e-09 4.11547e-08 1.00399e-07 )  
( -3.93847e-07 8.74935e-08 1.47755e-07 )  
( -3.68452e-06 -8.40851e-07 -7.89935e-08 )  
( -3.44614e-06 -5.28915e-07 3.94162e-07 )  
( -5.02545e-06 -4.374e-07 8.4702e-07 )  
( -1.97795e-07 -1.18477e-07 1.20366e-07 )  
( -5.72984e-07 6.01914e-08 2.21482e-07 )  
( -1.89735e-07 -4.30206e-09 1.34489e-07 )  
( -1.71071e-06 2.58575e-07 4.25285e-07 )  
( -1.86878e-06 1.37873e-07 4.23501e-07 )  
( -4.7875e-06 -6.28601e-07 4.46275e-07 )  
( -4.08243e-06 -8.98239e-07 -2.40754e-08 )  
( -1.46492e-06 -9.60051e-08 -9.96771e-08 )  
( -2.28083e-06 -6.45669e-07 3.26888e-07 )  
( -1.51922e-06 1.70274e-07 3.55963e-07 )  
( -1.84868e-07 -7.74417e-09 1.43914e-07 )  
( -2.40683e-06 2.68835e-07 5.45333e-07 )  
( -4.78695e-06 -4.38691e-07 1.07786e-07 )  
( -5.93526e-06 -1.31469e-07 -4.8623e-07 )  
( -2.10206e-06 -4.95971e-07 6.66533e-07 )  
( -1.48842e-06 1.11886e-07 -7.8948e-08 )  
( -5.0924e-06 -3.56419e-07 1.56002e-07 )  
( 4.58517e-08 -1.48684e-08 5.32224e-08 )  
( -6.73867e-06 -1.36719e-07 -2.05891e-07 )  
( 4.21743e-08 -2.07877e-08 7.84775e-08 )  
( -1.27131e-06 2.62396e-07 3.44522e-07 )  
( -9.69444e-07 -1.08987e-07 4.04606e-09 )  
( -2.93403e-08 1.28666e-09 1.15506e-07 )  
( -6.05524e-06 -7.99488e-07 3.00273e-07 )  
( -4.82808e-07 5.66667e-08 3.0302e-07 )  
( -4.60814e-06 -2.31264e-08 2.42012e-07 )  
( -6.85035e-06 2.82613e-08 -1.72052e-07 )  
( -3.50258e-06 -7.94612e-07 -1.02434e-07 )  
( -6.44258e-06 -7.61063e-08 -2.27822e-07 )  
( -7.65639e-07 7.57219e-08 2.41349e-07 )  
( -4.757e-07 4.73805e-08 3.36271e-07 )  
( -1.95953e-06 2.09388e-07 1.91983e-07 )  
( -2.14879e-06 -1.61173e-07 2.18931e-07 )  
( -2.13462e-06 -4.46896e-09 4.80787e-07 )  
( -7.08411e-07 2.72358e-07 1.26119e-07 )  
( -5.5152e-06 -4.48662e-07 2.2095e-07 )  
( -3.09865e-06 4.17383e-07 -3.69506e-07 )  
( -7.49897e-06 -1.62897e-07 -7.21643e-08 )  
( -7.8807e-07 2.1329e-07 2.18133e-07 )  
( -6.28128e-06 -5.94995e-08 1.39968e-07 )  
( -1.58977e-06 2.76687e-07 2.57874e-07 )  
( -6.24307e-06 -5.68157e-07 1.88957e-07 )  
( -5.33564e-06 -5.27078e-07 1.991e-07 )  
( -7.04605e-06 -5.72668e-07 1.47937e-07 )  
( -5.4716e-06 -4.02343e-07 8.20456e-08 )  
( -2.49627e-07 8.92376e-08 6.08157e-08 )  
( -5.45677e-06 2.15353e-07 3.85799e-08 )  
( 6.29193e-08 -3.07022e-09 5.01689e-08 )  
( -1.88526e-06 3.31071e-07 5.78177e-07 )  
( -2.1848e-06 3.30964e-07 -1.24832e-08 )  
( 2.33237e-09 -2.36135e-08 8.44545e-08 )  
( -4.13031e-07 -6.48242e-08 2.53065e-07 )  
( -3.02056e-06 -5.08286e-07 -4.11085e-07 )  
( -3.82369e-08 6.56928e-08 7.41037e-08 )  
( 4.37653e-08 -2.52756e-09 5.87289e-08 )  
( -1.73648e-06 1.57931e-09 1.51219e-07 )  
( 2.53159e-08 1.79365e-08 1.26512e-07 )  
( -5.91859e-08 1.08636e-07 1.82332e-07 )  
( -6.15594e-06 -9.82109e-07 6.13245e-07 )  
( -2.09079e-06 -2.83745e-07 1.47695e-07 )  
( -1.87885e-06 -3.63182e-07 4.81387e-07 )  
( -1.75304e-06 -2.7407e-07 3.73919e-07 )  
( -4.37496e-06 -2.57991e-07 1.69761e-07 )  
( -3.59212e-08 -2.2142e-08 1.83489e-07 )  
( -7.14169e-07 1.72257e-07 6.86899e-08 )  
( -2.70133e-08 -6.54855e-08 1.16239e-07 )  
( -3.4544e-06 -1.46009e-07 3.34901e-07 )  
( -1.67504e-06 1.0401e-07 7.4215e-07 )  
( -5.68195e-06 -2.7072e-07 -2.2719e-07 )  
( -1.91693e-07 -2.72373e-08 1.75849e-07 )  
( -1.68564e-06 -2.58659e-08 1.86135e-07 )  
( -5.73093e-07 -4.78572e-08 2.03436e-07 )  
( -1.87626e-06 -5.30579e-07 -2.25687e-07 )  
( -4.64342e-06 -5.22726e-07 3.76404e-07 )  
( -4.92566e-06 9.31512e-08 9.18329e-08 )  
( -7.75151e-07 2.08659e-07 3.88343e-07 )  
( -4.66604e-07 3.08226e-08 3.48512e-07 )  
( -1.50513e-06 -6.31452e-07 2.32874e-07 )  
( 8.53546e-08 -2.99388e-08 2.0319e-08 )  
( -4.36079e-06 -1.2933e-06 1.03247e-06 )  
( -4.84322e-07 -7.78432e-09 1.40942e-07 )  
( -2.45201e-06 -1.89669e-07 2.21204e-07 )  
( -3.80709e-06 -5.12391e-07 -2.63532e-07 )  
( -8.78211e-07 -8.42608e-08 3.41585e-07 )  
( -1.01438e-06 2.93553e-07 1.1484e-07 )  
( -5.24335e-06 -3.38303e-07 -1.61629e-07 )  
( -4.83933e-06 -2.90193e-07 -2.9132e-07 )  
( -3.78339e-06 -6.27656e-07 -1.25956e-07 )  
( 2.28005e-09 6.41334e-08 4.51911e-08 )  
( -3.53516e-07 -2.96919e-08 1.85049e-07 )  
( 6.96027e-08 -9.0501e-08 7.11165e-08 )  
( -4.80552e-06 -6.8185e-07 -7.03559e-08 )  
( -2.4414e-06 -1.95737e-07 4.28903e-07 )  
( -2.08898e-07 -4.59693e-08 1.00389e-07 )  
( -2.31485e-06 -3.84908e-07 5.69325e-07 )  
( -4.32191e-06 -2.10239e-07 2.0582e-07 )  
( -8.04613e-07 1.06599e-07 2.96465e-07 )  
( -1.63305e-06 2.68109e-07 -1.6839e-07 )  
( -7.06787e-06 -2.42009e-07 -2.03701e-06 )  
( -1.70848e-06 1.30746e-07 2.7006e-07 )  
( 1.33855e-07 7.66691e-08 4.66183e-08 )  
( -4.53964e-06 -5.8511e-07 -9.53317e-08 )  
( -1.02539e-06 1.33439e-07 3.43965e-07 )  
( -1.06783e-06 5.50598e-08 2.76159e-07 )  
( -1.58833e-06 1.63515e-07 4.03298e-07 )  
( -1.70621e-06 -8.21624e-08 3.83726e-07 )  
( -3.93685e-06 -5.281e-07 -9.35262e-08 )  
( 1.17245e-07 6.11049e-08 -1.86574e-08 )  
( 4.71512e-08 -7.64909e-08 7.33565e-08 )  
( -2.01272e-08 1.39552e-08 1.29517e-07 )  
( -8.11395e-07 -2.44999e-07 1.39206e-07 )  
( -2.25817e-06 -3.70136e-07 3.26386e-07 )  
( -4.08302e-06 -1.42187e-07 2.48612e-07 )  
( -3.39397e-06 -6.21263e-07 -2.39137e-07 )  
( -1.76167e-06 2.17546e-07 7.06528e-07 )  
( -3.34917e-07 -2.23179e-08 1.99037e-07 )  
( -1.12755e-06 3.11256e-07 3.49531e-07 )  
( 4.0814e-08 -8.11378e-09 1.91276e-08 )  
( -1.54618e-06 1.972e-07 2.00136e-07 )  
( -5.26208e-06 -2.67139e-07 1.12961e-07 )  
( -1.32155e-06 -1.07968e-07 2.47978e-07 )  
( -4.8421e-07 4.81454e-08 2.57852e-07 )  
( -3.12488e-07 -6.81497e-08 3.36089e-07 )  
( -1.97245e-06 7.6775e-08 -5.9777e-08 )  
( -5.12791e-07 -5.8089e-08 1.23483e-07 )  
( -4.45538e-06 -3.90579e-07 1.86219e-07 )  
( 3.53116e-08 -6.74541e-08 9.21331e-08 )  
( -5.8428e-06 -3.69172e-07 -6.53232e-07 )  
( -3.4643e-06 -8.70035e-08 1.99265e-07 )  
( -2.90088e-06 7.5363e-09 3.6856e-07 )  
( -5.40745e-06 -3.5521e-07 2.39138e-07 )  
( -1.40134e-06 3.08415e-07 3.68584e-07 )  
( -2.10414e-06 -1.03774e-07 2.85393e-07 )  
( -1.58519e-06 -3.03672e-08 2.29455e-07 )  
( -1.51104e-06 -1.9029e-07 4.95069e-07 )  
( -3.52879e-08 -3.99791e-08 8.83093e-08 )  
( -6.5032e-06 -1.92363e-07 -3.43082e-07 )  
( -3.70817e-07 -1.26508e-08 1.42911e-07 )  
( -1.32282e-06 8.54374e-08 1.27042e-07 )  
( -4.87657e-06 -2.41472e-07 -8.81865e-08 )  
( -2.76543e-06 -6.36858e-07 9.55609e-08 )  
( -4.69507e-06 -1.31805e-07 1.88194e-07 )  
( -3.07084e-06 1.75477e-07 9.1399e-08 )  
( -3.63138e-06 -3.20691e-07 4.1852e-07 )  
( -1.03652e-06 2.07128e-07 2.97079e-07 )  
( 1.60627e-07 3.92677e-08 2.06644e-08 )  
( -5.00237e-07 1.12844e-07 3.21648e-07 )  
( -3.45955e-06 -2.95443e-07 5.50899e-07 )  
( -2.84707e-07 -3.20667e-09 1.58213e-07 )  
( -1.10071e-08 -5.14858e-08 1.1918e-07 )  
( 7.56778e-09 -6.03134e-08 7.27453e-08 )  
( 4.8707e-08 1.8295e-08 2.5083e-08 )  
( -1.41409e-06 3.13267e-07 4.39749e-07 )  
( -7.11801e-06 5.28764e-08 -1.49347e-06 )  
( -5.05374e-06 -4.45548e-07 -2.25439e-07 )  
( -1.76258e-06 2.21927e-07 3.52306e-07 )  
( -6.12941e-07 -8.6099e-08 1.0944e-07 )  
( -2.33879e-06 1.23841e-07 5.22484e-07 )  
( -6.58711e-06 -5.50136e-07 8.85674e-08 )  
( -8.70854e-08 -9.44968e-08 1.3522e-07 )  
( -2.53593e-07 1.11862e-07 1.83761e-07 )  
( -1.51345e-06 1.30324e-07 3.69064e-07 )  
( -5.417e-06 -4.01767e-07 2.50698e-07 )  
( 7.30046e-08 2.50972e-09 1.60026e-08 )  
( -4.67474e-06 -5.50846e-07 2.89023e-07 )  
( -2.25718e-06 2.8528e-08 -5.03328e-08 )  
( -2.46215e-07 -5.10086e-08 1.70887e-07 )  
( -6.19522e-07 5.26872e-08 2.54565e-07 )  
( -3.47945e-06 -2.06802e-07 1.17189e-07 )  
( -3.75289e-06 -1.52216e-07 -3.54589e-07 )  
( 1.44153e-10 -3.68334e-08 7.77099e-08 )  
( -2.27707e-06 -2.50124e-07 1.25461e-07 )  
( -5.11073e-06 -6.46555e-07 -5.12851e-08 )  
( -4.10189e-06 1.47716e-07 1.04978e-07 )  
( -7.70098e-09 -3.81178e-08 1.50433e-07 )  
( -5.8156e-06 -1.42559e-06 -8.05869e-07 )  
( -1.31318e-09 -3.39074e-08 7.9262e-08 )  
( -2.16471e-07 -9.79795e-08 1.59781e-07 )  
( -3.89933e-06 -4.42103e-07 3.06736e-07 )  
( -9.64515e-07 -2.28812e-07 -4.70238e-08 )  
( -6.73907e-07 -8.6099e-08 2.10765e-07 )  
( -1.88597e-06 -6.7842e-08 4.47934e-07 )  
( -1.9882e-06 4.08532e-07 -1.19023e-08 )  
( -3.30907e-06 2.39934e-07 1.31787e-07 )  
( -3.6958e-07 7.0207e-08 1.46017e-07 )  
( -3.55427e-06 -3.8577e-07 3.49637e-07 )  
( -7.31103e-07 -1.16011e-07 1.3595e-07 )  
( -2.86506e-06 -5.40955e-07 1.00633e-07 )  
( -4.05281e-07 1.80748e-08 3.04189e-07 )  
( -3.64708e-06 -3.98321e-07 9.74186e-07 )  
( -1.90329e-06 -2.33327e-07 2.01892e-08 )  
( -7.69118e-09 6.81552e-08 1.18662e-07 )  
( -1.36825e-06 2.86725e-07 3.49399e-07 )  
( -6.2531e-07 -1.33237e-07 1.38246e-07 )  
( -3.78071e-06 -1.4657e-06 -3.7409e-07 )  
( -4.83023e-06 -3.2148e-07 4.09727e-08 )  
( -3.77493e-06 -3.6781e-07 1.84756e-07 )  
( -9.0366e-08 -6.49764e-08 1.38727e-07 )  
( -1.76193e-06 9.77713e-09 1.00386e-07 )  
( -3.40722e-06 -3.36601e-07 -3.40867e-07 )  
( -1.64392e-06 -5.63381e-08 2.25755e-07 )  
( 1.25583e-07 -1.90592e-08 -1.87423e-08 )  
( -4.37509e-06 -6.54231e-07 -2.21668e-07 )  
( -1.76303e-06 -2.5237e-08 4.51477e-07 )  
( -3.71711e-08 3.73027e-08 9.4034e-08 )  
( -2.22116e-07 -9.67379e-08 1.92988e-07 )  
( -7.75201e-07 1.27344e-07 2.43483e-07 )  
( -3.13165e-06 -9.16662e-07 -5.36859e-08 )  
( -4.7515e-07 -1.75929e-07 2.13407e-07 )  
( -1.46605e-06 -1.71385e-07 3.49794e-07 )  
( -1.65704e-07 -5.09218e-08 1.9661e-07 )  
( 4.5101e-08 9.44777e-09 4.24777e-08 )  
( 1.32448e-07 2.42249e-08 -5.64539e-08 )  
( -2.04256e-06 4.24394e-08 2.34001e-07 )  
( -5.10194e-06 -5.66375e-07 -4.13311e-07 )  
( -1.86798e-06 3.03826e-07 4.65324e-07 )  
( -1.38802e-06 -1.49088e-07 1.20381e-07 )  
( -2.52194e-06 2.86362e-07 2.66515e-07 )  
( -8.22106e-08 -1.02223e-07 1.12603e-07 )  
( -7.05849e-07 -1.89878e-07 2.97756e-07 )  
( -7.94648e-07 -1.94102e-07 2.03445e-07 )  
( -6.61336e-06 -1.03161e-06 -5.56017e-07 )  
( -9.72417e-07 2.54724e-07 2.42972e-07 )  
( -5.09971e-07 -1.87194e-07 1.62866e-07 )  
( -1.71568e-06 6.22318e-08 -3.05826e-07 )  
( 1.90797e-08 -4.21827e-08 6.06355e-08 )  
( -2.81033e-06 -3.22466e-07 -3.23452e-07 )  
( -9.73756e-07 -1.31663e-07 2.5103e-07 )  
( 1.15156e-08 -3.77197e-08 6.36009e-08 )  
( -9.77454e-08 -1.98347e-09 1.23008e-07 )  
( -4.87821e-06 -1.04109e-06 -3.91595e-07 )  
( -1.43315e-06 8.10086e-08 -4.56852e-08 )  
( -1.65826e-07 -3.05578e-09 7.64032e-08 )  
( 2.4132e-08 6.36218e-08 4.26928e-08 )  
( -1.47917e-06 -1.34518e-07 -1.49763e-07 )  
( -1.38723e-06 1.32634e-07 3.48151e-07 )  
( -2.57701e-06 3.34398e-08 1.77832e-07 )  
( -2.18476e-06 1.61871e-07 3.14657e-07 )  
( -2.81414e-07 -1.01725e-07 2.30668e-08 )  
( -5.8536e-07 1.2252e-07 2.17376e-07 )  
( -1.23528e-06 -1.31607e-07 1.03607e-07 )  
( -3.34737e-09 7.29039e-08 1.04071e-08 )  
( -2.11921e-06 -1.74348e-07 4.57927e-07 )  
( -7.59844e-07 3.34995e-07 2.96465e-07 )  
( -2.52362e-06 5.82675e-08 -1.97351e-08 )  
( -2.2139e-07 7.96996e-10 1.66517e-07 )  
( -8.72606e-07 -1.07588e-07 1.39151e-08 )  
( -1.62628e-07 -1.32247e-07 1.82888e-07 )  
( 1.31203e-07 2.81105e-08 -1.63513e-08 )  
( -4.40242e-06 -4.75858e-07 -3.53235e-07 )  
( -8.64242e-07 -8.50071e-08 4.86491e-08 )  
( 3.79594e-08 -4.74833e-08 5.49958e-08 )  
( -9.97889e-07 1.21053e-07 2.17453e-07 )  
( -1.46425e-06 -1.95581e-08 4.89727e-09 )  
( -1.61988e-06 3.01206e-07 8.60512e-08 )  
( -2.79622e-06 -8.70689e-07 4.72469e-07 )  
( -9.66188e-07 -8.33394e-08 3.7617e-07 )  
( -1.34598e-06 -2.1147e-07 4.28469e-07 )  
( -1.25166e-06 8.04798e-07 -5.97797e-08 )  
( -5.2912e-08 2.97603e-09 9.89971e-08 )  
( -7.18539e-07 4.36384e-09 3.09832e-07 )  
( -4.81022e-07 1.60716e-07 9.32023e-08 )  
( -3.34156e-07 -6.87236e-08 1.34206e-07 )  
( -7.75643e-07 8.05234e-08 1.69017e-07 )  
( -5.64162e-07 4.28828e-08 1.67005e-07 )  
( -1.75539e-06 -4.4473e-07 2.87238e-07 )  
( -9.47011e-07 -3.61478e-07 -1.56618e-08 )  
( -1.71325e-07 -5.70368e-08 1.22745e-07 )  
( -1.09778e-06 1.10531e-07 2.28855e-07 )  
( 1.60245e-07 1.81175e-09 6.10749e-09 )  
( 2.55728e-08 2.88139e-08 3.83076e-08 )  
( -5.38577e-07 -1.79351e-07 1.172e-07 )  
( -5.30643e-07 -1.06134e-07 5.6124e-08 )  
( -2.25713e-07 -3.59329e-08 6.7671e-09 )  
( -4.54503e-08 5.50436e-08 8.03704e-08 )  
( -3.62816e-05 1.94306e-05 2.41138e-07 )  
( -2.67388e-07 1.51765e-08 1.57543e-07 )  
( -1.06094e-06 8.57793e-08 -7.51178e-08 )  
( -2.30782e-06 -3.3316e-07 -1.82173e-07 )  
( -1.09398e-07 -4.17379e-08 1.09074e-07 )  
( 5.08881e-08 -1.2124e-08 6.40564e-09 )  
( -2.04786e-06 -4.2515e-07 -1.0225e-07 )  
( -4.45813e-06 -8.37466e-07 1.83812e-07 )  
( -2.09293e-06 -3.08143e-07 2.93304e-07 )  
( -1.11388e-06 7.48244e-08 3.58621e-07 )  
)
