/*--------------------------------*- C++ -*----------------------------------*\
| =========                 |                                                 |
| \\      /  F ield         | OpenFOAM: The Open Source CFD Toolbox           |
|  \\    /   O peration     | Version:  4.x                                   |
|   \\  /    A nd           | Web:      www.OpenFOAM.org                      |
|    \\/     M anipulation  |                                                 |
\*---------------------------------------------------------------------------*/
FoamFile
{
    version     2.0;
    format      ascii;
    class       volVectorField;
    location    "38.5";
    object      impParticleForces;
}
// * * * * * * * * * * * * * * * * * * * * * * * * * * * * * * * * * * * * * //

dimensions      [1 1 -2 0 0 0 0];

internalField   nonuniform List<vector> 
108
(
(0.00249036 2.39877e-05 -4.00961e-05)
(0.00248308 2.82429e-05 -3.30945e-05)
(0.00248344 2.64812e-05 -2.72736e-05)
(0.00247393 2.23801e-05 -2.20449e-05)
(0.00245569 1.74583e-05 -1.86171e-05)
(0.00244007 1.47231e-05 -1.63626e-05)
(0.00240216 1.13123e-05 -2.04091e-05)
(0.00235744 1.22134e-05 -2.62064e-05)
(0.00226938 1.14118e-05 -4.24694e-05)
(0.00248141 1.82507e-05 -4.03373e-05)
(0.00250445 1.99345e-05 -3.37113e-05)
(0.00248099 1.95788e-05 -2.75516e-05)
(0.00247629 1.86905e-05 -2.21289e-05)
(0.00245821 1.8367e-05 -1.85521e-05)
(0.00245457 2.00959e-05 -1.59551e-05)
(0.00239787 2.42203e-05 -2.16155e-05)
(0.00234826 3.09116e-05 -3.12252e-05)
(0.00226137 3.94602e-05 -4.66799e-05)
(0.00247909 1.63255e-05 -4.10567e-05)
(0.0024972 1.63305e-05 -3.47322e-05)
(0.00249047 1.60784e-05 -2.88187e-05)
(0.00250139 1.64348e-05 -2.38705e-05)
(0.0024886 1.88957e-05 -2.0831e-05)
(0.00249729 2.48503e-05 -2.00397e-05)
(0.00243364 3.66318e-05 -2.84441e-05)
(0.00240262 4.79003e-05 -4.37899e-05)
(0.00229649 6.82926e-05 -6.56225e-05)
(0.00241638 1.4263e-05 -4.0396e-05)
(0.00244179 1.34615e-05 -3.46882e-05)
(0.00246344 1.22427e-05 -2.94796e-05)
(0.0024822 1.32441e-05 -2.55964e-05)
(0.0024716 1.62666e-05 -2.36788e-05)
(0.00246335 2.26136e-05 -2.50535e-05)
(0.00240414 3.31733e-05 -3.50155e-05)
(0.00235785 4.79474e-05 -5.52197e-05)
(0.00229416 6.3694e-05 -8.73432e-05)
(0.00249201 2.05989e-05 -3.86492e-05)
(0.0025188 2.4015e-05 -3.17984e-05)
(0.00250068 2.30621e-05 -2.5954e-05)
(0.00251525 2.01221e-05 -2.00079e-05)
(0.00246999 1.66858e-05 -1.58032e-05)
(0.00246949 1.41449e-05 -1.17646e-05)
(0.00241508 1.24679e-05 -1.43355e-05)
(0.00239843 1.13031e-05 -1.63242e-05)
(0.00229805 1.13324e-05 -3.98045e-05)
(0.0024924 1.68302e-05 -3.93533e-05)
(0.00252182 1.82308e-05 -3.24543e-05)
(0.00249434 1.77671e-05 -2.66764e-05)
(0.00250752 1.71513e-05 -2.10314e-05)
(0.00247226 1.70737e-05 -1.71666e-05)
(0.00247832 1.88029e-05 -1.4068e-05)
(0.00242246 2.31908e-05 -1.82387e-05)
(0.00239099 3.03479e-05 -2.54867e-05)
(0.002292 4.30319e-05 -4.50308e-05)
(0.00252296 1.58176e-05 -4.17033e-05)
(0.00254046 1.54538e-05 -3.52577e-05)
(0.00251847 1.48255e-05 -2.95826e-05)
(0.00255645 1.47894e-05 -2.43184e-05)
(0.00251979 1.70389e-05 -2.17629e-05)
(0.00254073 2.18384e-05 -2.01497e-05)
(0.00246828 3.34804e-05 -2.85964e-05)
(0.00244461 4.92733e-05 -4.23899e-05)
(0.00232848 7.5801e-05 -7.17527e-05)
(0.00245762 1.38008e-05 -4.11964e-05)
(0.00248349 1.26227e-05 -3.56115e-05)
(0.00247879 1.13783e-05 -3.0825e-05)
(0.00252135 1.1281e-05 -2.70497e-05)
(0.00250684 1.38211e-05 -2.56501e-05)
(0.00252196 1.89645e-05 -2.5316e-05)
(0.00243993 3.13865e-05 -3.51678e-05)
(0.00242285 4.78688e-05 -5.1751e-05)
(0.00231058 6.81784e-05 -8.80233e-05)
(0.00245005 1.5545e-05 -3.43336e-05)
(0.00248926 1.80267e-05 -2.80915e-05)
(0.00245574 1.78684e-05 -2.23259e-05)
(0.00247756 1.62856e-05 -1.6435e-05)
(0.00243088 1.41963e-05 -1.18119e-05)
(0.00244082 1.27007e-05 -6.63851e-06)
(0.00238349 1.16943e-05 -6.91373e-06)
(0.0023552 1.22941e-05 -7.61811e-06)
(0.00227242 1.08248e-05 -2.28102e-05)
(0.00245169 1.39582e-05 -3.53244e-05)
(0.00247498 1.45781e-05 -2.91347e-05)
(0.00244831 1.44667e-05 -2.39308e-05)
(0.00244501 1.41099e-05 -1.88812e-05)
(0.00241788 1.44554e-05 -1.4948e-05)
(0.00244481 1.68911e-05 -1.11214e-05)
(0.00239013 2.0603e-05 -1.26435e-05)
(0.00237164 2.82623e-05 -1.54116e-05)
(0.00227216 3.76823e-05 -2.99217e-05)
(0.00246118 1.35629e-05 -3.76686e-05)
(0.00249998 1.28247e-05 -3.25846e-05)
(0.0024673 1.21258e-05 -2.76619e-05)
(0.00247623 1.2028e-05 -2.33399e-05)
(0.00245315 1.4098e-05 -2.10411e-05)
(0.00248402 1.83252e-05 -2.00711e-05)
(0.00242925 2.71752e-05 -2.39588e-05)
(0.00240367 4.07559e-05 -3.15974e-05)
(0.00229189 6.21885e-05 -5.10211e-05)
(0.00243356 1.2731e-05 -3.87063e-05)
(0.00244344 1.12811e-05 -3.34943e-05)
(0.00243188 1.00576e-05 -2.96163e-05)
(0.00245202 9.65029e-06 -2.62892e-05)
(0.00244965 1.17908e-05 -2.55486e-05)
(0.00246796 1.60757e-05 -2.50601e-05)
(0.00240375 2.6871e-05 -3.12751e-05)
(0.00239447 4.1229e-05 -4.11607e-05)
(0.00228943 5.99628e-05 -6.27299e-05)
)
;

boundaryField
{
    inlet
    {
        type            zeroGradient;
    }
    outlet
    {
        type            zeroGradient;
    }
    wall
    {
        type            zeroGradient;
    }
    procBoundary3to1
    {
        type            processor;
        value           nonuniform List<vector> 
27
(
(0.00247107 3.82606e-05 -3.96313e-05)
(0.00250811 4.94584e-05 -3.35645e-05)
(0.00249154 4.20342e-05 -2.81158e-05)
(0.00252302 3.14472e-05 -2.36881e-05)
(0.00247798 2.17558e-05 -2.05825e-05)
(0.00248353 1.48052e-05 -1.82699e-05)
(0.0024381 7.725e-06 -2.30096e-05)
(0.00242856 4.49295e-06 -2.38885e-05)
(0.00230006 -4.96934e-06 -4.58297e-05)
(0.00248738 2.94671e-05 -3.83508e-05)
(0.00252139 3.66251e-05 -3.16293e-05)
(0.00249693 3.33804e-05 -2.60675e-05)
(0.00251778 2.67351e-05 -2.08843e-05)
(0.00247664 1.95267e-05 -1.68649e-05)
(0.00249508 1.37001e-05 -1.34667e-05)
(0.00245341 7.88644e-06 -1.52074e-05)
(0.00244685 3.33189e-06 -1.622e-05)
(0.00230359 -3.96391e-06 -3.79066e-05)
(0.00245473 1.97137e-05 -3.47167e-05)
(0.00248333 2.44443e-05 -2.80339e-05)
(0.00245248 2.37864e-05 -2.24273e-05)
(0.00249473 2.0887e-05 -1.6997e-05)
(0.00244741 1.58155e-05 -1.25481e-05)
(0.00245826 1.20298e-05 -7.34232e-06)
(0.00239572 6.98738e-06 -6.17341e-06)
(0.00237624 4.3816e-06 -5.03339e-06)
(0.00226622 -4.85101e-06 -1.80244e-05)
)
;
    }
    procBoundary3to2
    {
        type            processor;
        value           nonuniform List<vector> 
12
(
(0.00245923 1.79305e-05 -4.71022e-05)
(0.00245393 1.59227e-05 -4.72508e-05)
(0.00246648 1.60817e-05 -4.78336e-05)
(0.00242383 1.50663e-05 -4.70248e-05)
(0.00250096 1.54151e-05 -4.63792e-05)
(0.00248062 1.48452e-05 -4.64889e-05)
(0.00249281 1.58003e-05 -4.77746e-05)
(0.00243268 1.49093e-05 -4.67234e-05)
(0.00245246 1.17656e-05 -4.12225e-05)
(0.00244869 1.27838e-05 -4.18011e-05)
(0.002476 1.46228e-05 -4.39476e-05)
(0.00243347 1.44098e-05 -4.3908e-05)
)
;
    }
    procBoundary3to7
    {
        type            processor;
        value           nonuniform List<vector> 
36
(
(0.00240521 1.10594e-05 -2.82658e-05)
(0.00243443 1.28905e-05 -2.29134e-05)
(0.00239919 1.2817e-05 -1.75292e-05)
(0.00242162 1.2181e-05 -1.19749e-05)
(0.00240318 1.08525e-05 -6.27243e-06)
(0.00241328 1.03692e-05 -1.72116e-07)
(0.00233646 8.6028e-06 2.74824e-06)
(0.00230193 7.90585e-06 5.69755e-06)
(0.00223012 9.36265e-06 4.8317e-07)
(0.00240419 1.09178e-05 -2.97991e-05)
(0.00245128 1.12122e-05 -2.50772e-05)
(0.00240536 1.06858e-05 -2.02583e-05)
(0.00241894 1.03347e-05 -1.56611e-05)
(0.00239313 1.05513e-05 -1.14082e-05)
(0.00240371 1.15471e-05 -6.91338e-06)
(0.00234706 1.55776e-05 -5.55217e-06)
(0.00232121 1.88234e-05 -3.24267e-06)
(0.00224027 3.09275e-05 -8.77732e-06)
(0.0024112 1.13324e-05 -3.25965e-05)
(0.00245499 1.02163e-05 -2.86576e-05)
(0.00241832 9.22782e-06 -2.48221e-05)
(0.00243583 8.56204e-06 -2.15085e-05)
(0.00241433 9.95669e-06 -1.92104e-05)
(0.00244241 1.08185e-05 -1.716e-05)
(0.00237598 1.84101e-05 -1.72866e-05)
(0.00234683 2.41553e-05 -1.62729e-05)
(0.00224274 4.12994e-05 -2.56377e-05)
(0.00239804 1.07952e-05 -3.4326e-05)
(0.00241288 9.05993e-06 -3.04646e-05)
(0.00239902 7.68552e-06 -2.75139e-05)
(0.00239693 7.10788e-06 -2.42564e-05)
(0.00239717 7.8732e-06 -2.34319e-05)
(0.00240427 1.03798e-05 -2.12405e-05)
(0.00234886 1.7262e-05 -2.30451e-05)
(0.00232513 2.5617e-05 -2.2518e-05)
(0.00222237 3.58257e-05 -3.20936e-05)
)
;
    }
}


// ************************************************************************* //
