/*--------------------------------*- C++ -*----------------------------------*\
| =========                 |                                                 |
| \\      /  F ield         | OpenFOAM: The Open Source CFD Toolbox           |
|  \\    /   O peration     | Version:  4.x                                   |
|   \\  /    A nd           | Web:      www.OpenFOAM.org                      |
|    \\/     M anipulation  |                                                 |
\*---------------------------------------------------------------------------*/
FoamFile
{
    version     2.0;
    format      ascii;
    class       volScalarField;
    location    "38.5";
    object      nu;
}
// * * * * * * * * * * * * * * * * * * * * * * * * * * * * * * * * * * * * * //

dimensions      [0 2 -1 0 0 0 0];

internalField   nonuniform List<scalar> 
108
(
1e-06
1e-06
1e-06
1e-06
1e-06
1e-06
1e-06
1.00001e-06
1.00006e-06
1e-06
1e-06
1e-06
1e-06
1e-06
1e-06
1e-06
1e-06
9.99883e-07
1e-06
1e-06
1e-06
1e-06
1e-06
1e-06
1e-06
1e-06
9.99718e-07
1e-06
1e-06
1e-06
1e-06
1e-06
1e-06
1e-06
1e-06
9.81505e-07
1e-06
1e-06
1e-06
1e-06
1.00001e-06
1.00001e-06
1.00003e-06
1.00003e-06
1.00037e-06
1e-06
1e-06
1e-06
1e-06
1.00001e-06
1.00001e-06
1.00002e-06
1.00002e-06
1.00018e-06
1e-06
1e-06
1e-06
1e-06
1e-06
1e-06
1.00001e-06
1.00001e-06
1.00035e-06
1e-06
1e-06
1e-06
1e-06
1e-06
1e-06
1e-06
1e-06
1.00085e-06
1e-06
1e-06
1.00001e-06
1.00002e-06
1.00003e-06
1.00005e-06
1.00008e-06
1.00008e-06
1.00026e-06
1e-06
1e-06
1e-06
1.00001e-06
1.00001e-06
1.00002e-06
1.00004e-06
1.00005e-06
1.00021e-06
1e-06
1e-06
1e-06
1e-06
1.00001e-06
1.00001e-06
1.00002e-06
1.00002e-06
1.00027e-06
1e-06
1e-06
1e-06
1e-06
1e-06
1e-06
1e-06
1e-06
1.00063e-06
)
;

boundaryField
{
    inlet
    {
        type            calculated;
        value           nonuniform 0();
    }
    outlet
    {
        type            calculated;
        value           uniform 1e-06;
    }
    wall
    {
        type            calculated;
        value           nonuniform List<scalar> 
63
(
1e-06
1e-06
1e-06
1e-06
1e-06
1e-06
1e-06
1e-06
1e-06
1e-06
1e-06
1e-06
1e-06
1e-06
1e-06
1e-06
1e-06
1e-06
1e-06
1e-06
1e-06
1e-06
1e-06
1e-06
1e-06
1e-06
1e-06
1e-06
1.00001e-06
1e-06
1e-06
1e-06
1.00006e-06
9.99883e-07
9.99718e-07
9.81505e-07
1e-06
1e-06
1e-06
1e-06
1e-06
1e-06
1e-06
1e-06
1e-06
1e-06
1e-06
1e-06
1e-06
1e-06
1e-06
1e-06
1e-06
1e-06
1e-06
1e-06
1e-06
1e-06
1e-06
1e-06
9.81505e-07
1.00085e-06
1.00063e-06
)
;
    }
    procBoundary3to1
    {
        type            processor;
        value           nonuniform List<scalar> 
27
(
1e-06
1e-06
1e-06
1e-06
1e-06
1e-06
1e-06
1.00001e-06
1.00032e-06
1e-06
1e-06
1e-06
1.00001e-06
1.00001e-06
1.00002e-06
1.00003e-06
1.00003e-06
1.00024e-06
1e-06
1e-06
1.00001e-06
1.00001e-06
1.00002e-06
1.00003e-06
1.00005e-06
1.00006e-06
1.00028e-06
)
;
    }
    procBoundary3to2
    {
        type            processor;
        value           nonuniform List<scalar> 
12
(
1e-06
1e-06
1e-06
1e-06
1e-06
1e-06
1e-06
1e-06
1e-06
1e-06
1e-06
1e-06
)
;
    }
    procBoundary3to7
    {
        type            processor;
        value           nonuniform List<scalar> 
36
(
1e-06
1e-06
1e-06
1.00001e-06
1.00002e-06
1.00003e-06
1.00005e-06
1.00007e-06
1.0002e-06
1e-06
1e-06
1e-06
1.00001e-06
1.00001e-06
1.00002e-06
1.00003e-06
1.00004e-06
1.00029e-06
1e-06
1e-06
1e-06
1e-06
1e-06
1.00001e-06
1.00001e-06
1.00002e-06
1.00046e-06
1e-06
1e-06
1e-06
1e-06
1e-06
1e-06
1e-06
1e-06
1.00049e-06
)
;
    }
}


// ************************************************************************* //
