/*--------------------------------*- C++ -*----------------------------------*\
| =========                 |                                                 |
| \\      /  F ield         | OpenFOAM: The Open Source CFD Toolbox           |
|  \\    /   O peration     | Version:  4.x                                   |
|   \\  /    A nd           | Web:      www.OpenFOAM.org                      |
|    \\/     M anipulation  |                                                 |
\*---------------------------------------------------------------------------*/
FoamFile
{
    version     2.0;
    format      ascii;
    class       volScalarField;
    location    "38.5";
    object      pSmooth;
}
// * * * * * * * * * * * * * * * * * * * * * * * * * * * * * * * * * * * * * //

dimensions      [1 -1 -2 0 0 0 0];

internalField   nonuniform List<scalar> 
108
(
18.0973
74.5113
0.1
68.7208
0.1
64.551
0.1
63.1339
0.1
19.215
74.8095
0.1
68.9871
0.1
64.1174
0.1
59.7624
0.1
18.4049
74.4999
0.1
68.6959
0.1
64.4639
0.1
63.539
0.1
18.8862
74.5438
0.1
68.8695
0.1
64.6335
0.1
63.8133
0.1
18.0293
74.8125
0.1
68.5797
0.1
63.3303
0.1
59.9345
0.1
19.2476
74.9841
0.212104
68.5163
0.1
62.5206
0.1
56.9108
0.1
18.2869
74.594
0.1
68.4251
0.1
63.4511
0.1
61.8135
0.1
18.8503
74.6469
0.1
68.7161
0.1
63.9036
0.1
62.0136
0.1
19.0748
74.611
0.1
68.2053
0.1
62.95
0.1
58.6749
0.1
20.4711
74.621
2.12621
68.501
0.1
63.1823
0.1
58.0247
0.1
19.4161
74.7282
0.170218
68.0981
0.1
62.4284
0.1
58.3626
0.1
19.4895
74.7046
0.368763
68.668
0.1
63.4642
0.1
60.2313
0.1
)
;

boundaryField
{
    inlet
    {
        type            zeroGradient;
    }
    outlet
    {
        type            fixedValue;
        value           uniform 0;
    }
    wall
    {
        type            zeroGradient;
    }
    procBoundary3to1
    {
        type            processor;
        value           nonuniform List<scalar> 
27
(
19.0197
74.8041
0.1
68.8097
0.1
64.0024
0.1
61.5571
0.1
19.4111
75.1778
0.486807
68.5848
0.1
62.4311
0.1
56.1865
0.1
19.4283
74.6281
0.516478
68.3858
0.1
62.9783
0.1
58.8541
0.1
)
;
    }
    procBoundary3to2
    {
        type            processor;
        value           nonuniform List<scalar> 
12
(
81.1391
81.3926
81.1294
81.0157
81.5605
81.8028
81.4544
81.2918
81.4926
81.759
81.6905
81.4677
)
;
    }
    procBoundary3to7
    {
        type            processor;
        value           nonuniform List<scalar> 
36
(
21.337
74.7543
2.88462
68.2067
0.1
62.3956
0.1
57.0026
0.1
21.028
74.7364
2.53392
67.9418
0.1
61.0908
0.1
54.6576
0.1
19.3684
74.6442
0.1
68.1417
0.1
62.5362
0.1
59.2547
0.1
19.7657
74.7025
0.488436
68.3888
0.1
62.8316
0.1
59.1264
0.1
)
;
    }
}


// ************************************************************************* //
