/*--------------------------------*- C++ -*----------------------------------*\
| =========                 |                                                 |
| \\      /  F ield         | OpenFOAM: The Open Source CFD Toolbox           |
|  \\    /   O peration     | Version:  4.x                                   |
|   \\  /    A nd           | Web:      www.OpenFOAM.org                      |
|    \\/     M anipulation  |                                                 |
\*---------------------------------------------------------------------------*/
FoamFile
{
    version     2.0;
    format      ascii;
    class       volScalarField;
    location    "38.5";
    object      QWallFluid;
}
// * * * * * * * * * * * * * * * * * * * * * * * * * * * * * * * * * * * * * //

dimensions      [1 -1 -3 0 0 0 0];

internalField   nonuniform List<scalar> 
108
(
6.50072e+08
1.03806e+09
6.613e+08
1.08628e+09
6.4151e+08
1.14012e+09
5.54643e+08
1.21125e+09
4.82529e+08
5.41693e+08
9.48552e+08
5.08303e+08
9.56138e+08
4.31912e+08
9.13947e+08
2.62282e+08
7.46872e+08
6.63795e+07
6.49788e+08
1.02947e+09
6.56755e+08
1.08048e+09
6.37587e+08
1.15075e+09
5.68648e+08
1.27643e+09
5.59923e+08
1.5895e+09
2.2319e+09
1.61683e+09
2.30369e+09
1.57737e+09
2.43599e+09
1.43855e+09
2.70052e+09
1.2039e+09
0
0
0
0
0
0
0
0
0
0
0
0
0
0
0
0
0
0
0
0
0
0
0
0
0
0
0
5.93602e+08
9.86658e+08
5.90324e+08
1.01908e+09
5.57078e+08
1.08555e+09
4.85493e+08
1.25384e+09
5.92321e+08
0
0
0
0
0
0
0
0
0
0
0
0
0
0
0
0
0
0
0
0
0
0
0
0
0
0
0
4.7744e+08
9.11287e+08
4.63312e+08
9.31968e+08
4.26313e+08
9.73334e+08
3.84086e+08
1.10991e+09
3.70877e+08
)
;

boundaryField
{
    inlet
    {
        type            calculated;
        value           nonuniform 0();
    }
    outlet
    {
        type            calculated;
        value           uniform 0;
    }
    wall
    {
        type            calculated;
        value           uniform 0;
    }
    procBoundary3to1
    {
        type            processor;
        value           nonuniform List<scalar> 
27
(
6.17048e+08
9.99062e+08
6.06754e+08
1.0275e+09
5.82473e+08
1.08806e+09
5.4385e+08
1.23052e+09
5.03547e+08
0
0
0
0
0
0
0
0
0
0
0
0
0
0
0
0
0
0
)
;
    }
    procBoundary3to2
    {
        type            processor;
        value           nonuniform List<scalar> 
12
(
1.00028e+09
9.3984e+08
9.94789e+08
2.15168e+09
0
0
0
9.61402e+08
0
0
0
8.90384e+08
)
;
    }
    procBoundary3to7
    {
        type            processor;
        value           nonuniform List<scalar> 
36
(
0
0
0
0
0
0
0
0
0
0
0
0
0
0
0
0
0
0
0
0
0
0
0
0
0
0
0
4.76056e+08
8.98401e+08
4.57666e+08
9.15107e+08
4.24267e+08
9.32073e+08
3.62894e+08
9.64559e+08
2.97644e+08
)
;
    }
}


// ************************************************************************* //
