/*--------------------------------*- C++ -*----------------------------------*\
| =========                 |                                                 |
| \\      /  F ield         | OpenFOAM: The Open Source CFD Toolbox           |
|  \\    /   O peration     | Version:  4.x                                   |
|   \\  /    A nd           | Web:      www.OpenFOAM.org                      |
|    \\/     M anipulation  |                                                 |
\*---------------------------------------------------------------------------*/
FoamFile
{
    version     2.0;
    format      ascii;
    class       volVectorField;
    location    "38.5";
    object      U;
}
// * * * * * * * * * * * * * * * * * * * * * * * * * * * * * * * * * * * * * //

dimensions      [0 1 -1 0 0 0 0];

internalField   nonuniform List<vector> 
108
(
(0.022135 -0.000263533 -0.000272104)
(0.0395693 -0.000165844 -0.000541122)
(0.0226547 -0.000303524 -0.000298239)
(0.0418453 -0.000429663 4.82822e-05)
(0.0216443 -0.0014447 -0.000518241)
(0.044408 -0.00103498 0.00144693)
(0.0176131 -0.00419201 -0.00184065)
(0.0482197 -1.26807e-05 0.00362412)
(0.00850563 -0.0113868 -0.00557393)
(0.0176227 -0.000329703 -0.000277308)
(0.0357553 -0.000144724 -0.000370391)
(0.0162957 -0.000255958 -0.000399774)
(0.0358396 -8.57177e-05 0.000490265)
(0.0132849 -0.000108257 -0.000432893)
(0.0337618 8.73224e-05 0.00216062)
(0.00714927 0.00029707 -0.000355786)
(0.0261992 -0.000480038 0.00408836)
(0.0012494 0.000300046 -7.20747e-05)
(0.022106 0.000609724 -0.00012068)
(0.0394266 0.000697263 -0.000192177)
(0.0224974 0.000843045 0.000235115)
(0.0417339 0.000649671 0.000497151)
(0.0214864 0.00224976 0.000798454)
(0.0450823 0.000663519 0.00183543)
(0.0179382 0.00562771 0.000975769)
(0.0516637 -0.00198543 0.00301335)
(0.00949227 0.0157102 -0.00135184)
(0.0281914 -0.000498512 -0.000238569)
(0.0431379 -0.000370596 -0.00028677)
(0.0289011 -0.00112696 -2.02611e-07)
(0.0453284 -0.000930599 0.000183858)
(0.0281663 -0.00151329 0.000282864)
(0.0484127 -0.00116855 0.00109084)
(0.0249681 -0.00175133 0.000806624)
(0.0553568 -0.00142388 0.0028283)
(0.0144599 0.000579997 -0.0133985)
(0.00598693 8.348e-05 -0.000435417)
(0.0321162 0.000283641 -0.000293477)
(0.00479151 0.000112421 -0.000556514)
(0.0333023 9.62106e-05 0.000665555)
(0.00372973 6.8331e-05 -0.000851826)
(0.0342037 -0.000198988 0.00242908)
(0.00342333 2.2151e-06 -0.00181539)
(0.0350238 -0.00111467 0.00646216)
(0.00475521 -0.000470272 -0.00891736)
(0.00376619 -6.39153e-05 -0.000387842)
(0.0300947 0.00029351 0.000174626)
(0.00200256 3.27838e-05 -0.000338922)
(0.0299796 0.000220489 0.000650974)
(0.000940129 8.56654e-05 -0.000261474)
(0.0287472 -0.000225556 0.00148222)
(0.00109932 0.000344753 -0.000373721)
(0.0246538 -0.00273734 0.0028903)
(0.0044198 0.00399057 -0.00123186)
(0.00916651 0.000366861 -0.000761459)
(0.0334124 0.000637678 -0.000617542)
(0.00900854 0.000691477 -0.0010882)
(0.0358086 -7.35751e-06 0.000420008)
(0.00944294 0.00177177 -0.00192183)
(0.03975 -0.00119805 0.00210812)
(0.0102902 0.00502279 -0.00412329)
(0.0461501 -0.00459176 0.00532033)
(0.00735031 0.0186944 -0.0132667)
(0.0200324 -0.000474768 -0.0010131)
(0.037733 -0.000331633 -0.000742158)
(0.0198792 -0.00110651 -0.00131236)
(0.0395739 -0.000995102 -0.00042859)
(0.0185253 -0.00161868 -0.00197233)
(0.0428496 -0.0015005 0.000510533)
(0.0154316 -0.00151483 -0.00263662)
(0.0515143 -0.00113703 0.00340355)
(0.00907921 0.0034629 -0.0176682)
(0.00205576 -0.000172614 -0.0004906)
(0.0297268 -2.81065e-05 -5.41958e-05)
(0.00126284 -0.000159678 -0.00042551)
(0.0297748 -0.000237872 0.000496063)
(0.00135584 -0.000342164 -0.000705438)
(0.029251 -0.000425287 0.00141453)
(0.00223752 -0.000851372 -0.00162506)
(0.0265743 0.000843368 0.00431079)
(0.0069151 -0.00309711 -0.00677751)
(1.09453e-08 -2.67626e-09 1.95988e-09)
(0.0280995 -0.000181889 0.000382433)
(1.01564e-08 -2.36444e-09 2.07488e-09)
(0.0277849 0.000105413 0.000849086)
(9.82056e-09 -2.59145e-09 -2.33701e-09)
(0.0275 0.000601626 0.00213989)
(1.026e-08 -2.36266e-11 -8.06838e-09)
(0.0241292 9.99632e-05 0.00325722)
(0.00342264 0.000572845 -0.000497982)
(0.0024388 0.000194761 -0.000193746)
(0.0301603 -8.11686e-05 -0.000142304)
(0.00108759 0.000142794 -0.000143646)
(0.0309232 -0.000235876 0.000383481)
(0.00217814 0.000615495 -0.000512912)
(0.0319543 -0.000335397 0.00126043)
(0.00582019 0.00330779 -0.00229119)
(0.0310606 -0.00233646 0.00320421)
(0.0101018 0.0142429 -0.0069202)
(0.0154924 3.32139e-05 -0.000964358)
(0.0345597 2.45699e-05 -0.000540666)
(0.0148702 -0.00017895 -0.00123395)
(0.0358273 -0.000900363 -0.00016246)
(0.013388 3.67374e-05 -0.00194678)
(0.0381757 -0.00145259 0.000509509)
(0.0114725 0.00111798 -0.00318012)
(0.0451427 -0.00195437 0.00241592)
(0.00728546 0.00642997 -0.00614349)
)
;

boundaryField
{
    inlet
    {
        type            fixedValue;
        value           nonuniform 0();
    }
    outlet
    {
        type            zeroGradient;
    }
    wall
    {
        type            fixedValue;
        value           uniform (0 0 0);
    }
    procBoundary3to1
    {
        type            processor;
        value           nonuniform List<vector> 
27
(
(0.0204366 0.000153377 -0.000827547)
(0.0375766 0.000247396 -0.000914961)
(0.0202268 0.000466433 -0.00115209)
(0.0392976 0.000591536 -0.00026858)
(0.0191483 0.000182098 -0.00219779)
(0.042065 0.000752475 0.00101805)
(0.0171327 -0.00106982 -0.00465171)
(0.049029 0.00147538 0.00473961)
(0.0103048 -0.00429939 -0.0115206)
(0.00311459 0.000149368 -0.00011857)
(0.0299975 0.000257079 0.000239456)
(0.00067441 6.14864e-05 -4.42528e-05)
(0.0300854 0.000471519 0.000707809)
(1.21021e-08 -3.27459e-09 -2.47878e-09)
(0.029034 0.000409642 0.0017533)
(0.00151151 6.41073e-05 -0.000534374)
(0.0263519 0.000415704 0.0042263)
(0.00838879 -0.000741167 -0.00936637)
(0.00335154 -0.000178362 -0.00068761)
(0.0298223 -1.43893e-05 0.000104993)
(0.00279419 -0.000250389 -0.000875777)
(0.0303122 0.000434647 7.00668e-05)
(0.00301767 -0.000604427 -0.00136295)
(0.0302258 0.000776215 0.000689413)
(0.00458518 -0.0020694 -0.00275059)
(0.0282578 0.00284128 0.00298649)
(0.00875161 -0.00769358 -0.00478734)
)
;
    }
    procBoundary3to2
    {
        type            processor;
        value           nonuniform List<vector> 
12
(
(0.0375533 -0.000178596 -0.000822304)
(0.0347574 -0.000109189 -0.000756647)
(0.0373186 0.000702053 -0.000583589)
(0.0407241 4.15818e-05 -0.000539373)
(0.0309644 0.000172872 -0.000655225)
(0.0296782 0.00013335 -0.000673371)
(0.0318711 0.000847977 -0.00108247)
(0.0360878 0.000158246 -0.00111701)
(0.0292999 -0.000427022 -0.000398656)
(0.0282296 -0.000323817 -0.000224903)
(0.0294514 0.000480302 -0.00026108)
(0.0335071 0.000358328 -0.000703819)
)
;
    }
    procBoundary3to7
    {
        type            processor;
        value           nonuniform List<vector> 
36
(
(1.29876e-08 8.08993e-10 1.76512e-10)
(0.0282689 0.000317886 -2.05646e-05)
(1.2337e-08 1.18763e-09 5.61234e-10)
(0.0282794 0.000561778 5.24979e-05)
(1.19123e-08 6.48051e-10 -3.591e-09)
(0.0279668 0.00087308 0.000777271)
(1.04869e-08 1.85434e-09 -7.64262e-09)
(0.0238637 -0.00124404 0.00336322)
(0.00384975 0.00128793 -0.00125181)
(1.2592e-08 3.42623e-11 1.02894e-09)
(0.0280781 0.000162698 -0.000119467)
(1.19164e-08 -2.64281e-10 1.21628e-09)
(0.0274616 9.42481e-05 0.00023851)
(0.00119934 0.00041296 -0.000150458)
(0.0267951 -0.000104566 0.000929335)
(0.00522146 0.00282536 -0.000435284)
(0.02444 -0.00233687 0.00175183)
(0.0105079 0.0101036 0.00121104)
(0.00672789 0.00065476 -0.000654135)
(0.0313852 0.000295577 -0.000139065)
(0.00651385 0.00091683 -0.00100747)
(0.0326451 -0.000282553 -0.000539062)
(0.0067499 0.00168541 -0.00180417)
(0.0345674 -0.00187329 -0.000528975)
(0.00713938 0.00342699 -0.00338896)
(0.0368249 -0.00497695 0.00189054)
(0.0054424 0.00735659 -0.00457349)
(0.0155013 -0.000334061 -0.00119057)
(0.034577 -0.000239967 -0.000931638)
(0.0148956 -0.000551082 -0.00162784)
(0.0354801 -0.000602152 -0.000838664)
(0.0134298 -0.000722054 -0.0024989)
(0.0366799 -0.000724903 -0.000248897)
(0.0105065 -0.000700088 -0.00415881)
(0.0381122 -0.000151393 0.00228089)
(0.00538077 -0.000442032 -0.00684546)
)
;
    }
}


// ************************************************************************* //
