/*--------------------------------*- C++ -*----------------------------------*\
| =========                 |                                                 |
| \\      /  F ield         | OpenFOAM: The Open Source CFD Toolbox           |
|  \\    /   O peration     | Version:  4.x                                   |
|   \\  /    A nd           | Web:      www.OpenFOAM.org                      |
|    \\/     M anipulation  |                                                 |
\*---------------------------------------------------------------------------*/
FoamFile
{
    version     2.0;
    format      ascii;
    class       volVectorField;
    location    "38.5";
    object      UsPrev;
}
// * * * * * * * * * * * * * * * * * * * * * * * * * * * * * * * * * * * * * //

dimensions      [0 1 -1 0 0 0 0];

internalField   nonuniform List<vector> 
108
(
(3.9118e-10 -4.57821e-09 4.98773e-09)
(-8.1636e-10 -6.42207e-09 5.66527e-09)
(-1.68995e-09 -6.55306e-09 3.98081e-09)
(-2.16639e-09 -4.32018e-09 3.44228e-09)
(-1.85112e-09 -3.6259e-09 1.06152e-09)
(7.24234e-11 -2.24784e-09 -3.64574e-10)
(1.62205e-09 -5.17042e-09 -6.04601e-09)
(3.45993e-08 1.51469e-08 -1.6266e-08)
(-1.47587e-07 9.32199e-10 -1.51815e-08)
(-3.52881e-09 -3.62685e-09 4.19382e-09)
(-5.06701e-09 -4.41462e-09 4.20283e-09)
(-4.64455e-09 -4.33155e-09 3.72062e-09)
(-5.54441e-09 -3.37549e-09 4.1685e-09)
(-7.47693e-09 -2.6276e-09 2.19167e-09)
(-8.81465e-09 -2.27314e-10 1.73331e-10)
(-8.04324e-09 -1.30886e-09 -4.8452e-09)
(-7.37023e-09 1.11381e-08 -1.2216e-08)
(-2.39592e-07 1.1123e-08 -2.50775e-08)
(-1.40579e-09 -1.53212e-09 2.70359e-09)
(-2.43909e-09 -2.71048e-09 3.25495e-09)
(-2.81236e-09 -3.10636e-09 3.14934e-09)
(-3.45151e-09 -2.31254e-09 3.26054e-09)
(-5.80667e-09 -1.57503e-09 2.37652e-09)
(-3.33353e-09 4.07226e-11 -1.17847e-09)
(-2.47096e-09 -1.95286e-10 -5.39363e-09)
(7.10383e-09 4.41259e-09 -1.54395e-08)
(2.45454e-09 2.63045e-08 -2.56134e-08)
(-1.02648e-09 -1.50907e-09 9.40775e-10)
(-1.62513e-09 -3.22629e-09 1.50868e-09)
(-1.19529e-09 -1.11775e-08 2.04244e-09)
(-1.33621e-09 -1.48188e-09 1.15071e-09)
(-2.16002e-09 -1.27514e-09 1.53028e-09)
(-5.61271e-10 2.02537e-10 -1.08103e-09)
(1.10125e-08 5.86463e-09 -2.65548e-09)
(1.44682e-08 4.80097e-09 -6.55908e-09)
(-3.88561e-09 5.88973e-07 -3.56695e-08)
(6.2103e-10 -3.39506e-09 5.01538e-09)
(-2.40965e-10 -3.3405e-09 5.22439e-09)
(-9.80798e-10 -3.66909e-09 4.16299e-09)
(4.12067e-10 -4.10842e-09 2.36416e-09)
(1.13946e-09 -3.49901e-09 3.01937e-10)
(1.29476e-09 -2.94695e-09 -1.73017e-09)
(2.76851e-09 -2.11477e-09 -7.83574e-09)
(1.09507e-08 3.75084e-10 -1.45382e-08)
(-2.30338e-08 -1.55952e-09 -1.35288e-08)
(-1.70026e-09 -2.28625e-09 3.79349e-09)
(-2.80403e-09 -2.67625e-09 4.10375e-09)
(-3.76427e-09 -3.69341e-09 3.48857e-09)
(-3.21771e-09 -3.0035e-09 3.64371e-09)
(-3.72152e-09 -2.70938e-09 2.05931e-09)
(-3.52481e-09 -1.17863e-09 -4.96348e-10)
(-6.32544e-09 -4.66386e-09 -5.00724e-09)
(-4.11349e-10 -2.21688e-09 -1.32643e-08)
(2.66712e-09 -2.99855e-09 -1.64276e-08)
(-1.34847e-09 -1.58296e-09 2.75159e-09)
(-1.85013e-09 -1.43765e-09 2.8183e-09)
(-2.24562e-09 -2.31236e-09 2.70714e-09)
(-1.93822e-09 -1.66272e-09 2.70258e-09)
(-1.6594e-09 -1.16306e-09 8.10899e-10)
(-5.7681e-10 -7.29992e-10 -7.83892e-10)
(-4.12748e-10 6.20387e-10 -5.15028e-09)
(2.2436e-10 -4.37707e-10 -1.30521e-08)
(2.27558e-09 -1.22529e-09 -1.79003e-08)
(-9.53055e-10 -8.34699e-10 1.15503e-09)
(-1.99604e-09 -2.01211e-09 1.35477e-09)
(-1.15337e-09 -1.14529e-09 1.1586e-09)
(-5.16621e-10 -1.38458e-09 8.75281e-10)
(1.74438e-10 -4.86239e-10 -4.67121e-11)
(1.81361e-09 -5.18511e-10 -8.57071e-10)
(3.26457e-09 4.47681e-10 -3.22945e-09)
(4.04032e-09 1.27239e-09 -6.6123e-09)
(7.08216e-10 4.32936e-10 -2.20568e-08)
(2.2399e-09 -1.39161e-09 4.09941e-09)
(1.42922e-09 -1.31693e-09 4.79927e-09)
(1.05121e-09 -1.14454e-09 5.79971e-09)
(2.29146e-09 -3.15761e-09 2.01634e-09)
(3.14321e-09 -3.61496e-09 1.22181e-10)
(4.19736e-09 -2.6432e-09 -2.44041e-09)
(4.20108e-09 -2.00041e-09 -6.54382e-09)
(6.55088e-09 -1.84267e-09 -8.93782e-09)
(5.13419e-09 -1.0933e-09 -6.28023e-09)
(5.14002e-10 -2.20197e-09 3.42359e-09)
(-2.80071e-10 -1.44578e-09 3.83245e-09)
(6.47652e-10 -1.82317e-09 3.89574e-09)
(4.74585e-10 -2.1913e-09 2.86039e-09)
(9.84337e-10 -2.41061e-09 5.40963e-11)
(1.52488e-09 -2.02925e-09 -1.58263e-09)
(1.63468e-09 -8.24911e-10 -5.60575e-09)
(1.61611e-09 -2.29336e-10 -8.99511e-09)
(5.21718e-10 3.25088e-10 -7.5627e-09)
(-1.28135e-12 -1.18449e-09 2.55242e-09)
(-1.13026e-10 -1.09947e-09 2.90969e-09)
(-1.21317e-10 -1.73403e-09 2.83581e-09)
(2.52771e-10 -1.61701e-09 2.36702e-09)
(2.06147e-10 -1.47121e-09 2.83815e-10)
(6.91832e-10 -9.36991e-10 -1.16074e-09)
(4.57317e-10 2.83389e-10 -3.38343e-09)
(1.24269e-09 1.20877e-09 -7.25613e-09)
(7.7071e-10 -6.58294e-10 -8.03457e-09)
(-4.50482e-10 -6.30939e-10 1.33653e-09)
(-8.33756e-10 -1.13642e-09 1.58729e-09)
(-9.95357e-10 -1.63732e-09 1.97179e-09)
(-3.40675e-10 -9.44617e-10 9.37837e-10)
(-2.99141e-10 -8.71146e-10 1.03484e-10)
(-1.47385e-10 -2.68684e-10 -3.80994e-10)
(1.39229e-10 -3.96644e-11 -1.96953e-09)
(2.60613e-10 6.54039e-11 -4.1405e-09)
(5.52735e-10 -1.98584e-09 -7.09909e-09)
)
;

boundaryField
{
    inlet
    {
        type            calculated;
        value           nonuniform 0();
    }
    outlet
    {
        type            calculated;
        value           uniform (0 0 0);
    }
    wall
    {
        type            calculated;
        value           uniform (0 0 0);
    }
    procBoundary3to1
    {
        type            processor;
        value           uniform (0 0 0);
    }
    procBoundary3to2
    {
        type            processor;
        value           uniform (0 0 0);
    }
    procBoundary3to7
    {
        type            processor;
        value           uniform (0 0 0);
    }
}


// ************************************************************************* //
