/*--------------------------------*- C++ -*----------------------------------*\
| =========                 |                                                 |
| \\      /  F ield         | OpenFOAM: The Open Source CFD Toolbox           |
|  \\    /   O peration     | Version:  4.x                                   |
|   \\  /    A nd           | Web:      www.OpenFOAM.org                      |
|    \\/     M anipulation  |                                                 |
\*---------------------------------------------------------------------------*/
FoamFile
{
    version     2.0;
    format      ascii;
    class       volScalarField;
    location    "20";
    object      KslNext;
}
// * * * * * * * * * * * * * * * * * * * * * * * * * * * * * * * * * * * * * //

dimensions      [1 -3 -1 0 0 0 0];

internalField   nonuniform List<scalar> 
87
(
3607.61
2541.27
3525.06
2429.79
3542.78
2223.72
3973.73
1957.42
6193.91
4078.32
2693.88
3970.1
2576.16
4087.08
2371.52
4733.19
2087.97
5872.85
5017.47
3010.44
5341.39
3041.6
6686.92
3258.01
11479.3
4097.61
23399.5
5349.1
2960.65
5313.97
2826.11
5543.28
2547.98
6547.98
2113.35
6666.25
8504.11
3351.28
8806.71
3190.29
9679.87
2881.9
9754.29
2499.61
5108.77
19081.8
3718.91
47579
3647.93
1.43297e+09
3608.62
2.02005e+06
3805.01
16977
7095.95
3266.83
7812.59
3200.87
8616.61
2944.8
9283.53
2428.25
10098.1
17658.1
3732.5
22928.7
3645.97
23370.2
3528.01
12570.5
3470.37
4660.36
1e+10
4062.31
1e+10
4073.22
1e+10
4090.83
1e+10
4482.51
17607.9
6267.68
3054.86
6383.82
17089.8
3610.34
28735
)
;

boundaryField
{
    inlet
    {
        type            zeroGradient;
    }
    outlet
    {
        type            zeroGradient;
    }
    wall
    {
        type            zeroGradient;
    }
    procBoundary1to0
    {
        type            processor;
        value           uniform 0;
    }
    procBoundary1to3
    {
        type            processor;
        value           uniform 0;
    }
    procBoundary1to5
    {
        type            processor;
        value           uniform 0;
    }
    procBoundary1to7
    {
        type            processor;
        value           uniform 0;
    }
}


// ************************************************************************* //
