/*--------------------------------*- C++ -*----------------------------------*\
| =========                 |                                                 |
| \\      /  F ield         | OpenFOAM: The Open Source CFD Toolbox           |
|  \\    /   O peration     | Version:  4.x                                   |
|   \\  /    A nd           | Web:      www.OpenFOAM.org                      |
|    \\/     M anipulation  |                                                 |
\*---------------------------------------------------------------------------*/
FoamFile
{
    version     2.0;
    format      ascii;
    class       volScalarField;
    location    "20";
    object      KslPrev;
}
// * * * * * * * * * * * * * * * * * * * * * * * * * * * * * * * * * * * * * //

dimensions      [1 -3 -1 0 0 0 0];

internalField   nonuniform List<scalar> 
87
(
3607.59
2541.27
3525.03
2429.77
3542.78
2223.76
3973.73
1957.4
6193.8
4078.31
2693.85
3970.02
2576.11
4087.11
2371.58
4733.35
2088
5872.92
5017.54
3010.41
5341.24
3041.57
6686.97
3258.03
11480
4097.69
23400.9
5349.1
2960.64
5313.96
2826.11
5543.22
2547.93
6547.96
2113.35
6666.33
8504.31
3351.27
8806.75
3190.35
9679.97
2881.84
9754.43
2499.63
5108.78
19081.3
3718.92
47585.4
3647.91
1.43352e+09
3608.58
2.02279e+06
3805.04
16978.8
7095.96
3266.83
7812.67
3200.87
8616.42
2944.74
9283.18
2428.21
10097.3
17657.4
3732.5
22930.9
3646
23370.1
3527.96
12570.3
3470.36
4660.25
9.82746e+09
4062.31
1e+10
4073.21
1e+10
4090.78
1e+10
4482.5
17608.9
6267.66
3054.85
6383.84
17089.9
3610.33
28732.6
)
;

boundaryField
{
    inlet
    {
        type            zeroGradient;
    }
    outlet
    {
        type            zeroGradient;
    }
    wall
    {
        type            zeroGradient;
    }
    procBoundary1to0
    {
        type            processor;
        value           uniform 0;
    }
    procBoundary1to3
    {
        type            processor;
        value           uniform 0;
    }
    procBoundary1to5
    {
        type            processor;
        value           uniform 0;
    }
    procBoundary1to7
    {
        type            processor;
        value           uniform 0;
    }
}


// ************************************************************************* //
