/*--------------------------------*- C++ -*----------------------------------*\
| =========                 |                                                 |
| \\      /  F ield         | OpenFOAM: The Open Source CFD Toolbox           |
|  \\    /   O peration     | Version:  4.x                                   |
|   \\  /    A nd           | Web:      www.OpenFOAM.org                      |
|    \\/     M anipulation  |                                                 |
\*---------------------------------------------------------------------------*/
FoamFile
{
    version     2.0;
    format      ascii;
    class       volScalarField;
    location    "20";
    object      SPartFluid;
}
// * * * * * * * * * * * * * * * * * * * * * * * * * * * * * * * * * * * * * //

dimensions      [1 -3 -1 0 0 0 0];

internalField   nonuniform List<scalar> 
87
(
3.71994e-65
5.88989e-65
3.79743e-65
5.11491e-65
3.95244e-65
4.18493e-65
4.41743e-65
5.03742e-65
4.80491e-65
3.64237e-65
3.2549e-65
4.64984e-65
4.18486e-65
3.40989e-65
5.03737e-65
6.58731e-65
4.57238e-65
3.9524e-65
3.48735e-65
5.50226e-65
5.81224e-65
7.12967e-65
5.50226e-65
4.33984e-65
4.95981e-65
4.57234e-65
4.49483e-65
6.66477e-65
5.6573e-65
5.34731e-65
6.19979e-65
5.81229e-65
6.58729e-65
8.36975e-65
7.28479e-65
6.35481e-65
7.20718e-65
5.11474e-65
6.35469e-65
6.97467e-65
7.28467e-65
5.65724e-65
7.5172e-65
7.59468e-65
5.50226e-65
8.137e-65
6.58712e-65
6.19964e-65
5.26969e-65
5.26971e-65
7.36211e-65
8.0596e-65
1.0307e-64
4.88226e-65
7.05218e-65
5.73475e-65
7.67213e-65
7.98213e-65
5.73474e-65
8.44713e-65
7.05221e-65
5.7348e-65
4.18483e-65
5.57965e-65
7.05208e-65
5.65717e-65
6.12214e-65
6.97459e-65
6.97462e-65
6.58716e-65
7.20714e-65
4.41727e-65
7.90444e-65
6.35453e-65
5.11463e-65
9.06685e-65
8.29192e-65
8.75693e-65
6.81959e-65
7.90454e-65
3.4873e-65
6.58717e-65
5.26976e-65
8.05959e-65
7.05206e-65
9.99685e-65
5.73457e-65
)
;

boundaryField
{
    inlet
    {
        type            calculated;
        value           nonuniform 0();
    }
    outlet
    {
        type            calculated;
        value           uniform 0;
    }
    wall
    {
        type            calculated;
        value           uniform 0;
    }
    procBoundary1to0
    {
        type            processor;
        value           nonuniform List<scalar> 
12
(
1.70498e-65
3.95235e-65
6.89723e-65
6.19981e-65
6.97467e-65
4.95973e-65
4.72731e-65
8.29206e-65
4.5722e-65
4.9598e-65
5.50217e-65
8.05944e-65
)
;
    }
    procBoundary1to3
    {
        type            processor;
        value           nonuniform List<scalar> 
27
(
6.97465e-65
3.25484e-65
5.73473e-65
2.55739e-65
4.10732e-65
3.02239e-65
4.72731e-65
4.26236e-65
4.18485e-65
7.51703e-65
6.27706e-65
9.06692e-65
8.52448e-65
7.59453e-65
6.27716e-65
6.04466e-65
6.58717e-65
8.91205e-65
7.67191e-65
9.06681e-65
8.75682e-65
8.52438e-65
6.12207e-65
6.27709e-65
8.52447e-65
7.12958e-65
7.43957e-65
)
;
    }
    procBoundary1to5
    {
        type            processor;
        value           nonuniform List<scalar> 
32
(
6.81967e-65
8.05961e-65
6.35472e-65
6.7422e-65
7.59471e-65
8.44715e-65
6.81955e-65
5.65714e-65
5.81213e-65
6.66461e-65
8.21452e-65
8.52457e-65
7.90459e-65
8.44684e-65
6.04454e-65
7.51694e-65
5.73459e-65
4.57219e-65
7.28454e-65
5.42468e-65
8.67948e-65
6.3547e-65
4.8048e-65
6.81967e-65
6.81955e-65
6.97465e-65
7.05209e-65
6.81955e-65
8.44684e-65
6.8196e-65
8.44684e-65
8.21443e-65
)
;
    }
    procBoundary1to7
    {
        type            processor;
        value           uniform 9.91921e-65;
    }
}


// ************************************************************************* //
