/*--------------------------------*- C++ -*----------------------------------*\
| =========                 |                                                 |
| \\      /  F ield         | OpenFOAM: The Open Source CFD Toolbox           |
|  \\    /   O peration     | Version:  4.x                                   |
|   \\  /    A nd           | Web:      www.OpenFOAM.org                      |
|    \\/     M anipulation  |                                                 |
\*---------------------------------------------------------------------------*/
FoamFile
{
    version     2.0;
    format      ascii;
    class       volScalarField;
    location    "20";
    object      thCond;
}
// * * * * * * * * * * * * * * * * * * * * * * * * * * * * * * * * * * * * * //

dimensions      [1 1 -3 -1 0 0 0];

internalField   nonuniform List<scalar> 
87
(
192.913
192.506
192.497
192.232
192.228
192.003
191.774
191.777
191.947
192.709
192.569
192.282
192.146
192.132
191.842
191.532
191.75
192.016
192.324
192.082
191.851
191.704
191.813
191.819
191.614
191.669
191.863
191.901
191.861
191.717
191.455
191.362
191.081
190.793
190.97
191.287
191.661
191.73
191.512
191.294
191.162
191.068
190.776
190.856
191.311
191.301
191.32
191.221
191.154
191.106
190.864
190.652
190.55
191.156
191.189
191.129
190.778
190.587
190.61
190.277
190.316
190.566
190.925
191.044
190.863
190.841
190.639
190.464
190.313
190.266
190.343
190.822
190.682
190.644
190.65
190.244
190.2
190.081
190.116
190.159
190.689
190.714
190.63
190.23
190.456
190.095
190.328
)
;

boundaryField
{
    inlet
    {
        type            zeroGradient;
    }
    outlet
    {
        type            zeroGradient;
    }
    wall
    {
        type            zeroGradient;
    }
    procBoundary1to0
    {
        type            processor;
        value           nonuniform List<scalar> 
12
(
193.274
192.762
192.27
192.081
191.742
191.654
191.479
191.003
191.077
190.988
190.704
190.492
)
;
    }
    procBoundary1to3
    {
        type            processor;
        value           nonuniform List<scalar> 
27
(
191.848
191.956
191.711
191.959
191.896
191.965
191.677
191.662
191.691
191.058
191.058
190.74
190.78
190.88
190.929
190.785
190.707
190.625
190.403
190.225
190.144
190.13
190.244
190.138
189.939
190.051
190.126
)
;
    }
    procBoundary1to5
    {
        type            processor;
        value           nonuniform List<scalar> 
32
(
190.193
190.003
189.996
189.917
189.886
189.903
190.202
190.216
190.09
189.93
189.738
189.707
189.839
190.052
190.139
189.927
189.943
189.931
189.716
189.85
189.715
190.336
190.385
190.193
190.202
190.068
190.132
190.202
190.052
190.054
190.052
189.962
)
;
    }
    procBoundary1to7
    {
        type            processor;
        value           uniform 189.931;
    }
}


// ************************************************************************* //
