/*--------------------------------*- C++ -*----------------------------------*\
| =========                 |                                                 |
| \\      /  F ield         | OpenFOAM: The Open Source CFD Toolbox           |
|  \\    /   O peration     | Version:  4.x                                   |
|   \\  /    A nd           | Web:      www.OpenFOAM.org                      |
|    \\/     M anipulation  |                                                 |
\*---------------------------------------------------------------------------*/
FoamFile
{
    version     2.0;
    format      ascii;
    class       volVectorField;
    location    "48";
    object      impParticleForces;
}
// * * * * * * * * * * * * * * * * * * * * * * * * * * * * * * * * * * * * * //

dimensions      [1 1 -2 0 0 0 0];

internalField   nonuniform List<vector> 
132
(
(0.00241496 1.33354e-05 -2.90879e-05)
(0.00244548 1.51428e-05 -2.42416e-05)
(0.0024106 1.49101e-05 -1.95953e-05)
(0.00243413 1.3797e-05 -1.50186e-05)
(0.00241645 1.21587e-05 -1.06921e-05)
(0.00242797 1.14371e-05 -6.37953e-06)
(0.00235021 1.01037e-05 -5.81476e-06)
(0.00231502 9.8665e-06 -5.50635e-06)
(0.00224184 1.13552e-05 -1.26236e-05)
(0.00241259 1.20836e-05 -3.01769e-05)
(0.00246202 1.23567e-05 -2.59101e-05)
(0.00241638 1.18629e-05 -2.17229e-05)
(0.00243102 1.14141e-05 -1.78834e-05)
(0.00240508 1.15383e-05 -1.47163e-05)
(0.00241604 1.23086e-05 -1.16696e-05)
(0.00235787 1.66096e-05 -1.23666e-05)
(0.00233156 2.00735e-05 -1.27805e-05)
(0.00225002 3.23763e-05 -1.96736e-05)
(0.00241863 1.15035e-05 -3.2594e-05)
(0.00246363 1.05081e-05 -2.90084e-05)
(0.00242794 9.7965e-06 -2.56217e-05)
(0.00244643 9.42388e-06 -2.28353e-05)
(0.00242568 1.12328e-05 -2.13276e-05)
(0.00245377 1.22129e-05 -2.01044e-05)
(0.00238591 1.99487e-05 -2.20324e-05)
(0.00235718 2.52748e-05 -2.33558e-05)
(0.00225234 4.24237e-05 -3.40635e-05)
(0.00240277 1.01624e-05 -3.40859e-05)
(0.0024184 8.6339e-06 -3.05254e-05)
(0.00240518 7.58037e-06 -2.78439e-05)
(0.0024034 7.45562e-06 -2.49407e-05)
(0.00240476 8.64477e-06 -2.47436e-05)
(0.00241271 1.16638e-05 -2.32272e-05)
(0.00235656 1.84643e-05 -2.66035e-05)
(0.00233467 2.66634e-05 -2.76668e-05)
(0.0022317 3.57292e-05 -3.88948e-05)
(0.00238087 9.50474e-06 -1.45281e-05)
(0.00240613 8.64474e-06 -9.93806e-06)
(0.00237392 7.65715e-06 -5.48774e-06)
(0.00238304 6.78279e-06 2.04092e-08)
(0.00232948 5.97799e-06 4.28588e-06)
(0.00231039 6.75329e-06 1.04553e-05)
(0.00222594 4.86164e-06 1.45645e-05)
(0.00238106 8.5042e-06 -2.4305e-05)
(0.00242367 8.14734e-06 -2.08457e-05)
(0.00238473 7.68971e-06 -1.72766e-05)
(0.00240543 7.02036e-06 -1.35281e-05)
(0.00238024 6.95687e-06 -9.82373e-06)
(0.00238236 7.67677e-06 -5.77741e-06)
(0.00232303 9.5704e-06 -2.98083e-06)
(0.00230764 1.36599e-05 1.36183e-06)
(0.00222094 1.84984e-05 3.11719e-06)
(0.00239304 8.56754e-06 -2.6501e-05)
(0.00243082 6.7251e-06 -2.35961e-05)
(0.00239157 6.07729e-06 -2.04508e-05)
(0.00240395 5.27068e-06 -1.72551e-05)
(0.00238701 6.0585e-06 -1.44862e-05)
(0.00240119 7.32026e-06 -1.13697e-05)
(0.00233882 1.11978e-05 -9.77206e-06)
(0.00230557 1.61632e-05 -7.22292e-06)
(0.00221669 2.39336e-05 -6.96492e-06)
(0.00237133 8.04334e-06 -2.79541e-05)
(0.00238887 5.86903e-06 -2.5064e-05)
(0.00236354 4.88365e-06 -2.24593e-05)
(0.00237406 3.94935e-06 -1.9525e-05)
(0.00234984 4.858e-06 -1.70317e-05)
(0.00235024 6.74826e-06 -1.46908e-05)
(0.00230085 1.08361e-05 -1.40235e-05)
(0.00227111 1.61559e-05 -1.23163e-05)
(0.00218871 2.09975e-05 -1.39575e-05)
(0.00236067 2.72049e-06 -1.90463e-06)
(0.00237431 1.53603e-06 3.68565e-06)
(0.00233177 -2.00012e-07 1.08195e-05)
(0.00231479 -1.08174e-06 1.8814e-05)
(0.00221965 -2.86331e-06 3.48083e-05)
(0.00238523 5.81568e-06 -1.92078e-05)
(0.00241526 5.24998e-06 -1.66325e-05)
(0.0023748 4.12635e-06 -1.37542e-05)
(0.00239264 2.85324e-06 -1.04233e-05)
(0.00236755 2.00555e-06 -6.60417e-06)
(0.00237721 1.31304e-06 -2.20094e-06)
(0.00232503 2.33948e-06 2.91003e-06)
(0.00231587 3.55939e-06 9.28353e-06)
(0.00222013 1.19124e-05 1.98122e-05)
(0.00239135 6.84127e-06 -2.11356e-05)
(0.00241636 5.04689e-06 -1.88824e-05)
(0.00238571 3.60011e-06 -1.64354e-05)
(0.00240855 1.8651e-06 -1.38763e-05)
(0.00238184 1.59722e-06 -1.04608e-05)
(0.00239284 6.59445e-07 -7.42199e-06)
(0.00233461 3.74208e-06 -2.95506e-06)
(0.00231823 4.99275e-06 8.2347e-07)
(0.00221382 1.50288e-05 9.35248e-06)
(0.00235856 6.68172e-06 -2.23261e-05)
(0.00237238 4.47132e-06 -1.99216e-05)
(0.0023521 2.70466e-06 -1.77951e-05)
(0.00237428 9.76342e-07 -1.52065e-05)
(0.0023478 3.60553e-07 -1.26398e-05)
(0.00235778 6.01069e-07 -1.00378e-05)
(0.00230313 2.62604e-06 -6.92253e-06)
(0.00227182 6.2117e-06 -3.85126e-06)
(0.00218285 9.38903e-06 2.03921e-06)
(0.00230765 -5.13622e-06 1.35563e-05)
(0.00230501 -5.3899e-06 2.30073e-05)
(0.00220245 -1.0412e-05 3.80677e-05)
(0.00235675 4.03371e-06 -1.6608e-05)
(0.00237323 3.16589e-06 -1.46282e-05)
(0.0023507 1.79486e-06 -1.22257e-05)
(0.00237279 2.61144e-07 -9.67138e-06)
(0.00233442 -1.09733e-06 -5.71187e-06)
(0.00233392 -1.85231e-06 -1.95381e-06)
(0.0022938 -2.31492e-06 3.90617e-06)
(0.00227809 -4.11348e-07 9.67056e-06)
(0.002188 1.07272e-06 1.95946e-05)
(0.0023522 5.58743e-06 -1.88493e-05)
(0.00236029 3.80162e-06 -1.71143e-05)
(0.0023476 2.09647e-06 -1.54958e-05)
(0.00238004 1.46387e-07 -1.38663e-05)
(0.00234262 -8.72685e-07 -1.12427e-05)
(0.0023301 -1.35682e-06 -7.74e-06)
(0.00229046 -4.83074e-07 -4.57051e-06)
(0.00227389 1.18824e-06 7.50378e-07)
(0.00218446 4.09145e-06 5.38227e-06)
(0.00233186 5.66136e-06 -2.02909e-05)
(0.00234751 3.55789e-06 -1.85138e-05)
(0.00233161 1.57778e-06 -1.7e-05)
(0.00236325 -4.19403e-07 -1.55111e-05)
(0.00233513 -1.79755e-06 -1.37828e-05)
(0.00230873 -1.28324e-06 -1.0395e-05)
(0.00226266 -6.05754e-07 -8.46466e-06)
(0.00223814 2.03329e-06 -3.84823e-06)
(0.00216321 6.37838e-07 -4.491e-06)
)
;

boundaryField
{
    inlet
    {
        type            zeroGradient;
    }
    outlet
    {
        type            zeroGradient;
    }
    wall
    {
        type            zeroGradient;
    }
    procBoundary7to0
    {
        type            processor;
        value           uniform (0.00240193 1.05412e-05 -3.41856e-05);
    }
    procBoundary7to1
    {
        type            processor;
        value           uniform (0.00241496 1.58423e-05 -2.85506e-05);
    }
    procBoundary7to3
    {
        type            processor;
        value           nonuniform List<vector> 
36
(
(0.00245809 1.83023e-05 -3.48509e-05)
(0.00249899 2.06541e-05 -2.91439e-05)
(0.00246731 2.01395e-05 -2.42404e-05)
(0.00249078 1.78085e-05 -1.93984e-05)
(0.00244498 1.51531e-05 -1.60985e-05)
(0.00245717 1.30187e-05 -1.28817e-05)
(0.00240046 1.17001e-05 -1.61011e-05)
(0.00237234 1.25506e-05 -1.9912e-05)
(0.00228793 1.05132e-05 -3.74215e-05)
(0.00245731 1.53223e-05 -3.54086e-05)
(0.00248137 1.58623e-05 -2.96714e-05)
(0.00245673 1.56003e-05 -2.51848e-05)
(0.00245446 1.48879e-05 -2.09688e-05)
(0.00242765 1.48491e-05 -1.81048e-05)
(0.00245501 1.67435e-05 -1.59631e-05)
(0.00240032 2.00628e-05 -1.9731e-05)
(0.0023806 2.75544e-05 -2.55463e-05)
(0.00228206 3.52274e-05 -4.08589e-05)
(0.0024648 1.38258e-05 -3.74513e-05)
(0.00250399 1.30567e-05 -3.27841e-05)
(0.0024725 1.24353e-05 -2.83558e-05)
(0.00248213 1.22776e-05 -2.46582e-05)
(0.00245913 1.41702e-05 -2.30596e-05)
(0.00248968 1.80656e-05 -2.31431e-05)
(0.00243442 2.60625e-05 -2.85558e-05)
(0.00240834 3.80064e-05 -3.82397e-05)
(0.00229769 5.64417e-05 -5.85174e-05)
(0.00243549 1.23686e-05 -3.83491e-05)
(0.00244575 1.09348e-05 -3.34674e-05)
(0.00243456 9.85881e-06 -2.99432e-05)
(0.00245426 9.46729e-06 -2.69769e-05)
(0.00245178 1.15836e-05 -2.67452e-05)
(0.00246856 1.56967e-05 -2.7023e-05)
(0.00240489 2.52161e-05 -3.4079e-05)
(0.00239463 3.79335e-05 -4.54616e-05)
(0.00229264 5.29869e-05 -6.78364e-05)
)
;
    }
    procBoundary7to5
    {
        type            processor;
        value           nonuniform List<vector> 
44
(
(0.00244873 1.96549e-05 -2.3389e-05)
(0.00241187 1.94295e-05 -1.83753e-05)
(0.00243674 1.76197e-05 -1.35517e-05)
(0.00239872 1.4088e-05 -9.3338e-06)
(0.00239755 1.07882e-05 -4.8801e-06)
(0.00234864 6.55579e-06 -2.97705e-06)
(0.00231876 2.58699e-06 -2.31151e-06)
(0.00224459 -3.25374e-06 -6.74121e-06)
(0.0023901 8.59932e-06 -2.26432e-05)
(0.00239967 9.57074e-06 -1.86822e-05)
(0.00238864 1.20945e-05 -1.25395e-05)
(0.00241562 1.1478e-05 -7.5241e-06)
(0.00237645 9.22574e-06 -2.62506e-06)
(0.00238873 6.89715e-06 3.4622e-06)
(0.00233227 2.82588e-06 9.12279e-06)
(0.00231346 -8.64566e-07 1.64767e-05)
(0.00223156 -8.64591e-06 2.26614e-05)
(0.0023901 8.59932e-06 -2.26432e-05)
(0.00239967 9.57074e-06 -1.86822e-05)
(0.00239967 9.57074e-06 -1.86822e-05)
(0.00238688 4.7637e-06 -1.05877e-05)
(0.00240709 3.88228e-06 -6.70065e-06)
(0.00239257 4.16929e-06 1.90926e-06)
(0.00239915 2.4385e-06 8.28312e-06)
(0.00234958 -1.5263e-06 1.69105e-05)
(0.00233811 -6.05424e-06 2.931e-05)
(0.00224715 -1.52962e-05 4.84306e-05)
(0.00237622 4.7824e-06 -1.72427e-05)
(0.00242306 5.33213e-06 -1.40968e-05)
(0.00238688 4.7637e-06 -1.05877e-05)
(0.00240709 3.88228e-06 -6.70065e-06)
(0.00240709 3.88228e-06 -6.70065e-06)
(0.00236043 -1.81796e-06 -4.61121e-08)
(0.00235003 -2.53875e-06 5.23502e-06)
(0.00233151 -4.83651e-06 2.01261e-05)
(0.00232142 -7.79167e-06 2.96144e-05)
(0.00222924 -1.74412e-05 5.26681e-05)
(0.00234801 2.47607e-06 -1.451e-05)
(0.00237505 2.52853e-06 -1.18013e-05)
(0.00235963 1.70373e-06 -8.76381e-06)
(0.00237586 5.09846e-07 -5.27393e-06)
(0.00236043 -1.81796e-06 -4.61121e-08)
(0.00235003 -2.53875e-06 5.23502e-06)
(0.00235003 -2.53875e-06 5.23502e-06)
)
;
    }
    procBoundary7to6
    {
        type            processor;
        value           nonuniform List<vector> 
12
(
(0.00243062 1.17831e-05 -3.51775e-05)
(0.00244886 1.30135e-05 -3.72712e-05)
(0.00240441 1.20967e-05 -3.77831e-05)
(0.0024177 8.48765e-06 -2.81746e-05)
(0.00243112 1.00805e-05 -3.01765e-05)
(0.00240008 1.02816e-05 -3.11879e-05)
(0.00241045 6.36315e-06 -2.17456e-05)
(0.00242597 9.1126e-06 -2.32027e-05)
(0.00238546 9.20168e-06 -2.45066e-05)
(0.00236927 4.785e-06 -1.84859e-05)
(0.00238016 7.4654e-06 -2.04351e-05)
(0.00236458 8.06778e-06 -2.1934e-05)
)
;
    }
}


// ************************************************************************* //
