/*--------------------------------*- C++ -*----------------------------------*\
| =========                 |                                                 |
| \\      /  F ield         | OpenFOAM: The Open Source CFD Toolbox           |
|  \\    /   O peration     | Version:  4.x                                   |
|   \\  /    A nd           | Web:      www.OpenFOAM.org                      |
|    \\/     M anipulation  |                                                 |
\*---------------------------------------------------------------------------*/
FoamFile
{
    version     2.0;
    format      ascii;
    class       volScalarField;
    location    "48";
    object      Ksl;
}
// * * * * * * * * * * * * * * * * * * * * * * * * * * * * * * * * * * * * * //

dimensions      [1 -3 -1 0 0 0 0];

internalField   nonuniform List<scalar> 
132
(
80305.5
3726.1
95512.1
3707.91
375740
3746.5
1.42904e+06
4138.02
24687.5
2.15631e+06
3794.36
1e+10
3835.79
136562
3952.61
21750.3
4225.81
7041.82
11910.3
3356.03
11928.1
3179.21
11606
2994.05
10945.1
2671.02
8409.93
6480.31
3016.55
6586.47
2895.38
7048.83
2790.96
8284.33
2563.16
9354.51
1e+10
3822.57
1e+10
3833.59
1e+10
4128.82
15939.6
1e+10
3960.68
1e+10
3868.19
1e+10
3772.53
1e+10
3713.02
28180.9
1e+10
3851.62
1e+10
3946.13
1e+10
4290.33
1e+10
5249.6
25416.6
11545.4
3499.46
20043.8
3646.15
99713.5
3983.96
1e+10
4914.91
32082.3
49642.9
3421.15
22460.4
3507.42
6886.67
245065
3732.81
1e+10
3723.31
530899
3761.99
34964.9
3942.2
7831.77
15204.2
3425.71
15649.5
3205.48
13944.4
2869.41
11163
2363.88
7126.33
6366.2
3051.73
6489.8
2964.41
6914.04
2770.87
7914.16
2332.08
9328.15
8526.86
2450.92
8308.6
8692.25
3283.48
9462.25
3261.38
10597
3227.7
13140.9
3186.57
20058.2
6658.57
3084.04
6934.46
3060.87
7719.06
2939.66
9245.85
2776.6
14691.5
5153.4
2894.55
5296.02
2921.68
5641.02
2908.49
5841.07
3075.57
5375.72
)
;

boundaryField
{
    inlet
    {
        type            zeroGradient;
    }
    outlet
    {
        type            zeroGradient;
    }
    wall
    {
        type            zeroGradient;
    }
    procBoundary7to0
    {
        type            processor;
        value           uniform 3736.07;
    }
    procBoundary7to1
    {
        type            processor;
        value           uniform 1e+10;
    }
    procBoundary7to3
    {
        type            processor;
        value           nonuniform List<scalar> 
36
(
28067.3
3635.42
33956.6
3575.58
29953
3560.62
20881.8
3718.32
8101.7
1e+10
4005.96
1e+10
3995.11
1e+10
4048.75
1e+10
4536.73
27424.6
88394.6
3712.69
1.93363e+06
3603.57
73784.3
3509.07
17684.3
3497.07
6026.15
7627.14
3220.15
8287.52
3169.86
9710.09
3055.49
11364
2582.83
11394.7
)
;
    }
    procBoundary7to5
    {
        type            processor;
        value           nonuniform List<scalar> 
44
(
4165.42
1e+10
4208.92
1e+10
4298.74
1e+10
4831.82
15185.2
1e+10
3842.08
1e+10
3681.38
133319
3549.86
31141.2
3596.8
12460
1e+10
3842.08
3842.08
91738.1
3510.54
1e+10
3859.24
40590.5
4112.54
7392.13
54049.8
3612.1
91738.1
3510.54
3510.54
8233.03
2805.96
7563.6
2309.19
7616.71
7405.26
3117.34
7663.01
3005.98
8233.03
2805.96
2805.96
)
;
    }
    procBoundary7to6
    {
        type            processor;
        value           nonuniform List<scalar> 
12
(
3791.63
3488.2
3129.33
4022.75
3822.05
3452.95
3757.93
3563.47
3158.72
3327.11
3179.44
2966.16
)
;
    }
}


// ************************************************************************* //
