/*--------------------------------*- C++ -*----------------------------------*\
| =========                 |                                                 |
| \\      /  F ield         | OpenFOAM: The Open Source CFD Toolbox           |
|  \\    /   O peration     | Version:  4.x                                   |
|   \\  /    A nd           | Web:      www.OpenFOAM.org                      |
|    \\/     M anipulation  |                                                 |
\*---------------------------------------------------------------------------*/
FoamFile
{
    version     2.0;
    format      ascii;
    class       surfaceScalarField;
    location    "48";
    object      phi;
}
// * * * * * * * * * * * * * * * * * * * * * * * * * * * * * * * * * * * * * //

dimensions      [0 3 -1 0 0 0 0];

internalField   nonuniform List<scalar> 
308
(
5.55893e-06
2.73897e-08
5.6377e-06
9.48006e-08
5.48942e-06
4.10783e-08
-5.71021e-08
5.48904e-06
9.96259e-08
7.52029e-08
5.19514e-06
5.47803e-08
-1.89575e-08
5.32309e-06
1.34589e-08
2.87877e-07
4.4403e-06
4.12538e-07
-5.8473e-09
5.2318e-06
-7.61231e-07
7.74169e-07
2.09329e-06
-5.08123e-08
5.25728e-06
1.58019e-07
-1.35305e-09
5.33255e-06
1.12132e-07
-1.9318e-08
5.15591e-06
2.17718e-07
-1.34337e-12
5.40554e-06
-1.3124e-08
5.44819e-08
5.03357e-06
4.28829e-07
-1.44839e-08
5.8388e-06
-4.54789e-07
1.88203e-07
5.12995e-06
1.12322e-06
-4.55693e-08
6.3034e-06
-1.51333e-06
3.36163e-07
3.48737e-06
2.10128e-07
7.66408e-06
6.35581e-08
-1.32661e-07
7.7632e-06
1.99917e-08
-6.47594e-08
7.89517e-06
8.77246e-08
-2.13068e-07
8.0247e-06
-1.25165e-07
-6.69395e-08
8.18282e-06
2.26763e-07
-3.65915e-07
8.24145e-06
-4.44757e-07
5.49275e-08
8.49632e-06
5.54933e-07
-6.12853e-07
8.27719e-06
-9.85149e-07
5.74752e-07
1.56518e-06
-8.71362e-07
9.66193e-06
-3.62016e-07
9.69645e-06
-2.69434e-07
9.76874e-06
-4.46767e-07
9.68778e-06
-1.98896e-07
9.73117e-06
-5.44161e-07
9.31657e-06
1.10167e-07
9.50108e-06
-8.50841e-07
8.69544e-06
7.48205e-07
-1.50826e-06
5.07332e-06
-6.65836e-13
5.14619e-06
-8.33632e-08
4.97976e-06
-6.42867e-13
1.05222e-07
5.06437e-06
5.50869e-08
1.42349e-07
4.44514e-06
-4.28069e-13
3.87143e-07
5.65892e-06
5.26372e-07
-2.60082e-07
-3.46685e-07
2.26531e-06
4.95503e-06
1.0189e-12
9.55043e-09
5.01564e-06
-1.57107e-07
1.48035e-10
5.01563e-06
1.21036e-12
1.2693e-12
5.0875e-06
-1.37751e-07
3.70014e-08
5.06466e-06
1.22016e-12
8.3536e-09
5.14797e-06
1.06078e-07
5.38974e-08
4.96737e-06
5.84257e-13
1.35032e-07
5.74186e-06
2.09001e-07
-1.20959e-07
-2.23846e-07
7.31661e-07
5.12344e-06
-1.52831e-08
2.86588e-08
5.18603e-06
-2.76145e-07
-8.31548e-09
4.93722e-06
-1.61138e-08
5.18543e-08
5.01117e-06
-3.0495e-07
2.63114e-08
4.46785e-06
1.11232e-09
1.76293e-07
4.5519e-06
-9.24006e-09
8.62006e-08
3.49459e-06
2.63503e-13
4.44449e-07
4.33054e-06
8.1922e-08
-1.34112e-07
-9.98893e-08
1.53124e-06
7.22959e-06
-9.89197e-08
6.62222e-06
6.1785e-08
6.20872e-06
-4.93785e-08
5.58672e-06
1.18161e-07
4.90978e-06
1.33884e-07
4.84591e-06
1.64803e-07
3.69251e-06
3.02552e-07
4.38782e-06
1.34818e-07
1.39084e-06
5.90754e-06
-1.85428e-08
6.4489e-06
-8.98266e-08
5.96e-06
9.01562e-08
6.84732e-07
7.04117e-06
-4.93424e-07
-7.61988e-07
1.19872e-06
3.07541e-06
5.29213e-06
6.21626e-08
4.09793e-08
5.30268e-06
6.1763e-08
-6.68318e-10
5.19713e-06
7.66159e-08
2.07046e-08
5.34191e-06
-8.11134e-08
-2.97847e-08
5.06926e-06
1.79005e-07
8.34635e-08
5.69882e-06
-4.41675e-07
-2.23817e-07
5.1081e-06
5.80789e-07
2.35118e-07
6.4934e-06
-1.28704e-06
-7.12648e-07
2.83078e-06
9.47335e-07
6.99752e-06
4.63372e-08
-3.21003e-09
7.07139e-06
1.1027e-08
-3.14458e-08
7.28446e-06
-9.78952e-09
-7.48137e-08
7.5562e-06
-1.56616e-07
-1.69919e-07
8.00717e-06
-1.22974e-08
-8.33817e-08
8.3894e-06
-4.68195e-07
-2.69507e-07
9.33152e-06
1.38501e-07
-5.53815e-08
9.2891e-06
-9.00527e-07
-4.78205e-07
1.2064e-06
9.19737e-07
9.39751e-06
-4.74727e-08
9.4192e-06
5.11228e-08
9.43248e-06
-7.24486e-08
9.37908e-06
1.49402e-08
9.61729e-06
-1.16628e-07
9.35561e-06
-4.17059e-08
1.0133e-05
-3.36383e-07
9.39053e-06
-2.31983e-08
9.43774e-08
9.61717e-06
-8.56987e-07
9.11269e-06
2.432e-07
-1.56026e-06
8.09965e-06
-3.70481e-08
8.01369e-06
-4.03655e-08
7.85972e-06
-9.24048e-08
7.77674e-06
-1.13207e-07
7.61238e-06
-1.93068e-07
7.38853e-06
-1.47345e-07
7.07091e-06
-3.04251e-07
6.66572e-06
-6.42535e-08
-4.41827e-07
9.14973e-06
-3.89783e-08
9.13144e-06
-5.35193e-08
9.05333e-06
-8.91073e-08
8.88881e-06
-1.18607e-07
8.82138e-06
-2.09017e-07
8.48541e-06
-8.08837e-08
8.5042e-06
-3.78418e-07
7.83974e-06
1.21997e-07
-9.83381e-07
1.03498e-05
1.03474e-05
1.01859e-05
1.00822e-05
9.75655e-06
9.63396e-06
8.91916e-06
9.01796e-06
)
;

boundaryField
{
    inlet
    {
        type            calculated;
        value           nonuniform 0();
    }
    outlet
    {
        type            calculated;
        value           nonuniform List<scalar> 
16
(
1.55475e-06
4.79259e-06
8.89315e-06
9.25822e-06
2.85457e-06
5.09749e-06
1.80398e-06
1.38883e-06
4.38009e-06
4.64567e-06
1.1525e-05
1.18934e-05
1.21318e-05
6.49462e-06
9.30103e-06
8.12895e-06
)
;
    }
    wall
    {
        type            calculated;
        value           nonuniform List<scalar> 
66
(
0
0
0
0
0
-1.92593e-34
0
0
0
0
0
0
0
0
0
0
0
0
0
0
1.2326e-32
0
0
0
0
3.08149e-33
0
0
0
0
0
0
0
0
0
0
0
0
0
0
0
0
0
0
0
0
0
0
0
0
3.08149e-33
-2.46519e-32
0
0
0
0
0
0
0
-3.08149e-33
0
0
0
0
0
0
)
;
    }
    procBoundary7to0
    {
        type            processor;
        value           uniform -5.69325e-06;
    }
    procBoundary7to1
    {
        type            processor;
        value           uniform -2.73871e-08;
    }
    procBoundary7to3
    {
        type            processor;
        value           nonuniform List<scalar> 
36
(
1.77523e-07
4.39481e-08
2.06767e-07
-3.74445e-08
2.73068e-07
-3.62961e-07
4.81758e-07
-1.30463e-06
1.92538e-06
6.36159e-10
-7.32904e-08
-8.57754e-13
-1.91359e-07
1.24056e-08
-5.25185e-07
4.37365e-08
-7.57512e-07
-9.33895e-08
1.43389e-07
5.77772e-08
2.11096e-07
4.94529e-08
4.09856e-07
-1.23589e-07
9.2628e-07
-8.83813e-07
2.1776e-06
3.55117e-07
2.54907e-07
4.62208e-07
1.54687e-07
7.27535e-07
-1.40324e-07
1.22127e-06
-9.2772e-07
2.51067e-06
)
;
    }
    procBoundary7to5
    {
        type            processor;
        value           nonuniform List<scalar> 
44
(
-1.77624e-07
-4.24709e-08
-1.37e-07
-1.4996e-08
-6.63168e-08
-5.66145e-09
5.00199e-07
-2.90814e-07
-4.31985e-08
-3.98952e-08
3.54976e-13
2.23747e-08
4.22536e-08
5.82773e-09
2.26241e-07
-7.059e-07
8.34905e-07
6.21867e-13
-5.16432e-06
7.70366e-08
3.389e-08
6.33275e-08
1.87397e-08
-1.55591e-07
1.01152e-07
-8.58372e-08
6.52254e-07
1.38925e-08
-7.14992e-08
8.23174e-09
-5.99774e-06
3.11403e-09
1.95225e-07
-1.53587e-07
8.74342e-07
-5.00709e-07
1.61652e-06
1.71125e-07
1.25661e-07
2.6708e-07
1.664e-07
4.40897e-07
-8.94979e-06
1.47374e-07
)
;
    }
    procBoundary7to6
    {
        type            processor;
        value           nonuniform List<scalar> 
12
(
-5.38719e-06
-7.58035e-06
-9.59148e-06
-4.96594e-06
-5.26947e-06
-7.50797e-06
-5.39961e-06
-6.94983e-06
-9.40262e-06
-8.19275e-06
-9.15101e-06
-1.04363e-05
)
;
    }
}


// ************************************************************************* //
