/*--------------------------------*- C++ -*----------------------------------*\
| =========                 |                                                 |
| \\      /  F ield         | OpenFOAM: The Open Source CFD Toolbox           |
|  \\    /   O peration     | Version:  4.x                                   |
|   \\  /    A nd           | Web:      www.OpenFOAM.org                      |
|    \\/     M anipulation  |                                                 |
\*---------------------------------------------------------------------------*/
FoamFile
{
    version     2.0;
    format      ascii;
    class       volScalarField;
    location    "48";
    object      QPartFluid;
}
// * * * * * * * * * * * * * * * * * * * * * * * * * * * * * * * * * * * * * //

dimensions      [1 -1 -3 0 0 0 0];

internalField   nonuniform List<scalar> 
132
(
1.01277e+10
9.17593e+09
6.48529e+09
7.99156e+09
1.11229e+10
1.25528e+10
8.01656e+09
6.54705e+09
6.15013e+09
7.4899e+09
1.14592e+10
7.45384e+09
8.18541e+09
8.39426e+09
6.96462e+09
7.88354e+09
7.6838e+09
6.84315e+09
5.34492e+09
9.47024e+09
6.99104e+09
9.03184e+09
8.43763e+09
1.05773e+10
8.68386e+09
9.19234e+09
6.9386e+09
7.08315e+09
7.54369e+09
8.99984e+09
5.99103e+09
7.96058e+09
8.07454e+09
8.04738e+09
7.05848e+09
3.64642e+09
6.55356e+09
8.6445e+09
6.99862e+09
8.21742e+09
8.82765e+09
9.89882e+09
6.08596e+09
3.8538e+09
1.01044e+10
7.33792e+09
8.88131e+09
8.66555e+09
8.3271e+09
5.70563e+09
9.07256e+09
4.59913e+09
6.01505e+09
1.01362e+10
7.51915e+09
7.30577e+09
8.19713e+09
1.04994e+10
9.50824e+09
8.3478e+09
6.19337e+09
6.62889e+09
8.60604e+09
5.83662e+09
7.96662e+09
6.64792e+09
6.56605e+09
5.38881e+09
8.3488e+09
4.03249e+09
5.01957e+09
7.29647e+09
8.2593e+09
7.67833e+09
4.66618e+09
8.57985e+09
9.16115e+09
7.09263e+09
6.53793e+09
9.17649e+09
8.87574e+09
7.87819e+09
1.0819e+10
6.93625e+09
8.20024e+09
9.51793e+09
8.66698e+09
9.05457e+09
9.34485e+09
1.00067e+10
8.98452e+09
9.45922e+09
6.93021e+09
6.04176e+09
7.33348e+09
7.2116e+09
8.12803e+09
6.47847e+09
6.891e+09
8.22554e+09
8.39056e+09
5.21035e+09
5.89867e+09
8.12206e+09
4.89119e+09
7.33433e+09
7.02538e+09
7.57154e+09
8.67624e+09
5.22653e+09
4.94897e+09
6.97547e+09
7.77414e+09
4.32379e+09
6.34587e+09
6.80802e+09
6.3662e+09
7.81523e+09
7.37331e+09
7.20943e+09
7.61184e+09
7.74534e+09
5.97881e+09
6.09208e+09
8.29562e+09
5.90975e+09
7.1681e+09
7.34429e+09
7.02715e+09
6.54181e+09
7.10991e+09
3.66928e+09
)
;

boundaryField
{
    inlet
    {
        type            calculated;
        value           nonuniform 0();
    }
    outlet
    {
        type            calculated;
        value           uniform 0;
    }
    wall
    {
        type            calculated;
        value           uniform 0;
    }
    procBoundary7to0
    {
        type            processor;
        value           uniform 2.62115e+09;
    }
    procBoundary7to1
    {
        type            processor;
        value           uniform 5.89932e+09;
    }
    procBoundary7to3
    {
        type            processor;
        value           nonuniform List<scalar> 
36
(
8.26454e+09
1.10382e+10
9.29212e+09
1.03959e+10
6.64593e+09
7.87536e+09
9.20443e+09
8.48536e+09
7.01568e+09
9.55366e+09
6.13827e+09
8.1605e+09
5.02009e+09
4.38206e+09
9.43164e+09
7.62806e+09
1.05799e+10
5.12519e+09
6.03034e+09
1.03087e+10
9.18036e+09
7.27594e+09
7.39708e+09
9.9924e+09
8.11198e+09
9.31812e+09
5.03426e+09
8.74793e+09
4.86417e+09
5.76865e+09
6.96407e+09
6.42218e+09
8.56427e+09
6.30378e+09
9.54263e+09
7.52092e+09
)
;
    }
    procBoundary7to5
    {
        type            processor;
        value           nonuniform List<scalar> 
44
(
9.95786e+09
6.14962e+09
8.71811e+09
5.89016e+09
5.32118e+09
7.4692e+09
6.25936e+09
6.64572e+09
1.02788e+10
5.07224e+09
7.286e+09
9.11817e+09
6.20225e+09
8.44368e+09
7.33692e+09
8.14228e+09
4.51247e+09
1.02788e+10
5.07224e+09
5.07224e+09
9.54548e+09
9.98578e+09
1.13679e+10
9.27579e+09
9.05983e+09
1.10078e+10
8.27023e+09
5.30054e+09
1.17414e+10
9.54548e+09
9.98578e+09
9.98578e+09
1.04336e+10
8.56156e+09
7.04502e+09
8.23768e+09
6.46312e+09
7.20313e+09
6.49013e+09
7.34619e+09
6.7529e+09
1.04336e+10
8.56156e+09
8.56156e+09
)
;
    }
    procBoundary7to6
    {
        type            processor;
        value           nonuniform List<scalar> 
12
(
8.11418e+09
8.97309e+09
5.62772e+09
9.9649e+09
9.38827e+09
8.74819e+09
9.57439e+09
9.9871e+09
6.8777e+09
4.54626e+09
8.4873e+09
7.19019e+09
)
;
    }
}


// ************************************************************************* //
