/*--------------------------------*- C++ -*----------------------------------*\
| =========                 |                                                 |
| \\      /  F ield         | OpenFOAM: The Open Source CFD Toolbox           |
|  \\    /   O peration     | Version:  4.x                                   |
|   \\  /    A nd           | Web:      www.OpenFOAM.org                      |
|    \\/     M anipulation  |                                                 |
\*---------------------------------------------------------------------------*/
FoamFile
{
    version     2.0;
    format      ascii;
    class       volScalarField;
    location    "48";
    object      QWallFluidCoeff;
}
// * * * * * * * * * * * * * * * * * * * * * * * * * * * * * * * * * * * * * //

dimensions      [1 -1 -3 -1 0 0 0];

internalField   nonuniform List<scalar> 
132
(
0
0
0
0
0
0
0
0
0
0
0
0
0
0
0
0
0
0
0
0
0
0
0
0
0
0
0
-1.65205e+06
-3.04776e+06
-1.61531e+06
-3.12669e+06
-1.52616e+06
-3.20393e+06
-1.31324e+06
-3.34883e+06
-1.15366e+06
0
0
0
0
0
0
0
0
0
0
0
0
0
0
0
0
0
0
0
0
0
0
0
0
0
-1.02341e+06
-2.65699e+06
-652514
-2.55219e+06
-178784
-2.35094e+06
-17.5989
-1.92918e+06
-421277
0
0
0
0
0
0
0
0
0
0
0
0
0
0
0
0
0
0
0
0
0
0
0
-1.64288e+06
-2.9531e+06
-1.59847e+06
-3.00958e+06
-1.51359e+06
-3.15717e+06
-1.33033e+06
-3.50664e+06
-1.12546e+06
-1.25833e+06
-3.40749e+06
-1.23949e+06
-1.27237e+06
-2.78199e+06
-1.17563e+06
-2.77578e+06
-1.06961e+06
-2.77692e+06
-885105
-2.73454e+06
-610075
-1.57706e+06
-2.91749e+06
-1.51517e+06
-2.9406e+06
-1.38082e+06
-2.97687e+06
-1.17016e+06
-3.05331e+06
-780134
-3.85536e+06
-6.10747e+06
-3.75145e+06
-6.09102e+06
-3.55022e+06
-5.97027e+06
-3.3579e+06
-5.58092e+06
-3.5048e+06
)
;

boundaryField
{
    inlet
    {
        type            calculated;
        value           nonuniform 0();
    }
    outlet
    {
        type            calculated;
        value           uniform 0;
    }
    wall
    {
        type            calculated;
        value           uniform 0;
    }
    procBoundary7to0
    {
        type            processor;
        value           uniform 0;
    }
    procBoundary7to1
    {
        type            processor;
        value           uniform 0;
    }
    procBoundary7to3
    {
        type            processor;
        value           uniform 0;
    }
    procBoundary7to5
    {
        type            processor;
        value           uniform 0;
    }
    procBoundary7to6
    {
        type            processor;
        value           uniform 0;
    }
}


// ************************************************************************* //
