/*--------------------------------*- C++ -*----------------------------------*\
| =========                 |                                                 |
| \\      /  F ield         | OpenFOAM: The Open Source CFD Toolbox           |
|  \\    /   O peration     | Version:  4.x                                   |
|   \\  /    A nd           | Web:      www.OpenFOAM.org                      |
|    \\/     M anipulation  |                                                 |
\*---------------------------------------------------------------------------*/
FoamFile
{
    version     2.0;
    format      ascii;
    class       volVectorField;
    location    "48";
    object      Us;
}
// * * * * * * * * * * * * * * * * * * * * * * * * * * * * * * * * * * * * * //

dimensions      [0 1 -1 0 0 0 0];

internalField   nonuniform List<vector> 
132
(
(2.34887e-09 1.97449e-10 1.45289e-09)
(2.65506e-09 1.99572e-10 1.36775e-09)
(2.92938e-09 5.74905e-10 1.70663e-09)
(2.94383e-09 2.88871e-10 4.6053e-10)
(2.66334e-09 1.53232e-10 -7.68955e-11)
(2.18821e-09 1.20112e-10 -1.0286e-09)
(1.52099e-09 2.43149e-10 -1.28548e-09)
(1.21929e-09 3.31102e-10 -1.44258e-09)
(4.71827e-10 3.89304e-11 -4.62813e-10)
(2.13522e-09 -2.50527e-10 6.51803e-10)
(2.59006e-09 -4.86838e-11 6.7135e-10)
(2.72856e-09 6.7223e-11 6.72314e-10)
(2.96406e-09 2.0791e-10 3.70839e-10)
(2.40517e-09 8.02008e-11 -5.63117e-13)
(1.89656e-09 1.41037e-10 -4.31784e-10)
(1.60309e-09 1.19916e-10 -7.49036e-10)
(1.08667e-09 2.31967e-10 -1.21292e-09)
(3.93793e-10 2.31363e-10 -5.45195e-10)
(1.65982e-09 -1.41402e-11 2.5571e-10)
(2.0187e-09 -2.54071e-10 2.44344e-10)
(1.90043e-09 1.22719e-10 5.91509e-10)
(1.67739e-09 3.15247e-10 4.51318e-10)
(1.48155e-09 1.18921e-10 1.30048e-10)
(9.99798e-10 2.02403e-10 5.03054e-11)
(5.98785e-10 1.36156e-10 -6.45098e-10)
(7.32031e-10 2.59981e-10 -1.43928e-09)
(-4.11767e-10 1.72115e-10 -7.35172e-10)
(6.49211e-10 -1.49919e-10 1.18853e-10)
(9.954e-10 -2.3986e-10 1.81703e-10)
(8.65247e-10 9.04001e-11 3.16284e-10)
(7.35937e-10 1.80123e-10 3.7043e-10)
(5.1367e-10 8.59464e-11 2.94663e-10)
(3.10845e-10 1.5909e-10 3.83622e-10)
(8.1996e-11 1.28959e-11 -3.92463e-10)
(2.22905e-10 8.54007e-11 -1.16708e-09)
(-2.68796e-10 2.17402e-11 -1.32333e-10)
(2.64498e-09 1.64406e-10 8.74187e-10)
(2.5386e-09 3.9136e-10 4.60965e-10)
(2.01749e-09 2.40982e-10 -3.3846e-11)
(1.74326e-09 5.78891e-10 -4.97946e-10)
(1.07699e-09 6.20197e-10 -8.30096e-10)
(7.66877e-10 6.38648e-10 -1.00981e-09)
(1.86671e-10 3.99262e-10 -2.30588e-10)
(2.06529e-09 7.60727e-11 4.73286e-10)
(2.31656e-09 1.70327e-10 5.66149e-10)
(2.59309e-09 -1.42079e-11 5.29342e-10)
(2.72079e-09 4.68272e-10 2.02549e-10)
(2.48101e-09 4.74002e-10 2.12936e-10)
(1.77299e-09 8.2292e-10 -2.16777e-10)
(1.45944e-09 4.7111e-10 -5.62395e-10)
(1.16525e-09 4.79692e-10 -5.78704e-10)
(1.08463e-12 3.0958e-10 -4.02155e-11)
(1.74329e-09 3.21929e-11 2.51401e-10)
(1.6949e-09 -8.22879e-11 3.41962e-10)
(1.90697e-09 3.11684e-10 6.22433e-10)
(2.18309e-09 4.47293e-10 3.93307e-10)
(2.30984e-09 9.65164e-10 2.43912e-10)
(2.24531e-09 1.74831e-09 7.33035e-11)
(1.84395e-09 3.33289e-10 -2.6532e-10)
(1.05173e-09 1.80931e-10 -5.55625e-10)
(-7.88306e-10 -2.44604e-10 -1.19856e-11)
(4.98859e-10 -2.81095e-10 1.19516e-10)
(7.02249e-10 -2.2255e-10 2.73605e-10)
(7.1012e-10 2.65805e-10 4.78611e-10)
(1.25291e-09 2.17778e-10 3.6439e-10)
(1.33666e-09 3.66797e-10 2.25531e-10)
(1.18776e-09 8.85667e-10 4.22935e-10)
(6.8965e-10 3.51379e-10 -1.40441e-10)
(5.58916e-10 -9.01311e-11 -4.91864e-10)
(-4.17806e-10 -1.38442e-12 -1.81791e-11)
(1.54876e-09 4.66879e-10 3.46036e-11)
(1.07782e-09 4.96207e-10 -2.62104e-10)
(4.02593e-10 5.28274e-10 -5.38224e-10)
(2.36898e-10 6.08338e-10 -2.98922e-10)
(1.31838e-10 5.14702e-10 -3.85069e-11)
(1.85092e-09 2.4897e-10 3.69502e-10)
(2.14589e-09 4.31704e-10 2.7205e-10)
(2.07414e-09 2.32094e-10 1.87014e-10)
(1.81419e-09 5.6428e-10 3.60273e-11)
(1.71352e-09 5.99749e-10 7.24092e-12)
(1.40112e-09 7.80472e-10 -3.45116e-10)
(1.12555e-09 5.16748e-10 -4.21347e-10)
(6.94865e-10 2.0665e-10 -1.40608e-11)
(9.44541e-11 3.55352e-10 1.55822e-10)
(1.62047e-09 8.52084e-11 1.51469e-10)
(1.94102e-09 1.70334e-10 3.89013e-10)
(2.17055e-09 4.15138e-10 1.33205e-10)
(2.0311e-09 8.01512e-10 8.98264e-11)
(2.19364e-09 8.9542e-10 2.69294e-10)
(2.46931e-09 1.10432e-09 -9.51833e-11)
(2.07075e-09 5.10128e-10 -1.78524e-10)
(1.8477e-09 1.42441e-10 2.54696e-10)
(1.0185e-09 2.09103e-10 -2.36443e-10)
(8.71985e-10 -1.21297e-10 3.40791e-11)
(9.06925e-10 -1.07907e-11 1.39763e-10)
(1.23227e-09 5.71594e-11 1.10427e-10)
(1.86388e-09 3.2401e-10 2.34449e-10)
(1.6613e-09 4.72295e-10 1.87049e-10)
(2.41386e-09 6.90057e-10 3.65623e-10)
(1.77386e-09 3.8493e-10 1.46358e-10)
(1.2238e-09 1.39443e-10 8.74064e-11)
(7.04663e-10 3.70935e-10 -5.58124e-11)
(2.79519e-10 3.28678e-10 -1.23418e-10)
(6.00034e-11 7.26414e-10 -9.86912e-11)
(4.97864e-12 1.59305e-09 2.86127e-10)
(8.77394e-10 1.86204e-10 1.37394e-10)
(1.04966e-09 3.65247e-10 3.02077e-11)
(1.05502e-09 1.84433e-10 -2.73876e-11)
(9.66188e-10 3.35566e-10 -1.60266e-11)
(8.4001e-10 4.42981e-10 2.70206e-11)
(7.50655e-10 5.00968e-10 -1.86289e-10)
(4.31862e-10 2.88488e-10 -2.01978e-11)
(-4.87999e-10 1.18976e-10 1.59472e-10)
(-4.59981e-10 1.79558e-10 2.81484e-10)
(7.77716e-10 3.59004e-10 6.33406e-11)
(9.08954e-10 2.55725e-10 5.36845e-11)
(1.12867e-09 3.45318e-10 -1.41482e-10)
(1.16429e-09 4.61807e-10 1.41709e-11)
(1.26797e-09 5.19112e-10 1.25869e-10)
(9.71759e-10 4.80655e-10 -9.21097e-11)
(6.54515e-10 3.67878e-10 -1.9177e-10)
(7.87384e-10 6.99965e-11 2.36208e-10)
(8.16339e-10 3.67752e-10 -5.31744e-10)
(5.43066e-10 -1.45192e-10 1.19619e-11)
(7.0456e-10 -2.4756e-12 9.49518e-12)
(8.94251e-10 5.79501e-11 -3.74187e-12)
(1.20272e-09 2.28916e-10 7.38339e-11)
(1.57562e-09 -7.45693e-09 -3.6205e-11)
(1.04541e-09 3.68675e-10 2.05208e-10)
(1.03449e-09 2.1403e-10 -1.82388e-11)
(1.98677e-09 2.97836e-10 1.52309e-10)
(-8.85632e-10 4.47897e-09 1.91818e-10)
)
;

boundaryField
{
    inlet
    {
        type            zeroGradient;
    }
    outlet
    {
        type            zeroGradient;
    }
    wall
    {
        type            zeroGradient;
    }
    procBoundary7to0
    {
        type            processor;
        value           uniform (1.66071e-09 2.3851e-10 1.14728e-09);
    }
    procBoundary7to1
    {
        type            processor;
        value           uniform (1.04188e-09 5.2206e-10 2.06286e-09);
    }
    procBoundary7to3
    {
        type            processor;
        value           nonuniform List<vector> 
36
(
(2.33529e-09 -4.3228e-10 1.35953e-09)
(2.5286e-09 -3.21755e-10 1.7342e-09)
(2.48107e-09 6.50028e-10 2.27861e-09)
(2.77352e-09 -7.26209e-10 6.9603e-10)
(2.75873e-09 -8.5399e-10 -1.78962e-10)
(2.57474e-09 -3.02815e-10 -1.15678e-09)
(2.2174e-09 -2.24934e-10 -1.79167e-09)
(1.82312e-09 -1.22901e-10 -1.52097e-09)
(1.30371e-09 -2.36412e-10 -8.41529e-10)
(1.86304e-09 -5.33555e-10 7.55631e-10)
(2.29613e-09 -7.27613e-10 5.21083e-10)
(2.74115e-09 -2.29951e-10 6.01786e-10)
(2.35795e-09 -4.58787e-10 2.02381e-10)
(2.16343e-09 -5.22448e-10 -3.21475e-10)
(1.85787e-09 -2.8695e-10 -7.06305e-10)
(1.3687e-09 -1.44862e-10 -1.31756e-09)
(8.44187e-10 1.03339e-10 -1.74644e-09)
(3.10192e-10 -5.16065e-11 -8.99749e-10)
(1.53583e-09 -4.68365e-10 3.73608e-10)
(1.7547e-09 -6.32703e-10 2.87279e-10)
(1.62535e-09 -1.51858e-10 3.77316e-10)
(9.62816e-10 -4.93821e-10 3.465e-10)
(9.72718e-10 -2.9822e-10 4.6287e-11)
(5.12662e-10 -8.38537e-11 -1.51042e-10)
(-3.33038e-10 -2.16498e-10 -7.80428e-10)
(-1.34005e-10 3.3771e-11 -2.51679e-09)
(-1.11601e-10 -4.4375e-10 -2.62385e-09)
(7.95338e-10 -3.73144e-10 2.34343e-10)
(8.96391e-10 -3.80871e-10 1.26474e-10)
(8.49263e-10 -3.45762e-10 2.20734e-10)
(3.75747e-10 8.30826e-11 1.81736e-10)
(1.77704e-10 -1.44053e-10 4.73844e-11)
(-9.8679e-11 2.83271e-11 5.435e-11)
(-7.86988e-10 1.63169e-11 -6.0947e-10)
(-1.00504e-09 -3.82371e-10 -2.30269e-09)
(-5.64809e-10 -1.38867e-09 -4.36329e-09)
)
;
    }
    procBoundary7to5
    {
        type            processor;
        value           nonuniform List<vector> 
44
(
(2.22206e-09 4.69156e-10 2.95065e-09)
(2.93391e-09 9.28292e-10 2.64031e-09)
(3.1391e-09 4.10235e-10 1.24139e-09)
(2.54547e-09 1.04007e-10 2.3035e-10)
(2.02335e-09 7.34575e-11 -4.79969e-10)
(1.47341e-09 2.3833e-10 -1.02285e-09)
(1.16005e-09 8.84345e-11 -1.51225e-09)
(4.92859e-10 -3.54474e-12 -7.07278e-10)
(2.06805e-09 4.51987e-10 9.2539e-10)
(2.37629e-09 2.40597e-10 1.04833e-09)
(2.59908e-09 5.01563e-10 1.84262e-09)
(2.66528e-09 4.83877e-10 8.4803e-10)
(2.22377e-09 2.20271e-10 -4.06235e-11)
(1.58885e-09 3.16215e-10 -4.0103e-10)
(1.19179e-09 4.51552e-10 -9.25155e-10)
(5.42165e-10 5.63415e-10 -1.1946e-09)
(-2.43102e-11 3.31146e-10 -7.73968e-10)
(2.06805e-09 4.51987e-10 9.2539e-10)
(2.37629e-09 2.40597e-10 1.04833e-09)
(2.37629e-09 2.40597e-10 1.04833e-09)
(2.20077e-09 3.08054e-10 3.58959e-10)
(1.77393e-09 4.27167e-10 1.50595e-10)
(1.61656e-09 1.45822e-10 -3.07209e-11)
(1.00299e-09 3.6484e-10 -2.02461e-10)
(3.14537e-10 5.9362e-10 -6.70013e-10)
(-9.69392e-11 9.18685e-10 -9.7145e-10)
(-2.08359e-10 1.0897e-09 -1.21955e-09)
(2.01339e-09 4.74353e-10 3.30114e-10)
(2.12498e-09 4.39644e-10 4.9833e-10)
(2.20077e-09 3.08054e-10 3.58959e-10)
(1.77393e-09 4.27167e-10 1.50595e-10)
(1.77393e-09 4.27167e-10 1.50595e-10)
(9.94705e-10 3.11198e-10 -3.81091e-11)
(5.69457e-10 2.45143e-10 -2.6598e-11)
(2.07184e-10 4.73727e-10 -2.40085e-10)
(-2.31354e-10 8.55236e-10 -4.30321e-10)
(-2.87597e-11 1.52052e-09 -6.79664e-10)
(1.35818e-09 2.82407e-10 5.41665e-11)
(1.40625e-09 2.77048e-10 1.06638e-10)
(1.40798e-09 -5.51036e-10 1.08442e-11)
(1.1159e-09 7.53872e-11 4.06759e-11)
(9.94705e-10 3.11198e-10 -3.81091e-11)
(5.69457e-10 2.45143e-10 -2.6598e-11)
(5.69457e-10 2.45143e-10 -2.6598e-11)
)
;
    }
    procBoundary7to6
    {
        type            processor;
        value           nonuniform List<vector> 
12
(
(1.70897e-09 2.45558e-10 4.45581e-10)
(1.37089e-09 -2.01188e-10 2.74532e-10)
(3.85352e-10 -1.39124e-10 8.80279e-11)
(1.91073e-09 2.07269e-10 3.61029e-10)
(1.42695e-09 -1.74721e-10 2.29468e-10)
(2.51156e-10 -2.66366e-10 5.05508e-11)
(1.54935e-09 2.17493e-10 3.166e-10)
(1.58798e-09 1.84314e-10 5.0161e-11)
(6.6347e-10 3.93284e-11 -7.89415e-11)
(9.01075e-10 1.31274e-10 1.37371e-10)
(9.29619e-10 4.44896e-10 -7.70029e-11)
(5.25525e-10 1.26431e-10 -1.63125e-10)
)
;
    }
}


// ************************************************************************* //
