/*--------------------------------*- C++ -*----------------------------------*\
| =========                 |                                                 |
| \\      /  F ield         | OpenFOAM: The Open Source CFD Toolbox           |
|  \\    /   O peration     | Version:  4.x                                   |
|   \\  /    A nd           | Web:      www.OpenFOAM.org                      |
|    \\/     M anipulation  |                                                 |
\*---------------------------------------------------------------------------*/
FoamFile
{
    version     2.0;
    format      ascii;
    class       volScalarField;
    location    "6";
    object      Deff;
}
// * * * * * * * * * * * * * * * * * * * * * * * * * * * * * * * * * * * * * //

dimensions      [0 2 -1 0 0 0 0];

internalField   nonuniform List<scalar> 
108
(
9.88694e-08
9.8912e-08
9.87747e-08
9.88949e-08
9.88618e-08
9.88968e-08
9.87523e-08
9.8757e-08
9.8722e-08
9.88913e-08
9.86973e-08
9.87814e-08
9.88142e-08
9.87799e-08
9.88293e-08
9.86709e-08
9.86632e-08
9.86464e-08
9.89321e-08
9.88325e-08
9.87567e-08
9.88329e-08
9.87877e-08
9.88228e-08
9.86911e-08
9.86662e-08
9.87325e-08
9.90953e-08
9.90565e-08
9.89327e-08
9.87932e-08
9.88244e-08
9.88231e-08
9.88504e-08
9.87162e-08
9.8772e-08
9.84585e-08
9.84496e-08
9.82786e-08
9.82914e-08
9.83401e-08
9.83644e-08
9.82895e-08
9.8255e-08
9.81834e-08
9.84958e-08
9.84321e-08
9.83208e-08
9.83445e-08
9.83627e-08
9.83398e-08
9.81869e-08
9.82079e-08
9.822e-08
9.84067e-08
9.84236e-08
9.83666e-08
9.83326e-08
9.8355e-08
9.83243e-08
9.82775e-08
9.82376e-08
9.82383e-08
9.86233e-08
9.86537e-08
9.85441e-08
9.84614e-08
9.83509e-08
9.8415e-08
9.83484e-08
9.83033e-08
9.83643e-08
9.81172e-08
9.80181e-08
9.79663e-08
9.79552e-08
9.80115e-08
9.79586e-08
9.78509e-08
9.79175e-08
9.7924e-08
9.81255e-08
9.81499e-08
9.80377e-08
9.81667e-08
9.81202e-08
9.79386e-08
9.78755e-08
9.78369e-08
9.79518e-08
9.82915e-08
9.81452e-08
9.8083e-08
9.81568e-08
9.80708e-08
9.79405e-08
9.79472e-08
9.79219e-08
9.80084e-08
9.84373e-08
9.8447e-08
9.82988e-08
9.82306e-08
9.81557e-08
9.80355e-08
9.80181e-08
9.79391e-08
9.79461e-08
)
;

boundaryField
{
    inlet
    {
        type            calculated;
        value           nonuniform 0();
    }
    outlet
    {
        type            calculated;
        value           uniform 0;
    }
    wall
    {
        type            calculated;
        value           uniform 0;
    }
    procBoundary3to1
    {
        type            processor;
        value           uniform 0;
    }
    procBoundary3to2
    {
        type            processor;
        value           uniform 0;
    }
    procBoundary3to7
    {
        type            processor;
        value           uniform 0;
    }
}


// ************************************************************************* //
