/*--------------------------------*- C++ -*----------------------------------*\
| =========                 |                                                 |
| \\      /  F ield         | OpenFOAM: The Open Source CFD Toolbox           |
|  \\    /   O peration     | Version:  4.x                                   |
|   \\  /    A nd           | Web:      www.OpenFOAM.org                      |
|    \\/     M anipulation  |                                                 |
\*---------------------------------------------------------------------------*/
FoamFile
{
    version     2.0;
    format      ascii;
    class       volScalarField;
    location    "6";
    object      nu;
}
// * * * * * * * * * * * * * * * * * * * * * * * * * * * * * * * * * * * * * //

dimensions      [0 2 -1 0 0 0 0];

internalField   nonuniform List<scalar> 
108
(
1.00026e-06
9.99887e-07
9.99605e-07
9.99435e-07
9.9938e-07
9.99376e-07
9.9944e-07
9.9951e-07
9.9858e-07
1.00046e-06
1.0001e-06
9.99788e-07
9.99547e-07
9.99388e-07
9.99295e-07
9.99282e-07
9.99293e-07
9.97225e-07
1.0007e-06
1.00029e-06
1e-06
9.99688e-07
9.99461e-07
9.99331e-07
9.99262e-07
9.99262e-07
9.97155e-07
1.00144e-06
1.00119e-06
1.00093e-06
1.00064e-06
1.00037e-06
1.00017e-06
9.99972e-07
9.99868e-07
9.81899e-07
9.99982e-07
9.99725e-07
9.99505e-07
9.99352e-07
9.99296e-07
9.99288e-07
9.99343e-07
9.99435e-07
9.98952e-07
1.00008e-06
9.99833e-07
9.99616e-07
9.99424e-07
9.993e-07
9.99245e-07
9.99254e-07
9.99303e-07
9.98663e-07
1.00021e-06
9.99926e-07
9.9965e-07
9.99409e-07
9.99285e-07
9.99303e-07
9.99276e-07
9.99338e-07
9.98605e-07
1.00103e-06
1.00088e-06
1.00066e-06
1.00041e-06
1.00018e-06
1.00004e-06
9.99907e-07
9.9982e-07
9.93149e-07
1.00001e-06
9.99859e-07
9.99726e-07
9.99538e-07
9.9942e-07
9.9936e-07
9.99412e-07
9.99519e-07
9.99682e-07
9.99964e-07
9.998e-07
9.99651e-07
9.99498e-07
9.99391e-07
9.99313e-07
9.99309e-07
9.99331e-07
9.99135e-07
1.00001e-06
9.99779e-07
9.99579e-07
9.99504e-07
9.99402e-07
9.99375e-07
9.99323e-07
9.99362e-07
9.98363e-07
1.00074e-06
1.00063e-06
1.0005e-06
1.00038e-06
1.00025e-06
1.00014e-06
9.99989e-07
9.99896e-07
9.93601e-07
)
;

boundaryField
{
    inlet
    {
        type            calculated;
        value           nonuniform 0();
    }
    outlet
    {
        type            calculated;
        value           uniform 1e-06;
    }
    wall
    {
        type            calculated;
        value           nonuniform List<scalar> 
63
(
1.00026e-06
1.00046e-06
1.0007e-06
1.00144e-06
9.99887e-07
1.0001e-06
1.00029e-06
1.00119e-06
9.99605e-07
9.99788e-07
1e-06
1.00093e-06
9.99435e-07
9.99547e-07
9.99688e-07
1.00064e-06
9.9938e-07
9.99388e-07
9.99461e-07
1.00037e-06
9.99376e-07
9.99295e-07
9.99331e-07
1.00017e-06
9.9944e-07
9.99282e-07
9.99262e-07
9.99972e-07
9.9951e-07
9.99293e-07
9.99262e-07
9.99868e-07
9.9858e-07
9.97225e-07
9.97155e-07
9.81899e-07
1.00144e-06
1.00103e-06
1.00074e-06
1.00119e-06
1.00088e-06
1.00063e-06
1.00093e-06
1.00066e-06
1.0005e-06
1.00064e-06
1.00041e-06
1.00038e-06
1.00037e-06
1.00018e-06
1.00025e-06
1.00017e-06
1.00004e-06
1.00014e-06
9.99972e-07
9.99907e-07
9.99989e-07
9.99868e-07
9.9982e-07
9.99896e-07
9.81899e-07
9.93149e-07
9.93601e-07
)
;
    }
    procBoundary3to1
    {
        type            processor;
        value           nonuniform List<scalar> 
27
(
1.00037e-06
9.99961e-07
9.99648e-07
9.9945e-07
9.99372e-07
9.99416e-07
9.99529e-07
9.9966e-07
9.99694e-07
9.99908e-07
9.99645e-07
9.9944e-07
9.99316e-07
9.99271e-07
9.99292e-07
9.99362e-07
9.9946e-07
9.99072e-07
9.99836e-07
9.9964e-07
9.9946e-07
9.99344e-07
9.99308e-07
9.99326e-07
9.99377e-07
9.99447e-07
9.99e-07
)
;
    }
    procBoundary3to2
    {
        type            processor;
        value           nonuniform List<scalar> 
12
(
1.00069e-06
1.00087e-06
1.00112e-06
1.0016e-06
1.00028e-06
1.00034e-06
1.0005e-06
1.00115e-06
1.00018e-06
1.00014e-06
1.00023e-06
1.0008e-06
)
;
    }
    procBoundary3to7
    {
        type            processor;
        value           nonuniform List<scalar> 
36
(
9.99979e-07
9.99842e-07
9.99735e-07
9.99612e-07
9.99523e-07
9.99535e-07
9.9971e-07
9.99885e-07
9.99982e-07
9.99896e-07
9.99776e-07
9.99673e-07
9.99564e-07
9.99474e-07
9.99428e-07
9.99491e-07
9.99537e-07
9.99744e-07
9.99929e-07
9.99772e-07
9.99629e-07
9.99536e-07
9.9945e-07
9.99456e-07
9.99446e-07
9.99478e-07
9.9951e-07
1.00048e-06
1.00044e-06
1.00036e-06
1.00028e-06
1.00018e-06
1.00011e-06
9.99989e-07
9.99935e-07
9.97728e-07
)
;
    }
}


// ************************************************************************* //
