/*--------------------------------*- C++ -*----------------------------------*\
| =========                 |                                                 |
| \\      /  F ield         | OpenFOAM: The Open Source CFD Toolbox           |
|  \\    /   O peration     | Version:  4.x                                   |
|   \\  /    A nd           | Web:      www.OpenFOAM.org                      |
|    \\/     M anipulation  |                                                 |
\*---------------------------------------------------------------------------*/
FoamFile
{
    version     2.0;
    format      ascii;
    class       volScalarField;
    location    "6";
    object      rho;
}
// * * * * * * * * * * * * * * * * * * * * * * * * * * * * * * * * * * * * * //

dimensions      [1 -3 0 0 0 0 0];

internalField   nonuniform List<scalar> 
108
(
6698.24
6700.76
6702.65
6703.79
6704.16
6704.18
6703.75
6703.29
6709.53
6696.9
6699.36
6701.42
6703.03
6704.1
6704.73
6704.82
6704.74
6718.64
6695.32
6698.06
6700
6702.09
6703.61
6704.49
6704.95
6704.95
6719.12
6690.39
6692.01
6693.75
6695.68
6697.53
6698.86
6700.18
6700.88
6823.51
6700.12
6701.84
6703.32
6704.35
6704.72
6704.77
6704.41
6703.79
6707.03
6699.46
6701.12
6702.58
6703.86
6704.69
6705.06
6705
6704.67
6708.97
6698.59
6700.5
6702.35
6703.96
6704.79
6704.67
6704.86
6704.44
6709.36
6693.09
6694.11
6695.58
6697.25
6698.82
6699.74
6700.62
6701.2
6746.22
6699.9
6700.95
6701.83
6703.1
6703.89
6704.29
6703.94
6703.22
6702.13
6700.24
6701.34
6702.34
6703.36
6704.08
6704.61
6704.63
6704.49
6705.8
6699.9
6701.48
6702.82
6703.32
6704.01
6704.19
6704.54
6704.28
6710.98
6695.08
6695.78
6696.66
6697.47
6698.33
6699.07
6700.07
6700.7
6743.15
)
;

boundaryField
{
    inlet
    {
        type            calculated;
        value           nonuniform 0();
    }
    outlet
    {
        type            calculated;
        value           uniform 6700;
    }
    wall
    {
        type            calculated;
        value           nonuniform List<scalar> 
63
(
6698.24
6696.9
6695.32
6690.39
6700.76
6699.36
6698.06
6692.01
6702.65
6701.42
6700
6693.75
6703.79
6703.03
6702.09
6695.68
6704.16
6704.1
6703.61
6697.53
6704.18
6704.73
6704.49
6698.86
6703.75
6704.82
6704.95
6700.18
6703.29
6704.74
6704.95
6700.88
6709.53
6718.64
6719.12
6823.51
6690.39
6693.09
6695.08
6692.01
6694.11
6695.78
6693.75
6695.58
6696.66
6695.68
6697.25
6697.47
6697.53
6698.82
6698.33
6698.86
6699.74
6699.07
6700.18
6700.62
6700.07
6700.88
6701.2
6700.7
6823.51
6746.22
6743.15
)
;
    }
    procBoundary3to1
    {
        type            processor;
        value           nonuniform List<scalar> 
27
(
6697.5
6700.26
6702.36
6703.69
6704.21
6703.92
6703.16
6702.28
6702.05
6700.61
6702.38
6703.75
6704.59
6704.88
6704.75
6704.28
6703.62
6706.22
6701.1
6702.41
6703.62
6704.4
6704.64
6704.52
6704.18
6703.7
6706.71
)
;
    }
    procBoundary3to2
    {
        type            processor;
        value           nonuniform List<scalar> 
12
(
6695.35
6694.16
6692.52
6689.32
6698.15
6697.69
6696.64
6692.32
6698.81
6699.08
6698.47
6694.63
)
;
    }
    procBoundary3to7
    {
        type            processor;
        value           nonuniform List<scalar> 
36
(
6700.14
6701.06
6701.77
6702.6
6703.2
6703.12
6701.95
6700.77
6700.12
6700.7
6701.5
6702.19
6702.92
6703.52
6703.84
6703.41
6703.1
6701.72
6700.48
6701.53
6702.49
6703.11
6703.68
6703.65
6703.71
6703.5
6703.28
6696.77
6697.05
6697.59
6698.1
6698.79
6699.25
6700.07
6700.43
6715.26
)
;
    }
}


// ************************************************************************* //
