/*--------------------------------*- C++ -*----------------------------------*\
  =========                 |
  \\      /  F ield         | OpenFOAM: The Open Source CFD Toolbox
   \\    /   O peration     | Website:  https://openfoam.org
    \\  /    A nd           | Version:  4.x
     \\/     M anipulation  |
\*---------------------------------------------------------------------------*/
FoamFile
{
    version     2.0;
    format      ascii;
    class       vectorField;
    location    0;
    object      v;
}
// * * * * * * * * * * * * * * * * * * * * * * * * * * * * * * * * * * * * * //

356
(
( 3.13288e-09 7.60837e-10 1.89387e-09 )  
( 1.18019e-09 -1.40169e-10 1.03242e-09 )  
( -8.27438e-09 4.12224e-09 1.66682e-08 )  
( 1.29884e-09 1.26644e-09 1.23445e-09 )  
( -1.27693e-09 -9.69854e-10 1.42385e-09 )  
( 8.45569e-10 7.06733e-10 2.75568e-09 )  
( 1.55518e-09 -9.4463e-10 2.14238e-09 )  
( 1.87707e-10 2.94586e-10 6.02797e-10 )  
( 9.84399e-10 3.41274e-10 1.79901e-09 )  
( 9.50816e-10 5.50739e-10 1.17258e-09 )  
( 8.87287e-11 2.75435e-10 3.9758e-10 )  
( -3.05734e-10 -3.18767e-10 -3.0196e-09 )  
( 7.16193e-11 -5.12624e-10 2.67807e-09 )  
( 1.32582e-09 -1.33473e-09 3.64503e-09 )  
( 1.59084e-09 4.77423e-10 1.12398e-09 )  
( -1.03981e-09 -3.40864e-10 2.08238e-09 )  
( 2.28565e-10 -5.62835e-10 2.43347e-09 )  
( 2.87865e-09 -1.7304e-09 2.17326e-09 )  
( 1.55002e-09 -8.80577e-10 9.10635e-10 )  
( 3.82722e-09 -2.81052e-09 5.50248e-09 )  
( 4.05944e-09 -3.9449e-09 4.38097e-09 )  
( -5.28712e-09 1.13749e-09 1.09797e-08 )  
( 1.39255e-09 1.62099e-10 1.34015e-09 )  
( 5.36865e-10 -6.90279e-10 6.1331e-10 )  
( 1.09904e-09 -1.11902e-09 3.11623e-09 )  
( 1.52147e-09 -1.13384e-10 1.00952e-09 )  
( 1.30594e-09 6.41163e-10 1.36821e-09 )  
( 7.09024e-10 -1.77736e-09 3.80178e-09 )  
( 4.48476e-10 7.51985e-10 8.08308e-10 )  
( 3.63484e-09 5.85548e-10 3.08842e-09 )  
( -5.98701e-10 -1.76373e-09 2.98136e-09 )  
( 9.92955e-10 -7.79006e-10 9.18838e-10 )  
( -3.04267e-09 3.21124e-09 1.01478e-08 )  
( 3.81201e-10 5.77823e-10 9.67916e-10 )  
( 4.05653e-10 -3.47922e-10 6.30926e-10 )  
( 5.55226e-10 3.2065e-10 1.34562e-09 )  
( 1.35265e-09 -9.85198e-10 9.2197e-10 )  
( 1.49102e-10 9.2886e-10 2.44839e-09 )  
( 1.35647e-09 -2.46736e-10 -4.64949e-10 )  
( 1.74684e-09 1.62736e-10 1.64687e-09 )  
( 1.00161e-09 -1.05542e-10 1.94735e-10 )  
( 6.62332e-10 -1.23569e-09 2.28794e-10 )  
( 6.3007e-11 -6.70584e-10 8.29008e-10 )  
( 4.71158e-09 -4.38502e-09 4.89462e-09 )  
( 1.77978e-09 -1.11744e-09 1.53358e-09 )  
( 4.17384e-10 -8.83124e-11 -4.89862e-10 )  
( -3.19447e-09 -2.49194e-09 6.15679e-09 )  
( 7.37615e-10 9.90112e-10 1.55498e-09 )  
( -1.6453e-10 -7.30267e-10 1.26659e-09 )  
( 3.57265e-09 -1.19659e-09 -3.07843e-09 )  
( 1.64017e-09 -3.52702e-10 1.02677e-09 )  
( -2.32365e-11 -6.8822e-11 -3.99649e-10 )  
( 2.44895e-10 -6.95665e-10 1.85125e-09 )  
( 1.36659e-09 -7.40087e-10 1.12521e-09 )  
( 2.24947e-09 -2.3265e-10 8.60087e-10 )  
( 1.06905e-09 -5.41464e-10 1.06421e-09 )  
( 3.39203e-09 -1.01657e-09 -4.79937e-11 )  
( 1.67418e-09 -8.84903e-10 1.67999e-09 )  
( 6.03726e-10 5.4522e-10 1.06257e-09 )  
( 1.00516e-09 2.54092e-10 1.10715e-09 )  
( 4.45588e-10 4.54802e-10 9.30844e-10 )  
( -8.16617e-10 -2.71042e-10 3.24359e-10 )  
( 1.29801e-10 7.72213e-10 5.32237e-10 )  
( 2.34086e-09 -7.60031e-10 -1.85765e-10 )  
( 7.31772e-10 -1.76216e-10 -3.46659e-10 )  
( 5.72698e-11 2.13688e-10 4.55408e-10 )  
( -2.07974e-10 6.29809e-09 8.42511e-09 )  
( 3.27111e-10 -5.50148e-10 7.54018e-10 )  
( -1.53183e-10 -4.91882e-10 1.54232e-09 )  
( 1.66642e-09 6.82289e-11 -4.80818e-10 )  
( 1.56494e-09 -7.55397e-10 1.56032e-09 )  
( 1.9747e-09 -1.1598e-09 2.17471e-09 )  
( 1.15409e-09 -6.621e-10 1.4513e-09 )  
( -1.0995e-09 -2.13513e-10 2.04529e-09 )  
( 3.43963e-10 5.73475e-10 1.28187e-09 )  
( 1.54271e-09 1.53442e-09 2.00108e-09 )  
( 2.50824e-10 4.58075e-10 1.45172e-09 )  
( 2.06335e-09 3.50282e-10 1.45757e-09 )  
( 1.3881e-09 -1.11261e-09 1.34685e-09 )  
( 1.01165e-09 -8.99513e-10 8.12183e-10 )  
( 8.00871e-10 5.55313e-11 -1.36402e-10 )  
( 7.41312e-10 1.05251e-09 9.46486e-10 )  
( 8.74547e-10 -3.1822e-10 1.14568e-09 )  
( 1.34623e-09 9.93535e-12 1.11568e-09 )  
( 3.85421e-10 6.53826e-10 5.44954e-10 )  
( 1.50416e-09 1.49553e-10 1.69169e-09 )  
( 1.12652e-09 9.40888e-10 1.1352e-09 )  
( 1.06024e-09 -7.15437e-10 1.58713e-09 )  
( 1.28467e-10 1.73184e-10 7.1283e-10 )  
( 4.05939e-11 1.62889e-10 8.60209e-10 )  
( 1.14233e-09 -5.51444e-10 2.66944e-09 )  
( 6.64355e-10 -1.36772e-09 -3.7468e-10 )  
( -9.19503e-10 1.06783e-10 1.21115e-09 )  
( 2.45751e-09 -1.52662e-09 5.24075e-09 )  
( 1.03996e-09 -4.87549e-10 -1.9265e-10 )  
( 1.34148e-09 7.2244e-10 1.07533e-09 )  
( -4.29333e-11 6.48236e-10 7.15645e-10 )  
( 1.18178e-09 -2.9756e-10 1.04738e-09 )  
( -1.6061e-09 -1.38329e-09 5.5973e-09 )  
( 1.2986e-10 -6.10688e-10 1.63567e-09 )  
( -6.06387e-10 1.70044e-09 5.27313e-09 )  
( 2.89245e-09 -2.37527e-09 3.39415e-09 )  
( 5.41404e-10 1.60871e-10 1.47593e-09 )  
( 2.36641e-09 1.55913e-10 -8.42076e-10 )  
( -1.08777e-08 -4.44019e-09 9.80625e-09 )  
( 2.78648e-10 4.65156e-10 1.23633e-09 )  
( 1.13508e-09 -2.07096e-10 1.12855e-09 )  
( 2.18564e-10 2.11667e-10 1.61995e-09 )  
( 8.21055e-10 -1.36343e-09 -4.89388e-10 )  
( -2.22392e-10 -2.99185e-11 1.92396e-09 )  
( -6.8596e-10 -3.16894e-10 1.15018e-09 )  
( -3.89372e-10 -5.62046e-13 4.95019e-10 )  
( 1.16725e-09 -7.49319e-10 1.52934e-09 )  
( -2.1277e-10 -2.06696e-10 1.57376e-09 )  
( 1.40295e-09 -9.07131e-11 1.33619e-09 )  
( 2.67609e-09 -4.26824e-09 6.78962e-09 )  
( 8.93045e-10 -7.75391e-10 -1.45656e-09 )  
( 3.36875e-10 -7.65748e-10 2.0731e-09 )  
( 3.62941e-10 3.13825e-09 7.81589e-09 )  
( 3.41183e-10 -6.16503e-10 1.2039e-09 )  
( 1.69906e-09 4.06468e-10 3.32554e-09 )  
( -4.85986e-10 1.02968e-09 5.52388e-11 )  
( -2.60958e-10 -2.40281e-10 -1.36893e-09 )  
( 1.69341e-09 -5.64564e-10 1.70593e-09 )  
( 8.91774e-10 1.08098e-09 1.53377e-09 )  
( 1.2019e-10 4.12552e-10 3.72971e-10 )  
( -1.8294e-10 -5.55252e-10 1.01194e-09 )  
( 1.58131e-09 -5.10181e-10 1.14933e-09 )  
( 1.33443e-09 -2.10986e-10 1.10085e-09 )  
( 2.08688e-09 -8.13661e-10 2.55841e-10 )  
( 5.67369e-10 -4.97989e-10 3.0591e-09 )  
( 4.51002e-10 1.81176e-10 1.1272e-09 )  
( 1.38965e-09 -1.72385e-09 1.66967e-10 )  
( 8.21995e-11 3.95317e-10 5.87186e-10 )  
( 8.91498e-10 -4.44441e-11 -2.51016e-10 )  
( 4.92276e-10 1.22799e-09 1.29549e-09 )  
( 2.40843e-09 8.02706e-10 3.19712e-09 )  
( 7.09019e-10 3.12055e-10 1.14109e-09 )  
( 1.64623e-09 3.66126e-10 2.3611e-09 )  
( 8.35705e-10 -1.94593e-10 3.92601e-10 )  
( 1.08352e-10 3.66551e-10 5.54479e-10 )  
( 1.37957e-09 -1.02907e-09 1.77539e-09 )  
( -5.15539e-10 3.65912e-10 1.20411e-09 )  
( 4.76904e-10 1.02833e-10 2.95155e-09 )  
( 2.35613e-10 4.43914e-10 4.31855e-10 )  
( 1.18084e-09 4.25824e-10 9.43479e-10 )  
( 1.66622e-09 5.05715e-10 8.24873e-10 )  
( 3.56293e-09 6.32543e-10 1.24409e-09 )  
( 4.56923e-11 1.95653e-10 1.27548e-09 )  
( 4.27323e-10 1.79875e-11 9.02121e-10 )  
( 8.53855e-10 -8.9958e-11 9.05523e-10 )  
( 7.79522e-10 1.87285e-09 4.17487e-09 )  
( 9.0791e-10 4.80261e-10 4.89132e-10 )  
( 3.93265e-10 2.06538e-10 5.51482e-10 )  
( 2.888e-09 2.10812e-10 2.92439e-09 )  
( 4.44385e-09 5.27142e-10 1.34124e-09 )  
( 1.01744e-09 -4.21213e-10 1.39802e-09 )  
( 1.03506e-09 -5.55971e-11 8.29944e-10 )  
( 4.33387e-10 5.30173e-10 6.61793e-10 )  
( 4.21529e-09 1.01363e-10 1.91452e-09 )  
( 2.25378e-09 1.75935e-10 8.95031e-10 )  
( 2.58369e-09 -5.20503e-10 1.37501e-09 )  
( 5.33922e-10 2.87428e-10 8.71907e-10 )  
( 1.99538e-09 5.56308e-10 1.06906e-09 )  
( 1.98526e-09 3.87905e-10 1.40794e-09 )  
( -4.72021e-10 3.32137e-10 3.02733e-09 )  
( 1.05192e-09 2.03804e-10 8.473e-10 )  
( 5.26834e-10 3.9142e-10 2.27145e-09 )  
( 1.06965e-09 1.44484e-10 2.49971e-09 )  
( 4.13649e-09 1.49355e-10 1.44064e-09 )  
( 2.44816e-10 4.21975e-11 1.02091e-09 )  
( 6.40129e-11 2.37003e-10 6.33954e-10 )  
( 9.4051e-10 1.83764e-10 1.30067e-09 )  
( -6.82769e-10 5.16737e-10 4.78039e-09 )  
( 4.53721e-10 1.63517e-10 7.29907e-10 )  
( 3.12593e-09 8.04708e-10 3.13823e-09 )  
( 3.79399e-09 2.40443e-10 1.55032e-09 )  
( 5.59024e-10 4.08971e-10 7.30373e-10 )  
( 2.45473e-10 -7.25882e-10 2.91827e-09 )  
( 1.18508e-09 1.89475e-10 6.93716e-10 )  
( 1.20399e-09 6.77249e-10 1.14723e-09 )  
( 2.73046e-10 2.20476e-10 8.37167e-10 )  
( 1.27384e-09 4.62906e-10 3.1589e-09 )  
( 1.9285e-09 3.34173e-10 6.54832e-10 )  
( 4.11285e-09 7.29587e-10 1.35647e-09 )  
( 1.03187e-09 2.11141e-10 7.40674e-10 )  
( 1.10768e-09 4.42529e-10 1.1263e-09 )  
( 9.21056e-10 2.83618e-10 9.28949e-10 )  
( 2.07546e-10 -2.4259e-09 8.52122e-09 )  
( 1.44935e-09 1.48365e-10 1.63088e-09 )  
( 7.34559e-10 9.30109e-12 8.56566e-10 )  
( 3.5602e-09 4.43289e-10 3.29621e-09 )  
( 4.76765e-10 4.20993e-11 4.32715e-10 )  
( 4.02734e-09 8.02517e-10 1.51448e-09 )  
( 2.1332e-09 8.41277e-10 1.34439e-09 )  
( -3.3911e-10 -9.35824e-10 3.46231e-09 )  
( -5.90885e-10 3.30537e-10 1.42624e-09 )  
( 5.07509e-10 1.38331e-10 3.86252e-10 )  
( 9.6594e-10 -2.39723e-10 9.33793e-10 )  
( 1.18752e-10 -6.06115e-13 6.15109e-10 )  
( 4.33952e-10 1.03689e-11 1.38216e-10 )  
( 8.20916e-10 1.17807e-10 1.36208e-09 )  
( 9.7287e-11 1.14207e-10 5.59224e-10 )  
( 1.06653e-10 1.37285e-10 4.36349e-10 )  
( 1.87444e-10 1.92024e-10 1.68832e-09 )  
( 1.66161e-09 8.97942e-10 1.46096e-09 )  
( 1.04574e-09 1.08747e-09 3.6142e-09 )  
( 2.4579e-09 3.69704e-10 1.22009e-09 )  
( 9.53353e-11 6.40258e-11 4.37062e-10 )  
( 4.05007e-09 1.01444e-09 1.44957e-09 )  
( 3.49637e-10 -5.29173e-11 1.02113e-10 )  
( 1.57015e-09 2.57717e-12 1.91922e-10 )  
( 2.35987e-10 2.70272e-11 5.64458e-10 )  
( 7.33087e-10 3.8712e-10 1.00411e-09 )  
( 5.71781e-10 2.21534e-10 6.02641e-10 )  
( 7.64057e-11 1.62198e-10 5.65628e-10 )  
( -3.07093e-10 2.33129e-09 3.95537e-09 )  
( 1.34737e-09 6.22284e-10 1.07681e-09 )  
( 5.41305e-10 1.5353e-10 1.57338e-09 )  
( 2.46213e-09 5.38316e-10 2.50354e-09 )  
( -2.09687e-10 2.26309e-10 1.04618e-09 )  
( 1.26743e-09 3.95345e-10 9.40451e-10 )  
( 8.68349e-10 1.44302e-11 8.17941e-10 )  
( -2.7465e-10 1.45831e-10 8.44073e-10 )  
( 1.98894e-09 -9.22209e-10 1.15808e-09 )  
( 4.1506e-10 -2.26574e-10 1.61952e-09 )  
( 7.60437e-10 -1.0505e-09 1.56762e-09 )  
( 8.32355e-10 -2.6725e-10 1.08041e-09 )  
( -6.96353e-11 3.68699e-11 4.37726e-10 )  
( 5.2425e-10 2.60191e-10 1.54159e-09 )  
( 1.14011e-09 -1.10211e-09 1.60801e-09 )  
( 1.59523e-09 -8.7842e-10 1.50363e-09 )  
( 4.80731e-10 -2.56617e-10 1.07003e-09 )  
( 4.89636e-10 -7.00842e-10 1.97642e-09 )  
( 5.53701e-10 2.85723e-10 9.26255e-10 )  
( 1.1547e-09 -5.96333e-10 1.15797e-09 )  
( 4.81759e-09 2.24691e-10 1.85235e-09 )  
( 7.57545e-13 1.31867e-10 3.72482e-10 )  
( 2.11321e-09 -7.54929e-10 1.39649e-09 )  
( 1.22996e-09 -3.34154e-10 9.77553e-10 )  
( 5.38997e-09 1.04493e-10 1.65381e-09 )  
( 1.37542e-09 -3.30727e-10 8.04261e-10 )  
( 4.05355e-09 2.91423e-10 9.41034e-11 )  
( 4.5816e-09 -6.86611e-11 1.48139e-09 )  
( 3.52141e-09 1.53241e-10 1.79606e-09 )  
( 3.24878e-09 -3.01755e-10 1.39226e-09 )  
( 4.91807e-09 -8.78322e-11 1.84652e-09 )  
( 9.16712e-10 -1.0587e-10 5.8807e-10 )  
( -3.97518e-10 -6.98646e-10 3.7181e-10 )  
( 8.5731e-10 -1.615e-10 1.16731e-09 )  
( -3.08156e-11 2.09289e-10 6.66914e-10 )  
( 8.09418e-10 3.35215e-10 1.29991e-09 )  
( 8.06444e-10 6.2289e-11 1.35842e-09 )  
( 9.54005e-10 6.59326e-12 6.27979e-10 )  
( 1.70793e-10 3.75022e-10 3.24282e-10 )  
( 6.1985e-09 -8.31952e-10 2.12376e-09 )  
( 1.1222e-09 -9.4045e-10 9.79993e-10 )  
( -6.01656e-10 -2.30329e-10 3.21308e-10 )  
( 6.69111e-10 5.0467e-10 8.35775e-10 )  
( 2.26932e-10 2.66184e-11 -2.41561e-10 )  
( 2.22677e-10 1.32317e-10 8.19966e-10 )  
( 2.31921e-09 1.38543e-11 9.26836e-10 )  
( 1.15923e-09 1.01027e-10 1.13947e-09 )  
( 1.75322e-09 -9.85158e-10 2.04645e-09 )  
( 5.00569e-10 5.39481e-10 7.52581e-10 )  
( 4.271e-10 8.03852e-11 1.08985e-09 )  
( -1.62343e-09 6.395e-10 1.24752e-08 )  
( 1.13761e-09 -4.79893e-10 1.31167e-09 )  
( 3.07935e-09 -3.34865e-10 -3.37543e-09 )  
( 3.04604e-09 5.25193e-10 1.33732e-09 )  
( 3.18287e-09 -4.15902e-10 1.77802e-09 )  
( 3.75365e-10 -1.11396e-09 4.27837e-09 )  
( 5.17961e-09 8.71935e-10 1.01954e-09 )  
( 3.31565e-09 1.66764e-09 4.57738e-09 )  
( 1.23914e-09 -9.04478e-10 1.66323e-09 )  
( 1.49851e-09 3.37736e-10 9.56812e-10 )  
( 7.12422e-10 9.45336e-11 1.12558e-09 )  
( -1.06439e-09 -2.37458e-09 3.80699e-09 )  
( 3.77833e-09 4.18443e-10 2.02627e-09 )  
( 4.06814e-10 2.49088e-10 1.03786e-09 )  
( 1.05025e-09 -5.07337e-10 1.82351e-09 )  
( 8.97768e-11 8.79245e-11 6.70763e-10 )  
( -1.20663e-10 -6.60698e-10 1.88966e-09 )  
( 1.58531e-09 -1.25243e-09 2.11437e-09 )  
( 1.34355e-09 2.69409e-10 1.32101e-09 )  
( 1.77759e-09 -3.34929e-11 1.25493e-09 )  
( 2.83111e-09 1.00648e-11 1.6321e-09 )  
( -7.92365e-10 -6.06894e-10 4.68918e-10 )  
( 4.34112e-11 5.93221e-11 4.16582e-10 )  
( 8.13309e-10 7.5807e-11 1.16842e-09 )  
( 3.67759e-10 3.69831e-10 8.54446e-10 )  
( 6.85855e-10 -7.20756e-10 1.47812e-09 )  
( 2.58186e-09 -4.65831e-10 1.93847e-09 )  
( 1.15572e-09 -1.65712e-09 9.41944e-09 )  
( 8.41843e-10 9.14201e-11 5.65158e-10 )  
( 2.00408e-09 -2.39327e-10 1.1597e-09 )  
( 1.20848e-09 2.54203e-09 5.25527e-09 )  
( 4.2169e-10 3.21761e-10 9.36597e-10 )  
( 3.46642e-11 2.25977e-10 3.71565e-10 )  
( 5.37456e-10 1.31558e-10 6.7898e-10 )  
( 4.72275e-09 3.05858e-10 1.42763e-09 )  
( 5.26104e-10 3.73854e-11 3.68395e-10 )  
( 5.27064e-10 2.98132e-10 7.10698e-10 )  
( -6.94464e-10 -8.75158e-10 6.3235e-10 )  
( 1.18112e-09 -9.85153e-10 1.64214e-09 )  
( 6.10186e-09 -1.516e-10 -1.91453e-09 )  
( -4.07588e-11 6.05657e-10 4.27501e-10 )  
( 4.51296e-10 2.05962e-09 1.25349e-09 )  
( 5.58811e-09 3.40392e-09 3.64013e-09 )  
( 3.06366e-09 2.68654e-09 1.37393e-09 )  
( -1.7991e-09 8.70812e-10 1.28367e-09 )  
( -1.36414e-09 8.8447e-10 -1.73125e-10 )  
( 9.06065e-09 -7.30471e-09 9.15591e-09 )  
( 4.26996e-09 -4.39648e-09 4.423e-09 )  
( 2.17904e-09 1.07749e-09 1.09202e-09 )  
( -6.19984e-10 1.75944e-10 2.27843e-10 )  
( -1.08334e-09 7.28513e-10 9.70461e-10 )  
( 2.95778e-09 -2.48038e-09 4.80545e-10 )  
( 1.38676e-09 -8.92361e-10 1.32744e-09 )  
( 3.75114e-09 -1.9996e-09 3.52272e-09 )  
( 1.04581e-09 -5.32301e-10 2.18442e-09 )  
( -1.24113e-09 5.06442e-10 1.27971e-09 )  
( 1.11044e-09 -1.30033e-09 1.16385e-09 )  
( 1.17774e-09 1.11991e-09 1.0626e-09 )  
( -2.95401e-09 -1.00473e-10 -4.57631e-10 )  
( 8.43096e-10 1.27164e-09 1.02407e-09 )  
( 8.33925e-10 -1.8549e-09 4.10546e-10 )  
( 8.23928e-09 1.0148e-08 3.15626e-09 )  
( 6.69139e-10 1.05102e-09 6.99082e-10 )  
( 5.39506e-09 -2.12414e-09 -1.77307e-09 )  
( -1.88685e-09 3.85407e-10 2.30884e-09 )  
( 4.05566e-10 -5.48384e-10 1.53075e-09 )  
( 4.46142e-09 -3.09389e-09 3.19354e-09 )  
( 2.66699e-09 -1.28257e-09 1.27432e-09 )  
( 4.98356e-09 3.49023e-09 1.11546e-09 )  
( -2.69791e-11 1.13621e-09 8.14368e-10 )  
( 1.45406e-09 7.64158e-10 1.02513e-09 )  
( 9.42113e-10 5.35491e-10 7.91338e-10 )  
( 7.64516e-10 1.979e-10 9.97761e-10 )  
( 5.65433e-09 -1.33453e-09 4.45374e-09 )  
( -1.50872e-09 -1.84606e-10 -4.36006e-10 )  
( 6.98538e-10 -4.17402e-10 1.02623e-09 )  
( 4.01579e-09 -5.7606e-09 3.93637e-09 )  
( -9.96395e-10 4.84983e-10 5.08955e-10 )  
( 2.90208e-09 -3.04227e-09 2.03364e-10 )  
( 4.66203e-09 -4.65036e-09 5.03209e-09 )  
( 7.11436e-10 -2.06105e-10 1.03429e-09 )  
( -1.3546e-09 1.1364e-09 1.42347e-09 )  
( -2.14995e-09 8.30761e-12 3.99295e-10 )  
( 8.57527e-10 1.45907e-09 1.08278e-09 )  
( 3.05593e-10 6.85298e-10 4.27858e-10 )  
( 3.67628e-09 -8.55985e-10 2.23579e-09 )  
( 1.19573e-09 1.42497e-10 8.63537e-10 )  
( -1.5097e-10 6.64446e-10 4.27737e-10 )  
( 1.43929e-09 -7.65296e-10 1.11584e-09 )  
( -6.18484e-10 4.49132e-10 6.11731e-10 )  
)
