/*--------------------------------*- C++ -*----------------------------------*\
  =========                 |
  \\      /  F ield         | OpenFOAM: The Open Source CFD Toolbox
   \\    /   O peration     | Website:  https://openfoam.org
    \\  /    A nd           | Version:  4.x
     \\/     M anipulation  |
\*---------------------------------------------------------------------------*/
FoamFile
{
    version     2.0;
    format      ascii;
    class       Cloud<passiveParticle>;
    location    0;
    object      positions;
}
// * * * * * * * * * * * * * * * * * * * * * * * * * * * * * * * * * * * * * //

310
(
( 0.211665 -0.00560155 -0.0726898 ) 4
( 0.187173 -0.00943521 -0.0456951 ) 34
( 0.22355 -0.0130728 -0.0586364 ) 36
( 0.203139 -0.01366 -0.0353167 ) 64
( 0.23565 -0.00379947 -0.0713238 ) 36
( 0.220497 -0.00514217 -0.0324744 ) 64
( 0.176682 -0.0093545 -0.0624139 ) 34
( 0.236089 -0.00905525 -0.0438793 ) 36
( 0.205814 -0.00152557 -0.0507367 ) 35
( 0.167669 -0.0112934 -0.0446933 ) 34
( 0.226385 -0.0111472 -0.0147379 ) 65
( 0.225319 0.0300856 -0.0273507 ) 74
( 0.045795 0.0271906 -0.0469738 ) 38
( 0.215221 0.0376248 -0.042577 ) 73
( 0.185435 0.0222807 -0.070095 ) 43
( 0.113571 0.0388498 -0.0534933 ) 41
( 0.0323534 0.0742101 -0.0323393 ) 85
( 0.201888 0.0641002 -0.0450994 ) 53
( 0.212458 0.0179988 -0.0410421 ) 73
( 0.0749583 0.0448061 -0.0509571 ) 48
( 0.0697996 0.0214954 -0.0471467 ) 39
( 0.0323082 0.0515492 -0.0611208 ) 47
( 0.173537 0.0184015 -0.0546832 ) 43
( 0.125973 0.0707838 -0.0485146 ) 50
( 0.0266301 0.0590185 -0.0436365 ) 46
( 0.0238065 0.0902946 -0.0399179 ) 84
( 0.0433239 0.090133 -0.0543617 ) 56
( 0.0625569 0.0501666 -0.0659366 ) 48
( 0.078281 0.0721562 -0.0575335 ) 57
( 0.138067 0.0576174 -0.0571977 ) 50
( 0.180713 0.0551968 -0.04928 ) 52
( 0.0592732 0.0312515 -0.0609033 ) 39
( 0.203292 0.00506194 -0.0291807 ) 64
( 0.100196 0.0434138 -0.0349116 ) 78
( 0.0790446 0.045501 -0.0254589 ) 77
( 0.239329 0.0524658 -0.0725157 ) 23
( 0.157001 0.0557707 -0.0683004 ) 51
( 0.215985 0.0776837 -0.0410355 ) 91
( 0.244103 0.0826065 -0.0399022 ) 92
( 0.168149 0.0665532 -0.0389502 ) 81
( 0.0925739 0.0600492 -0.0672992 ) 49
( 0.145341 0.0710967 -0.0444814 ) 51
( 0.110988 0.0824328 -0.0427708 ) 87
( 0.154462 0.0565514 -0.0289757 ) 80
( 0.136386 0.038207 -0.0531675 ) 41
( 0.210504 0.0742359 -0.0597829 ) 62
( 0.0254579 0.0819979 -0.0578101 ) 55
( 0.186301 0.0389644 -0.0593079 ) 43
( 0.185184 0.0889686 -0.0709461 ) 61
( 0.168862 0.0901205 -0.0375181 ) 90
( 0.223439 0.0641706 -0.0708695 ) 54
( 0.118362 0.0217988 -0.0623759 ) 41
( 0.114024 0.0888487 -0.0613526 ) 59
( 0.0724805 0.0629137 -0.0321221 ) 77
( 0.092561 0.0772641 -0.0356245 ) 87
( 0.133777 0.0243516 -0.0392106 ) 70
( 0.1964 0.0526612 -0.0696631 ) 53
( 0.144928 0.00354043 -0.0699948 ) 33
( 0.218493 0.0258881 -0.0583237 ) 44
( 0.0270925 0.0248076 -0.0326875 ) 66
( 0.0996364 0.0176755 -0.0675201 ) 40
( 0.0901187 0.0248102 -0.0214976 ) 69
( 0.125559 0.0399822 -0.0697646 ) 41
( 0.124126 0.0635315 -0.0278539 ) 79
( 0.00983551 0.0177898 -0.0395185 ) 66
( 0.106582 0.0460282 -0.0707978 ) 49
( 0.0581586 0.0798814 -0.0461571 ) 57
( 0.10004 0.0251734 -0.0491489 ) 40
( 0.154537 0.0242519 -0.0525079 ) 42
( 0.225865 0.0635892 -0.0509997 ) 54
( 0.157131 0.00536279 -0.0468855 ) 33
( 0.181791 0.0316137 -0.0414362 ) 72
( 0.202731 0.0124666 -0.0703882 ) 35
( 0.0882116 0.0572313 -0.0427485 ) 78
( 0.0977974 0.074923 -0.0553258 ) 58
( 0.124727 0.0517324 -0.0437066 ) 50
( 0.0900027 0.0619834 -0.0230714 ) 78
( 0.191293 0.071142 -0.0642665 ) 52
( 0.231532 0.0689438 -0.0326774 ) 83
( 0.034928 0.0416945 -0.0389923 ) 67
( 0.14457 0.0731574 -0.0678341 ) 60
( 0.0619316 0.0465819 -0.0360707 ) 77
( 0.0762406 0.0886054 -0.0352412 ) 86
( 0.155582 0.0545415 -0.0485626 ) 51
( 0.00997583 0.0726678 -0.0468563 ) 55
( 0.193067 0.0220146 -0.0284623 ) 72
( 0.0379461 0.0181532 -0.0644948 ) 38
( 0.136013 0.0455717 -0.0287413 ) 79
( 0.00989865 0.0813166 -0.0290155 ) 84
( 0.0108236 0.0545523 -0.054974 ) 46
( 0.169394 0.0439032 -0.0320889 ) 81
( 0.0567459 0.0722483 -0.0644816 ) 57
( 0.151043 0.0900392 -0.0594862 ) 60
( 0.0282702 0.0329034 -0.0554592 ) 38
( 0.114708 0.0289892 -0.0362572 ) 70
( 0.230065 0.012097 -0.0340987 ) 65
( 0.248879 0.0607996 -0.024277 ) 83
( 0.0279783 0.0556803 -0.0187701 ) 76
( 0.242086 0.055592 -0.0425614 ) 83
( 0.0960071 0.0900455 -0.0694636 ) 58
( 0.165469 0.0708284 -0.0581188 ) 51
( 0.188513 0.0902888 -0.0347795 ) 90
( 0.2321 0.0279745 -0.0742795 ) 14
( 0.239143 0.0160667 -0.0600137 ) 45
( 0.196763 0.0449596 -0.043503 ) 53
( 0.164525 0.0285305 -0.0691853 ) 42
( 0.063764 0.0612405 -0.0495947 ) 48
( 0.247598 0.0106213 -0.0429006 ) 36
( 0.184965 0.0743429 -0.0457754 ) 61
( 0.0835912 0.027016 -0.0603262 ) 40
( 0.171222 0.0773751 -0.022633 ) 90
( 0.167525 0.0393909 -0.0528029 ) 43
( 0.176786 0.0581062 -0.0685451 ) 52
( 0.114109 0.0902923 -0.0250444 ) 88
( 0.227136 0.0901919 -0.0299075 ) 92
( 0.165937 0.020404 -0.0366496 ) 71
( 0.20504 0.0901347 -0.0702467 ) 62
( 0.188964 0.00641408 -0.0574805 ) 34
( 0.120877 0.0661724 -0.0671546 ) 50
( 0.0586503 0.027465 -0.0318745 ) 68
( 0.0473121 0.0567653 -0.0272786 ) 76
( 0.08441 0.0320212 -0.0390043 ) 69
( 0.249961 0.0885758 -0.0220534 ) 92
( 0.00990969 0.0284649 -0.0677903 ) 37
( 0.222457 0.0110176 -0.0709441 ) 36
( 0.132863 0.089739 -0.0675759 ) 59
( 0.0490635 0.0481961 -0.051075 ) 47
( 0.163353 0.0824851 -0.0740666 ) 29
( 0.185469 0.0613869 -0.0308163 ) 81
( 0.00970266 0.0356841 -0.0493385 ) 37
( 0.207241 0.0900326 -0.0282809 ) 91
( 0.211394 0.0510739 -0.0566465 ) 53
( 0.0854458 0.0901594 -0.0526887 ) 58
( 0.233386 0.0281685 -0.0453414 ) 45
( 0.202895 0.0329442 -0.0685052 ) 44
( 0.128742 0.0902635 -0.0481026 ) 59
( 0.0549034 0.0732207 -0.0190753 ) 85
( 0.0355587 0.069365 -0.0693251 ) 47
( 0.231448 0.0450441 -0.0556922 ) 54
( 0.0282717 0.090155 -0.0195276 ) 85
( 0.22871 0.0900953 -0.0498746 ) 63
( 0.149153 0.0901869 -0.0397233 ) 89
( 0.0104532 0.0351325 -0.0297527 ) 66
( 0.151502 0.0373464 -0.0379475 ) 71
( 0.143525 0.0277802 -0.0686253 ) 42
( 0.0433678 0.0672993 -0.0504425 ) 47
( 0.167817 0.00692984 -0.0699047 ) 34
( 0.170829 0.0900637 -0.0572342 ) 61
( 0.196872 0.0238363 -0.0518433 ) 44
( 0.137176 0.0900808 -0.0227744 ) 88
( 0.0527805 0.0273105 -0.00504808 ) 94
( 0.135533 0.0700962 6.06783e-05 ) 105
( 0.0833017 0.0549722 -0.00356743 ) 103
( 0.0894785 0.0423313 0.0105398 ) 96
( 0.217871 0.0165945 0.0112943 ) 100
( 0.114845 0.0250206 0.00870266 ) 97
( 0.0430416 0.0347622 0.0105328 ) 94
( 0.11019 0.0412419 -0.00206859 ) 96
( 0.175664 0.0361702 -0.0120384 ) 99
( 0.168882 0.0486545 0.00176464 ) 107
( 0.191221 0.0822048 -0.016786 ) 90
( 0.125036 0.0510771 0.0063609 ) 105
( 0.153926 0.0394125 0.0108316 ) 98
( 0.0490169 0.0902063 0.00757921 ) 109
( 0.125258 0.0234312 -0.00780161 ) 97
( 0.00985459 0.0488475 0.00689138 ) 101
( 0.0110368 0.0659965 -0.0165292 ) 75
( 0.103385 0.0901075 -0.00350085 ) 111
( 0.159005 0.0681929 -0.0100091 ) 106
( 0.193378 0.0595718 -0.0127748 ) 107
( 0.0293367 0.0881072 0.00604041 ) 109
( 0.0272697 0.0434108 -0.00310287 ) 101
( 0.0907392 0.0902261 0.0119002 ) 111
( 0.0756426 0.0182152 0.00723112 ) 95
( 0.062859 0.080044 -0.00215618 ) 110
( 0.207121 0.0272412 -0.00112192 ) 100
( 0.133951 0.0427865 -0.00903831 ) 97
( 0.0582072 0.0697175 0.0138761 ) 103
( 0.00989964 0.0682369 0.00298092 ) 101
( 0.124289 0.0776385 -0.0140647 ) 112
( 0.232428 0.0780827 -0.0152548 ) 92
( 0.162192 0.0798799 0.00557413 ) 113
( 0.163687 0.0259435 0.000280985 ) 98
( 0.14516 0.0901214 0.00640222 ) 113
( 0.0953044 0.0239159 0.00530139 ) 96
( 0.0643657 0.0605414 -0.00573659 ) 103
( 0.020124 0.0274373 -0.0144068 ) 66
( 0.0466391 0.0898355 -0.0119481 ) 109
( 0.0663305 0.0371131 0.00534546 ) 95
( 0.0928132 0.0732029 -0.00374234 ) 111
( 0.0532207 0.0515928 0.00795869 ) 102
( 0.105742 0.0730527 -0.0187607 ) 87
( 0.153677 0.0900482 -0.0115731 ) 113
( 0.0292376 0.0233612 0.00244592 ) 94
( 0.142533 0.0275971 0.000288096 ) 98
( 0.221099 0.0370503 0.00870897 ) 100
( 0.153193 0.0467081 -0.0119648 ) 106
( 0.116991 0.0594703 -0.00966114 ) 105
( 0.0770221 0.0702148 0.00779668 ) 103
( 0.011094 0.086871 -0.00999178 ) 108
( 0.0803803 0.0891378 -0.00480104 ) 110
( 0.191369 0.0389653 -0.000739414 ) 99
( 0.125031 0.0903334 0.000708254 ) 112
( 0.211746 0.0529946 -0.0156998 ) 82
( 0.108973 0.0286566 -0.0172556 ) 69
( 0.0824346 0.0340376 -0.00582847 ) 95
( 0.101127 0.0573496 0.00491225 ) 104
( 0.182737 0.021021 -0.000700653 ) 99
( 0.0361241 0.0604906 0.00211918 ) 102
( 0.178944 0.0712715 -0.0055856 ) 107
( 0.00975602 0.0442861 -0.0122916 ) 101
( 0.107822 0.0577675 -0.054727 ) 49
( 0.00985754 0.0901752 -0.0670981 ) 55
( 0.216745 0.0558424 -0.0346847 ) 82
( 0.13992 0.0605858 -0.0164437 ) 80
( 0.0518154 0.0144503 0.0101072 ) 94
( 0.00984012 0.0296383 0.002334 ) 93
( 0.00991258 0.0901384 0.00950125 ) 108
( 0.0702332 0.0230066 -0.016529 ) 68
( 0.221018 0.0444463 -0.0727286 ) 22
( 0.0499578 0.0901384 -0.0314057 ) 85
( 0.158656 -0.0107624 -0.0703191 ) 33
( 0.00983531 0.0560938 -0.0336438 ) 75
( 0.228093 0.0901249 -0.0697318 ) 63
( 0.0942618 0.0431352 -0.0554209 ) 49
( 0.224294 0.0056202 -0.0518914 ) 36
( 0.217693 0.0137882 -0.0187622 ) 64
( 0.230986 0.0582102 -0.0160189 ) 83
( 0.0672033 0.090061 -0.060682 ) 57
( 0.240955 0.0425464 -0.0230293 ) 74
( 0.10593 0.0625486 -0.03556 ) 78
( 0.145744 -0.00927039 -0.054142 ) 33
( 0.202636 0.0901038 -0.0487113 ) 62
( 0.139644 0.0278488 -0.0206332 ) 71
( 0.249405 -0.00447301 -0.0301214 ) 65
( 0.0928493 0.0900518 -0.0203615 ) 87
( 0.116545 0.0456685 -0.0239205 ) 79
( 0.150137 0.0575838 0.00401976 ) 106
( 0.150728 0.0759031 -0.0260896 ) 89
( 0.159326 0.0304815 -0.0211187 ) 71
( 0.188396 0.0424316 -0.0257436 ) 72
( 0.114328 0.0737648 0.00387531 ) 112
( 0.0407359 0.0312949 -0.0201036 ) 67
( 0.0358962 0.0730593 -0.0129726 ) 109
( 0.1732 0.016652 -0.017624 ) 72
( 0.175291 0.0641382 0.0124159 ) 107
( 0.173048 0.0556236 -0.0163784 ) 81
( 0.0961091 0.0446738 -0.0154377 ) 78
( 0.0755511 0.073493 -0.015824 ) 86
( 0.20543 0.0345762 -0.0193729 ) 73
( 0.203871 0.070387 -0.0264718 ) 82
( 0.0637052 0.0415434 -0.0137193 ) 95
( 0.0453499 0.0476421 -0.00976827 ) 102
( 0.0653626 0.0902182 -0.0188634 ) 86
( 0.0117485 0.0704828 -0.0666412 ) 46
( 0.10996 0.0787368 -0.0781078 ) 27
( 0.178296 0.0403392 -0.0774971 ) 12
( 0.0290722 0.0316663 -0.0760885 ) 7
( 0.238034 0.0776438 -0.0815364 ) 32
( 0.199013 0.0750088 -0.0821748 ) 31
( 0.178423 -0.0141709 -0.0816847 ) 3
( 0.05164 0.0237946 -0.0777051 ) 7
( 0.112314 0.0290151 -0.0799397 ) 10
( 0.0685318 0.0163181 -0.0702928 ) 39
( 0.0746781 0.0625875 -0.0755785 ) 17
( 0.138951 0.0534861 -0.076584 ) 20
( 0.218341 0.0793484 -0.0834179 ) 31
( 0.0166145 0.0466542 -0.072221 ) 15
( 0.153509 0.0405098 -0.0806286 ) 11
( 0.0809613 0.044224 -0.0701146 ) 48
( 0.0503939 0.0601683 -0.0789588 ) 16
( 0.154701 0.0164339 -0.0816072 ) 11
( 0.0456368 0.041992 -0.0722966 ) 7
( 0.0457815 0.0859684 -0.0737273 ) 25
( 0.0852332 0.00825413 -0.0773934 ) 0
( 0.0787791 0.0820175 -0.075134 ) 26
( 0.129658 0.0192478 -0.0800202 ) 10
( 0.133593 -0.00672884 -0.0827868 ) 1
( 0.160903 0.0659584 -0.0849572 ) 20
( 0.186168 0.00359258 -0.0770357 ) 3
( 0.0267511 0.0900567 -0.0774595 ) 24
( 0.234445 0.0125692 -0.0867786 ) 5
( 0.0882071 -0.0102128 -0.0842218 ) 0
( 0.214322 0.0249153 -0.0827212 ) 13
( 0.0184445 0.0161224 -0.0825165 ) 6
( 0.209923 0.0569992 -0.0836487 ) 22
( 0.0104478 0.0799843 -0.0841682 ) 24
( 0.130474 0.0758573 -0.0817031 ) 28
( 0.092582 0.0315021 -0.0799397 ) 9
( 0.0657351 0.037457 -0.0809858 ) 8
( 0.120167 0.0539765 -0.0830792 ) 19
( 0.03153 0.0548224 -0.0825974 ) 16
( 0.179238 0.073056 -0.0814638 ) 30
( 0.101906 0.0617102 -0.0847702 ) 18
( 0.196515 0.0407821 -0.0856796 ) 13
( 0.10854 0.0059877 -0.0809637 ) 0
( 0.146737 0.0900847 -0.0818329 ) 29
( 0.0626452 0.0901112 -0.0833336 ) 26
( 0.233234 0.0420389 -0.0883465 ) 14
( 0.173326 0.0222028 -0.0859235 ) 12
( 0.0914328 0.0891558 -0.0888269 ) 27
( 0.00991222 0.060091 -0.0851978 ) 15
( 0.0108332 0.0343231 -0.0868106 ) 6
( 0.037493 0.0143975 -0.0880957 ) 7
( 0.195427 0.0203486 -0.0872139 ) 13
( 0.0315006 0.0739808 -0.0882671 ) 25
( 0.0860168 0.0501926 -0.0884293 ) 18
( 0.0768794 0.0226374 -0.0884118 ) 8
( 0.134957 0.0370807 -0.0871791 ) 10
( 0.115083 -0.0111568 -0.0887726 ) 1
)
