/*--------------------------------*- C++ -*----------------------------------*\
| =========                 |                                                 |
| \\      /  F ield         | OpenFOAM: The Open Source CFD Toolbox           |
|  \\    /   O peration     | Version:  4.x                                   |
|   \\  /    A nd           | Web:      www.OpenFOAM.org                      |
|    \\/     M anipulation  |                                                 |
\*---------------------------------------------------------------------------*/
FoamFile
{
    version     2.0;
    format      ascii;
    class       volVectorField;
    location    "35.5";
    object      ddtUrel;
}
// * * * * * * * * * * * * * * * * * * * * * * * * * * * * * * * * * * * * * //

dimensions      [0 1 -2 0 0 0 0];

internalField   nonuniform List<vector> 
114
(
(6.51532e-09 7.76047e-10 -6.23077e-09)
(5.5181e-09 1.38368e-09 -4.47236e-09)
(2.27903e-09 2.04429e-09 -3.07082e-09)
(-2.77484e-09 2.7029e-09 -2.05772e-09)
(-1.03717e-08 3.44719e-09 -1.49208e-09)
(-2.68662e-08 4.43617e-09 -9.82597e-10)
(7.77273e-09 4.92892e-10 -8.9424e-09)
(8.43256e-09 1.34132e-09 -6.9673e-09)
(6.78121e-09 1.98132e-09 -4.84476e-09)
(2.82859e-09 2.69124e-09 -3.34083e-09)
(-2.64105e-09 3.42892e-09 -2.48656e-09)
(-9.13315e-09 4.14885e-09 -2.05895e-09)
(-1.53688e-08 5.13779e-09 -1.69832e-09)
(8.18456e-09 5.54554e-10 -1.01653e-08)
(9.80594e-09 1.24189e-09 -9.62481e-09)
(9.89582e-09 2.02729e-09 -7.3525e-09)
(7.60322e-09 2.68151e-09 -4.91398e-09)
(2.9211e-09 3.33256e-09 -3.32406e-09)
(-3.49461e-09 4.11568e-09 -2.63808e-09)
(-1.06785e-08 5.03293e-09 -2.62256e-09)
(-1.59889e-08 7.72108e-09 -2.32408e-09)
(4.6333e-09 -3.31979e-10 -4.88619e-09)
(5.23518e-09 7.74727e-11 -5.99451e-09)
(6.6869e-09 7.49019e-10 -6.22163e-09)
(6.95571e-09 1.26182e-09 -5.19226e-09)
(5.44727e-09 1.47976e-09 -3.8103e-09)
(2.30096e-09 1.69346e-09 -2.77992e-09)
(-1.70927e-09 2.03939e-09 -2.06193e-09)
(-6.72351e-09 2.4258e-09 -1.70895e-09)
(-1.19928e-08 2.93944e-09 -1.47067e-09)
(5.45402e-09 -5.68133e-10 -5.53524e-09)
(5.89654e-09 -3.67079e-10 -6.81038e-09)
(7.80547e-09 7.58759e-10 -7.02347e-09)
(8.20634e-09 1.55925e-09 -5.78801e-09)
(6.40261e-09 1.81213e-09 -4.18241e-09)
(2.99287e-09 2.10653e-09 -2.97121e-09)
(-1.22245e-09 2.39027e-09 -2.29165e-09)
(-5.8958e-09 2.8496e-09 -2.06012e-09)
(-9.86149e-09 3.23374e-09 -1.86245e-09)
(6.70063e-09 -1.73655e-10 -6.43968e-09)
(7.56927e-09 4.88208e-10 -7.83619e-09)
(8.72361e-09 1.12954e-09 -7.66154e-09)
(8.7108e-09 1.6911e-09 -6.09083e-09)
(6.67787e-09 1.95924e-09 -4.22927e-09)
(3.14045e-09 2.28459e-09 -2.9461e-09)
(-1.41522e-09 2.66993e-09 -2.40137e-09)
(-6.13101e-09 3.16403e-09 -2.30925e-09)
(-9.55554e-09 3.60155e-09 -2.14406e-09)
(6.89609e-09 -9.18347e-11 -6.88964e-09)
(8.09339e-09 6.65925e-10 -7.98377e-09)
(5.21609e-09 9.40297e-11 -3.80526e-09)
(6.12625e-09 5.19089e-10 -4.65637e-09)
(7.30032e-09 1.09718e-09 -4.95071e-09)
(7.68203e-09 1.89496e-09 -4.65567e-09)
(5.61928e-09 1.61313e-09 -3.3261e-09)
(2.47667e-09 1.44498e-09 -2.44495e-09)
(-9.83757e-10 1.54483e-09 -1.82447e-09)
(-4.46264e-09 1.71409e-09 -1.60719e-09)
(-6.89213e-09 2.03905e-09 -1.53666e-09)
(5.85112e-09 7.21735e-11 -4.22846e-09)
(6.85647e-09 5.07802e-10 -5.20439e-09)
(8.42242e-09 1.13087e-09 -5.52679e-09)
(9.37121e-09 2.21434e-09 -4.77592e-09)
(6.38498e-09 1.87082e-09 -3.50828e-09)
(2.96709e-09 1.7251e-09 -2.55935e-09)
(-6.11796e-10 1.69861e-09 -1.9707e-09)
(-3.95709e-09 1.91794e-09 -1.81053e-09)
(-6.35462e-09 2.10193e-09 -1.79651e-09)
(6.55203e-09 2.39066e-10 -4.70914e-09)
(7.40303e-09 7.17551e-10 -5.71847e-09)
(8.28955e-09 1.15474e-09 -5.80368e-09)
(8.24206e-09 1.6251e-09 -4.86381e-09)
(6.10724e-09 1.64288e-09 -3.50035e-09)
(2.92159e-09 1.63858e-09 -2.5254e-09)
(-5.97739e-10 1.73665e-09 -2.04246e-09)
(-3.92e-09 1.95115e-09 -1.92109e-09)
(-6.04813e-09 2.06104e-09 -1.85303e-09)
(6.63442e-09 1.42878e-10 -4.72252e-09)
(7.37879e-09 6.12391e-10 -5.69032e-09)
(8.01904e-09 9.39169e-10 -5.61948e-09)
(7.63195e-09 1.18359e-09 -4.56787e-09)
(5.22292e-09 2.85798e-10 -3.14832e-09)
(6.5266e-09 5.72746e-10 -3.87817e-09)
(8.05244e-09 9.49697e-10 -4.272e-09)
(8.32184e-09 1.84714e-09 -4.02214e-09)
(5.8953e-09 1.61893e-09 -2.87559e-09)
(2.43189e-09 1.36663e-09 -2.15325e-09)
(-8.0179e-10 1.32631e-09 -1.66438e-09)
(-4.14342e-09 1.41175e-09 -1.4567e-09)
(-5.24517e-09 1.77048e-09 -1.79236e-09)
(5.7995e-09 2.76284e-10 -3.408e-09)
(7.36035e-09 5.5474e-10 -4.21629e-09)
(1.0875e-08 5.29459e-10 -5.05565e-09)
(1.11312e-08 2.43804e-09 -4.0451e-09)
(6.97922e-09 2.27455e-09 -2.97817e-09)
(2.78212e-09 1.60851e-09 -2.18645e-09)
(-5.32035e-10 1.43209e-09 -1.74573e-09)
(-3.49713e-09 1.47698e-09 -1.56135e-09)
(-4.82881e-09 1.58228e-09 -1.67197e-09)
(6.17708e-09 3.94392e-10 -3.57555e-09)
(7.08801e-09 7.01121e-10 -4.30666e-09)
(8.34038e-09 9.73776e-10 -4.53296e-09)
(8.5003e-09 1.49132e-09 -3.82577e-09)
(5.92335e-09 1.68318e-09 -2.89137e-09)
(2.52355e-09 1.37067e-09 -2.13992e-09)
(-5.8825e-10 1.34657e-09 -1.74344e-09)
(-3.42817e-09 1.42454e-09 -1.6026e-09)
(-4.71537e-09 1.47548e-09 -1.70057e-09)
(6.42256e-09 3.29878e-10 -3.63564e-09)
(6.91137e-09 6.51436e-10 -4.22727e-09)
(7.4839e-09 8.18516e-10 -4.26597e-09)
(6.9432e-09 8.74396e-10 -3.58604e-09)
(5.11277e-09 8.50012e-10 -2.66519e-09)
(2.33908e-09 8.24608e-10 -1.96524e-09)
)
;

boundaryField
{
    inlet
    {
        type            calculated;
        value           nonuniform 0();
    }
    outlet
    {
        type            calculated;
        value           nonuniform List<vector> 
12
(
(-1.80892e-07 7.39499e-09 4.83995e-09)
(-6.46058e-09 7.39057e-09 -5.24759e-10)
(2.79089e-09 5.29581e-08 1.80384e-09)
(-4.5195e-09 2.15222e-09 -1.09701e-09)
(-1.07395e-08 2.09395e-09 -2.40105e-09)
(-5.85009e-09 1.9854e-09 -2.01031e-09)
(-6.17333e-09 9.60889e-10 1.63159e-10)
(-6.52169e-09 1.30408e-09 -2.77641e-09)
(-4.14795e-09 1.2803e-09 -1.44233e-09)
(-6.79584e-09 2.36153e-09 -3.51743e-09)
(-4.76466e-09 -2.51143e-10 -9.35732e-10)
(-3.86083e-09 9.57744e-10 -1.67113e-09)
)
;
    }
    wall
    {
        type            calculated;
        value           nonuniform List<vector> 
66
(
(3.35697e-09 7.09842e-10 -1.31061e-09)
(5.2213e-09 3.29908e-10 -2.09122e-09)
(5.18645e-09 1.51191e-09 -1.47024e-09)
(7.67022e-09 2.73106e-09 -1.95954e-09)
(5.5316e-09 4.98036e-10 -1.51675e-09)
(7.58531e-09 1.13174e-09 -1.81757e-09)
(5.64282e-09 1.34163e-09 -2.10154e-09)
(6.32033e-09 2.08914e-09 -2.26734e-09)
(6.23156e-09 8.09331e-11 -1.83622e-09)
(4.52584e-08 -1.02411e-08 -1.36097e-08)
(7.41288e-09 1.44007e-09 -2.8255e-09)
(8.11868e-09 2.01465e-09 -3.17018e-09)
(1.15979e-08 3.52245e-09 -4.87932e-09)
(4.81469e-08 1.45227e-08 -2.70192e-09)
(1.51217e-08 1.08611e-09 -1.4778e-09)
(4.95319e-09 8.8164e-10 -2.36224e-09)
(6.66499e-09 -3.14869e-10 1.92838e-10)
(1.54733e-08 8.94111e-09 -1.03076e-09)
(6.72255e-09 4.25926e-09 -9.18518e-10)
(3.61188e-09 6.29077e-10 -9.57078e-10)
(-3.94186e-10 -3.25415e-10 -4.06564e-10)
(7.33758e-11 1.13223e-09 -1.42592e-10)
(-2.33143e-09 5.71587e-10 -1.01594e-10)
(-8.50523e-10 6.32967e-13 2.0044e-10)
(-1.47776e-09 1.38348e-11 -2.25931e-10)
(-1.78952e-09 7.59251e-10 -6.82443e-10)
(-2.54292e-09 1.02009e-09 -6.22836e-10)
(-2.1546e-08 -7.78986e-10 1.36293e-09)
(-9.77603e-09 4.42765e-11 2.17841e-10)
(-1.03624e-08 5.99435e-10 3.10473e-10)
(-8.99101e-09 5.66834e-09 -8.55869e-09)
(-3.99394e-09 6.1254e-10 -1.43223e-09)
(-4.13195e-09 1.02628e-09 -2.19888e-09)
(6.32562e-09 -5.74859e-10 -4.38428e-09)
(5.58042e-09 1.30277e-10 -2.8583e-09)
(2.94242e-09 7.17281e-10 -1.32977e-09)
(4.68147e-09 1.09196e-09 -5.46649e-09)
(4.40766e-09 1.24918e-09 -3.04355e-09)
(4.5187e-09 5.0648e-10 -1.54623e-09)
(9.73332e-09 2.02332e-09 -7.03065e-09)
(6.13281e-09 1.81496e-09 -3.29744e-09)
(5.50717e-09 9.41164e-11 -1.86089e-09)
(1.20641e-08 -4.49548e-10 -5.68068e-09)
(7.61299e-09 8.46354e-10 -2.97449e-09)
(1.13563e-08 6.49802e-09 -7.94126e-09)
(1.08531e-08 3.52918e-09 -4.89776e-09)
(9.41396e-09 -4.39516e-10 -3.2201e-09)
(6.62867e-09 3.81643e-10 -1.05895e-09)
(6.10881e-09 7.97832e-10 -1.22788e-09)
(6.40377e-09 -3.182e-10 1.62523e-10)
(4.19319e-09 5.54847e-10 -2.22532e-09)
(1.41953e-09 -3.55508e-10 -1.33903e-09)
(1.99576e-09 -8.05418e-10 -1.08957e-09)
(-1.56386e-10 -3.27747e-10 -4.07853e-10)
(4.05933e-10 1.99216e-10 -7.67696e-10)
(5.43885e-10 3.95065e-10 -1.0394e-09)
(-7.14997e-10 -2.7012e-11 1.46011e-10)
(-1.26411e-09 -3.93621e-11 -1.66838e-10)
(-3.87912e-09 7.14938e-10 -1.46814e-09)
(-5.42374e-09 -3.00201e-10 -1.22343e-09)
(-4.29667e-09 -6.32539e-10 -6.24708e-10)
(-1.77446e-08 -6.10108e-10 1.2131e-09)
(-2.00898e-07 7.65301e-09 2.21972e-09)
(-5.84853e-09 2.02605e-09 -1.05538e-09)
(-5.58378e-09 1.045e-09 1.04481e-10)
(-7.93611e-09 4.27704e-09 -7.52834e-09)
)
;
    }
    procBoundary5to1
    {
        type            processor;
        value           nonuniform List<vector> 
32
(
(4.64672e-09 1.64368e-10 -6.91475e-09)
(5.33399e-09 1.20768e-09 -4.77548e-09)
(2.57101e-09 2.2401e-09 -2.96726e-09)
(-2.38261e-09 3.36797e-09 -1.56649e-09)
(-8.33966e-09 4.42055e-09 -6.78058e-10)
(-1.38893e-08 5.2108e-09 -3.19669e-10)
(5.95912e-09 -1.82176e-10 -1.04277e-08)
(8.36241e-09 1.35477e-09 -7.7793e-09)
(7.22968e-09 2.35768e-09 -5.08375e-09)
(2.84689e-09 3.47101e-09 -3.24142e-09)
(-3.83086e-09 4.51942e-09 -2.10166e-09)
(-1.16704e-08 5.15806e-09 -1.60591e-09)
(-1.77557e-08 5.5341e-09 -1.46791e-09)
(7.7426e-09 3.43441e-10 -1.22827e-08)
(1.07874e-08 1.20436e-09 -1.13886e-08)
(1.16132e-08 2.60355e-09 -8.44626e-09)
(8.97532e-09 3.71079e-09 -5.23471e-09)
(2.70746e-09 4.67019e-09 -3.22678e-09)
(-6.69857e-09 5.65352e-09 -2.55009e-09)
(-1.8884e-08 5.94168e-09 -2.81368e-09)
(-2.95887e-08 5.81137e-09 -3.07592e-09)
(2.94747e-09 -7.66586e-10 -6.26095e-09)
(2.77104e-09 -5.25374e-10 -7.63557e-09)
(5.10131e-09 1.32204e-10 -7.77564e-09)
(5.10131e-09 1.32204e-10 -7.77564e-09)
(5.10131e-09 1.32204e-10 -7.77564e-09)
(5.1516e-09 -6.25685e-10 -7.35398e-09)
(5.91609e-09 -1.44199e-10 -9.1157e-09)
(5.91609e-09 -1.44199e-10 -9.1157e-09)
(5.91609e-09 -1.44199e-10 -9.1157e-09)
(6.65082e-09 -3.06124e-10 -8.36141e-09)
(6.65082e-09 -3.06124e-10 -8.36141e-09)
)
;
    }
    procBoundary5to4
    {
        type            processor;
        value           nonuniform List<vector> 
12
(
(3.79861e-09 -4.78869e-10 -3.05673e-09)
(4.64154e-09 -5.6501e-10 -3.43646e-09)
(5.2729e-09 -5.99178e-10 -4.12164e-09)
(5.41594e-09 -7.02274e-10 -4.89006e-09)
(4.16188e-09 -1.04601e-10 -2.44686e-09)
(4.79301e-09 -1.22908e-10 -2.77114e-09)
(5.42493e-09 -8.63809e-11 -3.16479e-09)
(5.69472e-09 -3.88241e-10 -3.52505e-09)
(4.10208e-09 5.57456e-11 -2.10185e-09)
(4.73597e-09 3.70509e-11 -2.31029e-09)
(5.40984e-09 4.52486e-11 -2.51777e-09)
(6.1675e-09 -4.21481e-10 -2.72418e-09)
)
;
    }
    procBoundary5to7
    {
        type            processor;
        value           nonuniform List<vector> 
44
(
(9.26744e-09 1.0301e-09 -1.03679e-08)
(1.07299e-08 1.71401e-09 -9.78753e-09)
(1.05148e-08 2.48144e-09 -7.28402e-09)
(7.6909e-09 3.045e-09 -4.69798e-09)
(2.20913e-09 3.54698e-09 -3.24982e-09)
(-4.97004e-09 4.12641e-09 -2.72302e-09)
(-1.35369e-08 4.45263e-09 -3.02982e-09)
(-2.07485e-08 4.33816e-09 -3.33959e-09)
(7.29612e-09 7.87826e-11 -8.92537e-09)
(9.26744e-09 1.0301e-09 -1.03679e-08)
(9.02097e-09 1.1488e-09 -7.65742e-09)
(8.78833e-09 1.61237e-09 -5.91459e-09)
(6.56121e-09 1.85479e-09 -3.96513e-09)
(2.81667e-09 2.12475e-09 -2.75711e-09)
(-1.96874e-09 2.41965e-09 -2.32301e-09)
(-6.99545e-09 2.72018e-09 -2.41108e-09)
(-1.08992e-08 2.46248e-09 -2.42381e-09)
(6.50448e-09 1.71222e-11 -6.50459e-09)
(9.02097e-09 1.1488e-09 -7.65742e-09)
(7.85922e-09 6.19649e-10 -7.24362e-09)
(9.02097e-09 1.1488e-09 -7.65742e-09)
(8.78833e-09 1.61237e-09 -5.91459e-09)
(5.75793e-09 1.19237e-09 -3.20154e-09)
(2.74178e-09 1.24733e-09 -2.33669e-09)
(-7.68047e-10 1.37415e-09 -1.98925e-09)
(-4.13462e-09 1.53912e-09 -1.90116e-09)
(-6.3568e-09 1.46675e-09 -1.86451e-09)
(6.12133e-09 -3.40117e-11 -4.60449e-09)
(7.05258e-09 3.36689e-10 -5.20201e-09)
(7.73573e-09 5.5897e-10 -4.81776e-09)
(5.75793e-09 1.19237e-09 -3.20154e-09)
(7.47052e-09 5.47169e-10 -3.86499e-09)
(5.75793e-09 1.19237e-09 -3.20154e-09)
(2.74178e-09 1.24733e-09 -2.33669e-09)
(-6.47059e-10 9.12446e-10 -1.65514e-09)
(-3.63325e-09 1.08679e-09 -1.5478e-09)
(-4.94425e-09 1.0291e-09 -1.65294e-09)
(5.9147e-09 6.6665e-11 -3.52652e-09)
(6.67008e-09 3.17628e-10 -3.91835e-09)
(7.05945e-09 2.50929e-10 -3.74695e-09)
(6.59657e-09 2.85814e-11 -3.02059e-09)
(4.96135e-09 -2.73787e-10 -2.21874e-09)
(-6.47059e-10 9.12446e-10 -1.65514e-09)
(2.45827e-09 -3.11727e-11 -1.70149e-09)
)
;
    }
}


// ************************************************************************* //
