/*--------------------------------*- C++ -*----------------------------------*\
| =========                 |                                                 |
| \\      /  F ield         | OpenFOAM: The Open Source CFD Toolbox           |
|  \\    /   O peration     | Version:  4.x                                   |
|   \\  /    A nd           | Web:      www.OpenFOAM.org                      |
|    \\/     M anipulation  |                                                 |
\*---------------------------------------------------------------------------*/
FoamFile
{
    version     2.0;
    format      ascii;
    class       volVectorField;
    location    "35.5";
    object      DDtUrel;
}
// * * * * * * * * * * * * * * * * * * * * * * * * * * * * * * * * * * * * * //

dimensions      [0 1 -2 0 0 0 0];

internalField   nonuniform List<vector> 
114
(
(-0.000160064 -2.01016e-05 3.06501e-06)
(-0.00029263 -5.089e-05 -2.5813e-07)
(-0.000484488 -0.000104921 -1.84025e-05)
(-0.000850364 -0.000184938 -4.72917e-05)
(-0.00136561 -0.000319367 -0.00011292)
(-0.00198283 -0.000452502 -0.000202653)
(-6.4798e-05 3.81137e-06 1.25972e-05)
(-0.000145369 -1.897e-05 2.72192e-06)
(-0.00027583 -4.14906e-05 9.59731e-07)
(-0.000478376 -9.49598e-05 -2.49283e-05)
(-0.000827254 -0.000163061 -4.79584e-05)
(-0.00128274 -0.000313438 -0.00013274)
(-0.00185903 -0.000466685 -0.000209444)
(-2.14231e-05 3.00438e-06 9.41376e-06)
(-6.92531e-05 -3.9409e-06 7.72963e-06)
(-0.000146612 -1.65115e-05 -2.42097e-07)
(-0.000277285 -3.48396e-05 -5.51473e-06)
(-0.000470588 -6.70018e-05 -3.54409e-05)
(-0.00079264 -0.000112248 -6.46762e-05)
(-0.00116286 -0.000199284 -0.000146587)
(-0.00168173 -0.000279202 -0.000218595)
(4.39437e-05 1.69807e-05 2.31809e-05)
(-6.22672e-06 9.01003e-06 2.41162e-05)
(-2.25581e-05 6.65815e-06 2.67664e-05)
(-0.000123401 -2.31458e-05 3.54413e-05)
(-0.000200248 -3.9711e-05 3.8564e-05)
(-0.000436513 -0.000114487 6.95234e-05)
(-0.000689457 -0.000178569 7.73043e-05)
(-0.00136604 -0.000398666 0.000249239)
(-0.00232724 -0.000566305 0.000380014)
(2.17073e-05 1.4477e-05 1.42772e-05)
(-1.58656e-05 6.83743e-06 1.43555e-05)
(-4.59998e-05 5.14003e-07 1.59964e-05)
(-0.000129499 -1.98261e-05 2.29387e-05)
(-0.000237405 -3.83443e-05 3.31599e-05)
(-0.000440703 -0.00010681 5.8086e-05)
(-0.000754476 -0.000167674 8.12016e-05)
(-0.00125223 -0.000402183 0.000239328)
(-0.00195336 -0.000569925 0.000355361)
(7.23964e-06 5.38502e-06 1.02073e-05)
(-2.37046e-05 4.40113e-07 9.94814e-06)
(-5.95067e-05 -6.40489e-06 1.41717e-05)
(-0.000135801 -1.78395e-05 1.60895e-05)
(-0.000249148 -3.65711e-05 2.56588e-05)
(-0.000440287 -7.21394e-05 3.77891e-05)
(-0.000753304 -0.000108906 5.70123e-05)
(-0.00114044 -0.000244509 0.00015709)
(-0.00171452 -0.0003684 0.00025444)
(3.48483e-06 -1.97161e-06 6.74838e-06)
(-2.91241e-05 -3.76256e-06 6.08002e-06)
(5.39774e-05 1.34359e-05 1.23783e-05)
(1.75657e-05 8.74791e-06 1.94156e-05)
(6.41879e-06 2.66181e-06 2.65179e-05)
(-7.97802e-05 -1.94304e-05 4.82714e-05)
(-0.000153704 -4.38259e-05 6.63528e-05)
(-0.000390343 -0.000107574 0.000129204)
(-0.000690295 -0.000192686 0.000185107)
(-0.00146797 -0.00036845 0.000434053)
(-0.00246082 -0.000527635 0.000679063)
(3.92285e-05 9.44038e-06 7.26078e-06)
(3.86184e-06 2.34477e-06 1.3715e-05)
(-1.19017e-05 3.03556e-07 1.65639e-05)
(-9.51882e-05 -2.05673e-05 3.66125e-05)
(-0.000176708 -3.39098e-05 5.12909e-05)
(-0.000400303 -9.78274e-05 0.000110913)
(-0.000691609 -0.000156044 0.000169011)
(-0.00137118 -0.000358521 0.000420094)
(-0.00226835 -0.000524403 0.0006063)
(1.72539e-05 2.29376e-06 1.90652e-06)
(-1.39042e-05 -2.3708e-06 8.6664e-06)
(-4.56143e-05 -5.88719e-06 1.64775e-05)
(-0.000113913 -2.05891e-05 2.92556e-05)
(-0.000218985 -3.782e-05 4.74245e-05)
(-0.000407334 -7.86271e-05 9.71401e-05)
(-0.000712962 -0.000128979 0.000158812)
(-0.00123324 -0.000267586 0.000403458)
(-0.0019159 -0.000373668 0.000570454)
(9.56078e-06 -2.59047e-06 -1.76624e-06)
(-2.72737e-05 -7.86903e-06 3.77567e-06)
(-5.63508e-05 -1.34381e-05 9.30777e-06)
(-0.000129764 -2.10619e-05 2.38654e-05)
(0.000111861 8.93132e-06 1.25471e-05)
(7.64799e-05 3.79446e-06 2.45983e-05)
(9.81719e-05 -2.92501e-06 3.08942e-05)
(1.49955e-06 -3.03467e-05 7.26243e-05)
(1.46635e-05 -5.11148e-05 8.3978e-05)
(-0.000284521 -0.000134765 0.000198157)
(-0.000379219 -0.000208307 0.000234176)
(-0.00170639 -0.000516847 0.000666433)
(-0.00328507 -0.000794013 0.00114091)
(8.03859e-05 2.44645e-06 5.21965e-06)
(4.27661e-05 -3.77426e-06 1.43273e-05)
(5.3195e-05 -3.31711e-06 1.83956e-05)
(-4.13661e-05 -2.83224e-05 4.97501e-05)
(-7.101e-05 -3.6413e-05 6.18063e-05)
(-0.000347766 -0.000108926 0.000147349)
(-0.000575659 -0.00015145 0.000200241)
(-0.00155149 -0.000406683 0.000509228)
(-0.00278392 -0.000669277 0.000826979)
(4.81384e-05 -5.06952e-06 -1.46614e-06)
(7.89637e-06 -9.27127e-06 1.01964e-05)
(6.50709e-06 -9.99628e-06 1.44076e-05)
(-7.58101e-05 -2.63371e-05 4.39191e-05)
(-0.000118016 -3.53058e-05 5.02239e-05)
(-0.000351702 -8.34161e-05 0.000133552)
(-0.000561005 -0.00011721 0.000171792)
(-0.00139864 -0.000275329 0.000491082)
(-0.00249689 -0.00043538 0.000772724)
(2.73249e-05 -9.96624e-06 -8.41421e-06)
(-1.88304e-05 -1.50942e-05 1.2448e-07)
(-3.02059e-05 -1.80399e-05 2.54629e-06)
(-0.000112283 -2.98724e-05 2.74679e-05)
(-0.00016013 -3.50143e-05 4.17956e-05)
(-0.000366936 -7.26662e-05 0.000103669)
)
;

boundaryField
{
    inlet
    {
        type            calculated;
        value           nonuniform 0();
    }
    outlet
    {
        type            calculated;
        value           nonuniform List<vector> 
12
(
(-0.00117177 -0.000298507 -0.000382091)
(-0.0019032 -0.00091205 -0.000623553)
(-0.00183284 -0.000177374 -0.00045475)
(-0.00723116 -0.00156525 0.00174752)
(-0.00313674 -0.00219715 0.00192609)
(-0.00263712 -0.00118283 0.00104857)
(-0.00415329 -0.00011897 0.00119715)
(-0.00504988 -0.000930635 0.00118892)
(-0.00218794 -0.000594989 0.00160041)
(-0.0124593 -0.00289 0.00505435)
(-0.00769989 -0.00229795 0.00173725)
(-0.00758472 -0.00064148 0.0027201)
)
;
    }
    wall
    {
        type            calculated;
        value           nonuniform List<vector> 
66
(
(0.00053684 4.30883e-05 -1.02771e-05)
(0.000344793 1.96084e-05 -3.70338e-05)
(0.000233752 -1.49728e-05 -5.75516e-05)
(0.000234116 -1.53808e-05 -6.03415e-05)
(0.00017537 1.68945e-05 9.0636e-05)
(9.68267e-06 -5.05262e-05 1.38843e-05)
(-7.62598e-05 -4.06997e-05 5.73686e-05)
(-9.8058e-05 -5.50079e-05 3.72765e-06)
(0.000900518 4.82232e-05 -3.20965e-05)
(0.000598111 8.73362e-05 -9.03983e-05)
(0.000397625 3.22186e-05 -4.96526e-05)
(0.000311126 -1.65751e-05 -0.000108841)
(2.57128e-05 -9.15561e-05 0.000315713)
(-0.000113444 -0.000106724 0.000100384)
(-8.33081e-05 -5.08961e-05 0.000196379)
(-0.000152121 -9.9136e-05 7.1315e-05)
(0.00180431 8.52669e-05 -0.000127368)
(0.000935356 0.000206275 -0.000177064)
(0.000797365 0.000101773 -0.000200652)
(0.000662969 5.45215e-05 -6.31115e-05)
(-0.000428466 -0.000330001 0.00081783)
(-0.000527841 -0.000238773 0.000251716)
(-0.000225736 -9.91779e-05 0.000440176)
(-0.000167499 -0.000297356 0.000277515)
(0.00516785 0.00033115 -0.00079529)
(0.00155606 0.000621265 -0.000550972)
(0.00199623 0.000304302 -0.00072112)
(-0.00209712 -0.00141031 0.00172318)
(-0.00126553 -0.000595384 0.000327566)
(-0.000916048 -8.11142e-05 0.00112332)
(-0.0124593 -0.00289 0.00505435)
(-0.00769989 -0.00229795 0.00173725)
(-0.00758472 -0.00064148 0.0027201)
(0.000263287 4.95739e-05 9.17129e-05)
(5.4998e-05 5.00614e-05 -2.85913e-05)
(0.00053684 4.30883e-05 -1.02771e-05)
(-0.000102247 -2.40694e-05 0.000101283)
(-0.000129761 4.72152e-05 6.50082e-06)
(0.00017537 1.68945e-05 9.0636e-05)
(0.000399529 0.000116198 8.97028e-05)
(0.000113777 6.65366e-05 -4.60357e-06)
(0.000900518 4.82232e-05 -3.20965e-05)
(-0.000341482 5.96112e-07 7.16964e-06)
(-0.000203753 -9.6954e-05 0.000151601)
(-0.000188111 3.63069e-05 6.0661e-05)
(2.57128e-05 -9.15561e-05 0.000315713)
(-0.000822598 -5.52031e-05 2.97371e-05)
(0.000569866 0.000191564 -1.35658e-06)
(7.08899e-05 6.30032e-05 -1.63405e-06)
(0.00180431 8.52669e-05 -0.000127368)
(-0.000144802 1.23258e-05 7.92194e-05)
(-0.000364252 -0.000223136 0.000265904)
(-0.000338417 3.61567e-05 0.000179399)
(-0.000428466 -0.000330001 0.00081783)
(-0.00115553 -0.000113516 -1.90985e-05)
(0.00137745 0.000356266 -0.000415058)
(-9.24114e-05 -6.52422e-06 -0.000211813)
(0.00516785 0.00033115 -0.00079529)
(-0.000464132 1.97713e-05 -3.47033e-05)
(-0.000481795 -0.000893232 0.000956055)
(-0.000649369 9.44018e-05 0.000343836)
(-0.00209712 -0.00141031 0.00172318)
(-0.00117177 -0.000298507 -0.000382091)
(-0.00723116 -0.00156525 0.00174752)
(-0.00415329 -0.00011897 0.00119715)
(-0.0124593 -0.00289 0.00505435)
)
;
    }
    procBoundary5to1
    {
        type            processor;
        value           nonuniform List<vector> 
32
(
(-0.000100317 -2.43595e-05 -3.51029e-05)
(-0.000165847 -4.54765e-05 -3.44158e-05)
(-0.000465712 -0.0001161 -0.000120527)
(-0.000776302 -0.000178965 -0.00014144)
(-0.00163398 -0.000358137 -0.000455195)
(-0.00267975 -0.000515616 -0.000814898)
(8.16891e-07 3.71395e-06 6.62539e-06)
(-0.000109943 -2.54286e-05 -2.35471e-05)
(-0.000203291 -4.08509e-05 -3.2946e-05)
(-0.000473024 -0.000113168 -0.000112182)
(-0.000799902 -0.000156989 -0.000153559)
(-0.00152139 -0.000385919 -0.000423348)
(-0.00241367 -0.000581791 -0.000717862)
(3.2138e-06 4.03514e-06 7.83902e-06)
(-3.81068e-05 -1.08264e-06 3.75856e-06)
(-0.000133006 -2.08701e-05 -1.89126e-05)
(-0.00026085 -3.67241e-05 -3.51263e-05)
(-0.000488851 -8.40454e-05 -0.000110513)
(-0.000840498 -0.000112964 -0.000178381)
(-0.0013485 -0.000289534 -0.000411894)
(-0.00201896 -0.000424848 -0.000653274)
(3.06282e-05 2.42807e-05 2.01181e-05)
(-2.48217e-05 1.62678e-05 1.15724e-05)
(-7.63282e-05 9.9825e-06 1.08629e-05)
(-7.63282e-05 9.9825e-06 1.08629e-05)
(-7.63282e-05 9.9825e-06 1.08629e-05)
(2.21665e-05 1.84409e-05 1.71439e-05)
(-1.73977e-05 1.09778e-05 1.22985e-05)
(-1.73977e-05 1.09778e-05 1.22985e-05)
(-1.73977e-05 1.09778e-05 1.22985e-05)
(1.05019e-05 8.06624e-06 1.35862e-05)
(1.05019e-05 8.06624e-06 1.35862e-05)
)
;
    }
    procBoundary5to4
    {
        type            processor;
        value           nonuniform List<vector> 
12
(
(5.0399e-05 1.37406e-05 2.2633e-05)
(3.36585e-05 1.19738e-05 1.48877e-05)
(2.34128e-05 7.07787e-06 8.51203e-06)
(1.90064e-05 -9.60538e-07 5.57495e-06)
(5.87839e-05 1.15058e-05 1.24549e-05)
(4.4088e-05 5.97391e-06 8.31223e-06)
(2.90369e-05 1.18936e-06 3.12884e-06)
(2.00856e-05 -4.41879e-06 -1.37594e-06)
(0.000100572 5.39727e-06 1.46278e-05)
(7.60981e-05 -2.28123e-06 6.62487e-06)
(4.95651e-05 -7.27128e-06 1.26886e-06)
(3.32879e-05 -1.14749e-05 -4.88403e-06)
)
;
    }
    procBoundary5to7
    {
        type            processor;
        value           nonuniform List<vector> 
44
(
(-2.29311e-05 -2.31536e-07 7.76715e-06)
(-6.75484e-05 -1.12056e-06 6.0306e-06)
(-0.000147845 -6.70597e-06 -3.55322e-06)
(-0.000272395 -1.29184e-05 -1.09983e-05)
(-0.000463487 -1.71333e-05 -4.59542e-05)
(-0.000780663 -3.01278e-05 -8.13577e-05)
(-0.00112469 -2.86201e-06 -0.000179522)
(-0.0016337 2.5249e-05 -0.000265375)
(1.29139e-05 3.6309e-06 1.12616e-05)
(-2.29311e-05 -2.31536e-07 7.76715e-06)
(-6.7816e-05 -6.57261e-06 9.74071e-06)
(-0.000142757 -1.23794e-05 9.51866e-06)
(-0.00025819 -2.01303e-05 1.58201e-05)
(-0.00043723 -3.14828e-05 1.64542e-05)
(-0.000741321 -4.3246e-05 2.71008e-05)
(-0.00108734 -8.20175e-05 9.30186e-05)
(-0.00161334 -0.000116042 0.000154126)
(2.15745e-06 -6.07503e-06 2.66394e-06)
(-6.7816e-05 -6.57261e-06 9.74071e-06)
(-3.3599e-05 -7.41419e-06 3.91299e-07)
(-6.7816e-05 -6.57261e-06 9.74071e-06)
(-0.000142757 -1.23794e-05 9.51866e-06)
(-0.000224588 -3.25685e-05 3.95087e-05)
(-0.00040451 -5.20303e-05 8.16005e-05)
(-0.000695289 -7.42587e-05 0.000117429)
(-0.00115353 -0.00013547 0.000341524)
(-0.00181728 -0.000206439 0.000488823)
(-4.69164e-06 -1.06164e-05 -6.72529e-06)
(-3.97576e-05 -1.21419e-05 -3.13602e-06)
(-7.93605e-05 -1.63529e-05 1.77863e-06)
(-0.000224588 -3.25685e-05 3.95087e-05)
(-0.000149881 -1.65021e-05 8.49756e-06)
(-0.000224588 -3.25685e-05 3.95087e-05)
(-0.00040451 -5.20303e-05 8.16005e-05)
(-0.000564616 -7.73014e-05 0.000150521)
(-0.00129283 -0.000213154 0.000393871)
(-0.0022915 -0.000365336 0.0005827)
(-7.28022e-07 -1.34783e-05 -1.77312e-05)
(-4.80464e-05 -1.73972e-05 -8.22998e-06)
(-7.75701e-05 -2.17106e-05 -3.49019e-06)
(-0.000154262 -2.66733e-05 1.14142e-05)
(-0.000238025 -3.19425e-05 1.93176e-05)
(-0.000564616 -7.73014e-05 0.000150521)
(-0.000419145 -4.41192e-05 5.47336e-05)
)
;
    }
}


// ************************************************************************* //
