/*--------------------------------*- C++ -*----------------------------------*\
| =========                 |                                                 |
| \\      /  F ield         | OpenFOAM: The Open Source CFD Toolbox           |
|  \\    /   O peration     | Version:  4.x                                   |
|   \\  /    A nd           | Web:      www.OpenFOAM.org                      |
|    \\/     M anipulation  |                                                 |
\*---------------------------------------------------------------------------*/
FoamFile
{
    version     2.0;
    format      ascii;
    class       volVectorField;
    location    "35.5";
    object      impParticleForces;
}
// * * * * * * * * * * * * * * * * * * * * * * * * * * * * * * * * * * * * * //

dimensions      [1 1 -2 0 0 0 0];

internalField   nonuniform List<vector> 
114
(
(0.00241176 1.95927e-05 -8.2076e-06)
(0.0023683 1.44014e-05 -1.42355e-06)
(0.00236736 9.37861e-06 6.03346e-06)
(0.00231003 1.64173e-06 1.19653e-05)
(0.00228741 -6.05754e-06 1.84396e-05)
(0.0022049 -1.6114e-05 1.86179e-05)
(0.0024129 1.92472e-05 -1.46536e-05)
(0.0024277 1.77922e-05 -7.88248e-06)
(0.00238586 1.35081e-05 -8.05242e-07)
(0.00239679 1.0186e-05 7.51476e-06)
(0.00233893 2.64475e-06 1.28626e-05)
(0.00232126 -3.98657e-06 2.00542e-05)
(0.00223129 -1.51474e-05 1.79722e-05)
(0.00243575 1.55467e-05 -2.08657e-05)
(0.00239796 1.58114e-05 -1.42792e-05)
(0.0024206 1.48976e-05 -7.49906e-06)
(0.00238111 1.20085e-05 -7.22586e-07)
(0.00237773 9.10966e-06 6.9429e-06)
(0.00232896 4.57456e-06 1.25374e-05)
(0.00229929 -1.71166e-07 1.7596e-05)
(0.00222816 -6.84114e-06 1.57931e-05)
(0.00238298 6.36791e-06 -1.96591e-05)
(0.00238847 1.02539e-05 -1.33395e-05)
(0.00237975 1.16754e-05 -6.86353e-06)
(0.00238621 1.12971e-05 3.23477e-07)
(0.00235711 8.67349e-06 8.02401e-06)
(0.00237228 5.87116e-06 1.6992e-05)
(0.00230996 -2.0491e-06 2.60598e-05)
(0.00229007 -8.55295e-06 3.37623e-05)
(0.0021971 -2.22695e-05 4.49083e-05)
(0.00240918 5.82249e-06 -1.9907e-05)
(0.00241948 9.3753e-06 -1.38827e-05)
(0.00239796 1.06821e-05 -7.52656e-06)
(0.00241771 1.05909e-05 -3.29124e-07)
(0.00237749 8.19443e-06 7.4682e-06)
(0.0023936 6.03887e-06 1.68266e-05)
(0.00232483 -1.23007e-06 2.55224e-05)
(0.00232078 -6.88406e-06 3.59593e-05)
(0.00222666 -2.20823e-05 4.69919e-05)
(0.00238688 6.43961e-06 -2.04105e-05)
(0.00239477 8.86598e-06 -1.48695e-05)
(0.00237619 9.48863e-06 -8.76343e-06)
(0.00240175 9.15633e-06 -1.78334e-06)
(0.00236052 7.18477e-06 5.60019e-06)
(0.00237164 4.67937e-06 1.48209e-05)
(0.00231475 3.87003e-07 2.32659e-05)
(0.00229665 -4.2701e-06 3.39326e-05)
(0.00221641 -1.27637e-05 4.19998e-05)
(0.00237816 7.27054e-06 -2.16063e-05)
(0.00238681 8.30665e-06 -1.64839e-05)
(0.00237672 1.21983e-06 -1.39199e-05)
(0.00239598 4.06352e-06 -8.16252e-06)
(0.00236891 5.74585e-06 -2.34762e-06)
(0.00238001 5.83027e-06 4.89917e-06)
(0.00235864 4.39962e-06 1.30561e-05)
(0.0023613 1.7171e-06 2.21772e-05)
(0.00231648 -4.71472e-06 3.36427e-05)
(0.00231132 -1.19737e-05 4.35962e-05)
(0.00220247 -2.35657e-05 5.99301e-05)
(0.00239385 9.71336e-07 -1.3936e-05)
(0.00243142 3.27602e-06 -8.35265e-06)
(0.00238904 4.61574e-06 -2.77908e-06)
(0.00240736 4.82411e-06 4.23569e-06)
(0.00238239 3.3441e-06 1.22764e-05)
(0.00239604 1.7346e-06 2.14506e-05)
(0.00235504 -4.51325e-06 3.31128e-05)
(0.00233877 -9.24187e-06 4.40598e-05)
(0.0022238 -2.32216e-05 6.17924e-05)
(0.00237613 2.24847e-06 -1.48951e-05)
(0.00240037 3.86538e-06 -1.01278e-05)
(0.00237911 4.19931e-06 -4.49272e-06)
(0.00239001 3.85239e-06 2.12418e-06)
(0.00237695 2.09138e-06 1.019e-05)
(0.002383 1.29442e-08 1.96889e-05)
(0.00233422 -4.58382e-06 3.0832e-05)
(0.0023229 -9.86803e-06 4.55777e-05)
(0.00223322 -2.02064e-05 6.56682e-05)
(0.00236503 3.91989e-06 -1.65299e-05)
(0.00240993 4.46627e-06 -1.2387e-05)
(0.00237309 3.7835e-06 -7.19588e-06)
(0.00239092 2.7509e-06 -1.33997e-06)
(0.0023263 -8.71527e-07 -1.04516e-05)
(0.00234733 1.26791e-06 -5.05038e-06)
(0.00232666 2.52033e-06 7.70582e-07)
(0.0023472 2.53298e-06 7.71331e-06)
(0.00233256 1.02504e-06 1.62601e-05)
(0.00234547 -1.721e-06 2.55929e-05)
(0.00231516 -8.57132e-06 4.02148e-05)
(0.00233186 -1.4067e-05 4.79262e-05)
(0.00220201 -2.80373e-05 6.94271e-05)
(0.00236043 -1.4327e-06 -1.05161e-05)
(0.00238673 2.06312e-07 -5.36427e-06)
(0.00235377 1.07143e-06 -5.16837e-08)
(0.00236956 1.3425e-06 6.60531e-06)
(0.00235653 -3.09858e-07 1.49133e-05)
(0.00235964 -2.05618e-06 2.37524e-05)
(0.00232855 -7.77241e-06 3.59987e-05)
(0.00233124 -1.11235e-05 4.56597e-05)
(0.00221524 -2.54886e-05 6.64561e-05)
(0.00234257 -6.766e-08 -1.18347e-05)
(0.0023705 8.0323e-07 -7.27122e-06)
(0.00235445 9.05524e-07 -2.1064e-06)
(0.00236314 3.96889e-07 4.19399e-06)
(0.00234597 -1.56875e-06 1.24992e-05)
(0.00235997 -3.50569e-06 2.12163e-05)
(0.00231536 -7.77215e-06 3.32633e-05)
(0.00230636 -1.13359e-05 4.44215e-05)
(0.00221507 -2.14913e-05 6.81255e-05)
(0.00233619 1.85212e-06 -1.38293e-05)
(0.00236117 1.79821e-06 -1.01562e-05)
(0.00234395 8.87224e-07 -5.48252e-06)
(0.00235855 -5.67999e-07 3.76802e-08)
(0.00234127 -3.30846e-06 7.97815e-06)
(0.00233085 -5.03097e-06 1.60505e-05)
)
;

boundaryField
{
    inlet
    {
        type            zeroGradient;
    }
    outlet
    {
        type            zeroGradient;
    }
    wall
    {
        type            zeroGradient;
    }
    procBoundary5to1
    {
        type            processor;
        value           nonuniform List<vector> 
32
(
(0.00247682 2.9576e-05 -1.73812e-05)
(0.00242535 2.0344e-05 -1.14844e-05)
(0.00243078 1.29043e-05 -6.98867e-06)
(0.00238463 4.41377e-06 -5.02476e-06)
(0.00236429 -2.24252e-06 1.73324e-06)
(0.00224307 -1.33541e-05 -6.71767e-06)
(0.00245924 3.04765e-05 -2.13728e-05)
(0.00249458 2.52036e-05 -1.52379e-05)
(0.00245543 1.80168e-05 -1.00206e-05)
(0.00246271 1.25968e-05 -3.95745e-06)
(0.0024048 4.32761e-06 -1.54886e-06)
(0.00238921 -8.12809e-07 3.1146e-06)
(0.00225925 -1.41321e-05 -7.4962e-06)
(0.0024782 2.33087e-05 -2.62475e-05)
(0.00244693 2.29238e-05 -1.97496e-05)
(0.002488 2.03457e-05 -1.30319e-05)
(0.00244022 1.55445e-05 -7.50785e-06)
(0.00244991 1.1759e-05 -6.19615e-07)
(0.00238766 6.49957e-06 2.06158e-06)
(0.00236805 3.46074e-06 5.31898e-06)
(0.00225902 -6.50518e-06 -6.82789e-06)
(0.00239094 1.60248e-05 -2.75252e-05)
(0.00239752 2.19071e-05 -2.08931e-05)
(0.00239344 2.20446e-05 -1.4934e-05)
(0.00239344 2.20446e-05 -1.4934e-05)
(0.00239344 2.20446e-05 -1.4934e-05)
(0.00242337 1.37347e-05 -2.77973e-05)
(0.00245581 1.88703e-05 -2.15531e-05)
(0.00245581 1.88703e-05 -2.15531e-05)
(0.00245581 1.88703e-05 -2.15531e-05)
(0.00240373 1.2015e-05 -2.71705e-05)
(0.00240373 1.2015e-05 -2.71705e-05)
)
;
    }
    procBoundary5to4
    {
        type            processor;
        value           nonuniform List<vector> 
12
(
(0.00241191 7.53207e-07 -2.54785e-05)
(0.00244359 8.68186e-07 -2.56826e-05)
(0.00240907 3.17416e-06 -2.58522e-05)
(0.00239251 5.68741e-06 -2.6595e-05)
(0.00241283 -2.99279e-06 -1.83299e-05)
(0.00243935 -2.85305e-06 -1.81746e-05)
(0.0024115 -1.09305e-07 -1.89234e-05)
(0.00238993 2.99944e-06 -2.02622e-05)
(0.00237535 -4.29242e-06 -1.40138e-05)
(0.00238428 -4.01408e-06 -1.44113e-05)
(0.00236652 -1.6748e-06 -1.5329e-05)
(0.00235515 1.50803e-06 -1.69141e-05)
)
;
    }
    procBoundary5to7
    {
        type            processor;
        value           nonuniform List<vector> 
44
(
(0.00242829 1.31592e-05 -2.13865e-05)
(0.0023934 1.3326e-05 -1.52281e-05)
(0.00241532 1.31131e-05 -8.65277e-06)
(0.0023968 1.19429e-05 -1.85706e-06)
(0.0024069 1.14015e-05 5.6243e-06)
(0.00233109 9.52244e-06 9.73531e-06)
(0.00229805 8.39327e-06 1.4081e-05)
(0.00222711 9.79448e-06 1.02184e-05)
(0.00240013 1.12472e-05 -2.74527e-05)
(0.00242829 1.31592e-05 -2.13865e-05)
(0.00236661 8.35773e-06 -1.08859e-05)
(0.00239075 7.79828e-06 -4.41075e-06)
(0.00235683 6.57361e-06 2.45586e-06)
(0.00236542 5.19608e-06 1.09976e-05)
(0.00231229 3.52937e-06 1.81539e-05)
(0.00229503 2.7062e-06 2.72815e-05)
(0.00221184 4.81858e-07 3.37878e-05)
(0.00236966 8.62406e-06 -2.36974e-05)
(0.00236661 8.35773e-06 -1.08859e-05)
(0.00241083 8.42766e-06 -1.93438e-05)
(0.00236661 8.35773e-06 -1.08859e-05)
(0.00239075 7.79828e-06 -4.41075e-06)
(0.00234317 1.0722e-06 6.02295e-06)
(0.00235536 -1.14601e-06 1.47337e-05)
(0.00231395 -3.84924e-06 2.47575e-05)
(0.00229776 -5.94718e-06 3.52449e-05)
(0.00220439 -9.18522e-06 5.24928e-05)
(0.00237309 6.16774e-06 -1.90475e-05)
(0.00240119 5.46152e-06 -1.58186e-05)
(0.00235877 4.21343e-06 -1.13855e-05)
(0.00234317 1.0722e-06 6.02295e-06)
(0.00237364 2.47816e-06 -6.44392e-06)
(0.00234317 1.0722e-06 6.02295e-06)
(0.00235536 -1.14601e-06 1.47337e-05)
(0.00228914 -8.49e-06 2.69385e-05)
(0.00228951 -1.0023e-05 3.8455e-05)
(0.00218684 -1.57033e-05 5.46068e-05)
(0.00234309 4.52499e-06 -1.63263e-05)
(0.00235743 3.5068e-06 -1.3604e-05)
(0.00233204 1.91732e-06 -9.62208e-06)
(0.00235189 -1.70411e-07 -5.2269e-06)
(0.00231003 -2.3096e-06 1.26856e-06)
(0.00228914 -8.49e-06 2.69385e-05)
(0.00230895 -4.66071e-06 7.8865e-06)
)
;
    }
}


// ************************************************************************* //
