/*--------------------------------*- C++ -*----------------------------------*\
| =========                 |                                                 |
| \\      /  F ield         | OpenFOAM: The Open Source CFD Toolbox           |
|  \\    /   O peration     | Version:  4.x                                   |
|   \\  /    A nd           | Web:      www.OpenFOAM.org                      |
|    \\/     M anipulation  |                                                 |
\*---------------------------------------------------------------------------*/
FoamFile
{
    version     2.0;
    format      ascii;
    class       volScalarField;
    location    "35.5";
    object      KslNext;
}
// * * * * * * * * * * * * * * * * * * * * * * * * * * * * * * * * * * * * * //

dimensions      [1 -3 -1 0 0 0 0];

internalField   nonuniform List<scalar> 
114
(
3513.11
21736.9
3967.98
609588
5421.78
87216.5
2.34105e+09
3799.69
1e+10
3927.61
612328
4442.82
17944.7
4099.1
1e+10
4139.24
1e+10
4234.54
154048
4566.33
12474.2
7160.54
3062.14
7378.95
2924.97
7968.43
2752.16
9410.77
2403.59
7707.46
33844.4
3539.62
71450.4
3474.31
69383.7
3434.69
21374
3479.71
5890.66
905492
3669.67
3.26422e+08
3617.07
4.68523e+06
3529.46
59596.4
3665.68
14130.4
1e+10
3789.49
7583.29
3198.59
8079.14
3121.55
8922.63
3071.13
11205.5
3084.84
16688.5
14720.3
3465.27
17306
3339.81
20839.7
3221.59
19769
2981.79
10434.3
75828
3653.62
1.90939e+09
3685.66
7.62946e+08
3856.33
34574.7
4174.68
7224.16
42263.7
3601.64
49777.1
3502.13
4852.87
2731.34
4619.57
2536.54
4553.32
2258.74
4765.56
1783.03
5348.69
6106.22
2975.27
5992.64
2791.24
6144.69
2573.97
7060.51
2286.05
9412.86
7500.45
3128.9
7721.49
2979.57
7740
2759.87
7838.6
2324.44
7756.5
7457.05
3111.76
7761.18
2993.74
8287.87
2775.26
)
;

boundaryField
{
    inlet
    {
        type            zeroGradient;
    }
    outlet
    {
        type            zeroGradient;
    }
    wall
    {
        type            zeroGradient;
    }
    procBoundary5to1
    {
        type            processor;
        value           uniform 0;
    }
    procBoundary5to4
    {
        type            processor;
        value           uniform 0;
    }
    procBoundary5to7
    {
        type            processor;
        value           uniform 0;
    }
}


// ************************************************************************* //
