/*--------------------------------*- C++ -*----------------------------------*\
| =========                 |                                                 |
| \\      /  F ield         | OpenFOAM: The Open Source CFD Toolbox           |
|  \\    /   O peration     | Version:  4.x                                   |
|   \\  /    A nd           | Web:      www.OpenFOAM.org                      |
|    \\/     M anipulation  |                                                 |
\*---------------------------------------------------------------------------*/
FoamFile
{
    version     2.0;
    format      ascii;
    class       volScalarField;
    location    "35.5";
    object      SPartFluid;
}
// * * * * * * * * * * * * * * * * * * * * * * * * * * * * * * * * * * * * * //

dimensions      [1 -3 -1 0 0 0 0];

internalField   nonuniform List<scalar> 
114
(
6.82009e-65
8.0601e-65
6.35508e-65
6.74258e-65
7.59509e-65
8.4476e-65
6.82009e-65
5.65757e-65
5.81257e-65
6.66508e-65
8.2151e-65
8.5251e-65
7.9051e-65
8.44761e-65
6.04507e-65
7.51759e-65
5.73507e-65
4.57256e-65
7.28509e-65
5.42507e-65
8.6801e-65
6.35508e-65
4.80506e-65
6.97509e-65
5.42507e-65
6.43258e-65
6.82009e-65
7.13009e-65
5.65757e-65
5.96757e-65
7.05259e-65
6.82009e-65
8.52511e-65
7.13009e-65
8.3701e-65
8.1376e-65
5.27006e-65
8.6026e-65
6.89758e-65
8.2151e-65
4.57256e-65
7.28509e-65
7.59509e-65
6.20008e-65
7.05259e-65
7.13009e-65
6.89758e-65
5.58007e-65
9.99763e-65
4.34005e-65
6.66509e-65
8.21511e-65
6.74259e-65
7.36259e-65
6.97509e-65
6.89759e-65
6.66508e-65
7.28509e-65
6.58758e-65
5.42507e-65
8.37011e-65
6.04508e-65
7.13009e-65
7.13009e-65
7.05259e-65
9.14511e-65
6.43258e-65
5.50257e-65
6.89759e-65
6.35508e-65
6.89759e-65
6.04508e-65
1.00751e-64
7.36259e-65
8.2151e-65
8.91261e-65
8.68011e-65
4.80506e-65
9.37762e-65
8.99011e-65
7.9826e-65
2.63503e-65
6.89759e-65
4.57256e-65
7.13009e-65
6.04508e-65
4.96006e-65
6.97509e-65
6.27758e-65
6.04508e-65
6.35508e-65
6.58759e-65
4.34006e-65
5.65757e-65
7.44009e-65
6.51008e-65
4.57256e-65
7.05259e-65
6.04508e-65
6.12258e-65
6.43258e-65
8.52511e-65
6.97509e-65
5.89007e-65
8.0601e-65
6.51008e-65
6.74258e-65
6.82008e-65
7.36259e-65
5.65757e-65
7.13009e-65
5.58007e-65
9.68762e-65
7.7501e-65
)
;

boundaryField
{
    inlet
    {
        type            calculated;
        value           nonuniform 0();
    }
    outlet
    {
        type            calculated;
        value           uniform 0;
    }
    wall
    {
        type            calculated;
        value           uniform 0;
    }
    procBoundary5to1
    {
        type            processor;
        value           nonuniform List<scalar> 
32
(
7.9826e-65
5.73507e-65
8.44761e-65
7.05259e-65
5.73507e-65
4.18505e-65
5.65757e-65
6.12258e-65
6.97509e-65
6.97509e-65
6.58758e-65
7.20759e-65
4.41755e-65
6.35508e-65
5.11506e-65
9.06761e-65
8.2926e-65
8.75761e-65
6.82008e-65
7.9051e-65
3.48754e-65
6.58758e-65
5.27007e-65
8.0601e-65
8.0601e-65
8.0601e-65
7.05259e-65
9.99763e-65
9.99763e-65
9.99763e-65
5.73507e-65
5.73507e-65
)
;
    }
    procBoundary5to4
    {
        type            processor;
        value           nonuniform List<scalar> 
12
(
8.91262e-65
9.06762e-65
5.65757e-65
5.96758e-65
8.21511e-65
8.1376e-65
6.82009e-65
6.82009e-65
7.20759e-65
7.5951e-65
6.27758e-65
6.35508e-65
)
;
    }
    procBoundary5to7
    {
        type            processor;
        value           nonuniform List<scalar> 
44
(
7.8276e-65
6.43258e-65
6.74258e-65
1.03076e-64
1.03851e-64
7.9826e-65
5.65757e-65
8.3701e-65
9.92012e-65
7.8276e-65
6.43258e-65
7.36259e-65
6.74258e-65
6.89758e-65
8.6026e-65
8.4476e-65
7.36259e-65
3.95255e-65
6.43258e-65
8.52511e-65
6.43258e-65
7.36259e-65
5.03756e-65
5.81257e-65
7.36259e-65
6.04507e-65
5.81257e-65
8.0601e-65
7.36259e-65
6.82009e-65
5.03756e-65
5.19256e-65
5.03756e-65
5.81257e-65
5.50257e-65
6.43258e-65
6.12258e-65
6.89759e-65
5.81257e-65
7.6726e-65
7.44009e-65
5.19256e-65
5.50257e-65
3.87505e-65
)
;
    }
}


// ************************************************************************* //
