/*--------------------------------*- C++ -*----------------------------------*\
| =========                 |                                                 |
| \\      /  F ield         | OpenFOAM: The Open Source CFD Toolbox           |
|  \\    /   O peration     | Version:  4.x                                   |
|   \\  /    A nd           | Web:      www.OpenFOAM.org                      |
|    \\/     M anipulation  |                                                 |
\*---------------------------------------------------------------------------*/
FoamFile
{
    version     2.0;
    format      ascii;
    class       volVectorField;
    location    "1.5";
    object      Us;
}
// * * * * * * * * * * * * * * * * * * * * * * * * * * * * * * * * * * * * * //

dimensions      [0 1 -1 0 0 0 0];

internalField   nonuniform List<vector> 
114
(
(-4.20367e-05 1.17342e-06 -8.19614e-06)
(-6.63138e-05 -1.27333e-06 -1.72236e-06)
(-8.75995e-05 -3.19003e-06 2.93175e-06)
(-0.000105408 -2.39967e-06 2.91944e-06)
(-0.000119669 7.70343e-07 5.30806e-06)
(-0.000132939 5.54518e-06 7.2218e-06)
(-1.85884e-05 4.71584e-06 -1.99141e-06)
(-2.35859e-05 3.03142e-06 -4.78494e-06)
(-3.67831e-05 4.41652e-06 -7.71192e-06)
(-4.75236e-05 3.29218e-06 -7.78166e-06)
(-6.64764e-05 -1.43353e-06 -3.86304e-06)
(-8.91551e-05 1.41877e-07 5.73326e-06)
(-0.000104889 2.47404e-06 8.67927e-06)
(-0.000122176 1.56533e-06 8.95288e-06)
(-0.000128827 2.82625e-07 1.13016e-05)
(-7.95219e-06 1.59328e-06 -6.36045e-08)
(-1.00041e-05 -5.05793e-07 -4.20068e-08)
(-4.04706e-05 1.18353e-05 -3.47143e-06)
(-6.10737e-05 1.88822e-05 -1.04711e-05)
(-6.54473e-05 1.84063e-06 -6.62174e-06)
(-8.52731e-05 8.51893e-07 7.22532e-06)
(-9.8558e-05 -5.54147e-06 1.23536e-05)
(-0.00012622 6.2986e-06 1.31659e-05)
(-0.00013058 -3.44275e-06 1.19288e-05)
(-4.15202e-06 6.30705e-07 -1.09743e-06)
(-5.63124e-06 1.34975e-06 -2.57577e-06)
(-1.63507e-05 3.52565e-06 -1.0041e-05)
(-2.15631e-05 1.63926e-07 -1.18021e-06)
(-4.80031e-05 5.53195e-06 3.1903e-06)
(-5.49934e-05 2.99857e-06 6.0448e-06)
(-7.9106e-05 -3.65182e-06 5.45773e-06)
(-9.48087e-05 4.0614e-06 8.45454e-06)
(-0.000110246 -1.28434e-08 4.00541e-06)
(-8.42242e-05 -6.68963e-06 4.34056e-06)
(-0.000104568 -5.43618e-06 1.86531e-06)
(-0.000123349 -1.90689e-06 6.41903e-06)
(-0.000133835 2.43629e-06 9.68255e-06)
(-7.29953e-06 1.45171e-06 -1.22434e-06)
(-2.12248e-05 1.5067e-06 -4.44643e-06)
(-3.27541e-05 1.48756e-06 -6.0012e-06)
(-4.78689e-05 2.69679e-06 -6.90891e-06)
(-5.92041e-05 1.54031e-07 -2.5695e-06)
(-8.83207e-05 -7.67457e-06 7.77652e-06)
(-0.000108779 -5.9003e-06 7.44916e-06)
(-0.000124136 -3.71456e-06 7.34774e-06)
(-0.000137065 -1.26433e-06 1.27312e-05)
(-8.96409e-06 1.55855e-06 -7.89745e-07)
(-1.66817e-05 2.14409e-06 -2.92042e-06)
(-3.2409e-05 3.05025e-06 -1.96934e-06)
(-4.32564e-05 7.32248e-07 -4.84133e-06)
(-5.90245e-05 3.52049e-06 5.2923e-06)
(-8.2833e-05 -1.38479e-06 6.8098e-06)
(-0.000106731 -1.90755e-06 1.04786e-05)
(-0.000122277 -1.4423e-06 1.21222e-05)
(-0.000133006 -2.53591e-06 1.37429e-05)
(-3.48593e-06 9.43322e-07 -1.14187e-06)
(-7.45919e-06 2.7554e-06 -1.79274e-06)
(-1.76595e-05 2.94625e-06 -1.42757e-06)
(-2.99447e-05 -6.31685e-07 -8.56032e-07)
(-4.03673e-05 1.30511e-06 9.45801e-06)
(-5.56578e-05 2.59212e-06 4.17426e-06)
(-7.10637e-05 -1.18456e-06 2.47828e-06)
(-9.73453e-05 8.74343e-07 3.81494e-06)
(-0.000115836 -2.07597e-07 4.79694e-06)
(-0.000124619 -4.3067e-06 8.93859e-06)
(-0.000135073 -1.22553e-07 1.32351e-05)
(-5.55732e-06 -1.66442e-07 -1.30229e-06)
(-1.50933e-05 1.20106e-06 -3.63751e-06)
(-2.94232e-05 4.95957e-07 -4.39458e-06)
(-4.6221e-05 6.32994e-07 -5.4515e-06)
(-6.34231e-05 -2.33838e-06 -1.64257e-06)
(-8.17557e-05 -1.06818e-05 2.63971e-06)
(-0.00010012 -1.13493e-05 5.3328e-06)
(-0.000120439 -8.51606e-06 6.94177e-06)
(-0.000139979 -2.38947e-06 1.25009e-05)
(-4.44435e-06 1.2362e-06 -6.00933e-07)
(-1.61717e-05 1.9379e-06 -3.06417e-07)
(-3.23193e-05 2.48781e-07 -2.0977e-06)
(-4.10825e-05 -1.61124e-06 -3.68989e-06)
(-5.94919e-05 -1.93187e-06 4.05653e-06)
(-8.05569e-05 -7.06121e-06 6.6355e-06)
(-0.000102218 -8.06852e-06 4.9208e-06)
(-0.000127079 -6.49947e-06 9.56826e-06)
(-0.000141223 4.9296e-07 1.56896e-05)
(-2.78384e-06 9.18915e-07 -1.02023e-06)
(-7.79297e-06 1.46826e-06 -5.54526e-07)
(-1.65248e-05 1.34596e-06 -2.34918e-07)
(-3.18261e-05 3.79158e-07 -3.30182e-06)
(-4.6298e-05 4.79927e-06 7.56624e-06)
(-6.64542e-05 -1.59724e-06 4.90285e-06)
(-8.59114e-05 1.55473e-06 9.60516e-06)
(-0.000107246 -1.98681e-06 1.18815e-05)
(-0.000122966 4.50952e-06 1.40785e-05)
(-4.627e-06 -1.662e-07 -5.39551e-07)
(-1.40856e-05 1.68092e-06 -1.78505e-06)
(-2.54286e-05 2.19764e-06 -3.00946e-06)
(-3.98696e-05 -1.32363e-06 -7.19255e-07)
(-5.76565e-05 -5.54563e-06 3.34213e-07)
(-8.19628e-05 -8.4312e-06 5.51607e-06)
(-0.000101388 -1.31803e-05 7.08551e-06)
(-0.00012083 -1.31727e-05 7.54067e-06)
(-3.62539e-06 -5.77022e-08 -6.46218e-07)
(-1.65855e-05 1.9187e-06 1.0158e-07)
(-2.89641e-05 1.33334e-06 -2.88559e-06)
(-3.97233e-05 -8.61101e-07 -3.40424e-06)
(-5.82797e-05 -3.77063e-06 1.33064e-06)
(-7.42557e-05 -9.23967e-06 4.09743e-06)
(-9.71081e-05 -1.09067e-05 4.29983e-06)
(-3.40349e-06 8.60107e-07 -9.8547e-07)
(-8.74426e-06 2.826e-06 -1.87472e-07)
(-1.99835e-05 6.12527e-07 -2.56114e-07)
(-2.59481e-05 9.43013e-07 -1.40234e-06)
(-4.13068e-05 -5.25228e-07 -7.65696e-07)
(-5.5051e-05 -8.69257e-07 -1.61974e-06)
)
;

boundaryField
{
    inlet
    {
        type            zeroGradient;
    }
    outlet
    {
        type            zeroGradient;
    }
    wall
    {
        type            zeroGradient;
    }
    procBoundary2to0
    {
        type            processor;
        value           nonuniform List<vector> 
44
(
(-4.54694e-05 1.42678e-06 -5.39404e-06)
(-5.8627e-05 7.88834e-07 -8.27677e-06)
(-7.98969e-05 -2.26442e-06 2.65929e-06)
(-0.000100163 2.47328e-06 2.62723e-06)
(-0.000110506 1.50364e-06 4.52321e-06)
(-0.000126074 8.99488e-06 2.61993e-06)
(-6.5855e-06 2.32582e-09 -2.69356e-07)
(-2.50498e-05 2.25358e-06 -4.99218e-06)
(-3.46442e-05 3.34654e-06 -5.96286e-06)
(-3.46442e-05 3.34654e-06 -5.96286e-06)
(-5.24347e-05 1.62418e-06 -2.03854e-06)
(-6.25058e-05 -2.37234e-06 5.19054e-07)
(-8.62894e-05 -4.34984e-06 1.19441e-06)
(-0.000107566 2.99261e-06 -3.15428e-06)
(-0.000121401 4.83293e-06 3.80623e-06)
(-0.000132351 1.32315e-05 6.91311e-06)
(-9.19022e-06 -3.82994e-08 -8.99811e-07)
(-2.18816e-05 1.07398e-06 -5.11064e-06)
(-2.92575e-05 -2.9996e-06 -5.09536e-06)
(-5.24347e-05 1.62418e-06 -2.03854e-06)
(-6.25058e-05 -2.37234e-06 5.19054e-07)
(-6.25058e-05 -2.37234e-06 5.19054e-07)
(-8.09227e-05 -6.68833e-06 4.24056e-06)
(-0.000105072 -6.2233e-06 4.52778e-06)
(-0.000129721 1.81609e-06 4.69393e-06)
(-0.000139011 4.16082e-06 1.12756e-05)
(-4.44512e-06 5.07671e-08 -7.58951e-07)
(-1.73832e-05 2.76127e-06 -4.50923e-06)
(-2.69557e-05 -3.79802e-06 -3.88477e-06)
(-4.31931e-05 -4.57449e-06 5.85049e-07)
(-6.70617e-05 -2.03026e-06 8.72735e-07)
(-8.09227e-05 -6.68833e-06 4.24056e-06)
(-0.000105072 -6.2233e-06 4.52778e-06)
(-0.000105072 -6.2233e-06 4.52778e-06)
(-0.000116242 -7.89872e-06 7.89847e-06)
(-0.000129904 -2.1446e-06 1.44964e-05)
(-2.57222e-06 1.27123e-07 -8.85184e-07)
(-1.07705e-05 2.27353e-06 -2.10709e-06)
(-2.41418e-05 6.02101e-07 3.3464e-07)
(-3.95756e-05 -2.53123e-06 -2.93984e-06)
(-5.65929e-05 -6.94315e-06 -3.01871e-06)
(-8.20745e-05 -8.73976e-06 1.92509e-06)
(-0.000106298 -8.26899e-06 4.14424e-06)
(-0.000116242 -7.89872e-06 7.89847e-06)
)
;
    }
    procBoundary2to3
    {
        type            processor;
        value           nonuniform List<vector> 
12
(
(-0.000142348 2.59258e-06 1.35751e-05)
(-0.000144298 -4.12229e-07 1.7951e-05)
(-0.000145257 -1.84029e-05 2.11118e-05)
(-0.00012134 -7.16983e-06 1.76781e-05)
(-0.000146927 1.1301e-06 1.72195e-05)
(-0.00014444 -6.92992e-07 1.94855e-05)
(-0.000143457 -8.79768e-06 1.93609e-05)
(-0.000122389 -8.41639e-06 1.62494e-05)
(-0.000139173 3.91977e-06 1.88806e-05)
(-0.000143311 1.4363e-06 1.98027e-05)
(-0.000146005 -1.42853e-06 2.11792e-05)
(-0.000128245 4.45808e-06 1.50646e-05)
)
;
    }
    procBoundary2to6
    {
        type            processor;
        value           nonuniform List<vector> 
32
(
(-0.000127219 -2.01355e-06 1.2907e-05)
(-0.000123713 -1.8557e-05 6.46303e-06)
(-0.000140885 -2.36129e-07 1.41368e-05)
(-6.20926e-05 -3.49834e-06 1.02712e-05)
(-9.30471e-05 -3.57775e-06 1.28186e-05)
(-7.3924e-05 1.0357e-06 1.24897e-05)
(-5.57152e-06 -5.01867e-07 1.47166e-07)
(-1.11246e-05 4.35363e-06 -1.1028e-06)
(-2.57159e-05 2.35928e-06 6.48738e-07)
(-3.6628e-05 -2.27962e-06 6.20685e-07)
(-5.69592e-05 -6.0668e-06 4.31278e-07)
(-8.37607e-05 -1.06979e-05 4.05314e-06)
(-9.94415e-05 -1.49789e-05 8.88141e-06)
(-0.000127219 -2.01355e-06 1.2907e-05)
(-0.000123713 -1.8557e-05 6.46303e-06)
(-0.000118213 -1.86005e-05 1.04941e-05)
(-8.31178e-06 -1.34403e-06 2.00016e-07)
(-1.37504e-05 2.64032e-06 -4.35637e-07)
(-2.80256e-05 2.33653e-06 -1.75224e-06)
(-4.06754e-05 -4.57878e-07 -5.84105e-07)
(-5.49138e-05 -2.98387e-06 -2.45954e-06)
(-7.73485e-05 -4.36035e-06 5.09644e-06)
(-0.000123713 -1.8557e-05 6.46303e-06)
(-6.20926e-05 -3.49834e-06 1.02712e-05)
(-9.88095e-05 -1.14595e-05 1.46247e-06)
(-3.37877e-06 1.82413e-07 -4.84546e-07)
(-1.23766e-05 3.74475e-06 2.44294e-07)
(-1.45028e-05 8.31436e-07 3.43611e-06)
(-2.50518e-05 1.12793e-06 4.32236e-07)
(-3.46917e-05 1.39084e-06 -1.61985e-06)
(-6.20926e-05 -3.49834e-06 1.02712e-05)
(-5.60914e-05 9.30119e-07 9.77075e-08)
)
;
    }
}


// ************************************************************************* //
