/*--------------------------------*- C++ -*----------------------------------*\
| =========                 |                                                 |
| \\      /  F ield         | OpenFOAM: The Open Source CFD Toolbox           |
|  \\    /   O peration     | Version:  4.x                                   |
|   \\  /    A nd           | Web:      www.OpenFOAM.org                      |
|    \\/     M anipulation  |                                                 |
\*---------------------------------------------------------------------------*/
FoamFile
{
    version     2.0;
    format      ascii;
    class       volVectorField;
    location    "24.5";
    object      impParticleForces;
}
// * * * * * * * * * * * * * * * * * * * * * * * * * * * * * * * * * * * * * //

dimensions      [1 1 -2 0 0 0 0];

internalField   nonuniform List<vector> 
87
(
(0.00240602 1.17682e-05 -3.89278e-05)
(0.00240605 1.58375e-05 -4.8459e-05)
(0.00242247 1.63188e-05 -4.13896e-05)
(0.0023894 1.87062e-05 -5.47211e-05)
(0.00237423 1.78177e-05 -4.8329e-05)
(0.0023816 1.77762e-05 -4.17992e-05)
(0.0023729 7.7427e-06 -6.25667e-05)
(0.00240024 8.18098e-06 -6.24337e-05)
(0.00242237 8.84516e-06 -6.10825e-05)
(0.00241969 8.70913e-06 -5.81021e-05)
(0.00244268 9.04011e-06 -5.47305e-05)
(0.00240203 8.64894e-06 -4.9202e-05)
(0.0024156 9.10985e-06 -4.40806e-05)
(0.00237032 9.23133e-06 -3.78002e-05)
(0.00238425 9.98151e-06 -3.15407e-05)
(0.00233786 1.70018e-05 -6.14686e-05)
(0.00237629 1.825e-05 -6.18255e-05)
(0.00241337 1.9274e-05 -6.09249e-05)
(0.00241748 1.83618e-05 -5.83784e-05)
(0.00243598 1.80694e-05 -5.51025e-05)
(0.00241077 1.67058e-05 -5.03444e-05)
(0.0024215 1.64984e-05 -4.53074e-05)
(0.00238525 1.54399e-05 -3.96267e-05)
(0.00240045 1.54035e-05 -3.39961e-05)
(0.00228181 1.94966e-05 -6.03202e-05)
(0.00231707 2.08773e-05 -6.08946e-05)
(0.0023454 2.13329e-05 -6.00757e-05)
(0.00235824 2.0767e-05 -5.79608e-05)
(0.00239528 2.08716e-05 -5.49208e-05)
(0.00238869 1.98265e-05 -5.08651e-05)
(0.00238403 1.89815e-05 -4.56328e-05)
(0.00235127 1.75876e-05 -4.03214e-05)
(0.00237401 1.77616e-05 -3.53273e-05)
(0.00234709 7.37543e-06 -4.86331e-05)
(0.00237836 8.13855e-06 -4.80883e-05)
(0.00241531 8.80407e-06 -4.63179e-05)
(0.00240246 8.35641e-06 -4.45714e-05)
(0.00241062 8.2857e-06 -4.15784e-05)
(0.00239178 7.98379e-06 -3.82239e-05)
(0.00240552 8.35593e-06 -3.38087e-05)
(0.00235517 8.02363e-06 -2.99059e-05)
(0.00237096 8.50294e-06 -2.51962e-05)
(0.00231047 1.60613e-05 -4.88392e-05)
(0.00235478 1.75616e-05 -4.82254e-05)
(0.00239373 1.85359e-05 -4.65991e-05)
(0.00238672 1.72832e-05 -4.52558e-05)
(0.00240978 1.71099e-05 -4.21385e-05)
(0.00238532 1.57663e-05 -3.93654e-05)
(0.00241166 1.59698e-05 -3.50982e-05)
(0.00236719 1.46768e-05 -3.15739e-05)
(0.00239005 1.50521e-05 -2.70693e-05)
(0.00226775 1.90762e-05 -4.89677e-05)
(0.00228973 1.98529e-05 -4.87551e-05)
(0.0023235 2.04457e-05 -4.74989e-05)
(0.00233778 1.99929e-05 -4.59207e-05)
(0.00236351 1.97492e-05 -4.33153e-05)
(0.00235168 1.85929e-05 -4.03079e-05)
(0.00236692 1.82701e-05 -3.63931e-05)
(0.00234279 1.72456e-05 -3.2867e-05)
(0.00235553 1.72756e-05 -2.87761e-05)
(0.00230282 6.53456e-06 -4.23944e-05)
(0.00231648 6.87858e-06 -4.1774e-05)
(0.00236414 7.53494e-06 -3.99698e-05)
(0.00235579 7.11767e-06 -3.84947e-05)
(0.00236793 7.05698e-06 -3.59378e-05)
(0.00235598 6.92057e-06 -3.3168e-05)
(0.00237862 7.15472e-06 -2.94638e-05)
(0.00233376 6.97018e-06 -2.62134e-05)
(0.00232779 7.24216e-06 -2.23564e-05)
(0.00227058 1.46321e-05 -4.29099e-05)
(0.00229442 1.53828e-05 -4.22083e-05)
(0.00233487 1.61877e-05 -4.07595e-05)
(0.00233901 1.5545e-05 -3.93339e-05)
(0.0023643 1.54353e-05 -3.68151e-05)
(0.00234963 1.44493e-05 -3.43064e-05)
(0.00236462 1.4287e-05 -3.09989e-05)
(0.00233526 1.34122e-05 -2.79918e-05)
(0.00234314 1.36291e-05 -2.4428e-05)
(0.00223885 1.77922e-05 -4.34677e-05)
(0.00225752 1.84153e-05 -4.29454e-05)
(0.00229588 1.90994e-05 -4.16965e-05)
(0.00229985 1.8509e-05 -4.02081e-05)
(0.0023158 1.80271e-05 -3.79993e-05)
(0.00232858 1.75518e-05 -3.53443e-05)
(0.0023354 1.69812e-05 -3.23439e-05)
(0.00231941 1.62306e-05 -2.94554e-05)
(0.00233278 1.63684e-05 -2.60879e-05)
)
;

boundaryField
{
    inlet
    {
        type            zeroGradient;
    }
    outlet
    {
        type            zeroGradient;
    }
    wall
    {
        type            zeroGradient;
    }
    procBoundary6to0
    {
        type            processor;
        value           uniform (0.00237383 5.65667e-06 -3.73769e-05);
    }
    procBoundary6to2
    {
        type            processor;
        value           nonuniform List<vector> 
32
(
(0.00243496 1.21718e-05 -4.61353e-05)
(0.00244573 1.5822e-05 -5.62321e-05)
(0.00246004 1.63868e-05 -4.81496e-05)
(0.00243134 1.89345e-05 -6.33012e-05)
(0.00240287 1.76449e-05 -5.51595e-05)
(0.002417 1.78545e-05 -4.76968e-05)
(0.00235264 7.01009e-06 -7.66971e-05)
(0.00240371 8.1207e-06 -7.83848e-05)
(0.00245342 9.42511e-06 -7.84466e-05)
(0.00243585 9.15101e-06 -7.34047e-05)
(0.00245143 9.46425e-06 -6.85365e-05)
(0.00242282 9.1985e-06 -6.14287e-05)
(0.00243693 9.88324e-06 -5.50144e-05)
(0.00239745 1.04023e-05 -4.69308e-05)
(0.00239745 1.04023e-05 -4.69308e-05)
(0.00239745 1.04023e-05 -4.69308e-05)
(0.00232518 1.57519e-05 -7.49366e-05)
(0.00237364 1.75239e-05 -7.67896e-05)
(0.00243907 1.95678e-05 -7.75049e-05)
(0.00242282 1.81427e-05 -7.29239e-05)
(0.00245014 1.82105e-05 -6.86988e-05)
(0.00242307 1.67194e-05 -6.19032e-05)
(0.00244454 1.68227e-05 -5.60376e-05)
(0.00244454 1.68227e-05 -5.60376e-05)
(0.00244454 1.68227e-05 -5.60376e-05)
(0.00227242 1.85552e-05 -7.24299e-05)
(0.00231466 2.01896e-05 -7.40184e-05)
(0.00237697 2.20235e-05 -7.47521e-05)
(0.0023773 2.10884e-05 -7.12323e-05)
(0.00240064 2.07811e-05 -6.69823e-05)
(0.00238469 1.93429e-05 -6.08387e-05)
(0.00238469 1.93429e-05 -6.08387e-05)
)
;
    }
    procBoundary6to4
    {
        type            processor;
        value           nonuniform List<vector> 
27
(
(0.00233818 -5.51896e-06 -6.19876e-05)
(0.00239047 -5.8338e-06 -6.23209e-05)
(0.0024407 -5.31416e-06 -6.13836e-05)
(0.00242177 -4.35654e-06 -5.79451e-05)
(0.00244104 -3.38234e-06 -5.39759e-05)
(0.00240818 -1.76313e-06 -4.87255e-05)
(0.0024259 -2.12005e-07 -4.32313e-05)
(0.00236575 1.47489e-06 -3.64891e-05)
(0.00236726 3.23653e-06 -2.96692e-05)
(0.00233831 -5.69086e-06 -4.89933e-05)
(0.00237873 -5.76937e-06 -4.82157e-05)
(0.00241675 -5.44528e-06 -4.63357e-05)
(0.00241613 -4.50606e-06 -4.41707e-05)
(0.0024368 -3.8325e-06 -4.06782e-05)
(0.00240022 -2.5313e-06 -3.73879e-05)
(0.00241417 -1.4591e-06 -3.26212e-05)
(0.00235838 -2.94205e-07 -2.8505e-05)
(0.00235787 5.64228e-07 -2.32699e-05)
(0.00231659 -5.60841e-06 -4.23909e-05)
(0.00232729 -5.38576e-06 -4.15677e-05)
(0.002368 -5.28928e-06 -3.96504e-05)
(0.00237096 -4.72499e-06 -3.78142e-05)
(0.0023947 -3.9923e-06 -3.48491e-05)
(0.00236896 -2.90819e-06 -3.20853e-05)
(0.00235151 -1.90771e-06 -2.86543e-05)
(0.00232362 -1.17267e-06 -2.49704e-05)
(0.00232262 -6.76048e-07 -2.05612e-05)
)
;
    }
    procBoundary6to7
    {
        type            processor;
        value           nonuniform List<vector> 
12
(
(0.00238627 1.28844e-05 -3.11699e-05)
(0.00239119 1.64555e-05 -3.39508e-05)
(0.00237949 1.82342e-05 -3.58166e-05)
(0.0023448 1.05371e-05 -2.49728e-05)
(0.00236165 1.54567e-05 -2.79355e-05)
(0.0023466 1.77025e-05 -3.00131e-05)
(0.00234367 8.92934e-06 -2.03614e-05)
(0.00235621 1.50114e-05 -2.30358e-05)
(0.00233004 1.74083e-05 -2.48076e-05)
(0.00231187 7.59665e-06 -1.83813e-05)
(0.00231487 1.38446e-05 -2.09755e-05)
(0.00230174 1.65327e-05 -2.28288e-05)
)
;
    }
}


// ************************************************************************* //
