/*--------------------------------*- C++ -*----------------------------------*\
| =========                 |                                                 |
| \\      /  F ield         | OpenFOAM: The Open Source CFD Toolbox           |
|  \\    /   O peration     | Version:  4.x                                   |
|   \\  /    A nd           | Web:      www.OpenFOAM.org                      |
|    \\/     M anipulation  |                                                 |
\*---------------------------------------------------------------------------*/
FoamFile
{
    version     2.0;
    format      ascii;
    class       volVectorField;
    location    "30.5";
    object      Urel;
}
// * * * * * * * * * * * * * * * * * * * * * * * * * * * * * * * * * * * * * //

dimensions      [0 1 -1 0 0 0 0];

internalField   nonuniform List<vector> 
114
(
(-0.0218928 7.32274e-05 0.00105798)
(-0.0232902 6.28468e-05 0.00101423)
(-0.0223173 4.99035e-05 0.000849269)
(-0.0237219 4.05501e-05 0.000773167)
(-0.0227284 1.38378e-05 0.000615872)
(-0.0241205 -5.60065e-06 0.00054923)
(-0.0236439 -0.000141701 0.00127138)
(-0.0218321 -0.000135574 0.00117796)
(-0.023011 -0.000154134 0.00118131)
(-0.0218782 -0.000145375 0.00103753)
(-0.0232939 -0.000140641 0.00098699)
(-0.0222986 -0.00011051 0.000833731)
(-0.0237414 -9.36781e-05 0.000760078)
(-0.0227184 -7.46626e-05 0.000611646)
(-0.024161 -7.51002e-05 0.000540875)
(-0.0237718 -0.000377485 0.00124545)
(-0.0220487 -0.000337415 0.00115649)
(-0.023304 -0.000363829 0.00115702)
(-0.0223138 -0.000325004 0.00101988)
(-0.0237833 -0.000325504 0.000966889)
(-0.0229457 -0.000261062 0.000822047)
(-0.0244139 -0.000241291 0.000752431)
(-0.0235506 -0.000176222 0.000617134)
(-0.0249989 -0.000168498 0.000554981)
(-0.0239027 -0.000436245 0.00121085)
(-0.0223223 -0.00040156 0.00113347)
(-0.0236499 -0.000417475 0.00112722)
(-0.0228725 -0.000376171 0.00100963)
(-0.024398 -0.000369022 0.000952733)
(-0.0237988 -0.000301274 0.000825573)
(-0.0252875 -0.000273573 0.000750763)
(-0.0246718 -0.000195296 0.000632224)
(-0.0260855 -0.000171882 0.000569974)
(-0.0205707 3.65794e-05 0.000831148)
(-0.0220993 2.23201e-05 0.000763215)
(-0.0205312 5.70899e-06 0.000604078)
(-0.0221801 -2.45753e-05 0.000520271)
(-0.0234013 -0.000175666 0.00134973)
(-0.0213689 -0.000154543 0.00121396)
(-0.0223938 -0.00017518 0.00123984)
(-0.0208336 -0.000159982 0.00104647)
(-0.0222047 -0.000165795 0.00100806)
(-0.0207214 -0.000123423 0.000823234)
(-0.0222663 -0.000108583 0.000756281)
(-0.0207228 -8.20966e-05 0.00060557)
(-0.0223904 -8.28835e-05 0.000533156)
(-0.023549 -0.000414432 0.0013255)
(-0.0216159 -0.000365939 0.00120226)
(-0.0227202 -0.000400343 0.00123157)
(-0.0213318 -0.000341885 0.00105173)
(-0.022753 -0.000352535 0.00101909)
(-0.0214657 -0.000271323 0.000845003)
(-0.0230015 -0.000261381 0.000791352)
(-0.0216489 -0.000181071 0.000642303)
(-0.0232771 -0.000174356 0.000580214)
(-0.0237041 -0.000476653 0.00129048)
(-0.0219547 -0.000434358 0.00118552)
(-0.0231405 -0.000457164 0.0012043)
(-0.0220612 -0.000399293 0.00106078)
(-0.0234947 -0.000397581 0.00101894)
(-0.0225691 -0.000316546 0.000880009)
(-0.0240243 -0.000297336 0.000810758)
(-0.0230782 -0.000209242 0.000689457)
(-0.024531 -0.00018941 0.000627131)
(-0.0186546 1.18562e-05 0.000480591)
(-0.0204457 3.96336e-06 0.000409542)
(-0.0231312 -0.000219132 0.00120539)
(-0.020932 -0.000188255 0.00107615)
(-0.0217863 -0.000210103 0.00107439)
(-0.0199217 -0.000175644 0.000899483)
(-0.0212017 -0.000177665 0.000848234)
(-0.0193956 -0.000130514 0.000693851)
(-0.0209451 -0.000102556 0.000629361)
(-0.0190976 -8.86075e-05 0.000515443)
(-0.0208165 -6.60924e-05 0.000437692)
(-0.0233046 -0.000453973 0.00117848)
(-0.0212087 -0.000395135 0.00106225)
(-0.0221579 -0.000430853 0.00106518)
(-0.020464 -0.000356457 0.000913141)
(-0.0217925 -0.000363884 0.000865324)
(-0.0201646 -0.000274774 0.000723107)
(-0.0216995 -0.000259784 0.000656757)
(-0.0199899 -0.000188122 0.00055151)
(-0.0217034 -0.000168842 0.000479382)
(-0.0234855 -0.000518966 0.00115604)
(-0.021587 -0.000472721 0.00106032)
(-0.0226276 -0.000502957 0.00106755)
(-0.0212853 -0.000430947 0.000947527)
(-0.0226001 -0.000431227 0.000898935)
(-0.0214023 -0.000339056 0.000780253)
(-0.0227852 -0.000326167 0.000710658)
(-0.0215639 -0.000238283 0.00063583)
(-0.0230051 -0.000209242 0.000569141)
(-0.0229436 -0.000235496 0.000916267)
(-0.0206628 -0.000213083 0.000807815)
(-0.0214217 -0.000235101 0.000799557)
(-0.0194035 -0.00019287 0.00067213)
(-0.0206158 -0.000193892 0.000629603)
(-0.0186705 -0.000152206 0.000515808)
(-0.0201676 -0.000134567 0.000473922)
(-0.0182128 -0.000111049 0.000386316)
(-0.023136 -0.000494611 0.000893209)
(-0.0209942 -0.000428281 0.000803201)
(-0.0218381 -0.000458132 0.000798594)
(-0.0200506 -0.000371745 0.000696481)
(-0.0212768 -0.000378998 0.000658076)
(-0.0195718 -0.000294344 0.000555714)
(-0.0210185 -0.0002858 0.000508446)
(-0.0233435 -0.000550685 0.000882411)
(-0.0214054 -0.000494424 0.000813957)
(-0.0223408 -0.000511844 0.000819778)
(-0.0208899 -0.000435197 0.000744345)
(-0.022098 -0.000427424 0.000710193)
(-0.0207796 -0.00034717 0.00061651)
)
;

boundaryField
{
    inlet
    {
        type            calculated;
        value           nonuniform List<vector> 
12
(
(-0.01 -9.55976e-10 -2.05201e-09)
(-0.01 1.59102e-09 -3.22628e-09)
(-0.01 1.26876e-09 -1.15072e-09)
(-0.01 -2.20757e-10 -1.46234e-09)
(-0.01 7.37175e-11 -1.31592e-09)
(-0.01 5.30415e-11 -5.98268e-10)
(-0.01 -5.60997e-10 -1.67896e-09)
(-0.01 1.76155e-10 -5.70813e-10)
(-0.01 -1.45672e-10 -6.54548e-10)
(-0.01 -2.79496e-10 -1.23339e-09)
(-0.01 -7.43835e-11 -6.73936e-10)
(-0.01 6.05287e-12 -4.74485e-10)
)
;
    }
    outlet
    {
        type            calculated;
        value           nonuniform 0();
    }
    wall
    {
        type            calculated;
        value           nonuniform List<vector> 
66
(
(-1.92984e-09 -9.55976e-10 -2.05201e-09)
(-1.14931e-09 1.59102e-09 -3.22628e-09)
(2.99757e-09 1.26876e-09 -1.15072e-09)
(-3.21642e-09 -6.36791e-10 -3.81677e-09)
(-3.4223e-09 4.81422e-10 -3.15094e-09)
(-1.43055e-09 5.64108e-10 -1.82288e-09)
(-3.03154e-09 -1.58416e-09 -4.67414e-09)
(-3.52459e-09 -8.20194e-10 -4.95763e-09)
(-2.44391e-09 -5.16949e-10 -4.04367e-09)
(-1.76751e-09 -2.79379e-09 -4.31906e-09)
(-2.61995e-09 -2.54806e-09 -4.11145e-09)
(-4.4554e-09 7.55542e-10 -5.06915e-09)
(-2.9133e-09 1.3444e-09 -1.34751e-09)
(-3.28503e-10 -4.58206e-09 -4.03932e-09)
(-4.86322e-09 -5.05703e-09 -4.47973e-09)
(-6.68006e-09 5.3577e-10 -3.57809e-09)
(-9.98205e-09 2.25452e-09 -1.13025e-09)
(-4.00175e-09 -7.45018e-09 1.05039e-09)
(-8.12486e-09 -6.53575e-09 8.31066e-11)
(-1.16541e-08 -4.60546e-09 1.39372e-09)
(-1.46626e-08 -1.06936e-09 -4.62455e-10)
(1.08739e-09 -1.38703e-08 8.96292e-09)
(-8.24228e-09 -6.68706e-09 3.75681e-09)
(-1.79436e-08 -3.84643e-10 3.76119e-09)
(-1.9838e-08 5.92737e-10 1.87337e-09)
(1.07934e-06 1.04809e-06 1.22978e-06)
(-1.37531e-08 -2.21773e-08 1.31125e-08)
(-2.54311e-08 -8.49056e-09 8.46269e-09)
(-2.54535e-08 8.96353e-09 1.51932e-09)
(1.50985e-06 1.53454e-06 1.68159e-06)
(-2.4397e-08 -1.9198e-08 2.06091e-08)
(-3.23956e-08 -1.43096e-08 1.28856e-08)
(-2.79898e-08 -1.228e-08 2.76225e-09)
(2.99757e-09 1.26876e-09 -1.15072e-09)
(-4.51072e-10 5.30415e-11 -5.98268e-10)
(-2.24409e-10 -1.45672e-10 -6.54548e-10)
(-3.26538e-10 6.05287e-12 -4.74485e-10)
(-1.43055e-09 5.64108e-10 -1.82288e-09)
(-1.07946e-09 7.48091e-11 -1.2974e-09)
(-1.83309e-10 -2.01002e-10 -1.41432e-09)
(-8.67898e-10 8.76456e-11 -1.00396e-09)
(-2.44391e-09 -5.16949e-10 -4.04367e-09)
(-3.3832e-09 -1.56754e-10 -1.67084e-09)
(-2.09412e-09 -4.40915e-10 -1.32836e-09)
(-2.98747e-09 -1.14619e-09 -1.72514e-09)
(-2.9133e-09 1.3444e-09 -1.34751e-09)
(-5.39798e-09 -1.6609e-10 -1.30376e-09)
(-5.35146e-09 -1.2148e-09 -2.87516e-09)
(-5.09264e-09 -6.2818e-10 -2.06096e-09)
(-9.98205e-09 2.25452e-09 -1.13025e-09)
(-7.49642e-09 1.24499e-09 -8.05333e-10)
(-1.07519e-08 -8.39357e-11 -4.22035e-10)
(-9.78632e-09 -1.18321e-09 -1.7349e-09)
(-1.46626e-08 -1.06936e-09 -4.62455e-10)
(-1.43618e-08 -1.52019e-09 4.55325e-10)
(-1.94845e-08 -2.62175e-09 9.35845e-10)
(-1.71963e-08 -3.28508e-09 -9.70178e-10)
(-1.9838e-08 5.92737e-10 1.87337e-09)
(-1.79022e-08 -3.54929e-10 1.49427e-09)
(-2.45825e-08 -7.13684e-11 4.14704e-09)
(-2.54535e-08 8.96353e-09 1.51932e-09)
(-2.80993e-08 1.602e-09 9.84918e-10)
(-2.6624e-08 6.69039e-09 6.02729e-09)
(-2.79898e-08 -1.228e-08 2.76225e-09)
(-9.36117e-09 2.14386e-10 5.49575e-09)
(-2.78549e-08 6.48369e-09 1.23776e-08)
)
;
    }
    procBoundary2to0
    {
        type            processor;
        value           nonuniform List<vector> 
44
(
(-0.0220726 0.00027582 0.00106525)
(-0.0235073 0.000255541 0.00102049)
(-0.0225809 0.000196176 0.00086524)
(-0.0240053 0.000180312 0.00080087)
(-0.0230364 0.000124568 0.000645709)
(-0.0244171 9.82881e-05 0.0005915)
(-0.0236367 0.000126433 0.00131204)
(-0.0218312 9.98591e-05 0.00119882)
(-0.0230074 9.51567e-05 0.00120098)
(-0.0230074 9.51567e-05 0.00120098)
(-0.0207431 6.16383e-05 0.00106988)
(-0.0220915 4.77385e-05 0.00103723)
(-0.0208634 0.000189469 0.00083095)
(-0.0223972 0.000172572 0.000764857)
(-0.0208364 0.000108328 0.000602401)
(-0.022483 9.01783e-05 0.000526322)
(-0.0233571 0.000108976 0.00140086)
(-0.0213092 9.17489e-05 0.00124774)
(-0.0223183 8.71358e-05 0.00128012)
(-0.0207431 6.16383e-05 0.00106988)
(-0.0220915 4.77385e-05 0.00103723)
(-0.0220915 4.77385e-05 0.00103723)
(-0.0189841 3.38886e-05 0.000676239)
(-0.0206153 2.92616e-05 0.000613617)
(-0.0190525 0.000117775 0.000499565)
(-0.0208183 8.60418e-05 0.000413959)
(-0.0230577 9.50733e-05 0.0012234)
(-0.0207877 7.9764e-05 0.00109468)
(-0.0216281 7.12592e-05 0.00109669)
(-0.0196326 5.3718e-05 0.000898949)
(-0.0209473 4.1746e-05 0.000845801)
(-0.0189841 3.38886e-05 0.000676239)
(-0.0206153 2.92616e-05 0.000613617)
(-0.0206153 2.92616e-05 0.000613617)
(-0.0178643 5.50728e-06 0.000357909)
(-0.0195533 -8.05251e-06 0.000304816)
(-0.022877 0.000100577 0.000898979)
(-0.0205665 7.5165e-05 0.000808654)
(-0.0212814 6.53534e-05 0.000787175)
(-0.0191872 4.47187e-05 0.000658969)
(-0.0203779 3.2969e-05 0.000607978)
(-0.0183595 2.37965e-05 0.000497579)
(-0.0198665 1.7658e-05 0.000453442)
(-0.0178643 5.50728e-06 0.000357909)
)
;
    }
    procBoundary2to3
    {
        type            processor;
        value           nonuniform List<vector> 
12
(
(-0.0230553 -2.98808e-05 0.000425766)
(-0.0230803 -7.83141e-05 0.000421745)
(-0.0240751 -0.000139604 0.000439691)
(-0.0254092 -0.000107213 0.000475819)
(-0.0205318 -3.69433e-05 0.00042022)
(-0.0207926 -8.04062e-05 0.000425965)
(-0.0218422 -0.000128958 0.000472323)
(-0.0235317 -0.000112606 0.000540777)
(-0.0184871 -1.58278e-05 0.000307183)
(-0.0189257 -7.98378e-05 0.000353965)
(-0.0199155 -0.000132435 0.000412434)
(-0.0217433 -0.00015006 0.000537659)
)
;
    }
    procBoundary2to6
    {
        type            processor;
        value           nonuniform List<vector> 
32
(
(-0.0199002 -0.000103044 0.00032287)
(-0.0192916 -0.000213106 0.000443527)
(-0.0209015 -0.000188017 0.000393928)
(-0.0220861 -0.000323662 0.000569465)
(-0.0207777 -0.000241016 0.000528646)
(-0.0221446 -0.000202244 0.000485688)
(-0.0229001 -0.000237265 0.000509774)
(-0.0205853 -0.000214215 0.00045829)
(-0.0213097 -0.00022457 0.000441933)
(-0.0192306 -0.000179662 0.000383864)
(-0.0204504 -0.000169645 0.000353524)
(-0.0184054 -0.000129499 0.000298705)
(-0.0199283 -0.000104163 0.000278113)
(-0.0199002 -0.000103044 0.00032287)
(-0.0192916 -0.000213106 0.000443527)
(-0.0178694 -7.79393e-05 0.00023407)
(-0.0231048 -0.000515676 0.000501303)
(-0.0209208 -0.000432987 0.000465286)
(-0.0217457 -0.000460207 0.000452135)
(-0.019878 -0.000362942 0.000411627)
(-0.0211115 -0.000357607 0.000381797)
(-0.019275 -0.000276811 0.000339514)
(-0.0192916 -0.000213106 0.000443527)
(-0.0220861 -0.000323662 0.000569465)
(-0.0207446 -0.000262583 0.000315989)
(-0.0233222 -0.000566948 0.000512942)
(-0.0213611 -0.000502711 0.000485451)
(-0.0222656 -0.000518772 0.000482554)
(-0.0207635 -0.00042995 0.000456623)
(-0.0219328 -0.000417453 0.000431084)
(-0.0220861 -0.000323662 0.000569465)
(-0.0205059 -0.000337079 0.000398456)
)
;
    }
}


// ************************************************************************* //
