/*--------------------------------*- C++ -*----------------------------------*\
| =========                 |                                                 |
| \\      /  F ield         | OpenFOAM: The Open Source CFD Toolbox           |
|  \\    /   O peration     | Version:  4.x                                   |
|   \\  /    A nd           | Web:      www.OpenFOAM.org                      |
|    \\/     M anipulation  |                                                 |
\*---------------------------------------------------------------------------*/
FoamFile
{
    version     2.0;
    format      ascii;
    class       volScalarField;
    location    "1.5";
    object      particleRelTemp;
}
// * * * * * * * * * * * * * * * * * * * * * * * * * * * * * * * * * * * * * //

dimensions      [0 0 0 0 0 0 0];

internalField   nonuniform List<scalar> 
108
(
-9.21735e-06
-9.37885e-06
-7.30216e-06
-5.23881e-06
-7.54713e-07
4.50641e-06
9.1315e-06
1.33726e-05
1.48516e-05
-8.25368e-06
-8.82398e-06
-8.0825e-06
-5.13522e-06
-1.45233e-06
3.54151e-06
8.03907e-06
1.11249e-05
1.40842e-05
-6.7141e-06
-7.31208e-06
-7.40972e-06
-5.736e-06
-2.84302e-06
-3.72998e-09
3.81066e-06
6.422e-06
9.12706e-06
-5.25787e-06
-5.78465e-06
-5.22844e-06
-5.13355e-06
-4.11286e-06
-2.12026e-06
-2.62116e-07
2.04099e-06
3.28368e-06
-9.75203e-06
-1.01722e-05
-8.48263e-06
-5.4411e-06
-5.75009e-07
4.60377e-06
1.11516e-05
1.67868e-05
1.82937e-05
-8.50655e-06
-9.51646e-06
-8.68024e-06
-6.18592e-06
-2.12285e-06
4.03375e-06
9.78509e-06
1.44397e-05
1.73741e-05
-6.69616e-06
-7.78255e-06
-7.74841e-06
-6.40122e-06
-3.76798e-06
3.08696e-07
4.92533e-06
9.45715e-06
1.20069e-05
-5.46639e-06
-6.17881e-06
-6.28252e-06
-5.86166e-06
-4.53274e-06
-2.17115e-06
1.16472e-06
4.41329e-06
6.53022e-06
-9.23607e-06
-1.02231e-05
-9.95662e-06
-7.32128e-06
-1.55624e-06
4.60887e-06
1.17989e-05
1.98833e-05
2.2513e-05
-8.00008e-06
-9.90658e-06
-9.67147e-06
-7.27842e-06
-3.43516e-06
3.40201e-06
1.07168e-05
1.66569e-05
2.01548e-05
-6.57379e-06
-7.74771e-06
-8.44516e-06
-7.53912e-06
-4.20691e-06
5.47441e-07
5.31365e-06
1.09681e-05
1.45836e-05
-5.23419e-06
-6.1537e-06
-6.88368e-06
-6.50012e-06
-4.90621e-06
-2.34786e-06
1.45496e-06
5.51883e-06
8.74457e-06
)
;

boundaryField
{
    inlet
    {
        type            calculated;
        value           nonuniform 0();
    }
    outlet
    {
        type            calculated;
        value           nonuniform List<scalar> 
12
(
1.48516e-05
1.40842e-05
9.12706e-06
3.28368e-06
1.82937e-05
1.73741e-05
1.20069e-05
6.53022e-06
2.2513e-05
2.01548e-05
1.45836e-05
8.74457e-06
)
;
    }
    wall
    {
        type            calculated;
        value           nonuniform List<scalar> 
63
(
-9.21735e-06
-8.25368e-06
-6.7141e-06
-5.25787e-06
-9.37885e-06
-8.82398e-06
-7.31208e-06
-5.78465e-06
-7.30216e-06
-8.0825e-06
-7.40972e-06
-5.22844e-06
-5.23881e-06
-5.13522e-06
-5.736e-06
-5.13355e-06
-7.54713e-07
-1.45233e-06
-2.84302e-06
-4.11286e-06
4.50641e-06
3.54151e-06
-3.72998e-09
-2.12026e-06
9.1315e-06
8.03907e-06
3.81066e-06
-2.62116e-07
1.33726e-05
1.11249e-05
6.422e-06
2.04099e-06
1.48516e-05
1.40842e-05
9.12706e-06
3.28368e-06
-5.25787e-06
-5.46639e-06
-5.23419e-06
-5.78465e-06
-6.17881e-06
-6.1537e-06
-5.22844e-06
-6.28252e-06
-6.88368e-06
-5.13355e-06
-5.86166e-06
-6.50012e-06
-4.11286e-06
-4.53274e-06
-4.90621e-06
-2.12026e-06
-2.17115e-06
-2.34786e-06
-2.62116e-07
1.16472e-06
1.45496e-06
2.04099e-06
4.41329e-06
5.51883e-06
3.28368e-06
6.53022e-06
8.74457e-06
)
;
    }
    procBoundary3to1
    {
        type            processor;
        value           nonuniform List<scalar> 
27
(
-9.39239e-06
-8.89155e-06
-6.77509e-06
-3.96903e-06
-1.38025e-07
3.61034e-06
8.69437e-06
1.14611e-05
1.22859e-05
-9.62153e-06
-9.43944e-06
-7.97564e-06
-5.01711e-06
5.64697e-07
4.94357e-06
9.70365e-06
1.52173e-05
1.79801e-05
-8.95617e-06
-1.00193e-05
-9.32446e-06
-7.67855e-06
-2.42356e-06
4.8596e-06
1.28248e-05
1.77204e-05
2.13812e-05
)
;
    }
    procBoundary3to2
    {
        type            processor;
        value           nonuniform List<scalar> 
12
(
-7.90655e-06
-6.92162e-06
-5.87508e-06
-4.38184e-06
-7.79485e-06
-6.83113e-06
-5.16451e-06
-3.8423e-06
-7.22575e-06
-5.77928e-06
-4.82428e-06
-3.69251e-06
)
;
    }
    procBoundary3to7
    {
        type            processor;
        value           nonuniform List<scalar> 
36
(
-8.36955e-06
-9.08808e-06
-9.83499e-06
-7.9414e-06
-3.12533e-06
4.2811e-06
1.24674e-05
1.97668e-05
2.48721e-05
-7.28776e-06
-9.08476e-06
-9.46802e-06
-8.41863e-06
-4.31487e-06
9.14622e-07
8.14155e-06
1.62153e-05
2.17349e-05
-5.43854e-06
-7.46999e-06
-8.03281e-06
-7.64522e-06
-5.25064e-06
-1.19506e-06
4.13791e-06
9.78399e-06
1.49844e-05
-5.07375e-06
-6.05197e-06
-6.80151e-06
-6.42466e-06
-5.58841e-06
-2.91297e-06
6.99184e-07
4.6295e-06
7.47264e-06
)
;
    }
}


// ************************************************************************* //
