/*--------------------------------*- C++ -*----------------------------------*\
| =========                 |                                                 |
| \\      /  F ield         | OpenFOAM: The Open Source CFD Toolbox           |
|  \\    /   O peration     | Version:  4.x                                   |
|   \\  /    A nd           | Web:      www.OpenFOAM.org                      |
|    \\/     M anipulation  |                                                 |
\*---------------------------------------------------------------------------*/
FoamFile
{
    version     2.0;
    format      ascii;
    class       volScalarField;
    location    "1.5";
    object      QWallFluid;
}
// * * * * * * * * * * * * * * * * * * * * * * * * * * * * * * * * * * * * * //

dimensions      [1 -1 -3 0 0 0 0];

internalField   nonuniform List<scalar> 
108
(
3.33365e+08
1.38856e+08
8.82845e+08
6.64358e+08
1.24506e+09
8.84782e+08
1.16923e+09
8.60839e+08
1.03889e+09
3.92418e+08
4.12376e+08
8.06035e+08
3.82215e+08
9.7905e+08
2.92875e+08
9.43216e+08
8.00773e+08
4.4642e+08
3.54212e+08
6.86211e+08
6.03918e+08
7.62683e+08
6.46699e+08
9.03849e+08
5.63045e+08
1.19779e+09
1.37773e+09
1.11775e+09
2.44748e+09
1.72591e+09
2.9992e+09
2.51963e+09
3.75585e+09
3.29337e+09
4.74953e+09
3.13482e+09
0
0
0
0
0
0
0
0
0
0
0
0
0
0
0
0
0
0
0
0
0
0
0
0
0
0
0
6.50478e+08
1.23413e+09
8.99952e+08
1.42071e+09
1.05696e+09
1.35542e+09
6.35709e+08
5.05339e+08
1.37985e+09
0
0
0
0
0
0
0
0
0
0
0
0
0
0
0
0
0
0
0
0
0
0
0
0
0
0
0
7.95288e+08
1.32263e+09
1.03174e+09
1.53109e+09
1.27942e+09
1.78692e+09
1.42809e+09
2.16087e+09
1.84644e+09
)
;

boundaryField
{
    inlet
    {
        type            calculated;
        value           nonuniform 0();
    }
    outlet
    {
        type            calculated;
        value           uniform 0;
    }
    wall
    {
        type            calculated;
        value           uniform 0;
    }
    procBoundary3to1
    {
        type            processor;
        value           nonuniform List<scalar> 
27
(
4.9732e+08
3.29834e+08
9.12868e+08
5.40485e+08
1.24744e+09
9.37304e+08
1.36276e+09
1.12096e+09
1.24266e+09
0
0
0
0
0
0
0
0
0
0
0
0
0
0
0
0
0
0
)
;
    }
    procBoundary3to2
    {
        type            processor;
        value           nonuniform List<scalar> 
12
(
5.86874e+08
5.3852e+08
6.74606e+08
2.16914e+09
0
0
0
1.10357e+09
0
0
0
1.19448e+09
)
;
    }
    procBoundary3to7
    {
        type            processor;
        value           nonuniform List<scalar> 
36
(
0
0
0
0
0
0
0
0
0
0
0
0
0
0
0
0
0
0
0
0
0
0
0
0
0
0
0
9.77808e+08
1.43315e+09
1.16937e+09
1.63289e+09
1.39514e+09
1.94221e+09
1.62544e+09
2.71174e+09
1.68805e+09
)
;
    }
}


// ************************************************************************* //
