/*--------------------------------*- C++ -*----------------------------------*\
| =========                 |                                                 |
| \\      /  F ield         | OpenFOAM: The Open Source CFD Toolbox           |
|  \\    /   O peration     | Version:  4.x                                   |
|   \\  /    A nd           | Web:      www.OpenFOAM.org                      |
|    \\/     M anipulation  |                                                 |
\*---------------------------------------------------------------------------*/
FoamFile
{
    version     2.0;
    format      ascii;
    class       volScalarField;
    location    "1.5";
    object      T;
}
// * * * * * * * * * * * * * * * * * * * * * * * * * * * * * * * * * * * * * //

dimensions      [0 0 0 1 0 0 0];

internalField   nonuniform List<scalar> 
108
(
300.006
300.005
299.999
299.992
299.989
299.986
299.982
299.978
299.978
300.004
300.003
300
299.995
299.991
299.986
299.982
299.98
299.975
300.002
300.001
300
299.998
299.995
299.992
299.988
299.987
299.982
299.999
299.998
299.997
299.997
299.996
299.995
299.995
299.994
299.991
300.007
300.004
299.994
299.981
299.983
299.982
299.975
299.97
299.969
300.005
300.004
299.999
299.992
299.989
299.983
299.978
299.971
299.968
300.001
300.002
300
299.997
299.995
299.991
299.985
299.979
299.976
300
299.999
299.998
299.998
299.997
299.995
299.992
299.987
299.986
300.005
300.002
299.988
299.954
299.976
299.981
299.975
299.964
299.961
300.003
300.004
299.999
299.99
299.99
299.984
299.976
299.969
299.963
300.001
300.001
300.001
299.998
299.995
299.991
299.985
299.979
299.97
299.999
299.999
299.999
299.998
299.997
299.995
299.992
299.988
299.983
)
;

boundaryField
{
    inlet
    {
        type            fixedValue;
        value           nonuniform 0();
    }
    outlet
    {
        type            zeroGradient;
    }
    wall
    {
        type            zeroGradient;
    }
    procBoundary3to1
    {
        type            processor;
        value           nonuniform List<scalar> 
27
(
300.008
300.007
300.001
299.994
299.993
299.99
299.985
299.982
299.982
300.009
300.007
299.995
299.967
299.983
299.985
299.981
299.974
299.971
300.007
300.004
299.973
299.793
299.961
299.981
299.975
299.969
299.962
)
;
    }
    procBoundary3to2
    {
        type            processor;
        value           nonuniform List<scalar> 
12
(
300.006
300.003
300.001
299.999
300.005
300.003
300
299.998
300.004
300.001
300
299.998
)
;
    }
    procBoundary3to7
    {
        type            processor;
        value           nonuniform List<scalar> 
36
(
300.003
300.005
299.999
299.987
299.989
299.984
299.974
299.964
299.957
300.002
300.004
300.002
299.997
299.994
299.989
299.98
299.97
299.961
300
300.002
300.001
300
299.998
299.993
299.987
299.981
299.971
299.999
299.999
300
299.999
299.999
299.997
299.993
299.991
299.985
)
;
    }
}


// ************************************************************************* //
