/*--------------------------------*- C++ -*----------------------------------*\
| =========                 |                                                 |
| \\      /  F ield         | OpenFOAM: The Open Source CFD Toolbox           |
|  \\    /   O peration     | Version:  4.x                                   |
|   \\  /    A nd           | Web:      www.OpenFOAM.org                      |
|    \\/     M anipulation  |                                                 |
\*---------------------------------------------------------------------------*/
FoamFile
{
    version     2.0;
    format      ascii;
    class       volVectorField;
    location    "1.5";
    object      Urel;
}
// * * * * * * * * * * * * * * * * * * * * * * * * * * * * * * * * * * * * * //

dimensions      [0 1 -1 0 0 0 0];

internalField   nonuniform List<vector> 
108
(
(0.00276622 -0.00106778 -0.000627456)
(0.00542694 -0.00133747 -0.000369893)
(0.010118 -0.00197521 -0.00012459)
(0.0113353 -0.00252663 0.000187085)
(0.0133647 -0.00287069 0.000343288)
(0.0113144 -0.00232285 0.000352068)
(0.0102616 -0.00136099 -0.000190966)
(0.00640359 0.00013468 -0.00159302)
(0.00507591 -0.000975103 -0.00339356)
(-8.30685e-05 -0.00444741 -0.000549057)
(0.0014121 -0.00482227 -8.32213e-05)
(0.0049113 -0.0049862 0.000577991)
(0.00468216 -0.00454873 0.00147657)
(0.00584344 -0.00356747 0.00232287)
(0.00222123 -0.00146735 0.00264665)
(0.00136582 0.000687237 0.00245363)
(-0.00398286 0.00244077 0.000387472)
(-0.00298056 -0.000363525 -0.000718045)
(-0.00887691 -0.00704824 -0.000897592)
(-0.00933358 -0.00713382 -0.00041673)
(-0.00752652 -0.00660537 0.000387437)
(-0.00950637 -0.00544337 0.00167162)
(-0.00936711 -0.00324014 0.00311439)
(-0.0135782 -0.0003341 0.00410802)
(-0.0136793 0.00240898 0.0042291)
(-0.0168671 0.00370332 0.00287451)
(-0.0141658 -0.00337429 0.00211664)
(-0.0241017 -0.00780629 -0.00171493)
(-0.0266062 -0.00781176 -0.00131975)
(-0.0271845 -0.00703927 -0.0005892)
(-0.0303667 -0.00569006 0.000801592)
(-0.0314238 -0.00341818 0.0022764)
(-0.0342606 -0.00039936 0.00348264)
(-0.0326975 0.00182462 0.00422551)
(-0.0323937 0.00313097 0.00408388)
(-0.0247778 -0.00250121 0.0072491)
(-0.000203843 -0.000823837 -0.00166994)
(0.00175937 -0.000892929 -0.00131716)
(0.00626933 -0.00123959 -0.000848139)
(0.00721099 -0.00163437 0.000170188)
(0.00929744 -0.0020035 0.000781029)
(0.00700351 -0.00188133 0.00119294)
(0.00582096 -0.00146715 0.000574723)
(0.0015082 -0.000945833 -0.000550322)
(-0.00110144 -0.000976058 -0.00373786)
(-0.00287681 -0.00371003 -0.00150701)
(-0.00176817 -0.00398198 -0.00104066)
(0.0017038 -0.00401177 -0.000275857)
(0.00153732 -0.00350352 0.00108198)
(0.00307332 -0.00258272 0.00212937)
(0.000215485 -0.000996328 0.00273168)
(-0.000273267 0.000289123 0.00239668)
(-0.00473249 0.000912222 0.00111321)
(-0.00647033 -0.000640827 -0.00117981)
(-0.0107185 -0.00602 -0.00218474)
(-0.0112062 -0.00606631 -0.00173928)
(-0.00936501 -0.00537184 -0.000865583)
(-0.0109369 -0.00399195 0.000818773)
(-0.00998228 -0.00194432 0.00236319)
(-0.0125681 0.000427535 0.00349531)
(-0.0117923 0.00228897 0.00347182)
(-0.0140627 0.00261775 0.00305296)
(-0.0143734 -0.000682029 0.00169384)
(-0.0242626 -0.00670532 -0.00337748)
(-0.0268566 -0.00656825 -0.00309157)
(-0.0267477 -0.00561435 -0.00234178)
(-0.0293809 -0.00397063 -0.000823582)
(-0.0283885 -0.0015705 0.000689152)
(-0.029577 0.00125326 0.00217125)
(-0.0259592 0.00282946 0.00280013)
(-0.0249692 0.00339505 0.00360991)
(-0.0208866 -0.000695447 0.00660843)
(-0.00568711 -0.000831291 -0.00230559)
(-0.00614569 -0.000906106 -0.00205619)
(-0.00289219 -0.00100166 -0.0014854)
(-0.00401656 -0.00101014 -8.12231e-05)
(-0.00158466 -0.00128316 0.000931655)
(-0.00442248 -0.00116921 0.00203251)
(-0.00426438 -0.000946574 0.00189109)
(-0.00903436 -0.000879255 0.00194445)
(-0.0110329 -0.000418652 -0.00183151)
(-0.00785433 -0.00289431 -0.00222796)
(-0.00841296 -0.00308182 -0.00180393)
(-0.00618047 -0.00296019 -0.00100067)
(-0.0077278 -0.00251192 0.000570459)
(-0.00577961 -0.00189134 0.00181735)
(-0.00919215 -0.000541377 0.00289884)
(-0.00837254 0.000425213 0.00290015)
(-0.013576 0.0012875 0.00296315)
(-0.0140517 -0.000283857 -0.00037594)
(-0.0152714 -0.00505292 -0.00320389)
(-0.0169734 -0.00493366 -0.00276041)
(-0.0160688 -0.00408065 -0.00190486)
(-0.0186111 -0.00299188 -0.000216096)
(-0.0174683 -0.00123183 0.00124211)
(-0.0205275 0.000704417 0.00268539)
(-0.0190182 0.00199871 0.0028596)
(-0.0220413 0.00278157 0.00363556)
(-0.0201209 -0.00310316 0.000839774)
(-0.0290555 -0.00577525 -0.00491692)
(-0.0324863 -0.00544144 -0.00460551)
(-0.0331658 -0.0043913 -0.00382822)
(-0.0363173 -0.00291068 -0.00230899)
(-0.0359001 -0.000836628 -0.000860189)
(-0.0376345 0.00144517 0.000805801)
(-0.0345604 0.00256181 0.00141289)
(-0.035114 0.00294912 0.00281085)
(-0.0276777 -0.00310661 -0.00161844)
)
;

boundaryField
{
    inlet
    {
        type            calculated;
        value           nonuniform 0();
    }
    outlet
    {
        type            calculated;
        value           nonuniform List<vector> 
12
(
(0.0371988 -0.00577313 -0.0131277)
(0.0205588 0.00255899 -0.00337336)
(-0.00653393 -0.0464616 -0.00608123)
(-0.0445144 -0.0236116 0.0351811)
(0.0157447 -0.00285611 -0.0236251)
(0.00821901 -0.00647514 -0.0134547)
(-0.00268044 0.00420479 -0.0076352)
(0.00511259 -0.00108464 0.0546071)
(-0.021996 0.00162641 -0.0122674)
(-0.0131404 0.00310053 -0.0133115)
(-0.00938453 -0.0321155 -0.0036223)
(-0.0205517 -0.0273407 -0.0638411)
)
;
    }
    wall
    {
        type            calculated;
        value           nonuniform List<vector> 
63
(
(0.000983682 0.00019751 0.00197414)
(0.00118122 0.000348898 0.00239425)
(0.00113763 8.97266e-05 0.00239873)
(0.00123644 0.000116616 0.0027543)
(0.000295161 -0.000182976 0.00236815)
(0.000746326 -4.05942e-05 0.00228002)
(0.00137689 4.04754e-05 0.00229433)
(0.00194173 8.40896e-05 0.00300565)
(0.00118493 -0.000623638 0.00257558)
(0.000486977 -0.000727369 0.00193365)
(0.000905512 -0.000116676 0.00170343)
(0.00168957 -0.000201355 0.00205005)
(0.000877722 -0.000178632 0.00167163)
(0.000899388 -9.79818e-05 0.00154622)
(0.00170647 0.000167047 0.0019521)
(0.00229052 0.000662936 0.00253536)
(0.000709001 0.000293964 0.00127462)
(0.000958344 0.000320021 0.00201829)
(0.00141882 0.000335183 0.0013831)
(0.0022959 0.000255247 0.00163746)
(0.00107771 0.000377834 0.00174795)
(0.000749225 -7.74106e-05 0.0011731)
(0.00142189 -0.000459216 0.00115979)
(0.00187326 3.74134e-05 0.00183825)
(0.000814657 -9.60352e-05 0.00132022)
(0.00101205 -7.14286e-05 0.00134847)
(0.00137522 -1.13507e-05 0.00125058)
(0.00121964 -0.000178897 0.000595154)
(0.00145881 0.00043067 0.000517649)
(0.00115217 -0.000179946 0.00112961)
(0.00253677 -0.000134829 0.00177591)
(0.00156314 0.000433456 0.000398207)
(0.000696589 7.15253e-05 0.00108712)
(0.000851445 -0.000128398 0.000940646)
(0.000752716 -0.000931216 0.00117291)
(0.000308771 1.31011e-05 0.000942604)
(0.00123644 0.000116616 0.0027543)
(0.00139112 -0.000136317 0.00214231)
(0.00149795 -9.83802e-05 0.00188141)
(0.00194173 8.40896e-05 0.00300565)
(0.00142808 3.95456e-05 0.00226635)
(0.00126301 -0.000291724 0.00166591)
(0.00168957 -0.000201355 0.00205005)
(0.00144092 -4.03564e-05 0.00176112)
(0.0014818 -0.000293176 0.00165389)
(0.00229052 0.000662936 0.00253536)
(0.00119279 -1.04276e-05 0.00167922)
(0.000980082 -7.84348e-05 0.00159571)
(0.0022959 0.000255247 0.00163746)
(0.00104051 -6.63693e-05 0.00122929)
(0.000760952 -0.000191073 0.00101335)
(0.00187326 3.74134e-05 0.00183825)
(0.000845778 -0.000111549 0.00150042)
(0.000487284 -8.30264e-05 0.00110215)
(0.00121964 -0.000178897 0.000595154)
(0.000734423 -4.22749e-05 0.00123565)
(0.000533482 4.72708e-05 0.00110833)
(0.00156314 0.000433456 0.000398207)
(0.000322258 9.90547e-05 0.000452496)
(0.000666656 -9.95911e-06 0.000686788)
(0.000308771 1.31011e-05 0.000942604)
(0.000364232 -8.91847e-05 0.000762652)
(0.000269035 5.75092e-05 0.000871425)
)
;
    }
    procBoundary3to1
    {
        type            processor;
        value           nonuniform List<vector> 
27
(
(0.00192013 0.00273926 -0.000918106)
(0.00399298 0.0024539 -0.000868671)
(0.00813212 0.0012103 -0.000973508)
(0.00907755 -0.000723846 -0.00110311)
(0.0114627 -0.00272188 -0.00156234)
(0.0103014 -0.00387026 -0.00182794)
(0.0107247 -0.00341836 -0.00219428)
(0.00850221 -0.00208468 -0.00279427)
(0.00741231 -0.0011989 -0.00445188)
(1.95782e-06 0.00249061 -0.00140904)
(0.00163718 0.00252388 -0.00115367)
(0.00531157 0.00175388 -0.00103654)
(0.00574781 0.000251665 -0.000748258)
(0.00750993 -0.00150338 -0.000939599)
(0.00519286 -0.00294379 -0.00103722)
(0.00482659 -0.00313511 -0.00178668)
(0.00124157 -0.00276304 -0.0021742)
(-0.000235497 -0.00128657 -0.00542319)
(-0.00512292 0.00167638 -0.00223075)
(-0.00477372 0.00181822 -0.00182129)
(-0.00182614 0.00149864 -0.00133493)
(-0.00271988 0.000642531 -0.000367588)
(-0.00104016 -0.000478141 0.000104667)
(-0.00414417 -0.00174558 0.00067044)
(-0.0043022 -0.00223694 0.000142551)
(-0.00930466 -0.0025384 0.000109288)
(-0.00992328 -0.000530458 -0.00403539)
)
;
    }
    procBoundary3to2
    {
        type            processor;
        value           nonuniform List<vector> 
12
(
(-0.00189842 -0.000955007 -0.000599398)
(-0.00398087 -0.00405762 -0.000679759)
(-0.0112549 -0.0067591 -0.00109291)
(-0.0239466 -0.00771834 -0.00178728)
(-0.00414556 -0.000835667 -0.00132242)
(-0.00618874 -0.00341882 -0.00136977)
(-0.0128602 -0.00581904 -0.00202828)
(-0.0245993 -0.00673272 -0.00315178)
(-0.00819322 -0.000788769 -0.00192413)
(-0.00999753 -0.00279874 -0.00205853)
(-0.0165081 -0.00500076 -0.00301762)
(-0.0284761 -0.00590071 -0.00465801)
)
;
    }
    procBoundary3to7
    {
        type            processor;
        value           nonuniform List<vector> 
36
(
(-0.0105334 -0.000637151 -0.00172346)
(-0.012359 -0.000563014 -0.00138791)
(-0.0103722 -0.000347597 -0.000479449)
(-0.0125639 -0.000177834 0.000828896)
(-0.0104399 -0.000232401 0.00169497)
(-0.013221 -0.000375944 0.00275838)
(-0.0125268 -0.000387415 0.00263687)
(-0.0170895 -0.000882948 0.00328822)
(-0.0175846 -6.58271e-05 0.000238507)
(-0.012553 -0.00211374 -0.00180911)
(-0.0142491 -0.00203721 -0.00129017)
(-0.0129652 -0.00175745 -0.000351428)
(-0.0150493 -0.00130261 0.000954486)
(-0.0133044 -0.000794676 0.00221397)
(-0.0164349 0.000296544 0.00321136)
(-0.0153313 0.00118039 0.00367385)
(-0.0198331 0.00181501 0.00351541)
(-0.0193803 0.000259585 0.0013576)
(-0.0202444 -0.00372595 -0.00289647)
(-0.0226423 -0.00338689 -0.00233478)
(-0.022356 -0.00261423 -0.00130646)
(-0.0254078 -0.00170688 0.000114813)
(-0.0247415 -0.000226642 0.00150772)
(-0.0280779 0.00133414 0.00299255)
(-0.0267395 0.00240636 0.00349823)
(-0.0296791 0.00311167 0.00416159)
(-0.0258566 -0.00509572 0.00216128)
(-0.0354523 -0.00470447 -0.00508988)
(-0.0391421 -0.00419639 -0.00465188)
(-0.040803 -0.00321031 -0.00374881)
(-0.0442954 -0.00184645 -0.00223782)
(-0.0448224 -9.61305e-05 -0.000640636)
(-0.0473456 0.00187902 0.00115338)
(-0.0452425 0.00280242 0.00258745)
(-0.0464824 0.00294724 0.00352117)
(-0.0364835 -0.00401459 0.00332696)
)
;
    }
}


// ************************************************************************* //
