/*--------------------------------*- C++ -*----------------------------------*\
| =========                 |                                                 |
| \\      /  F ield         | OpenFOAM: The Open Source CFD Toolbox           |
|  \\    /   O peration     | Version:  4.x                                   |
|   \\  /    A nd           | Web:      www.OpenFOAM.org                      |
|    \\/     M anipulation  |                                                 |
\*---------------------------------------------------------------------------*/
FoamFile
{
    version     2.0;
    format      ascii;
    class       volVectorField;
    location    "1.5";
    object      UsPrev;
}
// * * * * * * * * * * * * * * * * * * * * * * * * * * * * * * * * * * * * * //

dimensions      [0 1 -1 0 0 0 0];

internalField   nonuniform List<vector> 
108
(
(-0.000141027 2.08192e-06 1.42486e-05)
(-0.000152292 7.59482e-06 1.88122e-05)
(-0.000163021 2.68802e-06 1.52792e-05)
(-0.000157939 -9.13678e-07 1.63073e-05)
(-0.000147399 -1.15387e-05 2.24787e-05)
(-0.000123177 -1.26189e-05 1.61708e-05)
(-0.000106518 -2.60809e-05 5.17577e-05)
(-8.01778e-05 -1.33284e-05 6.46875e-05)
(-2.37327e-05 -2.18442e-06 5.12482e-05)
(-0.000142878 -2.17099e-07 1.89749e-05)
(-0.000148576 5.32949e-06 2.00493e-05)
(-0.000148843 5.52474e-06 2.16512e-05)
(-0.000146559 -3.66772e-06 2.41194e-05)
(-0.000136789 -7.45899e-06 2.3285e-05)
(-0.000117725 -2.63258e-06 2.40386e-05)
(-9.03061e-05 -1.66533e-05 6.30447e-05)
(-8.74702e-05 -2.26767e-05 7.91499e-05)
(-4.41279e-05 -3.22171e-05 3.66911e-05)
(-0.000143356 -1.83743e-05 2.18944e-05)
(-0.000183454 1.79489e-05 2.69203e-05)
(-0.000151683 1.22284e-05 2.52586e-05)
(-0.000143236 -3.83084e-06 2.49126e-05)
(-0.000156249 1.26312e-07 3.14182e-05)
(-0.000132958 8.05384e-07 3.15148e-05)
(-0.000109811 -5.04518e-06 3.52168e-05)
(-8.33247e-05 -2.62051e-05 4.12774e-05)
(-1.8537e-05 -7.89609e-05 4.97435e-05)
(-0.000117949 -6.88612e-06 1.76096e-05)
(-0.000158944 6.49309e-06 3.70588e-05)
(-0.000153052 -3.9477e-06 4.02729e-05)
(-0.000135117 -1.86654e-07 2.90016e-05)
(-0.000186065 1.89514e-05 3.8212e-05)
(-0.000140591 4.87624e-06 3.10943e-05)
(-6.47234e-05 4.90847e-05 1.2837e-05)
(-4.20853e-05 -2.0315e-06 2.06049e-05)
(-1.324e-05 -6.04126e-06 8.12412e-07)
(-0.000146007 -2.41222e-07 1.74546e-05)
(-0.00014948 2.91813e-06 1.78311e-05)
(-0.00015411 4.34158e-07 1.85408e-05)
(-0.000142835 -1.90269e-07 1.84791e-05)
(-0.000125319 -1.07312e-05 1.74979e-05)
(-0.000108149 -1.54364e-05 1.41967e-05)
(-9.43198e-05 -2.34495e-05 2.84217e-05)
(-5.01809e-05 -2.87766e-05 5.00003e-05)
(-7.93956e-06 -2.43368e-05 4.24583e-05)
(-0.000143448 -1.17561e-06 1.98903e-05)
(-0.000149494 2.82114e-06 2.06209e-05)
(-0.000149502 2.89839e-06 2.07971e-05)
(-0.000141696 -1.17878e-06 2.18149e-05)
(-0.00012765 -9.58667e-06 2.28469e-05)
(-0.000108055 -1.01135e-05 1.96972e-05)
(-9.76759e-05 -2.15139e-05 3.34856e-05)
(-6.46983e-05 -1.34926e-05 7.64444e-05)
(-1.00856e-05 -1.44453e-05 4.40845e-05)
(-0.000142587 -8.58956e-06 2.0037e-05)
(-0.000150571 -2.09248e-06 2.52389e-05)
(-0.000148205 2.66247e-06 2.35167e-05)
(-0.000138801 -3.42407e-06 2.43221e-05)
(-0.000125235 -7.8992e-06 2.30956e-05)
(-0.000117623 -9.41452e-06 1.99621e-05)
(-9.68672e-05 -1.51597e-06 1.94905e-05)
(-5.30553e-05 4.36087e-06 2.5018e-05)
(-1.70018e-05 -6.68161e-06 1.3385e-05)
(-0.000120231 -8.14947e-06 1.63773e-05)
(-0.000155082 -1.62225e-06 2.79627e-05)
(-0.000126085 -2.40955e-06 2.7989e-05)
(-0.000129064 -3.66736e-06 2.93797e-05)
(-0.000121303 -2.28261e-06 3.07661e-05)
(-0.000106632 -8.09568e-06 2.15908e-05)
(-9.18667e-05 -1.26882e-06 -3.09805e-06)
(-5.78909e-05 2.09234e-06 4.42558e-06)
(-1.33938e-05 -4.2764e-06 -3.76277e-06)
(-0.00013908 3.25209e-06 1.77419e-05)
(-0.000144808 2.67614e-06 2.09419e-05)
(-0.000145078 3.46167e-06 2.22492e-05)
(-0.000122663 5.79169e-06 2.22508e-05)
(-0.000101158 -6.43368e-06 1.65391e-05)
(-8.05207e-05 -1.08944e-05 1.49639e-05)
(-7.02532e-05 -1.67737e-05 1.22169e-05)
(-3.45146e-05 -3.94529e-06 8.16702e-07)
(-1.42545e-05 -6.96967e-06 1.93911e-05)
(-0.000142531 1.02377e-06 1.90274e-05)
(-0.000143929 9.14169e-07 2.27792e-05)
(-0.00013467 3.25436e-06 2.49702e-05)
(-0.000124878 3.6648e-06 2.37299e-05)
(-0.000102721 -4.1433e-06 2.01211e-05)
(-8.51345e-05 -1.4014e-05 1.49491e-05)
(-7.00922e-05 -6.4578e-06 9.14951e-06)
(-4.78724e-05 2.4863e-07 2.8383e-06)
(-1.39481e-05 -9.40696e-06 1.22228e-06)
(-0.000144974 -1.01133e-06 2.17496e-05)
(-0.000145084 -3.61084e-06 2.60433e-05)
(-0.000134307 -2.21776e-07 2.58524e-05)
(-0.000119167 -1.90045e-07 3.03e-05)
(-0.00010533 -9.18976e-06 2.21494e-05)
(-9.0465e-05 -1.03478e-05 1.35895e-05)
(-8.67611e-05 -4.64296e-06 1.38387e-05)
(-4.09331e-05 8.20333e-06 5.87736e-06)
(-5.88507e-06 5.75066e-07 4.5257e-06)
(-0.000126702 4.23536e-06 1.52864e-05)
(-0.000132936 1.94733e-06 2.77548e-05)
(-0.000129708 -1.69009e-06 2.68167e-05)
(-8.67641e-05 -1.29769e-06 2.56291e-05)
(-0.000101076 -1.94013e-05 3.10827e-05)
(-8.66611e-05 -6.43836e-07 1.84654e-05)
(-6.96011e-05 -3.09629e-07 4.70072e-06)
(-3.9471e-05 -4.90453e-06 -3.04245e-06)
(-2.13892e-06 5.81361e-08 -6.04447e-06)
)
;

boundaryField
{
    inlet
    {
        type            calculated;
        value           nonuniform 0();
    }
    outlet
    {
        type            calculated;
        value           uniform (0 0 0);
    }
    wall
    {
        type            calculated;
        value           uniform (0 0 0);
    }
    procBoundary3to1
    {
        type            processor;
        value           uniform (0 0 0);
    }
    procBoundary3to2
    {
        type            processor;
        value           uniform (0 0 0);
    }
    procBoundary3to7
    {
        type            processor;
        value           uniform (0 0 0);
    }
}


// ************************************************************************* //
