/*--------------------------------*- C++ -*----------------------------------*\
| =========                 |                                                 |
| \\      /  F ield         | OpenFOAM: The Open Source CFD Toolbox           |
|  \\    /   O peration     | Version:  4.x                                   |
|   \\  /    A nd           | Web:      www.OpenFOAM.org                      |
|    \\/     M anipulation  |                                                 |
\*---------------------------------------------------------------------------*/
FoamFile
{
    version     2.0;
    format      ascii;
    class       volScalarField;
    location    "43";
    object      Deff;
}
// * * * * * * * * * * * * * * * * * * * * * * * * * * * * * * * * * * * * * //

dimensions      [0 2 -1 0 0 0 0];

internalField   nonuniform List<scalar> 
114
(
9.91099e-08
9.90919e-08
9.91798e-08
9.90396e-08
9.91037e-08
9.89757e-08
9.93121e-08
9.91782e-08
9.91828e-08
9.91611e-08
9.90268e-08
9.90695e-08
9.8922e-08
9.89146e-08
9.89655e-08
9.94066e-08
9.92306e-08
9.92043e-08
9.91643e-08
9.91607e-08
9.91394e-08
9.90489e-08
9.90315e-08
9.8963e-08
9.94629e-08
9.93829e-08
9.92865e-08
9.92717e-08
9.93356e-08
9.93166e-08
9.93136e-08
9.91646e-08
9.9175e-08
9.85267e-08
9.84231e-08
9.86001e-08
9.84577e-08
9.90289e-08
9.88815e-08
9.87551e-08
9.86796e-08
9.86312e-08
9.86046e-08
9.84289e-08
9.85094e-08
9.85888e-08
9.90572e-08
9.88334e-08
9.87222e-08
9.86874e-08
9.86791e-08
9.86632e-08
9.86006e-08
9.85808e-08
9.859e-08
9.91384e-08
9.90397e-08
9.88706e-08
9.88609e-08
9.88301e-08
9.88373e-08
9.87946e-08
9.87522e-08
9.87831e-08
9.8259e-08
9.82146e-08
9.87223e-08
9.86999e-08
9.85584e-08
9.84407e-08
9.8405e-08
9.82973e-08
9.81806e-08
9.82612e-08
9.83029e-08
9.88441e-08
9.86841e-08
9.85045e-08
9.83565e-08
9.83967e-08
9.83758e-08
9.82684e-08
9.82836e-08
9.82306e-08
9.89175e-08
9.87006e-08
9.86238e-08
9.85234e-08
9.86017e-08
9.84805e-08
9.83661e-08
9.84855e-08
9.83798e-08
9.86015e-08
9.83818e-08
9.8241e-08
9.82165e-08
9.81697e-08
9.81455e-08
9.80843e-08
9.80602e-08
9.85972e-08
9.84439e-08
9.82759e-08
9.82639e-08
9.81921e-08
9.815e-08
9.80694e-08
9.87513e-08
9.85472e-08
9.84385e-08
9.83204e-08
9.83344e-08
9.82504e-08
)
;

boundaryField
{
    inlet
    {
        type            calculated;
        value           uniform 0;
    }
    outlet
    {
        type            calculated;
        value           nonuniform 0();
    }
    wall
    {
        type            calculated;
        value           uniform 0;
    }
    procBoundary2to0
    {
        type            processor;
        value           uniform 0;
    }
    procBoundary2to3
    {
        type            processor;
        value           uniform 0;
    }
    procBoundary2to6
    {
        type            processor;
        value           uniform 0;
    }
}


// ************************************************************************* //
