/*--------------------------------*- C++ -*----------------------------------*\
| =========                 |                                                 |
| \\      /  F ield         | OpenFOAM: The Open Source CFD Toolbox           |
|  \\    /   O peration     | Version:  4.x                                   |
|   \\  /    A nd           | Web:      www.OpenFOAM.org                      |
|    \\/     M anipulation  |                                                 |
\*---------------------------------------------------------------------------*/
FoamFile
{
    version     2.0;
    format      ascii;
    class       volVectorField;
    location    "43";
    object      Urel;
}
// * * * * * * * * * * * * * * * * * * * * * * * * * * * * * * * * * * * * * //

dimensions      [0 1 -1 0 0 0 0];

internalField   nonuniform List<vector> 
114
(
(-0.0218844 0.000100193 0.00107469)
(-0.0232857 9.86324e-05 0.001036)
(-0.0222967 8.83314e-05 0.00086587)
(-0.0237089 9.07689e-05 0.000791621)
(-0.0226999 7.08505e-05 0.000631579)
(-0.0241072 6.81593e-05 0.000561268)
(-0.0236614 -0.000117153 0.00128202)
(-0.0218163 -0.000109939 0.00118516)
(-0.0229954 -0.000123808 0.00119316)
(-0.0218232 -0.000111253 0.00104137)
(-0.0232369 -0.000101568 0.000994755)
(-0.0221912 -6.41115e-05 0.000830021)
(-0.0236282 -4.20222e-05 0.00075939)
(-0.0225387 -7.04431e-06 0.000598476)
(-0.0239702 2.36503e-07 0.000528516)
(-0.023784 -0.000360484 0.0012482)
(-0.0220393 -0.000318411 0.00115663)
(-0.0232922 -0.000346269 0.00115777)
(-0.0222789 -0.000301735 0.00101418)
(-0.0237427 -0.000303235 0.000959112)
(-0.022879 -0.000229711 0.000804963)
(-0.0243373 -0.000209121 0.000729831)
(-0.023444 -0.000129018 0.000585671)
(-0.0248791 -0.000114607 0.000515405)
(-0.0239141 -0.000397405 0.00121033)
(-0.0223086 -0.000361224 0.00113035)
(-0.0236338 -0.000368738 0.00112404)
(-0.0228297 -0.000324286 0.000999567)
(-0.0243482 -0.000306149 0.000940369)
(-0.023719 -0.000231761 0.000802424)
(-0.0251935 -0.000188352 0.000723131)
(-0.0245422 -9.43161e-05 0.000591986)
(-0.0259318 -4.70278e-05 0.000524779)
(-0.0205521 6.66233e-05 0.00079814)
(-0.0220979 6.58301e-05 0.000727351)
(-0.0205009 4.97517e-05 0.000570421)
(-0.0221815 3.99784e-05 0.000494889)
(-0.0234225 -0.000156348 0.00134084)
(-0.0213477 -0.000133469 0.00120213)
(-0.0223798 -0.00015264 0.00122407)
(-0.020767 -0.000132799 0.00102784)
(-0.0221491 -0.000137598 0.00098437)
(-0.0205905 -8.82216e-05 0.000796124)
(-0.0221511 -7.24096e-05 0.000722263)
(-0.0204955 -3.36257e-05 0.00056802)
(-0.0221947 -2.76455e-05 0.000479579)
(-0.0235648 -0.000401066 0.00131447)
(-0.0216076 -0.000349651 0.00118967)
(-0.0227139 -0.000387973 0.00121362)
(-0.0213036 -0.000321829 0.00103367)
(-0.0227228 -0.00033714 0.000993606)
(-0.0214157 -0.000244273 0.000820957)
(-0.0229419 -0.000238132 0.000759047)
(-0.0215757 -0.000139478 0.000615687)
(-0.0231879 -0.000129121 0.000547103)
(-0.0237188 -0.000439246 0.00128096)
(-0.0219423 -0.000395591 0.00117384)
(-0.0231299 -0.000410578 0.0011883)
(-0.0220241 -0.000350247 0.00104301)
(-0.0234551 -0.00033732 0.000994463)
(-0.0225019 -0.000251423 0.00085484)
(-0.0239472 -0.000214762 0.000777553)
(-0.0229709 -0.000114964 0.000659929)
(-0.0244031 -6.67873e-05 0.000590899)
(-0.0188945 7.07521e-05 0.000475913)
(-0.0206397 6.37083e-05 0.000400909)
(-0.0231535 -0.000183785 0.00119515)
(-0.0209246 -0.00015311 0.00106216)
(-0.0217833 -0.000164071 0.00105946)
(-0.0198805 -0.000131012 0.000874966)
(-0.0211701 -0.000122464 0.00081828)
(-0.0193008 -7.73505e-05 0.000651432)
(-0.0208668 -4.49389e-05 0.000573899)
(-0.0189165 -2.67613e-05 0.00045291)
(-0.020688 -4.5315e-08 0.000370711)
(-0.0233201 -0.000433678 0.00116493)
(-0.0212094 -0.000373051 0.00104637)
(-0.0221568 -0.000409334 0.00104671)
(-0.0204506 -0.000329594 0.000888338)
(-0.021773 -0.000337681 0.000835461)
(-0.0201334 -0.000239096 0.000684305)
(-0.0216546 -0.000222162 0.000611859)
(-0.0199368 -0.000133284 0.000502142)
(-0.0216313 -9.33005e-05 0.000431549)
(-0.0234985 -0.000476543 0.00114242)
(-0.0215782 -0.000429717 0.00104388)
(-0.0226173 -0.000450202 0.00104784)
(-0.0212528 -0.000377339 0.000921313)
(-0.0225635 -0.00036538 0.000866726)
(-0.0213418 -0.000269599 0.000738836)
(-0.0227128 -0.000240476 0.00066207)
(-0.0214645 -0.000140526 0.000579272)
(-0.0228781 -8.66096e-05 0.000509943)
(-0.0229764 -0.000217467 0.000907154)
(-0.0206481 -0.000191665 0.000794052)
(-0.021427 -0.000216919 0.000783635)
(-0.0193548 -0.000163458 0.000646735)
(-0.0206046 -0.000169475 0.000592688)
(-0.0185949 -0.000110591 0.000469888)
(-0.020152 -9.78904e-05 0.000396833)
(-0.0181233 -5.28557e-05 0.000325319)
(-0.0231637 -0.000483384 0.00088371)
(-0.0209992 -0.000413331 0.000790487)
(-0.0218558 -0.00044894 0.000785158)
(-0.0200562 -0.000350989 0.00067613)
(-0.0212943 -0.000361596 0.000633145)
(-0.0195887 -0.000258971 0.000522387)
(-0.021044 -0.000246294 0.000466249)
(-0.0233669 -0.000513885 0.000868984)
(-0.0214039 -0.000456156 0.000797666)
(-0.022349 -0.000466967 0.000799803)
(-0.0208805 -0.000385699 0.000719254)
(-0.0220963 -0.000367603 0.00067764)
(-0.0207639 -0.000276438 0.000578633)
)
;

boundaryField
{
    inlet
    {
        type            calculated;
        value           nonuniform List<vector> 
12
(
(-0.01 1.87984e-10 2.01395e-10)
(-0.01 1.70148e-11 1.60332e-10)
(-0.01 -7.65242e-11 1.43009e-10)
(-0.01 -7.59105e-11 6.96313e-11)
(-0.01 -4.13512e-11 5.18833e-11)
(-0.01 -6.48576e-11 3.63701e-11)
(-0.01 -1.71665e-10 1.91592e-10)
(-0.01 -3.80914e-11 1.02626e-10)
(-0.01 -1.14225e-10 9.93182e-11)
(-0.01 -7.77927e-11 1.24066e-10)
(-0.01 1.0926e-11 4.1912e-11)
(-0.01 -1.13719e-10 9.57203e-11)
)
;
    }
    outlet
    {
        type            calculated;
        value           nonuniform 0();
    }
    wall
    {
        type            calculated;
        value           nonuniform List<vector> 
66
(
(-7.07188e-10 1.87984e-10 2.01395e-10)
(8.38689e-13 1.70148e-11 1.60332e-10)
(-3.62138e-10 -7.65242e-11 1.43009e-10)
(2.86023e-10 -1.92331e-10 4.31151e-10)
(3.73217e-10 -1.48758e-10 3.82158e-10)
(2.33684e-10 -1.0662e-10 3.14798e-10)
(2.22656e-10 -2.87486e-10 6.28576e-10)
(2.49711e-10 -1.20861e-10 6.20942e-10)
(1.08462e-10 -1.00843e-10 5.85005e-10)
(5.75304e-10 -1.34864e-10 6.60595e-10)
(2.40609e-10 -3.72773e-10 7.42175e-10)
(4.87684e-10 -3.0093e-10 7.24836e-10)
(8.02279e-10 -1.58401e-09 2.89604e-10)
(5.55358e-10 -1.18867e-10 9.60267e-10)
(2.93205e-10 -7.19519e-10 7.73388e-10)
(4.53844e-10 -5.74413e-10 7.69203e-10)
(2.51048e-10 -7.74014e-10 2.53799e-10)
(1.12857e-09 -5.69825e-10 1.14613e-09)
(9.56007e-10 -9.41212e-10 7.85886e-10)
(1.05969e-09 -8.24629e-10 4.78994e-10)
(7.92054e-10 -3.83133e-10 8.08491e-11)
(1.51216e-09 -6.299e-10 1.45314e-09)
(1.45643e-09 -1.59133e-09 1.04059e-09)
(1.14842e-09 -8.46592e-10 9.27108e-10)
(1.07731e-09 -7.03345e-10 6.3047e-10)
(2.87752e-09 -1.64541e-09 2.18259e-09)
(1.97408e-09 -2.01155e-09 1.34285e-09)
(2.22935e-09 -1.86995e-09 1.13784e-09)
(1.56877e-09 -1.56516e-09 1.18883e-09)
(3.41523e-09 -2.61007e-09 2.34513e-09)
(2.37936e-09 -2.12466e-09 1.58322e-09)
(1.91497e-09 -1.56795e-09 1.38469e-09)
(1.7133e-09 -1.2647e-09 8.72479e-10)
(-3.62138e-10 -7.65242e-11 1.43009e-10)
(-3.87951e-11 -6.48576e-11 3.63701e-11)
(-3.38411e-11 -1.14225e-10 9.93182e-11)
(7.10516e-12 -1.13719e-10 9.57203e-11)
(2.33684e-10 -1.0662e-10 3.14798e-10)
(6.93334e-11 -1.14336e-10 2.04864e-10)
(3.99964e-11 -8.53353e-11 2.21063e-10)
(9.0187e-11 -7.78437e-11 1.80361e-10)
(1.08462e-10 -1.00843e-10 5.85005e-10)
(5.21946e-11 -1.93289e-10 1.77748e-10)
(-1.03276e-10 -1.72261e-10 1.87049e-10)
(3.73898e-11 -6.56592e-11 2.75692e-10)
(8.02279e-10 -1.58401e-09 2.89604e-10)
(2.21659e-10 -1.5433e-10 1.53252e-10)
(-2.05813e-11 -1.88407e-10 3.06743e-10)
(1.31639e-10 -1.51878e-10 1.90442e-10)
(2.51048e-10 -7.74014e-10 2.53799e-10)
(3.55844e-10 -3.02977e-10 -3.30076e-11)
(2.16341e-10 -2.24048e-10 2.64758e-10)
(3.87366e-10 -1.99072e-10 2.72523e-10)
(7.92054e-10 -3.83133e-10 8.08491e-11)
(4.23809e-10 -3.82812e-10 8.07484e-11)
(2.71011e-10 -2.59032e-10 2.4502e-10)
(4.46829e-10 -1.96167e-10 1.55817e-10)
(1.07731e-09 -7.03345e-10 6.3047e-10)
(6.46081e-10 -5.48575e-10 3.93115e-10)
(3.94924e-10 -3.19899e-10 2.98039e-10)
(1.56877e-09 -1.56516e-09 1.18883e-09)
(8.60547e-10 -4.66629e-10 2.01005e-10)
(6.21927e-10 -4.69487e-10 4.99222e-10)
(1.7133e-09 -1.2647e-09 8.72479e-10)
(7.86757e-10 -5.1183e-10 4.32404e-10)
(1.06982e-09 -4.28034e-10 4.50379e-10)
)
;
    }
    procBoundary2to0
    {
        type            processor;
        value           nonuniform List<vector> 
44
(
(-0.0220507 0.000281 0.00109021)
(-0.0234878 0.000260724 0.00105284)
(-0.0225389 0.000207049 0.000892299)
(-0.0239669 0.000192634 0.000832052)
(-0.0229759 0.000143656 0.00067814)
(-0.0243678 0.000121674 0.000624125)
(-0.0236586 0.000144958 0.00133004)
(-0.0218345 0.00011918 0.00121421)
(-0.0230137 0.000120694 0.00122301)
(-0.0230137 0.000120694 0.00122301)
(-0.0207315 8.23571e-05 0.00104211)
(-0.0220954 7.64554e-05 0.000999556)
(-0.020814 0.000198589 0.000801673)
(-0.022365 0.000178333 0.000727928)
(-0.0207673 0.000125183 0.000579067)
(-0.0224448 0.000100114 0.000503736)
(-0.0233846 0.000122849 0.00138296)
(-0.0213078 0.000106738 0.00122848)
(-0.0223293 0.000106226 0.00125015)
(-0.0207315 8.23571e-05 0.00104211)
(-0.0220954 7.64554e-05 0.000999556)
(-0.0220954 7.64554e-05 0.000999556)
(-0.0191862 8.23367e-05 0.000663976)
(-0.020778 9.29754e-05 0.000594735)
(-0.0192802 0.00013833 0.000497827)
(-0.0209895 0.000116769 0.00040275)
(-0.0230984 0.000124253 0.00121357)
(-0.02084 0.000107775 0.00108452)
(-0.0216977 0.000112608 0.00108886)
(-0.0197558 9.01734e-05 0.000887305)
(-0.0210669 9.57661e-05 0.000833729)
(-0.0191862 8.23367e-05 0.000663976)
(-0.020778 9.29754e-05 0.000594735)
(-0.020778 9.29754e-05 0.000594735)
(-0.0178875 4.10523e-05 0.000320533)
(-0.0196606 3.97037e-05 0.000257264)
(-0.0229252 0.000111884 0.00089911)
(-0.0205738 8.84366e-05 0.000803107)
(-0.0213244 7.71099e-05 0.000789675)
(-0.0191865 6.2751e-05 0.000646392)
(-0.0204381 5.10863e-05 0.00060187)
(-0.0183624 4.95657e-05 0.000470712)
(-0.0199532 5.18321e-05 0.000421555)
(-0.0178875 4.10523e-05 0.000320533)
)
;
    }
    procBoundary2to3
    {
        type            processor;
        value           nonuniform List<vector> 
12
(
(-0.0230285 6.25069e-05 0.000445603)
(-0.0227917 2.74119e-05 0.000404756)
(-0.0239201 -6.39079e-05 0.00039782)
(-0.0252112 5.0251e-05 0.000420906)
(-0.0205126 2.98724e-05 0.000401074)
(-0.020454 -4.45464e-06 0.000383616)
(-0.021754 -6.00856e-05 0.00045588)
(-0.0233684 3.4683e-05 0.000519983)
(-0.0187292 5.08716e-05 0.000335472)
(-0.0187308 3.5021e-06 0.000300566)
(-0.0198492 -4.02676e-05 0.000372479)
(-0.0215763 5.91156e-07 0.000474693)
)
;
    }
    procBoundary2to6
    {
        type            processor;
        value           nonuniform List<vector> 
32
(
(-0.0198987 -4.28031e-05 0.000264939)
(-0.0193312 -0.000152801 0.000401808)
(-0.020942 -0.000114774 0.000351222)
(-0.0220709 -0.000235809 0.000522694)
(-0.0207448 -0.000132475 0.000481735)
(-0.0221023 -6.98755e-05 0.000437097)
(-0.0229198 -0.000211437 0.000486493)
(-0.0205653 -0.000187715 0.000433655)
(-0.0212936 -0.000195371 0.000408312)
(-0.0191609 -0.000147218 0.000349509)
(-0.0204087 -0.000134984 0.000306387)
(-0.0183127 -8.8647e-05 0.000252052)
(-0.0198927 -5.77556e-05 0.000216128)
(-0.0198987 -4.28031e-05 0.000264939)
(-0.0193312 -0.000152801 0.000401808)
(-0.0178494 -2.56942e-05 0.000179054)
(-0.0231224 -0.000500642 0.000484544)
(-0.0209178 -0.000415495 0.000446904)
(-0.0217433 -0.000444593 0.00042936)
(-0.0198552 -0.00033877 0.000386877)
(-0.0210925 -0.000328675 0.000351184)
(-0.0192391 -0.000233737 0.000305897)
(-0.0193312 -0.000152801 0.000401808)
(-0.0220709 -0.000235809 0.000522694)
(-0.0207145 -0.000193218 0.000277387)
(-0.0233389 -0.000532717 0.000494279)
(-0.0213589 -0.000467673 0.000465117)
(-0.0222641 -0.000478363 0.000457187)
(-0.0207475 -0.000386465 0.00042923)
(-0.0219144 -0.000365589 0.000396699)
(-0.0220709 -0.000235809 0.000522694)
(-0.0204735 -0.000276023 0.00036233)
)
;
    }
}


// ************************************************************************* //
