/*--------------------------------*- C++ -*----------------------------------*\
| =========                 |                                                 |
| \\      /  F ield         | OpenFOAM: The Open Source CFD Toolbox           |
|  \\    /   O peration     | Version:  4.x                                   |
|   \\  /    A nd           | Web:      www.OpenFOAM.org                      |
|    \\/     M anipulation  |                                                 |
\*---------------------------------------------------------------------------*/
FoamFile
{
    version     2.0;
    format      ascii;
    class       volVectorField;
    location    "43";
    object      UsPrev;
}
// * * * * * * * * * * * * * * * * * * * * * * * * * * * * * * * * * * * * * //

dimensions      [0 1 -1 0 0 0 0];

internalField   nonuniform List<vector> 
114
(
(2.64688e-10 1.33205e-11 7.76297e-10)
(3.06872e-10 1.68204e-10 1.08087e-09)
(9.32462e-10 -3.23389e-10 1.26572e-09)
(1.32846e-09 -4.39597e-10 1.57319e-09)
(2.63889e-09 -1.54578e-09 2.39412e-09)
(3.1606e-09 -2.58355e-09 2.58775e-09)
(-3.52976e-11 -2.19841e-10 2.44165e-10)
(2.46006e-10 -2.92007e-10 4.84125e-10)
(1.61216e-10 -3.2018e-10 7.34017e-10)
(1.57403e-10 -2.99457e-10 8.49735e-10)
(2.46869e-10 -6.2645e-10 8.92744e-10)
(8.92784e-10 -7.97135e-10 8.82144e-10)
(1.40231e-09 -1.42209e-09 1.16958e-09)
(1.94985e-09 -1.75656e-09 1.5209e-09)
(2.29149e-09 -2.11427e-09 1.81625e-09)
(5.49397e-11 -4.1982e-11 2.23859e-10)
(3.18755e-10 -1.83817e-10 4.26735e-10)
(2.3259e-10 -1.28388e-10 7.37562e-10)
(4.25531e-10 -3.12767e-10 8.06026e-10)
(4.08415e-10 -5.76028e-10 8.60013e-10)
(9.43939e-10 -7.72629e-10 5.77241e-10)
(1.19294e-09 -7.7153e-10 1.01051e-09)
(1.8972e-09 -1.60692e-09 1.20248e-09)
(1.711e-09 -1.60063e-09 1.5044e-09)
(-1.29712e-10 -8.70984e-11 1.91549e-10)
(1.76091e-10 -1.04684e-10 3.5253e-10)
(9.26835e-11 -8.86532e-11 7.14618e-10)
(4.53834e-10 -1.14087e-09 3.5502e-10)
(2.60911e-10 -7.61272e-10 2.59899e-10)
(7.20932e-10 -3.62279e-10 9.40525e-11)
(9.63128e-10 -6.96497e-10 6.4059e-10)
(1.3464e-09 -1.52836e-09 1.1669e-09)
(1.35001e-09 -1.2282e-09 9.53414e-10)
(8.16802e-10 -5.91027e-11 1.33147e-09)
(1.21026e-09 -2.39539e-10 1.72003e-09)
(2.19844e-09 -8.64392e-10 2.10532e-09)
(2.86099e-09 -1.46039e-09 2.43073e-09)
(-4.28931e-13 -1.95442e-10 1.19093e-10)
(6.60859e-11 -3.04178e-10 3.94287e-10)
(2.51334e-11 -2.23343e-10 6.80757e-10)
(4.3211e-11 -1.94586e-10 8.14728e-10)
(3.7668e-11 -3.90505e-10 9.22682e-10)
(5.65587e-10 -4.94684e-10 8.03173e-10)
(1.13024e-09 -6.42457e-10 1.08346e-09)
(1.78091e-09 -9.40613e-10 1.27957e-09)
(2.6789e-09 -1.40362e-09 1.52439e-09)
(-3.40864e-12 -8.24022e-11 1.10199e-10)
(1.01993e-10 -1.12766e-10 2.66792e-10)
(5.33495e-11 -1.896e-10 5.61249e-10)
(1.14102e-10 -1.85724e-10 6.33632e-10)
(2.18241e-10 -3.61017e-10 4.9578e-10)
(5.40076e-10 -5.02377e-10 4.33883e-10)
(8.65554e-10 -6.87032e-10 6.91154e-10)
(1.28389e-09 -8.76625e-10 8.69955e-10)
(1.71449e-09 -1.14603e-09 9.64807e-10)
(-1.44494e-11 -6.45067e-11 6.69245e-11)
(5.35555e-11 -1.07577e-10 2.22773e-10)
(3.37829e-11 -1.7626e-10 1.99912e-10)
(1.96815e-10 -1.21116e-10 1.75513e-10)
(3.27214e-10 -2.68916e-10 -5.64045e-11)
(3.63631e-10 -3.52618e-10 1.18814e-10)
(5.60208e-10 -4.89017e-10 3.84544e-10)
(7.03124e-10 -4.54087e-10 2.25384e-10)
(5.60596e-10 -4.94355e-10 4.36634e-10)
(2.61158e-09 -1.44262e-11 1.93158e-09)
(2.9793e-09 -2.92363e-10 2.14989e-09)
(1.11357e-11 -2.36272e-10 2.07981e-10)
(-4.51052e-13 -3.01137e-10 4.63097e-10)
(6.09944e-11 -2.12127e-10 6.98176e-10)
(2.40476e-10 -2.38963e-10 9.92006e-10)
(2.41835e-10 -3.48018e-10 1.13091e-09)
(8.37052e-10 -2.08254e-10 1.02729e-09)
(1.19573e-09 -3.93662e-10 1.0975e-09)
(1.91976e-09 -3.38881e-10 1.24087e-09)
(2.307e-09 -6.43486e-10 1.19403e-09)
(-6.94073e-12 -8.10089e-11 1.32702e-10)
(2.34343e-11 -1.09984e-10 4.61975e-10)
(-1.23946e-10 -1.11181e-10 6.93021e-10)
(-1.25903e-11 -4.08677e-11 7.91256e-10)
(9.80022e-11 -2.49446e-10 7.47169e-10)
(4.398e-10 -3.1785e-10 5.86436e-10)
(6.01195e-10 -6.51691e-10 7.28539e-10)
(1.32035e-09 -4.55886e-10 1.02305e-09)
(1.82947e-09 -8.50081e-10 7.13627e-10)
(-1.52855e-11 -1.14953e-10 1.26241e-10)
(8.83103e-12 -8.2247e-11 2.48129e-10)
(-1.38638e-10 -1.53015e-10 2.13182e-10)
(-9.35166e-11 -1.76278e-10 3.46103e-10)
(2.13703e-10 -2.06982e-10 2.94382e-10)
(2.19996e-10 -2.32122e-10 2.90544e-10)
(3.38706e-10 -2.575e-10 3.55623e-10)
(4.79197e-10 -4.25194e-10 5.45068e-10)
(9.06244e-10 -4.2613e-10 5.3178e-10)
(5.01964e-11 -1.12976e-10 1.2721e-10)
(2.58509e-10 -2.13597e-10 3.09139e-10)
(4.4175e-10 -2.85621e-10 6.04316e-10)
(7.25972e-10 -1.35436e-10 6.6702e-10)
(1.04473e-09 2.27088e-11 9.70161e-10)
(1.80725e-09 -1.09966e-11 6.21753e-10)
(2.32134e-09 2.97829e-11 9.17736e-10)
(3.12373e-09 -1.18929e-10 6.98369e-10)
(2.57173e-12 -1.51611e-11 6.36798e-11)
(2.514e-10 -1.80301e-10 3.25973e-10)
(2.51593e-10 -1.092e-10 4.50277e-10)
(5.072e-10 -9.64262e-11 5.21865e-10)
(6.97081e-10 -1.72895e-10 5.8753e-10)
(1.0541e-09 -1.04379e-10 5.70834e-10)
(1.31822e-09 -2.37671e-10 6.30427e-10)
(1.31461e-11 -1.10054e-10 1.02988e-10)
(6.25754e-11 -7.39938e-11 1.9855e-10)
(6.39351e-12 -4.67867e-11 3.09734e-10)
(9.48904e-11 -1.44614e-10 2.18254e-10)
(3.70625e-10 -1.68494e-10 3.19149e-10)
(4.21138e-10 -1.68184e-10 1.97782e-10)
)
;

boundaryField
{
    inlet
    {
        type            calculated;
        value           uniform (0 0 0);
    }
    outlet
    {
        type            calculated;
        value           nonuniform 0();
    }
    wall
    {
        type            calculated;
        value           uniform (0 0 0);
    }
    procBoundary2to0
    {
        type            processor;
        value           uniform (0 0 0);
    }
    procBoundary2to3
    {
        type            processor;
        value           uniform (0 0 0);
    }
    procBoundary2to6
    {
        type            processor;
        value           uniform (0 0 0);
    }
}


// ************************************************************************* //
