/*--------------------------------*- C++ -*----------------------------------*\
| =========                 |                                                 |
| \\      /  F ield         | OpenFOAM: The Open Source CFD Toolbox           |
|  \\    /   O peration     | Version:  4.x                                   |
|   \\  /    A nd           | Web:      www.OpenFOAM.org                      |
|    \\/     M anipulation  |                                                 |
\*---------------------------------------------------------------------------*/
FoamFile
{
    version     2.0;
    format      ascii;
    class       volVectorField;
    location    "59";
    object      impParticleForces;
}
// * * * * * * * * * * * * * * * * * * * * * * * * * * * * * * * * * * * * * //

dimensions      [1 1 -2 0 0 0 0];

internalField   nonuniform List<vector> 
87
(
(0.00241779 -7.55695e-06 -4.27209e-05)
(0.00246075 -4.40727e-06 -3.8419e-05)
(0.00246439 -1.88606e-06 -3.45507e-05)
(0.00250939 1.67529e-07 -3.25289e-05)
(0.0024652 5.83329e-07 -3.16457e-05)
(0.00246552 -3.26824e-07 -3.19663e-05)
(0.0024546 -2.63073e-06 -3.81237e-05)
(0.00243948 -7.02724e-06 -4.15394e-05)
(0.00231536 -1.65436e-05 -5.7971e-05)
(0.00246758 -7.89189e-06 -4.34023e-05)
(0.00249426 -5.13624e-06 -3.83259e-05)
(0.00250329 -3.08834e-06 -3.44357e-05)
(0.00253556 -1.08552e-06 -3.13017e-05)
(0.00250017 -1.37432e-06 -3.00915e-05)
(0.00251206 -1.19853e-06 -2.97137e-05)
(0.00248631 -4.83418e-06 -3.61684e-05)
(0.00248728 -4.78507e-06 -3.976e-05)
(0.00233616 -2.07541e-05 -6.33399e-05)
(0.00247589 -5.89449e-06 -4.24847e-05)
(0.00251259 -3.61936e-06 -3.72017e-05)
(0.00249838 -2.05643e-06 -3.22351e-05)
(0.00253288 -9.22992e-07 -2.84699e-05)
(0.00249108 -1.20885e-06 -2.67243e-05)
(0.00249969 -1.64979e-06 -2.65028e-05)
(0.00245828 -4.32864e-06 -3.42891e-05)
(0.00245149 -5.14814e-06 -3.91046e-05)
(0.00232395 -1.31579e-05 -6.38643e-05)
(0.00245723 -7.57298e-06 -4.22211e-05)
(0.00247282 -4.28532e-06 -3.7016e-05)
(0.00247915 -1.30917e-06 -3.28227e-05)
(0.00251224 6.3223e-07 -2.97002e-05)
(0.0024769 1.2434e-06 -2.78611e-05)
(0.00248439 6.14707e-07 -2.73552e-05)
(0.00245919 -1.63028e-06 -3.14193e-05)
(0.00243185 -6.3229e-06 -3.43837e-05)
(0.00230426 -1.43016e-05 -4.98337e-05)
(0.00250531 -8.00929e-06 -4.25788e-05)
(0.0025139 -4.88265e-06 -3.66986e-05)
(0.00251076 -2.39178e-06 -3.20706e-05)
(0.00255604 -2.55163e-07 -2.86526e-05)
(0.0025246 8.94468e-08 -2.62599e-05)
(0.00252722 6.73693e-07 -2.46415e-05)
(0.00249683 -2.67338e-06 -2.96882e-05)
(0.00248678 -3.26351e-06 -3.36276e-05)
(0.00232624 -1.7136e-05 -5.48565e-05)
(0.00249597 -5.96577e-06 -4.12086e-05)
(0.0025271 -3.6197e-06 -3.51775e-05)
(0.00250489 -2.03877e-06 -3.02153e-05)
(0.00252853 -7.63893e-07 -2.59458e-05)
(0.00249083 -8.09363e-07 -2.34372e-05)
(0.00251274 -1.29579e-06 -2.24488e-05)
(0.00247496 -3.16327e-06 -2.7634e-05)
(0.00247236 -5.79437e-06 -3.30861e-05)
(0.00232824 -1.07676e-05 -5.82683e-05)
(0.00242798 -7.46587e-06 -3.85377e-05)
(0.00245795 -4.032e-06 -3.37944e-05)
(0.00245796 -1.12529e-06 -2.94853e-05)
(0.00248911 9.98945e-07 -2.58833e-05)
(0.00244064 7.16056e-07 -2.19876e-05)
(0.00244833 1.38927e-07 -1.98515e-05)
(0.00239951 -2.84831e-06 -2.11504e-05)
(0.0023781 -6.47381e-06 -1.84445e-05)
(0.00226178 -1.45707e-05 -2.88234e-05)
(0.00246317 -7.78041e-06 -3.84305e-05)
(0.00249389 -4.58095e-06 -3.32325e-05)
(0.00247225 -2.3462e-06 -2.8251e-05)
(0.00251077 -8.1483e-08 -2.39486e-05)
(0.00247461 -3.68283e-07 -2.11294e-05)
(0.00248489 2.15766e-07 -1.81646e-05)
(0.00242773 -3.44476e-06 -2.00494e-05)
(0.00241325 -4.44646e-06 -2.06607e-05)
(0.00228325 -1.60118e-05 -3.42077e-05)
(0.00245564 -6.11244e-06 -3.71046e-05)
(0.00248939 -3.80892e-06 -3.13097e-05)
(0.00246161 -2.17412e-06 -2.64858e-05)
(0.00250645 -5.29492e-07 -2.22484e-05)
(0.00246215 -7.49783e-07 -1.93864e-05)
(0.0024774 -5.15853e-07 -1.69234e-05)
(0.00241666 -2.33912e-06 -1.89015e-05)
(0.00239815 -2.76394e-06 -2.2039e-05)
(0.00228691 -1.05575e-05 -3.72161e-05)
(0.00239949 -8.12765e-06 -3.0979e-05)
(0.00240735 -4.73462e-06 -2.55699e-05)
(0.00240408 -2.11242e-06 -2.09683e-05)
(0.00243365 -7.81067e-06 -3.11824e-05)
(0.00246858 -4.33477e-06 -2.61994e-05)
(0.00241674 -6.03544e-06 -3.05616e-05)
)
;

boundaryField
{
    inlet
    {
        type            zeroGradient;
    }
    outlet
    {
        type            zeroGradient;
    }
    wall
    {
        type            zeroGradient;
    }
    procBoundary1to0
    {
        type            processor;
        value           nonuniform List<vector> 
12
(
(0.00243157 -1.10676e-05 -4.9117e-05)
(0.00247837 -1.11696e-05 -5.01194e-05)
(0.00249264 -8.27041e-06 -4.98051e-05)
(0.00246501 -1.14074e-05 -4.829e-05)
(0.00251266 -1.16428e-05 -4.91747e-05)
(0.00249714 -8.30747e-06 -4.79009e-05)
(0.00243825 -1.14953e-05 -4.41896e-05)
(0.00248668 -1.14923e-05 -4.50117e-05)
(0.00245598 -8.3909e-06 -4.30779e-05)
(0.002424 -1.18522e-05 -3.66624e-05)
(0.00245193 -1.11118e-05 -3.70035e-05)
(0.00243413 -8.25481e-06 -3.5978e-05)
)
;
    }
    procBoundary1to3
    {
        type            processor;
        value           nonuniform List<vector> 
27
(
(0.00249605 -3.8715e-06 -4.18755e-05)
(0.00248943 -2.44571e-06 -3.5564e-05)
(0.00249267 -1.67731e-06 -3.03873e-05)
(0.00248471 -9.35721e-07 -2.60822e-05)
(0.0024692 -1.35654e-06 -2.4016e-05)
(0.00245563 -4.39538e-07 -2.38659e-05)
(0.00242086 -1.4967e-06 -3.07852e-05)
(0.00237719 1.01838e-06 -3.99767e-05)
(0.00229378 1.3776e-07 -5.86328e-05)
(0.00250008 -3.56892e-06 -4.07542e-05)
(0.00252762 -2.25054e-06 -3.46687e-05)
(0.00251186 -1.46389e-06 -2.95749e-05)
(0.00252952 -8.26683e-07 -2.47344e-05)
(0.002487 -4.80444e-07 -2.20665e-05)
(0.00248925 -4.43205e-08 -2.02482e-05)
(0.00243719 5.7165e-07 -2.62295e-05)
(0.00242561 5.75685e-07 -3.2159e-05)
(0.00232453 5.41573e-07 -5.96118e-05)
(0.00245999 -3.65326e-06 -3.6834e-05)
(0.0025013 -2.65639e-06 -3.14179e-05)
(0.00247016 -1.77466e-06 -2.66045e-05)
(0.00249458 -1.05816e-06 -2.19738e-05)
(0.00244936 -2.99109e-07 -1.89037e-05)
(0.00246245 5.32769e-07 -1.61615e-05)
(0.00240571 1.4597e-06 -2.0024e-05)
(0.00237817 3.78271e-06 -2.47821e-05)
(0.00229425 2.25348e-06 -4.3072e-05)
)
;
    }
    procBoundary1to5
    {
        type            processor;
        value           nonuniform List<vector> 
32
(
(0.00242508 1.39095e-08 -1.58878e-05)
(0.00238406 -7.47563e-07 -1.14676e-05)
(0.00238587 -2.01112e-06 -6.77173e-06)
(0.00232967 -6.05924e-06 -4.2517e-06)
(0.00230757 -1.12326e-05 -1.34651e-06)
(0.0022257 -1.91212e-05 -3.07281e-06)
(0.00242767 -2.43067e-06 -2.08412e-05)
(0.00244514 -3.91251e-07 -1.5996e-05)
(0.00240539 -9.67379e-07 -1.15223e-05)
(0.00241996 -1.07392e-06 -6.3387e-06)
(0.00236249 -5.18227e-06 -5.05205e-06)
(0.00234578 -8.79026e-06 -2.28542e-06)
(0.00225405 -1.84794e-05 -7.48354e-06)
(0.00245109 -3.59512e-06 -2.5577e-05)
(0.00241487 -2.44158e-06 -2.07035e-05)
(0.00244023 -1.21184e-06 -1.61074e-05)
(0.00240264 -1.23819e-06 -1.21228e-05)
(0.00240171 -1.43913e-06 -8.07639e-06)
(0.00235201 -3.26106e-06 -6.71998e-06)
(0.00232281 -5.71434e-06 -6.74668e-06)
(0.00224879 -1.08129e-05 -1.17778e-05)
(0.00239294 -9.56538e-06 -2.25374e-05)
(0.00240001 -6.70641e-06 -1.73361e-05)
(0.00242508 1.39095e-08 -1.58878e-05)
(0.00242767 -2.43067e-06 -2.08412e-05)
(0.00239325 -4.3799e-06 -1.23616e-05)
(0.00242106 -9.20423e-06 -2.28325e-05)
(0.00242767 -2.43067e-06 -2.08412e-05)
(0.00245109 -3.59512e-06 -2.5577e-05)
(0.0024329 -6.44145e-06 -1.80138e-05)
(0.00245109 -3.59512e-06 -2.5577e-05)
(0.00239985 -7.10045e-06 -2.33555e-05)
)
;
    }
    procBoundary1to7
    {
        type            processor;
        value           uniform (0.00241878 -3.5641e-06 -3.10253e-05);
    }
}


// ************************************************************************* //
