/*--------------------------------*- C++ -*----------------------------------*\
| =========                 |                                                 |
| \\      /  F ield         | OpenFOAM: The Open Source CFD Toolbox           |
|  \\    /   O peration     | Version:  4.x                                   |
|   \\  /    A nd           | Web:      www.OpenFOAM.org                      |
|    \\/     M anipulation  |                                                 |
\*---------------------------------------------------------------------------*/
FoamFile
{
    version     2.0;
    format      ascii;
    class       volScalarField;
    location    "59";
    object      p_rgh;
}
// * * * * * * * * * * * * * * * * * * * * * * * * * * * * * * * * * * * * * //

dimensions      [1 -1 -2 0 0 0 0];

internalField   nonuniform List<scalar> 
87
(
18.8241
74.7843
-0.824219
69.1356
-22.2304
65.184
-46.9933
65.6862
-48.0452
18.3725
74.7286
-1.45083
69.0813
-22.9554
65.144
-47.4765
65.0602
-76.0847
19.1957
75.0244
-0.2148
68.9242
-20.5749
63.813
-42.5706
60.8594
-67.9357
19.0818
75.0362
0.0498288
68.9819
-20.06
63.6502
-40.9988
59.9109
-61.2016
18.7738
75.0105
-0.603648
68.9539
-21.1787
63.5778
-42.7233
60.1213
-63.72
19.4981
75.3637
0.586243
68.6169
-18.416
62.0118
-37.201
55.6511
-52.1219
18.9749
74.8441
-0.487905
68.9078
-21.2796
64.1567
-43.2345
61.904
-65.5415
18.47
74.7516
-1.26688
68.6736
-21.963
63.6669
-43.657
61.2358
-65.7236
20.0651
74.8797
1.33462
68.4404
-17.8271
62.6286
-36.9618
57.9433
-54.1899
20.4124
75.5804
2.02117
20.1746
75.2172
22.4901
)
;

boundaryField
{
    inlet
    {
        type            fixedFluxPressure;
        gradient        nonuniform 0();
        value           nonuniform 0();
    }
    outlet
    {
        type            fixedValue;
        value           uniform 0;
    }
    wall
    {
        type            fixedFluxPressure;
        gradient        nonuniform List<scalar> 
57
(
-7.7045e-07
-6.21249e-07
-6.29357e-06
-1.08434e-06
-9.57094e-07
-4.48168e-06
-6.85811e-06
-9.84155e-06
-2.61937e-05
-3.27758e-06
-4.97545e-06
-6.92236e-06
-2.20829e-07
-3.66494e-06
-7.58647e-06
1.46013e-06
2.66554e-07
-1.07874e-06
5.62414e-06
7.9692e-06
-8.1957e-06
1.58915e-05
3.60762e-06
2.06577e-06
9.1598e-05
2.52578e-05
-4.8089e-06
2.43906e-06
4.5262e-06
1.74659e-06
2.41713e-06
3.71547e-07
1.74941e-06
1.07956e-06
-6.70405e-07
-7.58094e-08
3.93283e-06
9.83725e-07
4.21001e-06
-2.006e-07
-1.51782e-07
4.29618e-08
-3.53421e-08
6.48657e-07
-3.9563e-07
-2.30968e-06
-4.34568e-07
-3.67957e-08
1.68233e-07
1.12749e-06
-1.71027e-06
-5.58616e-06
2.04902e-06
1.11763e-08
4.07922e-05
3.59909e-05
9.06004e-06
)
;
        value           nonuniform List<scalar> 
57
(
18.8241
18.3725
19.1957
74.7843
74.7286
75.0244
-0.824219
-1.45083
-0.214801
69.1356
69.0813
68.9242
-22.2304
-22.9554
-20.5749
65.184
65.144
63.813
-46.9933
-47.4765
-42.5706
65.6862
65.0602
60.8594
-48.0452
-76.0847
-67.9357
18.8241
19.0818
18.9749
20.4124
74.7843
75.0362
74.8441
75.5804
-0.824219
0.0498289
-0.487905
2.02117
69.1356
68.9819
68.9078
-22.2304
-20.06
-21.2796
65.184
63.6502
64.1567
-46.9933
-40.9988
-43.2345
65.6862
59.9109
61.904
-48.0452
-61.2016
-65.5415
)
;
    }
    procBoundary1to0
    {
        type            processor;
        value           nonuniform List<scalar> 
12
(
80.9726
81.0287
81.5277
81.4956
81.6188
82.1476
81.2874
81.3685
81.7676
82.0958
82.1452
82.0206
)
;
    }
    procBoundary1to3
    {
        type            processor;
        value           nonuniform List<scalar> 
27
(
18.1924
74.6634
-1.71752
68.9504
-22.9135
64.9759
-46.0057
63.6483
-72.6365
18.1262
74.9036
-1.7768
68.7604
-22.453
63.845
-43.0491
60.9159
-65.2203
19.1727
74.7673
-0.231706
68.3525
-19.8088
63.0982
-38.8672
59.0278
-55.9949
)
;
    }
    procBoundary1to5
    {
        type            processor;
        value           nonuniform List<scalar> 
32
(
69.2007
-16.282
62.4595
-33.2297
55.857
-46.7977
1.2929
68.5447
-17.3194
62.3252
-35.436
56.5352
-51.0485
75.1019
4.94291
68.453
-12.4429
61.6657
-29.2898
53.6861
-44.4929
19.4939
74.8625
69.2007
1.2929
0.294268
19.6138
1.2929
75.1019
74.9577
75.1019
21.1083
)
;
    }
    procBoundary1to7
    {
        type            processor;
        value           uniform 20.6194;
    }
}


// ************************************************************************* //
