/*--------------------------------*- C++ -*----------------------------------*\
| =========                 |                                                 |
| \\      /  F ield         | OpenFOAM: The Open Source CFD Toolbox           |
|  \\    /   O peration     | Version:  4.x                                   |
|   \\  /    A nd           | Web:      www.OpenFOAM.org                      |
|    \\/     M anipulation  |                                                 |
\*---------------------------------------------------------------------------*/
FoamFile
{
    version     2.0;
    format      ascii;
    class       volScalarField;
    location    "59";
    object      pSmooth;
}
// * * * * * * * * * * * * * * * * * * * * * * * * * * * * * * * * * * * * * //

dimensions      [1 -1 -2 0 0 0 0];

internalField   nonuniform List<scalar> 
87
(
19.0257
74.9388
0.1
69.2559
0.1
65.322
0.1
65.7486
0.1
18.5139
74.8492
0.1
69.1915
0.1
65.3085
0.1
65.1825
0.1
19.3125
75.1052
0.1
69.0001
0.1
63.9384
0.1
61.0731
0.1
19.3217
75.1815
0.269589
69.0908
0.1
63.7872
0.1
59.9836
0.1
18.869
75.1385
0.1
69.0466
0.1
63.7541
0.1
60.2458
0.1
19.6054
75.3808
0.718307
68.6657
0.1
62.187
0.1
55.8303
0.1
19.1354
74.9613
0.1
69.0042
0.1
64.2668
0.1
61.9534
0.1
18.5916
74.848
0.1
68.757
0.1
63.7855
0.1
61.2984
0.1
20.1588
74.9407
1.45874
68.5003
0.1
62.7252
0.1
58.0045
0.1
20.5399
75.6664
2.17514
20.2935
75.2956
22.5843
)
;

boundaryField
{
    inlet
    {
        type            zeroGradient;
    }
    outlet
    {
        type            fixedValue;
        value           uniform 0;
    }
    wall
    {
        type            zeroGradient;
    }
    procBoundary1to0
    {
        type            processor;
        value           nonuniform List<scalar> 
12
(
81.1484
81.1615
81.6276
81.6583
81.7357
82.2357
81.4217
81.48
81.8574
82.2003
82.242
82.1001
)
;
    }
    procBoundary1to3
    {
        type            processor;
        value           nonuniform List<scalar> 
27
(
18.2959
74.7041
0.1
68.9553
0.1
64.9292
0.1
63.9735
0.1
18.2209
74.9496
0.1
68.7857
0.1
63.727
0.1
60.8443
0.1
19.2658
74.8206
0.1
68.3851
0.1
63.0584
0.1
58.9684
0.1
)
;
    }
    procBoundary1to5
    {
        type            processor;
        value           nonuniform List<scalar> 
32
(
69.273
0.1
62.5265
0.1
55.8531
0.1
1.46583
68.6071
0.1
62.3784
0.1
56.5396
0.1
75.1639
5.03126
68.4975
0.1
61.697
0.1
53.6965
0.1
19.5938
74.9317
69.273
1.46583
0.431759
19.7129
1.46583
75.1639
75.0243
75.1639
21.1903
)
;
    }
    procBoundary1to7
    {
        type            processor;
        value           uniform 20.7071;
    }
}


// ************************************************************************* //
