/*--------------------------------*- C++ -*----------------------------------*\
| =========                 |                                                 |
| \\      /  F ield         | OpenFOAM: The Open Source CFD Toolbox           |
|  \\    /   O peration     | Version:  4.x                                   |
|   \\  /    A nd           | Web:      www.OpenFOAM.org                      |
|    \\/     M anipulation  |                                                 |
\*---------------------------------------------------------------------------*/
FoamFile
{
    version     2.0;
    format      ascii;
    class       volScalarField;
    location    "59";
    object      QPartFluid;
}
// * * * * * * * * * * * * * * * * * * * * * * * * * * * * * * * * * * * * * //

dimensions      [1 -1 -3 0 0 0 0];

internalField   nonuniform List<scalar> 
87
(
1.83794e+09
6.71099e+09
4.19917e+09
6.56192e+09
4.37884e+09
4.52046e+09
5.25114e+09
6.59159e+09
3.96817e+09
4.53295e+09
4.43423e+09
5.84314e+09
5.75245e+09
4.40408e+09
6.68311e+09
7.67201e+09
6.75357e+09
4.03843e+09
3.94731e+09
7.09679e+09
6.22262e+09
8.9626e+09
6.3049e+09
5.82987e+09
5.78717e+09
6.32928e+09
4.33298e+09
7.33243e+09
6.58407e+09
6.13679e+09
7.57569e+09
6.35614e+09
8.19161e+09
9.03215e+09
8.89614e+09
5.31387e+09
9.11081e+09
6.81186e+09
7.5639e+09
9.42752e+09
9.20358e+09
7.73065e+09
9.41741e+09
1.05802e+10
4.74007e+09
8.9755e+09
8.38877e+09
7.18752e+09
6.80799e+09
5.80395e+09
9.15163e+09
9.31212e+09
1.32472e+10
4.51987e+09
7.10886e+09
6.99819e+09
8.20801e+09
9.60083e+09
6.07883e+09
9.98626e+09
7.20743e+09
7.38262e+09
3.18155e+09
6.57008e+09
8.95243e+09
6.48968e+09
8.09917e+09
8.17908e+09
9.08416e+09
7.62468e+09
9.45422e+09
3.70157e+09
8.18125e+09
7.7717e+09
5.4628e+09
1.11332e+10
8.86927e+09
1.08996e+10
7.69457e+09
9.71082e+09
3.39229e+09
6.46487e+09
5.53117e+09
7.57675e+09
7.85675e+09
1.22052e+10
5.90278e+09
)
;

boundaryField
{
    inlet
    {
        type            calculated;
        value           nonuniform 0();
    }
    outlet
    {
        type            calculated;
        value           uniform 0;
    }
    wall
    {
        type            calculated;
        value           uniform 0;
    }
    procBoundary1to0
    {
        type            processor;
        value           nonuniform List<scalar> 
12
(
4.59257e+09
5.25265e+09
8.51292e+09
7.36232e+09
9.07657e+09
6.353e+09
5.42214e+09
1.00532e+10
5.39548e+09
6.04334e+09
6.93308e+09
9.33918e+09
)
;
    }
    procBoundary1to3
    {
        type            processor;
        value           nonuniform List<scalar> 
27
(
8.49041e+09
3.85246e+09
6.83238e+09
3.23845e+09
5.02175e+09
3.80901e+09
5.65331e+09
4.8725e+09
3.39332e+09
8.57918e+09
8.10459e+09
1.02076e+10
1.06883e+10
8.57622e+09
8.03886e+09
6.90807e+09
8.67636e+09
8.13643e+09
8.28083e+09
1.10451e+10
9.3052e+09
1.04165e+10
6.66601e+09
7.90109e+09
9.22745e+09
8.51151e+09
7.05866e+09
)
;
    }
    procBoundary1to5
    {
        type            processor;
        value           nonuniform List<scalar> 
32
(
7.86388e+09
7.23733e+09
7.04406e+09
5.72643e+09
7.895e+09
5.86068e+09
7.27543e+09
7.05425e+09
5.91671e+09
8.28286e+09
8.48847e+09
1.01356e+10
6.52855e+09
9.96092e+09
6.15479e+09
8.72328e+09
5.89175e+09
5.31982e+09
7.14774e+09
6.26266e+09
6.66057e+09
6.65156e+09
5.7008e+09
7.86388e+09
7.27543e+09
7.57557e+09
8.21426e+09
7.27543e+09
9.96092e+09
8.25271e+09
9.96092e+09
8.52142e+09
)
;
    }
    procBoundary1to7
    {
        type            processor;
        value           uniform 1.02025e+10;
    }
}


// ************************************************************************* //
