/*--------------------------------*- C++ -*----------------------------------*\
| =========                 |                                                 |
| \\      /  F ield         | OpenFOAM: The Open Source CFD Toolbox           |
|  \\    /   O peration     | Version:  4.x                                   |
|   \\  /    A nd           | Web:      www.OpenFOAM.org                      |
|    \\/     M anipulation  |                                                 |
\*---------------------------------------------------------------------------*/
FoamFile
{
    version     2.0;
    format      ascii;
    class       volVectorField;
    location    "59";
    object      Urel;
}
// * * * * * * * * * * * * * * * * * * * * * * * * * * * * * * * * * * * * * //

dimensions      [0 1 -1 0 0 0 0];

internalField   nonuniform List<vector> 
87
(
(-0.0254549 1.21501e-05 0.00063)
(-0.0268451 -4.4235e-05 0.000593649)
(-0.0259653 -0.000116932 0.000611788)
(-0.0273801 -0.000130776 0.000585674)
(-0.0261207 -0.000135524 0.000756602)
(-0.0276444 -7.47953e-05 0.000705177)
(-0.0254493 8.92738e-05 0.00129719)
(-0.0270287 0.00027063 0.00116308)
(-0.0216396 0.000964653 0.00280556)
(-0.0244192 0.000147974 0.000586911)
(-0.0258626 9.35742e-05 0.000539073)
(-0.0248038 6.3904e-05 0.000531518)
(-0.0263098 2.04217e-05 0.000481965)
(-0.0248766 0.000112757 0.000609806)
(-0.0264856 5.9815e-05 0.000528417)
(-0.0242032 0.000418864 0.00107323)
(-0.0257481 0.000307788 0.00101389)
(-0.020857 0.0015023 0.00277065)
(-0.023283 8.0842e-05 0.000508537)
(-0.0247268 3.7272e-05 0.000447077)
(-0.0234844 8.67572e-06 0.000411106)
(-0.0249817 6.67366e-06 0.00033137)
(-0.0234259 7.88326e-05 0.000448123)
(-0.0249507 0.000121954 0.000335695)
(-0.0227614 0.000368799 0.000892006)
(-0.0241725 0.000423909 0.000836859)
(-0.0199541 0.00119209 0.00270719)
(-0.0234373 1.89625e-05 0.000533057)
(-0.0248957 -3.98717e-05 0.000482918)
(-0.0236528 -0.000115135 0.000472142)
(-0.0251253 -0.000137007 0.000429596)
(-0.0235356 -0.000155075 0.000528743)
(-0.024967 -0.000110432 0.000462096)
(-0.0226214 5.13513e-06 0.000892226)
(-0.0236837 0.000176728 0.000749948)
(-0.019539 0.000532546 0.00210666)
(-0.0220611 0.000114111 0.00047582)
(-0.0237429 6.06683e-05 0.00041238)
(-0.0221685 1.87928e-05 0.000380859)
(-0.0239497 -4.40685e-05 0.000311206)
(-0.0220597 2.84263e-05 0.000391594)
(-0.0238683 -6.37819e-05 0.00028905)
(-0.0214179 0.000227433 0.000707895)
(-0.0228462 8.16862e-05 0.000648009)
(-0.0190592 0.00103604 0.00221716)
(-0.020712 6.40697e-05 0.000415582)
(-0.0225567 2.16951e-05 0.000331769)
(-0.0206717 1.41255e-05 0.000295815)
(-0.0226151 -1.06905e-05 0.000206034)
(-0.0205498 4.9154e-05 0.000262644)
(-0.022374 7.22538e-05 0.000174031)
(-0.0200889 0.000210922 0.000574077)
(-0.0213315 0.000314848 0.000630102)
(-0.0185512 0.000693342 0.002419)
(-0.0219067 2.28995e-05 0.000527987)
(-0.0233443 -4.58769e-05 0.000477036)
(-0.0218448 -0.000111379 0.000480582)
(-0.0233298 -0.000145814 0.000411977)
(-0.0214569 -0.000115457 0.000515978)
(-0.0229414 -0.000100624 0.000342567)
(-0.0204272 7.06732e-05 0.000721458)
(-0.0215854 0.000159422 0.000420352)
(-0.0179243 0.000540579 0.00164055)
(-0.0204748 0.000121539 0.000444302)
(-0.0221915 4.60644e-05 0.000374306)
(-0.0204558 4.17639e-05 0.000359281)
(-0.022249 -4.08295e-05 0.00026248)
(-0.0202674 7.44526e-05 0.000365718)
(-0.022027 -3.93751e-05 0.000205773)
(-0.0196083 0.000289875 0.000581821)
(-0.020995 9.33182e-05 0.000370607)
(-0.0176695 0.00107803 0.00167258)
(-0.0190856 7.78292e-05 0.00035083)
(-0.0209687 3.46429e-05 0.000266102)
(-0.019017 2.85874e-05 0.000254533)
(-0.0209612 -1.14703e-05 0.000179422)
(-0.018897 5.79673e-05 0.000232959)
(-0.0207016 2.92506e-05 0.000147534)
(-0.0184635 0.000236184 0.000452437)
(-0.0197025 0.000168147 0.000387896)
(-0.0172891 0.000936991 0.00152859)
(-0.0206305 5.19295e-05 0.000301377)
(-0.0220135 -3.76586e-05 0.000224705)
(-0.0202041 -7.72507e-05 0.000185865)
(-0.0191132 9.29614e-05 0.000259404)
(-0.0208927 -6.64577e-06 0.000204095)
(-0.0179968 5.49833e-05 0.000216303)
)
;

boundaryField
{
    inlet
    {
        type            calculated;
        value           nonuniform 0();
    }
    outlet
    {
        type            calculated;
        value           nonuniform List<vector> 9((-0.013023 0.00288832 0.0103731) (-0.0108719 0.00939535 0.0102461) (-0.0105995 0.00408352 0.0118968) (-0.00607122 -0.00120214 0.00545367) (-0.00561345 0.00516241 0.00699455) (-0.00961233 -0.000509397 0.0116287) (-0.00609482 -0.000100465 0.00875926) (-0.00620222 0.00745037 0.00856108) (-0.00882295 0.00681202 0.0055925));
    }
    wall
    {
        type            calculated;
        value           nonuniform List<vector> 
57
(
(-6.19419e-07 4.38791e-07 -3.83092e-07)
(-1.88031e-07 -1.91708e-07 -1.31588e-07)
(2.05272e-08 -9.75738e-08 -2.37992e-07)
(-7.72797e-06 5.94357e-06 1.50071e-06)
(-5.91362e-08 -1.74228e-07 -7.8642e-08)
(-4.33812e-08 -5.19948e-08 -1.54463e-07)
(-7.74185e-08 -1.4706e-07 -3.93782e-08)
(-1.92705e-08 -4.29178e-09 -1.00449e-07)
(-5.49084e-09 1.07183e-07 -2.096e-07)
(-5.94423e-08 -6.83146e-09 -1.01834e-08)
(-9.59155e-08 -1.0402e-08 -4.43676e-08)
(-3.68965e-08 -3.06396e-10 -1.06722e-07)
(-6.43848e-08 2.04899e-08 1.71258e-07)
(4.06543e-08 -6.68222e-08 1.19756e-07)
(4.2899e-08 -2.61489e-09 4.24241e-08)
(-1.09506e-07 6.36332e-08 1.61757e-07)
(4.30708e-08 1.27624e-08 1.6367e-07)
(6.67961e-09 -2.23914e-08 1.21373e-07)
(-6.05878e-08 3.68729e-08 8.92452e-08)
(2.10138e-08 1.77147e-08 1.94743e-07)
(-5.33236e-08 -1.27825e-07 2.33508e-07)
(6.70341e-08 2.6793e-08 1.7625e-07)
(2.72452e-08 3.61108e-09 2.35437e-07)
(1.74928e-08 -7.08125e-08 2.99406e-07)
(2.41903e-08 1.71673e-08 1.02099e-07)
(-1.99032e-08 4.10932e-09 2.03815e-07)
(9.74188e-09 -2.86583e-08 2.85795e-07)
(-6.19419e-07 4.38791e-07 -3.83092e-07)
(-1.8365e-07 -6.95451e-08 -1.78837e-07)
(-6.9622e-08 -1.30096e-07 -2.04654e-07)
(-3.39801e-07 6.34382e-08 -3.25344e-07)
(-7.72797e-06 5.94357e-06 1.50071e-06)
(-2.57738e-07 -7.14392e-08 -2.43186e-07)
(-1.44501e-07 -3.58945e-08 -7.68979e-08)
(-2.57335e-07 3.6557e-08 5.38964e-08)
(-7.74185e-08 -1.4706e-07 -3.93782e-08)
(-1.16337e-07 -4.25688e-08 -1.10689e-07)
(-1.78518e-07 7.3521e-09 -1.2872e-07)
(-2.94028e-07 4.70276e-08 -7.02746e-08)
(-5.94423e-08 -6.83146e-09 -1.01834e-08)
(-1.3462e-07 5.91222e-08 4.49187e-08)
(-3.16835e-07 1.5515e-07 6.7877e-08)
(-6.43848e-08 2.04899e-08 1.71258e-07)
(-1.20932e-07 2.45625e-08 1.92648e-07)
(-2.93687e-07 1.5627e-07 1.73936e-07)
(-1.09506e-07 6.36332e-08 1.61757e-07)
(-1.34828e-07 1.36246e-08 1.21973e-07)
(-2.25869e-07 8.01766e-08 9.24517e-08)
(-6.05878e-08 3.68729e-08 8.92452e-08)
(-5.65505e-08 8.65452e-09 1.00125e-07)
(-8.66714e-08 -1.69595e-08 7.56513e-08)
(6.70341e-08 2.6793e-08 1.7625e-07)
(-5.2965e-08 6.14729e-09 1.71841e-07)
(-3.27452e-08 1.7826e-10 2.08941e-07)
(2.41903e-08 1.71673e-08 1.02099e-07)
(-1.35137e-08 -3.30079e-08 1.03891e-07)
(-2.55427e-08 -5.86761e-08 1.40741e-07)
)
;
    }
    procBoundary1to0
    {
        type            processor;
        value           nonuniform List<vector> 
12
(
(-0.0261689 0.000113658 0.000700778)
(-0.0253151 0.000224008 0.000670403)
(-0.0243697 0.00013423 0.000607489)
(-0.024516 0.000120078 0.000609437)
(-0.0234729 0.000200107 0.000566408)
(-0.0224414 0.000105444 0.000503579)
(-0.0231962 0.000123337 0.000576251)
(-0.0220791 0.000186307 0.000507484)
(-0.0209665 0.000120603 0.00039872)
(-0.0221733 0.000132721 0.000372892)
(-0.0210105 0.000139207 0.000337841)
(-0.0199496 7.67107e-05 0.000272827)
)
;
    }
    procBoundary1to3
    {
        type            processor;
        value           nonuniform List<vector> 
27
(
(-0.0230354 9.02467e-05 0.00042354)
(-0.0244935 8.13376e-05 0.00035748)
(-0.0232283 9.19389e-05 0.000283811)
(-0.0247076 0.000130508 0.000191369)
(-0.0230499 0.000225437 0.000219745)
(-0.0244838 0.000277883 0.000122002)
(-0.0220267 0.000507182 0.000532344)
(-0.0232876 0.000432758 0.000572887)
(-0.0190446 0.00124979 0.00190992)
(-0.0205479 4.76629e-05 0.00040125)
(-0.0223684 3.0279e-05 0.000319521)
(-0.02055 3.90768e-05 0.000273337)
(-0.022465 4.91961e-05 0.000150441)
(-0.0203918 8.81852e-05 0.000214968)
(-0.022238 0.000137227 5.1098e-05)
(-0.019737 0.000187071 0.000479094)
(-0.0212056 0.000268038 0.000397263)
(-0.0178835 0.000401915 0.00210767)
(-0.01881 6.33391e-05 0.00034644)
(-0.0206935 4.94114e-05 0.000261648)
(-0.0187407 6.1135e-05 0.000246241)
(-0.0206753 6.66261e-05 0.000147808)
(-0.0185979 0.000102898 0.000208001)
(-0.0203737 9.80245e-05 6.63801e-05)
(-0.0180687 0.000166055 0.000386656)
(-0.0192897 7.2784e-05 0.000285431)
(-0.0168575 0.000386571 0.00156674)
)
;
    }
    procBoundary1to5
    {
        type            processor;
        value           nonuniform List<vector> 
32
(
(-0.0216108 -0.000137451 9.10014e-05)
(-0.0194491 -5.22069e-05 7.2536e-05)
(-0.0207934 -1.03665e-05 -6.60634e-05)
(-0.0183461 0.000171527 -2.16535e-05)
(-0.0191219 0.000325692 -0.000167545)
(-0.0165464 0.00062316 0.000109345)
(-0.0188671 -5.92468e-06 0.000148709)
(-0.02071 -8.78441e-05 6.54332e-05)
(-0.0185526 7.57633e-06 5.2024e-05)
(-0.0202417 -2.6604e-05 -9.59297e-05)
(-0.0178828 0.000186727 7.02408e-06)
(-0.0190004 0.00014985 -0.000184923)
(-0.0166228 0.000759871 0.000430989)
(-0.0198251 -3.69714e-06 0.00016199)
(-0.0178722 1.00371e-05 0.000126288)
(-0.0196983 -1.2574e-05 6.09967e-05)
(-0.0176676 3.48142e-05 4.06053e-05)
(-0.0193298 6.58303e-05 -5.50966e-05)
(-0.0171214 0.000167173 1.33388e-05)
(-0.0182803 0.000283386 -4.74559e-05)
(-0.0162834 0.000485604 0.000335561)
(-0.0206476 0.000120282 7.17406e-05)
(-0.0220783 6.57783e-05 -2.19123e-05)
(-0.0216108 -0.000137451 9.10014e-05)
(-0.0188671 -5.92468e-06 0.000148709)
(-0.0204793 3.23271e-05 -8.2478e-05)
(-0.0190875 0.000138882 7.85843e-05)
(-0.0188671 -5.92468e-06 0.000148709)
(-0.0198251 -3.69714e-06 0.00016199)
(-0.020855 7.29809e-05 1.98168e-05)
(-0.0198251 -3.69714e-06 0.00016199)
(-0.017892 8.43609e-05 8.91389e-05)
)
;
    }
    procBoundary1to7
    {
        type            processor;
        value           uniform (-0.0177967 2.27347e-05 0.000234704);
    }
}


// ************************************************************************* //
